<LesHouchesEvents version="3.0">
<header>
<!--
#*********************************************************************
#                                                                    *
#                        MadGraph5_aMC@NLO                           *
#                                                                    *
#                           Going Beyond                             *
#                                                                    *
#                   http://madgraph.hep.uiuc.edu                     *
#                   http://madgraph.phys.ucl.ac.be                   *
#                   http://amcatnlo.cern.ch                          *
#                                                                    *
#                     The MadGraph5_aMC@NLO team                     *
#                                                                    *
#....................................................................*
#                                                                    *
# This file contains all the information necessary to reproduce      *
# the events generated:                                              *
#                                                                    *
# 1. software version                                                *
# 2. proc_card          : code generation info including model       *
# 3. param_card         : model primary parameters in the LH format  *
# 4. run_card           : running parameters (collider and cuts)     *
# 5. pythia_card        : present only if pythia has been run        *
# 6. pgs_card           : present only if pgs has been run           *
# 7. delphes_cards      : present only if delphes has been run       *
#                                                                    *
#                                                                    *
#*********************************************************************
-->
<MGVersion>
2.6.4
</MGVersion>
<MG5ProcCard>
<![CDATA[
#************************************************************
#*                     MadGraph5_aMC@NLO                    *
#*                                                          *
#*                *                       *                 *
#*                  *        * *        *                   *
#*                    * * * * 5 * * * *                     *
#*                  *        * *        *                   *
#*                *                       *                 *
#*                                                          *
#*                                                          *
#*         VERSION 2.6.4                 2018-11-09         *
#*                                                          *
#*    The MadGraph5_aMC@NLO Development Team - Find us at   *
#*    https://server06.fynu.ucl.ac.be/projects/madgraph     *
#*                                                          *
#************************************************************
#*                                                          *
#*               Command File for MadGraph5_aMC@NLO         *
#*                                                          *
#*     run as ./bin/mg5_aMC  filename                       *
#*                                                          *
#************************************************************
set default_unset_couplings 99
set group_subprocesses Auto
set ignore_six_quark_processes False
set loop_optimized_output True
set loop_color_flows False
set gauge unitary
set complex_mass_scheme False
set max_npoint_for_channel 0
import model SM4fLL_UFO
define p = g u c d s u~ c~ d~ s~
define j = g u c d s u~ c~ d~ s~
define l+ = e+ mu+
define l- = e- mu-
define vl = ve vm vt
define vl~ = ve~ vm~ vt~
generate u u~ > mu+ mu- NP=2 QED=99 QCD=0
output /Users/dpappadopulo/Projects/~Physics/madminer/examples/example\
4_systematics_DY/data/mg_processes/DY_sys/
]]>
</MG5ProcCard>
<MGProcCard>
#*********************************************************************
#                        MadGraph/MadEvent                           *
#                   http://madgraph.hep.uiuc.edu                     *
#                                                                    *
#                          proc_card.dat                             *
#*********************************************************************
#                                                                    *
#            This Files is generated by MADGRAPH 5                   *
#                                                                    *
# WARNING: This Files is generated for MADEVENT (compatibility issue)*
#          This files is NOT a valid MG4 proc_card.dat               *
#          Running this in MG4 will NEVER reproduce the result of MG5*
#                                                                    *
#*********************************************************************
#*********************************************************************
# Process(es) requested : mg2 input                                  *
#*********************************************************************
# Begin PROCESS # This is TAG. Do not modify this line
u u~ > mu+ mu-           #Process
# Be carefull the coupling are here in MG5 convention
NP=2
QED=99
QCD=0
          
end_coup           # End the couplings input

done               # this tells MG there are no more procs
# End PROCESS  # This is TAG. Do not modify this line
#*********************************************************************
# Model information                                                  *
#*********************************************************************
# Begin MODEL  # This is TAG. Do not modify this line
SM4fLL_UFO
# End   MODEL  # This is TAG. Do not modify this line
#*********************************************************************
# Start multiparticle definitions                                    *
#*********************************************************************
# Begin MULTIPARTICLES # This is TAG. Do not modify this line

# End  MULTIPARTICLES # This is TAG. Do not modify this line
</MGProcCard>
<MGRunCard>
<![CDATA[
#*********************************************************************
#                       MadGraph5_aMC@NLO                            *
#                                                                    *
#                     run_card.dat MadEvent                          *
#                                                                    *
#  This file is used to set the parameters of the run.               *
#                                                                    *
#  Some notation/conventions:                                        *
#                                                                    *
#   Lines starting with a '# ' are info or comments                  *
#                                                                    *
#   mind the format:   value    = variable     ! comment             *
#*********************************************************************
#
#*******************                                                 
# Running parameters
#*******************                                                 
#                                                                    
#*********************************************************************
# Tag name for the run (one word)                                    *
#*********************************************************************
  tag_1     = run_tag ! name of the run 
#*********************************************************************
# Run to generate the grid pack                                      *
#*********************************************************************
  False     = gridpack  !True = setting up the grid pack
#*********************************************************************
# Number of events and rnd seed                                      *
# Warning: Do not generate more than 1M events in a single run       *
# If you want to run Pythia, avoid more than 50k events in a run.    *
#*********************************************************************
  1000 = nevents ! Number of unweighted events requested
 39 = iseed   ! rnd seed (0=assigned automatically=default))
#*********************************************************************
# Collider type and energy                                           *
# lpp: 0=No PDF, 1=proton, -1=antiproton, 2=photon from proton,      *
#                                         3=photon from electron     *
#*********************************************************************
     1        = lpp1    ! beam 1 type 
     1        = lpp2    ! beam 2 type
     6500.0     = ebeam1  ! beam 1 total energy in GeV
     6500.0     = ebeam2  ! beam 2 total energy in GeV
#*********************************************************************
# Beam polarization from -100 (left-handed) to 100 (right-handed)    *
#*********************************************************************
     0.0     = polbeam1 ! beam polarization for beam 1
     0.0     = polbeam2 ! beam polarization for beam 2
#*********************************************************************
# PDF CHOICE: this automatically fixes also alpha_s and its evol.    *
#*********************************************************************
     lhapdf    = pdlabel     ! PDF set
     90900   = lhaid     ! if pdlabel=lhapdf, this is the lhapdf number
#*********************************************************************
# Renormalization and factorization scales                           *
#*********************************************************************
 False = fixed_ren_scale  ! if .true. use fixed ren scale
 False        = fixed_fac_scale  ! if .true. use fixed fac scale
 91.188  = scale            ! fixed ren scale
 91.188  = dsqrt_q2fact1    ! fixed fact scale for pdf1
 91.188  = dsqrt_q2fact2    ! fixed fact scale for pdf2
 -1 = dynamical_scale_choice ! Choose one of the preselected dynamical choices
 1.0  = scalefact        ! scale factor for event-by-event scales
#*********************************************************************
# Type and output format
#*********************************************************************
  False     = gridpack  !True = setting up the grid pack
  -1.0 = time_of_flight ! threshold (in mm) below which the invariant livetime is not written (-1 means not written)
  3.0 = lhe_version       ! Change the way clustering information pass to shower.        
  True = clusinfo         ! include clustering tag in output
  sum =  event_norm       ! average/sum. Normalization of the weight in the LHEF
#*********************************************************************
# Matching - Warning! ickkw > 1 is still beta
#*********************************************************************
 0 = ickkw            ! 0 no matching, 1 MLM, 2 CKKW matching
 1 = highestmult      ! for ickkw=2, highest mult group
 1 = ktscheme         ! for ickkw=1, 1 Durham kT, 2 Pythia pTE
 1.0 = alpsfact         ! scale factor for QCD emission vx
 False = chcluster        ! cluster only according to channel diag
 True = pdfwgt           ! for ickkw=1, perform pdf reweighting
 4 = asrwgtflavor     ! highest quark flavor for a_s reweight    
#*********************************************************************
#**********************************************************
#
#**********************************************************
# Automatic ptj and mjj cuts if xqcut > 0
# (turn off for VBF and single top processes)
#**********************************************************
   False  = auto_ptj_mjj  ! Automatic setting of ptj and mjj
#**********************************************************
#                                                                    
#**********************************
# BW cutoff (M+/-bwcutoff*Gamma)
#**********************************
  15.0  = bwcutoff      ! (M+/-bwcutoff*Gamma)
#**********************************************************
# Apply pt/E/eta/dr/mij/kt_durham cuts on decay products or not
# (note that etmiss/ptll/ptheavy/ht/sorted cuts always apply)
#*************************************************************
   False  = cut_decays    ! Cut decay products 
#*************************************************************
# Number of helicities to sum per event (0 = all helicities)
# 0 gives more stable result, but longer run time (needed for
# long decay chains e.g.).
# Use >=2 if most helicities contribute, e.g. pure QCD.
#*************************************************************
   0  = nhel          ! Number of helicities used per event
#*******************                                                 
# Standard Cuts
#*******************                                                 
#                                                                    
#*********************************************************************
# Minimum and maximum pt's (for max, -1 means no cut)                *
#*********************************************************************
 15.0  = ptj       ! minimum pt for the jets
 0.0  = ptb       ! minimum pt for the b 
 0.0 = pta       ! minimum pt for the photons
 25.0  = ptl       ! minimum pt for the charged leptons
 0.0  = misset    ! minimum missing Et (sum of neutrino's momenta)
 0.0  = ptheavy   ! minimum pt for one heavy final state
 -1.0  = ptjmax    ! maximum pt for the jets
 -1.0  = ptbmax    ! maximum pt for the b
 -1.0 = ptamax       ! maximum pt for the photons
 -1.0  = ptlmax    ! maximum pt for the charged leptons
 -1.0  = missetmax ! maximum missing Et (sum of neutrino's momenta)
#*********************************************************************
# Minimum and maximum E's (in the center of mass frame)              *
#*********************************************************************
  0.0  = ej     ! minimum E for the jets 
  0.0  = eb     ! minimum E for the b 
  0.0  = ea     ! minimum E for the photons 
  0.0  = el     ! minimum E for the charged leptons 
  -1.0   = ejmax ! maximum E for the jets
 -1.0   = ebmax ! maximum E for the b
 -1.0   = eamax ! maximum E for the photons
 -1.0   = elmax ! maximum E for the charged leptons
#*********************************************************************
# Maximum and minimum absolute rapidity (for max, -1 means no cut)   *
#*********************************************************************
 2.5 = etaj    ! max rap for the jets
  -1.0  = etab    ! max rap for the b
 3.0  = etaa    ! max rap for the photons
 2.5  = etal    ! max rap for the charged leptons
 0.0  = etajmin ! min rap for the jets
 0.0  = etabmin ! min rap for the b
 0.0  = etaamin ! min rap for the photons
 0.0  = etalmin ! main rap for the charged leptons
#*********************************************************************
# Minimum and maximum DeltaR distance                                *
#*********************************************************************
 0.0 = drjj    ! min distance between jets
 0.0 = drbb    ! min distance between b's
 0.0 = drll    ! min distance between leptons
 0.0 = draa    ! min distance between gammas
 0.0 = drbj    ! min distance between b and jet
 0.0 = draj    ! min distance between gamma and jet
 0.0 = drjl    ! min distance between jet and lepton
 0.0 = drab    ! min distance between gamma and b
 0.0 = drbl    ! min distance between b and lepton
 0.0 = dral    ! min distance between gamma and lepton
 -1.0  = drjjmax ! max distance between jets
 -1.0  = drbbmax ! max distance between b's
 -1.0  = drllmax ! max distance between leptons
 -1.0  = draamax ! max distance between gammas
 -1.0  = drbjmax ! max distance between b and jet
 -1.0  = drajmax ! max distance between gamma and jet
 -1.0  = drjlmax ! max distance between jet and lepton
 -1.0  = drabmax ! max distance between gamma and b
 -1.0  = drblmax ! max distance between b and lepton
 -1.0  = dralmax ! maxdistance between gamma and lepton
#*********************************************************************
# Minimum and maximum invariant mass for pairs                       *
# WARNING: for four lepton final state mmll cut require to have      *
#          different lepton masses for each flavor!                  *           
#*********************************************************************
 0.0   = mmjj    ! min invariant mass of a jet pair 
 0.0   = mmbb    ! min invariant mass of a b pair 
 0.0   = mmaa    ! min invariant mass of gamma gamma pair
 430   = mmll    ! min invariant mass of l+l- (same flavour) lepton pair
 -1.0  = mmjjmax ! max invariant mass of a jet pair
 -1.0  = mmbbmax ! max invariant mass of a b pair
 -1.0  = mmaamax ! max invariant mass of gamma gamma pair
 520  = mmllmax ! max invariant mass of l+l- (same flavour) lepton pair
#*********************************************************************
# Minimum and maximum invariant mass for all letpons                 *
#*********************************************************************
 0.0   = mmnl    ! min invariant mass for all letpons (l+- and vl) 
 -1.0  = mmnlmax ! max invariant mass for all letpons (l+- and vl) 
#*********************************************************************
# Minimum and maximum pt for 4-momenta sum of leptons                *
#*********************************************************************
 0.0   = ptllmin  ! Minimum pt for 4-momenta sum of leptons(l and vl)
 -1.0  = ptllmax  ! Maximum pt for 4-momenta sum of leptons(l and vl)
#*********************************************************************
# Inclusive cuts                                                     *
#*********************************************************************
 0.0  = xptj ! minimum pt for at least one jet  
 0.0  = xptb ! minimum pt for at least one b 
 0.0  = xpta ! minimum pt for at least one photon 
 0.0  = xptl ! minimum pt for at least one charged lepton 
#*********************************************************************
# Control the pt's of the jets sorted by pt                          *
#*********************************************************************
 0.0   = ptj1min ! minimum pt for the leading jet in pt
 0.0   = ptj2min ! minimum pt for the second jet in pt
 0.0   = ptj3min ! minimum pt for the third jet in pt
 0.0   = ptj4min ! minimum pt for the fourth jet in pt
 -1.0  = ptj1max ! maximum pt for the leading jet in pt 
 -1.0  = ptj2max ! maximum pt for the second jet in pt
 -1.0  = ptj3max ! maximum pt for the third jet in pt
 -1.0  = ptj4max ! maximum pt for the fourth jet in pt
 0   = cutuse  ! reject event if fails any (0) / all (1) jet pt cuts
#*********************************************************************
# Control the pt's of leptons sorted by pt                           *
#*********************************************************************
 0.0   = ptl1min ! minimum pt for the leading lepton in pt
 0.0   = ptl2min ! minimum pt for the second lepton in pt
 0.0   = ptl3min ! minimum pt for the third lepton in pt
 0.0   = ptl4min ! minimum pt for the fourth lepton in pt
 -1.0  = ptl1max ! maximum pt for the leading lepton in pt 
 -1.0  = ptl2max ! maximum pt for the second lepton in pt
 -1.0  = ptl3max ! maximum pt for the third lepton in pt
 -1.0  = ptl4max ! maximum pt for the fourth lepton in pt
#*********************************************************************
# Control the Ht(k)=Sum of k leading jets                            *
#*********************************************************************
 0.0   = htjmin ! minimum jet HT=Sum(jet pt)
 -1.0  = htjmax ! maximum jet HT=Sum(jet pt)
 0.0   = ihtmin  !inclusive Ht for all partons (including b)
 -1.0  = ihtmax  !inclusive Ht for all partons (including b)
 0.0   = ht2min ! minimum Ht for the two leading jets
 0.0   = ht3min ! minimum Ht for the three leading jets
 0.0   = ht4min ! minimum Ht for the four leading jets
 -1.0  = ht2max ! maximum Ht for the two leading jets
 -1.0  = ht3max ! maximum Ht for the three leading jets
 -1.0  = ht4max ! maximum Ht for the four leading jets
#***********************************************************************
# Photon-isolation cuts, according to hep-ph/9801442                   *
# When ptgmin=0, all the other parameters are ignored                  *
# When ptgmin>0, pta and draj are not going to be used                 *
#***********************************************************************
 0.0 = ptgmin ! Min photon transverse momentum
 0.4 = R0gamma ! Radius of isolation code
 1.0 = xn ! n parameter of eq.(3.4) in hep-ph/9801442
 1.0 = epsgamma ! epsilon_gamma parameter of eq.(3.4) in hep-ph/9801442
 True = isoEM ! isolate photons from EM energy (photons and leptons)
#*********************************************************************
# WBF cuts                                                           *
#*********************************************************************
 0.0   = xetamin ! minimum rapidity for two jets in the WBF case  
 0.0   = deltaeta ! minimum rapidity for two jets in the WBF case 
#*********************************************************************
# KT DURHAM CUT                                                      *
#*********************************************************************
 -1.0    =  ktdurham        
 0.4  =  dparameter 
#*********************************************************************
# maximal pdg code for quark to be considered as a light jet         *
# (otherwise b cuts are applied)                                     *
#*********************************************************************
 4 = maxjetflavor    ! Maximum jet pdg code
#*********************************************************************
# Jet measure cuts                                                   *
#*********************************************************************
 0.0   = xqcut   ! minimum kt jet measure between partons
#*********************************************************************
#
#*********************************************************************
# Store info for systematics studies                                 *
# WARNING: If use_syst is T, matched Pythia output is                *
#          meaningful ONLY if plotted taking matchscale              *
#          reweighting into account!                                 *
#*********************************************************************
#    False  = use_syst      ! Enable systematics studies # Commented out by MadMiner
#
#**************************************
# Parameter of the systematics study
#  will be used by SysCalc (if installed)
#**************************************                                  
#
0.5 1 2 = sys_scalefact  # factorization/renormalization scale factor
None = sys_alpsfact  # \alpha_s emission scale factors
30 50 = sys_matchscale # variation of merging scale
# PDF sets and number of members (0 or none for all members).
NNPDF23_lo_as_0130_qed = sys_pdf # matching scales
# MSTW2008nlo68cl.LHgrid 1  = sys_pdf


#*********************************************************************
# MadMiner systematics setup                                         *
#*********************************************************************
True = use_syst
systematics = systematics_program
['--pdf=90900'] = systematics_arguments
]]>
</MGRunCard>
<slha>
######################################################################
## PARAM_CARD AUTOMATICALY GENERATED BY MG5 FOLLOWING UFO MODEL   ####
######################################################################
##                                                                  ##
##  Width set on Auto will be computed following the information    ##
##        present in the decay.py files of the model.               ##
##        See  arXiv:1402.1178 for more details.                    ##
##                                                                  ##
######################################################################

###################################
## INFORMATION FOR CKMBLOCK
###################################
Block ckmblock 
    1 2.277360e-01 # cabi 

###################################
## INFORMATION FOR MASS
###################################
Block mass 
    5 4.700000e+00 # MB 
    6 1.720000e+02 # MT 
   15 1.777000e+00 # MTA 
   23 9.118760e+01 # MZ 
   25 1.250000e+02 # MH 
## Dependent parameters, given by model restrictions.
## Those values should be edited following the 
## analytical expression. MG5 ignores those values 
## but they are important for interfacing the output of MG5
## to external program such as Pythia.
  1 0.000000 # d : 0.0 
  2 0.000000 # u : 0.0 
  3 0.000000 # s : 0.0 
  4 0.000000 # c : 0.0 
  11 0.000000 # e- : 0.0 
  12 0.000000 # ve : 0.0 
  13 0.000000 # mu- : 0.0 
  14 0.000000 # vm : 0.0 
  16 0.000000 # vt : 0.0 
  21 0.000000 # g : 0.0 
  22 0.000000 # a : 0.0 
  24 79.824360 # w+ : cmath.sqrt(MZ__exp__2/2. + cmath.sqrt(MZ__exp__4/4. - (aEW*cmath.pi*MZ__exp__2)/(Gf*sqrt__2))) 

###################################
## INFORMATION FOR OBLIQUE
###################################
Block oblique 
    1    0.0    # MadMiner
    2    0.0    # MadMiner

###################################
## INFORMATION FOR SMINPUTS
###################################
Block sminputs 
    1 1.279000e+02 # aEWM1 
    2 1.166370e-05 # Gf 
    3 1.184000e-01 # aS 

###################################
## INFORMATION FOR YUKAWA
###################################
Block yukawa 
    5 4.700000e+00 # ymb 
    6 1.720000e+02 # ymt 
   15 1.777000e+00 # ymtau 

###################################
## INFORMATION FOR DECAY
###################################
DECAY   6 1.508336e+00 # WT 
DECAY  23 2.495200e+00 # WZ 
DECAY  24 2.085000e+00 # WW 
DECAY  25 4.070000e-03 # WH 
## Dependent parameters, given by model restrictions.
## Those values should be edited following the 
## analytical expression. MG5 ignores those values 
## but they are important for interfacing the output of MG5
## to external program such as Pythia.
DECAY  1 0.000000 # d : 0.0 
DECAY  2 0.000000 # u : 0.0 
DECAY  3 0.000000 # s : 0.0 
DECAY  4 0.000000 # c : 0.0 
DECAY  5 0.000000 # b : 0.0 
DECAY  11 0.000000 # e- : 0.0 
DECAY  12 0.000000 # ve : 0.0 
DECAY  13 0.000000 # mu- : 0.0 
DECAY  14 0.000000 # vm : 0.0 
DECAY  15 0.000000 # ta- : 0.0 
DECAY  16 0.000000 # vt : 0.0 
DECAY  21 0.000000 # g : 0.0 
DECAY  22 0.000000 # a : 0.0
</slha>
<initrwgt>
<weightgroup name='mg_reweighting' weight_name_strategy='includeIdInWeightName'>
<weight id='morphing_basis_vector_1'>set param_card oblique 1 -0.06391685 # orig: 0.0
set param_card oblique 2 -0.08653588 # orig: 0.0
</weight>
<weight id='morphing_basis_vector_2'>set param_card oblique 1 0.0342439 # orig: 0.0
set param_card oblique 2 -0.09831893 # orig: 0.0
</weight>
<weight id='morphing_basis_vector_3'>set param_card oblique 1 -0.08145691 # orig: 0.0
set param_card oblique 2 0.09700122 # orig: 0.0
</weight>
<weight id='morphing_basis_vector_4'>set param_card oblique 1 0.09132942 # orig: 0.0
set param_card oblique 2 -0.005442744 # orig: 0.0
</weight>
<weight id='morphing_basis_vector_5'>set param_card oblique 1 0.08535809 # orig: 0.0
set param_card oblique 2 0.08156918 # orig: 0.0
</weight>
</weightgroup>
</initrwgt>
<MGGenerationInfo>
#  Number of Events        :       1000
#  Integrated weight (pb)  :       0.0194259
</MGGenerationInfo>
</header>
<init>
2212 2212 6.500000e+03 6.500000e+03 0 0 90900 90900 -3 1
1.942590e-02 1.275061e-04 1.942590e-05 1
<generator name='MadGraph5_aMC@NLO' version='2.6.4'>please cite 1405.0301 </generator>
</init>
<event>
 4      1 +1.9425900e-05 4.80814400e+02 7.81860800e-03 9.44379100e-02
        2 -1    0    0  501    0 +0.0000000000e+00 +0.0000000000e+00 +5.2565981211e+02 5.2565981211e+02 0.0000000000e+00 0.0000e+00 -1.0000e+00
       -2 -1    0    0    0  501 -0.0000000000e+00 -0.0000000000e+00 -1.0994869395e+02 1.0994869395e+02 0.0000000000e+00 0.0000e+00 1.0000e+00
      -13  1    1    2    0    0 +6.9414388473e+01 -5.7221880587e+01 -8.6860080458e+01 1.2504948829e+02 0.0000000000e+00 0.0000e+00 1.0000e+00
       13  1    1    2    0    0 -6.9414388473e+01 +5.7221880587e+01 +5.0257119862e+02 5.1055901777e+02 0.0000000000e+00 0.0000e+00 -1.0000e+00
<mgrwt>
<rscale>  0 0.48081435E+03</rscale>
<asrwt>0</asrwt>
<pdfrwt beam="1">  1        2 0.80870739E-01 0.48081435E+03</pdfrwt>
<pdfrwt beam="2">  1       -2 0.16915184E-01 0.48081435E+03</pdfrwt>
<totfact> 0.18275852E+03</totfact>
</mgrwt>
<rwgt>
<wgt id='morphing_basis_vector_1'> +2.5719184e-04 </wgt>
<wgt id='morphing_basis_vector_2'> +1.4027813e-04 </wgt>
<wgt id='morphing_basis_vector_3'> +1.8137535e-04 </wgt>
<wgt id='morphing_basis_vector_4'> +5.7362100e-05 </wgt>
<wgt id='morphing_basis_vector_5'> +7.7725859e-05 </wgt>
</rwgt>
</event>
<event>
 4      1 +1.9425900e-05 4.61925800e+02 7.81860800e-03 9.48933200e-02
        2 -1    0    0  501    0 +0.0000000000e+00 +0.0000000000e+00 +2.5479321673e+02 2.5479321673e+02 0.0000000000e+00 0.0000e+00 -1.0000e+00
       -2 -1    0    0    0  501 -0.0000000000e+00 -0.0000000000e+00 -2.0936137505e+02 2.0936137505e+02 0.0000000000e+00 0.0000e+00 1.0000e+00
      -13  1    1    2    0    0 +2.1781041640e+01 +2.0763173915e+02 -7.6545867534e+01 2.2236146859e+02 0.0000000000e+00 0.0000e+00 1.0000e+00
       13  1    1    2    0    0 -2.1781041640e+01 -2.0763173915e+02 +1.2197770921e+02 2.4179312319e+02 0.0000000000e+00 0.0000e+00 -1.0000e+00
<mgrwt>
<rscale>  0 0.46192579E+03</rscale>
<asrwt>0</asrwt>
<pdfrwt beam="1">  1        2 0.39198956E-01 0.46192579E+03</pdfrwt>
<pdfrwt beam="2">  1       -2 0.32209443E-01 0.46192579E+03</pdfrwt>
<totfact> 0.13852035E+03</totfact>
</mgrwt>
<rwgt>
<wgt id='morphing_basis_vector_1'> +2.3011218e-04 </wgt>
<wgt id='morphing_basis_vector_2'> +1.2810889e-04 </wgt>
<wgt id='morphing_basis_vector_3'> +1.5713330e-04 </wgt>
<wgt id='morphing_basis_vector_4'> +4.6191279e-05 </wgt>
<wgt id='morphing_basis_vector_5'> +6.0650817e-05 </wgt>
</rwgt>
</event>
<event>
 4      1 +1.9425900e-05 4.50042000e+02 7.81860800e-03 9.51917400e-02
        2 -1    0    0  501    0 +0.0000000000e+00 +0.0000000000e+00 +1.0892371622e+03 1.0892371622e+03 0.0000000000e+00 0.0000e+00 -1.0000e+00
       -2 -1    0    0    0  501 -0.0000000000e+00 -0.0000000000e+00 -4.6486162294e+01 4.6486162294e+01 0.0000000000e+00 0.0000e+00 1.0000e+00
      -13  1    1    2    0    0 +3.5604862922e+01 +1.6200263407e+02 +9.0511030958e+02 9.2018326012e+02 0.0000000000e+00 0.0000e+00 -1.0000e+00
       13  1    1    2    0    0 -3.5604862922e+01 -1.6200263407e+02 +1.3764069029e+02 2.1554006434e+02 0.0000000000e+00 0.0000e+00 1.0000e+00
<mgrwt>
<rscale>  0 0.45004202E+03</rscale>
<asrwt>0</asrwt>
<pdfrwt beam="1">  1        2 0.16757493E+00 0.45004202E+03</pdfrwt>
<pdfrwt beam="2">  1       -2 0.71517180E-02 0.45004202E+03</pdfrwt>
<totfact> 0.28262670E+03</totfact>
</mgrwt>
<rwgt>
<wgt id='morphing_basis_vector_1'> +2.6745969e-04 </wgt>
<wgt id='morphing_basis_vector_2'> +2.8512069e-04 </wgt>
<wgt id='morphing_basis_vector_3'> +1.0768691e-04 </wgt>
<wgt id='morphing_basis_vector_4'> +3.0714192e-05 </wgt>
<wgt id='morphing_basis_vector_5'> +5.4259425e-05 </wgt>
</rwgt>
</event>
<event>
 4      1 +1.9425900e-05 4.98219400e+02 7.81860800e-03 9.40377000e-02
        2 -1    0    0  501    0 +0.0000000000e+00 +0.0000000000e+00 +1.4963274090e+03 1.4963274090e+03 0.0000000000e+00 0.0000e+00 1.0000e+00
       -2 -1    0    0    0  501 -0.0000000000e+00 -0.0000000000e+00 -4.1471959971e+01 4.1471959971e+01 0.0000000000e+00 0.0000e+00 -1.0000e+00
      -13  1    1    2    0    0 -8.6219506533e+01 +2.2234911676e+02 +9.4963435414e+02 9.7912120781e+02 0.0000000000e+00 0.0000e+00 1.0000e+00
       13  1    1    2    0    0 +8.6219506533e+01 -2.2234911676e+02 +5.0522109492e+02 5.5867816118e+02 0.0000000000e+00 0.0000e+00 -1.0000e+00
<mgrwt>
<rscale>  0 0.49821935E+03</rscale>
<asrwt>0</asrwt>
<pdfrwt beam="1">  1        2 0.23020418E+00 0.49821935E+03</pdfrwt>
<pdfrwt beam="2">  1       -2 0.63803027E-02 0.49821935E+03</pdfrwt>
<totfact> 0.19890212E+03</totfact>
</mgrwt>
<rwgt>
<wgt id='morphing_basis_vector_1'> +3.1147554e-04 </wgt>
<wgt id='morphing_basis_vector_2'> +2.3622009e-04 </wgt>
<wgt id='morphing_basis_vector_3'> +1.9476908e-04 </wgt>
<wgt id='morphing_basis_vector_4'> +5.8978162e-05 </wgt>
<wgt id='morphing_basis_vector_5'> +9.7169722e-05 </wgt>
</rwgt>
</event>
<event>
 4      1 +1.9425900e-05 4.54152900e+02 7.81860800e-03 9.50874200e-02
        2 -1    0    0  501    0 +0.0000000000e+00 +0.0000000000e+00 +3.1736490307e+02 3.1736490307e+02 0.0000000000e+00 0.0000e+00 -1.0000e+00
       -2 -1    0    0    0  501 -0.0000000000e+00 -0.0000000000e+00 -1.6247456700e+02 1.6247456700e+02 0.0000000000e+00 0.0000e+00 1.0000e+00
      -13  1    1    2    0    0 +1.0891454100e+02 -1.9918762995e+02 +8.2794743376e+01 2.4164655739e+02 0.0000000000e+00 0.0000e+00 1.0000e+00
       13  1    1    2    0    0 -1.0891454100e+02 +1.9918762995e+02 +7.2095592699e+01 2.3819291268e+02 0.0000000000e+00 0.0000e+00 -1.0000e+00
<mgrwt>
<rscale>  0 0.45415295E+03</rscale>
<asrwt>0</asrwt>
<pdfrwt beam="1">  1        2 0.48825370E-01 0.45415295E+03</pdfrwt>
<pdfrwt beam="2">  1       -2 0.24996087E-01 0.45415295E+03</pdfrwt>
<totfact> 0.16812520E+03</totfact>
</mgrwt>
<rwgt>
<wgt id='morphing_basis_vector_1'> +2.2558806e-04 </wgt>
<wgt id='morphing_basis_vector_2'> +1.4161696e-04 </wgt>
<wgt id='morphing_basis_vector_3'> +1.4410170e-04 </wgt>
<wgt id='morphing_basis_vector_4'> +4.1010507e-05 </wgt>
<wgt id='morphing_basis_vector_5'> +5.4742107e-05 </wgt>
</rwgt>
</event>
<event>
 4      1 +1.9425900e-05 4.75088800e+02 7.81860800e-03 9.45735700e-02
        2 -1    0    0  501    0 +0.0000000000e+00 +0.0000000000e+00 +1.6840315422e+02 1.6840315422e+02 0.0000000000e+00 0.0000e+00 1.0000e+00
       -2 -1    0    0    0  501 -0.0000000000e+00 -0.0000000000e+00 -3.3507290397e+02 3.3507290397e+02 0.0000000000e+00 0.0000e+00 -1.0000e+00
      -13  1    1    2    0    0 +1.4766647959e+02 +1.3163405142e+02 -2.2270095289e+02 2.9787350856e+02 0.0000000000e+00 0.0000e+00 -1.0000e+00
       13  1    1    2    0    0 -1.4766647959e+02 -1.3163405142e+02 +5.6031203137e+01 2.0560254963e+02 0.0000000000e+00 0.0000e+00 1.0000e+00
<mgrwt>
<rscale>  0 0.47508877E+03</rscale>
<asrwt>0</asrwt>
<pdfrwt beam="1">  1        2 0.25908178E-01 0.47508877E+03</pdfrwt>
<pdfrwt beam="2">  1       -2 0.51549678E-01 0.47508877E+03</pdfrwt>
<totfact> 0.92914511E+02</totfact>
</mgrwt>
<rwgt>
<wgt id='morphing_basis_vector_1'> +2.4901694e-04 </wgt>
<wgt id='morphing_basis_vector_2'> +1.3742516e-04 </wgt>
<wgt id='morphing_basis_vector_3'> +1.7358145e-04 </wgt>
<wgt id='morphing_basis_vector_4'> +5.3668248e-05 </wgt>
<wgt id='morphing_basis_vector_5'> +7.2264927e-05 </wgt>
</rwgt>
</event>
<event>
 4      1 +1.9425900e-05 4.51836500e+02 7.81860800e-03 9.51460600e-02
        2 -1    0    0  501    0 +0.0000000000e+00 +0.0000000000e+00 +6.4056721372e+02 6.4056721372e+02 0.0000000000e+00 0.0000e+00 -1.0000e+00
       -2 -1    0    0    0  501 -0.0000000000e+00 -0.0000000000e+00 -7.9677925644e+01 7.9677925644e+01 0.0000000000e+00 0.0000e+00 1.0000e+00
      -13  1    1    2    0    0 +3.1674478175e+01 -2.1362680063e+02 +1.7471544832e+02 2.7778619548e+02 0.0000000000e+00 0.0000e+00 1.0000e+00
       13  1    1    2    0    0 -3.1674478175e+01 +2.1362680063e+02 +3.8617383975e+02 4.4245894388e+02 0.0000000000e+00 0.0000e+00 -1.0000e+00
<mgrwt>
<rscale>  0 0.45183655E+03</rscale>
<asrwt>0</asrwt>
<pdfrwt beam="1">  1        2 0.98548799E-01 0.45183655E+03</pdfrwt>
<pdfrwt beam="2">  1       -2 0.12258143E-01 0.45183655E+03</pdfrwt>
<totfact> 0.24338268E+03</totfact>
</mgrwt>
<rwgt>
<wgt id='morphing_basis_vector_1'> +2.1699838e-04 </wgt>
<wgt id='morphing_basis_vector_2'> +1.2303386e-04 </wgt>
<wgt id='morphing_basis_vector_3'> +1.4503180e-04 </wgt>
<wgt id='morphing_basis_vector_4'> +4.0975701e-05 </wgt>
<wgt id='morphing_basis_vector_5'> +5.2667807e-05 </wgt>
</rwgt>
</event>
<event>
 4      1 +1.9425900e-05 4.44513600e+02 7.81860800e-03 9.53338900e-02
        2 -1    0    0  501    0 +0.0000000000e+00 +0.0000000000e+00 +3.7010422837e+02 3.7010422837e+02 0.0000000000e+00 0.0000e+00 -1.0000e+00
       -2 -1    0    0    0  501 -0.0000000000e+00 -0.0000000000e+00 -1.3347074717e+02 1.3347074717e+02 0.0000000000e+00 0.0000e+00 1.0000e+00
      -13  1    1    2    0    0 +1.1680646210e+02 -1.6355069584e+02 +1.0810620540e+01 2.0126959337e+02 0.0000000000e+00 0.0000e+00 -1.0000e+00
       13  1    1    2    0    0 -1.1680646210e+02 +1.6355069584e+02 +2.2582286066e+02 3.0230538218e+02 0.0000000000e+00 0.0000e+00 1.0000e+00
<mgrwt>
<rscale>  0 0.44451361E+03</rscale>
<asrwt>0</asrwt>
<pdfrwt beam="1">  1        2 0.56939112E-01 0.44451361E+03</pdfrwt>
<pdfrwt beam="2">  1       -2 0.20533961E-01 0.44451361E+03</pdfrwt>
<totfact> 0.19688786E+03</totfact>
</mgrwt>
<rwgt>
<wgt id='morphing_basis_vector_1'> +2.0622024e-04 </wgt>
<wgt id='morphing_basis_vector_2'> +1.1431202e-04 </wgt>
<wgt id='morphing_basis_vector_3'> +1.3784815e-04 </wgt>
<wgt id='morphing_basis_vector_4'> +3.7796671e-05 </wgt>
<wgt id='morphing_basis_vector_5'> +4.7237471e-05 </wgt>
</rwgt>
</event>
<event>
 4      1 +1.9425900e-05 5.10513700e+02 7.81860800e-03 9.37654400e-02
        2 -1    0    0  501    0 +0.0000000000e+00 +0.0000000000e+00 +2.2216507786e+03 2.2216507786e+03 0.0000000000e+00 0.0000e+00 -1.0000e+00
       -2 -1    0    0    0  501 -0.0000000000e+00 -0.0000000000e+00 -2.9327765896e+01 2.9327765896e+01 0.0000000000e+00 0.0000e+00 1.0000e+00
      -13  1    1    2    0    0 +3.1551541663e+01 -2.4882035684e+02 +8.8705999443e+02 9.2183648413e+02 0.0000000000e+00 0.0000e+00 1.0000e+00
       13  1    1    2    0    0 -3.1551541663e+01 +2.4882035684e+02 +1.3052630183e+03 1.3291420604e+03 0.0000000000e+00 0.0000e+00 -1.0000e+00
<mgrwt>
<rscale>  0 0.51051368E+03</rscale>
<asrwt>0</asrwt>
<pdfrwt beam="1">  1        2 0.34179230E+00 0.51051368E+03</pdfrwt>
<pdfrwt beam="2">  1       -2 0.45119657E-02 0.51051368E+03</pdfrwt>
<totfact> 0.13528763E+03</totfact>
</mgrwt>
<rwgt>
<wgt id='morphing_basis_vector_1'> +3.1275693e-04 </wgt>
<wgt id='morphing_basis_vector_2'> +1.8508442e-04 </wgt>
<wgt id='morphing_basis_vector_3'> +2.2237853e-04 </wgt>
<wgt id='morphing_basis_vector_4'> +7.6035874e-05 </wgt>
<wgt id='morphing_basis_vector_5'> +1.1092874e-04 </wgt>
</rwgt>
</event>
<event>
 4      1 +1.9425900e-05 4.92144200e+02 7.81860800e-03 9.41753700e-02
        2 -1    0    0  501    0 +0.0000000000e+00 +0.0000000000e+00 +5.0804496025e+02 5.0804496025e+02 0.0000000000e+00 0.0000e+00 1.0000e+00
       -2 -1    0    0    0  501 -0.0000000000e+00 -0.0000000000e+00 -1.1918526679e+02 1.1918526679e+02 0.0000000000e+00 0.0000e+00 -1.0000e+00
      -13  1    1    2    0    0 -6.4502093408e+01 +6.7821759637e+01 -9.5613197783e+01 1.3379908342e+02 0.0000000000e+00 0.0000e+00 -1.0000e+00
       13  1    1    2    0    0 +6.4502093408e+01 -6.7821759637e+01 +4.8447289125e+02 4.9343114362e+02 0.0000000000e+00 0.0000e+00 1.0000e+00
<mgrwt>
<rscale>  0 0.49214418E+03</rscale>
<asrwt>0</asrwt>
<pdfrwt beam="1">  1        2 0.78160761E-01 0.49214418E+03</pdfrwt>
<pdfrwt beam="2">  1       -2 0.18336195E-01 0.49214418E+03</pdfrwt>
<totfact> 0.16657699E+03</totfact>
</mgrwt>
<rwgt>
<wgt id='morphing_basis_vector_1'> +2.7557989e-04 </wgt>
<wgt id='morphing_basis_vector_2'> +1.5083595e-04 </wgt>
<wgt id='morphing_basis_vector_3'> +1.9682206e-04 </wgt>
<wgt id='morphing_basis_vector_4'> +6.4762186e-05 </wgt>
<wgt id='morphing_basis_vector_5'> +8.9406064e-05 </wgt>
</rwgt>
</event>
<event>
 4      1 +1.9425900e-05 4.75745300e+02 7.81860800e-03 9.45579200e-02
        2 -1    0    0  501    0 +0.0000000000e+00 +0.0000000000e+00 +3.7487042444e+02 3.7487042444e+02 0.0000000000e+00 0.0000e+00 1.0000e+00
       -2 -1    0    0    0  501 -0.0000000000e+00 -0.0000000000e+00 -1.5094119331e+02 1.5094119331e+02 0.0000000000e+00 0.0000e+00 -1.0000e+00
      -13  1    1    2    0    0 +1.2324202637e+02 +5.4450432183e+01 +3.2863051852e+02 3.5517807412e+02 0.0000000000e+00 0.0000e+00 1.0000e+00
       13  1    1    2    0    0 -1.2324202637e+02 -5.4450432183e+01 -1.0470128739e+02 1.7063354363e+02 0.0000000000e+00 0.0000e+00 -1.0000e+00
<mgrwt>
<rscale>  0 0.47574526E+03</rscale>
<asrwt>0</asrwt>
<pdfrwt beam="1">  1        2 0.57672373E-01 0.47574526E+03</pdfrwt>
<pdfrwt beam="2">  1       -2 0.23221722E-01 0.47574526E+03</pdfrwt>
<totfact> 0.15823130E+03</totfact>
</mgrwt>
<rwgt>
<wgt id='morphing_basis_vector_1'> +3.3093650e-04 </wgt>
<wgt id='morphing_basis_vector_2'> +3.8881356e-04 </wgt>
<wgt id='morphing_basis_vector_3'> +1.3122117e-04 </wgt>
<wgt id='morphing_basis_vector_4'> +3.0182843e-05 </wgt>
<wgt id='morphing_basis_vector_5'> +7.6775999e-05 </wgt>
</rwgt>
</event>
<event>
 4      1 +1.9425900e-05 5.00005500e+02 7.81860800e-03 9.39976200e-02
        2 -1    0    0  501    0 +0.0000000000e+00 +0.0000000000e+00 +9.0830133336e+02 9.0830133336e+02 0.0000000000e+00 0.0000e+00 -1.0000e+00
       -2 -1    0    0    0  501 -0.0000000000e+00 -0.0000000000e+00 -6.8811272699e+01 6.8811272699e+01 0.0000000000e+00 0.0000e+00 1.0000e+00
      -13  1    1    2    0    0 -1.8517469549e+02 +1.2779112509e+02 +2.0673564155e+02 3.0554846585e+02 0.0000000000e+00 0.0000e+00 1.0000e+00
       13  1    1    2    0    0 +1.8517469549e+02 -1.2779112509e+02 +6.3275441911e+02 6.7156414020e+02 0.0000000000e+00 0.0000e+00 -1.0000e+00
<mgrwt>
<rscale>  0 0.50000548E+03</rscale>
<asrwt>0</asrwt>
<pdfrwt beam="1">  1        2 0.13973866E+00 0.50000548E+03</pdfrwt>
<pdfrwt beam="2">  1       -2 0.10586350E-01 0.50000548E+03</pdfrwt>
<totfact> 0.19858399E+03</totfact>
</mgrwt>
<rwgt>
<wgt id='morphing_basis_vector_1'> +2.9055310e-04 </wgt>
<wgt id='morphing_basis_vector_2'> +1.6347033e-04 </wgt>
<wgt id='morphing_basis_vector_3'> +2.0752503e-04 </wgt>
<wgt id='morphing_basis_vector_4'> +6.9676057e-05 </wgt>
<wgt id='morphing_basis_vector_5'> +9.8227291e-05 </wgt>
</rwgt>
</event>
<event>
 4      1 +1.9425900e-05 4.49371200e+02 7.81860800e-03 9.52088700e-02
        2 -1    0    0  501    0 +0.0000000000e+00 +0.0000000000e+00 +6.1091009704e+02 6.1091009704e+02 0.0000000000e+00 0.0000e+00 -1.0000e+00
       -2 -1    0    0    0  501 -0.0000000000e+00 -0.0000000000e+00 -8.2636752200e+01 8.2636752200e+01 0.0000000000e+00 0.0000e+00 1.0000e+00
      -13  1    1    2    0    0 -1.0752271671e+02 -1.5344543212e+02 +7.2752412665e+01 2.0099639000e+02 0.0000000000e+00 0.0000e+00 1.0000e+00
       13  1    1    2    0    0 +1.0752271671e+02 +1.5344543212e+02 +4.5552093217e+02 4.9255045923e+02 0.0000000000e+00 0.0000e+00 -1.0000e+00
<mgrwt>
<rscale>  0 0.44937123E+03</rscale>
<asrwt>0</asrwt>
<pdfrwt beam="1">  1        2 0.93986166E-01 0.44937123E+03</pdfrwt>
<pdfrwt beam="2">  1       -2 0.12713347E-01 0.44937123E+03</pdfrwt>
<totfact> 0.24282202E+03</totfact>
</mgrwt>
<rwgt>
<wgt id='morphing_basis_vector_1'> +2.1209341e-04 </wgt>
<wgt id='morphing_basis_vector_2'> +1.1625745e-04 </wgt>
<wgt id='morphing_basis_vector_3'> +1.4339140e-04 </wgt>
<wgt id='morphing_basis_vector_4'> +4.0102792e-05 </wgt>
<wgt id='morphing_basis_vector_5'> +5.0729029e-05 </wgt>
</rwgt>
</event>
<event>
 4      1 +1.9425900e-05 4.47140300e+02 7.81860800e-03 9.52660800e-02
        2 -1    0    0  501    0 +0.0000000000e+00 +0.0000000000e+00 +2.1102602010e+02 2.1102602010e+02 0.0000000000e+00 0.0000e+00 -1.0000e+00
       -2 -1    0    0    0  501 -0.0000000000e+00 -0.0000000000e+00 -2.3685995645e+02 2.3685995645e+02 0.0000000000e+00 0.0000e+00 1.0000e+00
      -13  1    1    2    0    0 -1.0879930742e+02 -1.2353999827e+02 -1.6444446458e+02 2.3268305138e+02 0.0000000000e+00 0.0000e+00 1.0000e+00
       13  1    1    2    0    0 +1.0879930742e+02 +1.2353999827e+02 +1.3861052822e+02 2.1520292517e+02 0.0000000000e+00 0.0000e+00 -1.0000e+00
<mgrwt>
<rscale>  0 0.44714031E+03</rscale>
<asrwt>0</asrwt>
<pdfrwt beam="1">  1        2 0.32465542E-01 0.44714031E+03</pdfrwt>
<pdfrwt beam="2">  1       -2 0.36439993E-01 0.44714031E+03</pdfrwt>
<totfact> 0.13747005E+03</totfact>
</mgrwt>
<rwgt>
<wgt id='morphing_basis_vector_1'> +2.0878456e-04 </wgt>
<wgt id='morphing_basis_vector_2'> +1.1352624e-04 </wgt>
<wgt id='morphing_basis_vector_3'> +1.4123282e-04 </wgt>
<wgt id='morphing_basis_vector_4'> +3.9124982e-05 </wgt>
<wgt id='morphing_basis_vector_5'> +4.9071502e-05 </wgt>
</rwgt>
</event>
<event>
 4      1 +1.9425900e-05 4.86798500e+02 7.81860800e-03 9.42982800e-02
        2 -1    0    0  501    0 +0.0000000000e+00 +0.0000000000e+00 +2.0067674491e+03 2.0067674491e+03 0.0000000000e+00 0.0000e+00 -1.0000e+00
       -2 -1    0    0    0  501 -0.0000000000e+00 -0.0000000000e+00 -2.9521709409e+01 2.9521709409e+01 0.0000000000e+00 0.0000e+00 1.0000e+00
      -13  1    1    2    0    0 -1.6906323809e+02 +1.5192585202e+02 +1.3527948421e+03 1.3717571679e+03 0.0000000000e+00 0.0000e+00 1.0000e+00
       13  1    1    2    0    0 +1.6906323809e+02 -1.5192585202e+02 +6.2445089760e+02 6.6453199058e+02 0.0000000000e+00 0.0000e+00 -1.0000e+00
<mgrwt>
<rscale>  0 0.48679854E+03</rscale>
<asrwt>0</asrwt>
<pdfrwt beam="1">  1        2 0.30873335E+00 0.48679854E+03</pdfrwt>
<pdfrwt beam="2">  1       -2 0.45418030E-02 0.48679854E+03</pdfrwt>
<totfact> 0.17615878E+03</totfact>
</mgrwt>
<rwgt>
<wgt id='morphing_basis_vector_1'> +2.9645326e-04 </wgt>
<wgt id='morphing_basis_vector_2'> +2.3785046e-04 </wgt>
<wgt id='morphing_basis_vector_3'> +1.7521839e-04 </wgt>
<wgt id='morphing_basis_vector_4'> +5.0990224e-05 </wgt>
<wgt id='morphing_basis_vector_5'> +8.5082906e-05 </wgt>
</rwgt>
</event>
<event>
 4      1 +1.9425900e-05 5.10746300e+02 7.81860800e-03 9.37603700e-02
        2 -1    0    0  501    0 +0.0000000000e+00 +0.0000000000e+00 +5.2684553540e+02 5.2684553540e+02 0.0000000000e+00 0.0000e+00 1.0000e+00
       -2 -1    0    0    0  501 -0.0000000000e+00 -0.0000000000e+00 -1.2378477827e+02 1.2378477827e+02 0.0000000000e+00 0.0000e+00 -1.0000e+00
      -13  1    1    2    0    0 -2.3683302418e+02 -8.7419340440e+01 +1.5246633498e+02 2.9492033793e+02 0.0000000000e+00 0.0000e+00 -1.0000e+00
       13  1    1    2    0    0 +2.3683302418e+02 +8.7419340440e+01 +2.5059442215e+02 3.5570997573e+02 0.0000000000e+00 0.0000e+00 1.0000e+00
<mgrwt>
<rscale>  0 0.51074635E+03</rscale>
<asrwt>0</asrwt>
<pdfrwt beam="1">  1        2 0.81053158E-01 0.51074635E+03</pdfrwt>
<pdfrwt beam="2">  1       -2 0.19043812E-01 0.51074635E+03</pdfrwt>
<totfact> 0.15023290E+03</totfact>
</mgrwt>
<rwgt>
<wgt id='morphing_basis_vector_1'> +3.1393337e-04 </wgt>
<wgt id='morphing_basis_vector_2'> +1.8766222e-04 </wgt>
<wgt id='morphing_basis_vector_3'> +2.2247946e-04 </wgt>
<wgt id='morphing_basis_vector_4'> +7.5881322e-05 </wgt>
<wgt id='morphing_basis_vector_5'> +1.1124591e-04 </wgt>
</rwgt>
</event>
<event>
 4      1 +1.9425900e-05 4.47199000e+02 7.81860800e-03 9.52645700e-02
        2 -1    0    0  501    0 +0.0000000000e+00 +0.0000000000e+00 +1.4661403310e+03 1.4661403310e+03 0.0000000000e+00 0.0000e+00 -1.0000e+00
       -2 -1    0    0    0  501 -0.0000000000e+00 -0.0000000000e+00 -3.4100920661e+01 3.4100920661e+01 0.0000000000e+00 0.0000e+00 1.0000e+00
      -13  1    1    2    0    0 +2.1451008196e+02 -4.8424051983e+01 +8.5176368372e+02 8.7969360403e+02 0.0000000000e+00 0.0000e+00 1.0000e+00
       13  1    1    2    0    0 -2.1451008196e+02 +4.8424051983e+01 +5.8027572665e+02 6.2054764765e+02 0.0000000000e+00 0.0000e+00 -1.0000e+00
<mgrwt>
<rscale>  0 0.44719899E+03</rscale>
<asrwt>0</asrwt>
<pdfrwt beam="1">  1        2 0.22556000E+00 0.44719899E+03</pdfrwt>
<pdfrwt beam="2">  1       -2 0.52462966E-02 0.44719899E+03</pdfrwt>
<totfact> 0.27833855E+03</totfact>
</mgrwt>
<rwgt>
<wgt id='morphing_basis_vector_1'> +2.2132860e-04 </wgt>
<wgt id='morphing_basis_vector_2'> +1.5208706e-04 </wgt>
<wgt id='morphing_basis_vector_3'> +1.3276629e-04 </wgt>
<wgt id='morphing_basis_vector_4'> +3.7096499e-05 </wgt>
<wgt id='morphing_basis_vector_5'> +4.9817246e-05 </wgt>
</rwgt>
</event>
<event>
 4      1 +1.9425900e-05 4.30708800e+02 7.81860800e-03 9.56985600e-02
        2 -1    0    0  501    0 +0.0000000000e+00 +0.0000000000e+00 +2.1326599709e+02 2.1326599709e+02 0.0000000000e+00 0.0000e+00 -1.0000e+00
       -2 -1    0    0    0  501 -0.0000000000e+00 -0.0000000000e+00 -2.1746324511e+02 2.1746324511e+02 0.0000000000e+00 0.0000e+00 1.0000e+00
      -13  1    1    2    0    0 +3.3793514337e+00 -1.5172988837e+02 -1.5489376014e+02 2.1685353576e+02 0.0000000000e+00 0.0000e+00 1.0000e+00
       13  1    1    2    0    0 -3.3793514337e+00 +1.5172988837e+02 +1.5069651212e+02 2.1387570644e+02 0.0000000000e+00 0.0000e+00 -1.0000e+00
<mgrwt>
<rscale>  0 0.43070879E+03</rscale>
<asrwt>0</asrwt>
<pdfrwt beam="1">  1        2 0.32810153E-01 0.43070879E+03</pdfrwt>
<pdfrwt beam="2">  1       -2 0.33455884E-01 0.43070879E+03</pdfrwt>
<totfact> 0.15823842E+03</totfact>
</mgrwt>
<rwgt>
<wgt id='morphing_basis_vector_1'> +1.8795563e-04 </wgt>
<wgt id='morphing_basis_vector_2'> +1.0171754e-04 </wgt>
<wgt id='morphing_basis_vector_3'> +1.2473441e-04 </wgt>
<wgt id='morphing_basis_vector_4'> +3.2142973e-05 </wgt>
<wgt id='morphing_basis_vector_5'> +3.8048297e-05 </wgt>
</rwgt>
</event>
<event>
 4      1 +1.9425900e-05 5.17495700e+02 7.81860800e-03 9.36144600e-02
        2 -1    0    0  501    0 +0.0000000000e+00 +0.0000000000e+00 +8.9425226211e+02 8.9425226211e+02 0.0000000000e+00 0.0000e+00 -1.0000e+00
       -2 -1    0    0    0  501 -0.0000000000e+00 -0.0000000000e+00 -7.4867533671e+01 7.4867533671e+01 0.0000000000e+00 0.0000e+00 1.0000e+00
      -13  1    1    2    0    0 +2.4846661866e+02 -4.3859553734e+01 +5.1712689227e+02 5.7539511968e+02 0.0000000000e+00 0.0000e+00 1.0000e+00
       13  1    1    2    0    0 -2.4846661866e+02 +4.3859553734e+01 +3.0225783616e+02 3.9372467609e+02 0.0000000000e+00 0.0000e+00 -1.0000e+00
<mgrwt>
<rscale>  0 0.51749574E+03</rscale>
<asrwt>0</asrwt>
<pdfrwt beam="1">  1        2 0.13757726E+00 0.51749574E+03</pdfrwt>
<pdfrwt beam="2">  1       -2 0.11518083E-01 0.51749574E+03</pdfrwt>
<totfact> 0.17760764E+03</totfact>
</mgrwt>
<rwgt>
<wgt id='morphing_basis_vector_1'> +3.4383122e-04 </wgt>
<wgt id='morphing_basis_vector_2'> +2.4878563e-04 </wgt>
<wgt id='morphing_basis_vector_3'> +2.2780177e-04 </wgt>
<wgt id='morphing_basis_vector_4'> +7.3020008e-05 </wgt>
<wgt id='morphing_basis_vector_5'> +1.2046678e-04 </wgt>
</rwgt>
</event>
<event>
 4      1 +1.9425900e-05 4.39164000e+02 7.81860800e-03 9.54735200e-02
        2 -1    0    0  501    0 +0.0000000000e+00 +0.0000000000e+00 +9.0410003091e+01 9.0410003091e+01 0.0000000000e+00 0.0000e+00 -1.0000e+00
       -2 -1    0    0    0  501 -0.0000000000e+00 -0.0000000000e+00 -5.3330664473e+02 5.3330664473e+02 0.0000000000e+00 0.0000e+00 1.0000e+00
      -13  1    1    2    0    0 +6.3001462970e+01 +1.4074473265e+02 -4.4346896268e+02 4.6951356206e+02 0.0000000000e+00 0.0000e+00 1.0000e+00
       13  1    1    2    0    0 -6.3001462970e+01 -1.4074473265e+02 +5.7232104124e-01 1.5420308575e+02 0.0000000000e+00 0.0000e+00 -1.0000e+00
<mgrwt>
<rscale>  0 0.43916400E+03</rscale>
<asrwt>0</asrwt>
<pdfrwt beam="1">  1        2 0.13909231E-01 0.43916400E+03</pdfrwt>
<pdfrwt beam="2">  1       -2 0.82047175E-01 0.43916400E+03</pdfrwt>
<totfact> 0.74157244E+02</totfact>
</mgrwt>
<rwgt>
<wgt id='morphing_basis_vector_1'> +1.9840521e-04 </wgt>
<wgt id='morphing_basis_vector_2'> +1.0753736e-04 </wgt>
<wgt id='morphing_basis_vector_3'> +1.3302024e-04 </wgt>
<wgt id='morphing_basis_vector_4'> +3.5599423e-05 </wgt>
<wgt id='morphing_basis_vector_5'> +4.3492228e-05 </wgt>
</rwgt>
</event>
<event>
 4      1 +1.9425900e-05 4.54428300e+02 7.81860800e-03 9.50804800e-02
        2 -1    0    0  501    0 +0.0000000000e+00 +0.0000000000e+00 +6.0710334299e+01 6.0710334299e+01 0.0000000000e+00 0.0000e+00 1.0000e+00
       -2 -1    0    0    0  501 -0.0000000000e+00 -0.0000000000e+00 -8.5037052978e+02 8.5037052978e+02 0.0000000000e+00 0.0000e+00 -1.0000e+00
      -13  1    1    2    0    0 -1.6436755866e+02 +1.5674069261e+02 -4.0781402751e+02 4.6679398035e+02 0.0000000000e+00 0.0000e+00 -1.0000e+00
       13  1    1    2    0    0 +1.6436755866e+02 -1.5674069261e+02 -3.8184616797e+02 4.4428688372e+02 0.0000000000e+00 0.0000e+00 1.0000e+00
<mgrwt>
<rscale>  0 0.45442834E+03</rscale>
<asrwt>0</asrwt>
<pdfrwt beam="1">  1        2 0.93400520E-02 0.45442834E+03</pdfrwt>
<pdfrwt beam="2">  1       -2 0.13082623E+00 0.45442834E+03</pdfrwt>
<totfact> 0.39298986E+02</totfact>
</mgrwt>
<rwgt>
<wgt id='morphing_basis_vector_1'> +2.2468635e-04 </wgt>
<wgt id='morphing_basis_vector_2'> +1.3787328e-04 </wgt>
<wgt id='morphing_basis_vector_3'> +1.4524535e-04 </wgt>
<wgt id='morphing_basis_vector_4'> +4.1390778e-05 </wgt>
<wgt id='morphing_basis_vector_5'> +5.4885982e-05 </wgt>
</rwgt>
</event>
<event>
 4      1 +1.9425900e-05 4.71249300e+02 7.81860800e-03 9.46657000e-02
        2 -1    0    0  501    0 +0.0000000000e+00 +0.0000000000e+00 +7.0048146432e+02 7.0048146432e+02 0.0000000000e+00 0.0000e+00 -1.0000e+00
       -2 -1    0    0    0  501 -0.0000000000e+00 -0.0000000000e+00 -7.9258308930e+01 7.9258308930e+01 0.0000000000e+00 0.0000e+00 1.0000e+00
      -13  1    1    2    0    0 +1.3035185801e+02 +6.8410090591e+01 +6.1995490038e+00 1.4734307513e+02 0.0000000000e+00 0.0000e+00 1.0000e+00
       13  1    1    2    0    0 -1.3035185801e+02 -6.8410090591e+01 +6.1502360639e+02 6.3239669812e+02 0.0000000000e+00 0.0000e+00 -1.0000e+00
<mgrwt>
<rscale>  0 0.47124930E+03</rscale>
<asrwt>0</asrwt>
<pdfrwt beam="1">  1        2 0.10776638E+00 0.47124930E+03</pdfrwt>
<pdfrwt beam="2">  1       -2 0.12193586E-01 0.47124930E+03</pdfrwt>
<totfact> 0.22075385E+03</totfact>
</mgrwt>
<rwgt>
<wgt id='morphing_basis_vector_1'> +2.4260042e-04 </wgt>
<wgt id='morphing_basis_vector_2'> +1.3225515e-04 </wgt>
<wgt id='morphing_basis_vector_3'> +1.6907882e-04 </wgt>
<wgt id='morphing_basis_vector_4'> +5.1602111e-05 </wgt>
<wgt id='morphing_basis_vector_5'> +6.8698940e-05 </wgt>
</rwgt>
</event>
<event>
 4      1 +1.9425900e-05 4.92201600e+02 7.81860800e-03 9.41740500e-02
        2 -1    0    0  501    0 +0.0000000000e+00 +0.0000000000e+00 +6.3296506081e+02 6.3296506081e+02 0.0000000000e+00 0.0000e+00 1.0000e+00
       -2 -1    0    0    0  501 -0.0000000000e+00 -0.0000000000e+00 -9.5685556993e+01 9.5685556993e+01 0.0000000000e+00 0.0000e+00 -1.0000e+00
      -13  1    1    2    0    0 -1.3671724634e+01 -2.4567378011e+02 +2.6152584641e+02 3.5907978310e+02 0.0000000000e+00 0.0000e+00 -1.0000e+00
       13  1    1    2    0    0 +1.3671724634e+01 +2.4567378011e+02 +2.7575365741e+02 3.6957083471e+02 0.0000000000e+00 0.0000e+00 1.0000e+00
<mgrwt>
<rscale>  0 0.49220164E+03</rscale>
<asrwt>0</asrwt>
<pdfrwt beam="1">  1        2 0.97379237E-01 0.49220164E+03</pdfrwt>
<pdfrwt beam="2">  1       -2 0.14720855E-01 0.49220164E+03</pdfrwt>
<totfact> 0.18455970E+03</totfact>
</mgrwt>
<rwgt>
<wgt id='morphing_basis_vector_1'> +2.8411024e-04 </wgt>
<wgt id='morphing_basis_vector_2'> +1.7706490e-04 </wgt>
<wgt id='morphing_basis_vector_3'> +1.9310009e-04 </wgt>
<wgt id='morphing_basis_vector_4'> +6.1708381e-05 </wgt>
<wgt id='morphing_basis_vector_5'> +8.9829173e-05 </wgt>
</rwgt>
</event>
<event>
 4      1 +1.9425900e-05 4.34438400e+02 7.81860800e-03 9.55986300e-02
        2 -1    0    0  501    0 +0.0000000000e+00 +0.0000000000e+00 +3.5592705264e+02 3.5592705264e+02 0.0000000000e+00 0.0000e+00 -1.0000e+00
       -2 -1    0    0    0  501 -0.0000000000e+00 -0.0000000000e+00 -1.3256698867e+02 1.3256698867e+02 0.0000000000e+00 0.0000e+00 1.0000e+00
      -13  1    1    2    0    0 +8.2865369058e+01 -1.0207830471e+02 -8.2743451378e+01 1.5534840980e+02 0.0000000000e+00 0.0000e+00 1.0000e+00
       13  1    1    2    0    0 -8.2865369058e+01 +1.0207830471e+02 +3.0610351535e+02 3.3314563150e+02 0.0000000000e+00 0.0000e+00 -1.0000e+00
<mgrwt>
<rscale>  0 0.43443838E+03</rscale>
<asrwt>0</asrwt>
<pdfrwt beam="1">  1        2 0.54758008E-01 0.43443838E+03</pdfrwt>
<pdfrwt beam="2">  1       -2 0.20394921E-01 0.43443838E+03</pdfrwt>
<totfact> 0.20789904E+03</totfact>
</mgrwt>
<rwgt>
<wgt id='morphing_basis_vector_1'> +1.9239911e-04 </wgt>
<wgt id='morphing_basis_vector_2'> +1.0392021e-04 </wgt>
<wgt id='morphing_basis_vector_3'> +1.2841068e-04 </wgt>
<wgt id='morphing_basis_vector_4'> +3.3642369e-05 </wgt>
<wgt id='morphing_basis_vector_5'> +4.0385482e-05 </wgt>
</rwgt>
</event>
<event>
 4      1 +1.9425900e-05 4.73004300e+02 7.81860800e-03 9.46234800e-02
        2 -1    0    0  501    0 +0.0000000000e+00 +0.0000000000e+00 +9.0121998137e+02 9.0121998137e+02 0.0000000000e+00 0.0000e+00 1.0000e+00
       -2 -1    0    0    0  501 -0.0000000000e+00 -0.0000000000e+00 -6.2063945253e+01 6.2063945253e+01 0.0000000000e+00 0.0000e+00 -1.0000e+00
      -13  1    1    2    0    0 +1.7510331861e+02 -1.1654075988e+02 +1.9938531763e+02 2.8982309395e+02 0.0000000000e+00 0.0000e+00 -1.0000e+00
       13  1    1    2    0    0 -1.7510331861e+02 +1.1654075988e+02 +6.3977071849e+02 6.7346083267e+02 0.0000000000e+00 0.0000e+00 1.0000e+00
<mgrwt>
<rscale>  0 0.47300430E+03</rscale>
<asrwt>0</asrwt>
<pdfrwt beam="1">  1        2 0.13864922E+00 0.47300430E+03</pdfrwt>
<pdfrwt beam="2">  1       -2 0.95482999E-02 0.47300430E+03</pdfrwt>
<totfact> 0.23575676E+03</totfact>
</mgrwt>
<rwgt>
<wgt id='morphing_basis_vector_1'> +2.4631851e-04 </wgt>
<wgt id='morphing_basis_vector_2'> +1.3708687e-04 </wgt>
<wgt id='morphing_basis_vector_3'> +1.7068154e-04 </wgt>
<wgt id='morphing_basis_vector_4'> +5.2313735e-05 </wgt>
<wgt id='morphing_basis_vector_5'> +7.0353710e-05 </wgt>
</rwgt>
</event>
<event>
 4      1 +1.9425900e-05 4.33313500e+02 7.81860800e-03 9.56286600e-02
        2 -1    0    0  501    0 +0.0000000000e+00 +0.0000000000e+00 +1.7979214089e+03 1.7979214089e+03 0.0000000000e+00 0.0000e+00 1.0000e+00
       -2 -1    0    0    0  501 -0.0000000000e+00 -0.0000000000e+00 -2.6108012643e+01 2.6108012643e+01 0.0000000000e+00 0.0000e+00 -1.0000e+00
      -13  1    1    2    0    0 +1.4089982474e+02 -1.6091160100e+02 +7.4039884033e+02 7.7067226933e+02 0.0000000000e+00 0.0000e+00 -1.0000e+00
       13  1    1    2    0    0 -1.4089982474e+02 +1.6091160100e+02 +1.0314145559e+03 1.0533571522e+03 0.0000000000e+00 0.0000e+00 1.0000e+00
<mgrwt>
<rscale>  0 0.43331353E+03</rscale>
<asrwt>0</asrwt>
<pdfrwt beam="1">  1        2 0.27660320E+00 0.43331353E+03</pdfrwt>
<pdfrwt beam="2">  1       -2 0.40166187E-02 0.43331353E+03</pdfrwt>
<totfact> 0.27548207E+03</totfact>
</mgrwt>
<rwgt>
<wgt id='morphing_basis_vector_1'> +1.9428359e-04 </wgt>
<wgt id='morphing_basis_vector_2'> +1.1321953e-04 </wgt>
<wgt id='morphing_basis_vector_3'> +1.2483532e-04 </wgt>
<wgt id='morphing_basis_vector_4'> +3.2863095e-05 </wgt>
<wgt id='morphing_basis_vector_5'> +3.9864410e-05 </wgt>
</rwgt>
</event>
<event>
 4      1 +1.9425900e-05 4.38286500e+02 7.81860800e-03 9.54966300e-02
        2 -1    0    0  501    0 +0.0000000000e+00 +0.0000000000e+00 +5.4850024146e+02 5.4850024146e+02 0.0000000000e+00 0.0000e+00 -1.0000e+00
       -2 -1    0    0    0  501 -0.0000000000e+00 -0.0000000000e+00 -8.7554662333e+01 8.7554662333e+01 0.0000000000e+00 0.0000e+00 1.0000e+00
      -13  1    1    2    0    0 +1.3155164864e+02 -4.4392979580e+01 -1.5583339535e+01 1.3971189415e+02 0.0000000000e+00 0.0000e+00 1.0000e+00
       13  1    1    2    0    0 -1.3155164864e+02 +4.4392979580e+01 +4.7652891866e+02 4.9634300964e+02 0.0000000000e+00 0.0000e+00 -1.0000e+00
<mgrwt>
<rscale>  0 0.43828645E+03</rscale>
<asrwt>0</asrwt>
<pdfrwt beam="1">  1        2 0.84384650E-01 0.43828645E+03</pdfrwt>
<pdfrwt beam="2">  1       -2 0.13469948E-01 0.43828645E+03</pdfrwt>
<totfact> 0.25069387E+03</totfact>
</mgrwt>
<rwgt>
<wgt id='morphing_basis_vector_1'> +1.9721429e-04 </wgt>
<wgt id='morphing_basis_vector_2'> +1.0666084e-04 </wgt>
<wgt id='morphing_basis_vector_3'> +1.3219938e-04 </wgt>
<wgt id='morphing_basis_vector_4'> +3.5237167e-05 </wgt>
<wgt id='morphing_basis_vector_5'> +4.2900339e-05 </wgt>
</rwgt>
</event>
<event>
 4      1 +1.9425900e-05 4.82556500e+02 7.81860800e-03 9.43970400e-02
        2 -1    0    0  501    0 +0.0000000000e+00 +0.0000000000e+00 +6.0739718396e+02 6.0739718396e+02 0.0000000000e+00 0.0000e+00 -1.0000e+00
       -2 -1    0    0    0  501 -0.0000000000e+00 -0.0000000000e+00 -9.5843695207e+01 9.5843695207e+01 0.0000000000e+00 0.0000e+00 1.0000e+00
      -13  1    1    2    0    0 -3.9232366051e+01 -1.1454330035e+02 -4.8367196887e+01 1.3037918521e+02 0.0000000000e+00 0.0000e+00 1.0000e+00
       13  1    1    2    0    0 +3.9232366051e+01 +1.1454330035e+02 +5.5992068564e+02 5.7286169396e+02 0.0000000000e+00 0.0000e+00 -1.0000e+00
<mgrwt>
<rscale>  0 0.48255649E+03</rscale>
<asrwt>0</asrwt>
<pdfrwt beam="1">  1        2 0.93445718E-01 0.48255649E+03</pdfrwt>
<pdfrwt beam="2">  1       -2 0.14745184E-01 0.48255649E+03</pdfrwt>
<totfact> 0.19314548E+03</totfact>
</mgrwt>
<rwgt>
<wgt id='morphing_basis_vector_1'> +2.5998611e-04 </wgt>
<wgt id='morphing_basis_vector_2'> +1.4196820e-04 </wgt>
<wgt id='morphing_basis_vector_3'> +1.8366388e-04 </wgt>
<wgt id='morphing_basis_vector_4'> +5.8444123e-05 </wgt>
<wgt id='morphing_basis_vector_5'> +7.9453089e-05 </wgt>
</rwgt>
</event>
<event>
 4      1 +1.9425900e-05 4.75507400e+02 7.81860800e-03 9.45635900e-02
        2 -1    0    0  501    0 +0.0000000000e+00 +0.0000000000e+00 +8.3033620111e+02 8.3033620111e+02 0.0000000000e+00 0.0000e+00 -1.0000e+00
       -2 -1    0    0    0  501 -0.0000000000e+00 -0.0000000000e+00 -6.8077036649e+01 6.8077036649e+01 0.0000000000e+00 0.0000e+00 1.0000e+00
      -13  1    1    2    0    0 +1.2922121130e+02 +6.7439412759e+01 +2.6245093201e+01 1.4810469527e+02 0.0000000000e+00 0.0000e+00 1.0000e+00
       13  1    1    2    0    0 -1.2922121130e+02 -6.7439412759e+01 +7.3601407126e+02 7.5030854249e+02 0.0000000000e+00 0.0000e+00 -1.0000e+00
<mgrwt>
<rscale>  0 0.47550743E+03</rscale>
<asrwt>0</asrwt>
<pdfrwt beam="1">  1        2 0.12774402E+00 0.47550743E+03</pdfrwt>
<pdfrwt beam="2">  1       -2 0.10473391E-01 0.47550743E+03</pdfrwt>
<totfact> 0.22700559E+03</totfact>
</mgrwt>
<rwgt>
<wgt id='morphing_basis_vector_1'> +2.4905033e-04 </wgt>
<wgt id='morphing_basis_vector_2'> +1.3590634e-04 </wgt>
<wgt id='morphing_basis_vector_3'> +1.7444117e-04 </wgt>
<wgt id='morphing_basis_vector_4'> +5.4094752e-05 </wgt>
<wgt id='morphing_basis_vector_5'> +7.2628349e-05 </wgt>
</rwgt>
</event>
<event>
 4      1 +1.9425900e-05 4.73457700e+02 7.81860800e-03 9.46126000e-02
        2 -1    0    0  501    0 +0.0000000000e+00 +0.0000000000e+00 +3.3746637121e+02 3.3746637121e+02 0.0000000000e+00 0.0000e+00 1.0000e+00
       -2 -1    0    0    0  501 -0.0000000000e+00 -0.0000000000e+00 -1.6606261292e+02 1.6606261292e+02 0.0000000000e+00 0.0000e+00 -1.0000e+00
      -13  1    1    2    0    0 +1.0098634401e+02 +1.9877060935e+02 +1.7033349394e+02 2.8057351261e+02 0.0000000000e+00 0.0000e+00 1.0000e+00
       13  1    1    2    0    0 -1.0098634401e+02 -1.9877060935e+02 +1.0702643524e+00 2.2295547153e+02 0.0000000000e+00 0.0000e+00 -1.0000e+00
<mgrwt>
<rscale>  0 0.47345770E+03</rscale>
<asrwt>0</asrwt>
<pdfrwt beam="1">  1        2 0.51917903E-01 0.47345770E+03</pdfrwt>
<pdfrwt beam="2">  1       -2 0.25548094E-01 0.47345770E+03</pdfrwt>
<totfact> 0.15136098E+03</totfact>
</mgrwt>
<rwgt>
<wgt id='morphing_basis_vector_1'> +2.7123188e-04 </wgt>
<wgt id='morphing_basis_vector_2'> +2.1256001e-04 </wgt>
<wgt id='morphing_basis_vector_3'> +1.5803501e-04 </wgt>
<wgt id='morphing_basis_vector_4'> +4.5674407e-05 </wgt>
<wgt id='morphing_basis_vector_5'> +7.1954812e-05 </wgt>
</rwgt>
</event>
<event>
 4      1 +1.9425900e-05 5.09571300e+02 7.81860800e-03 9.37860200e-02
        2 -1    0    0  501    0 +0.0000000000e+00 +0.0000000000e+00 +5.8323656133e+02 5.8323656133e+02 0.0000000000e+00 0.0000e+00 -1.0000e+00
       -2 -1    0    0    0  501 -0.0000000000e+00 -0.0000000000e+00 -1.1130257269e+02 1.1130257269e+02 0.0000000000e+00 0.0000e+00 1.0000e+00
      -13  1    1    2    0    0 +9.5805059670e+01 -9.6928408394e+01 -5.7445875164e+01 1.4789778357e+02 0.0000000000e+00 0.0000e+00 1.0000e+00
       13  1    1    2    0    0 -9.5805059670e+01 +9.6928408394e+01 +5.2937986381e+02 5.4664135044e+02 0.0000000000e+00 0.0000e+00 -1.0000e+00
<mgrwt>
<rscale>  0 0.50957131E+03</rscale>
<asrwt>0</asrwt>
<pdfrwt beam="1">  1        2 0.89728700E-01 0.50957131E+03</pdfrwt>
<pdfrwt beam="2">  1       -2 0.17123473E-01 0.50957131E+03</pdfrwt>
<totfact> 0.15909280E+03</totfact>
</mgrwt>
<rwgt>
<wgt id='morphing_basis_vector_1'> +3.0605892e-04 </wgt>
<wgt id='morphing_basis_vector_2'> +1.6862876e-04 </wgt>
<wgt id='morphing_basis_vector_3'> +2.2270192e-04 </wgt>
<wgt id='morphing_basis_vector_4'> +7.7502349e-05 </wgt>
<wgt id='morphing_basis_vector_5'> +1.0957658e-04 </wgt>
</rwgt>
</event>
<event>
 4      1 +1.9425900e-05 4.97405500e+02 7.81860800e-03 9.40560200e-02
        2 -1    0    0  501    0 +0.0000000000e+00 +0.0000000000e+00 +1.8662525716e+02 1.8662525716e+02 0.0000000000e+00 0.0000e+00 -1.0000e+00
       -2 -1    0    0    0  501 -0.0000000000e+00 -0.0000000000e+00 -3.3142916082e+02 3.3142916082e+02 0.0000000000e+00 0.0000e+00 1.0000e+00
      -13  1    1    2    0    0 -5.2345929429e+01 -1.7919485874e+02 -2.4354689050e+02 3.0686476109e+02 0.0000000000e+00 0.0000e+00 1.0000e+00
       13  1    1    2    0    0 +5.2345929429e+01 +1.7919485874e+02 +9.8742986839e+01 2.1118965689e+02 0.0000000000e+00 0.0000e+00 -1.0000e+00
<mgrwt>
<rscale>  0 0.49740548E+03</rscale>
<asrwt>0</asrwt>
<pdfrwt beam="1">  1        2 0.28711578E-01 0.49740548E+03</pdfrwt>
<pdfrwt beam="2">  1       -2 0.50989102E-01 0.49740548E+03</pdfrwt>
<totfact> 0.84274509E+02</totfact>
</mgrwt>
<rwgt>
<wgt id='morphing_basis_vector_1'> +2.8489847e-04 </wgt>
<wgt id='morphing_basis_vector_2'> +1.5725565e-04 </wgt>
<wgt id='morphing_basis_vector_3'> +2.0418647e-04 </wgt>
<wgt id='morphing_basis_vector_4'> +6.8274570e-05 </wgt>
<wgt id='morphing_basis_vector_5'> +9.5223556e-05 </wgt>
</rwgt>
</event>
<event>
 4      1 +1.9425900e-05 5.19401100e+02 7.81860800e-03 9.35737000e-02
        2 -1    0    0  501    0 +0.0000000000e+00 +0.0000000000e+00 +8.3694892995e+02 8.3694892995e+02 0.0000000000e+00 0.0000e+00 -1.0000e+00
       -2 -1    0    0    0  501 -0.0000000000e+00 -0.0000000000e+00 -8.0583622145e+01 8.0583622145e+01 0.0000000000e+00 0.0000e+00 1.0000e+00
      -13  1    1    2    0    0 -2.0783868848e+02 +1.5269164287e+02 +3.2423236001e+02 4.1429250718e+02 0.0000000000e+00 0.0000e+00 1.0000e+00
       13  1    1    2    0    0 +2.0783868848e+02 -1.5269164287e+02 +4.3213294779e+02 5.0324004491e+02 0.0000000000e+00 0.0000e+00 -1.0000e+00
<mgrwt>
<rscale>  0 0.51940110E+03</rscale>
<asrwt>0</asrwt>
<pdfrwt beam="1">  1        2 0.12876137E+00 0.51940110E+03</pdfrwt>
<pdfrwt beam="2">  1       -2 0.12397481E-01 0.51940110E+03</pdfrwt>
<totfact> 0.17238711E+03</totfact>
</mgrwt>
<rwgt>
<wgt id='morphing_basis_vector_1'> +3.3129772e-04 </wgt>
<wgt id='morphing_basis_vector_2'> +2.0071262e-04 </wgt>
<wgt id='morphing_basis_vector_3'> +2.3631602e-04 </wgt>
<wgt id='morphing_basis_vector_4'> +8.2183750e-05 </wgt>
<wgt id='morphing_basis_vector_5'> +1.2242983e-04 </wgt>
</rwgt>
</event>
<event>
 4      1 +1.9425900e-05 5.04023300e+02 7.81860800e-03 9.39081300e-02
        2 -1    0    0  501    0 +0.0000000000e+00 +0.0000000000e+00 +5.0433606297e+01 5.0433606297e+01 0.0000000000e+00 0.0000e+00 -1.0000e+00
       -2 -1    0    0    0  501 -0.0000000000e+00 -0.0000000000e+00 -1.2592767848e+03 1.2592767848e+03 0.0000000000e+00 0.0000e+00 1.0000e+00
      -13  1    1    2    0    0 +1.3769241027e+02 -1.5625998189e+02 -9.7313095971e+02 9.9516845134e+02 0.0000000000e+00 0.0000e+00 1.0000e+00
       13  1    1    2    0    0 -1.3769241027e+02 +1.5625998189e+02 -2.3571221882e+02 3.1454193979e+02 0.0000000000e+00 0.0000e+00 -1.0000e+00
<mgrwt>
<rscale>  0 0.50402329E+03</rscale>
<asrwt>0</asrwt>
<pdfrwt beam="1">  1        2 0.77590166E-02 0.50402329E+03</pdfrwt>
<pdfrwt beam="2">  1       -2 0.19373488E+00 0.50402329E+03</pdfrwt>
<totfact> 0.15798484E+02</totfact>
</mgrwt>
<rwgt>
<wgt id='morphing_basis_vector_1'> +2.9684451e-04 </wgt>
<wgt id='morphing_basis_vector_2'> +1.6519310e-04 </wgt>
<wgt id='morphing_basis_vector_3'> +2.1386571e-04 </wgt>
<wgt id='morphing_basis_vector_4'> +7.2935087e-05 </wgt>
<wgt id='morphing_basis_vector_5'> +1.0288563e-04 </wgt>
</rwgt>
</event>
<event>
 4      1 +1.9425900e-05 4.88331100e+02 7.81860800e-03 9.42628700e-02
        2 -1    0    0  501    0 +0.0000000000e+00 +0.0000000000e+00 +2.5440897468e+02 2.5440897468e+02 0.0000000000e+00 0.0000e+00 -1.0000e+00
       -2 -1    0    0    0  501 -0.0000000000e+00 -0.0000000000e+00 -2.3433453678e+02 2.3433453678e+02 0.0000000000e+00 0.0000e+00 1.0000e+00
      -13  1    1    2    0    0 -3.7941377375e+01 -4.5846520867e+01 -2.2696514127e+02 2.3463722412e+02 0.0000000000e+00 0.0000e+00 1.0000e+00
       13  1    1    2    0    0 +3.7941377375e+01 +4.5846520867e+01 +2.4703957917e+02 2.5410628734e+02 0.0000000000e+00 0.0000e+00 -1.0000e+00
<mgrwt>
<rscale>  0 0.48833107E+03</rscale>
<asrwt>0</asrwt>
<pdfrwt beam="1">  1        2 0.39139842E-01 0.48833107E+03</pdfrwt>
<pdfrwt beam="2">  1       -2 0.36051467E-01 0.48833107E+03</pdfrwt>
<totfact> 0.11348936E+03</totfact>
</mgrwt>
<rwgt>
<wgt id='morphing_basis_vector_1'> +2.6926010e-04 </wgt>
<wgt id='morphing_basis_vector_2'> +1.4716871e-04 </wgt>
<wgt id='morphing_basis_vector_3'> +1.9151010e-04 </wgt>
<wgt id='morphing_basis_vector_4'> +6.2199303e-05 </wgt>
<wgt id='morphing_basis_vector_5'> +8.5352576e-05 </wgt>
</rwgt>
</event>
<event>
 4      1 +1.9425900e-05 5.14516200e+02 7.81860800e-03 9.36785700e-02
        2 -1    0    0  501    0 +0.0000000000e+00 +0.0000000000e+00 +5.1831606713e+02 5.1831606713e+02 0.0000000000e+00 0.0000e+00 -1.0000e+00
       -2 -1    0    0    0  501 -0.0000000000e+00 -0.0000000000e+00 -1.2768606358e+02 1.2768606358e+02 0.0000000000e+00 0.0000e+00 1.0000e+00
      -13  1    1    2    0    0 +2.2029697645e+01 +1.0899912546e+02 -9.5950500423e+01 1.4687619092e+02 0.0000000000e+00 0.0000e+00 1.0000e+00
       13  1    1    2    0    0 -2.2029697645e+01 -1.0899912546e+02 +4.8658050397e+02 4.9912593979e+02 0.0000000000e+00 0.0000e+00 -1.0000e+00
<mgrwt>
<rscale>  0 0.51451623E+03</rscale>
<asrwt>0</asrwt>
<pdfrwt beam="1">  1        2 0.79740932E-01 0.51451623E+03</pdfrwt>
<pdfrwt beam="2">  1       -2 0.19644010E-01 0.51451623E+03</pdfrwt>
<totfact> 0.14541233E+03</totfact>
</mgrwt>
<rwgt>
<wgt id='morphing_basis_vector_1'> +3.1513181e-04 </wgt>
<wgt id='morphing_basis_vector_2'> +1.7378657e-04 </wgt>
<wgt id='morphing_basis_vector_3'> +2.3056433e-04 </wgt>
<wgt id='morphing_basis_vector_4'> +8.1467467e-05 </wgt>
<wgt id='morphing_basis_vector_5'> +1.1580863e-04 </wgt>
</rwgt>
</event>
<event>
 4      1 +1.9425900e-05 4.94502300e+02 7.81860800e-03 9.41216800e-02
        2 -1    0    0  501    0 +0.0000000000e+00 +0.0000000000e+00 +1.8844656624e+03 1.8844656624e+03 0.0000000000e+00 0.0000e+00 -1.0000e+00
       -2 -1    0    0    0  501 -0.0000000000e+00 -0.0000000000e+00 -3.2440561323e+01 3.2440561323e+01 0.0000000000e+00 0.0000e+00 1.0000e+00
      -13  1    1    2    0    0 -2.1055694605e+02 +1.2161643293e+02 +7.5229201763e+02 7.9061246137e+02 0.0000000000e+00 0.0000e+00 1.0000e+00
       13  1    1    2    0    0 +2.1055694605e+02 -1.2161643293e+02 +1.0997330835e+03 1.1262937624e+03 0.0000000000e+00 0.0000e+00 -1.0000e+00
<mgrwt>
<rscale>  0 0.49450227E+03</rscale>
<asrwt>0</asrwt>
<pdfrwt beam="1">  1        2 0.28991771E+00 0.49450227E+03</pdfrwt>
<pdfrwt beam="2">  1       -2 0.49908571E-02 0.49450227E+03</pdfrwt>
<totfact> 0.17804212E+03</totfact>
</mgrwt>
<rwgt>
<wgt id='morphing_basis_vector_1'> +2.8417234e-04 </wgt>
<wgt id='morphing_basis_vector_2'> +1.6749024e-04 </wgt>
<wgt id='morphing_basis_vector_3'> +1.9813706e-04 </wgt>
<wgt id='morphing_basis_vector_4'> +6.4646000e-05 </wgt>
<wgt id='morphing_basis_vector_5'> +9.2170352e-05 </wgt>
</rwgt>
</event>
<event>
 4      1 +1.9425900e-05 4.67177000e+02 7.81860800e-03 9.47644400e-02
        2 -1    0    0  501    0 +0.0000000000e+00 +0.0000000000e+00 +1.0401493344e+03 1.0401493344e+03 0.0000000000e+00 0.0000e+00 1.0000e+00
       -2 -1    0    0    0  501 -0.0000000000e+00 -0.0000000000e+00 -5.2457458957e+01 5.2457458957e+01 0.0000000000e+00 0.0000e+00 -1.0000e+00
      -13  1    1    2    0    0 -2.3284537177e+02 +9.5607805338e-01 +4.5036105938e+02 5.0699404833e+02 0.0000000000e+00 0.0000e+00 1.0000e+00
       13  1    1    2    0    0 +2.3284537177e+02 -9.5607805338e-01 +5.3733081602e+02 5.8561274498e+02 0.0000000000e+00 0.0000e+00 -1.0000e+00
<mgrwt>
<rscale>  0 0.46717702E+03</rscale>
<asrwt>0</asrwt>
<pdfrwt beam="1">  1        2 0.16002296E+00 0.46717702E+03</pdfrwt>
<pdfrwt beam="2">  1       -2 0.80703791E-02 0.46717702E+03</pdfrwt>
<totfact> 0.25104507E+03</totfact>
</mgrwt>
<rwgt>
<wgt id='morphing_basis_vector_1'> +2.4216243e-04 </wgt>
<wgt id='morphing_basis_vector_2'> +1.4618574e-04 </wgt>
<wgt id='morphing_basis_vector_3'> +1.6084556e-04 </wgt>
<wgt id='morphing_basis_vector_4'> +4.7865667e-05 </wgt>
<wgt id='morphing_basis_vector_5'> +6.5359158e-05 </wgt>
</rwgt>
</event>
<event>
 4      1 +1.9425900e-05 4.54887000e+02 7.81860800e-03 9.50689200e-02
        2 -1    0    0  501    0 +0.0000000000e+00 +0.0000000000e+00 +6.5323581639e+02 6.5323581639e+02 0.0000000000e+00 0.0000e+00 1.0000e+00
       -2 -1    0    0    0  501 -0.0000000000e+00 -0.0000000000e+00 -7.9191228843e+01 7.9191228843e+01 0.0000000000e+00 0.0000e+00 -1.0000e+00
      -13  1    1    2    0    0 +1.7040503550e+02 -1.4734046855e+01 +4.5633956434e+01 1.7702380134e+02 0.0000000000e+00 0.0000e+00 -1.0000e+00
       13  1    1    2    0    0 -1.7040503550e+02 +1.4734046855e+01 +5.2841063112e+02 5.5540324390e+02 0.0000000000e+00 0.0000e+00 1.0000e+00
<mgrwt>
<rscale>  0 0.45488701E+03</rscale>
<asrwt>0</asrwt>
<pdfrwt beam="1">  1        2 0.10049781E+00 0.45488701E+03</pdfrwt>
<pdfrwt beam="2">  1       -2 0.12183266E-01 0.45488701E+03</pdfrwt>
<totfact> 0.24015910E+03</totfact>
</mgrwt>
<rwgt>
<wgt id='morphing_basis_vector_1'> +2.1927863e-04 </wgt>
<wgt id='morphing_basis_vector_2'> +1.1955357e-04 </wgt>
<wgt id='morphing_basis_vector_3'> +1.4965509e-04 </wgt>
<wgt id='morphing_basis_vector_4'> +4.2816030e-05 </wgt>
<wgt id='morphing_basis_vector_5'> +5.4915005e-05 </wgt>
</rwgt>
</event>
<event>
 4      1 +1.9425900e-05 4.50589700e+02 7.81860800e-03 9.51777800e-02
        2 -1    0    0  501    0 +0.0000000000e+00 +0.0000000000e+00 +2.6414399005e+02 2.6414399005e+02 0.0000000000e+00 0.0000e+00 -1.0000e+00
       -2 -1    0    0    0  501 -0.0000000000e+00 -0.0000000000e+00 -1.9215944529e+02 1.9215944529e+02 0.0000000000e+00 0.0000e+00 1.0000e+00
      -13  1    1    2    0    0 +5.5495963247e+01 +1.4647086079e+02 -1.2800024254e+02 2.0228093604e+02 0.0000000000e+00 0.0000e+00 1.0000e+00
       13  1    1    2    0    0 -5.5495963247e+01 -1.4647086079e+02 +1.9998478730e+02 2.5402249930e+02 0.0000000000e+00 0.0000e+00 -1.0000e+00
<mgrwt>
<rscale>  0 0.45058967E+03</rscale>
<asrwt>0</asrwt>
<pdfrwt beam="1">  1        2 0.40637537E-01 0.45058967E+03</pdfrwt>
<pdfrwt beam="2">  1       -2 0.29562991E-01 0.45058967E+03</pdfrwt>
<totfact> 0.15458300E+03</totfact>
</mgrwt>
<rwgt>
<wgt id='morphing_basis_vector_1'> +2.1330788e-04 </wgt>
<wgt id='morphing_basis_vector_2'> +1.1588017e-04 </wgt>
<wgt id='morphing_basis_vector_3'> +1.4499340e-04 </wgt>
<wgt id='morphing_basis_vector_4'> +4.0752972e-05 </wgt>
<wgt id='morphing_basis_vector_5'> +5.1615251e-05 </wgt>
</rwgt>
</event>
<event>
 4      1 +1.9425900e-05 5.02566600e+02 7.81860800e-03 9.39404700e-02
        2 -1    0    0  501    0 +0.0000000000e+00 +0.0000000000e+00 +5.9098111975e+02 5.9098111975e+02 0.0000000000e+00 0.0000e+00 -1.0000e+00
       -2 -1    0    0    0  501 -0.0000000000e+00 -0.0000000000e+00 -1.0684484505e+02 1.0684484505e+02 0.0000000000e+00 0.0000e+00 1.0000e+00
      -13  1    1    2    0    0 -1.7305961986e+01 +2.0035206662e+02 +3.2852748464e+01 2.0376395658e+02 0.0000000000e+00 0.0000e+00 1.0000e+00
       13  1    1    2    0    0 +1.7305961986e+01 -2.0035206662e+02 +4.5128352624e+02 4.9406200823e+02 0.0000000000e+00 0.0000e+00 -1.0000e+00
<mgrwt>
<rscale>  0 0.50256656E+03</rscale>
<asrwt>0</asrwt>
<pdfrwt beam="1">  1        2 0.90920170E-01 0.50256656E+03</pdfrwt>
<pdfrwt beam="2">  1       -2 0.16437669E-01 0.50256656E+03</pdfrwt>
<totfact> 0.16742259E+03</totfact>
</mgrwt>
<rwgt>
<wgt id='morphing_basis_vector_1'> +2.9410051e-04 </wgt>
<wgt id='morphing_basis_vector_2'> +1.6317162e-04 </wgt>
<wgt id='morphing_basis_vector_3'> +2.1173244e-04 </wgt>
<wgt id='morphing_basis_vector_4'> +7.1923139e-05 </wgt>
<wgt id='morphing_basis_vector_5'> +1.0116187e-04 </wgt>
</rwgt>
</event>
<event>
 4      1 +1.9425900e-05 4.31390400e+02 7.81860800e-03 9.56802200e-02
        2 -1    0    0  501    0 +0.0000000000e+00 +0.0000000000e+00 +8.4509150370e+02 8.4509150370e+02 0.0000000000e+00 0.0000e+00 -1.0000e+00
       -2 -1    0    0    0  501 -0.0000000000e+00 -0.0000000000e+00 -5.5052512770e+01 5.5052512770e+01 0.0000000000e+00 0.0000e+00 1.0000e+00
      -13  1    1    2    0    0 -1.0884654934e+02 -1.2692545041e+02 +1.1069797318e+02 2.0052850802e+02 0.0000000000e+00 0.0000e+00 1.0000e+00
       13  1    1    2    0    0 +1.0884654934e+02 +1.2692545041e+02 +6.7934101775e+02 6.9961550844e+02 0.0000000000e+00 0.0000e+00 -1.0000e+00
<mgrwt>
<rscale>  0 0.43139036E+03</rscale>
<asrwt>0</asrwt>
<pdfrwt beam="1">  1        2 0.13001407E+00 0.43139036E+03</pdfrwt>
<pdfrwt beam="2">  1       -2 0.84696180E-02 0.43139036E+03</pdfrwt>
<totfact> 0.30843300E+03</totfact>
</mgrwt>
<rwgt>
<wgt id='morphing_basis_vector_1'> +1.8892526e-04 </wgt>
<wgt id='morphing_basis_vector_2'> +1.0262282e-04 </wgt>
<wgt id='morphing_basis_vector_3'> +1.2527296e-04 </wgt>
<wgt id='morphing_basis_vector_4'> +3.2397676e-05 </wgt>
<wgt id='morphing_basis_vector_5'> +3.8478582e-05 </wgt>
</rwgt>
</event>
<event>
 4      1 +1.9425900e-05 4.63936500e+02 7.81860800e-03 9.48437600e-02
        2 -1    0    0  501    0 +0.0000000000e+00 +0.0000000000e+00 +1.3858603782e+03 1.3858603782e+03 0.0000000000e+00 0.0000e+00 1.0000e+00
       -2 -1    0    0    0  501 -0.0000000000e+00 -0.0000000000e+00 -3.8827329866e+01 3.8827329866e+01 0.0000000000e+00 0.0000e+00 -1.0000e+00
      -13  1    1    2    0    0 -1.7268975739e+02 +1.1524600054e+02 +3.5577639835e+02 4.1192261236e+02 0.0000000000e+00 0.0000e+00 -1.0000e+00
       13  1    1    2    0    0 +1.7268975739e+02 -1.1524600054e+02 +9.9125665000e+02 1.0127650957e+03 0.0000000000e+00 0.0000e+00 1.0000e+00
<mgrwt>
<rscale>  0 0.46393645E+03</rscale>
<asrwt>0</asrwt>
<pdfrwt beam="1">  1        2 0.21320925E+00 0.46393645E+03</pdfrwt>
<pdfrwt beam="2">  1       -2 0.59734364E-02 0.46393645E+03</pdfrwt>
<totfact> 0.25289539E+03</totfact>
</mgrwt>
<rwgt>
<wgt id='morphing_basis_vector_1'> +2.3290511e-04 </wgt>
<wgt id='morphing_basis_vector_2'> +1.2945126e-04 </wgt>
<wgt id='morphing_basis_vector_3'> +1.5957028e-04 </wgt>
<wgt id='morphing_basis_vector_4'> +4.7276492e-05 </wgt>
<wgt id='morphing_basis_vector_5'> +6.2337474e-05 </wgt>
</rwgt>
</event>
<event>
 4      1 +1.9425900e-05 4.37928600e+02 7.81860800e-03 9.55060700e-02
        2 -1    0    0  501    0 +0.0000000000e+00 +0.0000000000e+00 +3.1316773524e+02 3.1316773524e+02 0.0000000000e+00 0.0000e+00 1.0000e+00
       -2 -1    0    0    0  501 -0.0000000000e+00 -0.0000000000e+00 -1.5309805100e+02 1.5309805100e+02 0.0000000000e+00 0.0000e+00 -1.0000e+00
      -13  1    1    2    0    0 -9.7037995873e+01 +6.4900008652e+01 -1.1720052192e+02 1.6542172199e+02 0.0000000000e+00 0.0000e+00 -1.0000e+00
       13  1    1    2    0    0 +9.7037995873e+01 -6.4900008652e+01 +2.7727020617e+02 3.0084406425e+02 0.0000000000e+00 0.0000e+00 1.0000e+00
<mgrwt>
<rscale>  0 0.43792862E+03</rscale>
<asrwt>0</asrwt>
<pdfrwt beam="1">  1        2 0.48179651E-01 0.43792862E+03</pdfrwt>
<pdfrwt beam="2">  1       -2 0.23553546E-01 0.43792862E+03</pdfrwt>
<totfact> 0.18856118E+03</totfact>
</mgrwt>
<rwgt>
<wgt id='morphing_basis_vector_1'> +1.9669990e-04 </wgt>
<wgt id='morphing_basis_vector_2'> +1.0621093e-04 </wgt>
<wgt id='morphing_basis_vector_3'> +1.3188864e-04 </wgt>
<wgt id='morphing_basis_vector_4'> +3.5093854e-05 </wgt>
<wgt id='morphing_basis_vector_5'> +4.2658682e-05 </wgt>
</rwgt>
</event>
<event>
 4      1 +1.9425900e-05 4.83726600e+02 7.81860800e-03 9.43696900e-02
        2 -1    0    0  501    0 +0.0000000000e+00 +0.0000000000e+00 +2.9370008399e+02 2.9370008399e+02 0.0000000000e+00 0.0000e+00 -1.0000e+00
       -2 -1    0    0    0  501 -0.0000000000e+00 -0.0000000000e+00 -1.9917551355e+02 1.9917551355e+02 0.0000000000e+00 0.0000e+00 1.0000e+00
      -13  1    1    2    0    0 +1.4844707952e+02 +1.8189001974e+02 -1.1951847211e+01 2.3508160573e+02 0.0000000000e+00 0.0000e+00 1.0000e+00
       13  1    1    2    0    0 -1.4844707952e+02 -1.8189001974e+02 +1.0647641765e+02 2.5779399182e+02 0.0000000000e+00 0.0000e+00 -1.0000e+00
<mgrwt>
<rscale>  0 0.48372664E+03</rscale>
<asrwt>0</asrwt>
<pdfrwt beam="1">  1        2 0.45184628E-01 0.48372664E+03</pdfrwt>
<pdfrwt beam="2">  1       -2 0.30642387E-01 0.48372664E+03</pdfrwt>
<totfact> 0.12901685E+03</totfact>
</mgrwt>
<rwgt>
<wgt id='morphing_basis_vector_1'> +2.6522093e-04 </wgt>
<wgt id='morphing_basis_vector_2'> +1.5348443e-04 </wgt>
<wgt id='morphing_basis_vector_3'> +1.8356567e-04 </wgt>
<wgt id='morphing_basis_vector_4'> +5.8075484e-05 </wgt>
<wgt id='morphing_basis_vector_5'> +8.0779845e-05 </wgt>
</rwgt>
</event>
<event>
 4      1 +1.9425900e-05 4.59647000e+02 7.81860800e-03 9.49498100e-02
        2 -1    0    0  501    0 +0.0000000000e+00 +0.0000000000e+00 +8.2434712942e+02 8.2434712942e+02 0.0000000000e+00 0.0000e+00 1.0000e+00
       -2 -1    0    0    0  501 -0.0000000000e+00 -0.0000000000e+00 -6.4073542581e+01 6.4073542581e+01 0.0000000000e+00 0.0000e+00 -1.0000e+00
      -13  1    1    2    0    0 -6.7710963357e+01 -1.4496300651e+02 +6.1249924609e+01 1.7132017126e+02 0.0000000000e+00 0.0000e+00 -1.0000e+00
       13  1    1    2    0    0 +6.7710963357e+01 +1.4496300651e+02 +6.9902366223e+02 7.1710050075e+02 0.0000000000e+00 0.0000e+00 1.0000e+00
<mgrwt>
<rscale>  0 0.45964700E+03</rscale>
<asrwt>0</asrwt>
<pdfrwt beam="1">  1        2 0.12682263E+00 0.45964700E+03</pdfrwt>
<pdfrwt beam="2">  1       -2 0.98574687E-02 0.45964700E+03</pdfrwt>
<totfact> 0.25182404E+03</totfact>
</mgrwt>
<rwgt>
<wgt id='morphing_basis_vector_1'> +2.2580068e-04 </wgt>
<wgt id='morphing_basis_vector_2'> +1.2294946e-04 </wgt>
<wgt id='morphing_basis_vector_3'> +1.5513615e-04 </wgt>
<wgt id='morphing_basis_vector_4'> +4.5249925e-05 </wgt>
<wgt id='morphing_basis_vector_5'> +5.8713545e-05 </wgt>
</rwgt>
</event>
<event>
 4      1 +1.9425900e-05 4.70453900e+02 7.81860800e-03 9.46849100e-02
        2 -1    0    0  501    0 +0.0000000000e+00 +0.0000000000e+00 +4.5782459634e+02 4.5782459634e+02 0.0000000000e+00 0.0000e+00 -1.0000e+00
       -2 -1    0    0    0  501 -0.0000000000e+00 -0.0000000000e+00 -1.2085789603e+02 1.2085789603e+02 0.0000000000e+00 0.0000e+00 1.0000e+00
      -13  1    1    2    0    0 -5.6114621746e+01 -2.0918382235e+02 +5.5579668969e+01 2.2359745506e+02 0.0000000000e+00 0.0000e+00 1.0000e+00
       13  1    1    2    0    0 +5.6114621746e+01 +2.0918382235e+02 +2.8138703134e+02 3.5508503730e+02 0.0000000000e+00 0.0000e+00 -1.0000e+00
<mgrwt>
<rscale>  0 0.47045390E+03</rscale>
<asrwt>0</asrwt>
<pdfrwt beam="1">  1        2 0.70434552E-01 0.47045390E+03</pdfrwt>
<pdfrwt beam="2">  1       -2 0.18593523E-01 0.47045390E+03</pdfrwt>
<totfact> 0.18298858E+03</totfact>
</mgrwt>
<rwgt>
<wgt id='morphing_basis_vector_1'> +2.4291214e-04 </wgt>
<wgt id='morphing_basis_vector_2'> +1.3623300e-04 </wgt>
<wgt id='morphing_basis_vector_3'> +1.6725065e-04 </wgt>
<wgt id='morphing_basis_vector_4'> +5.0739150e-05 </wgt>
<wgt id='morphing_basis_vector_5'> +6.8055590e-05 </wgt>
</rwgt>
</event>
<event>
 4      1 +1.9425900e-05 4.30520300e+02 7.81860800e-03 9.57036400e-02
        2 -1    0    0  501    0 +0.0000000000e+00 +0.0000000000e+00 +5.6785817739e+02 5.6785817739e+02 0.0000000000e+00 0.0000e+00 -1.0000e+00
       -2 -1    0    0    0  501 -0.0000000000e+00 -0.0000000000e+00 -8.1599474091e+01 8.1599474091e+01 0.0000000000e+00 0.0000e+00 1.0000e+00
      -13  1    1    2    0    0 +9.4418893974e+01 -1.1531546629e+02 +8.8225049146e+00 1.4929976858e+02 0.0000000000e+00 0.0000e+00 1.0000e+00
       13  1    1    2    0    0 -9.4418893974e+01 +1.1531546629e+02 +4.7743619838e+02 5.0015788290e+02 0.0000000000e+00 0.0000e+00 -1.0000e+00
<mgrwt>
<rscale>  0 0.43052028E+03</rscale>
<asrwt>0</asrwt>
<pdfrwt beam="1">  1        2 0.87362794E-01 0.43052028E+03</pdfrwt>
<pdfrwt beam="2">  1       -2 0.12553766E-01 0.43052028E+03</pdfrwt>
<totfact> 0.26936563E+03</totfact>
</mgrwt>
<rwgt>
<wgt id='morphing_basis_vector_1'> +1.8771026e-04 </wgt>
<wgt id='morphing_basis_vector_2'> +1.0153611e-04 </wgt>
<wgt id='morphing_basis_vector_3'> +1.2456893e-04 </wgt>
<wgt id='morphing_basis_vector_4'> +3.2070781e-05 </wgt>
<wgt id='morphing_basis_vector_5'> +3.7931152e-05 </wgt>
</rwgt>
</event>
<event>
 4      1 +1.9425900e-05 4.64604800e+02 7.81860800e-03 9.48273400e-02
        2 -1    0    0  501    0 +0.0000000000e+00 +0.0000000000e+00 +5.1845273754e+02 5.1845273754e+02 0.0000000000e+00 0.0000e+00 -1.0000e+00
       -2 -1    0    0    0  501 -0.0000000000e+00 -0.0000000000e+00 -1.0408741393e+02 1.0408741393e+02 0.0000000000e+00 0.0000e+00 1.0000e+00
      -13  1    1    2    0    0 +9.3982150091e+01 -9.3912386659e+01 -4.8152190925e+01 1.4131813187e+02 0.0000000000e+00 0.0000e+00 1.0000e+00
       13  1    1    2    0    0 -9.3982150091e+01 +9.3912386659e+01 +4.6251751453e+02 4.8122201960e+02 0.0000000000e+00 0.0000e+00 -1.0000e+00
<mgrwt>
<rscale>  0 0.46460480E+03</rscale>
<asrwt>0</asrwt>
<pdfrwt beam="1">  1        2 0.79761958E-01 0.46460480E+03</pdfrwt>
<pdfrwt beam="2">  1       -2 0.16013449E-01 0.46460480E+03</pdfrwt>
<totfact> 0.20278851E+03</totfact>
</mgrwt>
<rwgt>
<wgt id='morphing_basis_vector_1'> +2.3275426e-04 </wgt>
<wgt id='morphing_basis_vector_2'> +1.2653883e-04 </wgt>
<wgt id='morphing_basis_vector_3'> +1.6102915e-04 </wgt>
<wgt id='morphing_basis_vector_4'> +4.7908082e-05 </wgt>
<wgt id='morphing_basis_vector_5'> +6.2848982e-05 </wgt>
</rwgt>
</event>
<event>
 4      1 +1.9425900e-05 4.46333700e+02 7.81860800e-03 9.52868500e-02
        2 -1    0    0  501    0 +0.0000000000e+00 +0.0000000000e+00 +2.5348724953e+02 2.5348724953e+02 0.0000000000e+00 0.0000e+00 -1.0000e+00
       -2 -1    0    0    0  501 -0.0000000000e+00 -0.0000000000e+00 -1.9647317933e+02 1.9647317933e+02 0.0000000000e+00 0.0000e+00 1.0000e+00
      -13  1    1    2    0    0 -1.3253996843e+02 -1.5900185325e+02 -5.5567332960e+01 2.1432722893e+02 0.0000000000e+00 0.0000e+00 1.0000e+00
       13  1    1    2    0    0 +1.3253996843e+02 +1.5900185325e+02 +1.1258140316e+02 2.3563319993e+02 0.0000000000e+00 0.0000e+00 -1.0000e+00
<mgrwt>
<rscale>  0 0.44633371E+03</rscale>
<asrwt>0</asrwt>
<pdfrwt beam="1">  1        2 0.38998038E-01 0.44633371E+03</pdfrwt>
<pdfrwt beam="2">  1       -2 0.30226643E-01 0.44633371E+03</pdfrwt>
<totfact> 0.15573970E+03</totfact>
</mgrwt>
<rwgt>
<wgt id='morphing_basis_vector_1'> +2.0894514e-04 </wgt>
<wgt id='morphing_basis_vector_2'> +1.1670927e-04 </wgt>
<wgt id='morphing_basis_vector_3'> +1.3953440e-04 </wgt>
<wgt id='morphing_basis_vector_4'> +3.8558261e-05 </wgt>
<wgt id='morphing_basis_vector_5'> +4.8557056e-05 </wgt>
</rwgt>
</event>
<event>
 4      1 +1.9425900e-05 4.34835500e+02 7.81860800e-03 9.55880500e-02
        2 -1    0    0  501    0 +0.0000000000e+00 +0.0000000000e+00 +1.1833127127e+02 1.1833127127e+02 0.0000000000e+00 0.0000e+00 1.0000e+00
       -2 -1    0    0    0  501 -0.0000000000e+00 -0.0000000000e+00 -3.9947574124e+02 3.9947574124e+02 0.0000000000e+00 0.0000e+00 -1.0000e+00
      -13  1    1    2    0    0 -1.5302476283e+01 -1.7185841102e+02 -2.9810623764e+02 3.4443694364e+02 0.0000000000e+00 0.0000e+00 -1.0000e+00
       13  1    1    2    0    0 +1.5302476283e+01 +1.7185841102e+02 +1.6961767669e+01 1.7337006888e+02 0.0000000000e+00 0.0000e+00 1.0000e+00
<mgrwt>
<rscale>  0 0.43483547E+03</rscale>
<asrwt>0</asrwt>
<pdfrwt beam="1">  1        2 0.18204811E-01 0.43483547E+03</pdfrwt>
<pdfrwt beam="2">  1       -2 0.61457806E-01 0.43483547E+03</pdfrwt>
<totfact> 0.99153212E+02</totfact>
</mgrwt>
<rwgt>
<wgt id='morphing_basis_vector_1'> +1.9320115e-04 </wgt>
<wgt id='morphing_basis_vector_2'> +1.0515533e-04 </wgt>
<wgt id='morphing_basis_vector_3'> +1.2856423e-04 </wgt>
<wgt id='morphing_basis_vector_4'> +3.3771165e-05 </wgt>
<wgt id='morphing_basis_vector_5'> +4.0658888e-05 </wgt>
</rwgt>
</event>
<event>
 4      1 +1.9425900e-05 4.63842700e+02 7.81860800e-03 9.48460600e-02
        2 -1    0    0  501    0 +0.0000000000e+00 +0.0000000000e+00 +1.4628779423e+03 1.4628779423e+03 0.0000000000e+00 0.0000e+00 -1.0000e+00
       -2 -1    0    0    0  501 -0.0000000000e+00 -0.0000000000e+00 -3.6768289683e+01 3.6768289683e+01 0.0000000000e+00 0.0000e+00 1.0000e+00
      -13  1    1    2    0    0 -4.4450461353e+01 +2.1575666187e+02 +4.7855557791e+02 5.2682276128e+02 0.0000000000e+00 0.0000e+00 1.0000e+00
       13  1    1    2    0    0 +4.4450461353e+01 -2.1575666187e+02 +9.4755407472e+02 9.7282347071e+02 0.0000000000e+00 0.0000e+00 -1.0000e+00
<mgrwt>
<rscale>  0 0.46384273E+03</rscale>
<asrwt>0</asrwt>
<pdfrwt beam="1">  1        2 0.22505810E+00 0.46384273E+03</pdfrwt>
<pdfrwt beam="2">  1       -2 0.56566611E-02 0.46384273E+03</pdfrwt>
<totfact> 0.24931426E+03</totfact>
</mgrwt>
<rwgt>
<wgt id='morphing_basis_vector_1'> +2.3378057e-04 </wgt>
<wgt id='morphing_basis_vector_2'> +1.3250413e-04 </wgt>
<wgt id='morphing_basis_vector_3'> +1.5885667e-04 </wgt>
<wgt id='morphing_basis_vector_4'> +4.6982261e-05 </wgt>
<wgt id='morphing_basis_vector_5'> +6.2310256e-05 </wgt>
</rwgt>
</event>
<event>
 4      1 +1.9425900e-05 4.57729300e+02 7.81860800e-03 9.49976100e-02
        2 -1    0    0  501    0 +0.0000000000e+00 +0.0000000000e+00 +4.6817799825e+02 4.6817799825e+02 0.0000000000e+00 0.0000e+00 -1.0000e+00
       -2 -1    0    0    0  501 -0.0000000000e+00 -0.0000000000e+00 -1.1187846988e+02 1.1187846988e+02 0.0000000000e+00 0.0000e+00 1.0000e+00
      -13  1    1    2    0    0 -1.1782682025e+02 +1.9607529114e+02 +1.8714264469e+02 2.9555210848e+02 0.0000000000e+00 0.0000e+00 1.0000e+00
       13  1    1    2    0    0 +1.1782682025e+02 -1.9607529114e+02 +1.6915688368e+02 2.8450435965e+02 0.0000000000e+00 0.0000e+00 -1.0000e+00
<mgrwt>
<rscale>  0 0.45772934E+03</rscale>
<asrwt>0</asrwt>
<pdfrwt beam="1">  1        2 0.72027383E-01 0.45772934E+03</pdfrwt>
<pdfrwt beam="2">  1       -2 0.17212073E-01 0.45772934E+03</pdfrwt>
<totfact> 0.20236102E+03</totfact>
</mgrwt>
<rwgt>
<wgt id='morphing_basis_vector_1'> +2.3097363e-04 </wgt>
<wgt id='morphing_basis_vector_2'> +1.4576668e-04 </wgt>
<wgt id='morphing_basis_vector_3'> +1.4799844e-04 </wgt>
<wgt id='morphing_basis_vector_4'> +4.2584659e-05 </wgt>
<wgt id='morphing_basis_vector_5'> +5.7581708e-05 </wgt>
</rwgt>
</event>
<event>
 4      1 +1.9425900e-05 4.72378800e+02 7.81860800e-03 9.46385000e-02
        2 -1    0    0  501    0 +0.0000000000e+00 +0.0000000000e+00 +6.1882603146e+02 6.1882603146e+02 0.0000000000e+00 0.0000e+00 -1.0000e+00
       -2 -1    0    0    0  501 -0.0000000000e+00 -0.0000000000e+00 -9.0147200841e+01 9.0147200841e+01 0.0000000000e+00 0.0000e+00 1.0000e+00
      -13  1    1    2    0    0 +1.3999129833e+02 -1.7067489760e+02 +1.3824997137e+02 2.6046216398e+02 0.0000000000e+00 0.0000e+00 1.0000e+00
       13  1    1    2    0    0 -1.3999129833e+02 +1.7067489760e+02 +3.9042885925e+02 4.4851106833e+02 0.0000000000e+00 0.0000e+00 -1.0000e+00
<mgrwt>
<rscale>  0 0.47237881E+03</rscale>
<asrwt>0</asrwt>
<pdfrwt beam="1">  1        2 0.95204002E-01 0.47237881E+03</pdfrwt>
<pdfrwt beam="2">  1       -2 0.13868801E-01 0.47237881E+03</pdfrwt>
<totfact> 0.20840874E+03</totfact>
</mgrwt>
<rwgt>
<wgt id='morphing_basis_vector_1'> +2.4610471e-04 </wgt>
<wgt id='morphing_basis_vector_2'> +1.3881548e-04 </wgt>
<wgt id='morphing_basis_vector_3'> +1.6949121e-04 </wgt>
<wgt id='morphing_basis_vector_4'> +5.1748223e-05 </wgt>
<wgt id='morphing_basis_vector_5'> +6.9816062e-05 </wgt>
</rwgt>
</event>
<event>
 4      1 +1.9425900e-05 4.59663600e+02 7.81860800e-03 9.49494000e-02
        2 -1    0    0  501    0 +0.0000000000e+00 +0.0000000000e+00 +8.5407032448e+02 8.5407032448e+02 0.0000000000e+00 0.0000e+00 -1.0000e+00
       -2 -1    0    0    0  501 -0.0000000000e+00 -0.0000000000e+00 -6.1848133870e+01 6.1848133870e+01 0.0000000000e+00 0.0000e+00 1.0000e+00
      -13  1    1    2    0    0 +1.5030064764e+02 +9.8583211175e+01 +1.1072097952e+02 2.1111150966e+02 0.0000000000e+00 0.0000e+00 1.0000e+00
       13  1    1    2    0    0 -1.5030064764e+02 -9.8583211175e+01 +6.8150121109e+02 7.0480694869e+02 0.0000000000e+00 0.0000e+00 -1.0000e+00
<mgrwt>
<rscale>  0 0.45966360E+03</rscale>
<asrwt>0</asrwt>
<pdfrwt beam="1">  1        2 0.13139543E+00 0.45966360E+03</pdfrwt>
<pdfrwt beam="2">  1       -2 0.95150981E-02 0.45966360E+03</pdfrwt>
<totfact> 0.25424898E+03</totfact>
</mgrwt>
<rwgt>
<wgt id='morphing_basis_vector_1'> +2.2603912e-04 </wgt>
<wgt id='morphing_basis_vector_2'> +1.2362813e-04 </wgt>
<wgt id='morphing_basis_vector_3'> +1.5502251e-04 </wgt>
<wgt id='morphing_basis_vector_4'> +4.5210657e-05 </wgt>
<wgt id='morphing_basis_vector_5'> +5.8738496e-05 </wgt>
</rwgt>
</event>
<event>
 4      1 +1.9425900e-05 4.72637600e+02 7.81860800e-03 9.46322800e-02
        2 -1    0    0  501    0 +0.0000000000e+00 +0.0000000000e+00 +1.2955763344e+03 1.2955763344e+03 0.0000000000e+00 0.0000e+00 -1.0000e+00
       -2 -1    0    0    0  501 -0.0000000000e+00 -0.0000000000e+00 -4.3105576225e+01 4.3105576225e+01 0.0000000000e+00 0.0000e+00 1.0000e+00
      -13  1    1    2    0    0 +1.6736111213e+02 +1.6339952071e+02 +5.3071205010e+02 5.7996933138e+02 0.0000000000e+00 0.0000e+00 1.0000e+00
       13  1    1    2    0    0 -1.6736111213e+02 -1.6339952071e+02 +7.2175870811e+02 7.5871257928e+02 0.0000000000e+00 0.0000e+00 -1.0000e+00
<mgrwt>
<rscale>  0 0.47263755E+03</rscale>
<asrwt>0</asrwt>
<pdfrwt beam="1">  1        2 0.19931941E+00 0.47263755E+03</pdfrwt>
<pdfrwt beam="2">  1       -2 0.66316281E-02 0.47263755E+03</pdfrwt>
<totfact> 0.24190668E+03</totfact>
</mgrwt>
<rwgt>
<wgt id='morphing_basis_vector_1'> +2.4923811e-04 </wgt>
<wgt id='morphing_basis_vector_2'> +1.4753761e-04 </wgt>
<wgt id='morphing_basis_vector_3'> +1.6830926e-04 </wgt>
<wgt id='morphing_basis_vector_4'> +5.1124953e-05 </wgt>
<wgt id='morphing_basis_vector_5'> +7.0187585e-05 </wgt>
</rwgt>
</event>
<event>
 4      1 +1.9425900e-05 4.39052900e+02 7.81860800e-03 9.54764500e-02
        2 -1    0    0  501    0 +0.0000000000e+00 +0.0000000000e+00 +5.8937304586e+02 5.8937304586e+02 0.0000000000e+00 0.0000e+00 -1.0000e+00
       -2 -1    0    0    0  501 -0.0000000000e+00 -0.0000000000e+00 -8.1767999200e+01 8.1767999200e+01 0.0000000000e+00 0.0000e+00 1.0000e+00
      -13  1    1    2    0    0 +3.4766778619e+00 +1.5357704015e+02 +1.4079175845e+01 1.5426022735e+02 0.0000000000e+00 0.0000e+00 1.0000e+00
       13  1    1    2    0    0 -3.4766778619e+00 -1.5357704015e+02 +4.9352587082e+02 5.1688081771e+02 0.0000000000e+00 0.0000e+00 -1.0000e+00
<mgrwt>
<rscale>  0 0.43905287E+03</rscale>
<asrwt>0</asrwt>
<pdfrwt beam="1">  1        2 0.90672773E-01 0.43905287E+03</pdfrwt>
<pdfrwt beam="2">  1       -2 0.12579693E-01 0.43905287E+03</pdfrwt>
<totfact> 0.25732718E+03</totfact>
</mgrwt>
<rwgt>
<wgt id='morphing_basis_vector_1'> +1.9826076e-04 </wgt>
<wgt id='morphing_basis_vector_2'> +1.0744673e-04 </wgt>
<wgt id='morphing_basis_vector_3'> +1.3291109e-04 </wgt>
<wgt id='morphing_basis_vector_4'> +3.5552561e-05 </wgt>
<wgt id='morphing_basis_vector_5'> +4.3417375e-05 </wgt>
</rwgt>
</event>
<event>
 4      1 +1.9425900e-05 5.05226800e+02 7.81860800e-03 9.38815000e-02
        2 -1    0    0  501    0 +0.0000000000e+00 +0.0000000000e+00 +9.8756409842e+02 9.8756409842e+02 0.0000000000e+00 0.0000e+00 -1.0000e+00
       -2 -1    0    0    0  501 -0.0000000000e+00 -0.0000000000e+00 -6.4617099809e+01 6.4617099809e+01 0.0000000000e+00 0.0000e+00 1.0000e+00
      -13  1    1    2    0    0 +1.0957135471e+02 +2.0757682429e+02 +2.6700459918e+02 3.5550734976e+02 0.0000000000e+00 0.0000e+00 1.0000e+00
       13  1    1    2    0    0 -1.0957135471e+02 -2.0757682429e+02 +6.5594239943e+02 6.9667384846e+02 0.0000000000e+00 0.0000e+00 -1.0000e+00
<mgrwt>
<rscale>  0 0.50522679E+03</rscale>
<asrwt>0</asrwt>
<pdfrwt beam="1">  1        2 0.15193293E+00 0.50522679E+03</pdfrwt>
<pdfrwt beam="2">  1       -2 0.99410930E-02 0.50522679E+03</pdfrwt>
<totfact> 0.19548784E+03</totfact>
</mgrwt>
<rwgt>
<wgt id='morphing_basis_vector_1'> +3.0040127e-04 </wgt>
<wgt id='morphing_basis_vector_2'> +1.7083301e-04 </wgt>
<wgt id='morphing_basis_vector_3'> +2.1515019e-04 </wgt>
<wgt id='morphing_basis_vector_4'> +7.3241017e-05 </wgt>
<wgt id='morphing_basis_vector_5'> +1.0437329e-04 </wgt>
</rwgt>
</event>
<event>
 4      1 +1.9425900e-05 4.89606500e+02 7.81860800e-03 9.42335100e-02
        2 -1    0    0  501    0 +0.0000000000e+00 +0.0000000000e+00 +6.8271054998e+02 6.8271054998e+02 0.0000000000e+00 0.0000e+00 -1.0000e+00
       -2 -1    0    0    0  501 -0.0000000000e+00 -0.0000000000e+00 -8.7780434172e+01 8.7780434172e+01 0.0000000000e+00 0.0000e+00 1.0000e+00
      -13  1    1    2    0    0 -5.4964389284e+01 +2.3829704192e+02 +2.8007846135e+02 3.7182053304e+02 0.0000000000e+00 0.0000e+00 1.0000e+00
       13  1    1    2    0    0 +5.4964389284e+01 -2.3829704192e+02 +3.1485165445e+02 3.9867045111e+02 0.0000000000e+00 0.0000e+00 -1.0000e+00
<mgrwt>
<rscale>  0 0.48960649E+03</rscale>
<asrwt>0</asrwt>
<pdfrwt beam="1">  1        2 0.10503239E+00 0.48960649E+03</pdfrwt>
<pdfrwt beam="2">  1       -2 0.13504683E-01 0.48960649E+03</pdfrwt>
<totfact> 0.19364742E+03</totfact>
</mgrwt>
<rwgt>
<wgt id='morphing_basis_vector_1'> +2.7891580e-04 </wgt>
<wgt id='morphing_basis_vector_2'> +1.7182945e-04 </wgt>
<wgt id='morphing_basis_vector_3'> +1.8976900e-04 </wgt>
<wgt id='morphing_basis_vector_4'> +6.0361134e-05 </wgt>
<wgt id='morphing_basis_vector_5'> +8.7024381e-05 </wgt>
</rwgt>
</event>
<event>
 4      1 +1.9425900e-05 5.13903000e+02 7.81860800e-03 9.36918200e-02
        2 -1    0    0  501    0 +0.0000000000e+00 +0.0000000000e+00 +4.3087566419e+02 4.3087566419e+02 0.0000000000e+00 0.0000e+00 -1.0000e+00
       -2 -1    0    0    0  501 -0.0000000000e+00 -0.0000000000e+00 -1.5323233963e+02 1.5323233963e+02 0.0000000000e+00 0.0000e+00 1.0000e+00
      -13  1    1    2    0    0 +2.4448120183e+02 +3.0705661490e+01 +5.5995600967e+01 2.5268439411e+02 0.0000000000e+00 0.0000e+00 1.0000e+00
       13  1    1    2    0    0 -2.4448120183e+02 -3.0705661490e+01 +2.2164772360e+02 3.3142360971e+02 0.0000000000e+00 0.0000e+00 -1.0000e+00
<mgrwt>
<rscale>  0 0.51390305E+03</rscale>
<asrwt>0</asrwt>
<pdfrwt beam="1">  1        2 0.66288563E-01 0.51390305E+03</pdfrwt>
<pdfrwt beam="2">  1       -2 0.23574206E-01 0.51390305E+03</pdfrwt>
<totfact> 0.13207970E+03</totfact>
</mgrwt>
<rwgt>
<wgt id='morphing_basis_vector_1'> +3.1742443e-04 </wgt>
<wgt id='morphing_basis_vector_2'> +1.8379088e-04 </wgt>
<wgt id='morphing_basis_vector_3'> +2.2839099e-04 </wgt>
<wgt id='morphing_basis_vector_4'> +7.9399609e-05 </wgt>
<wgt id='morphing_basis_vector_5'> +1.1514460e-04 </wgt>
</rwgt>
</event>
<event>
 4      1 +1.9425900e-05 4.48869900e+02 7.81860800e-03 9.52217000e-02
        2 -1    0    0  501    0 +0.0000000000e+00 +0.0000000000e+00 +9.4512747639e+02 9.4512747639e+02 0.0000000000e+00 0.0000e+00 -1.0000e+00
       -2 -1    0    0    0  501 -0.0000000000e+00 -0.0000000000e+00 -5.3295502952e+01 5.3295502952e+01 0.0000000000e+00 0.0000e+00 1.0000e+00
      -13  1    1    2    0    0 -3.9268884840e+00 +2.2321693483e+02 +4.9711479019e+02 5.4494434126e+02 0.0000000000e+00 0.0000e+00 1.0000e+00
       13  1    1    2    0    0 +3.9268884840e+00 -2.2321693483e+02 +3.9471718325e+02 4.5347863808e+02 0.0000000000e+00 0.0000e+00 -1.0000e+00
<mgrwt>
<rscale>  0 0.44886989E+03</rscale>
<asrwt>0</asrwt>
<pdfrwt beam="1">  1        2 0.14540421E+00 0.44886989E+03</pdfrwt>
<pdfrwt beam="2">  1       -2 0.81993088E-02 0.44886989E+03</pdfrwt>
<totfact> 0.27990899E+03</totfact>
</mgrwt>
<rwgt>
<wgt id='morphing_basis_vector_1'> +2.2061964e-04 </wgt>
<wgt id='morphing_basis_vector_2'> +1.4429889e-04 </wgt>
<wgt id='morphing_basis_vector_3'> +1.3664189e-04 </wgt>
<wgt id='morphing_basis_vector_4'> +3.8280388e-05 </wgt>
<wgt id='morphing_basis_vector_5'> +5.0872426e-05 </wgt>
</rwgt>
</event>
<event>
 4      1 +1.9425900e-05 5.10266200e+02 7.81860800e-03 9.37708400e-02
        2 -1    0    0  501    0 +0.0000000000e+00 +0.0000000000e+00 +2.5644011091e+03 2.5644011091e+03 0.0000000000e+00 0.0000e+00 -1.0000e+00
       -2 -1    0    0    0  501 -0.0000000000e+00 -0.0000000000e+00 -2.5383272896e+01 2.5383272896e+01 0.0000000000e+00 0.0000e+00 1.0000e+00
      -13  1    1    2    0    0 -1.2537191971e+02 -2.1931739823e+02 +1.0883069381e+03 1.1172422436e+03 0.0000000000e+00 0.0000e+00 1.0000e+00
       13  1    1    2    0    0 +1.2537191971e+02 +2.1931739823e+02 +1.4507108981e+03 1.4725421384e+03 0.0000000000e+00 0.0000e+00 -1.0000e+00
<mgrwt>
<rscale>  0 0.51026618E+03</rscale>
<asrwt>0</asrwt>
<pdfrwt beam="1">  1        2 0.39452304E+00 0.51026618E+03</pdfrwt>
<pdfrwt beam="2">  1       -2 0.39051209E-02 0.51026618E+03</pdfrwt>
<totfact> 0.10723519E+03</totfact>
</mgrwt>
<rwgt>
<wgt id='morphing_basis_vector_1'> +3.1328561e-04 </wgt>
<wgt id='morphing_basis_vector_2'> +1.8786897e-04 </wgt>
<wgt id='morphing_basis_vector_3'> +2.2162733e-04 </wgt>
<wgt id='morphing_basis_vector_4'> +7.5411836e-05 </wgt>
<wgt id='morphing_basis_vector_5'> +1.1065704e-04 </wgt>
</rwgt>
</event>
<event>
 4      1 +1.9425900e-05 5.03786400e+02 7.81860800e-03 9.39133800e-02
        2 -1    0    0  501    0 +0.0000000000e+00 +0.0000000000e+00 +4.3500985540e+02 4.3500985540e+02 0.0000000000e+00 0.0000e+00 1.0000e+00
       -2 -1    0    0    0  501 -0.0000000000e+00 -0.0000000000e+00 -1.4585921459e+02 1.4585921459e+02 0.0000000000e+00 0.0000e+00 -1.0000e+00
      -13  1    1    2    0    0 -2.4789093748e+02 +2.6314841883e+01 +1.0287841951e+02 2.6967824716e+02 0.0000000000e+00 0.0000e+00 -1.0000e+00
       13  1    1    2    0    0 +2.4789093748e+02 -2.6314841883e+01 +1.8627222130e+02 3.1119082284e+02 0.0000000000e+00 0.0000e+00 1.0000e+00
<mgrwt>
<rscale>  0 0.50378645E+03</rscale>
<asrwt>0</asrwt>
<pdfrwt beam="1">  1        2 0.66924593E-01 0.50378645E+03</pdfrwt>
<pdfrwt beam="2">  1       -2 0.22439879E-01 0.50378645E+03</pdfrwt>
<totfact> 0.14195602E+03</totfact>
</mgrwt>
<rwgt>
<wgt id='morphing_basis_vector_1'> +3.0130180e-04 </wgt>
<wgt id='morphing_basis_vector_2'> +1.8009161e-04 </wgt>
<wgt id='morphing_basis_vector_3'> +2.1158401e-04 </wgt>
<wgt id='morphing_basis_vector_4'> +7.0731455e-05 </wgt>
<wgt id='morphing_basis_vector_5'> +1.0279485e-04 </wgt>
</rwgt>
</event>
<event>
 4      1 +1.9425900e-05 4.41166800e+02 7.81860800e-03 9.54210000e-02
        2 -1    0    0  501    0 +0.0000000000e+00 +0.0000000000e+00 +4.5976180860e+02 4.5976180860e+02 0.0000000000e+00 0.0000e+00 -1.0000e+00
       -2 -1    0    0    0  501 -0.0000000000e+00 -0.0000000000e+00 -1.0583097582e+02 1.0583097582e+02 0.0000000000e+00 0.0000e+00 1.0000e+00
      -13  1    1    2    0    0 -1.3686099758e+01 +2.1086174293e+02 +9.5810698501e+01 2.3201222792e+02 0.0000000000e+00 0.0000e+00 1.0000e+00
       13  1    1    2    0    0 +1.3686099758e+01 -2.1086174293e+02 +2.5812013428e+02 3.3358055650e+02 0.0000000000e+00 0.0000e+00 -1.0000e+00
<mgrwt>
<rscale>  0 0.44116682E+03</rscale>
<asrwt>0</asrwt>
<pdfrwt beam="1">  1        2 0.70732585E-01 0.44116682E+03</pdfrwt>
<pdfrwt beam="2">  1       -2 0.16281689E-01 0.44116682E+03</pdfrwt>
<totfact> 0.22584689E+03</totfact>
</mgrwt>
<rwgt>
<wgt id='morphing_basis_vector_1'> +2.0286522e-04 </wgt>
<wgt id='morphing_basis_vector_2'> +1.1486603e-04 </wgt>
<wgt id='morphing_basis_vector_3'> +1.3368187e-04 </wgt>
<wgt id='morphing_basis_vector_4'> +3.6200720e-05 </wgt>
<wgt id='morphing_basis_vector_5'> +4.4962119e-05 </wgt>
</rwgt>
</event>
<event>
 4      1 +1.9425900e-05 4.80445600e+02 7.81860800e-03 9.44465900e-02
        2 -1    0    0  501    0 +0.0000000000e+00 +0.0000000000e+00 +1.1252787135e+02 1.1252787135e+02 0.0000000000e+00 0.0000e+00 -1.0000e+00
       -2 -1    0    0    0  501 -0.0000000000e+00 -0.0000000000e+00 -5.1282391306e+02 5.1282391306e+02 0.0000000000e+00 0.0000e+00 1.0000e+00
      -13  1    1    2    0    0 +1.2905058458e+02 -1.9353476904e+02 -1.2208166639e+02 2.6270457453e+02 0.0000000000e+00 0.0000e+00 1.0000e+00
       13  1    1    2    0    0 -1.2905058458e+02 +1.9353476904e+02 -2.7821437531e+02 3.6264720989e+02 0.0000000000e+00 0.0000e+00 -1.0000e+00
<mgrwt>
<rscale>  0 0.48044556E+03</rscale>
<asrwt>0</asrwt>
<pdfrwt beam="1">  1        2 0.17311981E-01 0.48044556E+03</pdfrwt>
<pdfrwt beam="2">  1       -2 0.78895985E-01 0.48044556E+03</pdfrwt>
<totfact> 0.61980653E+02</totfact>
</mgrwt>
<rwgt>
<wgt id='morphing_basis_vector_1'> +2.7665453e-04 </wgt>
<wgt id='morphing_basis_vector_2'> +2.0209930e-04 </wgt>
<wgt id='morphing_basis_vector_3'> +1.7067008e-04 </wgt>
<wgt id='morphing_basis_vector_4'> +5.0803036e-05 </wgt>
<wgt id='morphing_basis_vector_5'> +7.8298726e-05 </wgt>
</rwgt>
</event>
<event>
 4      1 +1.9425900e-05 4.65048500e+02 7.81860800e-03 9.48164600e-02
        2 -1    0    0  501    0 +0.0000000000e+00 +0.0000000000e+00 +1.5311764622e+03 1.5311764622e+03 0.0000000000e+00 0.0000e+00 -1.0000e+00
       -2 -1    0    0    0  501 -0.0000000000e+00 -0.0000000000e+00 -3.5311095897e+01 3.5311095897e+01 0.0000000000e+00 0.0000e+00 1.0000e+00
      -13  1    1    2    0    0 +2.2603086047e+02 -4.4233871558e+01 +6.4030413414e+02 6.8046746394e+02 0.0000000000e+00 0.0000e+00 1.0000e+00
       13  1    1    2    0    0 -2.2603086047e+02 +4.4233871558e+01 +8.5556123217e+02 8.8602009417e+02 0.0000000000e+00 0.0000e+00 -1.0000e+00
<mgrwt>
<rscale>  0 0.46504847E+03</rscale>
<asrwt>0</asrwt>
<pdfrwt beam="1">  1        2 0.23556556E+00 0.46504847E+03</pdfrwt>
<pdfrwt beam="2">  1       -2 0.54324775E-02 0.46504847E+03</pdfrwt>
<totfact> 0.24335778E+03</totfact>
</mgrwt>
<rwgt>
<wgt id='morphing_basis_vector_1'> +2.3785685e-04 </wgt>
<wgt id='morphing_basis_vector_2'> +1.4071178e-04 </wgt>
<wgt id='morphing_basis_vector_3'> +1.5893023e-04 </wgt>
<wgt id='morphing_basis_vector_4'> +4.7047048e-05 </wgt>
<wgt id='morphing_basis_vector_5'> +6.3457994e-05 </wgt>
</rwgt>
</event>
<event>
 4      1 +1.9425900e-05 4.43169600e+02 7.81860800e-03 9.53687700e-02
        2 -1    0    0  501    0 +0.0000000000e+00 +0.0000000000e+00 +1.1023949741e+03 1.1023949741e+03 0.0000000000e+00 0.0000e+00 1.0000e+00
       -2 -1    0    0    0  501 -0.0000000000e+00 -0.0000000000e+00 -4.4539238533e+01 4.4539238533e+01 0.0000000000e+00 0.0000e+00 -1.0000e+00
      -13  1    1    2    0    0 +4.6172778094e+01 -1.8778654146e+02 +2.4894082849e+02 3.1522570752e+02 0.0000000000e+00 0.0000e+00 -1.0000e+00
       13  1    1    2    0    0 -4.6172778094e+01 +1.8778654146e+02 +8.0891490710e+02 8.3170850514e+02 0.0000000000e+00 0.0000e+00 1.0000e+00
<mgrwt>
<rscale>  0 0.44316964E+03</rscale>
<asrwt>0</asrwt>
<pdfrwt beam="1">  1        2 0.16959921E+00 0.44316964E+03</pdfrwt>
<pdfrwt beam="2">  1       -2 0.68521914E-02 0.44316964E+03</pdfrwt>
<totfact> 0.29641513E+03</totfact>
</mgrwt>
<rwgt>
<wgt id='morphing_basis_vector_1'> +2.0416634e-04 </wgt>
<wgt id='morphing_basis_vector_2'> +1.1237623e-04 </wgt>
<wgt id='morphing_basis_vector_3'> +1.3666222e-04 </wgt>
<wgt id='morphing_basis_vector_4'> +3.7248084e-05 </wgt>
<wgt id='morphing_basis_vector_5'> +4.6274307e-05 </wgt>
</rwgt>
</event>
<event>
 4      1 +1.9425900e-05 4.49047300e+02 7.81860800e-03 9.52171600e-02
        2 -1    0    0  501    0 +0.0000000000e+00 +0.0000000000e+00 +3.2351921081e+02 3.2351921081e+02 0.0000000000e+00 0.0000e+00 -1.0000e+00
       -2 -1    0    0    0  501 -0.0000000000e+00 -0.0000000000e+00 -1.5582036061e+02 1.5582036061e+02 0.0000000000e+00 0.0000e+00 1.0000e+00
      -13  1    1    2    0    0 +5.9181363924e+01 -1.9085205036e+02 -2.5448881804e+01 2.0143133954e+02 0.0000000000e+00 0.0000e+00 1.0000e+00
       13  1    1    2    0    0 -5.9181363924e+01 +1.9085205036e+02 +1.9314773201e+02 2.7790823187e+02 0.0000000000e+00 0.0000e+00 -1.0000e+00
<mgrwt>
<rscale>  0 0.44904735E+03</rscale>
<asrwt>0</asrwt>
<pdfrwt beam="1">  1        2 0.49772186E-01 0.44904735E+03</pdfrwt>
<pdfrwt beam="2">  1       -2 0.23972363E-01 0.44904735E+03</pdfrwt>
<totfact> 0.17661766E+03</totfact>
</mgrwt>
<rwgt>
<wgt id='morphing_basis_vector_1'> +2.1207138e-04 </wgt>
<wgt id='morphing_basis_vector_2'> +1.1728285e-04 </wgt>
<wgt id='morphing_basis_vector_3'> +1.4276481e-04 </wgt>
<wgt id='morphing_basis_vector_4'> +3.9879994e-05 </wgt>
<wgt id='morphing_basis_vector_5'> +5.0511988e-05 </wgt>
</rwgt>
</event>
<event>
 4      1 +1.9425900e-05 4.64097800e+02 7.81860800e-03 9.48397900e-02
        2 -1    0    0  501    0 +0.0000000000e+00 +0.0000000000e+00 +2.6601860886e+02 2.6601860886e+02 0.0000000000e+00 0.0000e+00 -1.0000e+00
       -2 -1    0    0    0  501 -0.0000000000e+00 -0.0000000000e+00 -2.0241703309e+02 2.0241703309e+02 0.0000000000e+00 0.0000e+00 1.0000e+00
      -13  1    1    2    0    0 +1.1784483948e+02 -1.8676188379e+02 -4.0134487382e+01 2.2445085098e+02 0.0000000000e+00 0.0000e+00 1.0000e+00
       13  1    1    2    0    0 -1.1784483948e+02 +1.8676188379e+02 +1.0373606315e+02 2.4398479097e+02 0.0000000000e+00 0.0000e+00 -1.0000e+00
<mgrwt>
<rscale>  0 0.46409782E+03</rscale>
<asrwt>0</asrwt>
<pdfrwt beam="1">  1        2 0.40925940E-01 0.46409782E+03</pdfrwt>
<pdfrwt beam="2">  1       -2 0.31141082E-01 0.46409782E+03</pdfrwt>
<totfact> 0.14005296E+03</totfact>
</mgrwt>
<rwgt>
<wgt id='morphing_basis_vector_1'> +2.3420677e-04 </wgt>
<wgt id='morphing_basis_vector_2'> +1.3289208e-04 </wgt>
<wgt id='morphing_basis_vector_3'> +1.5912754e-04 </wgt>
<wgt id='morphing_basis_vector_4'> +4.7103197e-05 </wgt>
<wgt id='morphing_basis_vector_5'> +6.2529796e-05 </wgt>
</rwgt>
</event>
<event>
 4      1 +1.9425900e-05 4.93469300e+02 7.81860800e-03 9.41451600e-02
        2 -1    0    0  501    0 +0.0000000000e+00 +0.0000000000e+00 +7.3379204216e+02 7.3379204216e+02 0.0000000000e+00 0.0000e+00 1.0000e+00
       -2 -1    0    0    0  501 -0.0000000000e+00 -0.0000000000e+00 -8.2963558964e+01 8.2963558964e+01 0.0000000000e+00 0.0000e+00 -1.0000e+00
      -13  1    1    2    0    0 -1.1386993241e+02 +5.9639323066e+01 -2.3165544211e+01 1.3061337145e+02 0.0000000000e+00 0.0000e+00 -1.0000e+00
       13  1    1    2    0    0 +1.1386993241e+02 -5.9639323066e+01 +6.7399402741e+02 6.8614222968e+02 0.0000000000e+00 0.0000e+00 1.0000e+00
<mgrwt>
<rscale>  0 0.49346935E+03</rscale>
<asrwt>0</asrwt>
<pdfrwt beam="1">  1        2 0.11289108E+00 0.49346935E+03</pdfrwt>
<pdfrwt beam="2">  1       -2 0.12763625E-01 0.49346935E+03</pdfrwt>
<totfact> 0.19412704E+03</totfact>
</mgrwt>
<rwgt>
<wgt id='morphing_basis_vector_1'> +2.7784800e-04 </wgt>
<wgt id='morphing_basis_vector_2'> +1.5226254e-04 </wgt>
<wgt id='morphing_basis_vector_3'> +1.9867784e-04 </wgt>
<wgt id='morphing_basis_vector_4'> +6.5655289e-05 </wgt>
<wgt id='morphing_basis_vector_5'> +9.0846117e-05 </wgt>
</rwgt>
</event>
<event>
 4      1 +1.9425900e-05 4.56099200e+02 7.81860800e-03 9.50384400e-02
        2 -1    0    0  501    0 +0.0000000000e+00 +0.0000000000e+00 +1.1318066378e+03 1.1318066378e+03 0.0000000000e+00 0.0000e+00 -1.0000e+00
       -2 -1    0    0    0  501 -0.0000000000e+00 -0.0000000000e+00 -4.5950084499e+01 4.5950084499e+01 0.0000000000e+00 0.0000e+00 1.0000e+00
      -13  1    1    2    0    0 -1.1340977948e+02 +1.9582518259e+02 +4.7001351011e+02 5.2165312220e+02 0.0000000000e+00 0.0000e+00 1.0000e+00
       13  1    1    2    0    0 +1.1340977948e+02 -1.9582518259e+02 +6.1584304324e+02 6.5610360015e+02 0.0000000000e+00 0.0000e+00 -1.0000e+00
<mgrwt>
<rscale>  0 0.45609916E+03</rscale>
<asrwt>0</asrwt>
<pdfrwt beam="1">  1        2 0.17412408E+00 0.45609916E+03</pdfrwt>
<pdfrwt beam="2">  1       -2 0.70692446E-02 0.45609916E+03</pdfrwt>
<totfact> 0.27173047E+03</totfact>
</mgrwt>
<rwgt>
<wgt id='morphing_basis_vector_1'> +2.2512764e-04 </wgt>
<wgt id='morphing_basis_vector_2'> +1.3341348e-04 </wgt>
<wgt id='morphing_basis_vector_3'> +1.4835976e-04 </wgt>
<wgt id='morphing_basis_vector_4'> +4.2558430e-05 </wgt>
<wgt id='morphing_basis_vector_5'> +5.6093436e-05 </wgt>
</rwgt>
</event>
<event>
 4      1 +1.9425900e-05 4.38890700e+02 7.81860800e-03 9.54807200e-02
        2 -1    0    0  501    0 +0.0000000000e+00 +0.0000000000e+00 +1.6403356705e+02 1.6403356705e+02 0.0000000000e+00 0.0000e+00 -1.0000e+00
       -2 -1    0    0    0  501 -0.0000000000e+00 -0.0000000000e+00 -2.9357559843e+02 2.9357559843e+02 0.0000000000e+00 0.0000e+00 1.0000e+00
      -13  1    1    2    0    0 +1.1498496972e+02 -2.3735869747e+01 -2.5807306963e+02 2.8352538518e+02 0.0000000000e+00 0.0000e+00 1.0000e+00
       13  1    1    2    0    0 -1.1498496972e+02 +2.3735869747e+01 +1.2853103825e+02 1.7408378031e+02 0.0000000000e+00 0.0000e+00 -1.0000e+00
<mgrwt>
<rscale>  0 0.43889066E+03</rscale>
<asrwt>0</asrwt>
<pdfrwt beam="1">  1        2 0.25235934E-01 0.43889066E+03</pdfrwt>
<pdfrwt beam="2">  1       -2 0.45165476E-01 0.43889066E+03</pdfrwt>
<totfact> 0.12348352E+03</totfact>
</mgrwt>
<rwgt>
<wgt id='morphing_basis_vector_1'> +1.9791190e-04 </wgt>
<wgt id='morphing_basis_vector_2'> +1.0688819e-04 </wgt>
<wgt id='morphing_basis_vector_3'> +1.3285272e-04 </wgt>
<wgt id='morphing_basis_vector_4'> +3.5501624e-05 </wgt>
<wgt id='morphing_basis_vector_5'> +4.3300191e-05 </wgt>
</rwgt>
</event>
<event>
 4      1 +1.9425900e-05 4.54871700e+02 7.81860800e-03 9.50693000e-02
        2 -1    0    0  501    0 +0.0000000000e+00 +0.0000000000e+00 +1.3673217411e+03 1.3673217411e+03 0.0000000000e+00 0.0000e+00 -1.0000e+00
       -2 -1    0    0    0  501 -0.0000000000e+00 -0.0000000000e+00 -3.7830942305e+01 3.7830942305e+01 0.0000000000e+00 0.0000e+00 1.0000e+00
      -13  1    1    2    0    0 +8.1462526408e+01 +1.9659190939e+02 +4.1679580127e+02 4.6797784349e+02 0.0000000000e+00 0.0000e+00 1.0000e+00
       13  1    1    2    0    0 -8.1462526408e+01 -1.9659190939e+02 +9.1269499752e+02 9.3717483990e+02 0.0000000000e+00 0.0000e+00 -1.0000e+00
<mgrwt>
<rscale>  0 0.45487172E+03</rscale>
<asrwt>0</asrwt>
<pdfrwt beam="1">  1        2 0.21035715E+00 0.45487172E+03</pdfrwt>
<pdfrwt beam="2">  1       -2 0.58201460E-02 0.45487172E+03</pdfrwt>
<totfact> 0.26935469E+03</totfact>
</mgrwt>
<rwgt>
<wgt id='morphing_basis_vector_1'> +2.2067288e-04 </wgt>
<wgt id='morphing_basis_vector_2'> +1.2391919e-04 </wgt>
<wgt id='morphing_basis_vector_3'> +1.4872789e-04 </wgt>
<wgt id='morphing_basis_vector_4'> +4.2524607e-05 </wgt>
<wgt id='morphing_basis_vector_5'> +5.4979946e-05 </wgt>
</rwgt>
</event>
<event>
 4      1 +1.9425900e-05 4.99193500e+02 7.81860800e-03 9.40158200e-02
        2 -1    0    0  501    0 +0.0000000000e+00 +0.0000000000e+00 +8.1957314903e+02 8.1957314903e+02 0.0000000000e+00 0.0000e+00 -1.0000e+00
       -2 -1    0    0    0  501 -0.0000000000e+00 -0.0000000000e+00 -7.6013408433e+01 7.6013408433e+01 0.0000000000e+00 0.0000e+00 1.0000e+00
      -13  1    1    2    0    0 -1.5275094485e+02 -1.2224021979e+02 +9.3710942391e+01 2.1692686143e+02 0.0000000000e+00 0.0000e+00 1.0000e+00
       13  1    1    2    0    0 +1.5275094485e+02 +1.2224021979e+02 +6.4984879821e+02 6.7865969603e+02 0.0000000000e+00 0.0000e+00 -1.0000e+00
<mgrwt>
<rscale>  0 0.49919354E+03</rscale>
<asrwt>0</asrwt>
<pdfrwt beam="1">  1        2 0.12608817E+00 0.49919354E+03</pdfrwt>
<pdfrwt beam="2">  1       -2 0.11694371E-01 0.49919354E+03</pdfrwt>
<totfact> 0.19420299E+03</totfact>
</mgrwt>
<rwgt>
<wgt id='morphing_basis_vector_1'> +2.8811763e-04 </wgt>
<wgt id='morphing_basis_vector_2'> +1.5946631e-04 </wgt>
<wgt id='morphing_basis_vector_3'> +2.0674924e-04 </wgt>
<wgt id='morphing_basis_vector_4'> +6.9499971e-05 </wgt>
<wgt id='morphing_basis_vector_5'> +9.7256138e-05 </wgt>
</rwgt>
</event>
<event>
 4      1 +1.9425900e-05 5.01323000e+02 7.81860800e-03 9.39681800e-02
        2 -1    0    0  501    0 +0.0000000000e+00 +0.0000000000e+00 +3.1165107205e+02 3.1165107205e+02 0.0000000000e+00 0.0000e+00 -1.0000e+00
       -2 -1    0    0    0  501 -0.0000000000e+00 -0.0000000000e+00 -2.0160750981e+02 2.0160750981e+02 0.0000000000e+00 0.0000e+00 1.0000e+00
      -13  1    1    2    0    0 -1.3968082848e+02 -7.8165161422e+01 -1.4247149090e+02 2.1428637853e+02 0.0000000000e+00 0.0000e+00 1.0000e+00
       13  1    1    2    0    0 +1.3968082848e+02 +7.8165161422e+01 +2.5251505313e+02 2.9897220333e+02 0.0000000000e+00 0.0000e+00 -1.0000e+00
<mgrwt>
<rscale>  0 0.50132304E+03</rscale>
<asrwt>0</asrwt>
<pdfrwt beam="1">  1        2 0.47946319E-01 0.50132304E+03</pdfrwt>
<pdfrwt beam="2">  1       -2 0.31016540E-01 0.50132304E+03</pdfrwt>
<totfact> 0.11823336E+03</totfact>
</mgrwt>
<rwgt>
<wgt id='morphing_basis_vector_1'> +2.9143327e-04 </wgt>
<wgt id='morphing_basis_vector_2'> +1.6040122e-04 </wgt>
<wgt id='morphing_basis_vector_3'> +2.1006605e-04 </wgt>
<wgt id='morphing_basis_vector_4'> +7.1204948e-05 </wgt>
<wgt id='morphing_basis_vector_5'> +9.9692095e-05 </wgt>
</rwgt>
</event>
<event>
 4      1 +1.9425900e-05 5.13031100e+02 7.81860800e-03 9.37107000e-02
        2 -1    0    0  501    0 +0.0000000000e+00 +0.0000000000e+00 +2.5406937570e+02 2.5406937570e+02 0.0000000000e+00 0.0000e+00 -1.0000e+00
       -2 -1    0    0    0  501 -0.0000000000e+00 -0.0000000000e+00 -2.5898530193e+02 2.5898530193e+02 0.0000000000e+00 0.0000e+00 1.0000e+00
      -13  1    1    2    0    0 -2.0427821373e+01 +2.3682020001e+02 -9.8894391796e+01 2.5745136191e+02 0.0000000000e+00 0.0000e+00 1.0000e+00
       13  1    1    2    0    0 +2.0427821373e+01 -2.3682020001e+02 +9.3978465558e+01 2.5560331572e+02 0.0000000000e+00 0.0000e+00 -1.0000e+00
<mgrwt>
<rscale>  0 0.51303113E+03</rscale>
<asrwt>0</asrwt>
<pdfrwt beam="1">  1        2 0.39087596E-01 0.51303113E+03</pdfrwt>
<pdfrwt beam="2">  1       -2 0.39843892E-01 0.51303113E+03</pdfrwt>
<totfact> 0.94688006E+02</totfact>
</mgrwt>
<rwgt>
<wgt id='morphing_basis_vector_1'> +3.1463918e-04 </wgt>
<wgt id='morphing_basis_vector_2'> +1.7922746e-04 </wgt>
<wgt id='morphing_basis_vector_3'> +2.2739020e-04 </wgt>
<wgt id='morphing_basis_vector_4'> +7.9237769e-05 </wgt>
<wgt id='morphing_basis_vector_5'> +1.1399302e-04 </wgt>
</rwgt>
</event>
<event>
 4      1 +1.9425900e-05 4.65059800e+02 7.81860800e-03 9.48161900e-02
        2 -1    0    0  501    0 +0.0000000000e+00 +0.0000000000e+00 +4.9611627591e+02 4.9611627591e+02 0.0000000000e+00 0.0000e+00 1.0000e+00
       -2 -1    0    0    0  501 -0.0000000000e+00 -0.0000000000e+00 -1.0898687294e+02 1.0898687294e+02 0.0000000000e+00 0.0000e+00 -1.0000e+00
      -13  1    1    2    0    0 +7.1416646003e+01 +1.0367141156e+02 -6.0812182836e+01 1.3980779836e+02 0.0000000000e+00 0.0000e+00 -1.0000e+00
       13  1    1    2    0    0 -7.1416646003e+01 -1.0367141156e+02 +4.4794158580e+02 4.6529535050e+02 0.0000000000e+00 0.0000e+00 1.0000e+00
<mgrwt>
<rscale>  0 0.46505983E+03</rscale>
<asrwt>0</asrwt>
<pdfrwt beam="1">  1        2 0.76325580E-01 0.46505983E+03</pdfrwt>
<pdfrwt beam="2">  1       -2 0.16767211E-01 0.46505983E+03</pdfrwt>
<totfact> 0.19786065E+03</totfact>
</mgrwt>
<rwgt>
<wgt id='morphing_basis_vector_1'> +2.3339563e-04 </wgt>
<wgt id='morphing_basis_vector_2'> +1.2685503e-04 </wgt>
<wgt id='morphing_basis_vector_3'> +1.6158255e-04 </wgt>
<wgt id='morphing_basis_vector_4'> +4.8159763e-05 </wgt>
<wgt id='morphing_basis_vector_5'> +6.3237584e-05 </wgt>
</rwgt>
</event>
<event>
 4      1 +1.9425900e-05 4.59552800e+02 7.81860800e-03 9.49521500e-02
        2 -1    0    0  501    0 +0.0000000000e+00 +0.0000000000e+00 +4.1537288281e+02 4.1537288281e+02 0.0000000000e+00 0.0000e+00 1.0000e+00
       -2 -1    0    0    0  501 -0.0000000000e+00 -0.0000000000e+00 -1.2710795422e+02 1.2710795422e+02 0.0000000000e+00 0.0000e+00 -1.0000e+00
      -13  1    1    2    0    0 -7.7456910206e+01 -1.8530434601e+02 +1.2365462577e+01 2.0122171417e+02 0.0000000000e+00 0.0000e+00 -1.0000e+00
       13  1    1    2    0    0 +7.7456910206e+01 +1.8530434601e+02 +2.7589946601e+02 3.4125912286e+02 0.0000000000e+00 0.0000e+00 1.0000e+00
<mgrwt>
<rscale>  0 0.45955281E+03</rscale>
<asrwt>0</asrwt>
<pdfrwt beam="1">  1        2 0.63903520E-01 0.45955281E+03</pdfrwt>
<pdfrwt beam="2">  1       -2 0.19555070E-01 0.45955281E+03</pdfrwt>
<totfact> 0.18772708E+03</totfact>
</mgrwt>
<rwgt>
<wgt id='morphing_basis_vector_1'> +2.2640337e-04 </wgt>
<wgt id='morphing_basis_vector_2'> +1.2515087e-04 </wgt>
<wgt id='morphing_basis_vector_3'> +1.5457277e-04 </wgt>
<wgt id='morphing_basis_vector_4'> +4.5037822e-05 </wgt>
<wgt id='morphing_basis_vector_5'> +5.8675629e-05 </wgt>
</rwgt>
</event>
<event>
 4      1 +1.9425900e-05 4.49346500e+02 7.81860800e-03 9.52095000e-02
        2 -1    0    0  501    0 +0.0000000000e+00 +0.0000000000e+00 +5.8568422222e+02 5.8568422222e+02 0.0000000000e+00 0.0000e+00 1.0000e+00
       -2 -1    0    0    0  501 -0.0000000000e+00 -0.0000000000e+00 -8.6186510574e+01 8.6186510574e+01 0.0000000000e+00 0.0000e+00 -1.0000e+00
      -13  1    1    2    0    0 +5.7138915799e+01 -1.6785987632e+02 +4.3450663401e+01 1.8256438296e+02 0.0000000000e+00 0.0000e+00 -1.0000e+00
       13  1    1    2    0    0 -5.7138915799e+01 +1.6785987632e+02 +4.5604704825e+02 4.8930634984e+02 0.0000000000e+00 0.0000e+00 1.0000e+00
<mgrwt>
<rscale>  0 0.44934655E+03</rscale>
<asrwt>0</asrwt>
<pdfrwt beam="1">  1        2 0.90105262E-01 0.44934655E+03</pdfrwt>
<pdfrwt beam="2">  1       -2 0.13259464E-01 0.44934655E+03</pdfrwt>
<totfact> 0.23851956E+03</totfact>
</mgrwt>
<rwgt>
<wgt id='morphing_basis_vector_1'> +2.1186638e-04 </wgt>
<wgt id='morphing_basis_vector_2'> +1.1563918e-04 </wgt>
<wgt id='morphing_basis_vector_3'> +1.4349521e-04 </wgt>
<wgt id='morphing_basis_vector_4'> +4.0125164e-05 </wgt>
<wgt id='morphing_basis_vector_5'> +5.0699876e-05 </wgt>
</rwgt>
</event>
<event>
 4      1 +1.9425900e-05 4.99253400e+02 7.81860800e-03 9.40144800e-02
        2 -1    0    0  501    0 +0.0000000000e+00 +0.0000000000e+00 +4.8172245879e+02 4.8172245879e+02 0.0000000000e+00 0.0000e+00 1.0000e+00
       -2 -1    0    0    0  501 -0.0000000000e+00 -0.0000000000e+00 -1.2935557961e+02 1.2935557961e+02 0.0000000000e+00 0.0000e+00 -1.0000e+00
      -13  1    1    2    0    0 -1.2381646106e+02 -2.1581182856e+02 +1.5145331858e+02 2.9127885108e+02 0.0000000000e+00 0.0000e+00 -1.0000e+00
       13  1    1    2    0    0 +1.2381646106e+02 +2.1581182856e+02 +2.0091356061e+02 3.1979918732e+02 0.0000000000e+00 0.0000e+00 1.0000e+00
<mgrwt>
<rscale>  0 0.49925339E+03</rscale>
<asrwt>0</asrwt>
<pdfrwt beam="1">  1        2 0.74111147E-01 0.49925339E+03</pdfrwt>
<pdfrwt beam="2">  1       -2 0.19900859E-01 0.49925339E+03</pdfrwt>
<totfact> 0.15459587E+03</totfact>
</mgrwt>
<rwgt>
<wgt id='morphing_basis_vector_1'> +2.9469612e-04 </wgt>
<wgt id='morphing_basis_vector_2'> +1.7962589e-04 </wgt>
<wgt id='morphing_basis_vector_3'> +2.0414255e-04 </wgt>
<wgt id='morphing_basis_vector_4'> +6.6974929e-05 </wgt>
<wgt id='morphing_basis_vector_5'> +9.7586345e-05 </wgt>
</rwgt>
</event>
<event>
 4      1 +1.9425900e-05 4.53501400e+02 7.81860800e-03 9.51038800e-02
        2 -1    0    0  501    0 +0.0000000000e+00 +0.0000000000e+00 +1.5504707426e+03 1.5504707426e+03 0.0000000000e+00 0.0000e+00 1.0000e+00
       -2 -1    0    0    0  501 -0.0000000000e+00 -0.0000000000e+00 -3.3161459698e+01 3.3161459698e+01 0.0000000000e+00 0.0000e+00 -1.0000e+00
      -13  1    1    2    0    0 -4.0376166531e+01 +2.0703944831e+02 +4.6815985582e+02 5.1348731102e+02 0.0000000000e+00 0.0000e+00 -1.0000e+00
       13  1    1    2    0    0 +4.0376166531e+01 -2.0703944831e+02 +1.0491494271e+03 1.0701448913e+03 0.0000000000e+00 0.0000e+00 1.0000e+00
<mgrwt>
<rscale>  0 0.45350137E+03</rscale>
<asrwt>0</asrwt>
<pdfrwt beam="1">  1        2 0.23853390E+00 0.45350137E+03</pdfrwt>
<pdfrwt beam="2">  1       -2 0.51017642E-02 0.45350137E+03</pdfrwt>
<totfact> 0.26127647E+03</totfact>
</mgrwt>
<rwgt>
<wgt id='morphing_basis_vector_1'> +2.1867323e-04 </wgt>
<wgt id='morphing_basis_vector_2'> +1.2248669e-04 </wgt>
<wgt id='morphing_basis_vector_3'> +1.4726894e-04 </wgt>
<wgt id='morphing_basis_vector_4'> +4.1883003e-05 </wgt>
<wgt id='morphing_basis_vector_5'> +5.3909519e-05 </wgt>
</rwgt>
</event>
<event>
 4      1 +1.9425900e-05 4.34167200e+02 7.81860800e-03 9.56058600e-02
        2 -1    0    0  501    0 +0.0000000000e+00 +0.0000000000e+00 +5.8742192044e+02 5.8742192044e+02 0.0000000000e+00 0.0000e+00 -1.0000e+00
       -2 -1    0    0    0  501 -0.0000000000e+00 -0.0000000000e+00 -8.0223911813e+01 8.0223911813e+01 0.0000000000e+00 0.0000e+00 1.0000e+00
      -13  1    1    2    0    0 -1.1995849223e+02 -1.0954506073e+02 +3.2165937583e+01 1.6560437111e+02 0.0000000000e+00 0.0000e+00 1.0000e+00
       13  1    1    2    0    0 +1.1995849223e+02 +1.0954506073e+02 +4.7503207104e+02 5.0204146115e+02 0.0000000000e+00 0.0000e+00 -1.0000e+00
<mgrwt>
<rscale>  0 0.43416718E+03</rscale>
<asrwt>0</asrwt>
<pdfrwt beam="1">  1        2 0.90372601E-01 0.43416718E+03</pdfrwt>
<pdfrwt beam="2">  1       -2 0.12342141E-01 0.43416718E+03</pdfrwt>
<totfact> 0.26616956E+03</totfact>
</mgrwt>
<rwgt>
<wgt id='morphing_basis_vector_1'> +1.9225374e-04 </wgt>
<wgt id='morphing_basis_vector_2'> +1.0431578e-04 </wgt>
<wgt id='morphing_basis_vector_3'> +1.2800381e-04 </wgt>
<wgt id='morphing_basis_vector_4'> +3.3512618e-05 </wgt>
<wgt id='morphing_basis_vector_5'> +4.0223250e-05 </wgt>
</rwgt>
</event>
<event>
 4      1 +1.9425900e-05 4.67776200e+02 7.81860800e-03 9.47498400e-02
        2 -1    0    0  501    0 +0.0000000000e+00 +0.0000000000e+00 +1.1528835873e+02 1.1528835873e+02 0.0000000000e+00 0.0000e+00 -1.0000e+00
       -2 -1    0    0    0  501 -0.0000000000e+00 -0.0000000000e+00 -4.7449402442e+02 4.7449402442e+02 0.0000000000e+00 0.0000e+00 1.0000e+00
      -13  1    1    2    0    0 -6.3612874082e+01 -1.3502325314e+02 -4.0664095432e+02 4.3316826104e+02 0.0000000000e+00 0.0000e+00 1.0000e+00
       13  1    1    2    0    0 +6.3612874082e+01 +1.3502325314e+02 +4.7435288632e+01 1.5661412212e+02 0.0000000000e+00 0.0000e+00 -1.0000e+00
<mgrwt>
<rscale>  0 0.46777617E+03</rscale>
<asrwt>0</asrwt>
<pdfrwt beam="1">  1        2 0.17736671E-01 0.46777617E+03</pdfrwt>
<pdfrwt beam="2">  1       -2 0.72999081E-01 0.46777617E+03</pdfrwt>
<totfact> 0.71378574E+02</totfact>
</mgrwt>
<rwgt>
<wgt id='morphing_basis_vector_1'> +2.3744949e-04 </wgt>
<wgt id='morphing_basis_vector_2'> +1.2935868e-04 </wgt>
<wgt id='morphing_basis_vector_3'> +1.6480653e-04 </wgt>
<wgt id='morphing_basis_vector_4'> +4.9634758e-05 </wgt>
<wgt id='morphing_basis_vector_5'> +6.5600312e-05 </wgt>
</rwgt>
</event>
<event>
 4      1 +1.9425900e-05 4.92065400e+02 7.81860800e-03 9.41771700e-02
        2 -1    0    0  501    0 +0.0000000000e+00 +0.0000000000e+00 +6.8872914775e+02 6.8872914775e+02 0.0000000000e+00 0.0000e+00 -1.0000e+00
       -2 -1    0    0    0  501 -0.0000000000e+00 -0.0000000000e+00 -8.7889539549e+01 8.7889539549e+01 0.0000000000e+00 0.0000e+00 1.0000e+00
      -13  1    1    2    0    0 -2.0843711547e+01 +2.1973132591e+02 +1.2885979465e+02 2.5558005121e+02 0.0000000000e+00 0.0000e+00 1.0000e+00
       13  1    1    2    0    0 +2.0843711547e+01 -2.1973132591e+02 +4.7197981354e+02 5.2103863608e+02 0.0000000000e+00 0.0000e+00 -1.0000e+00
<mgrwt>
<rscale>  0 0.49206539E+03</rscale>
<asrwt>0</asrwt>
<pdfrwt beam="1">  1        2 0.10595833E+00 0.49206539E+03</pdfrwt>
<pdfrwt beam="2">  1       -2 0.13521468E-01 0.49206539E+03</pdfrwt>
<totfact> 0.19124657E+03</totfact>
</mgrwt>
<rwgt>
<wgt id='morphing_basis_vector_1'> +2.7690688e-04 </wgt>
<wgt id='morphing_basis_vector_2'> +1.5528636e-04 </wgt>
<wgt id='morphing_basis_vector_3'> +1.9605229e-04 </wgt>
<wgt id='morphing_basis_vector_4'> +6.4174300e-05 </wgt>
<wgt id='morphing_basis_vector_5'> +8.9383551e-05 </wgt>
</rwgt>
</event>
<event>
 4      1 +1.9425900e-05 4.32382000e+02 7.81860800e-03 9.56536000e-02
        2 -1    0    0  501    0 +0.0000000000e+00 +0.0000000000e+00 +3.3812663659e+02 3.3812663659e+02 0.0000000000e+00 0.0000e+00 -1.0000e+00
       -2 -1    0    0    0  501 -0.0000000000e+00 -0.0000000000e+00 -1.3822794558e+02 1.3822794558e+02 0.0000000000e+00 0.0000e+00 1.0000e+00
      -13  1    1    2    0    0 -2.0907270415e+01 +1.3650945264e+02 -8.3299257691e+01 1.6127836478e+02 0.0000000000e+00 0.0000e+00 1.0000e+00
       13  1    1    2    0    0 +2.0907270415e+01 -1.3650945264e+02 +2.8319794870e+02 3.1507621739e+02 0.0000000000e+00 0.0000e+00 -1.0000e+00
<mgrwt>
<rscale>  0 0.43238201E+03</rscale>
<asrwt>0</asrwt>
<pdfrwt beam="1">  1        2 0.52019482E-01 0.43238201E+03</pdfrwt>
<pdfrwt beam="2">  1       -2 0.21265838E-01 0.43238201E+03</pdfrwt>
<totfact> 0.20534943E+03</totfact>
</mgrwt>
<rwgt>
<wgt id='morphing_basis_vector_1'> +1.8990688e-04 </wgt>
<wgt id='morphing_basis_vector_2'> +1.0260402e-04 </wgt>
<wgt id='morphing_basis_vector_3'> +1.2639639e-04 </wgt>
<wgt id='morphing_basis_vector_4'> +3.2811080e-05 </wgt>
<wgt id='morphing_basis_vector_5'> +3.9083820e-05 </wgt>
</rwgt>
</event>
<event>
 4      1 +1.9425900e-05 4.65582400e+02 7.81860800e-03 9.48033900e-02
        2 -1    0    0  501    0 +0.0000000000e+00 +0.0000000000e+00 +1.4930882712e+02 1.4930882712e+02 0.0000000000e+00 0.0000e+00 1.0000e+00
       -2 -1    0    0    0  501 -0.0000000000e+00 -0.0000000000e+00 -3.6295072472e+02 3.6295072472e+02 0.0000000000e+00 0.0000e+00 -1.0000e+00
      -13  1    1    2    0    0 -7.4379841301e+01 +5.9563543328e+01 -3.4050951670e+02 3.5359144143e+02 0.0000000000e+00 0.0000e+00 -1.0000e+00
       13  1    1    2    0    0 +7.4379841301e+01 -5.9563543328e+01 +1.2686761910e+02 1.5866811041e+02 0.0000000000e+00 0.0000e+00 1.0000e+00
<mgrwt>
<rscale>  0 0.46558242E+03</rscale>
<asrwt>0</asrwt>
<pdfrwt beam="1">  1        2 0.22970589E-01 0.46558242E+03</pdfrwt>
<pdfrwt beam="2">  1       -2 0.55838574E-01 0.46558242E+03</pdfrwt>
<totfact> 0.91315111E+02</totfact>
</mgrwt>
<rwgt>
<wgt id='morphing_basis_vector_1'> +2.3411070e-04 </wgt>
<wgt id='morphing_basis_vector_2'> +1.2714674e-04 </wgt>
<wgt id='morphing_basis_vector_3'> +1.6223370e-04 </wgt>
<wgt id='morphing_basis_vector_4'> +4.8455990e-05 </wgt>
<wgt id='morphing_basis_vector_5'> +6.3684639e-05 </wgt>
</rwgt>
</event>
<event>
 4      1 +1.9425900e-05 4.80812700e+02 7.81860800e-03 9.44379500e-02
        2 -1    0    0  501    0 +0.0000000000e+00 +0.0000000000e+00 +1.9889654218e+02 1.9889654218e+02 0.0000000000e+00 0.0000e+00 1.0000e+00
       -2 -1    0    0    0  501 -0.0000000000e+00 -0.0000000000e+00 -2.9057928683e+02 2.9057928683e+02 0.0000000000e+00 0.0000e+00 -1.0000e+00
      -13  1    1    2    0    0 -2.0380697354e+02 -5.8623811108e+01 -1.6111218073e+02 2.6632906051e+02 0.0000000000e+00 0.0000e+00 -1.0000e+00
       13  1    1    2    0    0 +2.0380697354e+02 +5.8623811108e+01 +6.9429436081e+01 2.2314676849e+02 0.0000000000e+00 0.0000e+00 1.0000e+00
<mgrwt>
<rscale>  0 0.48081271E+03</rscale>
<asrwt>0</asrwt>
<pdfrwt beam="1">  1        2 0.30599468E-01 0.48081271E+03</pdfrwt>
<pdfrwt beam="2">  1       -2 0.44704506E-01 0.48081271E+03</pdfrwt>
<totfact> 0.10084128E+03</totfact>
</mgrwt>
<rwgt>
<wgt id='morphing_basis_vector_1'> +2.5835993e-04 </wgt>
<wgt id='morphing_basis_vector_2'> +1.4390694e-04 </wgt>
<wgt id='morphing_basis_vector_3'> +1.8077844e-04 </wgt>
<wgt id='morphing_basis_vector_4'> +5.6989501e-05 </wgt>
<wgt id='morphing_basis_vector_5'> +7.7778715e-05 </wgt>
</rwgt>
</event>
<event>
 4      1 +1.9425900e-05 4.96837600e+02 7.81860800e-03 9.40688200e-02
        2 -1    0    0  501    0 +0.0000000000e+00 +0.0000000000e+00 +2.7992160937e+02 2.7992160937e+02 0.0000000000e+00 0.0000e+00 -1.0000e+00
       -2 -1    0    0    0  501 -0.0000000000e+00 -0.0000000000e+00 -2.2046138112e+02 2.2046138112e+02 0.0000000000e+00 0.0000e+00 1.0000e+00
      -13  1    1    2    0    0 -1.1738050632e+01 -8.0161405489e+01 -2.0678234376e+02 2.2208685340e+02 0.0000000000e+00 0.0000e+00 1.0000e+00
       13  1    1    2    0    0 +1.1738050632e+01 +8.0161405489e+01 +2.6624257201e+02 2.7829613708e+02 0.0000000000e+00 0.0000e+00 -1.0000e+00
<mgrwt>
<rscale>  0 0.49683762E+03</rscale>
<asrwt>0</asrwt>
<pdfrwt beam="1">  1        2 0.43064863E-01 0.49683762E+03</pdfrwt>
<pdfrwt beam="2">  1       -2 0.33917135E-01 0.49683762E+03</pdfrwt>
<totfact> 0.11374923E+03</totfact>
</mgrwt>
<rwgt>
<wgt id='morphing_basis_vector_1'> +2.8350467e-04 </wgt>
<wgt id='morphing_basis_vector_2'> +1.5538642e-04 </wgt>
<wgt id='morphing_basis_vector_3'> +2.0354035e-04 </wgt>
<wgt id='morphing_basis_vector_4'> +6.8034499e-05 </wgt>
<wgt id='morphing_basis_vector_5'> +9.4568417e-05 </wgt>
</rwgt>
</event>
<event>
 4      1 +1.9425900e-05 4.58534200e+02 7.81860800e-03 9.49775200e-02
        2 -1    0    0  501    0 +0.0000000000e+00 +0.0000000000e+00 +1.8854126867e+02 1.8854126867e+02 0.0000000000e+00 0.0000e+00 1.0000e+00
       -2 -1    0    0    0  501 -0.0000000000e+00 -0.0000000000e+00 -2.7878985031e+02 2.7878985031e+02 0.0000000000e+00 0.0000e+00 -1.0000e+00
      -13  1    1    2    0    0 -8.4272406969e+01 -3.6009757485e+01 -2.5931044734e+02 2.7502808822e+02 0.0000000000e+00 0.0000e+00 -1.0000e+00
       13  1    1    2    0    0 +8.4272406969e+01 +3.6009757485e+01 +1.6906186569e+02 1.9230303076e+02 0.0000000000e+00 0.0000e+00 1.0000e+00
<mgrwt>
<rscale>  0 0.45853415E+03</rscale>
<asrwt>0</asrwt>
<pdfrwt beam="1">  1        2 0.29006349E-01 0.45853415E+03</pdfrwt>
<pdfrwt beam="2">  1       -2 0.42890746E-01 0.45853415E+03</pdfrwt>
<totfact> 0.11589157E+03</totfact>
</mgrwt>
<rwgt>
<wgt id='morphing_basis_vector_1'> +2.2403344e-04 </wgt>
<wgt id='morphing_basis_vector_2'> +1.2144247e-04 </wgt>
<wgt id='morphing_basis_vector_3'> +1.5398212e-04 </wgt>
<wgt id='morphing_basis_vector_4'> +4.4720465e-05 </wgt>
<wgt id='morphing_basis_vector_5'> +5.7798343e-05 </wgt>
</rwgt>
</event>
<event>
 4      1 +1.9425900e-05 4.67889000e+02 7.81860800e-03 9.47471000e-02
        2 -1    0    0  501    0 +0.0000000000e+00 +0.0000000000e+00 +7.1869588622e+02 7.1869588622e+02 0.0000000000e+00 0.0000e+00 -1.0000e+00
       -2 -1    0    0    0  501 -0.0000000000e+00 -0.0000000000e+00 -7.6151876872e+01 7.6151876872e+01 0.0000000000e+00 0.0000e+00 1.0000e+00
      -13  1    1    2    0    0 +4.5401010259e+01 -1.9224405714e+02 +1.0833891920e+02 2.2529170125e+02 0.0000000000e+00 0.0000e+00 1.0000e+00
       13  1    1    2    0    0 -4.5401010259e+01 +1.9224405714e+02 +5.3420509016e+02 5.6955606185e+02 0.0000000000e+00 0.0000e+00 -1.0000e+00
<mgrwt>
<rscale>  0 0.46788905E+03</rscale>
<asrwt>0</asrwt>
<pdfrwt beam="1">  1        2 0.11056859E+00 0.46788905E+03</pdfrwt>
<pdfrwt beam="2">  1       -2 0.11715674E-01 0.46788905E+03</pdfrwt>
<totfact> 0.22791136E+03</totfact>
</mgrwt>
<rwgt>
<wgt id='morphing_basis_vector_1'> +2.3824275e-04 </wgt>
<wgt id='morphing_basis_vector_2'> +1.3139508e-04 </wgt>
<wgt id='morphing_basis_vector_3'> +1.6458353e-04 </wgt>
<wgt id='morphing_basis_vector_4'> +4.9534684e-05 </wgt>
<wgt id='morphing_basis_vector_5'> +6.5731246e-05 </wgt>
</rwgt>
</event>
<event>
 4      1 +1.9425900e-05 4.64582800e+02 7.81860800e-03 9.48278900e-02
        2 -1    0    0  501    0 +0.0000000000e+00 +0.0000000000e+00 +8.6189941727e+02 8.6189941727e+02 0.0000000000e+00 0.0000e+00 -1.0000e+00
       -2 -1    0    0    0  501 -0.0000000000e+00 -0.0000000000e+00 -6.2605083473e+01 6.2605083473e+01 0.0000000000e+00 0.0000e+00 1.0000e+00
      -13  1    1    2    0    0 +2.4618185627e+01 -2.2547487154e+02 +2.9986439994e+02 3.7598355165e+02 0.0000000000e+00 0.0000e+00 1.0000e+00
       13  1    1    2    0    0 -2.4618185627e+01 +2.2547487154e+02 +4.9942993386e+02 5.4852094909e+02 0.0000000000e+00 0.0000e+00 -1.0000e+00
<mgrwt>
<rscale>  0 0.46458276E+03</rscale>
<asrwt>0</asrwt>
<pdfrwt beam="1">  1        2 0.13259990E+00 0.46458276E+03</pdfrwt>
<pdfrwt beam="2">  1       -2 0.96315520E-02 0.46458276E+03</pdfrwt>
<totfact> 0.24656818E+03</totfact>
</mgrwt>
<rwgt>
<wgt id='morphing_basis_vector_1'> +2.3596447e-04 </wgt>
<wgt id='morphing_basis_vector_2'> +1.3656013e-04 </wgt>
<wgt id='morphing_basis_vector_3'> +1.5908440e-04 </wgt>
<wgt id='morphing_basis_vector_4'> +4.7101789e-05 </wgt>
<wgt id='morphing_basis_vector_5'> +6.2997250e-05 </wgt>
</rwgt>
</event>
<event>
 4      1 +1.9425900e-05 4.59829000e+02 7.81860800e-03 9.49452800e-02
        2 -1    0    0  501    0 +0.0000000000e+00 +0.0000000000e+00 +2.0224657907e+03 2.0224657907e+03 0.0000000000e+00 0.0000e+00 -1.0000e+00
       -2 -1    0    0    0  501 -0.0000000000e+00 -0.0000000000e+00 -2.6136751094e+01 2.6136751094e+01 0.0000000000e+00 0.0000e+00 1.0000e+00
      -13  1    1    2    0    0 -9.4929555699e-02 +2.2985188709e+02 +1.0220674783e+03 1.0475943056e+03 0.0000000000e+00 0.0000e+00 1.0000e+00
       13  1    1    2    0    0 +9.4929555699e-02 -2.2985188709e+02 +9.7426156132e+02 1.0010082362e+03 0.0000000000e+00 0.0000e+00 -1.0000e+00
<mgrwt>
<rscale>  0 0.45982903E+03</rscale>
<asrwt>0</asrwt>
<pdfrwt beam="1">  1        2 0.31114846E+00 0.45982903E+03</pdfrwt>
<pdfrwt beam="2">  1       -2 0.40210402E-02 0.45982903E+03</pdfrwt>
<totfact> 0.20769206E+03</totfact>
</mgrwt>
<rwgt>
<wgt id='morphing_basis_vector_1'> +2.3381494e-04 </wgt>
<wgt id='morphing_basis_vector_2'> +1.4710238e-04 </wgt>
<wgt id='morphing_basis_vector_3'> +1.5056210e-04 </wgt>
<wgt id='morphing_basis_vector_4'> +4.3611638e-05 </wgt>
<wgt id='morphing_basis_vector_5'> +5.9272939e-05 </wgt>
</rwgt>
</event>
<event>
 4      1 +1.9425900e-05 4.62966800e+02 7.81860800e-03 9.48676300e-02
        2 -1    0    0  501    0 +0.0000000000e+00 +0.0000000000e+00 +8.9836468025e+01 8.9836468025e+01 0.0000000000e+00 0.0000e+00 1.0000e+00
       -2 -1    0    0    0  501 -0.0000000000e+00 -0.0000000000e+00 -5.9646789408e+02 5.9646789408e+02 0.0000000000e+00 0.0000e+00 -1.0000e+00
      -13  1    1    2    0    0 +1.1884708253e+02 -4.0261985872e+01 -5.4167650882e+02 5.5602077006e+02 0.0000000000e+00 0.0000e+00 -1.0000e+00
       13  1    1    2    0    0 -1.1884708253e+02 +4.0261985872e+01 +3.5045082761e+01 1.3028359205e+02 0.0000000000e+00 0.0000e+00 1.0000e+00
<mgrwt>
<rscale>  0 0.46296682E+03</rscale>
<asrwt>0</asrwt>
<pdfrwt beam="1">  1        2 0.13820995E-01 0.46296682E+03</pdfrwt>
<pdfrwt beam="2">  1       -2 0.91764295E-01 0.46296682E+03</pdfrwt>
<totfact> 0.57839910E+02</totfact>
</mgrwt>
<rwgt>
<wgt id='morphing_basis_vector_1'> +2.3037246e-04 </wgt>
<wgt id='morphing_basis_vector_2'> +1.2514220e-04 </wgt>
<wgt id='morphing_basis_vector_3'> +1.5910095e-04 </wgt>
<wgt id='morphing_basis_vector_4'> +4.7031439e-05 </wgt>
<wgt id='morphing_basis_vector_5'> +6.1458773e-05 </wgt>
</rwgt>
</event>
<event>
 4      1 +1.9425900e-05 4.37888000e+02 7.81860800e-03 9.55071400e-02
        2 -1    0    0  501    0 +0.0000000000e+00 +0.0000000000e+00 +1.3252717965e+02 1.3252717965e+02 0.0000000000e+00 0.0000e+00 -1.0000e+00
       -2 -1    0    0    0  501 -0.0000000000e+00 -0.0000000000e+00 -3.6171052131e+02 3.6171052131e+02 0.0000000000e+00 0.0000e+00 1.0000e+00
      -13  1    1    2    0    0 +1.3003441095e+02 +3.5141148416e+00 -3.1336584915e+02 3.3929257647e+02 0.0000000000e+00 0.0000e+00 1.0000e+00
       13  1    1    2    0    0 -1.3003441095e+02 -3.5141148416e+00 +8.4182507497e+01 1.5494512449e+02 0.0000000000e+00 0.0000e+00 -1.0000e+00
<mgrwt>
<rscale>  0 0.43788800E+03</rscale>
<asrwt>0</asrwt>
<pdfrwt beam="1">  1        2 0.20388797E-01 0.43788800E+03</pdfrwt>
<pdfrwt beam="2">  1       -2 0.55647772E-01 0.43788800E+03</pdfrwt>
<totfact> 0.10578673E+03</totfact>
</mgrwt>
<rwgt>
<wgt id='morphing_basis_vector_1'> +1.9668208e-04 </wgt>
<wgt id='morphing_basis_vector_2'> +1.0628492e-04 </wgt>
<wgt id='morphing_basis_vector_3'> +1.3182366e-04 </wgt>
<wgt id='morphing_basis_vector_4'> +3.5072702e-05 </wgt>
<wgt id='morphing_basis_vector_5'> +4.2633680e-05 </wgt>
</rwgt>
</event>
<event>
 4      1 +1.9425900e-05 4.89748900e+02 7.81860800e-03 9.42302300e-02
        2 -1    0    0  501    0 +0.0000000000e+00 +0.0000000000e+00 +3.9597677591e+02 3.9597677591e+02 0.0000000000e+00 0.0000e+00 -1.0000e+00
       -2 -1    0    0    0  501 -0.0000000000e+00 -0.0000000000e+00 -1.5143186979e+02 1.5143186979e+02 0.0000000000e+00 0.0000e+00 1.0000e+00
      -13  1    1    2    0    0 +1.3196259137e+02 +1.9256836144e+02 +3.9629673186e+01 2.3678515651e+02 0.0000000000e+00 0.0000e+00 1.0000e+00
       13  1    1    2    0    0 -1.3196259137e+02 -1.9256836144e+02 +2.0491523293e+02 3.1062348919e+02 0.0000000000e+00 0.0000e+00 -1.0000e+00
<mgrwt>
<rscale>  0 0.48974893E+03</rscale>
<asrwt>0</asrwt>
<pdfrwt beam="1">  1        2 0.60919504E-01 0.48974893E+03</pdfrwt>
<pdfrwt beam="2">  1       -2 0.23297211E-01 0.48974893E+03</pdfrwt>
<totfact> 0.14804829E+03</totfact>
</mgrwt>
<rwgt>
<wgt id='morphing_basis_vector_1'> +2.7433553e-04 </wgt>
<wgt id='morphing_basis_vector_2'> +1.5702412e-04 </wgt>
<wgt id='morphing_basis_vector_3'> +1.9220220e-04 </wgt>
<wgt id='morphing_basis_vector_4'> +6.2167197e-05 </wgt>
<wgt id='morphing_basis_vector_5'> +8.6964686e-05 </wgt>
</rwgt>
</event>
<event>
 4      1 +1.9425900e-05 5.14442100e+02 7.81860800e-03 9.36801700e-02
        2 -1    0    0  501    0 +0.0000000000e+00 +0.0000000000e+00 +1.8230248264e+02 1.8230248264e+02 0.0000000000e+00 0.0000e+00 -1.0000e+00
       -2 -1    0    0    0  501 -0.0000000000e+00 -0.0000000000e+00 -3.6292791055e+02 3.6292791055e+02 0.0000000000e+00 0.0000e+00 1.0000e+00
      -13  1    1    2    0    0 +2.1575370954e+02 +2.5588853936e+01 -2.3624191685e+02 3.2095902527e+02 0.0000000000e+00 0.0000e+00 1.0000e+00
       13  1    1    2    0    0 -2.1575370954e+02 -2.5588853936e+01 +5.5616488936e+01 2.2427136792e+02 0.0000000000e+00 0.0000e+00 -1.0000e+00
<mgrwt>
<rscale>  0 0.51444206E+03</rscale>
<asrwt>0</asrwt>
<pdfrwt beam="1">  1        2 0.28046536E-01 0.51444206E+03</pdfrwt>
<pdfrwt beam="2">  1       -2 0.55835063E-01 0.51444206E+03</pdfrwt>
<totfact> 0.72367532E+02</totfact>
</mgrwt>
<rwgt>
<wgt id='morphing_basis_vector_1'> +3.1600834e-04 </wgt>
<wgt id='morphing_basis_vector_2'> +1.7685813e-04 </wgt>
<wgt id='morphing_basis_vector_3'> +2.3009652e-04 </wgt>
<wgt id='morphing_basis_vector_4'> +8.0940951e-05 </wgt>
<wgt id='morphing_basis_vector_5'> +1.1574915e-04 </wgt>
</rwgt>
</event>
<event>
 4      1 +1.9425900e-05 4.87975300e+02 7.81860800e-03 9.42710800e-02
        2 -1    0    0  501    0 +0.0000000000e+00 +0.0000000000e+00 +9.5996742399e+01 9.5996742399e+01 0.0000000000e+00 0.0000e+00 -1.0000e+00
       -2 -1    0    0    0  501 -0.0000000000e+00 -0.0000000000e+00 -6.2012501151e+02 6.2012501151e+02 0.0000000000e+00 0.0000e+00 1.0000e+00
      -13  1    1    2    0    0 +1.8699976685e+02 +1.4915394580e+02 -3.3266117593e+02 4.0973072904e+02 0.0000000000e+00 0.0000e+00 1.0000e+00
       13  1    1    2    0    0 -1.8699976685e+02 -1.4915394580e+02 -1.9146709317e+02 3.0639102486e+02 0.0000000000e+00 0.0000e+00 -1.0000e+00
<mgrwt>
<rscale>  0 0.48797533E+03</rscale>
<asrwt>0</asrwt>
<pdfrwt beam="1">  1        2 0.14768730E-01 0.48797533E+03</pdfrwt>
<pdfrwt beam="2">  1       -2 0.95403847E-01 0.48797533E+03</pdfrwt>
<totfact> 0.48662585E+02</totfact>
</mgrwt>
<rwgt>
<wgt id='morphing_basis_vector_1'> +2.7285679e-04 </wgt>
<wgt id='morphing_basis_vector_2'> +1.5979919e-04 </wgt>
<wgt id='morphing_basis_vector_3'> +1.8904800e-04 </wgt>
<wgt id='morphing_basis_vector_4'> +6.0507145e-05 </wgt>
<wgt id='morphing_basis_vector_5'> +8.5165568e-05 </wgt>
</rwgt>
</event>
<event>
 4      1 +1.9425900e-05 4.58364400e+02 7.81860800e-03 9.49817500e-02
        2 -1    0    0  501    0 +0.0000000000e+00 +0.0000000000e+00 +2.9318535540e+02 2.9318535540e+02 0.0000000000e+00 0.0000e+00 -1.0000e+00
       -2 -1    0    0    0  501 -0.0000000000e+00 -0.0000000000e+00 -1.7915108086e+02 1.7915108086e+02 0.0000000000e+00 0.0000e+00 1.0000e+00
      -13  1    1    2    0    0 +1.4017038482e+01 -1.1003119987e+02 -1.4964824660e+02 1.8627383075e+02 0.0000000000e+00 0.0000e+00 1.0000e+00
       13  1    1    2    0    0 -1.4017038482e+01 +1.1003119987e+02 +2.6368252115e+02 2.8606260551e+02 0.0000000000e+00 0.0000e+00 -1.0000e+00
<mgrwt>
<rscale>  0 0.45836437E+03</rscale>
<asrwt>0</asrwt>
<pdfrwt beam="1">  1        2 0.45105439E-01 0.45836437E+03</pdfrwt>
<pdfrwt beam="2">  1       -2 0.27561705E-01 0.45836437E+03</pdfrwt>
<totfact> 0.15536918E+03</totfact>
</mgrwt>
<rwgt>
<wgt id='morphing_basis_vector_1'> +2.2381565e-04 </wgt>
<wgt id='morphing_basis_vector_2'> +1.2137096e-04 </wgt>
<wgt id='morphing_basis_vector_3'> +1.5377520e-04 </wgt>
<wgt id='morphing_basis_vector_4'> +4.4628961e-05 </wgt>
<wgt id='morphing_basis_vector_5'> +5.7662232e-05 </wgt>
</rwgt>
</event>
<event>
 4      1 +1.9425900e-05 4.65846600e+02 7.81860800e-03 9.47969200e-02
        2 -1    0    0  501    0 +0.0000000000e+00 +0.0000000000e+00 +1.1942560782e+03 1.1942560782e+03 0.0000000000e+00 0.0000e+00 -1.0000e+00
       -2 -1    0    0    0  501 -0.0000000000e+00 -0.0000000000e+00 -4.5428504267e+01 4.5428504267e+01 0.0000000000e+00 0.0000e+00 1.0000e+00
      -13  1    1    2    0    0 -6.2091392489e+01 -2.1764967033e+02 +4.2801347907e+02 4.8417172396e+02 0.0000000000e+00 0.0000e+00 1.0000e+00
       13  1    1    2    0    0 +6.2091392489e+01 +2.1764967033e+02 +7.2081409486e+02 7.5551285850e+02 0.0000000000e+00 0.0000e+00 -1.0000e+00
<mgrwt>
<rscale>  0 0.46584662E+03</rscale>
<asrwt>0</asrwt>
<pdfrwt beam="1">  1        2 0.18373168E+00 0.46584662E+03</pdfrwt>
<pdfrwt beam="2">  1       -2 0.69890016E-02 0.46584662E+03</pdfrwt>
<totfact> 0.25460431E+03</totfact>
</mgrwt>
<rwgt>
<wgt id='morphing_basis_vector_1'> +2.3756449e-04 </wgt>
<wgt id='morphing_basis_vector_2'> +1.3686886e-04 </wgt>
<wgt id='morphing_basis_vector_3'> +1.6075467e-04 </wgt>
<wgt id='morphing_basis_vector_4'> +4.7831199e-05 </wgt>
<wgt id='morphing_basis_vector_5'> +6.4069625e-05 </wgt>
</rwgt>
</event>
<event>
 4      1 +1.9425900e-05 4.67129400e+02 7.81860800e-03 9.47656000e-02
        2 -1    0    0  501    0 +0.0000000000e+00 +0.0000000000e+00 +4.5694432428e+02 4.5694432428e+02 0.0000000000e+00 0.0000e+00 -1.0000e+00
       -2 -1    0    0    0  501 -0.0000000000e+00 -0.0000000000e+00 -1.1938537199e+02 1.1938537199e+02 0.0000000000e+00 0.0000e+00 1.0000e+00
      -13  1    1    2    0    0 -3.4071326463e+01 +1.0928048126e+02 -8.2405041982e+01 1.4104492126e+02 0.0000000000e+00 0.0000e+00 1.0000e+00
       13  1    1    2    0    0 +3.4071326463e+01 -1.0928048126e+02 +4.1996399427e+02 4.3528477501e+02 0.0000000000e+00 0.0000e+00 -1.0000e+00
<mgrwt>
<rscale>  0 0.46712940E+03</rscale>
<asrwt>0</asrwt>
<pdfrwt beam="1">  1        2 0.70299126E-01 0.46712940E+03</pdfrwt>
<pdfrwt beam="2">  1       -2 0.18366981E-01 0.46712940E+03</pdfrwt>
<totfact> 0.18708919E+03</totfact>
</mgrwt>
<rwgt>
<wgt id='morphing_basis_vector_1'> +2.3639471e-04 </wgt>
<wgt id='morphing_basis_vector_2'> +1.2849789e-04 </wgt>
<wgt id='morphing_basis_vector_3'> +1.6408238e-04 </wgt>
<wgt id='morphing_basis_vector_4'> +4.9302130e-05 </wgt>
<wgt id='morphing_basis_vector_5'> +6.5028291e-05 </wgt>
</rwgt>
</event>
<event>
 4      1 +1.9425900e-05 5.16710000e+02 7.81860800e-03 9.36313200e-02
        2 -1    0    0  501    0 +0.0000000000e+00 +0.0000000000e+00 +7.6401174005e+02 7.6401174005e+02 0.0000000000e+00 0.0000e+00 1.0000e+00
       -2 -1    0    0    0  501 -0.0000000000e+00 -0.0000000000e+00 -8.7364253696e+01 8.7364253696e+01 0.0000000000e+00 0.0000e+00 -1.0000e+00
      -13  1    1    2    0    0 -1.3986217165e+02 +1.7356404674e+02 +1.2310407180e+02 2.5463801341e+02 0.0000000000e+00 0.0000e+00 -1.0000e+00
       13  1    1    2    0    0 +1.3986217165e+02 -1.7356404674e+02 +5.5354341455e+02 5.9673798033e+02 0.0000000000e+00 0.0000e+00 1.0000e+00
<mgrwt>
<rscale>  0 0.51671004E+03</rscale>
<asrwt>0</asrwt>
<pdfrwt beam="1">  1        2 0.11754026E+00 0.51671004E+03</pdfrwt>
<pdfrwt beam="2">  1       -2 0.13440655E-01 0.51671004E+03</pdfrwt>
<totfact> 0.17012939E+03</totfact>
</mgrwt>
<rwgt>
<wgt id='morphing_basis_vector_1'> +3.2046569e-04 </wgt>
<wgt id='morphing_basis_vector_2'> +1.7996327e-04 </wgt>
<wgt id='morphing_basis_vector_3'> +2.3371241e-04 </wgt>
<wgt id='morphing_basis_vector_4'> +8.2694631e-05 </wgt>
<wgt id='morphing_basis_vector_5'> +1.1869110e-04 </wgt>
</rwgt>
</event>
<event>
 4      1 +1.9425900e-05 4.30305600e+02 7.81860800e-03 9.57094300e-02
        2 -1    0    0  501    0 +0.0000000000e+00 +0.0000000000e+00 +5.2789181471e+02 5.2789181471e+02 0.0000000000e+00 0.0000e+00 -1.0000e+00
       -2 -1    0    0    0  501 -0.0000000000e+00 -0.0000000000e+00 -8.7689808520e+01 8.7689808520e+01 0.0000000000e+00 0.0000e+00 1.0000e+00
      -13  1    1    2    0    0 -1.9480710577e+02 -5.2707735199e+01 +1.1340305566e+02 2.3149118092e+02 0.0000000000e+00 0.0000e+00 1.0000e+00
       13  1    1    2    0    0 +1.9480710577e+02 +5.2707735199e+01 +3.2679895053e+02 3.8409044231e+02 0.0000000000e+00 0.0000e+00 -1.0000e+00
<mgrwt>
<rscale>  0 0.43030562E+03</rscale>
<asrwt>0</asrwt>
<pdfrwt beam="1">  1        2 0.81214123E-01 0.43030562E+03</pdfrwt>
<pdfrwt beam="2">  1       -2 0.13490740E-01 0.43030562E+03</pdfrwt>
<totfact> 0.26112735E+03</totfact>
</mgrwt>
<rwgt>
<wgt id='morphing_basis_vector_1'> +1.8879176e-04 </wgt>
<wgt id='morphing_basis_vector_2'> +1.0552107e-04 </wgt>
<wgt id='morphing_basis_vector_3'> +1.2332456e-04 </wgt>
<wgt id='morphing_basis_vector_4'> +3.1873438e-05 </wgt>
<wgt id='morphing_basis_vector_5'> +3.7880269e-05 </wgt>
</rwgt>
</event>
<event>
 4      1 +1.9425900e-05 4.97303400e+02 7.81860800e-03 9.40583200e-02
        2 -1    0    0  501    0 +0.0000000000e+00 +0.0000000000e+00 +3.7781401664e+02 3.7781401664e+02 0.0000000000e+00 0.0000e+00 1.0000e+00
       -2 -1    0    0    0  501 -0.0000000000e+00 -0.0000000000e+00 -1.6364575554e+02 1.6364575554e+02 0.0000000000e+00 0.0000e+00 -1.0000e+00
      -13  1    1    2    0    0 -2.8748603937e+01 -2.3905169106e+02 +1.7468982661e+02 2.9747055107e+02 0.0000000000e+00 0.0000e+00 1.0000e+00
       13  1    1    2    0    0 +2.8748603937e+01 +2.3905169106e+02 +3.9478434490e+01 2.4398922111e+02 0.0000000000e+00 0.0000e+00 -1.0000e+00
<mgrwt>
<rscale>  0 0.49730337E+03</rscale>
<asrwt>0</asrwt>
<pdfrwt beam="1">  1        2 0.58125233E-01 0.49730337E+03</pdfrwt>
<pdfrwt beam="2">  1       -2 0.25176270E-01 0.49730337E+03</pdfrwt>
<totfact> 0.13685528E+03</totfact>
</mgrwt>
<rwgt>
<wgt id='morphing_basis_vector_1'> +3.0665603e-04 </wgt>
<wgt id='morphing_basis_vector_2'> +2.2523311e-04 </wgt>
<wgt id='morphing_basis_vector_3'> +1.9469985e-04 </wgt>
<wgt id='morphing_basis_vector_4'> +5.9683074e-05 </wgt>
<wgt id='morphing_basis_vector_5'> +9.6010141e-05 </wgt>
</rwgt>
</event>
<event>
 4      1 +1.9425900e-05 4.51049800e+02 7.81860800e-03 9.51660600e-02
        2 -1    0    0  501    0 +0.0000000000e+00 +0.0000000000e+00 +3.9367988680e+02 3.9367988680e+02 0.0000000000e+00 0.0000e+00 -1.0000e+00
       -2 -1    0    0    0  501 -0.0000000000e+00 -0.0000000000e+00 -1.2919501540e+02 1.2919501540e+02 0.0000000000e+00 0.0000e+00 1.0000e+00
      -13  1    1    2    0    0 +9.8262858123e+01 -9.9582677383e+01 -7.2812581437e+01 1.5771484057e+02 0.0000000000e+00 0.0000e+00 1.0000e+00
       13  1    1    2    0    0 -9.8262858123e+01 +9.9582677383e+01 +3.3729745283e+02 3.6516006163e+02 0.0000000000e+00 0.0000e+00 -1.0000e+00
<mgrwt>
<rscale>  0 0.45104979E+03</rscale>
<asrwt>0</asrwt>
<pdfrwt beam="1">  1        2 0.60566136E-01 0.45104979E+03</pdfrwt>
<pdfrwt beam="2">  1       -2 0.19876156E-01 0.45104979E+03</pdfrwt>
<totfact> 0.19397096E+03</totfact>
</mgrwt>
<rwgt>
<wgt id='morphing_basis_vector_1'> +2.1383603e-04 </wgt>
<wgt id='morphing_basis_vector_2'> +1.1594564e-04 </wgt>
<wgt id='morphing_basis_vector_3'> +1.4555542e-04 </wgt>
<wgt id='morphing_basis_vector_4'> +4.0989265e-05 </wgt>
<wgt id='morphing_basis_vector_5'> +5.1956434e-05 </wgt>
</rwgt>
</event>
<event>
 4      1 +1.9425900e-05 4.42406000e+02 7.81860800e-03 9.53886500e-02
        2 -1    0    0  501    0 +0.0000000000e+00 +0.0000000000e+00 +1.8297949357e+03 1.8297949357e+03 0.0000000000e+00 0.0000e+00 1.0000e+00
       -2 -1    0    0    0  501 -0.0000000000e+00 -0.0000000000e+00 -2.6741119029e+01 2.6741119029e+01 0.0000000000e+00 0.0000e+00 -1.0000e+00
      -13  1    1    2    0    0 +1.1305479469e+02 -1.9002469743e+02 +9.2806493480e+02 9.5404155855e+02 0.0000000000e+00 0.0000e+00 -1.0000e+00
       13  1    1    2    0    0 -1.1305479469e+02 +1.9002469743e+02 +8.7498888188e+02 9.0249449619e+02 0.0000000000e+00 0.0000e+00 1.0000e+00
<mgrwt>
<rscale>  0 0.44240599E+03</rscale>
<asrwt>0</asrwt>
<pdfrwt beam="1">  1        2 0.28150682E+00 0.44240599E+03</pdfrwt>
<pdfrwt beam="2">  1       -2 0.41140197E-02 0.44240599E+03</pdfrwt>
<totfact> 0.25539519E+03</totfact>
</mgrwt>
<rwgt>
<wgt id='morphing_basis_vector_1'> +2.0955872e-04 </wgt>
<wgt id='morphing_basis_vector_2'> +1.3151367e-04 </wgt>
<wgt id='morphing_basis_vector_3'> +1.3134223e-04 </wgt>
<wgt id='morphing_basis_vector_4'> +3.6005139e-05 </wgt>
<wgt id='morphing_basis_vector_5'> +4.6110105e-05 </wgt>
</rwgt>
</event>
<event>
 4      1 +1.9425900e-05 4.56301800e+02 7.81860800e-03 9.50333600e-02
        2 -1    0    0  501    0 +0.0000000000e+00 +0.0000000000e+00 +1.0230546862e+02 1.0230546862e+02 0.0000000000e+00 0.0000e+00 -1.0000e+00
       -2 -1    0    0    0  501 -0.0000000000e+00 -0.0000000000e+00 -5.0879819523e+02 5.0879819523e+02 0.0000000000e+00 0.0000e+00 1.0000e+00
      -13  1    1    2    0    0 +7.0208297954e+01 +1.0368202489e+02 -4.5866715688e+02 4.7545213028e+02 0.0000000000e+00 0.0000e+00 1.0000e+00
       13  1    1    2    0    0 -7.0208297954e+01 -1.0368202489e+02 +5.2174430272e+01 1.3565153358e+02 0.0000000000e+00 0.0000e+00 -1.0000e+00
<mgrwt>
<rscale>  0 0.45630182E+03</rscale>
<asrwt>0</asrwt>
<pdfrwt beam="1">  1        2 0.15739303E-01 0.45630182E+03</pdfrwt>
<pdfrwt beam="2">  1       -2 0.78276646E-01 0.45630182E+03</pdfrwt>
<totfact> 0.70813792E+02</totfact>
</mgrwt>
<rwgt>
<wgt id='morphing_basis_vector_1'> +2.2096791e-04 </wgt>
<wgt id='morphing_basis_vector_2'> +1.1983497e-04 </wgt>
<wgt id='morphing_basis_vector_3'> +1.5141476e-04 </wgt>
<wgt id='morphing_basis_vector_4'> +4.3575997e-05 </wgt>
<wgt id='morphing_basis_vector_5'> +5.6014103e-05 </wgt>
</rwgt>
</event>
<event>
 4      1 +1.9425900e-05 4.53354900e+02 7.81860800e-03 9.51075800e-02
        2 -1    0    0  501    0 +0.0000000000e+00 +0.0000000000e+00 +6.3029263698e+02 6.3029263698e+02 0.0000000000e+00 0.0000e+00 -1.0000e+00
       -2 -1    0    0    0  501 -0.0000000000e+00 -0.0000000000e+00 -8.1521915414e+01 8.1521915414e+01 0.0000000000e+00 0.0000e+00 1.0000e+00
      -13  1    1    2    0    0 -1.1635118726e+02 -6.7653955120e+01 -1.1994156015e+01 1.3512407705e+02 0.0000000000e+00 0.0000e+00 1.0000e+00
       13  1    1    2    0    0 +1.1635118726e+02 +6.7653955120e+01 +5.6076487758e+02 5.7669047535e+02 0.0000000000e+00 0.0000e+00 -1.0000e+00
<mgrwt>
<rscale>  0 0.45335489E+03</rscale>
<asrwt>0</asrwt>
<pdfrwt beam="1">  1        2 0.96968094E-01 0.45335489E+03</pdfrwt>
<pdfrwt beam="2">  1       -2 0.12541834E-01 0.45335489E+03</pdfrwt>
<totfact> 0.23924454E+03</totfact>
</mgrwt>
<rwgt>
<wgt id='morphing_basis_vector_1'> +2.1694192e-04 </wgt>
<wgt id='morphing_basis_vector_2'> +1.1763874e-04 </wgt>
<wgt id='morphing_basis_vector_3'> +1.4810253e-04 </wgt>
<wgt id='morphing_basis_vector_4'> +4.2108711e-05 </wgt>
<wgt id='morphing_basis_vector_5'> +5.3712766e-05 </wgt>
</rwgt>
</event>
<event>
 4      1 +1.9425900e-05 5.19195000e+02 7.81860800e-03 9.35780900e-02
        2 -1    0    0  501    0 +0.0000000000e+00 +0.0000000000e+00 +1.0394230115e+03 1.0394230115e+03 0.0000000000e+00 0.0000e+00 -1.0000e+00
       -2 -1    0    0    0  501 -0.0000000000e+00 -0.0000000000e+00 -6.4834887436e+01 6.4834887436e+01 0.0000000000e+00 0.0000e+00 1.0000e+00
      -13  1    1    2    0    0 -1.4413431489e+02 +8.8738771907e+01 +6.8665581753e+01 1.8265878705e+02 0.0000000000e+00 0.0000e+00 1.0000e+00
       13  1    1    2    0    0 +1.4413431489e+02 -8.8738771907e+01 +9.0592254236e+02 9.2159911194e+02 0.0000000000e+00 0.0000e+00 -1.0000e+00
<mgrwt>
<rscale>  0 0.51919505E+03</rscale>
<asrwt>0</asrwt>
<pdfrwt beam="1">  1        2 0.15991122E+00 0.51919505E+03</pdfrwt>
<pdfrwt beam="2">  1       -2 0.99745988E-02 0.51919505E+03</pdfrwt>
<totfact> 0.18085106E+03</totfact>
</mgrwt>
<rwgt>
<wgt id='morphing_basis_vector_1'> +3.2416149e-04 </wgt>
<wgt id='morphing_basis_vector_2'> +1.7954113e-04 </wgt>
<wgt id='morphing_basis_vector_3'> +2.3813327e-04 </wgt>
<wgt id='morphing_basis_vector_4'> +8.5242697e-05 </wgt>
<wgt id='morphing_basis_vector_5'> +1.2192985e-04 </wgt>
</rwgt>
</event>
<event>
 4      1 +1.9425900e-05 4.71907600e+02 7.81860800e-03 9.46498400e-02
        2 -1    0    0  501    0 +0.0000000000e+00 +0.0000000000e+00 +1.5836309492e+03 1.5836309492e+03 0.0000000000e+00 0.0000e+00 -1.0000e+00
       -2 -1    0    0    0  501 -0.0000000000e+00 -0.0000000000e+00 -3.5156047697e+01 3.5156047697e+01 0.0000000000e+00 0.0000e+00 1.0000e+00
      -13  1    1    2    0    0 +1.3040194116e+02 +1.8740688512e+02 +5.6990532999e+02 6.1393655372e+02 0.0000000000e+00 0.0000e+00 1.0000e+00
       13  1    1    2    0    0 -1.3040194116e+02 -1.8740688512e+02 +9.7856957148e+02 1.0048504431e+03 0.0000000000e+00 0.0000e+00 -1.0000e+00
<mgrwt>
<rscale>  0 0.47190764E+03</rscale>
<asrwt>0</asrwt>
<pdfrwt beam="1">  1        2 0.24363548E+00 0.47190764E+03</pdfrwt>
<pdfrwt beam="2">  1       -2 0.54086240E-02 0.47190764E+03</pdfrwt>
<totfact> 0.22943785E+03</totfact>
</mgrwt>
<rwgt>
<wgt id='morphing_basis_vector_1'> +2.4646455e-04 </wgt>
<wgt id='morphing_basis_vector_2'> +1.4172655e-04 </wgt>
<wgt id='morphing_basis_vector_3'> +1.6830620e-04 </wgt>
<wgt id='morphing_basis_vector_4'> +5.1181996e-05 </wgt>
<wgt id='morphing_basis_vector_5'> +6.9438898e-05 </wgt>
</rwgt>
</event>
<event>
 4      1 +1.9425900e-05 4.44214800e+02 7.81860800e-03 9.53416300e-02
        2 -1    0    0  501    0 +0.0000000000e+00 +0.0000000000e+00 +9.9443325074e+01 9.9443325074e+01 0.0000000000e+00 0.0000e+00 1.0000e+00
       -2 -1    0    0    0  501 -0.0000000000e+00 -0.0000000000e+00 -4.9607854810e+02 4.9607854810e+02 0.0000000000e+00 0.0000e+00 -1.0000e+00
      -13  1    1    2    0    0 -1.8715705859e+02 -3.4398938613e+00 -3.5858779948e+02 4.0450563332e+02 0.0000000000e+00 0.0000e+00 -1.0000e+00
       13  1    1    2    0    0 +1.8715705859e+02 +3.4398938613e+00 -3.8047423547e+01 1.9101623986e+02 0.0000000000e+00 0.0000e+00 1.0000e+00
<mgrwt>
<rscale>  0 0.44421481E+03</rscale>
<asrwt>0</asrwt>
<pdfrwt beam="1">  1        2 0.15298973E-01 0.44421481E+03</pdfrwt>
<pdfrwt beam="2">  1       -2 0.76319779E-01 0.44421481E+03</pdfrwt>
<totfact> 0.77521813E+02</totfact>
</mgrwt>
<rwgt>
<wgt id='morphing_basis_vector_1'> +2.0532670e-04 </wgt>
<wgt id='morphing_basis_vector_2'> +1.1253506e-04 </wgt>
<wgt id='morphing_basis_vector_3'> +1.3788820e-04 </wgt>
<wgt id='morphing_basis_vector_4'> +3.7740122e-05 </wgt>
<wgt id='morphing_basis_vector_5'> +4.6997366e-05 </wgt>
</rwgt>
</event>
<event>
 4      1 +1.9425900e-05 4.72651100e+02 7.81860800e-03 9.46319600e-02
        2 -1    0    0  501    0 +0.0000000000e+00 +0.0000000000e+00 +3.5144594280e+02 3.5144594280e+02 0.0000000000e+00 0.0000e+00 1.0000e+00
       -2 -1    0    0    0  501 -0.0000000000e+00 -0.0000000000e+00 -1.5891425995e+02 1.5891425995e+02 0.0000000000e+00 0.0000e+00 -1.0000e+00
      -13  1    1    2    0    0 +1.6484208573e+02 -1.3147609851e+02 -1.8977280006e+01 2.1170501851e+02 0.0000000000e+00 0.0000e+00 -1.0000e+00
       13  1    1    2    0    0 -1.6484208573e+02 +1.3147609851e+02 +2.1150896285e+02 2.9865518424e+02 0.0000000000e+00 0.0000e+00 1.0000e+00
<mgrwt>
<rscale>  0 0.47265113E+03</rscale>
<asrwt>0</asrwt>
<pdfrwt beam="1">  1        2 0.54068606E-01 0.47265113E+03</pdfrwt>
<pdfrwt beam="2">  1       -2 0.24448348E-01 0.47265113E+03</pdfrwt>
<totfact> 0.15590215E+03</totfact>
</mgrwt>
<rwgt>
<wgt id='morphing_basis_vector_1'> +2.4581521e-04 </wgt>
<wgt id='morphing_basis_vector_2'> +1.3687825e-04 </wgt>
<wgt id='morphing_basis_vector_3'> +1.7021978e-04 </wgt>
<wgt id='morphing_basis_vector_4'> +5.2101199e-05 </wgt>
<wgt id='morphing_basis_vector_5'> +7.0030954e-05 </wgt>
</rwgt>
</event>
<event>
 4      1 +1.9425900e-05 4.33842300e+02 7.81860800e-03 9.56145300e-02
        2 -1    0    0  501    0 +0.0000000000e+00 +0.0000000000e+00 +7.1195414418e+02 7.1195414418e+02 0.0000000000e+00 0.0000e+00 1.0000e+00
       -2 -1    0    0    0  501 -0.0000000000e+00 -0.0000000000e+00 -6.6092445836e+01 6.6092445836e+01 0.0000000000e+00 0.0000e+00 -1.0000e+00
      -13  1    1    2    0    0 +2.0351284813e+02 +2.2716168776e+01 +1.9459049199e+02 2.8248710280e+02 0.0000000000e+00 0.0000e+00 -1.0000e+00
       13  1    1    2    0    0 -2.0351284813e+02 -2.2716168776e+01 +4.5127120635e+02 4.9555948721e+02 0.0000000000e+00 0.0000e+00 1.0000e+00
<mgrwt>
<rscale>  0 0.43384232E+03</rscale>
<asrwt>0</asrwt>
<pdfrwt beam="1">  1        2 0.10953140E+00 0.43384232E+03</pdfrwt>
<pdfrwt beam="2">  1       -2 0.10168069E-01 0.43384232E+03</pdfrwt>
<totfact> 0.28750211E+03</totfact>
</mgrwt>
<rwgt>
<wgt id='morphing_basis_vector_1'> +1.9324775e-04 </wgt>
<wgt id='morphing_basis_vector_2'> +1.0838885e-04 </wgt>
<wgt id='morphing_basis_vector_3'> +1.2663276e-04 </wgt>
<wgt id='morphing_basis_vector_4'> +3.3239543e-05 </wgt>
<wgt id='morphing_basis_vector_5'> +4.0099247e-05 </wgt>
</rwgt>
</event>
<event>
 4      1 +1.9425900e-05 5.07009800e+02 7.81860800e-03 9.38421900e-02
        2 -1    0    0  501    0 +0.0000000000e+00 +0.0000000000e+00 +2.3501259957e+02 2.3501259957e+02 0.0000000000e+00 0.0000e+00 -1.0000e+00
       -2 -1    0    0    0  501 -0.0000000000e+00 -0.0000000000e+00 -2.7345228697e+02 2.7345228697e+02 0.0000000000e+00 0.0000e+00 1.0000e+00
      -13  1    1    2    0    0 -2.9450027260e+01 -2.4026042735e+02 -9.4751037475e+01 2.5994256319e+02 0.0000000000e+00 0.0000e+00 1.0000e+00
       13  1    1    2    0    0 +2.9450027260e+01 +2.4026042735e+02 +5.6311350072e+01 2.4852232335e+02 0.0000000000e+00 0.0000e+00 -1.0000e+00
<mgrwt>
<rscale>  0 0.50700979E+03</rscale>
<asrwt>0</asrwt>
<pdfrwt beam="1">  1        2 0.36155785E-01 0.50700979E+03</pdfrwt>
<pdfrwt beam="2">  1       -2 0.42069583E-01 0.50700979E+03</pdfrwt>
<totfact> 0.93499755E+02</totfact>
</mgrwt>
<rwgt>
<wgt id='morphing_basis_vector_1'> +3.0447590e-04 </wgt>
<wgt id='morphing_basis_vector_2'> +1.7542117e-04 </wgt>
<wgt id='morphing_basis_vector_3'> +2.1756843e-04 </wgt>
<wgt id='morphing_basis_vector_4'> +7.4206440e-05 </wgt>
<wgt id='morphing_basis_vector_5'> +1.0655369e-04 </wgt>
</rwgt>
</event>
<event>
 4      1 +1.9425900e-05 5.06017800e+02 7.81860800e-03 9.38640400e-02
        2 -1    0    0  501    0 +0.0000000000e+00 +0.0000000000e+00 +1.4061204327e+02 1.4061204327e+02 0.0000000000e+00 0.0000e+00 -1.0000e+00
       -2 -1    0    0    0  501 -0.0000000000e+00 -0.0000000000e+00 -4.5524916292e+02 4.5524916292e+02 0.0000000000e+00 0.0000e+00 1.0000e+00
      -13  1    1    2    0    0 -2.8783371017e+01 +1.2069771387e+02 -4.1695986173e+02 4.3503097231e+02 0.0000000000e+00 0.0000e+00 1.0000e+00
       13  1    1    2    0    0 +2.8783371017e+01 -1.2069771387e+02 +1.0232274208e+02 1.6083023388e+02 0.0000000000e+00 0.0000e+00 -1.0000e+00
<mgrwt>
<rscale>  0 0.50601785E+03</rscale>
<asrwt>0</asrwt>
<pdfrwt beam="1">  1        2 0.21632622E-01 0.50601785E+03</pdfrwt>
<pdfrwt beam="2">  1       -2 0.70038334E-01 0.50601785E+03</pdfrwt>
<totfact> 0.61506089E+02</totfact>
</mgrwt>
<rwgt>
<wgt id='morphing_basis_vector_1'> +2.9961324e-04 </wgt>
<wgt id='morphing_basis_vector_2'> +1.6481722e-04 </wgt>
<wgt id='morphing_basis_vector_3'> +2.1721171e-04 </wgt>
<wgt id='morphing_basis_vector_4'> +7.4770034e-05 </wgt>
<wgt id='morphing_basis_vector_5'> +1.0523829e-04 </wgt>
</rwgt>
</event>
<event>
 4      1 +1.9425900e-05 4.61698900e+02 7.81860800e-03 9.48989300e-02
        2 -1    0    0  501    0 +0.0000000000e+00 +0.0000000000e+00 +6.5320418846e+02 6.5320418846e+02 0.0000000000e+00 0.0000e+00 1.0000e+00
       -2 -1    0    0    0  501 -0.0000000000e+00 -0.0000000000e+00 -8.1584700300e+01 8.1584700300e+01 0.0000000000e+00 0.0000e+00 -1.0000e+00
      -13  1    1    2    0    0 -1.0552057627e+02 -1.3047733883e+01 -4.0296613307e+01 1.1370423220e+02 0.0000000000e+00 0.0000e+00 -1.0000e+00
       13  1    1    2    0    0 +1.0552057627e+02 +1.3047733883e+01 +6.1191610147e+02 6.2108465656e+02 0.0000000000e+00 0.0000e+00 1.0000e+00
<mgrwt>
<rscale>  0 0.46169890E+03</rscale>
<asrwt>0</asrwt>
<pdfrwt beam="1">  1        2 0.10049295E+00 0.46169890E+03</pdfrwt>
<pdfrwt beam="2">  1       -2 0.12551493E-01 0.46169890E+03</pdfrwt>
<totfact> 0.22916812E+03</totfact>
</mgrwt>
<rwgt>
<wgt id='morphing_basis_vector_1'> +2.2852453e-04 </wgt>
<wgt id='morphing_basis_vector_2'> +1.2401363e-04 </wgt>
<wgt id='morphing_basis_vector_3'> +1.5763349e-04 </wgt>
<wgt id='morphing_basis_vector_4'> +4.6365668e-05 </wgt>
<wgt id='morphing_basis_vector_5'> +6.0395655e-05 </wgt>
</rwgt>
</event>
<event>
 4      1 +1.9425900e-05 4.63257700e+02 7.81860800e-03 9.48604600e-02
        2 -1    0    0  501    0 +0.0000000000e+00 +0.0000000000e+00 +3.0196858518e+02 3.0196858518e+02 0.0000000000e+00 0.0000e+00 -1.0000e+00
       -2 -1    0    0    0  501 -0.0000000000e+00 -0.0000000000e+00 -1.7767382276e+02 1.7767382276e+02 0.0000000000e+00 0.0000e+00 1.0000e+00
      -13  1    1    2    0    0 -1.0679174027e+02 -1.2766596615e+02 -1.0463644486e+02 1.9660076372e+02 0.0000000000e+00 0.0000e+00 1.0000e+00
       13  1    1    2    0    0 +1.0679174027e+02 +1.2766596615e+02 +2.2893120727e+02 2.8304164422e+02 0.0000000000e+00 0.0000e+00 -1.0000e+00
<mgrwt>
<rscale>  0 0.46325765E+03</rscale>
<asrwt>0</asrwt>
<pdfrwt beam="1">  1        2 0.46456705E-01 0.46325765E+03</pdfrwt>
<pdfrwt beam="2">  1       -2 0.27334434E-01 0.46325765E+03</pdfrwt>
<totfact> 0.15251993E+03</totfact>
</mgrwt>
<rwgt>
<wgt id='morphing_basis_vector_1'> +2.3099384e-04 </wgt>
<wgt id='morphing_basis_vector_2'> +1.2600835e-04 </wgt>
<wgt id='morphing_basis_vector_3'> +1.5932209e-04 </wgt>
<wgt id='morphing_basis_vector_4'> +4.7138384e-05 </wgt>
<wgt id='morphing_basis_vector_5'> +6.1714508e-05 </wgt>
</rwgt>
</event>
<event>
 4      1 +1.9425900e-05 4.71509100e+02 7.81860800e-03 9.46594400e-02
        2 -1    0    0  501    0 +0.0000000000e+00 +0.0000000000e+00 +1.1197532073e+03 1.1197532073e+03 0.0000000000e+00 0.0000e+00 -1.0000e+00
       -2 -1    0    0    0  501 -0.0000000000e+00 -0.0000000000e+00 -4.9636129800e+01 4.9636129800e+01 0.0000000000e+00 0.0000e+00 1.0000e+00
      -13  1    1    2    0    0 +1.7174212096e+02 -1.2665365115e+02 +2.8650717653e+02 3.5724342635e+02 0.0000000000e+00 0.0000e+00 1.0000e+00
       13  1    1    2    0    0 -1.7174212096e+02 +1.2665365115e+02 +7.8360990095e+02 8.1214591073e+02 0.0000000000e+00 0.0000e+00 -1.0000e+00
<mgrwt>
<rscale>  0 0.47150913E+03</rscale>
<asrwt>0</asrwt>
<pdfrwt beam="1">  1        2 0.17226971E+00 0.47150913E+03</pdfrwt>
<pdfrwt beam="2">  1       -2 0.76363285E-02 0.47150913E+03</pdfrwt>
<totfact> 0.24533401E+03</totfact>
</mgrwt>
<rwgt>
<wgt id='morphing_basis_vector_1'> +2.4425478e-04 </wgt>
<wgt id='morphing_basis_vector_2'> +1.3639474e-04 </wgt>
<wgt id='morphing_basis_vector_3'> +1.6869908e-04 </wgt>
<wgt id='morphing_basis_vector_4'> +5.1402248e-05 </wgt>
<wgt id='morphing_basis_vector_5'> +6.8997126e-05 </wgt>
</rwgt>
</event>
<event>
 4      1 +1.9425900e-05 4.74465200e+02 7.81860800e-03 9.45884700e-02
        2 -1    0    0  501    0 +0.0000000000e+00 +0.0000000000e+00 +2.3572530004e+02 2.3572530004e+02 0.0000000000e+00 0.0000e+00 -1.0000e+00
       -2 -1    0    0    0  501 -0.0000000000e+00 -0.0000000000e+00 -2.3874957405e+02 2.3874957405e+02 0.0000000000e+00 0.0000e+00 1.0000e+00
      -13  1    1    2    0    0 -2.4167790893e+00 -1.9379596760e+02 -1.3832353101e+02 2.3810946455e+02 0.0000000000e+00 0.0000e+00 1.0000e+00
       13  1    1    2    0    0 +2.4167790893e+00 +1.9379596760e+02 +1.3529925700e+02 2.3636540953e+02 0.0000000000e+00 0.0000e+00 -1.0000e+00
<mgrwt>
<rscale>  0 0.47446524E+03</rscale>
<asrwt>0</asrwt>
<pdfrwt beam="1">  1        2 0.36265430E-01 0.47446524E+03</pdfrwt>
<pdfrwt beam="2">  1       -2 0.36730704E-01 0.47446524E+03</pdfrwt>
<totfact> 0.11958348E+03</totfact>
</mgrwt>
<rwgt>
<wgt id='morphing_basis_vector_1'> +2.4796964e-04 </wgt>
<wgt id='morphing_basis_vector_2'> +1.3658866e-04 </wgt>
<wgt id='morphing_basis_vector_3'> +1.7283931e-04 </wgt>
<wgt id='morphing_basis_vector_4'> +5.3328293e-05 </wgt>
<wgt id='morphing_basis_vector_5'> +7.1678031e-05 </wgt>
</rwgt>
</event>
<event>
 4      1 +1.9425900e-05 4.95863300e+02 7.81860800e-03 9.40908400e-02
        2 -1    0    0  501    0 +0.0000000000e+00 +0.0000000000e+00 +3.5125624637e+02 3.5125624637e+02 0.0000000000e+00 0.0000e+00 -1.0000e+00
       -2 -1    0    0    0  501 -0.0000000000e+00 -0.0000000000e+00 -1.7500073933e+02 1.7500073933e+02 0.0000000000e+00 0.0000e+00 1.0000e+00
      -13  1    1    2    0    0 -1.0608919306e+02 +3.0876635060e+01 -1.4742659822e+02 1.8423595018e+02 0.0000000000e+00 0.0000e+00 1.0000e+00
       13  1    1    2    0    0 +1.0608919306e+02 -3.0876635060e+01 +3.2368210526e+02 3.4202103552e+02 0.0000000000e+00 0.0000e+00 -1.0000e+00
<mgrwt>
<rscale>  0 0.49586330E+03</rscale>
<asrwt>0</asrwt>
<pdfrwt beam="1">  1        2 0.54039423E-01 0.49586330E+03</pdfrwt>
<pdfrwt beam="2">  1       -2 0.26923191E-01 0.49586330E+03</pdfrwt>
<totfact> 0.13236939E+03</totfact>
</mgrwt>
<rwgt>
<wgt id='morphing_basis_vector_1'> +2.8186574e-04 </wgt>
<wgt id='morphing_basis_vector_2'> +1.5449913e-04 </wgt>
<wgt id='morphing_basis_vector_3'> +2.0212080e-04 </wgt>
<wgt id='morphing_basis_vector_4'> +6.7336842e-05 </wgt>
<wgt id='morphing_basis_vector_5'> +9.3481677e-05 </wgt>
</rwgt>
</event>
<event>
 4      1 +1.9425900e-05 5.01206800e+02 7.81860800e-03 9.39707700e-02
        2 -1    0    0  501    0 +0.0000000000e+00 +0.0000000000e+00 +4.7359479107e+02 4.7359479107e+02 0.0000000000e+00 0.0000e+00 -1.0000e+00
       -2 -1    0    0    0  501 -0.0000000000e+00 -0.0000000000e+00 -1.3260714291e+02 1.3260714291e+02 0.0000000000e+00 0.0000e+00 1.0000e+00
      -13  1    1    2    0    0 +2.2846619725e+02 +3.4626567805e+01 +5.3190949452e+01 2.3711828185e+02 0.0000000000e+00 0.0000e+00 1.0000e+00
       13  1    1    2    0    0 -2.2846619725e+02 -3.4626567805e+01 +2.8779669871e+02 3.6908365213e+02 0.0000000000e+00 0.0000e+00 -1.0000e+00
<mgrwt>
<rscale>  0 0.50120675E+03</rscale>
<asrwt>0</asrwt>
<pdfrwt beam="1">  1        2 0.72860736E-01 0.50120675E+03</pdfrwt>
<pdfrwt beam="2">  1       -2 0.20401099E-01 0.50120675E+03</pdfrwt>
<totfact> 0.15124053E+03</totfact>
</mgrwt>
<rwgt>
<wgt id='morphing_basis_vector_1'> +2.9307871e-04 </wgt>
<wgt id='morphing_basis_vector_2'> +1.6602300e-04 </wgt>
<wgt id='morphing_basis_vector_3'> +2.0914087e-04 </wgt>
<wgt id='morphing_basis_vector_4'> +7.0371162e-05 </wgt>
<wgt id='morphing_basis_vector_5'> +9.9630703e-05 </wgt>
</rwgt>
</event>
<event>
 4      1 +1.9425900e-05 4.73784400e+02 7.81860800e-03 9.46047700e-02
        2 -1    0    0  501    0 +0.0000000000e+00 +0.0000000000e+00 +3.3145517381e+02 3.3145517381e+02 0.0000000000e+00 0.0000e+00 1.0000e+00
       -2 -1    0    0    0  501 -0.0000000000e+00 -0.0000000000e+00 -1.6930767180e+02 1.6930767180e+02 0.0000000000e+00 0.0000e+00 -1.0000e+00
      -13  1    1    2    0    0 +4.7970919742e+01 +1.1095404790e+02 -1.3425710593e+02 1.8065707951e+02 0.0000000000e+00 0.0000e+00 -1.0000e+00
       13  1    1    2    0    0 -4.7970919742e+01 -1.1095404790e+02 +2.9640460794e+02 3.2010576610e+02 0.0000000000e+00 0.0000e+00 1.0000e+00
<mgrwt>
<rscale>  0 0.47378436E+03</rscale>
<asrwt>0</asrwt>
<pdfrwt beam="1">  1        2 0.50993104E-01 0.47378436E+03</pdfrwt>
<pdfrwt beam="2">  1       -2 0.26047334E-01 0.47378436E+03</pdfrwt>
<totfact> 0.14940069E+03</totfact>
</mgrwt>
<rwgt>
<wgt id='morphing_basis_vector_1'> +2.4634670e-04 </wgt>
<wgt id='morphing_basis_vector_2'> +1.3418110e-04 </wgt>
<wgt id='morphing_basis_vector_3'> +1.7229573e-04 </wgt>
<wgt id='morphing_basis_vector_4'> +5.3096969e-05 </wgt>
<wgt id='morphing_basis_vector_5'> +7.1017136e-05 </wgt>
</rwgt>
</event>
<event>
 4      1 +1.9425900e-05 5.10923400e+02 7.81860800e-03 9.37565100e-02
        2 -1    0    0  501    0 +0.0000000000e+00 +0.0000000000e+00 +9.2660744129e+01 9.2660744129e+01 0.0000000000e+00 0.0000e+00 -1.0000e+00
       -2 -1    0    0    0  501 -0.0000000000e+00 -0.0000000000e+00 -7.0429705997e+02 7.0429705997e+02 0.0000000000e+00 0.0000e+00 1.0000e+00
      -13  1    1    2    0    0 -1.6785700993e+02 -1.7210804664e+02 -4.4057529169e+02 5.0190013265e+02 0.0000000000e+00 0.0000e+00 1.0000e+00
       13  1    1    2    0    0 +1.6785700993e+02 +1.7210804664e+02 -1.7106102415e+02 2.9505767146e+02 0.0000000000e+00 0.0000e+00 -1.0000e+00
<mgrwt>
<rscale>  0 0.51092344E+03</rscale>
<asrwt>0</asrwt>
<pdfrwt beam="1">  1        2 0.14255499E-01 0.51092344E+03</pdfrwt>
<pdfrwt beam="2">  1       -2 0.10835339E+00 0.51092344E+03</pdfrwt>
<totfact> 0.37373946E+02</totfact>
</mgrwt>
<rwgt>
<wgt id='morphing_basis_vector_1'> +3.1114100e-04 </wgt>
<wgt id='morphing_basis_vector_2'> +1.7817125e-04 </wgt>
<wgt id='morphing_basis_vector_3'> +2.2388543e-04 </wgt>
<wgt id='morphing_basis_vector_4'> +7.7404376e-05 </wgt>
<wgt id='morphing_basis_vector_5'> +1.1135317e-04 </wgt>
</rwgt>
</event>
<event>
 4      1 +1.9425900e-05 4.58314600e+02 7.81860800e-03 9.49830000e-02
        2 -1    0    0  501    0 +0.0000000000e+00 +0.0000000000e+00 +8.4165623935e+02 8.4165623935e+02 0.0000000000e+00 0.0000e+00 -1.0000e+00
       -2 -1    0    0    0  501 -0.0000000000e+00 -0.0000000000e+00 -6.2392535173e+01 6.2392535173e+01 0.0000000000e+00 0.0000e+00 1.0000e+00
      -13  1    1    2    0    0 +1.0748975696e+02 -1.0296449043e+02 +4.5947326001e+01 1.5577833902e+02 0.0000000000e+00 0.0000e+00 1.0000e+00
       13  1    1    2    0    0 -1.0748975696e+02 +1.0296449043e+02 +7.3331637818e+02 7.4827043550e+02 0.0000000000e+00 0.0000e+00 -1.0000e+00
<mgrwt>
<rscale>  0 0.45831459E+03</rscale>
<asrwt>0</asrwt>
<pdfrwt beam="1">  1        2 0.12948557E+00 0.45831459E+03</pdfrwt>
<pdfrwt beam="2">  1       -2 0.95988522E-02 0.45831459E+03</pdfrwt>
<totfact> 0.25557907E+03</totfact>
</mgrwt>
<rwgt>
<wgt id='morphing_basis_vector_1'> +2.2385809e-04 </wgt>
<wgt id='morphing_basis_vector_2'> +1.2167880e-04 </wgt>
<wgt id='morphing_basis_vector_3'> +1.5364819e-04 </wgt>
<wgt id='morphing_basis_vector_4'> +4.4579173e-05 </wgt>
<wgt id='morphing_basis_vector_5'> +5.7628040e-05 </wgt>
</rwgt>
</event>
<event>
 4      1 +1.9425900e-05 4.46352800e+02 7.81860800e-03 9.52863600e-02
        2 -1    0    0  501    0 +0.0000000000e+00 +0.0000000000e+00 +3.0511740130e+02 3.0511740130e+02 0.0000000000e+00 0.0000e+00 1.0000e+00
       -2 -1    0    0    0  501 -0.0000000000e+00 -0.0000000000e+00 -1.6324113926e+02 1.6324113926e+02 0.0000000000e+00 0.0000e+00 -1.0000e+00
      -13  1    1    2    0    0 -7.9875404202e+01 -1.7436947991e+02 -4.8806011672e+01 1.9790609515e+02 0.0000000000e+00 0.0000e+00 -1.0000e+00
       13  1    1    2    0    0 +7.9875404202e+01 +1.7436947991e+02 +1.9068227371e+02 2.7045244541e+02 0.0000000000e+00 0.0000e+00 1.0000e+00
<mgrwt>
<rscale>  0 0.44635283E+03</rscale>
<asrwt>0</asrwt>
<pdfrwt beam="1">  1        2 0.46941139E-01 0.44635283E+03</pdfrwt>
<pdfrwt beam="2">  1       -2 0.25114021E-01 0.44635283E+03</pdfrwt>
<totfact> 0.17420022E+03</totfact>
</mgrwt>
<rwgt>
<wgt id='morphing_basis_vector_1'> +2.0823405e-04 </wgt>
<wgt id='morphing_basis_vector_2'> +1.1444896e-04 </wgt>
<wgt id='morphing_basis_vector_3'> +1.4006181e-04 </wgt>
<wgt id='morphing_basis_vector_4'> +3.8685360e-05 </wgt>
<wgt id='morphing_basis_vector_5'> +4.8529147e-05 </wgt>
</rwgt>
</event>
<event>
 4      1 +1.9425900e-05 4.53160100e+02 7.81860800e-03 9.51125100e-02
        2 -1    0    0  501    0 +0.0000000000e+00 +0.0000000000e+00 +6.1301563902e+02 6.1301563902e+02 0.0000000000e+00 0.0000e+00 -1.0000e+00
       -2 -1    0    0    0  501 -0.0000000000e+00 -0.0000000000e+00 -8.3747501610e+01 8.3747501610e+01 0.0000000000e+00 0.0000e+00 1.0000e+00
      -13  1    1    2    0    0 +4.5963921381e+01 -1.9168002624e+02 +9.2834915207e+01 2.1788124290e+02 0.0000000000e+00 0.0000e+00 1.0000e+00
       13  1    1    2    0    0 -4.5963921381e+01 +1.9168002624e+02 +4.3643322221e+02 4.7888189773e+02 0.0000000000e+00 0.0000e+00 -1.0000e+00
<mgrwt>
<rscale>  0 0.45316014E+03</rscale>
<asrwt>0</asrwt>
<pdfrwt beam="1">  1        2 0.94310096E-01 0.45316014E+03</pdfrwt>
<pdfrwt beam="2">  1       -2 0.12884231E-01 0.45316014E+03</pdfrwt>
<totfact> 0.23681058E+03</totfact>
</mgrwt>
<rwgt>
<wgt id='morphing_basis_vector_1'> +2.1746346e-04 </wgt>
<wgt id='morphing_basis_vector_2'> +1.1992355e-04 </wgt>
<wgt id='morphing_basis_vector_3'> +1.4737365e-04 </wgt>
<wgt id='morphing_basis_vector_4'> +4.1861877e-05 </wgt>
<wgt id='morphing_basis_vector_5'> +5.3605947e-05 </wgt>
</rwgt>
</event>
<event>
 4      1 +1.9425900e-05 4.67055800e+02 7.81860800e-03 9.47673900e-02
        2 -1    0    0  501    0 +0.0000000000e+00 +0.0000000000e+00 +8.5993531109e+02 8.5993531109e+02 0.0000000000e+00 0.0000e+00 -1.0000e+00
       -2 -1    0    0    0  501 -0.0000000000e+00 -0.0000000000e+00 -6.3417887748e+01 6.3417887748e+01 0.0000000000e+00 0.0000e+00 1.0000e+00
      -13  1    1    2    0    0 -1.8557390173e+02 +6.2564814432e+01 +1.4676218971e+02 2.4472672379e+02 0.0000000000e+00 0.0000e+00 1.0000e+00
       13  1    1    2    0    0 +1.8557390173e+02 -6.2564814432e+01 +6.4975523362e+02 6.7862647504e+02 0.0000000000e+00 0.0000e+00 -1.0000e+00
<mgrwt>
<rscale>  0 0.46705580E+03</rscale>
<asrwt>0</asrwt>
<pdfrwt beam="1">  1        2 0.13229773E+00 0.46705580E+03</pdfrwt>
<pdfrwt beam="2">  1       -2 0.97565987E-02 0.46705580E+03</pdfrwt>
<totfact> 0.24238357E+03</totfact>
</mgrwt>
<rwgt>
<wgt id='morphing_basis_vector_1'> +2.3697553e-04 </wgt>
<wgt id='morphing_basis_vector_2'> +1.3057017e-04 </wgt>
<wgt id='morphing_basis_vector_3'> +1.6359469e-04 </wgt>
<wgt id='morphing_basis_vector_4'> +4.9084875e-05 </wgt>
<wgt id='morphing_basis_vector_5'> +6.4999001e-05 </wgt>
</rwgt>
</event>
<event>
 4      1 +1.9425900e-05 5.07036400e+02 7.81860800e-03 9.38416000e-02
        2 -1    0    0  501    0 +0.0000000000e+00 +0.0000000000e+00 +3.2763158188e+02 3.2763158188e+02 0.0000000000e+00 0.0000e+00 -1.0000e+00
       -2 -1    0    0    0  501 -0.0000000000e+00 -0.0000000000e+00 -1.9616993552e+02 1.9616993552e+02 0.0000000000e+00 0.0000e+00 1.0000e+00
      -13  1    1    2    0    0 -5.5645836740e+01 -2.4268799032e+02 +1.1503245327e+02 2.7427428807e+02 0.0000000000e+00 0.0000e+00 -1.0000e+00
       13  1    1    2    0    0 +5.5645836740e+01 +2.4268799032e+02 +1.6429193096e+01 2.4952722933e+02 0.0000000000e+00 0.0000e+00 1.0000e+00
<mgrwt>
<rscale>  0 0.50703635E+03</rscale>
<asrwt>0</asrwt>
<pdfrwt beam="1">  1        2 0.50404858E-01 0.50703635E+03</pdfrwt>
<pdfrwt beam="2">  1       -2 0.30179990E-01 0.50703635E+03</pdfrwt>
<totfact> 0.11733307E+03</totfact>
</mgrwt>
<rwgt>
<wgt id='morphing_basis_vector_1'> +3.2072874e-04 </wgt>
<wgt id='morphing_basis_vector_2'> +2.2576727e-04 </wgt>
<wgt id='morphing_basis_vector_3'> +2.1147529e-04 </wgt>
<wgt id='morphing_basis_vector_4'> +6.7273254e-05 </wgt>
<wgt id='morphing_basis_vector_5'> +1.0719821e-04 </wgt>
</rwgt>
</event>
<event>
 4      1 +1.9425900e-05 4.69821400e+02 7.81860800e-03 9.47002000e-02
        2 -1    0    0  501    0 +0.0000000000e+00 +0.0000000000e+00 +4.4819903454e+02 4.4819903454e+02 0.0000000000e+00 0.0000e+00 1.0000e+00
       -2 -1    0    0    0  501 -0.0000000000e+00 -0.0000000000e+00 -1.2312173001e+02 1.2312173001e+02 0.0000000000e+00 0.0000e+00 -1.0000e+00
      -13  1    1    2    0    0 -1.3321871602e+02 +1.9290074371e+02 +1.4429332591e+02 2.7527892604e+02 0.0000000000e+00 0.0000e+00 -1.0000e+00
       13  1    1    2    0    0 +1.3321871602e+02 -1.9290074371e+02 +1.8078397862e+02 2.9604183851e+02 0.0000000000e+00 0.0000e+00 1.0000e+00
<mgrwt>
<rscale>  0 0.46982142E+03</rscale>
<asrwt>0</asrwt>
<pdfrwt beam="1">  1        2 0.68953697E-01 0.46982142E+03</pdfrwt>
<pdfrwt beam="2">  1       -2 0.18941805E-01 0.46982142E+03</pdfrwt>
<totfact> 0.18176665E+03</totfact>
</mgrwt>
<rwgt>
<wgt id='morphing_basis_vector_1'> +2.4652836e-04 </wgt>
<wgt id='morphing_basis_vector_2'> +1.4982262e-04 </wgt>
<wgt id='morphing_basis_vector_3'> +1.6389234e-04 </wgt>
<wgt id='morphing_basis_vector_4'> +4.9158904e-05 </wgt>
<wgt id='morphing_basis_vector_5'> +6.7716211e-05 </wgt>
</rwgt>
</event>
<event>
 4      1 +1.9425900e-05 4.52245500e+02 7.81860800e-03 9.51356800e-02
        2 -1    0    0  501    0 +0.0000000000e+00 +0.0000000000e+00 +1.4185360003e+02 1.4185360003e+02 0.0000000000e+00 0.0000e+00 -1.0000e+00
       -2 -1    0    0    0  501 -0.0000000000e+00 -0.0000000000e+00 -3.6045264485e+02 3.6045264485e+02 0.0000000000e+00 0.0000e+00 1.0000e+00
      -13  1    1    2    0    0 -8.2332156908e+01 +1.2572491405e+02 -2.9695800293e+02 3.3282036232e+02 0.0000000000e+00 0.0000e+00 1.0000e+00
       13  1    1    2    0    0 +8.2332156908e+01 -1.2572491405e+02 +7.8358958105e+01 1.6948588257e+02 0.0000000000e+00 0.0000e+00 -1.0000e+00
<mgrwt>
<rscale>  0 0.45224553E+03</rscale>
<asrwt>0</asrwt>
<pdfrwt beam="1">  1        2 0.21823631E-01 0.45224553E+03</pdfrwt>
<pdfrwt beam="2">  1       -2 0.55454252E-01 0.45224553E+03</pdfrwt>
<totfact> 0.98314088E+02</totfact>
</mgrwt>
<rwgt>
<wgt id='morphing_basis_vector_1'> +2.1550215e-04 </wgt>
<wgt id='morphing_basis_vector_2'> +1.1700576e-04 </wgt>
<wgt id='morphing_basis_vector_3'> +1.4683272e-04 </wgt>
<wgt id='morphing_basis_vector_4'> +4.1555645e-05 </wgt>
<wgt id='morphing_basis_vector_5'> +5.2866033e-05 </wgt>
</rwgt>
</event>
<event>
 4      1 +1.9425900e-05 4.80757700e+02 7.81860800e-03 9.44392500e-02
        2 -1    0    0  501    0 +0.0000000000e+00 +0.0000000000e+00 +4.6428134716e+02 4.6428134716e+02 0.0000000000e+00 0.0000e+00 -1.0000e+00
       -2 -1    0    0    0  501 -0.0000000000e+00 -0.0000000000e+00 -1.2445469695e+02 1.2445469695e+02 0.0000000000e+00 0.0000e+00 1.0000e+00
      -13  1    1    2    0    0 -1.1469903058e+02 +1.6380307582e+01 -8.8003352198e+01 1.4549492119e+02 0.0000000000e+00 0.0000e+00 1.0000e+00
       13  1    1    2    0    0 +1.1469903058e+02 -1.6380307582e+01 +4.2783000240e+02 4.4324112292e+02 0.0000000000e+00 0.0000e+00 -1.0000e+00
<mgrwt>
<rscale>  0 0.48075771E+03</rscale>
<asrwt>0</asrwt>
<pdfrwt beam="1">  1        2 0.71427898E-01 0.48075771E+03</pdfrwt>
<pdfrwt beam="2">  1       -2 0.19146877E-01 0.48075771E+03</pdfrwt>
<totfact> 0.17170098E+03</totfact>
</mgrwt>
<rwgt>
<wgt id='morphing_basis_vector_1'> +2.5712977e-04 </wgt>
<wgt id='morphing_basis_vector_2'> +1.4031139e-04 </wgt>
<wgt id='morphing_basis_vector_3'> +1.8128695e-04 </wgt>
<wgt id='morphing_basis_vector_4'> +5.7318185e-05 </wgt>
<wgt id='morphing_basis_vector_5'> +7.7671446e-05 </wgt>
</rwgt>
</event>
<event>
 4      1 +1.9425900e-05 4.92594900e+02 7.81860800e-03 9.41650800e-02
        2 -1    0    0  501    0 +0.0000000000e+00 +0.0000000000e+00 +9.9878273864e+02 9.9878273864e+02 0.0000000000e+00 0.0000e+00 -1.0000e+00
       -2 -1    0    0    0  501 -0.0000000000e+00 -0.0000000000e+00 -6.0736377922e+01 6.0736377922e+01 0.0000000000e+00 0.0000e+00 1.0000e+00
      -13  1    1    2    0    0 +1.4819610569e+02 +9.3716812612e+01 +9.6990036826e+01 2.0037962459e+02 0.0000000000e+00 0.0000e+00 1.0000e+00
       13  1    1    2    0    0 -1.4819610569e+02 -9.3716812612e+01 +8.4105632389e+02 8.5913949197e+02 0.0000000000e+00 0.0000e+00 -1.0000e+00
<mgrwt>
<rscale>  0 0.49259495E+03</rscale>
<asrwt>0</asrwt>
<pdfrwt beam="1">  1        2 0.15365887E+00 0.49259495E+03</pdfrwt>
<pdfrwt beam="2">  1       -2 0.93440589E-02 0.49259495E+03</pdfrwt>
<totfact> 0.21195512E+03</totfact>
</mgrwt>
<rwgt>
<wgt id='morphing_basis_vector_1'> +2.7662379e-04 </wgt>
<wgt id='morphing_basis_vector_2'> +1.5217061e-04 </wgt>
<wgt id='morphing_basis_vector_3'> +1.9732854e-04 </wgt>
<wgt id='morphing_basis_vector_4'> +6.4963998e-05 </wgt>
<wgt id='morphing_basis_vector_5'> +8.9905891e-05 </wgt>
</rwgt>
</event>
<event>
 4      1 +1.9425900e-05 4.89873800e+02 7.81860800e-03 9.42273700e-02
        2 -1    0    0  501    0 +0.0000000000e+00 +0.0000000000e+00 +9.2921118855e+02 9.2921118855e+02 0.0000000000e+00 0.0000e+00 1.0000e+00
       -2 -1    0    0    0  501 -0.0000000000e+00 -0.0000000000e+00 -6.4564523506e+01 6.4564523506e+01 0.0000000000e+00 0.0000e+00 -1.0000e+00
      -13  1    1    2    0    0 +1.0498918037e+02 -2.1807930485e+02 +5.0857324952e+02 5.6323002523e+02 0.0000000000e+00 0.0000e+00 -1.0000e+00
       13  1    1    2    0    0 -1.0498918037e+02 +2.1807930485e+02 +3.5607341552e+02 4.3054568682e+02 0.0000000000e+00 0.0000e+00 1.0000e+00
<mgrwt>
<rscale>  0 0.48987377E+03</rscale>
<asrwt>0</asrwt>
<pdfrwt beam="1">  1        2 0.14295556E+00 0.48987377E+03</pdfrwt>
<pdfrwt beam="2">  1       -2 0.99330043E-02 0.48987377E+03</pdfrwt>
<totfact> 0.21279174E+03</totfact>
</mgrwt>
<rwgt>
<wgt id='morphing_basis_vector_1'> +2.8717745e-04 </wgt>
<wgt id='morphing_basis_vector_2'> +1.9634957e-04 </wgt>
<wgt id='morphing_basis_vector_3'> +1.8653389e-04 </wgt>
<wgt id='morphing_basis_vector_4'> +5.7741701e-05 </wgt>
<wgt id='morphing_basis_vector_5'> +8.7647486e-05 </wgt>
</rwgt>
</event>
<event>
 4      1 +1.9425900e-05 5.07232000e+02 7.81860800e-03 9.38373000e-02
        2 -1    0    0  501    0 +0.0000000000e+00 +0.0000000000e+00 +1.8884963794e+03 1.8884963794e+03 0.0000000000e+00 0.0000e+00 -1.0000e+00
       -2 -1    0    0    0  501 -0.0000000000e+00 -0.0000000000e+00 -3.4059417386e+01 3.4059417386e+01 0.0000000000e+00 0.0000e+00 1.0000e+00
      -13  1    1    2    0    0 +1.9549104809e+02 -1.5884680123e+02 +1.0391463030e+03 1.0692399614e+03 0.0000000000e+00 0.0000e+00 -1.0000e+00
       13  1    1    2    0    0 -1.9549104809e+02 +1.5884680123e+02 +8.1529065904e+02 8.5331583535e+02 0.0000000000e+00 0.0000e+00 1.0000e+00
<mgrwt>
<rscale>  0 0.50723204E+03</rscale>
<asrwt>0</asrwt>
<pdfrwt beam="1">  1        2 0.29053782E+00 0.50723204E+03</pdfrwt>
<pdfrwt beam="2">  1       -2 0.52399118E-02 0.50723204E+03</pdfrwt>
<totfact> 0.16448036E+03</totfact>
</mgrwt>
<rwgt>
<wgt id='morphing_basis_vector_1'> +3.1685925e-04 </wgt>
<wgt id='morphing_basis_vector_2'> +2.1286293e-04 </wgt>
<wgt id='morphing_basis_vector_3'> +2.1338932e-04 </wgt>
<wgt id='morphing_basis_vector_4'> +6.9222930e-05 </wgt>
<wgt id='morphing_basis_vector_5'> +1.0727532e-04 </wgt>
</rwgt>
</event>
<event>
 4      1 +1.9425900e-05 4.62624300e+02 7.81860800e-03 9.48760700e-02
        2 -1    0    0  501    0 +0.0000000000e+00 +0.0000000000e+00 +5.6398730308e+02 5.6398730308e+02 0.0000000000e+00 0.0000e+00 -1.0000e+00
       -2 -1    0    0    0  501 -0.0000000000e+00 -0.0000000000e+00 -9.4869698728e+01 9.4869698728e+01 0.0000000000e+00 0.0000e+00 1.0000e+00
      -13  1    1    2    0    0 +1.3756139971e+02 +1.5451265756e+02 +8.7186102800e+01 2.2449658474e+02 0.0000000000e+00 0.0000e+00 1.0000e+00
       13  1    1    2    0    0 -1.3756139971e+02 -1.5451265756e+02 +3.8193150155e+02 4.3436041707e+02 0.0000000000e+00 0.0000e+00 -1.0000e+00
<mgrwt>
<rscale>  0 0.46262428E+03</rscale>
<asrwt>0</asrwt>
<pdfrwt beam="1">  1        2 0.86767275E-01 0.46262428E+03</pdfrwt>
<pdfrwt beam="2">  1       -2 0.14595339E-01 0.46262428E+03</pdfrwt>
<totfact> 0.21381749E+03</totfact>
</mgrwt>
<rwgt>
<wgt id='morphing_basis_vector_1'> +2.3099923e-04 </wgt>
<wgt id='morphing_basis_vector_2'> +1.2832623e-04 </wgt>
<wgt id='morphing_basis_vector_3'> +1.5802467e-04 </wgt>
<wgt id='morphing_basis_vector_4'> +4.6584713e-05 </wgt>
<wgt id='morphing_basis_vector_5'> +6.1229110e-05 </wgt>
</rwgt>
</event>
<event>
 4      1 +1.9425900e-05 4.95997100e+02 7.81860800e-03 9.40878100e-02
        2 -1    0    0  501    0 +0.0000000000e+00 +0.0000000000e+00 +8.9361671484e+02 8.9361671484e+02 0.0000000000e+00 0.0000e+00 -1.0000e+00
       -2 -1    0    0    0  501 -0.0000000000e+00 -0.0000000000e+00 -6.8825124554e+01 6.8825124554e+01 0.0000000000e+00 0.0000e+00 1.0000e+00
      -13  1    1    2    0    0 +6.7241693613e+01 +1.8286705906e+02 +1.1467293010e+02 2.2607894096e+02 0.0000000000e+00 0.0000e+00 1.0000e+00
       13  1    1    2    0    0 -6.7241693613e+01 -1.8286705906e+02 +7.1011866018e+02 7.3636289843e+02 0.0000000000e+00 0.0000e+00 -1.0000e+00
<mgrwt>
<rscale>  0 0.49599710E+03</rscale>
<asrwt>0</asrwt>
<pdfrwt beam="1">  1        2 0.13747949E+00 0.49599710E+03</pdfrwt>
<pdfrwt beam="2">  1       -2 0.10588481E-01 0.49599710E+03</pdfrwt>
<totfact> 0.20287557E+03</totfact>
</mgrwt>
<rwgt>
<wgt id='morphing_basis_vector_1'> +2.8262732e-04 </wgt>
<wgt id='morphing_basis_vector_2'> +1.5628737e-04 </wgt>
<wgt id='morphing_basis_vector_3'> +2.0208321e-04 </wgt>
<wgt id='morphing_basis_vector_4'> +6.7226724e-05 </wgt>
<wgt id='morphing_basis_vector_5'> +9.3652728e-05 </wgt>
</rwgt>
</event>
<event>
 4      1 +1.9425900e-05 4.31003300e+02 7.81860800e-03 9.56906300e-02
        2 -1    0    0  501    0 +0.0000000000e+00 +0.0000000000e+00 +8.3170610383e+02 8.3170610383e+02 0.0000000000e+00 0.0000e+00 1.0000e+00
       -2 -1    0    0    0  501 -0.0000000000e+00 -0.0000000000e+00 -5.5838176588e+01 5.5838176588e+01 0.0000000000e+00 0.0000e+00 -1.0000e+00
      -13  1    1    2    0    0 +1.5891079480e+02 +1.0040036081e+00 +8.8192157249e+01 1.8174571612e+02 0.0000000000e+00 0.0000e+00 -1.0000e+00
       13  1    1    2    0    0 -1.5891079480e+02 -1.0040036081e+00 +6.8767577000e+02 7.0579856430e+02 0.0000000000e+00 0.0000e+00 1.0000e+00
<mgrwt>
<rscale>  0 0.43100326E+03</rscale>
<asrwt>0</asrwt>
<pdfrwt beam="1">  1        2 0.12795478E+00 0.43100326E+03</pdfrwt>
<pdfrwt beam="2">  1       -2 0.85904893E-02 0.43100326E+03</pdfrwt>
<totfact> 0.30799647E+03</totfact>
</mgrwt>
<rwgt>
<wgt id='morphing_basis_vector_1'> +1.8836826e-04 </wgt>
<wgt id='morphing_basis_vector_2'> +1.0209021e-04 </wgt>
<wgt id='morphing_basis_vector_3'> +1.2497115e-04 </wgt>
<wgt id='morphing_basis_vector_4'> +3.2253422e-05 </wgt>
<wgt id='morphing_basis_vector_5'> +3.8233481e-05 </wgt>
</rwgt>
</event>
<event>
 4      1 +1.9425900e-05 4.57107700e+02 7.81860800e-03 9.50131600e-02
        2 -1    0    0  501    0 +0.0000000000e+00 +0.0000000000e+00 +4.8611727230e+02 4.8611727230e+02 0.0000000000e+00 0.0000e+00 -1.0000e+00
       -2 -1    0    0    0  501 -0.0000000000e+00 -0.0000000000e+00 -1.0745733756e+02 1.0745733756e+02 0.0000000000e+00 0.0000e+00 1.0000e+00
      -13  1    1    2    0    0 -1.2195064396e+01 +2.2578868185e+02 +1.4611322482e+02 2.6921798401e+02 0.0000000000e+00 0.0000e+00 1.0000e+00
       13  1    1    2    0    0 +1.2195064396e+01 -2.2578868185e+02 +2.3254670992e+02 3.2435662586e+02 0.0000000000e+00 0.0000e+00 -1.0000e+00
<mgrwt>
<rscale>  0 0.45710772E+03</rscale>
<asrwt>0</asrwt>
<pdfrwt beam="1">  1        2 0.74787271E-01 0.45710772E+03</pdfrwt>
<pdfrwt beam="2">  1       -2 0.16531898E-01 0.45710772E+03</pdfrwt>
<totfact> 0.20709830E+03</totfact>
</mgrwt>
<rwgt>
<wgt id='morphing_basis_vector_1'> +2.2619398e-04 </wgt>
<wgt id='morphing_basis_vector_2'> +1.3317058e-04 </wgt>
<wgt id='morphing_basis_vector_3'> +1.4973490e-04 </wgt>
<wgt id='morphing_basis_vector_4'> +4.3116843e-05 </wgt>
<wgt id='morphing_basis_vector_5'> +5.6875445e-05 </wgt>
</rwgt>
</event>
<event>
 4      1 +1.9425900e-05 4.62268800e+02 7.81860800e-03 9.48848500e-02
        2 -1    0    0  501    0 +0.0000000000e+00 +0.0000000000e+00 +3.2498517825e+02 3.2498517825e+02 0.0000000000e+00 0.0000e+00 -1.0000e+00
       -2 -1    0    0    0  501 -0.0000000000e+00 -0.0000000000e+00 -1.6438627252e+02 1.6438627252e+02 0.0000000000e+00 0.0000e+00 1.0000e+00
      -13  1    1    2    0    0 -6.8684879193e+01 +1.0918372502e+02 -1.2273790000e+02 1.7805417865e+02 0.0000000000e+00 0.0000e+00 1.0000e+00
       13  1    1    2    0    0 +6.8684879193e+01 -1.0918372502e+02 +2.8333680573e+02 3.1131727212e+02 0.0000000000e+00 0.0000e+00 -1.0000e+00
<mgrwt>
<rscale>  0 0.46226876E+03</rscale>
<asrwt>0</asrwt>
<pdfrwt beam="1">  1        2 0.49997720E-01 0.46226876E+03</pdfrwt>
<pdfrwt beam="2">  1       -2 0.25290196E-01 0.46226876E+03</pdfrwt>
<totfact> 0.16055640E+03</totfact>
</mgrwt>
<rwgt>
<wgt id='morphing_basis_vector_1'> +2.2938066e-04 </wgt>
<wgt id='morphing_basis_vector_2'> +1.2460376e-04 </wgt>
<wgt id='morphing_basis_vector_3'> +1.5827514e-04 </wgt>
<wgt id='morphing_basis_vector_4'> +4.6657647e-05 </wgt>
<wgt id='morphing_basis_vector_5'> +6.0873385e-05 </wgt>
</rwgt>
</event>
<event>
 4      1 +1.9425900e-05 4.79426300e+02 7.81860800e-03 9.44706100e-02
        2 -1    0    0  501    0 +0.0000000000e+00 +0.0000000000e+00 +2.1116196630e+02 2.1116196630e+02 0.0000000000e+00 0.0000e+00 -1.0000e+00
       -2 -1    0    0    0  501 -0.0000000000e+00 -0.0000000000e+00 -2.7212476329e+02 2.7212476329e+02 0.0000000000e+00 0.0000e+00 1.0000e+00
      -13  1    1    2    0    0 -6.3857173720e+01 +6.9181379052e+01 -2.5270739642e+02 2.6967541610e+02 0.0000000000e+00 0.0000e+00 1.0000e+00
       13  1    1    2    0    0 +6.3857173720e+01 -6.9181379052e+01 +1.9174459943e+02 2.1361131350e+02 0.0000000000e+00 0.0000e+00 -1.0000e+00
<mgrwt>
<rscale>  0 0.47942632E+03</rscale>
<asrwt>0</asrwt>
<pdfrwt beam="1">  1        2 0.32486456E-01 0.47942632E+03</pdfrwt>
<pdfrwt beam="2">  1       -2 0.41865348E-01 0.47942632E+03</pdfrwt>
<totfact> 0.10653187E+03</totfact>
</mgrwt>
<rwgt>
<wgt id='morphing_basis_vector_1'> +2.5501475e-04 </wgt>
<wgt id='morphing_basis_vector_2'> +1.3904076e-04 </wgt>
<wgt id='morphing_basis_vector_3'> +1.7955377e-04 </wgt>
<wgt id='morphing_basis_vector_4'> +5.6501080e-05 </wgt>
<wgt id='morphing_basis_vector_5'> +7.6369121e-05 </wgt>
</rwgt>
</event>
<event>
 4      1 +1.9425900e-05 4.95666700e+02 7.81860800e-03 9.40952800e-02
        2 -1    0    0  501    0 +0.0000000000e+00 +0.0000000000e+00 +2.0069200164e+03 2.0069200164e+03 0.0000000000e+00 0.0000e+00 -1.0000e+00
       -2 -1    0    0    0  501 -0.0000000000e+00 -0.0000000000e+00 -3.0604796309e+01 3.0604796309e+01 0.0000000000e+00 0.0000e+00 1.0000e+00
      -13  1    1    2    0    0 -2.2431269288e+02 +9.3592049055e+01 +7.8906669340e+02 8.2565241020e+02 0.0000000000e+00 0.0000e+00 1.0000e+00
       13  1    1    2    0    0 +2.2431269288e+02 -9.3592049055e+01 +1.1872485267e+03 1.2118724025e+03 0.0000000000e+00 0.0000e+00 -1.0000e+00
<mgrwt>
<rscale>  0 0.49566674E+03</rscale>
<asrwt>0</asrwt>
<pdfrwt beam="1">  1        2 0.30875682E+00 0.49566674E+03</pdfrwt>
<pdfrwt beam="2">  1       -2 0.47084318E-02 0.49566674E+03</pdfrwt>
<totfact> 0.16674070E+03</totfact>
</mgrwt>
<rwgt>
<wgt id='morphing_basis_vector_1'> +2.8592572e-04 </wgt>
<wgt id='morphing_basis_vector_2'> +1.6794510e-04 </wgt>
<wgt id='morphing_basis_vector_3'> +1.9993121e-04 </wgt>
<wgt id='morphing_basis_vector_4'> +6.5522185e-05 </wgt>
<wgt id='morphing_basis_vector_5'> +9.3446295e-05 </wgt>
</rwgt>
</event>
<event>
 4      1 +1.9425900e-05 4.71937100e+02 7.81860800e-03 9.46491300e-02
        2 -1    0    0  501    0 +0.0000000000e+00 +0.0000000000e+00 +4.7939733101e+02 4.7939733101e+02 0.0000000000e+00 0.0000e+00 -1.0000e+00
       -2 -1    0    0    0  501 -0.0000000000e+00 -0.0000000000e+00 -1.1614823247e+02 1.1614823247e+02 0.0000000000e+00 0.0000e+00 1.0000e+00
      -13  1    1    2    0    0 -1.5023806458e+02 -1.0437261610e+01 -4.7616680679e+01 1.5794860163e+02 0.0000000000e+00 0.0000e+00 1.0000e+00
       13  1    1    2    0    0 +1.5023806458e+02 +1.0437261610e+01 +4.1086577923e+02 4.3759696185e+02 0.0000000000e+00 0.0000e+00 -1.0000e+00
<mgrwt>
<rscale>  0 0.47193708E+03</rscale>
<asrwt>0</asrwt>
<pdfrwt beam="1">  1        2 0.73753434E-01 0.47193708E+03</pdfrwt>
<pdfrwt beam="2">  1       -2 0.17868959E-01 0.47193708E+03</pdfrwt>
<totfact> 0.18545600E+03</totfact>
</mgrwt>
<rwgt>
<wgt id='morphing_basis_vector_1'> +2.4364989e-04 </wgt>
<wgt id='morphing_basis_vector_2'> +1.3289245e-04 </wgt>
<wgt id='morphing_basis_vector_3'> +1.6992577e-04 </wgt>
<wgt id='morphing_basis_vector_4'> +5.1993740e-05 </wgt>
<wgt id='morphing_basis_vector_5'> +6.9324709e-05 </wgt>
</rwgt>
</event>
<event>
 4      1 +1.9425900e-05 4.34725500e+02 7.81860800e-03 9.55909800e-02
        2 -1    0    0  501    0 +0.0000000000e+00 +0.0000000000e+00 +7.1770723938e+02 7.1770723938e+02 0.0000000000e+00 0.0000e+00 1.0000e+00
       -2 -1    0    0    0  501 -0.0000000000e+00 -0.0000000000e+00 -6.5829854846e+01 6.5829854846e+01 0.0000000000e+00 0.0000e+00 -1.0000e+00
      -13  1    1    2    0    0 -8.3382871237e+01 +1.9432240506e+02 +2.3523328817e+02 3.1630460033e+02 0.0000000000e+00 0.0000e+00 1.0000e+00
       13  1    1    2    0    0 +8.3382871237e+01 -1.9432240506e+02 +4.1664409636e+02 4.6723249390e+02 0.0000000000e+00 0.0000e+00 -1.0000e+00
<mgrwt>
<rscale>  0 0.43472549E+03</rscale>
<asrwt>0</asrwt>
<pdfrwt beam="1">  1        2 0.11041649E+00 0.43472549E+03</pdfrwt>
<pdfrwt beam="2">  1       -2 0.10127671E-01 0.43472549E+03</pdfrwt>
<totfact> 0.28649930E+03</totfact>
</mgrwt>
<rwgt>
<wgt id='morphing_basis_vector_1'> +1.9520771e-04 </wgt>
<wgt id='morphing_basis_vector_2'> +1.1168490e-04 </wgt>
<wgt id='morphing_basis_vector_3'> +1.2684541e-04 </wgt>
<wgt id='morphing_basis_vector_4'> +3.3499533e-05 </wgt>
<wgt id='morphing_basis_vector_5'> +4.0715589e-05 </wgt>
</rwgt>
</event>
<event>
 4      1 +1.9425900e-05 5.00694200e+02 7.81860800e-03 9.39822200e-02
        2 -1    0    0  501    0 +0.0000000000e+00 +0.0000000000e+00 +1.1654845311e+03 1.1654845311e+03 0.0000000000e+00 0.0000e+00 -1.0000e+00
       -2 -1    0    0    0  501 -0.0000000000e+00 -0.0000000000e+00 -5.3774767289e+01 5.3774767289e+01 0.0000000000e+00 0.0000e+00 1.0000e+00
      -13  1    1    2    0    0 +4.4284288599e+00 +1.8773371041e+02 +1.5269353892e+02 2.4203072911e+02 0.0000000000e+00 0.0000e+00 1.0000e+00
       13  1    1    2    0    0 -4.4284288599e+00 -1.8773371041e+02 +9.5901622491e+02 9.7722856929e+02 0.0000000000e+00 0.0000e+00 -1.0000e+00
<mgrwt>
<rscale>  0 0.50069416E+03</rscale>
<asrwt>0</asrwt>
<pdfrwt beam="1">  1        2 0.17930529E+00 0.50069416E+03</pdfrwt>
<pdfrwt beam="2">  1       -2 0.82730420E-02 0.50069416E+03</pdfrwt>
<totfact> 0.20399571E+03</totfact>
</mgrwt>
<rwgt>
<wgt id='morphing_basis_vector_1'> +2.9059252e-04 </wgt>
<wgt id='morphing_basis_vector_2'> +1.6056500e-04 </wgt>
<wgt id='morphing_basis_vector_3'> +2.0902492e-04 </wgt>
<wgt id='morphing_basis_vector_4'> +7.0640633e-05 </wgt>
<wgt id='morphing_basis_vector_5'> +9.8974082e-05 </wgt>
</rwgt>
</event>
<event>
 4      1 +1.9425900e-05 4.39997300e+02 7.81860800e-03 9.54516400e-02
        2 -1    0    0  501    0 +0.0000000000e+00 +0.0000000000e+00 +3.6646441075e+02 3.6646441075e+02 0.0000000000e+00 0.0000e+00 1.0000e+00
       -2 -1    0    0    0  501 -0.0000000000e+00 -0.0000000000e+00 -1.3207123418e+02 1.3207123418e+02 0.0000000000e+00 0.0000e+00 -1.0000e+00
      -13  1    1    2    0    0 -6.5246849571e+01 -7.1370380821e+01 -1.0670053459e+02 1.4399960667e+02 0.0000000000e+00 0.0000e+00 -1.0000e+00
       13  1    1    2    0    0 +6.5246849571e+01 +7.1370380821e+01 +3.4109371116e+02 3.5453603827e+02 0.0000000000e+00 0.0000e+00 1.0000e+00
<mgrwt>
<rscale>  0 0.43999730E+03</rscale>
<asrwt>0</asrwt>
<pdfrwt beam="1">  1        2 0.56379140E-01 0.43999730E+03</pdfrwt>
<pdfrwt beam="2">  1       -2 0.20318652E-01 0.43999730E+03</pdfrwt>
<totfact> 0.20254269E+03</totfact>
</mgrwt>
<rwgt>
<wgt id='morphing_basis_vector_1'> +1.9928355e-04 </wgt>
<wgt id='morphing_basis_vector_2'> +1.0757831e-04 </wgt>
<wgt id='morphing_basis_vector_3'> +1.3399147e-04 </wgt>
<wgt id='morphing_basis_vector_4'> +3.5979493e-05 </wgt>
<wgt id='morphing_basis_vector_5'> +4.4044038e-05 </wgt>
</rwgt>
</event>
<event>
 4      1 +1.9425900e-05 4.93871900e+02 7.81860800e-03 9.41360000e-02
        2 -1    0    0  501    0 +0.0000000000e+00 +0.0000000000e+00 +1.4319485756e+02 1.4319485756e+02 0.0000000000e+00 0.0000e+00 -1.0000e+00
       -2 -1    0    0    0  501 -0.0000000000e+00 -0.0000000000e+00 -4.2583494769e+02 4.2583494769e+02 0.0000000000e+00 0.0000e+00 1.0000e+00
      -13  1    1    2    0    0 +8.2839708410e+00 -1.0336705448e+02 -3.9953198369e+02 4.1277012745e+02 0.0000000000e+00 0.0000e+00 1.0000e+00
       13  1    1    2    0    0 -8.2839708410e+00 +1.0336705448e+02 +1.1689189357e+02 1.5625967780e+02 0.0000000000e+00 0.0000e+00 -1.0000e+00
<mgrwt>
<rscale>  0 0.49387195E+03</rscale>
<asrwt>0</asrwt>
<pdfrwt beam="1">  1        2 0.22029978E-01 0.49387195E+03</pdfrwt>
<pdfrwt beam="2">  1       -2 0.65513069E-01 0.49387195E+03</pdfrwt>
<totfact> 0.69288993E+02</totfact>
</mgrwt>
<rwgt>
<wgt id='morphing_basis_vector_1'> +2.7848646e-04 </wgt>
<wgt id='morphing_basis_vector_2'> +1.5253158e-04 </wgt>
<wgt id='morphing_basis_vector_3'> +1.9926843e-04 </wgt>
<wgt id='morphing_basis_vector_4'> +6.5948456e-05 </wgt>
<wgt id='morphing_basis_vector_5'> +9.1284389e-05 </wgt>
</rwgt>
</event>
<event>
 4      1 +1.9425900e-05 4.35697800e+02 7.81860800e-03 9.55651300e-02
        2 -1    0    0  501    0 +0.0000000000e+00 +0.0000000000e+00 +2.6941093451e+02 2.6941093451e+02 0.0000000000e+00 0.0000e+00 -1.0000e+00
       -2 -1    0    0    0  501 -0.0000000000e+00 -0.0000000000e+00 -1.7615520876e+02 1.7615520876e+02 0.0000000000e+00 0.0000e+00 1.0000e+00
      -13  1    1    2    0    0 +1.6717657396e+02 -6.1454325239e+01 -8.1646387196e+01 1.9593563615e+02 0.0000000000e+00 0.0000e+00 1.0000e+00
       13  1    1    2    0    0 -1.6717657396e+02 +6.1454325239e+01 +1.7490211295e+02 2.4963050712e+02 0.0000000000e+00 0.0000e+00 -1.0000e+00
<mgrwt>
<rscale>  0 0.43569778E+03</rscale>
<asrwt>0</asrwt>
<pdfrwt beam="1">  1        2 0.41447836E-01 0.43569778E+03</pdfrwt>
<pdfrwt beam="2">  1       -2 0.27100801E-01 0.43569778E+03</pdfrwt>
<totfact> 0.17567162E+03</totfact>
</mgrwt>
<rwgt>
<wgt id='morphing_basis_vector_1'> +1.9435944e-04 </wgt>
<wgt id='morphing_basis_vector_2'> +1.0602989e-04 </wgt>
<wgt id='morphing_basis_vector_3'> +1.2934432e-04 </wgt>
<wgt id='morphing_basis_vector_4'> +3.4113918e-05 </wgt>
<wgt id='morphing_basis_vector_5'> +4.1221206e-05 </wgt>
</rwgt>
</event>
<event>
 4      1 +1.9425900e-05 4.64524300e+02 7.81860800e-03 9.48293200e-02
        2 -1    0    0  501    0 +0.0000000000e+00 +0.0000000000e+00 +1.6321391882e+03 1.6321391882e+03 0.0000000000e+00 0.0000e+00 1.0000e+00
       -2 -1    0    0    0  501 -0.0000000000e+00 -0.0000000000e+00 -3.3052141747e+01 3.3052141747e+01 0.0000000000e+00 0.0000e+00 -1.0000e+00
      -13  1    1    2    0    0 -1.5593188144e+02 +1.6048962449e+02 +5.7642432954e+02 6.1833379246e+02 0.0000000000e+00 0.0000e+00 -1.0000e+00
       13  1    1    2    0    0 +1.5593188144e+02 -1.6048962449e+02 +1.0226627169e+03 1.0468575375e+03 0.0000000000e+00 0.0000e+00 1.0000e+00
<mgrwt>
<rscale>  0 0.46452425E+03</rscale>
<asrwt>0</asrwt>
<pdfrwt beam="1">  1        2 0.25109827E+00 0.46452425E+03</pdfrwt>
<pdfrwt beam="2">  1       -2 0.50849461E-02 0.46452425E+03</pdfrwt>
<totfact> 0.23715925E+03</totfact>
</mgrwt>
<rwgt>
<wgt id='morphing_basis_vector_1'> +2.3523973e-04 </wgt>
<wgt id='morphing_basis_vector_2'> +1.3453030e-04 </wgt>
<wgt id='morphing_basis_vector_3'> +1.5939270e-04 </wgt>
<wgt id='morphing_basis_vector_4'> +4.7227597e-05 </wgt>
<wgt id='morphing_basis_vector_5'> +6.2914349e-05 </wgt>
</rwgt>
</event>
<event>
 4      1 +1.9425900e-05 5.01216600e+02 7.81860800e-03 9.39705500e-02
        2 -1    0    0  501    0 +0.0000000000e+00 +0.0000000000e+00 +2.0045201097e+02 2.0045201097e+02 0.0000000000e+00 0.0000e+00 -1.0000e+00
       -2 -1    0    0    0  501 -0.0000000000e+00 -0.0000000000e+00 -3.1331447334e+02 3.1331447334e+02 0.0000000000e+00 0.0000e+00 1.0000e+00
      -13  1    1    2    0    0 +1.1643147075e+02 -2.0650090308e+02 -1.3974114132e+02 2.7518447800e+02 0.0000000000e+00 0.0000e+00 1.0000e+00
       13  1    1    2    0    0 -1.1643147075e+02 +2.0650090308e+02 +2.6878678955e+01 2.3858200631e+02 0.0000000000e+00 0.0000e+00 -1.0000e+00
<mgrwt>
<rscale>  0 0.50121658E+03</rscale>
<asrwt>0</asrwt>
<pdfrwt beam="1">  1        2 0.30838771E-01 0.50121658E+03</pdfrwt>
<pdfrwt beam="2">  1       -2 0.48202227E-01 0.50121658E+03</pdfrwt>
<totfact> 0.86561494E+02</totfact>
</mgrwt>
<rwgt>
<wgt id='morphing_basis_vector_1'> +2.9375366e-04 </wgt>
<wgt id='morphing_basis_vector_2'> +1.6807497e-04 </wgt>
<wgt id='morphing_basis_vector_3'> +2.0888813e-04 </wgt>
<wgt id='morphing_basis_vector_4'> +7.0111986e-05 </wgt>
<wgt id='morphing_basis_vector_5'> +9.9668265e-05 </wgt>
</rwgt>
</event>
<event>
 4      1 +1.9425900e-05 5.12598400e+02 7.81860800e-03 9.37200900e-02
        2 -1    0    0  501    0 +0.0000000000e+00 +0.0000000000e+00 +1.8611970438e+03 1.8611970438e+03 0.0000000000e+00 0.0000e+00 -1.0000e+00
       -2 -1    0    0    0  501 -0.0000000000e+00 -0.0000000000e+00 -3.5294096448e+01 3.5294096448e+01 0.0000000000e+00 0.0000e+00 1.0000e+00
      -13  1    1    2    0    0 +1.7922472707e+01 -2.5531209993e+02 +9.6310807947e+02 9.9653532609e+02 0.0000000000e+00 0.0000e+00 1.0000e+00
       13  1    1    2    0    0 -1.7922472707e+01 +2.5531209993e+02 +8.6279486789e+02 8.9995581417e+02 0.0000000000e+00 0.0000e+00 -1.0000e+00
<mgrwt>
<rscale>  0 0.51259835E+03</rscale>
<asrwt>0</asrwt>
<pdfrwt beam="1">  1        2 0.28633793E+00 0.51259835E+03</pdfrwt>
<pdfrwt beam="2">  1       -2 0.54298624E-02 0.51259835E+03</pdfrwt>
<totfact> 0.16120621E+03</totfact>
</mgrwt>
<rwgt>
<wgt id='morphing_basis_vector_1'> +3.2403670e-04 </wgt>
<wgt id='morphing_basis_vector_2'> +2.1043391e-04 </wgt>
<wgt id='morphing_basis_vector_3'> +2.2310547e-04 </wgt>
<wgt id='morphing_basis_vector_4'> +7.4285814e-05 </wgt>
<wgt id='morphing_basis_vector_5'> +1.1381038e-04 </wgt>
</rwgt>
</event>
<event>
 4      1 +1.9425900e-05 4.56403000e+02 7.81860800e-03 9.50308200e-02
        2 -1    0    0  501    0 +0.0000000000e+00 +0.0000000000e+00 +2.5338933493e+02 2.5338933493e+02 0.0000000000e+00 0.0000e+00 -1.0000e+00
       -2 -1    0    0    0  501 -0.0000000000e+00 -0.0000000000e+00 -2.0551740366e+02 2.0551740366e+02 0.0000000000e+00 0.0000e+00 1.0000e+00
      -13  1    1    2    0    0 +1.3598645744e+01 -1.4157017380e+02 +2.0337753540e+02 2.4817223692e+02 0.0000000000e+00 0.0000e+00 -1.0000e+00
       13  1    1    2    0    0 -1.3598645744e+01 +1.4157017380e+02 -1.5550560413e+02 2.1073450167e+02 0.0000000000e+00 0.0000e+00 1.0000e+00
<mgrwt>
<rscale>  0 0.45640297E+03</rscale>
<asrwt>0</asrwt>
<pdfrwt beam="1">  1        2 0.38982975E-01 0.45640297E+03</pdfrwt>
<pdfrwt beam="2">  1       -2 0.31618062E-01 0.45640297E+03</pdfrwt>
<totfact> 0.14400454E+03</totfact>
</mgrwt>
<rwgt>
<wgt id='morphing_basis_vector_1'> +2.8971425e-04 </wgt>
<wgt id='morphing_basis_vector_2'> +3.3215321e-04 </wgt>
<wgt id='morphing_basis_vector_3'> +1.0797156e-04 </wgt>
<wgt id='morphing_basis_vector_4'> +2.9382569e-05 </wgt>
<wgt id='morphing_basis_vector_5'> +5.9792232e-05 </wgt>
</rwgt>
</event>
<event>
 4      1 +1.9425900e-05 4.68922400e+02 7.81860800e-03 9.47219900e-02
        2 -1    0    0  501    0 +0.0000000000e+00 +0.0000000000e+00 +2.3647888029e+02 2.3647888029e+02 0.0000000000e+00 0.0000e+00 -1.0000e+00
       -2 -1    0    0    0  501 -0.0000000000e+00 -0.0000000000e+00 -2.3246072364e+02 2.3246072364e+02 0.0000000000e+00 0.0000e+00 1.0000e+00
      -13  1    1    2    0    0 -1.9507906832e+02 -1.1273860002e+02 -6.2848655629e+01 2.3391406188e+02 0.0000000000e+00 0.0000e+00 1.0000e+00
       13  1    1    2    0    0 +1.9507906832e+02 +1.1273860002e+02 +6.6866812280e+01 2.3502554205e+02 0.0000000000e+00 0.0000e+00 -1.0000e+00
<mgrwt>
<rscale>  0 0.46892239E+03</rscale>
<asrwt>0</asrwt>
<pdfrwt beam="1">  1        2 0.36381366E-01 0.46892239E+03</pdfrwt>
<pdfrwt beam="2">  1       -2 0.35763188E-01 0.46892239E+03</pdfrwt>
<totfact> 0.12503548E+03</totfact>
</mgrwt>
<rwgt>
<wgt id='morphing_basis_vector_1'> +2.4166492e-04 </wgt>
<wgt id='morphing_basis_vector_2'> +1.3813286e-04 </wgt>
<wgt id='morphing_basis_vector_3'> +1.6476876e-04 </wgt>
<wgt id='morphing_basis_vector_4'> +4.9609082e-05 </wgt>
<wgt id='morphing_basis_vector_5'> +6.6739393e-05 </wgt>
</rwgt>
</event>
<event>
 4      1 +1.9425900e-05 4.38427400e+02 7.81860800e-03 9.54929100e-02
        2 -1    0    0  501    0 +0.0000000000e+00 +0.0000000000e+00 +1.4176163884e+02 1.4176163884e+02 0.0000000000e+00 0.0000e+00 1.0000e+00
       -2 -1    0    0    0  501 -0.0000000000e+00 -0.0000000000e+00 -3.3898208526e+02 3.3898208526e+02 0.0000000000e+00 0.0000e+00 -1.0000e+00
      -13  1    1    2    0    0 +1.9014473852e+02 -1.0434520827e+02 -6.3732806228e+01 2.2606374027e+02 0.0000000000e+00 0.0000e+00 -1.0000e+00
       13  1    1    2    0    0 -1.9014473852e+02 +1.0434520827e+02 -1.3348764019e+02 2.5467998382e+02 0.0000000000e+00 0.0000e+00 1.0000e+00
<mgrwt>
<rscale>  0 0.43842744E+03</rscale>
<asrwt>0</asrwt>
<pdfrwt beam="1">  1        2 0.21809483E-01 0.43842744E+03</pdfrwt>
<pdfrwt beam="2">  1       -2 0.52151090E-01 0.43842744E+03</pdfrwt>
<totfact> 0.11104875E+03</totfact>
</mgrwt>
<rwgt>
<wgt id='morphing_basis_vector_1'> +2.0788000e-04 </wgt>
<wgt id='morphing_basis_vector_2'> +1.3911839e-04 </wgt>
<wgt id='morphing_basis_vector_3'> +1.2466610e-04 </wgt>
<wgt id='morphing_basis_vector_4'> +3.4001350e-05 </wgt>
<wgt id='morphing_basis_vector_5'> +4.3608847e-05 </wgt>
</rwgt>
</event>
<event>
 4      1 +1.9425900e-05 4.55554200e+02 7.81860800e-03 9.50521300e-02
        2 -1    0    0  501    0 +0.0000000000e+00 +0.0000000000e+00 +8.0773147529e+02 8.0773147529e+02 0.0000000000e+00 0.0000e+00 -1.0000e+00
       -2 -1    0    0    0  501 -0.0000000000e+00 -0.0000000000e+00 -6.4232233030e+01 6.4232233030e+01 0.0000000000e+00 0.0000e+00 1.0000e+00
      -13  1    1    2    0    0 +1.6097128046e+02 -3.3478059504e+01 +7.0018297700e+01 1.7870393285e+02 0.0000000000e+00 0.0000e+00 1.0000e+00
       13  1    1    2    0    0 -1.6097128046e+02 +3.3478059504e+01 +6.7348094456e+02 6.9325977547e+02 0.0000000000e+00 0.0000e+00 -1.0000e+00
<mgrwt>
<rscale>  0 0.45555415E+03</rscale>
<asrwt>0</asrwt>
<pdfrwt beam="1">  1        2 0.12426637E+00 0.45555415E+03</pdfrwt>
<pdfrwt beam="2">  1       -2 0.98818826E-02 0.45555415E+03</pdfrwt>
<totfact> 0.25740694E+03</totfact>
</mgrwt>
<rwgt>
<wgt id='morphing_basis_vector_1'> +2.2012907e-04 </wgt>
<wgt id='morphing_basis_vector_2'> +1.1985748e-04 </wgt>
<wgt id='morphing_basis_vector_3'> +1.5044791e-04 </wgt>
<wgt id='morphing_basis_vector_4'> +4.3161460e-05 </wgt>
<wgt id='morphing_basis_vector_5'> +5.5434445e-05 </wgt>
</rwgt>
</event>
<event>
 4      1 +1.9425900e-05 4.79896800e+02 7.81860800e-03 9.44595200e-02
        2 -1    0    0  501    0 +0.0000000000e+00 +0.0000000000e+00 +1.5621705808e+02 1.5621705808e+02 0.0000000000e+00 0.0000e+00 1.0000e+00
       -2 -1    0    0    0  501 -0.0000000000e+00 -0.0000000000e+00 -3.6855922735e+02 3.6855922735e+02 0.0000000000e+00 0.0000e+00 -1.0000e+00
      -13  1    1    2    0    0 +1.4442302320e+02 +1.8173936321e+02 -1.7257958922e+02 2.8925926154e+02 0.0000000000e+00 0.0000e+00 -1.0000e+00
       13  1    1    2    0    0 -1.4442302320e+02 -1.8173936321e+02 -3.9762580049e+01 2.3551702389e+02 0.0000000000e+00 0.0000e+00 1.0000e+00
<mgrwt>
<rscale>  0 0.47989681E+03</rscale>
<asrwt>0</asrwt>
<pdfrwt beam="1">  1        2 0.24033394E-01 0.47989681E+03</pdfrwt>
<pdfrwt beam="2">  1       -2 0.56701419E-01 0.47989681E+03</pdfrwt>
<totfact> 0.83995798E+02</totfact>
</mgrwt>
<rwgt>
<wgt id='morphing_basis_vector_1'> +2.5889742e-04 </wgt>
<wgt id='morphing_basis_vector_2'> +1.4921564e-04 </wgt>
<wgt id='morphing_basis_vector_3'> +1.7855632e-04 </wgt>
<wgt id='morphing_basis_vector_4'> +5.5805767e-05 </wgt>
<wgt id='morphing_basis_vector_5'> +7.6974548e-05 </wgt>
</rwgt>
</event>
<event>
 4      1 +1.9425900e-05 4.98676400e+02 7.81860800e-03 9.40274300e-02
        2 -1    0    0  501    0 +0.0000000000e+00 +0.0000000000e+00 +1.4110075731e+02 1.4110075731e+02 0.0000000000e+00 0.0000e+00 1.0000e+00
       -2 -1    0    0    0  501 -0.0000000000e+00 -0.0000000000e+00 -4.4060387737e+02 4.4060387737e+02 0.0000000000e+00 0.0000e+00 -1.0000e+00
      -13  1    1    2    0    0 -1.3925704607e+02 +2.6637966783e+01 -3.8900418583e+02 4.1403666836e+02 0.0000000000e+00 0.0000e+00 -1.0000e+00
       13  1    1    2    0    0 +1.3925704607e+02 -2.6637966783e+01 +8.9501065767e+01 1.6766796632e+02 0.0000000000e+00 0.0000e+00 1.0000e+00
<mgrwt>
<rscale>  0 0.49867641E+03</rscale>
<asrwt>0</asrwt>
<pdfrwt beam="1">  1        2 0.21707809E-01 0.49867641E+03</pdfrwt>
<pdfrwt beam="2">  1       -2 0.67785211E-01 0.49867641E+03</pdfrwt>
<totfact> 0.65645968E+02</totfact>
</mgrwt>
<rwgt>
<wgt id='morphing_basis_vector_1'> +2.8675418e-04 </wgt>
<wgt id='morphing_basis_vector_2'> +1.5749165e-04 </wgt>
<wgt id='morphing_basis_vector_3'> +2.0618495e-04 </wgt>
<wgt id='morphing_basis_vector_4'> +6.9313274e-05 </wgt>
<wgt id='morphing_basis_vector_5'> +9.6647905e-05 </wgt>
</rwgt>
</event>
<event>
 4      1 +1.9425900e-05 4.52877700e+02 7.81860800e-03 9.51196600e-02
        2 -1    0    0  501    0 +0.0000000000e+00 +0.0000000000e+00 +3.3725169535e+02 3.3725169535e+02 0.0000000000e+00 0.0000e+00 -1.0000e+00
       -2 -1    0    0    0  501 -0.0000000000e+00 -0.0000000000e+00 -1.5203647619e+02 1.5203647619e+02 0.0000000000e+00 0.0000e+00 1.0000e+00
      -13  1    1    2    0    0 +1.7508287861e+02 -2.3391711413e+01 -6.0463745928e+01 1.8670043149e+02 0.0000000000e+00 0.0000e+00 1.0000e+00
       13  1    1    2    0    0 -1.7508287861e+02 +2.3391711413e+01 +2.4567896509e+02 3.0258774006e+02 0.0000000000e+00 0.0000e+00 -1.0000e+00
<mgrwt>
<rscale>  0 0.45287773E+03</rscale>
<asrwt>0</asrwt>
<pdfrwt beam="1">  1        2 0.51884876E-01 0.45287773E+03</pdfrwt>
<pdfrwt beam="2">  1       -2 0.23390227E-01 0.45287773E+03</pdfrwt>
<totfact> 0.17578627E+03</totfact>
</mgrwt>
<rwgt>
<wgt id='morphing_basis_vector_1'> +2.1660669e-04 </wgt>
<wgt id='morphing_basis_vector_2'> +1.1824750e-04 </wgt>
<wgt id='morphing_basis_vector_3'> +1.4736899e-04 </wgt>
<wgt id='morphing_basis_vector_4'> +4.1815496e-05 </wgt>
<wgt id='morphing_basis_vector_5'> +5.3363124e-05 </wgt>
</rwgt>
</event>
<event>
 4      1 +1.9425900e-05 4.76816700e+02 7.81860800e-03 9.45324200e-02
        2 -1    0    0  501    0 +0.0000000000e+00 +0.0000000000e+00 +9.5403653352e+02 9.5403653352e+02 0.0000000000e+00 0.0000e+00 -1.0000e+00
       -2 -1    0    0    0  501 -0.0000000000e+00 -0.0000000000e+00 -5.9576906670e+01 5.9576906670e+01 0.0000000000e+00 0.0000e+00 1.0000e+00
      -13  1    1    2    0    0 -1.8150651887e+02 +1.3480638155e+02 +6.0802137785e+02 6.4869667243e+02 0.0000000000e+00 0.0000e+00 1.0000e+00
       13  1    1    2    0    0 +1.8150651887e+02 -1.3480638155e+02 +2.8643824900e+02 3.6491676776e+02 0.0000000000e+00 0.0000e+00 -1.0000e+00
<mgrwt>
<rscale>  0 0.47681672E+03</rscale>
<asrwt>0</asrwt>
<pdfrwt beam="1">  1        2 0.14677484E+00 0.47681672E+03</pdfrwt>
<pdfrwt beam="2">  1       -2 0.91656787E-02 0.47681672E+03</pdfrwt>
<totfact> 0.23268935E+03</totfact>
</mgrwt>
<rwgt>
<wgt id='morphing_basis_vector_1'> +2.7540299e-04 </wgt>
<wgt id='morphing_basis_vector_2'> +2.1250476e-04 </wgt>
<wgt id='morphing_basis_vector_3'> +1.6325702e-04 </wgt>
<wgt id='morphing_basis_vector_4'> +4.7582226e-05 </wgt>
<wgt id='morphing_basis_vector_5'> +7.5029196e-05 </wgt>
</rwgt>
</event>
<event>
 4      1 +1.9425900e-05 4.83910900e+02 7.81860800e-03 9.43653900e-02
        2 -1    0    0  501    0 +0.0000000000e+00 +0.0000000000e+00 +9.8506407398e+01 9.8506407398e+01 0.0000000000e+00 0.0000e+00 1.0000e+00
       -2 -1    0    0    0  501 -0.0000000000e+00 -0.0000000000e+00 -5.9430080244e+02 5.9430080244e+02 0.0000000000e+00 0.0000e+00 -1.0000e+00
      -13  1    1    2    0    0 -5.8732583113e+01 -9.3272983405e+01 -5.5626822390e+02 5.6708350591e+02 0.0000000000e+00 0.0000e+00 -1.0000e+00
       13  1    1    2    0    0 +5.8732583113e+01 +9.3272983405e+01 +6.0473828859e+01 1.2572370393e+02 0.0000000000e+00 0.0000e+00 1.0000e+00
<mgrwt>
<rscale>  0 0.48391089E+03</rscale>
<asrwt>0</asrwt>
<pdfrwt beam="1">  1        2 0.15154831E-01 0.48391089E+03</pdfrwt>
<pdfrwt beam="2">  1       -2 0.91430895E-01 0.48391089E+03</pdfrwt>
<totfact> 0.52070253E+02</totfact>
</mgrwt>
<rwgt>
<wgt id='morphing_basis_vector_1'> +2.6213040e-04 </wgt>
<wgt id='morphing_basis_vector_2'> +1.4315291e-04 </wgt>
<wgt id='morphing_basis_vector_3'> +1.8548284e-04 </wgt>
<wgt id='morphing_basis_vector_4'> +5.9310881e-05 </wgt>
<wgt id='morphing_basis_vector_5'> +8.0811275e-05 </wgt>
</rwgt>
</event>
<event>
 4      1 +1.9425900e-05 4.39967800e+02 7.81860800e-03 9.54524100e-02
        2 -1    0    0  501    0 +0.0000000000e+00 +0.0000000000e+00 +8.6302733531e+02 8.6302733531e+02 0.0000000000e+00 0.0000e+00 -1.0000e+00
       -2 -1    0    0    0  501 -0.0000000000e+00 -0.0000000000e+00 -5.6073451797e+01 5.6073451797e+01 0.0000000000e+00 0.0000e+00 1.0000e+00
      -13  1    1    2    0    0 -1.0959326403e+02 -1.9073906252e+02 +4.0155300732e+02 4.5786121388e+02 0.0000000000e+00 0.0000e+00 1.0000e+00
       13  1    1    2    0    0 +1.0959326403e+02 +1.9073906252e+02 +4.0540087619e+02 4.6123957322e+02 0.0000000000e+00 0.0000e+00 -1.0000e+00
<mgrwt>
<rscale>  0 0.43996782E+03</rscale>
<asrwt>0</asrwt>
<pdfrwt beam="1">  1        2 0.13277343E+00 0.43996782E+03</pdfrwt>
<pdfrwt beam="2">  1       -2 0.86266855E-02 0.43996782E+03</pdfrwt>
<totfact> 0.29186220E+03</totfact>
</mgrwt>
<rwgt>
<wgt id='morphing_basis_vector_1'> +2.0552782e-04 </wgt>
<wgt id='morphing_basis_vector_2'> +1.2694315e-04 </wgt>
<wgt id='morphing_basis_vector_3'> +1.2941780e-04 </wgt>
<wgt id='morphing_basis_vector_4'> +3.5144980e-05 </wgt>
<wgt id='morphing_basis_vector_5'> +4.4389809e-05 </wgt>
</rwgt>
</event>
<event>
 4      1 +1.9425900e-05 4.66027000e+02 7.81860800e-03 9.47925100e-02
        2 -1    0    0  501    0 +0.0000000000e+00 +0.0000000000e+00 +1.5004357980e+03 1.5004357980e+03 0.0000000000e+00 0.0000e+00 1.0000e+00
       -2 -1    0    0    0  501 -0.0000000000e+00 -0.0000000000e+00 -3.6186349392e+01 3.6186349392e+01 0.0000000000e+00 0.0000e+00 -1.0000e+00
      -13  1    1    2    0    0 +1.7183854254e+01 -2.1270461746e+02 +1.0406761766e+03 1.0623301952e+03 0.0000000000e+00 0.0000e+00 1.0000e+00
       13  1    1    2    0    0 -1.7183854254e+01 +2.1270461746e+02 +4.2357327203e+02 4.7429195219e+02 0.0000000000e+00 0.0000e+00 -1.0000e+00
<mgrwt>
<rscale>  0 0.46602701E+03</rscale>
<asrwt>0</asrwt>
<pdfrwt beam="1">  1        2 0.23083623E+00 0.46602701E+03</pdfrwt>
<pdfrwt beam="2">  1       -2 0.55671318E-02 0.46602701E+03</pdfrwt>
<totfact> 0.24367766E+03</totfact>
</mgrwt>
<rwgt>
<wgt id='morphing_basis_vector_1'> +2.6449787e-04 </wgt>
<wgt id='morphing_basis_vector_2'> +2.1961594e-04 </wgt>
<wgt id='morphing_basis_vector_3'> +1.4539355e-04 </wgt>
<wgt id='morphing_basis_vector_4'> +4.1218826e-05 </wgt>
<wgt id='morphing_basis_vector_5'> +6.5588529e-05 </wgt>
</rwgt>
</event>
<event>
 4      1 +1.9425900e-05 4.45349900e+02 7.81860800e-03 9.53122500e-02
        2 -1    0    0  501    0 +0.0000000000e+00 +0.0000000000e+00 +1.0319921367e+02 1.0319921367e+02 0.0000000000e+00 0.0000e+00 1.0000e+00
       -2 -1    0    0    0  501 -0.0000000000e+00 -0.0000000000e+00 -4.8047001908e+02 4.8047001908e+02 0.0000000000e+00 0.0000e+00 -1.0000e+00
      -13  1    1    2    0    0 +1.0416265869e+02 -6.0582398024e+01 -4.3404777393e+02 4.5046371271e+02 0.0000000000e+00 0.0000e+00 -1.0000e+00
       13  1    1    2    0    0 -1.0416265869e+02 +6.0582398024e+01 +5.6776968522e+01 1.3320552004e+02 0.0000000000e+00 0.0000e+00 1.0000e+00
<mgrwt>
<rscale>  0 0.44534988E+03</rscale>
<asrwt>0</asrwt>
<pdfrwt beam="1">  1        2 0.15876802E-01 0.44534988E+03</pdfrwt>
<pdfrwt beam="2">  1       -2 0.73918464E-01 0.44534988E+03</pdfrwt>
<totfact> 0.79447878E+02</totfact>
</mgrwt>
<rwgt>
<wgt id='morphing_basis_vector_1'> +2.0621348e-04 </wgt>
<wgt id='morphing_basis_vector_2'> +1.1153257e-04 </wgt>
<wgt id='morphing_basis_vector_3'> +1.3949093e-04 </wgt>
<wgt id='morphing_basis_vector_4'> +3.8341699e-05 </wgt>
<wgt id='morphing_basis_vector_5'> +4.7769527e-05 </wgt>
</rwgt>
</event>
<event>
 4      1 +1.9425900e-05 4.98546200e+02 7.81860800e-03 9.40303500e-02
        2 -1    0    0  501    0 +0.0000000000e+00 +0.0000000000e+00 +2.1214025555e+02 2.1214025555e+02 0.0000000000e+00 0.0000e+00 -1.0000e+00
       -2 -1    0    0    0  501 -0.0000000000e+00 -0.0000000000e+00 -2.9290570007e+02 2.9290570007e+02 0.0000000000e+00 0.0000e+00 1.0000e+00
      -13  1    1    2    0    0 -3.0167766140e+01 -1.6387013702e+02 -2.2820097351e+02 2.8255831298e+02 0.0000000000e+00 0.0000e+00 1.0000e+00
       13  1    1    2    0    0 +3.0167766140e+01 +1.6387013702e+02 +1.4743552899e+02 2.2248764265e+02 0.0000000000e+00 0.0000e+00 -1.0000e+00
<mgrwt>
<rscale>  0 0.49854625E+03</rscale>
<asrwt>0</asrwt>
<pdfrwt beam="1">  1        2 0.32636962E-01 0.49854625E+03</pdfrwt>
<pdfrwt beam="2">  1       -2 0.45062415E-01 0.49854625E+03</pdfrwt>
<totfact> 0.92286698E+02</totfact>
</mgrwt>
<rwgt>
<wgt id='morphing_basis_vector_1'> +2.8665526e-04 </wgt>
<wgt id='morphing_basis_vector_2'> +1.5775196e-04 </wgt>
<wgt id='morphing_basis_vector_3'> +2.0594131e-04 </wgt>
<wgt id='morphing_basis_vector_4'> +6.9170186e-05 </wgt>
<wgt id='morphing_basis_vector_5'> +9.6505084e-05 </wgt>
</rwgt>
</event>
<event>
 4      1 +1.9425900e-05 4.45677400e+02 7.81860800e-03 9.53037800e-02
        2 -1    0    0  501    0 +0.0000000000e+00 +0.0000000000e+00 +5.2526324360e+02 5.2526324360e+02 0.0000000000e+00 0.0000e+00 1.0000e+00
       -2 -1    0    0    0  501 -0.0000000000e+00 -0.0000000000e+00 -9.4537542636e+01 9.4537542636e+01 0.0000000000e+00 0.0000e+00 -1.0000e+00
      -13  1    1    2    0    0 +3.1264893010e+01 +1.8510102553e+02 +3.8234579916e+02 4.2594388518e+02 0.0000000000e+00 0.0000e+00 1.0000e+00
       13  1    1    2    0    0 -3.1264893010e+01 -1.8510102553e+02 +4.8379901807e+01 1.9385690106e+02 0.0000000000e+00 0.0000e+00 -1.0000e+00
<mgrwt>
<rscale>  0 0.44567745E+03</rscale>
<asrwt>0</asrwt>
<pdfrwt beam="1">  1        2 0.80809728E-01 0.44567745E+03</pdfrwt>
<pdfrwt beam="2">  1       -2 0.14544238E-01 0.44567745E+03</pdfrwt>
<totfact> 0.23307001E+03</totfact>
</mgrwt>
<rwgt>
<wgt id='morphing_basis_vector_1'> +2.4529211e-04 </wgt>
<wgt id='morphing_basis_vector_2'> +2.3115997e-04 </wgt>
<wgt id='morphing_basis_vector_3'> +1.1307561e-04 </wgt>
<wgt id='morphing_basis_vector_4'> +3.2393502e-05 </wgt>
<wgt id='morphing_basis_vector_5'> +5.0198860e-05 </wgt>
</rwgt>
</event>
<event>
 4      1 +1.9425900e-05 4.81029000e+02 7.81860800e-03 9.44328700e-02
        2 -1    0    0  501    0 +0.0000000000e+00 +0.0000000000e+00 +1.5765771111e+02 1.5765771111e+02 0.0000000000e+00 0.0000e+00 -1.0000e+00
       -2 -1    0    0    0  501 -0.0000000000e+00 -0.0000000000e+00 -3.6691649015e+02 3.6691649015e+02 0.0000000000e+00 0.0000e+00 1.0000e+00
      -13  1    1    2    0    0 -1.1127353837e+02 -9.5917892508e+01 -3.1230264776e+02 3.4513039020e+02 0.0000000000e+00 0.0000e+00 1.0000e+00
       13  1    1    2    0    0 +1.1127353837e+02 +9.5917892508e+01 +1.0304386872e+02 1.7944381105e+02 0.0000000000e+00 0.0000e+00 -1.0000e+00
<mgrwt>
<rscale>  0 0.48102896E+03</rscale>
<asrwt>0</asrwt>
<pdfrwt beam="1">  1        2 0.24255033E-01 0.48102896E+03</pdfrwt>
<pdfrwt beam="2">  1       -2 0.56448690E-01 0.48102896E+03</pdfrwt>
<totfact> 0.83845997E+02</totfact>
</mgrwt>
<rwgt>
<wgt id='morphing_basis_vector_1'> +2.5764235e-04 </wgt>
<wgt id='morphing_basis_vector_2'> +1.4081925e-04 </wgt>
<wgt id='morphing_basis_vector_3'> +1.8160133e-04 </wgt>
<wgt id='morphing_basis_vector_4'> +5.7460300e-05 </wgt>
<wgt id='morphing_basis_vector_5'> +7.7942272e-05 </wgt>
</rwgt>
</event>
<event>
 4      1 +1.9425900e-05 4.87435400e+02 7.81860800e-03 9.42835500e-02
        2 -1    0    0  501    0 +0.0000000000e+00 +0.0000000000e+00 +5.3725646564e+02 5.3725646564e+02 0.0000000000e+00 0.0000e+00 1.0000e+00
       -2 -1    0    0    0  501 -0.0000000000e+00 -0.0000000000e+00 -1.1055857188e+02 1.1055857188e+02 0.0000000000e+00 0.0000e+00 -1.0000e+00
      -13  1    1    2    0    0 +2.0121141532e+02 -8.9081095571e+01 +7.4106223405e+01 2.3219217814e+02 0.0000000000e+00 0.0000e+00 -1.0000e+00
       13  1    1    2    0    0 -2.0121141532e+02 +8.9081095571e+01 +3.5259167035e+02 4.1562285939e+02 0.0000000000e+00 0.0000e+00 1.0000e+00
<mgrwt>
<rscale>  0 0.48743536E+03</rscale>
<asrwt>0</asrwt>
<pdfrwt beam="1">  1        2 0.82654839E-01 0.48743536E+03</pdfrwt>
<pdfrwt beam="2">  1       -2 0.17009011E-01 0.48743536E+03</pdfrwt>
<totfact> 0.17669777E+03</totfact>
</mgrwt>
<rwgt>
<wgt id='morphing_basis_vector_1'> +2.6930934e-04 </wgt>
<wgt id='morphing_basis_vector_2'> +1.5102216e-04 </wgt>
<wgt id='morphing_basis_vector_3'> +1.8956042e-04 </wgt>
<wgt id='morphing_basis_vector_4'> +6.1083667e-05 </wgt>
<wgt id='morphing_basis_vector_5'> +8.4485806e-05 </wgt>
</rwgt>
</event>
<event>
 4      1 +1.9425900e-05 4.50219700e+02 7.81860800e-03 9.51872100e-02
        2 -1    0    0  501    0 +0.0000000000e+00 +0.0000000000e+00 +3.5359702435e+02 3.5359702435e+02 0.0000000000e+00 0.0000e+00 -1.0000e+00
       -2 -1    0    0    0  501 -0.0000000000e+00 -0.0000000000e+00 -1.4331126929e+02 1.4331126929e+02 0.0000000000e+00 0.0000e+00 1.0000e+00
      -13  1    1    2    0    0 +7.3979234611e+01 +1.3697701570e+02 -7.4319210480e+01 1.7250789846e+02 0.0000000000e+00 0.0000e+00 1.0000e+00
       13  1    1    2    0    0 -7.3979234611e+01 -1.3697701570e+02 +2.8460496555e+02 3.2440039519e+02 0.0000000000e+00 0.0000e+00 -1.0000e+00
<mgrwt>
<rscale>  0 0.45021967E+03</rscale>
<asrwt>0</asrwt>
<pdfrwt beam="1">  1        2 0.54399542E-01 0.45021967E+03</pdfrwt>
<pdfrwt beam="2">  1       -2 0.22047888E-01 0.45021967E+03</pdfrwt>
<totfact> 0.18410307E+03</totfact>
</mgrwt>
<rwgt>
<wgt id='morphing_basis_vector_1'> +2.1280456e-04 </wgt>
<wgt id='morphing_basis_vector_2'> +1.1558172e-04 </wgt>
<wgt id='morphing_basis_vector_3'> +1.4459549e-04 </wgt>
<wgt id='morphing_basis_vector_4'> +4.0578207e-05 </wgt>
<wgt id='morphing_basis_vector_5'> +5.1337575e-05 </wgt>
</rwgt>
</event>
<event>
 4      1 +1.9425900e-05 4.91932800e+02 7.81860800e-03 9.41802000e-02
        2 -1    0    0  501    0 +0.0000000000e+00 +0.0000000000e+00 +2.0290115031e+02 2.0290115031e+02 0.0000000000e+00 0.0000e+00 -1.0000e+00
       -2 -1    0    0    0  501 -0.0000000000e+00 -0.0000000000e+00 -2.9817208974e+02 2.9817208974e+02 0.0000000000e+00 0.0000e+00 1.0000e+00
      -13  1    1    2    0    0 -1.6421277036e+02 -1.6181498258e+02 -1.3495783059e+02 2.6713954888e+02 0.0000000000e+00 0.0000e+00 1.0000e+00
       13  1    1    2    0    0 +1.6421277036e+02 +1.6181498258e+02 +3.9686891157e+01 2.3393369117e+02 0.0000000000e+00 0.0000e+00 -1.0000e+00
<mgrwt>
<rscale>  0 0.49193276E+03</rscale>
<asrwt>0</asrwt>
<pdfrwt beam="1">  1        2 0.31215561E-01 0.49193276E+03</pdfrwt>
<pdfrwt beam="2">  1       -2 0.45872629E-01 0.49193276E+03</pdfrwt>
<totfact> 0.93861830E+02</totfact>
</mgrwt>
<rwgt>
<wgt id='morphing_basis_vector_1'> +2.7748561e-04 </wgt>
<wgt id='morphing_basis_vector_2'> +1.5764167e-04 </wgt>
<wgt id='morphing_basis_vector_3'> +1.9550257e-04 </wgt>
<wgt id='morphing_basis_vector_4'> +6.3792067e-05 </wgt>
<wgt id='morphing_basis_vector_5'> +8.9274942e-05 </wgt>
</rwgt>
</event>
<event>
 4      1 +1.9425900e-05 4.73019100e+02 7.81860800e-03 9.46231200e-02
        2 -1    0    0  501    0 +0.0000000000e+00 +0.0000000000e+00 +2.0492336815e+02 2.0492336815e+02 0.0000000000e+00 0.0000e+00 -1.0000e+00
       -2 -1    0    0    0  501 -0.0000000000e+00 -0.0000000000e+00 -2.7296427251e+02 2.7296427251e+02 0.0000000000e+00 0.0000e+00 1.0000e+00
      -13  1    1    2    0    0 +8.6855290073e+01 +1.2360750288e+02 -2.1786622450e+02 2.6511949751e+02 0.0000000000e+00 0.0000e+00 1.0000e+00
       13  1    1    2    0    0 -8.6855290073e+01 -1.2360750288e+02 +1.4982532014e+02 2.1276814314e+02 0.0000000000e+00 0.0000e+00 -1.0000e+00
<mgrwt>
<rscale>  0 0.47301906E+03</rscale>
<asrwt>0</asrwt>
<pdfrwt beam="1">  1        2 0.31526672E-01 0.47301906E+03</pdfrwt>
<pdfrwt beam="2">  1       -2 0.41994503E-01 0.47301906E+03</pdfrwt>
<totfact> 0.10959808E+03</totfact>
</mgrwt>
<rwgt>
<wgt id='morphing_basis_vector_1'> +2.4528501e-04 </wgt>
<wgt id='morphing_basis_vector_2'> +1.3382743e-04 </wgt>
<wgt id='morphing_basis_vector_3'> +1.7127865e-04 </wgt>
<wgt id='morphing_basis_vector_4'> +5.2621012e-05 </wgt>
<wgt id='morphing_basis_vector_5'> +7.0315564e-05 </wgt>
</rwgt>
</event>
<event>
 4      1 +1.9425900e-05 4.53880700e+02 7.81860800e-03 9.50943000e-02
        2 -1    0    0  501    0 +0.0000000000e+00 +0.0000000000e+00 +2.1922067236e+02 2.1922067236e+02 0.0000000000e+00 0.0000e+00 -1.0000e+00
       -2 -1    0    0    0  501 -0.0000000000e+00 -0.0000000000e+00 -2.3493188275e+02 2.3493188275e+02 0.0000000000e+00 0.0000e+00 1.0000e+00
      -13  1    1    2    0    0 -9.8141636730e+01 +6.3728246722e+00 -2.1250079189e+02 2.3415588891e+02 0.0000000000e+00 0.0000e+00 1.0000e+00
       13  1    1    2    0    0 +9.8141636730e+01 -6.3728246722e+00 +1.9678958150e+02 2.1999666621e+02 0.0000000000e+00 0.0000e+00 -1.0000e+00
<mgrwt>
<rscale>  0 0.45388071E+03</rscale>
<asrwt>0</asrwt>
<pdfrwt beam="1">  1        2 0.33726257E-01 0.45388071E+03</pdfrwt>
<pdfrwt beam="2">  1       -2 0.36143366E-01 0.45388071E+03</pdfrwt>
<totfact> 0.13362713E+03</totfact>
</mgrwt>
<rwgt>
<wgt id='morphing_basis_vector_1'> +2.1759114e-04 </wgt>
<wgt id='morphing_basis_vector_2'> +1.1782828e-04 </wgt>
<wgt id='morphing_basis_vector_3'> +1.4873079e-04 </wgt>
<wgt id='morphing_basis_vector_4'> +4.2380191e-05 </wgt>
<wgt id='morphing_basis_vector_5'> +5.4115247e-05 </wgt>
</rwgt>
</event>
<event>
 4      1 +1.9425900e-05 4.34270000e+02 7.81860800e-03 9.56031200e-02
        2 -1    0    0  501    0 +0.0000000000e+00 +0.0000000000e+00 +2.2726058903e+02 2.2726058903e+02 0.0000000000e+00 0.0000e+00 -1.0000e+00
       -2 -1    0    0    0  501 -0.0000000000e+00 -0.0000000000e+00 -2.0746050945e+02 2.0746050945e+02 0.0000000000e+00 0.0000e+00 1.0000e+00
      -13  1    1    2    0    0 -1.1775824854e+02 -7.4139368540e+00 -1.7256830187e+02 2.0904973181e+02 0.0000000000e+00 0.0000e+00 1.0000e+00
       13  1    1    2    0    0 +1.1775824854e+02 +7.4139368540e+00 +1.9236838144e+02 2.2567136668e+02 0.0000000000e+00 0.0000e+00 -1.0000e+00
<mgrwt>
<rscale>  0 0.43426995E+03</rscale>
<asrwt>0</asrwt>
<pdfrwt beam="1">  1        2 0.34963168E-01 0.43426995E+03</pdfrwt>
<pdfrwt beam="2">  1       -2 0.31917001E-01 0.43426995E+03</pdfrwt>
<totfact> 0.16006257E+03</totfact>
</mgrwt>
<rwgt>
<wgt id='morphing_basis_vector_1'> +1.9215604e-04 </wgt>
<wgt id='morphing_basis_vector_2'> +1.0369500e-04 </wgt>
<wgt id='morphing_basis_vector_3'> +1.2827324e-04 </wgt>
<wgt id='morphing_basis_vector_4'> +3.3577534e-05 </wgt>
<wgt id='morphing_basis_vector_5'> +4.0275571e-05 </wgt>
</rwgt>
</event>
<event>
 4      1 +1.9425900e-05 4.77570500e+02 7.81860800e-03 9.45145200e-02
        2 -1    0    0  501    0 +0.0000000000e+00 +0.0000000000e+00 +1.1572485871e+03 1.1572485871e+03 0.0000000000e+00 0.0000e+00 -1.0000e+00
       -2 -1    0    0    0  501 -0.0000000000e+00 -0.0000000000e+00 -4.9270658411e+01 4.9270658411e+01 0.0000000000e+00 0.0000e+00 1.0000e+00
      -13  1    1    2    0    0 +1.9487078490e+02 +5.5286163647e+01 +2.3455346198e+02 3.0991371254e+02 0.0000000000e+00 0.0000e+00 1.0000e+00
       13  1    1    2    0    0 -1.9487078490e+02 -5.5286163647e+01 +8.7342446670e+02 8.9660553295e+02 0.0000000000e+00 0.0000e+00 -1.0000e+00
<mgrwt>
<rscale>  0 0.47757052E+03</rscale>
<asrwt>0</asrwt>
<pdfrwt beam="1">  1        2 0.17803822E+00 0.47757052E+03</pdfrwt>
<pdfrwt beam="2">  1       -2 0.75801022E-02 0.47757052E+03</pdfrwt>
<totfact> 0.23604084E+03</totfact>
</mgrwt>
<rwgt>
<wgt id='morphing_basis_vector_1'> +2.5295893e-04 </wgt>
<wgt id='morphing_basis_vector_2'> +1.3997727e-04 </wgt>
<wgt id='morphing_basis_vector_3'> +1.7670669e-04 </wgt>
<wgt id='morphing_basis_vector_4'> +5.5113646e-05 </wgt>
<wgt id='morphing_basis_vector_5'> +7.4619348e-05 </wgt>
</rwgt>
</event>
<event>
 4      1 +1.9425900e-05 4.40999700e+02 7.81860800e-03 9.54253700e-02
        2 -1    0    0  501    0 +0.0000000000e+00 +0.0000000000e+00 +3.9603751649e+02 3.9603751649e+02 0.0000000000e+00 0.0000e+00 1.0000e+00
       -2 -1    0    0    0  501 -0.0000000000e+00 -0.0000000000e+00 -1.2276659061e+02 1.2276659061e+02 0.0000000000e+00 0.0000e+00 -1.0000e+00
      -13  1    1    2    0    0 -1.4863879736e+02 +1.2448482046e+02 +2.6018954502e+02 3.2448199017e+02 0.0000000000e+00 0.0000e+00 -1.0000e+00
       13  1    1    2    0    0 +1.4863879736e+02 -1.2448482046e+02 +1.3081380863e+01 1.9432211694e+02 0.0000000000e+00 0.0000e+00 1.0000e+00
<mgrwt>
<rscale>  0 0.44099966E+03</rscale>
<asrwt>0</asrwt>
<pdfrwt beam="1">  1        2 0.60928848E-01 0.44099966E+03</pdfrwt>
<pdfrwt beam="2">  1       -2 0.18887168E-01 0.44099966E+03</pdfrwt>
<totfact> 0.20950129E+03</totfact>
</mgrwt>
<rwgt>
<wgt id='morphing_basis_vector_1'> +2.3204439e-04 </wgt>
<wgt id='morphing_basis_vector_2'> +2.0547026e-04 </wgt>
<wgt id='morphing_basis_vector_3'> +1.1241357e-04 </wgt>
<wgt id='morphing_basis_vector_4'> +3.2140683e-05 </wgt>
<wgt id='morphing_basis_vector_5'> +4.6551651e-05 </wgt>
</rwgt>
</event>
<event>
 4      1 +1.9425900e-05 4.97649100e+02 7.81860800e-03 9.40505300e-02
        2 -1    0    0  501    0 +0.0000000000e+00 +0.0000000000e+00 +4.5171832799e+02 4.5171832799e+02 0.0000000000e+00 0.0000e+00 -1.0000e+00
       -2 -1    0    0    0  501 -0.0000000000e+00 -0.0000000000e+00 -1.3706251524e+02 1.3706251524e+02 0.0000000000e+00 0.0000e+00 1.0000e+00
      -13  1    1    2    0    0 +1.0397655895e+02 -1.6138783233e+02 -2.9951754150e+01 1.9430456714e+02 0.0000000000e+00 0.0000e+00 1.0000e+00
       13  1    1    2    0    0 -1.0397655895e+02 +1.6138783233e+02 +3.4460756690e+02 3.9447627609e+02 0.0000000000e+00 0.0000e+00 -1.0000e+00
<mgrwt>
<rscale>  0 0.49764907E+03</rscale>
<asrwt>0</asrwt>
<pdfrwt beam="1">  1        2 0.69495127E-01 0.49764907E+03</pdfrwt>
<pdfrwt beam="2">  1       -2 0.21086541E-01 0.49764907E+03</pdfrwt>
<totfact> 0.15096298E+03</totfact>
</mgrwt>
<rwgt>
<wgt id='morphing_basis_vector_1'> +2.8539625e-04 </wgt>
<wgt id='morphing_basis_vector_2'> +1.5774466e-04 </wgt>
<wgt id='morphing_basis_vector_3'> +2.0450803e-04 </wgt>
<wgt id='morphing_basis_vector_4'> +6.8416853e-05 </wgt>
<wgt id='morphing_basis_vector_5'> +9.5501285e-05 </wgt>
</rwgt>
</event>
<event>
 4      1 +1.9425900e-05 4.78815000e+02 7.81860800e-03 9.44850500e-02
        2 -1    0    0  501    0 +0.0000000000e+00 +0.0000000000e+00 +7.0149523022e+02 7.0149523022e+02 0.0000000000e+00 0.0000e+00 1.0000e+00
       -2 -1    0    0    0  501 -0.0000000000e+00 -0.0000000000e+00 -8.1705416352e+01 8.1705416352e+01 0.0000000000e+00 0.0000e+00 -1.0000e+00
      -13  1    1    2    0    0 +1.2481352483e+02 -3.6429954101e+00 +6.4401272999e+02 6.5600616139e+02 0.0000000000e+00 0.0000e+00 1.0000e+00
       13  1    1    2    0    0 -1.2481352483e+02 +3.6429954101e+00 -2.4222916114e+01 1.2719448519e+02 0.0000000000e+00 0.0000e+00 -1.0000e+00
<mgrwt>
<rscale>  0 0.47881504E+03</rscale>
<asrwt>0</asrwt>
<pdfrwt beam="1">  1        2 0.10792234E+00 0.47881504E+03</pdfrwt>
<pdfrwt beam="2">  1       -2 0.12570064E-01 0.47881504E+03</pdfrwt>
<totfact> 0.21004481E+03</totfact>
</mgrwt>
<rwgt>
<wgt id='morphing_basis_vector_1'> +3.3962458e-04 </wgt>
<wgt id='morphing_basis_vector_2'> +4.0379374e-04 </wgt>
<wgt id='morphing_basis_vector_3'> +1.3441754e-04 </wgt>
<wgt id='morphing_basis_vector_4'> +2.9718040e-05 </wgt>
<wgt id='morphing_basis_vector_5'> +7.9812221e-05 </wgt>
</rwgt>
</event>
<event>
 4      1 +1.9425900e-05 5.02127800e+02 7.81860800e-03 9.39502400e-02
        2 -1    0    0  501    0 +0.0000000000e+00 +0.0000000000e+00 +1.3272870257e+03 1.3272870257e+03 0.0000000000e+00 0.0000e+00 1.0000e+00
       -2 -1    0    0    0  501 -0.0000000000e+00 -0.0000000000e+00 -4.7490169416e+01 4.7490169416e+01 0.0000000000e+00 0.0000e+00 -1.0000e+00
      -13  1    1    2    0    0 +1.5898764989e+02 -1.6120256735e+02 +3.4286757009e+02 4.1087894952e+02 0.0000000000e+00 0.0000e+00 1.0000e+00
       13  1    1    2    0    0 -1.5898764989e+02 +1.6120256735e+02 +9.3692928619e+02 9.6389824559e+02 0.0000000000e+00 0.0000e+00 -1.0000e+00
<mgrwt>
<rscale>  0 0.50212782E+03</rscale>
<asrwt>0</asrwt>
<pdfrwt beam="1">  1        2 0.20419798E+00 0.50212782E+03</pdfrwt>
<pdfrwt beam="2">  1       -2 0.73061809E-02 0.50212782E+03</pdfrwt>
<totfact> 0.20015481E+03</totfact>
</mgrwt>
<rwgt>
<wgt id='morphing_basis_vector_1'> +2.9431289e-04 </wgt>
<wgt id='morphing_basis_vector_2'> +1.6577892e-04 </wgt>
<wgt id='morphing_basis_vector_3'> +2.1067771e-04 </wgt>
<wgt id='morphing_basis_vector_4'> +7.1197282e-05 </wgt>
<wgt id='morphing_basis_vector_5'> +1.0068732e-04 </wgt>
</rwgt>
</event>
<event>
 4      1 +1.9425900e-05 5.08645700e+02 7.81860800e-03 9.38062700e-02
        2 -1    0    0  501    0 +0.0000000000e+00 +0.0000000000e+00 +4.3761210485e+02 4.3761210485e+02 0.0000000000e+00 0.0000e+00 -1.0000e+00
       -2 -1    0    0    0  501 -0.0000000000e+00 -0.0000000000e+00 -1.4780238435e+02 1.4780238435e+02 0.0000000000e+00 0.0000e+00 1.0000e+00
      -13  1    1    2    0    0 -9.6731552006e+01 -1.0624043039e+02 -9.6614786615e+01 1.7314282889e+02 0.0000000000e+00 0.0000e+00 1.0000e+00
       13  1    1    2    0    0 +9.6731552006e+01 +1.0624043039e+02 +3.8642450711e+02 4.1227166032e+02 0.0000000000e+00 0.0000e+00 -1.0000e+00
<mgrwt>
<rscale>  0 0.50864570E+03</rscale>
<asrwt>0</asrwt>
<pdfrwt beam="1">  1        2 0.67324939E-01 0.50864570E+03</pdfrwt>
<pdfrwt beam="2">  1       -2 0.22738829E-01 0.50864570E+03</pdfrwt>
<totfact> 0.13792143E+03</totfact>
</mgrwt>
<rwgt>
<wgt id='morphing_basis_vector_1'> +3.0439917e-04 </wgt>
<wgt id='morphing_basis_vector_2'> +1.6772246e-04 </wgt>
<wgt id='morphing_basis_vector_3'> +2.2124959e-04 </wgt>
<wgt id='morphing_basis_vector_4'> +7.6770441e-05 </wgt>
<wgt id='morphing_basis_vector_5'> +1.0843630e-04 </wgt>
</rwgt>
</event>
<event>
 4      1 +1.9425900e-05 4.83003000e+02 7.81860800e-03 9.43865900e-02
        2 -1    0    0  501    0 +0.0000000000e+00 +0.0000000000e+00 +1.9161913677e+02 1.9161913677e+02 0.0000000000e+00 0.0000e+00 1.0000e+00
       -2 -1    0    0    0  501 -0.0000000000e+00 -0.0000000000e+00 -3.0436929304e+02 3.0436929304e+02 0.0000000000e+00 0.0000e+00 -1.0000e+00
      -13  1    1    2    0    0 +2.0362643361e+02 +8.6930685541e+01 -1.5541656650e+02 2.7050873867e+02 0.0000000000e+00 0.0000e+00 -1.0000e+00
       13  1    1    2    0    0 -2.0362643361e+02 -8.6930685541e+01 +4.2666410225e+01 2.2547969114e+02 0.0000000000e+00 0.0000e+00 1.0000e+00
<mgrwt>
<rscale>  0 0.48300303E+03</rscale>
<asrwt>0</asrwt>
<pdfrwt beam="1">  1        2 0.29479868E-01 0.48300303E+03</pdfrwt>
<pdfrwt beam="2">  1       -2 0.46826045E-01 0.48300303E+03</pdfrwt>
<totfact> 0.96364895E+02</totfact>
</mgrwt>
<rwgt>
<wgt id='morphing_basis_vector_1'> +2.6234951e-04 </wgt>
<wgt id='morphing_basis_vector_2'> +1.4750032e-04 </wgt>
<wgt id='morphing_basis_vector_3'> +1.8343798e-04 </wgt>
<wgt id='morphing_basis_vector_4'> +5.8186630e-05 </wgt>
<wgt id='morphing_basis_vector_5'> +7.9975164e-05 </wgt>
</rwgt>
</event>
<event>
 4      1 +1.9425900e-05 5.14985100e+02 7.81860800e-03 9.36684500e-02
        2 -1    0    0  501    0 +0.0000000000e+00 +0.0000000000e+00 +6.8002913336e+02 6.8002913336e+02 0.0000000000e+00 0.0000e+00 -1.0000e+00
       -2 -1    0    0    0  501 -0.0000000000e+00 -0.0000000000e+00 -9.7499389693e+01 9.7499389693e+01 0.0000000000e+00 0.0000e+00 1.0000e+00
      -13  1    1    2    0    0 +2.2278168337e+02 +1.2531450288e+02 +3.3821533627e+02 4.2393987400e+02 0.0000000000e+00 0.0000e+00 1.0000e+00
       13  1    1    2    0    0 -2.2278168337e+02 -1.2531450288e+02 +2.4431440739e+02 3.5358864905e+02 0.0000000000e+00 0.0000e+00 -1.0000e+00
<mgrwt>
<rscale>  0 0.51498515E+03</rscale>
<asrwt>0</asrwt>
<pdfrwt beam="1">  1        2 0.10461986E+00 0.51498515E+03</pdfrwt>
<pdfrwt beam="2">  1       -2 0.14999907E-01 0.51498515E+03</pdfrwt>
<totfact> 0.16449525E+03</totfact>
</mgrwt>
<rwgt>
<wgt id='morphing_basis_vector_1'> +3.3209256e-04 </wgt>
<wgt id='morphing_basis_vector_2'> +2.2425034e-04 </wgt>
<wgt id='morphing_basis_vector_3'> +2.2583872e-04 </wgt>
<wgt id='morphing_basis_vector_4'> +7.4424699e-05 </wgt>
<wgt id='morphing_basis_vector_5'> +1.1697535e-04 </wgt>
</rwgt>
</event>
<event>
 4      1 +1.9425900e-05 5.16627400e+02 7.81860800e-03 9.36330900e-02
        2 -1    0    0  501    0 +0.0000000000e+00 +0.0000000000e+00 +6.0668769973e+02 6.0668769973e+02 0.0000000000e+00 0.0000e+00 -1.0000e+00
       -2 -1    0    0    0  501 -0.0000000000e+00 -0.0000000000e+00 -1.0998402605e+02 1.0998402605e+02 0.0000000000e+00 0.0000e+00 1.0000e+00
      -13  1    1    2    0    0 -1.9685175264e+02 +9.4632390893e+01 +5.7036959010e+01 2.2574126033e+02 0.0000000000e+00 0.0000e+00 1.0000e+00
       13  1    1    2    0    0 +1.9685175264e+02 -9.4632390893e+01 +4.3966671467e+02 4.9093046545e+02 0.0000000000e+00 0.0000e+00 -1.0000e+00
<mgrwt>
<rscale>  0 0.51662735E+03</rscale>
<asrwt>0</asrwt>
<pdfrwt beam="1">  1        2 0.93336566E-01 0.51662735E+03</pdfrwt>
<pdfrwt beam="2">  1       -2 0.16920620E-01 0.51662735E+03</pdfrwt>
<totfact> 0.15494472E+03</totfact>
</mgrwt>
<rwgt>
<wgt id='morphing_basis_vector_1'> +3.2013156e-04 </wgt>
<wgt id='morphing_basis_vector_2'> +1.7931907e-04 </wgt>
<wgt id='morphing_basis_vector_3'> +2.3363656e-04 </wgt>
<wgt id='morphing_basis_vector_4'> +8.2710185e-05 </wgt>
<wgt id='morphing_basis_vector_5'> +1.1857709e-04 </wgt>
</rwgt>
</event>
<event>
 4      1 +1.9425900e-05 4.64965300e+02 7.81860800e-03 9.48185000e-02
        2 -1    0    0  501    0 +0.0000000000e+00 +0.0000000000e+00 +1.2367750006e+02 1.2367750006e+02 0.0000000000e+00 0.0000e+00 -1.0000e+00
       -2 -1    0    0    0  501 -0.0000000000e+00 -0.0000000000e+00 -4.3700897295e+02 4.3700897295e+02 0.0000000000e+00 0.0000e+00 1.0000e+00
      -13  1    1    2    0    0 -1.2617856778e+01 +2.3159707840e+02 -1.7579917966e+02 2.9103568270e+02 0.0000000000e+00 0.0000e+00 1.0000e+00
       13  1    1    2    0    0 +1.2617856778e+01 -2.3159707840e+02 -1.3753229323e+02 2.6965079031e+02 0.0000000000e+00 0.0000e+00 -1.0000e+00
<mgrwt>
<rscale>  0 0.46496528E+03</rscale>
<asrwt>0</asrwt>
<pdfrwt beam="1">  1        2 0.19027308E-01 0.46496528E+03</pdfrwt>
<pdfrwt beam="2">  1       -2 0.67232150E-01 0.46496528E+03</pdfrwt>
<totfact> 0.78132910E+02</totfact>
</mgrwt>
<rwgt>
<wgt id='morphing_basis_vector_1'> +2.3909453e-04 </wgt>
<wgt id='morphing_basis_vector_2'> +1.4484991e-04 </wgt>
<wgt id='morphing_basis_vector_3'> +1.5802788e-04 </wgt>
<wgt id='morphing_basis_vector_4'> +4.6668300e-05 </wgt>
<wgt id='morphing_basis_vector_5'> +6.3456633e-05 </wgt>
</rwgt>
</event>
<event>
 4      1 +1.9425900e-05 4.71936100e+02 7.81860800e-03 9.46491600e-02
        2 -1    0    0  501    0 +0.0000000000e+00 +0.0000000000e+00 +9.2300428363e+01 9.2300428363e+01 0.0000000000e+00 0.0000e+00 -1.0000e+00
       -2 -1    0    0    0  501 -0.0000000000e+00 -0.0000000000e+00 -6.0325749148e+02 6.0325749148e+02 0.0000000000e+00 0.0000e+00 1.0000e+00
      -13  1    1    2    0    0 +2.0271311411e+02 -1.0219276963e+02 -3.5036626014e+02 4.1748351470e+02 0.0000000000e+00 0.0000e+00 1.0000e+00
       13  1    1    2    0    0 -2.0271311411e+02 +1.0219276963e+02 -1.6059080297e+02 2.7807440514e+02 0.0000000000e+00 0.0000e+00 -1.0000e+00
<mgrwt>
<rscale>  0 0.47193612E+03</rscale>
<asrwt>0</asrwt>
<pdfrwt beam="1">  1        2 0.14200066E-01 0.47193612E+03</pdfrwt>
<pdfrwt beam="2">  1       -2 0.92808847E-01 0.47193612E+03</pdfrwt>
<totfact> 0.54483120E+02</totfact>
</mgrwt>
<rwgt>
<wgt id='morphing_basis_vector_1'> +2.4626377e-04 </wgt>
<wgt id='morphing_basis_vector_2'> +1.4099596e-04 </wgt>
<wgt id='morphing_basis_vector_3'> +1.6847699e-04 </wgt>
<wgt id='morphing_basis_vector_4'> +5.1265835e-05 </wgt>
<wgt id='morphing_basis_vector_5'> +6.9452809e-05 </wgt>
</rwgt>
</event>
<event>
 4      1 +1.9425900e-05 4.83398900e+02 7.81860800e-03 9.43773400e-02
        2 -1    0    0  501    0 +0.0000000000e+00 +0.0000000000e+00 +6.8628119457e+02 6.8628119457e+02 0.0000000000e+00 0.0000e+00 1.0000e+00
       -2 -1    0    0    0  501 -0.0000000000e+00 -0.0000000000e+00 -8.5123446764e+01 8.5123446764e+01 0.0000000000e+00 0.0000e+00 -1.0000e+00
      -13  1    1    2    0    0 +4.5368474382e+00 +2.1355455013e+02 +1.2008844493e+02 2.4504563548e+02 0.0000000000e+00 0.0000e+00 -1.0000e+00
       13  1    1    2    0    0 -4.5368474382e+00 -2.1355455013e+02 +4.8106930289e+02 5.2635900585e+02 0.0000000000e+00 0.0000e+00 1.0000e+00
<mgrwt>
<rscale>  0 0.48339889E+03</rscale>
<asrwt>0</asrwt>
<pdfrwt beam="1">  1        2 0.10558172E+00 0.48339889E+03</pdfrwt>
<pdfrwt beam="2">  1       -2 0.13095915E-01 0.48339889E+03</pdfrwt>
<totfact> 0.20208137E+03</totfact>
</mgrwt>
<rwgt>
<wgt id='morphing_basis_vector_1'> +2.6250248e-04 </wgt>
<wgt id='morphing_basis_vector_2'> +1.4637759e-04 </wgt>
<wgt id='morphing_basis_vector_3'> +1.8420725e-04 </wgt>
<wgt id='morphing_basis_vector_4'> +5.8592722e-05 </wgt>
<wgt id='morphing_basis_vector_5'> +8.0350163e-05 </wgt>
</rwgt>
</event>
<event>
 4      1 +1.9425900e-05 4.71991100e+02 7.81860800e-03 9.46478300e-02
        2 -1    0    0  501    0 +0.0000000000e+00 +0.0000000000e+00 +5.1585658866e+02 5.1585658866e+02 0.0000000000e+00 0.0000e+00 -1.0000e+00
       -2 -1    0    0    0  501 -0.0000000000e+00 -0.0000000000e+00 -1.0796394182e+02 1.0796394182e+02 0.0000000000e+00 0.0000e+00 1.0000e+00
      -13  1    1    2    0    0 +2.0938664195e+02 +1.0784659055e+02 +1.8433118103e+02 2.9908466564e+02 0.0000000000e+00 0.0000e+00 1.0000e+00
       13  1    1    2    0    0 -2.0938664195e+02 -1.0784659055e+02 +2.2356146580e+02 3.2473586484e+02 0.0000000000e+00 0.0000e+00 -1.0000e+00
<mgrwt>
<rscale>  0 0.47199115E+03</rscale>
<asrwt>0</asrwt>
<pdfrwt beam="1">  1        2 0.79362551E-01 0.47199115E+03</pdfrwt>
<pdfrwt beam="2">  1       -2 0.16609837E-01 0.47199115E+03</pdfrwt>
<totfact> 0.19227116E+03</totfact>
</mgrwt>
<rwgt>
<wgt id='morphing_basis_vector_1'> +2.4989026e-04 </wgt>
<wgt id='morphing_basis_vector_2'> +1.5202413e-04 </wgt>
<wgt id='morphing_basis_vector_3'> +1.6658599e-04 </wgt>
<wgt id='morphing_basis_vector_4'> +5.0310592e-05 </wgt>
<wgt id='morphing_basis_vector_5'> +6.9677630e-05 </wgt>
</rwgt>
</event>
<event>
 4      1 +1.9425900e-05 4.97987200e+02 7.81860800e-03 9.40429200e-02
        2 -1    0    0  501    0 +0.0000000000e+00 +0.0000000000e+00 +6.8750413839e+02 6.8750413839e+02 0.0000000000e+00 0.0000e+00 1.0000e+00
       -2 -1    0    0    0  501 -0.0000000000e+00 -0.0000000000e+00 -9.0178105823e+01 9.0178105823e+01 0.0000000000e+00 0.0000e+00 -1.0000e+00
      -13  1    1    2    0    0 -1.3190502418e+02 -2.0090222958e+02 +1.9700949761e+02 3.1076258366e+02 0.0000000000e+00 0.0000e+00 -1.0000e+00
       13  1    1    2    0    0 +1.3190502418e+02 +2.0090222958e+02 +4.0031653495e+02 4.6691966055e+02 0.0000000000e+00 0.0000e+00 1.0000e+00
<mgrwt>
<rscale>  0 0.49798723E+03</rscale>
<asrwt>0</asrwt>
<pdfrwt beam="1">  1        2 0.10576986E+00 0.49798723E+03</pdfrwt>
<pdfrwt beam="2">  1       -2 0.13873555E-01 0.49798723E+03</pdfrwt>
<totfact> 0.18396085E+03</totfact>
</mgrwt>
<rwgt>
<wgt id='morphing_basis_vector_1'> +2.8890452e-04 </wgt>
<wgt id='morphing_basis_vector_2'> +1.6716634e-04 </wgt>
<wgt id='morphing_basis_vector_3'> +2.0376594e-04 </wgt>
<wgt id='morphing_basis_vector_4'> +6.7512593e-05 </wgt>
<wgt id='morphing_basis_vector_5'> +9.6002793e-05 </wgt>
</rwgt>
</event>
<event>
 4      1 +1.9425900e-05 5.15773700e+02 7.81860800e-03 9.36514600e-02
        2 -1    0    0  501    0 +0.0000000000e+00 +0.0000000000e+00 +2.9764758001e+02 2.9764758001e+02 0.0000000000e+00 0.0000e+00 -1.0000e+00
       -2 -1    0    0    0  501 -0.0000000000e+00 -0.0000000000e+00 -2.2343746357e+02 2.2343746357e+02 0.0000000000e+00 0.0000e+00 1.0000e+00
      -13  1    1    2    0    0 +1.6805355080e+02 -1.5996914660e+01 -1.5985826572e+02 2.3249206940e+02 0.0000000000e+00 0.0000e+00 1.0000e+00
       13  1    1    2    0    0 -1.6805355080e+02 +1.5996914660e+01 +2.3406838217e+02 2.8859297418e+02 0.0000000000e+00 0.0000e+00 -1.0000e+00
<mgrwt>
<rscale>  0 0.51577367E+03</rscale>
<asrwt>0</asrwt>
<pdfrwt beam="1">  1        2 0.45791936E-01 0.51577367E+03</pdfrwt>
<pdfrwt beam="2">  1       -2 0.34374994E-01 0.51577367E+03</pdfrwt>
<totfact> 0.10368970E+03</totfact>
</mgrwt>
<rwgt>
<wgt id='morphing_basis_vector_1'> +3.1767993e-04 </wgt>
<wgt id='morphing_basis_vector_2'> +1.7575896e-04 </wgt>
<wgt id='morphing_basis_vector_3'> +2.3252999e-04 </wgt>
<wgt id='morphing_basis_vector_4'> +8.2404034e-05 </wgt>
<wgt id='morphing_basis_vector_5'> +1.1743783e-04 </wgt>
</rwgt>
</event>
<event>
 4      1 +1.9425900e-05 4.97469000e+02 7.81860800e-03 9.40545900e-02
        2 -1    0    0  501    0 +0.0000000000e+00 +0.0000000000e+00 +7.7308958406e+02 7.7308958406e+02 0.0000000000e+00 0.0000e+00 1.0000e+00
       -2 -1    0    0    0  501 -0.0000000000e+00 -0.0000000000e+00 -8.0028033698e+01 8.0028033698e+01 0.0000000000e+00 0.0000e+00 -1.0000e+00
      -13  1    1    2    0    0 -2.1758751828e+01 +2.2892877829e+02 +1.8395697605e+02 2.9448598923e+02 0.0000000000e+00 0.0000e+00 -1.0000e+00
       13  1    1    2    0    0 +2.1758751828e+01 -2.2892877829e+02 +5.0910457431e+02 5.5863162853e+02 0.0000000000e+00 0.0000e+00 1.0000e+00
<mgrwt>
<rscale>  0 0.49746895E+03</rscale>
<asrwt>0</asrwt>
<pdfrwt beam="1">  1        2 0.11893685E+00 0.49746895E+03</pdfrwt>
<pdfrwt beam="2">  1       -2 0.12312006E-01 0.49746895E+03</pdfrwt>
<totfact> 0.19271924E+03</totfact>
</mgrwt>
<rwgt>
<wgt id='morphing_basis_vector_1'> +2.8661213e-04 </wgt>
<wgt id='morphing_basis_vector_2'> +1.6229979e-04 </wgt>
<wgt id='morphing_basis_vector_3'> +2.0359709e-04 </wgt>
<wgt id='morphing_basis_vector_4'> +6.7695274e-05 </wgt>
<wgt id='morphing_basis_vector_5'> +9.5360890e-05 </wgt>
</rwgt>
</event>
<event>
 4      1 +1.9425900e-05 5.15256100e+02 7.81860800e-03 9.36626100e-02
        2 -1    0    0  501    0 +0.0000000000e+00 +0.0000000000e+00 +1.7760368138e+02 1.7760368138e+02 0.0000000000e+00 0.0000e+00 -1.0000e+00
       -2 -1    0    0    0  501 -0.0000000000e+00 -0.0000000000e+00 -3.7370964270e+02 3.7370964270e+02 0.0000000000e+00 0.0000e+00 1.0000e+00
      -13  1    1    2    0    0 +9.5252284360e+01 -2.2449016271e+02 -1.8695388320e+02 3.0727932777e+02 0.0000000000e+00 0.0000e+00 1.0000e+00
       13  1    1    2    0    0 -9.5252284360e+01 +2.2449016271e+02 -9.1520781169e+00 2.4403399632e+02 0.0000000000e+00 0.0000e+00 -1.0000e+00
<mgrwt>
<rscale>  0 0.51525609E+03</rscale>
<asrwt>0</asrwt>
<pdfrwt beam="1">  1        2 0.27323643E-01 0.51525609E+03</pdfrwt>
<pdfrwt beam="2">  1       -2 0.57493791E-01 0.51525609E+03</pdfrwt>
<totfact> 0.70335919E+02</totfact>
</mgrwt>
<rwgt>
<wgt id='morphing_basis_vector_1'> +3.1944473e-04 </wgt>
<wgt id='morphing_basis_vector_2'> +1.8368987e-04 </wgt>
<wgt id='morphing_basis_vector_3'> +2.3076298e-04 </wgt>
<wgt id='morphing_basis_vector_4'> +8.0714934e-05 </wgt>
<wgt id='morphing_basis_vector_5'> +1.1686375e-04 </wgt>
</rwgt>
</event>
<event>
 4      1 +1.9425900e-05 5.15653200e+02 7.81860800e-03 9.36540500e-02
        2 -1    0    0  501    0 +0.0000000000e+00 +0.0000000000e+00 +1.0362812267e+03 1.0362812267e+03 0.0000000000e+00 0.0000e+00 1.0000e+00
       -2 -1    0    0    0  501 -0.0000000000e+00 -0.0000000000e+00 -6.4147226395e+01 6.4147226395e+01 0.0000000000e+00 0.0000e+00 -1.0000e+00
      -13  1    1    2    0    0 +5.9666328313e+01 +2.4423630578e+02 +3.6416221357e+02 4.4252182046e+02 0.0000000000e+00 0.0000e+00 -1.0000e+00
       13  1    1    2    0    0 -5.9666328313e+01 -2.4423630578e+02 +6.0797178674e+02 6.5790663264e+02 0.0000000000e+00 0.0000e+00 1.0000e+00
<mgrwt>
<rscale>  0 0.51565324E+03</rscale>
<asrwt>0</asrwt>
<pdfrwt beam="1">  1        2 0.15942787E+00 0.51565324E+03</pdfrwt>
<pdfrwt beam="2">  1       -2 0.98688048E-02 0.51565324E+03</pdfrwt>
<totfact> 0.18470408E+03</totfact>
</mgrwt>
<rwgt>
<wgt id='morphing_basis_vector_1'> +3.2175681e-04 </wgt>
<wgt id='morphing_basis_vector_2'> +1.8899132e-04 </wgt>
<wgt id='morphing_basis_vector_3'> +2.3088188e-04 </wgt>
<wgt id='morphing_basis_vector_4'> +8.0307518e-05 </wgt>
<wgt id='morphing_basis_vector_5'> +1.1743152e-04 </wgt>
</rwgt>
</event>
<event>
 4      1 +1.9425900e-05 4.76787700e+02 7.81860800e-03 9.45331100e-02
        2 -1    0    0  501    0 +0.0000000000e+00 +0.0000000000e+00 +8.9772207505e+02 8.9772207505e+02 0.0000000000e+00 0.0000e+00 -1.0000e+00
       -2 -1    0    0    0  501 -0.0000000000e+00 -0.0000000000e+00 -6.3306476518e+01 6.3306476518e+01 0.0000000000e+00 0.0000e+00 1.0000e+00
      -13  1    1    2    0    0 -1.0773506587e+02 -1.6353393395e+02 +1.4318982514e+02 2.4259744020e+02 0.0000000000e+00 0.0000e+00 1.0000e+00
       13  1    1    2    0    0 +1.0773506587e+02 +1.6353393395e+02 +6.9122577339e+02 7.1843111136e+02 0.0000000000e+00 0.0000e+00 -1.0000e+00
<mgrwt>
<rscale>  0 0.47678767E+03</rscale>
<asrwt>0</asrwt>
<pdfrwt beam="1">  1        2 0.13811108E+00 0.47678767E+03</pdfrwt>
<pdfrwt beam="2">  1       -2 0.97394586E-02 0.47678767E+03</pdfrwt>
<totfact> 0.22977576E+03</totfact>
</mgrwt>
<rwgt>
<wgt id='morphing_basis_vector_1'> +2.5156845e-04 </wgt>
<wgt id='morphing_basis_vector_2'> +1.3872952e-04 </wgt>
<wgt id='morphing_basis_vector_3'> +1.7579016e-04 </wgt>
<wgt id='morphing_basis_vector_4'> +5.4697072e-05 </wgt>
<wgt id='morphing_basis_vector_5'> +7.3864533e-05 </wgt>
</rwgt>
</event>
<event>
 4      1 +1.9425900e-05 5.15380900e+02 7.81860800e-03 9.36599200e-02
        2 -1    0    0  501    0 +0.0000000000e+00 +0.0000000000e+00 +1.8558846803e+02 1.8558846803e+02 0.0000000000e+00 0.0000e+00 1.0000e+00
       -2 -1    0    0    0  501 -0.0000000000e+00 -0.0000000000e+00 -3.5780445111e+02 3.5780445111e+02 0.0000000000e+00 0.0000e+00 -1.0000e+00
      -13  1    1    2    0    0 +8.1386127992e+01 +2.3334692403e+02 -9.1338620156e+00 2.4730126611e+02 0.0000000000e+00 0.0000e+00 -1.0000e+00
       13  1    1    2    0    0 -8.1386127992e+01 -2.3334692403e+02 -1.6308212106e+02 2.9609165303e+02 0.0000000000e+00 0.0000e+00 1.0000e+00
<mgrwt>
<rscale>  0 0.51538095E+03</rscale>
<asrwt>0</asrwt>
<pdfrwt beam="1">  1        2 0.28552072E-01 0.51538095E+03</pdfrwt>
<pdfrwt beam="2">  1       -2 0.55046838E-01 0.51538095E+03</pdfrwt>
<totfact> 0.72927394E+02</totfact>
</mgrwt>
<rwgt>
<wgt id='morphing_basis_vector_1'> +3.4472263e-04 </wgt>
<wgt id='morphing_basis_vector_2'> +2.6160589e-04 </wgt>
<wgt id='morphing_basis_vector_3'> +2.2247876e-04 </wgt>
<wgt id='morphing_basis_vector_4'> +6.9215284e-05 </wgt>
<wgt id='morphing_basis_vector_5'> +1.1789882e-04 </wgt>
</rwgt>
</event>
<event>
 4      1 +1.9425900e-05 4.35542800e+02 7.81860800e-03 9.55692400e-02
        2 -1    0    0  501    0 +0.0000000000e+00 +0.0000000000e+00 +1.0811010537e+03 1.0811010537e+03 0.0000000000e+00 0.0000e+00 1.0000e+00
       -2 -1    0    0    0  501 -0.0000000000e+00 -0.0000000000e+00 -4.3866740618e+01 4.3866740618e+01 0.0000000000e+00 0.0000e+00 -1.0000e+00
      -13  1    1    2    0    0 -1.1818582653e+02 -1.5250234364e+02 +7.7947220164e+02 8.0299549659e+02 0.0000000000e+00 0.0000e+00 -1.0000e+00
       13  1    1    2    0    0 +1.1818582653e+02 +1.5250234364e+02 +2.5776211144e+02 3.2197229773e+02 0.0000000000e+00 0.0000e+00 1.0000e+00
<mgrwt>
<rscale>  0 0.43554279E+03</rscale>
<asrwt>0</asrwt>
<pdfrwt beam="1">  1        2 0.16632322E+00 0.43554279E+03</pdfrwt>
<pdfrwt beam="2">  1       -2 0.67487302E-02 0.43554279E+03</pdfrwt>
<totfact> 0.31219315E+03</totfact>
</mgrwt>
<rwgt>
<wgt id='morphing_basis_vector_1'> +2.2295081e-04 </wgt>
<wgt id='morphing_basis_vector_2'> +1.9468051e-04 </wgt>
<wgt id='morphing_basis_vector_3'> +1.0767530e-04 </wgt>
<wgt id='morphing_basis_vector_4'> +3.0890112e-05 </wgt>
<wgt id='morphing_basis_vector_5'> +4.2826799e-05 </wgt>
</rwgt>
</event>
<event>
 4      1 +1.9425900e-05 4.44806300e+02 7.81860800e-03 9.53263100e-02
        2 -1    0    0  501    0 +0.0000000000e+00 +0.0000000000e+00 +1.0898611842e+02 1.0898611842e+02 0.0000000000e+00 0.0000e+00 1.0000e+00
       -2 -1    0    0    0  501 -0.0000000000e+00 -0.0000000000e+00 -4.5384834212e+02 4.5384834212e+02 0.0000000000e+00 0.0000e+00 -1.0000e+00
      -13  1    1    2    0    0 -1.1650489698e+02 -3.4044834339e+01 -4.0824352068e+02 4.2590517013e+02 0.0000000000e+00 0.0000e+00 -1.0000e+00
       13  1    1    2    0    0 +1.1650489698e+02 +3.4044834339e+01 +6.3381296981e+01 1.3692929041e+02 0.0000000000e+00 0.0000e+00 1.0000e+00
<mgrwt>
<rscale>  0 0.44480634E+03</rscale>
<asrwt>0</asrwt>
<pdfrwt beam="1">  1        2 0.16767095E-01 0.44480634E+03</pdfrwt>
<pdfrwt beam="2">  1       -2 0.69822823E-01 0.44480634E+03</pdfrwt>
<totfact> 0.84005931E+02</totfact>
</mgrwt>
<rwgt>
<wgt id='morphing_basis_vector_1'> +2.0550609e-04 </wgt>
<wgt id='morphing_basis_vector_2'> +1.1114224e-04 </wgt>
<wgt id='morphing_basis_vector_3'> +1.3891953e-04 </wgt>
<wgt id='morphing_basis_vector_4'> +3.8095408e-05 </wgt>
<wgt id='morphing_basis_vector_5'> +4.7382555e-05 </wgt>
</rwgt>
</event>
<event>
 4      1 +1.9425900e-05 4.36329900e+02 7.81860800e-03 9.55483500e-02
        2 -1    0    0  501    0 +0.0000000000e+00 +0.0000000000e+00 +2.4010093788e+03 2.4010093788e+03 0.0000000000e+00 0.0000e+00 -1.0000e+00
       -2 -1    0    0    0  501 -0.0000000000e+00 -0.0000000000e+00 -1.9823310078e+01 1.9823310078e+01 0.0000000000e+00 0.0000e+00 1.0000e+00
      -13  1    1    2    0    0 +1.8874941385e+02 +1.0884686616e+02 +1.1293185470e+03 1.1501453656e+03 0.0000000000e+00 0.0000e+00 1.0000e+00
       13  1    1    2    0    0 -1.8874941385e+02 -1.0884686616e+02 +1.2518675217e+03 1.2706873232e+03 0.0000000000e+00 0.0000e+00 -1.0000e+00
<mgrwt>
<rscale>  0 0.43632994E+03</rscale>
<asrwt>0</asrwt>
<pdfrwt beam="1">  1        2 0.36938583E+00 0.43632994E+03</pdfrwt>
<pdfrwt beam="2">  1       -2 0.30497419E-02 0.43632994E+03</pdfrwt>
<totfact> 0.19367852E+03</totfact>
</mgrwt>
<rwgt>
<wgt id='morphing_basis_vector_1'> +1.9983383e-04 </wgt>
<wgt id='morphing_basis_vector_2'> +1.2092778e-04 </wgt>
<wgt id='morphing_basis_vector_3'> +1.2648477e-04 </wgt>
<wgt id='morphing_basis_vector_4'> +3.3841862e-05 </wgt>
<wgt id='morphing_basis_vector_5'> +4.1909641e-05 </wgt>
</rwgt>
</event>
<event>
 4      1 +1.9425900e-05 4.50000600e+02 7.81860800e-03 9.51928000e-02
        2 -1    0    0  501    0 +0.0000000000e+00 +0.0000000000e+00 +6.9313735387e+02 6.9313735387e+02 0.0000000000e+00 0.0000e+00 -1.0000e+00
       -2 -1    0    0    0  501 -0.0000000000e+00 -0.0000000000e+00 -7.3037679983e+01 7.3037679983e+01 0.0000000000e+00 0.0000e+00 1.0000e+00
      -13  1    1    2    0    0 +2.1386547360e+02 -6.7104685151e+01 +2.7670022631e+02 3.5609618758e+02 0.0000000000e+00 0.0000e+00 1.0000e+00
       13  1    1    2    0    0 -2.1386547360e+02 +6.7104685151e+01 +3.4339944757e+02 4.1007884627e+02 0.0000000000e+00 0.0000e+00 -1.0000e+00
<mgrwt>
<rscale>  0 0.45000064E+03</rscale>
<asrwt>0</asrwt>
<pdfrwt beam="1">  1        2 0.10663651E+00 0.45000064E+03</pdfrwt>
<pdfrwt beam="2">  1       -2 0.11236567E-01 0.45000064E+03</pdfrwt>
<totfact> 0.25413764E+03</totfact>
</mgrwt>
<rwgt>
<wgt id='morphing_basis_vector_1'> +2.1728256e-04 </wgt>
<wgt id='morphing_basis_vector_2'> +1.3016607e-04 </wgt>
<wgt id='morphing_basis_vector_3'> +1.4116522e-04 </wgt>
<wgt id='morphing_basis_vector_4'> +3.9625150e-05 </wgt>
<wgt id='morphing_basis_vector_5'> +5.1439449e-05 </wgt>
</rwgt>
</event>
<event>
 4      1 +1.9425900e-05 5.05354900e+02 7.81860800e-03 9.38786700e-02
        2 -1    0    0  501    0 +0.0000000000e+00 +0.0000000000e+00 +9.8618730479e+02 9.8618730479e+02 0.0000000000e+00 0.0000e+00 -1.0000e+00
       -2 -1    0    0    0  501 -0.0000000000e+00 -0.0000000000e+00 -6.4740119223e+01 6.4740119223e+01 0.0000000000e+00 0.0000e+00 1.0000e+00
      -13  1    1    2    0    0 -1.2878654189e+02 +1.2211087598e+02 +8.6694259648e+01 1.9751692095e+02 0.0000000000e+00 0.0000e+00 1.0000e+00
       13  1    1    2    0    0 +1.2878654189e+02 -1.2211087598e+02 +8.3475292592e+02 8.5341050306e+02 0.0000000000e+00 0.0000e+00 -1.0000e+00
<mgrwt>
<rscale>  0 0.50535486E+03</rscale>
<asrwt>0</asrwt>
<pdfrwt beam="1">  1        2 0.15172111E+00 0.50535486E+03</pdfrwt>
<pdfrwt beam="2">  1       -2 0.99600191E-02 0.50535486E+03</pdfrwt>
<totfact> 0.19528571E+03</totfact>
</mgrwt>
<rwgt>
<wgt id='morphing_basis_vector_1'> +2.9868409e-04 </wgt>
<wgt id='morphing_basis_vector_2'> +1.6492440e-04 </wgt>
<wgt id='morphing_basis_vector_3'> +2.1609914e-04 </wgt>
<wgt id='morphing_basis_vector_4'> +7.4158176e-05 </wgt>
<wgt id='morphing_basis_vector_5'> +1.0445189e-04 </wgt>
</rwgt>
</event>
<event>
 4      1 +1.9425900e-05 4.72782000e+02 7.81860800e-03 9.46288100e-02
        2 -1    0    0  501    0 +0.0000000000e+00 +0.0000000000e+00 +1.6684311619e+02 1.6684311619e+02 0.0000000000e+00 0.0000e+00 1.0000e+00
       -2 -1    0    0    0  501 -0.0000000000e+00 -0.0000000000e+00 -3.3492969742e+02 3.3492969742e+02 0.0000000000e+00 0.0000e+00 -1.0000e+00
      -13  1    1    2    0    0 -2.0661327737e+02 -1.0421216501e+02 -1.3528966990e+02 2.6805319715e+02 0.0000000000e+00 0.0000e+00 -1.0000e+00
       13  1    1    2    0    0 +2.0661327737e+02 +1.0421216501e+02 -3.2796911333e+01 2.3371961645e+02 0.0000000000e+00 0.0000e+00 1.0000e+00
<mgrwt>
<rscale>  0 0.47278204E+03</rscale>
<asrwt>0</asrwt>
<pdfrwt beam="1">  1        2 0.25668172E-01 0.47278204E+03</pdfrwt>
<pdfrwt beam="2">  1       -2 0.51527645E-01 0.47278204E+03</pdfrwt>
<totfact> 0.94003588E+02</totfact>
</mgrwt>
<rwgt>
<wgt id='morphing_basis_vector_1'> +2.4845474e-04 </wgt>
<wgt id='morphing_basis_vector_2'> +1.4455763e-04 </wgt>
<wgt id='morphing_basis_vector_3'> +1.6904378e-04 </wgt>
<wgt id='morphing_basis_vector_4'> +5.1488411e-05 </wgt>
<wgt id='morphing_basis_vector_5'> +7.0270812e-05 </wgt>
</rwgt>
</event>
<event>
 4      1 +1.9425900e-05 4.86486800e+02 7.81860800e-03 9.43055000e-02
        2 -1    0    0  501    0 +0.0000000000e+00 +0.0000000000e+00 +1.4962410525e+03 1.4962410525e+03 0.0000000000e+00 0.0000e+00 -1.0000e+00
       -2 -1    0    0    0  501 -0.0000000000e+00 -0.0000000000e+00 -3.9544004804e+01 3.9544004804e+01 0.0000000000e+00 0.0000e+00 1.0000e+00
      -13  1    1    2    0    0 +7.2208953223e+00 +2.3316411613e+02 +5.1078143523e+02 5.6152944799e+02 0.0000000000e+00 0.0000e+00 1.0000e+00
       13  1    1    2    0    0 -7.2208953223e+00 -2.3316411613e+02 +9.4591561247e+02 9.7425560932e+02 0.0000000000e+00 0.0000e+00 -1.0000e+00
<mgrwt>
<rscale>  0 0.48648685E+03</rscale>
<asrwt>0</asrwt>
<pdfrwt beam="1">  1        2 0.23019089E+00 0.48648685E+03</pdfrwt>
<pdfrwt beam="2">  1       -2 0.60836942E-02 0.48648685E+03</pdfrwt>
<totfact> 0.21396653E+03</totfact>
</mgrwt>
<rwgt>
<wgt id='morphing_basis_vector_1'> +2.6916125e-04 </wgt>
<wgt id='morphing_basis_vector_2'> +1.5446314e-04 </wgt>
<wgt id='morphing_basis_vector_3'> +1.8758775e-04 </wgt>
<wgt id='morphing_basis_vector_4'> +5.9990730e-05 </wgt>
<wgt id='morphing_basis_vector_5'> +8.3567089e-05 </wgt>
</rwgt>
</event>
<event>
 4      1 +1.9425900e-05 4.54661800e+02 7.81860800e-03 9.50745900e-02
        2 -1    0    0  501    0 +0.0000000000e+00 +0.0000000000e+00 +2.8243689995e+02 2.8243689995e+02 0.0000000000e+00 0.0000e+00 -1.0000e+00
       -2 -1    0    0    0  501 -0.0000000000e+00 -0.0000000000e+00 -1.8297655867e+02 1.8297655867e+02 0.0000000000e+00 0.0000e+00 1.0000e+00
      -13  1    1    2    0    0 +6.9401266399e+01 -2.1610412877e+02 +3.6709237755e+01 2.2992411440e+02 0.0000000000e+00 0.0000e+00 1.0000e+00
       13  1    1    2    0    0 -6.9401266399e+01 +2.1610412877e+02 +6.2751103528e+01 2.3548934422e+02 0.0000000000e+00 0.0000e+00 -1.0000e+00
<mgrwt>
<rscale>  0 0.45466177E+03</rscale>
<asrwt>0</asrwt>
<pdfrwt beam="1">  1        2 0.43451831E-01 0.45466177E+03</pdfrwt>
<pdfrwt beam="2">  1       -2 0.28150240E-01 0.45466177E+03</pdfrwt>
<totfact> 0.15616475E+03</totfact>
</mgrwt>
<rwgt>
<wgt id='morphing_basis_vector_1'> +2.2440183e-04 </wgt>
<wgt id='morphing_basis_vector_2'> +1.3618273e-04 </wgt>
<wgt id='morphing_basis_vector_3'> +1.4590344e-04 </wgt>
<wgt id='morphing_basis_vector_4'> +4.1620255e-05 </wgt>
<wgt id='morphing_basis_vector_5'> +5.5034592e-05 </wgt>
</rwgt>
</event>
<event>
 4      1 +1.9425900e-05 4.35005500e+02 7.81860800e-03 9.55835300e-02
        2 -1    0    0  501    0 +0.0000000000e+00 +0.0000000000e+00 +1.2344217754e+03 1.2344217754e+03 0.0000000000e+00 0.0000e+00 -1.0000e+00
       -2 -1    0    0    0  501 -0.0000000000e+00 -0.0000000000e+00 -3.8323568351e+01 3.8323568351e+01 0.0000000000e+00 0.0000e+00 1.0000e+00
      -13  1    1    2    0    0 -1.5524054474e+02 -1.1320063847e+02 +2.9976759055e+02 3.5605423691e+02 0.0000000000e+00 0.0000e+00 1.0000e+00
       13  1    1    2    0    0 +1.5524054474e+02 +1.1320063847e+02 +8.9633061650e+02 9.1669110684e+02 0.0000000000e+00 0.0000e+00 -1.0000e+00
<mgrwt>
<rscale>  0 0.43500550E+03</rscale>
<asrwt>0</asrwt>
<pdfrwt beam="1">  1        2 0.18991101E+00 0.43500550E+03</pdfrwt>
<pdfrwt beam="2">  1       -2 0.58959345E-02 0.43500550E+03</pdfrwt>
<totfact> 0.31310817E+03</totfact>
</mgrwt>
<rwgt>
<wgt id='morphing_basis_vector_1'> +1.9388887e-04 </wgt>
<wgt id='morphing_basis_vector_2'> +1.0674501e-04 </wgt>
<wgt id='morphing_basis_vector_3'> +1.2837258e-04 </wgt>
<wgt id='morphing_basis_vector_4'> +3.3789269e-05 </wgt>
<wgt id='morphing_basis_vector_5'> +4.0796688e-05 </wgt>
</rwgt>
</event>
<event>
 4      1 +1.9425900e-05 4.52152900e+02 7.81860800e-03 9.51380300e-02
        2 -1    0    0  501    0 +0.0000000000e+00 +0.0000000000e+00 +1.0378111083e+03 1.0378111083e+03 0.0000000000e+00 0.0000e+00 -1.0000e+00
       -2 -1    0    0    0  501 -0.0000000000e+00 -0.0000000000e+00 -4.9248431481e+01 4.9248431481e+01 0.0000000000e+00 0.0000e+00 1.0000e+00
      -13  1    1    2    0    0 -1.7113589252e+02 -1.2288518289e+02 +6.9139973603e+02 7.2278755998e+02 0.0000000000e+00 0.0000e+00 1.0000e+00
       13  1    1    2    0    0 +1.7113589252e+02 +1.2288518289e+02 +2.9716294075e+02 3.6427197976e+02 0.0000000000e+00 0.0000e+00 -1.0000e+00
<mgrwt>
<rscale>  0 0.45215294E+03</rscale>
<asrwt>0</asrwt>
<pdfrwt beam="1">  1        2 0.15966323E+00 0.45215294E+03</pdfrwt>
<pdfrwt beam="2">  1       -2 0.75766825E-02 0.45215294E+03</pdfrwt>
<totfact> 0.27750040E+03</totfact>
</mgrwt>
<rwgt>
<wgt id='morphing_basis_vector_1'> +2.3924915e-04 </wgt>
<wgt id='morphing_basis_vector_2'> +1.9074593e-04 </wgt>
<wgt id='morphing_basis_vector_3'> +1.3103358e-04 </wgt>
<wgt id='morphing_basis_vector_4'> +3.7023414e-05 </wgt>
<wgt id='morphing_basis_vector_5'> +5.4110276e-05 </wgt>
</rwgt>
</event>
<event>
 4      1 +1.9425900e-05 4.92736800e+02 7.81860800e-03 9.41618400e-02
        2 -1    0    0  501    0 +0.0000000000e+00 +0.0000000000e+00 +5.0828563723e+02 5.0828563723e+02 0.0000000000e+00 0.0000e+00 1.0000e+00
       -2 -1    0    0    0  501 -0.0000000000e+00 -0.0000000000e+00 -1.1941590342e+02 1.1941590342e+02 0.0000000000e+00 0.0000e+00 -1.0000e+00
      -13  1    1    2    0    0 -2.2313310924e+02 +2.7590485413e+01 +6.6106257839e+01 2.3434943280e+02 0.0000000000e+00 0.0000e+00 -1.0000e+00
       13  1    1    2    0    0 +2.2313310924e+02 -2.7590485413e+01 +3.2276347598e+02 3.9335210785e+02 0.0000000000e+00 0.0000e+00 1.0000e+00
<mgrwt>
<rscale>  0 0.49273680E+03</rscale>
<asrwt>0</asrwt>
<pdfrwt beam="1">  1        2 0.78197789E-01 0.49273680E+03</pdfrwt>
<pdfrwt beam="2">  1       -2 0.18371678E-01 0.49273680E+03</pdfrwt>
<totfact> 0.16596251E+03</totfact>
</mgrwt>
<rwgt>
<wgt id='morphing_basis_vector_1'> +2.7828982e-04 </wgt>
<wgt id='morphing_basis_vector_2'> +1.5674050e-04 </wgt>
<wgt id='morphing_basis_vector_3'> +1.9688916e-04 </wgt>
<wgt id='morphing_basis_vector_4'> +6.4534073e-05 </wgt>
<wgt id='morphing_basis_vector_5'> +9.0120535e-05 </wgt>
</rwgt>
</event>
<event>
 4      1 +1.9425900e-05 4.96741000e+02 7.81860800e-03 9.40710000e-02
        2 -1    0    0  501    0 +0.0000000000e+00 +0.0000000000e+00 +6.5119821700e+02 6.5119821700e+02 0.0000000000e+00 0.0000e+00 -1.0000e+00
       -2 -1    0    0    0  501 -0.0000000000e+00 -0.0000000000e+00 -9.4729829747e+01 9.4729829747e+01 0.0000000000e+00 0.0000e+00 1.0000e+00
      -13  1    1    2    0    0 -1.2506994492e+02 -4.1298105764e+01 -3.7967489126e+01 1.3707499733e+02 0.0000000000e+00 0.0000e+00 1.0000e+00
       13  1    1    2    0    0 +1.2506994492e+02 +4.1298105764e+01 +5.9443587638e+02 6.0885304942e+02 0.0000000000e+00 0.0000e+00 -1.0000e+00
<mgrwt>
<rscale>  0 0.49674096E+03</rscale>
<asrwt>0</asrwt>
<pdfrwt beam="1">  1        2 0.10018434E+00 0.49674096E+03</pdfrwt>
<pdfrwt beam="2">  1       -2 0.14573820E-01 0.49674096E+03</pdfrwt>
<totfact> 0.18138127E+03</totfact>
</mgrwt>
<rwgt>
<wgt id='morphing_basis_vector_1'> +2.8340105e-04 </wgt>
<wgt id='morphing_basis_vector_2'> +1.5548231e-04 </wgt>
<wgt id='morphing_basis_vector_3'> +2.0337375e-04 </wgt>
<wgt id='morphing_basis_vector_4'> +6.7942144e-05 </wgt>
<wgt id='morphing_basis_vector_5'> +9.4462683e-05 </wgt>
</rwgt>
</event>
<event>
 4      1 +1.9425900e-05 4.75213400e+02 7.81860800e-03 9.45706000e-02
        2 -1    0    0  501    0 +0.0000000000e+00 +0.0000000000e+00 +1.7452485019e+02 1.7452485019e+02 0.0000000000e+00 0.0000e+00 1.0000e+00
       -2 -1    0    0    0  501 -0.0000000000e+00 -0.0000000000e+00 -3.2348941179e+02 3.2348941179e+02 0.0000000000e+00 0.0000e+00 -1.0000e+00
      -13  1    1    2    0    0 -5.7641359487e+01 +6.1149752847e+00 -3.1596618788e+02 3.2123908717e+02 0.0000000000e+00 0.0000e+00 -1.0000e+00
       13  1    1    2    0    0 +5.7641359487e+01 -6.1149752847e+00 +1.6700162629e+02 1.7677517481e+02 0.0000000000e+00 0.0000e+00 1.0000e+00
<mgrwt>
<rscale>  0 0.47521339E+03</rscale>
<asrwt>0</asrwt>
<pdfrwt beam="1">  1        2 0.26849977E-01 0.47521339E+03</pdfrwt>
<pdfrwt beam="2">  1       -2 0.49767601E-01 0.47521339E+03</pdfrwt>
<totfact> 0.95459007E+02</totfact>
</mgrwt>
<rwgt>
<wgt id='morphing_basis_vector_1'> +2.4847881e-04 </wgt>
<wgt id='morphing_basis_vector_2'> +1.3527462e-04 </wgt>
<wgt id='morphing_basis_vector_3'> +1.7413152e-04 </wgt>
<wgt id='morphing_basis_vector_4'> +5.3955253e-05 </wgt>
<wgt id='morphing_basis_vector_5'> +7.2346479e-05 </wgt>
</rwgt>
</event>
<event>
 4      1 +1.9425900e-05 5.18865500e+02 7.81860800e-03 9.35851400e-02
        2 -1    0    0  501    0 +0.0000000000e+00 +0.0000000000e+00 +9.0473721181e+02 9.0473721181e+02 0.0000000000e+00 0.0000e+00 -1.0000e+00
       -2 -1    0    0    0  501 -0.0000000000e+00 -0.0000000000e+00 -7.4392145267e+01 7.4392145267e+01 0.0000000000e+00 0.0000e+00 1.0000e+00
      -13  1    1    2    0    0 -1.9203758385e+02 -6.2401662492e+01 +1.0779083612e+02 2.2889138351e+02 0.0000000000e+00 0.0000e+00 1.0000e+00
       13  1    1    2    0    0 +1.9203758385e+02 +6.2401662492e+01 +7.2255423042e+02 7.5023797357e+02 0.0000000000e+00 0.0000e+00 -1.0000e+00
<mgrwt>
<rscale>  0 0.51886546E+03</rscale>
<asrwt>0</asrwt>
<pdfrwt beam="1">  1        2 0.13919033E+00 0.51886546E+03</pdfrwt>
<pdfrwt beam="2">  1       -2 0.11444946E-01 0.51886546E+03</pdfrwt>
<totfact> 0.17663265E+03</totfact>
</mgrwt>
<rwgt>
<wgt id='morphing_basis_vector_1'> +3.2392413e-04 </wgt>
<wgt id='morphing_basis_vector_2'> +1.8039044e-04 </wgt>
<wgt id='morphing_basis_vector_3'> +2.3746236e-04 </wgt>
<wgt id='morphing_basis_vector_4'> +8.4779172e-05 </wgt>
<wgt id='morphing_basis_vector_5'> +1.2150535e-04 </wgt>
</rwgt>
</event>
<event>
 4      1 +1.9425900e-05 5.10725800e+02 7.81860800e-03 9.37608100e-02
        2 -1    0    0  501    0 +0.0000000000e+00 +0.0000000000e+00 +6.6556809154e+02 6.6556809154e+02 0.0000000000e+00 0.0000e+00 1.0000e+00
       -2 -1    0    0    0  501 -0.0000000000e+00 -0.0000000000e+00 -9.7976759542e+01 9.7976759542e+01 0.0000000000e+00 0.0000e+00 -1.0000e+00
      -13  1    1    2    0    0 +1.7395832580e+02 -2.7941170998e+01 +7.4475340443e+00 1.7634532576e+02 0.0000000000e+00 0.0000e+00 -1.0000e+00
       13  1    1    2    0    0 -1.7395832580e+02 +2.7941170998e+01 +5.6014379796e+02 5.8719952532e+02 0.0000000000e+00 0.0000e+00 1.0000e+00
<mgrwt>
<rscale>  0 0.51072578E+03</rscale>
<asrwt>0</asrwt>
<pdfrwt beam="1">  1        2 0.10239509E+00 0.51072578E+03</pdfrwt>
<pdfrwt beam="2">  1       -2 0.15073348E-01 0.51072578E+03</pdfrwt>
<totfact> 0.16745057E+03</totfact>
</mgrwt>
<rwgt>
<wgt id='morphing_basis_vector_1'> +3.0837765e-04 </wgt>
<wgt id='morphing_basis_vector_2'> +1.7050452e-04 </wgt>
<wgt id='morphing_basis_vector_3'> +2.2443815e-04 </wgt>
<wgt id='morphing_basis_vector_4'> +7.8316937e-05 </wgt>
<wgt id='morphing_basis_vector_5'> +1.1101880e-04 </wgt>
</rwgt>
</event>
<event>
 4      1 +1.9425900e-05 4.84846700e+02 7.81860800e-03 9.43435900e-02
        2 -1    0    0  501    0 +0.0000000000e+00 +0.0000000000e+00 +5.8542043148e+02 5.8542043148e+02 0.0000000000e+00 0.0000e+00 1.0000e+00
       -2 -1    0    0    0  501 -0.0000000000e+00 -0.0000000000e+00 -1.0038782509e+02 1.0038782509e+02 0.0000000000e+00 0.0000e+00 -1.0000e+00
      -13  1    1    2    0    0 +3.1874908711e+01 -2.3070723399e+02 +1.4734296281e+02 2.7559351645e+02 0.0000000000e+00 0.0000e+00 -1.0000e+00
       13  1    1    2    0    0 -3.1874908711e+01 +2.3070723399e+02 +3.3768964359e+02 4.1021474012e+02 0.0000000000e+00 0.0000e+00 1.0000e+00
<mgrwt>
<rscale>  0 0.48484671E+03</rscale>
<asrwt>0</asrwt>
<pdfrwt beam="1">  1        2 0.90064680E-01 0.48484671E+03</pdfrwt>
<pdfrwt beam="2">  1       -2 0.15444281E-01 0.48484671E+03</pdfrwt>
<totfact> 0.18714662E+03</totfact>
</mgrwt>
<rwgt>
<wgt id='morphing_basis_vector_1'> +2.6655073e-04 </wgt>
<wgt id='morphing_basis_vector_2'> +1.5306543e-04 </wgt>
<wgt id='morphing_basis_vector_3'> +1.8531953e-04 </wgt>
<wgt id='morphing_basis_vector_4'> +5.8933953e-05 </wgt>
<wgt id='morphing_basis_vector_5'> +8.1891214e-05 </wgt>
</rwgt>
</event>
<event>
 4      1 +1.9425900e-05 4.66724600e+02 7.81860800e-03 9.47754700e-02
        2 -1    0    0  501    0 +0.0000000000e+00 +0.0000000000e+00 +7.4297861364e+02 7.4297861364e+02 0.0000000000e+00 0.0000e+00 -1.0000e+00
       -2 -1    0    0    0  501 -0.0000000000e+00 -0.0000000000e+00 -7.3296826592e+01 7.3296826592e+01 0.0000000000e+00 0.0000e+00 1.0000e+00
      -13  1    1    2    0    0 +1.6760452838e+02 -9.7892692647e+01 +1.0826167698e+02 2.2224951723e+02 0.0000000000e+00 0.0000e+00 1.0000e+00
       13  1    1    2    0    0 -1.6760452838e+02 +9.7892692647e+01 +5.6142011007e+02 5.9402592300e+02 0.0000000000e+00 0.0000e+00 -1.0000e+00
<mgrwt>
<rscale>  0 0.46672465E+03</rscale>
<asrwt>0</asrwt>
<pdfrwt beam="1">  1        2 0.11430440E+00 0.46672465E+03</pdfrwt>
<pdfrwt beam="2">  1       -2 0.11276435E-01 0.46672465E+03</pdfrwt>
<totfact> 0.23239226E+03</totfact>
</mgrwt>
<rwgt>
<wgt id='morphing_basis_vector_1'> +2.3644660e-04 </wgt>
<wgt id='morphing_basis_vector_2'> +1.3016032e-04 </wgt>
<wgt id='morphing_basis_vector_3'> +1.6321882e-04 </wgt>
<wgt id='morphing_basis_vector_4'> +4.8913783e-05 </wgt>
<wgt id='morphing_basis_vector_5'> +6.4708110e-05 </wgt>
</rwgt>
</event>
<event>
 4      1 +1.9425900e-05 5.03377800e+02 7.81860800e-03 9.39224500e-02
        2 -1    0    0  501    0 +0.0000000000e+00 +0.0000000000e+00 +1.1144190634e+02 1.1144190634e+02 0.0000000000e+00 0.0000e+00 -1.0000e+00
       -2 -1    0    0    0  501 -0.0000000000e+00 -0.0000000000e+00 -5.6843341704e+02 5.6843341704e+02 0.0000000000e+00 0.0000e+00 1.0000e+00
      -13  1    1    2    0    0 +7.5861653492e+00 -1.4399547552e+02 -5.0711480258e+02 5.2721690970e+02 0.0000000000e+00 0.0000e+00 1.0000e+00
       13  1    1    2    0    0 -7.5861653492e+00 +1.4399547552e+02 +5.0123291883e+01 1.5265841367e+02 0.0000000000e+00 0.0000e+00 -1.0000e+00
<mgrwt>
<rscale>  0 0.50337780E+03</rscale>
<asrwt>0</asrwt>
<pdfrwt beam="1">  1        2 0.17144909E-01 0.50337780E+03</pdfrwt>
<pdfrwt beam="2">  1       -2 0.87451293E-01 0.50337780E+03</pdfrwt>
<totfact> 0.49647172E+02</totfact>
</mgrwt>
<rwgt>
<wgt id='morphing_basis_vector_1'> +2.9497149e-04 </wgt>
<wgt id='morphing_basis_vector_2'> +1.6226280e-04 </wgt>
<wgt id='morphing_basis_vector_3'> +2.1317726e-04 </wgt>
<wgt id='morphing_basis_vector_4'> +7.2756473e-05 </wgt>
<wgt id='morphing_basis_vector_5'> +1.0209388e-04 </wgt>
</rwgt>
</event>
<event>
 4      1 +1.9425900e-05 5.03181900e+02 7.81860800e-03 9.39268000e-02
        2 -1    0    0  501    0 +0.0000000000e+00 +0.0000000000e+00 +4.3985097146e+02 4.3985097146e+02 0.0000000000e+00 0.0000e+00 -1.0000e+00
       -2 -1    0    0    0  501 -0.0000000000e+00 -0.0000000000e+00 -1.4390786590e+02 1.4390786590e+02 0.0000000000e+00 0.0000e+00 1.0000e+00
      -13  1    1    2    0    0 +2.0917251284e+02 +1.3967717818e+02 +1.5485070991e+02 2.9536688472e+02 0.0000000000e+00 0.0000e+00 1.0000e+00
       13  1    1    2    0    0 -2.0917251284e+02 -1.3967717818e+02 +1.4109239566e+02 2.8839195264e+02 0.0000000000e+00 0.0000e+00 -1.0000e+00
<mgrwt>
<rscale>  0 0.50318193E+03</rscale>
<asrwt>0</asrwt>
<pdfrwt beam="1">  1        2 0.67669379E-01 0.50318193E+03</pdfrwt>
<pdfrwt beam="2">  1       -2 0.22139672E-01 0.50318193E+03</pdfrwt>
<totfact> 0.14340265E+03</totfact>
</mgrwt>
<rwgt>
<wgt id='morphing_basis_vector_1'> +3.0512193e-04 </wgt>
<wgt id='morphing_basis_vector_2'> +1.9465063e-04 </wgt>
<wgt id='morphing_basis_vector_3'> +2.0871362e-04 </wgt>
<wgt id='morphing_basis_vector_4'> +6.8274481e-05 </wgt>
<wgt id='morphing_basis_vector_5'> +1.0227347e-04 </wgt>
</rwgt>
</event>
<event>
 4      1 +1.9425900e-05 4.52762600e+02 7.81860800e-03 9.51225700e-02
        2 -1    0    0  501    0 +0.0000000000e+00 +0.0000000000e+00 +1.7907762635e+03 1.7907762635e+03 0.0000000000e+00 0.0000e+00 1.0000e+00
       -2 -1    0    0    0  501 -0.0000000000e+00 -0.0000000000e+00 -2.8618029288e+01 2.8618029288e+01 0.0000000000e+00 0.0000e+00 -1.0000e+00
      -13  1    1    2    0    0 +1.5219956493e+02 +1.6553568360e+02 +9.8599917215e+02 1.0113165368e+03 0.0000000000e+00 0.0000e+00 -1.0000e+00
       13  1    1    2    0    0 -1.5219956493e+02 -1.6553568360e+02 +7.7615906203e+02 8.0807775596e+02 0.0000000000e+00 0.0000e+00 1.0000e+00
<mgrwt>
<rscale>  0 0.45276258E+03</rscale>
<asrwt>0</asrwt>
<pdfrwt beam="1">  1        2 0.27550395E+00 0.45276258E+03</pdfrwt>
<pdfrwt beam="2">  1       -2 0.44027751E-02 0.45276258E+03</pdfrwt>
<totfact> 0.24203695E+03</totfact>
</mgrwt>
<rwgt>
<wgt id='morphing_basis_vector_1'> +2.2658519e-04 </wgt>
<wgt id='morphing_basis_vector_2'> +1.4949867e-04 </wgt>
<wgt id='morphing_basis_vector_3'> +1.4061039e-04 </wgt>
<wgt id='morphing_basis_vector_4'> +3.9825782e-05 </wgt>
<wgt id='morphing_basis_vector_5'> +5.3831361e-05 </wgt>
</rwgt>
</event>
<event>
 4      1 +1.9425900e-05 4.54332700e+02 7.81860800e-03 9.50828900e-02
        2 -1    0    0  501    0 +0.0000000000e+00 +0.0000000000e+00 +3.1466787995e+02 3.1466787995e+02 0.0000000000e+00 0.0000e+00 1.0000e+00
       -2 -1    0    0    0  501 -0.0000000000e+00 -0.0000000000e+00 -1.6399686453e+02 1.6399686453e+02 0.0000000000e+00 0.0000e+00 -1.0000e+00
      -13  1    1    2    0    0 +5.6263917421e+01 +1.2573152692e+02 -1.1497787694e+02 1.7942674676e+02 0.0000000000e+00 0.0000e+00 -1.0000e+00
       13  1    1    2    0    0 -5.6263917421e+01 -1.2573152692e+02 +2.6564889236e+02 2.9923799772e+02 0.0000000000e+00 0.0000e+00 1.0000e+00
<mgrwt>
<rscale>  0 0.45433268E+03</rscale>
<asrwt>0</asrwt>
<pdfrwt beam="1">  1        2 0.48410443E-01 0.45433268E+03</pdfrwt>
<pdfrwt beam="2">  1       -2 0.25230287E-01 0.45433268E+03</pdfrwt>
<totfact> 0.16705891E+03</totfact>
</mgrwt>
<rwgt>
<wgt id='morphing_basis_vector_1'> +2.1829045e-04 </wgt>
<wgt id='morphing_basis_vector_2'> +1.1842416e-04 </wgt>
<wgt id='morphing_basis_vector_3'> +1.4918187e-04 </wgt>
<wgt id='morphing_basis_vector_4'> +4.2587149e-05 </wgt>
<wgt id='morphing_basis_vector_5'> +5.4470418e-05 </wgt>
</rwgt>
</event>
<event>
 4      1 +1.9425900e-05 4.86697200e+02 7.81860800e-03 9.43006300e-02
        2 -1    0    0  501    0 +0.0000000000e+00 +0.0000000000e+00 +3.3979891320e+02 3.3979891320e+02 0.0000000000e+00 0.0000e+00 1.0000e+00
       -2 -1    0    0    0  501 -0.0000000000e+00 -0.0000000000e+00 -1.7427527665e+02 1.7427527665e+02 0.0000000000e+00 0.0000e+00 -1.0000e+00
      -13  1    1    2    0    0 -1.8600524080e+02 +1.0123269007e+01 -8.2628658432e+01 2.0378401648e+02 0.0000000000e+00 0.0000e+00 -1.0000e+00
       13  1    1    2    0    0 +1.8600524080e+02 -1.0123269007e+01 +2.4815229499e+02 3.1029017337e+02 0.0000000000e+00 0.0000e+00 1.0000e+00
<mgrwt>
<rscale>  0 0.48669723E+03</rscale>
<asrwt>0</asrwt>
<pdfrwt beam="1">  1        2 0.52276756E-01 0.48669723E+03</pdfrwt>
<pdfrwt beam="2">  1       -2 0.26811581E-01 0.48669723E+03</pdfrwt>
<totfact> 0.13832300E+03</totfact>
</mgrwt>
<rwgt>
<wgt id='morphing_basis_vector_1'> +2.6704419e-04 </wgt>
<wgt id='morphing_basis_vector_2'> +1.4703201e-04 </wgt>
<wgt id='morphing_basis_vector_3'> +1.8905389e-04 </wgt>
<wgt id='morphing_basis_vector_4'> +6.0969035e-05 </wgt>
<wgt id='morphing_basis_vector_5'> +8.3674223e-05 </wgt>
</rwgt>
</event>
<event>
 4      1 +1.9425900e-05 4.50599900e+02 7.81860800e-03 9.51775200e-02
        2 -1    0    0  501    0 +0.0000000000e+00 +0.0000000000e+00 +1.5214215505e+02 1.5214215505e+02 0.0000000000e+00 0.0000e+00 1.0000e+00
       -2 -1    0    0    0  501 -0.0000000000e+00 -0.0000000000e+00 -3.3363573754e+02 3.3363573754e+02 0.0000000000e+00 0.0000e+00 -1.0000e+00
      -13  1    1    2    0    0 +1.0518376114e+02 -1.8062717903e+02 -9.7515342017e-02 2.0902107770e+02 0.0000000000e+00 0.0000e+00 1.0000e+00
       13  1    1    2    0    0 -1.0518376114e+02 +1.8062717903e+02 -1.8139606715e+02 2.7675681489e+02 0.0000000000e+00 0.0000e+00 -1.0000e+00
<mgrwt>
<rscale>  0 0.45059987E+03</rscale>
<asrwt>0</asrwt>
<pdfrwt beam="1">  1        2 0.23406485E-01 0.45059987E+03</pdfrwt>
<pdfrwt beam="2">  1       -2 0.51328575E-01 0.45059987E+03</pdfrwt>
<totfact> 0.10545753E+03</totfact>
</mgrwt>
<rwgt>
<wgt id='morphing_basis_vector_1'> +2.3770833e-04 </wgt>
<wgt id='morphing_basis_vector_2'> +1.9127195e-04 </wgt>
<wgt id='morphing_basis_vector_3'> +1.2876624e-04 </wgt>
<wgt id='morphing_basis_vector_4'> +3.6349761e-05 </wgt>
<wgt id='morphing_basis_vector_5'> +5.2976310e-05 </wgt>
</rwgt>
</event>
<event>
 4      1 +1.9425900e-05 4.79239200e+02 7.81860800e-03 9.44750300e-02
        2 -1    0    0  501    0 +0.0000000000e+00 +0.0000000000e+00 +2.9541557378e+02 2.9541557378e+02 0.0000000000e+00 0.0000e+00 -1.0000e+00
       -2 -1    0    0    0  501 -0.0000000000e+00 -0.0000000000e+00 -1.9436196127e+02 1.9436196127e+02 0.0000000000e+00 0.0000e+00 1.0000e+00
      -13  1    1    2    0    0 -2.1871047293e+02 -8.9441778708e+01 +9.1194390847e+01 2.5327952872e+02 0.0000000000e+00 0.0000e+00 1.0000e+00
       13  1    1    2    0    0 +2.1871047293e+02 +8.9441778708e+01 +9.8592216557e+00 2.3649800633e+02 0.0000000000e+00 0.0000e+00 -1.0000e+00
<mgrwt>
<rscale>  0 0.47923919E+03</rscale>
<asrwt>0</asrwt>
<pdfrwt beam="1">  1        2 0.45448550E-01 0.47923919E+03</pdfrwt>
<pdfrwt beam="2">  1       -2 0.29901840E-01 0.47923919E+03</pdfrwt>
<totfact> 0.13378757E+03</totfact>
</mgrwt>
<rwgt>
<wgt id='morphing_basis_vector_1'> +2.6969797e-04 </wgt>
<wgt id='morphing_basis_vector_2'> +1.8530869e-04 </wgt>
<wgt id='morphing_basis_vector_3'> +1.7158143e-04 </wgt>
<wgt id='morphing_basis_vector_4'> +5.1735984e-05 </wgt>
<wgt id='morphing_basis_vector_5'> +7.6891717e-05 </wgt>
</rwgt>
</event>
<event>
 4      1 +1.9425900e-05 4.33642900e+02 7.81860800e-03 9.56198600e-02
        2 -1    0    0  501    0 +0.0000000000e+00 +0.0000000000e+00 +3.6634807720e+02 3.6634807720e+02 0.0000000000e+00 0.0000e+00 -1.0000e+00
       -2 -1    0    0    0  501 -0.0000000000e+00 -0.0000000000e+00 -1.2832480847e+02 1.2832480847e+02 0.0000000000e+00 0.0000e+00 1.0000e+00
      -13  1    1    2    0    0 -1.0370990176e+02 -6.9577690727e+01 -8.3175087320e+01 1.5004963819e+02 0.0000000000e+00 0.0000e+00 1.0000e+00
       13  1    1    2    0    0 +1.0370990176e+02 +6.9577690727e+01 +3.2119835606e+02 3.4462324748e+02 0.0000000000e+00 0.0000e+00 -1.0000e+00
<mgrwt>
<rscale>  0 0.43364293E+03</rscale>
<asrwt>0</asrwt>
<pdfrwt beam="1">  1        2 0.56361242E-01 0.43364293E+03</pdfrwt>
<pdfrwt beam="2">  1       -2 0.19742278E-01 0.43364293E+03</pdfrwt>
<totfact> 0.21242503E+03</totfact>
</mgrwt>
<rwgt>
<wgt id='morphing_basis_vector_1'> +1.9140227e-04 </wgt>
<wgt id='morphing_basis_vector_2'> +1.0331835e-04 </wgt>
<wgt id='morphing_basis_vector_3'> +1.2765055e-04 </wgt>
<wgt id='morphing_basis_vector_4'> +3.3321648e-05 </wgt>
<wgt id='morphing_basis_vector_5'> +3.9876940e-05 </wgt>
</rwgt>
</event>
<event>
 4      1 +1.9425900e-05 4.69638500e+02 7.81860800e-03 9.47046300e-02
        2 -1    0    0  501    0 +0.0000000000e+00 +0.0000000000e+00 +9.5076303691e+02 9.5076303691e+02 0.0000000000e+00 0.0000e+00 -1.0000e+00
       -2 -1    0    0    0  501 -0.0000000000e+00 -0.0000000000e+00 -5.7995618478e+01 5.7995618478e+01 0.0000000000e+00 0.0000e+00 1.0000e+00
      -13  1    1    2    0    0 +1.9228398975e+02 -1.0897942691e+02 +2.7602508347e+02 3.5360924041e+02 0.0000000000e+00 0.0000e+00 1.0000e+00
       13  1    1    2    0    0 -1.9228398975e+02 +1.0897942691e+02 +6.1674233497e+02 6.5514941498e+02 0.0000000000e+00 0.0000e+00 -1.0000e+00
<mgrwt>
<rscale>  0 0.46963854E+03</rscale>
<asrwt>0</asrwt>
<pdfrwt beam="1">  1        2 0.14627123E+00 0.46963854E+03</pdfrwt>
<pdfrwt beam="2">  1       -2 0.89224035E-02 0.46963854E+03</pdfrwt>
<totfact> 0.24372706E+03</totfact>
</mgrwt>
<rwgt>
<wgt id='morphing_basis_vector_1'> +2.4212205e-04 </wgt>
<wgt id='morphing_basis_vector_2'> +1.3685954e-04 </wgt>
<wgt id='morphing_basis_vector_3'> +1.6599912e-04 </wgt>
<wgt id='morphing_basis_vector_4'> +5.0167468e-05 </wgt>
<wgt id='morphing_basis_vector_5'> +6.7346265e-05 </wgt>
</rwgt>
</event>
<event>
 4      1 +1.9425900e-05 4.38138900e+02 7.81860800e-03 9.55005200e-02
        2 -1    0    0  501    0 +0.0000000000e+00 +0.0000000000e+00 +7.8749543020e+02 7.8749543020e+02 0.0000000000e+00 0.0000e+00 1.0000e+00
       -2 -1    0    0    0  501 -0.0000000000e+00 -0.0000000000e+00 -6.0941844055e+01 6.0941844055e+01 0.0000000000e+00 0.0000e+00 -1.0000e+00
      -13  1    1    2    0    0 +2.1401607860e+02 -4.3644352597e+01 +3.3065956883e+02 3.9628709526e+02 0.0000000000e+00 0.0000e+00 -1.0000e+00
       13  1    1    2    0    0 -2.1401607860e+02 +4.3644352597e+01 +3.9589401731e+02 4.5215017899e+02 0.0000000000e+00 0.0000e+00 1.0000e+00
<mgrwt>
<rscale>  0 0.43813890E+03</rscale>
<asrwt>0</asrwt>
<pdfrwt beam="1">  1        2 0.12115314E+00 0.43813890E+03</pdfrwt>
<pdfrwt beam="2">  1       -2 0.93756689E-02 0.43813890E+03</pdfrwt>
<totfact> 0.28829084E+03</totfact>
</mgrwt>
<rwgt>
<wgt id='morphing_basis_vector_1'> +2.0167191e-04 </wgt>
<wgt id='morphing_basis_vector_2'> +1.2088204e-04 </wgt>
<wgt id='morphing_basis_vector_3'> +1.2864666e-04 </wgt>
<wgt id='morphing_basis_vector_4'> +3.4607610e-05 </wgt>
<wgt id='morphing_basis_vector_5'> +4.3074534e-05 </wgt>
</rwgt>
</event>
<event>
 4      1 +1.9425900e-05 4.63317500e+02 7.81860800e-03 9.48589900e-02
        2 -1    0    0  501    0 +0.0000000000e+00 +0.0000000000e+00 +5.1879426809e+02 5.1879426809e+02 0.0000000000e+00 0.0000e+00 1.0000e+00
       -2 -1    0    0    0  501 -0.0000000000e+00 -0.0000000000e+00 -1.0344326787e+02 1.0344326787e+02 0.0000000000e+00 0.0000e+00 -1.0000e+00
      -13  1    1    2    0    0 -1.2333706728e+02 +1.9476085321e+02 +2.3835815481e+02 3.3159980711e+02 0.0000000000e+00 0.0000e+00 1.0000e+00
       13  1    1    2    0    0 +1.2333706728e+02 -1.9476085321e+02 +1.7699284541e+02 2.9063772885e+02 0.0000000000e+00 0.0000e+00 -1.0000e+00
<mgrwt>
<rscale>  0 0.46331749E+03</rscale>
<asrwt>0</asrwt>
<pdfrwt beam="1">  1        2 0.79814501E-01 0.46331749E+03</pdfrwt>
<pdfrwt beam="2">  1       -2 0.15914349E-01 0.46331749E+03</pdfrwt>
<totfact> 0.20466929E+03</totfact>
</mgrwt>
<rwgt>
<wgt id='morphing_basis_vector_1'> +2.4148707e-04 </wgt>
<wgt id='morphing_basis_vector_2'> +1.5827876e-04 </wgt>
<wgt id='morphing_basis_vector_3'> +1.5316538e-04 </wgt>
<wgt id='morphing_basis_vector_4'> +4.4680327e-05 </wgt>
<wgt id='morphing_basis_vector_5'> +6.2305288e-05 </wgt>
</rwgt>
</event>
<event>
 4      1 +1.9425900e-05 4.58980600e+02 7.81860800e-03 9.49663900e-02
        2 -1    0    0  501    0 +0.0000000000e+00 +0.0000000000e+00 +1.4504421901e+03 1.4504421901e+03 0.0000000000e+00 0.0000e+00 -1.0000e+00
       -2 -1    0    0    0  501 -0.0000000000e+00 -0.0000000000e+00 -3.6310170460e+01 3.6310170460e+01 0.0000000000e+00 0.0000e+00 1.0000e+00
      -13  1    1    2    0    0 +1.3154644683e+02 +1.3720196256e+02 +2.9051126733e+02 3.4716803230e+02 0.0000000000e+00 0.0000e+00 -1.0000e+00
       13  1    1    2    0    0 -1.3154644683e+02 -1.3720196256e+02 +1.1236207523e+03 1.1395843282e+03 0.0000000000e+00 0.0000e+00 1.0000e+00
<mgrwt>
<rscale>  0 0.45898062E+03</rscale>
<asrwt>0</asrwt>
<pdfrwt beam="1">  1        2 0.22314491E+00 0.45898062E+03</pdfrwt>
<pdfrwt beam="2">  1       -2 0.55861812E-02 0.45898062E+03</pdfrwt>
<totfact> 0.25811399E+03</totfact>
</mgrwt>
<rwgt>
<wgt id='morphing_basis_vector_1'> +2.2527657e-04 </wgt>
<wgt id='morphing_basis_vector_2'> +1.2370264e-04 </wgt>
<wgt id='morphing_basis_vector_3'> +1.5411123e-04 </wgt>
<wgt id='morphing_basis_vector_4'> +4.4814969e-05 </wgt>
<wgt id='morphing_basis_vector_5'> +5.8192887e-05 </wgt>
</rwgt>
</event>
<event>
 4      1 +1.9425900e-05 4.44056500e+02 7.81860800e-03 9.53457400e-02
        2 -1    0    0  501    0 +0.0000000000e+00 +0.0000000000e+00 +3.0695193292e+02 3.0695193292e+02 0.0000000000e+00 0.0000e+00 1.0000e+00
       -2 -1    0    0    0  501 -0.0000000000e+00 -0.0000000000e+00 -1.6060017477e+02 1.6060017477e+02 0.0000000000e+00 0.0000e+00 -1.0000e+00
      -13  1    1    2    0    0 +9.3352603441e+01 -1.4952047152e+02 -6.8968931577e+01 1.8928231163e+02 0.0000000000e+00 0.0000e+00 -1.0000e+00
       13  1    1    2    0    0 -9.3352603441e+01 +1.4952047152e+02 +2.1532068973e+02 2.7826979606e+02 0.0000000000e+00 0.0000e+00 1.0000e+00
<mgrwt>
<rscale>  0 0.44405646E+03</rscale>
<asrwt>0</asrwt>
<pdfrwt beam="1">  1        2 0.47223374E-01 0.44405646E+03</pdfrwt>
<pdfrwt beam="2">  1       -2 0.24707719E-01 0.44405646E+03</pdfrwt>
<totfact> 0.17788730E+03</totfact>
</mgrwt>
<rwgt>
<wgt id='morphing_basis_vector_1'> +2.0490159e-04 </wgt>
<wgt id='morphing_basis_vector_2'> +1.1174234e-04 </wgt>
<wgt id='morphing_basis_vector_3'> +1.3787655e-04 </wgt>
<wgt id='morphing_basis_vector_4'> +3.7702498e-05 </wgt>
<wgt id='morphing_basis_vector_5'> +4.6873089e-05 </wgt>
</rwgt>
</event>
<event>
 4      1 +1.9425900e-05 4.67329100e+02 7.81860800e-03 9.47607300e-02
        2 -1    0    0  501    0 +0.0000000000e+00 +0.0000000000e+00 +3.8795490451e+02 3.8795490451e+02 0.0000000000e+00 0.0000e+00 1.0000e+00
       -2 -1    0    0    0  501 -0.0000000000e+00 -0.0000000000e+00 -1.4073574347e+02 1.4073574347e+02 0.0000000000e+00 0.0000e+00 -1.0000e+00
      -13  1    1    2    0    0 +3.5893203738e+01 +2.2158205779e+02 +5.0186456747e+01 2.3001219718e+02 0.0000000000e+00 0.0000e+00 -1.0000e+00
       13  1    1    2    0    0 -3.5893203738e+01 -2.2158205779e+02 +1.9703270430e+02 2.9867845080e+02 0.0000000000e+00 0.0000e+00 1.0000e+00
<mgrwt>
<rscale>  0 0.46732910E+03</rscale>
<asrwt>0</asrwt>
<pdfrwt beam="1">  1        2 0.59685369E-01 0.46732910E+03</pdfrwt>
<pdfrwt beam="2">  1       -2 0.21651653E-01 0.46732910E+03</pdfrwt>
<totfact> 0.17116487E+03</totfact>
</mgrwt>
<rwgt>
<wgt id='morphing_basis_vector_1'> +2.3927282e-04 </wgt>
<wgt id='morphing_basis_vector_2'> +1.3667044e-04 </wgt>
<wgt id='morphing_basis_vector_3'> +1.6283159e-04 </wgt>
<wgt id='morphing_basis_vector_4'> +4.8747528e-05 </wgt>
<wgt id='morphing_basis_vector_5'> +6.5334045e-05 </wgt>
</rwgt>
</event>
<event>
 4      1 +1.9425900e-05 5.02719100e+02 7.81860800e-03 9.39370800e-02
        2 -1    0    0  501    0 +0.0000000000e+00 +0.0000000000e+00 +1.1095685100e+03 1.1095685100e+03 0.0000000000e+00 0.0000e+00 -1.0000e+00
       -2 -1    0    0    0  501 -0.0000000000e+00 -0.0000000000e+00 -5.6942527442e+01 5.6942527442e+01 0.0000000000e+00 0.0000e+00 1.0000e+00
      -13  1    1    2    0    0 +9.5551130458e+01 +1.5045336157e+02 +9.3759029310e+02 9.5438031741e+02 0.0000000000e+00 0.0000e+00 1.0000e+00
       13  1    1    2    0    0 -9.5551130458e+01 -1.5045336157e+02 +1.1503568949e+02 2.1213072006e+02 0.0000000000e+00 0.0000e+00 -1.0000e+00
<mgrwt>
<rscale>  0 0.50271915E+03</rscale>
<asrwt>0</asrwt>
<pdfrwt beam="1">  1        2 0.17070283E+00 0.50271915E+03</pdfrwt>
<pdfrwt beam="2">  1       -2 0.87603897E-02 0.50271915E+03</pdfrwt>
<totfact> 0.20117899E+03</totfact>
</mgrwt>
<rwgt>
<wgt id='morphing_basis_vector_1'> +3.7505064e-04 </wgt>
<wgt id='morphing_basis_vector_2'> +4.1381577e-04 </wgt>
<wgt id='morphing_basis_vector_3'> +1.7974110e-04 </wgt>
<wgt id='morphing_basis_vector_4'> +3.8863342e-05 </wgt>
<wgt id='morphing_basis_vector_5'> +1.0450880e-04 </wgt>
</rwgt>
</event>
<event>
 4      1 +1.9425900e-05 5.14059100e+02 7.81860800e-03 9.36884500e-02
        2 -1    0    0  501    0 +0.0000000000e+00 +0.0000000000e+00 +3.7692551241e+02 3.7692551241e+02 0.0000000000e+00 0.0000e+00 1.0000e+00
       -2 -1    0    0    0  501 -0.0000000000e+00 -0.0000000000e+00 -1.7527120550e+02 1.7527120550e+02 0.0000000000e+00 0.0000e+00 -1.0000e+00
      -13  1    1    2    0    0 +1.5434100668e+02 +2.0497200189e+02 +1.1710106780e+02 2.8204135864e+02 0.0000000000e+00 0.0000e+00 -1.0000e+00
       13  1    1    2    0    0 -1.5434100668e+02 -2.0497200189e+02 +8.4553239112e+01 2.7015535928e+02 0.0000000000e+00 0.0000e+00 1.0000e+00
<mgrwt>
<rscale>  0 0.51405910E+03</rscale>
<asrwt>0</asrwt>
<pdfrwt beam="1">  1        2 0.57988540E-01 0.51405910E+03</pdfrwt>
<pdfrwt beam="2">  1       -2 0.26964801E-01 0.51405910E+03</pdfrwt>
<totfact> 0.12201963E+03</totfact>
</mgrwt>
<rwgt>
<wgt id='morphing_basis_vector_1'> +3.2713797e-04 </wgt>
<wgt id='morphing_basis_vector_2'> +2.1322458e-04 </wgt>
<wgt id='morphing_basis_vector_3'> +2.2539158e-04 </wgt>
<wgt id='morphing_basis_vector_4'> +7.5209521e-05 </wgt>
<wgt id='morphing_basis_vector_5'> +1.1567717e-04 </wgt>
</rwgt>
</event>
<event>
 4      1 +1.9425900e-05 4.85359200e+02 7.81860800e-03 9.43316700e-02
        2 -1    0    0  501    0 +0.0000000000e+00 +0.0000000000e+00 +2.5778968930e+02 2.5778968930e+02 0.0000000000e+00 0.0000e+00 1.0000e+00
       -2 -1    0    0    0  501 -0.0000000000e+00 -0.0000000000e+00 -2.2845513125e+02 2.2845513125e+02 0.0000000000e+00 0.0000e+00 -1.0000e+00
      -13  1    1    2    0    0 +4.5178037946e+01 -4.7512911102e+01 -2.1941448579e+02 2.2900054238e+02 0.0000000000e+00 0.0000e+00 -1.0000e+00
       13  1    1    2    0    0 -4.5178037946e+01 +4.7512911102e+01 +2.4874904385e+02 2.5724427817e+02 0.0000000000e+00 0.0000e+00 1.0000e+00
<mgrwt>
<rscale>  0 0.48535915E+03</rscale>
<asrwt>0</asrwt>
<pdfrwt beam="1">  1        2 0.39659952E-01 0.48535915E+03</pdfrwt>
<pdfrwt beam="2">  1       -2 0.35146943E-01 0.48535915E+03</pdfrwt>
<totfact> 0.11704870E+03</totfact>
</mgrwt>
<rwgt>
<wgt id='morphing_basis_vector_1'> +2.6442987e-04 </wgt>
<wgt id='morphing_basis_vector_2'> +1.4439908e-04 </wgt>
<wgt id='morphing_basis_vector_3'> +1.8744913e-04 </wgt>
<wgt id='morphing_basis_vector_4'> +6.0252029e-05 </wgt>
<wgt id='morphing_basis_vector_5'> +8.2280165e-05 </wgt>
</rwgt>
</event>
<event>
 4      1 +1.9425900e-05 4.87147200e+02 7.81860800e-03 9.42902100e-02
        2 -1    0    0  501    0 +0.0000000000e+00 +0.0000000000e+00 +1.8090639202e+02 1.8090639202e+02 0.0000000000e+00 0.0000e+00 1.0000e+00
       -2 -1    0    0    0  501 -0.0000000000e+00 -0.0000000000e+00 -3.2794918804e+02 3.2794918804e+02 0.0000000000e+00 0.0000e+00 -1.0000e+00
      -13  1    1    2    0    0 +1.1743827254e+02 +2.0510545557e+02 -1.2006450967e+01 2.3665196096e+02 0.0000000000e+00 0.0000e+00 -1.0000e+00
       13  1    1    2    0    0 -1.1743827254e+02 -2.0510545557e+02 -1.3503634505e+02 2.7220361909e+02 0.0000000000e+00 0.0000e+00 1.0000e+00
<mgrwt>
<rscale>  0 0.48714722E+03</rscale>
<asrwt>0</asrwt>
<pdfrwt beam="1">  1        2 0.27831753E-01 0.48714722E+03</pdfrwt>
<pdfrwt beam="2">  1       -2 0.50453721E-01 0.48714722E+03</pdfrwt>
<totfact> 0.89173489E+02</totfact>
</mgrwt>
<rwgt>
<wgt id='morphing_basis_vector_1'> +2.8772739e-04 </wgt>
<wgt id='morphing_basis_vector_2'> +2.0934784e-04 </wgt>
<wgt id='morphing_basis_vector_3'> +1.8017136e-04 </wgt>
<wgt id='morphing_basis_vector_4'> +5.4380103e-05 </wgt>
<wgt id='morphing_basis_vector_5'> +8.5027039e-05 </wgt>
</rwgt>
</event>
<event>
 4      1 +1.9425900e-05 4.83950700e+02 7.81860800e-03 9.43644600e-02
        2 -1    0    0  501    0 +0.0000000000e+00 +0.0000000000e+00 +7.0176124345e+02 7.0176124345e+02 0.0000000000e+00 0.0000e+00 -1.0000e+00
       -2 -1    0    0    0  501 -0.0000000000e+00 -0.0000000000e+00 -8.3435893811e+01 8.3435893811e+01 0.0000000000e+00 0.0000e+00 1.0000e+00
      -13  1    1    2    0    0 +1.9722197903e+02 +3.8351243024e+01 +9.0370782229e+01 2.2030480053e+02 0.0000000000e+00 0.0000e+00 1.0000e+00
       13  1    1    2    0    0 -1.9722197903e+02 -3.8351243024e+01 +5.2795456741e+02 5.6489233674e+02 0.0000000000e+00 0.0000e+00 -1.0000e+00
<mgrwt>
<rscale>  0 0.48395073E+03</rscale>
<asrwt>0</asrwt>
<pdfrwt beam="1">  1        2 0.10796326E+00 0.48395073E+03</pdfrwt>
<pdfrwt beam="2">  1       -2 0.12836292E-01 0.48395073E+03</pdfrwt>
<totfact> 0.20309712E+03</totfact>
</mgrwt>
<rwgt>
<wgt id='morphing_basis_vector_1'> +2.6292115e-04 </wgt>
<wgt id='morphing_basis_vector_2'> +1.4544425e-04 </wgt>
<wgt id='morphing_basis_vector_3'> +1.8517855e-04 </wgt>
<wgt id='morphing_basis_vector_4'> +5.9095652e-05 </wgt>
<wgt id='morphing_basis_vector_5'> +8.0884570e-05 </wgt>
</rwgt>
</event>
<event>
 4      1 +1.9425900e-05 4.33699900e+02 7.81860800e-03 9.56183300e-02
        2 -1    0    0  501    0 +0.0000000000e+00 +0.0000000000e+00 +1.2493176187e+03 1.2493176187e+03 0.0000000000e+00 0.0000e+00 -1.0000e+00
       -2 -1    0    0    0  501 -0.0000000000e+00 -0.0000000000e+00 -3.7639669225e+01 3.7639669225e+01 0.0000000000e+00 0.0000e+00 1.0000e+00
      -13  1    1    2    0    0 -1.8102674230e+02 +1.1294970370e+02 +7.2059628141e+02 7.5152333149e+02 0.0000000000e+00 0.0000e+00 1.0000e+00
       13  1    1    2    0    0 +1.8102674230e+02 -1.1294970370e+02 +4.9108166803e+02 5.3543395640e+02 0.0000000000e+00 0.0000e+00 -1.0000e+00
<mgrwt>
<rscale>  0 0.43369991E+03</rscale>
<asrwt>0</asrwt>
<pdfrwt beam="1">  1        2 0.19220268E+00 0.43369991E+03</pdfrwt>
<pdfrwt beam="2">  1       -2 0.57907193E-02 0.43369991E+03</pdfrwt>
<totfact> 0.31563955E+03</totfact>
</mgrwt>
<rwgt>
<wgt id='morphing_basis_vector_1'> +2.0291278e-04 </wgt>
<wgt id='morphing_basis_vector_2'> +1.3862340e-04 </wgt>
<wgt id='morphing_basis_vector_3'> +1.1903820e-04 </wgt>
<wgt id='morphing_basis_vector_4'> +3.2189274e-05 </wgt>
<wgt id='morphing_basis_vector_5'> +4.0596067e-05 </wgt>
</rwgt>
</event>
<event>
 4      1 +1.9425900e-05 4.36488100e+02 7.81860800e-03 9.55441600e-02
        2 -1    0    0  501    0 +0.0000000000e+00 +0.0000000000e+00 +1.3455368016e+03 1.3455368016e+03 0.0000000000e+00 0.0000e+00 1.0000e+00
       -2 -1    0    0    0  501 -0.0000000000e+00 -0.0000000000e+00 -3.5398859805e+01 3.5398859805e+01 0.0000000000e+00 0.0000e+00 -1.0000e+00
      -13  1    1    2    0    0 -1.7551627050e+02 -1.2927349195e+02 +6.2145703692e+02 6.5857911117e+02 0.0000000000e+00 0.0000e+00 1.0000e+00
       13  1    1    2    0    0 +1.7551627050e+02 +1.2927349195e+02 +6.8868090492e+02 7.2235655028e+02 0.0000000000e+00 0.0000e+00 -1.0000e+00
<mgrwt>
<rscale>  0 0.43648811E+03</rscale>
<asrwt>0</asrwt>
<pdfrwt beam="1">  1        2 0.20700562E+00 0.43648811E+03</pdfrwt>
<pdfrwt beam="2">  1       -2 0.54459795E-02 0.43648811E+03</pdfrwt>
<totfact> 0.30625872E+03</totfact>
</mgrwt>
<rwgt>
<wgt id='morphing_basis_vector_1'> +2.0007396e-04 </wgt>
<wgt id='morphing_basis_vector_2'> +1.2117091e-04 </wgt>
<wgt id='morphing_basis_vector_3'> +1.2661367e-04 </wgt>
<wgt id='morphing_basis_vector_4'> +3.3898801e-05 </wgt>
<wgt id='morphing_basis_vector_5'> +4.2015363e-05 </wgt>
</rwgt>
</event>
<event>
 4      1 +1.9425900e-05 4.64024100e+02 7.81860800e-03 9.48416100e-02
        2 -1    0    0  501    0 +0.0000000000e+00 +0.0000000000e+00 +9.2715333276e+02 9.2715333276e+02 0.0000000000e+00 0.0000e+00 1.0000e+00
       -2 -1    0    0    0  501 -0.0000000000e+00 -0.0000000000e+00 -5.8058983523e+01 5.8058983523e+01 0.0000000000e+00 0.0000e+00 -1.0000e+00
      -13  1    1    2    0    0 -3.7826873079e+01 +2.0350853691e+02 +2.1203719220e+02 2.9632139274e+02 0.0000000000e+00 0.0000e+00 -1.0000e+00
       13  1    1    2    0    0 +3.7826873079e+01 -2.0350853691e+02 +6.5705715704e+02 6.8889092354e+02 0.0000000000e+00 0.0000e+00 1.0000e+00
<mgrwt>
<rscale>  0 0.46402405E+03</rscale>
<asrwt>0</asrwt>
<pdfrwt beam="1">  1        2 0.14263896E+00 0.46402405E+03</pdfrwt>
<pdfrwt beam="2">  1       -2 0.89321520E-02 0.46402405E+03</pdfrwt>
<totfact> 0.25172848E+03</totfact>
</mgrwt>
<rwgt>
<wgt id='morphing_basis_vector_1'> +2.3299931e-04 </wgt>
<wgt id='morphing_basis_vector_2'> +1.2942293e-04 </wgt>
<wgt id='morphing_basis_vector_3'> +1.5969386e-04 </wgt>
<wgt id='morphing_basis_vector_4'> +4.7331083e-05 </wgt>
<wgt id='morphing_basis_vector_5'> +6.2410200e-05 </wgt>
</rwgt>
</event>
<event>
 4      1 +1.9425900e-05 4.74612500e+02 7.81860800e-03 9.45849500e-02
        2 -1    0    0  501    0 +0.0000000000e+00 +0.0000000000e+00 +1.5980071405e+02 1.5980071405e+02 0.0000000000e+00 0.0000e+00 -1.0000e+00
       -2 -1    0    0    0  501 -0.0000000000e+00 -0.0000000000e+00 -3.5240299232e+02 3.5240299232e+02 0.0000000000e+00 0.0000e+00 1.0000e+00
      -13  1    1    2    0    0 -1.7593744123e+02 -6.2909092421e+01 -2.5418508803e+02 3.1547043619e+02 0.0000000000e+00 0.0000e+00 1.0000e+00
       13  1    1    2    0    0 +1.7593744123e+02 +6.2909092421e+01 +6.1582809757e+01 1.9673327017e+02 0.0000000000e+00 0.0000e+00 -1.0000e+00
<mgrwt>
<rscale>  0 0.47461247E+03</rscale>
<asrwt>0</asrwt>
<pdfrwt beam="1">  1        2 0.24584725E-01 0.47461247E+03</pdfrwt>
<pdfrwt beam="2">  1       -2 0.54215845E-01 0.47461247E+03</pdfrwt>
<totfact> 0.89438052E+02</totfact>
</mgrwt>
<rwgt>
<wgt id='morphing_basis_vector_1'> +2.4805614e-04 </wgt>
<wgt id='morphing_basis_vector_2'> +1.3628846e-04 </wgt>
<wgt id='morphing_basis_vector_3'> +1.7310086e-04 </wgt>
<wgt id='morphing_basis_vector_4'> +5.3454996e-05 </wgt>
<wgt id='morphing_basis_vector_5'> +7.1808556e-05 </wgt>
</rwgt>
</event>
<event>
 4      1 +1.9425900e-05 4.52431900e+02 7.81860800e-03 9.51309500e-02
        2 -1    0    0  501    0 +0.0000000000e+00 +0.0000000000e+00 +6.8430817071e+02 6.8430817071e+02 0.0000000000e+00 0.0000e+00 -1.0000e+00
       -2 -1    0    0    0  501 -0.0000000000e+00 -0.0000000000e+00 -7.4781580677e+01 7.4781580677e+01 0.0000000000e+00 0.0000e+00 1.0000e+00
      -13  1    1    2    0    0 -1.6554413589e+02 +1.5404963809e+02 +3.1503695507e+02 3.8779432046e+02 0.0000000000e+00 0.0000e+00 1.0000e+00
       13  1    1    2    0    0 +1.6554413589e+02 -1.5404963809e+02 +2.9448963496e+02 3.7129543092e+02 0.0000000000e+00 0.0000e+00 -1.0000e+00
<mgrwt>
<rscale>  0 0.45243186E+03</rscale>
<asrwt>0</asrwt>
<pdfrwt beam="1">  1        2 0.10527818E+00 0.45243186E+03</pdfrwt>
<pdfrwt beam="2">  1       -2 0.11504859E-01 0.45243186E+03</pdfrwt>
<totfact> 0.24869738E+03</totfact>
</mgrwt>
<rwgt>
<wgt id='morphing_basis_vector_1'> +2.2328241e-04 </wgt>
<wgt id='morphing_basis_vector_2'> +1.4042232e-04 </wgt>
<wgt id='morphing_basis_vector_3'> +1.4209940e-04 </wgt>
<wgt id='morphing_basis_vector_4'> +4.0221186e-05 </wgt>
<wgt id='morphing_basis_vector_5'> +5.3422286e-05 </wgt>
</rwgt>
</event>
<event>
 4      1 +1.9425900e-05 4.49022500e+02 7.81860800e-03 9.52177900e-02
        2 -1    0    0  501    0 +0.0000000000e+00 +0.0000000000e+00 +2.8556887588e+02 2.8556887588e+02 0.0000000000e+00 0.0000e+00 1.0000e+00
       -2 -1    0    0    0  501 -0.0000000000e+00 -0.0000000000e+00 -1.7650838076e+02 1.7650838076e+02 0.0000000000e+00 0.0000e+00 -1.0000e+00
      -13  1    1    2    0    0 +1.1507561880e+02 +1.8854182080e+02 +1.3176286567e+01 2.2127817507e+02 0.0000000000e+00 0.0000e+00 -1.0000e+00
       13  1    1    2    0    0 -1.1507561880e+02 -1.8854182080e+02 +9.5884208551e+01 2.4079908157e+02 0.0000000000e+00 0.0000e+00 1.0000e+00
<mgrwt>
<rscale>  0 0.44902249E+03</rscale>
<asrwt>0</asrwt>
<pdfrwt beam="1">  1        2 0.43933673E-01 0.44902249E+03</pdfrwt>
<pdfrwt beam="2">  1       -2 0.27155135E-01 0.44902249E+03</pdfrwt>
<totfact> 0.16410424E+03</totfact>
</mgrwt>
<rwgt>
<wgt id='morphing_basis_vector_1'> +2.1447085e-04 </wgt>
<wgt id='morphing_basis_vector_2'> +1.2478222e-04 </wgt>
<wgt id='morphing_basis_vector_3'> +1.4109754e-04 </wgt>
<wgt id='morphing_basis_vector_4'> +3.9446598e-05 </wgt>
<wgt id='morphing_basis_vector_5'> +5.0629635e-05 </wgt>
</rwgt>
</event>
<event>
 4      1 +1.9425900e-05 4.97919400e+02 7.81860800e-03 9.40444500e-02
        2 -1    0    0  501    0 +0.0000000000e+00 +0.0000000000e+00 +1.6189639695e+03 1.6189639695e+03 0.0000000000e+00 0.0000e+00 -1.0000e+00
       -2 -1    0    0    0  501 -0.0000000000e+00 -0.0000000000e+00 -3.8284315156e+01 3.8284315156e+01 0.0000000000e+00 0.0000e+00 1.0000e+00
      -13  1    1    2    0    0 -1.5445403671e+02 +1.9515760716e+02 +7.6971864563e+02 8.0895570615e+02 0.0000000000e+00 0.0000e+00 1.0000e+00
       13  1    1    2    0    0 +1.5445403671e+02 -1.9515760716e+02 +8.1096100874e+02 8.4829257853e+02 0.0000000000e+00 0.0000e+00 -1.0000e+00
<mgrwt>
<rscale>  0 0.49791938E+03</rscale>
<asrwt>0</asrwt>
<pdfrwt beam="1">  1        2 0.24907133E+00 0.49791938E+03</pdfrwt>
<pdfrwt beam="2">  1       -2 0.58898959E-02 0.49791938E+03</pdfrwt>
<totfact> 0.19276190E+03</totfact>
</mgrwt>
<rwgt>
<wgt id='morphing_basis_vector_1'> +2.9394779e-04 </wgt>
<wgt id='morphing_basis_vector_2'> +1.8311578e-04 </wgt>
<wgt id='morphing_basis_vector_3'> +2.0148442e-04 </wgt>
<wgt id='morphing_basis_vector_4'> +6.5447377e-05 </wgt>
<wgt id='morphing_basis_vector_5'> +9.6137165e-05 </wgt>
</rwgt>
</event>
<event>
 4      1 +1.9425900e-05 4.81676100e+02 7.81860800e-03 9.44176700e-02
        2 -1    0    0  501    0 +0.0000000000e+00 +0.0000000000e+00 +3.1903551407e+02 3.1903551407e+02 0.0000000000e+00 0.0000e+00 -1.0000e+00
       -2 -1    0    0    0  501 -0.0000000000e+00 -0.0000000000e+00 -1.8180724797e+02 1.8180724797e+02 0.0000000000e+00 0.0000e+00 1.0000e+00
      -13  1    1    2    0    0 +2.3508135117e+02 +2.1931985727e+01 +1.9197059036e+01 2.3688136428e+02 0.0000000000e+00 0.0000e+00 1.0000e+00
       13  1    1    2    0    0 -2.3508135117e+02 -2.1931985727e+01 +1.1803120707e+02 2.6396139776e+02 0.0000000000e+00 0.0000e+00 -1.0000e+00
<mgrwt>
<rscale>  0 0.48167611E+03</rscale>
<asrwt>0</asrwt>
<pdfrwt beam="1">  1        2 0.49082387E-01 0.48167611E+03</pdfrwt>
<pdfrwt beam="2">  1       -2 0.27970346E-01 0.48167611E+03</pdfrwt>
<totfact> 0.13793755E+03</totfact>
</mgrwt>
<rwgt>
<wgt id='morphing_basis_vector_1'> +2.6254957e-04 </wgt>
<wgt id='morphing_basis_vector_2'> +1.5345066e-04 </wgt>
<wgt id='morphing_basis_vector_3'> +1.8050037e-04 </wgt>
<wgt id='morphing_basis_vector_4'> +5.6617548e-05 </wgt>
<wgt id='morphing_basis_vector_5'> +7.8761119e-05 </wgt>
</rwgt>
</event>
<event>
 4      1 +1.9425900e-05 4.36299500e+02 7.81860800e-03 9.55491600e-02
        2 -1    0    0  501    0 +0.0000000000e+00 +0.0000000000e+00 +3.1061284521e+02 3.1061284521e+02 0.0000000000e+00 0.0000e+00 -1.0000e+00
       -2 -1    0    0    0  501 -0.0000000000e+00 -0.0000000000e+00 -1.5321105402e+02 1.5321105402e+02 0.0000000000e+00 0.0000e+00 1.0000e+00
      -13  1    1    2    0    0 +2.0058056855e+02 -8.3883888690e+01 +9.7725386319e+01 2.3836803979e+02 0.0000000000e+00 0.0000e+00 1.0000e+00
       13  1    1    2    0    0 -2.0058056855e+02 +8.3883888690e+01 +5.9676404873e+01 2.2545585945e+02 0.0000000000e+00 0.0000e+00 -1.0000e+00
<mgrwt>
<rscale>  0 0.43629954E+03</rscale>
<asrwt>0</asrwt>
<pdfrwt beam="1">  1        2 0.47786591E-01 0.43629954E+03</pdfrwt>
<pdfrwt beam="2">  1       -2 0.23570932E-01 0.43629954E+03</pdfrwt>
<totfact> 0.19003640E+03</totfact>
</mgrwt>
<rwgt>
<wgt id='morphing_basis_vector_1'> +2.0299007e-04 </wgt>
<wgt id='morphing_basis_vector_2'> +1.3075732e-04 </wgt>
<wgt id='morphing_basis_vector_3'> +1.2407949e-04 </wgt>
<wgt id='morphing_basis_vector_4'> +3.3467776e-05 </wgt>
<wgt id='morphing_basis_vector_5'> +4.2078588e-05 </wgt>
</rwgt>
</event>
<event>
 4      1 +1.9425900e-05 4.60118100e+02 7.81860800e-03 9.49381000e-02
        2 -1    0    0  501    0 +0.0000000000e+00 +0.0000000000e+00 +5.8882877684e+02 5.8882877684e+02 0.0000000000e+00 0.0000e+00 -1.0000e+00
       -2 -1    0    0    0  501 -0.0000000000e+00 -0.0000000000e+00 -8.9885495039e+01 8.9885495039e+01 0.0000000000e+00 0.0000e+00 1.0000e+00
      -13  1    1    2    0    0 +3.9170264967e+01 -1.1069647303e+02 -4.2353930968e+01 1.2482737788e+02 0.0000000000e+00 0.0000e+00 1.0000e+00
       13  1    1    2    0    0 -3.9170264967e+01 +1.1069647303e+02 +5.4129721277e+02 5.5388689401e+02 0.0000000000e+00 0.0000e+00 -1.0000e+00
<mgrwt>
<rscale>  0 0.46011810E+03</rscale>
<asrwt>0</asrwt>
<pdfrwt beam="1">  1        2 0.90589040E-01 0.46011810E+03</pdfrwt>
<pdfrwt beam="2">  1       -2 0.13828538E-01 0.46011810E+03</pdfrwt>
<totfact> 0.22176865E+03</totfact>
</mgrwt>
<rwgt>
<wgt id='morphing_basis_vector_1'> +2.2629558e-04 </wgt>
<wgt id='morphing_basis_vector_2'> +1.2279687e-04 </wgt>
<wgt id='morphing_basis_vector_3'> +1.5578567e-04 </wgt>
<wgt id='morphing_basis_vector_4'> +4.5532712e-05 </wgt>
<wgt id='morphing_basis_vector_5'> +5.9090188e-05 </wgt>
</rwgt>
</event>
<event>
 4      1 +1.9425900e-05 4.53816800e+02 7.81860800e-03 9.50959100e-02
        2 -1    0    0  501    0 +0.0000000000e+00 +0.0000000000e+00 +3.9146990406e+02 3.9146990406e+02 0.0000000000e+00 0.0000e+00 1.0000e+00
       -2 -1    0    0    0  501 -0.0000000000e+00 -0.0000000000e+00 -1.3152334442e+02 1.3152334442e+02 0.0000000000e+00 0.0000e+00 -1.0000e+00
      -13  1    1    2    0    0 +1.4149027610e+02 +1.2551458314e+02 +2.7443712044e+02 3.3330037787e+02 0.0000000000e+00 0.0000e+00 1.0000e+00
       13  1    1    2    0    0 -1.4149027610e+02 -1.2551458314e+02 -1.4490560801e+01 1.8969287062e+02 0.0000000000e+00 0.0000e+00 -1.0000e+00
<mgrwt>
<rscale>  0 0.45381684E+03</rscale>
<asrwt>0</asrwt>
<pdfrwt beam="1">  1        2 0.60226139E-01 0.45381684E+03</pdfrwt>
<pdfrwt beam="2">  1       -2 0.20234361E-01 0.45381684E+03</pdfrwt>
<totfact> 0.18953179E+03</totfact>
</mgrwt>
<rwgt>
<wgt id='morphing_basis_vector_1'> +2.5982799e-04 </wgt>
<wgt id='morphing_basis_vector_2'> +2.4866922e-04 </wgt>
<wgt id='morphing_basis_vector_3'> +1.2120589e-04 </wgt>
<wgt id='morphing_basis_vector_4'> +3.4066524e-05 </wgt>
<wgt id='morphing_basis_vector_5'> +5.6377597e-05 </wgt>
</rwgt>
</event>
<event>
 4      1 +1.9425900e-05 4.62735200e+02 7.81860800e-03 9.48733400e-02
        2 -1    0    0  501    0 +0.0000000000e+00 +0.0000000000e+00 +6.4322786681e+02 6.4322786681e+02 0.0000000000e+00 0.0000e+00 1.0000e+00
       -2 -1    0    0    0  501 -0.0000000000e+00 -0.0000000000e+00 -8.3222403993e+01 8.3222403993e+01 0.0000000000e+00 0.0000e+00 -1.0000e+00
      -13  1    1    2    0    0 -1.0827734738e+02 +1.1408053355e+02 +5.4639027473e+02 5.6857777340e+02 0.0000000000e+00 0.0000e+00 1.0000e+00
       13  1    1    2    0    0 +1.0827734738e+02 -1.1408053355e+02 +1.3615188091e+01 1.5787249740e+02 0.0000000000e+00 0.0000e+00 -1.0000e+00
<mgrwt>
<rscale>  0 0.46273521E+03</rscale>
<asrwt>0</asrwt>
<pdfrwt beam="1">  1        2 0.98958130E-01 0.46273521E+03</pdfrwt>
<pdfrwt beam="2">  1       -2 0.12803447E-01 0.46273521E+03</pdfrwt>
<totfact> 0.22613746E+03</totfact>
</mgrwt>
<rwgt>
<wgt id='morphing_basis_vector_1'> +2.9645322e-04 </wgt>
<wgt id='morphing_basis_vector_2'> +3.3056362e-04 </wgt>
<wgt id='morphing_basis_vector_3'> +1.1888504e-04 </wgt>
<wgt id='morphing_basis_vector_4'> +3.1193445e-05 </wgt>
<wgt id='morphing_basis_vector_5'> +6.4722998e-05 </wgt>
</rwgt>
</event>
<event>
 4      1 +1.9425900e-05 4.41554300e+02 7.81860800e-03 9.54108700e-02
        2 -1    0    0  501    0 +0.0000000000e+00 +0.0000000000e+00 +3.5765192915e+02 3.5765192915e+02 0.0000000000e+00 0.0000e+00 1.0000e+00
       -2 -1    0    0    0  501 -0.0000000000e+00 -0.0000000000e+00 -1.3628489787e+02 1.3628489787e+02 0.0000000000e+00 0.0000e+00 -1.0000e+00
      -13  1    1    2    0    0 +1.5528567568e+02 -1.2803973365e+02 +9.1727128429e+00 2.0147444783e+02 0.0000000000e+00 0.0000e+00 -1.0000e+00
       13  1    1    2    0    0 -1.5528567568e+02 +1.2803973365e+02 +2.1219431844e+02 2.9246237919e+02 0.0000000000e+00 0.0000e+00 1.0000e+00
<mgrwt>
<rscale>  0 0.44155433E+03</rscale>
<asrwt>0</asrwt>
<pdfrwt beam="1">  1        2 0.55023373E-01 0.44155433E+03</pdfrwt>
<pdfrwt beam="2">  1       -2 0.20966908E-01 0.44155433E+03</pdfrwt>
<totfact> 0.19757566E+03</totfact>
</mgrwt>
<rwgt>
<wgt id='morphing_basis_vector_1'> +2.0246628e-04 </wgt>
<wgt id='morphing_basis_vector_2'> +1.1238128e-04 </wgt>
<wgt id='morphing_basis_vector_3'> +1.3472202e-04 </wgt>
<wgt id='morphing_basis_vector_4'> +3.6489851e-05 </wgt>
<wgt id='morphing_basis_vector_5'> +4.5176268e-05 </wgt>
</rwgt>
</event>
<event>
 4      1 +1.9425900e-05 4.96885300e+02 7.81860800e-03 9.40677500e-02
        2 -1    0    0  501    0 +0.0000000000e+00 +0.0000000000e+00 +5.8603327555e+02 5.8603327555e+02 0.0000000000e+00 0.0000e+00 -1.0000e+00
       -2 -1    0    0    0  501 -0.0000000000e+00 -0.0000000000e+00 -1.0532465773e+02 1.0532465773e+02 0.0000000000e+00 0.0000e+00 1.0000e+00
      -13  1    1    2    0    0 -8.3514955111e+01 -1.3259084932e+02 +5.0860158297e+02 5.3219418566e+02 0.0000000000e+00 0.0000e+00 -1.0000e+00
       13  1    1    2    0    0 +8.3514955111e+01 +1.3259084932e+02 -2.7892965147e+01 1.5916374761e+02 0.0000000000e+00 0.0000e+00 1.0000e+00
<mgrwt>
<rscale>  0 0.49688532E+03</rscale>
<asrwt>0</asrwt>
<pdfrwt beam="1">  1        2 0.90158964E-01 0.49688532E+03</pdfrwt>
<pdfrwt beam="2">  1       -2 0.16203794E-01 0.49688532E+03</pdfrwt>
<totfact> 0.17302096E+03</totfact>
</mgrwt>
<rwgt>
<wgt id='morphing_basis_vector_1'> +3.7141549e-04 </wgt>
<wgt id='morphing_basis_vector_2'> +4.2804900e-04 </wgt>
<wgt id='morphing_basis_vector_3'> +1.6603623e-04 </wgt>
<wgt id='morphing_basis_vector_4'> +3.4109587e-05 </wgt>
<wgt id='morphing_basis_vector_5'> +9.8244200e-05 </wgt>
</rwgt>
</event>
<event>
 4      1 +1.9425900e-05 4.64299900e+02 7.81860800e-03 9.48348300e-02
        2 -1    0    0  501    0 +0.0000000000e+00 +0.0000000000e+00 +1.0519340853e+03 1.0519340853e+03 0.0000000000e+00 0.0000e+00 1.0000e+00
       -2 -1    0    0    0  501 -0.0000000000e+00 -0.0000000000e+00 -5.1232866988e+01 5.1232866988e+01 0.0000000000e+00 0.0000e+00 -1.0000e+00
      -13  1    1    2    0    0 +1.0377394708e+02 -1.8262500858e+02 +2.6546882215e+02 3.3851827334e+02 0.0000000000e+00 0.0000e+00 -1.0000e+00
       13  1    1    2    0    0 -1.0377394708e+02 +1.8262500858e+02 +7.3523239614e+02 7.6464867893e+02 0.0000000000e+00 0.0000e+00 1.0000e+00
<mgrwt>
<rscale>  0 0.46429990E+03</rscale>
<asrwt>0</asrwt>
<pdfrwt beam="1">  1        2 0.16183600E+00 0.46429990E+03</pdfrwt>
<pdfrwt beam="2">  1       -2 0.78819803E-02 0.46429990E+03</pdfrwt>
<totfact> 0.25616027E+03</totfact>
</mgrwt>
<rwgt>
<wgt id='morphing_basis_vector_1'> +2.3355735e-04 </wgt>
<wgt id='morphing_basis_vector_2'> +1.3014221e-04 </wgt>
<wgt id='morphing_basis_vector_3'> +1.5992832e-04 </wgt>
<wgt id='morphing_basis_vector_4'> +4.7439780e-05 </wgt>
<wgt id='morphing_basis_vector_5'> +6.2653081e-05 </wgt>
</rwgt>
</event>
<event>
 4      1 +1.9425900e-05 4.59060300e+02 7.81860800e-03 9.49644100e-02
        2 -1    0    0  501    0 +0.0000000000e+00 +0.0000000000e+00 +1.5766085024e+03 1.5766085024e+03 0.0000000000e+00 0.0000e+00 -1.0000e+00
       -2 -1    0    0    0  501 -0.0000000000e+00 -0.0000000000e+00 -3.3416085906e+01 3.3416085906e+01 0.0000000000e+00 0.0000e+00 1.0000e+00
      -13  1    1    2    0    0 -2.0878249861e+02 -8.9484437863e+01 +6.5599152716e+02 6.9420636705e+02 0.0000000000e+00 0.0000e+00 1.0000e+00
       13  1    1    2    0    0 +2.0878249861e+02 +8.9484437863e+01 +8.8720088934e+02 9.1581822126e+02 0.0000000000e+00 0.0000e+00 -1.0000e+00
<mgrwt>
<rscale>  0 0.45906028E+03</rscale>
<asrwt>0</asrwt>
<pdfrwt beam="1">  1        2 0.24255510E+00 0.45906028E+03</pdfrwt>
<pdfrwt beam="2">  1       -2 0.51409375E-02 0.45906028E+03</pdfrwt>
<totfact> 0.24998109E+03</totfact>
</mgrwt>
<rwgt>
<wgt id='morphing_basis_vector_1'> +2.2901512e-04 </wgt>
<wgt id='morphing_basis_vector_2'> +1.3498853e-04 </wgt>
<wgt id='morphing_basis_vector_3'> +1.5195159e-04 </wgt>
<wgt id='morphing_basis_vector_4'> +4.4058595e-05 </wgt>
<wgt id='morphing_basis_vector_5'> +5.8450318e-05 </wgt>
</rwgt>
</event>
<event>
 4      1 +1.9425900e-05 4.55891700e+02 7.81860800e-03 9.50436500e-02
        2 -1    0    0  501    0 +0.0000000000e+00 +0.0000000000e+00 +5.0266083970e+02 5.0266083970e+02 0.0000000000e+00 0.0000e+00 -1.0000e+00
       -2 -1    0    0    0  501 -0.0000000000e+00 -0.0000000000e+00 -1.0336854528e+02 1.0336854528e+02 0.0000000000e+00 0.0000e+00 1.0000e+00
      -13  1    1    2    0    0 +8.9796042545e+01 +1.8552777888e+02 +7.0246971796e+01 2.1775794598e+02 0.0000000000e+00 0.0000e+00 1.0000e+00
       13  1    1    2    0    0 -8.9796042545e+01 -1.8552777888e+02 +3.2904532263e+02 3.8827143899e+02 0.0000000000e+00 0.0000e+00 -1.0000e+00
<mgrwt>
<rscale>  0 0.45589174E+03</rscale>
<asrwt>0</asrwt>
<pdfrwt beam="1">  1        2 0.77332435E-01 0.45589174E+03</pdfrwt>
<pdfrwt beam="2">  1       -2 0.15902853E-01 0.45589174E+03</pdfrwt>
<totfact> 0.21231811E+03</totfact>
</mgrwt>
<rwgt>
<wgt id='morphing_basis_vector_1'> +2.2158212e-04 </wgt>
<wgt id='morphing_basis_vector_2'> +1.2317181e-04 </wgt>
<wgt id='morphing_basis_vector_3'> +1.5019884e-04 </wgt>
<wgt id='morphing_basis_vector_4'> +4.3127521e-05 </wgt>
<wgt id='morphing_basis_vector_5'> +5.5753744e-05 </wgt>
</rwgt>
</event>
<event>
 4      1 +1.9425900e-05 4.47155800e+02 7.81860800e-03 9.52656800e-02
        2 -1    0    0  501    0 +0.0000000000e+00 +0.0000000000e+00 +3.2540542258e+02 3.2540542258e+02 0.0000000000e+00 0.0000e+00 1.0000e+00
       -2 -1    0    0    0  501 -0.0000000000e+00 -0.0000000000e+00 -1.5361478165e+02 1.5361478165e+02 0.0000000000e+00 0.0000e+00 -1.0000e+00
      -13  1    1    2    0    0 -1.9790005658e+02 +9.1796560598e+01 +3.3457799372e+01 2.2070447496e+02 0.0000000000e+00 0.0000e+00 -1.0000e+00
       13  1    1    2    0    0 +1.9790005658e+02 -9.1796560598e+01 +1.3833284157e+02 2.5831572927e+02 0.0000000000e+00 0.0000e+00 1.0000e+00
<mgrwt>
<rscale>  0 0.44715582E+03</rscale>
<asrwt>0</asrwt>
<pdfrwt beam="1">  1        2 0.50062373E-01 0.44715582E+03</pdfrwt>
<pdfrwt beam="2">  1       -2 0.23633043E-01 0.44715582E+03</pdfrwt>
<totfact> 0.17973459E+03</totfact>
</mgrwt>
<rwgt>
<wgt id='morphing_basis_vector_1'> +2.1144683e-04 </wgt>
<wgt id='morphing_basis_vector_2'> +1.2169990e-04 </wgt>
<wgt id='morphing_basis_vector_3'> +1.3944134e-04 </wgt>
<wgt id='morphing_basis_vector_4'> +3.8697077e-05 </wgt>
<wgt id='morphing_basis_vector_5'> +4.9231799e-05 </wgt>
</rwgt>
</event>
<event>
 4      1 +1.9425900e-05 4.34529800e+02 7.81860800e-03 9.55961900e-02
        2 -1    0    0  501    0 +0.0000000000e+00 +0.0000000000e+00 +9.1046155769e+02 9.1046155769e+02 0.0000000000e+00 0.0000e+00 1.0000e+00
       -2 -1    0    0    0  501 -0.0000000000e+00 -0.0000000000e+00 -5.1846273334e+01 5.1846273334e+01 0.0000000000e+00 0.0000e+00 -1.0000e+00
      -13  1    1    2    0    0 +1.4318999595e+02 -6.2925537948e+01 +9.5343675287e+01 1.8317591185e+02 0.0000000000e+00 0.0000e+00 -1.0000e+00
       13  1    1    2    0    0 -1.4318999595e+02 +6.2925537948e+01 +7.6327160907e+02 7.7913191918e+02 0.0000000000e+00 0.0000e+00 1.0000e+00
<mgrwt>
<rscale>  0 0.43452981E+03</rscale>
<asrwt>0</asrwt>
<pdfrwt beam="1">  1        2 0.14007100E+00 0.43452981E+03</pdfrwt>
<pdfrwt beam="2">  1       -2 0.79763504E-02 0.43452981E+03</pdfrwt>
<totfact> 0.30699014E+03</totfact>
</mgrwt>
<rwgt>
<wgt id='morphing_basis_vector_1'> +1.9264460e-04 </wgt>
<wgt id='morphing_basis_vector_2'> +1.0439234e-04 </wgt>
<wgt id='morphing_basis_vector_3'> +1.2839994e-04 </wgt>
<wgt id='morphing_basis_vector_4'> +3.3665675e-05 </wgt>
<wgt id='morphing_basis_vector_5'> +4.0451968e-05 </wgt>
</rwgt>
</event>
<event>
 4      1 +1.9425900e-05 4.33261500e+02 7.81860800e-03 9.56300500e-02
        2 -1    0    0  501    0 +0.0000000000e+00 +0.0000000000e+00 +6.5448317339e+02 6.5448317339e+02 0.0000000000e+00 0.0000e+00 1.0000e+00
       -2 -1    0    0    0  501 -0.0000000000e+00 -0.0000000000e+00 -7.1703726158e+01 7.1703726158e+01 0.0000000000e+00 0.0000e+00 -1.0000e+00
      -13  1    1    2    0    0 +2.1516255156e+02 -1.5819382620e+00 +3.3350793277e+02 3.9689415131e+02 0.0000000000e+00 0.0000e+00 -1.0000e+00
       13  1    1    2    0    0 -2.1516255156e+02 +1.5819382620e+00 +2.4927151446e+02 3.2929274824e+02 0.0000000000e+00 0.0000e+00 1.0000e+00
<mgrwt>
<rscale>  0 0.43326150E+03</rscale>
<asrwt>0</asrwt>
<pdfrwt beam="1">  1        2 0.10068972E+00 0.43326150E+03</pdfrwt>
<pdfrwt beam="2">  1       -2 0.11031343E-01 0.43326150E+03</pdfrwt>
<totfact> 0.27991132E+03</totfact>
</mgrwt>
<rwgt>
<wgt id='morphing_basis_vector_1'> +2.0010910e-04 </wgt>
<wgt id='morphing_basis_vector_2'> +1.3133627e-04 </wgt>
<wgt id='morphing_basis_vector_3'> +1.2030800e-04 </wgt>
<wgt id='morphing_basis_vector_4'> +3.2260557e-05 </wgt>
<wgt id='morphing_basis_vector_5'> +4.0183635e-05 </wgt>
</rwgt>
</event>
<event>
 4      1 +1.9425900e-05 4.70071700e+02 7.81860800e-03 9.46941500e-02
        2 -1    0    0  501    0 +0.0000000000e+00 +0.0000000000e+00 +1.0106903299e+03 1.0106903299e+03 0.0000000000e+00 0.0000e+00 1.0000e+00
       -2 -1    0    0    0  501 -0.0000000000e+00 -0.0000000000e+00 -5.4657541855e+01 5.4657541855e+01 0.0000000000e+00 0.0000e+00 -1.0000e+00
      -13  1    1    2    0    0 +4.8823176525e+01 +2.0395802250e+02 +7.1849834658e+02 7.4848009429e+02 0.0000000000e+00 0.0000e+00 -1.0000e+00
       13  1    1    2    0    0 -4.8823176525e+01 -2.0395802250e+02 +2.3753444143e+02 3.1686777743e+02 0.0000000000e+00 0.0000e+00 1.0000e+00
<mgrwt>
<rscale>  0 0.47007169E+03</rscale>
<asrwt>0</asrwt>
<pdfrwt beam="1">  1        2 0.15549081E+00 0.47007169E+03</pdfrwt>
<pdfrwt beam="2">  1       -2 0.84088533E-02 0.47007169E+03</pdfrwt>
<totfact> 0.24543990E+03</totfact>
</mgrwt>
<rwgt>
<wgt id='morphing_basis_vector_1'> +2.7622269e-04 </wgt>
<wgt id='morphing_basis_vector_2'> +2.4087993e-04 </wgt>
<wgt id='morphing_basis_vector_3'> +1.4769621e-04 </wgt>
<wgt id='morphing_basis_vector_4'> +4.1384351e-05 </wgt>
<wgt id='morphing_basis_vector_5'> +6.9402722e-05 </wgt>
</rwgt>
</event>
<event>
 4      1 +1.9425900e-05 4.52580700e+02 7.81860800e-03 9.51271800e-02
        2 -1    0    0  501    0 +0.0000000000e+00 +0.0000000000e+00 +1.8964406827e+03 1.8964406827e+03 0.0000000000e+00 0.0000e+00 1.0000e+00
       -2 -1    0    0    0  501 -0.0000000000e+00 -0.0000000000e+00 -2.7001805937e+01 2.7001805937e+01 0.0000000000e+00 0.0000e+00 -1.0000e+00
      -13  1    1    2    0    0 -9.6821066568e+01 +2.0143282339e+02 +1.0854470327e+03 1.1082169292e+03 0.0000000000e+00 0.0000e+00 -1.0000e+00
       13  1    1    2    0    0 +9.6821066568e+01 -2.0143282339e+02 +7.8399184400e+02 8.1522555942e+02 0.0000000000e+00 0.0000e+00 1.0000e+00
<mgrwt>
<rscale>  0 0.45258070E+03</rscale>
<asrwt>0</asrwt>
<pdfrwt beam="1">  1        2 0.29176000E+00 0.45258070E+03</pdfrwt>
<pdfrwt beam="2">  1       -2 0.41541255E-02 0.45258070E+03</pdfrwt>
<totfact> 0.23161309E+03</totfact>
</mgrwt>
<rwgt>
<wgt id='morphing_basis_vector_1'> +2.2795453e-04 </wgt>
<wgt id='morphing_basis_vector_2'> +1.5435757e-04 </wgt>
<wgt id='morphing_basis_vector_3'> +1.3934041e-04 </wgt>
<wgt id='morphing_basis_vector_4'> +3.9439087e-05 </wgt>
<wgt id='morphing_basis_vector_5'> +5.3781454e-05 </wgt>
</rwgt>
</event>
<event>
 4      1 +1.9425900e-05 4.90228000e+02 7.81860800e-03 9.42192300e-02
        2 -1    0    0  501    0 +0.0000000000e+00 +0.0000000000e+00 +1.0942696924e+03 1.0942696924e+03 0.0000000000e+00 0.0000e+00 -1.0000e+00
       -2 -1    0    0    0  501 -0.0000000000e+00 -0.0000000000e+00 -5.4904993851e+01 5.4904993851e+01 0.0000000000e+00 0.0000e+00 1.0000e+00
      -13  1    1    2    0    0 -1.3909275776e+01 -2.4462470880e+02 +5.3560794050e+02 5.8899115616e+02 0.0000000000e+00 0.0000e+00 1.0000e+00
       13  1    1    2    0    0 +1.3909275776e+01 +2.4462470880e+02 +5.0375675806e+02 5.6018353011e+02 0.0000000000e+00 0.0000e+00 -1.0000e+00
<mgrwt>
<rscale>  0 0.49022799E+03</rscale>
<asrwt>0</asrwt>
<pdfrwt beam="1">  1        2 0.16834917E+00 0.49022799E+03</pdfrwt>
<pdfrwt beam="2">  1       -2 0.84469230E-02 0.49022799E+03</pdfrwt>
<totfact> 0.21731126E+03</totfact>
</mgrwt>
<rwgt>
<wgt id='morphing_basis_vector_1'> +2.8228181e-04 </wgt>
<wgt id='morphing_basis_vector_2'> +1.7968033e-04 </wgt>
<wgt id='morphing_basis_vector_3'> +1.8957955e-04 </wgt>
<wgt id='morphing_basis_vector_4'> +5.9920097e-05 </wgt>
<wgt id='morphing_basis_vector_5'> +8.7783383e-05 </wgt>
</rwgt>
</event>
<event>
 4      1 +1.9425900e-05 4.58782100e+02 7.81860800e-03 9.49713400e-02
        2 -1    0    0  501    0 +0.0000000000e+00 +0.0000000000e+00 +2.3413243059e+02 2.3413243059e+02 0.0000000000e+00 0.0000e+00 -1.0000e+00
       -2 -1    0    0    0  501 -0.0000000000e+00 -0.0000000000e+00 -2.2474572842e+02 2.2474572842e+02 0.0000000000e+00 0.0000e+00 1.0000e+00
      -13  1    1    2    0    0 +1.1614921861e+01 -1.8798017962e+02 -1.2628751790e+02 2.2675976609e+02 0.0000000000e+00 0.0000e+00 1.0000e+00
       13  1    1    2    0    0 -1.1614921861e+01 +1.8798017962e+02 +1.3567422007e+02 2.3211839292e+02 0.0000000000e+00 0.0000e+00 -1.0000e+00
<mgrwt>
<rscale>  0 0.45878214E+03</rscale>
<asrwt>0</asrwt>
<pdfrwt beam="1">  1        2 0.36020374E-01 0.45878214E+03</pdfrwt>
<pdfrwt beam="2">  1       -2 0.34576266E-01 0.45878214E+03</pdfrwt>
<totfact> 0.13433513E+03</totfact>
</mgrwt>
<rwgt>
<wgt id='morphing_basis_vector_1'> +2.2495922e-04 </wgt>
<wgt id='morphing_basis_vector_2'> +1.2342641e-04 </wgt>
<wgt id='morphing_basis_vector_3'> +1.5390676e-04 </wgt>
<wgt id='morphing_basis_vector_4'> +4.4721689e-05 </wgt>
<wgt id='morphing_basis_vector_5'> +5.8029861e-05 </wgt>
</rwgt>
</event>
<event>
 4      1 +1.9425900e-05 4.87078500e+02 7.81860800e-03 9.42918000e-02
        2 -1    0    0  501    0 +0.0000000000e+00 +0.0000000000e+00 +1.0013853692e+03 1.0013853692e+03 0.0000000000e+00 0.0000e+00 -1.0000e+00
       -2 -1    0    0    0  501 -0.0000000000e+00 -0.0000000000e+00 -5.9229302426e+01 5.9229302426e+01 0.0000000000e+00 0.0000e+00 1.0000e+00
      -13  1    1    2    0    0 +1.1555786630e+02 -1.1885438182e+02 +8.2582181245e+01 1.8520205507e+02 0.0000000000e+00 0.0000e+00 1.0000e+00
       13  1    1    2    0    0 -1.1555786630e+02 +1.1885438182e+02 +8.5957388549e+02 8.7541261651e+02 0.0000000000e+00 0.0000e+00 -1.0000e+00
<mgrwt>
<rscale>  0 0.48707846E+03</rscale>
<asrwt>0</asrwt>
<pdfrwt beam="1">  1        2 0.15405928E+00 0.48707846E+03</pdfrwt>
<pdfrwt beam="2">  1       -2 0.91122011E-02 0.48707846E+03</pdfrwt>
<totfact> 0.21959012E+03</totfact>
</mgrwt>
<rwgt>
<wgt id='morphing_basis_vector_1'> +2.6744218e-04 </wgt>
<wgt id='morphing_basis_vector_2'> +1.4669947e-04 </wgt>
<wgt id='morphing_basis_vector_3'> +1.8968145e-04 </wgt>
<wgt id='morphing_basis_vector_4'> +6.1294603e-05 </wgt>
<wgt id='morphing_basis_vector_5'> +8.4058550e-05 </wgt>
</rwgt>
</event>
<event>
 4      1 +1.9425900e-05 5.19050400e+02 7.81860800e-03 9.35811800e-02
        2 -1    0    0  501    0 +0.0000000000e+00 +0.0000000000e+00 +5.0367731399e+02 5.0367731399e+02 0.0000000000e+00 0.0000e+00 -1.0000e+00
       -2 -1    0    0    0  501 -0.0000000000e+00 -0.0000000000e+00 -1.3372318797e+02 1.3372318797e+02 0.0000000000e+00 0.0000e+00 1.0000e+00
      -13  1    1    2    0    0 -2.1759771611e+02 +5.5030968855e+00 +1.1421522863e+01 2.1796674360e+02 0.0000000000e+00 0.0000e+00 1.0000e+00
       13  1    1    2    0    0 +2.1759771611e+02 -5.5030968855e+00 +3.5853260316e+02 4.1943375837e+02 0.0000000000e+00 0.0000e+00 -1.0000e+00
<mgrwt>
<rscale>  0 0.51905043E+03</rscale>
<asrwt>0</asrwt>
<pdfrwt beam="1">  1        2 0.77488816E-01 0.51905043E+03</pdfrwt>
<pdfrwt beam="2">  1       -2 0.20572798E-01 0.51905043E+03</pdfrwt>
<totfact> 0.13914881E+03</totfact>
</mgrwt>
<rwgt>
<wgt id='morphing_basis_vector_1'> +3.2468331e-04 </wgt>
<wgt id='morphing_basis_vector_2'> +1.8185834e-04 </wgt>
<wgt id='morphing_basis_vector_3'> +2.3763746e-04 </wgt>
<wgt id='morphing_basis_vector_4'> +8.4739832e-05 </wgt>
<wgt id='morphing_basis_vector_5'> +1.2176448e-04 </wgt>
</rwgt>
</event>
<event>
 4      1 +1.9425900e-05 4.74774300e+02 7.81860800e-03 9.45810800e-02
        2 -1    0    0  501    0 +0.0000000000e+00 +0.0000000000e+00 +7.1464796609e+02 7.1464796609e+02 0.0000000000e+00 0.0000e+00 1.0000e+00
       -2 -1    0    0    0  501 -0.0000000000e+00 -0.0000000000e+00 -7.8853745374e+01 7.8853745374e+01 0.0000000000e+00 0.0000e+00 -1.0000e+00
      -13  1    1    2    0    0 -1.9556021808e+02 -3.1233461549e+01 +5.3666403112e+02 5.7203811963e+02 0.0000000000e+00 0.0000e+00 1.0000e+00
       13  1    1    2    0    0 +1.9556021808e+02 +3.1233461549e+01 +9.9130189596e+01 2.2146359183e+02 0.0000000000e+00 0.0000e+00 -1.0000e+00
<mgrwt>
<rscale>  0 0.47477434E+03</rscale>
<asrwt>0</asrwt>
<pdfrwt beam="1">  1        2 0.10994584E+00 0.47477434E+03</pdfrwt>
<pdfrwt beam="2">  1       -2 0.12131346E-01 0.47477434E+03</pdfrwt>
<totfact> 0.21723425E+03</totfact>
</mgrwt>
<rwgt>
<wgt id='morphing_basis_vector_1'> +2.9619788e-04 </wgt>
<wgt id='morphing_basis_vector_2'> +2.8488066e-04 </wgt>
<wgt id='morphing_basis_vector_3'> +1.4749734e-04 </wgt>
<wgt id='morphing_basis_vector_4'> +3.9625004e-05 </wgt>
<wgt id='morphing_basis_vector_5'> +7.4279479e-05 </wgt>
</rwgt>
</event>
<event>
 4      1 +1.9425900e-05 5.15359700e+02 7.81860800e-03 9.36603700e-02
        2 -1    0    0  501    0 +0.0000000000e+00 +0.0000000000e+00 +9.1010936159e+02 9.1010936159e+02 0.0000000000e+00 0.0000e+00 1.0000e+00
       -2 -1    0    0    0  501 -0.0000000000e+00 -0.0000000000e+00 -7.2957061166e+01 7.2957061166e+01 0.0000000000e+00 0.0000e+00 -1.0000e+00
      -13  1    1    2    0    0 -3.3535942959e+00 -1.7732823706e+02 +7.7514917962e+02 7.9518098627e+02 0.0000000000e+00 0.0000e+00 1.0000e+00
       13  1    1    2    0    0 +3.3535942959e+00 +1.7732823706e+02 +6.2003120798e+01 1.8788543648e+02 0.0000000000e+00 0.0000e+00 -1.0000e+00
<mgrwt>
<rscale>  0 0.51535970E+03</rscale>
<asrwt>0</asrwt>
<pdfrwt beam="1">  1        2 0.14001682E+00 0.51535970E+03</pdfrwt>
<pdfrwt beam="2">  1       -2 0.11224164E-01 0.51535970E+03</pdfrwt>
<totfact> 0.18069875E+03</totfact>
</mgrwt>
<rwgt>
<wgt id='morphing_basis_vector_1'> +4.0771712e-04 </wgt>
<wgt id='morphing_basis_vector_2'> +4.5735048e-04 </wgt>
<wgt id='morphing_basis_vector_3'> +2.0107188e-04 </wgt>
<wgt id='morphing_basis_vector_4'> +4.0008488e-05 </wgt>
<wgt id='morphing_basis_vector_5'> +1.2007155e-04 </wgt>
</rwgt>
</event>
<event>
 4      1 +1.9425900e-05 4.44729700e+02 7.81860800e-03 9.53282900e-02
        2 -1    0    0  501    0 +0.0000000000e+00 +0.0000000000e+00 +1.7515284446e+02 1.7515284446e+02 0.0000000000e+00 0.0000e+00 -1.0000e+00
       -2 -1    0    0    0  501 -0.0000000000e+00 -0.0000000000e+00 -2.8230272143e+02 2.8230272143e+02 0.0000000000e+00 0.0000e+00 1.0000e+00
      -13  1    1    2    0    0 +1.1601108324e+02 +1.1358832941e+02 -2.0986092243e+02 2.6533466938e+02 0.0000000000e+00 0.0000e+00 1.0000e+00
       13  1    1    2    0    0 -1.1601108324e+02 -1.1358832941e+02 +1.0271104546e+02 1.9212089650e+02 0.0000000000e+00 0.0000e+00 -1.0000e+00
<mgrwt>
<rscale>  0 0.44472969E+03</rscale>
<asrwt>0</asrwt>
<pdfrwt beam="1">  1        2 0.26946592E-01 0.44472969E+03</pdfrwt>
<pdfrwt beam="2">  1       -2 0.43431187E-01 0.44472969E+03</pdfrwt>
<totfact> 0.12321316E+03</totfact>
</mgrwt>
<rwgt>
<wgt id='morphing_basis_vector_1'> +2.0560613e-04 </wgt>
<wgt id='morphing_basis_vector_2'> +1.1170383e-04 </wgt>
<wgt id='morphing_basis_vector_3'> +1.3869989e-04 </wgt>
<wgt id='morphing_basis_vector_4'> +3.8030182e-05 </wgt>
<wgt id='morphing_basis_vector_5'> +4.7339539e-05 </wgt>
</rwgt>
</event>
<event>
 4      1 +1.9425900e-05 4.71553400e+02 7.81860800e-03 9.46583700e-02
        2 -1    0    0  501    0 +0.0000000000e+00 +0.0000000000e+00 +8.6916305649e+01 8.6916305649e+01 0.0000000000e+00 0.0000e+00 -1.0000e+00
       -2 -1    0    0    0  501 -0.0000000000e+00 -0.0000000000e+00 -6.3958827029e+02 6.3958827029e+02 0.0000000000e+00 0.0000e+00 1.0000e+00
      -13  1    1    2    0    0 +6.2467950921e+00 -1.9214653948e+02 -4.8663123345e+02 5.2322965556e+02 0.0000000000e+00 0.0000e+00 1.0000e+00
       13  1    1    2    0    0 -6.2467950921e+00 +1.9214653948e+02 -6.6040731190e+01 2.0327492039e+02 0.0000000000e+00 0.0000e+00 -1.0000e+00
<mgrwt>
<rscale>  0 0.47155339E+03</rscale>
<asrwt>0</asrwt>
<pdfrwt beam="1">  1        2 0.13371739E-01 0.47155339E+03</pdfrwt>
<pdfrwt beam="2">  1       -2 0.98398199E-01 0.47155339E+03</pdfrwt>
<totfact> 0.51154465E+02</totfact>
</mgrwt>
<rwgt>
<wgt id='morphing_basis_vector_1'> +2.4354109e-04 </wgt>
<wgt id='morphing_basis_vector_2'> +1.3401508e-04 </wgt>
<wgt id='morphing_basis_vector_3'> +1.6918778e-04 </wgt>
<wgt id='morphing_basis_vector_4'> +5.1643106e-05 </wgt>
<wgt id='morphing_basis_vector_5'> +6.8998735e-05 </wgt>
</rwgt>
</event>
<event>
 4      1 +1.9425900e-05 4.65036800e+02 7.81860800e-03 9.48167500e-02
        2 -1    0    0  501    0 +0.0000000000e+00 +0.0000000000e+00 +4.4234414323e+02 4.4234414323e+02 0.0000000000e+00 0.0000e+00 -1.0000e+00
       -2 -1    0    0    0  501 -0.0000000000e+00 -0.0000000000e+00 -1.2222339705e+02 1.2222339705e+02 0.0000000000e+00 0.0000e+00 1.0000e+00
      -13  1    1    2    0    0 -4.5208149829e+01 -1.6352746746e+02 -3.2965427457e+01 1.7283439713e+02 0.0000000000e+00 0.0000e+00 1.0000e+00
       13  1    1    2    0    0 +4.5208149829e+01 +1.6352746746e+02 +3.5308617364e+02 3.9173314315e+02 0.0000000000e+00 0.0000e+00 -1.0000e+00
<mgrwt>
<rscale>  0 0.46503679E+03</rscale>
<asrwt>0</asrwt>
<pdfrwt beam="1">  1        2 0.68052944E-01 0.46503679E+03</pdfrwt>
<pdfrwt beam="2">  1       -2 0.18803600E-01 0.46503679E+03</pdfrwt>
<totfact> 0.18667090E+03</totfact>
</mgrwt>
<rwgt>
<wgt id='morphing_basis_vector_1'> +2.3359309e-04 </wgt>
<wgt id='morphing_basis_vector_2'> +1.2755117e-04 </wgt>
<wgt id='morphing_basis_vector_3'> +1.6141895e-04 </wgt>
<wgt id='morphing_basis_vector_4'> +4.8090172e-05 </wgt>
<wgt id='morphing_basis_vector_5'> +6.3229690e-05 </wgt>
</rwgt>
</event>
<event>
 4      1 +1.9425900e-05 4.35619700e+02 7.81860800e-03 9.55672000e-02
        2 -1    0    0  501    0 +0.0000000000e+00 +0.0000000000e+00 +1.2931090932e+03 1.2931090932e+03 0.0000000000e+00 0.0000e+00 -1.0000e+00
       -2 -1    0    0    0  501 -0.0000000000e+00 -0.0000000000e+00 -3.6687655267e+01 3.6687655267e+01 0.0000000000e+00 0.0000e+00 1.0000e+00
      -13  1    1    2    0    0 -5.0713715755e+01 +1.7921262069e+02 +2.8348911568e+02 3.3919776398e+02 0.0000000000e+00 0.0000e+00 1.0000e+00
       13  1    1    2    0    0 +5.0713715755e+01 -1.7921262069e+02 +9.7293232224e+02 9.9059898447e+02 0.0000000000e+00 0.0000e+00 -1.0000e+00
<mgrwt>
<rscale>  0 0.43561975E+03</rscale>
<asrwt>0</asrwt>
<pdfrwt beam="1">  1        2 0.19893983E+00 0.43561975E+03</pdfrwt>
<pdfrwt beam="2">  1       -2 0.56442556E-02 0.43561975E+03</pdfrwt>
<totfact> 0.31017651E+03</totfact>
</mgrwt>
<rwgt>
<wgt id='morphing_basis_vector_1'> +1.9445083e-04 </wgt>
<wgt id='morphing_basis_vector_2'> +1.0655632e-04 </wgt>
<wgt id='morphing_basis_vector_3'> +1.2912674e-04 </wgt>
<wgt id='morphing_basis_vector_4'> +3.4061166e-05 </wgt>
<wgt id='morphing_basis_vector_5'> +4.1181756e-05 </wgt>
</rwgt>
</event>
<event>
 4      1 +1.9425900e-05 4.43659500e+02 7.81860800e-03 9.53560400e-02
        2 -1    0    0  501    0 +0.0000000000e+00 +0.0000000000e+00 +5.5790282053e+01 5.5790282053e+01 0.0000000000e+00 0.0000e+00 -1.0000e+00
       -2 -1    0    0    0  501 -0.0000000000e+00 -0.0000000000e+00 -8.8202535785e+02 8.8202535785e+02 0.0000000000e+00 0.0000e+00 1.0000e+00
      -13  1    1    2    0    0 +9.7303185069e+01 -1.3744958687e+02 -7.1832937165e+02 7.3780579079e+02 0.0000000000e+00 0.0000e+00 1.0000e+00
       13  1    1    2    0    0 -9.7303185069e+01 +1.3744958687e+02 -1.0790570415e+02 2.0000984912e+02 0.0000000000e+00 0.0000e+00 -1.0000e+00
<mgrwt>
<rscale>  0 0.44365952E+03</rscale>
<asrwt>0</asrwt>
<pdfrwt beam="1">  1        2 0.85831196E-02 0.44365952E+03</pdfrwt>
<pdfrwt beam="2">  1       -2 0.13569622E+00 0.44365952E+03</pdfrwt>
<totfact> 0.39715092E+02</totfact>
</mgrwt>
<rwgt>
<wgt id='morphing_basis_vector_1'> +2.0428081e-04 </wgt>
<wgt id='morphing_basis_vector_2'> +1.1112707e-04 </wgt>
<wgt id='morphing_basis_vector_3'> +1.3753750e-04 </wgt>
<wgt id='morphing_basis_vector_4'> +3.7541403e-05 </wgt>
<wgt id='morphing_basis_vector_5'> +4.6587711e-05 </wgt>
</rwgt>
</event>
<event>
 4      1 +1.9425900e-05 5.03455700e+02 7.81860800e-03 9.39207200e-02
        2 -1    0    0  501    0 +0.0000000000e+00 +0.0000000000e+00 +1.6175053335e+03 1.6175053335e+03 0.0000000000e+00 0.0000e+00 -1.0000e+00
       -2 -1    0    0    0  501 -0.0000000000e+00 -0.0000000000e+00 -3.9175704213e+01 3.9175704213e+01 0.0000000000e+00 0.0000e+00 1.0000e+00
      -13  1    1    2    0    0 -2.1291533696e+02 -3.6215646002e+01 +3.6363803082e+02 4.2293868491e+02 0.0000000000e+00 0.0000e+00 1.0000e+00
       13  1    1    2    0    0 +2.1291533696e+02 +3.6215646002e+01 +1.2146915985e+03 1.2337423528e+03 0.0000000000e+00 0.0000e+00 -1.0000e+00
<mgrwt>
<rscale>  0 0.50345570E+03</rscale>
<asrwt>0</asrwt>
<pdfrwt beam="1">  1        2 0.24884692E+00 0.50345570E+03</pdfrwt>
<pdfrwt beam="2">  1       -2 0.60270327E-02 0.50345570E+03</pdfrwt>
<totfact> 0.18642751E+03</totfact>
</mgrwt>
<rwgt>
<wgt id='morphing_basis_vector_1'> +2.9610102e-04 </wgt>
<wgt id='morphing_basis_vector_2'> +1.6542202e-04 </wgt>
<wgt id='morphing_basis_vector_3'> +2.1290222e-04 </wgt>
<wgt id='morphing_basis_vector_4'> +7.2403775e-05 </wgt>
<wgt id='morphing_basis_vector_5'> +1.0222449e-04 </wgt>
</rwgt>
</event>
<event>
 4      1 +1.9425900e-05 4.74057900e+02 7.81860800e-03 9.45982200e-02
        2 -1    0    0  501    0 +0.0000000000e+00 +0.0000000000e+00 +1.8968887969e+03 1.8968887969e+03 0.0000000000e+00 0.0000e+00 1.0000e+00
       -2 -1    0    0    0  501 -0.0000000000e+00 -0.0000000000e+00 -2.9618359839e+01 2.9618359839e+01 0.0000000000e+00 0.0000e+00 -1.0000e+00
      -13  1    1    2    0    0 -2.1292466125e+02 -1.0379426916e+02 +8.9901517770e+02 9.2969804314e+02 0.0000000000e+00 0.0000e+00 -1.0000e+00
       13  1    1    2    0    0 +2.1292466125e+02 +1.0379426916e+02 +9.6825525938e+02 9.9680911362e+02 0.0000000000e+00 0.0000e+00 1.0000e+00
<mgrwt>
<rscale>  0 0.47405795E+03</rscale>
<asrwt>0</asrwt>
<pdfrwt beam="1">  1        2 0.29182895E+00 0.47405795E+03</pdfrwt>
<pdfrwt beam="2">  1       -2 0.45566722E-02 0.47405795E+03</pdfrwt>
<totfact> 0.20126198E+03</totfact>
</mgrwt>
<rwgt>
<wgt id='morphing_basis_vector_1'> +2.5377752e-04 </wgt>
<wgt id='morphing_basis_vector_2'> +1.5615912e-04 </wgt>
<wgt id='morphing_basis_vector_3'> +1.6883515e-04 </wgt>
<wgt id='morphing_basis_vector_4'> +5.1240608e-05 </wgt>
<wgt id='morphing_basis_vector_5'> +7.1612156e-05 </wgt>
</rwgt>
</event>
<event>
 4      1 +1.9425900e-05 4.76623400e+02 7.81860800e-03 9.45370100e-02
        2 -1    0    0  501    0 +0.0000000000e+00 +0.0000000000e+00 +4.0292470131e+02 4.0292470131e+02 0.0000000000e+00 0.0000e+00 1.0000e+00
       -2 -1    0    0    0  501 -0.0000000000e+00 -0.0000000000e+00 -1.4095059260e+02 1.4095059260e+02 0.0000000000e+00 0.0000e+00 -1.0000e+00
      -13  1    1    2    0    0 +8.5467739493e+01 +1.7123353375e+02 +2.9303466199e+02 3.4999281522e+02 0.0000000000e+00 0.0000e+00 1.0000e+00
       13  1    1    2    0    0 -8.5467739493e+01 -1.7123353375e+02 -3.1060553279e+01 1.9388247870e+02 0.0000000000e+00 0.0000e+00 -1.0000e+00
<mgrwt>
<rscale>  0 0.47662344E+03</rscale>
<asrwt>0</asrwt>
<pdfrwt beam="1">  1        2 0.61988415E-01 0.47662344E+03</pdfrwt>
<pdfrwt beam="2">  1       -2 0.21684707E-01 0.47662344E+03</pdfrwt>
<totfact> 0.16369017E+03</totfact>
</mgrwt>
<rwgt>
<wgt id='morphing_basis_vector_1'> +3.0541208e-04 </wgt>
<wgt id='morphing_basis_vector_2'> +3.0628682e-04 </wgt>
<wgt id='morphing_basis_vector_3'> +1.4694018e-04 </wgt>
<wgt id='morphing_basis_vector_4'> +3.8426355e-05 </wgt>
<wgt id='morphing_basis_vector_5'> +7.6297541e-05 </wgt>
</rwgt>
</event>
<event>
 4      1 +1.9425900e-05 5.03486600e+02 7.81860800e-03 9.39200300e-02
        2 -1    0    0  501    0 +0.0000000000e+00 +0.0000000000e+00 +4.0493116294e+02 4.0493116294e+02 0.0000000000e+00 0.0000e+00 1.0000e+00
       -2 -1    0    0    0  501 -0.0000000000e+00 -0.0000000000e+00 -1.5650731258e+02 1.5650731258e+02 0.0000000000e+00 0.0000e+00 -1.0000e+00
      -13  1    1    2    0    0 +1.9205561689e+02 -1.3984648873e+02 +3.1368202060e+01 2.3963798632e+02 0.0000000000e+00 0.0000e+00 -1.0000e+00
       13  1    1    2    0    0 -1.9205561689e+02 +1.3984648873e+02 +2.1705564830e+02 3.2180048920e+02 0.0000000000e+00 0.0000e+00 1.0000e+00
<mgrwt>
<rscale>  0 0.50348660E+03</rscale>
<asrwt>0</asrwt>
<pdfrwt beam="1">  1        2 0.62297102E-01 0.50348660E+03</pdfrwt>
<pdfrwt beam="2">  1       -2 0.24078048E-01 0.50348660E+03</pdfrwt>
<totfact> 0.13660404E+03</totfact>
</mgrwt>
<rwgt>
<wgt id='morphing_basis_vector_1'> +2.9770821e-04 </wgt>
<wgt id='morphing_basis_vector_2'> +1.7027402e-04 </wgt>
<wgt id='morphing_basis_vector_3'> +2.1233474e-04 </wgt>
<wgt id='morphing_basis_vector_4'> +7.1783405e-05 </wgt>
<wgt id='morphing_basis_vector_5'> +1.0232151e-04 </wgt>
</rwgt>
</event>
<event>
 4      1 +1.9425900e-05 4.89555900e+02 7.81860800e-03 9.42346700e-02
        2 -1    0    0  501    0 +0.0000000000e+00 +0.0000000000e+00 +8.9000377503e+02 8.9000377503e+02 0.0000000000e+00 0.0000e+00 1.0000e+00
       -2 -1    0    0    0  501 -0.0000000000e+00 -0.0000000000e+00 -6.7321336821e+01 6.7321336821e+01 0.0000000000e+00 0.0000e+00 -1.0000e+00
      -13  1    1    2    0    0 -1.3661262094e+01 +2.3457811200e+02 +5.4544217510e+02 5.9390292733e+02 0.0000000000e+00 0.0000e+00 -1.0000e+00
       13  1    1    2    0    0 +1.3661262094e+01 -2.3457811200e+02 +2.7724026311e+02 3.6342218452e+02 0.0000000000e+00 0.0000e+00 1.0000e+00
<mgrwt>
<rscale>  0 0.48955590E+03</rscale>
<asrwt>0</asrwt>
<pdfrwt beam="1">  1        2 0.13692365E+00 0.48955590E+03</pdfrwt>
<pdfrwt beam="2">  1       -2 0.10357129E-01 0.48955590E+03</pdfrwt>
<totfact> 0.21112691E+03</totfact>
</mgrwt>
<rwgt>
<wgt id='morphing_basis_vector_1'> +2.9480549e-04 </wgt>
<wgt id='morphing_basis_vector_2'> +2.2134226e-04 </wgt>
<wgt id='morphing_basis_vector_3'> +1.8228449e-04 </wgt>
<wgt id='morphing_basis_vector_4'> +5.4652393e-05 </wgt>
<wgt id='morphing_basis_vector_5'> +8.7668817e-05 </wgt>
</rwgt>
</event>
<event>
 4      1 +1.9425900e-05 4.34003000e+02 7.81860800e-03 9.56102400e-02
        2 -1    0    0  501    0 +0.0000000000e+00 +0.0000000000e+00 +6.9448671289e+02 6.9448671289e+02 0.0000000000e+00 0.0000e+00 -1.0000e+00
       -2 -1    0    0    0  501 -0.0000000000e+00 -0.0000000000e+00 -6.7804963833e+01 6.7804963833e+01 0.0000000000e+00 0.0000e+00 1.0000e+00
      -13  1    1    2    0    0 +1.2599644417e+02 -4.2857630414e+01 +1.2291415534e+01 1.3365238241e+02 0.0000000000e+00 0.0000e+00 1.0000e+00
       13  1    1    2    0    0 -1.2599644417e+02 +4.2857630414e+01 +6.1439033352e+02 6.2863929431e+02 0.0000000000e+00 0.0000e+00 -1.0000e+00
<mgrwt>
<rscale>  0 0.43400298E+03</rscale>
<asrwt>0</asrwt>
<pdfrwt beam="1">  1        2 0.10684410E+00 0.43400298E+03</pdfrwt>
<pdfrwt beam="2">  1       -2 0.10431533E-01 0.43400298E+03</pdfrwt>
<totfact> 0.28463809E+03</totfact>
</mgrwt>
<rwgt>
<wgt id='morphing_basis_vector_1'> +1.9186923e-04 </wgt>
<wgt id='morphing_basis_vector_2'> +1.0364064e-04 </wgt>
<wgt id='morphing_basis_vector_3'> +1.2798176e-04 </wgt>
<wgt id='morphing_basis_vector_4'> +3.3464845e-05 </wgt>
<wgt id='morphing_basis_vector_5'> +4.0107583e-05 </wgt>
</rwgt>
</event>
<event>
 4      1 +1.9425900e-05 5.10730000e+02 7.81860800e-03 9.37607200e-02
        2 -1    0    0  501    0 +0.0000000000e+00 +0.0000000000e+00 +4.4381097901e+02 4.4381097901e+02 0.0000000000e+00 0.0000e+00 1.0000e+00
       -2 -1    0    0    0  501 -0.0000000000e+00 -0.0000000000e+00 -1.4693480546e+02 1.4693480546e+02 0.0000000000e+00 0.0000e+00 -1.0000e+00
      -13  1    1    2    0    0 -2.1621079544e+02 -4.6099737839e+01 +5.8791836561e-01 2.2107157108e+02 0.0000000000e+00 0.0000e+00 -1.0000e+00
       13  1    1    2    0    0 +2.1621079544e+02 +4.6099737839e+01 +2.9628825518e+02 3.6967421339e+02 0.0000000000e+00 0.0000e+00 1.0000e+00
<mgrwt>
<rscale>  0 0.51072999E+03</rscale>
<asrwt>0</asrwt>
<pdfrwt beam="1">  1        2 0.68278612E-01 0.51072999E+03</pdfrwt>
<pdfrwt beam="2">  1       -2 0.22605355E-01 0.51072999E+03</pdfrwt>
<totfact> 0.13711324E+03</totfact>
</mgrwt>
<rwgt>
<wgt id='morphing_basis_vector_1'> +3.0933013e-04 </wgt>
<wgt id='morphing_basis_vector_2'> +1.7344289e-04 </wgt>
<wgt id='morphing_basis_vector_3'> +2.2410381e-04 </wgt>
<wgt id='morphing_basis_vector_4'> +7.7900530e-05 </wgt>
<wgt id='morphing_basis_vector_5'> +1.1105855e-04 </wgt>
</rwgt>
</event>
<event>
 4      1 +1.9425900e-05 5.09434700e+02 7.81860800e-03 9.37890000e-02
        2 -1    0    0  501    0 +0.0000000000e+00 +0.0000000000e+00 +1.2421497575e+02 1.2421497575e+02 0.0000000000e+00 0.0000e+00 -1.0000e+00
       -2 -1    0    0    0  501 -0.0000000000e+00 -0.0000000000e+00 -5.2232764470e+02 5.2232764470e+02 0.0000000000e+00 0.0000e+00 1.0000e+00
      -13  1    1    2    0    0 -1.1922660377e+02 +1.4473474779e+02 -4.1784101020e+02 4.5798934493e+02 0.0000000000e+00 0.0000e+00 1.0000e+00
       13  1    1    2    0    0 +1.1922660377e+02 -1.4473474779e+02 +1.9728341247e+01 1.8855327553e+02 0.0000000000e+00 0.0000e+00 -1.0000e+00
<mgrwt>
<rscale>  0 0.50943465E+03</rscale>
<asrwt>0</asrwt>
<pdfrwt beam="1">  1        2 0.19109997E-01 0.50943465E+03</pdfrwt>
<pdfrwt beam="2">  1       -2 0.80358098E-01 0.50943465E+03</pdfrwt>
<totfact> 0.52792908E+02</totfact>
</mgrwt>
<rwgt>
<wgt id='morphing_basis_vector_1'> +3.0614426e-04 </wgt>
<wgt id='morphing_basis_vector_2'> +1.6952210e-04 </wgt>
<wgt id='morphing_basis_vector_3'> +2.2236556e-04 </wgt>
<wgt id='morphing_basis_vector_4'> +7.7248721e-05 </wgt>
<wgt id='morphing_basis_vector_5'> +1.0941994e-04 </wgt>
</rwgt>
</event>
<event>
 4      1 +1.9425900e-05 4.74784200e+02 7.81860800e-03 9.45808500e-02
        2 -1    0    0  501    0 +0.0000000000e+00 +0.0000000000e+00 +5.8193379335e+01 5.8193379335e+01 0.0000000000e+00 0.0000e+00 -1.0000e+00
       -2 -1    0    0    0  501 -0.0000000000e+00 -0.0000000000e+00 -9.6840945793e+02 9.6840945793e+02 0.0000000000e+00 0.0000e+00 1.0000e+00
      -13  1    1    2    0    0 +1.8863994868e+02 -1.4253995816e+02 -5.0109587744e+02 5.5407557995e+02 0.0000000000e+00 0.0000e+00 1.0000e+00
       13  1    1    2    0    0 -1.8863994868e+02 +1.4253995816e+02 -4.0912020116e+02 4.7252725732e+02 0.0000000000e+00 0.0000e+00 -1.0000e+00
<mgrwt>
<rscale>  0 0.47478424E+03</rscale>
<asrwt>0</asrwt>
<pdfrwt beam="1">  1        2 0.89528280E-02 0.47478424E+03</pdfrwt>
<pdfrwt beam="2">  1       -2 0.14898606E+00 0.47478424E+03</pdfrwt>
<totfact> 0.29055509E+02</totfact>
</mgrwt>
<rwgt>
<wgt id='morphing_basis_vector_1'> +2.5363313e-04 </wgt>
<wgt id='morphing_basis_vector_2'> +1.5291105e-04 </wgt>
<wgt id='morphing_basis_vector_3'> +1.7045542e-04 </wgt>
<wgt id='morphing_basis_vector_4'> +5.2010816e-05 </wgt>
<wgt id='morphing_basis_vector_5'> +7.2226279e-05 </wgt>
</rwgt>
</event>
<event>
 4      1 +1.9425900e-05 5.12323100e+02 7.81860800e-03 9.37260600e-02
        2 -1    0    0  501    0 +0.0000000000e+00 +0.0000000000e+00 +1.4571586164e+03 1.4571586164e+03 0.0000000000e+00 0.0000e+00 1.0000e+00
       -2 -1    0    0    0  501 -0.0000000000e+00 -0.0000000000e+00 -4.5031983449e+01 4.5031983449e+01 0.0000000000e+00 0.0000e+00 -1.0000e+00
      -13  1    1    2    0    0 -1.3105354937e+02 +1.6095986475e+02 +2.6589785528e+02 3.3731999690e+02 0.0000000000e+00 0.0000e+00 -1.0000e+00
       13  1    1    2    0    0 +1.3105354937e+02 -1.6095986475e+02 +1.1462287776e+03 1.1648706029e+03 0.0000000000e+00 0.0000e+00 1.0000e+00
<mgrwt>
<rscale>  0 0.51232311E+03</rscale>
<asrwt>0</asrwt>
<pdfrwt beam="1">  1        2 0.22417821E+00 0.51232311E+03</pdfrwt>
<pdfrwt beam="2">  1       -2 0.69279986E-02 0.51232311E+03</pdfrwt>
<totfact> 0.18412509E+03</totfact>
</mgrwt>
<rwgt>
<wgt id='morphing_basis_vector_1'> +3.1179747e-04 </wgt>
<wgt id='morphing_basis_vector_2'> +1.7370806e-04 </wgt>
<wgt id='morphing_basis_vector_3'> +2.2679652e-04 </wgt>
<wgt id='morphing_basis_vector_4'> +7.9367409e-05 </wgt>
<wgt id='morphing_basis_vector_5'> +1.1304170e-04 </wgt>
</rwgt>
</event>
<event>
 4      1 +1.9425900e-05 4.63798500e+02 7.81860800e-03 9.48471500e-02
        2 -1    0    0  501    0 +0.0000000000e+00 +0.0000000000e+00 +8.8058640381e+02 8.8058640381e+02 0.0000000000e+00 0.0000e+00 1.0000e+00
       -2 -1    0    0    0  501 -0.0000000000e+00 -0.0000000000e+00 -6.1069825982e+01 6.1069825982e+01 0.0000000000e+00 0.0000e+00 -1.0000e+00
      -13  1    1    2    0    0 +5.9132928095e+01 +1.2826240305e+02 +3.6327917209e+01 1.4583437451e+02 0.0000000000e+00 0.0000e+00 -1.0000e+00
       13  1    1    2    0    0 -5.9132928095e+01 -1.2826240305e+02 +7.8318866062e+02 7.9582185528e+02 0.0000000000e+00 0.0000e+00 1.0000e+00
<mgrwt>
<rscale>  0 0.46379848E+03</rscale>
<asrwt>0</asrwt>
<pdfrwt beam="1">  1        2 0.13547482E+00 0.46379848E+03</pdfrwt>
<pdfrwt beam="2">  1       -2 0.93953584E-02 0.46379848E+03</pdfrwt>
<totfact> 0.24922656E+03</totfact>
</mgrwt>
<rwgt>
<wgt id='morphing_basis_vector_1'> +2.3161764e-04 </wgt>
<wgt id='morphing_basis_vector_2'> +1.2596861e-04 </wgt>
<wgt id='morphing_basis_vector_3'> +1.6005452e-04 </wgt>
<wgt id='morphing_basis_vector_4'> +4.7465701e-05 </wgt>
<wgt id='morphing_basis_vector_5'> +6.2164073e-05 </wgt>
</rwgt>
</event>
<event>
 4      1 +1.9425900e-05 4.77121600e+02 7.81860800e-03 9.45251700e-02
        2 -1    0    0  501    0 +0.0000000000e+00 +0.0000000000e+00 +6.1419641078e+02 6.1419641078e+02 0.0000000000e+00 0.0000e+00 -1.0000e+00
       -2 -1    0    0    0  501 -0.0000000000e+00 -0.0000000000e+00 -9.2659708400e+01 9.2659708400e+01 0.0000000000e+00 0.0000e+00 1.0000e+00
      -13  1    1    2    0    0 +2.3387982735e+02 +4.6304440559e+01 +2.4860690998e+02 3.4445503414e+02 0.0000000000e+00 0.0000e+00 1.0000e+00
       13  1    1    2    0    0 -2.3387982735e+02 -4.6304440559e+01 +2.7292979240e+02 3.6240108503e+02 0.0000000000e+00 0.0000e+00 -1.0000e+00
<mgrwt>
<rscale>  0 0.47712162E+03</rscale>
<asrwt>0</asrwt>
<pdfrwt beam="1">  1        2 0.94491753E-01 0.47712162E+03</pdfrwt>
<pdfrwt beam="2">  1       -2 0.14255340E-01 0.47712162E+03</pdfrwt>
<totfact> 0.20123070E+03</totfact>
</mgrwt>
<rwgt>
<wgt id='morphing_basis_vector_1'> +2.5866322e-04 </wgt>
<wgt id='morphing_basis_vector_2'> +1.5941919e-04 </wgt>
<wgt id='morphing_basis_vector_3'> +1.7275471e-04 </wgt>
<wgt id='morphing_basis_vector_4'> +5.2916384e-05 </wgt>
<wgt id='morphing_basis_vector_5'> +7.4496084e-05 </wgt>
</rwgt>
</event>
<event>
 4      1 +1.9425900e-05 5.14714400e+02 7.81860800e-03 9.36742900e-02
        2 -1    0    0  501    0 +0.0000000000e+00 +0.0000000000e+00 +1.2230184381e+03 1.2230184381e+03 0.0000000000e+00 0.0000e+00 1.0000e+00
       -2 -1    0    0    0  501 -0.0000000000e+00 -0.0000000000e+00 -5.4155133644e+01 5.4155133644e+01 0.0000000000e+00 0.0000e+00 -1.0000e+00
      -13  1    1    2    0    0 +2.2042566750e+02 +8.0814487939e+01 +8.4602343204e+02 8.7799436439e+02 0.0000000000e+00 0.0000e+00 1.0000e+00
       13  1    1    2    0    0 -2.2042566750e+02 -8.0814487939e+01 +3.2283987242e+02 3.9917920735e+02 0.0000000000e+00 0.0000e+00 -1.0000e+00
<mgrwt>
<rscale>  0 0.51471439E+03</rscale>
<asrwt>0</asrwt>
<pdfrwt beam="1">  1        2 0.18815666E+00 0.51471439E+03</pdfrwt>
<pdfrwt beam="2">  1       -2 0.83315600E-02 0.51471439E+03</pdfrwt>
<totfact> 0.18702900E+03</totfact>
</mgrwt>
<rwgt>
<wgt id='morphing_basis_vector_1'> +3.5708414e-04 </wgt>
<wgt id='morphing_basis_vector_2'> +3.0314378e-04 </wgt>
<wgt id='morphing_basis_vector_3'> +2.1666000e-04 </wgt>
<wgt id='morphing_basis_vector_4'> +6.2480142e-05 </wgt>
<wgt id='morphing_basis_vector_5'> +1.1752393e-04 </wgt>
</rwgt>
</event>
<event>
 4      1 +1.9425900e-05 5.12281500e+02 7.81860800e-03 9.37269700e-02
        2 -1    0    0  501    0 +0.0000000000e+00 +0.0000000000e+00 +3.8457842031e+02 3.8457842031e+02 0.0000000000e+00 0.0000e+00 -1.0000e+00
       -2 -1    0    0    0  501 -0.0000000000e+00 -0.0000000000e+00 -1.7059744469e+02 1.7059744469e+02 0.0000000000e+00 0.0000e+00 1.0000e+00
      -13  1    1    2    0    0 +8.2517131321e+01 +6.8754692134e+01 -1.4501344821e+02 1.8045826335e+02 0.0000000000e+00 0.0000e+00 1.0000e+00
       13  1    1    2    0    0 -8.2517131321e+01 -6.8754692134e+01 +3.5899442383e+02 3.7471760165e+02 0.0000000000e+00 0.0000e+00 -1.0000e+00
<mgrwt>
<rscale>  0 0.51228155E+03</rscale>
<asrwt>0</asrwt>
<pdfrwt beam="1">  1        2 0.59165910E-01 0.51228155E+03</pdfrwt>
<pdfrwt beam="2">  1       -2 0.26245761E-01 0.51228155E+03</pdfrwt>
<totfact> 0.12496975E+03</totfact>
</mgrwt>
<rwgt>
<wgt id='morphing_basis_vector_1'> +3.1097813e-04 </wgt>
<wgt id='morphing_basis_vector_2'> +1.7135731e-04 </wgt>
<wgt id='morphing_basis_vector_3'> +2.2699287e-04 </wgt>
<wgt id='morphing_basis_vector_4'> +7.9668926e-05 </wgt>
<wgt id='morphing_basis_vector_5'> +1.1296250e-04 </wgt>
</rwgt>
</event>
<event>
 4      1 +1.9425900e-05 4.41484000e+02 7.81860800e-03 9.54127100e-02
        2 -1    0    0  501    0 +0.0000000000e+00 +0.0000000000e+00 +4.8729776688e+02 4.8729776688e+02 0.0000000000e+00 0.0000e+00 -1.0000e+00
       -2 -1    0    0    0  501 -0.0000000000e+00 -0.0000000000e+00 -9.9994361978e+01 9.9994361978e+01 0.0000000000e+00 0.0000e+00 1.0000e+00
      -13  1    1    2    0    0 -5.3792553976e+01 +7.4206179714e+01 -7.3486670990e+01 1.1747547312e+02 0.0000000000e+00 0.0000e+00 1.0000e+00
       13  1    1    2    0    0 +5.3792553976e+01 -7.4206179714e+01 +4.6079007589e+02 4.6981665574e+02 0.0000000000e+00 0.0000e+00 -1.0000e+00
<mgrwt>
<rscale>  0 0.44148399E+03</rscale>
<asrwt>0</asrwt>
<pdfrwt beam="1">  1        2 0.74968886E-01 0.44148399E+03</pdfrwt>
<pdfrwt beam="2">  1       -2 0.15383748E-01 0.44148399E+03</pdfrwt>
<totfact> 0.23182203E+03</totfact>
</mgrwt>
<rwgt>
<wgt id='morphing_basis_vector_1'> +2.0117441e-04 </wgt>
<wgt id='morphing_basis_vector_2'> +1.0862117e-04 </wgt>
<wgt id='morphing_basis_vector_3'> +1.3550895e-04 </wgt>
<wgt id='morphing_basis_vector_4'> +3.6625341e-05 </wgt>
<wgt id='morphing_basis_vector_5'> +4.5058389e-05 </wgt>
</rwgt>
</event>
<event>
 4      1 +1.9425900e-05 5.05645300e+02 7.81860800e-03 9.38722600e-02
        2 -1    0    0  501    0 +0.0000000000e+00 +0.0000000000e+00 +4.4068654890e+02 4.4068654890e+02 0.0000000000e+00 0.0000e+00 1.0000e+00
       -2 -1    0    0    0  501 -0.0000000000e+00 -0.0000000000e+00 -1.4504478108e+02 1.4504478108e+02 0.0000000000e+00 0.0000e+00 -1.0000e+00
      -13  1    1    2    0    0 -5.4457945078e+01 -2.3618222153e+02 +6.4517259163e+01 2.5081903094e+02 0.0000000000e+00 0.0000e+00 -1.0000e+00
       13  1    1    2    0    0 +5.4457945078e+01 +2.3618222153e+02 +2.3112450865e+02 3.3491229904e+02 0.0000000000e+00 0.0000e+00 1.0000e+00
<mgrwt>
<rscale>  0 0.50564527E+03</rscale>
<asrwt>0</asrwt>
<pdfrwt beam="1">  1        2 0.67797930E-01 0.50564527E+03</pdfrwt>
<pdfrwt beam="2">  1       -2 0.22314582E-01 0.50564527E+03</pdfrwt>
<totfact> 0.14122906E+03</totfact>
</mgrwt>
<rwgt>
<wgt id='morphing_basis_vector_1'> +3.0217322e-04 </wgt>
<wgt id='morphing_basis_vector_2'> +1.7444856e-04 </wgt>
<wgt id='morphing_basis_vector_3'> +2.1539867e-04 </wgt>
<wgt id='morphing_basis_vector_4'> +7.3120757e-05 </wgt>
<wgt id='morphing_basis_vector_5'> +1.0491380e-04 </wgt>
</rwgt>
</event>
<event>
 4      1 +1.9425900e-05 4.67681200e+02 7.81860800e-03 9.47521600e-02
        2 -1    0    0  501    0 +0.0000000000e+00 +0.0000000000e+00 +2.3182778431e+02 2.3182778431e+02 0.0000000000e+00 0.0000e+00 1.0000e+00
       -2 -1    0    0    0  501 -0.0000000000e+00 -0.0000000000e+00 -2.3587092504e+02 2.3587092504e+02 0.0000000000e+00 0.0000e+00 -1.0000e+00
      -13  1    1    2    0    0 +1.4119178451e+02 +1.0726384753e+02 -1.5447654040e+02 2.3516729053e+02 0.0000000000e+00 0.0000e+00 -1.0000e+00
       13  1    1    2    0    0 -1.4119178451e+02 -1.0726384753e+02 +1.5043339967e+02 2.3253141882e+02 0.0000000000e+00 0.0000e+00 1.0000e+00
<mgrwt>
<rscale>  0 0.46768123E+03</rscale>
<asrwt>0</asrwt>
<pdfrwt beam="1">  1        2 0.35665813E-01 0.46768123E+03</pdfrwt>
<pdfrwt beam="2">  1       -2 0.36287835E-01 0.46768123E+03</pdfrwt>
<totfact> 0.12455527E+03</totfact>
</mgrwt>
<rwgt>
<wgt id='morphing_basis_vector_1'> +2.3754178e-04 </wgt>
<wgt id='morphing_basis_vector_2'> +1.2999830e-04 </wgt>
<wgt id='morphing_basis_vector_3'> +1.6455763e-04 </wgt>
<wgt id='morphing_basis_vector_4'> +4.9521780e-05 </wgt>
<wgt id='morphing_basis_vector_5'> +6.5528662e-05 </wgt>
</rwgt>
</event>
<event>
 4      1 +1.9425900e-05 4.40781400e+02 7.81860800e-03 9.54310900e-02
        2 -1    0    0  501    0 +0.0000000000e+00 +0.0000000000e+00 +3.1138506534e+02 3.1138506534e+02 0.0000000000e+00 0.0000e+00 1.0000e+00
       -2 -1    0    0    0  501 -0.0000000000e+00 -0.0000000000e+00 -1.5598713025e+02 1.5598713025e+02 0.0000000000e+00 0.0000e+00 -1.0000e+00
      -13  1    1    2    0    0 +1.8740759139e+02 +8.0630192763e+01 +1.6608994342e+02 2.6307546940e+02 0.0000000000e+00 0.0000e+00 -1.0000e+00
       13  1    1    2    0    0 -1.8740759139e+02 -8.0630192763e+01 -1.0692008331e+01 2.0429672620e+02 0.0000000000e+00 0.0000e+00 1.0000e+00
<mgrwt>
<rscale>  0 0.44078141E+03</rscale>
<asrwt>0</asrwt>
<pdfrwt beam="1">  1        2 0.47905394E-01 0.44078141E+03</pdfrwt>
<pdfrwt beam="2">  1       -2 0.23998020E-01 0.44078141E+03</pdfrwt>
<totfact> 0.18389804E+03</totfact>
</mgrwt>
<rwgt>
<wgt id='morphing_basis_vector_1'> +2.2364114e-04 </wgt>
<wgt id='morphing_basis_vector_2'> +1.8023439e-04 </wgt>
<wgt id='morphing_basis_vector_3'> +1.1799463e-04 </wgt>
<wgt id='morphing_basis_vector_4'> +3.3172556e-05 </wgt>
<wgt id='morphing_basis_vector_5'> +4.5932733e-05 </wgt>
</rwgt>
</event>
<event>
 4      1 +1.9425900e-05 4.49621200e+02 7.81860800e-03 9.52024800e-02
        2 -1    0    0  501    0 +0.0000000000e+00 +0.0000000000e+00 +1.4725827151e+03 1.4725827151e+03 0.0000000000e+00 0.0000e+00 -1.0000e+00
       -2 -1    0    0    0  501 -0.0000000000e+00 -0.0000000000e+00 -3.4320518376e+01 3.4320518376e+01 0.0000000000e+00 0.0000e+00 1.0000e+00
      -13  1    1    2    0    0 +3.6869786041e+01 +2.2139974939e+02 +7.6186390817e+02 7.9423790185e+02 0.0000000000e+00 0.0000e+00 1.0000e+00
       13  1    1    2    0    0 -3.6869786041e+01 -2.2139974939e+02 +6.7639828851e+02 7.1266533159e+02 0.0000000000e+00 0.0000e+00 -1.0000e+00
<mgrwt>
<rscale>  0 0.44962118E+03</rscale>
<asrwt>0</asrwt>
<pdfrwt beam="1">  1        2 0.22655114E+00 0.44962118E+03</pdfrwt>
<pdfrwt beam="2">  1       -2 0.52800809E-02 0.44962118E+03</pdfrwt>
<totfact> 0.27343246E+03</totfact>
</mgrwt>
<rwgt>
<wgt id='morphing_basis_vector_1'> +2.2019446e-04 </wgt>
<wgt id='morphing_basis_vector_2'> +1.4045062e-04 </wgt>
<wgt id='morphing_basis_vector_3'> +1.3844949e-04 </wgt>
<wgt id='morphing_basis_vector_4'> +3.8851596e-05 </wgt>
<wgt id='morphing_basis_vector_5'> +5.1347815e-05 </wgt>
</rwgt>
</event>
<event>
 4      1 +1.9425900e-05 4.64883900e+02 7.81860800e-03 9.48205000e-02
        2 -1    0    0  501    0 +0.0000000000e+00 +0.0000000000e+00 +2.7911082527e+02 2.7911082527e+02 0.0000000000e+00 0.0000e+00 -1.0000e+00
       -2 -1    0    0    0  501 -0.0000000000e+00 -0.0000000000e+00 -1.9357639444e+02 1.9357639444e+02 0.0000000000e+00 0.0000e+00 1.0000e+00
      -13  1    1    2    0    0 -1.9133968407e+02 +4.0034476926e+01 -8.5103948270e+01 2.1320486874e+02 0.0000000000e+00 0.0000e+00 1.0000e+00
       13  1    1    2    0    0 +1.9133968407e+02 -4.0034476926e+01 +1.7063837909e+02 2.5948235097e+02 0.0000000000e+00 0.0000e+00 -1.0000e+00
<mgrwt>
<rscale>  0 0.46488393E+03</rscale>
<asrwt>0</asrwt>
<pdfrwt beam="1">  1        2 0.42940127E-01 0.46488393E+03</pdfrwt>
<pdfrwt beam="2">  1       -2 0.29780984E-01 0.46488393E+03</pdfrwt>
<totfact> 0.14352302E+03</totfact>
</mgrwt>
<rwgt>
<wgt id='morphing_basis_vector_1'> +2.3381107e-04 </wgt>
<wgt id='morphing_basis_vector_2'> +1.2878749e-04 </wgt>
<wgt id='morphing_basis_vector_3'> +1.6097683e-04 </wgt>
<wgt id='morphing_basis_vector_4'> +4.7898859e-05 </wgt>
<wgt id='morphing_basis_vector_5'> +6.3121315e-05 </wgt>
</rwgt>
</event>
<event>
 4      1 +1.9425900e-05 4.57937800e+02 7.81860800e-03 9.49924000e-02
        2 -1    0    0  501    0 +0.0000000000e+00 +0.0000000000e+00 +5.9445153011e+02 5.9445153011e+02 0.0000000000e+00 0.0000e+00 -1.0000e+00
       -2 -1    0    0    0  501 -0.0000000000e+00 -0.0000000000e+00 -8.8193477544e+01 8.8193477544e+01 0.0000000000e+00 0.0000e+00 1.0000e+00
      -13  1    1    2    0    0 +1.7976625328e+02 -1.3368910736e+02 +1.8260700418e+02 2.8902249259e+02 0.0000000000e+00 0.0000e+00 1.0000e+00
       13  1    1    2    0    0 -1.7976625328e+02 +1.3368910736e+02 +3.2365104839e+02 3.9362251507e+02 0.0000000000e+00 0.0000e+00 -1.0000e+00
<mgrwt>
<rscale>  0 0.45793776E+03</rscale>
<asrwt>0</asrwt>
<pdfrwt beam="1">  1        2 0.91454079E-01 0.45793776E+03</pdfrwt>
<pdfrwt beam="2">  1       -2 0.13568228E-01 0.45793776E+03</pdfrwt>
<totfact> 0.22607426E+03</totfact>
</mgrwt>
<rwgt>
<wgt id='morphing_basis_vector_1'> +2.2648069e-04 </wgt>
<wgt id='morphing_basis_vector_2'> +1.3112829e-04 </wgt>
<wgt id='morphing_basis_vector_3'> +1.5124336e-04 </wgt>
<wgt id='morphing_basis_vector_4'> +4.3710360e-05 </wgt>
<wgt id='morphing_basis_vector_5'> +5.7492887e-05 </wgt>
</rwgt>
</event>
<event>
 4      1 +1.9425900e-05 4.35563900e+02 7.81860800e-03 9.55686800e-02
        2 -1    0    0  501    0 +0.0000000000e+00 +0.0000000000e+00 +8.7937286134e+02 8.7937286134e+02 0.0000000000e+00 0.0000e+00 -1.0000e+00
       -2 -1    0    0    0  501 -0.0000000000e+00 -0.0000000000e+00 -5.3935002085e+01 5.3935002085e+01 0.0000000000e+00 0.0000e+00 1.0000e+00
      -13  1    1    2    0    0 +3.7965842220e-02 -1.9417831959e+02 +6.2401434470e+02 6.5352821182e+02 0.0000000000e+00 0.0000e+00 1.0000e+00
       13  1    1    2    0    0 -3.7965842220e-02 +1.9417831959e+02 +2.0142351455e+02 2.7977965161e+02 0.0000000000e+00 0.0000e+00 -1.0000e+00
<mgrwt>
<rscale>  0 0.43556390E+03</rscale>
<asrwt>0</asrwt>
<pdfrwt beam="1">  1        2 0.13528812E+00 0.43556390E+03</pdfrwt>
<pdfrwt beam="2">  1       -2 0.82976933E-02 0.43556390E+03</pdfrwt>
<totfact> 0.30242004E+03</totfact>
</mgrwt>
<rwgt>
<wgt id='morphing_basis_vector_1'> +2.2204835e-04 </wgt>
<wgt id='morphing_basis_vector_2'> +1.9183187e-04 </wgt>
<wgt id='morphing_basis_vector_3'> +1.0839351e-04 </wgt>
<wgt id='morphing_basis_vector_4'> +3.0997918e-05 </wgt>
<wgt id='morphing_basis_vector_5'> +4.2785296e-05 </wgt>
</rwgt>
</event>
<event>
 4      1 +1.9425900e-05 4.61589000e+02 7.81860800e-03 9.49016500e-02
        2 -1    0    0  501    0 +0.0000000000e+00 +0.0000000000e+00 +8.8003528276e+02 8.8003528276e+02 0.0000000000e+00 0.0000e+00 1.0000e+00
       -2 -1    0    0    0  501 -0.0000000000e+00 -0.0000000000e+00 -6.0527244503e+01 6.0527244503e+01 0.0000000000e+00 0.0000e+00 -1.0000e+00
      -13  1    1    2    0    0 -1.9365175846e+02 +1.2549766742e+02 +4.1776144733e+02 4.7725810099e+02 0.0000000000e+00 0.0000e+00 -1.0000e+00
       13  1    1    2    0    0 +1.9365175846e+02 -1.2549766742e+02 +4.0174659093e+02 4.6330442628e+02 0.0000000000e+00 0.0000e+00 1.0000e+00
<mgrwt>
<rscale>  0 0.46158904E+03</rscale>
<asrwt>0</asrwt>
<pdfrwt beam="1">  1        2 0.13539003E+00 0.46158904E+03</pdfrwt>
<pdfrwt beam="2">  1       -2 0.93118844E-02 0.46158904E+03</pdfrwt>
<totfact> 0.25290457E+03</totfact>
</mgrwt>
<rwgt>
<wgt id='morphing_basis_vector_1'> +2.3622595e-04 </wgt>
<wgt id='morphing_basis_vector_2'> +1.4824991e-04 </wgt>
<wgt id='morphing_basis_vector_3'> +1.5273169e-04 </wgt>
<wgt id='morphing_basis_vector_4'> +4.4489347e-05 </wgt>
<wgt id='morphing_basis_vector_5'> +6.0716168e-05 </wgt>
</rwgt>
</event>
<event>
 4      1 +1.9425900e-05 4.63332700e+02 7.81860800e-03 9.48586100e-02
        2 -1    0    0  501    0 +0.0000000000e+00 +0.0000000000e+00 +1.5703592382e+02 1.5703592382e+02 0.0000000000e+00 0.0000e+00 1.0000e+00
       -2 -1    0    0    0  501 -0.0000000000e+00 -0.0000000000e+00 -3.4176440981e+02 3.4176440981e+02 0.0000000000e+00 0.0000e+00 -1.0000e+00
      -13  1    1    2    0    0 +1.5090922668e+02 +1.7300680569e+02 -1.2579521285e+02 2.6178117787e+02 0.0000000000e+00 0.0000e+00 -1.0000e+00
       13  1    1    2    0    0 -1.5090922668e+02 -1.7300680569e+02 -5.8933273148e+01 2.3701915576e+02 0.0000000000e+00 0.0000e+00 1.0000e+00
<mgrwt>
<rscale>  0 0.46333267E+03</rscale>
<asrwt>0</asrwt>
<pdfrwt beam="1">  1        2 0.24159373E-01 0.46333267E+03</pdfrwt>
<pdfrwt beam="2">  1       -2 0.52579139E-01 0.46333267E+03</pdfrwt>
<totfact> 0.96961909E+02</totfact>
</mgrwt>
<rwgt>
<wgt id='morphing_basis_vector_1'> +2.3538322e-04 </wgt>
<wgt id='morphing_basis_vector_2'> +1.3932533e-04 </wgt>
<wgt id='morphing_basis_vector_3'> +1.5684913e-04 </wgt>
<wgt id='morphing_basis_vector_4'> +4.6153806e-05 </wgt>
<wgt id='morphing_basis_vector_5'> +6.2000087e-05 </wgt>
</rwgt>
</event>
<event>
 4      1 +1.9425900e-05 4.62273800e+02 7.81860800e-03 9.48847200e-02
        2 -1    0    0  501    0 +0.0000000000e+00 +0.0000000000e+00 +9.0587943673e+02 9.0587943673e+02 0.0000000000e+00 0.0000e+00 -1.0000e+00
       -2 -1    0    0    0  501 -0.0000000000e+00 -0.0000000000e+00 -5.8975038334e+01 5.8975038334e+01 0.0000000000e+00 0.0000e+00 1.0000e+00
      -13  1    1    2    0    0 +1.6483299884e+02 +1.6119857953e+02 +4.5770855132e+02 5.1249587071e+02 0.0000000000e+00 0.0000e+00 1.0000e+00
       13  1    1    2    0    0 -1.6483299884e+02 -1.6119857953e+02 +3.8919584707e+02 4.5235860435e+02 0.0000000000e+00 0.0000e+00 -1.0000e+00
<mgrwt>
<rscale>  0 0.46227383E+03</rscale>
<asrwt>0</asrwt>
<pdfrwt beam="1">  1        2 0.13936606E+00 0.46227383E+03</pdfrwt>
<pdfrwt beam="2">  1       -2 0.90730835E-02 0.46227383E+03</pdfrwt>
<totfact> 0.25343764E+03</totfact>
</mgrwt>
<rwgt>
<wgt id='morphing_basis_vector_1'> +2.3893020e-04 </wgt>
<wgt id='morphing_basis_vector_2'> +1.5414841e-04 </wgt>
<wgt id='morphing_basis_vector_3'> +1.5251887e-04 </wgt>
<wgt id='morphing_basis_vector_4'> +4.4422530e-05 </wgt>
<wgt id='morphing_basis_vector_5'> +6.1375910e-05 </wgt>
</rwgt>
</event>
<event>
 4      1 +1.9425900e-05 4.58656600e+02 7.81860800e-03 9.49744700e-02
        2 -1    0    0  501    0 +0.0000000000e+00 +0.0000000000e+00 +8.5484552940e+02 8.5484552940e+02 0.0000000000e+00 0.0000e+00 -1.0000e+00
       -2 -1    0    0    0  501 -0.0000000000e+00 -0.0000000000e+00 -6.1521598345e+01 6.1521598345e+01 0.0000000000e+00 0.0000e+00 1.0000e+00
      -13  1    1    2    0    0 -1.0830629613e+01 -2.2809872093e+02 +4.3881485979e+02 4.9467647023e+02 0.0000000000e+00 0.0000e+00 -1.0000e+00
       13  1    1    2    0    0 +1.0830629613e+01 +2.2809872093e+02 +3.5450907127e+02 4.2169065752e+02 0.0000000000e+00 0.0000e+00 1.0000e+00
<mgrwt>
<rscale>  0 0.45865657E+03</rscale>
<asrwt>0</asrwt>
<pdfrwt beam="1">  1        2 0.13151469E+00 0.45865657E+03</pdfrwt>
<pdfrwt beam="2">  1       -2 0.94648619E-02 0.45865657E+03</pdfrwt>
<totfact> 0.25604607E+03</totfact>
</mgrwt>
<rwgt>
<wgt id='morphing_basis_vector_1'> +2.3429557e-04 </wgt>
<wgt id='morphing_basis_vector_2'> +1.5276344e-04 </wgt>
<wgt id='morphing_basis_vector_3'> +1.4783661e-04 </wgt>
<wgt id='morphing_basis_vector_4'> +4.2583846e-05 </wgt>
<wgt id='morphing_basis_vector_5'> +5.8434839e-05 </wgt>
</rwgt>
</event>
<event>
 4      1 +1.9425900e-05 4.37806300e+02 7.81860800e-03 9.55093000e-02
        2 -1    0    0  501    0 +0.0000000000e+00 +0.0000000000e+00 +7.9272732623e+02 7.9272732623e+02 0.0000000000e+00 0.0000e+00 -1.0000e+00
       -2 -1    0    0    0  501 -0.0000000000e+00 -0.0000000000e+00 -6.0447769843e+01 6.0447769843e+01 0.0000000000e+00 0.0000e+00 1.0000e+00
      -13  1    1    2    0    0 +2.1438930106e+02 -1.4473289670e+01 +2.8470276866e+02 3.5669022275e+02 0.0000000000e+00 0.0000e+00 1.0000e+00
       13  1    1    2    0    0 -2.1438930106e+02 +1.4473289670e+01 +4.4757678773e+02 4.9648487332e+02 0.0000000000e+00 0.0000e+00 -1.0000e+00
<mgrwt>
<rscale>  0 0.43780635E+03</rscale>
<asrwt>0</asrwt>
<pdfrwt beam="1">  1        2 0.12195804E+00 0.43780635E+03</pdfrwt>
<pdfrwt beam="2">  1       -2 0.92996574E-02 0.43780635E+03</pdfrwt>
<totfact> 0.28954502E+03</totfact>
</mgrwt>
<rwgt>
<wgt id='morphing_basis_vector_1'> +1.9955596e-04 </wgt>
<wgt id='morphing_basis_vector_2'> +1.1540960e-04 </wgt>
<wgt id='morphing_basis_vector_3'> +1.2955406e-04 </wgt>
<wgt id='morphing_basis_vector_4'> +3.4679428e-05 </wgt>
<wgt id='morphing_basis_vector_5'> +4.2754379e-05 </wgt>
</rwgt>
</event>
<event>
 4      1 +1.9425900e-05 4.47290200e+02 7.81860800e-03 9.52622200e-02
        2 -1    0    0  501    0 +0.0000000000e+00 +0.0000000000e+00 +5.8173649012e+02 5.8173649012e+02 0.0000000000e+00 0.0000e+00 -1.0000e+00
       -2 -1    0    0    0  501 -0.0000000000e+00 -0.0000000000e+00 -8.5979033596e+01 8.5979033596e+01 0.0000000000e+00 0.0000e+00 1.0000e+00
      -13  1    1    2    0    0 +1.3052623329e+02 -1.8043326890e+02 +2.1714444723e+02 3.1103853953e+02 0.0000000000e+00 0.0000e+00 1.0000e+00
       13  1    1    2    0    0 -1.3052623329e+02 +1.8043326890e+02 +2.7861300929e+02 3.5667698419e+02 0.0000000000e+00 0.0000e+00 -1.0000e+00
<mgrwt>
<rscale>  0 0.44729025E+03</rscale>
<asrwt>0</asrwt>
<pdfrwt beam="1">  1        2 0.89497919E-01 0.44729025E+03</pdfrwt>
<pdfrwt beam="2">  1       -2 0.13227544E-01 0.44729025E+03</pdfrwt>
<totfact> 0.24129563E+03</totfact>
</mgrwt>
<rwgt>
<wgt id='morphing_basis_vector_1'> +2.1349364e-04 </wgt>
<wgt id='morphing_basis_vector_2'> +1.2757508e-04 </wgt>
<wgt id='morphing_basis_vector_3'> +1.3830841e-04 </wgt>
<wgt id='morphing_basis_vector_4'> +3.8448357e-05 </wgt>
<wgt id='morphing_basis_vector_5'> +4.9434819e-05 </wgt>
</rwgt>
</event>
<event>
 4      1 +1.9425900e-05 4.37481800e+02 7.81860800e-03 9.55178700e-02
        2 -1    0    0  501    0 +0.0000000000e+00 +0.0000000000e+00 +1.3939483844e+02 1.3939483844e+02 0.0000000000e+00 0.0000e+00 -1.0000e+00
       -2 -1    0    0    0  501 -0.0000000000e+00 -0.0000000000e+00 -3.4325210186e+02 3.4325210186e+02 0.0000000000e+00 0.0000e+00 1.0000e+00
      -13  1    1    2    0    0 +2.0551249055e+02 -8.1133503380e+00 -1.9766124853e+01 2.0662020695e+02 0.0000000000e+00 0.0000e+00 1.0000e+00
       13  1    1    2    0    0 -2.0551249055e+02 +8.1133503380e+00 -1.8409113857e+02 2.7602673335e+02 0.0000000000e+00 0.0000e+00 -1.0000e+00
<mgrwt>
<rscale>  0 0.43748175E+03</rscale>
<asrwt>0</asrwt>
<pdfrwt beam="1">  1        2 0.21445360E-01 0.43748175E+03</pdfrwt>
<pdfrwt beam="2">  1       -2 0.52808015E-01 0.43748175E+03</pdfrwt>
<totfact> 0.11052425E+03</totfact>
</mgrwt>
<rwgt>
<wgt id='morphing_basis_vector_1'> +2.1636597e-04 </wgt>
<wgt id='morphing_basis_vector_2'> +1.6829181e-04 </wgt>
<wgt id='morphing_basis_vector_3'> +1.1653769e-04 </wgt>
<wgt id='morphing_basis_vector_4'> +3.2498218e-05 </wgt>
<wgt id='morphing_basis_vector_5'> +4.3552522e-05 </wgt>
</rwgt>
</event>
<event>
 4      1 +1.9425900e-05 4.89744300e+02 7.81860800e-03 9.42303400e-02
        2 -1    0    0  501    0 +0.0000000000e+00 +0.0000000000e+00 +1.2867006736e+02 1.2867006736e+02 0.0000000000e+00 0.0000e+00 -1.0000e+00
       -2 -1    0    0    0  501 -0.0000000000e+00 -0.0000000000e+00 -4.6601637898e+02 4.6601637898e+02 0.0000000000e+00 0.0000e+00 1.0000e+00
      -13  1    1    2    0    0 +2.1577897132e+02 -2.2641366243e+00 -3.0921870247e+02 3.7707014830e+02 0.0000000000e+00 0.0000e+00 1.0000e+00
       13  1    1    2    0    0 -2.1577897132e+02 +2.2641366243e+00 -2.8127609150e+01 2.1761629804e+02 0.0000000000e+00 0.0000e+00 -1.0000e+00
<mgrwt>
<rscale>  0 0.48974426E+03</rscale>
<asrwt>0</asrwt>
<pdfrwt beam="1">  1        2 0.19795395E-01 0.48974426E+03</pdfrwt>
<pdfrwt beam="2">  1       -2 0.71694828E-01 0.48974426E+03</pdfrwt>
<totfact> 0.65029544E+02</totfact>
</mgrwt>
<rwgt>
<wgt id='morphing_basis_vector_1'> +2.7282555e-04 </wgt>
<wgt id='morphing_basis_vector_2'> +1.5235843e-04 </wgt>
<wgt id='morphing_basis_vector_3'> +1.9289136e-04 </wgt>
<wgt id='morphing_basis_vector_4'> +6.2699210e-05 </wgt>
<wgt id='morphing_basis_vector_5'> +8.6894207e-05 </wgt>
</rwgt>
</event>
<event>
 4      1 +1.9425900e-05 4.96579000e+02 7.81860800e-03 9.40746600e-02
        2 -1    0    0  501    0 +0.0000000000e+00 +0.0000000000e+00 +1.0570760612e+03 1.0570760612e+03 0.0000000000e+00 0.0000e+00 -1.0000e+00
       -2 -1    0    0    0  501 -0.0000000000e+00 -0.0000000000e+00 -5.8319043474e+01 5.8319043474e+01 0.0000000000e+00 0.0000e+00 1.0000e+00
      -13  1    1    2    0    0 +1.0103490422e+02 +1.2099793680e+02 +6.8495772668e+01 1.7187269549e+02 0.0000000000e+00 0.0000e+00 1.0000e+00
       13  1    1    2    0    0 -1.0103490422e+02 -1.2099793680e+02 +9.3026124506e+02 9.4352240919e+02 0.0000000000e+00 0.0000e+00 -1.0000e+00
<mgrwt>
<rscale>  0 0.49657896E+03</rscale>
<asrwt>0</asrwt>
<pdfrwt beam="1">  1        2 0.16262707E+00 0.49657896E+03</pdfrwt>
<pdfrwt beam="2">  1       -2 0.89721614E-02 0.49657896E+03</pdfrwt>
<totfact> 0.20821502E+03</totfact>
</mgrwt>
<rwgt>
<wgt id='morphing_basis_vector_1'> +2.8322336e-04 </wgt>
<wgt id='morphing_basis_vector_2'> +1.5563016e-04 </wgt>
<wgt id='morphing_basis_vector_3'> +2.0309635e-04 </wgt>
<wgt id='morphing_basis_vector_4'> +6.7789182e-05 </wgt>
<wgt id='morphing_basis_vector_5'> +9.4285478e-05 </wgt>
</rwgt>
</event>
<event>
 4      1 +1.9425900e-05 4.30825400e+02 7.81860800e-03 9.56954200e-02
        2 -1    0    0  501    0 +0.0000000000e+00 +0.0000000000e+00 +2.5439209236e+02 2.5439209236e+02 0.0000000000e+00 0.0000e+00 1.0000e+00
       -2 -1    0    0    0  501 -0.0000000000e+00 -0.0000000000e+00 -1.8240597414e+02 1.8240597414e+02 0.0000000000e+00 0.0000e+00 -1.0000e+00
      -13  1    1    2    0    0 -2.6530482590e+01 +5.7142552842e+01 -1.7285661599e+02 1.8397974764e+02 0.0000000000e+00 0.0000e+00 -1.0000e+00
       13  1    1    2    0    0 +2.6530482590e+01 -5.7142552842e+01 +2.4484273421e+02 2.5281831886e+02 0.0000000000e+00 0.0000e+00 1.0000e+00
<mgrwt>
<rscale>  0 0.43082543E+03</rscale>
<asrwt>0</asrwt>
<pdfrwt beam="1">  1        2 0.39137245E-01 0.43082543E+03</pdfrwt>
<pdfrwt beam="2">  1       -2 0.28062458E-01 0.43082543E+03</pdfrwt>
<totfact> 0.17641162E+03</totfact>
</mgrwt>
<rwgt>
<wgt id='morphing_basis_vector_1'> +1.8790987e-04 </wgt>
<wgt id='morphing_basis_vector_2'> +1.0122081e-04 </wgt>
<wgt id='morphing_basis_vector_3'> +1.2498984e-04 </wgt>
<wgt id='morphing_basis_vector_4'> +3.2204938e-05 </wgt>
<wgt id='morphing_basis_vector_5'> +3.8108965e-05 </wgt>
</rwgt>
</event>
<event>
 4      1 +1.9425900e-05 5.11658700e+02 7.81860800e-03 9.37405000e-02
        2 -1    0    0  501    0 +0.0000000000e+00 +0.0000000000e+00 +7.1402190448e+02 7.1402190448e+02 0.0000000000e+00 0.0000e+00 1.0000e+00
       -2 -1    0    0    0  501 -0.0000000000e+00 -0.0000000000e+00 -9.1661972491e+01 9.1661972491e+01 0.0000000000e+00 0.0000e+00 -1.0000e+00
      -13  1    1    2    0    0 -1.3508030743e+01 -2.2843833753e+02 +1.3107599220e+02 2.6371851789e+02 0.0000000000e+00 0.0000e+00 -1.0000e+00
       13  1    1    2    0    0 +1.3508030743e+01 +2.2843833753e+02 +4.9128393979e+02 5.4196535908e+02 0.0000000000e+00 0.0000e+00 1.0000e+00
<mgrwt>
<rscale>  0 0.51165870E+03</rscale>
<asrwt>0</asrwt>
<pdfrwt beam="1">  1        2 0.10984952E+00 0.51165870E+03</pdfrwt>
<pdfrwt beam="2">  1       -2 0.14101842E-01 0.51165870E+03</pdfrwt>
<totfact> 0.17122773E+03</totfact>
</mgrwt>
<rwgt>
<wgt id='morphing_basis_vector_1'> +3.1143160e-04 </wgt>
<wgt id='morphing_basis_vector_2'> +1.7566375e-04 </wgt>
<wgt id='morphing_basis_vector_3'> +2.2543415e-04 </wgt>
<wgt id='morphing_basis_vector_4'> +7.8454689e-05 </wgt>
<wgt id='morphing_basis_vector_5'> +1.1223574e-04 </wgt>
</rwgt>
</event>
<event>
 4      1 +1.9425900e-05 4.32614200e+02 7.81860800e-03 9.56473800e-02
        2 -1    0    0  501    0 +0.0000000000e+00 +0.0000000000e+00 +6.2102448918e+02 6.2102448918e+02 0.0000000000e+00 0.0000e+00 -1.0000e+00
       -2 -1    0    0    0  501 -0.0000000000e+00 -0.0000000000e+00 -7.5341238770e+01 7.5341238770e+01 0.0000000000e+00 0.0000e+00 1.0000e+00
      -13  1    1    2    0    0 +4.5368571561e+01 +1.3785052942e+02 +1.4653090706e+01 1.4586222545e+02 0.0000000000e+00 0.0000e+00 1.0000e+00
       13  1    1    2    0    0 -4.5368571561e+01 -1.3785052942e+02 +5.3103015970e+02 5.5050350250e+02 0.0000000000e+00 0.0000e+00 -1.0000e+00
<mgrwt>
<rscale>  0 0.43261417E+03</rscale>
<asrwt>0</asrwt>
<pdfrwt beam="1">  1        2 0.95542226E-01 0.43261417E+03</pdfrwt>
<pdfrwt beam="2">  1       -2 0.11590960E-01 0.43261417E+03</pdfrwt>
<totfact> 0.27544978E+03</totfact>
</mgrwt>
<rwgt>
<wgt id='morphing_basis_vector_1'> +1.9022346e-04 </wgt>
<wgt id='morphing_basis_vector_2'> +1.0286463e-04 </wgt>
<wgt id='morphing_basis_vector_3'> +1.2659446e-04 </wgt>
<wgt id='morphing_basis_vector_4'> +3.2900528e-05 </wgt>
<wgt id='morphing_basis_vector_5'> +3.9231591e-05 </wgt>
</rwgt>
</event>
<event>
 4      1 +1.9425900e-05 4.30757600e+02 7.81860800e-03 9.56972500e-02
        2 -1    0    0  501    0 +0.0000000000e+00 +0.0000000000e+00 +8.4006719647e+02 8.4006719647e+02 0.0000000000e+00 0.0000e+00 -1.0000e+00
       -2 -1    0    0    0  501 -0.0000000000e+00 -0.0000000000e+00 -5.5219416197e+01 5.5219416197e+01 0.0000000000e+00 0.0000e+00 1.0000e+00
      -13  1    1    2    0    0 +1.2138502840e+02 -1.0553790787e+02 +9.4730187698e+01 1.8667186071e+02 0.0000000000e+00 0.0000e+00 1.0000e+00
       13  1    1    2    0    0 -1.2138502840e+02 +1.0553790787e+02 +6.9011759257e+02 7.0861475196e+02 0.0000000000e+00 0.0000e+00 -1.0000e+00
<mgrwt>
<rscale>  0 0.43075757E+03</rscale>
<asrwt>0</asrwt>
<pdfrwt beam="1">  1        2 0.12924110E+00 0.43075757E+03</pdfrwt>
<pdfrwt beam="2">  1       -2 0.84952954E-02 0.43075757E+03</pdfrwt>
<totfact> 0.30934941E+03</totfact>
</mgrwt>
<rwgt>
<wgt id='morphing_basis_vector_1'> +1.8809044e-04 </wgt>
<wgt id='morphing_basis_vector_2'> +1.0198413e-04 </wgt>
<wgt id='morphing_basis_vector_3'> +1.2472211e-04 </wgt>
<wgt id='morphing_basis_vector_4'> +3.2155476e-05 </wgt>
<wgt id='morphing_basis_vector_5'> +3.8082945e-05 </wgt>
</rwgt>
</event>
<event>
 4      1 +1.9425900e-05 4.80811000e+02 7.81860800e-03 9.44379900e-02
        2 -1    0    0  501    0 +0.0000000000e+00 +0.0000000000e+00 +8.3306455919e+01 8.3306455919e+01 0.0000000000e+00 0.0000e+00 1.0000e+00
       -2 -1    0    0    0  501 -0.0000000000e+00 -0.0000000000e+00 -6.9376148383e+02 6.9376148383e+02 0.0000000000e+00 0.0000e+00 -1.0000e+00
      -13  1    1    2    0    0 -1.0476825093e+01 +2.3696701780e+02 -3.6847866950e+02 4.3822330069e+02 0.0000000000e+00 0.0000e+00 -1.0000e+00
       13  1    1    2    0    0 +1.0476825093e+01 -2.3696701780e+02 -2.4197635841e+02 3.3884463906e+02 0.0000000000e+00 0.0000e+00 1.0000e+00
<mgrwt>
<rscale>  0 0.48081103E+03</rscale>
<asrwt>0</asrwt>
<pdfrwt beam="1">  1        2 0.12816378E-01 0.48081103E+03</pdfrwt>
<pdfrwt beam="2">  1       -2 0.10673253E+00 0.48081103E+03</pdfrwt>
<totfact> 0.44293953E+02</totfact>
</mgrwt>
<rwgt>
<wgt id='morphing_basis_vector_1'> +2.6174191e-04 </wgt>
<wgt id='morphing_basis_vector_2'> +1.5440123e-04 </wgt>
<wgt id='morphing_basis_vector_3'> +1.7905666e-04 </wgt>
<wgt id='morphing_basis_vector_4'> +5.5914191e-05 </wgt>
<wgt id='morphing_basis_vector_5'> +7.7934541e-05 </wgt>
</rwgt>
</event>
<event>
 4      1 +1.9425900e-05 4.53037800e+02 7.81860800e-03 9.51156100e-02
        2 -1    0    0  501    0 +0.0000000000e+00 +0.0000000000e+00 +5.5634200931e+02 5.5634200931e+02 0.0000000000e+00 0.0000e+00 1.0000e+00
       -2 -1    0    0    0  501 -0.0000000000e+00 -0.0000000000e+00 -9.2228896777e+01 9.2228896777e+01 0.0000000000e+00 0.0000e+00 -1.0000e+00
      -13  1    1    2    0    0 +1.3352618026e+02 +1.5150100029e+02 +8.5158204572e+01 2.1916595016e+02 0.0000000000e+00 0.0000e+00 -1.0000e+00
       13  1    1    2    0    0 -1.3352618026e+02 -1.5150100029e+02 +3.7895490796e+02 4.2940495592e+02 0.0000000000e+00 0.0000e+00 1.0000e+00
<mgrwt>
<rscale>  0 0.45303779E+03</rscale>
<asrwt>0</asrwt>
<pdfrwt beam="1">  1        2 0.85591076E-01 0.45303779E+03</pdfrwt>
<pdfrwt beam="2">  1       -2 0.14189061E-01 0.45303779E+03</pdfrwt>
<totfact> 0.22715115E+03</totfact>
</mgrwt>
<rwgt>
<wgt id='morphing_basis_vector_1'> +2.1749475e-04 </wgt>
<wgt id='morphing_basis_vector_2'> +1.2044214e-04 </wgt>
<wgt id='morphing_basis_vector_3'> +1.4710860e-04 </wgt>
<wgt id='morphing_basis_vector_4'> +4.1764570e-05 </wgt>
<wgt id='morphing_basis_vector_5'> +5.3522760e-05 </wgt>
</rwgt>
</event>
<event>
 4      1 +1.9425900e-05 5.04354600e+02 7.81860800e-03 9.39007900e-02
        2 -1    0    0  501    0 +0.0000000000e+00 +0.0000000000e+00 +3.7502994743e+02 3.7502994743e+02 0.0000000000e+00 0.0000e+00 1.0000e+00
       -2 -1    0    0    0  501 -0.0000000000e+00 -0.0000000000e+00 -1.6956883685e+02 1.6956883685e+02 0.0000000000e+00 0.0000e+00 -1.0000e+00
      -13  1    1    2    0    0 +1.6694168787e+02 -1.8503373934e+02 +1.4436047966e+02 2.8800513872e+02 0.0000000000e+00 0.0000e+00 -1.0000e+00
       13  1    1    2    0    0 -1.6694168787e+02 +1.8503373934e+02 +6.1100630929e+01 2.5659364556e+02 0.0000000000e+00 0.0000e+00 1.0000e+00
<mgrwt>
<rscale>  0 0.50435461E+03</rscale>
<asrwt>0</asrwt>
<pdfrwt beam="1">  1        2 0.57696915E-01 0.50435461E+03</pdfrwt>
<pdfrwt beam="2">  1       -2 0.26087513E-01 0.50435461E+03</pdfrwt>
<totfact> 0.12987316E+03</totfact>
</mgrwt>
<rwgt>
<wgt id='morphing_basis_vector_1'> +3.1344005e-04 </wgt>
<wgt id='morphing_basis_vector_2'> +2.1523519e-04 </wgt>
<wgt id='morphing_basis_vector_3'> +2.0810280e-04 </wgt>
<wgt id='morphing_basis_vector_4'> +6.6492209e-05 </wgt>
<wgt id='morphing_basis_vector_5'> +1.0389846e-04 </wgt>
</rwgt>
</event>
<event>
 4      1 +1.9425900e-05 5.02073100e+02 7.81860800e-03 9.39514600e-02
        2 -1    0    0  501    0 +0.0000000000e+00 +0.0000000000e+00 +5.2005263160e+02 5.2005263160e+02 0.0000000000e+00 0.0000e+00 -1.0000e+00
       -2 -1    0    0    0  501 -0.0000000000e+00 -0.0000000000e+00 -1.2117877400e+02 1.2117877400e+02 0.0000000000e+00 0.0000e+00 1.0000e+00
      -13  1    1    2    0    0 -5.2495663243e+01 -1.8540838169e+02 -6.0532421957e+00 1.9279186809e+02 0.0000000000e+00 0.0000e+00 1.0000e+00
       13  1    1    2    0    0 +5.2495663243e+01 +1.8540838169e+02 +4.0492709980e+02 4.4843953752e+02 0.0000000000e+00 0.0000e+00 -1.0000e+00
<mgrwt>
<rscale>  0 0.50207306E+03</rscale>
<asrwt>0</asrwt>
<pdfrwt beam="1">  1        2 0.80008096E-01 0.50207306E+03</pdfrwt>
<pdfrwt beam="2">  1       -2 0.18642889E-01 0.50207306E+03</pdfrwt>
<totfact> 0.15788570E+03</totfact>
</mgrwt>
<rwgt>
<wgt id='morphing_basis_vector_1'> +2.9307554e-04 </wgt>
<wgt id='morphing_basis_vector_2'> +1.6218025e-04 </wgt>
<wgt id='morphing_basis_vector_3'> +2.1105465e-04 </wgt>
<wgt id='morphing_basis_vector_4'> +7.1623311e-05 </wgt>
<wgt id='morphing_basis_vector_5'> +1.0057834e-04 </wgt>
</rwgt>
</event>
<event>
 4      1 +1.9425900e-05 4.74902100e+02 7.81860800e-03 9.45780300e-02
        2 -1    0    0  501    0 +0.0000000000e+00 +0.0000000000e+00 +6.7089093151e+02 6.7089093151e+02 0.0000000000e+00 0.0000e+00 -1.0000e+00
       -2 -1    0    0    0  501 -0.0000000000e+00 -0.0000000000e+00 -8.4041985586e+01 8.4041985586e+01 0.0000000000e+00 0.0000e+00 1.0000e+00
      -13  1    1    2    0    0 -2.1600703176e+02 -5.1300135127e+01 +4.2729861827e+02 4.8153385220e+02 0.0000000000e+00 0.0000e+00 1.0000e+00
       13  1    1    2    0    0 +2.1600703176e+02 +5.1300135127e+01 +1.5955032766e+02 2.7339906490e+02 0.0000000000e+00 0.0000e+00 -1.0000e+00
<mgrwt>
<rscale>  0 0.47490212E+03</rscale>
<asrwt>0</asrwt>
<pdfrwt beam="1">  1        2 0.10321399E+00 0.47490212E+03</pdfrwt>
<pdfrwt beam="2">  1       -2 0.12929537E-01 0.47490212E+03</pdfrwt>
<totfact> 0.21186627E+03</totfact>
</mgrwt>
<rwgt>
<wgt id='morphing_basis_vector_1'> +2.7523369e-04 </wgt>
<wgt id='morphing_basis_vector_2'> +2.1940815e-04 </wgt>
<wgt id='morphing_basis_vector_3'> +1.5907968e-04 </wgt>
<wgt id='morphing_basis_vector_4'> +4.5837452e-05 </wgt>
<wgt id='morphing_basis_vector_5'> +7.3372920e-05 </wgt>
</rwgt>
</event>
<event>
 4      1 +1.9425900e-05 4.62024300e+02 7.81860800e-03 9.48908900e-02
        2 -1    0    0  501    0 +0.0000000000e+00 +0.0000000000e+00 +9.0472607449e+02 9.0472607449e+02 0.0000000000e+00 0.0000e+00 -1.0000e+00
       -2 -1    0    0    0  501 -0.0000000000e+00 -0.0000000000e+00 -5.8986480865e+01 5.8986480865e+01 0.0000000000e+00 0.0000e+00 1.0000e+00
      -13  1    1    2    0    0 +1.3750123073e+02 -1.9564197713e+01 +3.7821625921e+01 1.4394381429e+02 0.0000000000e+00 0.0000e+00 1.0000e+00
       13  1    1    2    0    0 -1.3750123073e+02 +1.9564197713e+01 +8.0791796770e+02 8.1976874106e+02 0.0000000000e+00 0.0000e+00 -1.0000e+00
<mgrwt>
<rscale>  0 0.46202427E+03</rscale>
<asrwt>0</asrwt>
<pdfrwt beam="1">  1        2 0.13918862E+00 0.46202427E+03</pdfrwt>
<pdfrwt beam="2">  1       -2 0.90748439E-02 0.46202427E+03</pdfrwt>
<totfact> 0.25379047E+03</totfact>
</mgrwt>
<rwgt>
<wgt id='morphing_basis_vector_1'> +2.2906208e-04 </wgt>
<wgt id='morphing_basis_vector_2'> +1.2450215e-04 </wgt>
<wgt id='morphing_basis_vector_3'> +1.5796986e-04 </wgt>
<wgt id='morphing_basis_vector_4'> +4.6520776e-05 </wgt>
<wgt id='morphing_basis_vector_5'> +6.0670690e-05 </wgt>
</rwgt>
</event>
<event>
 4      1 +1.9425900e-05 4.49658200e+02 7.81860800e-03 9.52015400e-02
        2 -1    0    0  501    0 +0.0000000000e+00 +0.0000000000e+00 +3.5614216491e+02 3.5614216491e+02 0.0000000000e+00 0.0000e+00 -1.0000e+00
       -2 -1    0    0    0  501 -0.0000000000e+00 -0.0000000000e+00 -1.4193244915e+02 1.4193244915e+02 0.0000000000e+00 0.0000e+00 1.0000e+00
      -13  1    1    2    0    0 +1.5243667707e+02 -5.4697564279e+01 -6.5633181982e+01 1.7474689877e+02 0.0000000000e+00 0.0000e+00 1.0000e+00
       13  1    1    2    0    0 -1.5243667707e+02 +5.4697564279e+01 +2.7984289774e+02 3.2332771528e+02 0.0000000000e+00 0.0000e+00 -1.0000e+00
<mgrwt>
<rscale>  0 0.44965822E+03</rscale>
<asrwt>0</asrwt>
<pdfrwt beam="1">  1        2 0.54791102E-01 0.44965822E+03</pdfrwt>
<pdfrwt beam="2">  1       -2 0.21835762E-01 0.44965822E+03</pdfrwt>
<totfact> 0.18560281E+03</totfact>
</mgrwt>
<rwgt>
<wgt id='morphing_basis_vector_1'> +2.1210184e-04 </wgt>
<wgt id='morphing_basis_vector_2'> +1.1531289e-04 </wgt>
<wgt id='morphing_basis_vector_3'> +1.4395390e-04 </wgt>
<wgt id='morphing_basis_vector_4'> +4.0303707e-05 </wgt>
<wgt id='morphing_basis_vector_5'> +5.0921373e-05 </wgt>
</rwgt>
</event>
<event>
 4      1 +1.9425900e-05 4.79240000e+02 7.81860800e-03 9.44750100e-02
        2 -1    0    0  501    0 +0.0000000000e+00 +0.0000000000e+00 +1.5144995005e+03 1.5144995005e+03 0.0000000000e+00 0.0000e+00 -1.0000e+00
       -2 -1    0    0    0  501 -0.0000000000e+00 -0.0000000000e+00 -3.7912032603e+01 3.7912032603e+01 0.0000000000e+00 0.0000e+00 1.0000e+00
      -13  1    1    2    0    0 +6.8514511501e+01 +2.0721085449e+02 +4.1782733145e+02 4.7139182790e+02 0.0000000000e+00 0.0000e+00 1.0000e+00
       13  1    1    2    0    0 -6.8514511501e+01 -2.0721085449e+02 +1.0587601365e+03 1.0810197052e+03 0.0000000000e+00 0.0000e+00 -1.0000e+00
<mgrwt>
<rscale>  0 0.47924004E+03</rscale>
<asrwt>0</asrwt>
<pdfrwt beam="1">  1        2 0.23299988E+00 0.47924004E+03</pdfrwt>
<pdfrwt beam="2">  1       -2 0.58326216E-02 0.47924004E+03</pdfrwt>
<totfact> 0.22301761E+03</totfact>
</mgrwt>
<rwgt>
<wgt id='morphing_basis_vector_1'> +2.5626506e-04 </wgt>
<wgt id='morphing_basis_vector_2'> +1.4365451e-04 </wgt>
<wgt id='morphing_basis_vector_3'> +1.7851511e-04 </wgt>
<wgt id='morphing_basis_vector_4'> +5.5907718e-05 </wgt>
<wgt id='morphing_basis_vector_5'> +7.6260731e-05 </wgt>
</rwgt>
</event>
<event>
 4      1 +1.9425900e-05 5.13481200e+02 7.81860800e-03 9.37009500e-02
        2 -1    0    0  501    0 +0.0000000000e+00 +0.0000000000e+00 +4.6299636938e+02 4.6299636938e+02 0.0000000000e+00 0.0000e+00 1.0000e+00
       -2 -1    0    0    0  501 -0.0000000000e+00 -0.0000000000e+00 -1.4236770070e+02 1.4236770070e+02 0.0000000000e+00 0.0000e+00 -1.0000e+00
      -13  1    1    2    0    0 -1.2235556370e+02 +1.4727574082e+02 -4.1331821400e+01 1.9588095177e+02 0.0000000000e+00 0.0000e+00 -1.0000e+00
       13  1    1    2    0    0 +1.2235556370e+02 -1.4727574082e+02 +3.6196049008e+02 4.0948311831e+02 0.0000000000e+00 0.0000e+00 1.0000e+00
<mgrwt>
<rscale>  0 0.51348117E+03</rscale>
<asrwt>0</asrwt>
<pdfrwt beam="1">  1        2 0.71230210E-01 0.51348117E+03</pdfrwt>
<pdfrwt beam="2">  1       -2 0.21902723E-01 0.51348117E+03</pdfrwt>
<totfact> 0.13785602E+03</totfact>
</mgrwt>
<rwgt>
<wgt id='morphing_basis_vector_1'> +3.1363118e-04 </wgt>
<wgt id='morphing_basis_vector_2'> +1.7398984e-04 </wgt>
<wgt id='morphing_basis_vector_3'> +2.2875515e-04 </wgt>
<wgt id='morphing_basis_vector_4'> +8.0435322e-05 </wgt>
<wgt id='morphing_basis_vector_5'> +1.1449967e-04 </wgt>
</rwgt>
</event>
<event>
 4      1 +1.9425900e-05 4.61189000e+02 7.81860800e-03 9.49115400e-02
        2 -1    0    0  501    0 +0.0000000000e+00 +0.0000000000e+00 +5.5827841848e+02 5.5827841848e+02 0.0000000000e+00 0.0000e+00 -1.0000e+00
       -2 -1    0    0    0  501 -0.0000000000e+00 -0.0000000000e+00 -9.5246079632e+01 9.5246079632e+01 0.0000000000e+00 0.0000e+00 1.0000e+00
      -13  1    1    2    0    0 -2.0693693986e+02 +2.0921655348e+01 +9.0428119811e+01 2.2679915695e+02 0.0000000000e+00 0.0000e+00 1.0000e+00
       13  1    1    2    0    0 +2.0693693986e+02 -2.0921655348e+01 +3.7260421904e+02 4.2672534116e+02 0.0000000000e+00 0.0000e+00 -1.0000e+00
<mgrwt>
<rscale>  0 0.46118903E+03</rscale>
<asrwt>0</asrwt>
<pdfrwt beam="1">  1        2 0.85888986E-01 0.46118903E+03</pdfrwt>
<pdfrwt beam="2">  1       -2 0.14653243E-01 0.46118903E+03</pdfrwt>
<totfact> 0.21494949E+03</totfact>
</mgrwt>
<rwgt>
<wgt id='morphing_basis_vector_1'> +2.2903046e-04 </wgt>
<wgt id='morphing_basis_vector_2'> +1.2741761e-04 </wgt>
<wgt id='morphing_basis_vector_3'> +1.5628761e-04 </wgt>
<wgt id='morphing_basis_vector_4'> +4.5814033e-05 </wgt>
<wgt id='morphing_basis_vector_5'> +6.0036996e-05 </wgt>
</rwgt>
</event>
<event>
 4      1 +1.9425900e-05 4.40374100e+02 7.81860800e-03 9.54417600e-02
        2 -1    0    0  501    0 +0.0000000000e+00 +0.0000000000e+00 +3.5418993781e+02 3.5418993781e+02 0.0000000000e+00 0.0000e+00 -1.0000e+00
       -2 -1    0    0    0  501 -0.0000000000e+00 -0.0000000000e+00 -1.3688230884e+02 1.3688230884e+02 0.0000000000e+00 0.0000e+00 1.0000e+00
      -13  1    1    2    0    0 +2.1271783895e+02 +5.6589569006e+01 +1.0243724141e+02 2.4278518644e+02 0.0000000000e+00 0.0000e+00 1.0000e+00
       13  1    1    2    0    0 -2.1271783895e+02 -5.6589569006e+01 +1.1487038757e+02 2.4828706021e+02 0.0000000000e+00 0.0000e+00 -1.0000e+00
<mgrwt>
<rscale>  0 0.44037410E+03</rscale>
<asrwt>0</asrwt>
<pdfrwt beam="1">  1        2 0.54490759E-01 0.44037410E+03</pdfrwt>
<pdfrwt beam="2">  1       -2 0.21058817E-01 0.44037410E+03</pdfrwt>
<totfact> 0.19827467E+03</totfact>
</mgrwt>
<rwgt>
<wgt id='morphing_basis_vector_1'> +2.0559153e-04 </wgt>
<wgt id='morphing_basis_vector_2'> +1.2583533e-04 </wgt>
<wgt id='morphing_basis_vector_3'> +1.3017034e-04 </wgt>
<wgt id='morphing_basis_vector_4'> +3.5368319e-05 </wgt>
<wgt id='morphing_basis_vector_5'> +4.4638578e-05 </wgt>
</rwgt>
</event>
<event>
 4      1 +1.9425900e-05 4.85478600e+02 7.81860800e-03 9.43288900e-02
        2 -1    0    0  501    0 +0.0000000000e+00 +0.0000000000e+00 +6.2227243748e+02 6.2227243748e+02 0.0000000000e+00 0.0000e+00 -1.0000e+00
       -2 -1    0    0    0  501 -0.0000000000e+00 -0.0000000000e+00 -9.4689027842e+01 9.4689027842e+01 0.0000000000e+00 0.0000e+00 1.0000e+00
      -13  1    1    2    0    0 +2.0589347208e+00 -9.9868341081e+01 -6.2929575189e+01 1.1805954513e+02 0.0000000000e+00 0.0000e+00 1.0000e+00
       13  1    1    2    0    0 -2.0589347208e+00 +9.9868341081e+01 +5.9051298483e+02 5.9890192019e+02 0.0000000000e+00 0.0000e+00 -1.0000e+00
<mgrwt>
<rscale>  0 0.48547862E+03</rscale>
<asrwt>0</asrwt>
<pdfrwt beam="1">  1        2 0.95734218E-01 0.48547862E+03</pdfrwt>
<pdfrwt beam="2">  1       -2 0.14567543E-01 0.48547862E+03</pdfrwt>
<totfact> 0.19145460E+03</totfact>
</mgrwt>
<rwgt>
<wgt id='morphing_basis_vector_1'> +2.6463978e-04 </wgt>
<wgt id='morphing_basis_vector_2'> +1.4456273e-04 </wgt>
<wgt id='morphing_basis_vector_3'> +1.8760265e-04 </wgt>
<wgt id='morphing_basis_vector_4'> +6.0323601e-05 </wgt>
<wgt id='morphing_basis_vector_5'> +8.2402995e-05 </wgt>
</rwgt>
</event>
<event>
 4      1 +1.9425900e-05 4.82870400e+02 7.81860800e-03 9.43896900e-02
        2 -1    0    0  501    0 +0.0000000000e+00 +0.0000000000e+00 +7.6353267155e+02 7.6353267155e+02 0.0000000000e+00 0.0000e+00 1.0000e+00
       -2 -1    0    0    0  501 -0.0000000000e+00 -0.0000000000e+00 -7.6343754910e+01 7.6343754910e+01 0.0000000000e+00 0.0000e+00 -1.0000e+00
      -13  1    1    2    0    0 +1.5565121836e+02 +7.6852402614e+01 +5.1730295017e+01 1.8113425128e+02 0.0000000000e+00 0.0000e+00 -1.0000e+00
       13  1    1    2    0    0 -1.5565121836e+02 -7.6852402614e+01 +6.3545862163e+02 6.5874217518e+02 0.0000000000e+00 0.0000e+00 1.0000e+00
<mgrwt>
<rscale>  0 0.48287038E+03</rscale>
<asrwt>0</asrwt>
<pdfrwt beam="1">  1        2 0.11746656E+00 0.48287038E+03</pdfrwt>
<pdfrwt beam="2">  1       -2 0.11745194E-01 0.48287038E+03</pdfrwt>
<totfact> 0.21081214E+03</totfact>
</mgrwt>
<rwgt>
<wgt id='morphing_basis_vector_1'> +2.6073990e-04 </wgt>
<wgt id='morphing_basis_vector_2'> +1.4304262e-04 </wgt>
<wgt id='morphing_basis_vector_3'> +1.8395566e-04 </wgt>
<wgt id='morphing_basis_vector_4'> +5.8559858e-05 </wgt>
<wgt id='morphing_basis_vector_5'> +7.9778337e-05 </wgt>
</rwgt>
</event>
<event>
 4      1 +1.9425900e-05 4.62082500e+02 7.81860800e-03 9.48894500e-02
        2 -1    0    0  501    0 +0.0000000000e+00 +0.0000000000e+00 +1.9742435772e+03 1.9742435772e+03 0.0000000000e+00 0.0000e+00 -1.0000e+00
       -2 -1    0    0    0  501 -0.0000000000e+00 -0.0000000000e+00 -2.7038236379e+01 2.7038236379e+01 0.0000000000e+00 0.0000e+00 1.0000e+00
      -13  1    1    2    0    0 -5.9249666136e+01 +2.2278218665e+02 +9.0683788507e+02 9.3568016728e+02 0.0000000000e+00 0.0000e+00 1.0000e+00
       13  1    1    2    0    0 +5.9249666136e+01 -2.2278218665e+02 +1.0403674557e+03 1.0656016463e+03 0.0000000000e+00 0.0000e+00 -1.0000e+00
<mgrwt>
<rscale>  0 0.46208252E+03</rscale>
<asrwt>0</asrwt>
<pdfrwt beam="1">  1        2 0.30372967E+00 0.46208252E+03</pdfrwt>
<pdfrwt beam="2">  1       -2 0.41597302E-02 0.46208252E+03</pdfrwt>
<totfact> 0.20966456E+03</totfact>
</mgrwt>
<rwgt>
<wgt id='morphing_basis_vector_1'> +2.3486208e-04 </wgt>
<wgt id='morphing_basis_vector_2'> +1.4224648e-04 </wgt>
<wgt id='morphing_basis_vector_3'> +1.5458021e-04 </wgt>
<wgt id='morphing_basis_vector_4'> +4.5215945e-05 </wgt>
<wgt id='morphing_basis_vector_5'> +6.1018165e-05 </wgt>
</rwgt>
</event>
<event>
 4      1 +1.9425900e-05 4.34723400e+02 7.81860800e-03 9.55910400e-02
        2 -1    0    0  501    0 +0.0000000000e+00 +0.0000000000e+00 +1.5920639655e+02 1.5920639655e+02 0.0000000000e+00 0.0000e+00 -1.0000e+00
       -2 -1    0    0    0  501 -0.0000000000e+00 -0.0000000000e+00 -2.9676015907e+02 2.9676015907e+02 0.0000000000e+00 0.0000e+00 1.0000e+00
      -13  1    1    2    0    0 +8.4648874431e+01 +1.9994552377e+02 -7.9394343863e+01 2.3118630205e+02 0.0000000000e+00 0.0000e+00 1.0000e+00
       13  1    1    2    0    0 -8.4648874431e+01 -1.9994552377e+02 -5.8159418665e+01 2.2478025357e+02 0.0000000000e+00 0.0000e+00 -1.0000e+00
<mgrwt>
<rscale>  0 0.43472343E+03</rscale>
<asrwt>0</asrwt>
<pdfrwt beam="1">  1        2 0.24493292E-01 0.43472343E+03</pdfrwt>
<pdfrwt beam="2">  1       -2 0.45655409E-01 0.43472343E+03</pdfrwt>
<totfact> 0.12525446E+03</totfact>
</mgrwt>
<rwgt>
<wgt id='morphing_basis_vector_1'> +1.9786346e-04 </wgt>
<wgt id='morphing_basis_vector_2'> +1.1987940e-04 </wgt>
<wgt id='morphing_basis_vector_3'> +1.2484431e-04 </wgt>
<wgt id='morphing_basis_vector_4'> +3.3217248e-05 </wgt>
<wgt id='morphing_basis_vector_5'> +4.0872329e-05 </wgt>
</rwgt>
</event>
<event>
 4      1 +1.9425900e-05 4.74307800e+02 7.81860800e-03 9.45922400e-02
        2 -1    0    0  501    0 +0.0000000000e+00 +0.0000000000e+00 +3.4424164637e+02 3.4424164637e+02 0.0000000000e+00 0.0000e+00 -1.0000e+00
       -2 -1    0    0    0  501 -0.0000000000e+00 -0.0000000000e+00 -1.6337935721e+02 1.6337935721e+02 0.0000000000e+00 0.0000e+00 1.0000e+00
      -13  1    1    2    0    0 +1.7485744038e+02 -8.6007732806e+01 -5.4227006986e+01 2.0226967852e+02 0.0000000000e+00 0.0000e+00 1.0000e+00
       13  1    1    2    0    0 -1.7485744038e+02 +8.6007732806e+01 +2.3508929614e+02 3.0535132507e+02 0.0000000000e+00 0.0000e+00 -1.0000e+00
<mgrwt>
<rscale>  0 0.47430783E+03</rscale>
<asrwt>0</asrwt>
<pdfrwt beam="1">  1        2 0.52960253E-01 0.47430783E+03</pdfrwt>
<pdfrwt beam="2">  1       -2 0.25135286E-01 0.47430783E+03</pdfrwt>
<totfact> 0.15221560E+03</totfact>
</mgrwt>
<rwgt>
<wgt id='morphing_basis_vector_1'> +2.4775482e-04 </wgt>
<wgt id='morphing_basis_vector_2'> +1.3652995e-04 </wgt>
<wgt id='morphing_basis_vector_3'> +1.7262596e-04 </wgt>
<wgt id='morphing_basis_vector_4'> +5.3228529e-05 </wgt>
<wgt id='morphing_basis_vector_5'> +7.1532743e-05 </wgt>
</rwgt>
</event>
<event>
 4      1 +1.9425900e-05 4.79629400e+02 7.81860800e-03 9.44658200e-02
        2 -1    0    0  501    0 +0.0000000000e+00 +0.0000000000e+00 +7.0389445170e+02 7.0389445170e+02 0.0000000000e+00 0.0000e+00 1.0000e+00
       -2 -1    0    0    0  501 -0.0000000000e+00 -0.0000000000e+00 -8.1704131485e+01 8.1704131485e+01 0.0000000000e+00 0.0000e+00 -1.0000e+00
      -13  1    1    2    0    0 -5.6982458206e+01 -1.7279498237e+02 +5.5211221466e+01 1.9014043613e+02 0.0000000000e+00 0.0000e+00 -1.0000e+00
       13  1    1    2    0    0 +5.6982458206e+01 +1.7279498237e+02 +5.6697909875e+02 5.9545814705e+02 0.0000000000e+00 0.0000e+00 1.0000e+00
<mgrwt>
<rscale>  0 0.47962938E+03</rscale>
<asrwt>0</asrwt>
<pdfrwt beam="1">  1        2 0.10829145E+00 0.47962938E+03</pdfrwt>
<pdfrwt beam="2">  1       -2 0.12569867E-01 0.47962938E+03</pdfrwt>
<totfact> 0.20918875E+03</totfact>
</mgrwt>
<rwgt>
<wgt id='morphing_basis_vector_1'> +2.5572465e-04 </wgt>
<wgt id='morphing_basis_vector_2'> +1.4043787e-04 </wgt>
<wgt id='morphing_basis_vector_3'> +1.7961757e-04 </wgt>
<wgt id='morphing_basis_vector_4'> +5.6503904e-05 </wgt>
<wgt id='morphing_basis_vector_5'> +7.6585012e-05 </wgt>
</rwgt>
</event>
<event>
 4      1 +1.9425900e-05 4.65378700e+02 7.81860800e-03 9.48083700e-02
        2 -1    0    0  501    0 +0.0000000000e+00 +0.0000000000e+00 +4.3730455453e+02 4.3730455453e+02 0.0000000000e+00 0.0000e+00 1.0000e+00
       -2 -1    0    0    0  501 -0.0000000000e+00 -0.0000000000e+00 -1.2381376426e+02 1.2381376426e+02 0.0000000000e+00 0.0000e+00 -1.0000e+00
      -13  1    1    2    0    0 +9.6920571106e+01 -4.4881717001e+01 -9.2511246341e+01 1.4130214550e+02 0.0000000000e+00 0.0000e+00 -1.0000e+00
       13  1    1    2    0    0 -9.6920571106e+01 +4.4881717001e+01 +4.0600203661e+02 4.1981617329e+02 0.0000000000e+00 0.0000e+00 1.0000e+00
<mgrwt>
<rscale>  0 0.46537865E+03</rscale>
<asrwt>0</asrwt>
<pdfrwt beam="1">  1        2 0.67277623E-01 0.46537865E+03</pdfrwt>
<pdfrwt beam="2">  1       -2 0.19048272E-01 0.46537865E+03</pdfrwt>
<totfact> 0.18510617E+03</totfact>
</mgrwt>
<rwgt>
<wgt id='morphing_basis_vector_1'> +2.3382577e-04 </wgt>
<wgt id='morphing_basis_vector_2'> +1.2701466e-04 </wgt>
<wgt id='morphing_basis_vector_3'> +1.6198304e-04 </wgt>
<wgt id='morphing_basis_vector_4'> +4.8341765e-05 </wgt>
<wgt id='morphing_basis_vector_5'> +6.3509775e-05 </wgt>
</rwgt>
</event>
<event>
 4      1 +1.9425900e-05 5.16074800e+02 7.81860800e-03 9.36449700e-02
        2 -1    0    0  501    0 +0.0000000000e+00 +0.0000000000e+00 +1.6254402641e+02 1.6254402641e+02 0.0000000000e+00 0.0000e+00 1.0000e+00
       -2 -1    0    0    0  501 -0.0000000000e+00 -0.0000000000e+00 -4.0963243795e+02 4.0963243795e+02 0.0000000000e+00 0.0000e+00 -1.0000e+00
      -13  1    1    2    0    0 -3.6336378329e+01 +1.2670251611e+02 +1.2240280832e+02 1.7987859089e+02 0.0000000000e+00 0.0000e+00 1.0000e+00
       13  1    1    2    0    0 +3.6336378329e+01 -1.2670251611e+02 -3.6949121985e+02 3.9229787347e+02 0.0000000000e+00 0.0000e+00 -1.0000e+00
<mgrwt>
<rscale>  0 0.51607482E+03</rscale>
<asrwt>0</asrwt>
<pdfrwt beam="1">  1        2 0.25006773E-01 0.51607482E+03</pdfrwt>
<pdfrwt beam="2">  1       -2 0.63020375E-01 0.51607482E+03</pdfrwt>
<totfact> 0.64694912E+02</totfact>
</mgrwt>
<rwgt>
<wgt id='morphing_basis_vector_1'> +4.2612393e-04 </wgt>
<wgt id='morphing_basis_vector_2'> +5.1113335e-04 </wgt>
<wgt id='morphing_basis_vector_3'> +1.9680894e-04 </wgt>
<wgt id='morphing_basis_vector_4'> +3.2379763e-05 </wgt>
<wgt id='morphing_basis_vector_5'> +1.2156681e-04 </wgt>
</rwgt>
</event>
<event>
 4      1 +1.9425900e-05 4.32278000e+02 7.81860800e-03 9.56563900e-02
        2 -1    0    0  501    0 +0.0000000000e+00 +0.0000000000e+00 +5.5314734992e+02 5.5314734992e+02 0.0000000000e+00 0.0000e+00 -1.0000e+00
       -2 -1    0    0    0  501 -0.0000000000e+00 -0.0000000000e+00 -8.4455003242e+01 8.4455003242e+01 0.0000000000e+00 0.0000e+00 1.0000e+00
      -13  1    1    2    0    0 +2.0807803169e+02 -5.4359754204e+01 +2.0255316766e+02 2.9543059402e+02 0.0000000000e+00 0.0000e+00 1.0000e+00
       13  1    1    2    0    0 -2.0807803169e+02 +5.4359754204e+01 +2.6613917902e+02 3.4217175915e+02 0.0000000000e+00 0.0000e+00 -1.0000e+00
<mgrwt>
<rscale>  0 0.43227797E+03</rscale>
<asrwt>0</asrwt>
<pdfrwt beam="1">  1        2 0.85099590E-01 0.43227797E+03</pdfrwt>
<pdfrwt beam="2">  1       -2 0.12993078E-01 0.43227797E+03</pdfrwt>
<totfact> 0.26286862E+03</totfact>
</mgrwt>
<rwgt>
<wgt id='morphing_basis_vector_1'> +1.9385618e-04 </wgt>
<wgt id='morphing_basis_vector_2'> +1.1509467e-04 </wgt>
<wgt id='morphing_basis_vector_3'> +1.2317633e-04 </wgt>
<wgt id='morphing_basis_vector_4'> +3.2385731e-05 </wgt>
<wgt id='morphing_basis_vector_5'> +3.9263217e-05 </wgt>
</rwgt>
</event>
<event>
 4      1 +1.9425900e-05 5.03848900e+02 7.81860800e-03 9.39120000e-02
        2 -1    0    0  501    0 +0.0000000000e+00 +0.0000000000e+00 +3.4486447822e+02 3.4486447822e+02 0.0000000000e+00 0.0000e+00 1.0000e+00
       -2 -1    0    0    0  501 -0.0000000000e+00 -0.0000000000e+00 -1.8403148197e+02 1.8403148197e+02 0.0000000000e+00 0.0000e+00 -1.0000e+00
      -13  1    1    2    0    0 -8.9684938005e+01 +1.0903767376e+02 +2.9943502237e+02 3.3104974705e+02 0.0000000000e+00 0.0000e+00 1.0000e+00
       13  1    1    2    0    0 +8.9684938005e+01 -1.0903767376e+02 -1.3860202612e+02 1.9784621313e+02 0.0000000000e+00 0.0000e+00 -1.0000e+00
<mgrwt>
<rscale>  0 0.50384887E+03</rscale>
<asrwt>0</asrwt>
<pdfrwt beam="1">  1        2 0.53056074E-01 0.50384887E+03</pdfrwt>
<pdfrwt beam="2">  1       -2 0.28312536E-01 0.50384887E+03</pdfrwt>
<totfact> 0.12387224E+03</totfact>
</mgrwt>
<rwgt>
<wgt id='morphing_basis_vector_1'> +3.9324631e-04 </wgt>
<wgt id='morphing_basis_vector_2'> +4.6528029e-04 </wgt>
<wgt id='morphing_basis_vector_3'> +1.7550715e-04 </wgt>
<wgt id='morphing_basis_vector_4'> +3.2586324e-05 </wgt>
<wgt id='morphing_basis_vector_5'> +1.0643907e-04 </wgt>
</rwgt>
</event>
<event>
 4      1 +1.9425900e-05 4.77740600e+02 7.81860800e-03 9.45104900e-02
        2 -1    0    0  501    0 +0.0000000000e+00 +0.0000000000e+00 +4.5400805084e+02 4.5400805084e+02 0.0000000000e+00 0.0000e+00 1.0000e+00
       -2 -1    0    0    0  501 -0.0000000000e+00 -0.0000000000e+00 -1.2567844948e+02 1.2567844948e+02 0.0000000000e+00 0.0000e+00 -1.0000e+00
      -13  1    1    2    0    0 -1.8624794397e+02 +1.1890587303e+02 +5.4072493132e+01 2.2748788493e+02 0.0000000000e+00 0.0000e+00 -1.0000e+00
       13  1    1    2    0    0 +1.8624794397e+02 -1.1890587303e+02 +2.7425710823e+02 3.5219861540e+02 0.0000000000e+00 0.0000e+00 1.0000e+00
<mgrwt>
<rscale>  0 0.47774063E+03</rscale>
<asrwt>0</asrwt>
<pdfrwt beam="1">  1        2 0.69847392E-01 0.47774063E+03</pdfrwt>
<pdfrwt beam="2">  1       -2 0.19335146E-01 0.47774063E+03</pdfrwt>
<totfact> 0.17323549E+03</totfact>
</mgrwt>
<rwgt>
<wgt id='morphing_basis_vector_1'> +2.5417102e-04 </wgt>
<wgt id='morphing_basis_vector_2'> +1.4306789e-04 </wgt>
<wgt id='morphing_basis_vector_3'> +1.7643052e-04 </wgt>
<wgt id='morphing_basis_vector_4'> +5.4928099e-05 </wgt>
<wgt id='morphing_basis_vector_5'> +7.4827215e-05 </wgt>
</rwgt>
</event>
<event>
 4      1 +1.9425900e-05 4.97692100e+02 7.81860800e-03 9.40495600e-02
        2 -1    0    0  501    0 +0.0000000000e+00 +0.0000000000e+00 +1.0709809541e+03 1.0709809541e+03 0.0000000000e+00 0.0000e+00 1.0000e+00
       -2 -1    0    0    0  501 -0.0000000000e+00 -0.0000000000e+00 -5.7820221682e+01 5.7820221682e+01 0.0000000000e+00 0.0000e+00 -1.0000e+00
      -13  1    1    2    0    0 +9.8814555715e+01 +1.6537754158e+02 +8.6383082047e+02 8.8505239058e+02 0.0000000000e+00 0.0000e+00 1.0000e+00
       13  1    1    2    0    0 -9.8814555715e+01 -1.6537754158e+02 +1.4932991194e+02 2.4374878519e+02 0.0000000000e+00 0.0000e+00 -1.0000e+00
<mgrwt>
<rscale>  0 0.49769210E+03</rscale>
<asrwt>0</asrwt>
<pdfrwt beam="1">  1        2 0.16476629E+00 0.49769210E+03</pdfrwt>
<pdfrwt beam="2">  1       -2 0.88954195E-02 0.49769210E+03</pdfrwt>
<totfact> 0.20702795E+03</totfact>
</mgrwt>
<rwgt>
<wgt id='morphing_basis_vector_1'> +3.5312087e-04 </wgt>
<wgt id='morphing_basis_vector_2'> +3.6777771e-04 </wgt>
<wgt id='morphing_basis_vector_3'> +1.7589747e-04 </wgt>
<wgt id='morphing_basis_vector_4'> +4.2059994e-05 </wgt>
<wgt id='morphing_basis_vector_5'> +9.8321524e-05 </wgt>
</rwgt>
</event>
<event>
 4      1 +1.9425900e-05 4.65509600e+02 7.81860800e-03 9.48051700e-02
        2 -1    0    0  501    0 +0.0000000000e+00 +0.0000000000e+00 +1.5096357892e+02 1.5096357892e+02 0.0000000000e+00 0.0000e+00 -1.0000e+00
       -2 -1    0    0    0  501 -0.0000000000e+00 -0.0000000000e+00 -3.5885998167e+02 3.5885998167e+02 0.0000000000e+00 0.0000e+00 1.0000e+00
      -13  1    1    2    0    0 -1.6186112406e+02 -1.3805101087e+02 -2.0737123962e+02 2.9708573865e+02 0.0000000000e+00 0.0000e+00 1.0000e+00
       13  1    1    2    0    0 +1.6186112406e+02 +1.3805101087e+02 -5.2516312757e-01 2.1273782193e+02 0.0000000000e+00 0.0000e+00 -1.0000e+00
<mgrwt>
<rscale>  0 0.46550956E+03</rscale>
<asrwt>0</asrwt>
<pdfrwt beam="1">  1        2 0.23225166E-01 0.46550956E+03</pdfrwt>
<pdfrwt beam="2">  1       -2 0.55209228E-01 0.46550956E+03</pdfrwt>
<totfact> 0.92201156E+02</totfact>
</mgrwt>
<rwgt>
<wgt id='morphing_basis_vector_1'> +2.3545745e-04 </wgt>
<wgt id='morphing_basis_vector_2'> +1.3158579e-04 </wgt>
<wgt id='morphing_basis_vector_3'> +1.6129382e-04 </wgt>
<wgt id='morphing_basis_vector_4'> +4.8054101e-05 </wgt>
<wgt id='morphing_basis_vector_5'> +6.3696340e-05 </wgt>
</rwgt>
</event>
<event>
 4      1 +1.9425900e-05 4.55731100e+02 7.81860800e-03 9.50476900e-02
        2 -1    0    0  501    0 +0.0000000000e+00 +0.0000000000e+00 +2.9436575045e+02 2.9436575045e+02 0.0000000000e+00 0.0000e+00 -1.0000e+00
       -2 -1    0    0    0  501 -0.0000000000e+00 -0.0000000000e+00 -1.7638842148e+02 1.7638842148e+02 0.0000000000e+00 0.0000e+00 1.0000e+00
      -13  1    1    2    0    0 -5.2748500553e+01 +1.9894143820e+02 -4.2023511329e+01 2.1006207570e+02 0.0000000000e+00 0.0000e+00 1.0000e+00
       13  1    1    2    0    0 +5.2748500553e+01 -1.9894143820e+02 +1.6000084030e+02 2.6069209623e+02 0.0000000000e+00 0.0000e+00 -1.0000e+00
<mgrwt>
<rscale>  0 0.45573111E+03</rscale>
<asrwt>0</asrwt>
<pdfrwt beam="1">  1        2 0.45287039E-01 0.45573111E+03</pdfrwt>
<pdfrwt beam="2">  1       -2 0.27136680E-01 0.45573111E+03</pdfrwt>
<totfact> 0.15885781E+03</totfact>
</mgrwt>
<rwgt>
<wgt id='morphing_basis_vector_1'> +2.2134606e-04 </wgt>
<wgt id='morphing_basis_vector_2'> +1.2300350e-04 </wgt>
<wgt id='morphing_basis_vector_3'> +1.5002602e-04 </wgt>
<wgt id='morphing_basis_vector_4'> +4.3050836e-05 </wgt>
<wgt id='morphing_basis_vector_5'> +5.5626366e-05 </wgt>
</rwgt>
</event>
<event>
 4      1 +1.9425900e-05 4.48626500e+02 7.81860800e-03 9.52279300e-02
        2 -1    0    0  501    0 +0.0000000000e+00 +0.0000000000e+00 +3.9543618123e+02 3.9543618123e+02 0.0000000000e+00 0.0000e+00 1.0000e+00
       -2 -1    0    0    0  501 -0.0000000000e+00 -0.0000000000e+00 -1.2724285198e+02 1.2724285198e+02 0.0000000000e+00 0.0000e+00 -1.0000e+00
      -13  1    1    2    0    0 -6.0311770679e+01 +5.8621945217e+01 -1.0817632898e+02 1.3702612997e+02 0.0000000000e+00 0.0000e+00 -1.0000e+00
       13  1    1    2    0    0 +6.0311770679e+01 -5.8621945217e+01 +3.7636965822e+02 3.8565290324e+02 0.0000000000e+00 0.0000e+00 1.0000e+00
<mgrwt>
<rscale>  0 0.44862647E+03</rscale>
<asrwt>0</asrwt>
<pdfrwt beam="1">  1        2 0.60836335E-01 0.44862647E+03</pdfrwt>
<pdfrwt beam="2">  1       -2 0.19575824E-01 0.44862647E+03</pdfrwt>
<totfact> 0.19790413E+03</totfact>
</mgrwt>
<rwgt>
<wgt id='morphing_basis_vector_1'> +2.1049076e-04 </wgt>
<wgt id='morphing_basis_vector_2'> +1.1381623e-04 </wgt>
<wgt id='morphing_basis_vector_3'> +1.4300019e-04 </wgt>
<wgt id='morphing_basis_vector_4'> +3.9859474e-05 </wgt>
<wgt id='morphing_basis_vector_5'> +5.0144153e-05 </wgt>
</rwgt>
</event>
<event>
 4      1 +1.9425900e-05 4.73063800e+02 7.81860800e-03 9.46220500e-02
        2 -1    0    0  501    0 +0.0000000000e+00 +0.0000000000e+00 +1.7211469077e+03 1.7211469077e+03 0.0000000000e+00 0.0000e+00 -1.0000e+00
       -2 -1    0    0    0  501 -0.0000000000e+00 -0.0000000000e+00 -3.2505845571e+01 3.2505845571e+01 0.0000000000e+00 0.0000e+00 1.0000e+00
      -13  1    1    2    0    0 +1.8080165649e+02 -1.2311361738e+02 +1.1779748910e+03 1.1981114496e+03 0.0000000000e+00 0.0000e+00 -1.0000e+00
       13  1    1    2    0    0 -1.8080165649e+02 +1.2311361738e+02 +5.1066617110e+02 5.5554130367e+02 0.0000000000e+00 0.0000e+00 1.0000e+00
<mgrwt>
<rscale>  0 0.47306378E+03</rscale>
<asrwt>0</asrwt>
<pdfrwt beam="1">  1        2 0.26479176E+00 0.47306378E+03</pdfrwt>
<pdfrwt beam="2">  1       -2 0.50009007E-02 0.47306378E+03</pdfrwt>
<totfact> 0.21769001E+03</totfact>
</mgrwt>
<rwgt>
<wgt id='morphing_basis_vector_1'> +2.7439295e-04 </wgt>
<wgt id='morphing_basis_vector_2'> +2.2386421e-04 </wgt>
<wgt id='morphing_basis_vector_3'> +1.5543013e-04 </wgt>
<wgt id='morphing_basis_vector_4'> +4.4424603e-05 </wgt>
<wgt id='morphing_basis_vector_5'> +7.1778771e-05 </wgt>
</rwgt>
</event>
<event>
 4      1 +1.9425900e-05 4.36610100e+02 7.81860800e-03 9.55409300e-02
        2 -1    0    0  501    0 +0.0000000000e+00 +0.0000000000e+00 +2.8724269796e+02 2.8724269796e+02 0.0000000000e+00 0.0000e+00 1.0000e+00
       -2 -1    0    0    0  501 -0.0000000000e+00 -0.0000000000e+00 -1.6591227367e+02 1.6591227367e+02 0.0000000000e+00 0.0000e+00 -1.0000e+00
      -13  1    1    2    0    0 +1.0423692665e+02 +1.6674693989e+02 -3.7728070251e+01 2.0023307949e+02 0.0000000000e+00 0.0000e+00 -1.0000e+00
       13  1    1    2    0    0 -1.0423692665e+02 -1.6674693989e+02 +1.5905849453e+02 2.5292189214e+02 0.0000000000e+00 0.0000e+00 1.0000e+00
<mgrwt>
<rscale>  0 0.43661007E+03</rscale>
<asrwt>0</asrwt>
<pdfrwt beam="1">  1        2 0.44191184E-01 0.43661007E+03</pdfrwt>
<pdfrwt beam="2">  1       -2 0.25524965E-01 0.43661007E+03</pdfrwt>
<totfact> 0.18117988E+03</totfact>
</mgrwt>
<rwgt>
<wgt id='morphing_basis_vector_1'> +1.9605500e-04 </wgt>
<wgt id='morphing_basis_vector_2'> +1.0839168e-04 </wgt>
<wgt id='morphing_basis_vector_3'> +1.2983136e-04 </wgt>
<wgt id='morphing_basis_vector_4'> +3.4425706e-05 </wgt>
<wgt id='morphing_basis_vector_5'> +4.1848839e-05 </wgt>
</rwgt>
</event>
<event>
 4      1 +1.9425900e-05 4.46955600e+02 7.81860800e-03 9.52708300e-02
        2 -1    0    0  501    0 +0.0000000000e+00 +0.0000000000e+00 +2.8177075488e+02 2.8177075488e+02 0.0000000000e+00 0.0000e+00 1.0000e+00
       -2 -1    0    0    0  501 -0.0000000000e+00 -0.0000000000e+00 -1.7724457063e+02 1.7724457063e+02 0.0000000000e+00 0.0000e+00 -1.0000e+00
      -13  1    1    2    0    0 -1.6450931869e+02 -1.4076801592e+02 +1.0910434471e+02 2.4245145550e+02 0.0000000000e+00 0.0000e+00 -1.0000e+00
       13  1    1    2    0    0 +1.6450931869e+02 +1.4076801592e+02 -4.5781604566e+00 2.1656387001e+02 0.0000000000e+00 0.0000e+00 1.0000e+00
<mgrwt>
<rscale>  0 0.44695564E+03</rscale>
<asrwt>0</asrwt>
<pdfrwt beam="1">  1        2 0.43349347E-01 0.44695564E+03</pdfrwt>
<pdfrwt beam="2">  1       -2 0.27268395E-01 0.44695564E+03</pdfrwt>
<totfact> 0.16537757E+03</totfact>
</mgrwt>
<rwgt>
<wgt id='morphing_basis_vector_1'> +2.2421224e-04 </wgt>
<wgt id='morphing_basis_vector_2'> +1.6180700e-04 </wgt>
<wgt id='morphing_basis_vector_3'> +1.3029435e-04 </wgt>
<wgt id='morphing_basis_vector_4'> +3.6473943e-05 </wgt>
<wgt id='morphing_basis_vector_5'> +4.9822304e-05 </wgt>
</rwgt>
</event>
<event>
 4      1 +1.9425900e-05 5.01309600e+02 7.81860800e-03 9.39684800e-02
        2 -1    0    0  501    0 +0.0000000000e+00 +0.0000000000e+00 +7.4940517314e+02 7.4940517314e+02 0.0000000000e+00 0.0000e+00 -1.0000e+00
       -2 -1    0    0    0  501 -0.0000000000e+00 -0.0000000000e+00 -8.3836927174e+01 8.3836927174e+01 0.0000000000e+00 0.0000e+00 1.0000e+00
      -13  1    1    2    0    0 -1.4891205102e+02 +1.5686614974e+02 +1.2223709650e+02 2.4844253990e+02 0.0000000000e+00 0.0000e+00 1.0000e+00
       13  1    1    2    0    0 +1.4891205102e+02 -1.5686614974e+02 +5.4333114947e+02 5.8479956041e+02 0.0000000000e+00 0.0000e+00 -1.0000e+00
<mgrwt>
<rscale>  0 0.50130959E+03</rscale>
<asrwt>0</asrwt>
<pdfrwt beam="1">  1        2 0.11529310E+00 0.50130959E+03</pdfrwt>
<pdfrwt beam="2">  1       -2 0.12897989E-01 0.50130959E+03</pdfrwt>
<totfact> 0.18605740E+03</totfact>
</mgrwt>
<rwgt>
<wgt id='morphing_basis_vector_1'> +2.9236200e-04 </wgt>
<wgt id='morphing_basis_vector_2'> +1.6334385e-04 </wgt>
<wgt id='morphing_basis_vector_3'> +2.0965921e-04 </wgt>
<wgt id='morphing_basis_vector_4'> +7.0809167e-05 </wgt>
<wgt id='morphing_basis_vector_5'> +9.9714336e-05 </wgt>
</rwgt>
</event>
<event>
 4      1 +1.9425900e-05 4.60365800e+02 7.81860800e-03 9.49319500e-02
        2 -1    0    0  501    0 +0.0000000000e+00 +0.0000000000e+00 +4.1974470900e+02 4.1974470900e+02 0.0000000000e+00 0.0000e+00 -1.0000e+00
       -2 -1    0    0    0  501 -0.0000000000e+00 -0.0000000000e+00 -1.2622950180e+02 1.2622950180e+02 0.0000000000e+00 0.0000e+00 1.0000e+00
      -13  1    1    2    0    0 -9.5647924610e+01 -2.0245171339e+02 +8.3456537761e+01 2.3895651368e+02 0.0000000000e+00 0.0000e+00 1.0000e+00
       13  1    1    2    0    0 +9.5647924610e+01 +2.0245171339e+02 +2.1005866944e+02 3.0701769712e+02 0.0000000000e+00 0.0000e+00 -1.0000e+00
<mgrwt>
<rscale>  0 0.46036579E+03</rscale>
<asrwt>0</asrwt>
<pdfrwt beam="1">  1        2 0.64576108E-01 0.46036579E+03</pdfrwt>
<pdfrwt beam="2">  1       -2 0.19419924E-01 0.46036579E+03</pdfrwt>
<totfact> 0.18768447E+03</totfact>
</mgrwt>
<rwgt>
<wgt id='morphing_basis_vector_1'> +2.2962769e-04 </wgt>
<wgt id='morphing_basis_vector_2'> +1.3222278e-04 </wgt>
<wgt id='morphing_basis_vector_3'> +1.5424201e-04 </wgt>
<wgt id='morphing_basis_vector_4'> +4.4988595e-05 </wgt>
<wgt id='morphing_basis_vector_5'> +5.9450979e-05 </wgt>
</rwgt>
</event>
<event>
 4      1 +1.9425900e-05 4.64008600e+02 7.81860800e-03 9.48419900e-02
        2 -1    0    0  501    0 +0.0000000000e+00 +0.0000000000e+00 +1.9687264954e+02 1.9687264954e+02 0.0000000000e+00 0.0000e+00 -1.0000e+00
       -2 -1    0    0    0  501 -0.0000000000e+00 -0.0000000000e+00 -2.7340519858e+02 2.7340519858e+02 0.0000000000e+00 0.0000e+00 1.0000e+00
      -13  1    1    2    0    0 +9.3489277793e+01 +2.0921074528e+02 -7.5041849487e+01 2.4112374454e+02 0.0000000000e+00 0.0000e+00 1.0000e+00
       13  1    1    2    0    0 -9.3489277793e+01 -2.0921074528e+02 -1.4906995576e+00 2.2915410358e+02 0.0000000000e+00 0.0000e+00 -1.0000e+00
<mgrwt>
<rscale>  0 0.46400865E+03</rscale>
<asrwt>0</asrwt>
<pdfrwt beam="1">  1        2 0.30288100E-01 0.46400865E+03</pdfrwt>
<pdfrwt beam="2">  1       -2 0.42062338E-01 0.46400865E+03</pdfrwt>
<totfact> 0.11438021E+03</totfact>
</mgrwt>
<rwgt>
<wgt id='morphing_basis_vector_1'> +2.3599981e-04 </wgt>
<wgt id='morphing_basis_vector_2'> +1.3876982e-04 </wgt>
<wgt id='morphing_basis_vector_3'> +1.5787771e-04 </wgt>
<wgt id='morphing_basis_vector_4'> +4.6590127e-05 </wgt>
<wgt id='morphing_basis_vector_5'> +6.2553414e-05 </wgt>
</rwgt>
</event>
<event>
 4      1 +1.9425900e-05 4.94580400e+02 7.81860800e-03 9.41199000e-02
        2 -1    0    0  501    0 +0.0000000000e+00 +0.0000000000e+00 +1.3167235913e+03 1.3167235913e+03 0.0000000000e+00 0.0000e+00 -1.0000e+00
       -2 -1    0    0    0  501 -0.0000000000e+00 -0.0000000000e+00 -4.6442884134e+01 4.6442884134e+01 0.0000000000e+00 0.0000e+00 1.0000e+00
      -13  1    1    2    0    0 +2.3619348415e+02 +4.9828990374e+01 +4.8717148145e+02 5.4369692162e+02 0.0000000000e+00 0.0000e+00 1.0000e+00
       13  1    1    2    0    0 -2.3619348415e+02 -4.9828990374e+01 +7.8310922573e+02 8.1946955384e+02 0.0000000000e+00 0.0000e+00 -1.0000e+00
<mgrwt>
<rscale>  0 0.49458039E+03</rscale>
<asrwt>0</asrwt>
<pdfrwt beam="1">  1        2 0.20257283E+00 0.49458039E+03</pdfrwt>
<pdfrwt beam="2">  1       -2 0.71450601E-02 0.49458039E+03</pdfrwt>
<totfact> 0.20997107E+03</totfact>
</mgrwt>
<rwgt>
<wgt id='morphing_basis_vector_1'> +2.8368791e-04 </wgt>
<wgt id='morphing_basis_vector_2'> +1.6565309e-04 </wgt>
<wgt id='morphing_basis_vector_3'> +1.9852137e-04 </wgt>
<wgt id='morphing_basis_vector_4'> +6.4931239e-05 </wgt>
<wgt id='morphing_basis_vector_5'> +9.2230293e-05 </wgt>
</rwgt>
</event>
<event>
 4      1 +1.9425900e-05 4.34331800e+02 7.81860800e-03 9.56014700e-02
        2 -1    0    0  501    0 +0.0000000000e+00 +0.0000000000e+00 +1.1588321721e+02 1.1588321721e+02 0.0000000000e+00 0.0000e+00 1.0000e+00
       -2 -1    0    0    0  501 -0.0000000000e+00 -0.0000000000e+00 -4.0697033601e+02 4.0697033601e+02 0.0000000000e+00 0.0000e+00 -1.0000e+00
      -13  1    1    2    0    0 +1.0204968054e+01 +6.5239884902e+01 +1.0350474564e+02 1.2277465669e+02 0.0000000000e+00 0.0000e+00 1.0000e+00
       13  1    1    2    0    0 -1.0204968054e+01 -6.5239884902e+01 -3.9459186444e+02 4.0007889652e+02 0.0000000000e+00 0.0000e+00 -1.0000e+00
<mgrwt>
<rscale>  0 0.43433182E+03</rscale>
<asrwt>0</asrwt>
<pdfrwt beam="1">  1        2 0.17828188E-01 0.43433182E+03</pdfrwt>
<pdfrwt beam="2">  1       -2 0.62610820E-01 0.43433182E+03</pdfrwt>
<totfact> 0.97886257E+02</totfact>
</mgrwt>
<rwgt>
<wgt id='morphing_basis_vector_1'> +2.6032514e-04 </wgt>
<wgt id='morphing_basis_vector_2'> +3.1366236e-04 </wgt>
<wgt id='morphing_basis_vector_3'> +7.6980946e-05 </wgt>
<wgt id='morphing_basis_vector_4'> +2.6520218e-05 </wgt>
<wgt id='morphing_basis_vector_5'> +4.4370034e-05 </wgt>
</rwgt>
</event>
<event>
 4      1 +1.9425900e-05 4.76492800e+02 7.81860800e-03 9.45401200e-02
        2 -1    0    0  501    0 +0.0000000000e+00 +0.0000000000e+00 +3.4993333495e+02 3.4993333495e+02 0.0000000000e+00 0.0000e+00 1.0000e+00
       -2 -1    0    0    0  501 -0.0000000000e+00 -0.0000000000e+00 -1.6220619474e+02 1.6220619474e+02 0.0000000000e+00 0.0000e+00 -1.0000e+00
      -13  1    1    2    0    0 +1.3445357804e+02 +1.9881231724e+01 -1.1644894637e+02 1.7897872816e+02 0.0000000000e+00 0.0000e+00 -1.0000e+00
       13  1    1    2    0    0 -1.3445357804e+02 -1.9881231724e+01 +3.0417608659e+02 3.3316080153e+02 0.0000000000e+00 0.0000e+00 1.0000e+00
<mgrwt>
<rscale>  0 0.47649283E+03</rscale>
<asrwt>0</asrwt>
<pdfrwt beam="1">  1        2 0.53835898E-01 0.47649283E+03</pdfrwt>
<pdfrwt beam="2">  1       -2 0.24954799E-01 0.47649283E+03</pdfrwt>
<totfact> 0.15130905E+03</totfact>
</mgrwt>
<rwgt>
<wgt id='morphing_basis_vector_1'> +2.5052904e-04 </wgt>
<wgt id='morphing_basis_vector_2'> +1.3665778e-04 </wgt>
<wgt id='morphing_basis_vector_3'> +1.7572063e-04 </wgt>
<wgt id='morphing_basis_vector_4'> +5.4694920e-05 </wgt>
<wgt id='morphing_basis_vector_5'> +7.3556750e-05 </wgt>
</rwgt>
</event>
<event>
 4      1 +1.9425900e-05 4.48169600e+02 7.81860800e-03 9.52396400e-02
        2 -1    0    0  501    0 +0.0000000000e+00 +0.0000000000e+00 +2.2229735245e+02 2.2229735245e+02 0.0000000000e+00 0.0000e+00 -1.0000e+00
       -2 -1    0    0    0  501 -0.0000000000e+00 -0.0000000000e+00 -2.2588665912e+02 2.2588665912e+02 0.0000000000e+00 0.0000e+00 1.0000e+00
      -13  1    1    2    0    0 -3.1724064143e+01 +1.6480087586e+02 -1.5028598488e+02 2.2528120690e+02 0.0000000000e+00 0.0000e+00 1.0000e+00
       13  1    1    2    0    0 +3.1724064143e+01 -1.6480087586e+02 +1.4669667822e+02 2.2290280467e+02 0.0000000000e+00 0.0000e+00 -1.0000e+00
<mgrwt>
<rscale>  0 0.44816964E+03</rscale>
<asrwt>0</asrwt>
<pdfrwt beam="1">  1        2 0.34199593E-01 0.44816964E+03</pdfrwt>
<pdfrwt beam="2">  1       -2 0.34751794E-01 0.44816964E+03</pdfrwt>
<totfact> 0.14113798E+03</totfact>
</mgrwt>
<rwgt>
<wgt id='morphing_basis_vector_1'> +2.1017818e-04 </wgt>
<wgt id='morphing_basis_vector_2'> +1.1438604e-04 </wgt>
<wgt id='morphing_basis_vector_3'> +1.4231071e-04 </wgt>
<wgt id='morphing_basis_vector_4'> +3.9596084e-05 </wgt>
<wgt id='morphing_basis_vector_5'> +4.9824747e-05 </wgt>
</rwgt>
</event>
<event>
 4      1 +1.9425900e-05 4.65259700e+02 7.81860800e-03 9.48112900e-02
        2 -1    0    0  501    0 +0.0000000000e+00 +0.0000000000e+00 +2.1723767984e+02 2.1723767984e+02 0.0000000000e+00 0.0000e+00 1.0000e+00
       -2 -1    0    0    0  501 -0.0000000000e+00 -0.0000000000e+00 -2.4911261232e+02 2.4911261232e+02 0.0000000000e+00 0.0000e+00 -1.0000e+00
      -13  1    1    2    0    0 +1.1979376711e+02 -1.7811170874e+02 -1.0582665390e+02 2.3931905086e+02 0.0000000000e+00 0.0000e+00 -1.0000e+00
       13  1    1    2    0    0 -1.1979376711e+02 +1.7811170874e+02 +7.3951721414e+01 2.2703124130e+02 0.0000000000e+00 0.0000e+00 1.0000e+00
<mgrwt>
<rscale>  0 0.46525969E+03</rscale>
<asrwt>0</asrwt>
<pdfrwt beam="1">  1        2 0.33421181E-01 0.46525969E+03</pdfrwt>
<pdfrwt beam="2">  1       -2 0.38325017E-01 0.46525969E+03</pdfrwt>
<totfact> 0.12139690E+03</totfact>
</mgrwt>
<rwgt>
<wgt id='morphing_basis_vector_1'> +2.3523641e-04 </wgt>
<wgt id='morphing_basis_vector_2'> +1.3182076e-04 </wgt>
<wgt id='morphing_basis_vector_3'> +1.6090933e-04 </wgt>
<wgt id='morphing_basis_vector_4'> +4.7884003e-05 </wgt>
<wgt id='morphing_basis_vector_5'> +6.3488787e-05 </wgt>
</rwgt>
</event>
<event>
 4      1 +1.9425900e-05 4.33374400e+02 7.81860800e-03 9.56270300e-02
        2 -1    0    0  501    0 +0.0000000000e+00 +0.0000000000e+00 +5.5750813055e+02 5.5750813055e+02 0.0000000000e+00 0.0000e+00 1.0000e+00
       -2 -1    0    0    0  501 -0.0000000000e+00 -0.0000000000e+00 -8.4220008471e+01 8.4220008471e+01 0.0000000000e+00 0.0000e+00 -1.0000e+00
      -13  1    1    2    0    0 +1.8490382820e+02 -1.1269000271e+02 +2.4857112369e+02 3.2966053135e+02 0.0000000000e+00 0.0000e+00 -1.0000e+00
       13  1    1    2    0    0 -1.8490382820e+02 +1.1269000271e+02 +2.2471699839e+02 3.1206760768e+02 0.0000000000e+00 0.0000e+00 1.0000e+00
<mgrwt>
<rscale>  0 0.43337439E+03</rscale>
<asrwt>0</asrwt>
<pdfrwt beam="1">  1        2 0.85770479E-01 0.43337439E+03</pdfrwt>
<pdfrwt beam="2">  1       -2 0.12956925E-01 0.43337439E+03</pdfrwt>
<totfact> 0.26168858E+03</totfact>
</mgrwt>
<rwgt>
<wgt id='morphing_basis_vector_1'> +1.9799769e-04 </wgt>
<wgt id='morphing_basis_vector_2'> +1.2447949e-04 </wgt>
<wgt id='morphing_basis_vector_3'> +1.2213145e-04 </wgt>
<wgt id='morphing_basis_vector_4'> +3.2524752e-05 </wgt>
<wgt id='morphing_basis_vector_5'> +4.0120426e-05 </wgt>
</rwgt>
</event>
<event>
 4      1 +1.9425900e-05 4.50056500e+02 7.81860800e-03 9.51913700e-02
        2 -1    0    0  501    0 +0.0000000000e+00 +0.0000000000e+00 +9.8347281930e+02 9.8347281930e+02 0.0000000000e+00 0.0000e+00 -1.0000e+00
       -2 -1    0    0    0  501 -0.0000000000e+00 -0.0000000000e+00 -5.1488684248e+01 5.1488684248e+01 0.0000000000e+00 0.0000e+00 1.0000e+00
      -13  1    1    2    0    0 -6.1714010698e+01 +2.1637426146e+02 +4.7371597520e+02 5.2443614034e+02 0.0000000000e+00 0.0000e+00 1.0000e+00
       13  1    1    2    0    0 +6.1714010698e+01 -2.1637426146e+02 +4.5826815985e+02 5.1052536320e+02 0.0000000000e+00 0.0000e+00 -1.0000e+00
<mgrwt>
<rscale>  0 0.45005654E+03</rscale>
<asrwt>0</asrwt>
<pdfrwt beam="1">  1        2 0.15130350E+00 0.45005654E+03</pdfrwt>
<pdfrwt beam="2">  1       -2 0.79213368E-02 0.45005654E+03</pdfrwt>
<totfact> 0.27952481E+03</totfact>
</mgrwt>
<rwgt>
<wgt id='morphing_basis_vector_1'> +2.1962950e-04 </wgt>
<wgt id='morphing_basis_vector_2'> +1.3723088e-04 </wgt>
<wgt id='morphing_basis_vector_3'> +1.3970778e-04 </wgt>
<wgt id='morphing_basis_vector_4'> +3.9245455e-05 </wgt>
<wgt id='morphing_basis_vector_5'> +5.1607545e-05 </wgt>
</rwgt>
</event>
<event>
 4      1 +1.9425900e-05 4.49055800e+02 7.81860800e-03 9.52169400e-02
        2 -1    0    0  501    0 +0.0000000000e+00 +0.0000000000e+00 +1.9605372229e+02 1.9605372229e+02 0.0000000000e+00 0.0000e+00 -1.0000e+00
       -2 -1    0    0    0  501 -0.0000000000e+00 -0.0000000000e+00 -2.5713752685e+02 2.5713752685e+02 0.0000000000e+00 0.0000e+00 1.0000e+00
      -13  1    1    2    0    0 +1.0594149329e+02 +1.7662754704e+02 +5.9678693275e+01 2.1443515758e+02 0.0000000000e+00 0.0000e+00 1.0000e+00
       13  1    1    2    0    0 -1.0594149329e+02 -1.7662754704e+02 -1.2076249783e+02 2.3875609156e+02 0.0000000000e+00 0.0000e+00 -1.0000e+00
<mgrwt>
<rscale>  0 0.44905576E+03</rscale>
<asrwt>0</asrwt>
<pdfrwt beam="1">  1        2 0.30162111E-01 0.44905576E+03</pdfrwt>
<pdfrwt beam="2">  1       -2 0.39559619E-01 0.44905576E+03</pdfrwt>
<totfact> 0.12871579E+03</totfact>
</mgrwt>
<rwgt>
<wgt id='morphing_basis_vector_1'> +2.3735721e-04 </wgt>
<wgt id='morphing_basis_vector_2'> +1.9540052e-04 </wgt>
<wgt id='morphing_basis_vector_3'> +1.2573492e-04 </wgt>
<wgt id='morphing_basis_vector_4'> +3.5497227e-05 </wgt>
<wgt id='morphing_basis_vector_5'> +5.1931314e-05 </wgt>
</rwgt>
</event>
<event>
 4      1 +1.9425900e-05 4.30403500e+02 7.81860800e-03 9.57067900e-02
        2 -1    0    0  501    0 +0.0000000000e+00 +0.0000000000e+00 +7.4391649156e+02 7.4391649156e+02 0.0000000000e+00 0.0000e+00 -1.0000e+00
       -2 -1    0    0    0  501 -0.0000000000e+00 -0.0000000000e+00 -6.2254017550e+01 6.2254017550e+01 0.0000000000e+00 0.0000e+00 1.0000e+00
      -13  1    1    2    0    0 +1.1411528691e+02 -1.1735270318e+02 +7.9153398588e+01 1.8182193530e+02 0.0000000000e+00 0.0000e+00 1.0000e+00
       13  1    1    2    0    0 -1.1411528691e+02 +1.1735270318e+02 +6.0250907542e+02 6.2434857381e+02 0.0000000000e+00 0.0000e+00 -1.0000e+00
<mgrwt>
<rscale>  0 0.43040349E+03</rscale>
<asrwt>0</asrwt>
<pdfrwt beam="1">  1        2 0.11444869E+00 0.43040349E+03</pdfrwt>
<pdfrwt beam="2">  1       -2 0.95775416E-02 0.43040349E+03</pdfrwt>
<totfact> 0.29916254E+03</totfact>
</mgrwt>
<rwgt>
<wgt id='morphing_basis_vector_1'> +1.8769404e-04 </wgt>
<wgt id='morphing_basis_vector_2'> +1.0184179e-04 </wgt>
<wgt id='morphing_basis_vector_3'> +1.2436126e-04 </wgt>
<wgt id='morphing_basis_vector_4'> +3.2014548e-05 </wgt>
<wgt id='morphing_basis_vector_5'> +3.7866884e-05 </wgt>
</rwgt>
</event>
<event>
 4      1 +1.9425900e-05 4.83992400e+02 7.81860800e-03 9.43634900e-02
        2 -1    0    0  501    0 +0.0000000000e+00 +0.0000000000e+00 +3.1817086472e+02 3.1817086472e+02 0.0000000000e+00 0.0000e+00 -1.0000e+00
       -2 -1    0    0    0  501 -0.0000000000e+00 -0.0000000000e+00 -1.8405880416e+02 1.8405880416e+02 0.0000000000e+00 0.0000e+00 1.0000e+00
      -13  1    1    2    0    0 +2.1913114589e+02 -2.0483920492e+01 -3.7353959679e+01 2.2323388721e+02 0.0000000000e+00 0.0000e+00 1.0000e+00
       13  1    1    2    0    0 -2.1913114589e+02 +2.0483920492e+01 +1.7146602024e+02 2.7899578167e+02 0.0000000000e+00 0.0000e+00 -1.0000e+00
<mgrwt>
<rscale>  0 0.48399235E+03</rscale>
<asrwt>0</asrwt>
<pdfrwt beam="1">  1        2 0.48949364E-01 0.48399235E+03</pdfrwt>
<pdfrwt beam="2">  1       -2 0.28316739E-01 0.48399235E+03</pdfrwt>
<totfact> 0.13544189E+03</totfact>
</mgrwt>
<rwgt>
<wgt id='morphing_basis_vector_1'> +2.6381411e-04 </wgt>
<wgt id='morphing_basis_vector_2'> +1.4804532e-04 </wgt>
<wgt id='morphing_basis_vector_3'> +1.8482810e-04 </wgt>
<wgt id='morphing_basis_vector_4'> +5.8848404e-05 </wgt>
<wgt id='morphing_basis_vector_5'> +8.0964180e-05 </wgt>
</rwgt>
</event>
<event>
 4      1 +1.9425900e-05 4.55964600e+02 7.81860800e-03 9.50418200e-02
        2 -1    0    0  501    0 +0.0000000000e+00 +0.0000000000e+00 +9.9919712634e+02 9.9919712634e+02 0.0000000000e+00 0.0000e+00 -1.0000e+00
       -2 -1    0    0    0  501 -0.0000000000e+00 -0.0000000000e+00 -5.2017688590e+01 5.2017688590e+01 0.0000000000e+00 0.0000e+00 1.0000e+00
      -13  1    1    2    0    0 -1.8600351946e+02 -1.8374099273e+01 +1.7263025379e+02 2.5443294067e+02 0.0000000000e+00 0.0000e+00 1.0000e+00
       13  1    1    2    0    0 +1.8600351946e+02 +1.8374099273e+01 +7.7454918396e+02 7.9678187426e+02 0.0000000000e+00 0.0000e+00 -1.0000e+00
<mgrwt>
<rscale>  0 0.45596458E+03</rscale>
<asrwt>0</asrwt>
<pdfrwt beam="1">  1        2 0.15372262E+00 0.45596458E+03</pdfrwt>
<pdfrwt beam="2">  1       -2 0.80027220E-02 0.45596458E+03</pdfrwt>
<totfact> 0.26917406E+03</totfact>
</mgrwt>
<rwgt>
<wgt id='morphing_basis_vector_1'> +2.2101366e-04 </wgt>
<wgt id='morphing_basis_vector_2'> +1.2115835e-04 </wgt>
<wgt id='morphing_basis_vector_3'> +1.5070777e-04 </wgt>
<wgt id='morphing_basis_vector_4'> +4.3301228e-05 </wgt>
<wgt id='morphing_basis_vector_5'> +5.5775069e-05 </wgt>
</rwgt>
</event>
<event>
 4      1 +1.9425900e-05 4.31563900e+02 7.81860800e-03 9.56755600e-02
        2 -1    0    0  501    0 +0.0000000000e+00 +0.0000000000e+00 +5.7365335721e+02 5.7365335721e+02 0.0000000000e+00 0.0000e+00 1.0000e+00
       -2 -1    0    0    0  501 -0.0000000000e+00 -0.0000000000e+00 -8.1167204328e+01 8.1167204328e+01 0.0000000000e+00 0.0000e+00 -1.0000e+00
      -13  1    1    2    0    0 -1.6394752077e+02 +1.2869412279e+02 +3.3100782115e+02 3.9116127680e+02 0.0000000000e+00 0.0000e+00 1.0000e+00
       13  1    1    2    0    0 +1.6394752077e+02 -1.2869412279e+02 +1.6147833173e+02 2.6365928474e+02 0.0000000000e+00 0.0000e+00 -1.0000e+00
<mgrwt>
<rscale>  0 0.43156385E+03</rscale>
<asrwt>0</asrwt>
<pdfrwt beam="1">  1        2 0.88254360E-01 0.43156385E+03</pdfrwt>
<pdfrwt beam="2">  1       -2 0.12487263E-01 0.43156385E+03</pdfrwt>
<totfact> 0.26850413E+03</totfact>
</mgrwt>
<rwgt>
<wgt id='morphing_basis_vector_1'> +2.0369780e-04 </wgt>
<wgt id='morphing_basis_vector_2'> +1.4760962e-04 </wgt>
<wgt id='morphing_basis_vector_3'> +1.1423542e-04 </wgt>
<wgt id='morphing_basis_vector_4'> +3.1144343e-05 </wgt>
<wgt id='morphing_basis_vector_5'> +3.9462529e-05 </wgt>
</rwgt>
</event>
<event>
 4      1 +1.9425900e-05 4.40263900e+02 7.81860800e-03 9.54446400e-02
        2 -1    0    0  501    0 +0.0000000000e+00 +0.0000000000e+00 +1.2700059692e+03 1.2700059692e+03 0.0000000000e+00 0.0000e+00 -1.0000e+00
       -2 -1    0    0    0  501 -0.0000000000e+00 -0.0000000000e+00 -3.8155784430e+01 3.8155784430e+01 0.0000000000e+00 0.0000e+00 1.0000e+00
      -13  1    1    2    0    0 -1.8374977598e+01 +2.1214275803e+02 +4.5006609103e+02 4.9789725434e+02 0.0000000000e+00 0.0000e+00 1.0000e+00
       13  1    1    2    0    0 +1.8374977598e+01 -2.1214275803e+02 +7.8178409378e+02 8.1026449933e+02 0.0000000000e+00 0.0000e+00 -1.0000e+00
<mgrwt>
<rscale>  0 0.44026389E+03</rscale>
<asrwt>0</asrwt>
<pdfrwt beam="1">  1        2 0.19538550E+00 0.44026389E+03</pdfrwt>
<pdfrwt beam="2">  1       -2 0.58701216E-02 0.44026389E+03</pdfrwt>
<totfact> 0.30106114E+03</totfact>
</mgrwt>
<rwgt>
<wgt id='morphing_basis_vector_1'> +2.0201557e-04 </wgt>
<wgt id='morphing_basis_vector_2'> +1.1515327e-04 </wgt>
<wgt id='morphing_basis_vector_3'> +1.3253460e-04 </wgt>
<wgt id='morphing_basis_vector_4'> +3.5778040e-05 </wgt>
<wgt id='morphing_basis_vector_5'> +4.4364046e-05 </wgt>
</rwgt>
</event>
<event>
 4      1 +1.9425900e-05 4.63769000e+02 7.81860800e-03 9.48478800e-02
        2 -1    0    0  501    0 +0.0000000000e+00 +0.0000000000e+00 +1.2031462246e+03 1.2031462246e+03 0.0000000000e+00 0.0000e+00 -1.0000e+00
       -2 -1    0    0    0  501 -0.0000000000e+00 -0.0000000000e+00 -4.4691504543e+01 4.4691504543e+01 0.0000000000e+00 0.0000e+00 1.0000e+00
      -13  1    1    2    0    0 +1.7117780305e+02 -1.0325150900e+02 +2.6305994858e+02 3.3039862426e+02 0.0000000000e+00 0.0000e+00 1.0000e+00
       13  1    1    2    0    0 -1.7117780305e+02 +1.0325150900e+02 +8.9539477144e+02 9.1743910484e+02 0.0000000000e+00 0.0000e+00 -1.0000e+00
<mgrwt>
<rscale>  0 0.46376897E+03</rscale>
<asrwt>0</asrwt>
<pdfrwt beam="1">  1        2 0.18509939E+00 0.46376897E+03</pdfrwt>
<pdfrwt beam="2">  1       -2 0.68756170E-02 0.46376897E+03</pdfrwt>
<totfact> 0.25803377E+03</totfact>
</mgrwt>
<rwgt>
<wgt id='morphing_basis_vector_1'> +2.3234265e-04 </wgt>
<wgt id='morphing_basis_vector_2'> +1.2832112e-04 </wgt>
<wgt id='morphing_basis_vector_3'> +1.5956209e-04 </wgt>
<wgt id='morphing_basis_vector_4'> +4.7264602e-05 </wgt>
<wgt id='morphing_basis_vector_5'> +6.2178789e-05 </wgt>
</rwgt>
</event>
<event>
 4      1 +1.9425900e-05 5.15574600e+02 7.81860800e-03 9.36557400e-02
        2 -1    0    0  501    0 +0.0000000000e+00 +0.0000000000e+00 +1.1241936540e+03 1.1241936540e+03 0.0000000000e+00 0.0000e+00 -1.0000e+00
       -2 -1    0    0    0  501 -0.0000000000e+00 -0.0000000000e+00 -5.9112843497e+01 5.9112843497e+01 0.0000000000e+00 0.0000e+00 1.0000e+00
      -13  1    1    2    0    0 +2.4835843882e+02 +4.7850229172e+01 +4.1818147892e+02 4.8872007108e+02 0.0000000000e+00 0.0000e+00 1.0000e+00
       13  1    1    2    0    0 -2.4835843882e+02 -4.7850229172e+01 +6.4689933160e+02 6.9458642643e+02 0.0000000000e+00 0.0000e+00 -1.0000e+00
<mgrwt>
<rscale>  0 0.51557457E+03</rscale>
<asrwt>0</asrwt>
<pdfrwt beam="1">  1        2 0.17295285E+00 0.51557457E+03</pdfrwt>
<pdfrwt beam="2">  1       -2 0.90942844E-02 0.51557457E+03</pdfrwt>
<totfact> 0.18611486E+03</totfact>
</mgrwt>
<rwgt>
<wgt id='morphing_basis_vector_1'> +3.2214923e-04 </wgt>
<wgt id='morphing_basis_vector_2'> +1.9058263e-04 </wgt>
<wgt id='morphing_basis_vector_3'> +2.3057025e-04 </wgt>
<wgt id='morphing_basis_vector_4'> +7.9993913e-05 </wgt>
<wgt id='morphing_basis_vector_5'> +1.1734859e-04 </wgt>
</rwgt>
</event>
<event>
 4      1 +1.9425900e-05 4.61497700e+02 7.81860800e-03 9.49039000e-02
        2 -1    0    0  501    0 +0.0000000000e+00 +0.0000000000e+00 +2.3878748018e+03 2.3878748018e+03 0.0000000000e+00 0.0000e+00 -1.0000e+00
       -2 -1    0    0    0  501 -0.0000000000e+00 -0.0000000000e+00 -2.2298086430e+01 2.2298086430e+01 0.0000000000e+00 0.0000e+00 1.0000e+00
      -13  1    1    2    0    0 -1.5477139175e+02 +1.7107861207e+02 +1.2078147192e+03 1.2296497352e+03 0.0000000000e+00 0.0000e+00 1.0000e+00
       13  1    1    2    0    0 +1.5477139175e+02 -1.7107861207e+02 +1.1577619962e+03 1.1805231531e+03 0.0000000000e+00 0.0000e+00 -1.0000e+00
<mgrwt>
<rscale>  0 0.46149773E+03</rscale>
<asrwt>0</asrwt>
<pdfrwt beam="1">  1        2 0.36736515E+00 0.46149773E+03</pdfrwt>
<pdfrwt beam="2">  1       -2 0.34304767E-02 0.46149773E+03</pdfrwt>
<totfact> 0.16511897E+03</totfact>
</mgrwt>
<rwgt>
<wgt id='morphing_basis_vector_1'> +2.3619816e-04 </wgt>
<wgt id='morphing_basis_vector_2'> +1.4849300e-04 </wgt>
<wgt id='morphing_basis_vector_3'> +1.5255910e-04 </wgt>
<wgt id='morphing_basis_vector_4'> +4.4420804e-05 </wgt>
<wgt id='morphing_basis_vector_5'> +6.0645852e-05 </wgt>
</rwgt>
</event>
<event>
 4      1 +1.9425900e-05 4.40014000e+02 7.81860800e-03 9.54512000e-02
        2 -1    0    0  501    0 +0.0000000000e+00 +0.0000000000e+00 +4.4326192035e+02 4.4326192035e+02 0.0000000000e+00 0.0000e+00 -1.0000e+00
       -2 -1    0    0    0  501 -0.0000000000e+00 -0.0000000000e+00 -1.0919748443e+02 1.0919748443e+02 0.0000000000e+00 0.0000e+00 1.0000e+00
      -13  1    1    2    0    0 -1.9234767174e+02 +7.1094624155e+01 +2.6709104098e+02 3.3673386610e+02 0.0000000000e+00 0.0000e+00 1.0000e+00
       13  1    1    2    0    0 +1.9234767174e+02 -7.1094624155e+01 +6.6973394945e+01 2.1572553868e+02 0.0000000000e+00 0.0000e+00 -1.0000e+00
<mgrwt>
<rscale>  0 0.44001403E+03</rscale>
<asrwt>0</asrwt>
<pdfrwt beam="1">  1        2 0.68194141E-01 0.44001403E+03</pdfrwt>
<pdfrwt beam="2">  1       -2 0.16799613E-01 0.44001403E+03</pdfrwt>
<totfact> 0.22362973E+03</totfact>
</mgrwt>
<rwgt>
<wgt id='morphing_basis_vector_1'> +2.2139651e-04 </wgt>
<wgt id='morphing_basis_vector_2'> +1.7576705e-04 </wgt>
<wgt id='morphing_basis_vector_3'> +1.1803420e-04 </wgt>
<wgt id='morphing_basis_vector_4'> +3.3091677e-05 </wgt>
<wgt id='morphing_basis_vector_5'> +4.5341365e-05 </wgt>
</rwgt>
</event>
<event>
 4      1 +1.9425900e-05 4.47136700e+02 7.81860800e-03 9.52661700e-02
        2 -1    0    0  501    0 +0.0000000000e+00 +0.0000000000e+00 +4.8791199155e+02 4.8791199155e+02 0.0000000000e+00 0.0000e+00 -1.0000e+00
       -2 -1    0    0    0  501 -0.0000000000e+00 -0.0000000000e+00 -1.0244224567e+02 1.0244224567e+02 0.0000000000e+00 0.0000e+00 1.0000e+00
      -13  1    1    2    0    0 -1.1545124162e+02 -2.1004618723e+01 -5.8512976464e+01 1.3112570921e+02 0.0000000000e+00 0.0000e+00 1.0000e+00
       13  1    1    2    0    0 +1.1545124162e+02 +2.1004618723e+01 +4.4398272234e+02 4.5922852801e+02 0.0000000000e+00 0.0000e+00 -1.0000e+00
<mgrwt>
<rscale>  0 0.44713667E+03</rscale>
<asrwt>0</asrwt>
<pdfrwt beam="1">  1        2 0.75063382E-01 0.44713667E+03</pdfrwt>
<pdfrwt beam="2">  1       -2 0.15760346E-01 0.44713667E+03</pdfrwt>
<totfact> 0.22271009E+03</totfact>
</mgrwt>
<rwgt>
<wgt id='morphing_basis_vector_1'> +2.0855361e-04 </wgt>
<wgt id='morphing_basis_vector_2'> +1.1282487e-04 </wgt>
<wgt id='morphing_basis_vector_3'> +1.4138374e-04 </wgt>
<wgt id='morphing_basis_vector_4'> +3.9160525e-05 </wgt>
<wgt id='morphing_basis_vector_5'> +4.9056100e-05 </wgt>
</rwgt>
</event>
<event>
 4      1 +1.9425900e-05 5.04207700e+02 7.81860800e-03 9.39040400e-02
        2 -1    0    0  501    0 +0.0000000000e+00 +0.0000000000e+00 +7.4783307098e+02 7.4783307098e+02 0.0000000000e+00 0.0000e+00 -1.0000e+00
       -2 -1    0    0    0  501 -0.0000000000e+00 -0.0000000000e+00 -8.4987359046e+01 8.4987359046e+01 0.0000000000e+00 0.0000e+00 1.0000e+00
      -13  1    1    2    0    0 +1.6677389402e+02 -1.7150138974e+02 +4.6283852059e+02 5.2100456289e+02 0.0000000000e+00 0.0000e+00 1.0000e+00
       13  1    1    2    0    0 -1.6677389402e+02 +1.7150138974e+02 +2.0000719134e+02 3.1181586714e+02 0.0000000000e+00 0.0000e+00 -1.0000e+00
<mgrwt>
<rscale>  0 0.50420773E+03</rscale>
<asrwt>0</asrwt>
<pdfrwt beam="1">  1        2 0.11505124E+00 0.50420773E+03</pdfrwt>
<pdfrwt beam="2">  1       -2 0.13074979E-01 0.50420773E+03</pdfrwt>
<totfact> 0.18254123E+03</totfact>
</mgrwt>
<rwgt>
<wgt id='morphing_basis_vector_1'> +3.2533678e-04 </wgt>
<wgt id='morphing_basis_vector_2'> +2.5283050e-04 </wgt>
<wgt id='morphing_basis_vector_3'> +2.0310049e-04 </wgt>
<wgt id='morphing_basis_vector_4'> +6.1318051e-05 </wgt>
<wgt id='morphing_basis_vector_5'> +1.0419599e-04 </wgt>
</rwgt>
</event>
<event>
 4      1 +1.9425900e-05 5.09346500e+02 7.81860800e-03 9.37909300e-02
        2 -1    0    0  501    0 +0.0000000000e+00 +0.0000000000e+00 +8.6514294740e+01 8.6514294740e+01 0.0000000000e+00 0.0000e+00 -1.0000e+00
       -2 -1    0    0    0  501 -0.0000000000e+00 -0.0000000000e+00 -7.4968501085e+02 7.4968501085e+02 0.0000000000e+00 0.0000e+00 1.0000e+00
      -13  1    1    2    0    0 +1.8131163281e+02 -5.8379892904e+01 -6.0910890320e+02 6.3819728615e+02 0.0000000000e+00 0.0000e+00 1.0000e+00
       13  1    1    2    0    0 -1.8131163281e+02 +5.8379892904e+01 -5.4061812905e+01 1.9800201944e+02 0.0000000000e+00 0.0000e+00 -1.0000e+00
<mgrwt>
<rscale>  0 0.50934652E+03</rscale>
<asrwt>0</asrwt>
<pdfrwt beam="1">  1        2 0.13309891E-01 0.50934652E+03</pdfrwt>
<pdfrwt beam="2">  1       -2 0.11533616E+00 0.50934652E+03</pdfrwt>
<totfact> 0.34802416E+02</totfact>
</mgrwt>
<rwgt>
<wgt id='morphing_basis_vector_1'> +3.0602435e-04 </wgt>
<wgt id='morphing_basis_vector_2'> +1.6955471e-04 </wgt>
<wgt id='morphing_basis_vector_3'> +2.2221284e-04 </wgt>
<wgt id='morphing_basis_vector_4'> +7.7162189e-05 </wgt>
<wgt id='morphing_basis_vector_5'> +1.0931257e-04 </wgt>
</rwgt>
</event>
<event>
 4      1 +1.9425900e-05 4.64894800e+02 7.81860800e-03 9.48202300e-02
        2 -1    0    0  501    0 +0.0000000000e+00 +0.0000000000e+00 +1.7902854562e+02 1.7902854562e+02 0.0000000000e+00 0.0000e+00 1.0000e+00
       -2 -1    0    0    0  501 -0.0000000000e+00 -0.0000000000e+00 -3.0180542201e+02 3.0180542201e+02 0.0000000000e+00 0.0000e+00 -1.0000e+00
      -13  1    1    2    0    0 +1.8000427195e+02 -3.2974689676e+01 +8.6853657739e+01 2.0256462164e+02 0.0000000000e+00 0.0000e+00 1.0000e+00
       13  1    1    2    0    0 -1.8000427195e+02 +3.2974689676e+01 -2.0963053412e+02 2.7826934599e+02 0.0000000000e+00 0.0000e+00 -1.0000e+00
<mgrwt>
<rscale>  0 0.46489477E+03</rscale>
<asrwt>0</asrwt>
<pdfrwt beam="1">  1        2 0.27542853E-01 0.46489477E+03</pdfrwt>
<pdfrwt beam="2">  1       -2 0.46431603E-01 0.46489477E+03</pdfrwt>
<totfact> 0.10590212E+03</totfact>
</mgrwt>
<rwgt>
<wgt id='morphing_basis_vector_1'> +2.8644192e-04 </wgt>
<wgt id='morphing_basis_vector_2'> +2.9172637e-04 </wgt>
<wgt id='morphing_basis_vector_3'> +1.2994101e-04 </wgt>
<wgt id='morphing_basis_vector_4'> +3.4939147e-05 </wgt>
<wgt id='morphing_basis_vector_5'> +6.5837455e-05 </wgt>
</rwgt>
</event>
<event>
 4      1 +1.9425900e-05 4.90941600e+02 7.81860800e-03 9.42028700e-02
        2 -1    0    0  501    0 +0.0000000000e+00 +0.0000000000e+00 +2.6776535354e+02 2.6776535354e+02 0.0000000000e+00 0.0000e+00 -1.0000e+00
       -2 -1    0    0    0  501 -0.0000000000e+00 -0.0000000000e+00 -2.2503250675e+02 2.2503250675e+02 0.0000000000e+00 0.0000e+00 1.0000e+00
      -13  1    1    2    0    0 -1.1415259963e+02 -2.1542951760e+02 +5.0026362118e+01 2.4888416977e+02 0.0000000000e+00 0.0000e+00 1.0000e+00
       13  1    1    2    0    0 +1.1415259963e+02 +2.1542951760e+02 -7.2935153248e+00 2.4391369052e+02 0.0000000000e+00 0.0000e+00 -1.0000e+00
<mgrwt>
<rscale>  0 0.49094158E+03</rscale>
<asrwt>0</asrwt>
<pdfrwt beam="1">  1        2 0.41194670E-01 0.49094158E+03</pdfrwt>
<pdfrwt beam="2">  1       -2 0.34620385E-01 0.49094158E+03</pdfrwt>
<totfact> 0.11523870E+03</totfact>
</mgrwt>
<rwgt>
<wgt id='morphing_basis_vector_1'> +2.8717852e-04 </wgt>
<wgt id='morphing_basis_vector_2'> +1.9188735e-04 </wgt>
<wgt id='morphing_basis_vector_3'> +1.8891390e-04 </wgt>
<wgt id='morphing_basis_vector_4'> +5.9029512e-05 </wgt>
<wgt id='morphing_basis_vector_5'> +8.8702204e-05 </wgt>
</rwgt>
</event>
<event>
 4      1 +1.9425900e-05 4.62552200e+02 7.81860800e-03 9.48778500e-02
        2 -1    0    0  501    0 +0.0000000000e+00 +0.0000000000e+00 +1.4691453706e+03 1.4691453706e+03 0.0000000000e+00 0.0000e+00 1.0000e+00
       -2 -1    0    0    0  501 -0.0000000000e+00 -0.0000000000e+00 -3.6407997790e+01 3.6407997790e+01 0.0000000000e+00 0.0000e+00 -1.0000e+00
      -13  1    1    2    0    0 +9.7565127341e+00 -1.9548167455e+02 +3.1533901344e+02 3.7114278657e+02 0.0000000000e+00 0.0000e+00 -1.0000e+00
       13  1    1    2    0    0 -9.7565127341e+00 +1.9548167455e+02 +1.1173983593e+03 1.1344105818e+03 0.0000000000e+00 0.0000e+00 1.0000e+00
<mgrwt>
<rscale>  0 0.46255223E+03</rscale>
<asrwt>0</asrwt>
<pdfrwt beam="1">  1        2 0.22602232E+00 0.46255223E+03</pdfrwt>
<pdfrwt beam="2">  1       -2 0.56012316E-02 0.46255223E+03</pdfrwt>
<totfact> 0.25109079E+03</totfact>
</mgrwt>
<rwgt>
<wgt id='morphing_basis_vector_1'> +2.3047167e-04 </wgt>
<wgt id='morphing_basis_vector_2'> +1.2695425e-04 </wgt>
<wgt id='morphing_basis_vector_3'> +1.5819518e-04 </wgt>
<wgt id='morphing_basis_vector_4'> +4.6646766e-05 </wgt>
<wgt id='morphing_basis_vector_5'> +6.1146562e-05 </wgt>
</rwgt>
</event>
<event>
 4      1 +1.9425900e-05 4.49851100e+02 7.81860800e-03 9.51966100e-02
        2 -1    0    0  501    0 +0.0000000000e+00 +0.0000000000e+00 +9.3445527255e+02 9.3445527255e+02 0.0000000000e+00 0.0000e+00 1.0000e+00
       -2 -1    0    0    0  501 -0.0000000000e+00 -0.0000000000e+00 -5.4140098037e+01 5.4140098037e+01 0.0000000000e+00 0.0000e+00 -1.0000e+00
      -13  1    1    2    0    0 -2.0167303485e+02 -7.6025180931e+01 +2.9876322949e+02 3.6839015787e+02 0.0000000000e+00 0.0000e+00 -1.0000e+00
       13  1    1    2    0    0 +2.0167303485e+02 +7.6025180931e+01 +5.8155194503e+02 6.2020521272e+02 0.0000000000e+00 0.0000e+00 1.0000e+00
<mgrwt>
<rscale>  0 0.44985109E+03</rscale>
<asrwt>0</asrwt>
<pdfrwt beam="1">  1        2 0.14376234E+00 0.44985109E+03</pdfrwt>
<pdfrwt beam="2">  1       -2 0.83292465E-02 0.44985109E+03</pdfrwt>
<totfact> 0.27743580E+03</totfact>
</mgrwt>
<rwgt>
<wgt id='morphing_basis_vector_1'> +2.1436609e-04 </wgt>
<wgt id='morphing_basis_vector_2'> +1.2165827e-04 </wgt>
<wgt id='morphing_basis_vector_3'> +1.4281882e-04 </wgt>
<wgt id='morphing_basis_vector_4'> +4.0039174e-05 </wgt>
<wgt id='morphing_basis_vector_5'> +5.1176772e-05 </wgt>
</rwgt>
</event>
<event>
 4      1 +1.9425900e-05 4.53422500e+02 7.81860800e-03 9.51058700e-02
        2 -1    0    0  501    0 +0.0000000000e+00 +0.0000000000e+00 +5.3318478288e+02 5.3318478288e+02 0.0000000000e+00 0.0000e+00 -1.0000e+00
       -2 -1    0    0    0  501 -0.0000000000e+00 -0.0000000000e+00 -9.6398099576e+01 9.6398099576e+01 0.0000000000e+00 0.0000e+00 1.0000e+00
      -13  1    1    2    0    0 -1.0999570646e+02 -3.7475479022e+00 -5.6815659501e+01 1.2385926982e+02 0.0000000000e+00 0.0000e+00 1.0000e+00
       13  1    1    2    0    0 +1.0999570646e+02 +3.7475479022e+00 +4.9360234280e+02 5.0572361263e+02 0.0000000000e+00 0.0000e+00 -1.0000e+00
<mgrwt>
<rscale>  0 0.45342254E+03</rscale>
<asrwt>0</asrwt>
<pdfrwt beam="1">  1        2 0.82028426E-01 0.45342254E+03</pdfrwt>
<pdfrwt beam="2">  1       -2 0.14830477E-01 0.45342254E+03</pdfrwt>
<totfact> 0.22215955E+03</totfact>
</mgrwt>
<rwgt>
<wgt id='morphing_basis_vector_1'> +2.1697871e-04 </wgt>
<wgt id='morphing_basis_vector_2'> +1.1751887e-04 </wgt>
<wgt id='morphing_basis_vector_3'> +1.4821362e-04 </wgt>
<wgt id='morphing_basis_vector_4'> +4.2152590e-05 </wgt>
<wgt id='morphing_basis_vector_5'> +5.3761885e-05 </wgt>
</rwgt>
</event>
<event>
 4      1 +1.9425900e-05 4.56786500e+02 7.81860800e-03 9.50212000e-02
        2 -1    0    0  501    0 +0.0000000000e+00 +0.0000000000e+00 +7.8361232990e+01 7.8361232990e+01 0.0000000000e+00 0.0000e+00 -1.0000e+00
       -2 -1    0    0    0  501 -0.0000000000e+00 -0.0000000000e+00 -6.6567969013e+02 6.6567969013e+02 0.0000000000e+00 0.0000e+00 1.0000e+00
      -13  1    1    2    0    0 +6.1069913534e+01 +2.1931407514e+02 -3.2348485468e+02 3.9556371055e+02 0.0000000000e+00 0.0000e+00 1.0000e+00
       13  1    1    2    0    0 -6.1069913534e+01 -2.1931407514e+02 -2.6383360246e+02 3.4847721258e+02 0.0000000000e+00 0.0000e+00 -1.0000e+00
<mgrwt>
<rscale>  0 0.45678652E+03</rscale>
<asrwt>0</asrwt>
<pdfrwt beam="1">  1        2 0.12055574E-01 0.45678652E+03</pdfrwt>
<pdfrwt beam="2">  1       -2 0.10241226E+00 0.45678652E+03</pdfrwt>
<totfact> 0.52897399E+02</totfact>
</mgrwt>
<rwgt>
<wgt id='morphing_basis_vector_1'> +2.2691655e-04 </wgt>
<wgt id='morphing_basis_vector_2'> +1.3653607e-04 </wgt>
<wgt id='morphing_basis_vector_3'> +1.4862382e-04 </wgt>
<wgt id='morphing_basis_vector_4'> +4.2715571e-05 </wgt>
<wgt id='morphing_basis_vector_5'> +5.6682745e-05 </wgt>
</rwgt>
</event>
<event>
 4      1 +1.9425900e-05 4.68015500e+02 7.81860800e-03 9.47440200e-02
        2 -1    0    0  501    0 +0.0000000000e+00 +0.0000000000e+00 +1.1186916025e+03 1.1186916025e+03 0.0000000000e+00 0.0000e+00 -1.0000e+00
       -2 -1    0    0    0  501 -0.0000000000e+00 -0.0000000000e+00 -4.8949708873e+01 4.8949708873e+01 0.0000000000e+00 0.0000e+00 1.0000e+00
      -13  1    1    2    0    0 +3.2622649060e+00 +2.0503461671e+02 +2.5360417440e+02 3.2613634219e+02 0.0000000000e+00 0.0000e+00 1.0000e+00
       13  1    1    2    0    0 -3.2622649060e+00 -2.0503461671e+02 +8.1613771920e+02 8.4150496916e+02 0.0000000000e+00 0.0000e+00 -1.0000e+00
<mgrwt>
<rscale>  0 0.46801551E+03</rscale>
<asrwt>0</asrwt>
<pdfrwt beam="1">  1        2 0.17210638E+00 0.46801551E+03</pdfrwt>
<pdfrwt beam="2">  1       -2 0.75307252E-02 0.46801551E+03</pdfrwt>
<totfact> 0.25099447E+03</totfact>
</mgrwt>
<rwgt>
<wgt id='morphing_basis_vector_1'> +2.3868789e-04 </wgt>
<wgt id='morphing_basis_vector_2'> +1.3230228e-04 </wgt>
<wgt id='morphing_basis_vector_3'> +1.6458929e-04 </wgt>
<wgt id='morphing_basis_vector_4'> +4.9537474e-05 </wgt>
<wgt id='morphing_basis_vector_5'> +6.5855590e-05 </wgt>
</rwgt>
</event>
<event>
 4      1 +1.9425900e-05 4.42000400e+02 7.81860800e-03 9.53992300e-02
        2 -1    0    0  501    0 +0.0000000000e+00 +0.0000000000e+00 +1.2129984715e+02 1.2129984715e+02 0.0000000000e+00 0.0000e+00 -1.0000e+00
       -2 -1    0    0    0  501 -0.0000000000e+00 -0.0000000000e+00 -4.0264749650e+02 4.0264749650e+02 0.0000000000e+00 0.0000e+00 1.0000e+00
      -13  1    1    2    0    0 +5.5455242582e+01 -1.1882212865e+02 +7.0204509379e+01 1.4873686606e+02 0.0000000000e+00 0.0000e+00 -1.0000e+00
       13  1    1    2    0    0 -5.5455242582e+01 +1.1882212865e+02 -3.5155215873e+02 3.7521047759e+02 0.0000000000e+00 0.0000e+00 1.0000e+00
<mgrwt>
<rscale>  0 0.44200036E+03</rscale>
<asrwt>0</asrwt>
<pdfrwt beam="1">  1        2 0.18661515E-01 0.44200036E+03</pdfrwt>
<pdfrwt beam="2">  1       -2 0.61945767E-01 0.44200036E+03</pdfrwt>
<totfact> 0.94718113E+02</totfact>
</mgrwt>
<rwgt>
<wgt id='morphing_basis_vector_1'> +2.6625008e-04 </wgt>
<wgt id='morphing_basis_vector_2'> +3.0784341e-04 </wgt>
<wgt id='morphing_basis_vector_3'> +9.0157661e-05 </wgt>
<wgt id='morphing_basis_vector_4'> +2.7805419e-05 </wgt>
<wgt id='morphing_basis_vector_5'> +4.9132484e-05 </wgt>
</rwgt>
</event>
<event>
 4      1 +1.9425900e-05 4.37710800e+02 7.81860800e-03 9.55118200e-02
        2 -1    0    0  501    0 +0.0000000000e+00 +0.0000000000e+00 +2.8914647675e+02 2.8914647675e+02 0.0000000000e+00 0.0000e+00 1.0000e+00
       -2 -1    0    0    0  501 -0.0000000000e+00 -0.0000000000e+00 -1.6565200865e+02 1.6565200865e+02 0.0000000000e+00 0.0000e+00 -1.0000e+00
      -13  1    1    2    0    0 -3.1814911697e+01 +2.1608733601e+02 +7.6135922949e+01 2.3130629942e+02 0.0000000000e+00 0.0000e+00 -1.0000e+00
       13  1    1    2    0    0 +3.1814911697e+01 -2.1608733601e+02 +4.7358545154e+01 2.2349218597e+02 0.0000000000e+00 0.0000e+00 1.0000e+00
<mgrwt>
<rscale>  0 0.43771084E+03</rscale>
<asrwt>0</asrwt>
<pdfrwt beam="1">  1        2 0.44484073E-01 0.43771084E+03</pdfrwt>
<pdfrwt beam="2">  1       -2 0.25484925E-01 0.43771084E+03</pdfrwt>
<totfact> 0.18033874E+03</totfact>
</mgrwt>
<rwgt>
<wgt id='morphing_basis_vector_1'> +2.0428994e-04 </wgt>
<wgt id='morphing_basis_vector_2'> +1.3031591e-04 </wgt>
<wgt id='morphing_basis_vector_3'> +1.2588644e-04 </wgt>
<wgt id='morphing_basis_vector_4'> +3.4057545e-05 </wgt>
<wgt id='morphing_basis_vector_5'> +4.2976413e-05 </wgt>
</rwgt>
</event>
<event>
 4      1 +1.9425900e-05 4.53774500e+02 7.81860800e-03 9.50969800e-02
        2 -1    0    0  501    0 +0.0000000000e+00 +0.0000000000e+00 +3.3729094397e+02 3.3729094397e+02 0.0000000000e+00 0.0000e+00 -1.0000e+00
       -2 -1    0    0    0  501 -0.0000000000e+00 -0.0000000000e+00 -1.5262142455e+02 1.5262142455e+02 0.0000000000e+00 0.0000e+00 1.0000e+00
      -13  1    1    2    0    0 +1.7643752053e+02 -1.2400758304e+02 +1.6224120106e+01 2.1626673664e+02 0.0000000000e+00 0.0000e+00 1.0000e+00
       13  1    1    2    0    0 -1.7643752053e+02 +1.2400758304e+02 +1.6844539931e+02 2.7364563189e+02 0.0000000000e+00 0.0000e+00 -1.0000e+00
<mgrwt>
<rscale>  0 0.45377450E+03</rscale>
<asrwt>0</asrwt>
<pdfrwt beam="1">  1        2 0.51890914E-01 0.45377450E+03</pdfrwt>
<pdfrwt beam="2">  1       -2 0.23480219E-01 0.45377450E+03</pdfrwt>
<totfact> 0.17463693E+03</totfact>
</mgrwt>
<rwgt>
<wgt id='morphing_basis_vector_1'> +2.1950652e-04 </wgt>
<wgt id='morphing_basis_vector_2'> +1.2411931e-04 </wgt>
<wgt id='morphing_basis_vector_3'> +1.4727571e-04 </wgt>
<wgt id='morphing_basis_vector_4'> +4.1925122e-05 </wgt>
<wgt id='morphing_basis_vector_5'> +5.4145603e-05 </wgt>
</rwgt>
</event>
<event>
 4      1 +1.9425900e-05 4.60139100e+02 7.81860800e-03 9.49375800e-02
        2 -1    0    0  501    0 +0.0000000000e+00 +0.0000000000e+00 +1.7525825321e+02 1.7525825321e+02 0.0000000000e+00 0.0000e+00 -1.0000e+00
       -2 -1    0    0    0  501 -0.0000000000e+00 -0.0000000000e+00 -3.0202286484e+02 3.0202286484e+02 0.0000000000e+00 0.0000e+00 1.0000e+00
      -13  1    1    2    0    0 +4.7084758424e+01 -1.8073755123e+02 -2.0273367240e+02 2.7565191606e+02 0.0000000000e+00 0.0000e+00 1.0000e+00
       13  1    1    2    0    0 -4.7084758424e+01 +1.8073755123e+02 +7.5969060775e+01 2.0162920199e+02 0.0000000000e+00 0.0000e+00 -1.0000e+00
<mgrwt>
<rscale>  0 0.46013911E+03</rscale>
<asrwt>0</asrwt>
<pdfrwt beam="1">  1        2 0.26962808E-01 0.46013911E+03</pdfrwt>
<pdfrwt beam="2">  1       -2 0.46465056E-01 0.46013911E+03</pdfrwt>
<totfact> 0.10838721E+03</totfact>
</mgrwt>
<rwgt>
<wgt id='morphing_basis_vector_1'> +2.2683297e-04 </wgt>
<wgt id='morphing_basis_vector_2'> +1.2438488e-04 </wgt>
<wgt id='morphing_basis_vector_3'> +1.5549770e-04 </wgt>
<wgt id='morphing_basis_vector_4'> +4.5429544e-05 </wgt>
<wgt id='morphing_basis_vector_5'> +5.9134251e-05 </wgt>
</rwgt>
</event>
<event>
 4      1 +1.9425900e-05 5.05664800e+02 7.81860800e-03 9.38718300e-02
        2 -1    0    0  501    0 +0.0000000000e+00 +0.0000000000e+00 +1.0510960844e+03 1.0510960844e+03 0.0000000000e+00 0.0000e+00 -1.0000e+00
       -2 -1    0    0    0  501 -0.0000000000e+00 -0.0000000000e+00 -6.0816717130e+01 6.0816717130e+01 0.0000000000e+00 0.0000e+00 1.0000e+00
      -13  1    1    2    0    0 +2.3778684349e+02 -2.9788075110e+01 +3.1793538949e+02 3.9813669041e+02 0.0000000000e+00 0.0000e+00 1.0000e+00
       13  1    1    2    0    0 -2.3778684349e+02 +2.9788075110e+01 +6.7234397781e+02 7.1377611115e+02 0.0000000000e+00 0.0000e+00 -1.0000e+00
<mgrwt>
<rscale>  0 0.50566476E+03</rscale>
<asrwt>0</asrwt>
<pdfrwt beam="1">  1        2 0.16170708E+00 0.50566476E+03</pdfrwt>
<pdfrwt beam="2">  1       -2 0.93564188E-02 0.50566476E+03</pdfrwt>
<totfact> 0.19668133E+03</totfact>
</mgrwt>
<rwgt>
<wgt id='morphing_basis_vector_1'> +3.0176134e-04 </wgt>
<wgt id='morphing_basis_vector_2'> +1.7308173e-04 </wgt>
<wgt id='morphing_basis_vector_3'> +2.1560082e-04 </wgt>
<wgt id='morphing_basis_vector_4'> +7.3324452e-05 </wgt>
<wgt id='morphing_basis_vector_5'> +1.0492009e-04 </wgt>
</rwgt>
</event>
<event>
 4      1 +1.9425900e-05 5.05493600e+02 7.81860800e-03 9.38756000e-02
        2 -1    0    0  501    0 +0.0000000000e+00 +0.0000000000e+00 +6.5199155975e+02 6.5199155975e+02 0.0000000000e+00 0.0000e+00 1.0000e+00
       -2 -1    0    0    0  501 -0.0000000000e+00 -0.0000000000e+00 -9.7978196899e+01 9.7978196899e+01 0.0000000000e+00 0.0000e+00 -1.0000e+00
      -13  1    1    2    0    0 -1.4478368334e+02 +6.7807591892e+01 -1.3425794082e+01 1.6043826360e+02 0.0000000000e+00 0.0000e+00 -1.0000e+00
       13  1    1    2    0    0 +1.4478368334e+02 -6.7807591892e+01 +5.6743915694e+02 5.8953149305e+02 0.0000000000e+00 0.0000e+00 1.0000e+00
<mgrwt>
<rscale>  0 0.50549365E+03</rscale>
<asrwt>0</asrwt>
<pdfrwt beam="1">  1        2 0.10030639E+00 0.50549365E+03</pdfrwt>
<pdfrwt beam="2">  1       -2 0.15073569E-01 0.50549365E+03</pdfrwt>
<totfact> 0.17159314E+03</totfact>
</mgrwt>
<rwgt>
<wgt id='morphing_basis_vector_1'> +2.9879994e-04 </wgt>
<wgt id='morphing_basis_vector_2'> +1.6465856e-04 </wgt>
<wgt id='morphing_basis_vector_3'> +2.1636209e-04 </wgt>
<wgt id='morphing_basis_vector_4'> +7.4319044e-05 </wgt>
<wgt id='morphing_basis_vector_5'> +1.0461317e-04 </wgt>
</rwgt>
</event>
<event>
 4      1 +1.9425900e-05 4.76671900e+02 7.81860800e-03 9.45358600e-02
        2 -1    0    0  501    0 +0.0000000000e+00 +0.0000000000e+00 +3.6349479533e+02 3.6349479533e+02 0.0000000000e+00 0.0000e+00 -1.0000e+00
       -2 -1    0    0    0  501 -0.0000000000e+00 -0.0000000000e+00 -1.5627190518e+02 1.5627190518e+02 0.0000000000e+00 0.0000e+00 1.0000e+00
      -13  1    1    2    0    0 -2.0763655147e+02 +7.6666499612e+01 +1.9999592632e+02 2.9831034212e+02 0.0000000000e+00 0.0000e+00 1.0000e+00
       13  1    1    2    0    0 +2.0763655147e+02 -7.6666499612e+01 +7.2269638299e+00 2.2145635840e+02 0.0000000000e+00 0.0000e+00 -1.0000e+00
<mgrwt>
<rscale>  0 0.47667190E+03</rscale>
<asrwt>0</asrwt>
<pdfrwt beam="1">  1        2 0.55922276E-01 0.47667190E+03</pdfrwt>
<pdfrwt beam="2">  1       -2 0.24041832E-01 0.47667190E+03</pdfrwt>
<totfact> 0.15447880E+03</totfact>
</mgrwt>
<rwgt>
<wgt id='morphing_basis_vector_1'> +2.7971315e-04 </wgt>
<wgt id='morphing_basis_vector_2'> +2.2643090e-04 </wgt>
<wgt id='morphing_basis_vector_3'> +1.6065395e-04 </wgt>
<wgt id='morphing_basis_vector_4'> +4.6154343e-05 </wgt>
<wgt id='morphing_basis_vector_5'> +7.5109635e-05 </wgt>
</rwgt>
</event>
<event>
 4      1 +1.9425900e-05 4.93981400e+02 7.81860800e-03 9.41335100e-02
        2 -1    0    0  501    0 +0.0000000000e+00 +0.0000000000e+00 +2.7043772516e+02 2.7043772516e+02 0.0000000000e+00 0.0000e+00 -1.0000e+00
       -2 -1    0    0    0  501 -0.0000000000e+00 -0.0000000000e+00 -2.2557651617e+02 2.2557651617e+02 0.0000000000e+00 0.0000e+00 1.0000e+00
      -13  1    1    2    0    0 -5.0579966757e+01 -2.0126865392e+02 -1.1204961949e+02 2.3584427345e+02 0.0000000000e+00 0.0000e+00 1.0000e+00
       13  1    1    2    0    0 +5.0579966757e+01 +2.0126865392e+02 +1.5691082849e+02 2.6016996788e+02 0.0000000000e+00 0.0000e+00 -1.0000e+00
<mgrwt>
<rscale>  0 0.49398138E+03</rscale>
<asrwt>0</asrwt>
<pdfrwt beam="1">  1        2 0.41605804E-01 0.49398138E+03</pdfrwt>
<pdfrwt beam="2">  1       -2 0.34704079E-01 0.49398138E+03</pdfrwt>
<totfact> 0.11347091E+03</totfact>
</mgrwt>
<rwgt>
<wgt id='morphing_basis_vector_1'> +2.7952968e-04 </wgt>
<wgt id='morphing_basis_vector_2'> +1.5530319e-04 </wgt>
<wgt id='morphing_basis_vector_3'> +1.9904480e-04 </wgt>
<wgt id='morphing_basis_vector_4'> +6.5702867e-05 </wgt>
<wgt id='morphing_basis_vector_5'> +9.1440468e-05 </wgt>
</rwgt>
</event>
<event>
 4      1 +1.9425900e-05 5.13097400e+02 7.81860800e-03 9.37092700e-02
        2 -1    0    0  501    0 +0.0000000000e+00 +0.0000000000e+00 +1.1742740034e+03 1.1742740034e+03 0.0000000000e+00 0.0000e+00 1.0000e+00
       -2 -1    0    0    0  501 -0.0000000000e+00 -0.0000000000e+00 -5.6049291426e+01 5.6049291426e+01 0.0000000000e+00 0.0000e+00 -1.0000e+00
      -13  1    1    2    0    0 -2.5019695211e+02 +2.3550423255e+01 +6.8287620085e+02 7.2764898335e+02 0.0000000000e+00 0.0000e+00 -1.0000e+00
       13  1    1    2    0    0 +2.5019695211e+02 -2.3550423255e+01 +4.3534851111e+02 5.0267431146e+02 0.0000000000e+00 0.0000e+00 1.0000e+00
<mgrwt>
<rscale>  0 0.51309736E+03</rscale>
<asrwt>0</asrwt>
<pdfrwt beam="1">  1        2 0.18065752E+00 0.51309736E+03</pdfrwt>
<pdfrwt beam="2">  1       -2 0.86229688E-02 0.51309736E+03</pdfrwt>
<totfact> 0.18908521E+03</totfact>
</mgrwt>
<rwgt>
<wgt id='morphing_basis_vector_1'> +3.3345480e-04 </wgt>
<wgt id='morphing_basis_vector_2'> +2.3735122e-04 </wgt>
<wgt id='morphing_basis_vector_3'> +2.2095997e-04 </wgt>
<wgt id='morphing_basis_vector_4'> +7.0805185e-05 </wgt>
<wgt id='morphing_basis_vector_5'> +1.1474424e-04 </wgt>
</rwgt>
</event>
<event>
 4      1 +1.9425900e-05 4.51538800e+02 7.81860800e-03 9.51536200e-02
        2 -1    0    0  501    0 +0.0000000000e+00 +0.0000000000e+00 +3.6907067116e+02 3.6907067116e+02 0.0000000000e+00 0.0000e+00 -1.0000e+00
       -2 -1    0    0    0  501 -0.0000000000e+00 -0.0000000000e+00 -1.3810859265e+02 1.3810859265e+02 0.0000000000e+00 0.0000e+00 1.0000e+00
      -13  1    1    2    0    0 -1.3905026463e+02 -4.8469465279e+01 -7.6743139862e+01 1.6605352955e+02 0.0000000000e+00 0.0000e+00 1.0000e+00
       13  1    1    2    0    0 +1.3905026463e+02 +4.8469465279e+01 +3.0770521837e+02 3.4112573426e+02 0.0000000000e+00 0.0000e+00 -1.0000e+00
<mgrwt>
<rscale>  0 0.45153884E+03</rscale>
<asrwt>0</asrwt>
<pdfrwt beam="1">  1        2 0.56780103E-01 0.45153884E+03</pdfrwt>
<pdfrwt beam="2">  1       -2 0.21247476E-01 0.45153884E+03</pdfrwt>
<totfact> 0.18666813E+03</totfact>
</mgrwt>
<rwgt>
<wgt id='morphing_basis_vector_1'> +2.1452940e-04 </wgt>
<wgt id='morphing_basis_vector_2'> +1.1641921e-04 </wgt>
<wgt id='morphing_basis_vector_3'> +1.4606780e-04 </wgt>
<wgt id='morphing_basis_vector_4'> +4.1217754e-05 </wgt>
<wgt id='morphing_basis_vector_5'> +5.2327946e-05 </wgt>
</rwgt>
</event>
<event>
 4      1 +1.9425900e-05 4.75377500e+02 7.81860800e-03 9.45666800e-02
        2 -1    0    0  501    0 +0.0000000000e+00 +0.0000000000e+00 +5.9753564792e+02 5.9753564792e+02 0.0000000000e+00 0.0000e+00 -1.0000e+00
       -2 -1    0    0    0  501 -0.0000000000e+00 -0.0000000000e+00 -9.4548223269e+01 9.4548223269e+01 0.0000000000e+00 0.0000e+00 1.0000e+00
      -13  1    1    2    0    0 +1.9180264587e+02 -5.0500624890e+01 +6.0796018177e+01 2.0744812340e+02 0.0000000000e+00 0.0000e+00 1.0000e+00
       13  1    1    2    0    0 -1.9180264587e+02 +5.0500624890e+01 +4.4219140648e+02 4.8463574779e+02 0.0000000000e+00 0.0000e+00 -1.0000e+00
<mgrwt>
<rscale>  0 0.47537747E+03</rscale>
<asrwt>0</asrwt>
<pdfrwt beam="1">  1        2 0.91928559E-01 0.47537747E+03</pdfrwt>
<pdfrwt beam="2">  1       -2 0.14545881E-01 0.47537747E+03</pdfrwt>
<totfact> 0.20117129E+03</totfact>
</mgrwt>
<rwgt>
<wgt id='morphing_basis_vector_1'> +2.4947113e-04 </wgt>
<wgt id='morphing_basis_vector_2'> +1.3771467e-04 </wgt>
<wgt id='morphing_basis_vector_3'> +1.7394334e-04 </wgt>
<wgt id='morphing_basis_vector_4'> +5.3835461e-05 </wgt>
<wgt id='morphing_basis_vector_5'> +7.2536178e-05 </wgt>
</rwgt>
</event>
<event>
 4      1 +1.9425900e-05 4.52052600e+02 7.81860800e-03 9.51405800e-02
        2 -1    0    0  501    0 +0.0000000000e+00 +0.0000000000e+00 +2.6875205504e+02 2.6875205504e+02 0.0000000000e+00 0.0000e+00 -1.0000e+00
       -2 -1    0    0    0  501 -0.0000000000e+00 -0.0000000000e+00 -1.9009299457e+02 1.9009299457e+02 0.0000000000e+00 0.0000e+00 1.0000e+00
      -13  1    1    2    0    0 +2.1038536040e+00 -1.7063642084e+02 -1.1110904134e+02 2.0363308519e+02 0.0000000000e+00 0.0000e+00 1.0000e+00
       13  1    1    2    0    0 -2.1038536040e+00 +1.7063642084e+02 +1.8976810181e+02 2.5521196442e+02 0.0000000000e+00 0.0000e+00 -1.0000e+00
<mgrwt>
<rscale>  0 0.45205258E+03</rscale>
<asrwt>0</asrwt>
<pdfrwt beam="1">  1        2 0.41346470E-01 0.45205258E+03</pdfrwt>
<pdfrwt beam="2">  1       -2 0.29245076E-01 0.45205258E+03</pdfrwt>
<totfact> 0.15450108E+03</totfact>
</mgrwt>
<rwgt>
<wgt id='morphing_basis_vector_1'> +2.1540965e-04 </wgt>
<wgt id='morphing_basis_vector_2'> +1.1738170e-04 </wgt>
<wgt id='morphing_basis_vector_3'> +1.4650935e-04 </wgt>
<wgt id='morphing_basis_vector_4'> +4.1430647e-05 </wgt>
<wgt id='morphing_basis_vector_5'> +5.2728317e-05 </wgt>
</rwgt>
</event>
<event>
 4      1 +1.9425900e-05 4.66738300e+02 7.81860800e-03 9.47751400e-02
        2 -1    0    0  501    0 +0.0000000000e+00 +0.0000000000e+00 +5.9714894326e+02 5.9714894326e+02 0.0000000000e+00 0.0000e+00 1.0000e+00
       -2 -1    0    0    0  501 -0.0000000000e+00 -0.0000000000e+00 -9.1201972488e+01 9.1201972488e+01 0.0000000000e+00 0.0000e+00 -1.0000e+00
      -13  1    1    2    0    0 +1.1443113712e+02 -1.9281657205e+02 +1.5752634882e+02 2.7402055794e+02 0.0000000000e+00 0.0000e+00 -1.0000e+00
       13  1    1    2    0    0 -1.1443113712e+02 +1.9281657205e+02 +3.4842062195e+02 4.1433035781e+02 0.0000000000e+00 0.0000e+00 1.0000e+00
<mgrwt>
<rscale>  0 0.46673831E+03</rscale>
<asrwt>0</asrwt>
<pdfrwt beam="1">  1        2 0.91869066E-01 0.46673831E+03</pdfrwt>
<pdfrwt beam="2">  1       -2 0.14031073E-01 0.46673831E+03</pdfrwt>
<totfact> 0.21322161E+03</totfact>
</mgrwt>
<rwgt>
<wgt id='morphing_basis_vector_1'> +2.3840034e-04 </wgt>
<wgt id='morphing_basis_vector_2'> +1.3616088e-04 </wgt>
<wgt id='morphing_basis_vector_3'> +1.6211285e-04 </wgt>
<wgt id='morphing_basis_vector_4'> +4.8428645e-05 </wgt>
<wgt id='morphing_basis_vector_5'> +6.4818419e-05 </wgt>
</rwgt>
</event>
<event>
 4      1 +1.9425900e-05 4.44801400e+02 7.81860800e-03 9.53264300e-02
        2 -1    0    0  501    0 +0.0000000000e+00 +0.0000000000e+00 +1.2648273366e+03 1.2648273366e+03 0.0000000000e+00 0.0000e+00 1.0000e+00
       -2 -1    0    0    0  501 -0.0000000000e+00 -0.0000000000e+00 -3.9105795350e+01 3.9105795350e+01 0.0000000000e+00 0.0000e+00 -1.0000e+00
      -13  1    1    2    0    0 +1.8961611128e+02 +7.1404942970e+01 +3.4403863812e+02 3.9926873163e+02 0.0000000000e+00 0.0000e+00 -1.0000e+00
       13  1    1    2    0    0 -1.8961611128e+02 -7.1404942970e+01 +8.8168290312e+02 9.0466440031e+02 0.0000000000e+00 0.0000e+00 1.0000e+00
<mgrwt>
<rscale>  0 0.44480143E+03</rscale>
<asrwt>0</asrwt>
<pdfrwt beam="1">  1        2 0.19458879E+00 0.44480143E+03</pdfrwt>
<pdfrwt beam="2">  1       -2 0.60162772E-02 0.44480143E+03</pdfrwt>
<totfact> 0.29196504E+03</totfact>
</mgrwt>
<rwgt>
<wgt id='morphing_basis_vector_1'> +2.0668096e-04 </wgt>
<wgt id='morphing_basis_vector_2'> +1.1478700e-04 </wgt>
<wgt id='morphing_basis_vector_3'> +1.3809095e-04 </wgt>
<wgt id='morphing_basis_vector_4'> +3.7911713e-05 </wgt>
<wgt id='morphing_basis_vector_5'> +4.7446427e-05 </wgt>
</rwgt>
</event>
<event>
 4      1 +1.9425900e-05 5.16035300e+02 7.81860800e-03 9.36458200e-02
        2 -1    0    0  501    0 +0.0000000000e+00 +0.0000000000e+00 +9.1137824151e+02 9.1137824151e+02 0.0000000000e+00 0.0000e+00 1.0000e+00
       -2 -1    0    0    0  501 -0.0000000000e+00 -0.0000000000e+00 -7.3046628826e+01 7.3046628826e+01 0.0000000000e+00 0.0000e+00 -1.0000e+00
      -13  1    1    2    0    0 +1.5340600304e+02 +1.8197560790e+02 +2.2911954462e+02 3.3036992806e+02 0.0000000000e+00 0.0000e+00 1.0000e+00
       13  1    1    2    0    0 -1.5340600304e+02 -1.8197560790e+02 +6.0921206806e+02 6.5405494227e+02 0.0000000000e+00 0.0000e+00 -1.0000e+00
<mgrwt>
<rscale>  0 0.51603530E+03</rscale>
<asrwt>0</asrwt>
<pdfrwt beam="1">  1        2 0.14021203E+00 0.51603530E+03</pdfrwt>
<pdfrwt beam="2">  1       -2 0.11237944E-01 0.51603530E+03</pdfrwt>
<totfact> 0.18001390E+03</totfact>
</mgrwt>
<rwgt>
<wgt id='morphing_basis_vector_1'> +3.2018573e-04 </wgt>
<wgt id='morphing_basis_vector_2'> +1.8230069e-04 </wgt>
<wgt id='morphing_basis_vector_3'> +2.3227822e-04 </wgt>
<wgt id='morphing_basis_vector_4'> +8.1680381e-05 </wgt>
<wgt id='morphing_basis_vector_5'> +1.1784713e-04 </wgt>
</rwgt>
</event>
<event>
 4      1 +1.9425900e-05 5.07833600e+02 7.81860800e-03 9.38240800e-02
        2 -1    0    0  501    0 +0.0000000000e+00 +0.0000000000e+00 +1.3705706210e+03 1.3705706210e+03 0.0000000000e+00 0.0000e+00 -1.0000e+00
       -2 -1    0    0    0  501 -0.0000000000e+00 -0.0000000000e+00 -4.7041526925e+01 4.7041526925e+01 0.0000000000e+00 0.0000e+00 1.0000e+00
      -13  1    1    2    0    0 -1.6409647228e+02 -1.9147219553e+02 +7.4478407215e+02 7.8631581950e+02 0.0000000000e+00 0.0000e+00 1.0000e+00
       13  1    1    2    0    0 +1.6409647228e+02 +1.9147219553e+02 +5.7874502192e+02 6.3129632842e+02 0.0000000000e+00 0.0000e+00 -1.0000e+00
<mgrwt>
<rscale>  0 0.50783357E+03</rscale>
<asrwt>0</asrwt>
<pdfrwt beam="1">  1        2 0.21085699E+00 0.50783357E+03</pdfrwt>
<pdfrwt beam="2">  1       -2 0.72371590E-02 0.50783357E+03</pdfrwt>
<totfact> 0.19216223E+03</totfact>
</mgrwt>
<rwgt>
<wgt id='morphing_basis_vector_1'> +3.1803848e-04 </wgt>
<wgt id='morphing_basis_vector_2'> +2.1378607e-04 </wgt>
<wgt id='morphing_basis_vector_3'> +2.1432710e-04 </wgt>
<wgt id='morphing_basis_vector_4'> +6.9608465e-05 </wgt>
<wgt id='morphing_basis_vector_5'> +1.0800846e-04 </wgt>
</rwgt>
</event>
<event>
 4      1 +1.9425900e-05 5.19473700e+02 7.81860800e-03 9.35721500e-02
        2 -1    0    0  501    0 +0.0000000000e+00 +0.0000000000e+00 +3.7249036108e+02 3.7249036108e+02 0.0000000000e+00 0.0000e+00 -1.0000e+00
       -2 -1    0    0    0  501 -0.0000000000e+00 -0.0000000000e+00 -1.8111399881e+02 1.8111399881e+02 0.0000000000e+00 0.0000e+00 1.0000e+00
      -13  1    1    2    0    0 -2.3633890679e+01 -7.5863498844e+01 -1.6784301470e+02 1.8570166619e+02 0.0000000000e+00 0.0000e+00 1.0000e+00
       13  1    1    2    0    0 +2.3633890679e+01 +7.5863498844e+01 +3.5921937696e+02 3.6790269370e+02 0.0000000000e+00 0.0000e+00 -1.0000e+00
<mgrwt>
<rscale>  0 0.51947365E+03</rscale>
<asrwt>0</asrwt>
<pdfrwt beam="1">  1        2 0.57306209E-01 0.51947365E+03</pdfrwt>
<pdfrwt beam="2">  1       -2 0.27863692E-01 0.51947365E+03</pdfrwt>
<totfact> 0.11684761E+03</totfact>
</mgrwt>
<rwgt>
<wgt id='morphing_basis_vector_1'> +3.2447716e-04 </wgt>
<wgt id='morphing_basis_vector_2'> +1.7917847e-04 </wgt>
<wgt id='morphing_basis_vector_3'> +2.3866375e-04 </wgt>
<wgt id='morphing_basis_vector_4'> +8.5581066e-05 </wgt>
<wgt id='morphing_basis_vector_5'> +1.2229342e-04 </wgt>
</rwgt>
</event>
<event>
 4      1 +1.9425900e-05 4.99474500e+02 7.81860800e-03 9.40095200e-02
        2 -1    0    0  501    0 +0.0000000000e+00 +0.0000000000e+00 +3.6297107074e+02 3.6297107074e+02 0.0000000000e+00 0.0000e+00 -1.0000e+00
       -2 -1    0    0    0  501 -0.0000000000e+00 -0.0000000000e+00 -1.7182825816e+02 1.7182825816e+02 0.0000000000e+00 0.0000e+00 1.0000e+00
      -13  1    1    2    0    0 +2.1232993441e+02 -9.7653572285e+01 +1.3205264450e+00 2.3371342498e+02 0.0000000000e+00 0.0000e+00 1.0000e+00
       13  1    1    2    0    0 -2.1232993441e+02 +9.7653572285e+01 +1.8982228614e+02 3.0108590392e+02 0.0000000000e+00 0.0000e+00 -1.0000e+00
<mgrwt>
<rscale>  0 0.49947447E+03</rscale>
<asrwt>0</asrwt>
<pdfrwt beam="1">  1        2 0.55841703E-01 0.49947447E+03</pdfrwt>
<pdfrwt beam="2">  1       -2 0.26435117E-01 0.49947447E+03</pdfrwt>
<totfact> 0.13168556E+03</totfact>
</mgrwt>
<rwgt>
<wgt id='morphing_basis_vector_1'> +2.9038165e-04 </wgt>
<wgt id='morphing_basis_vector_2'> +1.6526555e-04 </wgt>
<wgt id='morphing_basis_vector_3'> +2.0642577e-04 </wgt>
<wgt id='morphing_basis_vector_4'> +6.8995925e-05 </wgt>
<wgt id='morphing_basis_vector_5'> +9.7648950e-05 </wgt>
</rwgt>
</event>
<event>
 4      1 +1.9425900e-05 4.84148600e+02 7.81860800e-03 9.43598500e-02
        2 -1    0    0  501    0 +0.0000000000e+00 +0.0000000000e+00 +9.8754199902e+01 9.8754199902e+01 0.0000000000e+00 0.0000e+00 -1.0000e+00
       -2 -1    0    0    0  501 -0.0000000000e+00 -0.0000000000e+00 -5.9339223836e+02 5.9339223836e+02 0.0000000000e+00 0.0000e+00 1.0000e+00
      -13  1    1    2    0    0 +1.9292684564e+02 +8.9549405678e+01 -4.1256249540e+02 4.6416341566e+02 0.0000000000e+00 0.0000e+00 1.0000e+00
       13  1    1    2    0    0 -1.9292684564e+02 -8.9549405678e+01 -8.2075543056e+01 2.2798302260e+02 0.0000000000e+00 0.0000e+00 -1.0000e+00
<mgrwt>
<rscale>  0 0.48414864E+03</rscale>
<asrwt>0</asrwt>
<pdfrwt beam="1">  1        2 0.15192954E-01 0.48414864E+03</pdfrwt>
<pdfrwt beam="2">  1       -2 0.91291115E-01 0.48414864E+03</pdfrwt>
<totfact> 0.52094867E+02</totfact>
</mgrwt>
<rwgt>
<wgt id='morphing_basis_vector_1'> +2.6365024e-04 </wgt>
<wgt id='morphing_basis_vector_2'> +1.4690368e-04 </wgt>
<wgt id='morphing_basis_vector_3'> +1.8524282e-04 </wgt>
<wgt id='morphing_basis_vector_4'> +5.9084965e-05 </wgt>
<wgt id='morphing_basis_vector_5'> +8.1103176e-05 </wgt>
</rwgt>
</event>
<event>
 4      1 +1.9425900e-05 4.96023200e+02 7.81860800e-03 9.40872200e-02
        2 -1    0    0  501    0 +0.0000000000e+00 +0.0000000000e+00 +1.1280816202e+02 1.1280816202e+02 0.0000000000e+00 0.0000e+00 -1.0000e+00
       -2 -1    0    0    0  501 -0.0000000000e+00 -0.0000000000e+00 -5.4525986071e+02 5.4525986071e+02 0.0000000000e+00 0.0000e+00 1.0000e+00
      -13  1    1    2    0    0 -1.7208055766e+02 +9.5271677934e+00 -4.5283526063e+02 4.8452271208e+02 0.0000000000e+00 0.0000e+00 1.0000e+00
       13  1    1    2    0    0 +1.7208055766e+02 -9.5271677934e+00 +2.0383561940e+01 1.7354531065e+02 0.0000000000e+00 0.0000e+00 -1.0000e+00
<mgrwt>
<rscale>  0 0.49602324E+03</rscale>
<asrwt>0</asrwt>
<pdfrwt beam="1">  1        2 0.17355102E-01 0.49602324E+03</pdfrwt>
<pdfrwt beam="2">  1       -2 0.83886134E-01 0.49602324E+03</pdfrwt>
<totfact> 0.53814100E+02</totfact>
</mgrwt>
<rwgt>
<wgt id='morphing_basis_vector_1'> +2.8237944e-04 </wgt>
<wgt id='morphing_basis_vector_2'> +1.5540556e-04 </wgt>
<wgt id='morphing_basis_vector_3'> +2.0224733e-04 </wgt>
<wgt id='morphing_basis_vector_4'> +6.7357068e-05 </wgt>
<wgt id='morphing_basis_vector_5'> +9.3669675e-05 </wgt>
</rwgt>
</event>
<event>
 4      1 +1.9425900e-05 4.72742600e+02 7.81860800e-03 9.46297600e-02
        2 -1    0    0  501    0 +0.0000000000e+00 +0.0000000000e+00 +7.2549051319e+02 7.2549051319e+02 0.0000000000e+00 0.0000e+00 1.0000e+00
       -2 -1    0    0    0  501 -0.0000000000e+00 -0.0000000000e+00 -7.7011868057e+01 7.7011868057e+01 0.0000000000e+00 0.0000e+00 -1.0000e+00
      -13  1    1    2    0    0 -1.5899970671e+02 -1.5357462855e+02 +4.6632006051e+02 5.1606246918e+02 0.0000000000e+00 0.0000e+00 1.0000e+00
       13  1    1    2    0    0 +1.5899970671e+02 +1.5357462855e+02 +1.8215858463e+02 2.8643991206e+02 0.0000000000e+00 0.0000e+00 -1.0000e+00
<mgrwt>
<rscale>  0 0.47274255E+03</rscale>
<asrwt>0</asrwt>
<pdfrwt beam="1">  1        2 0.11161392E+00 0.47274255E+03</pdfrwt>
<pdfrwt beam="2">  1       -2 0.11847980E-01 0.47274255E+03</pdfrwt>
<totfact> 0.22138376E+03</totfact>
</mgrwt>
<rwgt>
<wgt id='morphing_basis_vector_1'> +2.7152069e-04 </wgt>
<wgt id='morphing_basis_vector_2'> +2.1619000e-04 </wgt>
<wgt id='morphing_basis_vector_3'> +1.5628986e-04 </wgt>
<wgt id='morphing_basis_vector_4'> +4.4951367e-05 </wgt>
<wgt id='morphing_basis_vector_5'> +7.1369331e-05 </wgt>
</rwgt>
</event>
<event>
 4      1 +1.9425900e-05 5.08320900e+02 7.81860800e-03 9.38133900e-02
        2 -1    0    0  501    0 +0.0000000000e+00 +0.0000000000e+00 +4.6289079573e+02 4.6289079573e+02 0.0000000000e+00 0.0000e+00 1.0000e+00
       -2 -1    0    0    0  501 -0.0000000000e+00 -0.0000000000e+00 -1.3955243394e+02 1.3955243394e+02 0.0000000000e+00 0.0000e+00 -1.0000e+00
      -13  1    1    2    0    0 +1.6071396727e+02 -1.9361179261e+02 +1.1921730931e+02 2.7843719642e+02 0.0000000000e+00 0.0000e+00 -1.0000e+00
       13  1    1    2    0    0 -1.6071396727e+02 +1.9361179261e+02 +2.0412105248e+02 3.2400603324e+02 0.0000000000e+00 0.0000e+00 1.0000e+00
<mgrwt>
<rscale>  0 0.50832091E+03</rscale>
<asrwt>0</asrwt>
<pdfrwt beam="1">  1        2 0.71213968E-01 0.50832091E+03</pdfrwt>
<pdfrwt beam="2">  1       -2 0.21469605E-01 0.50832091E+03</pdfrwt>
<totfact> 0.14255957E+03</totfact>
</mgrwt>
<rwgt>
<wgt id='morphing_basis_vector_1'> +3.0964906e-04 </wgt>
<wgt id='morphing_basis_vector_2'> +1.8551045e-04 </wgt>
<wgt id='morphing_basis_vector_3'> +2.1857050e-04 </wgt>
<wgt id='morphing_basis_vector_4'> +7.3982250e-05 </wgt>
<wgt id='morphing_basis_vector_5'> +1.0825582e-04 </wgt>
</rwgt>
</event>
<event>
 4      1 +1.9425900e-05 4.32755600e+02 7.81860800e-03 9.56435900e-02
        2 -1    0    0  501    0 +0.0000000000e+00 +0.0000000000e+00 +2.1330673580e+03 2.1330673580e+03 0.0000000000e+00 0.0000e+00 -1.0000e+00
       -2 -1    0    0    0  501 -0.0000000000e+00 -0.0000000000e+00 -2.1949307952e+01 2.1949307952e+01 0.0000000000e+00 0.0000e+00 1.0000e+00
      -13  1    1    2    0    0 +2.1395255101e+02 +2.9952810556e+01 +9.9528807465e+02 1.0184651278e+03 0.0000000000e+00 0.0000e+00 1.0000e+00
       13  1    1    2    0    0 -2.1395255101e+02 -2.9952810556e+01 +1.1158299754e+03 1.1365515382e+03 0.0000000000e+00 0.0000e+00 -1.0000e+00
<mgrwt>
<rscale>  0 0.43275560E+03</rscale>
<asrwt>0</asrwt>
<pdfrwt beam="1">  1        2 0.32816405E+00 0.43275560E+03</pdfrwt>
<pdfrwt beam="2">  1       -2 0.33768183E-02 0.43275560E+03</pdfrwt>
<totfact> 0.23484834E+03</totfact>
</mgrwt>
<rwgt>
<wgt id='morphing_basis_vector_1'> +1.9520320e-04 </wgt>
<wgt id='morphing_basis_vector_2'> +1.1777606e-04 </wgt>
<wgt id='morphing_basis_vector_3'> +1.2306398e-04 </wgt>
<wgt id='morphing_basis_vector_4'> +3.2493306e-05 </wgt>
<wgt id='morphing_basis_vector_5'> +3.9608528e-05 </wgt>
</rwgt>
</event>
<event>
 4      1 +1.9425900e-05 4.69838900e+02 7.81860800e-03 9.46997800e-02
        2 -1    0    0  501    0 +0.0000000000e+00 +0.0000000000e+00 +1.1531843706e+03 1.1531843706e+03 0.0000000000e+00 0.0000e+00 1.0000e+00
       -2 -1    0    0    0  501 -0.0000000000e+00 -0.0000000000e+00 -4.7856315043e+01 4.7856315043e+01 0.0000000000e+00 0.0000e+00 -1.0000e+00
      -13  1    1    2    0    0 +1.0643979641e+02 -1.6716356614e+02 +8.7514144440e+02 8.9729907825e+02 0.0000000000e+00 0.0000e+00 1.0000e+00
       13  1    1    2    0    0 -1.0643979641e+02 +1.6716356614e+02 +2.3018661111e+02 3.0374160736e+02 0.0000000000e+00 0.0000e+00 -1.0000e+00
<mgrwt>
<rscale>  0 0.46983893E+03</rscale>
<asrwt>0</asrwt>
<pdfrwt beam="1">  1        2 0.17741296E+00 0.46983893E+03</pdfrwt>
<pdfrwt beam="2">  1       -2 0.73625109E-02 0.46983893E+03</pdfrwt>
<totfact> 0.24817369E+03</totfact>
</mgrwt>
<rwgt>
<wgt id='morphing_basis_vector_1'> +2.8548916e-04 </wgt>
<wgt id='morphing_basis_vector_2'> +2.7046402e-04 </wgt>
<wgt id='morphing_basis_vector_3'> +1.4194158e-04 </wgt>
<wgt id='morphing_basis_vector_4'> +3.8705886e-05 </wgt>
<wgt id='morphing_basis_vector_5'> +6.9676996e-05 </wgt>
</rwgt>
</event>
<event>
 4      1 +1.9425900e-05 4.84521100e+02 7.81860800e-03 9.43511700e-02
        2 -1    0    0  501    0 +0.0000000000e+00 +0.0000000000e+00 +8.6490080527e+02 8.6490080527e+02 0.0000000000e+00 0.0000e+00 -1.0000e+00
       -2 -1    0    0    0  501 -0.0000000000e+00 -0.0000000000e+00 -6.7857687365e+01 6.7857687365e+01 0.0000000000e+00 0.0000e+00 1.0000e+00
      -13  1    1    2    0    0 -3.5917222827e+01 +1.9794219051e+02 +1.3867382460e+02 2.4433908265e+02 0.0000000000e+00 0.0000e+00 1.0000e+00
       13  1    1    2    0    0 +3.5917222827e+01 -1.9794219051e+02 +6.5836929330e+02 6.8841940998e+02 0.0000000000e+00 0.0000e+00 -1.0000e+00
<mgrwt>
<rscale>  0 0.48452108E+03</rscale>
<asrwt>0</asrwt>
<pdfrwt beam="1">  1        2 0.13306165E+00 0.48452108E+03</pdfrwt>
<pdfrwt beam="2">  1       -2 0.10439645E-01 0.48452108E+03</pdfrwt>
<totfact> 0.21646787E+03</totfact>
</mgrwt>
<rwgt>
<wgt id='morphing_basis_vector_1'> +2.6383949e-04 </wgt>
<wgt id='morphing_basis_vector_2'> +1.4597932e-04 </wgt>
<wgt id='morphing_basis_vector_3'> +1.8594600e-04 </wgt>
<wgt id='morphing_basis_vector_4'> +5.9458357e-05 </wgt>
<wgt id='morphing_basis_vector_5'> +8.1461653e-05 </wgt>
</rwgt>
</event>
<event>
 4      1 +1.9425900e-05 4.54660200e+02 7.81860800e-03 9.50746300e-02
        2 -1    0    0  501    0 +0.0000000000e+00 +0.0000000000e+00 +5.6106272816e+02 5.6106272816e+02 0.0000000000e+00 0.0000e+00 1.0000e+00
       -2 -1    0    0    0  501 -0.0000000000e+00 -0.0000000000e+00 -9.2109066834e+01 9.2109066834e+01 0.0000000000e+00 0.0000e+00 -1.0000e+00
      -13  1    1    2    0    0 -2.9374736880e+01 -1.7068911063e+02 +2.2941286111e+01 1.7471104791e+02 0.0000000000e+00 0.0000e+00 -1.0000e+00
       13  1    1    2    0    0 +2.9374736880e+01 +1.7068911063e+02 +4.4601237522e+02 4.7846074708e+02 0.0000000000e+00 0.0000e+00 1.0000e+00
<mgrwt>
<rscale>  0 0.45466016E+03</rscale>
<asrwt>0</asrwt>
<pdfrwt beam="1">  1        2 0.86317341E-01 0.45466016E+03</pdfrwt>
<pdfrwt beam="2">  1       -2 0.14170626E-01 0.45466016E+03</pdfrwt>
<totfact> 0.22544400E+03</totfact>
</mgrwt>
<rwgt>
<wgt id='morphing_basis_vector_1'> +2.1899322e-04 </wgt>
<wgt id='morphing_basis_vector_2'> +1.1946006e-04 </wgt>
<wgt id='morphing_basis_vector_3'> +1.4938418e-04 </wgt>
<wgt id='morphing_basis_vector_4'> +4.2698531e-05 </wgt>
<wgt id='morphing_basis_vector_5'> +5.4739289e-05 </wgt>
</rwgt>
</event>
<event>
 4      1 +1.9425900e-05 4.72158100e+02 7.81860800e-03 9.46438100e-02
        2 -1    0    0  501    0 +0.0000000000e+00 +0.0000000000e+00 +7.5873572137e+02 7.5873572137e+02 0.0000000000e+00 0.0000e+00 -1.0000e+00
       -2 -1    0    0    0  501 -0.0000000000e+00 -0.0000000000e+00 -7.3455498271e+01 7.3455498271e+01 0.0000000000e+00 0.0000e+00 1.0000e+00
      -13  1    1    2    0    0 +3.2531145117e+01 +1.9034861969e+02 +1.0328380203e+02 2.1899410080e+02 0.0000000000e+00 0.0000e+00 1.0000e+00
       13  1    1    2    0    0 -3.2531145117e+01 -1.9034861969e+02 +5.8199642107e+02 6.1319711885e+02 0.0000000000e+00 0.0000e+00 -1.0000e+00
<mgrwt>
<rscale>  0 0.47215807E+03</rscale>
<asrwt>0</asrwt>
<pdfrwt beam="1">  1        2 0.11672857E+00 0.47215807E+03</pdfrwt>
<pdfrwt beam="2">  1       -2 0.11300846E-01 0.47215807E+03</pdfrwt>
<totfact> 0.22571786E+03</totfact>
</mgrwt>
<rwgt>
<wgt id='morphing_basis_vector_1'> +2.4446717e-04 </wgt>
<wgt id='morphing_basis_vector_2'> +1.3458299e-04 </wgt>
<wgt id='morphing_basis_vector_3'> +1.6993397e-04 </wgt>
<wgt id='morphing_basis_vector_4'> +5.1986278e-05 </wgt>
<wgt id='morphing_basis_vector_5'> +6.9550168e-05 </wgt>
</rwgt>
</event>
<event>
 4      1 +1.9425900e-05 4.31663800e+02 7.81860800e-03 9.56728700e-02
        2 -1    0    0  501    0 +0.0000000000e+00 +0.0000000000e+00 +1.6264605422e+02 1.6264605422e+02 0.0000000000e+00 0.0000e+00 -1.0000e+00
       -2 -1    0    0    0  501 -0.0000000000e+00 -0.0000000000e+00 -2.8640970623e+02 2.8640970623e+02 0.0000000000e+00 0.0000e+00 1.0000e+00
      -13  1    1    2    0    0 +4.0284110900e+01 +1.1179157038e+02 -2.4931678741e+02 2.7618657694e+02 0.0000000000e+00 0.0000e+00 1.0000e+00
       13  1    1    2    0    0 -4.0284110900e+01 -1.1179157038e+02 +1.2555313540e+02 1.7286918351e+02 0.0000000000e+00 0.0000e+00 -1.0000e+00
<mgrwt>
<rscale>  0 0.43166380E+03</rscale>
<asrwt>0</asrwt>
<pdfrwt beam="1">  1        2 0.25022470E-01 0.43166380E+03</pdfrwt>
<pdfrwt beam="2">  1       -2 0.44063031E-01 0.43166380E+03</pdfrwt>
<totfact> 0.13064344E+03</totfact>
</mgrwt>
<rwgt>
<wgt id='morphing_basis_vector_1'> +1.8897475e-04 </wgt>
<wgt id='morphing_basis_vector_2'> +1.0193774e-04 </wgt>
<wgt id='morphing_basis_vector_3'> +1.2575188e-04 </wgt>
<wgt id='morphing_basis_vector_4'> +3.2531178e-05 </wgt>
<wgt id='morphing_basis_vector_5'> +3.8631563e-05 </wgt>
</rwgt>
</event>
<event>
 4      1 +1.9425900e-05 4.33836500e+02 7.81860800e-03 9.56146900e-02
        2 -1    0    0  501    0 +0.0000000000e+00 +0.0000000000e+00 +2.6475833434e+02 2.6475833434e+02 0.0000000000e+00 0.0000e+00 1.0000e+00
       -2 -1    0    0    0  501 -0.0000000000e+00 -0.0000000000e+00 -1.7772257799e+02 1.7772257799e+02 0.0000000000e+00 0.0000e+00 -1.0000e+00
      -13  1    1    2    0    0 -8.5335585429e+01 -1.9558731742e+02 +3.7934799997e+00 2.1342668851e+02 0.0000000000e+00 0.0000e+00 -1.0000e+00
       13  1    1    2    0    0 +8.5335585429e+01 +1.9558731742e+02 +8.3242276346e+01 2.2905422382e+02 0.0000000000e+00 0.0000e+00 1.0000e+00
<mgrwt>
<rscale>  0 0.43383653E+03</rscale>
<asrwt>0</asrwt>
<pdfrwt beam="1">  1        2 0.40732051E-01 0.43383653E+03</pdfrwt>
<pdfrwt beam="2">  1       -2 0.27341935E-01 0.43383653E+03</pdfrwt>
<totfact> 0.17641728E+03</totfact>
</mgrwt>
<rwgt>
<wgt id='morphing_basis_vector_1'> +1.9468285e-04 </wgt>
<wgt id='morphing_basis_vector_2'> +1.1283072e-04 </wgt>
<wgt id='morphing_basis_vector_3'> +1.2553550e-04 </wgt>
<wgt id='morphing_basis_vector_4'> +3.3090648e-05 </wgt>
<wgt id='morphing_basis_vector_5'> +4.0181606e-05 </wgt>
</rwgt>
</event>
<event>
 4      1 +1.9425900e-05 4.91894100e+02 7.81860800e-03 9.41810800e-02
        2 -1    0    0  501    0 +0.0000000000e+00 +0.0000000000e+00 +3.8444930861e+02 3.8444930861e+02 0.0000000000e+00 0.0000e+00 -1.0000e+00
       -2 -1    0    0    0  501 -0.0000000000e+00 -0.0000000000e+00 -1.5734182643e+02 1.5734182643e+02 0.0000000000e+00 0.0000e+00 1.0000e+00
      -13  1    1    2    0    0 -2.2943524157e+02 -7.0363235097e+01 +1.7285208029e+02 2.9575218780e+02 0.0000000000e+00 0.0000e+00 1.0000e+00
       13  1    1    2    0    0 +2.2943524157e+02 +7.0363235097e+01 +5.4255401888e+01 2.4603894724e+02 0.0000000000e+00 0.0000e+00 -1.0000e+00
<mgrwt>
<rscale>  0 0.49189412E+03</rscale>
<asrwt>0</asrwt>
<pdfrwt beam="1">  1        2 0.59146047E-01 0.49189412E+03</pdfrwt>
<pdfrwt beam="2">  1       -2 0.24206435E-01 0.49189412E+03</pdfrwt>
<totfact> 0.14345884E+03</totfact>
</mgrwt>
<rwgt>
<wgt id='morphing_basis_vector_1'> +2.9462879e-04 </wgt>
<wgt id='morphing_basis_vector_2'> +2.1100274e-04 </wgt>
<wgt id='morphing_basis_vector_3'> +1.8766256e-04 </wgt>
<wgt id='morphing_basis_vector_4'> +5.7478225e-05 </wgt>
<wgt id='morphing_basis_vector_5'> +8.9971753e-05 </wgt>
</rwgt>
</event>
<event>
 4      1 +1.9425900e-05 4.35904900e+02 7.81860800e-03 9.55596300e-02
        2 -1    0    0  501    0 +0.0000000000e+00 +0.0000000000e+00 +8.9200843849e+02 8.9200843849e+02 0.0000000000e+00 0.0000e+00 -1.0000e+00
       -2 -1    0    0    0  501 -0.0000000000e+00 -0.0000000000e+00 -5.3254279994e+01 5.3254279994e+01 0.0000000000e+00 0.0000e+00 1.0000e+00
      -13  1    1    2    0    0 +5.8331294961e+01 -1.6746348325e+02 +1.4459458504e+02 2.2881029745e+02 0.0000000000e+00 0.0000e+00 1.0000e+00
       13  1    1    2    0    0 -5.8331294961e+01 +1.6746348325e+02 +6.9415957345e+02 7.1645242104e+02 0.0000000000e+00 0.0000e+00 -1.0000e+00
<mgrwt>
<rscale>  0 0.43590488E+03</rscale>
<asrwt>0</asrwt>
<pdfrwt beam="1">  1        2 0.13723206E+00 0.43590488E+03</pdfrwt>
<pdfrwt beam="2">  1       -2 0.81929668E-02 0.43590488E+03</pdfrwt>
<totfact> 0.30269395E+03</totfact>
</mgrwt>
<rwgt>
<wgt id='morphing_basis_vector_1'> +1.9460092e-04 </wgt>
<wgt id='morphing_basis_vector_2'> +1.0612491e-04 </wgt>
<wgt id='morphing_basis_vector_3'> +1.2956047e-04 </wgt>
<wgt id='morphing_basis_vector_4'> +3.4200762e-05 </wgt>
<wgt id='morphing_basis_vector_5'> +4.1354765e-05 </wgt>
</rwgt>
</event>
<event>
 4      1 +1.9425900e-05 4.92467200e+02 7.81860800e-03 9.41679900e-02
        2 -1    0    0  501    0 +0.0000000000e+00 +0.0000000000e+00 +7.7133598850e+01 7.7133598850e+01 0.0000000000e+00 0.0000e+00 -1.0000e+00
       -2 -1    0    0    0  501 -0.0000000000e+00 -0.0000000000e+00 -7.8605155444e+02 7.8605155444e+02 0.0000000000e+00 0.0000e+00 1.0000e+00
      -13  1    1    2    0    0 -2.1434103366e+02 +8.4320275363e+01 -5.0705125063e+02 5.5691377996e+02 0.0000000000e+00 0.0000e+00 1.0000e+00
       13  1    1    2    0    0 +2.1434103366e+02 -8.4320275363e+01 -2.0186670496e+02 3.0627137333e+02 0.0000000000e+00 0.0000e+00 -1.0000e+00
<mgrwt>
<rscale>  0 0.49246720E+03</rscale>
<asrwt>0</asrwt>
<pdfrwt beam="1">  1        2 0.11866707E-01 0.49246720E+03</pdfrwt>
<pdfrwt beam="2">  1       -2 0.12093101E+00 0.49246720E+03</pdfrwt>
<totfact> 0.35596192E+02</totfact>
</mgrwt>
<rwgt>
<wgt id='morphing_basis_vector_1'> +2.7833585e-04 </wgt>
<wgt id='morphing_basis_vector_2'> +1.5802383e-04 </wgt>
<wgt id='morphing_basis_vector_3'> +1.9628189e-04 </wgt>
<wgt id='morphing_basis_vector_4'> +6.4168110e-05 </wgt>
<wgt id='morphing_basis_vector_5'> +8.9849853e-05 </wgt>
</rwgt>
</event>
<event>
 4      1 +1.9425900e-05 4.47484000e+02 7.81860800e-03 9.52572400e-02
        2 -1    0    0  501    0 +0.0000000000e+00 +0.0000000000e+00 +1.3293279024e+03 1.3293279024e+03 0.0000000000e+00 0.0000e+00 1.0000e+00
       -2 -1    0    0    0  501 -0.0000000000e+00 -0.0000000000e+00 -3.7658485287e+01 3.7658485287e+01 0.0000000000e+00 0.0000e+00 -1.0000e+00
      -13  1    1    2    0    0 +9.9012293922e+01 +1.9579579346e+02 +7.7972708125e+02 8.1000848658e+02 0.0000000000e+00 0.0000e+00 1.0000e+00
       13  1    1    2    0    0 -9.9012293922e+01 -1.9579579346e+02 +5.1194233589e+02 5.5697790114e+02 0.0000000000e+00 0.0000e+00 -1.0000e+00
<mgrwt>
<rscale>  0 0.44748397E+03</rscale>
<asrwt>0</asrwt>
<pdfrwt beam="1">  1        2 0.20451195E+00 0.44748397E+03</pdfrwt>
<pdfrwt beam="2">  1       -2 0.57936141E-02 0.44748397E+03</pdfrwt>
<totfact> 0.28465214E+03</totfact>
</mgrwt>
<rwgt>
<wgt id='morphing_basis_vector_1'> +2.2239850e-04 </wgt>
<wgt id='morphing_basis_vector_2'> +1.5444197e-04 </wgt>
<wgt id='morphing_basis_vector_3'> +1.3261580e-04 </wgt>
<wgt id='morphing_basis_vector_4'> +3.7096120e-05 </wgt>
<wgt id='morphing_basis_vector_5'> +5.0062796e-05 </wgt>
</rwgt>
</event>
<event>
 4      1 +1.9425900e-05 4.92182700e+02 7.81860800e-03 9.41744900e-02
        2 -1    0    0  501    0 +0.0000000000e+00 +0.0000000000e+00 +1.0022829571e+02 1.0022829571e+02 0.0000000000e+00 0.0000e+00 -1.0000e+00
       -2 -1    0    0    0  501 -0.0000000000e+00 -0.0000000000e+00 -6.0422997742e+02 6.0422997742e+02 0.0000000000e+00 0.0000e+00 1.0000e+00
      -13  1    1    2    0    0 +1.1607242879e+02 +2.1662324124e+02 -2.7024653149e+02 3.6528293849e+02 0.0000000000e+00 0.0000e+00 1.0000e+00
       13  1    1    2    0    0 -1.1607242879e+02 -2.1662324124e+02 -2.3375515023e+02 3.3917533464e+02 0.0000000000e+00 0.0000e+00 -1.0000e+00
<mgrwt>
<rscale>  0 0.49218265E+03</rscale>
<asrwt>0</asrwt>
<pdfrwt beam="1">  1        2 0.15419738E-01 0.49218265E+03</pdfrwt>
<pdfrwt beam="2">  1       -2 0.92958460E-01 0.49218265E+03</pdfrwt>
<totfact> 0.49044568E+02</totfact>
</mgrwt>
<rwgt>
<wgt id='morphing_basis_vector_1'> +2.8313079e-04 </wgt>
<wgt id='morphing_basis_vector_2'> +1.7410562e-04 </wgt>
<wgt id='morphing_basis_vector_3'> +1.9349991e-04 </wgt>
<wgt id='morphing_basis_vector_4'> +6.2043555e-05 </wgt>
<wgt id='morphing_basis_vector_5'> +8.9768143e-05 </wgt>
</rwgt>
</event>
<event>
 4      1 +1.9425900e-05 4.78617000e+02 7.81860800e-03 9.44897300e-02
        2 -1    0    0  501    0 +0.0000000000e+00 +0.0000000000e+00 +6.6832929098e+02 6.6832929098e+02 0.0000000000e+00 0.0000e+00 -1.0000e+00
       -2 -1    0    0    0  501 -0.0000000000e+00 -0.0000000000e+00 -8.5689148587e+01 8.5689148587e+01 0.0000000000e+00 0.0000e+00 1.0000e+00
      -13  1    1    2    0    0 +3.8119154334e+01 +2.2298146316e+02 +1.6832936514e+02 2.8197265472e+02 0.0000000000e+00 0.0000e+00 1.0000e+00
       13  1    1    2    0    0 -3.8119154334e+01 -2.2298146316e+02 +4.1431077725e+02 4.7204578485e+02 0.0000000000e+00 0.0000e+00 -1.0000e+00
<mgrwt>
<rscale>  0 0.47861704E+03</rscale>
<asrwt>0</asrwt>
<pdfrwt beam="1">  1        2 0.10281989E+00 0.47861704E+03</pdfrwt>
<pdfrwt beam="2">  1       -2 0.13182946E-01 0.47861704E+03</pdfrwt>
<totfact> 0.20637779E+03</totfact>
</mgrwt>
<rwgt>
<wgt id='morphing_basis_vector_1'> +2.5603400e-04 </wgt>
<wgt id='morphing_basis_vector_2'> +1.4539745e-04 </wgt>
<wgt id='morphing_basis_vector_3'> +1.7731432e-04 </wgt>
<wgt id='morphing_basis_vector_4'> +5.5301562e-05 </wgt>
<wgt id='morphing_basis_vector_5'> +7.5693132e-05 </wgt>
</rwgt>
</event>
<event>
 4      1 +1.9425900e-05 4.35976500e+02 7.81860800e-03 9.55577300e-02
        2 -1    0    0  501    0 +0.0000000000e+00 +0.0000000000e+00 +4.5972645874e+02 4.5972645874e+02 0.0000000000e+00 0.0000e+00 1.0000e+00
       -2 -1    0    0    0  501 -0.0000000000e+00 -0.0000000000e+00 -1.0336337951e+02 1.0336337951e+02 0.0000000000e+00 0.0000e+00 -1.0000e+00
      -13  1    1    2    0    0 -1.2750256109e+02 -1.7550530363e+02 +1.5048470604e+02 2.6401640373e+02 0.0000000000e+00 0.0000e+00 -1.0000e+00
       13  1    1    2    0    0 +1.2750256109e+02 +1.7550530363e+02 +2.0587837318e+02 2.9907343451e+02 0.0000000000e+00 0.0000e+00 1.0000e+00
<mgrwt>
<rscale>  0 0.43597652E+03</rscale>
<asrwt>0</asrwt>
<pdfrwt beam="1">  1        2 0.70727146E-01 0.43597652E+03</pdfrwt>
<pdfrwt beam="2">  1       -2 0.15902059E-01 0.43597652E+03</pdfrwt>
<totfact> 0.23457737E+03</totfact>
</mgrwt>
<rwgt>
<wgt id='morphing_basis_vector_1'> +1.9853487e-04 </wgt>
<wgt id='morphing_basis_vector_2'> +1.1803179e-04 </wgt>
<wgt id='morphing_basis_vector_3'> +1.2676624e-04 </wgt>
<wgt id='morphing_basis_vector_4'> +3.3800144e-05 </wgt>
<wgt id='morphing_basis_vector_5'> +4.1628857e-05 </wgt>
</rwgt>
</event>
<event>
 4      1 +1.9425900e-05 4.66667200e+02 7.81860800e-03 9.47768700e-02
        2 -1    0    0  501    0 +0.0000000000e+00 +0.0000000000e+00 +2.6034965288e+02 2.6034965288e+02 0.0000000000e+00 0.0000e+00 1.0000e+00
       -2 -1    0    0    0  501 -0.0000000000e+00 -0.0000000000e+00 -2.0912100099e+02 2.0912100099e+02 0.0000000000e+00 0.0000e+00 -1.0000e+00
      -13  1    1    2    0    0 -3.3589953619e+01 -2.0800143136e+02 +1.2647477066e+02 2.4574122170e+02 0.0000000000e+00 0.0000e+00 1.0000e+00
       13  1    1    2    0    0 +3.3589953619e+01 +2.0800143136e+02 -7.5246118759e+01 2.2372943217e+02 0.0000000000e+00 0.0000e+00 -1.0000e+00
<mgrwt>
<rscale>  0 0.46666725E+03</rscale>
<asrwt>0</asrwt>
<pdfrwt beam="1">  1        2 0.40053793E-01 0.46666725E+03</pdfrwt>
<pdfrwt beam="2">  1       -2 0.32172461E-01 0.46666725E+03</pdfrwt>
<totfact> 0.13548066E+03</totfact>
</mgrwt>
<rwgt>
<wgt id='morphing_basis_vector_1'> +2.6822673e-04 </wgt>
<wgt id='morphing_basis_vector_2'> +2.2880267e-04 </wgt>
<wgt id='morphing_basis_vector_3'> +1.4464109e-04 </wgt>
<wgt id='morphing_basis_vector_4'> +4.0774694e-05 </wgt>
<wgt id='morphing_basis_vector_5'> +6.6280612e-05 </wgt>
</rwgt>
</event>
<event>
 4      1 +1.9425900e-05 4.94383000e+02 7.81860800e-03 9.41243900e-02
        2 -1    0    0  501    0 +0.0000000000e+00 +0.0000000000e+00 +7.5765093489e+02 7.5765093489e+02 0.0000000000e+00 0.0000e+00 -1.0000e+00
       -2 -1    0    0    0  501 -0.0000000000e+00 -0.0000000000e+00 -8.0648804535e+01 8.0648804535e+01 0.0000000000e+00 0.0000e+00 1.0000e+00
      -13  1    1    2    0    0 +1.1786082544e+02 +1.8745406144e+02 +1.5218455042e+02 2.6868259473e+02 0.0000000000e+00 0.0000e+00 1.0000e+00
       13  1    1    2    0    0 -1.1786082544e+02 -1.8745406144e+02 +5.2481757993e+02 5.6961714470e+02 0.0000000000e+00 0.0000e+00 -1.0000e+00
<mgrwt>
<rscale>  0 0.49438302E+03</rscale>
<asrwt>0</asrwt>
<pdfrwt beam="1">  1        2 0.11656168E+00 0.49438302E+03</pdfrwt>
<pdfrwt beam="2">  1       -2 0.12407509E-01 0.49438302E+03</pdfrwt>
<totfact> 0.19519883E+03</totfact>
</mgrwt>
<rwgt>
<wgt id='morphing_basis_vector_1'> +2.8080128e-04 </wgt>
<wgt id='morphing_basis_vector_2'> +1.5753703e-04 </wgt>
<wgt id='morphing_basis_vector_3'> +1.9935873e-04 </wgt>
<wgt id='morphing_basis_vector_4'> +6.5757165e-05 </wgt>
<wgt id='morphing_basis_vector_5'> +9.1906035e-05 </wgt>
</rwgt>
</event>
<event>
 4      1 +1.9425900e-05 4.45169900e+02 7.81860800e-03 9.53169000e-02
        2 -1    0    0  501    0 +0.0000000000e+00 +0.0000000000e+00 +3.3658636452e+02 3.3658636452e+02 0.0000000000e+00 0.0000e+00 1.0000e+00
       -2 -1    0    0    0  501 -0.0000000000e+00 -0.0000000000e+00 -1.4719567832e+02 1.4719567832e+02 0.0000000000e+00 0.0000e+00 -1.0000e+00
      -13  1    1    2    0    0 +1.6520253458e+02 +7.0085527231e+01 -4.8408404347e+01 1.8586885745e+02 0.0000000000e+00 0.0000e+00 -1.0000e+00
       13  1    1    2    0    0 -1.6520253458e+02 -7.0085527231e+01 +2.3779909055e+02 2.9791318539e+02 0.0000000000e+00 0.0000e+00 1.0000e+00
<mgrwt>
<rscale>  0 0.44516989E+03</rscale>
<asrwt>0</asrwt>
<pdfrwt beam="1">  1        2 0.51782517E-01 0.44516989E+03</pdfrwt>
<pdfrwt beam="2">  1       -2 0.22645489E-01 0.44516989E+03</pdfrwt>
<totfact> 0.18595218E+03</totfact>
</mgrwt>
<rwgt>
<wgt id='morphing_basis_vector_1'> +2.0640074e-04 </wgt>
<wgt id='morphing_basis_vector_2'> +1.1270577e-04 </wgt>
<wgt id='morphing_basis_vector_3'> +1.3900835e-04 </wgt>
<wgt id='morphing_basis_vector_4'> +3.8194477e-05 </wgt>
<wgt id='morphing_basis_vector_5'> +4.7665167e-05 </wgt>
</rwgt>
</event>
<event>
 4      1 +1.9425900e-05 4.44187100e+02 7.81860800e-03 9.53423500e-02
        2 -1    0    0  501    0 +0.0000000000e+00 +0.0000000000e+00 +5.2373258576e+01 5.2373258576e+01 0.0000000000e+00 0.0000e+00 1.0000e+00
       -2 -1    0    0    0  501 -0.0000000000e+00 -0.0000000000e+00 -9.4180762656e+02 9.4180762656e+02 0.0000000000e+00 0.0000e+00 -1.0000e+00
      -13  1    1    2    0    0 -1.9136389075e+02 -1.0608422075e+02 -5.2999048730e+02 5.7337938331e+02 0.0000000000e+00 0.0000e+00 -1.0000e+00
       13  1    1    2    0    0 +1.9136389075e+02 +1.0608422075e+02 -3.5944388068e+02 4.2080150182e+02 0.0000000000e+00 0.0000e+00 1.0000e+00
<mgrwt>
<rscale>  0 0.44418705E+03</rscale>
<asrwt>0</asrwt>
<pdfrwt beam="1">  1        2 0.80574241E-02 0.44418705E+03</pdfrwt>
<pdfrwt beam="2">  1       -2 0.14489349E+00 0.44418705E+03</pdfrwt>
<totfact> 0.36011449E+02</totfact>
</mgrwt>
<rwgt>
<wgt id='morphing_basis_vector_1'> +2.0809358e-04 </wgt>
<wgt id='morphing_basis_vector_2'> +1.2117098e-04 </wgt>
<wgt id='morphing_basis_vector_3'> +1.3589593e-04 </wgt>
<wgt id='morphing_basis_vector_4'> +3.7305208e-05 </wgt>
<wgt id='morphing_basis_vector_5'> +4.7138023e-05 </wgt>
</rwgt>
</event>
<event>
 4      1 +1.9425900e-05 5.03683500e+02 7.81860800e-03 9.39156700e-02
        2 -1    0    0  501    0 +0.0000000000e+00 +0.0000000000e+00 +2.6800124019e+02 2.6800124019e+02 0.0000000000e+00 0.0000e+00 -1.0000e+00
       -2 -1    0    0    0  501 -0.0000000000e+00 -0.0000000000e+00 -2.3665658311e+02 2.3665658311e+02 0.0000000000e+00 0.0000e+00 1.0000e+00
      -13  1    1    2    0    0 -1.0733135247e+02 -5.2381023472e+01 -2.0647818285e+02 2.3853098506e+02 0.0000000000e+00 0.0000e+00 1.0000e+00
       13  1    1    2    0    0 +1.0733135247e+02 +5.2381023472e+01 +2.3782283992e+02 2.6612683824e+02 0.0000000000e+00 0.0000e+00 -1.0000e+00
<mgrwt>
<rscale>  0 0.50368346E+03</rscale>
<asrwt>0</asrwt>
<pdfrwt beam="1">  1        2 0.41230960E-01 0.50368346E+03</pdfrwt>
<pdfrwt beam="2">  1       -2 0.36408705E-01 0.50368346E+03</pdfrwt>
<totfact> 0.10514125E+03</totfact>
</mgrwt>
<rwgt>
<wgt id='morphing_basis_vector_1'> +2.9545008e-04 </wgt>
<wgt id='morphing_basis_vector_2'> +1.6238370e-04 </wgt>
<wgt id='morphing_basis_vector_3'> +2.1366322e-04 </wgt>
<wgt id='morphing_basis_vector_4'> +7.3010586e-05 </wgt>
<wgt id='morphing_basis_vector_5'> +1.0245248e-04 </wgt>
</rwgt>
</event>
<event>
 4      1 +1.9425900e-05 4.35639100e+02 7.81860800e-03 9.55666800e-02
        2 -1    0    0  501    0 +0.0000000000e+00 +0.0000000000e+00 +1.2051954545e+03 1.2051954545e+03 0.0000000000e+00 0.0000e+00 -1.0000e+00
       -2 -1    0    0    0  501 -0.0000000000e+00 -0.0000000000e+00 -3.9367350595e+01 3.9367350595e+01 0.0000000000e+00 0.0000e+00 1.0000e+00
      -13  1    1    2    0    0 +1.7163749413e+02 -1.2779795696e+02 +4.6674088006e+02 5.1345768697e+02 0.0000000000e+00 0.0000e+00 1.0000e+00
       13  1    1    2    0    0 -1.7163749413e+02 +1.2779795696e+02 +6.9908722382e+02 7.3110511809e+02 0.0000000000e+00 0.0000e+00 -1.0000e+00
<mgrwt>
<rscale>  0 0.43563908E+03</rscale>
<asrwt>0</asrwt>
<pdfrwt beam="1">  1        2 0.18541466E+00 0.43563908E+03</pdfrwt>
<pdfrwt beam="2">  1       -2 0.60565164E-02 0.43563908E+03</pdfrwt>
<totfact> 0.31223270E+03</totfact>
</mgrwt>
<rwgt>
<wgt id='morphing_basis_vector_1'> +1.9685817e-04 </wgt>
<wgt id='morphing_basis_vector_2'> +1.1391916e-04 </wgt>
<wgt id='morphing_basis_vector_3'> +1.2736549e-04 </wgt>
<wgt id='morphing_basis_vector_4'> +3.3806310e-05 </wgt>
<wgt id='morphing_basis_vector_5'> +4.1335501e-05 </wgt>
</rwgt>
</event>
<event>
 4      1 +1.9425900e-05 4.94278300e+02 7.81860800e-03 9.41267600e-02
        2 -1    0    0  501    0 +0.0000000000e+00 +0.0000000000e+00 +1.1322990668e+03 1.1322990668e+03 0.0000000000e+00 0.0000e+00 -1.0000e+00
       -2 -1    0    0    0  501 -0.0000000000e+00 -0.0000000000e+00 -5.3941377469e+01 5.3941377469e+01 0.0000000000e+00 0.0000e+00 1.0000e+00
      -13  1    1    2    0    0 +4.6083204402e+01 +2.4270676148e+02 +5.2263182985e+02 5.7807807723e+02 0.0000000000e+00 0.0000e+00 1.0000e+00
       13  1    1    2    0    0 -4.6083204402e+01 -2.4270676148e+02 +5.5572585951e+02 6.0816236708e+02 0.0000000000e+00 0.0000e+00 -1.0000e+00
<mgrwt>
<rscale>  0 0.49427835E+03</rscale>
<asrwt>0</asrwt>
<pdfrwt beam="1">  1        2 0.17419984E+00 0.49427835E+03</pdfrwt>
<pdfrwt beam="2">  1       -2 0.82986744E-02 0.49427835E+03</pdfrwt>
<totfact> 0.21220436E+03</totfact>
</mgrwt>
<rwgt>
<wgt id='morphing_basis_vector_1'> +2.8745305e-04 </wgt>
<wgt id='morphing_basis_vector_2'> +1.7862774e-04 </wgt>
<wgt id='morphing_basis_vector_3'> +1.9619953e-04 </wgt>
<wgt id='morphing_basis_vector_4'> +6.3120312e-05 </wgt>
<wgt id='morphing_basis_vector_5'> +9.2078702e-05 </wgt>
</rwgt>
</event>
<event>
 4      1 +1.9425900e-05 4.74709400e+02 7.81860800e-03 9.45826300e-02
        2 -1    0    0  501    0 +0.0000000000e+00 +0.0000000000e+00 +5.3300606172e+02 5.3300606172e+02 0.0000000000e+00 0.0000e+00 1.0000e+00
       -2 -1    0    0    0  501 -0.0000000000e+00 -0.0000000000e+00 -1.0569723177e+02 1.0569723177e+02 0.0000000000e+00 0.0000e+00 -1.0000e+00
      -13  1    1    2    0    0 +1.9534498892e+02 -1.0824973165e+02 +1.0551750321e+02 2.4700528857e+02 0.0000000000e+00 0.0000e+00 -1.0000e+00
       13  1    1    2    0    0 -1.9534498892e+02 +1.0824973165e+02 +3.2179132674e+02 3.9169800492e+02 0.0000000000e+00 0.0000e+00 1.0000e+00
<mgrwt>
<rscale>  0 0.47470945E+03</rscale>
<asrwt>0</asrwt>
<pdfrwt beam="1">  1        2 0.82000930E-01 0.47470945E+03</pdfrwt>
<pdfrwt beam="2">  1       -2 0.16261113E-01 0.47470945E+03</pdfrwt>
<totfact> 0.19174434E+03</totfact>
</mgrwt>
<rwgt>
<wgt id='morphing_basis_vector_1'> +2.4982808e-04 </wgt>
<wgt id='morphing_basis_vector_2'> +1.4140611e-04 </wgt>
<wgt id='morphing_basis_vector_3'> +1.7234843e-04 </wgt>
<wgt id='morphing_basis_vector_4'> +5.3040495e-05 </wgt>
<wgt id='morphing_basis_vector_5'> +7.1977724e-05 </wgt>
</rwgt>
</event>
<event>
 4      1 +1.9425900e-05 4.77153900e+02 7.81860800e-03 9.45244100e-02
        2 -1    0    0  501    0 +0.0000000000e+00 +0.0000000000e+00 +5.6241546190e+02 5.6241546190e+02 0.0000000000e+00 0.0000e+00 1.0000e+00
       -2 -1    0    0    0  501 -0.0000000000e+00 -0.0000000000e+00 -1.0120445558e+02 1.0120445558e+02 0.0000000000e+00 0.0000e+00 -1.0000e+00
      -13  1    1    2    0    0 +1.1240948314e+02 +9.0186881931e+01 -3.3824926752e+01 1.4803273706e+02 0.0000000000e+00 0.0000e+00 -1.0000e+00
       13  1    1    2    0    0 -1.1240948314e+02 -9.0186881931e+01 +4.9503593307e+02 5.1558718041e+02 0.0000000000e+00 0.0000e+00 1.0000e+00
<mgrwt>
<rscale>  0 0.47715386E+03</rscale>
<asrwt>0</asrwt>
<pdfrwt beam="1">  1        2 0.86525454E-01 0.47715386E+03</pdfrwt>
<pdfrwt beam="2">  1       -2 0.15569917E-01 0.47715386E+03</pdfrwt>
<totfact> 0.19342735E+03</totfact>
</mgrwt>
<rwgt>
<wgt id='morphing_basis_vector_1'> +2.5157850e-04 </wgt>
<wgt id='morphing_basis_vector_2'> +1.3732945e-04 </wgt>
<wgt id='morphing_basis_vector_3'> +1.7655503e-04 </wgt>
<wgt id='morphing_basis_vector_4'> +5.5084446e-05 </wgt>
<wgt id='morphing_basis_vector_5'> +7.4186486e-05 </wgt>
</rwgt>
</event>
<event>
 4      1 +1.9425900e-05 4.43607400e+02 7.81860800e-03 9.53574000e-02
        2 -1    0    0  501    0 +0.0000000000e+00 +0.0000000000e+00 +1.1898675066e+02 1.1898675066e+02 0.0000000000e+00 0.0000e+00 -1.0000e+00
       -2 -1    0    0    0  501 -0.0000000000e+00 -0.0000000000e+00 -4.1346517699e+02 4.1346517699e+02 0.0000000000e+00 0.0000e+00 1.0000e+00
      -13  1    1    2    0    0 +1.2494995300e+02 -1.0037268675e+02 -3.3127627074e+02 3.6800969356e+02 0.0000000000e+00 0.0000e+00 1.0000e+00
       13  1    1    2    0    0 -1.2494995300e+02 +1.0037268675e+02 +3.6797844409e+01 1.6444223409e+02 0.0000000000e+00 0.0000e+00 -1.0000e+00
<mgrwt>
<rscale>  0 0.44360738E+03</rscale>
<asrwt>0</asrwt>
<pdfrwt beam="1">  1        2 0.18305654E-01 0.44360738E+03</pdfrwt>
<pdfrwt beam="2">  1       -2 0.63610027E-01 0.44360738E+03</pdfrwt>
<totfact> 0.91804309E+02</totfact>
</mgrwt>
<rwgt>
<wgt id='morphing_basis_vector_1'> +2.0413162e-04 </wgt>
<wgt id='morphing_basis_vector_2'> +1.1083716e-04 </wgt>
<wgt id='morphing_basis_vector_3'> +1.3754073e-04 </wgt>
<wgt id='morphing_basis_vector_4'> +3.7530289e-05 </wgt>
<wgt id='morphing_basis_vector_5'> +4.6546421e-05 </wgt>
</rwgt>
</event>
<event>
 4      1 +1.9425900e-05 4.41386200e+02 7.81860800e-03 9.54152700e-02
        2 -1    0    0  501    0 +0.0000000000e+00 +0.0000000000e+00 +5.7834410871e+02 5.7834410871e+02 0.0000000000e+00 0.0000e+00 1.0000e+00
       -2 -1    0    0    0  501 -0.0000000000e+00 -0.0000000000e+00 -8.4215329804e+01 8.4215329804e+01 0.0000000000e+00 0.0000e+00 -1.0000e+00
      -13  1    1    2    0    0 -1.5663278085e+02 +1.3636646778e+02 +3.5915252401e+02 4.1487368810e+02 0.0000000000e+00 0.0000e+00 -1.0000e+00
       13  1    1    2    0    0 +1.5663278085e+02 -1.3636646778e+02 +1.3497625489e+02 2.4768575041e+02 0.0000000000e+00 0.0000e+00 1.0000e+00
<mgrwt>
<rscale>  0 0.44138618E+03</rscale>
<asrwt>0</asrwt>
<pdfrwt beam="1">  1        2 0.88976014E-01 0.44138618E+03</pdfrwt>
<pdfrwt beam="2">  1       -2 0.12956205E-01 0.44138618E+03</pdfrwt>
<totfact> 0.25100759E+03</totfact>
</mgrwt>
<rwgt>
<wgt id='morphing_basis_vector_1'> +2.2171332e-04 </wgt>
<wgt id='morphing_basis_vector_2'> +1.7233732e-04 </wgt>
<wgt id='morphing_basis_vector_3'> +1.2062124e-04 </wgt>
<wgt id='morphing_basis_vector_4'> +3.3740497e-05 </wgt>
<wgt id='morphing_basis_vector_5'> +4.6187117e-05 </wgt>
</rwgt>
</event>
<event>
 4      1 +1.9425900e-05 4.51332800e+02 7.81860800e-03 9.51588600e-02
        2 -1    0    0  501    0 +0.0000000000e+00 +0.0000000000e+00 +3.3646288856e+02 3.3646288856e+02 0.0000000000e+00 0.0000e+00 1.0000e+00
       -2 -1    0    0    0  501 -0.0000000000e+00 -0.0000000000e+00 -1.5135494650e+02 1.5135494650e+02 0.0000000000e+00 0.0000e+00 -1.0000e+00
      -13  1    1    2    0    0 +6.9556658179e+01 -1.7119842453e+02 -4.7448169268e+01 1.9078353709e+02 0.0000000000e+00 0.0000e+00 -1.0000e+00
       13  1    1    2    0    0 -6.9556658179e+01 +1.7119842453e+02 +2.3255611133e+02 2.9703429797e+02 0.0000000000e+00 0.0000e+00 1.0000e+00
<mgrwt>
<rscale>  0 0.45133279E+03</rscale>
<asrwt>0</asrwt>
<pdfrwt beam="1">  1        2 0.51763521E-01 0.45133279E+03</pdfrwt>
<pdfrwt beam="2">  1       -2 0.23285376E-01 0.45133279E+03</pdfrwt>
<totfact> 0.17757200E+03</totfact>
</mgrwt>
<rwgt>
<wgt id='morphing_basis_vector_1'> +2.1466017e-04 </wgt>
<wgt id='morphing_basis_vector_2'> +1.1752761e-04 </wgt>
<wgt id='morphing_basis_vector_3'> +1.4557162e-04 </wgt>
<wgt id='morphing_basis_vector_4'> +4.1043451e-05 </wgt>
<wgt id='morphing_basis_vector_5'> +5.2194610e-05 </wgt>
</rwgt>
</event>
<event>
 4      1 +1.9425900e-05 4.80222900e+02 7.81860800e-03 9.44518300e-02
        2 -1    0    0  501    0 +0.0000000000e+00 +0.0000000000e+00 +5.3676730405e+02 5.3676730405e+02 0.0000000000e+00 0.0000e+00 -1.0000e+00
       -2 -1    0    0    0  501 -0.0000000000e+00 -0.0000000000e+00 -1.0740875262e+02 1.0740875262e+02 0.0000000000e+00 0.0000e+00 1.0000e+00
      -13  1    1    2    0    0 -8.8412076947e+01 -9.7349280203e+01 +4.8416571462e+02 5.0170710272e+02 0.0000000000e+00 0.0000e+00 -1.0000e+00
       13  1    1    2    0    0 +8.8412076947e+01 +9.7349280203e+01 -5.4807163184e+01 1.4246895396e+02 0.0000000000e+00 0.0000e+00 1.0000e+00
<mgrwt>
<rscale>  0 0.48022289E+03</rscale>
<asrwt>0</asrwt>
<pdfrwt beam="1">  1        2 0.82579584E-01 0.48022289E+03</pdfrwt>
<pdfrwt beam="2">  1       -2 0.16524424E-01 0.48022289E+03</pdfrwt>
<totfact> 0.18535316E+03</totfact>
</mgrwt>
<rwgt>
<wgt id='morphing_basis_vector_1'> +3.4128602e-04 </wgt>
<wgt id='morphing_basis_vector_2'> +4.0339829e-04 </wgt>
<wgt id='morphing_basis_vector_3'> +1.3714734e-04 </wgt>
<wgt id='morphing_basis_vector_4'> +3.0227228e-05 </wgt>
<wgt id='morphing_basis_vector_5'> +8.1117802e-05 </wgt>
</rwgt>
</event>
<event>
 4      1 +1.9425900e-05 4.89311900e+02 7.81860800e-03 9.42402800e-02
        2 -1    0    0  501    0 +0.0000000000e+00 +0.0000000000e+00 +6.4433004987e+02 6.4433004987e+02 0.0000000000e+00 0.0000e+00 1.0000e+00
       -2 -1    0    0    0  501 -0.0000000000e+00 -0.0000000000e+00 -9.2897307493e+01 9.2897307493e+01 0.0000000000e+00 0.0000e+00 -1.0000e+00
      -13  1    1    2    0    0 +9.0211732496e+01 +1.7824478149e+02 +6.2923873094e+01 2.0944873505e+02 0.0000000000e+00 0.0000e+00 -1.0000e+00
       13  1    1    2    0    0 -9.0211732496e+01 -1.7824478149e+02 +4.8850886928e+02 5.2777862232e+02 0.0000000000e+00 0.0000e+00 1.0000e+00
<mgrwt>
<rscale>  0 0.48931187E+03</rscale>
<asrwt>0</asrwt>
<pdfrwt beam="1">  1        2 0.99127697E-01 0.48931187E+03</pdfrwt>
<pdfrwt beam="2">  1       -2 0.14291894E-01 0.48931187E+03</pdfrwt>
<totfact> 0.18948897E+03</totfact>
</mgrwt>
<rwgt>
<wgt id='morphing_basis_vector_1'> +2.7156758e-04 </wgt>
<wgt id='morphing_basis_vector_2'> +1.5025649e-04 </wgt>
<wgt id='morphing_basis_vector_3'> +1.9254201e-04 </wgt>
<wgt id='morphing_basis_vector_4'> +6.2605284e-05 </wgt>
<wgt id='morphing_basis_vector_5'> +8.6413590e-05 </wgt>
</rwgt>
</event>
<event>
 4      1 +1.9425900e-05 5.09249700e+02 7.81860800e-03 9.37930500e-02
        2 -1    0    0  501    0 +0.0000000000e+00 +0.0000000000e+00 +2.9128788895e+02 2.9128788895e+02 0.0000000000e+00 0.0000e+00 -1.0000e+00
       -2 -1    0    0    0  501 -0.0000000000e+00 -0.0000000000e+00 -2.2257644057e+02 2.2257644057e+02 0.0000000000e+00 0.0000e+00 1.0000e+00
      -13  1    1    2    0    0 +1.6424382039e+02 -9.0313163739e+00 -1.6176655863e+02 2.3070764335e+02 0.0000000000e+00 0.0000e+00 1.0000e+00
       13  1    1    2    0    0 -1.6424382039e+02 +9.0313163739e+00 +2.3047800700e+02 2.8315668617e+02 0.0000000000e+00 0.0000e+00 -1.0000e+00
<mgrwt>
<rscale>  0 0.50924973E+03</rscale>
<asrwt>0</asrwt>
<pdfrwt beam="1">  1        2 0.44813521E-01 0.50924973E+03</pdfrwt>
<pdfrwt beam="2">  1       -2 0.34242529E-01 0.50924973E+03</pdfrwt>
<totfact> 0.10695929E+03</totfact>
</mgrwt>
<rwgt>
<wgt id='morphing_basis_vector_1'> +3.0559501e-04 </wgt>
<wgt id='morphing_basis_vector_2'> +1.6866611e-04 </wgt>
<wgt id='morphing_basis_vector_3'> +2.2215468e-04 </wgt>
<wgt id='morphing_basis_vector_4'> +7.7197689e-05 </wgt>
<wgt id='morphing_basis_vector_5'> +1.0918371e-04 </wgt>
</rwgt>
</event>
<event>
 4      1 +1.9425900e-05 4.49113000e+02 7.81860800e-03 9.52154800e-02
        2 -1    0    0  501    0 +0.0000000000e+00 +0.0000000000e+00 +5.0078024312e+02 5.0078024312e+02 0.0000000000e+00 0.0000e+00 1.0000e+00
       -2 -1    0    0    0  501 -0.0000000000e+00 -0.0000000000e+00 -1.0069410571e+02 1.0069410571e+02 0.0000000000e+00 0.0000e+00 -1.0000e+00
      -13  1    1    2    0    0 -4.3156277291e+01 -8.9415539180e+01 -6.9701917120e+01 1.2130935729e+02 0.0000000000e+00 0.0000e+00 -1.0000e+00
       13  1    1    2    0    0 +4.3156277291e+01 +8.9415539180e+01 +4.6978805454e+02 4.8016499154e+02 0.0000000000e+00 0.0000e+00 1.0000e+00
<mgrwt>
<rscale>  0 0.44911299E+03</rscale>
<asrwt>0</asrwt>
<pdfrwt beam="1">  1        2 0.77043113E-01 0.44911299E+03</pdfrwt>
<pdfrwt beam="2">  1       -2 0.15491401E-01 0.44911299E+03</pdfrwt>
<totfact> 0.22235837E+03</totfact>
</mgrwt>
<rwgt>
<wgt id='morphing_basis_vector_1'> +2.1115029e-04 </wgt>
<wgt id='morphing_basis_vector_2'> +1.1421475e-04 </wgt>
<wgt id='morphing_basis_vector_3'> +1.4351549e-04 </wgt>
<wgt id='morphing_basis_vector_4'> +4.0085884e-05 </wgt>
<wgt id='morphing_basis_vector_5'> +5.0504179e-05 </wgt>
</rwgt>
</event>
<event>
 4      1 +1.9425900e-05 4.44048300e+02 7.81860800e-03 9.53459500e-02
        2 -1    0    0  501    0 +0.0000000000e+00 +0.0000000000e+00 +1.7426902140e+02 1.7426902140e+02 0.0000000000e+00 0.0000e+00 1.0000e+00
       -2 -1    0    0    0  501 -0.0000000000e+00 -0.0000000000e+00 -2.8286568155e+02 2.8286568155e+02 0.0000000000e+00 0.0000e+00 -1.0000e+00
      -13  1    1    2    0    0 -1.5318824541e+01 +1.6145634195e+02 -2.1039781979e+02 2.6565025751e+02 0.0000000000e+00 0.0000e+00 -1.0000e+00
       13  1    1    2    0    0 +1.5318824541e+01 -1.6145634195e+02 +1.0180115964e+02 1.9148444544e+02 0.0000000000e+00 0.0000e+00 1.0000e+00
<mgrwt>
<rscale>  0 0.44404831E+03</rscale>
<asrwt>0</asrwt>
<pdfrwt beam="1">  1        2 0.26810619E-01 0.44404831E+03</pdfrwt>
<pdfrwt beam="2">  1       -2 0.43517797E-01 0.44404831E+03</pdfrwt>
<totfact> 0.12347247E+03</totfact>
</mgrwt>
<rwgt>
<wgt id='morphing_basis_vector_1'> +2.0471956e-04 </wgt>
<wgt id='morphing_basis_vector_2'> +1.1120693e-04 </wgt>
<wgt id='morphing_basis_vector_3'> +1.3798827e-04 </wgt>
<wgt id='morphing_basis_vector_4'> +3.7724598e-05 </wgt>
<wgt id='morphing_basis_vector_5'> +4.6857537e-05 </wgt>
</rwgt>
</event>
<event>
 4      1 +1.9425900e-05 4.91588500e+02 7.81860800e-03 9.41880700e-02
        2 -1    0    0  501    0 +0.0000000000e+00 +0.0000000000e+00 +3.6352953024e+02 3.6352953024e+02 0.0000000000e+00 0.0000e+00 1.0000e+00
       -2 -1    0    0    0  501 -0.0000000000e+00 -0.0000000000e+00 -1.6618953024e+02 1.6618953024e+02 0.0000000000e+00 0.0000e+00 -1.0000e+00
      -13  1    1    2    0    0 -7.6743684479e+00 +1.1000315207e+02 -1.3803969332e+02 1.7667638871e+02 0.0000000000e+00 0.0000e+00 -1.0000e+00
       13  1    1    2    0    0 +7.6743684479e+00 -1.1000315207e+02 +3.3537969332e+02 3.5304267177e+02 0.0000000000e+00 0.0000e+00 1.0000e+00
<mgrwt>
<rscale>  0 0.49158845E+03</rscale>
<asrwt>0</asrwt>
<pdfrwt beam="1">  1        2 0.55927620E-01 0.49158845E+03</pdfrwt>
<pdfrwt beam="2">  1       -2 0.25567620E-01 0.49158845E+03</pdfrwt>
<totfact> 0.13917062E+03</totfact>
</mgrwt>
<rwgt>
<wgt id='morphing_basis_vector_1'> +2.7466922e-04 </wgt>
<wgt id='morphing_basis_vector_2'> +1.5035246e-04 </wgt>
<wgt id='morphing_basis_vector_3'> +1.9603206e-04 </wgt>
<wgt id='morphing_basis_vector_4'> +6.4377219e-05 </wgt>
<wgt id='morphing_basis_vector_5'> +8.8808249e-05 </wgt>
</rwgt>
</event>
<event>
 4      1 +1.9425900e-05 4.62384000e+02 7.81860800e-03 9.48820000e-02
        2 -1    0    0  501    0 +0.0000000000e+00 +0.0000000000e+00 +2.5529857167e+02 2.5529857167e+02 0.0000000000e+00 0.0000e+00 -1.0000e+00
       -2 -1    0    0    0  501 -0.0000000000e+00 -0.0000000000e+00 -2.0936169044e+02 2.0936169044e+02 0.0000000000e+00 0.0000e+00 1.0000e+00
      -13  1    1    2    0    0 -1.9777681980e+02 +8.5360843038e+01 -6.1394800048e+01 2.2398987800e+02 0.0000000000e+00 0.0000e+00 1.0000e+00
       13  1    1    2    0    0 +1.9777681980e+02 -8.5360843038e+01 +1.0733168128e+02 2.4067038410e+02 0.0000000000e+00 0.0000e+00 -1.0000e+00
<mgrwt>
<rscale>  0 0.46238400E+03</rscale>
<asrwt>0</asrwt>
<pdfrwt beam="1">  1        2 0.39276703E-01 0.46238400E+03</pdfrwt>
<pdfrwt beam="2">  1       -2 0.32209491E-01 0.46238400E+03</pdfrwt>
<totfact> 0.13821206E+03</totfact>
</mgrwt>
<rwgt>
<wgt id='morphing_basis_vector_1'> +2.3122655e-04 </wgt>
<wgt id='morphing_basis_vector_2'> +1.2990090e-04 </wgt>
<wgt id='morphing_basis_vector_3'> +1.5739625e-04 </wgt>
<wgt id='morphing_basis_vector_4'> +4.6323793e-05 </wgt>
<wgt id='morphing_basis_vector_5'> +6.1057566e-05 </wgt>
</rwgt>
</event>
<event>
 4      1 +1.9425900e-05 4.52004800e+02 7.81860800e-03 9.51417900e-02
        2 -1    0    0  501    0 +0.0000000000e+00 +0.0000000000e+00 +1.0158823335e+03 1.0158823335e+03 0.0000000000e+00 0.0000e+00 1.0000e+00
       -2 -1    0    0    0  501 -0.0000000000e+00 -0.0000000000e+00 -5.0278549891e+01 5.0278549891e+01 0.0000000000e+00 0.0000e+00 -1.0000e+00
      -13  1    1    2    0    0 +8.5127222691e+01 +1.2120681760e+02 +8.0159374750e+01 1.6841396034e+02 0.0000000000e+00 0.0000e+00 -1.0000e+00
       13  1    1    2    0    0 -8.5127222691e+01 -1.2120681760e+02 +8.8544440885e+02 8.9774692305e+02 0.0000000000e+00 0.0000e+00 1.0000e+00
<mgrwt>
<rscale>  0 0.45200483E+03</rscale>
<asrwt>0</asrwt>
<pdfrwt beam="1">  1        2 0.15628957E+00 0.45200483E+03</pdfrwt>
<pdfrwt beam="2">  1       -2 0.77351623E-02 0.45200483E+03</pdfrwt>
<totfact> 0.27709343E+03</totfact>
</mgrwt>
<rwgt>
<wgt id='morphing_basis_vector_1'> +2.1516410e-04 </wgt>
<wgt id='morphing_basis_vector_2'> +1.1678619e-04 </wgt>
<wgt id='morphing_basis_vector_3'> +1.4657592e-04 </wgt>
<wgt id='morphing_basis_vector_4'> +4.1441497e-05 </wgt>
<wgt id='morphing_basis_vector_5'> +5.2682005e-05 </wgt>
</rwgt>
</event>
<event>
 4      1 +1.9425900e-05 5.08569800e+02 7.81860800e-03 9.38079400e-02
        2 -1    0    0  501    0 +0.0000000000e+00 +0.0000000000e+00 +9.7750632490e+01 9.7750632490e+01 0.0000000000e+00 0.0000e+00 -1.0000e+00
       -2 -1    0    0    0  501 -0.0000000000e+00 -0.0000000000e+00 -6.6148744123e+02 6.6148744123e+02 0.0000000000e+00 0.0000e+00 1.0000e+00
      -13  1    1    2    0    0 +1.2860931541e+02 +5.0267547854e+01 -6.0063991071e+02 6.1630794633e+02 0.0000000000e+00 0.0000e+00 1.0000e+00
       13  1    1    2    0    0 -1.2860931541e+02 -5.0267547854e+01 +3.6903101971e+01 1.4293012738e+02 0.0000000000e+00 0.0000e+00 -1.0000e+00
<mgrwt>
<rscale>  0 0.50856982E+03</rscale>
<asrwt>0</asrwt>
<pdfrwt beam="1">  1        2 0.15038558E-01 0.50856982E+03</pdfrwt>
<pdfrwt beam="2">  1       -2 0.10176730E+00 0.50856982E+03</pdfrwt>
<totfact> 0.40796901E+02</totfact>
</mgrwt>
<rwgt>
<wgt id='morphing_basis_vector_1'> +3.0424390e-04 </wgt>
<wgt id='morphing_basis_vector_2'> +1.6758767e-04 </wgt>
<wgt id='morphing_basis_vector_3'> +2.2113812e-04 </wgt>
<wgt id='morphing_basis_vector_4'> +7.6719184e-05 </wgt>
<wgt id='morphing_basis_vector_5'> +1.0834245e-04 </wgt>
</rwgt>
</event>
<event>
 4      1 +1.9425900e-05 5.12372800e+02 7.81860800e-03 9.37249900e-02
        2 -1    0    0  501    0 +0.0000000000e+00 +0.0000000000e+00 +2.4239078209e+02 2.4239078209e+02 0.0000000000e+00 0.0000e+00 -1.0000e+00
       -2 -1    0    0    0  501 -0.0000000000e+00 -0.0000000000e+00 -2.7076717616e+02 2.7076717616e+02 0.0000000000e+00 0.0000e+00 1.0000e+00
      -13  1    1    2    0    0 -3.7995626405e+01 -2.1435901293e+02 -1.4944333818e+02 2.6405826133e+02 0.0000000000e+00 0.0000e+00 1.0000e+00
       13  1    1    2    0    0 +3.7995626405e+01 +2.1435901293e+02 +1.2106694411e+02 2.4909969692e+02 0.0000000000e+00 0.0000e+00 -1.0000e+00
<mgrwt>
<rscale>  0 0.51237278E+03</rscale>
<asrwt>0</asrwt>
<pdfrwt beam="1">  1        2 0.37290890E-01 0.51237278E+03</pdfrwt>
<pdfrwt beam="2">  1       -2 0.41656488E-01 0.51237278E+03</pdfrwt>
<totfact> 0.91959507E+02</totfact>
</mgrwt>
<rwgt>
<wgt id='morphing_basis_vector_1'> +3.1219976e-04 </wgt>
<wgt id='morphing_basis_vector_2'> +1.7472584e-04 </wgt>
<wgt id='morphing_basis_vector_3'> +2.2676598e-04 </wgt>
<wgt id='morphing_basis_vector_4'> +7.9266923e-05 </wgt>
<wgt id='morphing_basis_vector_5'> +1.1311561e-04 </wgt>
</rwgt>
</event>
<event>
 4      1 +1.9425900e-05 4.61939000e+02 7.81860800e-03 9.48929900e-02
        2 -1    0    0  501    0 +0.0000000000e+00 +0.0000000000e+00 +3.0393252116e+02 3.0393252116e+02 0.0000000000e+00 0.0000e+00 -1.0000e+00
       -2 -1    0    0    0  501 -0.0000000000e+00 -0.0000000000e+00 -1.7552220285e+02 1.7552220285e+02 0.0000000000e+00 0.0000e+00 1.0000e+00
      -13  1    1    2    0    0 +1.0265283921e+02 +1.9143883551e+02 -1.7259641869e+01 2.1790899104e+02 0.0000000000e+00 0.0000e+00 1.0000e+00
       13  1    1    2    0    0 -1.0265283921e+02 -1.9143883551e+02 +1.4566996018e+02 2.6154573298e+02 0.0000000000e+00 0.0000e+00 -1.0000e+00
<mgrwt>
<rscale>  0 0.46193898E+03</rscale>
<asrwt>0</asrwt>
<pdfrwt beam="1">  1        2 0.46758849E-01 0.46193898E+03</pdfrwt>
<pdfrwt beam="2">  1       -2 0.27003416E-01 0.46193898E+03</pdfrwt>
<totfact> 0.15462600E+03</totfact>
</mgrwt>
<rwgt>
<wgt id='morphing_basis_vector_1'> +2.3077615e-04 </wgt>
<wgt id='morphing_basis_vector_2'> +1.3011664e-04 </wgt>
<wgt id='morphing_basis_vector_3'> +1.5675812e-04 </wgt>
<wgt id='morphing_basis_vector_4'> +4.6047879e-05 </wgt>
<wgt id='morphing_basis_vector_5'> +6.0695568e-05 </wgt>
</rwgt>
</event>
<event>
 4      1 +1.9425900e-05 5.18809500e+02 7.81860800e-03 9.35863300e-02
        2 -1    0    0  501    0 +0.0000000000e+00 +0.0000000000e+00 +2.3399455580e+02 2.3399455580e+02 0.0000000000e+00 0.0000e+00 -1.0000e+00
       -2 -1    0    0    0  501 -0.0000000000e+00 -0.0000000000e+00 -2.8757436454e+02 2.8757436454e+02 0.0000000000e+00 0.0000e+00 1.0000e+00
      -13  1    1    2    0    0 +1.7657381559e-01 +5.9226234652e+01 -2.8068622959e+02 2.8686675920e+02 0.0000000000e+00 0.0000e+00 1.0000e+00
       13  1    1    2    0    0 -1.7657381559e-01 -5.9226234652e+01 +2.2710642086e+02 2.3470216114e+02 0.0000000000e+00 0.0000e+00 -1.0000e+00
<mgrwt>
<rscale>  0 0.51880954E+03</rscale>
<asrwt>0</asrwt>
<pdfrwt beam="1">  1        2 0.35999162E-01 0.51880954E+03</pdfrwt>
<pdfrwt beam="2">  1       -2 0.44242210E-01 0.51880954E+03</pdfrwt>
<totfact> 0.85476393E+02</totfact>
</mgrwt>
<rwgt>
<wgt id='morphing_basis_vector_1'> +3.2320382e-04 </wgt>
<wgt id='morphing_basis_vector_2'> +1.7842216e-04 </wgt>
<wgt id='morphing_basis_vector_3'> +2.3756809e-04 </wgt>
<wgt id='morphing_basis_vector_4'> +8.5025130e-05 </wgt>
<wgt id='morphing_basis_vector_5'> +1.2141053e-04 </wgt>
</rwgt>
</event>
<event>
 4      1 +1.9425900e-05 4.61047700e+02 7.81860800e-03 9.49150400e-02
        2 -1    0    0  501    0 +0.0000000000e+00 +0.0000000000e+00 +9.3792147920e+01 9.3792147920e+01 0.0000000000e+00 0.0000e+00 1.0000e+00
       -2 -1    0    0    0  501 -0.0000000000e+00 -0.0000000000e+00 -5.6658531697e+02 5.6658531697e+02 0.0000000000e+00 0.0000e+00 -1.0000e+00
      -13  1    1    2    0    0 -1.4778209211e+02 +5.7908434800e+01 +3.0585788804e+00 1.5875228652e+02 0.0000000000e+00 0.0000e+00 -1.0000e+00
       13  1    1    2    0    0 +1.4778209211e+02 -5.7908434800e+01 -4.7585174793e+02 5.0162517837e+02 0.0000000000e+00 0.0000e+00 1.0000e+00
<mgrwt>
<rscale>  0 0.46104774E+03</rscale>
<asrwt>0</asrwt>
<pdfrwt beam="1">  1        2 0.14429561E-01 0.46104774E+03</pdfrwt>
<pdfrwt beam="2">  1       -2 0.87166972E-01 0.46104774E+03</pdfrwt>
<totfact> 0.61761120E+02</totfact>
</mgrwt>
<rwgt>
<wgt id='morphing_basis_vector_1'> +2.9242913e-04 </wgt>
<wgt id='morphing_basis_vector_2'> +3.2416541e-04 </wgt>
<wgt id='morphing_basis_vector_3'> +1.1730640e-04 </wgt>
<wgt id='morphing_basis_vector_4'> +3.1181096e-05 </wgt>
<wgt id='morphing_basis_vector_5'> +6.3263813e-05 </wgt>
</rwgt>
</event>
<event>
 4      1 +1.9425900e-05 4.50420400e+02 7.81860800e-03 9.51820900e-02
        2 -1    0    0  501    0 +0.0000000000e+00 +0.0000000000e+00 +5.1403115990e+01 5.1403115990e+01 0.0000000000e+00 0.0000e+00 -1.0000e+00
       -2 -1    0    0    0  501 -0.0000000000e+00 -0.0000000000e+00 -9.8670352714e+02 9.8670352714e+02 0.0000000000e+00 0.0000e+00 1.0000e+00
      -13  1    1    2    0    0 +1.9932308486e+01 +2.1361158411e+02 -6.2552864159e+02 6.6129667113e+02 0.0000000000e+00 0.0000e+00 1.0000e+00
       13  1    1    2    0    0 -1.9932308486e+01 -2.1361158411e+02 -3.0977176955e+02 3.7680997200e+02 0.0000000000e+00 0.0000e+00 -1.0000e+00
<mgrwt>
<rscale>  0 0.45042041E+03</rscale>
<asrwt>0</asrwt>
<pdfrwt beam="1">  1        2 0.79081724E-02 0.45042041E+03</pdfrwt>
<pdfrwt beam="2">  1       -2 0.15180053E+00 0.45042041E+03</pdfrwt>
<totfact> 0.32372275E+02</totfact>
</mgrwt>
<rwgt>
<wgt id='morphing_basis_vector_1'> +2.1497081e-04 </wgt>
<wgt id='morphing_basis_vector_2'> +1.2159598e-04 </wgt>
<wgt id='morphing_basis_vector_3'> +1.4354874e-04 </wgt>
<wgt id='morphing_basis_vector_4'> +4.0332303e-05 </wgt>
<wgt id='morphing_basis_vector_5'> +5.1593266e-05 </wgt>
</rwgt>
</event>
<event>
 4      1 +1.9425900e-05 4.95623600e+02 7.81860800e-03 9.40962600e-02
        2 -1    0    0  501    0 +0.0000000000e+00 +0.0000000000e+00 +2.0765906769e+02 2.0765906769e+02 0.0000000000e+00 0.0000e+00 1.0000e+00
       -2 -1    0    0    0  501 -0.0000000000e+00 -0.0000000000e+00 -2.9572843321e+02 2.9572843321e+02 0.0000000000e+00 0.0000e+00 -1.0000e+00
      -13  1    1    2    0    0 -1.1594350523e+02 -1.0809085710e+02 -2.3750261203e+02 2.8554162659e+02 0.0000000000e+00 0.0000e+00 -1.0000e+00
       13  1    1    2    0    0 +1.1594350523e+02 +1.0809085710e+02 +1.4943324651e+02 2.1784587432e+02 0.0000000000e+00 0.0000e+00 1.0000e+00
<mgrwt>
<rscale>  0 0.49562361E+03</rscale>
<asrwt>0</asrwt>
<pdfrwt beam="1">  1        2 0.31947549E-01 0.49562361E+03</pdfrwt>
<pdfrwt beam="2">  1       -2 0.45496682E-01 0.49562361E+03</pdfrwt>
<totfact> 0.92853260E+02</totfact>
</mgrwt>
<rwgt>
<wgt id='morphing_basis_vector_1'> +2.8160130e-04 </wgt>
<wgt id='morphing_basis_vector_2'> +1.5470839e-04 </wgt>
<wgt id='morphing_basis_vector_3'> +2.0171313e-04 </wgt>
<wgt id='morphing_basis_vector_4'> +6.7113628e-05 </wgt>
<wgt id='morphing_basis_vector_5'> +9.3221353e-05 </wgt>
</rwgt>
</event>
<event>
 4      1 +1.9425900e-05 4.92720800e+02 7.81860800e-03 9.41622100e-02
        2 -1    0    0  501    0 +0.0000000000e+00 +0.0000000000e+00 +1.3632560622e+02 1.3632560622e+02 0.0000000000e+00 0.0000e+00 -1.0000e+00
       -2 -1    0    0    0  501 -0.0000000000e+00 -0.0000000000e+00 -4.4520952671e+02 4.4520952671e+02 0.0000000000e+00 0.0000e+00 1.0000e+00
      -13  1    1    2    0    0 +1.6239768588e+02 +1.2226791636e+00 -3.7308821770e+02 4.0690210310e+02 0.0000000000e+00 0.0000e+00 1.0000e+00
       13  1    1    2    0    0 -1.6239768588e+02 -1.2226791636e+00 +6.4204297210e+01 1.7463302982e+02 0.0000000000e+00 0.0000e+00 -1.0000e+00
<mgrwt>
<rscale>  0 0.49272085E+03</rscale>
<asrwt>0</asrwt>
<pdfrwt beam="1">  1        2 0.20973170E-01 0.49272085E+03</pdfrwt>
<pdfrwt beam="2">  1       -2 0.68493772E-01 0.49272085E+03</pdfrwt>
<totfact> 0.66895654E+02</totfact>
</mgrwt>
<rwgt>
<wgt id='morphing_basis_vector_1'> +2.7672966e-04 </wgt>
<wgt id='morphing_basis_vector_2'> +1.5196635e-04 </wgt>
<wgt id='morphing_basis_vector_3'> +1.9755393e-04 </wgt>
<wgt id='morphing_basis_vector_4'> +6.5088990e-05 </wgt>
<wgt id='morphing_basis_vector_5'> +9.0037863e-05 </wgt>
</rwgt>
</event>
<event>
 4      1 +1.9425900e-05 4.53480300e+02 7.81860800e-03 9.51044100e-02
        2 -1    0    0  501    0 +0.0000000000e+00 +0.0000000000e+00 +1.8280122577e+02 1.8280122577e+02 0.0000000000e+00 0.0000e+00 -1.0000e+00
       -2 -1    0    0    0  501 -0.0000000000e+00 -0.0000000000e+00 -2.8124043243e+02 2.8124043243e+02 0.0000000000e+00 0.0000e+00 1.0000e+00
      -13  1    1    2    0    0 -1.0323857981e+02 -1.0228858526e+02 -2.2731296319e+02 2.6980056018e+02 0.0000000000e+00 0.0000e+00 1.0000e+00
       13  1    1    2    0    0 +1.0323857981e+02 +1.0228858526e+02 +1.2887375654e+02 1.9424109802e+02 0.0000000000e+00 0.0000e+00 -1.0000e+00
<mgrwt>
<rscale>  0 0.45348030E+03</rscale>
<asrwt>0</asrwt>
<pdfrwt beam="1">  1        2 0.28123266E-01 0.45348030E+03</pdfrwt>
<pdfrwt beam="2">  1       -2 0.43267759E-01 0.45348030E+03</pdfrwt>
<totfact> 0.11812949E+03</totfact>
</mgrwt>
<rwgt>
<wgt id='morphing_basis_vector_1'> +2.1715610e-04 </wgt>
<wgt id='morphing_basis_vector_2'> +1.1786787e-04 </wgt>
<wgt id='morphing_basis_vector_3'> +1.4821352e-04 </wgt>
<wgt id='morphing_basis_vector_4'> +4.2161764e-05 </wgt>
<wgt id='morphing_basis_vector_5'> +5.3811835e-05 </wgt>
</rwgt>
</event>
<event>
 4      1 +1.9425900e-05 4.52794400e+02 7.81860800e-03 9.51217700e-02
        2 -1    0    0  501    0 +0.0000000000e+00 +0.0000000000e+00 +2.5473819552e+02 2.5473819552e+02 0.0000000000e+00 0.0000e+00 -1.0000e+00
       -2 -1    0    0    0  501 -0.0000000000e+00 -0.0000000000e+00 -2.0120928438e+02 2.0120928438e+02 0.0000000000e+00 0.0000e+00 1.0000e+00
      -13  1    1    2    0    0 -1.5146290840e+01 +5.4937031052e+01 -1.9386906991e+02 2.0207103646e+02 0.0000000000e+00 0.0000e+00 1.0000e+00
       13  1    1    2    0    0 +1.5146290840e+01 -5.4937031052e+01 +2.4739798106e+02 2.5387644345e+02 0.0000000000e+00 0.0000e+00 -1.0000e+00
<mgrwt>
<rscale>  0 0.45279439E+03</rscale>
<asrwt>0</asrwt>
<pdfrwt beam="1">  1        2 0.39190492E-01 0.45279439E+03</pdfrwt>
<pdfrwt beam="2">  1       -2 0.30955275E-01 0.45279439E+03</pdfrwt>
<totfact> 0.14856866E+03</totfact>
</mgrwt>
<rwgt>
<wgt id='morphing_basis_vector_1'> +2.1608997e-04 </wgt>
<wgt id='morphing_basis_vector_2'> +1.1693668e-04 </wgt>
<wgt id='morphing_basis_vector_3'> +1.4754068e-04 </wgt>
<wgt id='morphing_basis_vector_4'> +4.1852053e-05 </wgt>
<wgt id='morphing_basis_vector_5'> +5.3277070e-05 </wgt>
</rwgt>
</event>
<event>
 4      1 +1.9425900e-05 4.96020600e+02 7.81860800e-03 9.40872800e-02
        2 -1    0    0  501    0 +0.0000000000e+00 +0.0000000000e+00 +2.1468969912e+02 2.1468969912e+02 0.0000000000e+00 0.0000e+00 -1.0000e+00
       -2 -1    0    0    0  501 -0.0000000000e+00 -0.0000000000e+00 -2.8650242450e+02 2.8650242450e+02 0.0000000000e+00 0.0000e+00 1.0000e+00
      -13  1    1    2    0    0 -1.9811082176e+02 -2.3876573116e+01 -1.8472097749e+02 2.7191878929e+02 0.0000000000e+00 0.0000e+00 1.0000e+00
       13  1    1    2    0    0 +1.9811082176e+02 +2.3876573116e+01 +1.1290825210e+02 2.2927333433e+02 0.0000000000e+00 0.0000e+00 -1.0000e+00
<mgrwt>
<rscale>  0 0.49602064E+03</rscale>
<asrwt>0</asrwt>
<pdfrwt beam="1">  1        2 0.33029185E-01 0.49602064E+03</pdfrwt>
<pdfrwt beam="2">  1       -2 0.44077296E-01 0.49602064E+03</pdfrwt>
<totfact> 0.94927576E+02</totfact>
</mgrwt>
<rwgt>
<wgt id='morphing_basis_vector_1'> +2.8276303e-04 </wgt>
<wgt id='morphing_basis_vector_2'> +1.5660731e-04 </wgt>
<wgt id='morphing_basis_vector_3'> +2.0207595e-04 </wgt>
<wgt id='morphing_basis_vector_4'> +6.7206640e-05 </wgt>
<wgt id='morphing_basis_vector_5'> +9.3682902e-05 </wgt>
</rwgt>
</event>
<event>
 4      1 +1.9425900e-05 4.62206400e+02 7.81860800e-03 9.48863900e-02
        2 -1    0    0  501    0 +0.0000000000e+00 +0.0000000000e+00 +1.1311229060e+03 1.1311229060e+03 0.0000000000e+00 0.0000e+00 -1.0000e+00
       -2 -1    0    0    0  501 -0.0000000000e+00 -0.0000000000e+00 -4.7217403441e+01 4.7217403441e+01 0.0000000000e+00 0.0000e+00 1.0000e+00
      -13  1    1    2    0    0 +1.8296042283e+02 +1.6559648303e+01 +1.8449396551e+02 2.6035890916e+02 0.0000000000e+00 0.0000e+00 1.0000e+00
       13  1    1    2    0    0 -1.8296042283e+02 -1.6559648303e+01 +8.9941153707e+02 9.1798140029e+02 0.0000000000e+00 0.0000e+00 -1.0000e+00
<mgrwt>
<rscale>  0 0.46220639E+03</rscale>
<asrwt>0</asrwt>
<pdfrwt beam="1">  1        2 0.17401889E+00 0.46220639E+03</pdfrwt>
<pdfrwt beam="2">  1       -2 0.72642168E-02 0.46220639E+03</pdfrwt>
<totfact> 0.26088408E+03</totfact>
</mgrwt>
<rwgt>
<wgt id='morphing_basis_vector_1'> +2.2970837e-04 </wgt>
<wgt id='morphing_basis_vector_2'> +1.2584404e-04 </wgt>
<wgt id='morphing_basis_vector_3'> +1.5795008e-04 </wgt>
<wgt id='morphing_basis_vector_4'> +4.6526899e-05 </wgt>
<wgt id='morphing_basis_vector_5'> +6.0842998e-05 </wgt>
</rwgt>
</event>
<event>
 4      1 +1.9425900e-05 4.52079600e+02 7.81860800e-03 9.51398900e-02
        2 -1    0    0  501    0 +0.0000000000e+00 +0.0000000000e+00 +1.7490192946e+03 1.7490192946e+03 0.0000000000e+00 0.0000e+00 -1.0000e+00
       -2 -1    0    0    0  501 -0.0000000000e+00 -0.0000000000e+00 -2.9212932919e+01 2.9212932919e+01 0.0000000000e+00 0.0000e+00 1.0000e+00
      -13  1    1    2    0    0 +1.3133498887e+02 -1.7323590081e+02 +1.1034731943e+03 1.1246833542e+03 0.0000000000e+00 0.0000e+00 1.0000e+00
       13  1    1    2    0    0 -1.3133498887e+02 +1.7323590081e+02 +6.1633316738e+02 6.5354887334e+02 0.0000000000e+00 0.0000e+00 -1.0000e+00
<mgrwt>
<rscale>  0 0.45207957E+03</rscale>
<asrwt>0</asrwt>
<pdfrwt beam="1">  1        2 0.26907981E+00 0.45207957E+03</pdfrwt>
<pdfrwt beam="2">  1       -2 0.44942987E-02 0.45207957E+03</pdfrwt>
<totfact> 0.24714301E+03</totfact>
</mgrwt>
<rwgt>
<wgt id='morphing_basis_vector_1'> +2.3313391e-04 </wgt>
<wgt id='morphing_basis_vector_2'> +1.7208956e-04 </wgt>
<wgt id='morphing_basis_vector_3'> +1.3490160e-04 </wgt>
<wgt id='morphing_basis_vector_4'> +3.8124849e-05 </wgt>
<wgt id='morphing_basis_vector_5'> +5.3723408e-05 </wgt>
</rwgt>
</event>
<event>
 4      1 +1.9425900e-05 4.49912400e+02 7.81860800e-03 9.51950500e-02
        2 -1    0    0  501    0 +0.0000000000e+00 +0.0000000000e+00 +1.8583598684e+02 1.8583598684e+02 0.0000000000e+00 0.0000e+00 -1.0000e+00
       -2 -1    0    0    0  501 -0.0000000000e+00 -0.0000000000e+00 -2.7231163333e+02 2.7231163333e+02 0.0000000000e+00 0.0000e+00 1.0000e+00
      -13  1    1    2    0    0 +1.6115738677e+02 -2.0061557658e+01 -2.0175060288e+02 2.5899319522e+02 0.0000000000e+00 0.0000e+00 1.0000e+00
       13  1    1    2    0    0 -1.6115738677e+02 +2.0061557658e+01 +1.1527495640e+02 1.9915442495e+02 0.0000000000e+00 0.0000e+00 -1.0000e+00
<mgrwt>
<rscale>  0 0.44991244E+03</rscale>
<asrwt>0</asrwt>
<pdfrwt beam="1">  1        2 0.28590152E-01 0.44991244E+03</pdfrwt>
<pdfrwt beam="2">  1       -2 0.41894097E-01 0.44991244E+03</pdfrwt>
<totfact> 0.12310493E+03</totfact>
</mgrwt>
<rwgt>
<wgt id='morphing_basis_vector_1'> +2.1244574e-04 </wgt>
<wgt id='morphing_basis_vector_2'> +1.1551479e-04 </wgt>
<wgt id='morphing_basis_vector_3'> +1.4422676e-04 </wgt>
<wgt id='morphing_basis_vector_4'> +4.0423175e-05 </wgt>
<wgt id='morphing_basis_vector_5'> +5.1110992e-05 </wgt>
</rwgt>
</event>
<event>
 4      1 +1.9425900e-05 4.52107000e+02 7.81860800e-03 9.51391900e-02
        2 -1    0    0  501    0 +0.0000000000e+00 +0.0000000000e+00 +4.1805131457e+02 4.1805131457e+02 0.0000000000e+00 0.0000e+00 1.0000e+00
       -2 -1    0    0    0  501 -0.0000000000e+00 -0.0000000000e+00 -1.2223423294e+02 1.2223423294e+02 0.0000000000e+00 0.0000e+00 -1.0000e+00
      -13  1    1    2    0    0 -1.8759433035e+01 -1.8816816732e+02 +2.9592467444e+02 3.5118455043e+02 0.0000000000e+00 0.0000e+00 1.0000e+00
       13  1    1    2    0    0 +1.8759433035e+01 +1.8816816732e+02 -1.0759281403e-01 1.8910099708e+02 0.0000000000e+00 0.0000e+00 -1.0000e+00
<mgrwt>
<rscale>  0 0.45210699E+03</rscale>
<asrwt>0</asrwt>
<pdfrwt beam="1">  1        2 0.64315586E-01 0.45210699E+03</pdfrwt>
<pdfrwt beam="2">  1       -2 0.18805267E-01 0.45210699E+03</pdfrwt>
<totfact> 0.19872469E+03</totfact>
</mgrwt>
<rwgt>
<wgt id='morphing_basis_vector_1'> +2.5652955e-04 </wgt>
<wgt id='morphing_basis_vector_2'> +2.4433133e-04 </wgt>
<wgt id='morphing_basis_vector_3'> +1.1956932e-04 </wgt>
<wgt id='morphing_basis_vector_4'> +3.3750004e-05 </wgt>
<wgt id='morphing_basis_vector_5'> +5.5030973e-05 </wgt>
</rwgt>
</event>
<event>
 4      1 +1.9425900e-05 4.33045000e+02 7.81860800e-03 9.56358400e-02
        2 -1    0    0  501    0 +0.0000000000e+00 +0.0000000000e+00 +5.4221746239e+02 5.4221746239e+02 0.0000000000e+00 0.0000e+00 -1.0000e+00
       -2 -1    0    0    0  501 -0.0000000000e+00 -0.0000000000e+00 -8.6463436116e+01 8.6463436116e+01 0.0000000000e+00 0.0000e+00 1.0000e+00
      -13  1    1    2    0    0 +1.2801919325e+02 -2.3433548016e+01 -2.3341560449e+01 1.3222281746e+02 0.0000000000e+00 0.0000e+00 1.0000e+00
       13  1    1    2    0    0 -1.2801919325e+02 +2.3433548016e+01 +4.7909558672e+02 4.9645808104e+02 0.0000000000e+00 0.0000e+00 -1.0000e+00
<mgrwt>
<rscale>  0 0.43304496E+03</rscale>
<asrwt>0</asrwt>
<pdfrwt beam="1">  1        2 0.83418069E-01 0.43304496E+03</pdfrwt>
<pdfrwt beam="2">  1       -2 0.13302067E-01 0.43304496E+03</pdfrwt>
<totfact> 0.25906980E+03</totfact>
</mgrwt>
<rwgt>
<wgt id='morphing_basis_vector_1'> +1.9068585e-04 </wgt>
<wgt id='morphing_basis_vector_2'> +1.0296049e-04 </wgt>
<wgt id='morphing_basis_vector_3'> +1.2705908e-04 </wgt>
<wgt id='morphing_basis_vector_4'> +3.3079223e-05 </wgt>
<wgt id='morphing_basis_vector_5'> +3.9499173e-05 </wgt>
</rwgt>
</event>
<event>
 4      1 +1.9425900e-05 4.99913200e+02 7.81860800e-03 9.39996900e-02
        2 -1    0    0  501    0 +0.0000000000e+00 +0.0000000000e+00 +8.1845078847e+02 8.1845078847e+02 0.0000000000e+00 0.0000e+00 1.0000e+00
       -2 -1    0    0    0  501 -0.0000000000e+00 -0.0000000000e+00 -7.6337258551e+01 7.6337258551e+01 0.0000000000e+00 0.0000e+00 -1.0000e+00
      -13  1    1    2    0    0 +3.4519291197e+01 +2.4693899194e+02 +3.3965242115e+02 4.2134809172e+02 0.0000000000e+00 0.0000e+00 -1.0000e+00
       13  1    1    2    0    0 -3.4519291197e+01 -2.4693899194e+02 +4.0246110877e+02 4.7343995530e+02 0.0000000000e+00 0.0000e+00 1.0000e+00
<mgrwt>
<rscale>  0 0.49991315E+03</rscale>
<asrwt>0</asrwt>
<pdfrwt beam="1">  1        2 0.12591550E+00 0.49991315E+03</pdfrwt>
<pdfrwt beam="2">  1       -2 0.11744194E-01 0.49991315E+03</pdfrwt>
<totfact> 0.19324434E+03</totfact>
</mgrwt>
<rwgt>
<wgt id='morphing_basis_vector_1'> +2.9616011e-04 </wgt>
<wgt id='morphing_basis_vector_2'> +1.8128145e-04 </wgt>
<wgt id='morphing_basis_vector_3'> +2.0500595e-04 </wgt>
<wgt id='morphing_basis_vector_4'> +6.7305975e-05 </wgt>
<wgt id='morphing_basis_vector_5'> +9.8353245e-05 </wgt>
</rwgt>
</event>
<event>
 4      1 +1.9425900e-05 4.50728800e+02 7.81860800e-03 9.51742300e-02
        2 -1    0    0  501    0 +0.0000000000e+00 +0.0000000000e+00 +9.6498150536e+02 9.6498150536e+02 0.0000000000e+00 0.0000e+00 -1.0000e+00
       -2 -1    0    0    0  501 -0.0000000000e+00 -0.0000000000e+00 -5.2632214529e+01 5.2632214529e+01 0.0000000000e+00 0.0000e+00 1.0000e+00
      -13  1    1    2    0    0 +4.4544362727e+01 -2.1684602421e+02 +3.6084924946e+02 4.2334215394e+02 0.0000000000e+00 0.0000e+00 1.0000e+00
       13  1    1    2    0    0 -4.4544362727e+01 +2.1684602421e+02 +5.5150004138e+02 5.9427156596e+02 0.0000000000e+00 0.0000e+00 -1.0000e+00
<mgrwt>
<rscale>  0 0.45072880E+03</rscale>
<asrwt>0</asrwt>
<pdfrwt beam="1">  1        2 0.14845868E+00 0.45072880E+03</pdfrwt>
<pdfrwt beam="2">  1       -2 0.80972645E-02 0.45072880E+03</pdfrwt>
<totfact> 0.27739468E+03</totfact>
</mgrwt>
<rwgt>
<wgt id='morphing_basis_vector_1'> +2.1668318e-04 </wgt>
<wgt id='morphing_basis_vector_2'> +1.2584057e-04 </wgt>
<wgt id='morphing_basis_vector_3'> +1.4302420e-04 </wgt>
<wgt id='morphing_basis_vector_4'> +4.0241083e-05 </wgt>
<wgt id='morphing_basis_vector_5'> +5.1896612e-05 </wgt>
</rwgt>
</event>
<event>
 4      1 +1.9425900e-05 4.49081300e+02 7.81860800e-03 9.52162900e-02
        2 -1    0    0  501    0 +0.0000000000e+00 +0.0000000000e+00 +3.6397995242e+02 3.6397995242e+02 0.0000000000e+00 0.0000e+00 -1.0000e+00
       -2 -1    0    0    0  501 -0.0000000000e+00 -0.0000000000e+00 -1.3852002307e+02 1.3852002307e+02 0.0000000000e+00 0.0000e+00 1.0000e+00
      -13  1    1    2    0    0 -5.5160978576e+00 +7.6561758505e+01 -1.2338294859e+02 1.4531167264e+02 0.0000000000e+00 0.0000e+00 1.0000e+00
       13  1    1    2    0    0 +5.5160978576e+00 -7.6561758505e+01 +3.4884287794e+02 3.5718830285e+02 0.0000000000e+00 0.0000e+00 -1.0000e+00
<mgrwt>
<rscale>  0 0.44908134E+03</rscale>
<asrwt>0</asrwt>
<pdfrwt beam="1">  1        2 0.55996915E-01 0.44908134E+03</pdfrwt>
<pdfrwt beam="2">  1       -2 0.21310773E-01 0.44908134E+03</pdfrwt>
<totfact> 0.18863569E+03</totfact>
</mgrwt>
<rwgt>
<wgt id='morphing_basis_vector_1'> +2.1109320e-04 </wgt>
<wgt id='morphing_basis_vector_2'> +1.1414511e-04 </wgt>
<wgt id='morphing_basis_vector_3'> +1.4349144e-04 </wgt>
<wgt id='morphing_basis_vector_4'> +4.0073579e-05 </wgt>
<wgt id='morphing_basis_vector_5'> +5.0479915e-05 </wgt>
</rwgt>
</event>
<event>
 4      1 +1.9425900e-05 4.98935500e+02 7.81860800e-03 9.40216100e-02
        2 -1    0    0  501    0 +0.0000000000e+00 +0.0000000000e+00 +2.0119952798e+03 2.0119952798e+03 0.0000000000e+00 0.0000e+00 1.0000e+00
       -2 -1    0    0    0  501 -0.0000000000e+00 -0.0000000000e+00 -3.0931563804e+01 3.0931563804e+01 0.0000000000e+00 0.0000e+00 -1.0000e+00
      -13  1    1    2    0    0 +2.1095242496e+02 -1.0363673067e+02 +6.4813505886e+02 6.8943495129e+02 0.0000000000e+00 0.0000e+00 -1.0000e+00
       13  1    1    2    0    0 -2.1095242496e+02 +1.0363673067e+02 +1.3329286572e+03 1.3534918923e+03 0.0000000000e+00 0.0000e+00 1.0000e+00
<mgrwt>
<rscale>  0 0.49893551E+03</rscale>
<asrwt>0</asrwt>
<pdfrwt beam="1">  1        2 0.30953763E+00 0.49893551E+03</pdfrwt>
<pdfrwt beam="2">  1       -2 0.47587037E-02 0.49893551E+03</pdfrwt>
<totfact> 0.16302017E+03</totfact>
</mgrwt>
<rwgt>
<wgt id='morphing_basis_vector_1'> +2.8962670e-04 </wgt>
<wgt id='morphing_basis_vector_2'> +1.6527805e-04 </wgt>
<wgt id='morphing_basis_vector_3'> +2.0555232e-04 </wgt>
<wgt id='morphing_basis_vector_4'> +6.8541304e-05 </wgt>
<wgt id='morphing_basis_vector_5'> +9.7041160e-05 </wgt>
</rwgt>
</event>
<event>
 4      1 +1.9425900e-05 5.19777600e+02 7.81860800e-03 9.35656600e-02
        2 -1    0    0  501    0 +0.0000000000e+00 +0.0000000000e+00 +7.0198494842e+01 7.0198494842e+01 0.0000000000e+00 0.0000e+00 -1.0000e+00
       -2 -1    0    0    0  501 -0.0000000000e+00 -0.0000000000e+00 -9.6216002359e+02 9.6216002359e+02 0.0000000000e+00 0.0000e+00 1.0000e+00
      -13  1    1    2    0    0 -1.4897714183e+02 +5.5045966910e+01 -8.5455901584e+02 8.6919236008e+02 0.0000000000e+00 0.0000e+00 1.0000e+00
       13  1    1    2    0    0 +1.4897714183e+02 -5.5045966910e+01 -3.7402512904e+01 1.6316615835e+02 0.0000000000e+00 0.0000e+00 -1.0000e+00
<mgrwt>
<rscale>  0 0.51977759E+03</rscale>
<asrwt>0</asrwt>
<pdfrwt beam="1">  1        2 0.10799768E-01 0.51977759E+03</pdfrwt>
<pdfrwt beam="2">  1       -2 0.14802462E+00 0.51977759E+03</pdfrwt>
<totfact> 0.23246288E+02</totfact>
</mgrwt>
<rwgt>
<wgt id='morphing_basis_vector_1'> +3.2521289e-04 </wgt>
<wgt id='morphing_basis_vector_2'> +1.7999634e-04 </wgt>
<wgt id='morphing_basis_vector_3'> +2.3911834e-04 </wgt>
<wgt id='morphing_basis_vector_4'> +8.5763492e-05 </wgt>
<wgt id='morphing_basis_vector_5'> +1.2270398e-04 </wgt>
</rwgt>
</event>
<event>
 4      1 +1.9425900e-05 5.01328100e+02 7.81860800e-03 9.39680600e-02
        2 -1    0    0  501    0 +0.0000000000e+00 +0.0000000000e+00 +2.1903752787e+02 2.1903752787e+02 0.0000000000e+00 0.0000e+00 1.0000e+00
       -2 -1    0    0    0  501 -0.0000000000e+00 -0.0000000000e+00 -2.8685711240e+02 2.8685711240e+02 0.0000000000e+00 0.0000e+00 -1.0000e+00
      -13  1    1    2    0    0 +1.7919961766e+02 +1.2396519228e+02 +9.1124455827e+01 2.3618538972e+02 0.0000000000e+00 0.0000e+00 1.0000e+00
       13  1    1    2    0    0 -1.7919961766e+02 -1.2396519228e+02 -1.5894404036e+02 2.6970925055e+02 0.0000000000e+00 0.0000e+00 -1.0000e+00
<mgrwt>
<rscale>  0 0.50132813E+03</rscale>
<asrwt>0</asrwt>
<pdfrwt beam="1">  1        2 0.33698081E-01 0.50132813E+03</pdfrwt>
<pdfrwt beam="2">  1       -2 0.44131863E-01 0.50132813E+03</pdfrwt>
<totfact> 0.92570608E+02</totfact>
</mgrwt>
<rwgt>
<wgt id='morphing_basis_vector_1'> +3.4032223e-04 </wgt>
<wgt id='morphing_basis_vector_2'> +3.1215447e-04 </wgt>
<wgt id='morphing_basis_vector_3'> +1.9022309e-04 </wgt>
<wgt id='morphing_basis_vector_4'> +5.1395540e-05 </wgt>
<wgt id='morphing_basis_vector_5'> +1.0164046e-04 </wgt>
</rwgt>
</event>
<event>
 4      1 +1.9425900e-05 4.59792600e+02 7.81860800e-03 9.49461900e-02
        2 -1    0    0  501    0 +0.0000000000e+00 +0.0000000000e+00 +2.8650838580e+02 2.8650838580e+02 0.0000000000e+00 0.0000e+00 -1.0000e+00
       -2 -1    0    0    0  501 -0.0000000000e+00 -0.0000000000e+00 -1.8447038327e+02 1.8447038327e+02 0.0000000000e+00 0.0000e+00 1.0000e+00
      -13  1    1    2    0    0 -1.9987585105e+02 -8.6107545756e+01 -2.4860503721e+01 2.1905001692e+02 0.0000000000e+00 0.0000e+00 1.0000e+00
       13  1    1    2    0    0 +1.9987585105e+02 +8.6107545756e+01 +1.2689850625e+02 2.5192875215e+02 0.0000000000e+00 0.0000e+00 -1.0000e+00
<mgrwt>
<rscale>  0 0.45979261E+03</rscale>
<asrwt>0</asrwt>
<pdfrwt beam="1">  1        2 0.44078213E-01 0.45979261E+03</pdfrwt>
<pdfrwt beam="2">  1       -2 0.28380059E-01 0.45979261E+03</pdfrwt>
<totfact> 0.15155982E+03</totfact>
</mgrwt>
<rwgt>
<wgt id='morphing_basis_vector_1'> +2.2785278e-04 </wgt>
<wgt id='morphing_basis_vector_2'> +1.2878031e-04 </wgt>
<wgt id='morphing_basis_vector_3'> +1.5416507e-04 </wgt>
<wgt id='morphing_basis_vector_4'> +4.4913242e-05 </wgt>
<wgt id='morphing_basis_vector_5'> +5.8930326e-05 </wgt>
</rwgt>
</event>
<event>
 4      1 +1.9425900e-05 5.03794400e+02 7.81860800e-03 9.39132100e-02
        2 -1    0    0  501    0 +0.0000000000e+00 +0.0000000000e+00 +1.1105104893e+02 1.1105104893e+02 0.0000000000e+00 0.0000e+00 -1.0000e+00
       -2 -1    0    0    0  501 -0.0000000000e+00 -0.0000000000e+00 -5.7137857859e+02 5.7137857859e+02 0.0000000000e+00 0.0000e+00 1.0000e+00
      -13  1    1    2    0    0 -1.9690544838e+02 +1.8856444433e+01 -4.4142987032e+02 4.8372270105e+02 0.0000000000e+00 0.0000e+00 1.0000e+00
       13  1    1    2    0    0 +1.9690544838e+02 -1.8856444433e+01 -1.8897659338e+01 1.9870692647e+02 0.0000000000e+00 0.0000e+00 -1.0000e+00
<mgrwt>
<rscale>  0 0.50379436E+03</rscale>
<asrwt>0</asrwt>
<pdfrwt beam="1">  1        2 0.17084776E-01 0.50379436E+03</pdfrwt>
<pdfrwt beam="2">  1       -2 0.87904398E-01 0.50379436E+03</pdfrwt>
<totfact> 0.49268736E+02</totfact>
</mgrwt>
<rwgt>
<wgt id='morphing_basis_vector_1'> +2.9619521e-04 </wgt>
<wgt id='morphing_basis_vector_2'> +1.6420138e-04 </wgt>
<wgt id='morphing_basis_vector_3'> +2.1361453e-04 </wgt>
<wgt id='morphing_basis_vector_4'> +7.2865513e-05 </wgt>
<wgt id='morphing_basis_vector_5'> +1.0260502e-04 </wgt>
</rwgt>
</event>
<event>
 4      1 +1.9425900e-05 4.40694800e+02 7.81860800e-03 9.54333500e-02
        2 -1    0    0  501    0 +0.0000000000e+00 +0.0000000000e+00 +6.7545227092e+01 6.7545227092e+01 0.0000000000e+00 0.0000e+00 1.0000e+00
       -2 -1    0    0    0  501 -0.0000000000e+00 -0.0000000000e+00 -7.1882179060e+02 7.1882179060e+02 0.0000000000e+00 0.0000e+00 -1.0000e+00
      -13  1    1    2    0    0 -8.4889584308e+01 -1.3413271309e+02 -5.9833425153e+02 6.1903287700e+02 0.0000000000e+00 0.0000e+00 -1.0000e+00
       13  1    1    2    0    0 +8.4889584308e+01 +1.3413271309e+02 -5.2942311977e+01 1.6733414070e+02 0.0000000000e+00 0.0000e+00 1.0000e+00
<mgrwt>
<rscale>  0 0.44069482E+03</rscale>
<asrwt>0</asrwt>
<pdfrwt beam="1">  1        2 0.10391574E-01 0.44069482E+03</pdfrwt>
<pdfrwt beam="2">  1       -2 0.11058796E+00 0.44069482E+03</pdfrwt>
<totfact> 0.52829701E+02</totfact>
</mgrwt>
<rwgt>
<wgt id='morphing_basis_vector_1'> +2.0038124e-04 </wgt>
<wgt id='morphing_basis_vector_2'> +1.0872215e-04 </wgt>
<wgt id='morphing_basis_vector_3'> +1.3454872e-04 </wgt>
<wgt id='morphing_basis_vector_4'> +3.6252800e-05 </wgt>
<wgt id='morphing_basis_vector_5'> +4.4530413e-05 </wgt>
</rwgt>
</event>
<event>
 4      1 +1.9425900e-05 4.53252200e+02 7.81860800e-03 9.51101800e-02
        2 -1    0    0  501    0 +0.0000000000e+00 +0.0000000000e+00 +3.8956105996e+02 3.8956105996e+02 0.0000000000e+00 0.0000e+00 -1.0000e+00
       -2 -1    0    0    0  501 -0.0000000000e+00 -0.0000000000e+00 -1.3183909764e+02 1.3183909764e+02 0.0000000000e+00 0.0000e+00 1.0000e+00
      -13  1    1    2    0    0 -4.1961204210e+01 -2.0672483394e+02 +3.3558669172e+01 2.1359326746e+02 0.0000000000e+00 0.0000e+00 1.0000e+00
       13  1    1    2    0    0 +4.1961204210e+01 +2.0672483394e+02 +2.2416329314e+02 3.0780689014e+02 0.0000000000e+00 0.0000e+00 -1.0000e+00
<mgrwt>
<rscale>  0 0.45325215E+03</rscale>
<asrwt>0</asrwt>
<pdfrwt beam="1">  1        2 0.59932470E-01 0.45325215E+03</pdfrwt>
<pdfrwt beam="2">  1       -2 0.20282938E-01 0.45325215E+03</pdfrwt>
<totfact> 0.18981174E+03</totfact>
</mgrwt>
<rwgt>
<wgt id='morphing_basis_vector_1'> +2.1833994e-04 </wgt>
<wgt id='morphing_basis_vector_2'> +1.2231648e-04 </wgt>
<wgt id='morphing_basis_vector_3'> +1.4698642e-04 </wgt>
<wgt id='morphing_basis_vector_4'> +4.1761497e-05 </wgt>
<wgt id='morphing_basis_vector_5'> +5.3717883e-05 </wgt>
</rwgt>
</event>
<event>
 4      1 +1.9425900e-05 4.41359100e+02 7.81860800e-03 9.54159700e-02
        2 -1    0    0  501    0 +0.0000000000e+00 +0.0000000000e+00 +1.8068286209e+03 1.8068286209e+03 0.0000000000e+00 0.0000e+00 -1.0000e+00
       -2 -1    0    0    0  501 -0.0000000000e+00 -0.0000000000e+00 -2.6953007384e+01 2.6953007384e+01 0.0000000000e+00 0.0000e+00 1.0000e+00
      -13  1    1    2    0    0 +7.3417573879e+01 -2.0058012993e+02 +1.1204080136e+03 1.1405860975e+03 0.0000000000e+00 0.0000e+00 1.0000e+00
       13  1    1    2    0    0 -7.3417573879e+01 +2.0058012993e+02 +6.5946759986e+02 6.9319553082e+02 0.0000000000e+00 0.0000e+00 -1.0000e+00
<mgrwt>
<rscale>  0 0.44135911E+03</rscale>
<asrwt>0</asrwt>
<pdfrwt beam="1">  1        2 0.27797354E+00 0.44135911E+03</pdfrwt>
<pdfrwt beam="2">  1       -2 0.41466179E-02 0.44135911E+03</pdfrwt>
<totfact> 0.25969626E+03</totfact>
</mgrwt>
<rwgt>
<wgt id='morphing_basis_vector_1'> +2.1653838e-04 </wgt>
<wgt id='morphing_basis_vector_2'> +1.5645065e-04 </wgt>
<wgt id='morphing_basis_vector_3'> +1.2426977e-04 </wgt>
<wgt id='morphing_basis_vector_4'> +3.4437649e-05 </wgt>
<wgt id='morphing_basis_vector_5'> +4.5871130e-05 </wgt>
</rwgt>
</event>
<event>
 4      1 +1.9425900e-05 4.41188200e+02 7.81860800e-03 9.54204400e-02
        2 -1    0    0  501    0 +0.0000000000e+00 +0.0000000000e+00 +9.4744097245e+01 9.4744097245e+01 0.0000000000e+00 0.0000e+00 -1.0000e+00
       -2 -1    0    0    0  501 -0.0000000000e+00 -0.0000000000e+00 -5.1361262247e+02 5.1361262247e+02 0.0000000000e+00 0.0000e+00 1.0000e+00
      -13  1    1    2    0    0 -6.1928012189e+01 -7.6533726342e+01 -4.8163891753e+02 4.9159794226e+02 0.0000000000e+00 0.0000e+00 1.0000e+00
       13  1    1    2    0    0 +6.1928012189e+01 +7.6533726342e+01 +6.2770392303e+01 1.1675877745e+02 0.0000000000e+00 0.0000e+00 -1.0000e+00
<mgrwt>
<rscale>  0 0.44118823E+03</rscale>
<asrwt>0</asrwt>
<pdfrwt beam="1">  1        2 0.14576015E-01 0.44118823E+03</pdfrwt>
<pdfrwt beam="2">  1       -2 0.79017326E-01 0.44118823E+03</pdfrwt>
<totfact> 0.76166286E+02</totfact>
</mgrwt>
<rwgt>
<wgt id='morphing_basis_vector_1'> +2.0080210e-04 </wgt>
<wgt id='morphing_basis_vector_2'> +1.0842861e-04 </wgt>
<wgt id='morphing_basis_vector_3'> +1.3520223e-04 </wgt>
<wgt id='morphing_basis_vector_4'> +3.6495407e-05 </wgt>
<wgt id='morphing_basis_vector_5'> +4.4855694e-05 </wgt>
</rwgt>
</event>
<event>
 4      1 +1.9425900e-05 4.94134400e+02 7.81860800e-03 9.41300300e-02
        2 -1    0    0  501    0 +0.0000000000e+00 +0.0000000000e+00 +4.2854031459e+02 4.2854031459e+02 0.0000000000e+00 0.0000e+00 1.0000e+00
       -2 -1    0    0    0  501 -0.0000000000e+00 -0.0000000000e+00 -1.4244214207e+02 1.4244214207e+02 0.0000000000e+00 0.0000e+00 -1.0000e+00
      -13  1    1    2    0    0 -4.6202037013e+01 +2.3599276232e+02 +7.7530068779e+01 2.5266207404e+02 0.0000000000e+00 0.0000e+00 -1.0000e+00
       13  1    1    2    0    0 +4.6202037013e+01 -2.3599276232e+02 +2.0856810374e+02 3.1832038262e+02 0.0000000000e+00 0.0000e+00 1.0000e+00
<mgrwt>
<rscale>  0 0.49413440E+03</rscale>
<asrwt>0</asrwt>
<pdfrwt beam="1">  1        2 0.65929278E-01 0.49413440E+03</pdfrwt>
<pdfrwt beam="2">  1       -2 0.21914176E-01 0.49413440E+03</pdfrwt>
<totfact> 0.15017979E+03</totfact>
</mgrwt>
<rwgt>
<wgt id='morphing_basis_vector_1'> +2.8272654e-04 </wgt>
<wgt id='morphing_basis_vector_2'> +1.6457263e-04 </wgt>
<wgt id='morphing_basis_vector_3'> +1.9796681e-04 </wgt>
<wgt id='morphing_basis_vector_4'> +6.4706556e-05 </wgt>
<wgt id='morphing_basis_vector_5'> +9.1732071e-05 </wgt>
</rwgt>
</event>
<event>
 4      1 +1.9425900e-05 4.84645000e+02 7.81860800e-03 9.43482800e-02
        2 -1    0    0  501    0 +0.0000000000e+00 +0.0000000000e+00 +4.9079814250e+02 4.9079814250e+02 0.0000000000e+00 0.0000e+00 1.0000e+00
       -2 -1    0    0    0  501 -0.0000000000e+00 -0.0000000000e+00 -1.1964223344e+02 1.1964223344e+02 0.0000000000e+00 0.0000e+00 -1.0000e+00
      -13  1    1    2    0    0 +1.5797275506e+02 -1.0588808318e+02 -3.5766734022e+00 1.9021164553e+02 0.0000000000e+00 0.0000e+00 -1.0000e+00
       13  1    1    2    0    0 -1.5797275506e+02 +1.0588808318e+02 +3.7473258246e+02 4.2022873041e+02 0.0000000000e+00 0.0000e+00 1.0000e+00
<mgrwt>
<rscale>  0 0.48464497E+03</rscale>
<asrwt>0</asrwt>
<pdfrwt beam="1">  1        2 0.75507406E-01 0.48464497E+03</pdfrwt>
<pdfrwt beam="2">  1       -2 0.18406498E-01 0.48464497E+03</pdfrwt>
<totfact> 0.17210555E+03</totfact>
</mgrwt>
<rwgt>
<wgt id='morphing_basis_vector_1'> +2.6379756e-04 </wgt>
<wgt id='morphing_basis_vector_2'> +1.4534585e-04 </wgt>
<wgt id='morphing_basis_vector_3'> +1.8623120e-04 </wgt>
<wgt id='morphing_basis_vector_4'> +5.9618151e-05 </wgt>
<wgt id='morphing_basis_vector_5'> +8.1576417e-05 </wgt>
</rwgt>
</event>
<event>
 4      1 +1.9425900e-05 4.66723900e+02 7.81860800e-03 9.47754900e-02
        2 -1    0    0  501    0 +0.0000000000e+00 +0.0000000000e+00 +1.1772095628e+03 1.1772095628e+03 0.0000000000e+00 0.0000e+00 1.0000e+00
       -2 -1    0    0    0  501 -0.0000000000e+00 -0.0000000000e+00 -4.6260072115e+01 4.6260072115e+01 0.0000000000e+00 0.0000e+00 -1.0000e+00
      -13  1    1    2    0    0 -8.8197968183e+01 -1.4698663507e+02 +1.5038343673e+02 2.2803317856e+02 0.0000000000e+00 0.0000e+00 -1.0000e+00
       13  1    1    2    0    0 +8.8197968183e+01 +1.4698663507e+02 +9.8056605396e+02 9.9543645636e+02 0.0000000000e+00 0.0000e+00 1.0000e+00
<mgrwt>
<rscale>  0 0.46672390E+03</rscale>
<asrwt>0</asrwt>
<pdfrwt beam="1">  1        2 0.18110914E+00 0.46672390E+03</pdfrwt>
<pdfrwt beam="2">  1       -2 0.71169351E-02 0.46672390E+03</pdfrwt>
<totfact> 0.25324377E+03</totfact>
</mgrwt>
<rwgt>
<wgt id='morphing_basis_vector_1'> +2.3606879e-04 </wgt>
<wgt id='morphing_basis_vector_2'> +1.2899294e-04 </wgt>
<wgt id='morphing_basis_vector_3'> +1.6343661e-04 </wgt>
<wgt id='morphing_basis_vector_4'> +4.9009317e-05 </wgt>
<wgt id='morphing_basis_vector_5'> +6.4688281e-05 </wgt>
</rwgt>
</event>
<event>
 4      1 +1.9425900e-05 5.08262700e+02 7.81860800e-03 9.38146700e-02
        2 -1    0    0  501    0 +0.0000000000e+00 +0.0000000000e+00 +1.5205436117e+03 1.5205436117e+03 0.0000000000e+00 0.0000e+00 -1.0000e+00
       -2 -1    0    0    0  501 -0.0000000000e+00 -0.0000000000e+00 -4.2473451574e+01 4.2473451574e+01 0.0000000000e+00 0.0000e+00 1.0000e+00
      -13  1    1    2    0    0 +1.7849311623e+02 -1.7914975701e+02 +6.6195154548e+02 7.0861433554e+02 0.0000000000e+00 0.0000e+00 1.0000e+00
       13  1    1    2    0    0 -1.7849311623e+02 +1.7914975701e+02 +8.1611861469e+02 8.5440272777e+02 0.0000000000e+00 0.0000e+00 -1.0000e+00
<mgrwt>
<rscale>  0 0.50826267E+03</rscale>
<asrwt>0</asrwt>
<pdfrwt beam="1">  1        2 0.23392974E+00 0.50826267E+03</pdfrwt>
<pdfrwt beam="2">  1       -2 0.65343783E-02 0.50826267E+03</pdfrwt>
<totfact> 0.18599010E+03</totfact>
</mgrwt>
<rwgt>
<wgt id='morphing_basis_vector_1'> +3.1058235e-04 </wgt>
<wgt id='morphing_basis_vector_2'> +1.8867472e-04 </wgt>
<wgt id='morphing_basis_vector_3'> +2.1809132e-04 </wgt>
<wgt id='morphing_basis_vector_4'> +7.3487554e-05 </wgt>
<wgt id='morphing_basis_vector_5'> +1.0822339e-04 </wgt>
</rwgt>
</event>
<event>
 4      1 +1.9425900e-05 4.39462100e+02 7.81860800e-03 9.54656900e-02
        2 -1    0    0  501    0 +0.0000000000e+00 +0.0000000000e+00 +6.3629437554e+02 6.3629437554e+02 0.0000000000e+00 0.0000e+00 -1.0000e+00
       -2 -1    0    0    0  501 -0.0000000000e+00 -0.0000000000e+00 -7.5879568421e+01 7.5879568421e+01 0.0000000000e+00 0.0000e+00 1.0000e+00
      -13  1    1    2    0    0 -2.0781384413e+02 +5.6290704164e+01 +2.0907790718e+02 3.0011465885e+02 0.0000000000e+00 0.0000e+00 1.0000e+00
       13  1    1    2    0    0 +2.0781384413e+02 -5.6290704164e+01 +3.5133689994e+02 4.1205928511e+02 0.0000000000e+00 0.0000e+00 -1.0000e+00
<mgrwt>
<rscale>  0 0.43946214E+03</rscale>
<asrwt>0</asrwt>
<pdfrwt beam="1">  1        2 0.97891439E-01 0.43946214E+03</pdfrwt>
<pdfrwt beam="2">  1       -2 0.11673780E-01 0.43946214E+03</pdfrwt>
<totfact> 0.26482148E+03</totfact>
</mgrwt>
<rwgt>
<wgt id='morphing_basis_vector_1'> +2.0157091e-04 </wgt>
<wgt id='morphing_basis_vector_2'> +1.1635235e-04 </wgt>
<wgt id='morphing_basis_vector_3'> +1.3129655e-04 </wgt>
<wgt id='morphing_basis_vector_4'> +3.5368621e-05 </wgt>
<wgt id='morphing_basis_vector_5'> +4.3855508e-05 </wgt>
</rwgt>
</event>
<event>
 4      1 +1.9425900e-05 4.40220200e+02 7.81860800e-03 9.54457900e-02
        2 -1    0    0  501    0 +0.0000000000e+00 +0.0000000000e+00 +8.1131757659e+02 8.1131757659e+02 0.0000000000e+00 0.0000e+00 -1.0000e+00
       -2 -1    0    0    0  501 -0.0000000000e+00 -0.0000000000e+00 -5.9715765864e+01 5.9715765864e+01 0.0000000000e+00 0.0000e+00 1.0000e+00
      -13  1    1    2    0    0 -8.2518646171e+01 +1.4759336781e+02 +9.6994146616e+01 1.9493843558e+02 0.0000000000e+00 0.0000e+00 1.0000e+00
       13  1    1    2    0    0 +8.2518646171e+01 -1.4759336781e+02 +6.5460766411e+02 6.7609490687e+02 0.0000000000e+00 0.0000e+00 -1.0000e+00
<mgrwt>
<rscale>  0 0.44022017E+03</rscale>
<asrwt>0</asrwt>
<pdfrwt beam="1">  1        2 0.12481808E+00 0.44022017E+03</pdfrwt>
<pdfrwt beam="2">  1       -2 0.91870415E-02 0.44022017E+03</pdfrwt>
<totfact> 0.28660132E+03</totfact>
</mgrwt>
<rwgt>
<wgt id='morphing_basis_vector_1'> +1.9988388e-04 </wgt>
<wgt id='morphing_basis_vector_2'> +1.0871497e-04 </wgt>
<wgt id='morphing_basis_vector_3'> +1.3398853e-04 </wgt>
<wgt id='morphing_basis_vector_4'> +3.6033746e-05 </wgt>
<wgt id='morphing_basis_vector_5'> +4.4213633e-05 </wgt>
</rwgt>
</event>
<event>
 4      1 +1.9425900e-05 4.36482800e+02 7.81860800e-03 9.55443000e-02
        2 -1    0    0  501    0 +0.0000000000e+00 +0.0000000000e+00 +4.3791593224e+02 4.3791593224e+02 0.0000000000e+00 0.0000e+00 1.0000e+00
       -2 -1    0    0    0  501 -0.0000000000e+00 -0.0000000000e+00 -1.0876357982e+02 1.0876357982e+02 0.0000000000e+00 0.0000e+00 -1.0000e+00
      -13  1    1    2    0    0 +1.3603701968e+02 +1.5075662178e+02 +2.6473953204e+02 3.3364749296e+02 0.0000000000e+00 0.0000e+00 1.0000e+00
       13  1    1    2    0    0 -1.3603701968e+02 -1.5075662178e+02 +6.4412820378e+01 2.1303201911e+02 0.0000000000e+00 0.0000e+00 -1.0000e+00
<mgrwt>
<rscale>  0 0.43648278E+03</rscale>
<asrwt>0</asrwt>
<pdfrwt beam="1">  1        2 0.67371681E-01 0.43648278E+03</pdfrwt>
<pdfrwt beam="2">  1       -2 0.16732859E-01 0.43648278E+03</pdfrwt>
<totfact> 0.22811663E+03</totfact>
</mgrwt>
<rwgt>
<wgt id='morphing_basis_vector_1'> +2.1672042e-04 </wgt>
<wgt id='morphing_basis_vector_2'> +1.7252793e-04 </wgt>
<wgt id='morphing_basis_vector_3'> +1.1424553e-04 </wgt>
<wgt id='morphing_basis_vector_4'> +3.1993717e-05 </wgt>
<wgt id='morphing_basis_vector_5'> +4.2995306e-05 </wgt>
</rwgt>
</event>
<event>
 4      1 +1.9425900e-05 4.30145000e+02 7.81860800e-03 9.57137600e-02
        2 -1    0    0  501    0 +0.0000000000e+00 +0.0000000000e+00 +5.1508290496e+02 5.1508290496e+02 0.0000000000e+00 0.0000e+00 -1.0000e+00
       -2 -1    0    0    0  501 -0.0000000000e+00 -0.0000000000e+00 -8.9803363525e+01 8.9803363525e+01 0.0000000000e+00 0.0000e+00 1.0000e+00
      -13  1    1    2    0    0 +1.2128205369e+02 +1.3802969366e+02 +5.5451255408e+01 1.9192804539e+02 0.0000000000e+00 0.0000e+00 1.0000e+00
       13  1    1    2    0    0 -1.2128205369e+02 -1.3802969366e+02 +3.6982828602e+02 4.1295822310e+02 0.0000000000e+00 0.0000e+00 -1.0000e+00
<mgrwt>
<rscale>  0 0.43014499E+03</rscale>
<asrwt>0</asrwt>
<pdfrwt beam="1">  1        2 0.79243522E-01 0.43014499E+03</pdfrwt>
<pdfrwt beam="2">  1       -2 0.13815902E-01 0.43014499E+03</pdfrwt>
<totfact> 0.25849798E+03</totfact>
</mgrwt>
<rwgt>
<wgt id='morphing_basis_vector_1'> +1.8773587e-04 </wgt>
<wgt id='morphing_basis_vector_2'> +1.0275687e-04 </wgt>
<wgt id='morphing_basis_vector_3'> +1.2384125e-04 </wgt>
<wgt id='morphing_basis_vector_4'> +3.1884286e-05 </wgt>
<wgt id='morphing_basis_vector_5'> +3.7729655e-05 </wgt>
</rwgt>
</event>
<event>
 4      1 +1.9425900e-05 4.75356200e+02 7.81860800e-03 9.45671900e-02
        2 -1    0    0  501    0 +0.0000000000e+00 +0.0000000000e+00 +3.2736828617e+02 3.2736828617e+02 0.0000000000e+00 0.0000e+00 1.0000e+00
       -2 -1    0    0    0  501 -0.0000000000e+00 -0.0000000000e+00 -1.7256065171e+02 1.7256065171e+02 0.0000000000e+00 0.0000e+00 -1.0000e+00
      -13  1    1    2    0    0 +8.8449043556e+00 -8.0542907574e+01 -1.5758666414e+02 1.7719748590e+02 0.0000000000e+00 0.0000e+00 -1.0000e+00
       13  1    1    2    0    0 -8.8449043556e+00 +8.0542907574e+01 +3.1239429861e+02 3.2273145198e+02 0.0000000000e+00 0.0000e+00 1.0000e+00
<mgrwt>
<rscale>  0 0.47535622E+03</rscale>
<asrwt>0</asrwt>
<pdfrwt beam="1">  1        2 0.50364351E-01 0.47535622E+03</pdfrwt>
<pdfrwt beam="2">  1       -2 0.26547793E-01 0.47535622E+03</pdfrwt>
<totfact> 0.14662526E+03</totfact>
</mgrwt>
<rwgt>
<wgt id='morphing_basis_vector_1'> +2.4870404e-04 </wgt>
<wgt id='morphing_basis_vector_2'> +1.3541927e-04 </wgt>
<wgt id='morphing_basis_vector_3'> +1.7430984e-04 </wgt>
<wgt id='morphing_basis_vector_4'> +5.4038349e-05 </wgt>
<wgt id='morphing_basis_vector_5'> +7.2480795e-05 </wgt>
</rwgt>
</event>
<event>
 4      1 +1.9425900e-05 4.71522100e+02 7.81860800e-03 9.46591300e-02
        2 -1    0    0  501    0 +0.0000000000e+00 +0.0000000000e+00 +1.0043264053e+03 1.0043264053e+03 0.0000000000e+00 0.0000e+00 -1.0000e+00
       -2 -1    0    0    0  501 -0.0000000000e+00 -0.0000000000e+00 -5.5343841357e+01 5.5343841357e+01 0.0000000000e+00 0.0000e+00 1.0000e+00
      -13  1    1    2    0    0 -1.4551883492e+02 -1.7023360352e+02 +3.0891757179e+02 3.8155638803e+02 0.0000000000e+00 0.0000e+00 1.0000e+00
       13  1    1    2    0    0 +1.4551883492e+02 +1.7023360352e+02 +6.4006499213e+02 6.7811385861e+02 0.0000000000e+00 0.0000e+00 -1.0000e+00
<mgrwt>
<rscale>  0 0.47152214E+03</rscale>
<asrwt>0</asrwt>
<pdfrwt beam="1">  1        2 0.15451174E+00 0.47152214E+03</pdfrwt>
<pdfrwt beam="2">  1       -2 0.85144379E-02 0.47152214E+03</pdfrwt>
<totfact> 0.24290386E+03</totfact>
</mgrwt>
<rwgt>
<wgt id='morphing_basis_vector_1'> +2.4520642e-04 </wgt>
<wgt id='morphing_basis_vector_2'> +1.3929416e-04 </wgt>
<wgt id='morphing_basis_vector_3'> +1.6819742e-04 </wgt>
<wgt id='morphing_basis_vector_4'> +5.1152152e-05 </wgt>
<wgt id='morphing_basis_vector_5'> +6.9055017e-05 </wgt>
</rwgt>
</event>
<event>
 4      1 +1.9425900e-05 4.69473200e+02 7.81860800e-03 9.47086400e-02
        2 -1    0    0  501    0 +0.0000000000e+00 +0.0000000000e+00 +5.4435103818e+02 5.4435103818e+02 0.0000000000e+00 0.0000e+00 1.0000e+00
       -2 -1    0    0    0  501 -0.0000000000e+00 -0.0000000000e+00 -1.0122378973e+02 1.0122378973e+02 0.0000000000e+00 0.0000e+00 -1.0000e+00
      -13  1    1    2    0    0 -1.3615077390e+02 -1.0014673620e+02 -2.4344451302e+00 1.6903351303e+02 0.0000000000e+00 0.0000e+00 -1.0000e+00
       13  1    1    2    0    0 +1.3615077390e+02 +1.0014673620e+02 +4.4556169358e+02 4.7654131488e+02 0.0000000000e+00 0.0000e+00 1.0000e+00
<mgrwt>
<rscale>  0 0.46947322E+03</rscale>
<asrwt>0</asrwt>
<pdfrwt beam="1">  1        2 0.83746312E-01 0.46947322E+03</pdfrwt>
<pdfrwt beam="2">  1       -2 0.15572891E-01 0.46947322E+03</pdfrwt>
<totfact> 0.20069368E+03</totfact>
</mgrwt>
<rwgt>
<wgt id='morphing_basis_vector_1'> +2.4009675e-04 </wgt>
<wgt id='morphing_basis_vector_2'> +1.3120682e-04 </wgt>
<wgt id='morphing_basis_vector_3'> +1.6680200e-04 </wgt>
<wgt id='morphing_basis_vector_4'> +5.0550622e-05 </wgt>
<wgt id='morphing_basis_vector_5'> +6.7109680e-05 </wgt>
</rwgt>
</event>
<event>
 4      1 +1.9425900e-05 4.86613100e+02 7.81860800e-03 9.43025800e-02
        2 -1    0    0  501    0 +0.0000000000e+00 +0.0000000000e+00 +6.4818935280e+01 6.4818935280e+01 0.0000000000e+00 0.0000e+00 -1.0000e+00
       -2 -1    0    0    0  501 -0.0000000000e+00 -0.0000000000e+00 -9.1328375756e+02 9.1328375756e+02 0.0000000000e+00 0.0000e+00 1.0000e+00
      -13  1    1    2    0    0 +1.6751122118e+02 +1.6816324729e+02 -5.3171112062e+02 5.8228481240e+02 0.0000000000e+00 0.0000e+00 1.0000e+00
       13  1    1    2    0    0 -1.6751122118e+02 -1.6816324729e+02 -3.1675370166e+02 3.9581788044e+02 0.0000000000e+00 0.0000e+00 -1.0000e+00
<mgrwt>
<rscale>  0 0.48661311E+03</rscale>
<asrwt>0</asrwt>
<pdfrwt beam="1">  1        2 0.99721442E-02 0.48661311E+03</pdfrwt>
<pdfrwt beam="2">  1       -2 0.14050519E+00 0.48661311E+03</pdfrwt>
<totfact> 0.29765402E+02</totfact>
</mgrwt>
<rwgt>
<wgt id='morphing_basis_vector_1'> +2.7024123e-04 </wgt>
<wgt id='morphing_basis_vector_2'> +1.5729536e-04 </wgt>
<wgt id='morphing_basis_vector_3'> +1.8734286e-04 </wgt>
<wgt id='morphing_basis_vector_4'> +5.9771804e-05 </wgt>
<wgt id='morphing_basis_vector_5'> +8.3736260e-05 </wgt>
</rwgt>
</event>
<event>
 4      1 +1.9425900e-05 4.73824200e+02 7.81860800e-03 9.46038200e-02
        2 -1    0    0  501    0 +0.0000000000e+00 +0.0000000000e+00 +8.6545943117e+02 8.6545943117e+02 0.0000000000e+00 0.0000e+00 1.0000e+00
       -2 -1    0    0    0  501 -0.0000000000e+00 -0.0000000000e+00 -6.4852647169e+01 6.4852647169e+01 0.0000000000e+00 0.0000e+00 -1.0000e+00
      -13  1    1    2    0    0 -2.2151021096e+02 +6.3185534081e+01 +2.9154826596e+02 3.7156369126e+02 0.0000000000e+00 0.0000e+00 -1.0000e+00
       13  1    1    2    0    0 +2.2151021096e+02 -6.3185534081e+01 +5.0905851804e+02 5.5874838708e+02 0.0000000000e+00 0.0000e+00 1.0000e+00
<mgrwt>
<rscale>  0 0.47382417E+03</rscale>
<asrwt>0</asrwt>
<pdfrwt beam="1">  1        2 0.13314760E+00 0.47382417E+03</pdfrwt>
<pdfrwt beam="2">  1       -2 0.99773310E-02 0.47382417E+03</pdfrwt>
<totfact> 0.23214103E+03</totfact>
</mgrwt>
<rwgt>
<wgt id='morphing_basis_vector_1'> +2.4964411e-04 </wgt>
<wgt id='morphing_basis_vector_2'> +1.4424765e-04 </wgt>
<wgt id='morphing_basis_vector_3'> +1.7058584e-04 </wgt>
<wgt id='morphing_basis_vector_4'> +5.2192888e-05 </wgt>
<wgt id='morphing_basis_vector_5'> +7.1211755e-05 </wgt>
</rwgt>
</event>
<event>
 4      1 +1.9425900e-05 4.40006600e+02 7.81860800e-03 9.54513900e-02
        2 -1    0    0  501    0 +0.0000000000e+00 +0.0000000000e+00 +2.9650368492e+02 2.9650368492e+02 0.0000000000e+00 0.0000e+00 -1.0000e+00
       -2 -1    0    0    0  501 -0.0000000000e+00 -0.0000000000e+00 -1.6324066926e+02 1.6324066926e+02 0.0000000000e+00 0.0000e+00 1.0000e+00
      -13  1    1    2    0    0 +1.5790509090e+02 +1.2959705722e+02 +1.5197819366e+02 2.5461104909e+02 0.0000000000e+00 0.0000e+00 1.0000e+00
       13  1    1    2    0    0 -1.5790509090e+02 -1.2959705722e+02 -1.8715177989e+01 2.0513330509e+02 0.0000000000e+00 0.0000e+00 -1.0000e+00
<mgrwt>
<rscale>  0 0.44000664E+03</rscale>
<asrwt>0</asrwt>
<pdfrwt beam="1">  1        2 0.45615951E-01 0.44000664E+03</pdfrwt>
<pdfrwt beam="2">  1       -2 0.25113949E-01 0.44000664E+03</pdfrwt>
<totfact> 0.17980121E+03</totfact>
</mgrwt>
<rwgt>
<wgt id='morphing_basis_vector_1'> +2.2202813e-04 </wgt>
<wgt id='morphing_basis_vector_2'> +1.7773995e-04 </wgt>
<wgt id='morphing_basis_vector_3'> +1.1756228e-04 </wgt>
<wgt id='morphing_basis_vector_4'> +3.3005286e-05 </wgt>
<wgt id='morphing_basis_vector_5'> +4.5373710e-05 </wgt>
</rwgt>
</event>
<event>
 4      1 +1.9425900e-05 4.40966500e+02 7.81860800e-03 9.54262400e-02
        2 -1    0    0  501    0 +0.0000000000e+00 +0.0000000000e+00 +9.5525596968e+02 9.5525596968e+02 0.0000000000e+00 0.0000e+00 -1.0000e+00
       -2 -1    0    0    0  501 -0.0000000000e+00 -0.0000000000e+00 -5.0889888470e+01 5.0889888470e+01 0.0000000000e+00 0.0000e+00 1.0000e+00
      -13  1    1    2    0    0 +9.1229831794e+01 +1.8718548015e+02 +2.8683446475e+02 3.5445069665e+02 0.0000000000e+00 0.0000e+00 1.0000e+00
       13  1    1    2    0    0 -9.1229831794e+01 -1.8718548015e+02 +6.1753161646e+02 6.5169516150e+02 0.0000000000e+00 0.0000e+00 -1.0000e+00
<mgrwt>
<rscale>  0 0.44096653E+03</rscale>
<asrwt>0</asrwt>
<pdfrwt beam="1">  1        2 0.14696244E+00 0.44096653E+03</pdfrwt>
<pdfrwt beam="2">  1       -2 0.78292143E-02 0.44096653E+03</pdfrwt>
<totfact> 0.29616776E+03</totfact>
</mgrwt>
<rwgt>
<wgt id='morphing_basis_vector_1'> +2.0226018e-04 </wgt>
<wgt id='morphing_basis_vector_2'> +1.1364520e-04 </wgt>
<wgt id='morphing_basis_vector_3'> +1.3372586e-04 </wgt>
<wgt id='morphing_basis_vector_4'> +3.6162837e-05 </wgt>
<wgt id='morphing_basis_vector_5'> +4.4804839e-05 </wgt>
</rwgt>
</event>
<event>
 4      1 +1.9425900e-05 4.35566800e+02 7.81860800e-03 9.55686000e-02
        2 -1    0    0  501    0 +0.0000000000e+00 +0.0000000000e+00 +1.5660451501e+02 1.5660451501e+02 0.0000000000e+00 0.0000e+00 -1.0000e+00
       -2 -1    0    0    0  501 -0.0000000000e+00 -0.0000000000e+00 -3.0286234235e+02 3.0286234235e+02 0.0000000000e+00 0.0000e+00 1.0000e+00
      -13  1    1    2    0    0 -1.2011964990e+02 +8.2459738924e+01 -2.4387886921e+02 2.8408667988e+02 0.0000000000e+00 0.0000e+00 1.0000e+00
       13  1    1    2    0    0 +1.2011964990e+02 -8.2459738924e+01 +9.7621041875e+01 1.7538017748e+02 0.0000000000e+00 0.0000e+00 -1.0000e+00
<mgrwt>
<rscale>  0 0.43556680E+03</rscale>
<asrwt>0</asrwt>
<pdfrwt beam="1">  1        2 0.24093002E-01 0.43556680E+03</pdfrwt>
<pdfrwt beam="2">  1       -2 0.46594206E-01 0.43556680E+03</pdfrwt>
<totfact> 0.12283740E+03</totfact>
</mgrwt>
<rwgt>
<wgt id='morphing_basis_vector_1'> +1.9385353e-04 </wgt>
<wgt id='morphing_basis_vector_2'> +1.0488033e-04 </wgt>
<wgt id='morphing_basis_vector_3'> +1.2947183e-04 </wgt>
<wgt id='morphing_basis_vector_4'> +3.4097937e-05 </wgt>
<wgt id='morphing_basis_vector_5'> +4.1115944e-05 </wgt>
</rwgt>
</event>
<event>
 4      1 +1.9425900e-05 4.67686100e+02 7.81860800e-03 9.47520400e-02
        2 -1    0    0  501    0 +0.0000000000e+00 +0.0000000000e+00 +3.3969603692e+02 3.3969603692e+02 0.0000000000e+00 0.0000e+00 1.0000e+00
       -2 -1    0    0    0  501 -0.0000000000e+00 -0.0000000000e+00 -1.6097500044e+02 1.6097500044e+02 0.0000000000e+00 0.0000e+00 -1.0000e+00
      -13  1    1    2    0    0 +2.3186010297e+01 -1.6604726034e+02 +2.6387065001e+02 3.1262917918e+02 0.0000000000e+00 0.0000e+00 1.0000e+00
       13  1    1    2    0    0 -2.3186010297e+01 +1.6604726034e+02 -8.5149613528e+01 1.8804185817e+02 0.0000000000e+00 0.0000e+00 -1.0000e+00
<mgrwt>
<rscale>  0 0.46768609E+03</rscale>
<asrwt>0</asrwt>
<pdfrwt beam="1">  1        2 0.52260929E-01 0.46768609E+03</pdfrwt>
<pdfrwt beam="2">  1       -2 0.24765385E-01 0.46768609E+03</pdfrwt>
<totfact> 0.15840414E+03</totfact>
</mgrwt>
<rwgt>
<wgt id='morphing_basis_vector_1'> +3.0152270e-04 </wgt>
<wgt id='morphing_basis_vector_2'> +3.2816272e-04 </wgt>
<wgt id='morphing_basis_vector_3'> +1.2774413e-04 </wgt>
<wgt id='morphing_basis_vector_4'> +3.2952890e-05 </wgt>
<wgt id='morphing_basis_vector_5'> +6.8770744e-05 </wgt>
</rwgt>
</event>
<event>
 4      1 +1.9425900e-05 4.67252800e+02 7.81860800e-03 9.47625900e-02
        2 -1    0    0  501    0 +0.0000000000e+00 +0.0000000000e+00 +2.3246405730e+02 2.3246405730e+02 0.0000000000e+00 0.0000e+00 1.0000e+00
       -2 -1    0    0    0  501 -0.0000000000e+00 -0.0000000000e+00 -2.3479453919e+02 2.3479453919e+02 0.0000000000e+00 0.0000e+00 -1.0000e+00
      -13  1    1    2    0    0 -4.5652734662e+00 -6.0469452082e+01 -2.2678696233e+02 2.3475460089e+02 0.0000000000e+00 0.0000e+00 -1.0000e+00
       13  1    1    2    0    0 +4.5652734662e+00 +6.0469452082e+01 +2.2445648044e+02 2.3250399560e+02 0.0000000000e+00 0.0000e+00 1.0000e+00
<mgrwt>
<rscale>  0 0.46725278E+03</rscale>
<asrwt>0</asrwt>
<pdfrwt beam="1">  1        2 0.35763701E-01 0.46725278E+03</pdfrwt>
<pdfrwt beam="2">  1       -2 0.36122237E-01 0.46725278E+03</pdfrwt>
<totfact> 0.12519963E+03</totfact>
</mgrwt>
<rwgt>
<wgt id='morphing_basis_vector_1'> +2.3653870e-04 </wgt>
<wgt id='morphing_basis_vector_2'> +1.2848543e-04 </wgt>
<wgt id='morphing_basis_vector_3'> +1.6425315e-04 </wgt>
<wgt id='morphing_basis_vector_4'> +4.9380127e-05 </wgt>
<wgt id='morphing_basis_vector_5'> +6.5134279e-05 </wgt>
</rwgt>
</event>
<event>
 4      1 +1.9425900e-05 5.03593000e+02 7.81860800e-03 9.39176700e-02
        2 -1    0    0  501    0 +0.0000000000e+00 +0.0000000000e+00 +4.7667332352e+01 4.7667332352e+01 0.0000000000e+00 0.0000e+00 -1.0000e+00
       -2 -1    0    0    0  501 -0.0000000000e+00 -0.0000000000e+00 -1.3300824942e+03 1.3300824942e+03 0.0000000000e+00 0.0000e+00 1.0000e+00
      -13  1    1    2    0    0 -1.3112183915e+02 -1.6460415975e+02 -1.0194468837e+03 1.0409416001e+03 0.0000000000e+00 0.0000e+00 1.0000e+00
       13  1    1    2    0    0 +1.3112183915e+02 +1.6460415975e+02 -2.6296827821e+02 3.3680822653e+02 0.0000000000e+00 0.0000e+00 -1.0000e+00
<mgrwt>
<rscale>  0 0.50359303E+03</rscale>
<asrwt>0</asrwt>
<pdfrwt beam="1">  1        2 0.73334354E-02 0.50359303E+03</pdfrwt>
<pdfrwt beam="2">  1       -2 0.20462808E+00 0.50359303E+03</pdfrwt>
<totfact> 0.14189036E+02</totfact>
</mgrwt>
<rwgt>
<wgt id='morphing_basis_vector_1'> +2.9614997e-04 </wgt>
<wgt id='morphing_basis_vector_2'> +1.6496076e-04 </wgt>
<wgt id='morphing_basis_vector_3'> +2.1318684e-04 </wgt>
<wgt id='morphing_basis_vector_4'> +7.2586243e-05 </wgt>
<wgt id='morphing_basis_vector_5'> +1.0237908e-04 </wgt>
</rwgt>
</event>
<event>
 4      1 +1.9425900e-05 5.04838000e+02 7.81860800e-03 9.38900900e-02
        2 -1    0    0  501    0 +0.0000000000e+00 +0.0000000000e+00 +2.0465345103e+03 2.0465345103e+03 0.0000000000e+00 0.0000e+00 -1.0000e+00
       -2 -1    0    0    0  501 -0.0000000000e+00 -0.0000000000e+00 -3.1133295564e+01 3.1133295564e+01 0.0000000000e+00 0.0000e+00 1.0000e+00
      -13  1    1    2    0    0 -1.6123863908e+02 +1.8769538790e+02 +8.0242324848e+02 8.3970859652e+02 0.0000000000e+00 0.0000e+00 1.0000e+00
       13  1    1    2    0    0 +1.6123863908e+02 -1.8769538790e+02 +1.2129779662e+03 1.2379592093e+03 0.0000000000e+00 0.0000e+00 -1.0000e+00
<mgrwt>
<rscale>  0 0.50483805E+03</rscale>
<asrwt>0</asrwt>
<pdfrwt beam="1">  1        2 0.31485136E+00 0.50483805E+03</pdfrwt>
<pdfrwt beam="2">  1       -2 0.47897394E-02 0.50483805E+03</pdfrwt>
<totfact> 0.15450966E+03</totfact>
</mgrwt>
<rwgt>
<wgt id='morphing_basis_vector_1'> +3.0210901e-04 </wgt>
<wgt id='morphing_basis_vector_2'> +1.7788412e-04 </wgt>
<wgt id='morphing_basis_vector_3'> +2.1361997e-04 </wgt>
<wgt id='morphing_basis_vector_4'> +7.1942533e-05 </wgt>
<wgt id='morphing_basis_vector_5'> +1.0400158e-04 </wgt>
</rwgt>
</event>
<event>
 4      1 +1.9425900e-05 4.96996600e+02 7.81860800e-03 9.40652400e-02
        2 -1    0    0  501    0 +0.0000000000e+00 +0.0000000000e+00 +1.4713269167e+03 1.4713269167e+03 0.0000000000e+00 0.0000e+00 -1.0000e+00
       -2 -1    0    0    0  501 -0.0000000000e+00 -0.0000000000e+00 -4.1969881292e+01 4.1969881292e+01 0.0000000000e+00 0.0000e+00 1.0000e+00
      -13  1    1    2    0    0 -2.1369458936e+02 -1.1507376191e+02 +5.5229549093e+02 6.0327245711e+02 0.0000000000e+00 0.0000e+00 1.0000e+00
       13  1    1    2    0    0 +2.1369458936e+02 +1.1507376191e+02 +8.7706154450e+02 9.1002434091e+02 0.0000000000e+00 0.0000e+00 -1.0000e+00
<mgrwt>
<rscale>  0 0.49699664E+03</rscale>
<asrwt>0</asrwt>
<pdfrwt beam="1">  1        2 0.22635795E+00 0.49699664E+03</pdfrwt>
<pdfrwt beam="2">  1       -2 0.64569059E-02 0.49699664E+03</pdfrwt>
<totfact> 0.20153985E+03</totfact>
</mgrwt>
<rwgt>
<wgt id='morphing_basis_vector_1'> +2.8790263e-04 </wgt>
<wgt id='morphing_basis_vector_2'> +1.6835004e-04 </wgt>
<wgt id='morphing_basis_vector_3'> +2.0200838e-04 </wgt>
<wgt id='morphing_basis_vector_4'> +6.6550223e-05 </wgt>
<wgt id='morphing_basis_vector_5'> +9.4916759e-05 </wgt>
</rwgt>
</event>
<event>
 4      1 +1.9425900e-05 4.41776300e+02 7.81860800e-03 9.54050800e-02
        2 -1    0    0  501    0 +0.0000000000e+00 +0.0000000000e+00 +6.8394775617e+02 6.8394775617e+02 0.0000000000e+00 0.0000e+00 1.0000e+00
       -2 -1    0    0    0  501 -0.0000000000e+00 -0.0000000000e+00 -7.1338173361e+01 7.1338173361e+01 0.0000000000e+00 0.0000e+00 -1.0000e+00
      -13  1    1    2    0    0 +4.9588235943e+01 -1.4810920295e+02 +3.9268358069e+01 1.6105071589e+02 0.0000000000e+00 0.0000e+00 -1.0000e+00
       13  1    1    2    0    0 -4.9588235943e+01 +1.4810920295e+02 +5.7334122474e+02 5.9423521364e+02 0.0000000000e+00 0.0000e+00 1.0000e+00
<mgrwt>
<rscale>  0 0.44177634E+03</rscale>
<asrwt>0</asrwt>
<pdfrwt beam="1">  1        2 0.10522273E+00 0.44177634E+03</pdfrwt>
<pdfrwt beam="2">  1       -2 0.10975104E-01 0.44177634E+03</pdfrwt>
<totfact> 0.26786737E+03</totfact>
</mgrwt>
<rwgt>
<wgt id='morphing_basis_vector_1'> +2.0174201e-04 </wgt>
<wgt id='morphing_basis_vector_2'> +1.0942617e-04 </wgt>
<wgt id='morphing_basis_vector_3'> +1.3567072e-04 </wgt>
<wgt id='morphing_basis_vector_4'> +3.6726423e-05 </wgt>
<wgt id='morphing_basis_vector_5'> +4.5270825e-05 </wgt>
</rwgt>
</event>
<event>
 4      1 +1.9425900e-05 4.59776400e+02 7.81860800e-03 9.49465900e-02
        2 -1    0    0  501    0 +0.0000000000e+00 +0.0000000000e+00 +7.8942800263e+02 7.8942800263e+02 0.0000000000e+00 0.0000e+00 -1.0000e+00
       -2 -1    0    0    0  501 -0.0000000000e+00 -0.0000000000e+00 -6.6945405781e+01 6.6945405781e+01 0.0000000000e+00 0.0000e+00 1.0000e+00
      -13  1    1    2    0    0 +2.9768031375e+01 -1.8208662479e+02 +1.0580937652e+02 2.1269061752e+02 0.0000000000e+00 0.0000e+00 1.0000e+00
       13  1    1    2    0    0 -2.9768031375e+01 +1.8208662479e+02 +6.1667322034e+02 6.4368279090e+02 0.0000000000e+00 0.0000e+00 -1.0000e+00
<mgrwt>
<rscale>  0 0.45977637E+03</rscale>
<asrwt>0</asrwt>
<pdfrwt beam="1">  1        2 0.12145046E+00 0.45977637E+03</pdfrwt>
<pdfrwt beam="2">  1       -2 0.10299294E-01 0.45977637E+03</pdfrwt>
<totfact> 0.24836866E+03</totfact>
</mgrwt>
<rwgt>
<wgt id='morphing_basis_vector_1'> +2.2627802e-04 </wgt>
<wgt id='morphing_basis_vector_2'> +1.2396466e-04 </wgt>
<wgt id='morphing_basis_vector_3'> +1.5510367e-04 </wgt>
<wgt id='morphing_basis_vector_4'> +4.5251192e-05 </wgt>
<wgt id='morphing_basis_vector_5'> +5.8834893e-05 </wgt>
</rwgt>
</event>
<event>
 4      1 +1.9425900e-05 5.12143200e+02 7.81860800e-03 9.37299700e-02
        2 -1    0    0  501    0 +0.0000000000e+00 +0.0000000000e+00 +1.0712643777e+03 1.0712643777e+03 0.0000000000e+00 0.0000e+00 -1.0000e+00
       -2 -1    0    0    0  501 -0.0000000000e+00 -0.0000000000e+00 -6.1210538176e+01 6.1210538176e+01 0.0000000000e+00 0.0000e+00 1.0000e+00
      -13  1    1    2    0    0 -9.0081433753e+01 -2.0184803455e+02 +2.1913937749e+02 3.1125449478e+02 0.0000000000e+00 0.0000e+00 1.0000e+00
       13  1    1    2    0    0 +9.0081433753e+01 +2.0184803455e+02 +7.9091446200e+02 8.2122042106e+02 0.0000000000e+00 0.0000e+00 -1.0000e+00
<mgrwt>
<rscale>  0 0.51214322E+03</rscale>
<asrwt>0</asrwt>
<pdfrwt beam="1">  1        2 0.16480989E+00 0.51214322E+03</pdfrwt>
<pdfrwt beam="2">  1       -2 0.94170067E-02 0.51214322E+03</pdfrwt>
<totfact> 0.18939292E+03</totfact>
</mgrwt>
<rwgt>
<wgt id='morphing_basis_vector_1'> +3.1191190e-04 </wgt>
<wgt id='morphing_basis_vector_2'> +1.7490157e-04 </wgt>
<wgt id='morphing_basis_vector_3'> +2.2635202e-04 </wgt>
<wgt id='morphing_basis_vector_4'> +7.9023305e-05 </wgt>
<wgt id='morphing_basis_vector_5'> +1.1283073e-04 </wgt>
</rwgt>
</event>
<event>
 4      1 +1.9425900e-05 4.93230500e+02 7.81860800e-03 9.41505900e-02
        2 -1    0    0  501    0 +0.0000000000e+00 +0.0000000000e+00 +3.4220776578e+02 3.4220776578e+02 0.0000000000e+00 0.0000e+00 -1.0000e+00
       -2 -1    0    0    0  501 -0.0000000000e+00 -0.0000000000e+00 -1.7772559772e+02 1.7772559772e+02 0.0000000000e+00 0.0000e+00 1.0000e+00
      -13  1    1    2    0    0 -5.2448985234e+01 -3.0986013687e+01 -1.6966951263e+02 1.8027415958e+02 0.0000000000e+00 0.0000e+00 1.0000e+00
       13  1    1    2    0    0 +5.2448985234e+01 +3.0986013687e+01 +3.3415168069e+02 3.3965920392e+02 0.0000000000e+00 0.0000e+00 -1.0000e+00
<mgrwt>
<rscale>  0 0.49323049E+03</rscale>
<asrwt>0</asrwt>
<pdfrwt beam="1">  1        2 0.52647348E-01 0.49323049E+03</pdfrwt>
<pdfrwt beam="2">  1       -2 0.27342400E-01 0.49323049E+03</pdfrwt>
<totfact> 0.13269642E+03</totfact>
</mgrwt>
<rwgt>
<wgt id='morphing_basis_vector_1'> +2.7738633e-04 </wgt>
<wgt id='morphing_basis_vector_2'> +1.5184408e-04 </wgt>
<wgt id='morphing_basis_vector_3'> +1.9836526e-04 </wgt>
<wgt id='morphing_basis_vector_4'> +6.5512845e-05 </wgt>
<wgt id='morphing_basis_vector_5'> +9.0583225e-05 </wgt>
</rwgt>
</event>
<event>
 4      1 +1.9425900e-05 4.52639700e+02 7.81860800e-03 9.51256900e-02
        2 -1    0    0  501    0 +0.0000000000e+00 +0.0000000000e+00 +6.0597449087e+02 6.0597449087e+02 0.0000000000e+00 0.0000e+00 -1.0000e+00
       -2 -1    0    0    0  501 -0.0000000000e+00 -0.0000000000e+00 -8.4526115387e+01 8.4526115387e+01 0.0000000000e+00 0.0000e+00 1.0000e+00
      -13  1    1    2    0    0 +4.3485362928e+01 +1.1187737034e+02 -3.1969202047e+01 1.2421575046e+02 0.0000000000e+00 0.0000e+00 1.0000e+00
       13  1    1    2    0    0 -4.3485362928e+01 -1.1187737034e+02 +5.5341757753e+02 5.6628485579e+02 0.0000000000e+00 0.0000e+00 -1.0000e+00
<mgrwt>
<rscale>  0 0.45263968E+03</rscale>
<asrwt>0</asrwt>
<pdfrwt beam="1">  1        2 0.93226842E-01 0.45263968E+03</pdfrwt>
<pdfrwt beam="2">  1       -2 0.13004018E-01 0.45263968E+03</pdfrwt>
<totfact> 0.23651168E+03</totfact>
</mgrwt>
<rwgt>
<wgt id='morphing_basis_vector_1'> +2.1592955e-04 </wgt>
<wgt id='morphing_basis_vector_2'> +1.1697302e-04 </wgt>
<wgt id='morphing_basis_vector_3'> +1.4733740e-04 </wgt>
<wgt id='morphing_basis_vector_4'> +4.1767236e-05 </wgt>
<wgt id='morphing_basis_vector_5'> +5.3161285e-05 </wgt>
</rwgt>
</event>
<event>
 4      1 +1.9425900e-05 4.71037800e+02 7.81860800e-03 9.46708100e-02
        2 -1    0    0  501    0 +0.0000000000e+00 +0.0000000000e+00 +1.2608534212e+02 1.2608534212e+02 0.0000000000e+00 0.0000e+00 -1.0000e+00
       -2 -1    0    0    0  501 -0.0000000000e+00 -0.0000000000e+00 -4.3993343333e+02 4.3993343333e+02 0.0000000000e+00 0.0000e+00 1.0000e+00
      -13  1    1    2    0    0 -7.6760224204e+01 +3.3976876450e+01 -4.2134696597e+02 4.2962754321e+02 0.0000000000e+00 0.0000e+00 1.0000e+00
       13  1    1    2    0    0 +7.6760224204e+01 -3.3976876450e+01 +1.0749887476e+02 1.3639123223e+02 0.0000000000e+00 0.0000e+00 -1.0000e+00
<mgrwt>
<rscale>  0 0.47103782E+03</rscale>
<asrwt>0</asrwt>
<pdfrwt beam="1">  1        2 0.19397745E-01 0.47103782E+03</pdfrwt>
<pdfrwt beam="2">  1       -2 0.67682067E-01 0.47103782E+03</pdfrwt>
<totfact> 0.75288905E+02</totfact>
</mgrwt>
<rwgt>
<wgt id='morphing_basis_vector_1'> +2.4216174e-04 </wgt>
<wgt id='morphing_basis_vector_2'> +1.3169795e-04 </wgt>
<wgt id='morphing_basis_vector_3'> +1.6888431e-04 </wgt>
<wgt id='morphing_basis_vector_4'> +5.1514142e-05 </wgt>
<wgt id='morphing_basis_vector_5'> +6.8501487e-05 </wgt>
</rwgt>
</event>
<event>
 4      1 +1.9425900e-05 4.90237900e+02 7.81860800e-03 9.42190100e-02
        2 -1    0    0  501    0 +0.0000000000e+00 +0.0000000000e+00 +3.5024412928e+02 3.5024412928e+02 0.0000000000e+00 0.0000e+00 -1.0000e+00
       -2 -1    0    0    0  501 -0.0000000000e+00 -0.0000000000e+00 -1.7154688226e+02 1.7154688226e+02 0.0000000000e+00 0.0000e+00 1.0000e+00
      -13  1    1    2    0    0 +6.7580403393e+01 -2.2060223821e+02 +1.2515776029e+00 2.3072499837e+02 0.0000000000e+00 0.0000e+00 1.0000e+00
       13  1    1    2    0    0 -6.7580403393e+01 +2.2060223821e+02 +1.7744566942e+02 2.9106601316e+02 0.0000000000e+00 0.0000e+00 -1.0000e+00
<mgrwt>
<rscale>  0 0.49023785E+03</rscale>
<asrwt>0</asrwt>
<pdfrwt beam="1">  1        2 0.53883712E-01 0.49023785E+03</pdfrwt>
<pdfrwt beam="2">  1       -2 0.26391828E-01 0.49023785E+03</pdfrwt>
<totfact> 0.13741134E+03</totfact>
</mgrwt>
<rwgt>
<wgt id='morphing_basis_vector_1'> +2.7475614e-04 </wgt>
<wgt id='morphing_basis_vector_2'> +1.5628777e-04 </wgt>
<wgt id='morphing_basis_vector_3'> +1.9306803e-04 </wgt>
<wgt id='morphing_basis_vector_4'> +6.2628689e-05 </wgt>
<wgt id='morphing_basis_vector_5'> +8.7466055e-05 </wgt>
</rwgt>
</event>
<event>
 4      1 +1.9425900e-05 4.34781000e+02 7.81860800e-03 9.55895000e-02
        2 -1    0    0  501    0 +0.0000000000e+00 +0.0000000000e+00 +5.2079380036e+02 5.2079380036e+02 0.0000000000e+00 0.0000e+00 1.0000e+00
       -2 -1    0    0    0  501 -0.0000000000e+00 -0.0000000000e+00 -9.0743443441e+01 9.0743443441e+01 0.0000000000e+00 0.0000e+00 -1.0000e+00
      -13  1    1    2    0    0 -1.5590769089e+02 -1.2074228421e+02 +8.6323102426e+01 2.1526166702e+02 0.0000000000e+00 0.0000e+00 -1.0000e+00
       13  1    1    2    0    0 +1.5590769089e+02 +1.2074228421e+02 +3.4372725449e+02 3.9627557678e+02 0.0000000000e+00 0.0000e+00 1.0000e+00
<mgrwt>
<rscale>  0 0.43478097E+03</rscale>
<asrwt>0</asrwt>
<pdfrwt beam="1">  1        2 0.80122121E-01 0.43478097E+03</pdfrwt>
<pdfrwt beam="2">  1       -2 0.13960530E-01 0.43478097E+03</pdfrwt>
<totfact> 0.25114060E+03</totfact>
</mgrwt>
<rwgt>
<wgt id='morphing_basis_vector_1'> +1.9384245e-04 </wgt>
<wgt id='morphing_basis_vector_2'> +1.0730262e-04 </wgt>
<wgt id='morphing_basis_vector_3'> +1.2797815e-04 </wgt>
<wgt id='morphing_basis_vector_4'> +3.3673746e-05 </wgt>
<wgt id='morphing_basis_vector_5'> +4.0665974e-05 </wgt>
</rwgt>
</event>
<event>
 4      1 +1.9425900e-05 4.33749300e+02 7.81860800e-03 9.56170100e-02
        2 -1    0    0  501    0 +0.0000000000e+00 +0.0000000000e+00 +3.5602619338e+02 3.5602619338e+02 0.0000000000e+00 0.0000e+00 -1.0000e+00
       -2 -1    0    0    0  501 -0.0000000000e+00 -0.0000000000e+00 -1.3210999925e+02 1.3210999925e+02 0.0000000000e+00 0.0000e+00 1.0000e+00
      -13  1    1    2    0    0 +1.2267269733e+02 +1.2263670401e+02 -3.4542445229e+01 1.7686585980e+02 0.0000000000e+00 0.0000e+00 1.0000e+00
       13  1    1    2    0    0 -1.2267269733e+02 -1.2263670401e+02 +2.5845863936e+02 3.1127033283e+02 0.0000000000e+00 0.0000e+00 -1.0000e+00
<mgrwt>
<rscale>  0 0.43374933E+03</rscale>
<asrwt>0</asrwt>
<pdfrwt beam="1">  1        2 0.54773260E-01 0.43374933E+03</pdfrwt>
<pdfrwt beam="2">  1       -2 0.20324615E-01 0.43374933E+03</pdfrwt>
<totfact> 0.20901940E+03</totfact>
</mgrwt>
<rwgt>
<wgt id='morphing_basis_vector_1'> +1.9188255e-04 </wgt>
<wgt id='morphing_basis_vector_2'> +1.0446894e-04 </wgt>
<wgt id='morphing_basis_vector_3'> +1.2748903e-04 </wgt>
<wgt id='morphing_basis_vector_4'> +3.3329261e-05 </wgt>
<wgt id='morphing_basis_vector_5'> +3.9965445e-05 </wgt>
</rwgt>
</event>
<event>
 4      1 +1.9425900e-05 4.79390000e+02 7.81860800e-03 9.44714700e-02
        2 -1    0    0  501    0 +0.0000000000e+00 +0.0000000000e+00 +3.8263671330e+02 3.8263671330e+02 0.0000000000e+00 0.0000e+00 1.0000e+00
       -2 -1    0    0    0  501 -0.0000000000e+00 -0.0000000000e+00 -1.5015208089e+02 1.5015208089e+02 0.0000000000e+00 0.0000e+00 -1.0000e+00
      -13  1    1    2    0    0 -2.2720983546e+02 -7.8609978440e+00 +3.1838237304e+01 2.2956432208e+02 0.0000000000e+00 0.0000e+00 -1.0000e+00
       13  1    1    2    0    0 +2.2720983546e+02 +7.8609978440e+00 +2.0064639511e+02 3.0322447211e+02 0.0000000000e+00 0.0000e+00 1.0000e+00
<mgrwt>
<rscale>  0 0.47939002E+03</rscale>
<asrwt>0</asrwt>
<pdfrwt beam="1">  1        2 0.58867186E-01 0.47939002E+03</pdfrwt>
<pdfrwt beam="2">  1       -2 0.23100320E-01 0.47939002E+03</pdfrwt>
<totfact> 0.15602028E+03</totfact>
</mgrwt>
<rwgt>
<wgt id='morphing_basis_vector_1'> +2.5734907e-04 </wgt>
<wgt id='morphing_basis_vector_2'> +1.4642245e-04 </wgt>
<wgt id='morphing_basis_vector_3'> +1.7827430e-04 </wgt>
<wgt id='morphing_basis_vector_4'> +5.5734708e-05 </wgt>
<wgt id='morphing_basis_vector_5'> +7.6446188e-05 </wgt>
</rwgt>
</event>
<event>
 4      1 +1.9425900e-05 4.30286000e+02 7.81860800e-03 9.57099600e-02
        2 -1    0    0  501    0 +0.0000000000e+00 +0.0000000000e+00 +8.1314059363e+02 8.1314059363e+02 0.0000000000e+00 0.0000e+00 -1.0000e+00
       -2 -1    0    0    0  501 -0.0000000000e+00 -0.0000000000e+00 -5.6923134545e+01 5.6923134545e+01 0.0000000000e+00 0.0000e+00 1.0000e+00
      -13  1    1    2    0    0 -3.4873588616e+01 +1.3867709475e+02 +5.3072509737e+01 1.5252604722e+02 0.0000000000e+00 0.0000e+00 1.0000e+00
       13  1    1    2    0    0 +3.4873588616e+01 -1.3867709475e+02 +7.0314494935e+02 7.1753768095e+02 0.0000000000e+00 0.0000e+00 -1.0000e+00
<mgrwt>
<rscale>  0 0.43028600E+03</rscale>
<asrwt>0</asrwt>
<pdfrwt beam="1">  1        2 0.12509854E+00 0.43028600E+03</pdfrwt>
<pdfrwt beam="2">  1       -2 0.87574059E-02 0.43028600E+03</pdfrwt>
<totfact> 0.30768121E+03</totfact>
</mgrwt>
<rwgt>
<wgt id='morphing_basis_vector_1'> +1.8739368e-04 </wgt>
<wgt id='morphing_basis_vector_2'> +1.0127400e-04 </wgt>
<wgt id='morphing_basis_vector_3'> +1.2437292e-04 </wgt>
<wgt id='morphing_basis_vector_4'> +3.1982228e-05 </wgt>
<wgt id='morphing_basis_vector_5'> +3.7785157e-05 </wgt>
</rwgt>
</event>
<event>
 4      1 +1.9425900e-05 4.53795200e+02 7.81860800e-03 9.50964500e-02
        2 -1    0    0  501    0 +0.0000000000e+00 +0.0000000000e+00 +8.6061129487e+02 8.6061129487e+02 0.0000000000e+00 0.0000e+00 1.0000e+00
       -2 -1    0    0    0  501 -0.0000000000e+00 -0.0000000000e+00 -5.9820882749e+01 5.9820882749e+01 0.0000000000e+00 0.0000e+00 -1.0000e+00
      -13  1    1    2    0    0 -1.7267957757e+02 +1.0070192667e+02 +1.8266312277e+02 2.7078576581e+02 0.0000000000e+00 0.0000e+00 -1.0000e+00
       13  1    1    2    0    0 +1.7267957757e+02 -1.0070192667e+02 +6.1812728934e+02 6.4964641181e+02 0.0000000000e+00 0.0000e+00 1.0000e+00
<mgrwt>
<rscale>  0 0.45379523E+03</rscale>
<asrwt>0</asrwt>
<pdfrwt beam="1">  1        2 0.13240173E+00 0.45379523E+03</pdfrwt>
<pdfrwt beam="2">  1       -2 0.92032134E-02 0.45379523E+03</pdfrwt>
<totfact> 0.26509957E+03</totfact>
</mgrwt>
<rwgt>
<wgt id='morphing_basis_vector_1'> +2.1843040e-04 </wgt>
<wgt id='morphing_basis_vector_2'> +1.2071964e-04 </wgt>
<wgt id='morphing_basis_vector_3'> +1.4801550e-04 </wgt>
<wgt id='morphing_basis_vector_4'> +4.2151132e-05 </wgt>
<wgt id='morphing_basis_vector_5'> +5.4101297e-05 </wgt>
</rwgt>
</event>
<event>
 4      1 +1.9425900e-05 4.99248700e+02 7.81860800e-03 9.40145800e-02
        2 -1    0    0  501    0 +0.0000000000e+00 +0.0000000000e+00 +9.2171371516e+02 9.2171371516e+02 0.0000000000e+00 0.0000e+00 -1.0000e+00
       -2 -1    0    0    0  501 -0.0000000000e+00 -0.0000000000e+00 -6.7604838980e+01 6.7604838980e+01 0.0000000000e+00 0.0000e+00 1.0000e+00
      -13  1    1    2    0    0 -2.0553651124e+02 +1.4142367178e+02 +4.1090763186e+02 4.8071924687e+02 0.0000000000e+00 0.0000e+00 1.0000e+00
       13  1    1    2    0    0 +2.0553651124e+02 -1.4142367178e+02 +4.4320124432e+02 5.0859930727e+02 0.0000000000e+00 0.0000e+00 -1.0000e+00
<mgrwt>
<rscale>  0 0.49924866E+03</rscale>
<asrwt>0</asrwt>
<pdfrwt beam="1">  1        2 0.14180210E+00 0.49924866E+03</pdfrwt>
<pdfrwt beam="2">  1       -2 0.10400745E-01 0.49924866E+03</pdfrwt>
<totfact> 0.20018130E+03</totfact>
</mgrwt>
<rwgt>
<wgt id='morphing_basis_vector_1'> +2.9607121e-04 </wgt>
<wgt id='morphing_basis_vector_2'> +1.8391518e-04 </wgt>
<wgt id='morphing_basis_vector_3'> +2.0355966e-04 </wgt>
<wgt id='morphing_basis_vector_4'> +6.6423021e-05 </wgt>
<wgt id='morphing_basis_vector_5'> +9.7636900e-05 </wgt>
</rwgt>
</event>
<event>
 4      1 +1.9425900e-05 4.49720600e+02 7.81860800e-03 9.51999400e-02
        2 -1    0    0  501    0 +0.0000000000e+00 +0.0000000000e+00 +1.2535927788e+03 1.2535927788e+03 0.0000000000e+00 0.0000e+00 1.0000e+00
       -2 -1    0    0    0  501 -0.0000000000e+00 -0.0000000000e+00 -4.0333799519e+01 4.0333799519e+01 0.0000000000e+00 0.0000e+00 -1.0000e+00
      -13  1    1    2    0    0 +7.8292176506e+01 +2.0452218245e+02 +7.5342684965e+02 7.8460882342e+02 0.0000000000e+00 0.0000e+00 -1.0000e+00
       13  1    1    2    0    0 -7.8292176506e+01 -2.0452218245e+02 +4.5983212963e+02 5.0931775490e+02 0.0000000000e+00 0.0000e+00 1.0000e+00
<mgrwt>
<rscale>  0 0.44972062E+03</rscale>
<asrwt>0</asrwt>
<pdfrwt beam="1">  1        2 0.19286040E+00 0.44972062E+03</pdfrwt>
<pdfrwt beam="2">  1       -2 0.62052009E-02 0.44972062E+03</pdfrwt>
<totfact> 0.28261793E+03</totfact>
</mgrwt>
<rwgt>
<wgt id='morphing_basis_vector_1'> +2.2709207e-04 </wgt>
<wgt id='morphing_basis_vector_2'> +1.6143354e-04 </wgt>
<wgt id='morphing_basis_vector_3'> +1.3402522e-04 </wgt>
<wgt id='morphing_basis_vector_4'> +3.7699711e-05 </wgt>
<wgt id='morphing_basis_vector_5'> +5.1798622e-05 </wgt>
</rwgt>
</event>
<event>
 4      1 +1.9425900e-05 4.94593000e+02 7.81860800e-03 9.41196200e-02
        2 -1    0    0  501    0 +0.0000000000e+00 +0.0000000000e+00 +4.1506226282e+02 4.1506226282e+02 0.0000000000e+00 0.0000e+00 -1.0000e+00
       -2 -1    0    0    0  501 -0.0000000000e+00 -0.0000000000e+00 -1.4734066728e+02 1.4734066728e+02 0.0000000000e+00 0.0000e+00 1.0000e+00
      -13  1    1    2    0    0 -1.9412678254e+02 -1.5114964141e+02 +1.0545304963e+02 2.6767847779e+02 0.0000000000e+00 0.0000e+00 1.0000e+00
       13  1    1    2    0    0 +1.9412678254e+02 +1.5114964141e+02 +1.6226854591e+02 2.9472445231e+02 0.0000000000e+00 0.0000e+00 -1.0000e+00
<mgrwt>
<rscale>  0 0.49459297E+03</rscale>
<asrwt>0</asrwt>
<pdfrwt beam="1">  1        2 0.63855732E-01 0.49459297E+03</pdfrwt>
<pdfrwt beam="2">  1       -2 0.22667795E-01 0.49459297E+03</pdfrwt>
<totfact> 0.14708139E+03</totfact>
</mgrwt>
<rwgt>
<wgt id='morphing_basis_vector_1'> +2.8601661e-04 </wgt>
<wgt id='morphing_basis_vector_2'> +1.7282672e-04 </wgt>
<wgt id='morphing_basis_vector_3'> +1.9752648e-04 </wgt>
<wgt id='morphing_basis_vector_4'> +6.4070064e-05 </wgt>
<wgt id='morphing_basis_vector_5'> +9.2341058e-05 </wgt>
</rwgt>
</event>
<event>
 4      1 +1.9425900e-05 4.37343400e+02 7.81860800e-03 9.55215200e-02
        2 -1    0    0  501    0 +0.0000000000e+00 +0.0000000000e+00 +4.5227895168e+01 4.5227895168e+01 0.0000000000e+00 0.0000e+00 -1.0000e+00
       -2 -1    0    0    0  501 -0.0000000000e+00 -0.0000000000e+00 -1.0572528017e+03 1.0572528017e+03 0.0000000000e+00 0.0000e+00 1.0000e+00
      -13  1    1    2    0    0 +1.0541976373e+02 +1.2759590787e+02 -8.6626834929e+02 8.8193814707e+02 0.0000000000e+00 0.0000e+00 1.0000e+00
       13  1    1    2    0    0 -1.0541976373e+02 -1.2759590787e+02 -1.4575655725e+02 2.2054254980e+02 0.0000000000e+00 0.0000e+00 -1.0000e+00
<mgrwt>
<rscale>  0 0.43734343E+03</rscale>
<asrwt>0</asrwt>
<pdfrwt beam="1">  1        2 0.69581381E-02 0.43734343E+03</pdfrwt>
<pdfrwt beam="2">  1       -2 0.16265427E+00 0.43734343E+03</pdfrwt>
<totfact> 0.31341820E+02</totfact>
</mgrwt>
<rwgt>
<wgt id='morphing_basis_vector_1'> +1.9622006e-04 </wgt>
<wgt id='morphing_basis_vector_2'> +1.0658533e-04 </wgt>
<wgt id='morphing_basis_vector_3'> +1.3111768e-04 </wgt>
<wgt id='morphing_basis_vector_4'> +3.4817610e-05 </wgt>
<wgt id='morphing_basis_vector_5'> +4.2286448e-05 </wgt>
</rwgt>
</event>
<event>
 4      1 +1.9425900e-05 4.74272000e+02 7.81860800e-03 9.45930900e-02
        2 -1    0    0  501    0 +0.0000000000e+00 +0.0000000000e+00 +7.3811751049e+02 7.3811751049e+02 0.0000000000e+00 0.0000e+00 1.0000e+00
       -2 -1    0    0    0  501 -0.0000000000e+00 -0.0000000000e+00 -7.6184999841e+01 7.6184999841e+01 0.0000000000e+00 0.0000e+00 -1.0000e+00
      -13  1    1    2    0    0 +2.3168316082e+02 -1.5806006298e+00 +2.4419817543e+02 3.3661897479e+02 0.0000000000e+00 0.0000e+00 -1.0000e+00
       13  1    1    2    0    0 -2.3168316082e+02 +1.5806006298e+00 +4.1773433521e+02 4.7768353553e+02 0.0000000000e+00 0.0000e+00 1.0000e+00
<mgrwt>
<rscale>  0 0.47427200E+03</rscale>
<asrwt>0</asrwt>
<pdfrwt beam="1">  1        2 0.11355654E+00 0.47427200E+03</pdfrwt>
<pdfrwt beam="2">  1       -2 0.11720770E-01 0.47427200E+03</pdfrwt>
<totfact> 0.22048609E+03</totfact>
</mgrwt>
<rwgt>
<wgt id='morphing_basis_vector_1'> +2.5062346e-04 </wgt>
<wgt id='morphing_basis_vector_2'> +1.4555916e-04 </wgt>
<wgt id='morphing_basis_vector_3'> +1.7099772e-04 </wgt>
<wgt id='morphing_basis_vector_4'> +5.2364086e-05 </wgt>
<wgt id='morphing_basis_vector_5'> +7.1641473e-05 </wgt>
</rwgt>
</event>
<event>
 4      1 +1.9425900e-05 4.39737800e+02 7.81860800e-03 9.54584500e-02
        2 -1    0    0  501    0 +0.0000000000e+00 +0.0000000000e+00 +1.9750105658e+02 1.9750105658e+02 0.0000000000e+00 0.0000e+00 -1.0000e+00
       -2 -1    0    0    0  501 -0.0000000000e+00 -0.0000000000e+00 -2.4477004731e+02 2.4477004731e+02 0.0000000000e+00 0.0000e+00 1.0000e+00
      -13  1    1    2    0    0 +2.0575858520e+02 -7.1645291796e+00 -1.0124389946e+02 2.2943027925e+02 0.0000000000e+00 0.0000e+00 1.0000e+00
       13  1    1    2    0    0 -2.0575858520e+02 +7.1645291796e+00 +5.3974908729e+01 2.1284082464e+02 0.0000000000e+00 0.0000e+00 -1.0000e+00
<mgrwt>
<rscale>  0 0.43973784E+03</rscale>
<asrwt>0</asrwt>
<pdfrwt beam="1">  1        2 0.30384778E-01 0.43973784E+03</pdfrwt>
<pdfrwt beam="2">  1       -2 0.37656930E-01 0.43973784E+03</pdfrwt>
<totfact> 0.13964958E+03</totfact>
</mgrwt>
<rwgt>
<wgt id='morphing_basis_vector_1'> +2.0051840e-04 </wgt>
<wgt id='morphing_basis_vector_2'> +1.1222145e-04 </wgt>
<wgt id='morphing_basis_vector_3'> +1.3259544e-04 </wgt>
<wgt id='morphing_basis_vector_4'> +3.5664934e-05 </wgt>
<wgt id='morphing_basis_vector_5'> +4.3959649e-05 </wgt>
</rwgt>
</event>
<event>
 4      1 +1.9425900e-05 4.64622300e+02 7.81860800e-03 9.48269200e-02
        2 -1    0    0  501    0 +0.0000000000e+00 +0.0000000000e+00 +2.1250625363e+02 2.1250625363e+02 0.0000000000e+00 0.0000e+00 -1.0000e+00
       -2 -1    0    0    0  501 -0.0000000000e+00 -0.0000000000e+00 -2.5396174740e+02 2.5396174740e+02 0.0000000000e+00 0.0000e+00 1.0000e+00
      -13  1    1    2    0    0 +2.0151996272e+02 -1.8044435207e+01 -1.3534150651e+02 2.4341984389e+02 0.0000000000e+00 0.0000e+00 1.0000e+00
       13  1    1    2    0    0 -2.0151996272e+02 +1.8044435207e+01 +9.3886012737e+01 2.2304815714e+02 0.0000000000e+00 0.0000e+00 -1.0000e+00
<mgrwt>
<rscale>  0 0.46462225E+03</rscale>
<asrwt>0</asrwt>
<pdfrwt beam="1">  1        2 0.32693270E-01 0.46462225E+03</pdfrwt>
<pdfrwt beam="2">  1       -2 0.39071038E-01 0.46462225E+03</pdfrwt>
<totfact> 0.12015387E+03</totfact>
</mgrwt>
<rwgt>
<wgt id='morphing_basis_vector_1'> +2.3365543e-04 </wgt>
<wgt id='morphing_basis_vector_2'> +1.2926536e-04 </wgt>
<wgt id='morphing_basis_vector_3'> +1.6053181e-04 </wgt>
<wgt id='morphing_basis_vector_4'> +4.7702786e-05 </wgt>
<wgt id='morphing_basis_vector_5'> +6.2909028e-05 </wgt>
</rwgt>
</event>
<event>
 4      1 +1.9425900e-05 4.60225900e+02 7.81860800e-03 9.49354300e-02
        2 -1    0    0  501    0 +0.0000000000e+00 +0.0000000000e+00 +9.2773045346e+01 9.2773045346e+01 0.0000000000e+00 0.0000e+00 -1.0000e+00
       -2 -1    0    0    0  501 -0.0000000000e+00 -0.0000000000e+00 -5.7076882176e+02 5.7076882176e+02 0.0000000000e+00 0.0000e+00 1.0000e+00
      -13  1    1    2    0    0 +1.8371136934e+02 -1.1485372811e+02 -1.2721884165e+02 2.5124864130e+02 0.0000000000e+00 0.0000e+00 1.0000e+00
       13  1    1    2    0    0 -1.8371136934e+02 +1.1485372811e+02 -3.5077693477e+02 4.1229322581e+02 0.0000000000e+00 0.0000e+00 -1.0000e+00
<mgrwt>
<rscale>  0 0.46022587E+03</rscale>
<asrwt>0</asrwt>
<pdfrwt beam="1">  1        2 0.14272776E-01 0.46022587E+03</pdfrwt>
<pdfrwt beam="2">  1       -2 0.87810590E-01 0.46022587E+03</pdfrwt>
<totfact> 0.61547678E+02</totfact>
</mgrwt>
<rwgt>
<wgt id='morphing_basis_vector_1'> +2.4976630e-04 </wgt>
<wgt id='morphing_basis_vector_2'> +1.9505357e-04 </wgt>
<wgt id='morphing_basis_vector_3'> +1.4157781e-04 </wgt>
<wgt id='morphing_basis_vector_4'> +4.0338320e-05 </wgt>
<wgt id='morphing_basis_vector_5'> +6.0410148e-05 </wgt>
</rwgt>
</event>
<event>
 4      1 +1.9425900e-05 5.06621700e+02 7.81860800e-03 9.38507300e-02
        2 -1    0    0  501    0 +0.0000000000e+00 +0.0000000000e+00 +8.4482695349e+02 8.4482695349e+02 0.0000000000e+00 0.0000e+00 -1.0000e+00
       -2 -1    0    0    0  501 -0.0000000000e+00 -0.0000000000e+00 -7.5952111005e+01 7.5952111005e+01 0.0000000000e+00 0.0000e+00 1.0000e+00
      -13  1    1    2    0    0 -5.6747020734e+01 -2.4543569233e+02 +4.3278012150e+02 5.0075696400e+02 0.0000000000e+00 0.0000e+00 1.0000e+00
       13  1    1    2    0    0 +5.6747020734e+01 +2.4543569233e+02 +3.3609472098e+02 4.2002210049e+02 0.0000000000e+00 0.0000e+00 -1.0000e+00
<mgrwt>
<rscale>  0 0.50662172E+03</rscale>
<asrwt>0</asrwt>
<pdfrwt beam="1">  1        2 0.12997337E+00 0.50662172E+03</pdfrwt>
<pdfrwt beam="2">  1       -2 0.11684941E-01 0.50662172E+03</pdfrwt>
<totfact> 0.18701730E+03</totfact>
</mgrwt>
<rwgt>
<wgt id='morphing_basis_vector_1'> +3.1511343e-04 </wgt>
<wgt id='morphing_basis_vector_2'> +2.1021245e-04 </wgt>
<wgt id='morphing_basis_vector_3'> +2.1265195e-04 </wgt>
<wgt id='morphing_basis_vector_4'> +6.9069674e-05 </wgt>
<wgt id='morphing_basis_vector_5'> +1.0651389e-04 </wgt>
</rwgt>
</event>
<event>
 4      1 +1.9425900e-05 4.97482500e+02 7.81860800e-03 9.40542800e-02
        2 -1    0    0  501    0 +0.0000000000e+00 +0.0000000000e+00 +1.6493159864e+03 1.6493159864e+03 0.0000000000e+00 0.0000e+00 1.0000e+00
       -2 -1    0    0    0  501 -0.0000000000e+00 -0.0000000000e+00 -3.7513861290e+01 3.7513861290e+01 0.0000000000e+00 0.0000e+00 -1.0000e+00
      -13  1    1    2    0    0 -1.8026721544e+02 -1.2099647329e+02 +3.9429642645e+02 4.5011785948e+02 0.0000000000e+00 0.0000e+00 -1.0000e+00
       13  1    1    2    0    0 +1.8026721544e+02 +1.2099647329e+02 +1.2175056986e+03 1.2367119882e+03 0.0000000000e+00 0.0000e+00 1.0000e+00
<mgrwt>
<rscale>  0 0.49748251E+03</rscale>
<asrwt>0</asrwt>
<pdfrwt beam="1">  1        2 0.25374086E+00 0.49748251E+03</pdfrwt>
<pdfrwt beam="2">  1       -2 0.57713646E-02 0.49748251E+03</pdfrwt>
<totfact> 0.19144379E+03</totfact>
</mgrwt>
<rwgt>
<wgt id='morphing_basis_vector_1'> +2.8581052e-04 </wgt>
<wgt id='morphing_basis_vector_2'> +1.5975283e-04 </wgt>
<wgt id='morphing_basis_vector_3'> +2.0396743e-04 </wgt>
<wgt id='morphing_basis_vector_4'> +6.8025840e-05 </wgt>
<wgt id='morphing_basis_vector_5'> +9.5342296e-05 </wgt>
</rwgt>
</event>
<event>
 4      1 +1.9425900e-05 4.48613400e+02 7.81860800e-03 9.52282700e-02
        2 -1    0    0  501    0 +0.0000000000e+00 +0.0000000000e+00 +1.9298316218e+02 1.9298316218e+02 0.0000000000e+00 0.0000e+00 1.0000e+00
       -2 -1    0    0    0  501 -0.0000000000e+00 -0.0000000000e+00 -2.6071437555e+02 2.6071437555e+02 0.0000000000e+00 0.0000e+00 -1.0000e+00
      -13  1    1    2    0    0 +8.2987509121e-01 -2.1402188828e+02 -1.0176385837e+02 2.3698510550e+02 0.0000000000e+00 0.0000e+00 -1.0000e+00
       13  1    1    2    0    0 -8.2987509121e-01 +2.1402188828e+02 +3.4032645012e+01 2.1671243223e+02 0.0000000000e+00 0.0000e+00 1.0000e+00
<mgrwt>
<rscale>  0 0.44861335E+03</rscale>
<asrwt>0</asrwt>
<pdfrwt beam="1">  1        2 0.29689717E-01 0.44861335E+03</pdfrwt>
<pdfrwt beam="2">  1       -2 0.40109904E-01 0.44861335E+03</pdfrwt>
<totfact> 0.12777369E+03</totfact>
</mgrwt>
<rwgt>
<wgt id='morphing_basis_vector_1'> +2.1257265e-04 </wgt>
<wgt id='morphing_basis_vector_2'> +1.2029408e-04 </wgt>
<wgt id='morphing_basis_vector_3'> +1.4156583e-04 </wgt>
<wgt id='morphing_basis_vector_4'> +3.9493301e-05 </wgt>
<wgt id='morphing_basis_vector_5'> +5.0252105e-05 </wgt>
</rwgt>
</event>
<event>
 4      1 +1.9425900e-05 4.65207300e+02 7.81860800e-03 9.48125700e-02
        2 -1    0    0  501    0 +0.0000000000e+00 +0.0000000000e+00 +1.3294386631e+02 1.3294386631e+02 0.0000000000e+00 0.0000e+00 -1.0000e+00
       -2 -1    0    0    0  501 -0.0000000000e+00 -0.0000000000e+00 -4.0697221241e+02 4.0697221241e+02 0.0000000000e+00 0.0000e+00 1.0000e+00
      -13  1    1    2    0    0 +4.1424873432e+01 +2.2695855670e+02 -1.7140871313e+02 2.8741460216e+02 0.0000000000e+00 0.0000e+00 1.0000e+00
       13  1    1    2    0    0 -4.1424873432e+01 -2.2695855670e+02 -1.0261963296e+02 2.5250147656e+02 0.0000000000e+00 0.0000e+00 -1.0000e+00
<mgrwt>
<rscale>  0 0.46520731E+03</rscale>
<asrwt>0</asrwt>
<pdfrwt beam="1">  1        2 0.20452903E-01 0.46520731E+03</pdfrwt>
<pdfrwt beam="2">  1       -2 0.62611109E-01 0.46520731E+03</pdfrwt>
<totfact> 0.83078582E+02</totfact>
</mgrwt>
<rwgt>
<wgt id='morphing_basis_vector_1'> +2.3827073e-04 </wgt>
<wgt id='morphing_basis_vector_2'> +1.4140989e-04 </wgt>
<wgt id='morphing_basis_vector_3'> +1.5901587e-04 </wgt>
<wgt id='morphing_basis_vector_4'> +4.7084925e-05 </wgt>
<wgt id='morphing_basis_vector_5'> +6.3603533e-05 </wgt>
</rwgt>
</event>
<event>
 4      1 +1.9425900e-05 4.88729000e+02 7.81860800e-03 9.42537000e-02
        2 -1    0    0  501    0 +0.0000000000e+00 +0.0000000000e+00 +3.3787581885e+02 3.3787581885e+02 0.0000000000e+00 0.0000e+00 1.0000e+00
       -2 -1    0    0    0  501 -0.0000000000e+00 -0.0000000000e+00 -1.7673361933e+02 1.7673361933e+02 0.0000000000e+00 0.0000e+00 -1.0000e+00
      -13  1    1    2    0    0 -7.4906751417e+01 -2.2085667051e+02 +3.7319216398e+00 2.3324368706e+02 0.0000000000e+00 0.0000e+00 -1.0000e+00
       13  1    1    2    0    0 +7.4906751417e+01 +2.2085667051e+02 +1.5741027788e+02 2.8136575111e+02 0.0000000000e+00 0.0000e+00 1.0000e+00
<mgrwt>
<rscale>  0 0.48872903E+03</rscale>
<asrwt>0</asrwt>
<pdfrwt beam="1">  1        2 0.51980895E-01 0.48872903E+03</pdfrwt>
<pdfrwt beam="2">  1       -2 0.27189788E-01 0.48872903E+03</pdfrwt>
<totfact> 0.13589011E+03</totfact>
</mgrwt>
<rwgt>
<wgt id='morphing_basis_vector_1'> +2.7267786e-04 </wgt>
<wgt id='morphing_basis_vector_2'> +1.5612310e-04 </wgt>
<wgt id='morphing_basis_vector_3'> +1.9076477e-04 </wgt>
<wgt id='morphing_basis_vector_4'> +6.1490733e-05 </wgt>
<wgt id='morphing_basis_vector_5'> +8.5891266e-05 </wgt>
</rwgt>
</event>
<event>
 4      1 +1.9425900e-05 4.40445900e+02 7.81860800e-03 9.54398700e-02
        2 -1    0    0  501    0 +0.0000000000e+00 +0.0000000000e+00 +3.3999666455e+02 3.3999666455e+02 0.0000000000e+00 0.0000e+00 -1.0000e+00
       -2 -1    0    0    0  501 -0.0000000000e+00 -0.0000000000e+00 -1.4264299533e+02 1.4264299533e+02 0.0000000000e+00 0.0000e+00 1.0000e+00
      -13  1    1    2    0    0 +1.6987214014e+02 -1.1034546465e+02 +3.9966185624e+00 2.0260463599e+02 0.0000000000e+00 0.0000e+00 1.0000e+00
       13  1    1    2    0    0 -1.6987214014e+02 +1.1034546465e+02 +1.9335705065e+02 2.8003502389e+02 0.0000000000e+00 0.0000e+00 -1.0000e+00
<mgrwt>
<rscale>  0 0.44044588E+03</rscale>
<asrwt>0</asrwt>
<pdfrwt beam="1">  1        2 0.52307179E-01 0.44044588E+03</pdfrwt>
<pdfrwt beam="2">  1       -2 0.21945076E-01 0.44044588E+03</pdfrwt>
<totfact> 0.19375470E+03</totfact>
</mgrwt>
<rwgt>
<wgt id='morphing_basis_vector_1'> +2.0115247e-04 </wgt>
<wgt id='morphing_basis_vector_2'> +1.1190420e-04 </wgt>
<wgt id='morphing_basis_vector_3'> +1.3351079e-04 </wgt>
<wgt id='morphing_basis_vector_4'> +3.6000344e-05 </wgt>
<wgt id='morphing_basis_vector_5'> +4.4424056e-05 </wgt>
</rwgt>
</event>
<event>
 4      1 +1.9425900e-05 4.94606600e+02 7.81860800e-03 9.41193100e-02
        2 -1    0    0  501    0 +0.0000000000e+00 +0.0000000000e+00 +1.2944005911e+03 1.2944005911e+03 0.0000000000e+00 0.0000e+00 -1.0000e+00
       -2 -1    0    0    0  501 -0.0000000000e+00 -0.0000000000e+00 -4.7248834599e+01 4.7248834599e+01 0.0000000000e+00 0.0000e+00 1.0000e+00
      -13  1    1    2    0    0 +2.1624483099e+02 -8.7494629958e+01 +4.0085213775e+02 4.6378828525e+02 0.0000000000e+00 0.0000e+00 1.0000e+00
       13  1    1    2    0    0 -2.1624483099e+02 +8.7494629958e+01 +8.4629961878e+02 8.7786114047e+02 0.0000000000e+00 0.0000e+00 -1.0000e+00
<mgrwt>
<rscale>  0 0.49460659E+03</rscale>
<asrwt>0</asrwt>
<pdfrwt beam="1">  1        2 0.19913853E+00 0.49460659E+03</pdfrwt>
<pdfrwt beam="2">  1       -2 0.72690525E-02 0.49460659E+03</pdfrwt>
<totfact> 0.21044937E+03</totfact>
</mgrwt>
<rwgt>
<wgt id='morphing_basis_vector_1'> +2.8219142e-04 </wgt>
<wgt id='morphing_basis_vector_2'> +1.6089669e-04 </wgt>
<wgt id='morphing_basis_vector_3'> +1.9923581e-04 </wgt>
<wgt id='morphing_basis_vector_4'> +6.5529899e-05 </wgt>
<wgt id='morphing_basis_vector_5'> +9.2194371e-05 </wgt>
</rwgt>
</event>
<event>
 4      1 +1.9425900e-05 5.12764200e+02 7.81860800e-03 9.37164900e-02
        2 -1    0    0  501    0 +0.0000000000e+00 +0.0000000000e+00 +3.1370431110e+02 3.1370431110e+02 0.0000000000e+00 0.0000e+00 1.0000e+00
       -2 -1    0    0    0  501 -0.0000000000e+00 -0.0000000000e+00 -2.0953421511e+02 2.0953421511e+02 0.0000000000e+00 0.0000e+00 -1.0000e+00
      -13  1    1    2    0    0 +2.4473743848e+02 +2.7965586471e+01 +1.2462370127e+02 2.7606078088e+02 0.0000000000e+00 0.0000e+00 1.0000e+00
       13  1    1    2    0    0 -2.4473743848e+02 -2.7965586471e+01 -2.0453605272e+01 2.4717774534e+02 0.0000000000e+00 0.0000e+00 -1.0000e+00
<mgrwt>
<rscale>  0 0.51276422E+03</rscale>
<asrwt>0</asrwt>
<pdfrwt beam="1">  1        2 0.48262202E-01 0.51276422E+03</pdfrwt>
<pdfrwt beam="2">  1       -2 0.32236033E-01 0.51276422E+03</pdfrwt>
<totfact> 0.10965039E+03</totfact>
</mgrwt>
<rwgt>
<wgt id='morphing_basis_vector_1'> +3.3885308e-04 </wgt>
<wgt id='morphing_basis_vector_2'> +2.5567284e-04 </wgt>
<wgt id='morphing_basis_vector_3'> +2.1828272e-04 </wgt>
<wgt id='morphing_basis_vector_4'> +6.7843729e-05 </wgt>
<wgt id='morphing_basis_vector_5'> +1.1453927e-04 </wgt>
</rwgt>
</event>
<event>
 4      1 +1.9425900e-05 4.50739800e+02 7.81860800e-03 9.51739500e-02
        2 -1    0    0  501    0 +0.0000000000e+00 +0.0000000000e+00 +2.5025216711e+02 2.5025216711e+02 0.0000000000e+00 0.0000e+00 -1.0000e+00
       -2 -1    0    0    0  501 -0.0000000000e+00 -0.0000000000e+00 -2.0296164118e+02 2.0296164118e+02 0.0000000000e+00 0.0000e+00 1.0000e+00
      -13  1    1    2    0    0 +1.7743155414e+02 -9.1951930022e+01 -8.1111405080e+01 2.1567608554e+02 0.0000000000e+00 0.0000e+00 1.0000e+00
       13  1    1    2    0    0 -1.7743155414e+02 +9.1951930022e+01 +1.2840193101e+02 2.3753772274e+02 0.0000000000e+00 0.0000e+00 -1.0000e+00
<mgrwt>
<rscale>  0 0.45073979E+03</rscale>
<asrwt>0</asrwt>
<pdfrwt beam="1">  1        2 0.38500333E-01 0.45073979E+03</pdfrwt>
<pdfrwt beam="2">  1       -2 0.31224868E-01 0.45073979E+03</pdfrwt>
<totfact> 0.14927593E+03</totfact>
</mgrwt>
<rwgt>
<wgt id='morphing_basis_vector_1'> +2.1431849e-04 </wgt>
<wgt id='morphing_basis_vector_2'> +1.1849332e-04 </wgt>
<wgt id='morphing_basis_vector_3'> +1.4461898e-04 </wgt>
<wgt id='morphing_basis_vector_4'> +4.0677817e-05 </wgt>
<wgt id='morphing_basis_vector_5'> +5.1772901e-05 </wgt>
</rwgt>
</event>
<event>
 4      1 +1.9425900e-05 4.31650400e+02 7.81860800e-03 9.56732300e-02
        2 -1    0    0  501    0 +0.0000000000e+00 +0.0000000000e+00 +1.5759066321e+03 1.5759066321e+03 0.0000000000e+00 0.0000e+00 -1.0000e+00
       -2 -1    0    0    0  501 -0.0000000000e+00 -0.0000000000e+00 -2.9557915837e+01 2.9557915837e+01 0.0000000000e+00 0.0000e+00 1.0000e+00
      -13  1    1    2    0    0 +1.5107215444e+02 +1.3942573813e+02 +1.0175844393e+03 1.0381427760e+03 0.0000000000e+00 0.0000e+00 1.0000e+00
       13  1    1    2    0    0 -1.5107215444e+02 -1.3942573813e+02 +5.2876427697e+02 5.6732177193e+02 0.0000000000e+00 0.0000e+00 -1.0000e+00
<mgrwt>
<rscale>  0 0.43165039E+03</rscale>
<asrwt>0</asrwt>
<pdfrwt beam="1">  1        2 0.24244711E+00 0.43165039E+03</pdfrwt>
<pdfrwt beam="2">  1       -2 0.45473729E-02 0.43165039E+03</pdfrwt>
<totfact> 0.30108690E+03</totfact>
</mgrwt>
<rwgt>
<wgt id='morphing_basis_vector_1'> +2.0623696e-04 </wgt>
<wgt id='morphing_basis_vector_2'> +1.5516916e-04 </wgt>
<wgt id='morphing_basis_vector_3'> +1.1245372e-04 </wgt>
<wgt id='morphing_basis_vector_4'> +3.0950496e-05 </wgt>
<wgt id='morphing_basis_vector_5'> +3.9662498e-05 </wgt>
</rwgt>
</event>
<event>
 4      1 +1.9425900e-05 4.37641700e+02 7.81860800e-03 9.55136400e-02
        2 -1    0    0  501    0 +0.0000000000e+00 +0.0000000000e+00 +1.4688911779e+03 1.4688911779e+03 0.0000000000e+00 0.0000e+00 -1.0000e+00
       -2 -1    0    0    0  501 -0.0000000000e+00 -0.0000000000e+00 -3.2597762581e+01 3.2597762581e+01 0.0000000000e+00 0.0000e+00 1.0000e+00
      -13  1    1    2    0    0 -1.3643351220e+02 +1.6782382942e+02 +6.0417050585e+02 6.4171718156e+02 0.0000000000e+00 0.0000e+00 1.0000e+00
       13  1    1    2    0    0 +1.3643351220e+02 -1.6782382942e+02 +8.3212290946e+02 8.5977175891e+02 0.0000000000e+00 0.0000e+00 -1.0000e+00
<mgrwt>
<rscale>  0 0.43764171E+03</rscale>
<asrwt>0</asrwt>
<pdfrwt beam="1">  1        2 0.22598321E+00 0.43764171E+03</pdfrwt>
<pdfrwt beam="2">  1       -2 0.50150415E-02 0.43764171E+03</pdfrwt>
<totfact> 0.29691976E+03</totfact>
</mgrwt>
<rwgt>
<wgt id='morphing_basis_vector_1'> +1.9985274e-04 </wgt>
<wgt id='morphing_basis_vector_2'> +1.1684687e-04 </wgt>
<wgt id='morphing_basis_vector_3'> +1.2901660e-04 </wgt>
<wgt id='morphing_basis_vector_4'> +3.4552170e-05 </wgt>
<wgt id='morphing_basis_vector_5'> +4.2675057e-05 </wgt>
</rwgt>
</event>
<event>
 4      1 +1.9425900e-05 5.18450100e+02 7.81860800e-03 9.35940200e-02
        2 -1    0    0  501    0 +0.0000000000e+00 +0.0000000000e+00 +9.1142376828e+02 9.1142376828e+02 0.0000000000e+00 0.0000e+00 -1.0000e+00
       -2 -1    0    0    0  501 -0.0000000000e+00 -0.0000000000e+00 -7.3728193023e+01 7.3728193023e+01 0.0000000000e+00 0.0000e+00 1.0000e+00
      -13  1    1    2    0    0 -1.2347236156e+02 -1.6834706651e+02 +7.1083091855e+02 7.4085542020e+02 0.0000000000e+00 0.0000e+00 1.0000e+00
       13  1    1    2    0    0 +1.2347236156e+02 +1.6834706651e+02 +1.2686465670e+02 2.4429654110e+02 0.0000000000e+00 0.0000e+00 -1.0000e+00
<mgrwt>
<rscale>  0 0.51845010E+03</rscale>
<asrwt>0</asrwt>
<pdfrwt beam="1">  1        2 0.14021903E+00 0.51845010E+03</pdfrwt>
<pdfrwt beam="2">  1       -2 0.11342800E-01 0.51845010E+03</pdfrwt>
<totfact> 0.17738842E+03</totfact>
</mgrwt>
<rwgt>
<wgt id='morphing_basis_vector_1'> +3.9308660e-04 </wgt>
<wgt id='morphing_basis_vector_2'> +3.9719791e-04 </wgt>
<wgt id='morphing_basis_vector_3'> +2.1407441e-04 </wgt>
<wgt id='morphing_basis_vector_4'> +5.1164260e-05 </wgt>
<wgt id='morphing_basis_vector_5'> +1.2332125e-04 </wgt>
</rwgt>
</event>
<event>
 4      1 +1.9425900e-05 4.89818000e+02 7.81860800e-03 9.42286500e-02
        2 -1    0    0  501    0 +0.0000000000e+00 +0.0000000000e+00 +3.7219910042e+02 3.7219910042e+02 0.0000000000e+00 0.0000e+00 1.0000e+00
       -2 -1    0    0    0  501 -0.0000000000e+00 -0.0000000000e+00 -1.6115142118e+02 1.6115142118e+02 0.0000000000e+00 0.0000e+00 -1.0000e+00
      -13  1    1    2    0    0 -1.1101538067e+02 -1.6002931494e+00 -1.3217393717e+02 1.7261785930e+02 0.0000000000e+00 0.0000e+00 -1.0000e+00
       13  1    1    2    0    0 +1.1101538067e+02 +1.6002931494e+00 +3.4322161640e+02 3.6073266230e+02 0.0000000000e+00 0.0000e+00 1.0000e+00
<mgrwt>
<rscale>  0 0.48981798E+03</rscale>
<asrwt>0</asrwt>
<pdfrwt beam="1">  1        2 0.57261400E-01 0.48981798E+03</pdfrwt>
<pdfrwt beam="2">  1       -2 0.24792526E-01 0.48981798E+03</pdfrwt>
<totfact> 0.14284002E+03</totfact>
</mgrwt>
<rwgt>
<wgt id='morphing_basis_vector_1'> +2.7173510e-04 </wgt>
<wgt id='morphing_basis_vector_2'> +1.4866743e-04 </wgt>
<wgt id='morphing_basis_vector_3'> +1.9355525e-04 </wgt>
<wgt id='morphing_basis_vector_4'> +6.3180403e-05 </wgt>
<wgt id='morphing_basis_vector_5'> +8.6919402e-05 </wgt>
</rwgt>
</event>
<event>
 4      1 +1.9425900e-05 4.59133900e+02 7.81860800e-03 9.49625700e-02
        2 -1    0    0  501    0 +0.0000000000e+00 +0.0000000000e+00 +1.1155334210e+03 1.1155334210e+03 0.0000000000e+00 0.0000e+00 1.0000e+00
       -2 -1    0    0    0  501 -0.0000000000e+00 -0.0000000000e+00 -4.7242853902e+01 4.7242853902e+01 0.0000000000e+00 0.0000e+00 -1.0000e+00
      -13  1    1    2    0    0 -2.1094165539e+02 -7.1383242927e+01 +3.9293397343e+02 4.5165147716e+02 0.0000000000e+00 0.0000e+00 -1.0000e+00
       13  1    1    2    0    0 +2.1094165539e+02 +7.1383242927e+01 +6.7535659369e+02 7.1112479776e+02 0.0000000000e+00 0.0000e+00 1.0000e+00
<mgrwt>
<rscale>  0 0.45913389E+03</rscale>
<asrwt>0</asrwt>
<pdfrwt beam="1">  1        2 0.17162051E+00 0.45913389E+03</pdfrwt>
<pdfrwt beam="2">  1       -2 0.72681322E-02 0.45913389E+03</pdfrwt>
<totfact> 0.26615437E+03</totfact>
</mgrwt>
<rwgt>
<wgt id='morphing_basis_vector_1'> +2.2773124e-04 </wgt>
<wgt id='morphing_basis_vector_2'> +1.3075341e-04 </wgt>
<wgt id='morphing_basis_vector_3'> +1.5289862e-04 </wgt>
<wgt id='morphing_basis_vector_4'> +4.4400631e-05 </wgt>
<wgt id='morphing_basis_vector_5'> +5.8436352e-05 </wgt>
</rwgt>
</event>
<event>
 4      1 +1.9425900e-05 4.30330400e+02 7.81860800e-03 9.57087600e-02
        2 -1    0    0  501    0 +0.0000000000e+00 +0.0000000000e+00 +1.9769163185e+02 1.9769163185e+02 0.0000000000e+00 0.0000e+00 -1.0000e+00
       -2 -1    0    0    0  501 -0.0000000000e+00 -0.0000000000e+00 -2.3418320668e+02 2.3418320668e+02 0.0000000000e+00 0.0000e+00 1.0000e+00
      -13  1    1    2    0    0 -5.9284306983e+01 -1.4156893845e+02 -1.6958376939e+02 2.2872483081e+02 0.0000000000e+00 0.0000e+00 1.0000e+00
       13  1    1    2    0    0 +5.9284306983e+01 +1.4156893845e+02 +1.3309219455e+02 2.0315000772e+02 0.0000000000e+00 0.0000e+00 -1.0000e+00
<mgrwt>
<rscale>  0 0.43033039E+03</rscale>
<asrwt>0</asrwt>
<pdfrwt beam="1">  1        2 0.30414097E-01 0.43033039E+03</pdfrwt>
<pdfrwt beam="2">  1       -2 0.36028186E-01 0.43033039E+03</pdfrwt>
<totfact> 0.15108832E+03</totfact>
</mgrwt>
<rwgt>
<wgt id='morphing_basis_vector_1'> +1.8751250e-04 </wgt>
<wgt id='morphing_basis_vector_2'> +1.0150499e-04 </wgt>
<wgt id='morphing_basis_vector_3'> +1.2436433e-04 </wgt>
<wgt id='morphing_basis_vector_4'> +3.1993997e-05 </wgt>
<wgt id='morphing_basis_vector_5'> +3.7816346e-05 </wgt>
</rwgt>
</event>
<event>
 4      1 +1.9425900e-05 4.61214000e+02 7.81860800e-03 9.49109300e-02
        2 -1    0    0  501    0 +0.0000000000e+00 +0.0000000000e+00 +1.0281524044e+03 1.0281524044e+03 0.0000000000e+00 0.0000e+00 -1.0000e+00
       -2 -1    0    0    0  501 -0.0000000000e+00 -0.0000000000e+00 -5.1723456178e+01 5.1723456178e+01 0.0000000000e+00 0.0000e+00 1.0000e+00
      -13  1    1    2    0    0 -1.6861982577e+02 +8.2171228525e+00 +1.2039147965e+02 2.0735060917e+02 0.0000000000e+00 0.0000e+00 1.0000e+00
       13  1    1    2    0    0 +1.6861982577e+02 -8.2171228525e+00 +8.5603746860e+02 8.7252525144e+02 0.0000000000e+00 0.0000e+00 -1.0000e+00
<mgrwt>
<rscale>  0 0.46121403E+03</rscale>
<asrwt>0</asrwt>
<pdfrwt beam="1">  1        2 0.15817728E+00 0.46121403E+03</pdfrwt>
<pdfrwt beam="2">  1       -2 0.79574555E-02 0.46121403E+03</pdfrwt>
<totfact> 0.26082794E+03</totfact>
</mgrwt>
<rwgt>
<wgt id='morphing_basis_vector_1'> +2.2809619e-04 </wgt>
<wgt id='morphing_basis_vector_2'> +1.2443567e-04 </wgt>
<wgt id='morphing_basis_vector_3'> +1.5690795e-04 </wgt>
<wgt id='morphing_basis_vector_4'> +4.6049798e-05 </wgt>
<wgt id='morphing_basis_vector_5'> +6.0006760e-05 </wgt>
</rwgt>
</event>
<event>
 4      1 +1.9425900e-05 4.67554400e+02 7.81860800e-03 9.47552400e-02
        2 -1    0    0  501    0 +0.0000000000e+00 +0.0000000000e+00 +1.4288053737e+02 1.4288053737e+02 0.0000000000e+00 0.0000e+00 -1.0000e+00
       -2 -1    0    0    0  501 -0.0000000000e+00 -0.0000000000e+00 -3.8249974691e+02 3.8249974691e+02 0.0000000000e+00 0.0000e+00 1.0000e+00
      -13  1    1    2    0    0 +1.8568914015e+02 +1.4194063012e+02 -1.2533395488e+02 2.6520972737e+02 0.0000000000e+00 0.0000e+00 1.0000e+00
       13  1    1    2    0    0 -1.8568914015e+02 -1.4194063012e+02 -1.1428525466e+02 2.6017055690e+02 0.0000000000e+00 0.0000e+00 -1.0000e+00
<mgrwt>
<rscale>  0 0.46755436E+03</rscale>
<asrwt>0</asrwt>
<pdfrwt beam="1">  1        2 0.21981621E-01 0.46755436E+03</pdfrwt>
<pdfrwt beam="2">  1       -2 0.58846114E-01 0.46755436E+03</pdfrwt>
<totfact> 0.86552952E+02</totfact>
</mgrwt>
<rwgt>
<wgt id='morphing_basis_vector_1'> +2.4412638e-04 </wgt>
<wgt id='morphing_basis_vector_2'> +1.5086641e-04 </wgt>
<wgt id='morphing_basis_vector_3'> +1.6050169e-04 </wgt>
<wgt id='morphing_basis_vector_4'> +4.7701337e-05 </wgt>
<wgt id='morphing_basis_vector_5'> +6.5760308e-05 </wgt>
</rwgt>
</event>
<event>
 4      1 +1.9425900e-05 4.37150100e+02 7.81860800e-03 9.55266400e-02
        2 -1    0    0  501    0 +0.0000000000e+00 +0.0000000000e+00 +3.1352500692e+02 3.1352500692e+02 0.0000000000e+00 0.0000e+00 1.0000e+00
       -2 -1    0    0    0  501 -0.0000000000e+00 -0.0000000000e+00 -1.5238034284e+02 1.5238034284e+02 0.0000000000e+00 0.0000e+00 -1.0000e+00
      -13  1    1    2    0    0 +2.1801539652e+02 -1.4690351949e+01 +7.4879787140e+01 2.3098377017e+02 0.0000000000e+00 0.0000e+00 -1.0000e+00
       13  1    1    2    0    0 -2.1801539652e+02 +1.4690351949e+01 +8.6264876945e+01 2.3492157959e+02 0.0000000000e+00 0.0000e+00 1.0000e+00
<mgrwt>
<rscale>  0 0.43715008E+03</rscale>
<asrwt>0</asrwt>
<pdfrwt beam="1">  1        2 0.48234616E-01 0.43715008E+03</pdfrwt>
<pdfrwt beam="2">  1       -2 0.23443130E-01 0.43715008E+03</pdfrwt>
<totfact> 0.18981061E+03</totfact>
</mgrwt>
<rwgt>
<wgt id='morphing_basis_vector_1'> +2.0141515e-04 </wgt>
<wgt id='morphing_basis_vector_2'> +1.2322113e-04 </wgt>
<wgt id='morphing_basis_vector_3'> +1.2690867e-04 </wgt>
<wgt id='morphing_basis_vector_4'> +3.4098245e-05 </wgt>
<wgt id='morphing_basis_vector_5'> +4.2479259e-05 </wgt>
</rwgt>
</event>
<event>
 4      1 +1.9425900e-05 4.38487400e+02 7.81860800e-03 9.54913300e-02
        2 -1    0    0  501    0 +0.0000000000e+00 +0.0000000000e+00 +1.5128482733e+03 1.5128482733e+03 0.0000000000e+00 0.0000e+00 -1.0000e+00
       -2 -1    0    0    0  501 -0.0000000000e+00 -0.0000000000e+00 -3.1773051899e+01 3.1773051899e+01 0.0000000000e+00 0.0000e+00 1.0000e+00
      -13  1    1    2    0    0 +6.0278318923e+01 +2.0712720458e+02 +6.0263049697e+02 6.4007708168e+02 0.0000000000e+00 0.0000e+00 1.0000e+00
       13  1    1    2    0    0 -6.0278318923e+01 -2.0712720458e+02 +8.7844472441e+02 9.0454424351e+02 0.0000000000e+00 0.0000e+00 -1.0000e+00
<mgrwt>
<rscale>  0 0.43848743E+03</rscale>
<asrwt>0</asrwt>
<pdfrwt beam="1">  1        2 0.23274583E+00 0.43848743E+03</pdfrwt>
<pdfrwt beam="2">  1       -2 0.48881630E-02 0.43848743E+03</pdfrwt>
<totfact> 0.29211316E+03</totfact>
</mgrwt>
<rwgt>
<wgt id='morphing_basis_vector_1'> +2.0058018e-04 </wgt>
<wgt id='morphing_basis_vector_2'> +1.1640590e-04 </wgt>
<wgt id='morphing_basis_vector_3'> +1.3012414e-04 </wgt>
<wgt id='morphing_basis_vector_4'> +3.4936899e-05 </wgt>
<wgt id='morphing_basis_vector_5'> +4.3216666e-05 </wgt>
</rwgt>
</event>
<event>
 4      1 +1.9425900e-05 4.96532400e+02 7.81860800e-03 9.40757100e-02
        2 -1    0    0  501    0 +0.0000000000e+00 +0.0000000000e+00 +3.0570107087e+02 3.0570107087e+02 0.0000000000e+00 0.0000e+00 -1.0000e+00
       -2 -1    0    0    0  501 -0.0000000000e+00 -0.0000000000e+00 -2.0162218459e+02 2.0162218459e+02 0.0000000000e+00 0.0000e+00 1.0000e+00
      -13  1    1    2    0    0 +1.2519840122e+02 -4.0218955205e+01 -1.6311689649e+02 2.0952165985e+02 0.0000000000e+00 0.0000e+00 1.0000e+00
       13  1    1    2    0    0 -1.2519840122e+02 +4.0218955205e+01 +2.6719578277e+02 2.9780159562e+02 0.0000000000e+00 0.0000e+00 -1.0000e+00
<mgrwt>
<rscale>  0 0.49653245E+03</rscale>
<asrwt>0</asrwt>
<pdfrwt beam="1">  1        2 0.47030934E-01 0.49653245E+03</pdfrwt>
<pdfrwt beam="2">  1       -2 0.31018798E-01 0.49653245E+03</pdfrwt>
<totfact> 0.12077872E+03</totfact>
</mgrwt>
<rwgt>
<wgt id='morphing_basis_vector_1'> +2.8304435e-04 </wgt>
<wgt id='morphing_basis_vector_2'> +1.5527521e-04 </wgt>
<wgt id='morphing_basis_vector_3'> +2.0307172e-04 </wgt>
<wgt id='morphing_basis_vector_4'> +6.7794637e-05 </wgt>
<wgt id='morphing_basis_vector_5'> +9.4229356e-05 </wgt>
</rwgt>
</event>
<event>
 4      1 +1.9425900e-05 4.66024000e+02 7.81860800e-03 9.47925800e-02
        2 -1    0    0  501    0 +0.0000000000e+00 +0.0000000000e+00 +1.8877242742e+02 1.8877242742e+02 0.0000000000e+00 0.0000e+00 -1.0000e+00
       -2 -1    0    0    0  501 -0.0000000000e+00 -0.0000000000e+00 -2.8761930127e+02 2.8761930127e+02 0.0000000000e+00 0.0000e+00 1.0000e+00
      -13  1    1    2    0    0 -1.8319980705e+02 -1.3742544067e+02 -5.4944812197e+00 2.2908101268e+02 0.0000000000e+00 0.0000e+00 1.0000e+00
       13  1    1    2    0    0 +1.8319980705e+02 +1.3742544067e+02 -9.3352392625e+01 2.4731071601e+02 0.0000000000e+00 0.0000e+00 -1.0000e+00
<mgrwt>
<rscale>  0 0.46602401E+03</rscale>
<asrwt>0</asrwt>
<pdfrwt beam="1">  1        2 0.29041912E-01 0.46602401E+03</pdfrwt>
<pdfrwt beam="2">  1       -2 0.44249123E-01 0.46602401E+03</pdfrwt>
<totfact> 0.10915215E+03</totfact>
</mgrwt>
<rwgt>
<wgt id='morphing_basis_vector_1'> +2.4936993e-04 </wgt>
<wgt id='morphing_basis_vector_2'> +1.7277573e-04 </wgt>
<wgt id='morphing_basis_vector_3'> +1.5422476e-04 </wgt>
<wgt id='morphing_basis_vector_4'> +4.5021674e-05 </wgt>
<wgt id='morphing_basis_vector_5'> +6.4812986e-05 </wgt>
</rwgt>
</event>
<event>
 4      1 +1.9425900e-05 4.75987100e+02 7.81860800e-03 9.45521500e-02
        2 -1    0    0  501    0 +0.0000000000e+00 +0.0000000000e+00 +7.7284281550e+02 7.7284281550e+02 0.0000000000e+00 0.0000e+00 -1.0000e+00
       -2 -1    0    0    0  501 -0.0000000000e+00 -0.0000000000e+00 -7.3289063376e+01 7.3289063376e+01 0.0000000000e+00 0.0000e+00 1.0000e+00
      -13  1    1    2    0    0 -1.0925271586e+02 -1.9633446445e+02 +2.1028567920e+02 3.0773924795e+02 0.0000000000e+00 0.0000e+00 1.0000e+00
       13  1    1    2    0    0 +1.0925271586e+02 +1.9633446445e+02 +4.8926807292e+02 5.3839263092e+02 0.0000000000e+00 0.0000e+00 -1.0000e+00
<mgrwt>
<rscale>  0 0.47598708E+03</rscale>
<asrwt>0</asrwt>
<pdfrwt beam="1">  1        2 0.11889889E+00 0.47598708E+03</pdfrwt>
<pdfrwt beam="2">  1       -2 0.11275241E-01 0.47598708E+03</pdfrwt>
<totfact> 0.22142196E+03</totfact>
</mgrwt>
<rwgt>
<wgt id='morphing_basis_vector_1'> +2.5188922e-04 </wgt>
<wgt id='morphing_basis_vector_2'> +1.4284342e-04 </wgt>
<wgt id='morphing_basis_vector_3'> +1.7393379e-04 </wgt>
<wgt id='morphing_basis_vector_4'> +5.3758414e-05 </wgt>
<wgt id='morphing_basis_vector_5'> +7.3181162e-05 </wgt>
</rwgt>
</event>
<event>
 4      1 +1.9425900e-05 5.15009500e+02 7.81860800e-03 9.36679300e-02
        2 -1    0    0  501    0 +0.0000000000e+00 +0.0000000000e+00 +2.1464405770e+02 2.1464405770e+02 0.0000000000e+00 0.0000e+00 1.0000e+00
       -2 -1    0    0    0  501 -0.0000000000e+00 -0.0000000000e+00 -3.0892392692e+02 3.0892392692e+02 0.0000000000e+00 0.0000e+00 -1.0000e+00
      -13  1    1    2    0    0 +2.1134063237e+02 -1.2965828432e+02 +2.3531861496e+01 2.4905798941e+02 0.0000000000e+00 0.0000e+00 -1.0000e+00
       13  1    1    2    0    0 -2.1134063237e+02 +1.2965828432e+02 -1.1781173071e+02 2.7450999522e+02 0.0000000000e+00 0.0000e+00 1.0000e+00
<mgrwt>
<rscale>  0 0.51500946E+03</rscale>
<asrwt>0</asrwt>
<pdfrwt beam="1">  1        2 0.33022163E-01 0.51500946E+03</pdfrwt>
<pdfrwt beam="2">  1       -2 0.47526758E-01 0.51500946E+03</pdfrwt>
<totfact> 0.82257780E+02</totfact>
</mgrwt>
<rwgt>
<wgt id='morphing_basis_vector_1'> +3.4276256e-04 </wgt>
<wgt id='morphing_basis_vector_2'> +2.5727356e-04 </wgt>
<wgt id='morphing_basis_vector_3'> +2.2226039e-04 </wgt>
<wgt id='morphing_basis_vector_4'> +6.9537684e-05 </wgt>
<wgt id='morphing_basis_vector_5'> +1.1737866e-04 </wgt>
</rwgt>
</event>
<event>
 4      1 +1.9425900e-05 4.37738400e+02 7.81860800e-03 9.55110900e-02
        2 -1    0    0  501    0 +0.0000000000e+00 +0.0000000000e+00 +1.8197025728e+02 1.8197025728e+02 0.0000000000e+00 0.0000e+00 -1.0000e+00
       -2 -1    0    0    0  501 -0.0000000000e+00 -0.0000000000e+00 -2.6325034232e+02 2.6325034232e+02 0.0000000000e+00 0.0000e+00 1.0000e+00
      -13  1    1    2    0    0 -5.9571622056e+01 +7.6177184015e+01 -2.4034276414e+02 2.5906830334e+02 0.0000000000e+00 0.0000e+00 1.0000e+00
       13  1    1    2    0    0 +5.9571622056e+01 -7.6177184015e+01 +1.5906267911e+02 1.8615229626e+02 0.0000000000e+00 0.0000e+00 -1.0000e+00
<mgrwt>
<rscale>  0 0.43773843E+03</rscale>
<asrwt>0</asrwt>
<pdfrwt beam="1">  1        2 0.27995424E-01 0.43773843E+03</pdfrwt>
<pdfrwt beam="2">  1       -2 0.40500053E-01 0.43773843E+03</pdfrwt>
<totfact> 0.13425347E+03</totfact>
</mgrwt>
<rwgt>
<wgt id='morphing_basis_vector_1'> +1.9643343e-04 </wgt>
<wgt id='morphing_basis_vector_2'> +1.0599234e-04 </wgt>
<wgt id='morphing_basis_vector_3'> +1.3171909e-04 </wgt>
<wgt id='morphing_basis_vector_4'> +3.5017017e-05 </wgt>
<wgt id='morphing_basis_vector_5'> +4.2530963e-05 </wgt>
</rwgt>
</event>
<event>
 4      1 +1.9425900e-05 4.40829600e+02 7.81860800e-03 9.54298300e-02
        2 -1    0    0  501    0 +0.0000000000e+00 +0.0000000000e+00 +5.3217159729e+02 5.3217159729e+02 0.0000000000e+00 0.0000e+00 -1.0000e+00
       -2 -1    0    0    0  501 -0.0000000000e+00 -0.0000000000e+00 -9.1291375008e+01 9.1291375008e+01 0.0000000000e+00 0.0000e+00 1.0000e+00
      -13  1    1    2    0    0 +1.2398557081e+02 +7.1339511598e+01 -1.6727174488e+01 1.4401925583e+02 0.0000000000e+00 0.0000e+00 1.0000e+00
       13  1    1    2    0    0 -1.2398557081e+02 -7.1339511598e+01 +4.5760739677e+02 4.7944371647e+02 0.0000000000e+00 0.0000e+00 -1.0000e+00
<mgrwt>
<rscale>  0 0.44082957E+03</rscale>
<asrwt>0</asrwt>
<pdfrwt beam="1">  1        2 0.81872552E-01 0.44082957E+03</pdfrwt>
<pdfrwt beam="2">  1       -2 0.14044827E-01 0.44082957E+03</pdfrwt>
<totfact> 0.24277545E+03</totfact>
</mgrwt>
<rwgt>
<wgt id='morphing_basis_vector_1'> +2.0045269e-04 </wgt>
<wgt id='morphing_basis_vector_2'> +1.0850820e-04 </wgt>
<wgt id='morphing_basis_vector_3'> +1.3475826e-04 </wgt>
<wgt id='morphing_basis_vector_4'> +3.6324697e-05 </wgt>
<wgt id='morphing_basis_vector_5'> +4.4616563e-05 </wgt>
</rwgt>
</event>
<event>
 4      1 +1.9425900e-05 4.31607400e+02 7.81860800e-03 9.56743900e-02
        2 -1    0    0  501    0 +0.0000000000e+00 +0.0000000000e+00 +6.2481757962e+01 6.2481757962e+01 0.0000000000e+00 0.0000e+00 -1.0000e+00
       -2 -1    0    0    0  501 -0.0000000000e+00 -0.0000000000e+00 -7.4535733650e+02 7.4535733650e+02 0.0000000000e+00 0.0000e+00 1.0000e+00
      -13  1    1    2    0    0 -1.2427816384e+02 +1.0081242572e+02 -6.1243386898e+02 6.3299561693e+02 0.0000000000e+00 0.0000e+00 1.0000e+00
       13  1    1    2    0    0 +1.2427816384e+02 -1.0081242572e+02 -7.0441709557e+01 1.7484347752e+02 0.0000000000e+00 0.0000e+00 -1.0000e+00
<mgrwt>
<rscale>  0 0.43160740E+03</rscale>
<asrwt>0</asrwt>
<pdfrwt beam="1">  1        2 0.96125781E-02 0.43160740E+03</pdfrwt>
<pdfrwt beam="2">  1       -2 0.11467036E+00 0.43160740E+03</pdfrwt>
<totfact> 0.53285599E+02</totfact>
</mgrwt>
<rwgt>
<wgt id='morphing_basis_vector_1'> +1.8910888e-04 </wgt>
<wgt id='morphing_basis_vector_2'> +1.0252391e-04 </wgt>
<wgt id='morphing_basis_vector_3'> +1.2554208e-04 </wgt>
<wgt id='morphing_basis_vector_4'> +3.2490422e-05 </wgt>
<wgt id='morphing_basis_vector_5'> +3.8608653e-05 </wgt>
</rwgt>
</event>
<event>
 4      1 +1.9425900e-05 4.58313800e+02 7.81860800e-03 9.49830200e-02
        2 -1    0    0  501    0 +0.0000000000e+00 +0.0000000000e+00 +1.6529810752e+02 1.6529810752e+02 0.0000000000e+00 0.0000e+00 -1.0000e+00
       -2 -1    0    0    0  501 -0.0000000000e+00 -0.0000000000e+00 -3.1768588692e+02 3.1768588692e+02 0.0000000000e+00 0.0000e+00 1.0000e+00
      -13  1    1    2    0    0 -8.7585595170e+01 -2.0686123789e+02 -1.2390878114e+02 2.5654667074e+02 0.0000000000e+00 0.0000e+00 1.0000e+00
       13  1    1    2    0    0 +8.7585595170e+01 +2.0686123789e+02 -2.8478998263e+01 2.2643732370e+02 0.0000000000e+00 0.0000e+00 -1.0000e+00
<mgrwt>
<rscale>  0 0.45831376E+03</rscale>
<asrwt>0</asrwt>
<pdfrwt beam="1">  1        2 0.25430478E-01 0.45831376E+03</pdfrwt>
<pdfrwt beam="2">  1       -2 0.48874752E-01 0.45831376E+03</pdfrwt>
<totfact> 0.10528324E+03</totfact>
</mgrwt>
<rwgt>
<wgt id='morphing_basis_vector_1'> +2.2713689e-04 </wgt>
<wgt id='morphing_basis_vector_2'> +1.3182742e-04 </wgt>
<wgt id='morphing_basis_vector_3'> +1.5159805e-04 </wgt>
<wgt id='morphing_basis_vector_4'> +4.3868932e-05 </wgt>
<wgt id='morphing_basis_vector_5'> +5.7802390e-05 </wgt>
</rwgt>
</event>
<event>
 4      1 +1.9425900e-05 4.68949600e+02 7.81860800e-03 9.47213300e-02
        2 -1    0    0  501    0 +0.0000000000e+00 +0.0000000000e+00 +4.1436133418e+02 4.1436133418e+02 0.0000000000e+00 0.0000e+00 -1.0000e+00
       -2 -1    0    0    0  501 -0.0000000000e+00 -0.0000000000e+00 -1.3268236756e+02 1.3268236756e+02 0.0000000000e+00 0.0000e+00 1.0000e+00
      -13  1    1    2    0    0 -9.6453288117e+01 -1.7063762795e+02 -9.2671300210e+00 1.9623026413e+02 0.0000000000e+00 0.0000e+00 1.0000e+00
       13  1    1    2    0    0 +9.6453288117e+01 +1.7063762795e+02 +2.9094609664e+02 3.5081343761e+02 0.0000000000e+00 0.0000e+00 -1.0000e+00
<mgrwt>
<rscale>  0 0.46894965E+03</rscale>
<asrwt>0</asrwt>
<pdfrwt beam="1">  1        2 0.63747897E-01 0.46894965E+03</pdfrwt>
<pdfrwt beam="2">  1       -2 0.20412672E-01 0.46894965E+03</pdfrwt>
<totfact> 0.17538747E+03</totfact>
</mgrwt>
<rwgt>
<wgt id='morphing_basis_vector_1'> +2.3976112e-04 </wgt>
<wgt id='morphing_basis_vector_2'> +1.3213288e-04 </wgt>
<wgt id='morphing_basis_vector_3'> +1.6590866e-04 </wgt>
<wgt id='morphing_basis_vector_4'> +5.0138787e-05 </wgt>
<wgt id='morphing_basis_vector_5'> +6.6665916e-05 </wgt>
</rwgt>
</event>
<event>
 4      1 +1.9425900e-05 5.09835300e+02 7.81860800e-03 9.37802500e-02
        2 -1    0    0  501    0 +0.0000000000e+00 +0.0000000000e+00 +2.4198874334e+02 2.4198874334e+02 0.0000000000e+00 0.0000e+00 -1.0000e+00
       -2 -1    0    0    0  501 -0.0000000000e+00 -0.0000000000e+00 -2.6853736430e+02 2.6853736430e+02 0.0000000000e+00 0.0000e+00 1.0000e+00
      -13  1    1    2    0    0 -4.7776374101e+01 -2.4660332533e+02 -5.6775514554e+01 2.5752522408e+02 0.0000000000e+00 0.0000e+00 1.0000e+00
       13  1    1    2    0    0 +4.7776374101e+01 +2.4660332533e+02 +3.0226893588e+01 2.5300088356e+02 0.0000000000e+00 0.0000e+00 -1.0000e+00
<mgrwt>
<rscale>  0 0.50983534E+03</rscale>
<asrwt>0</asrwt>
<pdfrwt beam="1">  1        2 0.37229037E-01 0.50983534E+03</pdfrwt>
<pdfrwt beam="2">  1       -2 0.41313441E-01 0.50983534E+03</pdfrwt>
<totfact> 0.93562333E+02</totfact>
</mgrwt>
<rwgt>
<wgt id='morphing_basis_vector_1'> +3.1180950e-04 </wgt>
<wgt id='morphing_basis_vector_2'> +1.8527111e-04 </wgt>
<wgt id='morphing_basis_vector_3'> +2.2119105e-04 </wgt>
<wgt id='morphing_basis_vector_4'> +7.5387613e-05 </wgt>
<wgt id='morphing_basis_vector_5'> +1.1009758e-04 </wgt>
</rwgt>
</event>
<event>
 4      1 +1.9425900e-05 5.06662300e+02 7.81860800e-03 9.38498400e-02
        2 -1    0    0  501    0 +0.0000000000e+00 +0.0000000000e+00 +1.5176700089e+03 1.5176700089e+03 0.0000000000e+00 0.0000e+00 1.0000e+00
       -2 -1    0    0    0  501 -0.0000000000e+00 -0.0000000000e+00 -4.2286312225e+01 4.2286312225e+01 0.0000000000e+00 0.0000e+00 -1.0000e+00
      -13  1    1    2    0    0 +2.1145576511e+01 +2.3826623784e+02 +4.8085405676e+02 5.3706476277e+02 0.0000000000e+00 0.0000e+00 -1.0000e+00
       13  1    1    2    0    0 -2.1145576511e+01 -2.3826623784e+02 +9.9452963988e+02 1.0228915583e+03 0.0000000000e+00 0.0000e+00 1.0000e+00
<mgrwt>
<rscale>  0 0.50666229E+03</rscale>
<asrwt>0</asrwt>
<pdfrwt beam="1">  1        2 0.23348765E+00 0.50666229E+03</pdfrwt>
<pdfrwt beam="2">  1       -2 0.65055877E-02 0.50666229E+03</pdfrwt>
<totfact> 0.18793505E+03</totfact>
</mgrwt>
<rwgt>
<wgt id='morphing_basis_vector_1'> +3.0343868e-04 </wgt>
<wgt id='morphing_basis_vector_2'> +1.7377763e-04 </wgt>
<wgt id='morphing_basis_vector_3'> +2.1718531e-04 </wgt>
<wgt id='morphing_basis_vector_4'> +7.4120808e-05 </wgt>
<wgt id='morphing_basis_vector_5'> +1.0611737e-04 </wgt>
</rwgt>
</event>
<event>
 4      1 +1.9425900e-05 4.54697400e+02 7.81860800e-03 9.50737000e-02
        2 -1    0    0  501    0 +0.0000000000e+00 +0.0000000000e+00 +1.6402146376e+02 1.6402146376e+02 0.0000000000e+00 0.0000e+00 -1.0000e+00
       -2 -1    0    0    0  501 -0.0000000000e+00 -0.0000000000e+00 -3.1512599236e+02 3.1512599236e+02 0.0000000000e+00 0.0000e+00 1.0000e+00
      -13  1    1    2    0    0 -1.3255496267e+02 -1.5108661756e+02 -1.8751744422e+02 2.7488320433e+02 0.0000000000e+00 0.0000e+00 1.0000e+00
       13  1    1    2    0    0 +1.3255496267e+02 +1.5108661756e+02 +3.6412915624e+01 2.0426425179e+02 0.0000000000e+00 0.0000e+00 -1.0000e+00
<mgrwt>
<rscale>  0 0.45469738E+03</rscale>
<asrwt>0</asrwt>
<pdfrwt beam="1">  1        2 0.25234072E-01 0.45469738E+03</pdfrwt>
<pdfrwt beam="2">  1       -2 0.48480921E-01 0.45469738E+03</pdfrwt>
<totfact> 0.10790214E+03</totfact>
</mgrwt>
<rwgt>
<wgt id='morphing_basis_vector_1'> +2.1970257e-04 </wgt>
<wgt id='morphing_basis_vector_2'> +1.2152459e-04 </wgt>
<wgt id='morphing_basis_vector_3'> +1.4900195e-04 </wgt>
<wgt id='morphing_basis_vector_4'> +4.2585442e-05 </wgt>
<wgt id='morphing_basis_vector_5'> +5.4804124e-05 </wgt>
</rwgt>
</event>
<event>
 4      1 +1.9425900e-05 4.59130900e+02 7.81860800e-03 9.49626500e-02
        2 -1    0    0  501    0 +0.0000000000e+00 +0.0000000000e+00 +4.0083823324e+02 4.0083823324e+02 0.0000000000e+00 0.0000e+00 -1.0000e+00
       -2 -1    0    0    0  501 -0.0000000000e+00 -0.0000000000e+00 -1.3147519496e+02 1.3147519496e+02 0.0000000000e+00 0.0000e+00 1.0000e+00
      -13  1    1    2    0    0 -3.1925312878e+00 +2.2753439056e+02 +1.6981313320e+02 2.8393413207e+02 0.0000000000e+00 0.0000e+00 1.0000e+00
       13  1    1    2    0    0 +3.1925312878e+00 -2.2753439056e+02 +9.9549905076e+01 2.4837929613e+02 0.0000000000e+00 0.0000e+00 -1.0000e+00
<mgrwt>
<rscale>  0 0.45913085E+03</rscale>
<asrwt>0</asrwt>
<pdfrwt beam="1">  1        2 0.61667420E-01 0.45913085E+03</pdfrwt>
<pdfrwt beam="2">  1       -2 0.20226953E-01 0.45913085E+03</pdfrwt>
<totfact> 0.18473286E+03</totfact>
</mgrwt>
<rwgt>
<wgt id='morphing_basis_vector_1'> +2.3651897e-04 </wgt>
<wgt id='morphing_basis_vector_2'> +1.5795898e-04 </wgt>
<wgt id='morphing_basis_vector_3'> +1.4744022e-04 </wgt>
<wgt id='morphing_basis_vector_4'> +4.2463486e-05 </wgt>
<wgt id='morphing_basis_vector_5'> +5.8900980e-05 </wgt>
</rwgt>
</event>
<event>
 4      1 +1.9425900e-05 4.53967500e+02 7.81860800e-03 9.50921000e-02
        2 -1    0    0  501    0 +0.0000000000e+00 +0.0000000000e+00 +1.3634852714e+03 1.3634852714e+03 0.0000000000e+00 0.0000e+00 1.0000e+00
       -2 -1    0    0    0  501 -0.0000000000e+00 -0.0000000000e+00 -3.7786711124e+01 3.7786711124e+01 0.0000000000e+00 0.0000e+00 -1.0000e+00
      -13  1    1    2    0    0 +8.9943614126e+01 -2.0266450760e+02 +5.1293277017e+02 5.5880478083e+02 0.0000000000e+00 0.0000e+00 -1.0000e+00
       13  1    1    2    0    0 -8.9943614126e+01 +2.0266450760e+02 +8.1276579007e+02 8.4246720166e+02 0.0000000000e+00 0.0000e+00 1.0000e+00
<mgrwt>
<rscale>  0 0.45396751E+03</rscale>
<asrwt>0</asrwt>
<pdfrwt beam="1">  1        2 0.20976693E+00 0.45396751E+03</pdfrwt>
<pdfrwt beam="2">  1       -2 0.58133412E-02 0.45396751E+03</pdfrwt>
<totfact> 0.27115025E+03</totfact>
</mgrwt>
<rwgt>
<wgt id='morphing_basis_vector_1'> +2.2080558e-04 </wgt>
<wgt id='morphing_basis_vector_2'> +1.2746870e-04 </wgt>
<wgt id='morphing_basis_vector_3'> +1.4682171e-04 </wgt>
<wgt id='morphing_basis_vector_4'> +4.1814978e-05 </wgt>
<wgt id='morphing_basis_vector_5'> +5.4351459e-05 </wgt>
</rwgt>
</event>
<event>
 4      1 +1.9425900e-05 4.51770000e+02 7.81860800e-03 9.51477500e-02
        2 -1    0    0  501    0 +0.0000000000e+00 +0.0000000000e+00 +2.9648309691e+02 2.9648309691e+02 0.0000000000e+00 0.0000e+00 -1.0000e+00
       -2 -1    0    0    0  501 -0.0000000000e+00 -0.0000000000e+00 -1.7209759510e+02 1.7209759510e+02 0.0000000000e+00 0.0000e+00 1.0000e+00
      -13  1    1    2    0    0 -2.1218687338e+02 -4.7598860017e+01 -1.1969295549e+00 2.1746345291e+02 0.0000000000e+00 0.0000e+00 1.0000e+00
       13  1    1    2    0    0 +2.1218687338e+02 +4.7598860017e+01 +1.2558243136e+02 2.5111723911e+02 0.0000000000e+00 0.0000e+00 -1.0000e+00
<mgrwt>
<rscale>  0 0.45176998E+03</rscale>
<asrwt>0</asrwt>
<pdfrwt beam="1">  1        2 0.45612784E-01 0.45176998E+03</pdfrwt>
<pdfrwt beam="2">  1       -2 0.26476553E-01 0.45176998E+03</pdfrwt>
<totfact> 0.16437885E+03</totfact>
</mgrwt>
<rwgt>
<wgt id='morphing_basis_vector_1'> +2.1713249e-04 </wgt>
<wgt id='morphing_basis_vector_2'> +1.2367638e-04 </wgt>
<wgt id='morphing_basis_vector_3'> +1.4481017e-04 </wgt>
<wgt id='morphing_basis_vector_4'> +4.0902508e-05 </wgt>
<wgt id='morphing_basis_vector_5'> +5.2629652e-05 </wgt>
</rwgt>
</event>
<event>
 4      1 +1.9425900e-05 4.79284800e+02 7.81860800e-03 9.44739500e-02
        2 -1    0    0  501    0 +0.0000000000e+00 +0.0000000000e+00 +4.5195093053e+02 4.5195093053e+02 0.0000000000e+00 0.0000e+00 -1.0000e+00
       -2 -1    0    0    0  501 -0.0000000000e+00 -0.0000000000e+00 -1.2706797465e+02 1.2706797465e+02 0.0000000000e+00 0.0000e+00 1.0000e+00
      -13  1    1    2    0    0 -1.0339397564e+02 -8.5239516468e+01 -7.7577630678e+01 1.5483661760e+02 0.0000000000e+00 0.0000e+00 1.0000e+00
       13  1    1    2    0    0 +1.0339397564e+02 +8.5239516468e+01 +4.0246058656e+02 4.2418228759e+02 0.0000000000e+00 0.0000e+00 -1.0000e+00
<mgrwt>
<rscale>  0 0.47928484E+03</rscale>
<asrwt>0</asrwt>
<pdfrwt beam="1">  1        2 0.69530912E-01 0.47928484E+03</pdfrwt>
<pdfrwt beam="2">  1       -2 0.19548919E-01 0.47928484E+03</pdfrwt>
<totfact> 0.17099481E+03</totfact>
</mgrwt>
<rwgt>
<wgt id='morphing_basis_vector_1'> +2.5485743e-04 </wgt>
<wgt id='morphing_basis_vector_2'> +1.3911277e-04 </wgt>
<wgt id='morphing_basis_vector_3'> +1.7933609e-04 </wgt>
<wgt id='morphing_basis_vector_4'> +5.6394078e-05 </wgt>
<wgt id='morphing_basis_vector_5'> +7.6234712e-05 </wgt>
</rwgt>
</event>
<event>
 4      1 +1.9425900e-05 4.74540800e+02 7.81860800e-03 9.45866700e-02
        2 -1    0    0  501    0 +0.0000000000e+00 +0.0000000000e+00 +4.1451625228e+02 4.1451625228e+02 0.0000000000e+00 0.0000e+00 1.0000e+00
       -2 -1    0    0    0  501 -0.0000000000e+00 -0.0000000000e+00 -1.3581430731e+02 1.3581430731e+02 0.0000000000e+00 0.0000e+00 -1.0000e+00
      -13  1    1    2    0    0 -7.2286586294e+01 +2.0238469984e+02 +2.2730310748e+01 2.1610549348e+02 0.0000000000e+00 0.0000e+00 -1.0000e+00
       13  1    1    2    0    0 +7.2286586294e+01 -2.0238469984e+02 +2.5597163423e+02 3.3422506611e+02 0.0000000000e+00 0.0000e+00 1.0000e+00
<mgrwt>
<rscale>  0 0.47454078E+03</rscale>
<asrwt>0</asrwt>
<pdfrwt beam="1">  1        2 0.63771730E-01 0.47454078E+03</pdfrwt>
<pdfrwt beam="2">  1       -2 0.20894509E-01 0.47454078E+03</pdfrwt>
<totfact> 0.16868110E+03</totfact>
</mgrwt>
<rwgt>
<wgt id='morphing_basis_vector_1'> +2.4888177e-04 </wgt>
<wgt id='morphing_basis_vector_2'> +1.3912427e-04 </wgt>
<wgt id='morphing_basis_vector_3'> +1.7250484e-04 </wgt>
<wgt id='morphing_basis_vector_4'> +5.3141858e-05 </wgt>
<wgt id='morphing_basis_vector_5'> +7.1787071e-05 </wgt>
</rwgt>
</event>
<event>
 4      1 +1.9425900e-05 5.14298900e+02 7.81860800e-03 9.36832700e-02
        2 -1    0    0  501    0 +0.0000000000e+00 +0.0000000000e+00 +6.0455706695e+02 6.0455706695e+02 0.0000000000e+00 0.0000e+00 1.0000e+00
       -2 -1    0    0    0  501 -0.0000000000e+00 -0.0000000000e+00 -1.0937897835e+02 1.0937897835e+02 0.0000000000e+00 0.0000e+00 -1.0000e+00
      -13  1    1    2    0    0 +1.2543625911e+02 -1.6663495164e+02 +3.8788320911e+01 2.1214616670e+02 0.0000000000e+00 0.0000e+00 -1.0000e+00
       13  1    1    2    0    0 -1.2543625911e+02 +1.6663495164e+02 +4.5638976770e+02 5.0178987860e+02 0.0000000000e+00 0.0000e+00 1.0000e+00
<mgrwt>
<rscale>  0 0.51429888E+03</rscale>
<asrwt>0</asrwt>
<pdfrwt beam="1">  1        2 0.93008778E-01 0.51429888E+03</pdfrwt>
<pdfrwt beam="2">  1       -2 0.16827535E-01 0.51429888E+03</pdfrwt>
<totfact> 0.15698192E+03</totfact>
</mgrwt>
<rwgt>
<wgt id='morphing_basis_vector_1'> +3.1547943e-04 </wgt>
<wgt id='morphing_basis_vector_2'> +1.7588950e-04 </wgt>
<wgt id='morphing_basis_vector_3'> +2.2995567e-04 </wgt>
<wgt id='morphing_basis_vector_4'> +8.0945449e-05 </wgt>
<wgt id='morphing_basis_vector_5'> +1.1555628e-04 </wgt>
</rwgt>
</event>
<event>
 4      1 +1.9425900e-05 4.45730900e+02 7.81860800e-03 9.53024000e-02
        2 -1    0    0  501    0 +0.0000000000e+00 +0.0000000000e+00 +4.5884021882e+02 4.5884021882e+02 0.0000000000e+00 0.0000e+00 -1.0000e+00
       -2 -1    0    0    0  501 -0.0000000000e+00 -0.0000000000e+00 -1.0824901486e+02 1.0824901486e+02 0.0000000000e+00 0.0000e+00 1.0000e+00
      -13  1    1    2    0    0 -7.7045730648e+01 -3.4154543923e+01 -8.7194103369e+01 1.2126577895e+02 0.0000000000e+00 0.0000e+00 1.0000e+00
       13  1    1    2    0    0 +7.7045730648e+01 +3.4154543923e+01 +4.3778530732e+02 4.4582345473e+02 0.0000000000e+00 0.0000e+00 -1.0000e+00
<mgrwt>
<rscale>  0 0.44573087E+03</rscale>
<asrwt>0</asrwt>
<pdfrwt beam="1">  1        2 0.70590802E-01 0.44573087E+03</pdfrwt>
<pdfrwt beam="2">  1       -2 0.16653695E-01 0.44573087E+03</pdfrwt>
<totfact> 0.21827014E+03</totfact>
</mgrwt>
<rwgt>
<wgt id='morphing_basis_vector_1'> +2.0666842e-04 </wgt>
<wgt id='morphing_basis_vector_2'> +1.1167675e-04 </wgt>
<wgt id='morphing_basis_vector_3'> +1.3992183e-04 </wgt>
<wgt id='morphing_basis_vector_4'> +3.8521770e-05 </wgt>
<wgt id='morphing_basis_vector_5'> +4.8039600e-05 </wgt>
</rwgt>
</event>
<event>
 4      1 +1.9425900e-05 4.58704800e+02 7.81860800e-03 9.49732600e-02
        2 -1    0    0  501    0 +0.0000000000e+00 +0.0000000000e+00 +1.3401107399e+02 1.3401107399e+02 0.0000000000e+00 0.0000e+00 -1.0000e+00
       -2 -1    0    0    0  501 -0.0000000000e+00 -0.0000000000e+00 -3.9252370985e+02 3.9252370985e+02 0.0000000000e+00 0.0000e+00 1.0000e+00
      -13  1    1    2    0    0 +1.4332324031e+02 -7.8028334039e+01 -3.1424752677e+02 3.5409247409e+02 0.0000000000e+00 0.0000e+00 1.0000e+00
       13  1    1    2    0    0 -1.4332324031e+02 +7.8028334039e+01 +5.5734890901e+01 1.7244230975e+02 0.0000000000e+00 0.0000e+00 -1.0000e+00
<mgrwt>
<rscale>  0 0.45870480E+03</rscale>
<asrwt>0</asrwt>
<pdfrwt beam="1">  1        2 0.20617088E-01 0.45870480E+03</pdfrwt>
<pdfrwt beam="2">  1       -2 0.60388263E-01 0.45870480E+03</pdfrwt>
<totfact> 0.88591793E+02</totfact>
</mgrwt>
<rwgt>
<wgt id='morphing_basis_vector_1'> +2.2450099e-04 </wgt>
<wgt id='morphing_basis_vector_2'> +1.2228325e-04 </wgt>
<wgt id='morphing_basis_vector_3'> +1.5403557e-04 </wgt>
<wgt id='morphing_basis_vector_4'> +4.4758394e-05 </wgt>
<wgt id='morphing_basis_vector_5'> +5.7948594e-05 </wgt>
</rwgt>
</event>
<event>
 4      1 +1.9425900e-05 4.38116600e+02 7.81860800e-03 9.55011100e-02
        2 -1    0    0  501    0 +0.0000000000e+00 +0.0000000000e+00 +6.8733536683e+02 6.8733536683e+02 0.0000000000e+00 0.0000e+00 -1.0000e+00
       -2 -1    0    0    0  501 -0.0000000000e+00 -0.0000000000e+00 -6.9815304986e+01 6.9815304986e+01 0.0000000000e+00 0.0000e+00 1.0000e+00
      -13  1    1    2    0    0 -2.4264196319e+01 +2.0364279186e+02 +1.7570710915e+02 2.7005948624e+02 0.0000000000e+00 0.0000e+00 1.0000e+00
       13  1    1    2    0    0 +2.4264196319e+01 -2.0364279186e+02 +4.4181295269e+02 4.8709118558e+02 0.0000000000e+00 0.0000e+00 -1.0000e+00
<mgrwt>
<rscale>  0 0.43811655E+03</rscale>
<asrwt>0</asrwt>
<pdfrwt beam="1">  1        2 0.10574390E+00 0.43811655E+03</pdfrwt>
<pdfrwt beam="2">  1       -2 0.10740817E-01 0.43811655E+03</pdfrwt>
<totfact> 0.27538733E+03</totfact>
</mgrwt>
<rwgt>
<wgt id='morphing_basis_vector_1'> +1.9845073e-04 </wgt>
<wgt id='morphing_basis_vector_2'> +1.1101546e-04 </wgt>
<wgt id='morphing_basis_vector_3'> +1.3096564e-04 </wgt>
<wgt id='morphing_basis_vector_4'> +3.4988360e-05 </wgt>
<wgt id='morphing_basis_vector_5'> +4.2872368e-05 </wgt>
</rwgt>
</event>
<event>
 4      1 +1.9425900e-05 4.72569800e+02 7.81860800e-03 9.46339100e-02
        2 -1    0    0  501    0 +0.0000000000e+00 +0.0000000000e+00 +4.4361749928e+02 4.4361749928e+02 0.0000000000e+00 0.0000e+00 1.0000e+00
       -2 -1    0    0    0  501 -0.0000000000e+00 -0.0000000000e+00 -1.2585291221e+02 1.2585291221e+02 0.0000000000e+00 0.0000e+00 -1.0000e+00
      -13  1    1    2    0    0 -5.9272499338e+01 +1.1948007109e+02 -7.6154548156e+01 1.5358460786e+02 0.0000000000e+00 0.0000e+00 -1.0000e+00
       13  1    1    2    0    0 +5.9272499338e+01 -1.1948007109e+02 +3.9391913522e+02 4.1588580363e+02 0.0000000000e+00 0.0000e+00 1.0000e+00
<mgrwt>
<rscale>  0 0.47256980E+03</rscale>
<asrwt>0</asrwt>
<pdfrwt beam="1">  1        2 0.68248845E-01 0.47256980E+03</pdfrwt>
<pdfrwt beam="2">  1       -2 0.19361987E-01 0.47256980E+03</pdfrwt>
<totfact> 0.17735818E+03</totfact>
</mgrwt>
<rwgt>
<wgt id='morphing_basis_vector_1'> +2.4453656e-04 </wgt>
<wgt id='morphing_basis_vector_2'> +1.3322654e-04 </wgt>
<wgt id='morphing_basis_vector_3'> +1.7075343e-04 </wgt>
<wgt id='morphing_basis_vector_4'> +5.2379063e-05 </wgt>
<wgt id='morphing_basis_vector_5'> +6.9899651e-05 </wgt>
</rwgt>
</event>
<event>
 4      1 +1.9425900e-05 4.31850700e+02 7.81860800e-03 9.56678500e-02
        2 -1    0    0  501    0 +0.0000000000e+00 +0.0000000000e+00 +2.2376945462e+02 2.2376945462e+02 0.0000000000e+00 0.0000e+00 -1.0000e+00
       -2 -1    0    0    0  501 -0.0000000000e+00 -0.0000000000e+00 -2.0835617007e+02 2.0835617007e+02 0.0000000000e+00 0.0000e+00 1.0000e+00
      -13  1    1    2    0    0 +4.9898144505e+01 +1.7138328845e+02 -1.1386841501e+02 2.1172640913e+02 0.0000000000e+00 0.0000e+00 1.0000e+00
       13  1    1    2    0    0 -4.9898144505e+01 -1.7138328845e+02 +1.2928169956e+02 2.2039921557e+02 0.0000000000e+00 0.0000e+00 -1.0000e+00
<mgrwt>
<rscale>  0 0.43185065E+03</rscale>
<asrwt>0</asrwt>
<pdfrwt beam="1">  1        2 0.34426070E-01 0.43185065E+03</pdfrwt>
<pdfrwt beam="2">  1       -2 0.32054795E-01 0.43185065E+03</pdfrwt>
<totfact> 0.16164443E+03</totfact>
</mgrwt>
<rwgt>
<wgt id='morphing_basis_vector_1'> +1.8966404e-04 </wgt>
<wgt id='morphing_basis_vector_2'> +1.0348864e-04 </wgt>
<wgt id='morphing_basis_vector_3'> +1.2557590e-04 </wgt>
<wgt id='morphing_basis_vector_4'> +3.2562641e-05 </wgt>
<wgt id='morphing_basis_vector_5'> +3.8775780e-05 </wgt>
</rwgt>
</event>
<event>
 4      1 +1.9425900e-05 4.53568100e+02 7.81860800e-03 9.51021900e-02
        2 -1    0    0  501    0 +0.0000000000e+00 +0.0000000000e+00 +3.1837353930e+02 3.1837353930e+02 0.0000000000e+00 0.0000e+00 -1.0000e+00
       -2 -1    0    0    0  501 -0.0000000000e+00 -0.0000000000e+00 -1.6154295313e+02 1.6154295313e+02 0.0000000000e+00 0.0000e+00 1.0000e+00
      -13  1    1    2    0    0 +1.4686425362e+02 -1.6904260482e+02 +4.0464008530e+01 2.2755625067e+02 0.0000000000e+00 0.0000e+00 1.0000e+00
       13  1    1    2    0    0 -1.4686425362e+02 +1.6904260482e+02 +1.1636657764e+02 2.5236024177e+02 0.0000000000e+00 0.0000e+00 -1.0000e+00
<mgrwt>
<rscale>  0 0.45356808E+03</rscale>
<asrwt>0</asrwt>
<pdfrwt beam="1">  1        2 0.48980544E-01 0.45356808E+03</pdfrwt>
<pdfrwt beam="2">  1       -2 0.24852762E-01 0.45356808E+03</pdfrwt>
<totfact> 0.16917422E+03</totfact>
</mgrwt>
<rwgt>
<wgt id='morphing_basis_vector_1'> +2.2101935e-04 </wgt>
<wgt id='morphing_basis_vector_2'> +1.2951143e-04 </wgt>
<wgt id='morphing_basis_vector_3'> +1.4587774e-04 </wgt>
<wgt id='morphing_basis_vector_4'> +4.1476551e-05 </wgt>
<wgt id='morphing_basis_vector_5'> +5.4084322e-05 </wgt>
</rwgt>
</event>
<event>
 4      1 +1.9425900e-05 5.10272400e+02 7.81860800e-03 9.37707000e-02
        2 -1    0    0  501    0 +0.0000000000e+00 +0.0000000000e+00 +2.3586234681e+03 2.3586234681e+03 0.0000000000e+00 0.0000e+00 1.0000e+00
       -2 -1    0    0    0  501 -0.0000000000e+00 -0.0000000000e+00 -2.7598501449e+01 2.7598501449e+01 0.0000000000e+00 0.0000e+00 -1.0000e+00
      -13  1    1    2    0    0 -1.3135046813e+02 +2.1361797262e+02 +1.3852963354e+03 1.4078108966e+03 0.0000000000e+00 0.0000e+00 -1.0000e+00
       13  1    1    2    0    0 +1.3135046813e+02 -2.1361797262e+02 +9.4572863128e+02 9.7841107298e+02 0.0000000000e+00 0.0000e+00 1.0000e+00
<mgrwt>
<rscale>  0 0.51027237E+03</rscale>
<asrwt>0</asrwt>
<pdfrwt beam="1">  1        2 0.36286499E+00 0.51027237E+03</pdfrwt>
<pdfrwt beam="2">  1       -2 0.42459252E-02 0.51027237E+03</pdfrwt>
<totfact> 0.12418783E+03</totfact>
</mgrwt>
<rwgt>
<wgt id='morphing_basis_vector_1'> +3.2672770e-04 </wgt>
<wgt id='morphing_basis_vector_2'> +2.2958323e-04 </wgt>
<wgt id='morphing_basis_vector_3'> +2.1676064e-04 </wgt>
<wgt id='morphing_basis_vector_4'> +6.9474900e-05 </wgt>
<wgt id='morphing_basis_vector_5'> +1.1115723e-04 </wgt>
</rwgt>
</event>
<event>
 4      1 +1.9425900e-05 4.46821900e+02 7.81860800e-03 9.52742700e-02
        2 -1    0    0  501    0 +0.0000000000e+00 +0.0000000000e+00 +1.0792486967e+03 1.0792486967e+03 0.0000000000e+00 0.0000e+00 -1.0000e+00
       -2 -1    0    0    0  501 -0.0000000000e+00 -0.0000000000e+00 -4.6247408074e+01 4.6247408074e+01 0.0000000000e+00 0.0000e+00 1.0000e+00
      -13  1    1    2    0    0 -1.7367495855e+02 +9.5984386480e+01 +2.5794327423e+02 3.2543928220e+02 0.0000000000e+00 0.0000e+00 1.0000e+00
       13  1    1    2    0    0 +1.7367495855e+02 -9.5984386480e+01 +7.7505801436e+02 8.0005682254e+02 0.0000000000e+00 0.0000e+00 -1.0000e+00
<mgrwt>
<rscale>  0 0.44682191E+03</rscale>
<asrwt>0</asrwt>
<pdfrwt beam="1">  1        2 0.16603824E+00 0.44682191E+03</pdfrwt>
<pdfrwt beam="2">  1       -2 0.71149867E-02 0.44682191E+03</pdfrwt>
<totfact> 0.28873084E+03</totfact>
</mgrwt>
<rwgt>
<wgt id='morphing_basis_vector_1'> +2.0908872e-04 </wgt>
<wgt id='morphing_basis_vector_2'> +1.1552805e-04 </wgt>
<wgt id='morphing_basis_vector_3'> +1.4039752e-04 </wgt>
<wgt id='morphing_basis_vector_4'> +3.8860462e-05 </wgt>
<wgt id='morphing_basis_vector_5'> +4.8881458e-05 </wgt>
</rwgt>
</event>
<event>
 4      1 +1.9425900e-05 4.69277600e+02 7.81860800e-03 9.47133800e-02
        2 -1    0    0  501    0 +0.0000000000e+00 +0.0000000000e+00 +1.0383190710e+03 1.0383190710e+03 0.0000000000e+00 0.0000e+00 1.0000e+00
       -2 -1    0    0    0  501 -0.0000000000e+00 -0.0000000000e+00 -5.3023553114e+01 5.3023553114e+01 0.0000000000e+00 0.0000e+00 -1.0000e+00
      -13  1    1    2    0    0 +6.1343951257e+01 -1.5315722192e+02 +1.0465100930e+02 1.9537668420e+02 0.0000000000e+00 0.0000e+00 -1.0000e+00
       13  1    1    2    0    0 -6.1343951257e+01 +1.5315722192e+02 +8.8064450863e+02 8.9596593996e+02 0.0000000000e+00 0.0000e+00 1.0000e+00
<mgrwt>
<rscale>  0 0.46927760E+03</rscale>
<asrwt>0</asrwt>
<pdfrwt beam="1">  1        2 0.15974138E+00 0.46927760E+03</pdfrwt>
<pdfrwt beam="2">  1       -2 0.81574705E-02 0.46927760E+03</pdfrwt>
<totfact> 0.24754979E+03</totfact>
</mgrwt>
<rwgt>
<wgt id='morphing_basis_vector_1'> +2.3977062e-04 </wgt>
<wgt id='morphing_basis_vector_2'> +1.3093157e-04 </wgt>
<wgt id='morphing_basis_vector_3'> +1.6658199e-04 </wgt>
<wgt id='morphing_basis_vector_4'> +5.0449720e-05 </wgt>
<wgt id='morphing_basis_vector_5'> +6.6933563e-05 </wgt>
</rwgt>
</event>
<event>
 4      1 +1.9425900e-05 4.56240200e+02 7.81860800e-03 9.50349000e-02
        2 -1    0    0  501    0 +0.0000000000e+00 +0.0000000000e+00 +1.1811773274e+03 1.1811773274e+03 0.0000000000e+00 0.0000e+00 -1.0000e+00
       -2 -1    0    0    0  501 -0.0000000000e+00 -0.0000000000e+00 -4.4056698240e+01 4.4056698240e+01 0.0000000000e+00 0.0000e+00 1.0000e+00
      -13  1    1    2    0    0 +1.6003296328e+02 +1.6217367787e+02 +5.3818658886e+02 5.8442763073e+02 0.0000000000e+00 0.0000e+00 -1.0000e+00
       13  1    1    2    0    0 -1.6003296328e+02 -1.6217367787e+02 +5.9893404031e+02 6.4080639492e+02 0.0000000000e+00 0.0000e+00 1.0000e+00
<mgrwt>
<rscale>  0 0.45624017E+03</rscale>
<asrwt>0</asrwt>
<pdfrwt beam="1">  1        2 0.18171956E+00 0.45624017E+03</pdfrwt>
<pdfrwt beam="2">  1       -2 0.67779545E-02 0.45624017E+03</pdfrwt>
<totfact> 0.27145375E+03</totfact>
</mgrwt>
<rwgt>
<wgt id='morphing_basis_vector_1'> +2.2678150e-04 </wgt>
<wgt id='morphing_basis_vector_2'> +1.3803571e-04 </wgt>
<wgt id='morphing_basis_vector_3'> +1.4759484e-04 </wgt>
<wgt id='morphing_basis_vector_4'> +4.2324639e-05 </wgt>
<wgt id='morphing_basis_vector_5'> +5.6283514e-05 </wgt>
</rwgt>
</event>
<event>
 4      1 +1.9425900e-05 4.57629500e+02 7.81860800e-03 9.50001100e-02
        2 -1    0    0  501    0 +0.0000000000e+00 +0.0000000000e+00 +9.1553993871e+02 9.1553993871e+02 0.0000000000e+00 0.0000e+00 -1.0000e+00
       -2 -1    0    0    0  501 -0.0000000000e+00 -0.0000000000e+00 -5.7186122100e+01 5.7186122100e+01 0.0000000000e+00 0.0000e+00 1.0000e+00
      -13  1    1    2    0    0 -1.6556017667e+02 -3.5834353156e+01 +1.0221177346e+02 1.9784215829e+02 0.0000000000e+00 0.0000e+00 1.0000e+00
       13  1    1    2    0    0 +1.6556017667e+02 +3.5834353156e+01 +7.5614204315e+02 7.7488390252e+02 0.0000000000e+00 0.0000e+00 -1.0000e+00
<mgrwt>
<rscale>  0 0.45762945E+03</rscale>
<asrwt>0</asrwt>
<pdfrwt beam="1">  1        2 0.14085229E+00 0.45762945E+03</pdfrwt>
<pdfrwt beam="2">  1       -2 0.87978656E-02 0.45762945E+03</pdfrwt>
<totfact> 0.26206902E+03</totfact>
</mgrwt>
<rwgt>
<wgt id='morphing_basis_vector_1'> +2.2305597e-04 </wgt>
<wgt id='morphing_basis_vector_2'> +1.2162162e-04 </wgt>
<wgt id='morphing_basis_vector_3'> +1.5276811e-04 </wgt>
<wgt id='morphing_basis_vector_4'> +4.4196292e-05 </wgt>
<wgt id='morphing_basis_vector_5'> +5.7085228e-05 </wgt>
</rwgt>
</event>
<event>
 4      1 +1.9425900e-05 5.01812500e+02 7.81860800e-03 9.39572600e-02
        2 -1    0    0  501    0 +0.0000000000e+00 +0.0000000000e+00 +9.8613116223e+01 9.8613116223e+01 0.0000000000e+00 0.0000e+00 1.0000e+00
       -2 -1    0    0    0  501 -0.0000000000e+00 -0.0000000000e+00 -6.3839317843e+02 6.3839317843e+02 0.0000000000e+00 0.0000e+00 -1.0000e+00
      -13  1    1    2    0    0 +1.0879649707e+02 -1.4419821213e+02 -5.2564493942e+02 5.5581688036e+02 0.0000000000e+00 0.0000e+00 -1.0000e+00
       13  1    1    2    0    0 -1.0879649707e+02 +1.4419821213e+02 -1.4135122784e+01 1.8118941429e+02 0.0000000000e+00 0.0000e+00 1.0000e+00
<mgrwt>
<rscale>  0 0.50181248E+03</rscale>
<asrwt>0</asrwt>
<pdfrwt beam="1">  1        2 0.15171249E-01 0.50181248E+03</pdfrwt>
<pdfrwt beam="2">  1       -2 0.98214334E-01 0.50181248E+03</pdfrwt>
<totfact> 0.43953087E+02</totfact>
</mgrwt>
<rwgt>
<wgt id='morphing_basis_vector_1'> +2.9245657e-04 </wgt>
<wgt id='morphing_basis_vector_2'> +1.6141331e-04 </wgt>
<wgt id='morphing_basis_vector_3'> +2.1072965e-04 </wgt>
<wgt id='morphing_basis_vector_4'> +7.1497309e-05 </wgt>
<wgt id='morphing_basis_vector_5'> +1.0026797e-04 </wgt>
</rwgt>
</event>
<event>
 4      1 +1.9425900e-05 4.33723300e+02 7.81860800e-03 9.56177100e-02
        2 -1    0    0  501    0 +0.0000000000e+00 +0.0000000000e+00 +2.4861918654e+02 2.4861918654e+02 0.0000000000e+00 0.0000e+00 -1.0000e+00
       -2 -1    0    0    0  501 -0.0000000000e+00 -0.0000000000e+00 -1.8916069014e+02 1.8916069014e+02 0.0000000000e+00 0.0000e+00 1.0000e+00
      -13  1    1    2    0    0 +9.6082034917e+01 +9.2351298880e+00 -1.6628264510e+02 1.9226794616e+02 0.0000000000e+00 0.0000e+00 1.0000e+00
       13  1    1    2    0    0 -9.6082034917e+01 -9.2351298880e+00 +2.2574114151e+02 2.4551193052e+02 0.0000000000e+00 0.0000e+00 -1.0000e+00
<mgrwt>
<rscale>  0 0.43372331E+03</rscale>
<asrwt>0</asrwt>
<pdfrwt beam="1">  1        2 0.38249106E-01 0.43372331E+03</pdfrwt>
<pdfrwt beam="2">  1       -2 0.29101644E-01 0.43372331E+03</pdfrwt>
<totfact> 0.17000042E+03</totfact>
</mgrwt>
<rwgt>
<wgt id='morphing_basis_vector_1'> +1.9145351e-04 </wgt>
<wgt id='morphing_basis_vector_2'> +1.0322709e-04 </wgt>
<wgt id='morphing_basis_vector_3'> +1.2776450e-04 </wgt>
<wgt id='morphing_basis_vector_4'> +3.3358929e-05 </wgt>
<wgt id='morphing_basis_vector_5'> +3.9925198e-05 </wgt>
</rwgt>
</event>
<event>
 4      1 +1.9425900e-05 4.61438900e+02 7.81860800e-03 9.49053600e-02
        2 -1    0    0  501    0 +0.0000000000e+00 +0.0000000000e+00 +7.3570189283e+02 7.3570189283e+02 0.0000000000e+00 0.0000e+00 -1.0000e+00
       -2 -1    0    0    0  501 -0.0000000000e+00 -0.0000000000e+00 -7.2354679517e+01 7.2354679517e+01 0.0000000000e+00 0.0000e+00 1.0000e+00
      -13  1    1    2    0    0 +1.8227602588e+02 -1.4144481170e+02 +3.3261714015e+02 4.0480284867e+02 0.0000000000e+00 0.0000e+00 1.0000e+00
       13  1    1    2    0    0 -1.8227602588e+02 +1.4144481170e+02 +3.3073007317e+02 4.0325372368e+02 0.0000000000e+00 0.0000e+00 -1.0000e+00
<mgrwt>
<rscale>  0 0.46143894E+03</rscale>
<asrwt>0</asrwt>
<pdfrwt beam="1">  1        2 0.11318490E+00 0.46143894E+03</pdfrwt>
<pdfrwt beam="2">  1       -2 0.11131490E-01 0.46143894E+03</pdfrwt>
<totfact> 0.24001156E+03</totfact>
</mgrwt>
<rwgt>
<wgt id='morphing_basis_vector_1'> +2.3559555e-04 </wgt>
<wgt id='morphing_basis_vector_2'> +1.4683940e-04 </wgt>
<wgt id='morphing_basis_vector_3'> +1.5280365e-04 </wgt>
<wgt id='morphing_basis_vector_4'> +4.4511652e-05 </wgt>
<wgt id='morphing_basis_vector_5'> +6.0569941e-05 </wgt>
</rwgt>
</event>
<event>
 4      1 +1.9425900e-05 4.68349100e+02 7.81860800e-03 9.47359100e-02
        2 -1    0    0  501    0 +0.0000000000e+00 +0.0000000000e+00 +4.7936743182e+02 4.7936743182e+02 0.0000000000e+00 0.0000e+00 -1.0000e+00
       -2 -1    0    0    0  501 -0.0000000000e+00 -0.0000000000e+00 -1.1439599157e+02 1.1439599157e+02 0.0000000000e+00 0.0000e+00 1.0000e+00
      -13  1    1    2    0    0 -7.5390123403e+01 +1.3594464000e+02 -3.9549869529e+01 1.6040202003e+02 0.0000000000e+00 0.0000e+00 1.0000e+00
       13  1    1    2    0    0 +7.5390123403e+01 -1.3594464000e+02 +4.0452130978e+02 4.3336140336e+02 0.0000000000e+00 0.0000e+00 -1.0000e+00
<mgrwt>
<rscale>  0 0.46834907E+03</rscale>
<asrwt>0</asrwt>
<pdfrwt beam="1">  1        2 0.73748835E-01 0.46834907E+03</pdfrwt>
<pdfrwt beam="2">  1       -2 0.17599384E-01 0.46834907E+03</pdfrwt>
<totfact> 0.19010898E+03</totfact>
</mgrwt>
<rwgt>
<wgt id='morphing_basis_vector_1'> +2.3832838e-04 </wgt>
<wgt id='morphing_basis_vector_2'> +1.2994291e-04 </wgt>
<wgt id='morphing_basis_vector_3'> +1.6548446e-04 </wgt>
<wgt id='morphing_basis_vector_4'> +4.9945815e-05 </wgt>
<wgt id='morphing_basis_vector_5'> +6.6106739e-05 </wgt>
</rwgt>
</event>
<event>
 4      1 +1.9425900e-05 4.50757700e+02 7.81860800e-03 9.51735000e-02
        2 -1    0    0  501    0 +0.0000000000e+00 +0.0000000000e+00 +2.6690770531e+02 2.6690770531e+02 0.0000000000e+00 0.0000e+00 1.0000e+00
       -2 -1    0    0    0  501 -0.0000000000e+00 -0.0000000000e+00 -1.9031154140e+02 1.9031154140e+02 0.0000000000e+00 0.0000e+00 -1.0000e+00
      -13  1    1    2    0    0 +1.5710746118e+01 -2.2394628822e+02 +1.8091438709e+01 2.2522448292e+02 0.0000000000e+00 0.0000e+00 -1.0000e+00
       13  1    1    2    0    0 -1.5710746118e+01 +2.2394628822e+02 +5.8504725200e+01 2.3199476378e+02 0.0000000000e+00 0.0000e+00 1.0000e+00
<mgrwt>
<rscale>  0 0.45075766E+03</rscale>
<asrwt>0</asrwt>
<pdfrwt beam="1">  1        2 0.41062724E-01 0.45075766E+03</pdfrwt>
<pdfrwt beam="2">  1       -2 0.29278699E-01 0.45075766E+03</pdfrwt>
<totfact> 0.15538237E+03</totfact>
</mgrwt>
<rwgt>
<wgt id='morphing_basis_vector_1'> +2.1830000e-04 </wgt>
<wgt id='morphing_basis_vector_2'> +1.3074039e-04 </wgt>
<wgt id='morphing_basis_vector_3'> +1.4200673e-04 </wgt>
<wgt id='morphing_basis_vector_4'> +3.9968025e-05 </wgt>
<wgt id='morphing_basis_vector_5'> +5.2005793e-05 </wgt>
</rwgt>
</event>
<event>
 4      1 +1.9425900e-05 4.40761300e+02 7.81860800e-03 9.54316100e-02
        2 -1    0    0  501    0 +0.0000000000e+00 +0.0000000000e+00 +1.9843976209e+02 1.9843976209e+02 0.0000000000e+00 0.0000e+00 1.0000e+00
       -2 -1    0    0    0  501 -0.0000000000e+00 -0.0000000000e+00 -2.4474745564e+02 2.4474745564e+02 0.0000000000e+00 0.0000e+00 -1.0000e+00
      -13  1    1    2    0    0 -9.5618503079e+01 +8.5224962790e+01 -2.0347700047e+02 2.4043519321e+02 0.0000000000e+00 0.0000e+00 -1.0000e+00
       13  1    1    2    0    0 +9.5618503079e+01 -8.5224962790e+01 +1.5716930691e+02 2.0275202452e+02 0.0000000000e+00 0.0000e+00 1.0000e+00
<mgrwt>
<rscale>  0 0.44076128E+03</rscale>
<asrwt>0</asrwt>
<pdfrwt beam="1">  1        2 0.30529194E-01 0.44076128E+03</pdfrwt>
<pdfrwt beam="2">  1       -2 0.37653455E-01 0.44076128E+03</pdfrwt>
<totfact> 0.13892115E+03</totfact>
</mgrwt>
<rwgt>
<wgt id='morphing_basis_vector_1'> +2.0030979e-04 </wgt>
<wgt id='morphing_basis_vector_2'> +1.0828736e-04 </wgt>
<wgt id='morphing_basis_vector_3'> +1.3472878e-04 </wgt>
<wgt id='morphing_basis_vector_4'> +3.6302593e-05 </wgt>
<wgt id='morphing_basis_vector_5'> +4.4566698e-05 </wgt>
</rwgt>
</event>
<event>
 4      1 +1.9425900e-05 4.52877800e+02 7.81860800e-03 9.51196600e-02
        2 -1    0    0  501    0 +0.0000000000e+00 +0.0000000000e+00 +9.3228757067e+02 9.3228757067e+02 0.0000000000e+00 0.0000e+00 1.0000e+00
       -2 -1    0    0    0  501 -0.0000000000e+00 -0.0000000000e+00 -5.4998668674e+01 5.4998668674e+01 0.0000000000e+00 0.0000e+00 -1.0000e+00
      -13  1    1    2    0    0 -1.3251321938e+02 -1.4073490799e+02 +1.8154430790e+02 2.6518748720e+02 0.0000000000e+00 0.0000e+00 -1.0000e+00
       13  1    1    2    0    0 +1.3251321938e+02 +1.4073490799e+02 +6.9574459410e+02 7.2209875215e+02 0.0000000000e+00 0.0000e+00 1.0000e+00
<mgrwt>
<rscale>  0 0.45287780E+03</rscale>
<asrwt>0</asrwt>
<pdfrwt beam="1">  1        2 0.14342884E+00 0.45287780E+03</pdfrwt>
<pdfrwt beam="2">  1       -2 0.84613344E-02 0.45287780E+03</pdfrwt>
<totfact> 0.27164212E+03</totfact>
</mgrwt>
<rwgt>
<wgt id='morphing_basis_vector_1'> +2.1695705e-04 </wgt>
<wgt id='morphing_basis_vector_2'> +1.1933063e-04 </wgt>
<wgt id='morphing_basis_vector_3'> +1.4714011e-04 </wgt>
<wgt id='morphing_basis_vector_4'> +4.1748511e-05 </wgt>
<wgt id='morphing_basis_vector_5'> +5.3382400e-05 </wgt>
</rwgt>
</event>
<event>
 4      1 +1.9425900e-05 4.80201200e+02 7.81860800e-03 9.44523400e-02
        2 -1    0    0  501    0 +0.0000000000e+00 +0.0000000000e+00 +1.1020680949e+02 1.1020680949e+02 0.0000000000e+00 0.0000e+00 -1.0000e+00
       -2 -1    0    0    0  501 -0.0000000000e+00 -0.0000000000e+00 -5.2309195252e+02 5.2309195252e+02 0.0000000000e+00 0.0000e+00 1.0000e+00
      -13  1    1    2    0    0 -1.7854955809e+02 -1.5530371862e+02 -2.5999875518e+02 3.5156584363e+02 0.0000000000e+00 0.0000e+00 1.0000e+00
       13  1    1    2    0    0 +1.7854955809e+02 +1.5530371862e+02 -1.5288638785e+02 2.8173291838e+02 0.0000000000e+00 0.0000e+00 -1.0000e+00
<mgrwt>
<rscale>  0 0.48020119E+03</rscale>
<asrwt>0</asrwt>
<pdfrwt beam="1">  1        2 0.16954894E-01 0.48020119E+03</pdfrwt>
<pdfrwt beam="2">  1       -2 0.80475685E-01 0.48020119E+03</pdfrwt>
<totfact> 0.60806087E+02</totfact>
</mgrwt>
<rwgt>
<wgt id='morphing_basis_vector_1'> +2.6065247e-04 </wgt>
<wgt id='morphing_basis_vector_2'> +1.5344944e-04 </wgt>
<wgt id='morphing_basis_vector_3'> +1.7830731e-04 </wgt>
<wgt id='morphing_basis_vector_4'> +5.5588100e-05 </wgt>
<wgt id='morphing_basis_vector_5'> +7.7331279e-05 </wgt>
</rwgt>
</event>
<event>
 4      1 +1.9425900e-05 4.48976700e+02 7.81860800e-03 9.52189600e-02
        2 -1    0    0  501    0 +0.0000000000e+00 +0.0000000000e+00 +3.3692935656e+02 3.3692935656e+02 0.0000000000e+00 0.0000e+00 -1.0000e+00
       -2 -1    0    0    0  501 -0.0000000000e+00 -0.0000000000e+00 -1.4957145858e+02 1.4957145858e+02 0.0000000000e+00 0.0000e+00 1.0000e+00
      -13  1    1    2    0    0 -2.1717811958e+02 +3.9303207717e+01 +4.9213490482e+01 2.2612617143e+02 0.0000000000e+00 0.0000e+00 1.0000e+00
       13  1    1    2    0    0 +2.1717811958e+02 -3.9303207717e+01 +1.3814440750e+02 2.6037464371e+02 0.0000000000e+00 0.0000e+00 -1.0000e+00
<mgrwt>
<rscale>  0 0.44897668E+03</rscale>
<asrwt>0</asrwt>
<pdfrwt beam="1">  1        2 0.51835285E-01 0.44897668E+03</pdfrwt>
<pdfrwt beam="2">  1       -2 0.23010994E-01 0.44897668E+03</pdfrwt>
<totfact> 0.18084816E+03</totfact>
</mgrwt>
<rwgt>
<wgt id='morphing_basis_vector_1'> +2.1435708e-04 </wgt>
<wgt id='morphing_basis_vector_2'> +1.2458506e-04 </wgt>
<wgt id='morphing_basis_vector_3'> +1.4108295e-04 </wgt>
<wgt id='morphing_basis_vector_4'> +3.9434931e-05 </wgt>
<wgt id='morphing_basis_vector_5'> +5.0592847e-05 </wgt>
</rwgt>
</event>
<event>
 4      1 +1.9425900e-05 4.87136300e+02 7.81860800e-03 9.42904700e-02
        2 -1    0    0  501    0 +0.0000000000e+00 +0.0000000000e+00 +6.2271015461e+02 6.2271015461e+02 0.0000000000e+00 0.0000e+00 -1.0000e+00
       -2 -1    0    0    0  501 -0.0000000000e+00 -0.0000000000e+00 -9.5269744470e+01 9.5269744470e+01 0.0000000000e+00 0.0000e+00 1.0000e+00
      -13  1    1    2    0    0 -2.5916740085e+01 -2.4209518817e+02 +2.5397924121e+02 3.5183406958e+02 0.0000000000e+00 0.0000e+00 1.0000e+00
       13  1    1    2    0    0 +2.5916740085e+01 +2.4209518817e+02 +2.7346116892e+02 3.6614582950e+02 0.0000000000e+00 0.0000e+00 -1.0000e+00
<mgrwt>
<rscale>  0 0.48713627E+03</rscale>
<asrwt>0</asrwt>
<pdfrwt beam="1">  1        2 0.95801560E-01 0.48713627E+03</pdfrwt>
<pdfrwt beam="2">  1       -2 0.14656884E-01 0.48713627E+03</pdfrwt>
<totfact> 0.18943685E+03</totfact>
</mgrwt>
<rwgt>
<wgt id='morphing_basis_vector_1'> +2.7525821e-04 </wgt>
<wgt id='morphing_basis_vector_2'> +1.7070944e-04 </wgt>
<wgt id='morphing_basis_vector_3'> +1.8608388e-04 </wgt>
<wgt id='morphing_basis_vector_4'> +5.8668877e-05 </wgt>
<wgt id='morphing_basis_vector_5'> +8.4461919e-05 </wgt>
</rwgt>
</event>
<event>
 4      1 +1.9425900e-05 4.82175900e+02 7.81860800e-03 9.44059500e-02
        2 -1    0    0  501    0 +0.0000000000e+00 +0.0000000000e+00 +1.3803215353e+03 1.3803215353e+03 0.0000000000e+00 0.0000e+00 -1.0000e+00
       -2 -1    0    0    0  501 -0.0000000000e+00 -0.0000000000e+00 -4.2108589872e+01 4.2108589872e+01 0.0000000000e+00 0.0000e+00 1.0000e+00
      -13  1    1    2    0    0 +1.4655859168e+02 -1.7686906703e+02 +4.5310299035e+02 5.0800040111e+02 0.0000000000e+00 0.0000e+00 1.0000e+00
       13  1    1    2    0    0 -1.4655859168e+02 +1.7686906703e+02 +8.8510995511e+02 9.1442972409e+02 0.0000000000e+00 0.0000e+00 -1.0000e+00
<mgrwt>
<rscale>  0 0.48217587E+03</rscale>
<asrwt>0</asrwt>
<pdfrwt beam="1">  1        2 0.21235712E+00 0.48217587E+03</pdfrwt>
<pdfrwt beam="2">  1       -2 0.64782457E-02 0.48217587E+03</pdfrwt>
<totfact> 0.22499965E+03</totfact>
</mgrwt>
<rwgt>
<wgt id='morphing_basis_vector_1'> +2.6192663e-04 </wgt>
<wgt id='morphing_basis_vector_2'> +1.4951560e-04 </wgt>
<wgt id='morphing_basis_vector_3'> +1.8188231e-04 </wgt>
<wgt id='morphing_basis_vector_4'> +5.7380821e-05 </wgt>
<wgt id='morphing_basis_vector_5'> +7.9191260e-05 </wgt>
</rwgt>
</event>
<event>
 4      1 +1.9425900e-05 4.51329600e+02 7.81860800e-03 9.51589400e-02
        2 -1    0    0  501    0 +0.0000000000e+00 +0.0000000000e+00 +1.1970358233e+02 1.1970358233e+02 0.0000000000e+00 0.0000e+00 1.0000e+00
       -2 -1    0    0    0  501 -0.0000000000e+00 -0.0000000000e+00 -4.2542251150e+02 4.2542251150e+02 0.0000000000e+00 0.0000e+00 -1.0000e+00
      -13  1    1    2    0    0 -1.7029546251e+02 -1.3829824208e+02 -2.1674460938e+02 3.0839126772e+02 0.0000000000e+00 0.0000e+00 1.0000e+00
       13  1    1    2    0    0 +1.7029546251e+02 +1.3829824208e+02 -8.8974319790e+01 2.3673482611e+02 0.0000000000e+00 0.0000e+00 -1.0000e+00
<mgrwt>
<rscale>  0 0.45132959E+03</rscale>
<asrwt>0</asrwt>
<pdfrwt beam="1">  1        2 0.18415936E-01 0.45132959E+03</pdfrwt>
<pdfrwt beam="2">  1       -2 0.65449618E-01 0.45132959E+03</pdfrwt>
<totfact> 0.85934407E+02</totfact>
</mgrwt>
<rwgt>
<wgt id='morphing_basis_vector_1'> +2.1692074e-04 </wgt>
<wgt id='morphing_basis_vector_2'> +1.2452715e-04 </wgt>
<wgt id='morphing_basis_vector_3'> +1.4406884e-04 </wgt>
<wgt id='morphing_basis_vector_4'> +4.0624834e-05 </wgt>
<wgt id='morphing_basis_vector_5'> +5.2317435e-05 </wgt>
</rwgt>
</event>
<event>
 4      1 +1.9425900e-05 4.56555700e+02 7.81860800e-03 9.50269900e-02
        2 -1    0    0  501    0 +0.0000000000e+00 +0.0000000000e+00 +1.7636072144e+03 1.7636072144e+03 0.0000000000e+00 0.0000e+00 -1.0000e+00
       -2 -1    0    0    0  501 -0.0000000000e+00 -0.0000000000e+00 -2.9547830291e+01 2.9547830291e+01 0.0000000000e+00 0.0000e+00 1.0000e+00
      -13  1    1    2    0    0 -1.8959404810e+02 +1.1044150416e+02 +6.1963826288e+02 6.5733918622e+02 0.0000000000e+00 0.0000e+00 1.0000e+00
       13  1    1    2    0    0 +1.8959404810e+02 -1.1044150416e+02 +1.1144211212e+03 1.1358158585e+03 0.0000000000e+00 0.0000e+00 -1.0000e+00
<mgrwt>
<rscale>  0 0.45655566E+03</rscale>
<asrwt>0</asrwt>
<pdfrwt beam="1">  1        2 0.27132411E+00 0.45655566E+03</pdfrwt>
<pdfrwt beam="2">  1       -2 0.45458214E-02 0.45655566E+03</pdfrwt>
<totfact> 0.23855446E+03</totfact>
</mgrwt>
<rwgt>
<wgt id='morphing_basis_vector_1'> +2.2371662e-04 </wgt>
<wgt id='morphing_basis_vector_2'> +1.2744754e-04 </wgt>
<wgt id='morphing_basis_vector_3'> +1.5018185e-04 </wgt>
<wgt id='morphing_basis_vector_4'> +4.3204516e-05 </wgt>
<wgt id='morphing_basis_vector_5'> +5.6344502e-05 </wgt>
</rwgt>
</event>
<event>
 4      1 +1.9425900e-05 4.77242600e+02 7.81860800e-03 9.45223000e-02
        2 -1    0    0  501    0 +0.0000000000e+00 +0.0000000000e+00 +4.8823131477e+02 4.8823131477e+02 0.0000000000e+00 0.0000e+00 -1.0000e+00
       -2 -1    0    0    0  501 -0.0000000000e+00 -0.0000000000e+00 -1.1662531213e+02 1.1662531213e+02 0.0000000000e+00 0.0000e+00 1.0000e+00
      -13  1    1    2    0    0 +2.2194589786e+02 -1.0073290278e+01 +2.9613714112e+02 3.7021434211e+02 0.0000000000e+00 0.0000e+00 1.0000e+00
       13  1    1    2    0    0 -2.2194589786e+02 +1.0073290278e+01 +7.5468861517e+01 2.3464228479e+02 0.0000000000e+00 0.0000e+00 -1.0000e+00
<mgrwt>
<rscale>  0 0.47724262E+03</rscale>
<asrwt>0</asrwt>
<pdfrwt beam="1">  1        2 0.75112509E-01 0.47724262E+03</pdfrwt>
<pdfrwt beam="2">  1       -2 0.17942356E-01 0.47724262E+03</pdfrwt>
<totfact> 0.18048837E+03</totfact>
</mgrwt>
<rwgt>
<wgt id='morphing_basis_vector_1'> +2.8015442e-04 </wgt>
<wgt id='morphing_basis_vector_2'> +2.2557239e-04 </wgt>
<wgt id='morphing_basis_vector_3'> +1.6170430e-04 </wgt>
<wgt id='morphing_basis_vector_4'> +4.6558506e-05 </wgt>
<wgt id='morphing_basis_vector_5'> +7.5626582e-05 </wgt>
</rwgt>
</event>
<event>
 4      1 +1.9425900e-05 4.91891800e+02 7.81860800e-03 9.41811300e-02
        2 -1    0    0  501    0 +0.0000000000e+00 +0.0000000000e+00 +2.3007822319e+02 2.3007822319e+02 0.0000000000e+00 0.0000e+00 1.0000e+00
       -2 -1    0    0    0  501 -0.0000000000e+00 -0.0000000000e+00 -2.6290789802e+02 2.6290789802e+02 0.0000000000e+00 0.0000e+00 -1.0000e+00
      -13  1    1    2    0    0 +1.2065146085e+02 -1.7254237147e+02 -1.4382648807e+02 2.5497784929e+02 0.0000000000e+00 0.0000e+00 -1.0000e+00
       13  1    1    2    0    0 -1.2065146085e+02 +1.7254237147e+02 +1.1099681324e+02 2.3800827193e+02 0.0000000000e+00 0.0000e+00 1.0000e+00
<mgrwt>
<rscale>  0 0.49189179E+03</rscale>
<asrwt>0</asrwt>
<pdfrwt beam="1">  1        2 0.35396650E-01 0.49189179E+03</pdfrwt>
<pdfrwt beam="2">  1       -2 0.40447369E-01 0.49189179E+03</pdfrwt>
<totfact> 0.10303384E+03</totfact>
</mgrwt>
<rwgt>
<wgt id='morphing_basis_vector_1'> +2.7614449e-04 </wgt>
<wgt id='morphing_basis_vector_2'> +1.5365270e-04 </wgt>
<wgt id='morphing_basis_vector_3'> +1.9602023e-04 </wgt>
<wgt id='morphing_basis_vector_4'> +6.4229570e-05 </wgt>
<wgt id='morphing_basis_vector_5'> +8.9176210e-05 </wgt>
</rwgt>
</event>
<event>
 4      1 +1.9425900e-05 4.51457300e+02 7.81860800e-03 9.51556900e-02
        2 -1    0    0  501    0 +0.0000000000e+00 +0.0000000000e+00 +1.3739784838e+03 1.3739784838e+03 0.0000000000e+00 0.0000e+00 1.0000e+00
       -2 -1    0    0    0  501 -0.0000000000e+00 -0.0000000000e+00 -3.7084584596e+01 3.7084584596e+01 0.0000000000e+00 0.0000e+00 -1.0000e+00
      -13  1    1    2    0    0 +2.2345614577e+02 -2.2867955076e+01 +5.9870890094e+02 6.3945909996e+02 0.0000000000e+00 0.0000e+00 -1.0000e+00
       13  1    1    2    0    0 -2.2345614577e+02 +2.2867955076e+01 +7.3818499826e+02 7.7160396844e+02 0.0000000000e+00 0.0000e+00 1.0000e+00
<mgrwt>
<rscale>  0 0.45145729E+03</rscale>
<asrwt>0</asrwt>
<pdfrwt beam="1">  1        2 0.21138127E+00 0.45145729E+03</pdfrwt>
<pdfrwt beam="2">  1       -2 0.57053218E-02 0.45145729E+03</pdfrwt>
<totfact> 0.27530141E+03</totfact>
</mgrwt>
<rwgt>
<wgt id='morphing_basis_vector_1'> +2.1907382e-04 </wgt>
<wgt id='morphing_basis_vector_2'> +1.3074734e-04 </wgt>
<wgt id='morphing_basis_vector_3'> +1.4290061e-04 </wgt>
<wgt id='morphing_basis_vector_4'> +4.0318652e-05 </wgt>
<wgt id='morphing_basis_vector_5'> +5.2523427e-05 </wgt>
</rwgt>
</event>
<event>
 4      1 +1.9425900e-05 4.60675500e+02 7.81860800e-03 9.49242700e-02
        2 -1    0    0  501    0 +0.0000000000e+00 +0.0000000000e+00 +8.8560620985e+02 8.8560620985e+02 0.0000000000e+00 0.0000e+00 -1.0000e+00
       -2 -1    0    0    0  501 -0.0000000000e+00 -0.0000000000e+00 -5.9908654918e+01 5.9908654918e+01 0.0000000000e+00 0.0000e+00 1.0000e+00
      -13  1    1    2    0    0 -1.1260920156e+02 -1.2105192708e+02 +8.3680620139e+01 1.8530204401e+02 0.0000000000e+00 0.0000e+00 1.0000e+00
       13  1    1    2    0    0 +1.1260920156e+02 +1.2105192708e+02 +7.4201693479e+02 7.6021282076e+02 0.0000000000e+00 0.0000e+00 -1.0000e+00
<mgrwt>
<rscale>  0 0.46067549E+03</rscale>
<asrwt>0</asrwt>
<pdfrwt beam="1">  1        2 0.13624710E+00 0.46067549E+03</pdfrwt>
<pdfrwt beam="2">  1       -2 0.92167168E-02 0.46067549E+03</pdfrwt>
<totfact> 0.25485318E+03</totfact>
</mgrwt>
<rwgt>
<wgt id='morphing_basis_vector_1'> +2.2729858e-04 </wgt>
<wgt id='morphing_basis_vector_2'> +1.2390306e-04 </wgt>
<wgt id='morphing_basis_vector_3'> +1.5630090e-04 </wgt>
<wgt id='morphing_basis_vector_4'> +4.5775228e-05 </wgt>
<wgt id='morphing_basis_vector_5'> +5.9559905e-05 </wgt>
</rwgt>
</event>
<event>
 4      1 +1.9425900e-05 5.03859900e+02 7.81860800e-03 9.39117500e-02
        2 -1    0    0  501    0 +0.0000000000e+00 +0.0000000000e+00 +2.2408520829e+03 2.2408520829e+03 0.0000000000e+00 0.0000e+00 -1.0000e+00
       -2 -1    0    0    0  501 -0.0000000000e+00 -0.0000000000e+00 -2.8323470335e+01 2.8323470335e+01 0.0000000000e+00 0.0000e+00 1.0000e+00
      -13  1    1    2    0    0 -2.3900338508e+02 -7.5191621289e+01 +9.8776701582e+02 1.0190486129e+03 0.0000000000e+00 0.0000e+00 1.0000e+00
       13  1    1    2    0    0 +2.3900338508e+02 +7.5191621289e+01 +1.2247615967e+03 1.2501269403e+03 0.0000000000e+00 0.0000e+00 -1.0000e+00
<mgrwt>
<rscale>  0 0.50385993E+03</rscale>
<asrwt>0</asrwt>
<pdfrwt beam="1">  1        2 0.34474633E+00 0.50385993E+03</pdfrwt>
<pdfrwt beam="2">  1       -2 0.43574587E-02 0.50385993E+03</pdfrwt>
<totfact> 0.13917146E+03</totfact>
</mgrwt>
<rwgt>
<wgt id='morphing_basis_vector_1'> +3.0235778e-04 </wgt>
<wgt id='morphing_basis_vector_2'> +1.8304161e-04 </wgt>
<wgt id='morphing_basis_vector_3'> +2.1133251e-04 </wgt>
<wgt id='morphing_basis_vector_4'> +7.0399707e-05 </wgt>
<wgt id='morphing_basis_vector_5'> +1.0291769e-04 </wgt>
</rwgt>
</event>
<event>
 4      1 +1.9425900e-05 4.76390800e+02 7.81860800e-03 9.45425400e-02
        2 -1    0    0  501    0 +0.0000000000e+00 +0.0000000000e+00 +9.6098545161e+01 9.6098545161e+01 0.0000000000e+00 0.0000e+00 1.0000e+00
       -2 -1    0    0    0  501 -0.0000000000e+00 -0.0000000000e+00 -5.9040480731e+02 5.9040480731e+02 0.0000000000e+00 0.0000e+00 -1.0000e+00
      -13  1    1    2    0    0 +1.2419969089e+02 -2.0128147181e+02 -2.0646419923e+02 3.1395423182e+02 0.0000000000e+00 0.0000e+00 -1.0000e+00
       13  1    1    2    0    0 -1.2419969089e+02 +2.0128147181e+02 -2.8784206293e+02 3.7254912066e+02 0.0000000000e+00 0.0000e+00 1.0000e+00
<mgrwt>
<rscale>  0 0.47639078E+03</rscale>
<asrwt>0</asrwt>
<pdfrwt beam="1">  1        2 0.14784392E-01 0.47639078E+03</pdfrwt>
<pdfrwt beam="2">  1       -2 0.90831509E-01 0.47639078E+03</pdfrwt>
<totfact> 0.54504284E+02</totfact>
</mgrwt>
<rwgt>
<wgt id='morphing_basis_vector_1'> +2.6276586e-04 </wgt>
<wgt id='morphing_basis_vector_2'> +1.7498923e-04 </wgt>
<wgt id='morphing_basis_vector_3'> +1.6901368e-04 </wgt>
<wgt id='morphing_basis_vector_4'> +5.0941193e-05 </wgt>
<wgt id='morphing_basis_vector_5'> +7.4054108e-05 </wgt>
</rwgt>
</event>
<event>
 4      1 +1.9425900e-05 4.69174800e+02 7.81860800e-03 9.47158700e-02
        2 -1    0    0  501    0 +0.0000000000e+00 +0.0000000000e+00 +3.5039361041e+02 3.5039361041e+02 0.0000000000e+00 0.0000e+00 -1.0000e+00
       -2 -1    0    0    0  501 -0.0000000000e+00 -0.0000000000e+00 -1.5705551943e+02 1.5705551943e+02 0.0000000000e+00 0.0000e+00 1.0000e+00
      -13  1    1    2    0    0 +1.3222572583e+02 +1.6042954926e+02 +2.1420809639e+02 2.9850693695e+02 0.0000000000e+00 0.0000e+00 -1.0000e+00
       13  1    1    2    0    0 -1.3222572583e+02 -1.6042954926e+02 -2.0870005406e+01 2.0894219289e+02 0.0000000000e+00 0.0000e+00 1.0000e+00
<mgrwt>
<rscale>  0 0.46917481E+03</rscale>
<asrwt>0</asrwt>
<pdfrwt beam="1">  1        2 0.53906709E-01 0.46917481E+03</pdfrwt>
<pdfrwt beam="2">  1       -2 0.24162388E-01 0.46917481E+03</pdfrwt>
<totfact> 0.15955694E+03</totfact>
</mgrwt>
<rwgt>
<wgt id='morphing_basis_vector_1'> +2.7592523e-04 </wgt>
<wgt id='morphing_basis_vector_2'> +2.4332370e-04 </wgt>
<wgt id='morphing_basis_vector_3'> +1.4584078e-04 </wgt>
<wgt id='morphing_basis_vector_4'> +4.0743649e-05 </wgt>
<wgt id='morphing_basis_vector_5'> +6.8663287e-05 </wgt>
</rwgt>
</event>
<event>
 4      1 +1.9425900e-05 5.13630100e+02 7.81860800e-03 9.36977300e-02
        2 -1    0    0  501    0 +0.0000000000e+00 +0.0000000000e+00 +3.9490723628e+01 3.9490723628e+01 0.0000000000e+00 0.0000e+00 1.0000e+00
       -2 -1    0    0    0  501 -0.0000000000e+00 -0.0000000000e+00 -1.6701132753e+03 1.6701132753e+03 0.0000000000e+00 0.0000e+00 -1.0000e+00
      -13  1    1    2    0    0 -6.2787519341e+01 -2.1453141061e+02 -3.9444719775e+02 4.5338128605e+02 0.0000000000e+00 0.0000e+00 1.0000e+00
       13  1    1    2    0    0 +6.2787519341e+01 +2.1453141061e+02 -1.2361753539e+03 1.2562227128e+03 0.0000000000e+00 0.0000e+00 -1.0000e+00
<mgrwt>
<rscale>  0 0.51363015E+03</rscale>
<asrwt>0</asrwt>
<pdfrwt beam="1">  1        2 0.60754951E-02 0.51363015E+03</pdfrwt>
<pdfrwt beam="2">  1       -2 0.25694054E+00 0.51363015E+03</pdfrwt>
<totfact> 0.78779426E+01</totfact>
</mgrwt>
<rwgt>
<wgt id='morphing_basis_vector_1'> +3.6611987e-04 </wgt>
<wgt id='morphing_basis_vector_2'> +3.3630156e-04 </wgt>
<wgt id='morphing_basis_vector_3'> +2.1086750e-04 </wgt>
<wgt id='morphing_basis_vector_4'> +5.6741650e-05 </wgt>
<wgt id='morphing_basis_vector_5'> +1.1654332e-04 </wgt>
</rwgt>
</event>
<event>
 4      1 +1.9425900e-05 4.55260400e+02 7.81860800e-03 9.50595200e-02
        2 -1    0    0  501    0 +0.0000000000e+00 +0.0000000000e+00 +4.3230723328e+02 4.3230723328e+02 0.0000000000e+00 0.0000e+00 1.0000e+00
       -2 -1    0    0    0  501 -0.0000000000e+00 -0.0000000000e+00 -1.1985804977e+02 1.1985804977e+02 0.0000000000e+00 0.0000e+00 -1.0000e+00
      -13  1    1    2    0    0 -2.0860014769e-01 -1.2866761026e+02 +3.8397074184e+02 4.0495546425e+02 0.0000000000e+00 0.0000e+00 1.0000e+00
       13  1    1    2    0    0 +2.0860014769e-01 +1.2866761026e+02 -7.1521558323e+01 1.4720981879e+02 0.0000000000e+00 0.0000e+00 -1.0000e+00
<mgrwt>
<rscale>  0 0.45526037E+03</rscale>
<asrwt>0</asrwt>
<pdfrwt beam="1">  1        2 0.66508804E-01 0.45526037E+03</pdfrwt>
<pdfrwt beam="2">  1       -2 0.18439700E-01 0.45526037E+03</pdfrwt>
<totfact> 0.19770486E+03</totfact>
</mgrwt>
<rwgt>
<wgt id='morphing_basis_vector_1'> +2.9123705e-04 </wgt>
<wgt id='morphing_basis_vector_2'> +3.4083000e-04 </wgt>
<wgt id='morphing_basis_vector_3'> +1.0428033e-04 </wgt>
<wgt id='morphing_basis_vector_4'> +2.8543995e-05 </wgt>
<wgt id='morphing_basis_vector_5'> +5.9081189e-05 </wgt>
</rwgt>
</event>
<event>
 4      1 +1.9425900e-05 4.31138500e+02 7.81860800e-03 9.56869900e-02
        2 -1    0    0  501    0 +0.0000000000e+00 +0.0000000000e+00 +7.9153347161e+02 7.9153347161e+02 0.0000000000e+00 0.0000e+00 -1.0000e+00
       -2 -1    0    0    0  501 -0.0000000000e+00 -0.0000000000e+00 -5.8708948935e+01 5.8708948935e+01 0.0000000000e+00 0.0000e+00 1.0000e+00
      -13  1    1    2    0    0 +1.5288935815e+02 -1.1323446006e+02 +1.6653080927e+02 2.5284325029e+02 0.0000000000e+00 0.0000e+00 1.0000e+00
       13  1    1    2    0    0 -1.5288935815e+02 +1.1323446006e+02 +5.6629371340e+02 5.9739917025e+02 0.0000000000e+00 0.0000e+00 -1.0000e+00
<mgrwt>
<rscale>  0 0.43113848E+03</rscale>
<asrwt>0</asrwt>
<pdfrwt beam="1">  1        2 0.12177437E+00 0.43113848E+03</pdfrwt>
<pdfrwt beam="2">  1       -2 0.90321465E-02 0.43113848E+03</pdfrwt>
<totfact> 0.30344962E+03</totfact>
</mgrwt>
<rwgt>
<wgt id='morphing_basis_vector_1'> +1.8913249e-04 </wgt>
<wgt id='morphing_basis_vector_2'> +1.0403164e-04 </wgt>
<wgt id='morphing_basis_vector_3'> +1.2463673e-04 </wgt>
<wgt id='morphing_basis_vector_4'> +3.2253233e-05 </wgt>
<wgt id='morphing_basis_vector_5'> +3.8353329e-05 </wgt>
</rwgt>
</event>
<event>
 4      1 +1.9425900e-05 4.34819200e+02 7.81860800e-03 9.55884900e-02
        2 -1    0    0  501    0 +0.0000000000e+00 +0.0000000000e+00 +8.8352372749e+01 8.8352372749e+01 0.0000000000e+00 0.0000e+00 1.0000e+00
       -2 -1    0    0    0  501 -0.0000000000e+00 -0.0000000000e+00 -5.3498203001e+02 5.3498203001e+02 0.0000000000e+00 0.0000e+00 -1.0000e+00
      -13  1    1    2    0    0 +1.7377837354e+02 +4.5210615623e+01 -4.7601255215e+01 1.8576544989e+02 0.0000000000e+00 0.0000e+00 1.0000e+00
       13  1    1    2    0    0 -1.7377837354e+02 -4.5210615623e+01 -3.9902840205e+02 4.3756895287e+02 0.0000000000e+00 0.0000e+00 -1.0000e+00
<mgrwt>
<rscale>  0 0.43481919E+03</rscale>
<asrwt>0</asrwt>
<pdfrwt beam="1">  1        2 0.13592673E-01 0.43481919E+03</pdfrwt>
<pdfrwt beam="2">  1       -2 0.82304928E-01 0.43481919E+03</pdfrwt>
<totfact> 0.75757257E+02</totfact>
</mgrwt>
<rwgt>
<wgt id='morphing_basis_vector_1'> +2.3122404e-04 </wgt>
<wgt id='morphing_basis_vector_2'> +2.2243843e-04 </wgt>
<wgt id='morphing_basis_vector_3'> +9.9959669e-05 </wgt>
<wgt id='morphing_basis_vector_4'> +2.9719046e-05 </wgt>
<wgt id='morphing_basis_vector_5'> +4.2909625e-05 </wgt>
</rwgt>
</event>
<event>
 4      1 +1.9425900e-05 4.64480800e+02 7.81860800e-03 9.48303900e-02
        2 -1    0    0  501    0 +0.0000000000e+00 +0.0000000000e+00 +1.3623142209e+02 1.3623142209e+02 0.0000000000e+00 0.0000e+00 1.0000e+00
       -2 -1    0    0    0  501 -0.0000000000e+00 -0.0000000000e+00 -3.9591154000e+02 3.9591154000e+02 0.0000000000e+00 0.0000e+00 -1.0000e+00
      -13  1    1    2    0    0 +1.7708653447e+02 +1.1805984206e+02 -2.3631877489e+02 3.1803196437e+02 0.0000000000e+00 0.0000e+00 1.0000e+00
       13  1    1    2    0    0 -1.7708653447e+02 -1.1805984206e+02 -2.3361343024e+01 2.1411099772e+02 0.0000000000e+00 0.0000e+00 -1.0000e+00
<mgrwt>
<rscale>  0 0.46448075E+03</rscale>
<asrwt>0</asrwt>
<pdfrwt beam="1">  1        2 0.20958680E-01 0.46448075E+03</pdfrwt>
<pdfrwt beam="2">  1       -2 0.60909469E-01 0.46448075E+03</pdfrwt>
<totfact> 0.85380312E+02</totfact>
</mgrwt>
<rwgt>
<wgt id='morphing_basis_vector_1'> +2.3399223e-04 </wgt>
<wgt id='morphing_basis_vector_2'> +1.3082675e-04 </wgt>
<wgt id='morphing_basis_vector_3'> +1.6004192e-04 </wgt>
<wgt id='morphing_basis_vector_4'> +4.7494225e-05 </wgt>
<wgt id='morphing_basis_vector_5'> +6.2816164e-05 </wgt>
</rwgt>
</event>
<event>
 4      1 +1.9425900e-05 4.89341200e+02 7.81860800e-03 9.42396100e-02
        2 -1    0    0  501    0 +0.0000000000e+00 +0.0000000000e+00 +9.5452592781e+02 9.5452592781e+02 0.0000000000e+00 0.0000e+00 -1.0000e+00
       -2 -1    0    0    0  501 -0.0000000000e+00 -0.0000000000e+00 -6.2715638040e+01 6.2715638040e+01 0.0000000000e+00 0.0000e+00 1.0000e+00
      -13  1    1    2    0    0 +2.2124364388e+02 -7.0249215413e+01 +6.0665956387e+02 6.4955333011e+02 0.0000000000e+00 0.0000e+00 1.0000e+00
       13  1    1    2    0    0 -2.2124364388e+02 +7.0249215413e+01 +2.8515072591e+02 3.6768823575e+02 0.0000000000e+00 0.0000e+00 -1.0000e+00
<mgrwt>
<rscale>  0 0.48934120E+03</rscale>
<asrwt>0</asrwt>
<pdfrwt beam="1">  1        2 0.14685013E+00 0.48934120E+03</pdfrwt>
<pdfrwt beam="2">  1       -2 0.96485604E-02 0.48934120E+03</pdfrwt>
<totfact> 0.21468670E+03</totfact>
</mgrwt>
<rwgt>
<wgt id='morphing_basis_vector_1'> +2.9733951e-04 </wgt>
<wgt id='morphing_basis_vector_2'> +2.3009782e-04 </wgt>
<wgt id='morphing_basis_vector_3'> +1.8061818e-04 </wgt>
<wgt id='morphing_basis_vector_4'> +5.3506921e-05 </wgt>
<wgt id='morphing_basis_vector_5'> +8.7570104e-05 </wgt>
</rwgt>
</event>
<event>
 4      1 +1.9425900e-05 4.81221200e+02 7.81860800e-03 9.44283500e-02
        2 -1    0    0  501    0 +0.0000000000e+00 +0.0000000000e+00 +1.2741748702e+03 1.2741748702e+03 0.0000000000e+00 0.0000e+00 -1.0000e+00
       -2 -1    0    0    0  501 -0.0000000000e+00 -0.0000000000e+00 -4.5436047972e+01 4.5436047972e+01 0.0000000000e+00 0.0000e+00 1.0000e+00
      -13  1    1    2    0    0 +5.5211962826e+01 +2.3397097603e+02 +6.4215819556e+02 6.8568063017e+02 0.0000000000e+00 0.0000e+00 1.0000e+00
       13  1    1    2    0    0 -5.5211962826e+01 -2.3397097603e+02 +5.8658062668e+02 6.3393028802e+02 0.0000000000e+00 0.0000e+00 -1.0000e+00
<mgrwt>
<rscale>  0 0.48122124E+03</rscale>
<asrwt>0</asrwt>
<pdfrwt beam="1">  1        2 0.19602688E+00 0.48122124E+03</pdfrwt>
<pdfrwt beam="2">  1       -2 0.69901622E-02 0.48122124E+03</pdfrwt>
<totfact> 0.22939720E+03</totfact>
</mgrwt>
<rwgt>
<wgt id='morphing_basis_vector_1'> +2.6765342e-04 </wgt>
<wgt id='morphing_basis_vector_2'> +1.7109693e-04 </wgt>
<wgt id='morphing_basis_vector_3'> +1.7694350e-04 </wgt>
<wgt id='morphing_basis_vector_4'> +5.4481785e-05 </wgt>
<wgt id='morphing_basis_vector_5'> +7.8582229e-05 </wgt>
</rwgt>
</event>
<event>
 4      1 +1.9425900e-05 4.31045100e+02 7.81860800e-03 9.56895100e-02
        2 -1    0    0  501    0 +0.0000000000e+00 +0.0000000000e+00 +4.0196728278e+02 4.0196728278e+02 0.0000000000e+00 0.0000e+00 -1.0000e+00
       -2 -1    0    0    0  501 -0.0000000000e+00 -0.0000000000e+00 -1.1555661902e+02 1.1555661902e+02 0.0000000000e+00 0.0000e+00 1.0000e+00
      -13  1    1    2    0    0 +1.9296562207e+02 +9.5781196872e+01 +1.5081877410e+02 2.6297542014e+02 0.0000000000e+00 0.0000e+00 1.0000e+00
       13  1    1    2    0    0 -1.9296562207e+02 -9.5781196872e+01 +1.3559188966e+02 2.5454848166e+02 0.0000000000e+00 0.0000e+00 -1.0000e+00
<mgrwt>
<rscale>  0 0.43104515E+03</rscale>
<asrwt>0</asrwt>
<pdfrwt beam="1">  1        2 0.61841120E-01 0.43104515E+03</pdfrwt>
<pdfrwt beam="2">  1       -2 0.17777942E-01 0.43104515E+03</pdfrwt>
<totfact> 0.22739967E+03</totfact>
</mgrwt>
<rwgt>
<wgt id='morphing_basis_vector_1'> +1.9486229e-04 </wgt>
<wgt id='morphing_basis_vector_2'> +1.2196999e-04 </wgt>
<wgt id='morphing_basis_vector_3'> +1.2003538e-04 </wgt>
<wgt id='morphing_basis_vector_4'> +3.1701099e-05 </wgt>
<wgt id='morphing_basis_vector_5'> +3.8647795e-05 </wgt>
</rwgt>
</event>
<event>
 4      1 +1.9425900e-05 4.39542800e+02 7.81860800e-03 9.54635700e-02
        2 -1    0    0  501    0 +0.0000000000e+00 +0.0000000000e+00 +3.5197147924e+02 3.5197147924e+02 0.0000000000e+00 0.0000e+00 1.0000e+00
       -2 -1    0    0    0  501 -0.0000000000e+00 -0.0000000000e+00 -1.3722548772e+02 1.3722548772e+02 0.0000000000e+00 0.0000e+00 -1.0000e+00
      -13  1    1    2    0    0 +1.9833165486e+02 -7.8875281236e+01 +1.6566003434e+02 2.7018512595e+02 0.0000000000e+00 0.0000e+00 -1.0000e+00
       13  1    1    2    0    0 -1.9833165486e+02 +7.8875281236e+01 +4.9085957186e+01 2.1901184101e+02 0.0000000000e+00 0.0000e+00 1.0000e+00
<mgrwt>
<rscale>  0 0.43954275E+03</rscale>
<asrwt>0</asrwt>
<pdfrwt beam="1">  1        2 0.54149458E-01 0.43954275E+03</pdfrwt>
<pdfrwt beam="2">  1       -2 0.21111614E-01 0.43954275E+03</pdfrwt>
<totfact> 0.19883201E+03</totfact>
</mgrwt>
<rwgt>
<wgt id='morphing_basis_vector_1'> +2.1337672e-04 </wgt>
<wgt id='morphing_basis_vector_2'> +1.5252510e-04 </wgt>
<wgt id='morphing_basis_vector_3'> +1.2288642e-04 </wgt>
<wgt id='morphing_basis_vector_4'> +3.3894465e-05 </wgt>
<wgt id='morphing_basis_vector_5'> +4.4592424e-05 </wgt>
</rwgt>
</event>
<event>
 4      1 +1.9425900e-05 4.85072900e+02 7.81860800e-03 9.43383300e-02
        2 -1    0    0  501    0 +0.0000000000e+00 +0.0000000000e+00 +1.0324551120e+03 1.0324551120e+03 0.0000000000e+00 0.0000e+00 1.0000e+00
       -2 -1    0    0    0  501 -0.0000000000e+00 -0.0000000000e+00 -5.6974796136e+01 5.6974796136e+01 0.0000000000e+00 0.0000e+00 -1.0000e+00
      -13  1    1    2    0    0 -1.9984236822e+02 +3.9090727275e+01 +1.9183471794e+02 2.7975992584e+02 0.0000000000e+00 0.0000e+00 -1.0000e+00
       13  1    1    2    0    0 +1.9984236822e+02 -3.9090727275e+01 +7.8364559795e+02 8.0966998232e+02 0.0000000000e+00 0.0000e+00 1.0000e+00
<mgrwt>
<rscale>  0 0.48507286E+03</rscale>
<asrwt>0</asrwt>
<pdfrwt beam="1">  1        2 0.15883923E+00 0.48507286E+03</pdfrwt>
<pdfrwt beam="2">  1       -2 0.87653540E-02 0.48507286E+03</pdfrwt>
<totfact> 0.22333169E+03</totfact>
</mgrwt>
<rwgt>
<wgt id='morphing_basis_vector_1'> +2.6479302e-04 </wgt>
<wgt id='morphing_basis_vector_2'> +1.4669260e-04 </wgt>
<wgt id='morphing_basis_vector_3'> +1.8666061e-04 </wgt>
<wgt id='morphing_basis_vector_4'> +5.9789862e-05 </wgt>
<wgt id='morphing_basis_vector_5'> +8.2025375e-05 </wgt>
</rwgt>
</event>
<event>
 4      1 +1.9425900e-05 4.82781100e+02 7.81860800e-03 9.43917800e-02
        2 -1    0    0  501    0 +0.0000000000e+00 +0.0000000000e+00 +2.2667350728e+02 2.2667350728e+02 0.0000000000e+00 0.0000e+00 -1.0000e+00
       -2 -1    0    0    0  501 -0.0000000000e+00 -0.0000000000e+00 -2.5706314324e+02 2.5706314324e+02 0.0000000000e+00 0.0000e+00 1.0000e+00
      -13  1    1    2    0    0 +1.9976482285e+02 +1.0229185172e+02 -1.0425153295e+02 2.4746310735e+02 0.0000000000e+00 0.0000e+00 1.0000e+00
       13  1    1    2    0    0 -1.9976482285e+02 -1.0229185172e+02 +7.3861896986e+01 2.3627354317e+02 0.0000000000e+00 0.0000e+00 -1.0000e+00
<mgrwt>
<rscale>  0 0.48278113E+03</rscale>
<asrwt>0</asrwt>
<pdfrwt beam="1">  1        2 0.34872847E-01 0.48278113E+03</pdfrwt>
<pdfrwt beam="2">  1       -2 0.39548176E-01 0.48278113E+03</pdfrwt>
<totfact> 0.10922234E+03</totfact>
</mgrwt>
<rwgt>
<wgt id='morphing_basis_vector_1'> +2.6225542e-04 </wgt>
<wgt id='morphing_basis_vector_2'> +1.4810237e-04 </wgt>
<wgt id='morphing_basis_vector_3'> +1.8301091e-04 </wgt>
<wgt id='morphing_basis_vector_4'> +5.7962980e-05 </wgt>
<wgt id='morphing_basis_vector_5'> +7.9765174e-05 </wgt>
</rwgt>
</event>
<event>
 4      1 +1.9425900e-05 5.16311100e+02 7.81860800e-03 9.36398900e-02
        2 -1    0    0  501    0 +0.0000000000e+00 +0.0000000000e+00 +1.4718780489e+02 1.4718780489e+02 0.0000000000e+00 0.0000e+00 -1.0000e+00
       -2 -1    0    0    0  501 -0.0000000000e+00 -0.0000000000e+00 -4.5278409687e+02 4.5278409687e+02 0.0000000000e+00 0.0000e+00 1.0000e+00
      -13  1    1    2    0    0 +2.0309256176e+01 -2.5549387890e+02 -1.1689314132e+02 2.8169770061e+02 0.0000000000e+00 0.0000e+00 1.0000e+00
       13  1    1    2    0    0 -2.0309256176e+01 +2.5549387890e+02 -1.8870315067e+02 3.1827420115e+02 0.0000000000e+00 0.0000e+00 -1.0000e+00
<mgrwt>
<rscale>  0 0.51631114E+03</rscale>
<asrwt>0</asrwt>
<pdfrwt beam="1">  1        2 0.22644278E-01 0.51631114E+03</pdfrwt>
<pdfrwt beam="2">  1       -2 0.69659092E-01 0.51631114E+03</pdfrwt>
<totfact> 0.58946831E+02</totfact>
</mgrwt>
<rwgt>
<wgt id='morphing_basis_vector_1'> +3.3465540e-04 </wgt>
<wgt id='morphing_basis_vector_2'> +2.2593069e-04 </wgt>
<wgt id='morphing_basis_vector_3'> +2.2806211e-04 </wgt>
<wgt id='morphing_basis_vector_4'> +7.5390524e-05 </wgt>
<wgt id='morphing_basis_vector_5'> +1.1868783e-04 </wgt>
</rwgt>
</event>
<event>
 4      1 +1.9425900e-05 4.79632000e+02 7.81860800e-03 9.44657600e-02
        2 -1    0    0  501    0 +0.0000000000e+00 +0.0000000000e+00 +2.7672651225e+02 2.7672651225e+02 0.0000000000e+00 0.0000e+00 -1.0000e+00
       -2 -1    0    0    0  501 -0.0000000000e+00 -0.0000000000e+00 -2.0782869667e+02 2.0782869667e+02 0.0000000000e+00 0.0000e+00 1.0000e+00
      -13  1    1    2    0    0 +7.9268012110e+01 -1.8978442568e+02 -9.0146513595e+01 2.2456166166e+02 0.0000000000e+00 0.0000e+00 1.0000e+00
       13  1    1    2    0    0 -7.9268012110e+01 +1.8978442568e+02 +1.5904432918e+02 2.5999354726e+02 0.0000000000e+00 0.0000e+00 -1.0000e+00
<mgrwt>
<rscale>  0 0.47963199E+03</rscale>
<asrwt>0</asrwt>
<pdfrwt beam="1">  1        2 0.42573310E-01 0.47963199E+03</pdfrwt>
<pdfrwt beam="2">  1       -2 0.31973646E-01 0.47963199E+03</pdfrwt>
<totfact> 0.12793473E+03</totfact>
</mgrwt>
<rwgt>
<wgt id='morphing_basis_vector_1'> +2.5625771e-04 </wgt>
<wgt id='morphing_basis_vector_2'> +1.4208041e-04 </wgt>
<wgt id='morphing_basis_vector_3'> +1.7934907e-04 </wgt>
<wgt id='morphing_basis_vector_4'> +5.6340355e-05 </wgt>
<wgt id='morphing_basis_vector_5'> +7.6612363e-05 </wgt>
</rwgt>
</event>
<event>
 4      1 +1.9425900e-05 4.92633900e+02 7.81860800e-03 9.41641900e-02
        2 -1    0    0  501    0 +0.0000000000e+00 +0.0000000000e+00 +1.1366429197e+03 1.1366429197e+03 0.0000000000e+00 0.0000e+00 1.0000e+00
       -2 -1    0    0    0  501 -0.0000000000e+00 -0.0000000000e+00 -5.3378265745e+01 5.3378265745e+01 0.0000000000e+00 0.0000e+00 -1.0000e+00
      -13  1    1    2    0    0 -1.1686211575e+02 -1.2108703539e+02 +1.0713302066e+02 1.9949012094e+02 0.0000000000e+00 0.0000e+00 -1.0000e+00
       13  1    1    2    0    0 +1.1686211575e+02 +1.2108703539e+02 +9.7613163331e+02 9.9053106452e+02 0.0000000000e+00 0.0000e+00 1.0000e+00
<mgrwt>
<rscale>  0 0.49263385E+03</rscale>
<asrwt>0</asrwt>
<pdfrwt beam="1">  1        2 0.17486812E+00 0.49263385E+03</pdfrwt>
<pdfrwt beam="2">  1       -2 0.82120418E-02 0.49263385E+03</pdfrwt>
<totfact> 0.21442898E+03</totfact>
</mgrwt>
<rwgt>
<wgt id='morphing_basis_vector_1'> +2.7662639e-04 </wgt>
<wgt id='morphing_basis_vector_2'> +1.5201408e-04 </wgt>
<wgt id='morphing_basis_vector_3'> +1.9741169e-04 </wgt>
<wgt id='morphing_basis_vector_4'> +6.5013692e-05 </wgt>
<wgt id='morphing_basis_vector_5'> +8.9945370e-05 </wgt>
</rwgt>
</event>
<event>
 4      1 +1.9425900e-05 5.01229300e+02 7.81860800e-03 9.39702700e-02
        2 -1    0    0  501    0 +0.0000000000e+00 +0.0000000000e+00 +6.3309151876e+02 6.3309151876e+02 0.0000000000e+00 0.0000e+00 1.0000e+00
       -2 -1    0    0    0  501 -0.0000000000e+00 -0.0000000000e+00 -9.9207931541e+01 9.9207931541e+01 0.0000000000e+00 0.0000e+00 -1.0000e+00
      -13  1    1    2    0    0 -1.4943912137e+02 +1.9392572672e+02 +1.8869315589e+02 3.0910248391e+02 0.0000000000e+00 0.0000e+00 -1.0000e+00
       13  1    1    2    0    0 +1.4943912137e+02 -1.9392572672e+02 +3.4519043133e+02 4.2319696639e+02 0.0000000000e+00 0.0000e+00 1.0000e+00
<mgrwt>
<rscale>  0 0.50122929E+03</rscale>
<asrwt>0</asrwt>
<pdfrwt beam="1">  1        2 0.97398693E-01 0.50122929E+03</pdfrwt>
<pdfrwt beam="2">  1       -2 0.15262759E-01 0.50122929E+03</pdfrwt>
<totfact> 0.17412566E+03</totfact>
</mgrwt>
<rwgt>
<wgt id='morphing_basis_vector_1'> +2.9535343e-04 </wgt>
<wgt id='morphing_basis_vector_2'> +1.7298534e-04 </wgt>
<wgt id='morphing_basis_vector_3'> +2.0826580e-04 </wgt>
<wgt id='morphing_basis_vector_4'> +6.9482376e-05 </wgt>
<wgt id='morphing_basis_vector_5'> +9.9745736e-05 </wgt>
</rwgt>
</event>
<event>
 4      1 +1.9425900e-05 4.58424000e+02 7.81860800e-03 9.49802700e-02
        2 -1    0    0  501    0 +0.0000000000e+00 +0.0000000000e+00 +5.4705284162e+02 5.4705284162e+02 0.0000000000e+00 0.0000e+00 1.0000e+00
       -2 -1    0    0    0  501 -0.0000000000e+00 -0.0000000000e+00 -9.6038496773e+01 9.6038496773e+01 0.0000000000e+00 0.0000e+00 -1.0000e+00
      -13  1    1    2    0    0 +1.2231588832e+02 +3.2434962606e+01 -4.2594819168e+01 1.3351974368e+02 0.0000000000e+00 0.0000e+00 -1.0000e+00
       13  1    1    2    0    0 -1.2231588832e+02 -3.2434962606e+01 +4.9360916402e+02 5.0957159471e+02 0.0000000000e+00 0.0000e+00 1.0000e+00
<mgrwt>
<rscale>  0 0.45842396E+03</rscale>
<asrwt>0</asrwt>
<pdfrwt beam="1">  1        2 0.84161974E-01 0.45842396E+03</pdfrwt>
<pdfrwt beam="2">  1       -2 0.14775154E-01 0.45842396E+03</pdfrwt>
<totfact> 0.21708162E+03</totfact>
</mgrwt>
<rwgt>
<wgt id='morphing_basis_vector_1'> +2.2392932e-04 </wgt>
<wgt id='morphing_basis_vector_2'> +1.2151130e-04 </wgt>
<wgt id='morphing_basis_vector_3'> +1.5382456e-04 </wgt>
<wgt id='morphing_basis_vector_4'> +4.4652982e-05 </wgt>
<wgt id='morphing_basis_vector_5'> +5.7711970e-05 </wgt>
</rwgt>
</event>
<event>
 4      1 +1.9425900e-05 4.98256000e+02 7.81860800e-03 9.40368700e-02
        2 -1    0    0  501    0 +0.0000000000e+00 +0.0000000000e+00 +4.9095464545e+02 4.9095464545e+02 0.0000000000e+00 0.0000e+00 -1.0000e+00
       -2 -1    0    0    0  501 -0.0000000000e+00 -0.0000000000e+00 -1.2641648780e+02 1.2641648780e+02 0.0000000000e+00 0.0000e+00 1.0000e+00
      -13  1    1    2    0    0 +4.7444185818e+00 +2.4642018495e+02 +2.2727534107e+02 3.3526034319e+02 0.0000000000e+00 0.0000e+00 1.0000e+00
       13  1    1    2    0    0 -4.7444185818e+00 -2.4642018495e+02 +1.3726281658e+02 2.8211079006e+02 0.0000000000e+00 0.0000e+00 -1.0000e+00
<mgrwt>
<rscale>  0 0.49825601E+03</rscale>
<asrwt>0</asrwt>
<pdfrwt beam="1">  1        2 0.75531483E-01 0.49825601E+03</pdfrwt>
<pdfrwt beam="2">  1       -2 0.19448691E-01 0.49825601E+03</pdfrwt>
<totfact> 0.15717513E+03</totfact>
</mgrwt>
<rwgt>
<wgt id='morphing_basis_vector_1'> +3.0174144e-04 </wgt>
<wgt id='morphing_basis_vector_2'> +2.0584499e-04 </wgt>
<wgt id='morphing_basis_vector_3'> +1.9895276e-04 </wgt>
<wgt id='morphing_basis_vector_4'> +6.2845274e-05 </wgt>
<wgt id='morphing_basis_vector_5'> +9.6811406e-05 </wgt>
</rwgt>
</event>
<event>
 4      1 +1.9425900e-05 5.13273200e+02 7.81860800e-03 9.37054600e-02
        2 -1    0    0  501    0 +0.0000000000e+00 +0.0000000000e+00 +4.6878311919e+02 4.6878311919e+02 0.0000000000e+00 0.0000e+00 -1.0000e+00
       -2 -1    0    0    0  501 -0.0000000000e+00 -0.0000000000e+00 -1.4049640775e+02 1.4049640775e+02 0.0000000000e+00 0.0000e+00 1.0000e+00
      -13  1    1    2    0    0 +1.0812018026e+02 +4.0024746337e+00 -1.1210054297e+02 1.5579642139e+02 0.0000000000e+00 0.0000e+00 1.0000e+00
       13  1    1    2    0    0 -1.0812018026e+02 -4.0024746337e+00 +4.4038725441e+02 4.5348310556e+02 0.0000000000e+00 0.0000e+00 -1.0000e+00
<mgrwt>
<rscale>  0 0.51327320E+03</rscale>
<asrwt>0</asrwt>
<pdfrwt beam="1">  1        2 0.72120479E-01 0.51327320E+03</pdfrwt>
<pdfrwt beam="2">  1       -2 0.21614832E-01 0.51327320E+03</pdfrwt>
<totfact> 0.13898145E+03</totfact>
</mgrwt>
<rwgt>
<wgt id='morphing_basis_vector_1'> +3.1281465e-04 </wgt>
<wgt id='morphing_basis_vector_2'> +1.7242835e-04 </wgt>
<wgt id='morphing_basis_vector_3'> +2.2857240e-04 </wgt>
<wgt id='morphing_basis_vector_4'> +8.0463830e-05 </wgt>
<wgt id='morphing_basis_vector_5'> +1.1421955e-04 </wgt>
</rwgt>
</event>
<event>
 4      1 +1.9425900e-05 4.38820100e+02 7.81860800e-03 9.54825700e-02
        2 -1    0    0  501    0 +0.0000000000e+00 +0.0000000000e+00 +6.9606765479e+01 6.9606765479e+01 0.0000000000e+00 0.0000e+00 1.0000e+00
       -2 -1    0    0    0  501 -0.0000000000e+00 -0.0000000000e+00 -6.9161064731e+02 6.9161064731e+02 0.0000000000e+00 0.0000e+00 -1.0000e+00
      -13  1    1    2    0    0 +5.0148587046e+01 -1.2383151976e+02 -6.1291621811e+02 6.2730807144e+02 0.0000000000e+00 0.0000e+00 -1.0000e+00
       13  1    1    2    0    0 -5.0148587046e+01 +1.2383151976e+02 -9.0876637203e+00 1.3390934135e+02 0.0000000000e+00 0.0000e+00 1.0000e+00
<mgrwt>
<rscale>  0 0.43882015E+03</rscale>
<asrwt>0</asrwt>
<pdfrwt beam="1">  1        2 0.10708733E-01 0.43882015E+03</pdfrwt>
<pdfrwt beam="2">  1       -2 0.10640164E+00 0.43882015E+03</pdfrwt>
<totfact> 0.55943821E+02</totfact>
</mgrwt>
<rwgt>
<wgt id='morphing_basis_vector_1'> +1.9786621e-04 </wgt>
<wgt id='morphing_basis_vector_2'> +1.0697219e-04 </wgt>
<wgt id='morphing_basis_vector_3'> +1.3275021e-04 </wgt>
<wgt id='morphing_basis_vector_4'> +3.5466167e-05 </wgt>
<wgt id='morphing_basis_vector_5'> +4.3255498e-05 </wgt>
</rwgt>
</event>
<event>
 4      1 +1.9425900e-05 4.66675200e+02 7.81860800e-03 9.47766800e-02
        2 -1    0    0  501    0 +0.0000000000e+00 +0.0000000000e+00 +7.3670238384e+02 7.3670238384e+02 0.0000000000e+00 0.0000e+00 -1.0000e+00
       -2 -1    0    0    0  501 -0.0000000000e+00 -0.0000000000e+00 -7.3905615173e+01 7.3905615173e+01 0.0000000000e+00 0.0000e+00 1.0000e+00
      -13  1    1    2    0    0 -1.6291912728e+02 +3.1127376371e+01 +4.6326940840e+01 1.7221423008e+02 0.0000000000e+00 0.0000e+00 1.0000e+00
       13  1    1    2    0    0 +1.6291912728e+02 -3.1127376371e+01 +6.1646982783e+02 6.3839376894e+02 0.0000000000e+00 0.0000e+00 -1.0000e+00
<mgrwt>
<rscale>  0 0.46667523E+03</rscale>
<asrwt>0</asrwt>
<pdfrwt beam="1">  1        2 0.11333882E+00 0.46667523E+03</pdfrwt>
<pdfrwt beam="2">  1       -2 0.11370095E-01 0.46667523E+03</pdfrwt>
<totfact> 0.23178934E+03</totfact>
</mgrwt>
<rwgt>
<wgt id='morphing_basis_vector_1'> +2.3594421e-04 </wgt>
<wgt id='morphing_basis_vector_2'> +1.2878745e-04 </wgt>
<wgt id='morphing_basis_vector_3'> +1.6340880e-04 </wgt>
<wgt id='morphing_basis_vector_4'> +4.8996064e-05 </wgt>
<wgt id='morphing_basis_vector_5'> +6.4643208e-05 </wgt>
</rwgt>
</event>
<event>
 4      1 +1.9425900e-05 5.09175400e+02 7.81860800e-03 9.37946700e-02
        2 -1    0    0  501    0 +0.0000000000e+00 +0.0000000000e+00 +3.8255935494e+02 3.8255935494e+02 0.0000000000e+00 0.0000e+00 -1.0000e+00
       -2 -1    0    0    0  501 -0.0000000000e+00 -0.0000000000e+00 -1.6942444536e+02 1.6942444536e+02 0.0000000000e+00 0.0000e+00 1.0000e+00
      -13  1    1    2    0    0 -2.1010747449e+01 -1.0253105101e+02 -1.4502374285e+02 1.7884617390e+02 0.0000000000e+00 0.0000e+00 1.0000e+00
       13  1    1    2    0    0 +2.1010747449e+01 +1.0253105101e+02 +3.5815865243e+02 3.7313762640e+02 0.0000000000e+00 0.0000e+00 -1.0000e+00
<mgrwt>
<rscale>  0 0.50917544E+03</rscale>
<asrwt>0</asrwt>
<pdfrwt beam="1">  1        2 0.58855285E-01 0.50917544E+03</pdfrwt>
<pdfrwt beam="2">  1       -2 0.26065299E-01 0.50917544E+03</pdfrwt>
<totfact> 0.12720189E+03</totfact>
</mgrwt>
<rwgt>
<wgt id='morphing_basis_vector_1'> +3.0528324e-04 </wgt>
<wgt id='morphing_basis_vector_2'> +1.6803907e-04 </wgt>
<wgt id='morphing_basis_vector_3'> +2.2210375e-04 </wgt>
<wgt id='morphing_basis_vector_4'> +7.7217089e-05 </wgt>
<wgt id='morphing_basis_vector_5'> +1.0908550e-04 </wgt>
</rwgt>
</event>
<event>
 4      1 +1.9425900e-05 5.02954800e+02 7.81860800e-03 9.39318400e-02
        2 -1    0    0  501    0 +0.0000000000e+00 +0.0000000000e+00 +1.8017746272e+02 1.8017746272e+02 0.0000000000e+00 0.0000e+00 -1.0000e+00
       -2 -1    0    0    0  501 -0.0000000000e+00 -0.0000000000e+00 -3.5099222414e+02 3.5099222414e+02 0.0000000000e+00 0.0000e+00 1.0000e+00
      -13  1    1    2    0    0 -6.1023850825e+01 +2.6597819219e+01 -3.4151834711e+02 3.4794559312e+02 0.0000000000e+00 0.0000e+00 1.0000e+00
       13  1    1    2    0    0 +6.1023850825e+01 -2.6597819219e+01 +1.7070358569e+02 1.8322409373e+02 0.0000000000e+00 0.0000e+00 -1.0000e+00
<mgrwt>
<rscale>  0 0.50295482E+03</rscale>
<asrwt>0</asrwt>
<pdfrwt beam="1">  1        2 0.27719610E-01 0.50295482E+03</pdfrwt>
<pdfrwt beam="2">  1       -2 0.53998803E-01 0.50295482E+03</pdfrwt>
<totfact> 0.78407757E+02</totfact>
</mgrwt>
<rwgt>
<wgt id='morphing_basis_vector_1'> +2.9412299e-04 </wgt>
<wgt id='morphing_basis_vector_2'> +1.6151404e-04 </wgt>
<wgt id='morphing_basis_vector_3'> +2.1258051e-04 </wgt>
<wgt id='morphing_basis_vector_4'> +7.2483269e-05 </wgt>
<wgt id='morphing_basis_vector_5'> +1.0159171e-04 </wgt>
</rwgt>
</event>
<event>
 4      1 +1.9425900e-05 4.69281800e+02 7.81860800e-03 9.47132700e-02
        2 -1    0    0  501    0 +0.0000000000e+00 +0.0000000000e+00 +1.1013408026e+03 1.1013408026e+03 0.0000000000e+00 0.0000e+00 1.0000e+00
       -2 -1    0    0    0  501 -0.0000000000e+00 -0.0000000000e+00 -4.9990302660e+01 4.9990302660e+01 0.0000000000e+00 0.0000e+00 -1.0000e+00
      -13  1    1    2    0    0 -1.3811944878e+02 +1.8714072667e+02 +6.0160067165e+02 6.4499767583e+02 0.0000000000e+00 0.0000e+00 -1.0000e+00
       13  1    1    2    0    0 +1.3811944878e+02 -1.8714072667e+02 +4.4974982832e+02 5.0633342945e+02 0.0000000000e+00 0.0000e+00 1.0000e+00
<mgrwt>
<rscale>  0 0.46928183E+03</rscale>
<asrwt>0</asrwt>
<pdfrwt beam="1">  1        2 0.16943703E+00 0.46928183E+03</pdfrwt>
<pdfrwt beam="2">  1       -2 0.76908166E-02 0.46928183E+03</pdfrwt>
<totfact> 0.24874453E+03</totfact>
</mgrwt>
<rwgt>
<wgt id='morphing_basis_vector_1'> +2.5200806e-04 </wgt>
<wgt id='morphing_basis_vector_2'> +1.6882736e-04 </wgt>
<wgt id='morphing_basis_vector_3'> +1.5964916e-04 </wgt>
<wgt id='morphing_basis_vector_4'> +4.7195965e-05 </wgt>
<wgt id='morphing_basis_vector_5'> +6.7550466e-05 </wgt>
</rwgt>
</event>
<event>
 4      1 +1.9425900e-05 4.44208400e+02 7.81860800e-03 9.53418000e-02
        2 -1    0    0  501    0 +0.0000000000e+00 +0.0000000000e+00 +1.5111104521e+02 1.5111104521e+02 0.0000000000e+00 0.0000e+00 -1.0000e+00
       -2 -1    0    0    0  501 -0.0000000000e+00 -0.0000000000e+00 -3.2645046688e+02 3.2645046688e+02 0.0000000000e+00 0.0000e+00 1.0000e+00
      -13  1    1    2    0    0 +1.2095941771e+02 +1.7788895035e+02 -1.4708806096e+02 2.6059654078e+02 0.0000000000e+00 0.0000e+00 1.0000e+00
       13  1    1    2    0    0 -1.2095941771e+02 -1.7788895035e+02 -2.8251360708e+01 2.1696497130e+02 0.0000000000e+00 0.0000e+00 -1.0000e+00
<mgrwt>
<rscale>  0 0.44420838E+03</rscale>
<asrwt>0</asrwt>
<pdfrwt beam="1">  1        2 0.23247853E-01 0.44420838E+03</pdfrwt>
<pdfrwt beam="2">  1       -2 0.50223149E-01 0.44420838E+03</pdfrwt>
<totfact> 0.11088861E+03</totfact>
</mgrwt>
<rwgt>
<wgt id='morphing_basis_vector_1'> +2.0720079e-04 </wgt>
<wgt id='morphing_basis_vector_2'> +1.1834379e-04 </wgt>
<wgt id='morphing_basis_vector_3'> +1.3656319e-04 </wgt>
<wgt id='morphing_basis_vector_4'> +3.7453292e-05 </wgt>
<wgt id='morphing_basis_vector_5'> +4.7100440e-05 </wgt>
</rwgt>
</event>
<event>
 4      1 +1.9425900e-05 4.70690500e+02 7.81860800e-03 9.46791900e-02
        2 -1    0    0  501    0 +0.0000000000e+00 +0.0000000000e+00 +1.4136535513e+03 1.4136535513e+03 0.0000000000e+00 0.0000e+00 1.0000e+00
       -2 -1    0    0    0  501 -0.0000000000e+00 -0.0000000000e+00 -3.9180317491e+01 3.9180317491e+01 0.0000000000e+00 0.0000e+00 -1.0000e+00
      -13  1    1    2    0    0 +1.4876654796e+02 -1.3761539106e+02 +3.1790171114e+02 3.7700262544e+02 0.0000000000e+00 0.0000e+00 -1.0000e+00
       13  1    1    2    0    0 -1.4876654796e+02 +1.3761539106e+02 +1.0565715227e+03 1.0758312434e+03 0.0000000000e+00 0.0000e+00 1.0000e+00
<mgrwt>
<rscale>  0 0.47069054E+03</rscale>
<asrwt>0</asrwt>
<pdfrwt beam="1">  1        2 0.21748512E+00 0.47069054E+03</pdfrwt>
<pdfrwt beam="2">  1       -2 0.60277423E-02 0.47069054E+03</pdfrwt>
<totfact> 0.24080950E+03</totfact>
</mgrwt>
<rwgt>
<wgt id='morphing_basis_vector_1'> +2.4254290e-04 </wgt>
<wgt id='morphing_basis_vector_2'> +1.3419421e-04 </wgt>
<wgt id='morphing_basis_vector_3'> +1.6794985e-04 </wgt>
<wgt id='morphing_basis_vector_4'> +5.1069654e-05 </wgt>
<wgt id='morphing_basis_vector_5'> +6.8232677e-05 </wgt>
</rwgt>
</event>
<event>
 4      1 +1.9425900e-05 4.54231700e+02 7.81860800e-03 9.50854400e-02
        2 -1    0    0  501    0 +0.0000000000e+00 +0.0000000000e+00 +5.6070897987e+02 5.6070897987e+02 0.0000000000e+00 0.0000e+00 -1.0000e+00
       -2 -1    0    0    0  501 -0.0000000000e+00 -0.0000000000e+00 -9.1993566885e+01 9.1993566885e+01 0.0000000000e+00 0.0000e+00 1.0000e+00
      -13  1    1    2    0    0 +7.5950908562e+01 -1.8149790145e+02 +7.1332810916e+01 2.0928066957e+02 0.0000000000e+00 0.0000e+00 1.0000e+00
       13  1    1    2    0    0 -7.5950908562e+01 +1.8149790145e+02 +3.9738260207e+02 4.4342187719e+02 0.0000000000e+00 0.0000e+00 -1.0000e+00
<mgrwt>
<rscale>  0 0.45423174E+03</rscale>
<asrwt>0</asrwt>
<pdfrwt beam="1">  1        2 0.86262918E-01 0.45423174E+03</pdfrwt>
<pdfrwt beam="2">  1       -2 0.14152857E-01 0.45423174E+03</pdfrwt>
<totfact> 0.22605648E+03</totfact>
</mgrwt>
<rwgt>
<wgt id='morphing_basis_vector_1'> +2.1890576e-04 </wgt>
<wgt id='morphing_basis_vector_2'> +1.2067738e-04 </wgt>
<wgt id='morphing_basis_vector_3'> +1.4858217e-04 </wgt>
<wgt id='morphing_basis_vector_4'> +4.2388404e-05 </wgt>
<wgt id='morphing_basis_vector_5'> +5.4433030e-05 </wgt>
</rwgt>
</event>
<event>
 4      1 +1.9425900e-05 4.49522900e+02 7.81860800e-03 9.52050000e-02
        2 -1    0    0  501    0 +0.0000000000e+00 +0.0000000000e+00 +8.5196792663e+02 8.5196792663e+02 0.0000000000e+00 0.0000e+00 1.0000e+00
       -2 -1    0    0    0  501 -0.0000000000e+00 -0.0000000000e+00 -5.9295318030e+01 5.9295318030e+01 0.0000000000e+00 0.0000e+00 -1.0000e+00
      -13  1    1    2    0    0 +1.5128516615e+02 +3.9211147477e-01 +5.9370944371e+01 1.6251850444e+02 0.0000000000e+00 0.0000e+00 -1.0000e+00
       13  1    1    2    0    0 -1.5128516615e+02 -3.9211147477e-01 +7.3330166423e+02 7.4874474022e+02 0.0000000000e+00 0.0000e+00 1.0000e+00
<mgrwt>
<rscale>  0 0.44952290E+03</rscale>
<asrwt>0</asrwt>
<pdfrwt beam="1">  1        2 0.13107198E+00 0.44952290E+03</pdfrwt>
<pdfrwt beam="2">  1       -2 0.91223572E-02 0.44952290E+03</pdfrwt>
<totfact> 0.27225868E+03</totfact>
</mgrwt>
<rwgt>
<wgt id='morphing_basis_vector_1'> +2.1184361e-04 </wgt>
<wgt id='morphing_basis_vector_2'> +1.1497263e-04 </wgt>
<wgt id='morphing_basis_vector_3'> +1.4385945e-04 </wgt>
<wgt id='morphing_basis_vector_4'> +4.0253469e-05 </wgt>
<wgt id='morphing_basis_vector_5'> +5.0816417e-05 </wgt>
</rwgt>
</event>
<event>
 4      1 +1.9425900e-05 4.87922200e+02 7.81860800e-03 9.42723000e-02
        2 -1    0    0  501    0 +0.0000000000e+00 +0.0000000000e+00 +3.8786213320e+02 3.8786213320e+02 0.0000000000e+00 0.0000e+00 -1.0000e+00
       -2 -1    0    0    0  501 -0.0000000000e+00 -0.0000000000e+00 -1.5344890611e+02 1.5344890611e+02 0.0000000000e+00 0.0000e+00 1.0000e+00
      -13  1    1    2    0    0 +1.9066734243e+02 -9.4922397838e+01 -1.4775871765e+01 2.1350087463e+02 0.0000000000e+00 0.0000e+00 1.0000e+00
       13  1    1    2    0    0 -1.9066734243e+02 +9.4922397838e+01 +2.4918909885e+02 3.2781016468e+02 0.0000000000e+00 0.0000e+00 -1.0000e+00
<mgrwt>
<rscale>  0 0.48792221E+03</rscale>
<asrwt>0</asrwt>
<pdfrwt beam="1">  1        2 0.59671097E-01 0.48792221E+03</pdfrwt>
<pdfrwt beam="2">  1       -2 0.23607524E-01 0.48792221E+03</pdfrwt>
<totfact> 0.14817609E+03</totfact>
</mgrwt>
<rwgt>
<wgt id='morphing_basis_vector_1'> +2.6972766e-04 </wgt>
<wgt id='morphing_basis_vector_2'> +1.5031066e-04 </wgt>
<wgt id='morphing_basis_vector_3'> +1.9041041e-04 </wgt>
<wgt id='morphing_basis_vector_4'> +6.1532733e-05 </wgt>
<wgt id='morphing_basis_vector_5'> +8.4975681e-05 </wgt>
</rwgt>
</event>
<event>
 4      1 +1.9425900e-05 4.78114200e+02 7.81860800e-03 9.45016300e-02
        2 -1    0    0  501    0 +0.0000000000e+00 +0.0000000000e+00 +4.7608566111e+02 4.7608566111e+02 0.0000000000e+00 0.0000e+00 -1.0000e+00
       -2 -1    0    0    0  501 -0.0000000000e+00 -0.0000000000e+00 -1.2003786082e+02 1.2003786082e+02 0.0000000000e+00 0.0000e+00 1.0000e+00
      -13  1    1    2    0    0 -2.0023988623e+02 +8.1341919552e+01 +5.0653903319e+01 2.2198724701e+02 0.0000000000e+00 0.0000e+00 1.0000e+00
       13  1    1    2    0    0 +2.0023988623e+02 -8.1341919552e+01 +3.0539389697e+02 3.7413627493e+02 0.0000000000e+00 0.0000e+00 -1.0000e+00
<mgrwt>
<rscale>  0 0.47811423E+03</rscale>
<asrwt>0</asrwt>
<pdfrwt beam="1">  1        2 0.73243947E-01 0.47811423E+03</pdfrwt>
<pdfrwt beam="2">  1       -2 0.18467363E-01 0.47811423E+03</pdfrwt>
<totfact> 0.17712768E+03</totfact>
</mgrwt>
<rwgt>
<wgt id='morphing_basis_vector_1'> +2.5439520e-04 </wgt>
<wgt id='morphing_basis_vector_2'> +1.4229561e-04 </wgt>
<wgt id='morphing_basis_vector_3'> +1.7710298e-04 </wgt>
<wgt id='morphing_basis_vector_4'> +5.5261209e-05 </wgt>
<wgt id='morphing_basis_vector_5'> +7.5168635e-05 </wgt>
</rwgt>
</event>
<event>
 4      1 +1.9425900e-05 4.53470500e+02 7.81860800e-03 9.51046600e-02
        2 -1    0    0  501    0 +0.0000000000e+00 +0.0000000000e+00 +6.6081050122e+02 6.6081050122e+02 0.0000000000e+00 0.0000e+00 1.0000e+00
       -2 -1    0    0    0  501 -0.0000000000e+00 -0.0000000000e+00 -7.7796683159e+01 7.7796683159e+01 0.0000000000e+00 0.0000e+00 -1.0000e+00
      -13  1    1    2    0    0 +1.4312085597e+02 +3.0563976943e+01 +9.4342896618e+00 1.4665177094e+02 0.0000000000e+00 0.0000e+00 -1.0000e+00
       13  1    1    2    0    0 -1.4312085597e+02 -3.0563976943e+01 +5.7357952840e+02 5.9195541343e+02 0.0000000000e+00 0.0000e+00 1.0000e+00
<mgrwt>
<rscale>  0 0.45347046E+03</rscale>
<asrwt>0</asrwt>
<pdfrwt beam="1">  1        2 0.10166315E+00 0.45347046E+03</pdfrwt>
<pdfrwt beam="2">  1       -2 0.11968721E-01 0.45347046E+03</pdfrwt>
<totfact> 0.24362679E+03</totfact>
</mgrwt>
<rwgt>
<wgt id='morphing_basis_vector_1'> +2.1714760e-04 </wgt>
<wgt id='morphing_basis_vector_2'> +1.1787559e-04 </wgt>
<wgt id='morphing_basis_vector_3'> +1.4819941e-04 </wgt>
<wgt id='morphing_basis_vector_4'> +4.2155989e-05 </wgt>
<wgt id='morphing_basis_vector_5'> +5.3804514e-05 </wgt>
</rwgt>
</event>
<event>
 4      1 +1.9425900e-05 4.90682800e+02 7.81860800e-03 9.42088000e-02
        2 -1    0    0  501    0 +0.0000000000e+00 +0.0000000000e+00 +5.0133794500e+02 5.0133794500e+02 0.0000000000e+00 0.0000e+00 1.0000e+00
       -2 -1    0    0    0  501 -0.0000000000e+00 -0.0000000000e+00 -1.2006355198e+02 1.2006355198e+02 0.0000000000e+00 0.0000e+00 -1.0000e+00
      -13  1    1    2    0    0 +1.4981543906e+02 -1.4498757470e+02 +2.6852986143e+01 2.1020738679e+02 0.0000000000e+00 0.0000e+00 -1.0000e+00
       13  1    1    2    0    0 -1.4981543906e+02 +1.4498757470e+02 +3.5442140687e+02 4.1119411018e+02 0.0000000000e+00 0.0000e+00 1.0000e+00
<mgrwt>
<rscale>  0 0.49068285E+03</rscale>
<asrwt>0</asrwt>
<pdfrwt beam="1">  1        2 0.77128914E-01 0.49068285E+03</pdfrwt>
<pdfrwt beam="2">  1       -2 0.18471316E-01 0.49068285E+03</pdfrwt>
<totfact> 0.16707475E+03</totfact>
</mgrwt>
<rwgt>
<wgt id='morphing_basis_vector_1'> +2.7407254e-04 </wgt>
<wgt id='morphing_basis_vector_2'> +1.5230418e-04 </wgt>
<wgt id='morphing_basis_vector_3'> +1.9434586e-04 </wgt>
<wgt id='morphing_basis_vector_4'> +6.3436035e-05 </wgt>
<wgt id='morphing_basis_vector_5'> +8.7878011e-05 </wgt>
</rwgt>
</event>
<event>
 4      1 +1.9425900e-05 4.32958500e+02 7.81860800e-03 9.56381600e-02
        2 -1    0    0  501    0 +0.0000000000e+00 +0.0000000000e+00 +4.3034535313e+02 4.3034535313e+02 0.0000000000e+00 0.0000e+00 1.0000e+00
       -2 -1    0    0    0  501 -0.0000000000e+00 -0.0000000000e+00 -1.0889686623e+02 1.0889686623e+02 0.0000000000e+00 0.0000e+00 -1.0000e+00
      -13  1    1    2    0    0 -2.0308685392e+01 +1.9561523757e+02 +2.7340769856e+02 3.3679301285e+02 0.0000000000e+00 0.0000e+00 -1.0000e+00
       13  1    1    2    0    0 +2.0308685392e+01 -1.9561523757e+02 +4.8040788336e+01 2.0244920651e+02 0.0000000000e+00 0.0000e+00 1.0000e+00
<mgrwt>
<rscale>  0 0.43295848E+03</rscale>
<asrwt>0</asrwt>
<pdfrwt beam="1">  1        2 0.66206977E-01 0.43295848E+03</pdfrwt>
<pdfrwt beam="2">  1       -2 0.16753364E-01 0.43295848E+03</pdfrwt>
<totfact> 0.23210491E+03</totfact>
</mgrwt>
<rwgt>
<wgt id='morphing_basis_vector_1'> +2.1556782e-04 </wgt>
<wgt id='morphing_basis_vector_2'> +1.7991648e-04 </wgt>
<wgt id='morphing_basis_vector_3'> +1.0794240e-04 </wgt>
<wgt id='morphing_basis_vector_4'> +3.0609618e-05 </wgt>
<wgt id='morphing_basis_vector_5'> +4.0940327e-05 </wgt>
</rwgt>
</event>
<event>
 4      1 +1.9425900e-05 4.70747400e+02 7.81860800e-03 9.46778200e-02
        2 -1    0    0  501    0 +0.0000000000e+00 +0.0000000000e+00 +5.3731202238e+01 5.3731202238e+01 0.0000000000e+00 0.0000e+00 -1.0000e+00
       -2 -1    0    0    0  501 -0.0000000000e+00 -0.0000000000e+00 -1.0310727606e+03 1.0310727606e+03 0.0000000000e+00 0.0000e+00 1.0000e+00
      -13  1    1    2    0    0 +1.8796391163e+02 +1.4088132298e+02 -4.5427376750e+02 5.1141239238e+02 0.0000000000e+00 0.0000e+00 1.0000e+00
       13  1    1    2    0    0 -1.8796391163e+02 -1.4088132298e+02 -5.2306779083e+02 5.7339157043e+02 0.0000000000e+00 0.0000e+00 -1.0000e+00
<mgrwt>
<rscale>  0 0.47074740E+03</rscale>
<asrwt>0</asrwt>
<pdfrwt beam="1">  1        2 0.82663387E-02 0.47074740E+03</pdfrwt>
<pdfrwt beam="2">  1       -2 0.15862658E+00 0.47074740E+03</pdfrwt>
<totfact> 0.26918101E+02</totfact>
</mgrwt>
<rwgt>
<wgt id='morphing_basis_vector_1'> +2.5161825e-04 </wgt>
<wgt id='morphing_basis_vector_2'> +1.6209841e-04 </wgt>
<wgt id='morphing_basis_vector_3'> +1.6298909e-04 </wgt>
<wgt id='morphing_basis_vector_4'> +4.8649487e-05 </wgt>
<wgt id='morphing_basis_vector_5'> +6.8730597e-05 </wgt>
</rwgt>
</event>
<event>
 4      1 +1.9425900e-05 4.85895000e+02 7.81860800e-03 9.43192300e-02
        2 -1    0    0  501    0 +0.0000000000e+00 +0.0000000000e+00 +2.6425255916e+02 2.6425255916e+02 0.0000000000e+00 0.0000e+00 -1.0000e+00
       -2 -1    0    0    0  501 -0.0000000000e+00 -0.0000000000e+00 -2.2336013880e+02 2.2336013880e+02 0.0000000000e+00 0.0000e+00 1.0000e+00
      -13  1    1    2    0    0 +9.4946618683e+01 +1.0592471966e+02 -1.7719819465e+02 2.2723139488e+02 0.0000000000e+00 0.0000e+00 1.0000e+00
       13  1    1    2    0    0 -9.4946618683e+01 -1.0592471966e+02 +2.1809061501e+02 2.6038130307e+02 0.0000000000e+00 0.0000e+00 -1.0000e+00
<mgrwt>
<rscale>  0 0.48589500E+03</rscale>
<asrwt>0</asrwt>
<pdfrwt beam="1">  1        2 0.40654240E-01 0.48589500E+03</pdfrwt>
<pdfrwt beam="2">  1       -2 0.34363098E-01 0.48589500E+03</pdfrwt>
<totfact> 0.11853034E+03</totfact>
</mgrwt>
<rwgt>
<wgt id='morphing_basis_vector_1'> +2.6539688e-04 </wgt>
<wgt id='morphing_basis_vector_2'> +1.4520988e-04 </wgt>
<wgt id='morphing_basis_vector_3'> +1.8812697e-04 </wgt>
<wgt id='morphing_basis_vector_4'> +6.0565178e-05 </wgt>
<wgt id='morphing_basis_vector_5'> +8.2833150e-05 </wgt>
</rwgt>
</event>
<event>
 4      1 +1.9425900e-05 4.46989200e+02 7.81860800e-03 9.52699700e-02
        2 -1    0    0  501    0 +0.0000000000e+00 +0.0000000000e+00 +1.8578466966e+03 1.8578466966e+03 0.0000000000e+00 0.0000e+00 -1.0000e+00
       -2 -1    0    0    0  501 -0.0000000000e+00 -0.0000000000e+00 -2.6885872939e+01 2.6885872939e+01 0.0000000000e+00 0.0000e+00 1.0000e+00
      -13  1    1    2    0    0 +9.0340418068e+01 +2.0130405448e+02 +7.6550570134e+02 7.9667037869e+02 0.0000000000e+00 0.0000e+00 1.0000e+00
       13  1    1    2    0    0 -9.0340418068e+01 -2.0130405448e+02 +1.0654551223e+03 1.0880621908e+03 0.0000000000e+00 0.0000e+00 -1.0000e+00
<mgrwt>
<rscale>  0 0.44698917E+03</rscale>
<asrwt>0</asrwt>
<pdfrwt beam="1">  1        2 0.28582247E+00 0.44698917E+03</pdfrwt>
<pdfrwt beam="2">  1       -2 0.41362896E-02 0.44698917E+03</pdfrwt>
<totfact> 0.24462565E+03</totfact>
</mgrwt>
<rwgt>
<wgt id='morphing_basis_vector_1'> +2.1200303e-04 </wgt>
<wgt id='morphing_basis_vector_2'> +1.2397429e-04 </wgt>
<wgt id='morphing_basis_vector_3'> +1.3872987e-04 </wgt>
<wgt id='morphing_basis_vector_4'> +3.8495238e-05 </wgt>
<wgt id='morphing_basis_vector_5'> +4.9154738e-05 </wgt>
</rwgt>
</event>
<event>
 4      1 +1.9425900e-05 4.45788600e+02 7.81860800e-03 9.53009100e-02
        2 -1    0    0  501    0 +0.0000000000e+00 +0.0000000000e+00 +1.5828282048e+03 1.5828282048e+03 0.0000000000e+00 0.0000e+00 1.0000e+00
       -2 -1    0    0    0  501 -0.0000000000e+00 -0.0000000000e+00 -3.1388035117e+01 3.1388035117e+01 0.0000000000e+00 0.0000e+00 -1.0000e+00
      -13  1    1    2    0    0 +2.1004833941e+02 -6.5604037656e+01 +6.4730484522e+02 6.8368688542e+02 0.0000000000e+00 0.0000e+00 -1.0000e+00
       13  1    1    2    0    0 -2.1004833941e+02 +6.5604037656e+01 +9.0413532450e+02 9.3052935454e+02 0.0000000000e+00 0.0000e+00 1.0000e+00
<mgrwt>
<rscale>  0 0.44578859E+03</rscale>
<asrwt>0</asrwt>
<pdfrwt beam="1">  1        2 0.24351197E+00 0.44578859E+03</pdfrwt>
<pdfrwt beam="2">  1       -2 0.48289297E-02 0.44578859E+03</pdfrwt>
<totfact> 0.27266628E+03</totfact>
</mgrwt>
<rwgt>
<wgt id='morphing_basis_vector_1'> +2.1039513e-04 </wgt>
<wgt id='morphing_basis_vector_2'> +1.2299725e-04 </wgt>
<wgt id='morphing_basis_vector_3'> +1.3745694e-04 </wgt>
<wgt id='morphing_basis_vector_4'> +3.7970211e-05 </wgt>
<wgt id='morphing_basis_vector_5'> +4.8288236e-05 </wgt>
</rwgt>
</event>
<event>
 4      1 +1.9425900e-05 4.92351700e+02 7.81860800e-03 9.41706300e-02
        2 -1    0    0  501    0 +0.0000000000e+00 +0.0000000000e+00 +1.6606634805e+02 1.6606634805e+02 0.0000000000e+00 0.0000e+00 -1.0000e+00
       -2 -1    0    0    0  501 -0.0000000000e+00 -0.0000000000e+00 -3.6492968928e+02 3.6492968928e+02 0.0000000000e+00 0.0000e+00 1.0000e+00
      -13  1    1    2    0    0 +6.8454749799e+01 +1.5978450939e+02 -2.8742755290e+02 3.3590436195e+02 0.0000000000e+00 0.0000e+00 1.0000e+00
       13  1    1    2    0    0 -6.8454749799e+01 -1.5978450939e+02 +8.8564211679e+01 1.9509167537e+02 0.0000000000e+00 0.0000e+00 -1.0000e+00
<mgrwt>
<rscale>  0 0.49235167E+03</rscale>
<asrwt>0</asrwt>
<pdfrwt beam="1">  1        2 0.25548669E-01 0.49235167E+03</pdfrwt>
<pdfrwt beam="2">  1       -2 0.56143029E-01 0.49235167E+03</pdfrwt>
<totfact> 0.79773181E+02</totfact>
</mgrwt>
<rwgt>
<wgt id='morphing_basis_vector_1'> +2.7620258e-04 </wgt>
<wgt id='morphing_basis_vector_2'> +1.5189206e-04 </wgt>
<wgt id='morphing_basis_vector_3'> +1.9699071e-04 </wgt>
<wgt id='morphing_basis_vector_4'> +6.4802764e-05 </wgt>
<wgt id='morphing_basis_vector_5'> +8.9642010e-05 </wgt>
</rwgt>
</event>
<event>
 4      1 +1.9425900e-05 5.18525900e+02 7.81860800e-03 9.35923900e-02
        2 -1    0    0  501    0 +0.0000000000e+00 +0.0000000000e+00 +3.6002061052e+02 3.6002061052e+02 0.0000000000e+00 0.0000e+00 1.0000e+00
       -2 -1    0    0    0  501 -0.0000000000e+00 -0.0000000000e+00 -1.8670396652e+02 1.8670396652e+02 0.0000000000e+00 0.0000e+00 -1.0000e+00
      -13  1    1    2    0    0 -6.6688557326e+01 -2.2628056560e+02 -2.6740580760e+01 2.3741380901e+02 0.0000000000e+00 0.0000e+00 -1.0000e+00
       13  1    1    2    0    0 +6.6688557326e+01 +2.2628056560e+02 +2.0005722476e+02 3.0931076804e+02 0.0000000000e+00 0.0000e+00 1.0000e+00
<mgrwt>
<rscale>  0 0.51852590E+03</rscale>
<asrwt>0</asrwt>
<pdfrwt beam="1">  1        2 0.55387786E-01 0.51852590E+03</pdfrwt>
<pdfrwt beam="2">  1       -2 0.28723687E-01 0.51852590E+03</pdfrwt>
<totfact> 0.11515153E+03</totfact>
</mgrwt>
<rwgt>
<wgt id='morphing_basis_vector_1'> +3.2464872e-04 </wgt>
<wgt id='morphing_basis_vector_2'> +1.8427293e-04 </wgt>
<wgt id='morphing_basis_vector_3'> +2.3645709e-04 </wgt>
<wgt id='morphing_basis_vector_4'> +8.3842700e-05 </wgt>
<wgt id='morphing_basis_vector_5'> +1.2110192e-04 </wgt>
</rwgt>
</event>
<event>
 4      1 +1.9425900e-05 4.36376800e+02 7.81860800e-03 9.55471100e-02
        2 -1    0    0  501    0 +0.0000000000e+00 +0.0000000000e+00 +9.3010052674e+02 9.3010052674e+02 0.0000000000e+00 0.0000e+00 -1.0000e+00
       -2 -1    0    0    0  501 -0.0000000000e+00 -0.0000000000e+00 -5.1183909263e+01 5.1183909263e+01 0.0000000000e+00 0.0000e+00 1.0000e+00
      -13  1    1    2    0    0 +2.1495017918e+02 +3.6495462783e+01 +4.2055274608e+02 4.7370888800e+02 0.0000000000e+00 0.0000e+00 1.0000e+00
       13  1    1    2    0    0 -2.1495017918e+02 -3.6495462783e+01 +4.5836387140e+02 5.0757554800e+02 0.0000000000e+00 0.0000e+00 -1.0000e+00
<mgrwt>
<rscale>  0 0.43637681E+03</rscale>
<asrwt>0</asrwt>
<pdfrwt beam="1">  1        2 0.14309238E+00 0.43637681E+03</pdfrwt>
<pdfrwt beam="2">  1       -2 0.78744483E-02 0.43637681E+03</pdfrwt>
<totfact> 0.30432635E+03</totfact>
</mgrwt>
<rwgt>
<wgt id='morphing_basis_vector_1'> +2.0013108e-04 </wgt>
<wgt id='morphing_basis_vector_2'> +1.2169714e-04 </wgt>
<wgt id='morphing_basis_vector_3'> +1.2635497e-04 </wgt>
<wgt id='morphing_basis_vector_4'> +3.3833009e-05 </wgt>
<wgt id='morphing_basis_vector_5'> +4.1954313e-05 </wgt>
</rwgt>
</event>
<event>
 4      1 +1.9425900e-05 4.57133500e+02 7.81860800e-03 9.50125200e-02
        2 -1    0    0  501    0 +0.0000000000e+00 +0.0000000000e+00 +1.3755843869e+03 1.3755843869e+03 0.0000000000e+00 0.0000e+00 1.0000e+00
       -2 -1    0    0    0  501 -0.0000000000e+00 -0.0000000000e+00 -3.7978584925e+01 3.7978584925e+01 0.0000000000e+00 0.0000e+00 -1.0000e+00
      -13  1    1    2    0    0 -9.6142094856e+01 -1.9309128634e+02 +4.3503336323e+02 4.8557344901e+02 0.0000000000e+00 0.0000e+00 -1.0000e+00
       13  1    1    2    0    0 +9.6142094856e+01 +1.9309128634e+02 +9.0257243878e+02 9.2798952285e+02 0.0000000000e+00 0.0000e+00 1.0000e+00
<mgrwt>
<rscale>  0 0.45713345E+03</rscale>
<asrwt>0</asrwt>
<pdfrwt beam="1">  1        2 0.21162833E+00 0.45713345E+03</pdfrwt>
<pdfrwt beam="2">  1       -2 0.58428603E-02 0.45713345E+03</pdfrwt>
<totfact> 0.26497455E+03</totfact>
</mgrwt>
<rwgt>
<wgt id='morphing_basis_vector_1'> +2.2401272e-04 </wgt>
<wgt id='morphing_basis_vector_2'> +1.2633143e-04 </wgt>
<wgt id='morphing_basis_vector_3'> +1.5116366e-04 </wgt>
<wgt id='morphing_basis_vector_4'> +4.3597169e-05 </wgt>
<wgt id='morphing_basis_vector_5'> +5.6776905e-05 </wgt>
</rwgt>
</event>
<event>
 4      1 +1.9425900e-05 4.74782200e+02 7.81860800e-03 9.45809000e-02
        2 -1    0    0  501    0 +0.0000000000e+00 +0.0000000000e+00 +4.1258934552e+02 4.1258934552e+02 0.0000000000e+00 0.0000e+00 -1.0000e+00
       -2 -1    0    0    0  501 -0.0000000000e+00 -0.0000000000e+00 -1.3658744232e+02 1.3658744232e+02 0.0000000000e+00 0.0000e+00 1.0000e+00
      -13  1    1    2    0    0 +1.9661166446e+02 +7.6271035042e+01 +1.1920945193e+01 2.1122387725e+02 0.0000000000e+00 0.0000e+00 1.0000e+00
       13  1    1    2    0    0 -1.9661166446e+02 -7.6271035042e+01 +2.6408095801e+02 3.3795291058e+02 0.0000000000e+00 0.0000e+00 -1.0000e+00
<mgrwt>
<rscale>  0 0.47478215E+03</rscale>
<asrwt>0</asrwt>
<pdfrwt beam="1">  1        2 0.63475283E-01 0.47478215E+03</pdfrwt>
<pdfrwt beam="2">  1       -2 0.21013453E-01 0.47478215E+03</pdfrwt>
<totfact> 0.16797075E+03</totfact>
</mgrwt>
<rwgt>
<wgt id='morphing_basis_vector_1'> +2.4902455e-04 </wgt>
<wgt id='morphing_basis_vector_2'> +1.3863463e-04 </wgt>
<wgt id='morphing_basis_vector_3'> +1.7293425e-04 </wgt>
<wgt id='morphing_basis_vector_4'> +5.3348820e-05 </wgt>
<wgt id='morphing_basis_vector_5'> +7.2001275e-05 </wgt>
</rwgt>
</event>
<event>
 4      1 +1.9425900e-05 5.04069100e+02 7.81860800e-03 9.39071200e-02
        2 -1    0    0  501    0 +0.0000000000e+00 +0.0000000000e+00 +1.5310987638e+03 1.5310987638e+03 0.0000000000e+00 0.0000e+00 1.0000e+00
       -2 -1    0    0    0  501 -0.0000000000e+00 -0.0000000000e+00 -4.1487466995e+01 4.1487466995e+01 0.0000000000e+00 0.0000e+00 -1.0000e+00
      -13  1    1    2    0    0 +1.0125395795e+02 -1.9517304277e+02 +3.6047002930e+02 4.2223633507e+02 0.0000000000e+00 0.0000e+00 -1.0000e+00
       13  1    1    2    0    0 -1.0125395795e+02 +1.9517304277e+02 +1.1291412675e+03 1.1503498958e+03 0.0000000000e+00 0.0000e+00 1.0000e+00
<mgrwt>
<rscale>  0 0.50406908E+03</rscale>
<asrwt>0</asrwt>
<pdfrwt beam="1">  1        2 0.23555361E+00 0.50406908E+03</pdfrwt>
<pdfrwt beam="2">  1       -2 0.63826884E-02 0.50406908E+03</pdfrwt>
<totfact> 0.19027857E+03</totfact>
</mgrwt>
<rwgt>
<wgt id='morphing_basis_vector_1'> +2.9734625e-04 </wgt>
<wgt id='morphing_basis_vector_2'> +1.6654589e-04 </wgt>
<wgt id='morphing_basis_vector_3'> +2.1377002e-04 </wgt>
<wgt id='morphing_basis_vector_4'> +7.2794021e-05 </wgt>
<wgt id='morphing_basis_vector_5'> +1.0295623e-04 </wgt>
</rwgt>
</event>
<event>
 4      1 +1.9425900e-05 4.65167600e+02 7.81860800e-03 9.48135400e-02
        2 -1    0    0  501    0 +0.0000000000e+00 +0.0000000000e+00 +1.1868133844e+03 1.1868133844e+03 0.0000000000e+00 0.0000e+00 -1.0000e+00
       -2 -1    0    0    0  501 -0.0000000000e+00 -0.0000000000e+00 -4.5580231588e+01 4.5580231588e+01 0.0000000000e+00 0.0000e+00 1.0000e+00
      -13  1    1    2    0    0 -1.9838928557e+02 -1.0936929560e+02 +4.3104622658e+02 4.8695051176e+02 0.0000000000e+00 0.0000e+00 1.0000e+00
       13  1    1    2    0    0 +1.9838928557e+02 +1.0936929560e+02 +7.1018692619e+02 7.4544310419e+02 0.0000000000e+00 0.0000e+00 -1.0000e+00
<mgrwt>
<rscale>  0 0.46516762E+03</rscale>
<asrwt>0</asrwt>
<pdfrwt beam="1">  1        2 0.18258665E+00 0.46516762E+03</pdfrwt>
<pdfrwt beam="2">  1       -2 0.70123442E-02 0.46516762E+03</pdfrwt>
<totfact> 0.25579643E+03</totfact>
</mgrwt>
<rwgt>
<wgt id='morphing_basis_vector_1'> +2.3668560e-04 </wgt>
<wgt id='morphing_basis_vector_2'> +1.3664703e-04 </wgt>
<wgt id='morphing_basis_vector_3'> +1.5986668e-04 </wgt>
<wgt id='morphing_basis_vector_4'> +4.7442432e-05 </wgt>
<wgt id='morphing_basis_vector_5'> +6.3491046e-05 </wgt>
</rwgt>
</event>
<event>
 4      1 +1.9425900e-05 4.61688500e+02 7.81860800e-03 9.48991900e-02
        2 -1    0    0  501    0 +0.0000000000e+00 +0.0000000000e+00 +2.1599934783e+02 2.1599934783e+02 0.0000000000e+00 0.0000e+00 1.0000e+00
       -2 -1    0    0    0  501 -0.0000000000e+00 -0.0000000000e+00 -2.4670938472e+02 2.4670938472e+02 0.0000000000e+00 0.0000e+00 -1.0000e+00
      -13  1    1    2    0    0 +1.6592648265e+02 +5.0643240880e+01 -1.6798315007e+02 2.4148431460e+02 0.0000000000e+00 0.0000e+00 -1.0000e+00
       13  1    1    2    0    0 -1.6592648265e+02 -5.0643240880e+01 +1.3727311318e+02 2.2122441794e+02 0.0000000000e+00 0.0000e+00 1.0000e+00
<mgrwt>
<rscale>  0 0.46168849E+03</rscale>
<asrwt>0</asrwt>
<pdfrwt beam="1">  1        2 0.33230669E-01 0.46168849E+03</pdfrwt>
<pdfrwt beam="2">  1       -2 0.37955290E-01 0.46168849E+03</pdfrwt>
<totfact> 0.12436356E+03</totfact>
</mgrwt>
<rwgt>
<wgt id='morphing_basis_vector_1'> +2.2882240e-04 </wgt>
<wgt id='morphing_basis_vector_2'> +1.2497326e-04 </wgt>
<wgt id='morphing_basis_vector_3'> +1.5743154e-04 </wgt>
<wgt id='morphing_basis_vector_4'> +4.6287670e-05 </wgt>
<wgt id='morphing_basis_vector_5'> +6.0403379e-05 </wgt>
</rwgt>
</event>
<event>
 4      1 +1.9425900e-05 4.91046400e+02 7.81860800e-03 9.42004700e-02
        2 -1    0    0  501    0 +0.0000000000e+00 +0.0000000000e+00 +1.2677472961e+03 1.2677472961e+03 0.0000000000e+00 0.0000e+00 -1.0000e+00
       -2 -1    0    0    0  501 -0.0000000000e+00 -0.0000000000e+00 -4.7550200939e+01 4.7550200939e+01 0.0000000000e+00 0.0000e+00 1.0000e+00
      -13  1    1    2    0    0 +3.3396804273e+01 -2.1559205038e+02 +3.0840224487e+02 3.7776609610e+02 0.0000000000e+00 0.0000e+00 1.0000e+00
       13  1    1    2    0    0 -3.3396804273e+01 +2.1559205038e+02 +9.1179485027e+02 9.3753140091e+02 0.0000000000e+00 0.0000e+00 -1.0000e+00
<mgrwt>
<rscale>  0 0.49104639E+03</rscale>
<asrwt>0</asrwt>
<pdfrwt beam="1">  1        2 0.19503802E+00 0.49104639E+03</pdfrwt>
<pdfrwt beam="2">  1       -2 0.73154165E-02 0.49104639E+03</pdfrwt>
<totfact> 0.21570476E+03</totfact>
</mgrwt>
<rwgt>
<wgt id='morphing_basis_vector_1'> +2.7508280e-04 </wgt>
<wgt id='morphing_basis_vector_2'> +1.5391437e-04 </wgt>
<wgt id='morphing_basis_vector_3'> +1.9467058e-04 </wgt>
<wgt id='morphing_basis_vector_4'> +6.3533337e-05 </wgt>
<wgt id='morphing_basis_vector_5'> +8.8283846e-05 </wgt>
</rwgt>
</event>
<event>
 4      1 +1.9425900e-05 4.64516200e+02 7.81860800e-03 9.48295200e-02
        2 -1    0    0  501    0 +0.0000000000e+00 +0.0000000000e+00 +2.1300028826e+02 2.1300028826e+02 0.0000000000e+00 0.0000e+00 -1.0000e+00
       -2 -1    0    0    0  501 -0.0000000000e+00 -0.0000000000e+00 -2.5325705675e+02 2.5325705675e+02 0.0000000000e+00 0.0000e+00 1.0000e+00
      -13  1    1    2    0    0 +4.5426856392e+01 -7.0162951943e+01 -2.3763715720e+02 2.5190843096e+02 0.0000000000e+00 0.0000e+00 1.0000e+00
       13  1    1    2    0    0 -4.5426856392e+01 +7.0162951943e+01 +1.9738038871e+02 2.1434891405e+02 0.0000000000e+00 0.0000e+00 -1.0000e+00
<mgrwt>
<rscale>  0 0.46451620E+03</rscale>
<asrwt>0</asrwt>
<pdfrwt beam="1">  1        2 0.32769275E-01 0.46451620E+03</pdfrwt>
<pdfrwt beam="2">  1       -2 0.38962624E-01 0.46451620E+03</pdfrwt>
<totfact> 0.12044930E+03</totfact>
</mgrwt>
<rwgt>
<wgt id='morphing_basis_vector_1'> +2.3255490e-04 </wgt>
<wgt id='morphing_basis_vector_2'> +1.2624616e-04 </wgt>
<wgt id='morphing_basis_vector_3'> +1.6096578e-04 </wgt>
<wgt id='morphing_basis_vector_4'> +4.7877477e-05 </wgt>
<wgt id='morphing_basis_vector_5'> +6.2769657e-05 </wgt>
</rwgt>
</event>
<event>
 4      1 +1.9425900e-05 4.61959000e+02 7.81860800e-03 9.48925000e-02
        2 -1    0    0  501    0 +0.0000000000e+00 +0.0000000000e+00 +1.6285819770e+02 1.6285819770e+02 0.0000000000e+00 0.0000e+00 1.0000e+00
       -2 -1    0    0    0  501 -0.0000000000e+00 -0.0000000000e+00 -3.2759497637e+02 3.2759497637e+02 0.0000000000e+00 0.0000e+00 -1.0000e+00
      -13  1    1    2    0    0 +2.0576267051e+02 +3.8705043923e+01 +2.1194083238e+01 2.1044131287e+02 0.0000000000e+00 0.0000e+00 -1.0000e+00
       13  1    1    2    0    0 -2.0576267051e+02 -3.8705043923e+01 -1.8593086191e+02 2.8001186120e+02 0.0000000000e+00 0.0000e+00 1.0000e+00
<mgrwt>
<rscale>  0 0.46195899E+03</rscale>
<asrwt>0</asrwt>
<pdfrwt beam="1">  1        2 0.25055108E-01 0.46195899E+03</pdfrwt>
<pdfrwt beam="2">  1       -2 0.50399226E-01 0.46195899E+03</pdfrwt>
<totfact> 0.10094361E+03</totfact>
</mgrwt>
<rwgt>
<wgt id='morphing_basis_vector_1'> +2.5973023e-04 </wgt>
<wgt id='morphing_basis_vector_2'> +2.1967585e-04 </wgt>
<wgt id='morphing_basis_vector_3'> +1.3926685e-04 </wgt>
<wgt id='morphing_basis_vector_4'> +3.9316325e-05 </wgt>
<wgt id='morphing_basis_vector_5'> +6.2225344e-05 </wgt>
</rwgt>
</event>
<event>
 4      1 +1.9425900e-05 4.40054700e+02 7.81860800e-03 9.54501300e-02
        2 -1    0    0  501    0 +0.0000000000e+00 +0.0000000000e+00 +1.9474299077e+03 1.9474299077e+03 0.0000000000e+00 0.0000e+00 -1.0000e+00
       -2 -1    0    0    0  501 -0.0000000000e+00 -0.0000000000e+00 -2.4859446654e+01 2.4859446654e+01 0.0000000000e+00 0.0000e+00 1.0000e+00
      -13  1    1    2    0    0 +3.8752912026e+01 -2.1486641818e+02 +8.3914459096e+02 8.6708304700e+02 0.0000000000e+00 0.0000e+00 1.0000e+00
       13  1    1    2    0    0 -3.8752912026e+01 +2.1486641818e+02 +1.0834258701e+03 1.1052063074e+03 0.0000000000e+00 0.0000e+00 -1.0000e+00
<mgrwt>
<rscale>  0 0.44005468E+03</rscale>
<asrwt>0</asrwt>
<pdfrwt beam="1">  1        2 0.29960448E+00 0.44005468E+03</pdfrwt>
<pdfrwt beam="2">  1       -2 0.38245318E-02 0.44005468E+03</pdfrwt>
<totfact> 0.24611902E+03</totfact>
</mgrwt>
<rwgt>
<wgt id='morphing_basis_vector_1'> +2.0336981e-04 </wgt>
<wgt id='morphing_basis_vector_2'> +1.2000469e-04 </wgt>
<wgt id='morphing_basis_vector_3'> +1.3114848e-04 </wgt>
<wgt id='morphing_basis_vector_4'> +3.5477508e-05 </wgt>
<wgt id='morphing_basis_vector_5'> +4.4316503e-05 </wgt>
</rwgt>
</event>
<event>
 4      1 +1.9425900e-05 4.91456600e+02 7.81860800e-03 9.41910800e-02
        2 -1    0    0  501    0 +0.0000000000e+00 +0.0000000000e+00 +2.2567062332e+02 2.2567062332e+02 0.0000000000e+00 0.0000e+00 -1.0000e+00
       -2 -1    0    0    0  501 -0.0000000000e+00 -0.0000000000e+00 -2.6756869576e+02 2.6756869576e+02 0.0000000000e+00 0.0000e+00 1.0000e+00
      -13  1    1    2    0    0 +1.0507050620e+02 +1.3920432981e+02 -1.9468021587e+02 2.6137720475e+02 0.0000000000e+00 0.0000e+00 1.0000e+00
       13  1    1    2    0    0 -1.0507050620e+02 -1.3920432981e+02 +1.5278214343e+02 2.3186211433e+02 0.0000000000e+00 0.0000e+00 -1.0000e+00
<mgrwt>
<rscale>  0 0.49145659E+03</rscale>
<asrwt>0</asrwt>
<pdfrwt beam="1">  1        2 0.34718558E-01 0.49145659E+03</pdfrwt>
<pdfrwt beam="2">  1       -2 0.41164414E-01 0.49145659E+03</pdfrwt>
<totfact> 0.10194270E+03</totfact>
</mgrwt>
<rwgt>
<wgt id='morphing_basis_vector_1'> +2.7471640e-04 </wgt>
<wgt id='morphing_basis_vector_2'> +1.5105374e-04 </wgt>
<wgt id='morphing_basis_vector_3'> +1.9572547e-04 </wgt>
<wgt id='morphing_basis_vector_4'> +6.4190563e-05 </wgt>
<wgt id='morphing_basis_vector_5'> +8.8678111e-05 </wgt>
</rwgt>
</event>
<event>
 4      1 +1.9425900e-05 4.60569600e+02 7.81860800e-03 9.49269000e-02
        2 -1    0    0  501    0 +0.0000000000e+00 +0.0000000000e+00 +1.4756911105e+02 1.4756911105e+02 0.0000000000e+00 0.0000e+00 -1.0000e+00
       -2 -1    0    0    0  501 -0.0000000000e+00 -0.0000000000e+00 -3.5936441329e+02 3.5936441329e+02 0.0000000000e+00 0.0000e+00 1.0000e+00
      -13  1    1    2    0    0 -7.2058169432e+01 -1.1254488250e+02 -3.1231989119e+02 3.3970935341e+02 0.0000000000e+00 0.0000e+00 1.0000e+00
       13  1    1    2    0    0 +7.2058169432e+01 +1.1254488250e+02 +1.0052458895e+02 1.6722417093e+02 0.0000000000e+00 0.0000e+00 -1.0000e+00
<mgrwt>
<rscale>  0 0.46056959E+03</rscale>
<asrwt>0</asrwt>
<pdfrwt beam="1">  1        2 0.22702940E-01 0.46056959E+03</pdfrwt>
<pdfrwt beam="2">  1       -2 0.55286833E-01 0.46056959E+03</pdfrwt>
<totfact> 0.94425441E+02</totfact>
</mgrwt>
<rwgt>
<wgt id='morphing_basis_vector_1'> +2.2697399e-04 </wgt>
<wgt id='morphing_basis_vector_2'> +1.2327848e-04 </wgt>
<wgt id='morphing_basis_vector_3'> +1.5628477e-04 </wgt>
<wgt id='morphing_basis_vector_4'> +4.5759473e-05 </wgt>
<wgt id='morphing_basis_vector_5'> +5.9463433e-05 </wgt>
</rwgt>
</event>
<event>
 4      1 +1.9425900e-05 5.07644700e+02 7.81860800e-03 9.38282300e-02
        2 -1    0    0  501    0 +0.0000000000e+00 +0.0000000000e+00 +1.0904846497e+03 1.0904846497e+03 0.0000000000e+00 0.0000e+00 -1.0000e+00
       -2 -1    0    0    0  501 -0.0000000000e+00 -0.0000000000e+00 -5.9079957445e+01 5.9079957445e+01 0.0000000000e+00 0.0000e+00 1.0000e+00
      -13  1    1    2    0    0 +2.3660776723e+02 -7.5618192571e+01 +3.9750379361e+02 4.6873298635e+02 0.0000000000e+00 0.0000e+00 1.0000e+00
       13  1    1    2    0    0 -2.3660776723e+02 +7.5618192571e+01 +6.3390089863e+02 6.8083162078e+02 0.0000000000e+00 0.0000e+00 -1.0000e+00
<mgrwt>
<rscale>  0 0.50764471E+03</rscale>
<asrwt>0</asrwt>
<pdfrwt beam="1">  1        2 0.16776685E+00 0.50764471E+03</pdfrwt>
<pdfrwt beam="2">  1       -2 0.90892250E-02 0.50764471E+03</pdfrwt>
<totfact> 0.19495962E+03</totfact>
</mgrwt>
<rwgt>
<wgt id='morphing_basis_vector_1'> +3.0707389e-04 </wgt>
<wgt id='morphing_basis_vector_2'> +1.8060000e-04 </wgt>
<wgt id='morphing_basis_vector_3'> +2.1801174e-04 </wgt>
<wgt id='morphing_basis_vector_4'> +7.4059480e-05 </wgt>
<wgt id='morphing_basis_vector_5'> +1.0737982e-04 </wgt>
</rwgt>
</event>
<event>
 4      1 +1.9425900e-05 4.51652500e+02 7.81860800e-03 9.51507300e-02
        2 -1    0    0  501    0 +0.0000000000e+00 +0.0000000000e+00 +1.4437800975e+02 1.4437800975e+02 0.0000000000e+00 0.0000e+00 -1.0000e+00
       -2 -1    0    0    0  501 -0.0000000000e+00 -0.0000000000e+00 -3.5322200823e+02 3.5322200823e+02 0.0000000000e+00 0.0000e+00 1.0000e+00
      -13  1    1    2    0    0 +1.0148950422e+02 +1.7401579137e+02 -2.1686278643e+02 2.9599169456e+02 0.0000000000e+00 0.0000e+00 1.0000e+00
       13  1    1    2    0    0 -1.0148950422e+02 -1.7401579137e+02 +8.0187879567e+00 2.0160832342e+02 0.0000000000e+00 0.0000e+00 -1.0000e+00
<mgrwt>
<rscale>  0 0.45165248E+03</rscale>
<asrwt>0</asrwt>
<pdfrwt beam="1">  1        2 0.22212002E-01 0.45165248E+03</pdfrwt>
<pdfrwt beam="2">  1       -2 0.54341847E-01 0.45165248E+03</pdfrwt>
<totfact> 0.10024566E+03</totfact>
</mgrwt>
<rwgt>
<wgt id='morphing_basis_vector_1'> +2.1560991e-04 </wgt>
<wgt id='morphing_basis_vector_2'> +1.1937110e-04 </wgt>
<wgt id='morphing_basis_vector_3'> +1.4558028e-04 </wgt>
<wgt id='morphing_basis_vector_4'> +4.1100340e-05 </wgt>
<wgt id='morphing_basis_vector_5'> +5.2465268e-05 </wgt>
</rwgt>
</event>
<event>
 4      1 +1.9425900e-05 4.46212300e+02 7.81860800e-03 9.52899800e-02
        2 -1    0    0  501    0 +0.0000000000e+00 +0.0000000000e+00 +7.3075916774e+02 7.3075916774e+02 0.0000000000e+00 0.0000e+00 -1.0000e+00
       -2 -1    0    0    0  501 -0.0000000000e+00 -0.0000000000e+00 -6.8115952250e+01 6.8115952250e+01 0.0000000000e+00 0.0000e+00 1.0000e+00
      -13  1    1    2    0    0 -1.6917408796e+02 +2.4286003665e+01 +7.4566326338e+01 1.8646667004e+02 0.0000000000e+00 0.0000e+00 1.0000e+00
       13  1    1    2    0    0 +1.6917408796e+02 -2.4286003665e+01 +5.8807688915e+02 6.1240844995e+02 0.0000000000e+00 0.0000e+00 -1.0000e+00
<mgrwt>
<rscale>  0 0.44621231E+03</rscale>
<asrwt>0</asrwt>
<pdfrwt beam="1">  1        2 0.11242448E+00 0.44621231E+03</pdfrwt>
<pdfrwt beam="2">  1       -2 0.10479378E-01 0.44621231E+03</pdfrwt>
<totfact> 0.26584047E+03</totfact>
</mgrwt>
<rwgt>
<wgt id='morphing_basis_vector_1'> +2.0763450e-04 </wgt>
<wgt id='morphing_basis_vector_2'> +1.1306378e-04 </wgt>
<wgt id='morphing_basis_vector_3'> +1.4019884e-04 </wgt>
<wgt id='morphing_basis_vector_4'> +3.8687993e-05 </wgt>
<wgt id='morphing_basis_vector_5'> +4.8404416e-05 </wgt>
</rwgt>
</event>
<event>
 4      1 +1.9425900e-05 4.36188100e+02 7.81860800e-03 9.55521100e-02
        2 -1    0    0  501    0 +0.0000000000e+00 +0.0000000000e+00 +9.7734437395e+02 9.7734437395e+02 0.0000000000e+00 0.0000e+00 -1.0000e+00
       -2 -1    0    0    0  501 -0.0000000000e+00 -0.0000000000e+00 -4.8667612438e+01 4.8667612438e+01 0.0000000000e+00 0.0000e+00 1.0000e+00
      -13  1    1    2    0    0 -9.1305540425e+01 +1.1502544310e+02 +8.5072221613e+01 1.6971987851e+02 0.0000000000e+00 0.0000e+00 1.0000e+00
       13  1    1    2    0    0 +9.1305540425e+01 -1.1502544310e+02 +8.4360453990e+02 8.5629210788e+02 0.0000000000e+00 0.0000e+00 -1.0000e+00
<mgrwt>
<rscale>  0 0.43618811E+03</rscale>
<asrwt>0</asrwt>
<pdfrwt beam="1">  1        2 0.15036066E+00 0.43618811E+03</pdfrwt>
<pdfrwt beam="2">  1       -2 0.74873257E-02 0.43618811E+03</pdfrwt>
<totfact> 0.30735976E+03</totfact>
</mgrwt>
<rwgt>
<wgt id='morphing_basis_vector_1'> +1.9463068e-04 </wgt>
<wgt id='morphing_basis_vector_2'> +1.0532697e-04 </wgt>
<wgt id='morphing_basis_vector_3'> +1.3008038e-04 </wgt>
<wgt id='morphing_basis_vector_4'> +3.4353835e-05 </wgt>
<wgt id='morphing_basis_vector_5'> +4.1520085e-05 </wgt>
</rwgt>
</event>
<event>
 4      1 +1.9425900e-05 4.89297100e+02 7.81860800e-03 9.42406200e-02
        2 -1    0    0  501    0 +0.0000000000e+00 +0.0000000000e+00 +7.9081479387e+02 7.9081479387e+02 0.0000000000e+00 0.0000e+00 1.0000e+00
       -2 -1    0    0    0  501 -0.0000000000e+00 -0.0000000000e+00 -7.5685106589e+01 7.5685106589e+01 0.0000000000e+00 0.0000e+00 -1.0000e+00
      -13  1    1    2    0    0 +1.8915514400e+01 -2.1404584980e+02 +5.6468897564e+02 6.0419124597e+02 0.0000000000e+00 0.0000e+00 -1.0000e+00
       13  1    1    2    0    0 -1.8915514400e+01 +2.1404584980e+02 +1.5044071164e+02 2.6230865449e+02 0.0000000000e+00 0.0000e+00 1.0000e+00
<mgrwt>
<rscale>  0 0.48929705E+03</rscale>
<asrwt>0</asrwt>
<pdfrwt beam="1">  1        2 0.12166381E+00 0.48929705E+03</pdfrwt>
<pdfrwt beam="2">  1       -2 0.11643863E-01 0.48929705E+03</pdfrwt>
<totfact> 0.20456586E+03</totfact>
</mgrwt>
<rwgt>
<wgt id='morphing_basis_vector_1'> +3.1427075e-04 </wgt>
<wgt id='morphing_basis_vector_2'> +2.8281429e-04 </wgt>
<wgt id='morphing_basis_vector_3'> +1.7263851e-04 </wgt>
<wgt id='morphing_basis_vector_4'> +4.7458540e-05 </wgt>
<wgt id='morphing_basis_vector_5'> +8.8268197e-05 </wgt>
</rwgt>
</event>
<event>
 4      1 +1.9425900e-05 4.92910000e+02 7.81860800e-03 9.41579000e-02
        2 -1    0    0  501    0 +0.0000000000e+00 +0.0000000000e+00 +3.4763750168e+02 3.4763750168e+02 0.0000000000e+00 0.0000e+00 1.0000e+00
       -2 -1    0    0    0  501 -0.0000000000e+00 -0.0000000000e+00 -1.7472241844e+02 1.7472241844e+02 0.0000000000e+00 0.0000e+00 -1.0000e+00
      -13  1    1    2    0    0 -2.0522071148e+02 +1.7039501366e+01 +2.2995128665e+02 3.0868022168e+02 0.0000000000e+00 0.0000e+00 1.0000e+00
       13  1    1    2    0    0 +2.0522071148e+02 -1.7039501366e+01 -5.7036203398e+01 2.1367969844e+02 0.0000000000e+00 0.0000e+00 -1.0000e+00
<mgrwt>
<rscale>  0 0.49290999E+03</rscale>
<asrwt>0</asrwt>
<pdfrwt beam="1">  1        2 0.53482692E-01 0.49290999E+03</pdfrwt>
<pdfrwt beam="2">  1       -2 0.26880372E-01 0.49290999E+03</pdfrwt>
<totfact> 0.13426971E+03</totfact>
</mgrwt>
<rwgt>
<wgt id='morphing_basis_vector_1'> +3.3087474e-04 </wgt>
<wgt id='morphing_basis_vector_2'> +3.1919549e-04 </wgt>
<wgt id='morphing_basis_vector_3'> +1.7373984e-04 </wgt>
<wgt id='morphing_basis_vector_4'> +4.5315795e-05 </wgt>
<wgt id='morphing_basis_vector_5'> +9.2534796e-05 </wgt>
</rwgt>
</event>
<event>
 4      1 +1.9425900e-05 4.86284500e+02 7.81860800e-03 9.43101900e-02
        2 -1    0    0  501    0 +0.0000000000e+00 +0.0000000000e+00 +5.7984379899e+02 5.7984379899e+02 0.0000000000e+00 0.0000e+00 1.0000e+00
       -2 -1    0    0    0  501 -0.0000000000e+00 -0.0000000000e+00 -1.0195531775e+02 1.0195531775e+02 0.0000000000e+00 0.0000e+00 -1.0000e+00
      -13  1    1    2    0    0 -2.1079522216e+02 +1.1512155503e+02 +1.8591454594e+02 3.0372984132e+02 0.0000000000e+00 0.0000e+00 -1.0000e+00
       13  1    1    2    0    0 +2.1079522216e+02 -1.1512155503e+02 +2.9197393531e+02 3.7806927542e+02 0.0000000000e+00 0.0000e+00 1.0000e+00
<mgrwt>
<rscale>  0 0.48628452E+03</rscale>
<asrwt>0</asrwt>
<pdfrwt beam="1">  1        2 0.89206736E-01 0.48628452E+03</pdfrwt>
<pdfrwt beam="2">  1       -2 0.15685434E-01 0.48628452E+03</pdfrwt>
<totfact> 0.18457109E+03</totfact>
</mgrwt>
<rwgt>
<wgt id='morphing_basis_vector_1'> +2.7079369e-04 </wgt>
<wgt id='morphing_basis_vector_2'> +1.6035678e-04 </wgt>
<wgt id='morphing_basis_vector_3'> +1.8636724e-04 </wgt>
<wgt id='morphing_basis_vector_4'> +5.9192172e-05 </wgt>
<wgt id='morphing_basis_vector_5'> +8.3446655e-05 </wgt>
</rwgt>
</event>
<event>
 4      1 +1.9425900e-05 4.97342900e+02 7.81860800e-03 9.40574300e-02
        2 -1    0    0  501    0 +0.0000000000e+00 +0.0000000000e+00 +2.0228879242e+02 2.0228879242e+02 0.0000000000e+00 0.0000e+00 -1.0000e+00
       -2 -1    0    0    0  501 -0.0000000000e+00 -0.0000000000e+00 -3.0568914759e+02 3.0568914759e+02 0.0000000000e+00 0.0000e+00 1.0000e+00
      -13  1    1    2    0    0 +2.3851922504e+02 +2.9515756980e+00 -1.2346905565e+02 2.6859772936e+02 0.0000000000e+00 0.0000e+00 1.0000e+00
       13  1    1    2    0    0 -2.3851922504e+02 -2.9515756980e+00 +2.0068700485e+01 2.3938021065e+02 0.0000000000e+00 0.0000e+00 -1.0000e+00
<mgrwt>
<rscale>  0 0.49734289E+03</rscale>
<asrwt>0</asrwt>
<pdfrwt beam="1">  1        2 0.31121353E-01 0.49734289E+03</pdfrwt>
<pdfrwt beam="2">  1       -2 0.47029099E-01 0.49734289E+03</pdfrwt>
<totfact> 0.89813870E+02</totfact>
</mgrwt>
<rwgt>
<wgt id='morphing_basis_vector_1'> +2.8749435e-04 </wgt>
<wgt id='morphing_basis_vector_2'> +1.6558435e-04 </wgt>
<wgt id='morphing_basis_vector_3'> +2.0294489e-04 </wgt>
<wgt id='morphing_basis_vector_4'> +6.7179674e-05 </wgt>
<wgt id='morphing_basis_vector_5'> +9.5264198e-05 </wgt>
</rwgt>
</event>
<event>
 4      1 +1.9425900e-05 4.45798600e+02 7.81860800e-03 9.53006500e-02
        2 -1    0    0  501    0 +0.0000000000e+00 +0.0000000000e+00 +7.9108962915e+01 7.9108962915e+01 0.0000000000e+00 0.0000e+00 -1.0000e+00
       -2 -1    0    0    0  501 -0.0000000000e+00 -0.0000000000e+00 -6.2804627146e+02 6.2804627146e+02 0.0000000000e+00 0.0000e+00 1.0000e+00
      -13  1    1    2    0    0 +1.7489985540e+02 +5.8205108751e+01 -4.7326709547e+02 5.0789717243e+02 0.0000000000e+00 0.0000e+00 1.0000e+00
       13  1    1    2    0    0 -1.7489985540e+02 -5.8205108751e+01 -7.5670213066e+01 1.9925806194e+02 0.0000000000e+00 0.0000e+00 -1.0000e+00
<mgrwt>
<rscale>  0 0.44579856E+03</rscale>
<asrwt>0</asrwt>
<pdfrwt beam="1">  1        2 0.12170610E-01 0.44579856E+03</pdfrwt>
<pdfrwt beam="2">  1       -2 0.96622502E-01 0.44579856E+03</pdfrwt>
<totfact> 0.60062686E+02</totfact>
</mgrwt>
<rwgt>
<wgt id='morphing_basis_vector_1'> +2.0731664e-04 </wgt>
<wgt id='morphing_basis_vector_2'> +1.1345477e-04 </wgt>
<wgt id='morphing_basis_vector_3'> +1.3960609e-04 </wgt>
<wgt id='morphing_basis_vector_4'> +3.8464036e-05 </wgt>
<wgt id='morphing_basis_vector_5'> +4.8119892e-05 </wgt>
</rwgt>
</event>
<event>
 4      1 +1.9425900e-05 5.01086600e+02 7.81860800e-03 9.39734500e-02
        2 -1    0    0  501    0 +0.0000000000e+00 +0.0000000000e+00 +4.4538534119e+02 4.4538534119e+02 0.0000000000e+00 0.0000e+00 -1.0000e+00
       -2 -1    0    0    0  501 -0.0000000000e+00 -0.0000000000e+00 -1.4093849018e+02 1.4093849018e+02 0.0000000000e+00 0.0000e+00 1.0000e+00
      -13  1    1    2    0    0 +1.8694523634e+02 +1.6575461426e+02 +1.3036957526e+02 2.8181437098e+02 0.0000000000e+00 0.0000e+00 1.0000e+00
       13  1    1    2    0    0 -1.8694523634e+02 -1.6575461426e+02 +1.7407727575e+02 3.0450946040e+02 0.0000000000e+00 0.0000e+00 -1.0000e+00
<mgrwt>
<rscale>  0 0.50108657E+03</rscale>
<asrwt>0</asrwt>
<pdfrwt beam="1">  1        2 0.68520821E-01 0.50108657E+03</pdfrwt>
<pdfrwt beam="2">  1       -2 0.21682845E-01 0.50108657E+03</pdfrwt>
<totfact> 0.14641540E+03</totfact>
</mgrwt>
<rwgt>
<wgt id='morphing_basis_vector_1'> +2.9813982e-04 </wgt>
<wgt id='morphing_basis_vector_2'> +1.8226551e-04 </wgt>
<wgt id='morphing_basis_vector_3'> +2.0681398e-04 </wgt>
<wgt id='morphing_basis_vector_4'> +6.8152687e-05 </wgt>
<wgt id='morphing_basis_vector_5'> +9.9701349e-05 </wgt>
</rwgt>
</event>
<event>
 4      1 +1.9425900e-05 4.47506300e+02 7.81860800e-03 9.52566700e-02
        2 -1    0    0  501    0 +0.0000000000e+00 +0.0000000000e+00 +1.6449320380e+02 1.6449320380e+02 0.0000000000e+00 0.0000e+00 -1.0000e+00
       -2 -1    0    0    0  501 -0.0000000000e+00 -0.0000000000e+00 -3.0436193325e+02 3.0436193325e+02 0.0000000000e+00 0.0000e+00 1.0000e+00
      -13  1    1    2    0    0 -1.8143937108e+02 +6.2641267442e+01 -1.9040370902e+02 2.7036594862e+02 0.0000000000e+00 0.0000e+00 1.0000e+00
       13  1    1    2    0    0 +1.8143937108e+02 -6.2641267442e+01 +5.0534979570e+01 1.9848918843e+02 0.0000000000e+00 0.0000e+00 -1.0000e+00
<mgrwt>
<rscale>  0 0.44750629E+03</rscale>
<asrwt>0</asrwt>
<pdfrwt beam="1">  1        2 0.25306647E-01 0.44750629E+03</pdfrwt>
<pdfrwt beam="2">  1       -2 0.46824912E-01 0.44750629E+03</pdfrwt>
<totfact> 0.11493963E+03</totfact>
</mgrwt>
<rwgt>
<wgt id='morphing_basis_vector_1'> +2.0975031e-04 </wgt>
<wgt id='morphing_basis_vector_2'> +1.1528706e-04 </wgt>
<wgt id='morphing_basis_vector_3'> +1.4129364e-04 </wgt>
<wgt id='morphing_basis_vector_4'> +3.9213624e-05 </wgt>
<wgt id='morphing_basis_vector_5'> +4.9365002e-05 </wgt>
</rwgt>
</event>
<event>
 4      1 +1.9425900e-05 4.37968700e+02 7.81860800e-03 9.55050100e-02
        2 -1    0    0  501    0 +0.0000000000e+00 +0.0000000000e+00 +9.0310302622e+02 9.0310302622e+02 0.0000000000e+00 0.0000e+00 1.0000e+00
       -2 -1    0    0    0  501 -0.0000000000e+00 -0.0000000000e+00 -5.3099297419e+01 5.3099297419e+01 0.0000000000e+00 0.0000e+00 -1.0000e+00
      -13  1    1    2    0    0 +1.3076315087e+02 +9.9201244252e+01 +7.4149455647e+02 7.5944326040e+02 0.0000000000e+00 0.0000e+00 1.0000e+00
       13  1    1    2    0    0 -1.3076315087e+02 -9.9201244252e+01 +1.0850917233e+02 1.9675906324e+02 0.0000000000e+00 0.0000e+00 -1.0000e+00
<mgrwt>
<rscale>  0 0.43796866E+03</rscale>
<asrwt>0</asrwt>
<pdfrwt beam="1">  1        2 0.13893892E+00 0.43796866E+03</pdfrwt>
<pdfrwt beam="2">  1       -2 0.81691233E-02 0.43796866E+03</pdfrwt>
<totfact> 0.29914030E+03</totfact>
</mgrwt>
<rwgt>
<wgt id='morphing_basis_vector_1'> +2.4617234e-04 </wgt>
<wgt id='morphing_basis_vector_2'> +2.5870536e-04 </wgt>
<wgt id='morphing_basis_vector_3'> +9.5640782e-05 </wgt>
<wgt id='morphing_basis_vector_4'> +2.9113786e-05 </wgt>
<wgt id='morphing_basis_vector_5'> +4.5586503e-05 </wgt>
</rwgt>
</event>
<event>
 4      1 +1.9425900e-05 4.53872500e+02 7.81860800e-03 9.50945000e-02
        2 -1    0    0  501    0 +0.0000000000e+00 +0.0000000000e+00 +5.6690277973e+02 5.6690277973e+02 0.0000000000e+00 0.0000e+00 1.0000e+00
       -2 -1    0    0    0  501 -0.0000000000e+00 -0.0000000000e+00 -9.0844597400e+01 9.0844597400e+01 0.0000000000e+00 0.0000e+00 -1.0000e+00
      -13  1    1    2    0    0 -1.2317479082e+02 +7.6627247422e+00 -3.7961909166e+01 1.2911952986e+02 0.0000000000e+00 0.0000e+00 -1.0000e+00
       13  1    1    2    0    0 +1.2317479082e+02 -7.6627247422e+00 +5.1402009150e+02 5.2862784727e+02 0.0000000000e+00 0.0000e+00 1.0000e+00
<mgrwt>
<rscale>  0 0.45387247E+03</rscale>
<asrwt>0</asrwt>
<pdfrwt beam="1">  1        2 0.87215809E-01 0.45387247E+03</pdfrwt>
<pdfrwt beam="2">  1       -2 0.13976092E-01 0.45387247E+03</pdfrwt>
<totfact> 0.22774913E+03</totfact>
</mgrwt>
<rwgt>
<wgt id='morphing_basis_vector_1'> +2.1761809e-04 </wgt>
<wgt id='morphing_basis_vector_2'> +1.1794015e-04 </wgt>
<wgt id='morphing_basis_vector_3'> +1.4869685e-04 </wgt>
<wgt id='morphing_basis_vector_4'> +4.2368646e-05 </wgt>
<wgt id='morphing_basis_vector_5'> +5.4110950e-05 </wgt>
</rwgt>
</event>
<event>
 4      1 +1.9425900e-05 4.44307500e+02 7.81860800e-03 9.53392300e-02
        2 -1    0    0  501    0 +0.0000000000e+00 +0.0000000000e+00 +7.2082844359e+02 7.2082844359e+02 0.0000000000e+00 0.0000e+00 -1.0000e+00
       -2 -1    0    0    0  501 -0.0000000000e+00 -0.0000000000e+00 -6.8466078245e+01 6.8466078245e+01 0.0000000000e+00 0.0000e+00 1.0000e+00
      -13  1    1    2    0    0 +9.0620578875e+01 -7.9353507961e+01 -5.4188777711e+00 1.2057542361e+02 0.0000000000e+00 0.0000e+00 1.0000e+00
       13  1    1    2    0    0 -9.0620578875e+01 +7.9353507961e+01 +6.5778124312e+02 6.6871909823e+02 0.0000000000e+00 0.0000e+00 -1.0000e+00
<mgrwt>
<rscale>  0 0.44430754E+03</rscale>
<asrwt>0</asrwt>
<pdfrwt beam="1">  1        2 0.11089668E+00 0.44430754E+03</pdfrwt>
<pdfrwt beam="2">  1       -2 0.10533243E-01 0.44430754E+03</pdfrwt>
<totfact> 0.26813739E+03</totfact>
</mgrwt>
<rwgt>
<wgt id='morphing_basis_vector_1'> +2.0485499e-04 </wgt>
<wgt id='morphing_basis_vector_2'> +1.1077353e-04 </wgt>
<wgt id='morphing_basis_vector_3'> +1.3839961e-04 </wgt>
<wgt id='morphing_basis_vector_4'> +3.7871103e-05 </wgt>
<wgt id='morphing_basis_vector_5'> +4.7029020e-05 </wgt>
</rwgt>
</event>
<event>
 4      1 +1.9425900e-05 5.01796200e+02 7.81860800e-03 9.39576300e-02
        2 -1    0    0  501    0 +0.0000000000e+00 +0.0000000000e+00 +1.5007782033e+03 1.5007782033e+03 0.0000000000e+00 0.0000e+00 1.0000e+00
       -2 -1    0    0    0  501 -0.0000000000e+00 -0.0000000000e+00 -4.1944809258e+01 4.1944809258e+01 0.0000000000e+00 0.0000e+00 -1.0000e+00
      -13  1    1    2    0    0 -1.5107317433e+01 -2.2580286528e+02 +3.9637668559e+02 4.5643142079e+02 0.0000000000e+00 0.0000e+00 -1.0000e+00
       13  1    1    2    0    0 +1.5107317433e+01 +2.2580286528e+02 +1.0624567085e+03 1.0862915918e+03 0.0000000000e+00 0.0000e+00 1.0000e+00
<mgrwt>
<rscale>  0 0.50179620E+03</rscale>
<asrwt>0</asrwt>
<pdfrwt beam="1">  1        2 0.23088891E+00 0.50179620E+03</pdfrwt>
<pdfrwt beam="2">  1       -2 0.64530487E-02 0.50179620E+03</pdfrwt>
<totfact> 0.19437997E+03</totfact>
</mgrwt>
<rwgt>
<wgt id='morphing_basis_vector_1'> +2.9373040e-04 </wgt>
<wgt id='morphing_basis_vector_2'> +1.6544009e-04 </wgt>
<wgt id='morphing_basis_vector_3'> +2.1017935e-04 </wgt>
<wgt id='morphing_basis_vector_4'> +7.0954860e-05 </wgt>
<wgt id='morphing_basis_vector_5'> +1.0030055e-04 </wgt>
</rwgt>
</event>
<event>
 4      1 +1.9425900e-05 5.09356400e+02 7.81860800e-03 9.37907200e-02
        2 -1    0    0  501    0 +0.0000000000e+00 +0.0000000000e+00 +5.0687562522e+02 5.0687562522e+02 0.0000000000e+00 0.0000e+00 -1.0000e+00
       -2 -1    0    0    0  501 -0.0000000000e+00 -0.0000000000e+00 -1.2796231099e+02 1.2796231099e+02 0.0000000000e+00 0.0000e+00 1.0000e+00
      -13  1    1    2    0    0 -2.4905691977e+02 -3.9356738847e+01 +2.3409410088e+02 3.4406155008e+02 0.0000000000e+00 0.0000e+00 1.0000e+00
       13  1    1    2    0    0 +2.4905691977e+02 +3.9356738847e+01 +1.4481921335e+02 2.9077638613e+02 0.0000000000e+00 0.0000e+00 -1.0000e+00
<mgrwt>
<rscale>  0 0.50935636E+03</rscale>
<asrwt>0</asrwt>
<pdfrwt beam="1">  1        2 0.77980864E-01 0.50935636E+03</pdfrwt>
<pdfrwt beam="2">  1       -2 0.19686510E-01 0.50935636E+03</pdfrwt>
<totfact> 0.14860525E+03</totfact>
</mgrwt>
<rwgt>
<wgt id='morphing_basis_vector_1'> +3.2225330e-04 </wgt>
<wgt id='morphing_basis_vector_2'> +2.1990540e-04 </wgt>
<wgt id='morphing_basis_vector_3'> +2.1627139e-04 </wgt>
<wgt id='morphing_basis_vector_4'> +7.0059156e-05 </wgt>
<wgt id='morphing_basis_vector_5'> +1.0992431e-04 </wgt>
</rwgt>
</event>
<event>
 4      1 +1.9425900e-05 5.02995100e+02 7.81860800e-03 9.39309500e-02
        2 -1    0    0  501    0 +0.0000000000e+00 +0.0000000000e+00 +5.2721044602e+02 5.2721044602e+02 0.0000000000e+00 0.0000e+00 -1.0000e+00
       -2 -1    0    0    0  501 -0.0000000000e+00 -0.0000000000e+00 -1.1997301753e+02 1.1997301753e+02 0.0000000000e+00 0.0000e+00 1.0000e+00
      -13  1    1    2    0    0 -7.5539011101e+01 +9.0299164107e+01 -8.2329440087e+01 1.4366007776e+02 0.0000000000e+00 0.0000e+00 1.0000e+00
       13  1    1    2    0    0 +7.5539011101e+01 -9.0299164107e+01 +4.8956686857e+02 5.0352338579e+02 0.0000000000e+00 0.0000e+00 -1.0000e+00
<mgrwt>
<rscale>  0 0.50299514E+03</rscale>
<asrwt>0</asrwt>
<pdfrwt beam="1">  1        2 0.81109298E-01 0.50299514E+03</pdfrwt>
<pdfrwt beam="2">  1       -2 0.18457388E-01 0.50299514E+03</pdfrwt>
<totfact> 0.15802382E+03</totfact>
</mgrwt>
<rwgt>
<wgt id='morphing_basis_vector_1'> +2.9423140e-04 </wgt>
<wgt id='morphing_basis_vector_2'> +1.6167105e-04 </wgt>
<wgt id='morphing_basis_vector_3'> +2.1262632e-04 </wgt>
<wgt id='morphing_basis_vector_4'> +7.2497905e-05 </wgt>
<wgt id='morphing_basis_vector_5'> +1.0164059e-04 </wgt>
</rwgt>
</event>
<event>
 4      1 +1.9425900e-05 4.78177300e+02 7.81860800e-03 9.45001400e-02
        2 -1    0    0  501    0 +0.0000000000e+00 +0.0000000000e+00 +4.3435096803e+02 4.3435096803e+02 0.0000000000e+00 0.0000e+00 -1.0000e+00
       -2 -1    0    0    0  501 -0.0000000000e+00 -0.0000000000e+00 -1.3160644564e+02 1.3160644564e+02 0.0000000000e+00 0.0000e+00 1.0000e+00
      -13  1    1    2    0    0 -2.0497322954e+02 -7.5109282920e+01 +2.6678092284e+02 3.4471363477e+02 0.0000000000e+00 0.0000e+00 1.0000e+00
       13  1    1    2    0    0 +2.0497322954e+02 +7.5109282920e+01 +3.5963599554e+01 2.2124377890e+02 0.0000000000e+00 0.0000e+00 -1.0000e+00
<mgrwt>
<rscale>  0 0.47817732E+03</rscale>
<asrwt>0</asrwt>
<pdfrwt beam="1">  1        2 0.66823225E-01 0.47817732E+03</pdfrwt>
<pdfrwt beam="2">  1       -2 0.20247146E-01 0.47817732E+03</pdfrwt>
<totfact> 0.16868808E+03</totfact>
</mgrwt>
<rwgt>
<wgt id='morphing_basis_vector_1'> +2.8588340e-04 </wgt>
<wgt id='morphing_basis_vector_2'> +2.3967361e-04 </wgt>
<wgt id='morphing_basis_vector_3'> +1.6081678e-04 </wgt>
<wgt id='morphing_basis_vector_4'> +4.5699734e-05 </wgt>
<wgt id='morphing_basis_vector_5'> +7.6716110e-05 </wgt>
</rwgt>
</event>
<event>
 4      1 +1.9425900e-05 4.83845300e+02 7.81860800e-03 9.43669200e-02
        2 -1    0    0  501    0 +0.0000000000e+00 +0.0000000000e+00 +8.5152290183e+02 8.5152290183e+02 0.0000000000e+00 0.0000e+00 -1.0000e+00
       -2 -1    0    0    0  501 -0.0000000000e+00 -0.0000000000e+00 -6.8731650688e+01 6.8731650688e+01 0.0000000000e+00 0.0000e+00 1.0000e+00
      -13  1    1    2    0    0 +7.0624305868e+01 +1.8542667127e+02 +1.2815628297e+02 2.3620938987e+02 0.0000000000e+00 0.0000e+00 1.0000e+00
       13  1    1    2    0    0 -7.0624305868e+01 -1.8542667127e+02 +6.5463496817e+02 6.8404516265e+02 0.0000000000e+00 0.0000e+00 -1.0000e+00
<mgrwt>
<rscale>  0 0.48384533E+03</rscale>
<asrwt>0</asrwt>
<pdfrwt beam="1">  1        2 0.13100352E+00 0.48384533E+03</pdfrwt>
<pdfrwt beam="2">  1       -2 0.10574101E-01 0.48384533E+03</pdfrwt>
<totfact> 0.21651553E+03</totfact>
</mgrwt>
<rwgt>
<wgt id='morphing_basis_vector_1'> +2.6268914e-04 </wgt>
<wgt id='morphing_basis_vector_2'> +1.4515140e-04 </wgt>
<wgt id='morphing_basis_vector_3'> +1.8506785e-04 </wgt>
<wgt id='morphing_basis_vector_4'> +5.9049508e-05 </wgt>
<wgt id='morphing_basis_vector_5'> +8.0775371e-05 </wgt>
</rwgt>
</event>
<event>
 4      1 +1.9425900e-05 4.55741100e+02 7.81860800e-03 9.50474300e-02
        2 -1    0    0  501    0 +0.0000000000e+00 +0.0000000000e+00 +5.7572766784e+02 5.7572766784e+02 0.0000000000e+00 0.0000e+00 -1.0000e+00
       -2 -1    0    0    0  501 -0.0000000000e+00 -0.0000000000e+00 -9.0190185415e+01 9.0190185415e+01 0.0000000000e+00 0.0000e+00 1.0000e+00
      -13  1    1    2    0    0 +5.0096076369e+00 -1.1782926978e+02 -4.2127389466e+01 1.2523398073e+02 0.0000000000e+00 0.0000e+00 1.0000e+00
       13  1    1    2    0    0 -5.0096076369e+00 +1.1782926978e+02 +5.2766487190e+02 5.4068387253e+02 0.0000000000e+00 0.0000e+00 -1.0000e+00
<mgrwt>
<rscale>  0 0.45574109E+03</rscale>
<asrwt>0</asrwt>
<pdfrwt beam="1">  1        2 0.88573485E-01 0.45574109E+03</pdfrwt>
<pdfrwt beam="2">  1       -2 0.13875414E-01 0.45574109E+03</pdfrwt>
<totfact> 0.22635037E+03</totfact>
</mgrwt>
<rwgt>
<wgt id='morphing_basis_vector_1'> +2.2017632e-04 </wgt>
<wgt id='morphing_basis_vector_2'> +1.1935021e-04 </wgt>
<wgt id='morphing_basis_vector_3'> +1.5079289e-04 </wgt>
<wgt id='morphing_basis_vector_4'> +4.3297897e-05 </wgt>
<wgt id='morphing_basis_vector_5'> +5.5570217e-05 </wgt>
</rwgt>
</event>
<event>
 4      1 +1.9425900e-05 4.43474200e+02 7.81860800e-03 9.53608600e-02
        2 -1    0    0  501    0 +0.0000000000e+00 +0.0000000000e+00 +1.3297004778e+02 1.3297004778e+02 0.0000000000e+00 0.0000e+00 -1.0000e+00
       -2 -1    0    0    0  501 -0.0000000000e+00 -0.0000000000e+00 -3.6976250516e+02 3.6976250516e+02 0.0000000000e+00 0.0000e+00 1.0000e+00
      -13  1    1    2    0    0 -4.6454358322e+01 +5.0947191509e+01 -3.5730231358e+02 3.6389362047e+02 0.0000000000e+00 0.0000e+00 1.0000e+00
       13  1    1    2    0    0 +4.6454358322e+01 -5.0947191509e+01 +1.2050985620e+02 1.3883893247e+02 0.0000000000e+00 0.0000e+00 -1.0000e+00
<mgrwt>
<rscale>  0 0.44347418E+03</rscale>
<asrwt>0</asrwt>
<pdfrwt beam="1">  1        2 0.20456931E-01 0.44347418E+03</pdfrwt>
<pdfrwt beam="2">  1       -2 0.56886538E-01 0.44347418E+03</pdfrwt>
<totfact> 0.10084708E+03</totfact>
</mgrwt>
<rwgt>
<wgt id='morphing_basis_vector_1'> +2.0372437e-04 </wgt>
<wgt id='morphing_basis_vector_2'> +1.1001572e-04 </wgt>
<wgt id='morphing_basis_vector_3'> +1.3756773e-04 </wgt>
<wgt id='morphing_basis_vector_4'> +3.7505627e-05 </wgt>
<wgt id='morphing_basis_vector_5'> +4.6439511e-05 </wgt>
</rwgt>
</event>
<event>
 4      1 +1.9425900e-05 4.46164000e+02 7.81860800e-03 9.52912200e-02
        2 -1    0    0  501    0 +0.0000000000e+00 +0.0000000000e+00 +9.5284631879e+01 9.5284631879e+01 0.0000000000e+00 0.0000e+00 -1.0000e+00
       -2 -1    0    0    0  501 -0.0000000000e+00 -0.0000000000e+00 -5.2228334566e+02 5.2228334566e+02 0.0000000000e+00 0.0000e+00 1.0000e+00
      -13  1    1    2    0    0 +1.9835714643e+02 -9.8370859445e+01 -1.7576464828e+02 2.8269346493e+02 0.0000000000e+00 0.0000e+00 1.0000e+00
       13  1    1    2    0    0 -1.9835714643e+02 +9.8370859445e+01 -2.5123406550e+02 3.3487451261e+02 0.0000000000e+00 0.0000e+00 -1.0000e+00
<mgrwt>
<rscale>  0 0.44616399E+03</rscale>
<asrwt>0</asrwt>
<pdfrwt beam="1">  1        2 0.14659174E-01 0.44616399E+03</pdfrwt>
<pdfrwt beam="2">  1       -2 0.80351284E-01 0.44616399E+03</pdfrwt>
<totfact> 0.72861176E+02</totfact>
</mgrwt>
<rwgt>
<wgt id='morphing_basis_vector_1'> +2.1754826e-04 </wgt>
<wgt id='morphing_basis_vector_2'> +1.4384959e-04 </wgt>
<wgt id='morphing_basis_vector_3'> +1.3326610e-04 </wgt>
<wgt id='morphing_basis_vector_4'> +3.7069274e-05 </wgt>
<wgt id='morphing_basis_vector_5'> +4.8935020e-05 </wgt>
</rwgt>
</event>
<event>
 4      1 +1.9425900e-05 4.36684500e+02 7.81860800e-03 9.55389600e-02
        2 -1    0    0  501    0 +0.0000000000e+00 +0.0000000000e+00 +1.2115731528e+02 1.2115731528e+02 0.0000000000e+00 0.0000e+00 1.0000e+00
       -2 -1    0    0    0  501 -0.0000000000e+00 -0.0000000000e+00 -3.9348299846e+02 3.9348299846e+02 0.0000000000e+00 0.0000e+00 -1.0000e+00
      -13  1    1    2    0    0 +6.4951308005e+01 -1.9815005289e+02 -5.9865986791e+01 2.1694711855e+02 0.0000000000e+00 0.0000e+00 -1.0000e+00
       13  1    1    2    0    0 -6.4951308005e+01 +1.9815005289e+02 -2.1245969639e+02 2.9769319519e+02 0.0000000000e+00 0.0000e+00 1.0000e+00
<mgrwt>
<rscale>  0 0.43668453E+03</rscale>
<asrwt>0</asrwt>
<pdfrwt beam="1">  1        2 0.18639587E-01 0.43668453E+03</pdfrwt>
<pdfrwt beam="2">  1       -2 0.60535845E-01 0.43668453E+03</pdfrwt>
<totfact> 0.99398704E+02</totfact>
</mgrwt>
<rwgt>
<wgt id='morphing_basis_vector_1'> +2.1257518e-04 </wgt>
<wgt id='morphing_basis_vector_2'> +1.5910971e-04 </wgt>
<wgt id='morphing_basis_vector_3'> +1.1772856e-04 </wgt>
<wgt id='morphing_basis_vector_4'> +3.2563384e-05 </wgt>
<wgt id='morphing_basis_vector_5'> +4.2866908e-05 </wgt>
</rwgt>
</event>
<event>
 4      1 +1.9425900e-05 4.31675500e+02 7.81860800e-03 9.56725600e-02
        2 -1    0    0  501    0 +0.0000000000e+00 +0.0000000000e+00 +6.1242534332e+02 6.1242534332e+02 0.0000000000e+00 0.0000e+00 -1.0000e+00
       -2 -1    0    0    0  501 -0.0000000000e+00 -0.0000000000e+00 -7.6067955917e+01 7.6067955917e+01 0.0000000000e+00 0.0000e+00 1.0000e+00
      -13  1    1    2    0    0 +2.0251074234e+02 +3.2234326751e+01 +3.7560057300e+02 4.2793158685e+02 0.0000000000e+00 0.0000e+00 1.0000e+00
       13  1    1    2    0    0 -2.0251074234e+02 -3.2234326751e+01 +1.6075681441e+02 2.6056171239e+02 0.0000000000e+00 0.0000e+00 -1.0000e+00
<mgrwt>
<rscale>  0 0.43167554E+03</rscale>
<asrwt>0</asrwt>
<pdfrwt beam="1">  1        2 0.94219280E-01 0.43167554E+03</pdfrwt>
<pdfrwt beam="2">  1       -2 0.11702763E-01 0.43167554E+03</pdfrwt>
<totfact> 0.27575805E+03</totfact>
</mgrwt>
<rwgt>
<wgt id='morphing_basis_vector_1'> +2.0670514e-04 </wgt>
<wgt id='morphing_basis_vector_2'> +1.5653492e-04 </wgt>
<wgt id='morphing_basis_vector_3'> +1.1214375e-04 </wgt>
<wgt id='morphing_basis_vector_4'> +3.0918416e-05 </wgt>
<wgt id='morphing_basis_vector_5'> +3.9704380e-05 </wgt>
</rwgt>
</event>
<event>
 4      1 +1.9425900e-05 4.41643000e+02 7.81860800e-03 9.54085600e-02
        2 -1    0    0  501    0 +0.0000000000e+00 +0.0000000000e+00 +2.6791893119e+02 2.6791893119e+02 0.0000000000e+00 0.0000e+00 -1.0000e+00
       -2 -1    0    0    0  501 -0.0000000000e+00 -0.0000000000e+00 -1.8200328952e+02 1.8200328952e+02 0.0000000000e+00 0.0000e+00 1.0000e+00
      -13  1    1    2    0    0 -4.7936504341e+00 -5.7903472715e+01 -1.7407663513e+02 1.8351693691e+02 0.0000000000e+00 0.0000e+00 1.0000e+00
       13  1    1    2    0    0 +4.7936504341e+00 +5.7903472715e+01 +2.5999227680e+02 2.6640528379e+02 0.0000000000e+00 0.0000e+00 -1.0000e+00
<mgrwt>
<rscale>  0 0.44164296E+03</rscale>
<asrwt>0</asrwt>
<pdfrwt beam="1">  1        2 0.41218297E-01 0.44164296E+03</pdfrwt>
<pdfrwt beam="2">  1       -2 0.28000506E-01 0.44164296E+03</pdfrwt>
<totfact> 0.16713280E+03</totfact>
</mgrwt>
<rwgt>
<wgt id='morphing_basis_vector_1'> +2.0136438e-04 </wgt>
<wgt id='morphing_basis_vector_2'> +1.0869275e-04 </wgt>
<wgt id='morphing_basis_vector_3'> +1.3568147e-04 </wgt>
<wgt id='morphing_basis_vector_4'> +3.6696783e-05 </wgt>
<wgt id='morphing_basis_vector_5'> +4.5166980e-05 </wgt>
</rwgt>
</event>
<event>
 4      1 +1.9425900e-05 4.99689400e+02 7.81860800e-03 9.40047000e-02
        2 -1    0    0  501    0 +0.0000000000e+00 +0.0000000000e+00 +6.2454823412e+02 6.2454823412e+02 0.0000000000e+00 0.0000e+00 1.0000e+00
       -2 -1    0    0    0  501 -0.0000000000e+00 -0.0000000000e+00 -9.9948051814e+01 9.9948051814e+01 0.0000000000e+00 0.0000e+00 -1.0000e+00
      -13  1    1    2    0    0 -9.1884558219e+01 +1.0654370213e+02 -3.7052985144e+01 1.4548971170e+02 0.0000000000e+00 0.0000e+00 -1.0000e+00
       13  1    1    2    0    0 +9.1884558219e+01 -1.0654370213e+02 +5.6165316745e+02 5.7900657423e+02 0.0000000000e+00 0.0000e+00 1.0000e+00
<mgrwt>
<rscale>  0 0.49968942E+03</rscale>
<asrwt>0</asrwt>
<pdfrwt beam="1">  1        2 0.96084341E-01 0.49968942E+03</pdfrwt>
<pdfrwt beam="2">  1       -2 0.15376624E-01 0.49968942E+03</pdfrwt>
<totfact> 0.17482149E+03</totfact>
</mgrwt>
<rwgt>
<wgt id='morphing_basis_vector_1'> +2.8850308e-04 </wgt>
<wgt id='morphing_basis_vector_2'> +1.5849250e-04 </wgt>
<wgt id='morphing_basis_vector_3'> +2.0767742e-04 </wgt>
<wgt id='morphing_basis_vector_4'> +7.0046730e-05 </wgt>
<wgt id='morphing_basis_vector_5'> +9.7804237e-05 </wgt>
</rwgt>
</event>
<event>
 4      1 +1.9425900e-05 4.45899500e+02 7.81860800e-03 9.52980500e-02
        2 -1    0    0  501    0 +0.0000000000e+00 +0.0000000000e+00 +1.7730075857e+03 1.7730075857e+03 0.0000000000e+00 0.0000e+00 -1.0000e+00
       -2 -1    0    0    0  501 -0.0000000000e+00 -0.0000000000e+00 -2.8035179446e+01 2.8035179446e+01 0.0000000000e+00 0.0000e+00 1.0000e+00
      -13  1    1    2    0    0 +1.9307503588e+02 -7.0468863819e+01 +5.2355752005e+02 5.6245560452e+02 0.0000000000e+00 0.0000e+00 1.0000e+00
       13  1    1    2    0    0 -1.9307503588e+02 +7.0468863819e+01 +1.2214148862e+03 1.2385871607e+03 0.0000000000e+00 0.0000e+00 -1.0000e+00
<mgrwt>
<rscale>  0 0.44589948E+03</rscale>
<asrwt>0</asrwt>
<pdfrwt beam="1">  1        2 0.27277031E+00 0.44589948E+03</pdfrwt>
<pdfrwt beam="2">  1       -2 0.43131059E-02 0.44589948E+03</pdfrwt>
<totfact> 0.25525285E+03</totfact>
</mgrwt>
<rwgt>
<wgt id='morphing_basis_vector_1'> +2.0827935e-04 </wgt>
<wgt id='morphing_basis_vector_2'> +1.1609405e-04 </wgt>
<wgt id='morphing_basis_vector_3'> +1.3913877e-04 </wgt>
<wgt id='morphing_basis_vector_4'> +3.8377933e-05 </wgt>
<wgt id='morphing_basis_vector_5'> +4.8239403e-05 </wgt>
</rwgt>
</event>
<event>
 4      1 +1.9425900e-05 4.31348100e+02 7.81860800e-03 9.56813600e-02
        2 -1    0    0  501    0 +0.0000000000e+00 +0.0000000000e+00 +7.3116335486e+02 7.3116335486e+02 0.0000000000e+00 0.0000e+00 -1.0000e+00
       -2 -1    0    0    0  501 -0.0000000000e+00 -0.0000000000e+00 -6.3618191788e+01 6.3618191788e+01 0.0000000000e+00 0.0000e+00 1.0000e+00
      -13  1    1    2    0    0 -2.0174777312e+02 -7.3799486019e+01 +2.9848577639e+02 3.6775302419e+02 0.0000000000e+00 0.0000e+00 1.0000e+00
       13  1    1    2    0    0 +2.0174777312e+02 +7.3799486019e+01 +3.6905938668e+02 4.2702852246e+02 0.0000000000e+00 0.0000e+00 -1.0000e+00
<mgrwt>
<rscale>  0 0.43134808E+03</rscale>
<asrwt>0</asrwt>
<pdfrwt beam="1">  1        2 0.11248666E+00 0.43134808E+03</pdfrwt>
<pdfrwt beam="2">  1       -2 0.97874146E-02 0.43134808E+03</pdfrwt>
<totfact> 0.29541898E+03</totfact>
</mgrwt>
<rwgt>
<wgt id='morphing_basis_vector_1'> +1.9287588e-04 </wgt>
<wgt id='morphing_basis_vector_2'> +1.1492459e-04 </wgt>
<wgt id='morphing_basis_vector_3'> +1.2214882e-04 </wgt>
<wgt id='morphing_basis_vector_4'> +3.2021971e-05 </wgt>
<wgt id='morphing_basis_vector_5'> +3.8693315e-05 </wgt>
</rwgt>
</event>
<event>
 4      1 +1.9425900e-05 4.49901100e+02 7.81860800e-03 9.51953400e-02
        2 -1    0    0  501    0 +0.0000000000e+00 +0.0000000000e+00 +4.2002368829e+02 4.2002368829e+02 0.0000000000e+00 0.0000e+00 1.0000e+00
       -2 -1    0    0    0  501 -0.0000000000e+00 -0.0000000000e+00 -1.2047594503e+02 1.2047594503e+02 0.0000000000e+00 0.0000e+00 -1.0000e+00
      -13  1    1    2    0    0 -2.0940033094e+02 +8.1837577159e+01 +1.4071458927e+02 2.6522911467e+02 0.0000000000e+00 0.0000e+00 -1.0000e+00
       13  1    1    2    0    0 +2.0940033094e+02 -8.1837577159e+01 +1.5883315398e+02 2.7527051865e+02 0.0000000000e+00 0.0000e+00 1.0000e+00
<mgrwt>
<rscale>  0 0.44990110E+03</rscale>
<asrwt>0</asrwt>
<pdfrwt beam="1">  1        2 0.64619029E-01 0.44990110E+03</pdfrwt>
<pdfrwt beam="2">  1       -2 0.18534761E-01 0.44990110E+03</pdfrwt>
<totfact> 0.20242212E+03</totfact>
</mgrwt>
<rwgt>
<wgt id='morphing_basis_vector_1'> +2.1824108e-04 </wgt>
<wgt id='morphing_basis_vector_2'> +1.3346595e-04 </wgt>
<wgt id='morphing_basis_vector_3'> +1.4032366e-04 </wgt>
<wgt id='morphing_basis_vector_4'> +3.9386428e-05 </wgt>
<wgt id='morphing_basis_vector_5'> +5.1426093e-05 </wgt>
</rwgt>
</event>
<event>
 4      1 +1.9425900e-05 5.00907200e+02 7.81860800e-03 9.39774600e-02
        2 -1    0    0  501    0 +0.0000000000e+00 +0.0000000000e+00 +9.7164216571e+02 9.7164216571e+02 0.0000000000e+00 0.0000e+00 -1.0000e+00
       -2 -1    0    0    0  501 -0.0000000000e+00 -0.0000000000e+00 -6.4557713350e+01 6.4557713350e+01 0.0000000000e+00 0.0000e+00 1.0000e+00
      -13  1    1    2    0    0 +1.4610007037e+02 -1.2268019931e+02 +1.1786434066e+02 2.2424911296e+02 0.0000000000e+00 0.0000e+00 1.0000e+00
       13  1    1    2    0    0 -1.4610007037e+02 +1.2268019931e+02 +7.8922011170e+02 8.1195076610e+02 0.0000000000e+00 0.0000e+00 -1.0000e+00
<mgrwt>
<rscale>  0 0.50090716E+03</rscale>
<asrwt>0</asrwt>
<pdfrwt beam="1">  1        2 0.14948340E+00 0.50090716E+03</pdfrwt>
<pdfrwt beam="2">  1       -2 0.99319566E-02 0.50090716E+03</pdfrwt>
<totfact> 0.20023906E+03</totfact>
</mgrwt>
<rwgt>
<wgt id='morphing_basis_vector_1'> +2.9100757e-04 </wgt>
<wgt id='morphing_basis_vector_2'> +1.6091493e-04 </wgt>
<wgt id='morphing_basis_vector_3'> +2.0932401e-04 </wgt>
<wgt id='morphing_basis_vector_4'> +7.0778633e-05 </wgt>
<wgt id='morphing_basis_vector_5'> +9.9222077e-05 </wgt>
</rwgt>
</event>
<event>
 4      1 +1.9425900e-05 4.64490100e+02 7.81860800e-03 9.48301600e-02
        2 -1    0    0  501    0 +0.0000000000e+00 +0.0000000000e+00 +5.2994298508e+02 5.2994298508e+02 0.0000000000e+00 0.0000e+00 1.0000e+00
       -2 -1    0    0    0  501 -0.0000000000e+00 -0.0000000000e+00 -1.0178033286e+02 1.0178033286e+02 0.0000000000e+00 0.0000e+00 -1.0000e+00
      -13  1    1    2    0    0 -1.3706001007e+02 -4.2217974826e+01 -3.4362558213e+01 1.4747402878e+02 0.0000000000e+00 0.0000e+00 -1.0000e+00
       13  1    1    2    0    0 +1.3706001007e+02 +4.2217974826e+01 +4.6252521043e+02 4.8424928915e+02 0.0000000000e+00 0.0000e+00 1.0000e+00
<mgrwt>
<rscale>  0 0.46449014E+03</rscale>
<asrwt>0</asrwt>
<pdfrwt beam="1">  1        2 0.81529688E-01 0.46449014E+03</pdfrwt>
<pdfrwt beam="2">  1       -2 0.15658513E-01 0.46449014E+03</pdfrwt>
<totfact> 0.20507929E+03</totfact>
</mgrwt>
<rwgt>
<wgt id='morphing_basis_vector_1'> +2.3262572e-04 </wgt>
<wgt id='morphing_basis_vector_2'> +1.2656092e-04 </wgt>
<wgt id='morphing_basis_vector_3'> +1.6087050e-04 </wgt>
<wgt id='morphing_basis_vector_4'> +4.7836809e-05 </wgt>
<wgt id='morphing_basis_vector_5'> +6.2753009e-05 </wgt>
</rwgt>
</event>
<event>
 4      1 +1.9425900e-05 4.94617600e+02 7.81860800e-03 9.41190600e-02
        2 -1    0    0  501    0 +0.0000000000e+00 +0.0000000000e+00 +1.7957416165e+02 1.7957416165e+02 0.0000000000e+00 0.0000e+00 -1.0000e+00
       -2 -1    0    0    0  501 -0.0000000000e+00 -0.0000000000e+00 -3.4059264710e+02 3.4059264710e+02 0.0000000000e+00 0.0000e+00 1.0000e+00
      -13  1    1    2    0    0 -4.8026338558e+01 +2.0032022182e+02 -2.2442430332e+02 3.0463254650e+02 0.0000000000e+00 0.0000e+00 1.0000e+00
       13  1    1    2    0    0 +4.8026338558e+01 -2.0032022182e+02 +6.3405817874e+01 2.1553426225e+02 0.0000000000e+00 0.0000e+00 -1.0000e+00
<mgrwt>
<rscale>  0 0.49461759E+03</rscale>
<asrwt>0</asrwt>
<pdfrwt beam="1">  1        2 0.27626794E-01 0.49461759E+03</pdfrwt>
<pdfrwt beam="2">  1       -2 0.52398869E-01 0.49461759E+03</pdfrwt>
<totfact> 0.83526761E+02</totfact>
</mgrwt>
<rwgt>
<wgt id='morphing_basis_vector_1'> +2.8055345e-04 </wgt>
<wgt id='morphing_basis_vector_2'> +1.5576610e-04 </wgt>
<wgt id='morphing_basis_vector_3'> +1.9997884e-04 </wgt>
<wgt id='morphing_basis_vector_4'> +6.6162022e-05 </wgt>
<wgt id='morphing_basis_vector_5'> +9.2136887e-05 </wgt>
</rwgt>
</event>
<event>
 4      1 +1.9425900e-05 5.12603700e+02 7.81860800e-03 9.37199700e-02
        2 -1    0    0  501    0 +0.0000000000e+00 +0.0000000000e+00 +1.2117249602e+02 1.2117249602e+02 0.0000000000e+00 0.0000e+00 -1.0000e+00
       -2 -1    0    0    0  501 -0.0000000000e+00 -0.0000000000e+00 -5.4212495896e+02 5.4212495896e+02 0.0000000000e+00 0.0000e+00 1.0000e+00
      -13  1    1    2    0    0 -9.7256364547e+01 +9.2464295763e+01 +7.2079873370e+01 1.5232844311e+02 0.0000000000e+00 0.0000e+00 -1.0000e+00
       13  1    1    2    0    0 +9.7256364547e+01 -9.2464295763e+01 -4.9303233632e+02 5.1096901187e+02 0.0000000000e+00 0.0000e+00 1.0000e+00
<mgrwt>
<rscale>  0 0.51260368E+03</rscale>
<asrwt>0</asrwt>
<pdfrwt beam="1">  1        2 0.18641923E-01 0.51260368E+03</pdfrwt>
<pdfrwt beam="2">  1       -2 0.83403838E-01 0.51260368E+03</pdfrwt>
<totfact> 0.50004561E+02</totfact>
</mgrwt>
<rwgt>
<wgt id='morphing_basis_vector_1'> +4.1673305e-04 </wgt>
<wgt id='morphing_basis_vector_2'> +4.9828273e-04 </wgt>
<wgt id='morphing_basis_vector_3'> +1.9048648e-04 </wgt>
<wgt id='morphing_basis_vector_4'> +3.2403131e-05 </wgt>
<wgt id='morphing_basis_vector_5'> +1.1714091e-04 </wgt>
</rwgt>
</event>
<event>
 4      1 +1.9425900e-05 4.90651600e+02 7.81860800e-03 9.42095200e-02
        2 -1    0    0  501    0 +0.0000000000e+00 +0.0000000000e+00 +1.3192352991e+02 1.3192352991e+02 0.0000000000e+00 0.0000e+00 -1.0000e+00
       -2 -1    0    0    0  501 -0.0000000000e+00 -0.0000000000e+00 -4.5620929185e+02 4.5620929185e+02 0.0000000000e+00 0.0000e+00 1.0000e+00
      -13  1    1    2    0    0 +1.1715456203e+02 -8.0188341851e+01 +7.7680571166e+01 1.6183211273e+02 0.0000000000e+00 0.0000e+00 -1.0000e+00
       13  1    1    2    0    0 -1.1715456203e+02 +8.0188341851e+01 -4.0196633310e+02 4.2630070903e+02 0.0000000000e+00 0.0000e+00 1.0000e+00
<mgrwt>
<rscale>  0 0.49065157E+03</rscale>
<asrwt>0</asrwt>
<pdfrwt beam="1">  1        2 0.20295928E-01 0.49065157E+03</pdfrwt>
<pdfrwt beam="2">  1       -2 0.70186045E-01 0.49065157E+03</pdfrwt>
<totfact> 0.66052017E+02</totfact>
</mgrwt>
<rwgt>
<wgt id='morphing_basis_vector_1'> +3.6183742e-04 </wgt>
<wgt id='morphing_basis_vector_2'> +4.2476614e-04 </wgt>
<wgt id='morphing_basis_vector_3'> +1.5402965e-04 </wgt>
<wgt id='morphing_basis_vector_4'> +3.1793443e-05 </wgt>
<wgt id='morphing_basis_vector_5'> +9.1649210e-05 </wgt>
</rwgt>
</event>
<event>
 4      1 +1.9425900e-05 4.61023800e+02 7.81860800e-03 9.49156400e-02
        2 -1    0    0  501    0 +0.0000000000e+00 +0.0000000000e+00 +5.9040683736e+02 5.9040683736e+02 0.0000000000e+00 0.0000e+00 -1.0000e+00
       -2 -1    0    0    0  501 -0.0000000000e+00 -0.0000000000e+00 -8.9998518809e+01 8.9998518809e+01 0.0000000000e+00 0.0000e+00 1.0000e+00
      -13  1    1    2    0    0 +1.5455313235e+02 -1.6978804428e+02 +2.8048946090e+02 3.6247619008e+02 0.0000000000e+00 0.0000e+00 -1.0000e+00
       13  1    1    2    0    0 -1.5455313235e+02 +1.6978804428e+02 +2.1991885765e+02 3.1792916609e+02 0.0000000000e+00 0.0000e+00 1.0000e+00
<mgrwt>
<rscale>  0 0.46102382E+03</rscale>
<asrwt>0</asrwt>
<pdfrwt beam="1">  1        2 0.90831819E-01 0.46102382E+03</pdfrwt>
<pdfrwt beam="2">  1       -2 0.13845926E-01 0.46102382E+03</pdfrwt>
<totfact> 0.22064501E+03</totfact>
</mgrwt>
<rwgt>
<wgt id='morphing_basis_vector_1'> +2.3769447e-04 </wgt>
<wgt id='morphing_basis_vector_2'> +1.5482988e-04 </wgt>
<wgt id='morphing_basis_vector_3'> +1.5066196e-04 </wgt>
<wgt id='morphing_basis_vector_4'> +4.3691935e-05 </wgt>
<wgt id='morphing_basis_vector_5'> +6.0368207e-05 </wgt>
</rwgt>
</event>
<event>
 4      1 +1.9425900e-05 4.36521300e+02 7.81860800e-03 9.55432800e-02
        2 -1    0    0  501    0 +0.0000000000e+00 +0.0000000000e+00 +1.2590178585e+03 1.2590178585e+03 0.0000000000e+00 0.0000e+00 1.0000e+00
       -2 -1    0    0    0  501 -0.0000000000e+00 -0.0000000000e+00 -3.7837194120e+01 3.7837194120e+01 0.0000000000e+00 0.0000e+00 -1.0000e+00
      -13  1    1    2    0    0 -1.9644244181e+02 -1.7518771298e+01 +8.8835093177e+02 9.0998017466e+02 0.0000000000e+00 0.0000e+00 1.0000e+00
       13  1    1    2    0    0 +1.9644244181e+02 +1.7518771298e+01 +3.3282973264e+02 3.8687487799e+02 0.0000000000e+00 0.0000e+00 -1.0000e+00
<mgrwt>
<rscale>  0 0.43652126E+03</rscale>
<asrwt>0</asrwt>
<pdfrwt beam="1">  1        2 0.19369502E+00 0.43652126E+03</pdfrwt>
<pdfrwt beam="2">  1       -2 0.58211078E-02 0.43652126E+03</pdfrwt>
<totfact> 0.30925597E+03</totfact>
</mgrwt>
<rwgt>
<wgt id='morphing_basis_vector_1'> +2.2140669e-04 </wgt>
<wgt id='morphing_basis_vector_2'> +1.8686051e-04 </wgt>
<wgt id='morphing_basis_vector_3'> +1.1084585e-04 </wgt>
<wgt id='morphing_basis_vector_4'> +3.1474838e-05 </wgt>
<wgt id='morphing_basis_vector_5'> +4.3294148e-05 </wgt>
</rwgt>
</event>
<event>
 4      1 +1.9425900e-05 4.89462300e+02 7.81860800e-03 9.42368200e-02
        2 -1    0    0  501    0 +0.0000000000e+00 +0.0000000000e+00 +1.3555820971e+03 1.3555820971e+03 0.0000000000e+00 0.0000e+00 -1.0000e+00
       -2 -1    0    0    0  501 -0.0000000000e+00 -0.0000000000e+00 -4.4182745271e+01 4.4182745271e+01 0.0000000000e+00 0.0000e+00 1.0000e+00
      -13  1    1    2    0    0 +1.1245974498e+02 -1.7908444245e+02 +3.0341087298e+02 3.6983319160e+02 0.0000000000e+00 0.0000e+00 1.0000e+00
       13  1    1    2    0    0 -1.1245974498e+02 +1.7908444245e+02 +1.0079884789e+03 1.0299316508e+03 0.0000000000e+00 0.0000e+00 -1.0000e+00
<mgrwt>
<rscale>  0 0.48946231E+03</rscale>
<asrwt>0</asrwt>
<pdfrwt beam="1">  1        2 0.20855106E+00 0.48946231E+03</pdfrwt>
<pdfrwt beam="2">  1       -2 0.67973465E-02 0.48946231E+03</pdfrwt>
<totfact> 0.21569547E+03</totfact>
</mgrwt>
<rwgt>
<wgt id='morphing_basis_vector_1'> +2.7217557e-04 </wgt>
<wgt id='morphing_basis_vector_2'> +1.5151666e-04 </wgt>
<wgt id='morphing_basis_vector_3'> +1.9258393e-04 </wgt>
<wgt id='morphing_basis_vector_4'> +6.2577561e-05 </wgt>
<wgt id='morphing_basis_vector_5'> +8.6588100e-05 </wgt>
</rwgt>
</event>
<event>
 4      1 +1.9425900e-05 4.90079200e+02 7.81860800e-03 9.42226500e-02
        2 -1    0    0  501    0 +0.0000000000e+00 +0.0000000000e+00 +1.2104454167e+02 1.2104454167e+02 0.0000000000e+00 0.0000e+00 1.0000e+00
       -2 -1    0    0    0  501 -0.0000000000e+00 -0.0000000000e+00 -4.9605211394e+02 4.9605211394e+02 0.0000000000e+00 0.0000e+00 -1.0000e+00
      -13  1    1    2    0    0 +1.6798406309e+02 +1.7805141831e+02 -2.0149413512e+02 3.1705021606e+02 0.0000000000e+00 0.0000e+00 -1.0000e+00
       13  1    1    2    0    0 -1.6798406309e+02 -1.7805141831e+02 -1.7351343714e+02 3.0004643954e+02 0.0000000000e+00 0.0000e+00 1.0000e+00
<mgrwt>
<rscale>  0 0.49007918E+03</rscale>
<asrwt>0</asrwt>
<pdfrwt beam="1">  1        2 0.18622237E-01 0.49007918E+03</pdfrwt>
<pdfrwt beam="2">  1       -2 0.76315709E-01 0.49007918E+03</pdfrwt>
<totfact> 0.61099850E+02</totfact>
</mgrwt>
<rwgt>
<wgt id='morphing_basis_vector_1'> +2.7971336e-04 </wgt>
<wgt id='morphing_basis_vector_2'> +1.7233241e-04 </wgt>
<wgt id='morphing_basis_vector_3'> +1.9043646e-04 </wgt>
<wgt id='morphing_basis_vector_4'> +6.0656858e-05 </wgt>
<wgt id='morphing_basis_vector_5'> +8.7524756e-05 </wgt>
</rwgt>
</event>
<event>
 4      1 +1.9425900e-05 4.62543600e+02 7.81860800e-03 9.48780600e-02
        2 -1    0    0  501    0 +0.0000000000e+00 +0.0000000000e+00 +1.5633121487e+03 1.5633121487e+03 0.0000000000e+00 0.0000e+00 1.0000e+00
       -2 -1    0    0    0  501 -0.0000000000e+00 -0.0000000000e+00 -3.4213676153e+01 3.4213676153e+01 0.0000000000e+00 0.0000e+00 -1.0000e+00
      -13  1    1    2    0    0 -2.2649148720e+02 -4.6778825021e+01 +7.6474874868e+02 7.9895387905e+02 0.0000000000e+00 0.0000e+00 -1.0000e+00
       13  1    1    2    0    0 +2.2649148720e+02 +4.6778825021e+01 +7.6434972383e+02 7.9857194577e+02 0.0000000000e+00 0.0000e+00 1.0000e+00
<mgrwt>
<rscale>  0 0.46254364E+03</rscale>
<asrwt>0</asrwt>
<pdfrwt beam="1">  1        2 0.24050951E+00 0.46254364E+03</pdfrwt>
<pdfrwt beam="2">  1       -2 0.52636437E-02 0.46254364E+03</pdfrwt>
<totfact> 0.24524363E+03</totfact>
</mgrwt>
<rwgt>
<wgt id='morphing_basis_vector_1'> +2.3717280e-04 </wgt>
<wgt id='morphing_basis_vector_2'> +1.4773106e-04 </wgt>
<wgt id='morphing_basis_vector_3'> +1.5414060e-04 </wgt>
<wgt id='morphing_basis_vector_4'> +4.5059573e-05 </wgt>
<wgt id='morphing_basis_vector_5'> +6.1489396e-05 </wgt>
</rwgt>
</event>
<event>
 4      1 +1.9425900e-05 4.77504000e+02 7.81860800e-03 9.45161000e-02
        2 -1    0    0  501    0 +0.0000000000e+00 +0.0000000000e+00 +1.5985359282e+03 1.5985359282e+03 0.0000000000e+00 0.0000e+00 1.0000e+00
       -2 -1    0    0    0  501 -0.0000000000e+00 -0.0000000000e+00 -3.5659198182e+01 3.5659198182e+01 0.0000000000e+00 0.0000e+00 -1.0000e+00
      -13  1    1    2    0    0 +1.9515187822e+02 +1.3311241343e+02 +6.6291664192e+02 7.0374828193e+02 0.0000000000e+00 0.0000e+00 1.0000e+00
       13  1    1    2    0    0 -1.9515187822e+02 -1.3311241343e+02 +8.9996008813e+02 9.3044684449e+02 0.0000000000e+00 0.0000e+00 -1.0000e+00
<mgrwt>
<rscale>  0 0.47750397E+03</rscale>
<asrwt>0</asrwt>
<pdfrwt beam="1">  1        2 0.24592855E+00 0.47750397E+03</pdfrwt>
<pdfrwt beam="2">  1       -2 0.54860318E-02 0.47750397E+03</pdfrwt>
<totfact> 0.22039010E+03</totfact>
</mgrwt>
<rwgt>
<wgt id='morphing_basis_vector_1'> +2.5679422e-04 </wgt>
<wgt id='morphing_basis_vector_2'> +1.5212844e-04 </wgt>
<wgt id='morphing_basis_vector_3'> +1.7455328e-04 </wgt>
<wgt id='morphing_basis_vector_4'> +5.3880816e-05 </wgt>
<wgt id='morphing_basis_vector_5'> +7.4743105e-05 </wgt>
</rwgt>
</event>
<event>
 4      1 +1.9425900e-05 4.77638400e+02 7.81860800e-03 9.45129100e-02
        2 -1    0    0  501    0 +0.0000000000e+00 +0.0000000000e+00 +1.9015237350e+02 1.9015237350e+02 0.0000000000e+00 0.0000e+00 -1.0000e+00
       -2 -1    0    0    0  501 -0.0000000000e+00 -0.0000000000e+00 -2.9994163564e+02 2.9994163564e+02 0.0000000000e+00 0.0000e+00 1.0000e+00
      -13  1    1    2    0    0 +1.0626512740e+02 -1.5984394820e+02 -2.0069965550e+02 2.7770977080e+02 0.0000000000e+00 0.0000e+00 1.0000e+00
       13  1    1    2    0    0 -1.0626512740e+02 +1.5984394820e+02 +9.0910393362e+01 2.1238423835e+02 0.0000000000e+00 0.0000e+00 -1.0000e+00
<mgrwt>
<rscale>  0 0.47763842E+03</rscale>
<asrwt>0</asrwt>
<pdfrwt beam="1">  1        2 0.29254211E-01 0.47763842E+03</pdfrwt>
<pdfrwt beam="2">  1       -2 0.46144867E-01 0.47763842E+03</pdfrwt>
<totfact> 0.99975341E+02</totfact>
</mgrwt>
<rwgt>
<wgt id='morphing_basis_vector_1'> +2.5279514e-04 </wgt>
<wgt id='morphing_basis_vector_2'> +1.3920324e-04 </wgt>
<wgt id='morphing_basis_vector_3'> +1.7693568e-04 </wgt>
<wgt id='morphing_basis_vector_4'> +5.5236230e-05 </wgt>
<wgt id='morphing_basis_vector_5'> +7.4671515e-05 </wgt>
</rwgt>
</event>
<event>
 4      1 +1.9425900e-05 4.91578100e+02 7.81860800e-03 9.41883000e-02
        2 -1    0    0  501    0 +0.0000000000e+00 +0.0000000000e+00 +1.1710662785e+03 1.1710662785e+03 0.0000000000e+00 0.0000e+00 -1.0000e+00
       -2 -1    0    0    0  501 -0.0000000000e+00 -0.0000000000e+00 -5.1587386136e+01 5.1587386136e+01 0.0000000000e+00 0.0000e+00 1.0000e+00
      -13  1    1    2    0    0 +1.7861739182e+01 +2.4279193927e+02 +4.7556758152e+02 5.3425788913e+02 0.0000000000e+00 0.0000e+00 1.0000e+00
       13  1    1    2    0    0 -1.7861739182e+01 -2.4279193927e+02 +6.4391131082e+02 6.8839577548e+02 0.0000000000e+00 0.0000e+00 -1.0000e+00
<mgrwt>
<rscale>  0 0.49157806E+03</rscale>
<asrwt>0</asrwt>
<pdfrwt beam="1">  1        2 0.18016402E+00 0.49157806E+03</pdfrwt>
<pdfrwt beam="2">  1       -2 0.79365218E-02 0.49157806E+03</pdfrwt>
<totfact> 0.21591928E+03</totfact>
</mgrwt>
<rwgt>
<wgt id='morphing_basis_vector_1'> +2.8002315e-04 </wgt>
<wgt id='morphing_basis_vector_2'> +1.6701005e-04 </wgt>
<wgt id='morphing_basis_vector_3'> +1.9357895e-04 </wgt>
<wgt id='morphing_basis_vector_4'> +6.2414713e-05 </wgt>
<wgt id='morphing_basis_vector_5'> +8.9028139e-05 </wgt>
</rwgt>
</event>
<event>
 4      1 +1.9425900e-05 4.48213400e+02 7.81860800e-03 9.52385200e-02
        2 -1    0    0  501    0 +0.0000000000e+00 +0.0000000000e+00 +8.0061861528e+02 8.0061861528e+02 0.0000000000e+00 0.0000e+00 -1.0000e+00
       -2 -1    0    0    0  501 -0.0000000000e+00 -0.0000000000e+00 -6.2731253517e+01 6.2731253517e+01 0.0000000000e+00 0.0000e+00 1.0000e+00
      -13  1    1    2    0    0 +1.3706184070e+02 +7.1566397112e+01 +5.6470412837e+01 1.6461046412e+02 0.0000000000e+00 0.0000e+00 1.0000e+00
       13  1    1    2    0    0 -1.3706184070e+02 -7.1566397112e+01 +6.8141694893e+02 6.9873940469e+02 0.0000000000e+00 0.0000e+00 -1.0000e+00
<mgrwt>
<rscale>  0 0.44821338E+03</rscale>
<asrwt>0</asrwt>
<pdfrwt beam="1">  1        2 0.12317209E+00 0.44821338E+03</pdfrwt>
<pdfrwt beam="2">  1       -2 0.96509627E-02 0.44821338E+03</pdfrwt>
<totfact> 0.27002757E+03</totfact>
</mgrwt>
<rwgt>
<wgt id='morphing_basis_vector_1'> +2.1012161e-04 </wgt>
<wgt id='morphing_basis_vector_2'> +1.1406435e-04 </wgt>
<wgt id='morphing_basis_vector_3'> +1.4243539e-04 </wgt>
<wgt id='morphing_basis_vector_4'> +3.9635873e-05 </wgt>
<wgt id='morphing_basis_vector_5'> +4.9850414e-05 </wgt>
</rwgt>
</event>
<event>
 4      1 +1.9425900e-05 4.74522200e+02 7.81860800e-03 9.45871100e-02
        2 -1    0    0  501    0 +0.0000000000e+00 +0.0000000000e+00 +5.6467108077e+01 5.6467108077e+01 0.0000000000e+00 0.0000e+00 1.0000e+00
       -2 -1    0    0    0  501 -0.0000000000e+00 -0.0000000000e+00 -9.9691343447e+02 9.9691343447e+02 0.0000000000e+00 0.0000e+00 -1.0000e+00
      -13  1    1    2    0    0 -8.1630958656e+01 -2.2264679929e+02 -4.5337431504e+02 5.1164780873e+02 0.0000000000e+00 0.0000e+00 -1.0000e+00
       13  1    1    2    0    0 +8.1630958656e+01 +2.2264679929e+02 -4.8707201136e+02 5.4173273382e+02 0.0000000000e+00 0.0000e+00 1.0000e+00
<mgrwt>
<rscale>  0 0.47452215E+03</rscale>
<asrwt>0</asrwt>
<pdfrwt beam="1">  1        2 0.86872481E-02 0.47452215E+03</pdfrwt>
<pdfrwt beam="2">  1       -2 0.15337129E+00 0.47452215E+03</pdfrwt>
<totfact> 0.27817697E+02</totfact>
</mgrwt>
<rwgt>
<wgt id='morphing_basis_vector_1'> +2.5649334e-04 </wgt>
<wgt id='morphing_basis_vector_2'> +1.6278805e-04 </wgt>
<wgt id='morphing_basis_vector_3'> +1.6835422e-04 </wgt>
<wgt id='morphing_basis_vector_4'> +5.0918181e-05 </wgt>
<wgt id='morphing_basis_vector_5'> +7.2140376e-05 </wgt>
</rwgt>
</event>
<event>
 4      1 +1.9425900e-05 4.84858100e+02 7.81860800e-03 9.43433200e-02
        2 -1    0    0  501    0 +0.0000000000e+00 +0.0000000000e+00 +1.1107825105e+03 1.1107825105e+03 0.0000000000e+00 0.0000e+00 1.0000e+00
       -2 -1    0    0    0  501 -0.0000000000e+00 -0.0000000000e+00 -5.2910317681e+01 5.2910317681e+01 0.0000000000e+00 0.0000e+00 -1.0000e+00
      -13  1    1    2    0    0 +1.4271517510e+02 +7.2898486615e+01 +9.2347548523e+01 1.8495913136e+02 0.0000000000e+00 0.0000e+00 -1.0000e+00
       13  1    1    2    0    0 -1.4271517510e+02 -7.2898486615e+01 +9.6552464429e+02 9.7873369682e+02 0.0000000000e+00 0.0000e+00 1.0000e+00
<mgrwt>
<rscale>  0 0.48485815E+03</rscale>
<asrwt>0</asrwt>
<pdfrwt beam="1">  1        2 0.17088960E+00 0.48485815E+03</pdfrwt>
<pdfrwt beam="2">  1       -2 0.81400497E-02 0.48485815E+03</pdfrwt>
<totfact> 0.22503559E+03</totfact>
</mgrwt>
<rwgt>
<wgt id='morphing_basis_vector_1'> +2.6381249e-04 </wgt>
<wgt id='morphing_basis_vector_2'> +1.4452523e-04 </wgt>
<wgt id='morphing_basis_vector_3'> +1.8667923e-04 </wgt>
<wgt id='morphing_basis_vector_4'> +5.9864828e-05 </wgt>
<wgt id='morphing_basis_vector_5'> +8.1778165e-05 </wgt>
</rwgt>
</event>
<event>
 4      1 +1.9425900e-05 4.58359000e+02 7.81860800e-03 9.49818900e-02
        2 -1    0    0  501    0 +0.0000000000e+00 +0.0000000000e+00 +6.5243364646e+02 6.5243364646e+02 0.0000000000e+00 0.0000e+00 -1.0000e+00
       -2 -1    0    0    0  501 -0.0000000000e+00 -0.0000000000e+00 -8.0503588884e+01 8.0503588884e+01 0.0000000000e+00 0.0000e+00 1.0000e+00
      -13  1    1    2    0    0 +2.0480903741e+02 +1.0235799489e+02 +2.7002669118e+02 3.5403151678e+02 0.0000000000e+00 0.0000e+00 1.0000e+00
       13  1    1    2    0    0 -2.0480903741e+02 -1.0235799489e+02 +3.0190336640e+02 3.7890571857e+02 0.0000000000e+00 0.0000e+00 -1.0000e+00
<mgrwt>
<rscale>  0 0.45835903E+03</rscale>
<asrwt>0</asrwt>
<pdfrwt beam="1">  1        2 0.10037440E+00 0.45835903E+03</pdfrwt>
<pdfrwt beam="2">  1       -2 0.12385168E-01 0.45835903E+03</pdfrwt>
<totfact> 0.23436485E+03</totfact>
</mgrwt>
<rwgt>
<wgt id='morphing_basis_vector_1'> +2.2995856e-04 </wgt>
<wgt id='morphing_basis_vector_2'> +1.4039816e-04 </wgt>
<wgt id='morphing_basis_vector_3'> +1.4992806e-04 </wgt>
<wgt id='morphing_basis_vector_4'> +4.3293945e-05 </wgt>
<wgt id='morphing_basis_vector_5'> +5.7986033e-05 </wgt>
</rwgt>
</event>
<event>
 4      1 +1.9425900e-05 4.84924600e+02 7.81860800e-03 9.43417700e-02
        2 -1    0    0  501    0 +0.0000000000e+00 +0.0000000000e+00 +9.7364090814e+01 9.7364090814e+01 0.0000000000e+00 0.0000e+00 -1.0000e+00
       -2 -1    0    0    0  501 -0.0000000000e+00 -0.0000000000e+00 -6.0379521900e+02 6.0379521900e+02 0.0000000000e+00 0.0000e+00 1.0000e+00
      -13  1    1    2    0    0 -9.8682248718e+01 +4.1644990484e+01 -5.6773254489e+02 5.7774798483e+02 0.0000000000e+00 0.0000e+00 1.0000e+00
       13  1    1    2    0    0 +9.8682248718e+01 -4.1644990484e+01 +6.1301416705e+01 1.2341132498e+02 0.0000000000e+00 0.0000e+00 -1.0000e+00
<mgrwt>
<rscale>  0 0.48492462E+03</rscale>
<asrwt>0</asrwt>
<pdfrwt beam="1">  1        2 0.14979091E-01 0.48492462E+03</pdfrwt>
<pdfrwt beam="2">  1       -2 0.92891573E-01 0.48492462E+03</pdfrwt>
<totfact> 0.50907556E+02</totfact>
</mgrwt>
<rwgt>
<wgt id='morphing_basis_vector_1'> +2.6375416e-04 </wgt>
<wgt id='morphing_basis_vector_2'> +1.4407374e-04 </wgt>
<wgt id='morphing_basis_vector_3'> +1.8684960e-04 </wgt>
<wgt id='morphing_basis_vector_4'> +5.9963074e-05 </wgt>
<wgt id='morphing_basis_vector_5'> +8.1838314e-05 </wgt>
</rwgt>
</event>
<event>
 4      1 +1.9425900e-05 4.44991700e+02 7.81860800e-03 9.53215100e-02
        2 -1    0    0  501    0 +0.0000000000e+00 +0.0000000000e+00 +5.5177015231e+02 5.5177015231e+02 0.0000000000e+00 0.0000e+00 -1.0000e+00
       -2 -1    0    0    0  501 -0.0000000000e+00 -0.0000000000e+00 -8.9719250172e+01 8.9719250172e+01 0.0000000000e+00 0.0000e+00 1.0000e+00
      -13  1    1    2    0    0 -1.1114868037e+02 -1.6887857035e+02 +9.7103081381e+01 2.2428332325e+02 0.0000000000e+00 0.0000e+00 1.0000e+00
       13  1    1    2    0    0 +1.1114868037e+02 +1.6887857035e+02 +3.6494782076e+02 4.1720607924e+02 0.0000000000e+00 0.0000e+00 -1.0000e+00
<mgrwt>
<rscale>  0 0.44499170E+03</rscale>
<asrwt>0</asrwt>
<pdfrwt beam="1">  1        2 0.84887714E-01 0.44499170E+03</pdfrwt>
<pdfrwt beam="2">  1       -2 0.13802962E-01 0.44499170E+03</pdfrwt>
<totfact> 0.23955823E+03</totfact>
</mgrwt>
<rwgt>
<wgt id='morphing_basis_vector_1'> +2.0690038e-04 </wgt>
<wgt id='morphing_basis_vector_2'> +1.1483721e-04 </wgt>
<wgt id='morphing_basis_vector_3'> +1.3831142e-04 </wgt>
<wgt id='morphing_basis_vector_4'> +3.8001043e-05 </wgt>
<wgt id='morphing_basis_vector_5'> +4.7579999e-05 </wgt>
</rwgt>
</event>
<event>
 4      1 +1.9425900e-05 4.79212700e+02 7.81860800e-03 9.44756600e-02
        2 -1    0    0  501    0 +0.0000000000e+00 +0.0000000000e+00 +9.1008143971e+02 9.1008143971e+02 0.0000000000e+00 0.0000e+00 -1.0000e+00
       -2 -1    0    0    0  501 -0.0000000000e+00 -0.0000000000e+00 -6.3083575274e+01 6.3083575274e+01 0.0000000000e+00 0.0000e+00 1.0000e+00
      -13  1    1    2    0    0 -1.6700682616e+02 -7.2773815766e+01 +1.0743124991e+02 2.1149180056e+02 0.0000000000e+00 0.0000e+00 1.0000e+00
       13  1    1    2    0    0 +1.6700682616e+02 +7.2773815766e+01 +7.3956661453e+02 7.6167321442e+02 0.0000000000e+00 0.0000e+00 -1.0000e+00
<mgrwt>
<rscale>  0 0.47921265E+03</rscale>
<asrwt>0</asrwt>
<pdfrwt beam="1">  1        2 0.14001252E+00 0.47921265E+03</pdfrwt>
<pdfrwt beam="2">  1       -2 0.97051661E-02 0.47921265E+03</pdfrwt>
<totfact> 0.22688019E+03</totfact>
</mgrwt>
<rwgt>
<wgt id='morphing_basis_vector_1'> +2.5507667e-04 </wgt>
<wgt id='morphing_basis_vector_2'> +1.4007804e-04 </wgt>
<wgt id='morphing_basis_vector_3'> +1.7907049e-04 </wgt>
<wgt id='morphing_basis_vector_4'> +5.6246611e-05 </wgt>
<wgt id='morphing_basis_vector_5'> +7.6180284e-05 </wgt>
</rwgt>
</event>
<event>
 4      1 +1.9425900e-05 4.55001400e+02 7.81860800e-03 9.50660400e-02
        2 -1    0    0  501    0 +0.0000000000e+00 +0.0000000000e+00 +1.2661548299e+03 1.2661548299e+03 0.0000000000e+00 0.0000e+00 -1.0000e+00
       -2 -1    0    0    0  501 -0.0000000000e+00 -0.0000000000e+00 -4.0876958218e+01 4.0876958218e+01 0.0000000000e+00 0.0000e+00 1.0000e+00
      -13  1    1    2    0    0 -1.5848052576e+02 -7.9558905309e+01 +2.0324855463e+02 2.6973259243e+02 0.0000000000e+00 0.0000e+00 1.0000e+00
       13  1    1    2    0    0 +1.5848052576e+02 +7.9558905309e+01 +1.0220293171e+03 1.0372991957e+03 0.0000000000e+00 0.0000e+00 -1.0000e+00
<mgrwt>
<rscale>  0 0.45500135E+03</rscale>
<asrwt>0</asrwt>
<pdfrwt beam="1">  1        2 0.19479302E+00 0.45500135E+03</pdfrwt>
<pdfrwt beam="2">  1       -2 0.62887638E-02 0.45500135E+03</pdfrwt>
<totfact> 0.27246638E+03</totfact>
</mgrwt>
<rwgt>
<wgt id='morphing_basis_vector_1'> +2.1951774e-04 </wgt>
<wgt id='morphing_basis_vector_2'> +1.1989497e-04 </wgt>
<wgt id='morphing_basis_vector_3'> +1.4973067e-04 </wgt>
<wgt id='morphing_basis_vector_4'> +4.2856236e-05 </wgt>
<wgt id='morphing_basis_vector_5'> +5.5008885e-05 </wgt>
</rwgt>
</event>
<event>
 4      1 +1.9425900e-05 4.70500900e+02 7.81860800e-03 9.46837700e-02
        2 -1    0    0  501    0 +0.0000000000e+00 +0.0000000000e+00 +4.9990365505e+01 4.9990365505e+01 0.0000000000e+00 0.0000e+00 1.0000e+00
       -2 -1    0    0    0  501 -0.0000000000e+00 -0.0000000000e+00 -1.1070688631e+03 1.1070688631e+03 0.0000000000e+00 0.0000e+00 -1.0000e+00
      -13  1    1    2    0    0 -1.4678870692e+02 +1.6748389591e+02 -3.4214177044e+02 4.0823862011e+02 0.0000000000e+00 0.0000e+00 -1.0000e+00
       13  1    1    2    0    0 +1.4678870692e+02 -1.6748389591e+02 -7.1493672716e+02 7.4882060850e+02 0.0000000000e+00 0.0000e+00 1.0000e+00
<mgrwt>
<rscale>  0 0.47050091E+03</rscale>
<asrwt>0</asrwt>
<pdfrwt beam="1">  1        2 0.76908252E-02 0.47050091E+03</pdfrwt>
<pdfrwt beam="2">  1       -2 0.17031829E+00 0.47050091E+03</pdfrwt>
<totfact> 0.23958416E+02</totfact>
</mgrwt>
<rwgt>
<wgt id='morphing_basis_vector_1'> +2.6519576e-04 </wgt>
<wgt id='morphing_basis_vector_2'> +2.0509816e-04 </wgt>
<wgt id='morphing_basis_vector_3'> +1.5484916e-04 </wgt>
<wgt id='morphing_basis_vector_4'> +4.4730565e-05 </wgt>
<wgt id='morphing_basis_vector_5'> +6.9203149e-05 </wgt>
</rwgt>
</event>
<event>
 4      1 +1.9425900e-05 4.35541200e+02 7.81860800e-03 9.55692800e-02
        2 -1    0    0  501    0 +0.0000000000e+00 +0.0000000000e+00 +5.6440443275e+02 5.6440443275e+02 0.0000000000e+00 0.0000e+00 -1.0000e+00
       -2 -1    0    0    0  501 -0.0000000000e+00 -0.0000000000e+00 -8.4024917525e+01 8.4024917525e+01 0.0000000000e+00 0.0000e+00 1.0000e+00
      -13  1    1    2    0    0 -4.2547143591e+01 -8.2353633425e+01 -5.3187447293e+01 1.0687041179e+02 0.0000000000e+00 0.0000e+00 1.0000e+00
       13  1    1    2    0    0 +4.2547143591e+01 +8.2353633425e+01 +5.3356696252e+02 5.4155893849e+02 0.0000000000e+00 0.0000e+00 -1.0000e+00
<mgrwt>
<rscale>  0 0.43554121E+03</rscale>
<asrwt>0</asrwt>
<pdfrwt beam="1">  1        2 0.86831449E-01 0.43554121E+03</pdfrwt>
<pdfrwt beam="2">  1       -2 0.12926911E-01 0.43554121E+03</pdfrwt>
<totfact> 0.25900855E+03</totfact>
</mgrwt>
<rwgt>
<wgt id='morphing_basis_vector_1'> +1.9369121e-04 </wgt>
<wgt id='morphing_basis_vector_2'> +1.0445998e-04 </wgt>
<wgt id='morphing_basis_vector_3'> +1.2954426e-04 </wgt>
<wgt id='morphing_basis_vector_4'> +3.4101740e-05 </wgt>
<wgt id='morphing_basis_vector_5'> +4.1091622e-05 </wgt>
</rwgt>
</event>
<event>
 4      1 +1.9425900e-05 4.41525400e+02 7.81860800e-03 9.54116300e-02
        2 -1    0    0  501    0 +0.0000000000e+00 +0.0000000000e+00 +7.1404962494e+02 7.1404962494e+02 0.0000000000e+00 0.0000e+00 -1.0000e+00
       -2 -1    0    0    0  501 -0.0000000000e+00 -0.0000000000e+00 -6.8253199852e+01 6.8253199852e+01 0.0000000000e+00 0.0000e+00 1.0000e+00
      -13  1    1    2    0    0 +3.4313206448e+01 -1.2361111957e+02 +4.5666642587e+00 1.2836650435e+02 0.0000000000e+00 0.0000e+00 1.0000e+00
       13  1    1    2    0    0 -3.4313206448e+01 +1.2361111957e+02 +6.4122976083e+02 6.5393632044e+02 0.0000000000e+00 0.0000e+00 -1.0000e+00
<mgrwt>
<rscale>  0 0.44152541E+03</rscale>
<asrwt>0</asrwt>
<pdfrwt beam="1">  1        2 0.10985378E+00 0.44152541E+03</pdfrwt>
<pdfrwt beam="2">  1       -2 0.10500493E-01 0.44152541E+03</pdfrwt>
<totfact> 0.27252593E+03</totfact>
</mgrwt>
<rwgt>
<wgt id='morphing_basis_vector_1'> +2.0128635e-04 </wgt>
<wgt id='morphing_basis_vector_2'> +1.0883264e-04 </wgt>
<wgt id='morphing_basis_vector_3'> +1.3550923e-04 </wgt>
<wgt id='morphing_basis_vector_4'> +3.6635308e-05 </wgt>
<wgt id='morphing_basis_vector_5'> +4.5090276e-05 </wgt>
</rwgt>
</event>
<event>
 4      1 +1.9425900e-05 4.64515800e+02 7.81860800e-03 9.48295300e-02
        2 -1    0    0  501    0 +0.0000000000e+00 +0.0000000000e+00 +2.6660300877e+02 2.6660300877e+02 0.0000000000e+00 0.0000e+00 -1.0000e+00
       -2 -1    0    0    0  501 -0.0000000000e+00 -0.0000000000e+00 -2.0233726207e+02 2.0233726207e+02 0.0000000000e+00 0.0000e+00 1.0000e+00
      -13  1    1    2    0    0 +1.5096137938e+02 +9.6481496106e+01 +1.8134362423e+02 2.5491866782e+02 0.0000000000e+00 0.0000e+00 1.0000e+00
       13  1    1    2    0    0 -1.5096137938e+02 -9.6481496106e+01 -1.1707787752e+02 2.1402160302e+02 0.0000000000e+00 0.0000e+00 -1.0000e+00
<mgrwt>
<rscale>  0 0.46451576E+03</rscale>
<asrwt>0</asrwt>
<pdfrwt beam="1">  1        2 0.41015847E-01 0.46451576E+03</pdfrwt>
<pdfrwt beam="2">  1       -2 0.31128810E-01 0.46451576E+03</pdfrwt>
<totfact> 0.13980639E+03</totfact>
</mgrwt>
<rwgt>
<wgt id='morphing_basis_vector_1'> +2.8820726e-04 </wgt>
<wgt id='morphing_basis_vector_2'> +2.9857604e-04 </wgt>
<wgt id='morphing_basis_vector_3'> +1.2801335e-04 </wgt>
<wgt id='morphing_basis_vector_4'> +3.4258688e-05 </wgt>
<wgt id='morphing_basis_vector_5'> +6.5638679e-05 </wgt>
</rwgt>
</event>
<event>
 4      1 +1.9425900e-05 4.38917600e+02 7.81860800e-03 9.54800100e-02
        2 -1    0    0  501    0 +0.0000000000e+00 +0.0000000000e+00 +1.3764588508e+03 1.3764588508e+03 0.0000000000e+00 0.0000e+00 1.0000e+00
       -2 -1    0    0    0  501 -0.0000000000e+00 -0.0000000000e+00 -3.4989903897e+01 3.4989903897e+01 0.0000000000e+00 0.0000e+00 -1.0000e+00
      -13  1    1    2    0    0 -1.8550934008e+02 +2.9874465863e+00 +2.9379818248e+02 3.4747663536e+02 0.0000000000e+00 0.0000e+00 -1.0000e+00
       13  1    1    2    0    0 +1.8550934008e+02 -2.9874465863e+00 +1.0476707645e+03 1.0639721194e+03 0.0000000000e+00 0.0000e+00 1.0000e+00
<mgrwt>
<rscale>  0 0.43891759E+03</rscale>
<asrwt>0</asrwt>
<pdfrwt beam="1">  1        2 0.21176286E+00 0.43891759E+03</pdfrwt>
<pdfrwt beam="2">  1       -2 0.53830632E-02 0.43891759E+03</pdfrwt>
<totfact> 0.29971720E+03</totfact>
</mgrwt>
<rwgt>
<wgt id='morphing_basis_vector_1'> +1.9853450e-04 </wgt>
<wgt id='morphing_basis_vector_2'> +1.0872327e-04 </wgt>
<wgt id='morphing_basis_vector_3'> +1.3245068e-04 </wgt>
<wgt id='morphing_basis_vector_4'> +3.5439024e-05 </wgt>
<wgt id='morphing_basis_vector_5'> +4.3352658e-05 </wgt>
</rwgt>
</event>
<event>
 4      1 +1.9425900e-05 4.73044500e+02 7.81860800e-03 9.46225100e-02
        2 -1    0    0  501    0 +0.0000000000e+00 +0.0000000000e+00 +2.4877037784e+02 2.4877037784e+02 0.0000000000e+00 0.0000e+00 1.0000e+00
       -2 -1    0    0    0  501 -0.0000000000e+00 -0.0000000000e+00 -2.2487718063e+02 2.2487718063e+02 0.0000000000e+00 0.0000e+00 -1.0000e+00
      -13  1    1    2    0    0 +3.0341030631e+01 -1.3188260997e+02 -1.8228311025e+02 2.2702584266e+02 0.0000000000e+00 0.0000e+00 -1.0000e+00
       13  1    1    2    0    0 -3.0341030631e+01 +1.3188260997e+02 +2.0617630746e+02 2.4662171581e+02 0.0000000000e+00 0.0000e+00 1.0000e+00
<mgrwt>
<rscale>  0 0.47304453E+03</rscale>
<asrwt>0</asrwt>
<pdfrwt beam="1">  1        2 0.38272366E-01 0.47304453E+03</pdfrwt>
<pdfrwt beam="2">  1       -2 0.34596489E-01 0.47304453E+03</pdfrwt>
<totfact> 0.12533438E+03</totfact>
</mgrwt>
<rwgt>
<wgt id='morphing_basis_vector_1'> +2.4526017e-04 </wgt>
<wgt id='morphing_basis_vector_2'> +1.3365294e-04 </wgt>
<wgt id='morphing_basis_vector_3'> +1.7134535e-04 </wgt>
<wgt id='morphing_basis_vector_4'> +5.2653800e-05 </wgt>
<wgt id='morphing_basis_vector_5'> +7.0335891e-05 </wgt>
</rwgt>
</event>
<event>
 4      1 +1.9425900e-05 4.95422100e+02 7.81860800e-03 9.41008200e-02
        2 -1    0    0  501    0 +0.0000000000e+00 +0.0000000000e+00 +5.0521014698e+02 5.0521014698e+02 0.0000000000e+00 0.0000e+00 1.0000e+00
       -2 -1    0    0    0  501 -0.0000000000e+00 -0.0000000000e+00 -1.2145592564e+02 1.2145592564e+02 0.0000000000e+00 0.0000e+00 -1.0000e+00
      -13  1    1    2    0    0 +3.5440558490e+01 -1.8436940573e+02 -1.2525442848e+01 1.8816215792e+02 0.0000000000e+00 0.0000e+00 -1.0000e+00
       13  1    1    2    0    0 -3.5440558490e+01 +1.8436940573e+02 +3.9627966419e+02 4.3850391469e+02 0.0000000000e+00 0.0000e+00 1.0000e+00
<mgrwt>
<rscale>  0 0.49542211E+03</rscale>
<asrwt>0</asrwt>
<pdfrwt beam="1">  1        2 0.77724637E-01 0.49542211E+03</pdfrwt>
<pdfrwt beam="2">  1       -2 0.18685527E-01 0.49542211E+03</pdfrwt>
<totfact> 0.16253270E+03</totfact>
</mgrwt>
<rwgt>
<wgt id='morphing_basis_vector_1'> +2.8153412e-04 </wgt>
<wgt id='morphing_basis_vector_2'> +1.5536488e-04 </wgt>
<wgt id='morphing_basis_vector_3'> +2.0130321e-04 </wgt>
<wgt id='morphing_basis_vector_4'> +6.6867570e-05 </wgt>
<wgt id='morphing_basis_vector_5'> +9.3009372e-05 </wgt>
</rwgt>
</event>
<event>
 4      1 +1.9425900e-05 4.53234300e+02 7.81860800e-03 9.51106300e-02
        2 -1    0    0  501    0 +0.0000000000e+00 +0.0000000000e+00 +3.0564361073e+02 3.0564361073e+02 0.0000000000e+00 0.0000e+00 -1.0000e+00
       -2 -1    0    0    0  501 -0.0000000000e+00 -0.0000000000e+00 -1.6802353986e+02 1.6802353986e+02 0.0000000000e+00 0.0000e+00 1.0000e+00
      -13  1    1    2    0    0 -1.3923223412e+02 -9.8826498117e+01 -8.6914364133e+01 1.9158913967e+02 0.0000000000e+00 0.0000e+00 1.0000e+00
       13  1    1    2    0    0 +1.3923223412e+02 +9.8826498117e+01 +2.2453443500e+02 2.8207801092e+02 0.0000000000e+00 0.0000e+00 -1.0000e+00
<mgrwt>
<rscale>  0 0.45323425E+03</rscale>
<asrwt>0</asrwt>
<pdfrwt beam="1">  1        2 0.47022094E-01 0.45323425E+03</pdfrwt>
<pdfrwt beam="2">  1       -2 0.25849775E-01 0.45323425E+03</pdfrwt>
<totfact> 0.16555767E+03</totfact>
</mgrwt>
<rwgt>
<wgt id='morphing_basis_vector_1'> +2.1701464e-04 </wgt>
<wgt id='morphing_basis_vector_2'> +1.1828001e-04 </wgt>
<wgt id='morphing_basis_vector_3'> +1.4781433e-04 </wgt>
<wgt id='morphing_basis_vector_4'> +4.2003930e-05 </wgt>
<wgt id='morphing_basis_vector_5'> +5.3632842e-05 </wgt>
</rwgt>
</event>
<event>
 4      1 +1.9425900e-05 4.79524700e+02 7.81860800e-03 9.44682900e-02
        2 -1    0    0  501    0 +0.0000000000e+00 +0.0000000000e+00 +8.1464661666e+02 8.1464661666e+02 0.0000000000e+00 0.0000e+00 -1.0000e+00
       -2 -1    0    0    0  501 -0.0000000000e+00 -0.0000000000e+00 -7.0565546607e+01 7.0565546607e+01 0.0000000000e+00 0.0000e+00 1.0000e+00
      -13  1    1    2    0    0 +2.1693683496e+02 -8.1238066698e+01 +4.8620713110e+02 5.3857087572e+02 0.0000000000e+00 0.0000e+00 1.0000e+00
       13  1    1    2    0    0 -2.1693683496e+02 +8.1238066698e+01 +2.5787393895e+02 3.4664128755e+02 0.0000000000e+00 0.0000e+00 -1.0000e+00
<mgrwt>
<rscale>  0 0.47952470E+03</rscale>
<asrwt>0</asrwt>
<pdfrwt beam="1">  1        2 0.12533024E+00 0.47952470E+03</pdfrwt>
<pdfrwt beam="2">  1       -2 0.10856239E-01 0.47952470E+03</pdfrwt>
<totfact> 0.21992201E+03</totfact>
</mgrwt>
<rwgt>
<wgt id='morphing_basis_vector_1'> +2.7564575e-04 </wgt>
<wgt id='morphing_basis_vector_2'> +2.0262225e-04 </wgt>
<wgt id='morphing_basis_vector_3'> +1.6914512e-04 </wgt>
<wgt id='morphing_basis_vector_4'> +5.0178061e-05 </wgt>
<wgt id='morphing_basis_vector_5'> +7.7425936e-05 </wgt>
</rwgt>
</event>
<event>
 4      1 +1.9425900e-05 4.45788100e+02 7.81860800e-03 9.53009200e-02
        2 -1    0    0  501    0 +0.0000000000e+00 +0.0000000000e+00 +1.6800594791e+02 1.6800594791e+02 0.0000000000e+00 0.0000e+00 1.0000e+00
       -2 -1    0    0    0  501 -0.0000000000e+00 -0.0000000000e+00 -2.9571429589e+02 2.9571429589e+02 0.0000000000e+00 0.0000e+00 -1.0000e+00
      -13  1    1    2    0    0 -2.0413206271e+02 -7.6453752415e+01 -1.1227425259e+02 2.4519498991e+02 0.0000000000e+00 0.0000e+00 -1.0000e+00
       13  1    1    2    0    0 +2.0413206271e+02 +7.6453752415e+01 -1.5434095401e+01 2.1852525389e+02 0.0000000000e+00 0.0000e+00 1.0000e+00
<mgrwt>
<rscale>  0 0.44578811E+03</rscale>
<asrwt>0</asrwt>
<pdfrwt beam="1">  1        2 0.25847069E-01 0.44578811E+03</pdfrwt>
<pdfrwt beam="2">  1       -2 0.45494507E-01 0.44578811E+03</pdfrwt>
<totfact> 0.11847079E+03</totfact>
</mgrwt>
<rwgt>
<wgt id='morphing_basis_vector_1'> +2.0974075e-04 </wgt>
<wgt id='morphing_basis_vector_2'> +1.2097745e-04 </wgt>
<wgt id='morphing_basis_vector_3'> +1.3790867e-04 </wgt>
<wgt id='morphing_basis_vector_4'> +3.8073471e-05 </wgt>
<wgt id='morphing_basis_vector_5'> +4.8250782e-05 </wgt>
</rwgt>
</event>
<event>
 4      1 +1.9425900e-05 4.71966100e+02 7.81860800e-03 9.46484400e-02
        2 -1    0    0  501    0 +0.0000000000e+00 +0.0000000000e+00 +4.8056005947e+02 4.8056005947e+02 0.0000000000e+00 0.0000e+00 1.0000e+00
       -2 -1    0    0    0  501 -0.0000000000e+00 -0.0000000000e+00 -1.1588143761e+02 1.1588143761e+02 0.0000000000e+00 0.0000e+00 -1.0000e+00
      -13  1    1    2    0    0 -1.2951329764e+02 +1.1764175472e+02 -1.7773584156e+01 1.7586692984e+02 0.0000000000e+00 0.0000e+00 -1.0000e+00
       13  1    1    2    0    0 +1.2951329764e+02 -1.1764175472e+02 +3.8245220601e+02 4.2057456723e+02 0.0000000000e+00 0.0000e+00 1.0000e+00
<mgrwt>
<rscale>  0 0.47196606E+03</rscale>
<asrwt>0</asrwt>
<pdfrwt beam="1">  1        2 0.73932316E-01 0.47196606E+03</pdfrwt>
<pdfrwt beam="2">  1       -2 0.17827914E-01 0.47196606E+03</pdfrwt>
<totfact> 0.18564673E+03</totfact>
</mgrwt>
<rwgt>
<wgt id='morphing_basis_vector_1'> +2.4388354e-04 </wgt>
<wgt id='morphing_basis_vector_2'> +1.3350612e-04 </wgt>
<wgt id='morphing_basis_vector_3'> +1.6985676e-04 </wgt>
<wgt id='morphing_basis_vector_4'> +5.1957603e-05 </wgt>
<wgt id='morphing_basis_vector_5'> +6.9360492e-05 </wgt>
</rwgt>
</event>
<event>
 4      1 +1.9425900e-05 4.50410400e+02 7.81860800e-03 9.51823400e-02
        2 -1    0    0  501    0 +0.0000000000e+00 +0.0000000000e+00 +1.5041379253e+02 1.5041379253e+02 0.0000000000e+00 0.0000e+00 -1.0000e+00
       -2 -1    0    0    0  501 -0.0000000000e+00 -0.0000000000e+00 -3.3718568636e+02 3.3718568636e+02 0.0000000000e+00 0.0000e+00 1.0000e+00
      -13  1    1    2    0    0 +9.9776661328e+01 +8.5018708206e+01 -2.9162824476e+02 3.1973519674e+02 0.0000000000e+00 0.0000e+00 1.0000e+00
       13  1    1    2    0    0 -9.9776661328e+01 -8.5018708206e+01 +1.0485635093e+02 1.6786428215e+02 0.0000000000e+00 0.0000e+00 -1.0000e+00
<mgrwt>
<rscale>  0 0.45041038E+03</rscale>
<asrwt>0</asrwt>
<pdfrwt beam="1">  1        2 0.23140583E-01 0.45041038E+03</pdfrwt>
<pdfrwt beam="2">  1       -2 0.51874721E-01 0.45041038E+03</pdfrwt>
<totfact> 0.10468933E+03</totfact>
</mgrwt>
<rwgt>
<wgt id='morphing_basis_vector_1'> +2.1294510e-04 </wgt>
<wgt id='morphing_basis_vector_2'> +1.1536835e-04 </wgt>
<wgt id='morphing_basis_vector_3'> +1.4487967e-04 </wgt>
<wgt id='morphing_basis_vector_4'> +4.0689576e-05 </wgt>
<wgt id='morphing_basis_vector_5'> +5.1473979e-05 </wgt>
</rwgt>
</event>
<event>
 4      1 +1.9425900e-05 4.32069200e+02 7.81860800e-03 9.56619900e-02
        2 -1    0    0  501    0 +0.0000000000e+00 +0.0000000000e+00 +6.5265926238e+02 6.5265926238e+02 0.0000000000e+00 0.0000e+00 -1.0000e+00
       -2 -1    0    0    0  501 -0.0000000000e+00 -0.0000000000e+00 -7.1508896925e+01 7.1508896925e+01 0.0000000000e+00 0.0000e+00 1.0000e+00
      -13  1    1    2    0    0 -4.4566310547e+01 +1.8867175032e+02 +1.3079808553e+02 2.3386176383e+02 0.0000000000e+00 0.0000e+00 1.0000e+00
       13  1    1    2    0    0 +4.4566310547e+01 -1.8867175032e+02 +4.5035227992e+02 4.9030639547e+02 0.0000000000e+00 0.0000e+00 -1.0000e+00
<mgrwt>
<rscale>  0 0.43206918E+03</rscale>
<asrwt>0</asrwt>
<pdfrwt beam="1">  1        2 0.10040911E+00 0.43206918E+03</pdfrwt>
<pdfrwt beam="2">  1       -2 0.11001369E-01 0.43206918E+03</pdfrwt>
<totfact> 0.28202011E+03</totfact>
</mgrwt>
<rwgt>
<wgt id='morphing_basis_vector_1'> +1.9039856e-04 </wgt>
<wgt id='morphing_basis_vector_2'> +1.0508112e-04 </wgt>
<wgt id='morphing_basis_vector_3'> +1.2542671e-04 </wgt>
<wgt id='morphing_basis_vector_4'> +3.2605267e-05 </wgt>
<wgt id='morphing_basis_vector_5'> +3.8940361e-05 </wgt>
</rwgt>
</event>
<event>
 4      1 +1.9425900e-05 5.13149100e+02 7.81860800e-03 9.37081500e-02
        2 -1    0    0  501    0 +0.0000000000e+00 +0.0000000000e+00 +5.5293841819e+02 5.5293841819e+02 0.0000000000e+00 0.0000e+00 -1.0000e+00
       -2 -1    0    0    0  501 -0.0000000000e+00 -0.0000000000e+00 -1.1905576387e+02 1.1905576387e+02 0.0000000000e+00 0.0000e+00 1.0000e+00
      -13  1    1    2    0    0 -6.7770225628e+01 +2.4301446937e+02 +1.5577443061e+02 2.9650380948e+02 0.0000000000e+00 0.0000e+00 1.0000e+00
       13  1    1    2    0    0 +6.7770225628e+01 -2.4301446937e+02 +2.7810822371e+02 3.7549037258e+02 0.0000000000e+00 0.0000e+00 -1.0000e+00
<mgrwt>
<rscale>  0 0.51314912E+03</rscale>
<asrwt>0</asrwt>
<pdfrwt beam="1">  1        2 0.85067447E-01 0.51314912E+03</pdfrwt>
<pdfrwt beam="2">  1       -2 0.18316272E-01 0.51314912E+03</pdfrwt>
<totfact> 0.15155801E+03</totfact>
</mgrwt>
<rwgt>
<wgt id='morphing_basis_vector_1'> +3.1777437e-04 </wgt>
<wgt id='morphing_basis_vector_2'> +1.8841206e-04 </wgt>
<wgt id='morphing_basis_vector_3'> +2.2656067e-04 </wgt>
<wgt id='morphing_basis_vector_4'> +7.8007067e-05 </wgt>
<wgt id='morphing_basis_vector_5'> +1.1424688e-04 </wgt>
</rwgt>
</event>
<event>
 4      1 +1.9425900e-05 4.74064000e+02 7.81860800e-03 9.45980700e-02
        2 -1    0    0  501    0 +0.0000000000e+00 +0.0000000000e+00 +7.4532768595e+01 7.4532768595e+01 0.0000000000e+00 0.0000e+00 -1.0000e+00
       -2 -1    0    0    0  501 -0.0000000000e+00 -0.0000000000e+00 -7.5381841409e+02 7.5381841409e+02 0.0000000000e+00 0.0000e+00 1.0000e+00
      -13  1    1    2    0    0 -5.9377400003e+00 -1.3528051197e+02 -6.7958068801e+02 6.9294010217e+02 0.0000000000e+00 0.0000e+00 1.0000e+00
       13  1    1    2    0    0 +5.9377400003e+00 +1.3528051197e+02 +2.9504252109e-01 1.3541108051e+02 0.0000000000e+00 0.0000e+00 -1.0000e+00
<mgrwt>
<rscale>  0 0.47406402E+03</rscale>
<asrwt>0</asrwt>
<pdfrwt beam="1">  1        2 0.11466579E-01 0.47406402E+03</pdfrwt>
<pdfrwt beam="2">  1       -2 0.11597207E+00 0.47406402E+03</pdfrwt>
<totfact> 0.41389506E+02</totfact>
</mgrwt>
<rwgt>
<wgt id='morphing_basis_vector_1'> +2.4680783e-04 </wgt>
<wgt id='morphing_basis_vector_2'> +1.3453420e-04 </wgt>
<wgt id='morphing_basis_vector_3'> +1.7262929e-04 </wgt>
<wgt id='morphing_basis_vector_4'> +5.3251095e-05 </wgt>
<wgt id='morphing_basis_vector_5'> +7.1278195e-05 </wgt>
</rwgt>
</event>
<event>
 4      1 +1.9425900e-05 4.60282900e+02 7.81860800e-03 9.49340100e-02
        2 -1    0    0  501    0 +0.0000000000e+00 +0.0000000000e+00 +1.8483975543e+02 1.8483975543e+02 0.0000000000e+00 0.0000e+00 -1.0000e+00
       -2 -1    0    0    0  501 -0.0000000000e+00 -0.0000000000e+00 -2.8654603218e+02 2.8654603218e+02 0.0000000000e+00 0.0000e+00 1.0000e+00
      -13  1    1    2    0    0 -2.2338324542e+02 -1.9114336724e+01 -1.0406477780e+02 2.4717384607e+02 0.0000000000e+00 0.0000e+00 1.0000e+00
       13  1    1    2    0    0 +2.2338324542e+02 +1.9114336724e+01 +2.3585010518e+00 2.2421194154e+02 0.0000000000e+00 0.0000e+00 -1.0000e+00
<mgrwt>
<rscale>  0 0.46028295E+03</rscale>
<asrwt>0</asrwt>
<pdfrwt beam="1">  1        2 0.28436886E-01 0.46028295E+03</pdfrwt>
<pdfrwt beam="2">  1       -2 0.44084005E-01 0.46028295E+03</pdfrwt>
<totfact> 0.11261348E+03</totfact>
</mgrwt>
<rwgt>
<wgt id='morphing_basis_vector_1'> +2.2958477e-04 </wgt>
<wgt id='morphing_basis_vector_2'> +1.3238670e-04 </wgt>
<wgt id='morphing_basis_vector_3'> +1.5409906e-04 </wgt>
<wgt id='morphing_basis_vector_4'> +4.4929734e-05 </wgt>
<wgt id='morphing_basis_vector_5'> +5.9386882e-05 </wgt>
</rwgt>
</event>
<event>
 4      1 +1.9425900e-05 4.88868000e+02 7.81860800e-03 9.42505000e-02
        2 -1    0    0  501    0 +0.0000000000e+00 +0.0000000000e+00 +8.6805985734e+02 8.6805985734e+02 0.0000000000e+00 0.0000e+00 -1.0000e+00
       -2 -1    0    0    0  501 -0.0000000000e+00 -0.0000000000e+00 -6.8829331471e+01 6.8829331471e+01 0.0000000000e+00 0.0000e+00 1.0000e+00
      -13  1    1    2    0    0 +2.3143349267e+02 +6.3946875018e+01 +4.8738170292e+02 5.4331536762e+02 0.0000000000e+00 0.0000e+00 1.0000e+00
       13  1    1    2    0    0 -2.3143349267e+02 -6.3946875018e+01 +3.1184882295e+02 3.9357382119e+02 0.0000000000e+00 0.0000e+00 -1.0000e+00
<mgrwt>
<rscale>  0 0.48886800E+03</rscale>
<asrwt>0</asrwt>
<pdfrwt beam="1">  1        2 0.13354766E+00 0.48886800E+03</pdfrwt>
<pdfrwt beam="2">  1       -2 0.10589129E-01 0.48886800E+03</pdfrwt>
<totfact> 0.21071629E+03</totfact>
</mgrwt>
<rwgt>
<wgt id='morphing_basis_vector_1'> +2.8730604e-04 </wgt>
<wgt id='morphing_basis_vector_2'> +2.0093241e-04 </wgt>
<wgt id='morphing_basis_vector_3'> +1.8422706e-04 </wgt>
<wgt id='morphing_basis_vector_4'> +5.6506755e-05 </wgt>
<wgt id='morphing_basis_vector_5'> +8.6669461e-05 </wgt>
</rwgt>
</event>
<event>
 4      1 +1.9425900e-05 5.08556500e+02 7.81860800e-03 9.38082300e-02
        2 -1    0    0  501    0 +0.0000000000e+00 +0.0000000000e+00 +2.0640589165e+02 2.0640589165e+02 0.0000000000e+00 0.0000e+00 -1.0000e+00
       -2 -1    0    0    0  501 -0.0000000000e+00 -0.0000000000e+00 -3.1325379636e+02 3.1325379636e+02 0.0000000000e+00 0.0000e+00 1.0000e+00
      -13  1    1    2    0    0 -5.7987654598e+01 -2.0170304952e+02 -2.0012277148e+02 2.8999277911e+02 0.0000000000e+00 0.0000e+00 1.0000e+00
       13  1    1    2    0    0 +5.7987654598e+01 +2.0170304952e+02 +9.3274866777e+01 2.2966690890e+02 0.0000000000e+00 0.0000e+00 -1.0000e+00
<mgrwt>
<rscale>  0 0.50855650E+03</rscale>
<asrwt>0</asrwt>
<pdfrwt beam="1">  1        2 0.31754752E-01 0.50855650E+03</pdfrwt>
<pdfrwt beam="2">  1       -2 0.48192892E-01 0.50855650E+03</pdfrwt>
<totfact> 0.83742038E+02</totfact>
</mgrwt>
<rwgt>
<wgt id='morphing_basis_vector_1'> +3.0498838e-04 </wgt>
<wgt id='morphing_basis_vector_2'> +1.6996041e-04 </wgt>
<wgt id='morphing_basis_vector_3'> +2.2083204e-04 </wgt>
<wgt id='morphing_basis_vector_4'> +7.6374223e-05 </wgt>
<wgt id='morphing_basis_vector_5'> +1.0835474e-04 </wgt>
</rwgt>
</event>
<event>
 4      1 +1.9425900e-05 4.59182200e+02 7.81860800e-03 9.49613700e-02
        2 -1    0    0  501    0 +0.0000000000e+00 +0.0000000000e+00 +1.6748954533e+02 1.6748954533e+02 0.0000000000e+00 0.0000e+00 -1.0000e+00
       -2 -1    0    0    0  501 -0.0000000000e+00 -0.0000000000e+00 -3.1471863870e+02 3.1471863870e+02 0.0000000000e+00 0.0000e+00 1.0000e+00
      -13  1    1    2    0    0 -1.8601411863e+01 -1.8906059140e+02 -2.0900662417e+02 2.8244236349e+02 0.0000000000e+00 0.0000e+00 1.0000e+00
       13  1    1    2    0    0 +1.8601411863e+01 +1.8906059140e+02 +6.1777530799e+01 1.9976582054e+02 0.0000000000e+00 0.0000e+00 -1.0000e+00
<mgrwt>
<rscale>  0 0.45918224E+03</rscale>
<asrwt>0</asrwt>
<pdfrwt beam="1">  1        2 0.25767623E-01 0.45918224E+03</pdfrwt>
<pdfrwt beam="2">  1       -2 0.48418252E-01 0.45918224E+03</pdfrwt>
<totfact> 0.10557509E+03</totfact>
</mgrwt>
<rwgt>
<wgt id='morphing_basis_vector_1'> +2.2555674e-04 </wgt>
<wgt id='morphing_basis_vector_2'> +1.2385196e-04 </wgt>
<wgt id='morphing_basis_vector_3'> +1.5434566e-04 </wgt>
<wgt id='morphing_basis_vector_4'> +4.4919203e-05 </wgt>
<wgt id='morphing_basis_vector_5'> +5.8356525e-05 </wgt>
</rwgt>
</event>
<event>
 4      1 +1.9425900e-05 4.47987700e+02 7.81860800e-03 9.52443100e-02
        2 -1    0    0  501    0 +0.0000000000e+00 +0.0000000000e+00 +9.6580457581e+02 9.6580457581e+02 0.0000000000e+00 0.0000e+00 1.0000e+00
       -2 -1    0    0    0  501 -0.0000000000e+00 -0.0000000000e+00 -5.1949675836e+01 5.1949675836e+01 0.0000000000e+00 0.0000e+00 -1.0000e+00
      -13  1    1    2    0    0 +1.6223520364e+02 +3.8241246136e+01 +1.1698174751e+02 2.0363541798e+02 0.0000000000e+00 0.0000e+00 -1.0000e+00
       13  1    1    2    0    0 -1.6223520364e+02 -3.8241246136e+01 +7.9687315247e+02 8.1411883367e+02 0.0000000000e+00 0.0000e+00 1.0000e+00
<mgrwt>
<rscale>  0 0.44798765E+03</rscale>
<asrwt>0</asrwt>
<pdfrwt beam="1">  1        2 0.14858531E+00 0.44798765E+03</pdfrwt>
<pdfrwt beam="2">  1       -2 0.79922585E-02 0.44798765E+03</pdfrwt>
<totfact> 0.28268455E+03</totfact>
</mgrwt>
<rwgt>
<wgt id='morphing_basis_vector_1'> +2.0992486e-04 </wgt>
<wgt id='morphing_basis_vector_2'> +1.1421397e-04 </wgt>
<wgt id='morphing_basis_vector_3'> +1.4212391e-04 </wgt>
<wgt id='morphing_basis_vector_4'> +3.9513550e-05 </wgt>
<wgt id='morphing_basis_vector_5'> +4.9690675e-05 </wgt>
</rwgt>
</event>
<event>
 4      1 +1.9425900e-05 4.69128700e+02 7.81860800e-03 9.47169900e-02
        2 -1    0    0  501    0 +0.0000000000e+00 +0.0000000000e+00 +6.6772796640e+02 6.6772796640e+02 0.0000000000e+00 0.0000e+00 -1.0000e+00
       -2 -1    0    0    0  501 -0.0000000000e+00 -0.0000000000e+00 -8.2399463240e+01 8.2399463240e+01 0.0000000000e+00 0.0000e+00 1.0000e+00
      -13  1    1    2    0    0 -1.9487448314e+02 +7.9014504886e+01 +1.2648512811e+02 2.4539324317e+02 0.0000000000e+00 0.0000e+00 1.0000e+00
       13  1    1    2    0    0 +1.9487448314e+02 -7.9014504886e+01 +4.5884337504e+02 5.0473418646e+02 0.0000000000e+00 0.0000e+00 -1.0000e+00
<mgrwt>
<rscale>  0 0.46912866E+03</rscale>
<asrwt>0</asrwt>
<pdfrwt beam="1">  1        2 0.10272738E+00 0.46912866E+03</pdfrwt>
<pdfrwt beam="2">  1       -2 0.12676841E-01 0.46912866E+03</pdfrwt>
<totfact> 0.21981703E+03</totfact>
</mgrwt>
<rwgt>
<wgt id='morphing_basis_vector_1'> +2.4056454e-04 </wgt>
<wgt id='morphing_basis_vector_2'> +1.3395031e-04 </wgt>
<wgt id='morphing_basis_vector_3'> +1.6582282e-04 </wgt>
<wgt id='morphing_basis_vector_4'> +5.0096291e-05 </wgt>
<wgt id='morphing_basis_vector_5'> +6.6851956e-05 </wgt>
</rwgt>
</event>
<event>
 4      1 +1.9425900e-05 4.78157900e+02 7.81860800e-03 9.45006000e-02
        2 -1    0    0  501    0 +0.0000000000e+00 +0.0000000000e+00 +1.0369888086e+03 1.0369888086e+03 0.0000000000e+00 0.0000e+00 -1.0000e+00
       -2 -1    0    0    0  501 -0.0000000000e+00 -0.0000000000e+00 -5.5119916012e+01 5.5119916012e+01 0.0000000000e+00 0.0000e+00 1.0000e+00
      -13  1    1    2    0    0 +8.0930578053e+01 -1.6469841670e+02 +1.4092872404e+02 2.3137897957e+02 0.0000000000e+00 0.0000e+00 1.0000e+00
       13  1    1    2    0    0 -8.0930578053e+01 +1.6469841670e+02 +8.4094016856e+02 8.6072974505e+02 0.0000000000e+00 0.0000e+00 -1.0000e+00
<mgrwt>
<rscale>  0 0.47815787E+03</rscale>
<asrwt>0</asrwt>
<pdfrwt beam="1">  1        2 0.15953673E+00 0.47815787E+03</pdfrwt>
<pdfrwt beam="2">  1       -2 0.84799879E-02 0.47815787E+03</pdfrwt>
<totfact> 0.23359504E+03</totfact>
</mgrwt>
<rwgt>
<wgt id='morphing_basis_vector_1'> +2.5345410e-04 </wgt>
<wgt id='morphing_basis_vector_2'> +1.3920629e-04 </wgt>
<wgt id='morphing_basis_vector_3'> +1.7768602e-04 </wgt>
<wgt id='morphing_basis_vector_4'> +5.5595984e-05 </wgt>
<wgt id='morphing_basis_vector_5'> +7.5162765e-05 </wgt>
</rwgt>
</event>
<event>
 4      1 +1.9425900e-05 4.82767200e+02 7.81860800e-03 9.43921100e-02
        2 -1    0    0  501    0 +0.0000000000e+00 +0.0000000000e+00 +4.7900988719e+02 4.7900988719e+02 0.0000000000e+00 0.0000e+00 -1.0000e+00
       -2 -1    0    0    0  501 -0.0000000000e+00 -0.0000000000e+00 -1.2163850856e+02 1.2163850856e+02 0.0000000000e+00 0.0000e+00 1.0000e+00
      -13  1    1    2    0    0 +2.0010310329e+02 +1.9491420096e+01 +1.2482493593e+01 2.0143728565e+02 0.0000000000e+00 0.0000e+00 1.0000e+00
       13  1    1    2    0    0 -2.0010310329e+02 -1.9491420096e+01 +3.4488888503e+02 3.9921111010e+02 0.0000000000e+00 0.0000e+00 -1.0000e+00
<mgrwt>
<rscale>  0 0.48276722E+03</rscale>
<asrwt>0</asrwt>
<pdfrwt beam="1">  1        2 0.73693828E-01 0.48276722E+03</pdfrwt>
<pdfrwt beam="2">  1       -2 0.18713617E-01 0.48276722E+03</pdfrwt>
<totfact> 0.17214521E+03</totfact>
</mgrwt>
<rwgt>
<wgt id='morphing_basis_vector_1'> +2.6104223e-04 </wgt>
<wgt id='morphing_basis_vector_2'> +1.4439572e-04 </wgt>
<wgt id='morphing_basis_vector_3'> +1.8358555e-04 </wgt>
<wgt id='morphing_basis_vector_4'> +5.8342520e-05 </wgt>
<wgt id='morphing_basis_vector_5'> +7.9696617e-05 </wgt>
</rwgt>
</event>
<event>
 4      1 +1.9425900e-05 4.36727200e+02 7.81860800e-03 9.55378300e-02
        2 -1    0    0  501    0 +0.0000000000e+00 +0.0000000000e+00 +6.3510477600e+02 6.3510477600e+02 0.0000000000e+00 0.0000e+00 1.0000e+00
       -2 -1    0    0    0  501 -0.0000000000e+00 -0.0000000000e+00 -7.5078424999e+01 7.5078424999e+01 0.0000000000e+00 0.0000e+00 -1.0000e+00
      -13  1    1    2    0    0 -1.0899416009e+02 -1.6337521107e+02 +1.2479070514e+02 2.3268843249e+02 0.0000000000e+00 0.0000e+00 -1.0000e+00
       13  1    1    2    0    0 +1.0899416009e+02 +1.6337521107e+02 +4.3523564586e+02 4.7749476850e+02 0.0000000000e+00 0.0000e+00 1.0000e+00
<mgrwt>
<rscale>  0 0.43672722E+03</rscale>
<asrwt>0</asrwt>
<pdfrwt beam="1">  1        2 0.97708423E-01 0.43672722E+03</pdfrwt>
<pdfrwt beam="2">  1       -2 0.11550527E-01 0.43672722E+03</pdfrwt>
<totfact> 0.26984102E+03</totfact>
</mgrwt>
<rwgt>
<wgt id='morphing_basis_vector_1'> +1.9618728e-04 </wgt>
<wgt id='morphing_basis_vector_2'> +1.0843046e-04 </wgt>
<wgt id='morphing_basis_vector_3'> +1.2995833e-04 </wgt>
<wgt id='morphing_basis_vector_4'> +3.4475551e-05 </wgt>
<wgt id='morphing_basis_vector_5'> +4.1924749e-05 </wgt>
</rwgt>
</event>
<event>
 4      1 +1.9425900e-05 4.33334900e+02 7.81860800e-03 9.56280900e-02
        2 -1    0    0  501    0 +0.0000000000e+00 +0.0000000000e+00 +9.5857980038e+02 9.5857980038e+02 0.0000000000e+00 0.0000e+00 -1.0000e+00
       -2 -1    0    0    0  501 -0.0000000000e+00 -0.0000000000e+00 -4.8973255073e+01 4.8973255073e+01 0.0000000000e+00 0.0000e+00 1.0000e+00
      -13  1    1    2    0    0 +1.9697441911e+02 -1.9401797487e+00 +2.4500003992e+02 3.1436874152e+02 0.0000000000e+00 0.0000e+00 1.0000e+00
       13  1    1    2    0    0 -1.9697441911e+02 +1.9401797487e+00 +6.6460650538e+02 6.9318431393e+02 0.0000000000e+00 0.0000e+00 -1.0000e+00
<mgrwt>
<rscale>  0 0.43333485E+03</rscale>
<asrwt>0</asrwt>
<pdfrwt beam="1">  1        2 0.14747380E+00 0.43333485E+03</pdfrwt>
<pdfrwt beam="2">  1       -2 0.75343477E-02 0.43333485E+03</pdfrwt>
<totfact> 0.31260945E+03</totfact>
</mgrwt>
<rwgt>
<wgt id='morphing_basis_vector_1'> +1.9207765e-04 </wgt>
<wgt id='morphing_basis_vector_2'> +1.0635416e-04 </wgt>
<wgt id='morphing_basis_vector_3'> +1.2655189e-04 </wgt>
<wgt id='morphing_basis_vector_4'> +3.3092865e-05 </wgt>
<wgt id='morphing_basis_vector_5'> +3.9744471e-05 </wgt>
</rwgt>
</event>
<event>
 4      1 +1.9425900e-05 4.73972300e+02 7.81860800e-03 9.46002700e-02
        2 -1    0    0  501    0 +0.0000000000e+00 +0.0000000000e+00 +6.4774452010e+02 6.4774452010e+02 0.0000000000e+00 0.0000e+00 -1.0000e+00
       -2 -1    0    0    0  501 -0.0000000000e+00 -0.0000000000e+00 -8.6704613901e+01 8.6704613901e+01 0.0000000000e+00 0.0000e+00 1.0000e+00
      -13  1    1    2    0    0 -2.1180957011e+02 +9.7011739922e-01 +1.1581242708e+02 2.4140578573e+02 0.0000000000e+00 0.0000e+00 1.0000e+00
       13  1    1    2    0    0 +2.1180957011e+02 -9.7011739922e-01 +4.4522747912e+02 4.9304334827e+02 0.0000000000e+00 0.0000e+00 -1.0000e+00
<mgrwt>
<rscale>  0 0.47397231E+03</rscale>
<asrwt>0</asrwt>
<pdfrwt beam="1">  1        2 0.99653000E-01 0.47397231E+03</pdfrwt>
<pdfrwt beam="2">  1       -2 0.13339172E-01 0.47397231E+03</pdfrwt>
<totfact> 0.21018006E+03</totfact>
</mgrwt>
<rwgt>
<wgt id='morphing_basis_vector_1'> +2.4784855e-04 </wgt>
<wgt id='morphing_basis_vector_2'> +1.3811278e-04 </wgt>
<wgt id='morphing_basis_vector_3'> +1.7187258e-04 </wgt>
<wgt id='morphing_basis_vector_4'> +5.2858195e-05 </wgt>
<wgt id='morphing_basis_vector_5'> +7.1250557e-05 </wgt>
</rwgt>
</event>
<event>
 4      1 +1.9425900e-05 4.90015200e+02 7.81860800e-03 9.42241200e-02
        2 -1    0    0  501    0 +0.0000000000e+00 +0.0000000000e+00 +2.5734740188e+02 2.5734740188e+02 0.0000000000e+00 0.0000e+00 -1.0000e+00
       -2 -1    0    0    0  501 -0.0000000000e+00 -0.0000000000e+00 -2.3325948732e+02 2.3325948732e+02 0.0000000000e+00 0.0000e+00 1.0000e+00
      -13  1    1    2    0    0 -1.4901393903e+02 +1.0923808030e+01 -1.8236630516e+02 2.3575825090e+02 0.0000000000e+00 0.0000e+00 1.0000e+00
       13  1    1    2    0    0 +1.4901393903e+02 -1.0923808030e+01 +2.0645421971e+02 2.5484863830e+02 0.0000000000e+00 0.0000e+00 -1.0000e+00
<mgrwt>
<rscale>  0 0.49001520E+03</rscale>
<asrwt>0</asrwt>
<pdfrwt beam="1">  1        2 0.39591908E-01 0.49001520E+03</pdfrwt>
<pdfrwt beam="2">  1       -2 0.35886075E-01 0.49001520E+03</pdfrwt>
<totfact> 0.11296377E+03</totfact>
</mgrwt>
<rwgt>
<wgt id='morphing_basis_vector_1'> +2.7216006e-04 </wgt>
<wgt id='morphing_basis_vector_2'> +1.4916283e-04 </wgt>
<wgt id='morphing_basis_vector_3'> +1.9378392e-04 </wgt>
<wgt id='morphing_basis_vector_4'> +6.3277339e-05 </wgt>
<wgt id='morphing_basis_vector_5'> +8.7132790e-05 </wgt>
</rwgt>
</event>
<event>
 4      1 +1.9425900e-05 4.67208300e+02 7.81860800e-03 9.47636700e-02
        2 -1    0    0  501    0 +0.0000000000e+00 +0.0000000000e+00 +6.6512285558e+02 6.6512285558e+02 0.0000000000e+00 0.0000e+00 1.0000e+00
       -2 -1    0    0    0  501 -0.0000000000e+00 -0.0000000000e+00 -8.2046354666e+01 8.2046354666e+01 0.0000000000e+00 0.0000e+00 -1.0000e+00
      -13  1    1    2    0    0 +1.8501888607e+02 -1.2299952156e+02 +4.0697091457e+02 4.6366603910e+02 0.0000000000e+00 0.0000e+00 1.0000e+00
       13  1    1    2    0    0 -1.8501888607e+02 +1.2299952156e+02 +1.7610558634e+02 2.8350317114e+02 0.0000000000e+00 0.0000e+00 -1.0000e+00
<mgrwt>
<rscale>  0 0.46720833E+03</rscale>
<asrwt>0</asrwt>
<pdfrwt beam="1">  1        2 0.10232659E+00 0.46720833E+03</pdfrwt>
<pdfrwt beam="2">  1       -2 0.12622517E-01 0.46720833E+03</pdfrwt>
<totfact> 0.22234022E+03</totfact>
</mgrwt>
<rwgt>
<wgt id='morphing_basis_vector_1'> +2.5882894e-04 </wgt>
<wgt id='morphing_basis_vector_2'> +1.9769193e-04 </wgt>
<wgt id='morphing_basis_vector_3'> +1.5127724e-04 </wgt>
<wgt id='morphing_basis_vector_4'> +4.3612695e-05 </wgt>
<wgt id='morphing_basis_vector_5'> +6.6230064e-05 </wgt>
</rwgt>
</event>
<event>
 4      1 +1.9425900e-05 4.98279700e+02 7.81860800e-03 9.40363400e-02
        2 -1    0    0  501    0 +0.0000000000e+00 +0.0000000000e+00 +7.5898617516e+02 7.5898617516e+02 0.0000000000e+00 0.0000e+00 1.0000e+00
       -2 -1    0    0    0  501 -0.0000000000e+00 -0.0000000000e+00 -8.1781035118e+01 8.1781035118e+01 0.0000000000e+00 0.0000e+00 -1.0000e+00
      -13  1    1    2    0    0 +2.0128692940e+02 -1.2761953066e+02 +2.1613956533e+02 3.2174443935e+02 0.0000000000e+00 0.0000e+00 -1.0000e+00
       13  1    1    2    0    0 -2.0128692940e+02 +1.2761953066e+02 +4.6106557471e+02 5.1902277092e+02 0.0000000000e+00 0.0000e+00 1.0000e+00
<mgrwt>
<rscale>  0 0.49827974E+03</rscale>
<asrwt>0</asrwt>
<pdfrwt beam="1">  1        2 0.11676710E+00 0.49827974E+03</pdfrwt>
<pdfrwt beam="2">  1       -2 0.12581698E-01 0.49827974E+03</pdfrwt>
<totfact> 0.19052270E+03</totfact>
</mgrwt>
<rwgt>
<wgt id='morphing_basis_vector_1'> +2.8900884e-04 </wgt>
<wgt id='morphing_basis_vector_2'> +1.6621829e-04 </wgt>
<wgt id='morphing_basis_vector_3'> +2.0436656e-04 </wgt>
<wgt id='morphing_basis_vector_4'> +6.7874758e-05 </wgt>
<wgt id='morphing_basis_vector_5'> +9.6317375e-05 </wgt>
</rwgt>
</event>
<event>
 4      1 +1.9425900e-05 4.40693600e+02 7.81860800e-03 9.54333800e-02
        2 -1    0    0  501    0 +0.0000000000e+00 +0.0000000000e+00 +6.5978078190e+02 6.5978078190e+02 0.0000000000e+00 0.0000e+00 -1.0000e+00
       -2 -1    0    0    0  501 -0.0000000000e+00 -0.0000000000e+00 -7.3589171523e+01 7.3589171523e+01 0.0000000000e+00 0.0000e+00 1.0000e+00
      -13  1    1    2    0    0 -5.3416449686e+01 +2.1029258445e+02 +3.5703883272e+02 4.1779542391e+02 0.0000000000e+00 0.0000e+00 1.0000e+00
       13  1    1    2    0    0 +5.3416449686e+01 -2.1029258445e+02 +2.2915277766e+02 3.1557452952e+02 0.0000000000e+00 0.0000e+00 -1.0000e+00
<mgrwt>
<rscale>  0 0.44069364E+03</rscale>
<asrwt>0</asrwt>
<pdfrwt beam="1">  1        2 0.10150473E+00 0.44069364E+03</pdfrwt>
<pdfrwt beam="2">  1       -2 0.11321411E-01 0.44069364E+03</pdfrwt>
<totfact> 0.26627269E+03</totfact>
</mgrwt>
<rwgt>
<wgt id='morphing_basis_vector_1'> +2.1206306e-04 </wgt>
<wgt id='morphing_basis_vector_2'> +1.4478120e-04 </wgt>
<wgt id='morphing_basis_vector_3'> +1.2614270e-04 </wgt>
<wgt id='morphing_basis_vector_4'> +3.4683652e-05 </wgt>
<wgt id='morphing_basis_vector_5'> +4.5207775e-05 </wgt>
</rwgt>
</event>
<event>
 4      1 +1.9425900e-05 4.94287100e+02 7.81860800e-03 9.41265600e-02
        2 -1    0    0  501    0 +0.0000000000e+00 +0.0000000000e+00 +1.9476846838e+02 1.9476846838e+02 0.0000000000e+00 0.0000e+00 1.0000e+00
       -2 -1    0    0    0  501 -0.0000000000e+00 -0.0000000000e+00 -3.1360276345e+02 3.1360276345e+02 0.0000000000e+00 0.0000e+00 -1.0000e+00
      -13  1    1    2    0    0 -3.8848170000e+01 -2.1967864195e+02 -1.6880579337e+02 2.7975575404e+02 0.0000000000e+00 0.0000e+00 -1.0000e+00
       13  1    1    2    0    0 +3.8848170000e+01 +2.1967864195e+02 +4.9971498304e+01 2.2861547779e+02 0.0000000000e+00 0.0000e+00 1.0000e+00
<mgrwt>
<rscale>  0 0.49428708E+03</rscale>
<asrwt>0</asrwt>
<pdfrwt beam="1">  1        2 0.29964380E-01 0.49428708E+03</pdfrwt>
<pdfrwt beam="2">  1       -2 0.48246578E-01 0.49428708E+03</pdfrwt>
<totfact> 0.89307140E+02</totfact>
</mgrwt>
<rwgt>
<wgt id='morphing_basis_vector_1'> +2.8074373e-04 </wgt>
<wgt id='morphing_basis_vector_2'> +1.5776781e-04 </wgt>
<wgt id='morphing_basis_vector_3'> +1.9917488e-04 </wgt>
<wgt id='morphing_basis_vector_4'> +6.5651779e-05 </wgt>
<wgt id='morphing_basis_vector_5'> +9.1805089e-05 </wgt>
</rwgt>
</event>
<event>
 4      1 +1.9425900e-05 5.15361800e+02 7.81860800e-03 9.36603300e-02
        2 -1    0    0  501    0 +0.0000000000e+00 +0.0000000000e+00 +1.2314898477e+02 1.2314898477e+02 0.0000000000e+00 0.0000e+00 1.0000e+00
       -2 -1    0    0    0  501 -0.0000000000e+00 -0.0000000000e+00 -5.3917973769e+02 5.3917973769e+02 0.0000000000e+00 0.0000e+00 -1.0000e+00
      -13  1    1    2    0    0 +1.6824870758e+02 -1.7986535233e+02 -3.0538586633e+02 3.9232601229e+02 0.0000000000e+00 0.0000e+00 -1.0000e+00
       13  1    1    2    0    0 -1.6824870758e+02 +1.7986535233e+02 -1.1064488660e+02 2.7000271017e+02 0.0000000000e+00 0.0000e+00 1.0000e+00
<mgrwt>
<rscale>  0 0.51536177E+03</rscale>
<asrwt>0</asrwt>
<pdfrwt beam="1">  1        2 0.18945998E-01 0.51536177E+03</pdfrwt>
<pdfrwt beam="2">  1       -2 0.82950728E-01 0.51536177E+03</pdfrwt>
<totfact> 0.49648963E+02</totfact>
</mgrwt>
<rwgt>
<wgt id='morphing_basis_vector_1'> +3.2003047e-04 </wgt>
<wgt id='morphing_basis_vector_2'> +1.8500929e-04 </wgt>
<wgt id='morphing_basis_vector_3'> +2.3080386e-04 </wgt>
<wgt id='morphing_basis_vector_4'> +8.0620515e-05 </wgt>
<wgt id='morphing_basis_vector_5'> +1.1701370e-04 </wgt>
</rwgt>
</event>
<event>
 4      1 +1.9425900e-05 4.38912900e+02 7.81860800e-03 9.54801300e-02
        2 -1    0    0  501    0 +0.0000000000e+00 +0.0000000000e+00 +1.8736063182e+03 1.8736063182e+03 0.0000000000e+00 0.0000e+00 1.0000e+00
       -2 -1    0    0    0  501 -0.0000000000e+00 -0.0000000000e+00 -2.5705043419e+01 2.5705043419e+01 0.0000000000e+00 0.0000e+00 -1.0000e+00
      -13  1    1    2    0    0 -9.5890717087e+01 +1.9739814580e+02 +9.2512912607e+02 9.5080227045e+02 0.0000000000e+00 0.0000e+00 -1.0000e+00
       13  1    1    2    0    0 +9.5890717087e+01 -1.9739814580e+02 +9.2277214867e+02 9.4850909112e+02 0.0000000000e+00 0.0000e+00 1.0000e+00
<mgrwt>
<rscale>  0 0.43891289E+03</rscale>
<asrwt>0</asrwt>
<pdfrwt beam="1">  1        2 0.28824702E+00 0.43891289E+03</pdfrwt>
<pdfrwt beam="2">  1       -2 0.39546235E-02 0.43891289E+03</pdfrwt>
<totfact> 0.25665294E+03</totfact>
</mgrwt>
<rwgt>
<wgt id='morphing_basis_vector_1'> +2.0427161e-04 </wgt>
<wgt id='morphing_basis_vector_2'> +1.2644008e-04 </wgt>
<wgt id='morphing_basis_vector_3'> +1.2825876e-04 </wgt>
<wgt id='morphing_basis_vector_4'> +3.4714416e-05 </wgt>
<wgt id='morphing_basis_vector_5'> +4.3685350e-05 </wgt>
</rwgt>
</event>
<event>
 4      1 +1.9425900e-05 4.76975600e+02 7.81860800e-03 9.45286400e-02
        2 -1    0    0  501    0 +0.0000000000e+00 +0.0000000000e+00 +1.0757063690e+03 1.0757063690e+03 0.0000000000e+00 0.0000e+00 1.0000e+00
       -2 -1    0    0    0  501 -0.0000000000e+00 -0.0000000000e+00 -5.2873565411e+01 5.2873565411e+01 0.0000000000e+00 0.0000e+00 -1.0000e+00
      -13  1    1    2    0    0 +1.1246233178e+02 +1.3459394711e+02 +1.2906245360e+02 2.1776230986e+02 0.0000000000e+00 0.0000e+00 -1.0000e+00
       13  1    1    2    0    0 -1.1246233178e+02 -1.3459394711e+02 +8.9377035003e+02 9.1081762459e+02 0.0000000000e+00 0.0000e+00 1.0000e+00
<mgrwt>
<rscale>  0 0.47697560E+03</rscale>
<asrwt>0</asrwt>
<pdfrwt beam="1">  1        2 0.16549327E+00 0.47697560E+03</pdfrwt>
<pdfrwt beam="2">  1       -2 0.81343955E-02 0.47697560E+03</pdfrwt>
<totfact> 0.23622659E+03</totfact>
</mgrwt>
<rwgt>
<wgt id='morphing_basis_vector_1'> +2.5152018e-04 </wgt>
<wgt id='morphing_basis_vector_2'> +1.3784570e-04 </wgt>
<wgt id='morphing_basis_vector_3'> +1.7621094e-04 </wgt>
<wgt id='morphing_basis_vector_4'> +5.4911581e-05 </wgt>
<wgt id='morphing_basis_vector_5'> +7.4027065e-05 </wgt>
</rwgt>
</event>
<event>
 4      1 +1.9425900e-05 4.49169800e+02 7.81860800e-03 9.52140200e-02
        2 -1    0    0  501    0 +0.0000000000e+00 +0.0000000000e+00 +8.2425532702e+02 8.2425532702e+02 0.0000000000e+00 0.0000e+00 1.0000e+00
       -2 -1    0    0    0  501 -0.0000000000e+00 -0.0000000000e+00 -6.1192652187e+01 6.1192652187e+01 0.0000000000e+00 0.0000e+00 -1.0000e+00
      -13  1    1    2    0    0 -1.5275344062e+02 -5.8549633340e+01 +7.8202927774e+01 1.8132118215e+02 0.0000000000e+00 0.0000e+00 -1.0000e+00
       13  1    1    2    0    0 +1.5275344062e+02 +5.8549633340e+01 +6.8485974706e+02 7.0412679706e+02 0.0000000000e+00 0.0000e+00 1.0000e+00
<mgrwt>
<rscale>  0 0.44916977E+03</rscale>
<asrwt>0</asrwt>
<pdfrwt beam="1">  1        2 0.12680850E+00 0.44916977E+03</pdfrwt>
<pdfrwt beam="2">  1       -2 0.94142548E-02 0.44916977E+03</pdfrwt>
<totfact> 0.27050868E+03</totfact>
</mgrwt>
<rwgt>
<wgt id='morphing_basis_vector_1'> +2.1146465e-04 </wgt>
<wgt id='morphing_basis_vector_2'> +1.1499465e-04 </wgt>
<wgt id='morphing_basis_vector_3'> +1.4341593e-04 </wgt>
<wgt id='morphing_basis_vector_4'> +4.0071065e-05 </wgt>
<wgt id='morphing_basis_vector_5'> +5.0559563e-05 </wgt>
</rwgt>
</event>
<event>
 4      1 +1.9425900e-05 4.64167600e+02 7.81860800e-03 9.48380800e-02
        2 -1    0    0  501    0 +0.0000000000e+00 +0.0000000000e+00 +2.0572564328e+03 2.0572564328e+03 0.0000000000e+00 0.0000e+00 -1.0000e+00
       -2 -1    0    0    0  501 -0.0000000000e+00 -0.0000000000e+00 -2.6181904228e+01 2.6181904228e+01 0.0000000000e+00 0.0000e+00 1.0000e+00
      -13  1    1    2    0    0 +2.2764256440e+02 -3.8383479397e+01 +9.0851930835e+02 9.3739093353e+02 0.0000000000e+00 0.0000e+00 1.0000e+00
       13  1    1    2    0    0 -2.2764256440e+02 +3.8383479397e+01 +1.1225552202e+03 1.1460474035e+03 0.0000000000e+00 0.0000e+00 -1.0000e+00
<mgrwt>
<rscale>  0 0.46416760E+03</rscale>
<asrwt>0</asrwt>
<pdfrwt beam="1">  1        2 0.31650086E+00 0.46416760E+03</pdfrwt>
<pdfrwt beam="2">  1       -2 0.40279869E-02 0.46416760E+03</pdfrwt>
<totfact> 0.19825130E+03</totfact>
</mgrwt>
<rwgt>
<wgt id='morphing_basis_vector_1'> +2.3719384e-04 </wgt>
<wgt id='morphing_basis_vector_2'> +1.4188615e-04 </wgt>
<wgt id='morphing_basis_vector_3'> +1.5749696e-04 </wgt>
<wgt id='morphing_basis_vector_4'> +4.6438444e-05 </wgt>
<wgt id='morphing_basis_vector_5'> +6.2738224e-05 </wgt>
</rwgt>
</event>
<event>
 4      1 +1.9425900e-05 4.87676800e+02 7.81860800e-03 9.42779700e-02
        2 -1    0    0  501    0 +0.0000000000e+00 +0.0000000000e+00 +1.4842114282e+03 1.4842114282e+03 0.0000000000e+00 0.0000e+00 -1.0000e+00
       -2 -1    0    0    0  501 -0.0000000000e+00 -0.0000000000e+00 -4.0059770755e+01 4.0059770755e+01 0.0000000000e+00 0.0000e+00 1.0000e+00
      -13  1    1    2    0    0 +1.1826904306e+02 +1.8879379625e+02 +4.1224139365e+02 4.6858684434e+02 0.0000000000e+00 0.0000e+00 1.0000e+00
       13  1    1    2    0    0 -1.1826904306e+02 -1.8879379625e+02 +1.0319102638e+03 1.0556843546e+03 0.0000000000e+00 0.0000e+00 -1.0000e+00
<mgrwt>
<rscale>  0 0.48767682E+03</rscale>
<asrwt>0</asrwt>
<pdfrwt beam="1">  1        2 0.22834018E+00 0.48767682E+03</pdfrwt>
<pdfrwt beam="2">  1       -2 0.61630428E-02 0.48767682E+03</pdfrwt>
<totfact> 0.21296447E+03</totfact>
</mgrwt>
<rwgt>
<wgt id='morphing_basis_vector_1'> +2.6988440e-04 </wgt>
<wgt id='morphing_basis_vector_2'> +1.5181032e-04 </wgt>
<wgt id='morphing_basis_vector_3'> +1.8980782e-04 </wgt>
<wgt id='morphing_basis_vector_4'> +6.1178288e-05 </wgt>
<wgt id='morphing_basis_vector_5'> +8.4744794e-05 </wgt>
</rwgt>
</event>
<event>
 4      1 +1.9425900e-05 5.19579300e+02 7.81860800e-03 9.35698900e-02
        2 -1    0    0  501    0 +0.0000000000e+00 +0.0000000000e+00 +1.6878290636e+02 1.6878290636e+02 0.0000000000e+00 0.0000e+00 1.0000e+00
       -2 -1    0    0    0  501 -0.0000000000e+00 -0.0000000000e+00 -3.9986672113e+02 3.9986672113e+02 0.0000000000e+00 0.0000e+00 -1.0000e+00
      -13  1    1    2    0    0 -1.8946303991e+02 +5.5409355432e+01 +6.9299746392e+01 2.0921016947e+02 0.0000000000e+00 0.0000e+00 1.0000e+00
       13  1    1    2    0    0 +1.8946303991e+02 -5.5409355432e+01 -3.0038356116e+02 3.5943945801e+02 0.0000000000e+00 0.0000e+00 -1.0000e+00
<mgrwt>
<rscale>  0 0.51957932E+03</rscale>
<asrwt>0</asrwt>
<pdfrwt beam="1">  1        2 0.25966601E-01 0.51957932E+03</pdfrwt>
<pdfrwt beam="2">  1       -2 0.61517957E-01 0.51957932E+03</pdfrwt>
<totfact> 0.65052541E+02</totfact>
</mgrwt>
<rwgt>
<wgt id='morphing_basis_vector_1'> +4.0559000e-04 </wgt>
<wgt id='morphing_basis_vector_2'> +4.3060094e-04 </wgt>
<wgt id='morphing_basis_vector_3'> +2.1300656e-04 </wgt>
<wgt id='morphing_basis_vector_4'> +4.6825017e-05 </wgt>
<wgt id='morphing_basis_vector_5'> +1.2513875e-04 </wgt>
</rwgt>
</event>
<event>
 4      1 +1.9425900e-05 4.31771400e+02 7.81860800e-03 9.56699800e-02
        2 -1    0    0  501    0 +0.0000000000e+00 +0.0000000000e+00 +8.3511169480e+02 8.3511169480e+02 0.0000000000e+00 0.0000e+00 1.0000e+00
       -2 -1    0    0    0  501 -0.0000000000e+00 -0.0000000000e+00 -5.5808864407e+01 5.5808864407e+01 0.0000000000e+00 0.0000e+00 -1.0000e+00
      -13  1    1    2    0    0 +9.1126017972e+01 -1.4327648667e+02 +1.1455546065e+02 2.0482933469e+02 0.0000000000e+00 0.0000e+00 -1.0000e+00
       13  1    1    2    0    0 -9.1126017972e+01 +1.4327648667e+02 +6.6474736974e+02 6.8609122452e+02 0.0000000000e+00 0.0000e+00 1.0000e+00
<mgrwt>
<rscale>  0 0.43177140E+03</rscale>
<asrwt>0</asrwt>
<pdfrwt beam="1">  1        2 0.12847871E+00 0.43177140E+03</pdfrwt>
<pdfrwt beam="2">  1       -2 0.85859797E-02 0.43177140E+03</pdfrwt>
<totfact> 0.30664676E+03</totfact>
</mgrwt>
<rwgt>
<wgt id='morphing_basis_vector_1'> +1.8942068e-04 </wgt>
<wgt id='morphing_basis_vector_2'> +1.0298187e-04 </wgt>
<wgt id='morphing_basis_vector_3'> +1.2561274e-04 </wgt>
<wgt id='morphing_basis_vector_4'> +3.2544882e-05 </wgt>
<wgt id='morphing_basis_vector_5'> +3.8717536e-05 </wgt>
</rwgt>
</event>
<event>
 4      1 +1.9425900e-05 4.52293700e+02 7.81860800e-03 9.51344600e-02
        2 -1    0    0  501    0 +0.0000000000e+00 +0.0000000000e+00 +6.6020074233e+02 6.6020074233e+02 0.0000000000e+00 0.0000e+00 1.0000e+00
       -2 -1    0    0    0  501 -0.0000000000e+00 -0.0000000000e+00 -7.7464924713e+01 7.7464924713e+01 0.0000000000e+00 0.0000e+00 -1.0000e+00
      -13  1    1    2    0    0 +6.7138585591e+01 -1.7693693555e+02 +8.9445910922e+01 2.0931994606e+02 0.0000000000e+00 0.0000e+00 -1.0000e+00
       13  1    1    2    0    0 -6.7138585591e+01 +1.7693693555e+02 +4.9328990669e+02 5.2834572098e+02 0.0000000000e+00 0.0000e+00 1.0000e+00
<mgrwt>
<rscale>  0 0.45229371E+03</rscale>
<asrwt>0</asrwt>
<pdfrwt beam="1">  1        2 0.10156934E+00 0.45229371E+03</pdfrwt>
<pdfrwt beam="2">  1       -2 0.11917681E-01 0.45229371E+03</pdfrwt>
<totfact> 0.24553320E+03</totfact>
</mgrwt>
<rwgt>
<wgt id='morphing_basis_vector_1'> +2.1605683e-04 </wgt>
<wgt id='morphing_basis_vector_2'> +1.1855540e-04 </wgt>
<wgt id='morphing_basis_vector_3'> +1.4656434e-04 </wgt>
<wgt id='morphing_basis_vector_4'> +4.1486666e-05 </wgt>
<wgt id='morphing_basis_vector_5'> +5.2929721e-05 </wgt>
</rwgt>
</event>
<event>
 4      1 +1.9425900e-05 5.11603600e+02 7.81860800e-03 9.37417000e-02
        2 -1    0    0  501    0 +0.0000000000e+00 +0.0000000000e+00 +3.2264173082e+02 3.2264173082e+02 0.0000000000e+00 0.0000e+00 -1.0000e+00
       -2 -1    0    0    0  501 -0.0000000000e+00 -0.0000000000e+00 -2.0280875474e+02 2.0280875474e+02 0.0000000000e+00 0.0000e+00 1.0000e+00
      -13  1    1    2    0    0 +2.5724289254e+01 +1.2870695438e+02 -1.6558780071e+02 2.1129727615e+02 0.0000000000e+00 0.0000e+00 1.0000e+00
       13  1    1    2    0    0 -2.5724289254e+01 -1.2870695438e+02 +2.8542077679e+02 3.1415320941e+02 0.0000000000e+00 0.0000e+00 -1.0000e+00
<mgrwt>
<rscale>  0 0.51160363E+03</rscale>
<asrwt>0</asrwt>
<pdfrwt beam="1">  1        2 0.49637189E-01 0.51160363E+03</pdfrwt>
<pdfrwt beam="2">  1       -2 0.31201347E-01 0.51160363E+03</pdfrwt>
<totfact> 0.11257730E+03</totfact>
</mgrwt>
<rwgt>
<wgt id='morphing_basis_vector_1'> +3.0976755e-04 </wgt>
<wgt id='morphing_basis_vector_2'> +1.7075190e-04 </wgt>
<wgt id='morphing_basis_vector_3'> +2.2590408e-04 </wgt>
<wgt id='morphing_basis_vector_4'> +7.9111086e-05 </wgt>
<wgt id='morphing_basis_vector_5'> +1.1210998e-04 </wgt>
</rwgt>
</event>
<event>
 4      1 +1.9425900e-05 5.14016800e+02 7.81860800e-03 9.36893600e-02
        2 -1    0    0  501    0 +0.0000000000e+00 +0.0000000000e+00 +1.7946279237e+02 1.7946279237e+02 0.0000000000e+00 0.0000e+00 -1.0000e+00
       -2 -1    0    0    0  501 -0.0000000000e+00 -0.0000000000e+00 -3.6806133203e+02 3.6806133203e+02 0.0000000000e+00 0.0000e+00 1.0000e+00
      -13  1    1    2    0    0 -1.3631273178e+02 +2.1067157949e+02 -1.5350719426e+02 2.9415664864e+02 0.0000000000e+00 0.0000e+00 1.0000e+00
       13  1    1    2    0    0 +1.3631273178e+02 -2.1067157949e+02 -3.5091345389e+01 2.5336747576e+02 0.0000000000e+00 0.0000e+00 -1.0000e+00
<mgrwt>
<rscale>  0 0.51401679E+03</rscale>
<asrwt>0</asrwt>
<pdfrwt beam="1">  1        2 0.27609661E-01 0.51401679E+03</pdfrwt>
<pdfrwt beam="2">  1       -2 0.56624820E-01 0.51401679E+03</pdfrwt>
<totfact> 0.71651834E+02</totfact>
</mgrwt>
<rwgt>
<wgt id='morphing_basis_vector_1'> +3.1874675e-04 </wgt>
<wgt id='morphing_basis_vector_2'> +1.8736321e-04 </wgt>
<wgt id='morphing_basis_vector_3'> +2.2819175e-04 </wgt>
<wgt id='morphing_basis_vector_4'> +7.8981784e-05 </wgt>
<wgt id='morphing_basis_vector_5'> +1.1532921e-04 </wgt>
</rwgt>
</event>
<event>
 4      1 +1.9425900e-05 4.44375000e+02 7.81860800e-03 9.53374800e-02
        2 -1    0    0  501    0 +0.0000000000e+00 +0.0000000000e+00 +3.4209480457e+02 3.4209480457e+02 0.0000000000e+00 0.0000e+00 -1.0000e+00
       -2 -1    0    0    0  501 -0.0000000000e+00 -0.0000000000e+00 -1.4430879635e+02 1.4430879635e+02 0.0000000000e+00 0.0000e+00 1.0000e+00
      -13  1    1    2    0    0 +7.0196975416e+01 -1.5760349532e+02 -5.4351243159e+01 1.8088818294e+02 0.0000000000e+00 0.0000e+00 1.0000e+00
       13  1    1    2    0    0 -7.0196975416e+01 +1.5760349532e+02 +2.5213725137e+02 3.0551541798e+02 0.0000000000e+00 0.0000e+00 -1.0000e+00
<mgrwt>
<rscale>  0 0.44437502E+03</rscale>
<asrwt>0</asrwt>
<pdfrwt beam="1">  1        2 0.52629970E-01 0.44437502E+03</pdfrwt>
<pdfrwt beam="2">  1       -2 0.22201353E-01 0.44437502E+03</pdfrwt>
<totfact> 0.18876908E+03</totfact>
</mgrwt>
<rwgt>
<wgt id='morphing_basis_vector_1'> +2.0525954e-04 </wgt>
<wgt id='morphing_basis_vector_2'> +1.1180099e-04 </wgt>
<wgt id='morphing_basis_vector_3'> +1.3824844e-04 </wgt>
<wgt id='morphing_basis_vector_4'> +3.7853386e-05 </wgt>
<wgt id='morphing_basis_vector_5'> +4.7094834e-05 </wgt>
</rwgt>
</event>
<event>
 4      1 +1.9425900e-05 4.49019800e+02 7.81860800e-03 9.52178600e-02
        2 -1    0    0  501    0 +0.0000000000e+00 +0.0000000000e+00 +2.5091211389e+02 2.5091211389e+02 0.0000000000e+00 0.0000e+00 -1.0000e+00
       -2 -1    0    0    0  501 -0.0000000000e+00 -0.0000000000e+00 -2.0088589926e+02 2.0088589926e+02 0.0000000000e+00 0.0000e+00 1.0000e+00
      -13  1    1    2    0    0 -1.0010778110e+02 +5.4081816959e+01 -1.6972582370e+02 2.0433615929e+02 0.0000000000e+00 0.0000e+00 1.0000e+00
       13  1    1    2    0    0 +1.0010778110e+02 -5.4081816959e+01 +2.1975203834e+02 2.4746185386e+02 0.0000000000e+00 0.0000e+00 -1.0000e+00
<mgrwt>
<rscale>  0 0.44901985E+03</rscale>
<asrwt>0</asrwt>
<pdfrwt beam="1">  1        2 0.38601863E-01 0.44901985E+03</pdfrwt>
<pdfrwt beam="2">  1       -2 0.30905523E-01 0.44901985E+03</pdfrwt>
<totfact> 0.15153919E+03</totfact>
</mgrwt>
<rwgt>
<wgt id='morphing_basis_vector_1'> +2.1104504e-04 </wgt>
<wgt id='morphing_basis_vector_2'> +1.1420371e-04 </wgt>
<wgt id='morphing_basis_vector_3'> +1.4340245e-04 </wgt>
<wgt id='morphing_basis_vector_4'> +4.0038797e-05 </wgt>
<wgt id='morphing_basis_vector_5'> +5.0436307e-05 </wgt>
</rwgt>
</event>
<event>
 4      1 +1.9425900e-05 4.83097300e+02 7.81860800e-03 9.43843900e-02
        2 -1    0    0  501    0 +0.0000000000e+00 +0.0000000000e+00 +1.5454012218e+02 1.5454012218e+02 0.0000000000e+00 0.0000e+00 -1.0000e+00
       -2 -1    0    0    0  501 -0.0000000000e+00 -0.0000000000e+00 -3.7754438939e+02 3.7754438939e+02 0.0000000000e+00 0.0000e+00 1.0000e+00
      -13  1    1    2    0    0 -5.6932521650e+01 +1.7145367178e+02 -2.8809811960e+02 3.4005617198e+02 0.0000000000e+00 0.0000e+00 1.0000e+00
       13  1    1    2    0    0 +5.6932521650e+01 -1.7145367178e+02 +6.5093852383e+01 1.9202833959e+02 0.0000000000e+00 0.0000e+00 -1.0000e+00
<mgrwt>
<rscale>  0 0.48309732E+03</rscale>
<asrwt>0</asrwt>
<pdfrwt beam="1">  1        2 0.23775404E-01 0.48309732E+03</pdfrwt>
<pdfrwt beam="2">  1       -2 0.58083752E-01 0.48309732E+03</pdfrwt>
<totfact> 0.81044770E+02</totfact>
</mgrwt>
<rwgt>
<wgt id='morphing_basis_vector_1'> +2.6118112e-04 </wgt>
<wgt id='morphing_basis_vector_2'> +1.4349639e-04 </wgt>
<wgt id='morphing_basis_vector_3'> +1.8421938e-04 </wgt>
<wgt id='morphing_basis_vector_4'> +5.8677556e-05 </wgt>
<wgt id='morphing_basis_vector_5'> +8.0009194e-05 </wgt>
</rwgt>
</event>
<event>
 4      1 +1.9425900e-05 4.33948300e+02 7.81860800e-03 9.56117000e-02
        2 -1    0    0  501    0 +0.0000000000e+00 +0.0000000000e+00 +4.8880881443e+02 4.8880881443e+02 0.0000000000e+00 0.0000e+00 -1.0000e+00
       -2 -1    0    0    0  501 -0.0000000000e+00 -0.0000000000e+00 -9.6311240841e+01 9.6311240841e+01 0.0000000000e+00 0.0000e+00 1.0000e+00
      -13  1    1    2    0    0 -2.2071857810e+01 +1.9818490495e+02 +8.0939188066e+01 2.1521053789e+02 0.0000000000e+00 0.0000e+00 1.0000e+00
       13  1    1    2    0    0 +2.2071857810e+01 -1.9818490495e+02 +3.1155838552e+02 3.6990951738e+02 0.0000000000e+00 0.0000e+00 -1.0000e+00
<mgrwt>
<rscale>  0 0.43394831E+03</rscale>
<asrwt>0</asrwt>
<pdfrwt beam="1">  1        2 0.75201355E-01 0.43394831E+03</pdfrwt>
<pdfrwt beam="2">  1       -2 0.14817114E-01 0.43394831E+03</pdfrwt>
<totfact> 0.24527055E+03</totfact>
</mgrwt>
<rwgt>
<wgt id='morphing_basis_vector_1'> +1.9295923e-04 </wgt>
<wgt id='morphing_basis_vector_2'> +1.0717055e-04 </wgt>
<wgt id='morphing_basis_vector_3'> +1.2705342e-04 </wgt>
<wgt id='morphing_basis_vector_4'> +3.3324447e-05 </wgt>
<wgt id='morphing_basis_vector_5'> +4.0141743e-05 </wgt>
</rwgt>
</event>
<event>
 4      1 +1.9425900e-05 5.16714600e+02 7.81860800e-03 9.36312200e-02
        2 -1    0    0  501    0 +0.0000000000e+00 +0.0000000000e+00 +1.0707522255e+03 1.0707522255e+03 0.0000000000e+00 0.0000e+00 -1.0000e+00
       -2 -1    0    0    0  501 -0.0000000000e+00 -0.0000000000e+00 -6.2337947319e+01 6.2337947319e+01 0.0000000000e+00 0.0000e+00 1.0000e+00
      -13  1    1    2    0    0 -1.9922920649e+01 -2.5664168084e+02 +5.5258080813e+02 6.0959611599e+02 0.0000000000e+00 0.0000e+00 1.0000e+00
       13  1    1    2    0    0 +1.9922920649e+01 +2.5664168084e+02 +4.5583347002e+02 5.2349405680e+02 0.0000000000e+00 0.0000e+00 -1.0000e+00
<mgrwt>
<rscale>  0 0.51671461E+03</rscale>
<asrwt>0</asrwt>
<pdfrwt beam="1">  1        2 0.16473110E+00 0.51671461E+03</pdfrwt>
<pdfrwt beam="2">  1       -2 0.95904542E-02 0.51671461E+03</pdfrwt>
<totfact> 0.18420051E+03</totfact>
</mgrwt>
<rwgt>
<wgt id='morphing_basis_vector_1'> +3.3361923e-04 </wgt>
<wgt id='morphing_basis_vector_2'> +2.2079393e-04 </wgt>
<wgt id='morphing_basis_vector_3'> +2.2934717e-04 </wgt>
<wgt id='morphing_basis_vector_4'> +7.6538875e-05 </wgt>
<wgt id='morphing_basis_vector_5'> +1.1914962e-04 </wgt>
</rwgt>
</event>
<event>
 4      1 +1.9425900e-05 4.41079700e+02 7.81860800e-03 9.54232800e-02
        2 -1    0    0  501    0 +0.0000000000e+00 +0.0000000000e+00 +5.2798753823e+02 5.2798753823e+02 0.0000000000e+00 0.0000e+00 -1.0000e+00
       -2 -1    0    0    0  501 -0.0000000000e+00 -0.0000000000e+00 -9.2119247639e+01 9.2119247639e+01 0.0000000000e+00 0.0000e+00 1.0000e+00
      -13  1    1    2    0    0 +1.5844706227e+02 -1.0132754229e+02 +5.6012736578e+01 1.9624008007e+02 0.0000000000e+00 0.0000e+00 1.0000e+00
       13  1    1    2    0    0 -1.5844706227e+02 +1.0132754229e+02 +3.7985555401e+02 4.2386670580e+02 0.0000000000e+00 0.0000e+00 -1.0000e+00
<mgrwt>
<rscale>  0 0.44107965E+03</rscale>
<asrwt>0</asrwt>
<pdfrwt beam="1">  1        2 0.81228850E-01 0.44107965E+03</pdfrwt>
<pdfrwt beam="2">  1       -2 0.14172192E-01 0.44107965E+03</pdfrwt>
<totfact> 0.24146002E+03</totfact>
</mgrwt>
<rwgt>
<wgt id='morphing_basis_vector_1'> +2.0133286e-04 </wgt>
<wgt id='morphing_basis_vector_2'> +1.1041771e-04 </wgt>
<wgt id='morphing_basis_vector_3'> +1.3461113e-04 </wgt>
<wgt id='morphing_basis_vector_4'> +3.6356991e-05 </wgt>
<wgt id='morphing_basis_vector_5'> +4.4820100e-05 </wgt>
</rwgt>
</event>
<event>
 4      1 +1.9425900e-05 4.48631000e+02 7.81860800e-03 9.52278200e-02
        2 -1    0    0  501    0 +0.0000000000e+00 +0.0000000000e+00 +3.6626716070e+02 3.6626716070e+02 0.0000000000e+00 0.0000e+00 1.0000e+00
       -2 -1    0    0    0  501 -0.0000000000e+00 -0.0000000000e+00 -1.3737905831e+02 1.3737905831e+02 0.0000000000e+00 0.0000e+00 -1.0000e+00
      -13  1    1    2    0    0 +4.1761982814e+00 -1.4336008471e+02 -7.9182253417e+01 1.6382729863e+02 0.0000000000e+00 0.0000e+00 -1.0000e+00
       13  1    1    2    0    0 -4.1761982814e+00 +1.4336008471e+02 +3.0807035580e+02 3.3981892038e+02 0.0000000000e+00 0.0000e+00 1.0000e+00
<mgrwt>
<rscale>  0 0.44863097E+03</rscale>
<asrwt>0</asrwt>
<pdfrwt beam="1">  1        2 0.56348794E-01 0.44863097E+03</pdfrwt>
<pdfrwt beam="2">  1       -2 0.21135240E-01 0.44863097E+03</pdfrwt>
<totfact> 0.18991017E+03</totfact>
</mgrwt>
<rwgt>
<wgt id='morphing_basis_vector_1'> +2.1061327e-04 </wgt>
<wgt id='morphing_basis_vector_2'> +1.1417968e-04 </wgt>
<wgt id='morphing_basis_vector_3'> +1.4292620e-04 </wgt>
<wgt id='morphing_basis_vector_4'> +3.9841591e-05 </wgt>
<wgt id='morphing_basis_vector_5'> +5.0154000e-05 </wgt>
</rwgt>
</event>
<event>
 4      1 +1.9425900e-05 4.79702900e+02 7.81860800e-03 9.44640900e-02
        2 -1    0    0  501    0 +0.0000000000e+00 +0.0000000000e+00 +1.4197456218e+02 1.4197456218e+02 0.0000000000e+00 0.0000e+00 -1.0000e+00
       -2 -1    0    0    0  501 -0.0000000000e+00 -0.0000000000e+00 -4.0520445478e+02 4.0520445478e+02 0.0000000000e+00 0.0000e+00 1.0000e+00
      -13  1    1    2    0    0 +5.6582709690e+00 -1.5306985653e+02 -3.4214772700e+02 3.7486992958e+02 0.0000000000e+00 0.0000e+00 1.0000e+00
       13  1    1    2    0    0 -5.6582709690e+00 +1.5306985653e+02 +7.8917834406e+01 1.7230908738e+02 0.0000000000e+00 0.0000e+00 -1.0000e+00
<mgrwt>
<rscale>  0 0.47970293E+03</rscale>
<asrwt>0</asrwt>
<pdfrwt beam="1">  1        2 0.21842240E-01 0.47970293E+03</pdfrwt>
<pdfrwt beam="2">  1       -2 0.62339146E-01 0.47970293E+03</pdfrwt>
<totfact> 0.77552678E+02</totfact>
</mgrwt>
<rwgt>
<wgt id='morphing_basis_vector_1'> +2.5558774e-04 </wgt>
<wgt id='morphing_basis_vector_2'> +1.3972186e-04 </wgt>
<wgt id='morphing_basis_vector_3'> +1.7984342e-04 </wgt>
<wgt id='morphing_basis_vector_4'> +5.6627989e-05 </wgt>
<wgt id='morphing_basis_vector_5'> +7.6644808e-05 </wgt>
</rwgt>
</event>
<event>
 4      1 +1.9425900e-05 4.81498400e+02 7.81860800e-03 9.44218400e-02
        2 -1    0    0  501    0 +0.0000000000e+00 +0.0000000000e+00 +4.5919859073e+02 4.5919859073e+02 0.0000000000e+00 0.0000e+00 1.0000e+00
       -2 -1    0    0    0  501 -0.0000000000e+00 -0.0000000000e+00 -1.2622026258e+02 1.2622026258e+02 0.0000000000e+00 0.0000e+00 -1.0000e+00
      -13  1    1    2    0    0 -9.1856037224e+01 -2.2242347431e+02 +1.5785480400e+02 2.8779831939e+02 0.0000000000e+00 0.0000e+00 -1.0000e+00
       13  1    1    2    0    0 +9.1856037224e+01 +2.2242347431e+02 +1.7512352415e+02 2.9762053391e+02 0.0000000000e+00 0.0000e+00 1.0000e+00
<mgrwt>
<rscale>  0 0.48149836E+03</rscale>
<asrwt>0</asrwt>
<pdfrwt beam="1">  1        2 0.70645936E-01 0.48149836E+03</pdfrwt>
<pdfrwt beam="2">  1       -2 0.19418502E-01 0.48149836E+03</pdfrwt>
<totfact> 0.16984679E+03</totfact>
</mgrwt>
<rwgt>
<wgt id='morphing_basis_vector_1'> +2.6585645e-04 </wgt>
<wgt id='morphing_basis_vector_2'> +1.6441706e-04 </wgt>
<wgt id='morphing_basis_vector_3'> +1.7845113e-04 </wgt>
<wgt id='morphing_basis_vector_4'> +5.5359478e-05 </wgt>
<wgt id='morphing_basis_vector_5'> +7.8751590e-05 </wgt>
</rwgt>
</event>
<event>
 4      1 +1.9425900e-05 4.37331600e+02 7.81860800e-03 9.55218400e-02
        2 -1    0    0  501    0 +0.0000000000e+00 +0.0000000000e+00 +2.2042418329e+02 2.2042418329e+02 0.0000000000e+00 0.0000e+00 -1.0000e+00
       -2 -1    0    0    0  501 -0.0000000000e+00 -0.0000000000e+00 -2.1692147986e+02 2.1692147986e+02 0.0000000000e+00 0.0000e+00 1.0000e+00
      -13  1    1    2    0    0 -7.9533163966e+01 -1.0705101748e+02 -1.7154383532e+02 2.1728490963e+02 0.0000000000e+00 0.0000e+00 1.0000e+00
       13  1    1    2    0    0 +7.9533163966e+01 +1.0705101748e+02 +1.7504653874e+02 2.2006075352e+02 0.0000000000e+00 0.0000e+00 -1.0000e+00
<mgrwt>
<rscale>  0 0.43733164E+03</rscale>
<asrwt>0</asrwt>
<pdfrwt beam="1">  1        2 0.33911413E-01 0.43733164E+03</pdfrwt>
<pdfrwt beam="2">  1       -2 0.33372535E-01 0.43733164E+03</pdfrwt>
<totfact> 0.15313071E+03</totfact>
</mgrwt>
<rwgt>
<wgt id='morphing_basis_vector_1'> +1.9599591e-04 </wgt>
<wgt id='morphing_basis_vector_2'> +1.0593121e-04 </wgt>
<wgt id='morphing_basis_vector_3'> +1.3126040e-04 </wgt>
<wgt id='morphing_basis_vector_4'> +3.4837451e-05 </wgt>
<wgt id='morphing_basis_vector_5'> +4.2266346e-05 </wgt>
</rwgt>
</event>
<event>
 4      1 +1.9425900e-05 4.90523700e+02 7.81860800e-03 9.42124500e-02
        2 -1    0    0  501    0 +0.0000000000e+00 +0.0000000000e+00 +4.0162855653e+02 4.0162855653e+02 0.0000000000e+00 0.0000e+00 -1.0000e+00
       -2 -1    0    0    0  501 -0.0000000000e+00 -0.0000000000e+00 -1.4977364338e+02 1.4977364338e+02 0.0000000000e+00 0.0000e+00 1.0000e+00
      -13  1    1    2    0    0 -1.8929151536e+02 +1.5535159387e+02 +1.4133951017e+02 2.8274061017e+02 0.0000000000e+00 0.0000e+00 1.0000e+00
       13  1    1    2    0    0 +1.8929151536e+02 -1.5535159387e+02 +1.1051540298e+02 2.6866158974e+02 0.0000000000e+00 0.0000e+00 -1.0000e+00
<mgrwt>
<rscale>  0 0.49052369E+03</rscale>
<asrwt>0</asrwt>
<pdfrwt beam="1">  1        2 0.61789008E-01 0.49052369E+03</pdfrwt>
<pdfrwt beam="2">  1       -2 0.23042099E-01 0.49052369E+03</pdfrwt>
<totfact> 0.14844492E+03</totfact>
</mgrwt>
<rwgt>
<wgt id='morphing_basis_vector_1'> +2.8384325e-04 </wgt>
<wgt id='morphing_basis_vector_2'> +1.8328871e-04 </wgt>
<wgt id='morphing_basis_vector_3'> +1.8951453e-04 </wgt>
<wgt id='morphing_basis_vector_4'> +5.9721430e-05 </wgt>
<wgt id='morphing_basis_vector_5'> +8.8143546e-05 </wgt>
</rwgt>
</event>
<event>
 4      1 +1.9425900e-05 5.04843800e+02 7.81860800e-03 9.38899700e-02
        2 -1    0    0  501    0 +0.0000000000e+00 +0.0000000000e+00 +6.5556384225e+02 6.5556384225e+02 0.0000000000e+00 0.0000e+00 -1.0000e+00
       -2 -1    0    0    0  501 -0.0000000000e+00 -0.0000000000e+00 -9.7193908243e+01 9.7193908243e+01 0.0000000000e+00 0.0000e+00 1.0000e+00
      -13  1    1    2    0    0 +1.6787618492e+02 -1.2774176233e+02 +4.8588221549e+02 5.2969981936e+02 0.0000000000e+00 0.0000e+00 1.0000e+00
       13  1    1    2    0    0 -1.6787618492e+02 +1.2774176233e+02 +7.2487718522e+01 2.2305793113e+02 0.0000000000e+00 0.0000e+00 -1.0000e+00
<mgrwt>
<rscale>  0 0.50484379E+03</rscale>
<asrwt>0</asrwt>
<pdfrwt beam="1">  1        2 0.10085597E+00 0.50484379E+03</pdfrwt>
<pdfrwt beam="2">  1       -2 0.14952909E-01 0.50484379E+03</pdfrwt>
<totfact> 0.17269937E+03</totfact>
</mgrwt>
<rwgt>
<wgt id='morphing_basis_vector_1'> +3.5564600e-04 </wgt>
<wgt id='morphing_basis_vector_2'> +3.4408469e-04 </wgt>
<wgt id='morphing_basis_vector_3'> +1.9280185e-04 </wgt>
<wgt id='morphing_basis_vector_4'> +4.9465544e-05 </wgt>
<wgt id='morphing_basis_vector_5'> +1.0607127e-04 </wgt>
</rwgt>
</event>
<event>
 4      1 +1.9425900e-05 4.82325500e+02 7.81860800e-03 9.44024500e-02
        2 -1    0    0  501    0 +0.0000000000e+00 +0.0000000000e+00 +1.6755931947e+02 1.6755931947e+02 0.0000000000e+00 0.0000e+00 -1.0000e+00
       -2 -1    0    0    0  501 -0.0000000000e+00 -0.0000000000e+00 -3.4709779672e+02 3.4709779672e+02 0.0000000000e+00 0.0000e+00 1.0000e+00
      -13  1    1    2    0    0 -7.4612792749e+00 +6.1743451691e+01 -3.3839370779e+02 3.4406136951e+02 0.0000000000e+00 0.0000e+00 1.0000e+00
       13  1    1    2    0    0 +7.4612792749e+00 -6.1743451691e+01 +1.5885523054e+02 1.7059574668e+02 0.0000000000e+00 0.0000e+00 -1.0000e+00
<mgrwt>
<rscale>  0 0.48232549E+03</rscale>
<asrwt>0</asrwt>
<pdfrwt beam="1">  1        2 0.25778357E-01 0.48232549E+03</pdfrwt>
<pdfrwt beam="2">  1       -2 0.53399660E-01 0.48232549E+03</pdfrwt>
<totfact> 0.87206943E+02</totfact>
</mgrwt>
<rwgt>
<wgt id='morphing_basis_vector_1'> +2.5957259e-04 </wgt>
<wgt id='morphing_basis_vector_2'> +1.4161419e-04 </wgt>
<wgt id='morphing_basis_vector_3'> +1.8337980e-04 </wgt>
<wgt id='morphing_basis_vector_4'> +5.8313256e-05 </wgt>
<wgt id='morphing_basis_vector_5'> +7.9220711e-05 </wgt>
</rwgt>
</event>
<event>
 4      1 +1.9425900e-05 4.71819200e+02 7.81860800e-03 9.46519700e-02
        2 -1    0    0  501    0 +0.0000000000e+00 +0.0000000000e+00 +8.6489197532e+02 8.6489197532e+02 0.0000000000e+00 0.0000e+00 -1.0000e+00
       -2 -1    0    0    0  501 -0.0000000000e+00 -0.0000000000e+00 -6.4347168165e+01 6.4347168165e+01 0.0000000000e+00 0.0000e+00 1.0000e+00
      -13  1    1    2    0    0 -1.1326365907e+02 -1.9319771839e+02 +2.5422060276e+02 3.3879511467e+02 0.0000000000e+00 0.0000e+00 1.0000e+00
       13  1    1    2    0    0 +1.1326365907e+02 +1.9319771839e+02 +5.4632420440e+02 5.9044402882e+02 0.0000000000e+00 0.0000e+00 -1.0000e+00
<mgrwt>
<rscale>  0 0.47181924E+03</rscale>
<asrwt>0</asrwt>
<pdfrwt beam="1">  1        2 0.13306030E+00 0.47181924E+03</pdfrwt>
<pdfrwt beam="2">  1       -2 0.98995649E-02 0.47181924E+03</pdfrwt>
<totfact> 0.23519379E+03</totfact>
</mgrwt>
<rwgt>
<wgt id='morphing_basis_vector_1'> +2.4563916e-04 </wgt>
<wgt id='morphing_basis_vector_2'> +1.3950533e-04 </wgt>
<wgt id='morphing_basis_vector_3'> +1.6857836e-04 </wgt>
<wgt id='morphing_basis_vector_4'> +5.1324301e-05 </wgt>
<wgt id='morphing_basis_vector_5'> +6.9324290e-05 </wgt>
</rwgt>
</event>
<event>
 4      1 +1.9425900e-05 4.55775800e+02 7.81860800e-03 9.50465600e-02
        2 -1    0    0  501    0 +0.0000000000e+00 +0.0000000000e+00 +1.0433186966e+03 1.0433186966e+03 0.0000000000e+00 0.0000e+00 -1.0000e+00
       -2 -1    0    0    0  501 -0.0000000000e+00 -0.0000000000e+00 -4.9776635925e+01 4.9776635925e+01 0.0000000000e+00 0.0000e+00 1.0000e+00
      -13  1    1    2    0    0 +2.1149551110e+02 -8.4215914324e+01 +4.7159172043e+02 5.2366155312e+02 0.0000000000e+00 0.0000e+00 1.0000e+00
       13  1    1    2    0    0 -2.1149551110e+02 +8.4215914324e+01 +5.2195034022e+02 5.6943377938e+02 0.0000000000e+00 0.0000e+00 -1.0000e+00
<mgrwt>
<rscale>  0 0.45577580E+03</rscale>
<asrwt>0</asrwt>
<pdfrwt beam="1">  1        2 0.16051055E+00 0.45577580E+03</pdfrwt>
<pdfrwt beam="2">  1       -2 0.76579448E-02 0.45577580E+03</pdfrwt>
<totfact> 0.27094115E+03</totfact>
</mgrwt>
<rwgt>
<wgt id='morphing_basis_vector_1'> +2.2619779e-04 </wgt>
<wgt id='morphing_basis_vector_2'> +1.3785530e-04 </wgt>
<wgt id='morphing_basis_vector_3'> +1.4701950e-04 </wgt>
<wgt id='morphing_basis_vector_4'> +4.2092288e-05 </wgt>
<wgt id='morphing_basis_vector_5'> +5.5920606e-05 </wgt>
</rwgt>
</event>
<event>
 4      1 +1.9425900e-05 4.42933600e+02 7.81860800e-03 9.53749100e-02
        2 -1    0    0  501    0 +0.0000000000e+00 +0.0000000000e+00 +4.5301236381e+02 4.5301236381e+02 0.0000000000e+00 0.0000e+00 -1.0000e+00
       -2 -1    0    0    0  501 -0.0000000000e+00 -0.0000000000e+00 -1.0826979210e+02 1.0826979210e+02 0.0000000000e+00 0.0000e+00 1.0000e+00
      -13  1    1    2    0    0 +5.3021389395e+01 -1.5894574520e+02 -1.1142224774e+01 1.6792607547e+02 0.0000000000e+00 0.0000e+00 1.0000e+00
       13  1    1    2    0    0 -5.3021389395e+01 +1.5894574520e+02 +3.5588479649e+02 3.9335608044e+02 0.0000000000e+00 0.0000e+00 -1.0000e+00
<mgrwt>
<rscale>  0 0.44293365E+03</rscale>
<asrwt>0</asrwt>
<pdfrwt beam="1">  1        2 0.69694209E-01 0.44293365E+03</pdfrwt>
<pdfrwt beam="2">  1       -2 0.16656891E-01 0.44293365E+03</pdfrwt>
<totfact> 0.22132082E+03</totfact>
</mgrwt>
<rwgt>
<wgt id='morphing_basis_vector_1'> +2.0333431e-04 </wgt>
<wgt id='morphing_basis_vector_2'> +1.1057773e-04 </wgt>
<wgt id='morphing_basis_vector_3'> +1.3679002e-04 </wgt>
<wgt id='morphing_basis_vector_4'> +3.7220621e-05 </wgt>
<wgt id='morphing_basis_vector_5'> +4.6079267e-05 </wgt>
</rwgt>
</event>
<event>
 4      1 +1.9425900e-05 5.11889200e+02 7.81860800e-03 9.37354900e-02
        2 -1    0    0  501    0 +0.0000000000e+00 +0.0000000000e+00 +2.5177721367e+02 2.5177721367e+02 0.0000000000e+00 0.0000e+00 1.0000e+00
       -2 -1    0    0    0  501 -0.0000000000e+00 -0.0000000000e+00 -2.6018100591e+02 2.6018100591e+02 0.0000000000e+00 0.0000e+00 -1.0000e+00
      -13  1    1    2    0    0 +9.2716795095e+01 -2.0748663942e+02 -1.2194855146e+02 2.5791192069e+02 0.0000000000e+00 0.0000e+00 -1.0000e+00
       13  1    1    2    0    0 -9.2716795095e+01 +2.0748663942e+02 +1.1354475922e+02 2.5404629889e+02 0.0000000000e+00 0.0000e+00 1.0000e+00
<mgrwt>
<rscale>  0 0.51188924E+03</rscale>
<asrwt>0</asrwt>
<pdfrwt beam="1">  1        2 0.38734956E-01 0.51188924E+03</pdfrwt>
<pdfrwt beam="2">  1       -2 0.40027847E-01 0.51188924E+03</pdfrwt>
<totfact> 0.94853273E+02</totfact>
</mgrwt>
<rwgt>
<wgt id='morphing_basis_vector_1'> +3.1175747e-04 </wgt>
<wgt id='morphing_basis_vector_2'> +1.7560401e-04 </wgt>
<wgt id='morphing_basis_vector_3'> +2.2583617e-04 </wgt>
<wgt id='morphing_basis_vector_4'> +7.8681045e-05 </wgt>
<wgt id='morphing_basis_vector_5'> +1.1252207e-04 </wgt>
</rwgt>
</event>
<event>
 4      1 +1.9425900e-05 4.76174900e+02 7.81860800e-03 9.45476800e-02
        2 -1    0    0  501    0 +0.0000000000e+00 +0.0000000000e+00 +1.0991051200e+03 1.0991051200e+03 0.0000000000e+00 0.0000e+00 1.0000e+00
       -2 -1    0    0    0  501 -0.0000000000e+00 -0.0000000000e+00 -5.1574351772e+01 5.1574351772e+01 0.0000000000e+00 0.0000e+00 -1.0000e+00
      -13  1    1    2    0    0 -1.4442651633e+02 -1.0970650585e+02 +8.9649603572e+02 9.1465823022e+02 0.0000000000e+00 0.0000e+00 1.0000e+00
       13  1    1    2    0    0 +1.4442651633e+02 +1.0970650585e+02 +1.5103473253e+02 2.3602124158e+02 0.0000000000e+00 0.0000e+00 -1.0000e+00
<mgrwt>
<rscale>  0 0.47617490E+03</rscale>
<asrwt>0</asrwt>
<pdfrwt beam="1">  1        2 0.16909308E+00 0.47617490E+03</pdfrwt>
<pdfrwt beam="2">  1       -2 0.79345164E-02 0.47617490E+03</pdfrwt>
<totfact> 0.23780291E+03</totfact>
</mgrwt>
<rwgt>
<wgt id='morphing_basis_vector_1'> +3.1145322e-04 </wgt>
<wgt id='morphing_basis_vector_2'> +3.2675556e-04 </wgt>
<wgt id='morphing_basis_vector_3'> +1.4266019e-04 </wgt>
<wgt id='morphing_basis_vector_4'> +3.6266477e-05 </wgt>
<wgt id='morphing_basis_vector_5'> +7.6203550e-05 </wgt>
</rwgt>
</event>
<event>
 4      1 +1.9425900e-05 4.59095900e+02 7.81860800e-03 9.49635200e-02
        2 -1    0    0  501    0 +0.0000000000e+00 +0.0000000000e+00 +1.1693994471e+02 1.1693994471e+02 0.0000000000e+00 0.0000e+00 1.0000e+00
       -2 -1    0    0    0  501 -0.0000000000e+00 -0.0000000000e+00 -4.5059257208e+02 4.5059257208e+02 0.0000000000e+00 0.0000e+00 -1.0000e+00
      -13  1    1    2    0    0 +2.2242028809e+02 +2.2343128824e+01 -2.3132530706e+02 3.2168524624e+02 0.0000000000e+00 0.0000e+00 -1.0000e+00
       13  1    1    2    0    0 -2.2242028809e+02 -2.2343128824e+01 -1.0232732031e+02 2.4584727056e+02 0.0000000000e+00 0.0000e+00 1.0000e+00
<mgrwt>
<rscale>  0 0.45909594E+03</rscale>
<asrwt>0</asrwt>
<pdfrwt beam="1">  1        2 0.17990760E-01 0.45909594E+03</pdfrwt>
<pdfrwt beam="2">  1       -2 0.69321935E-01 0.45909594E+03</pdfrwt>
<totfact> 0.78348901E+02</totfact>
</mgrwt>
<rwgt>
<wgt id='morphing_basis_vector_1'> +2.2786545e-04 </wgt>
<wgt id='morphing_basis_vector_2'> +1.3130383e-04 </wgt>
<wgt id='morphing_basis_vector_3'> +1.5273800e-04 </wgt>
<wgt id='morphing_basis_vector_4'> +4.4340264e-05 </wgt>
<wgt id='morphing_basis_vector_5'> +5.8415499e-05 </wgt>
</rwgt>
</event>
<event>
 4      1 +1.9425900e-05 5.09693400e+02 7.81860800e-03 9.37833500e-02
        2 -1    0    0  501    0 +0.0000000000e+00 +0.0000000000e+00 +4.8626042076e+02 4.8626042076e+02 0.0000000000e+00 0.0000e+00 -1.0000e+00
       -2 -1    0    0    0  501 -0.0000000000e+00 -0.0000000000e+00 -1.3356391371e+02 1.3356391371e+02 0.0000000000e+00 0.0000e+00 1.0000e+00
      -13  1    1    2    0    0 -2.1301436287e+02 +8.2477315271e+01 +3.8930843673e+01 2.3171801162e+02 0.0000000000e+00 0.0000e+00 1.0000e+00
       13  1    1    2    0    0 +2.1301436287e+02 -8.2477315271e+01 +3.1376566338e+02 3.8810632285e+02 0.0000000000e+00 0.0000e+00 -1.0000e+00
<mgrwt>
<rscale>  0 0.50969342E+03</rscale>
<asrwt>0</asrwt>
<pdfrwt beam="1">  1        2 0.74809295E-01 0.50969342E+03</pdfrwt>
<pdfrwt beam="2">  1       -2 0.20548295E-01 0.50969342E+03</pdfrwt>
<totfact> 0.14507724E+03</totfact>
</mgrwt>
<rwgt>
<wgt id='morphing_basis_vector_1'> +3.0784016e-04 </wgt>
<wgt id='morphing_basis_vector_2'> +1.7359831e-04 </wgt>
<wgt id='morphing_basis_vector_3'> +2.2232273e-04 </wgt>
<wgt id='morphing_basis_vector_4'> +7.6912116e-05 </wgt>
<wgt id='morphing_basis_vector_5'> +1.0978519e-04 </wgt>
</rwgt>
</event>
<event>
 4      1 +1.9425900e-05 4.42440900e+02 7.81860800e-03 9.53877400e-02
        2 -1    0    0  501    0 +0.0000000000e+00 +0.0000000000e+00 +2.2446755994e+02 2.2446755994e+02 0.0000000000e+00 0.0000e+00 -1.0000e+00
       -2 -1    0    0    0  501 -0.0000000000e+00 -0.0000000000e+00 -2.1802029326e+02 2.1802029326e+02 0.0000000000e+00 0.0000e+00 1.0000e+00
      -13  1    1    2    0    0 +8.3066463989e+01 -2.2582956328e+01 -2.0058331998e+02 2.1827435857e+02 0.0000000000e+00 0.0000e+00 1.0000e+00
       13  1    1    2    0    0 -8.3066463989e+01 +2.2582956328e+01 +2.0703058666e+02 2.2421349462e+02 0.0000000000e+00 0.0000e+00 -1.0000e+00
<mgrwt>
<rscale>  0 0.44244088E+03</rscale>
<asrwt>0</asrwt>
<pdfrwt beam="1">  1        2 0.34533471E-01 0.44244088E+03</pdfrwt>
<pdfrwt beam="2">  1       -2 0.33541584E-01 0.44244088E+03</pdfrwt>
<totfact> 0.14869015E+03</totfact>
</mgrwt>
<rwgt>
<wgt id='morphing_basis_vector_1'> +2.0239853e-04 </wgt>
<wgt id='morphing_basis_vector_2'> +1.0929430e-04 </wgt>
<wgt id='morphing_basis_vector_3'> +1.3649435e-04 </wgt>
<wgt id='morphing_basis_vector_4'> +3.7046210e-05 </wgt>
<wgt id='morphing_basis_vector_5'> +4.5719144e-05 </wgt>
</rwgt>
</event>
<event>
 4      1 +1.9425900e-05 4.30709000e+02 7.81860800e-03 9.56985600e-02
        2 -1    0    0  501    0 +0.0000000000e+00 +0.0000000000e+00 +4.1366021513e+02 4.1366021513e+02 0.0000000000e+00 0.0000e+00 -1.0000e+00
       -2 -1    0    0    0  501 -0.0000000000e+00 -0.0000000000e+00 -1.1211509947e+02 1.1211509947e+02 0.0000000000e+00 0.0000e+00 1.0000e+00
      -13  1    1    2    0    0 +1.8670599162e-01 -8.3523888799e+01 -9.1537498614e+01 1.2391686129e+02 0.0000000000e+00 0.0000e+00 1.0000e+00
       13  1    1    2    0    0 -1.8670599162e-01 +8.3523888799e+01 +3.9308261427e+02 4.0185845332e+02 0.0000000000e+00 0.0000e+00 -1.0000e+00
<mgrwt>
<rscale>  0 0.43070898E+03</rscale>
<asrwt>0</asrwt>
<pdfrwt beam="1">  1        2 0.63640033E-01 0.43070898E+03</pdfrwt>
<pdfrwt beam="2">  1       -2 0.17248477E-01 0.43070898E+03</pdfrwt>
<totfact> 0.23134848E+03</totfact>
</mgrwt>
<rwgt>
<wgt id='morphing_basis_vector_1'> +1.8777697e-04 </wgt>
<wgt id='morphing_basis_vector_2'> +1.0116659e-04 </wgt>
<wgt id='morphing_basis_vector_3'> +1.2487306e-04 </wgt>
<wgt id='morphing_basis_vector_4'> +3.2158547e-05 </wgt>
<wgt id='morphing_basis_vector_5'> +3.8037616e-05 </wgt>
</rwgt>
</event>
<event>
 4      1 +1.9425900e-05 4.48665400e+02 7.81860800e-03 9.52269300e-02
        2 -1    0    0  501    0 +0.0000000000e+00 +0.0000000000e+00 +1.2685047360e+03 1.2685047360e+03 0.0000000000e+00 0.0000e+00 -1.0000e+00
       -2 -1    0    0    0  501 -0.0000000000e+00 -0.0000000000e+00 -3.9672818575e+01 3.9672818575e+01 0.0000000000e+00 0.0000e+00 1.0000e+00
      -13  1    1    2    0    0 +2.2329677385e+02 -1.9692185279e+01 +6.3982228720e+02 6.7795412129e+02 0.0000000000e+00 0.0000e+00 1.0000e+00
       13  1    1    2    0    0 -2.2329677385e+02 +1.9692185279e+01 +5.8900963025e+02 6.3022343332e+02 0.0000000000e+00 0.0000e+00 -1.0000e+00
<mgrwt>
<rscale>  0 0.44866539E+03</rscale>
<asrwt>0</asrwt>
<pdfrwt beam="1">  1        2 0.19515454E+00 0.44866539E+03</pdfrwt>
<pdfrwt beam="2">  1       -2 0.61035115E-02 0.44866539E+03</pdfrwt>
<totfact> 0.28429501E+03</totfact>
</mgrwt>
<rwgt>
<wgt id='morphing_basis_vector_1'> +2.1834845e-04 </wgt>
<wgt id='morphing_basis_vector_2'> +1.3796809e-04 </wgt>
<wgt id='morphing_basis_vector_3'> +1.3776319e-04 </wgt>
<wgt id='morphing_basis_vector_4'> +3.8537132e-05 </wgt>
<wgt id='morphing_basis_vector_5'> +5.0610077e-05 </wgt>
</rwgt>
</event>
<event>
 4      1 +1.9425900e-05 5.02806600e+02 7.81860800e-03 9.39351400e-02
        2 -1    0    0  501    0 +0.0000000000e+00 +0.0000000000e+00 +2.1727463129e+02 2.1727463129e+02 0.0000000000e+00 0.0000e+00 1.0000e+00
       -2 -1    0    0    0  501 -0.0000000000e+00 -0.0000000000e+00 -2.9089273376e+02 2.9089273376e+02 0.0000000000e+00 0.0000e+00 -1.0000e+00
      -13  1    1    2    0    0 +2.2879112796e+02 +9.1933174749e+01 +1.2770295688e+01 2.4690113265e+02 0.0000000000e+00 0.0000e+00 1.0000e+00
       13  1    1    2    0    0 -2.2879112796e+02 -9.1933174749e+01 -8.6388398155e+01 2.6126623239e+02 0.0000000000e+00 0.0000e+00 -1.0000e+00
<mgrwt>
<rscale>  0 0.50280657E+03</rscale>
<asrwt>0</asrwt>
<pdfrwt beam="1">  1        2 0.33426866E-01 0.50280657E+03</pdfrwt>
<pdfrwt beam="2">  1       -2 0.44752728E-01 0.50280657E+03</pdfrwt>
<totfact> 0.90989589E+02</totfact>
</mgrwt>
<rwgt>
<wgt id='morphing_basis_vector_1'> +3.1313196e-04 </wgt>
<wgt id='morphing_basis_vector_2'> +2.2119058e-04 </wgt>
<wgt id='morphing_basis_vector_3'> +2.0466996e-04 </wgt>
<wgt id='morphing_basis_vector_4'> +6.4442853e-05 </wgt>
<wgt id='morphing_basis_vector_5'> +1.0217357e-04 </wgt>
</rwgt>
</event>
<event>
 4      1 +1.9425900e-05 4.58556500e+02 7.81860800e-03 9.49769600e-02
        2 -1    0    0  501    0 +0.0000000000e+00 +0.0000000000e+00 +1.1191374591e+03 1.1191374591e+03 0.0000000000e+00 0.0000e+00 -1.0000e+00
       -2 -1    0    0    0  501 -0.0000000000e+00 -0.0000000000e+00 -4.6972353109e+01 4.6972353109e+01 0.0000000000e+00 0.0000e+00 1.0000e+00
      -13  1    1    2    0    0 +5.7191931093e+01 -2.2020175905e+02 +6.0840348121e+02 6.4954948051e+02 0.0000000000e+00 0.0000e+00 1.0000e+00
       13  1    1    2    0    0 -5.7191931093e+01 +2.2020175905e+02 +4.6376162473e+02 5.1656033166e+02 0.0000000000e+00 0.0000e+00 -1.0000e+00
<mgrwt>
<rscale>  0 0.45855652E+03</rscale>
<asrwt>0</asrwt>
<pdfrwt beam="1">  1        2 0.17217497E+00 0.45855652E+03</pdfrwt>
<pdfrwt beam="2">  1       -2 0.72265167E-02 0.45855652E+03</pdfrwt>
<totfact> 0.26721303E+03</totfact>
</mgrwt>
<rwgt>
<wgt id='morphing_basis_vector_1'> +2.3534924e-04 </wgt>
<wgt id='morphing_basis_vector_2'> +1.5637887e-04 </wgt>
<wgt id='morphing_basis_vector_3'> +1.4697219e-04 </wgt>
<wgt id='morphing_basis_vector_4'> +4.2277325e-05 </wgt>
<wgt id='morphing_basis_vector_5'> +5.8417796e-05 </wgt>
</rwgt>
</event>
<event>
 4      1 +1.9425900e-05 4.99748500e+02 7.81860800e-03 9.40033800e-02
        2 -1    0    0  501    0 +0.0000000000e+00 +0.0000000000e+00 +7.8210203391e+02 7.8210203391e+02 0.0000000000e+00 0.0000e+00 -1.0000e+00
       -2 -1    0    0    0  501 -0.0000000000e+00 -0.0000000000e+00 -7.9832475997e+01 7.9832475997e+01 0.0000000000e+00 0.0000e+00 1.0000e+00
      -13  1    1    2    0    0 +2.2954606739e+02 +9.1813878602e+00 +1.8160583670e+02 2.9284189396e+02 0.0000000000e+00 0.0000e+00 1.0000e+00
       13  1    1    2    0    0 -2.2954606739e+02 -9.1813878602e+00 +5.2066372121e+02 5.6909261595e+02 0.0000000000e+00 0.0000e+00 -1.0000e+00
<mgrwt>
<rscale>  0 0.49974850E+03</rscale>
<asrwt>0</asrwt>
<pdfrwt beam="1">  1        2 0.12032338E+00 0.49974850E+03</pdfrwt>
<pdfrwt beam="2">  1       -2 0.12281920E-01 0.49974850E+03</pdfrwt>
<totfact> 0.19068975E+03</totfact>
</mgrwt>
<rwgt>
<wgt id='morphing_basis_vector_1'> +2.9046187e-04 </wgt>
<wgt id='morphing_basis_vector_2'> +1.6431423e-04 </wgt>
<wgt id='morphing_basis_vector_3'> +2.0699652e-04 </wgt>
<wgt id='morphing_basis_vector_4'> +6.9349467e-05 </wgt>
<wgt id='morphing_basis_vector_5'> +9.7946736e-05 </wgt>
</rwgt>
</event>
<event>
 4      1 +1.9425900e-05 4.52336700e+02 7.81860800e-03 9.51333700e-02
        2 -1    0    0  501    0 +0.0000000000e+00 +0.0000000000e+00 +6.5195350081e+02 6.5195350081e+02 0.0000000000e+00 0.0000e+00 -1.0000e+00
       -2 -1    0    0    0  501 -0.0000000000e+00 -0.0000000000e+00 -7.8459787486e+01 7.8459787486e+01 0.0000000000e+00 0.0000e+00 1.0000e+00
      -13  1    1    2    0    0 -8.5041948551e+01 -1.7519927762e+02 +1.0104846734e+02 2.1940308258e+02 0.0000000000e+00 0.0000e+00 1.0000e+00
       13  1    1    2    0    0 +8.5041948551e+01 +1.7519927762e+02 +4.7244524599e+02 5.1101020572e+02 0.0000000000e+00 0.0000e+00 -1.0000e+00
<mgrwt>
<rscale>  0 0.45233675E+03</rscale>
<asrwt>0</asrwt>
<pdfrwt beam="1">  1        2 0.10030054E+00 0.45233675E+03</pdfrwt>
<pdfrwt beam="2">  1       -2 0.12070737E-01 0.45233675E+03</pdfrwt>
<totfact> 0.24425025E+03</totfact>
</mgrwt>
<rwgt>
<wgt id='morphing_basis_vector_1'> +2.1627061e-04 </wgt>
<wgt id='morphing_basis_vector_2'> +1.1906866e-04 </wgt>
<wgt id='morphing_basis_vector_3'> +1.4650979e-04 </wgt>
<wgt id='morphing_basis_vector_4'> +4.1478065e-05 </wgt>
<wgt id='morphing_basis_vector_5'> +5.2971109e-05 </wgt>
</rwgt>
</event>
<event>
 4      1 +1.9425900e-05 4.40364600e+02 7.81860800e-03 9.54420000e-02
        2 -1    0    0  501    0 +0.0000000000e+00 +0.0000000000e+00 +8.3188655880e+02 8.3188655880e+02 0.0000000000e+00 0.0000e+00 1.0000e+00
       -2 -1    0    0    0  501 -0.0000000000e+00 -0.0000000000e+00 -5.8277474445e+01 5.8277474445e+01 0.0000000000e+00 0.0000e+00 -1.0000e+00
      -13  1    1    2    0    0 +1.6418815162e+02 -5.3851247098e+01 +1.1095192405e+02 2.0534857047e+02 0.0000000000e+00 0.0000e+00 -1.0000e+00
       13  1    1    2    0    0 -1.6418815162e+02 +5.3851247098e+01 +6.6265716030e+02 6.8481546277e+02 0.0000000000e+00 0.0000e+00 1.0000e+00
<mgrwt>
<rscale>  0 0.44036461E+03</rscale>
<asrwt>0</asrwt>
<pdfrwt beam="1">  1        2 0.12798254E+00 0.44036461E+03</pdfrwt>
<pdfrwt beam="2">  1       -2 0.89657659E-02 0.44036461E+03</pdfrwt>
<totfact> 0.28829918E+03</totfact>
</mgrwt>
<rwgt>
<wgt id='morphing_basis_vector_1'> +2.0011656e-04 </wgt>
<wgt id='morphing_basis_vector_2'> +1.0896857e-04 </wgt>
<wgt id='morphing_basis_vector_3'> +1.3410012e-04 </wgt>
<wgt id='morphing_basis_vector_4'> +3.6089438e-05 </wgt>
<wgt id='morphing_basis_vector_5'> +4.4314604e-05 </wgt>
</rwgt>
</event>
<event>
 4      1 +1.9425900e-05 4.75124900e+02 7.81860800e-03 9.45727100e-02
        2 -1    0    0  501    0 +0.0000000000e+00 +0.0000000000e+00 +2.9971360388e+02 2.9971360388e+02 0.0000000000e+00 0.0000e+00 -1.0000e+00
       -2 -1    0    0    0  501 -0.0000000000e+00 -0.0000000000e+00 -1.8829948758e+02 1.8829948758e+02 0.0000000000e+00 0.0000e+00 1.0000e+00
      -13  1    1    2    0    0 +7.8075134003e+00 -1.3699251254e+02 -1.4348126239e+02 1.9853155521e+02 0.0000000000e+00 0.0000e+00 1.0000e+00
       13  1    1    2    0    0 -7.8075134003e+00 +1.3699251254e+02 +2.5489537869e+02 2.8948153626e+02 0.0000000000e+00 0.0000e+00 -1.0000e+00
<mgrwt>
<rscale>  0 0.47512490E+03</rscale>
<asrwt>0</asrwt>
<pdfrwt beam="1">  1        2 0.46109785E-01 0.47512490E+03</pdfrwt>
<pdfrwt beam="2">  1       -2 0.28969152E-01 0.47512490E+03</pdfrwt>
<totfact> 0.13912248E+03</totfact>
</mgrwt>
<rwgt>
<wgt id='morphing_basis_vector_1'> +2.4843248e-04 </wgt>
<wgt id='morphing_basis_vector_2'> +1.3547367e-04 </wgt>
<wgt id='morphing_basis_vector_3'> +1.7397112e-04 </wgt>
<wgt id='morphing_basis_vector_4'> +5.3876606e-05 </wgt>
<wgt id='morphing_basis_vector_5'> +7.2267851e-05 </wgt>
</rwgt>
</event>
<event>
 4      1 +1.9425900e-05 4.69400000e+02 7.81860800e-03 9.47104100e-02
        2 -1    0    0  501    0 +0.0000000000e+00 +0.0000000000e+00 +1.1653013229e+03 1.1653013229e+03 0.0000000000e+00 0.0000e+00 -1.0000e+00
       -2 -1    0    0    0  501 -0.0000000000e+00 -0.0000000000e+00 -4.7270255513e+01 4.7270255513e+01 0.0000000000e+00 0.0000e+00 1.0000e+00
      -13  1    1    2    0    0 -5.9839534080e+01 +2.2676385426e+02 +5.3569820792e+02 5.8478644428e+02 0.0000000000e+00 0.0000e+00 1.0000e+00
       13  1    1    2    0    0 +5.9839534080e+01 -2.2676385426e+02 +5.8233285950e+02 6.2778513417e+02 0.0000000000e+00 0.0000e+00 -1.0000e+00
<mgrwt>
<rscale>  0 0.46940001E+03</rscale>
<asrwt>0</asrwt>
<pdfrwt beam="1">  1        2 0.17927710E+00 0.46940001E+03</pdfrwt>
<pdfrwt beam="2">  1       -2 0.72723479E-02 0.46940001E+03</pdfrwt>
<totfact> 0.24888017E+03</totfact>
</mgrwt>
<rwgt>
<wgt id='morphing_basis_vector_1'> +2.4649446e-04 </wgt>
<wgt id='morphing_basis_vector_2'> +1.5130240e-04 </wgt>
<wgt id='morphing_basis_vector_3'> +1.6302531e-04 </wgt>
<wgt id='morphing_basis_vector_4'> +4.8773702e-05 </wgt>
<wgt id='morphing_basis_vector_5'> +6.7370328e-05 </wgt>
</rwgt>
</event>
<event>
 4      1 +1.9425900e-05 4.32737100e+02 7.81860800e-03 9.56440800e-02
        2 -1    0    0  501    0 +0.0000000000e+00 +0.0000000000e+00 +3.0543149150e+02 3.0543149150e+02 0.0000000000e+00 0.0000e+00 1.0000e+00
       -2 -1    0    0    0  501 -0.0000000000e+00 -0.0000000000e+00 -1.5327613427e+02 1.5327613427e+02 0.0000000000e+00 0.0000e+00 -1.0000e+00
      -13  1    1    2    0    0 -1.4573047216e+02 -1.2781255760e+02 +1.7798216674e+02 2.6315598430e+02 0.0000000000e+00 0.0000e+00 1.0000e+00
       13  1    1    2    0    0 +1.4573047216e+02 +1.2781255760e+02 -2.5826809513e+01 1.9555164148e+02 0.0000000000e+00 0.0000e+00 -1.0000e+00
<mgrwt>
<rscale>  0 0.43273714E+03</rscale>
<asrwt>0</asrwt>
<pdfrwt beam="1">  1        2 0.46989460E-01 0.43273714E+03</pdfrwt>
<pdfrwt beam="2">  1       -2 0.23580944E-01 0.43273714E+03</pdfrwt>
<totfact> 0.19345446E+03</totfact>
</mgrwt>
<rwgt>
<wgt id='morphing_basis_vector_1'> +2.1733978e-04 </wgt>
<wgt id='morphing_basis_vector_2'> +1.8605732e-04 </wgt>
<wgt id='morphing_basis_vector_3'> +1.0614015e-04 </wgt>
<wgt id='morphing_basis_vector_4'> +3.0350564e-05 </wgt>
<wgt id='morphing_basis_vector_5'> +4.0924445e-05 </wgt>
</rwgt>
</event>
<event>
 4      1 +1.9425900e-05 4.56256800e+02 7.81860800e-03 9.50344900e-02
        2 -1    0    0  501    0 +0.0000000000e+00 +0.0000000000e+00 +8.1859629645e+02 8.1859629645e+02 0.0000000000e+00 0.0000e+00 -1.0000e+00
       -2 -1    0    0    0  501 -0.0000000000e+00 -0.0000000000e+00 -6.3575381070e+01 6.3575381070e+01 0.0000000000e+00 0.0000e+00 1.0000e+00
      -13  1    1    2    0    0 -1.7308472864e+02 -1.4120805316e+02 +4.6704903741e+02 5.1771888213e+02 0.0000000000e+00 0.0000e+00 1.0000e+00
       13  1    1    2    0    0 +1.7308472864e+02 +1.4120805316e+02 +2.8797187797e+02 3.6445279539e+02 0.0000000000e+00 0.0000e+00 -1.0000e+00
<mgrwt>
<rscale>  0 0.45625682E+03</rscale>
<asrwt>0</asrwt>
<pdfrwt beam="1">  1        2 0.12593788E+00 0.45625682E+03</pdfrwt>
<pdfrwt beam="2">  1       -2 0.97808284E-02 0.45625682E+03</pdfrwt>
<totfact> 0.25717765E+03</totfact>
</mgrwt>
<rwgt>
<wgt id='morphing_basis_vector_1'> +2.3544666e-04 </wgt>
<wgt id='morphing_basis_vector_2'> +1.6478332e-04 </wgt>
<wgt id='morphing_basis_vector_3'> +1.4212066e-04 </wgt>
<wgt id='morphing_basis_vector_4'> +4.0544065e-05 </wgt>
<wgt id='morphing_basis_vector_5'> +5.6762845e-05 </wgt>
</rwgt>
</event>
<event>
 4      1 +1.9425900e-05 4.61815300e+02 7.81860800e-03 9.48960500e-02
        2 -1    0    0  501    0 +0.0000000000e+00 +0.0000000000e+00 +4.4578779093e+02 4.4578779093e+02 0.0000000000e+00 0.0000e+00 1.0000e+00
       -2 -1    0    0    0  501 -0.0000000000e+00 -0.0000000000e+00 -1.1960474754e+02 1.1960474754e+02 0.0000000000e+00 0.0000e+00 -1.0000e+00
      -13  1    1    2    0    0 -1.1069484069e+02 +1.8993852072e+02 +7.6622588387e+01 2.3281110467e+02 0.0000000000e+00 0.0000e+00 -1.0000e+00
       13  1    1    2    0    0 +1.1069484069e+02 -1.8993852072e+02 +2.4956045500e+02 3.3258143380e+02 0.0000000000e+00 0.0000e+00 1.0000e+00
<mgrwt>
<rscale>  0 0.46181527E+03</rscale>
<asrwt>0</asrwt>
<pdfrwt beam="1">  1        2 0.68582736E-01 0.46181527E+03</pdfrwt>
<pdfrwt beam="2">  1       -2 0.18400731E-01 0.46181527E+03</pdfrwt>
<totfact> 0.19173199E+03</totfact>
</mgrwt>
<rwgt>
<wgt id='morphing_basis_vector_1'> +2.3090618e-04 </wgt>
<wgt id='morphing_basis_vector_2'> +1.3096605e-04 </wgt>
<wgt id='morphing_basis_vector_3'> +1.5642625e-04 </wgt>
<wgt id='morphing_basis_vector_4'> +4.5912219e-05 </wgt>
<wgt id='morphing_basis_vector_5'> +6.0608558e-05 </wgt>
</rwgt>
</event>
<event>
 4      1 +1.9425900e-05 5.06076400e+02 7.81860800e-03 9.38627500e-02
        2 -1    0    0  501    0 +0.0000000000e+00 +0.0000000000e+00 +3.7979849167e+02 3.7979849167e+02 0.0000000000e+00 0.0000e+00 -1.0000e+00
       -2 -1    0    0    0  501 -0.0000000000e+00 -0.0000000000e+00 -1.6858498061e+02 1.6858498061e+02 0.0000000000e+00 0.0000e+00 1.0000e+00
      -13  1    1    2    0    0 +2.2792774696e+02 +4.2935231289e+01 -4.0126368967e+00 2.3197110418e+02 0.0000000000e+00 0.0000e+00 1.0000e+00
       13  1    1    2    0    0 -2.2792774696e+02 -4.2935231289e+01 +2.1522614796e+02 3.1641236810e+02 0.0000000000e+00 0.0000e+00 -1.0000e+00
<mgrwt>
<rscale>  0 0.50607636E+03</rscale>
<asrwt>0</asrwt>
<pdfrwt beam="1">  1        2 0.58430537E-01 0.50607636E+03</pdfrwt>
<pdfrwt beam="2">  1       -2 0.25936151E-01 0.50607636E+03</pdfrwt>
<totfact> 0.12933087E+03</totfact>
</mgrwt>
<rwgt>
<wgt id='morphing_basis_vector_1'> +3.0163831e-04 </wgt>
<wgt id='morphing_basis_vector_2'> +1.7084051e-04 </wgt>
<wgt id='morphing_basis_vector_3'> +2.1656558e-04 </wgt>
<wgt id='morphing_basis_vector_4'> +7.3998297e-05 </wgt>
<wgt id='morphing_basis_vector_5'> +1.0538196e-04 </wgt>
</rwgt>
</event>
<event>
 4      1 +1.9425900e-05 4.41076900e+02 7.81860800e-03 9.54233500e-02
        2 -1    0    0  501    0 +0.0000000000e+00 +0.0000000000e+00 +1.3048849856e+03 1.3048849856e+03 0.0000000000e+00 0.0000e+00 -1.0000e+00
       -2 -1    0    0    0  501 -0.0000000000e+00 -0.0000000000e+00 -3.7273183755e+01 3.7273183755e+01 0.0000000000e+00 0.0000e+00 1.0000e+00
      -13  1    1    2    0    0 +1.9482291925e+02 -1.0205466582e+02 +5.8416882357e+02 6.2419895796e+02 0.0000000000e+00 0.0000e+00 1.0000e+00
       13  1    1    2    0    0 -1.9482291925e+02 +1.0205466582e+02 +6.8344297831e+02 7.1795921143e+02 0.0000000000e+00 0.0000e+00 -1.0000e+00
<mgrwt>
<rscale>  0 0.44107694E+03</rscale>
<asrwt>0</asrwt>
<pdfrwt beam="1">  1        2 0.20075150E+00 0.44107694E+03</pdfrwt>
<pdfrwt beam="2">  1       -2 0.57343370E-02 0.44107694E+03</pdfrwt>
<totfact> 0.29829328E+03</totfact>
</mgrwt>
<rwgt>
<wgt id='morphing_basis_vector_1'> +2.0554544e-04 </wgt>
<wgt id='morphing_basis_vector_2'> +1.2342918e-04 </wgt>
<wgt id='morphing_basis_vector_3'> +1.3158419e-04 </wgt>
<wgt id='morphing_basis_vector_4'> +3.5782119e-05 </wgt>
<wgt id='morphing_basis_vector_5'> +4.5062573e-05 </wgt>
</rwgt>
</event>
<event>
 4      1 +1.9425900e-05 4.56532000e+02 7.81860800e-03 9.50275800e-02
        2 -1    0    0  501    0 +0.0000000000e+00 +0.0000000000e+00 +7.5518980127e+02 7.5518980127e+02 0.0000000000e+00 0.0000e+00 -1.0000e+00
       -2 -1    0    0    0  501 -0.0000000000e+00 -0.0000000000e+00 -6.8996384570e+01 6.8996384570e+01 0.0000000000e+00 0.0000e+00 1.0000e+00
      -13  1    1    2    0    0 -9.6856300600e+01 +1.1958631915e+02 +3.8733867520e+01 1.5868945518e+02 0.0000000000e+00 0.0000e+00 1.0000e+00
       13  1    1    2    0    0 +9.6856300600e+01 -1.1958631915e+02 +6.4745954918e+02 6.6549673066e+02 0.0000000000e+00 0.0000e+00 -1.0000e+00
<mgrwt>
<rscale>  0 0.45653200E+03</rscale>
<asrwt>0</asrwt>
<pdfrwt beam="1">  1        2 0.11618304E+00 0.45653200E+03</pdfrwt>
<pdfrwt beam="2">  1       -2 0.10614829E-01 0.45653200E+03</pdfrwt>
<totfact> 0.25033744E+03</totfact>
</mgrwt>
<rwgt>
<wgt id='morphing_basis_vector_1'> +2.2140220e-04 </wgt>
<wgt id='morphing_basis_vector_2'> +1.2037060e-04 </wgt>
<wgt id='morphing_basis_vector_3'> +1.5160180e-04 </wgt>
<wgt id='morphing_basis_vector_4'> +4.3667923e-05 </wgt>
<wgt id='morphing_basis_vector_5'> +5.6202835e-05 </wgt>
</rwgt>
</event>
<event>
 4      1 +1.9425900e-05 4.59014700e+02 7.81860800e-03 9.49655400e-02
        2 -1    0    0  501    0 +0.0000000000e+00 +0.0000000000e+00 +2.1051492751e+03 2.1051492751e+03 0.0000000000e+00 0.0000e+00 1.0000e+00
       -2 -1    0    0    0  501 -0.0000000000e+00 -0.0000000000e+00 -2.5021325255e+01 2.5021325255e+01 0.0000000000e+00 0.0000e+00 -1.0000e+00
      -13  1    1    2    0    0 -1.3297898941e+02 -1.7673652700e+02 +7.5571031820e+02 7.8741177070e+02 0.0000000000e+00 0.0000e+00 -1.0000e+00
       13  1    1    2    0    0 +1.3297898941e+02 +1.7673652700e+02 +1.3244176316e+03 1.3427588296e+03 0.0000000000e+00 0.0000e+00 1.0000e+00
<mgrwt>
<rscale>  0 0.45901470E+03</rscale>
<asrwt>0</asrwt>
<pdfrwt beam="1">  1        2 0.32386898E+00 0.45901470E+03</pdfrwt>
<pdfrwt beam="2">  1       -2 0.38494363E-02 0.45901470E+03</pdfrwt>
<totfact> 0.19980747E+03</totfact>
</mgrwt>
<rwgt>
<wgt id='morphing_basis_vector_1'> +2.2728945e-04 </wgt>
<wgt id='morphing_basis_vector_2'> +1.2981043e-04 </wgt>
<wgt id='morphing_basis_vector_3'> +1.5293014e-04 </wgt>
<wgt id='morphing_basis_vector_4'> +4.4400893e-05 </wgt>
<wgt id='morphing_basis_vector_5'> +5.8325017e-05 </wgt>
</rwgt>
</event>
<event>
 4      1 +1.9425900e-05 4.69893000e+02 7.81860800e-03 9.46984700e-02
        2 -1    0    0  501    0 +0.0000000000e+00 +0.0000000000e+00 +4.5562539786e+02 4.5562539786e+02 0.0000000000e+00 0.0000e+00 -1.0000e+00
       -2 -1    0    0    0  501 -0.0000000000e+00 -0.0000000000e+00 -1.2115185243e+02 1.2115185243e+02 0.0000000000e+00 0.0000e+00 1.0000e+00
      -13  1    1    2    0    0 -6.5865065806e+01 -3.3393477591e+01 -1.0653617355e+02 1.2962749521e+02 0.0000000000e+00 0.0000e+00 1.0000e+00
       13  1    1    2    0    0 +6.5865065806e+01 +3.3393477591e+01 +4.4100971898e+02 4.4714975508e+02 0.0000000000e+00 0.0000e+00 -1.0000e+00
<mgrwt>
<rscale>  0 0.46989301E+03</rscale>
<asrwt>0</asrwt>
<pdfrwt beam="1">  1        2 0.70096214E-01 0.46989301E+03</pdfrwt>
<pdfrwt beam="2">  1       -2 0.18638747E-01 0.46989301E+03</pdfrwt>
<totfact> 0.18324383E+03</totfact>
</mgrwt>
<rwgt>
<wgt id='morphing_basis_vector_1'> +2.4044733e-04 </wgt>
<wgt id='morphing_basis_vector_2'> +1.3071284e-04 </wgt>
<wgt id='morphing_basis_vector_3'> +1.6747299e-04 </wgt>
<wgt id='morphing_basis_vector_4'> +5.0861806e-05 </wgt>
<wgt id='morphing_basis_vector_5'> +6.7471134e-05 </wgt>
</rwgt>
</event>
<event>
 4      1 +1.9425900e-05 4.57307200e+02 7.81860800e-03 9.50081700e-02
        2 -1    0    0  501    0 +0.0000000000e+00 +0.0000000000e+00 +2.8843091125e+02 2.8843091125e+02 0.0000000000e+00 0.0000e+00 -1.0000e+00
       -2 -1    0    0    0  501 -0.0000000000e+00 -0.0000000000e+00 -1.8126511468e+02 1.8126511468e+02 0.0000000000e+00 0.0000e+00 1.0000e+00
      -13  1    1    2    0    0 -1.0245410651e+02 -2.0309553755e+02 +7.7402127735e+01 2.4028260589e+02 0.0000000000e+00 0.0000e+00 1.0000e+00
       13  1    1    2    0    0 +1.0245410651e+02 +2.0309553755e+02 +2.9763668829e+01 2.2941342004e+02 0.0000000000e+00 0.0000e+00 -1.0000e+00
<mgrwt>
<rscale>  0 0.45730717E+03</rscale>
<asrwt>0</asrwt>
<pdfrwt beam="1">  1        2 0.44373986E-01 0.45730717E+03</pdfrwt>
<pdfrwt beam="2">  1       -2 0.27886941E-01 0.45730717E+03</pdfrwt>
<totfact> 0.15505451E+03</totfact>
</mgrwt>
<rwgt>
<wgt id='morphing_basis_vector_1'> +2.3265436e-04 </wgt>
<wgt id='morphing_basis_vector_2'> +1.5245594e-04 </wgt>
<wgt id='morphing_basis_vector_3'> +1.4607009e-04 </wgt>
<wgt id='morphing_basis_vector_4'> +4.1904833e-05 </wgt>
<wgt id='morphing_basis_vector_5'> +5.7366213e-05 </wgt>
</rwgt>
</event>
<event>
 4      1 +1.9425900e-05 4.38145600e+02 7.81860800e-03 9.55003500e-02
        2 -1    0    0  501    0 +0.0000000000e+00 +0.0000000000e+00 +4.9798962136e+02 4.9798962136e+02 0.0000000000e+00 0.0000e+00 -1.0000e+00
       -2 -1    0    0    0  501 -0.0000000000e+00 -0.0000000000e+00 -9.6373259708e+01 9.6373259708e+01 0.0000000000e+00 0.0000e+00 1.0000e+00
      -13  1    1    2    0    0 -6.3404156018e+00 +1.1823165059e+02 -4.9230007063e+01 1.2822838089e+02 0.0000000000e+00 0.0000e+00 1.0000e+00
       13  1    1    2    0    0 +6.3404156018e+00 -1.1823165059e+02 +4.5084636872e+02 4.6613450018e+02 0.0000000000e+00 0.0000e+00 -1.0000e+00
<mgrwt>
<rscale>  0 0.43814556E+03</rscale>
<asrwt>0</asrwt>
<pdfrwt beam="1">  1        2 0.76613787E-01 0.43814556E+03</pdfrwt>
<pdfrwt beam="2">  1       -2 0.14826656E-01 0.43814556E+03</pdfrwt>
<totfact> 0.23997913E+03</totfact>
</mgrwt>
<rwgt>
<wgt id='morphing_basis_vector_1'> +1.9697568e-04 </wgt>
<wgt id='morphing_basis_vector_2'> +1.0637267e-04 </wgt>
<wgt id='morphing_basis_vector_3'> +1.3210327e-04 </wgt>
<wgt id='morphing_basis_vector_4'> +3.5185095e-05 </wgt>
<wgt id='morphing_basis_vector_5'> +4.2802979e-05 </wgt>
</rwgt>
</event>
<event>
 4      1 +1.9425900e-05 4.98826100e+02 7.81860800e-03 9.40240600e-02
        2 -1    0    0  501    0 +0.0000000000e+00 +0.0000000000e+00 +4.2700479672e+02 4.2700479672e+02 0.0000000000e+00 0.0000e+00 1.0000e+00
       -2 -1    0    0    0  501 -0.0000000000e+00 -0.0000000000e+00 -1.4568192751e+02 1.4568192751e+02 0.0000000000e+00 0.0000e+00 -1.0000e+00
      -13  1    1    2    0    0 +1.6218729986e+02 +7.2419553283e+01 -6.0357407605e+01 1.8759618489e+02 0.0000000000e+00 0.0000e+00 -1.0000e+00
       13  1    1    2    0    0 -1.6218729986e+02 -7.2419553283e+01 +3.4168027681e+02 3.8509053935e+02 0.0000000000e+00 0.0000e+00 1.0000e+00
<mgrwt>
<rscale>  0 0.49882615E+03</rscale>
<asrwt>0</asrwt>
<pdfrwt beam="1">  1        2 0.65693045E-01 0.49882615E+03</pdfrwt>
<pdfrwt beam="2">  1       -2 0.22412604E-01 0.49882615E+03</pdfrwt>
<totfact> 0.14522645E+03</totfact>
</mgrwt>
<rwgt>
<wgt id='morphing_basis_vector_1'> +2.8723275e-04 </wgt>
<wgt id='morphing_basis_vector_2'> +1.5832407e-04 </wgt>
<wgt id='morphing_basis_vector_3'> +2.0631272e-04 </wgt>
<wgt id='morphing_basis_vector_4'> +6.9334215e-05 </wgt>
<wgt id='morphing_basis_vector_5'> +9.6827202e-05 </wgt>
</rwgt>
</event>
<event>
 4      1 +1.9425900e-05 4.46336200e+02 7.81860800e-03 9.52867800e-02
        2 -1    0    0  501    0 +0.0000000000e+00 +0.0000000000e+00 +2.8455973818e+02 2.8455973818e+02 0.0000000000e+00 0.0000e+00 -1.0000e+00
       -2 -1    0    0    0  501 -0.0000000000e+00 -0.0000000000e+00 -1.7502127983e+02 1.7502127983e+02 0.0000000000e+00 0.0000e+00 1.0000e+00
      -13  1    1    2    0    0 +1.1753741641e+02 +3.1529184914e+01 -1.3785111810e+02 1.8388057135e+02 0.0000000000e+00 0.0000e+00 1.0000e+00
       13  1    1    2    0    0 -1.1753741641e+02 -3.1529184914e+01 +2.4738957644e+02 2.7570044666e+02 0.0000000000e+00 0.0000e+00 -1.0000e+00
<mgrwt>
<rscale>  0 0.44633624E+03</rscale>
<asrwt>0</asrwt>
<pdfrwt beam="1">  1        2 0.43778421E-01 0.44633624E+03</pdfrwt>
<pdfrwt beam="2">  1       -2 0.26926351E-01 0.44633624E+03</pdfrwt>
<totfact> 0.16715263E+03</totfact>
</mgrwt>
<rwgt>
<wgt id='morphing_basis_vector_1'> +2.0750862e-04 </wgt>
<wgt id='morphing_basis_vector_2'> +1.1226309e-04 </wgt>
<wgt id='morphing_basis_vector_3'> +1.4052886e-04 </wgt>
<wgt id='morphing_basis_vector_4'> +3.8790986e-05 </wgt>
<wgt id='morphing_basis_vector_5'> +4.8477347e-05 </wgt>
</rwgt>
</event>
<event>
 4      1 +1.9425900e-05 4.80834600e+02 7.81860800e-03 9.44374400e-02
        2 -1    0    0  501    0 +0.0000000000e+00 +0.0000000000e+00 +1.3601991506e+03 1.3601991506e+03 0.0000000000e+00 0.0000e+00 -1.0000e+00
       -2 -1    0    0    0  501 -0.0000000000e+00 -0.0000000000e+00 -4.2494132508e+01 4.2494132508e+01 0.0000000000e+00 0.0000e+00 1.0000e+00
      -13  1    1    2    0    0 +2.3893760656e+01 -2.2846218371e+02 +4.5186242081e+02 5.0689794686e+02 0.0000000000e+00 0.0000e+00 1.0000e+00
       13  1    1    2    0    0 -2.3893760656e+01 +2.2846218371e+02 +8.6584259728e+02 8.9579533625e+02 0.0000000000e+00 0.0000e+00 -1.0000e+00
<mgrwt>
<rscale>  0 0.48083462E+03</rscale>
<asrwt>0</asrwt>
<pdfrwt beam="1">  1        2 0.20926137E+00 0.48083462E+03</pdfrwt>
<pdfrwt beam="2">  1       -2 0.65375599E-02 0.48083462E+03</pdfrwt>
<totfact> 0.22763226E+03</totfact>
</mgrwt>
<rwgt>
<wgt id='morphing_basis_vector_1'> +2.5987813e-04 </wgt>
<wgt id='morphing_basis_vector_2'> +1.4852757e-04 </wgt>
<wgt id='morphing_basis_vector_3'> +1.8005384e-04 </wgt>
<wgt id='morphing_basis_vector_4'> +5.6531984e-05 </wgt>
<wgt id='morphing_basis_vector_5'> +7.7869274e-05 </wgt>
</rwgt>
</event>
<event>
 4      1 +1.9425900e-05 4.50508800e+02 7.81860800e-03 9.51798400e-02
        2 -1    0    0  501    0 +0.0000000000e+00 +0.0000000000e+00 +1.1882104520e+02 1.1882104520e+02 0.0000000000e+00 0.0000e+00 -1.0000e+00
       -2 -1    0    0    0  501 -0.0000000000e+00 -0.0000000000e+00 -4.2702490946e+02 4.2702490946e+02 0.0000000000e+00 0.0000e+00 1.0000e+00
      -13  1    1    2    0    0 +6.8615548827e+00 +1.8466108566e+02 -3.1017428509e+02 3.6104692856e+02 0.0000000000e+00 0.0000e+00 1.0000e+00
       13  1    1    2    0    0 -6.8615548827e+00 -1.8466108566e+02 +1.9704208293e+00 1.8479902611e+02 0.0000000000e+00 0.0000e+00 -1.0000e+00
<mgrwt>
<rscale>  0 0.45050881E+03</rscale>
<asrwt>0</asrwt>
<pdfrwt beam="1">  1        2 0.18280161E-01 0.45050881E+03</pdfrwt>
<pdfrwt beam="2">  1       -2 0.65696139E-01 0.45050881E+03</pdfrwt>
<totfact> 0.86026148E+02</totfact>
</mgrwt>
<rwgt>
<wgt id='morphing_basis_vector_1'> +2.1355415e-04 </wgt>
<wgt id='morphing_basis_vector_2'> +1.1691645e-04 </wgt>
<wgt id='morphing_basis_vector_3'> +1.4466889e-04 </wgt>
<wgt id='morphing_basis_vector_4'> +4.0650463e-05 </wgt>
<wgt id='morphing_basis_vector_5'> +5.1574267e-05 </wgt>
</rwgt>
</event>
<event>
 4      1 +1.9425900e-05 4.59654000e+02 7.81860800e-03 9.49496300e-02
        2 -1    0    0  501    0 +0.0000000000e+00 +0.0000000000e+00 +9.3781513357e+02 9.3781513357e+02 0.0000000000e+00 0.0000e+00 1.0000e+00
       -2 -1    0    0    0  501 -0.0000000000e+00 -0.0000000000e+00 -5.6322889405e+01 5.6322889405e+01 0.0000000000e+00 0.0000e+00 -1.0000e+00
      -13  1    1    2    0    0 -1.5370857003e+02 +1.3576956421e+02 +6.6510179722e+02 6.9600294521e+02 0.0000000000e+00 0.0000e+00 1.0000e+00
       13  1    1    2    0    0 +1.5370857003e+02 -1.3576956421e+02 +2.1639044695e+02 2.9813507777e+02 0.0000000000e+00 0.0000e+00 -1.0000e+00
<mgrwt>
<rscale>  0 0.45965404E+03</rscale>
<asrwt>0</asrwt>
<pdfrwt beam="1">  1        2 0.14427924E+00 0.45965404E+03</pdfrwt>
<pdfrwt beam="2">  1       -2 0.86650606E-02 0.45965404E+03</pdfrwt>
<totfact> 0.25978259E+03</totfact>
</mgrwt>
<rwgt>
<wgt id='morphing_basis_vector_1'> +2.5875446e-04 </wgt>
<wgt id='morphing_basis_vector_2'> +2.2491041e-04 </wgt>
<wgt id='morphing_basis_vector_3'> +1.3479587e-04 </wgt>
<wgt id='morphing_basis_vector_4'> +3.7921830e-05 </wgt>
<wgt id='morphing_basis_vector_5'> +6.0464570e-05 </wgt>
</rwgt>
</event>
<event>
 4      1 +1.9425900e-05 4.43401900e+02 7.81860800e-03 9.53627300e-02
        2 -1    0    0  501    0 +0.0000000000e+00 +0.0000000000e+00 +6.7069991369e+02 6.7069991369e+02 0.0000000000e+00 0.0000e+00 -1.0000e+00
       -2 -1    0    0    0  501 -0.0000000000e+00 -0.0000000000e+00 -7.3283596202e+01 7.3283596202e+01 0.0000000000e+00 0.0000e+00 1.0000e+00
      -13  1    1    2    0    0 +1.7712603010e+02 +6.5810707319e+00 +7.5261651772e+01 1.9256494296e+02 0.0000000000e+00 0.0000e+00 1.0000e+00
       13  1    1    2    0    0 -1.7712603010e+02 -6.5810707319e+00 +5.2215466572e+02 5.5141856694e+02 0.0000000000e+00 0.0000e+00 -1.0000e+00
<mgrwt>
<rscale>  0 0.44340186E+03</rscale>
<asrwt>0</asrwt>
<pdfrwt beam="1">  1        2 0.10318460E+00 0.44340186E+03</pdfrwt>
<pdfrwt beam="2">  1       -2 0.11274400E-01 0.44340186E+03</pdfrwt>
<totfact> 0.26287433E+03</totfact>
</mgrwt>
<rwgt>
<wgt id='morphing_basis_vector_1'> +2.0407159e-04 </wgt>
<wgt id='morphing_basis_vector_2'> +1.1132454e-04 </wgt>
<wgt id='morphing_basis_vector_3'> +1.3718212e-04 </wgt>
<wgt id='morphing_basis_vector_4'> +3.7408576e-05 </wgt>
<wgt id='morphing_basis_vector_5'> +4.6414109e-05 </wgt>
</rwgt>
</event>
<event>
 4      1 +1.9425900e-05 4.53926100e+02 7.81860800e-03 9.50931500e-02
        2 -1    0    0  501    0 +0.0000000000e+00 +0.0000000000e+00 +4.4574853973e+02 4.4574853973e+02 0.0000000000e+00 0.0000e+00 -1.0000e+00
       -2 -1    0    0    0  501 -0.0000000000e+00 -0.0000000000e+00 -1.1556340749e+02 1.1556340749e+02 0.0000000000e+00 0.0000e+00 1.0000e+00
      -13  1    1    2    0    0 +6.6215285812e+01 +2.0611420038e+02 +8.0817784061e+01 2.3108232709e+02 0.0000000000e+00 0.0000e+00 1.0000e+00
       13  1    1    2    0    0 -6.6215285812e+01 -2.0611420038e+02 +2.4936734818e+02 3.3022962013e+02 0.0000000000e+00 0.0000e+00 -1.0000e+00
<mgrwt>
<rscale>  0 0.45392607E+03</rscale>
<asrwt>0</asrwt>
<pdfrwt beam="1">  1        2 0.68576698E-01 0.45392607E+03</pdfrwt>
<pdfrwt beam="2">  1       -2 0.17778986E-01 0.45392607E+03</pdfrwt>
<totfact> 0.20278047E+03</totfact>
</mgrwt>
<rwgt>
<wgt id='morphing_basis_vector_1'> +2.1981147e-04 </wgt>
<wgt id='morphing_basis_vector_2'> +1.2453779e-04 </wgt>
<wgt id='morphing_basis_vector_3'> +1.4738248e-04 </wgt>
<wgt id='morphing_basis_vector_4'> +4.1979083e-05 </wgt>
<wgt id='morphing_basis_vector_5'> +5.4268210e-05 </wgt>
</rwgt>
</event>
<event>
 4      1 +1.9425900e-05 5.03562300e+02 7.81860800e-03 9.39183500e-02
        2 -1    0    0  501    0 +0.0000000000e+00 +0.0000000000e+00 +1.8255034705e+03 1.8255034705e+03 0.0000000000e+00 0.0000e+00 -1.0000e+00
       -2 -1    0    0    0  501 -0.0000000000e+00 -0.0000000000e+00 -3.4726717139e+01 3.4726717139e+01 0.0000000000e+00 0.0000e+00 1.0000e+00
      -13  1    1    2    0    0 -2.3380498436e+02 -2.5742375496e+01 +1.2271687841e+03 1.2495081694e+03 0.0000000000e+00 0.0000e+00 1.0000e+00
       13  1    1    2    0    0 +2.3380498436e+02 +2.5742375496e+01 +5.6360796930e+02 6.1072201832e+02 0.0000000000e+00 0.0000e+00 -1.0000e+00
<mgrwt>
<rscale>  0 0.50356228E+03</rscale>
<asrwt>0</asrwt>
<pdfrwt beam="1">  1        2 0.28084661E+00 0.50356228E+03</pdfrwt>
<pdfrwt beam="2">  1       -2 0.53425733E-02 0.50356228E+03</pdfrwt>
<totfact> 0.17281060E+03</totfact>
</mgrwt>
<rwgt>
<wgt id='morphing_basis_vector_1'> +3.2812968e-04 </wgt>
<wgt id='morphing_basis_vector_2'> +2.6438720e-04 </wgt>
<wgt id='morphing_basis_vector_3'> +2.0047784e-04 </wgt>
<wgt id='morphing_basis_vector_4'> +5.9279759e-05 </wgt>
<wgt id='morphing_basis_vector_5'> +1.0359137e-04 </wgt>
</rwgt>
</event>
<event>
 4      1 +1.9425900e-05 4.88062900e+02 7.81860800e-03 9.42690600e-02
        2 -1    0    0  501    0 +0.0000000000e+00 +0.0000000000e+00 +6.0733796353e+01 6.0733796353e+01 0.0000000000e+00 0.0000e+00 1.0000e+00
       -2 -1    0    0    0  501 -0.0000000000e+00 -0.0000000000e+00 -9.8053054340e+02 9.8053054340e+02 0.0000000000e+00 0.0000e+00 -1.0000e+00
      -13  1    1    2    0    0 +1.4938309294e+02 +1.3385401138e+02 -1.6336123736e+02 2.5868726040e+02 0.0000000000e+00 0.0000e+00 1.0000e+00
       13  1    1    2    0    0 -1.4938309294e+02 -1.3385401138e+02 -7.5643550968e+02 7.8257707935e+02 0.0000000000e+00 0.0000e+00 -1.0000e+00
<mgrwt>
<rscale>  0 0.48806287E+03</rscale>
<asrwt>0</asrwt>
<pdfrwt beam="1">  1        2 0.93436605E-02 0.48806287E+03</pdfrwt>
<pdfrwt beam="2">  1       -2 0.15085086E+00 0.48806287E+03</pdfrwt>
<totfact> 0.26542551E+02</totfact>
</mgrwt>
<rwgt>
<wgt id='morphing_basis_vector_1'> +3.2400552e-04 </wgt>
<wgt id='morphing_basis_vector_2'> +3.1812622e-04 </wgt>
<wgt id='morphing_basis_vector_3'> +1.6512090e-04 </wgt>
<wgt id='morphing_basis_vector_4'> +4.2765286e-05 </wgt>
<wgt id='morphing_basis_vector_5'> +8.7510102e-05 </wgt>
</rwgt>
</event>
<event>
 4      1 +1.9425900e-05 4.68752800e+02 7.81860800e-03 9.47261100e-02
        2 -1    0    0  501    0 +0.0000000000e+00 +0.0000000000e+00 +5.3571856263e+02 5.3571856263e+02 0.0000000000e+00 0.0000e+00 1.0000e+00
       -2 -1    0    0    0  501 -0.0000000000e+00 -0.0000000000e+00 -1.0253947743e+02 1.0253947743e+02 0.0000000000e+00 0.0000e+00 -1.0000e+00
      -13  1    1    2    0    0 +1.1403955852e+02 -1.9939925366e+02 +1.5320202848e+02 2.7610857429e+02 0.0000000000e+00 0.0000e+00 -1.0000e+00
       13  1    1    2    0    0 -1.1403955852e+02 +1.9939925366e+02 +2.7997705673e+02 3.6214946577e+02 0.0000000000e+00 0.0000e+00 1.0000e+00
<mgrwt>
<rscale>  0 0.46875282E+03</rscale>
<asrwt>0</asrwt>
<pdfrwt beam="1">  1        2 0.82418239E-01 0.46875282E+03</pdfrwt>
<pdfrwt beam="2">  1       -2 0.15775304E-01 0.46875282E+03</pdfrwt>
<totfact> 0.20017598E+03</totfact>
</mgrwt>
<rwgt>
<wgt id='morphing_basis_vector_1'> +2.4240998e-04 </wgt>
<wgt id='morphing_basis_vector_2'> +1.4107627e-04 </wgt>
<wgt id='morphing_basis_vector_3'> +1.6399131e-04 </wgt>
<wgt id='morphing_basis_vector_4'> +4.9252832e-05 </wgt>
<wgt id='morphing_basis_vector_5'> +6.6639207e-05 </wgt>
</rwgt>
</event>
<event>
 4      1 +1.9425900e-05 4.74387300e+02 7.81860800e-03 9.45903400e-02
        2 -1    0    0  501    0 +0.0000000000e+00 +0.0000000000e+00 +5.1311618774e+02 5.1311618774e+02 0.0000000000e+00 0.0000e+00 -1.0000e+00
       -2 -1    0    0    0  501 -0.0000000000e+00 -0.0000000000e+00 -1.0964540385e+02 1.0964540385e+02 0.0000000000e+00 0.0000e+00 1.0000e+00
      -13  1    1    2    0    0 +1.8174077581e+02 -8.8339891877e+01 +3.8681149946e+01 2.0574225976e+02 0.0000000000e+00 0.0000e+00 1.0000e+00
       13  1    1    2    0    0 -1.8174077581e+02 +8.8339891877e+01 +3.6478963394e+02 4.1701933183e+02 0.0000000000e+00 0.0000e+00 -1.0000e+00
<mgrwt>
<rscale>  0 0.47438732E+03</rscale>
<asrwt>0</asrwt>
<pdfrwt beam="1">  1        2 0.78940951E-01 0.47438732E+03</pdfrwt>
<pdfrwt beam="2">  1       -2 0.16868524E-01 0.47438732E+03</pdfrwt>
<totfact> 0.18865613E+03</totfact>
</mgrwt>
<rwgt>
<wgt id='morphing_basis_vector_1'> +2.4807467e-04 </wgt>
<wgt id='morphing_basis_vector_2'> +1.3721477e-04 </wgt>
<wgt id='morphing_basis_vector_3'> +1.7261935e-04 </wgt>
<wgt id='morphing_basis_vector_4'> +5.3217791e-05 </wgt>
<wgt id='morphing_basis_vector_5'> +7.1616351e-05 </wgt>
</rwgt>
</event>
<event>
 4      1 +1.9425900e-05 4.32519900e+02 7.81860800e-03 9.56499000e-02
        2 -1    0    0  501    0 +0.0000000000e+00 +0.0000000000e+00 +4.0858944878e+02 4.0858944878e+02 0.0000000000e+00 0.0000e+00 -1.0000e+00
       -2 -1    0    0    0  501 -0.0000000000e+00 -0.0000000000e+00 -1.1446298835e+02 1.1446298835e+02 0.0000000000e+00 0.0000e+00 1.0000e+00
      -13  1    1    2    0    0 -4.8899673649e+01 -1.1676990259e+02 -6.4970545070e+01 1.4229392102e+02 0.0000000000e+00 0.0000e+00 1.0000e+00
       13  1    1    2    0    0 +4.8899673649e+01 +1.1676990259e+02 +3.5909700550e+02 3.8075851611e+02 0.0000000000e+00 0.0000e+00 -1.0000e+00
<mgrwt>
<rscale>  0 0.43251992E+03</rscale>
<asrwt>0</asrwt>
<pdfrwt beam="1">  1        2 0.62859915E-01 0.43251992E+03</pdfrwt>
<pdfrwt beam="2">  1       -2 0.17609691E-01 0.43251992E+03</pdfrwt>
<totfact> 0.22679550E+03</totfact>
</mgrwt>
<rwgt>
<wgt id='morphing_basis_vector_1'> +1.9003460e-04 </wgt>
<wgt id='morphing_basis_vector_2'> +1.0257299e-04 </wgt>
<wgt id='morphing_basis_vector_3'> +1.2656007e-04 </wgt>
<wgt id='morphing_basis_vector_4'> +3.2869945e-05 </wgt>
<wgt id='morphing_basis_vector_5'> +3.9167943e-05 </wgt>
</rwgt>
</event>
<event>
 4      1 +1.9425900e-05 5.09241400e+02 7.81860800e-03 9.37932300e-02
        2 -1    0    0  501    0 +0.0000000000e+00 +0.0000000000e+00 +7.3647307936e+02 7.3647307936e+02 0.0000000000e+00 0.0000e+00 1.0000e+00
       -2 -1    0    0    0  501 -0.0000000000e+00 -0.0000000000e+00 -8.8029959376e+01 8.8029959376e+01 0.0000000000e+00 0.0000e+00 -1.0000e+00
      -13  1    1    2    0    0 +5.4245311758e+01 +2.0470794273e+02 +9.5341684344e+01 2.3224541424e+02 0.0000000000e+00 0.0000e+00 -1.0000e+00
       13  1    1    2    0    0 -5.4245311758e+01 -2.0470794273e+02 +5.5310143564e+02 5.9225762450e+02 0.0000000000e+00 0.0000e+00 1.0000e+00
<mgrwt>
<rscale>  0 0.50924138E+03</rscale>
<asrwt>0</asrwt>
<pdfrwt beam="1">  1        2 0.11330355E+00 0.50924138E+03</pdfrwt>
<pdfrwt beam="2">  1       -2 0.13543071E-01 0.50924138E+03</pdfrwt>
<totfact> 0.17587090E+03</totfact>
</mgrwt>
<rwgt>
<wgt id='morphing_basis_vector_1'> +3.0628372e-04 </wgt>
<wgt id='morphing_basis_vector_2'> +1.7084309e-04 </wgt>
<wgt id='morphing_basis_vector_3'> +2.2188260e-04 </wgt>
<wgt id='morphing_basis_vector_4'> +7.6882753e-05 </wgt>
<wgt id='morphing_basis_vector_5'> +1.0919946e-04 </wgt>
</rwgt>
</event>
<event>
 4      1 +1.9425900e-05 5.01921300e+02 7.81860800e-03 9.39548400e-02
        2 -1    0    0  501    0 +0.0000000000e+00 +0.0000000000e+00 +9.3675906864e+02 9.3675906864e+02 0.0000000000e+00 0.0000e+00 -1.0000e+00
       -2 -1    0    0    0  501 -0.0000000000e+00 -0.0000000000e+00 -6.7233121810e+01 6.7233121810e+01 0.0000000000e+00 0.0000e+00 1.0000e+00
      -13  1    1    2    0    0 +1.4266287843e+02 -1.3357740382e+02 +1.1984705534e+02 2.2925735837e+02 0.0000000000e+00 0.0000e+00 1.0000e+00
       13  1    1    2    0    0 -1.4266287843e+02 +1.3357740382e+02 +7.4967889150e+02 7.7473483209e+02 0.0000000000e+00 0.0000e+00 -1.0000e+00
<mgrwt>
<rscale>  0 0.50192126E+03</rscale>
<asrwt>0</asrwt>
<pdfrwt beam="1">  1        2 0.14411677E+00 0.50192126E+03</pdfrwt>
<pdfrwt beam="2">  1       -2 0.10343558E-01 0.50192126E+03</pdfrwt>
<totfact> 0.19754749E+03</totfact>
</mgrwt>
<rwgt>
<wgt id='morphing_basis_vector_1'> +2.9285666e-04 </wgt>
<wgt id='morphing_basis_vector_2'> +1.6217360e-04 </wgt>
<wgt id='morphing_basis_vector_3'> +2.1080802e-04 </wgt>
<wgt id='morphing_basis_vector_4'> +7.1492077e-05 </wgt>
<wgt id='morphing_basis_vector_5'> +1.0040306e-04 </wgt>
</rwgt>
</event>
<event>
 4      1 +1.9425900e-05 4.74269700e+02 7.81860800e-03 9.45931500e-02
        2 -1    0    0  501    0 +0.0000000000e+00 +0.0000000000e+00 +1.5995505262e+02 1.5995505262e+02 0.0000000000e+00 0.0000e+00 -1.0000e+00
       -2 -1    0    0    0  501 -0.0000000000e+00 -0.0000000000e+00 -3.5155467951e+02 3.5155467951e+02 0.0000000000e+00 0.0000e+00 1.0000e+00
      -13  1    1    2    0    0 +7.1310448186e+01 +2.0958858833e+02 -4.1548004980e+00 2.2142677965e+02 0.0000000000e+00 0.0000e+00 1.0000e+00
       13  1    1    2    0    0 -7.1310448186e+01 -2.0958858833e+02 -1.8744482639e+02 2.9008295248e+02 0.0000000000e+00 0.0000e+00 -1.0000e+00
<mgrwt>
<rscale>  0 0.47426974E+03</rscale>
<asrwt>0</asrwt>
<pdfrwt beam="1">  1        2 0.24608470E-01 0.47426974E+03</pdfrwt>
<pdfrwt beam="2">  1       -2 0.54085335E-01 0.47426974E+03</pdfrwt>
<totfact> 0.89764542E+02</totfact>
</mgrwt>
<rwgt>
<wgt id='morphing_basis_vector_1'> +2.7447323e-04 </wgt>
<wgt id='morphing_basis_vector_2'> +2.1948812e-04 </wgt>
<wgt id='morphing_basis_vector_3'> +1.5807907e-04 </wgt>
<wgt id='morphing_basis_vector_4'> +4.5480902e-05 </wgt>
<wgt id='morphing_basis_vector_5'> +7.2798500e-05 </wgt>
</rwgt>
</event>
<event>
 4      1 +1.9425900e-05 4.57057700e+02 7.81860800e-03 9.50144100e-02
        2 -1    0    0  501    0 +0.0000000000e+00 +0.0000000000e+00 +3.8486034589e+02 3.8486034589e+02 0.0000000000e+00 0.0000e+00 1.0000e+00
       -2 -1    0    0    0  501 -0.0000000000e+00 -0.0000000000e+00 -1.3569972740e+02 1.3569972740e+02 0.0000000000e+00 0.0000e+00 -1.0000e+00
      -13  1    1    2    0    0 +1.4124868065e+02 -9.2720453568e+01 +2.9983300244e+02 3.4416289987e+02 0.0000000000e+00 0.0000e+00 1.0000e+00
       13  1    1    2    0    0 -1.4124868065e+02 +9.2720453568e+01 -5.0672383949e+01 1.7639717342e+02 0.0000000000e+00 0.0000e+00 -1.0000e+00
<mgrwt>
<rscale>  0 0.45705774E+03</rscale>
<asrwt>0</asrwt>
<pdfrwt beam="1">  1        2 0.59209283E-01 0.45705774E+03</pdfrwt>
<pdfrwt beam="2">  1       -2 0.20876881E-01 0.45705774E+03</pdfrwt>
<totfact> 0.18344023E+03</totfact>
</mgrwt>
<rwgt>
<wgt id='morphing_basis_vector_1'> +2.7933032e-04 </wgt>
<wgt id='morphing_basis_vector_2'> +2.9774222e-04 </wgt>
<wgt id='morphing_basis_vector_3'> +1.1608209e-04 </wgt>
<wgt id='morphing_basis_vector_4'> +3.1885257e-05 </wgt>
<wgt id='morphing_basis_vector_5'> +5.9693675e-05 </wgt>
</rwgt>
</event>
<event>
 4      1 +1.9425900e-05 4.53664600e+02 7.81860800e-03 9.50997600e-02
        2 -1    0    0  501    0 +0.0000000000e+00 +0.0000000000e+00 +3.0368558291e+02 3.0368558291e+02 0.0000000000e+00 0.0000e+00 -1.0000e+00
       -2 -1    0    0    0  501 -0.0000000000e+00 -0.0000000000e+00 -1.6942814402e+02 1.6942814402e+02 0.0000000000e+00 0.0000e+00 1.0000e+00
      -13  1    1    2    0    0 +5.1394860455e+01 -1.0433642701e+02 -1.3596456457e+02 1.7892424235e+02 0.0000000000e+00 0.0000e+00 1.0000e+00
       13  1    1    2    0    0 -5.1394860455e+01 +1.0433642701e+02 +2.7022200346e+02 2.9418948458e+02 0.0000000000e+00 0.0000e+00 -1.0000e+00
<mgrwt>
<rscale>  0 0.45366457E+03</rscale>
<asrwt>0</asrwt>
<pdfrwt beam="1">  1        2 0.46720859E-01 0.45366457E+03</pdfrwt>
<pdfrwt beam="2">  1       -2 0.26065868E-01 0.45366457E+03</pdfrwt>
<totfact> 0.16439283E+03</totfact>
</mgrwt>
<rwgt>
<wgt id='morphing_basis_vector_1'> +2.1731937e-04 </wgt>
<wgt id='morphing_basis_vector_2'> +1.1773581e-04 </wgt>
<wgt id='morphing_basis_vector_3'> +1.4847537e-04 </wgt>
<wgt id='morphing_basis_vector_4'> +4.2269312e-05 </wgt>
<wgt id='morphing_basis_vector_5'> +5.3949304e-05 </wgt>
</rwgt>
</event>
<event>
 4      1 +1.9425900e-05 5.09668100e+02 7.81860800e-03 9.37839000e-02
        2 -1    0    0  501    0 +0.0000000000e+00 +0.0000000000e+00 +3.8200686338e+02 3.8200686338e+02 0.0000000000e+00 0.0000e+00 1.0000e+00
       -2 -1    0    0    0  501 -0.0000000000e+00 -0.0000000000e+00 -1.6999795079e+02 1.6999795079e+02 0.0000000000e+00 0.0000e+00 -1.0000e+00
      -13  1    1    2    0    0 -1.3551907477e+02 -2.1577776102e+02 +1.0182064905e+02 2.7439552903e+02 0.0000000000e+00 0.0000e+00 -1.0000e+00
       13  1    1    2    0    0 +1.3551907477e+02 +2.1577776102e+02 +1.1018826353e+02 2.7760928514e+02 0.0000000000e+00 0.0000e+00 1.0000e+00
<mgrwt>
<rscale>  0 0.50966806E+03</rscale>
<asrwt>0</asrwt>
<pdfrwt beam="1">  1        2 0.58770287E-01 0.50966806E+03</pdfrwt>
<pdfrwt beam="2">  1       -2 0.26153531E-01 0.50966806E+03</pdfrwt>
<totfact> 0.12667313E+03</totfact>
</mgrwt>
<rwgt>
<wgt id='morphing_basis_vector_1'> +3.1575681e-04 </wgt>
<wgt id='morphing_basis_vector_2'> +1.9829881e-04 </wgt>
<wgt id='morphing_basis_vector_3'> +2.1936870e-04 </wgt>
<wgt id='morphing_basis_vector_4'> +7.3389448e-05 </wgt>
<wgt id='morphing_basis_vector_5'> +1.1004746e-04 </wgt>
</rwgt>
</event>
<event>
 4      1 +1.9425900e-05 4.31527400e+02 7.81860800e-03 9.56765300e-02
        2 -1    0    0  501    0 +0.0000000000e+00 +0.0000000000e+00 +2.7828422777e+02 2.7828422777e+02 0.0000000000e+00 0.0000e+00 1.0000e+00
       -2 -1    0    0    0  501 -0.0000000000e+00 -0.0000000000e+00 -1.6728933751e+02 1.6728933751e+02 0.0000000000e+00 0.0000e+00 -1.0000e+00
      -13  1    1    2    0    0 -1.2323906272e+02 +1.4773847401e+02 +1.5634675000e+02 2.4790891375e+02 0.0000000000e+00 0.0000e+00 1.0000e+00
       13  1    1    2    0    0 +1.2323906272e+02 -1.4773847401e+02 -4.5351859741e+01 1.9766465153e+02 0.0000000000e+00 0.0000e+00 -1.0000e+00
<mgrwt>
<rscale>  0 0.43152745E+03</rscale>
<asrwt>0</asrwt>
<pdfrwt beam="1">  1        2 0.42812958E-01 0.43152745E+03</pdfrwt>
<pdfrwt beam="2">  1       -2 0.25736821E-01 0.43152745E+03</pdfrwt>
<totfact> 0.18504071E+03</totfact>
</mgrwt>
<rwgt>
<wgt id='morphing_basis_vector_1'> +2.1632509e-04 </wgt>
<wgt id='morphing_basis_vector_2'> +1.8662855e-04 </wgt>
<wgt id='morphing_basis_vector_3'> +1.0444603e-04 </wgt>
<wgt id='morphing_basis_vector_4'> +2.9984683e-05 </wgt>
<wgt id='morphing_basis_vector_5'> +4.0202526e-05 </wgt>
</rwgt>
</event>
<event>
 4      1 +1.9425900e-05 4.33043900e+02 7.81860800e-03 9.56358700e-02
        2 -1    0    0  501    0 +0.0000000000e+00 +0.0000000000e+00 +4.9676784032e+02 4.9676784032e+02 0.0000000000e+00 0.0000e+00 1.0000e+00
       -2 -1    0    0    0  501 -0.0000000000e+00 -0.0000000000e+00 -9.4373554911e+01 9.4373554911e+01 0.0000000000e+00 0.0000e+00 -1.0000e+00
      -13  1    1    2    0    0 -7.6968083967e+01 +1.7557554521e+01 +4.7642127896e+02 4.8291778670e+02 0.0000000000e+00 0.0000e+00 1.0000e+00
       13  1    1    2    0    0 +7.6968083967e+01 -1.7557554521e+01 -7.4026993545e+01 1.0822360853e+02 0.0000000000e+00 0.0000e+00 -1.0000e+00
<mgrwt>
<rscale>  0 0.43304386E+03</rscale>
<asrwt>0</asrwt>
<pdfrwt beam="1">  1        2 0.76425820E-01 0.43304386E+03</pdfrwt>
<pdfrwt beam="2">  1       -2 0.14519009E-01 0.43304386E+03</pdfrwt>
<totfact> 0.24880099E+03</totfact>
</mgrwt>
<rwgt>
<wgt id='morphing_basis_vector_1'> +2.5771706e-04 </wgt>
<wgt id='morphing_basis_vector_2'> +3.0956465e-04 </wgt>
<wgt id='morphing_basis_vector_3'> +7.6030921e-05 </wgt>
<wgt id='morphing_basis_vector_4'> +2.6519477e-05 </wgt>
<wgt id='morphing_basis_vector_5'> +4.3509700e-05 </wgt>
</rwgt>
</event>
<event>
 4      1 +1.9425900e-05 4.82067000e+02 7.81860800e-03 9.44085000e-02
        2 -1    0    0  501    0 +0.0000000000e+00 +0.0000000000e+00 +7.6815706474e+02 7.6815706474e+02 0.0000000000e+00 0.0000e+00 1.0000e+00
       -2 -1    0    0    0  501 -0.0000000000e+00 -0.0000000000e+00 -7.5631870850e+01 7.5631870850e+01 0.0000000000e+00 0.0000e+00 -1.0000e+00
      -13  1    1    2    0    0 -1.5740958715e+02 +1.0778600905e+02 +8.8409820720e+01 2.1026625567e+02 0.0000000000e+00 0.0000e+00 -1.0000e+00
       13  1    1    2    0    0 +1.5740958715e+02 -1.0778600905e+02 +6.0411537317e+02 6.3352267992e+02 0.0000000000e+00 0.0000e+00 1.0000e+00
<mgrwt>
<rscale>  0 0.48206703E+03</rscale>
<asrwt>0</asrwt>
<pdfrwt beam="1">  1        2 0.11817800E+00 0.48206703E+03</pdfrwt>
<pdfrwt beam="2">  1       -2 0.11635673E-01 0.48206703E+03</pdfrwt>
<totfact> 0.21234704E+03</totfact>
</mgrwt>
<rwgt>
<wgt id='morphing_basis_vector_1'> +2.5970089e-04 </wgt>
<wgt id='morphing_basis_vector_2'> +1.4304964e-04 </wgt>
<wgt id='morphing_basis_vector_3'> +1.8276635e-04 </wgt>
<wgt id='morphing_basis_vector_4'> +5.7976384e-05 </wgt>
<wgt id='morphing_basis_vector_5'> +7.8988453e-05 </wgt>
</rwgt>
</event>
<event>
 4      1 +1.9425900e-05 4.69635900e+02 7.81860800e-03 9.47047000e-02
        2 -1    0    0  501    0 +0.0000000000e+00 +0.0000000000e+00 +6.2262385502e+02 6.2262385502e+02 0.0000000000e+00 0.0000e+00 1.0000e+00
       -2 -1    0    0    0  501 -0.0000000000e+00 -0.0000000000e+00 -8.8559834670e+01 8.8559834670e+01 0.0000000000e+00 0.0000e+00 -1.0000e+00
      -13  1    1    2    0    0 +1.4932738561e+02 -1.4519709915e+02 +1.0282249320e+02 2.3227856294e+02 0.0000000000e+00 0.0000e+00 -1.0000e+00
       13  1    1    2    0    0 -1.4932738561e+02 +1.4519709915e+02 +4.3124152715e+02 4.7890512675e+02 0.0000000000e+00 0.0000e+00 1.0000e+00
<mgrwt>
<rscale>  0 0.46963588E+03</rscale>
<asrwt>0</asrwt>
<pdfrwt beam="1">  1        2 0.95788283E-01 0.46963588E+03</pdfrwt>
<pdfrwt beam="2">  1       -2 0.13624590E-01 0.46963588E+03</pdfrwt>
<totfact> 0.21285893E+03</totfact>
</mgrwt>
<rwgt>
<wgt id='morphing_basis_vector_1'> +2.4121024e-04 </wgt>
<wgt id='morphing_basis_vector_2'> +1.3404465e-04 </wgt>
<wgt id='morphing_basis_vector_3'> +1.6650913e-04 </wgt>
<wgt id='morphing_basis_vector_4'> +5.0409115e-05 </wgt>
<wgt id='morphing_basis_vector_5'> +6.7298478e-05 </wgt>
</rwgt>
</event>
<event>
 4      1 +1.9425900e-05 4.69085800e+02 7.81860800e-03 9.47180300e-02
        2 -1    0    0  501    0 +0.0000000000e+00 +0.0000000000e+00 +1.3293726015e+03 1.3293726015e+03 0.0000000000e+00 0.0000e+00 1.0000e+00
       -2 -1    0    0    0  501 -0.0000000000e+00 -0.0000000000e+00 -4.1380695504e+01 4.1380695504e+01 0.0000000000e+00 0.0000e+00 -1.0000e+00
      -13  1    1    2    0    0 -1.9275295270e+02 +9.0601458396e+01 +3.5696644482e+02 4.1567699932e+02 0.0000000000e+00 0.0000e+00 -1.0000e+00
       13  1    1    2    0    0 +1.9275295270e+02 -9.0601458396e+01 +9.3102546114e+02 9.5507629765e+02 0.0000000000e+00 0.0000e+00 1.0000e+00
<mgrwt>
<rscale>  0 0.46908576E+03</rscale>
<asrwt>0</asrwt>
<pdfrwt beam="1">  1        2 0.20451883E+00 0.46908576E+03</pdfrwt>
<pdfrwt beam="2">  1       -2 0.63662619E-02 0.46908576E+03</pdfrwt>
<totfact> 0.24657501E+03</totfact>
</mgrwt>
<rwgt>
<wgt id='morphing_basis_vector_1'> +2.4065737e-04 </wgt>
<wgt id='morphing_basis_vector_2'> +1.3439887e-04 </wgt>
<wgt id='morphing_basis_vector_3'> +1.6568109e-04 </wgt>
<wgt id='morphing_basis_vector_4'> +5.0030814e-05 </wgt>
<wgt id='morphing_basis_vector_5'> +6.6821676e-05 </wgt>
</rwgt>
</event>
<event>
 4      1 +1.9425900e-05 4.48631500e+02 7.81860800e-03 9.52278000e-02
        2 -1    0    0  501    0 +0.0000000000e+00 +0.0000000000e+00 +9.3059146730e+01 9.3059146730e+01 0.0000000000e+00 0.0000e+00 -1.0000e+00
       -2 -1    0    0    0  501 -0.0000000000e+00 -0.0000000000e+00 -5.4070512677e+02 5.4070512677e+02 0.0000000000e+00 0.0000e+00 1.0000e+00
      -13  1    1    2    0    0 -7.4870082888e+01 -1.5725410867e+02 -4.2351937959e+02 4.5793345466e+02 0.0000000000e+00 0.0000e+00 1.0000e+00
       13  1    1    2    0    0 +7.4870082888e+01 +1.5725410867e+02 -2.4126600449e+01 1.7583081884e+02 0.0000000000e+00 0.0000e+00 -1.0000e+00
<mgrwt>
<rscale>  0 0.44863151E+03</rscale>
<asrwt>0</asrwt>
<pdfrwt beam="1">  1        2 0.14316792E-01 0.44863151E+03</pdfrwt>
<pdfrwt beam="2">  1       -2 0.83185404E-01 0.44863151E+03</pdfrwt>
<totfact> 0.69376406E+02</totfact>
</mgrwt>
<rwgt>
<wgt id='morphing_basis_vector_1'> +2.1086901e-04 </wgt>
<wgt id='morphing_basis_vector_2'> +1.1496821e-04 </wgt>
<wgt id='morphing_basis_vector_3'> +1.4275426e-04 </wgt>
<wgt id='morphing_basis_vector_4'> +3.9798083e-05 </wgt>
<wgt id='morphing_basis_vector_5'> +5.0168682e-05 </wgt>
</rwgt>
</event>
<event>
 4      1 +1.9425900e-05 4.47161200e+02 7.81860800e-03 9.52655400e-02
        2 -1    0    0  501    0 +0.0000000000e+00 +0.0000000000e+00 +2.0854263258e+03 2.0854263258e+03 0.0000000000e+00 0.0000e+00 -1.0000e+00
       -2 -1    0    0    0  501 -0.0000000000e+00 -0.0000000000e+00 -2.3970293407e+01 2.3970293407e+01 0.0000000000e+00 0.0000e+00 1.0000e+00
      -13  1    1    2    0    0 -2.2008342466e+02 -8.0856237529e+00 +8.4887048738e+02 8.7697388528e+02 0.0000000000e+00 0.0000e+00 1.0000e+00
       13  1    1    2    0    0 +2.2008342466e+02 +8.0856237529e+00 +1.2125855450e+03 1.2324227339e+03 0.0000000000e+00 0.0000e+00 -1.0000e+00
<mgrwt>
<rscale>  0 0.44716118E+03</rscale>
<asrwt>0</asrwt>
<pdfrwt beam="1">  1        2 0.32083468E+00 0.44716118E+03</pdfrwt>
<pdfrwt beam="2">  1       -2 0.36877391E-02 0.44716118E+03</pdfrwt>
<totfact> 0.21855080E+03</totfact>
</mgrwt>
<rwgt>
<wgt id='morphing_basis_vector_1'> +2.1204713e-04 </wgt>
<wgt id='morphing_basis_vector_2'> +1.2353672e-04 </wgt>
<wgt id='morphing_basis_vector_3'> +1.3904114e-04 </wgt>
<wgt id='morphing_basis_vector_4'> +3.8601771e-05 </wgt>
<wgt id='morphing_basis_vector_5'> +4.9269151e-05 </wgt>
</rwgt>
</event>
<event>
 4      1 +1.9425900e-05 4.67073800e+02 7.81860800e-03 9.47669500e-02
        2 -1    0    0  501    0 +0.0000000000e+00 +0.0000000000e+00 +8.2830998605e+02 8.2830998605e+02 0.0000000000e+00 0.0000e+00 -1.0000e+00
       -2 -1    0    0    0  501 -0.0000000000e+00 -0.0000000000e+00 -6.5844284881e+01 6.5844284881e+01 0.0000000000e+00 0.0000e+00 1.0000e+00
      -13  1    1    2    0    0 -1.0063945843e+02 +7.8793262041e+01 +7.0580244206e+00 1.2800974356e+02 0.0000000000e+00 0.0000e+00 1.0000e+00
       13  1    1    2    0    0 +1.0063945843e+02 -7.8793262041e+01 +7.5540767674e+02 7.6614452737e+02 0.0000000000e+00 0.0000e+00 -1.0000e+00
<mgrwt>
<rscale>  0 0.46707378E+03</rscale>
<asrwt>0</asrwt>
<pdfrwt beam="1">  1        2 0.12743230E+00 0.46707378E+03</pdfrwt>
<pdfrwt beam="2">  1       -2 0.10129891E-01 0.46707378E+03</pdfrwt>
<totfact> 0.23987009E+03</totfact>
</mgrwt>
<rwgt>
<wgt id='morphing_basis_vector_1'> +2.3633993e-04 </wgt>
<wgt id='morphing_basis_vector_2'> +1.2853476e-04 </wgt>
<wgt id='morphing_basis_vector_3'> +1.6399959e-04 </wgt>
<wgt id='morphing_basis_vector_4'> +4.9264427e-05 </wgt>
<wgt id='morphing_basis_vector_5'> +6.4981069e-05 </wgt>
</rwgt>
</event>
<event>
 4      1 +1.9425900e-05 4.71143000e+02 7.81860800e-03 9.46682700e-02
        2 -1    0    0  501    0 +0.0000000000e+00 +0.0000000000e+00 +6.8582710682e+02 6.8582710682e+02 0.0000000000e+00 0.0000e+00 -1.0000e+00
       -2 -1    0    0    0  501 -0.0000000000e+00 -0.0000000000e+00 -8.0915329497e+01 8.0915329497e+01 0.0000000000e+00 0.0000e+00 1.0000e+00
      -13  1    1    2    0    0 +7.2111556669e+01 +1.5785597389e+02 +4.3215464287e+01 1.7884675409e+02 0.0000000000e+00 0.0000e+00 1.0000e+00
       13  1    1    2    0    0 -7.2111556669e+01 -1.5785597389e+02 +5.6169631303e+02 5.8789568222e+02 0.0000000000e+00 0.0000e+00 -1.0000e+00
<mgrwt>
<rscale>  0 0.47114298E+03</rscale>
<asrwt>0</asrwt>
<pdfrwt beam="1">  1        2 0.10551186E+00 0.47114298E+03</pdfrwt>
<pdfrwt beam="2">  1       -2 0.12448513E-01 0.47114298E+03</pdfrwt>
<totfact> 0.21914302E+03</totfact>
</mgrwt>
<rwgt>
<wgt id='morphing_basis_vector_1'> +2.4263261e-04 </wgt>
<wgt id='morphing_basis_vector_2'> +1.3275827e-04 </wgt>
<wgt id='morphing_basis_vector_3'> +1.6883999e-04 </wgt>
<wgt id='morphing_basis_vector_4'> +5.1488477e-05 </wgt>
<wgt id='morphing_basis_vector_5'> +6.8612154e-05 </wgt>
</rwgt>
</event>
<event>
 4      1 +1.9425900e-05 4.31205500e+02 7.81860800e-03 9.56851900e-02
        2 -1    0    0  501    0 +0.0000000000e+00 +0.0000000000e+00 +8.9557749302e+02 8.9557749302e+02 0.0000000000e+00 0.0000e+00 1.0000e+00
       -2 -1    0    0    0  501 -0.0000000000e+00 -0.0000000000e+00 -5.1904560357e+01 5.1904560357e+01 0.0000000000e+00 0.0000e+00 -1.0000e+00
      -13  1    1    2    0    0 +1.7303917618e+02 -4.5480180236e+00 +1.3940767982e+02 2.2225602839e+02 0.0000000000e+00 0.0000e+00 -1.0000e+00
       13  1    1    2    0    0 -1.7303917618e+02 +4.5480180236e+00 +7.0426525284e+02 7.2522602499e+02 0.0000000000e+00 0.0000e+00 1.0000e+00
<mgrwt>
<rscale>  0 0.43120555E+03</rscale>
<asrwt>0</asrwt>
<pdfrwt beam="1">  1        2 0.13778114E+00 0.43120555E+03</pdfrwt>
<pdfrwt beam="2">  1       -2 0.79853176E-02 0.43120555E+03</pdfrwt>
<totfact> 0.31320445E+03</totfact>
</mgrwt>
<rwgt>
<wgt id='morphing_basis_vector_1'> +1.8878660e-04 </wgt>
<wgt id='morphing_basis_vector_2'> +1.0276097e-04 </wgt>
<wgt id='morphing_basis_vector_3'> +1.2503043e-04 </wgt>
<wgt id='morphing_basis_vector_4'> +3.2317427e-05 </wgt>
<wgt id='morphing_basis_vector_5'> +3.8369121e-05 </wgt>
</rwgt>
</event>
<event>
 4      1 +1.9425900e-05 4.47971100e+02 7.81860800e-03 9.52447300e-02
        2 -1    0    0  501    0 +0.0000000000e+00 +0.0000000000e+00 +1.9049026661e+03 1.9049026661e+03 0.0000000000e+00 0.0000e+00 -1.0000e+00
       -2 -1    0    0    0  501 -0.0000000000e+00 -0.0000000000e+00 -2.6337054274e+01 2.6337054274e+01 0.0000000000e+00 0.0000e+00 1.0000e+00
      -13  1    1    2    0    0 -1.9194117790e+02 -1.1470457997e+02 +8.8291330398e+02 9.1078782314e+02 0.0000000000e+00 0.0000e+00 1.0000e+00
       13  1    1    2    0    0 +1.9194117790e+02 +1.1470457997e+02 +9.9565230785e+02 1.0204518972e+03 0.0000000000e+00 0.0000e+00 -1.0000e+00
<mgrwt>
<rscale>  0 0.44797109E+03</rscale>
<asrwt>0</asrwt>
<pdfrwt beam="1">  1        2 0.29306184E+00 0.44797109E+03</pdfrwt>
<pdfrwt beam="2">  1       -2 0.40518560E-02 0.44797109E+03</pdfrwt>
<totfact> 0.23795649E+03</totfact>
</mgrwt>
<rwgt>
<wgt id='morphing_basis_vector_1'> +2.1506380e-04 </wgt>
<wgt id='morphing_basis_vector_2'> +1.3014891e-04 </wgt>
<wgt id='morphing_basis_vector_3'> +1.3859683e-04 </wgt>
<wgt id='morphing_basis_vector_4'> +3.8636280e-05 </wgt>
<wgt id='morphing_basis_vector_5'> +4.9968570e-05 </wgt>
</rwgt>
</event>
<event>
 4      1 +1.9425900e-05 4.60087500e+02 7.81860800e-03 9.49388600e-02
        2 -1    0    0  501    0 +0.0000000000e+00 +0.0000000000e+00 +6.0705999097e+01 6.0705999097e+01 0.0000000000e+00 0.0000e+00 -1.0000e+00
       -2 -1    0    0    0  501 -0.0000000000e+00 -0.0000000000e+00 -8.7174472794e+02 8.7174472794e+02 0.0000000000e+00 0.0000e+00 1.0000e+00
      -13  1    1    2    0    0 +1.2990513886e+02 +1.5887751425e+02 -6.1616481645e+02 6.4944321589e+02 0.0000000000e+00 0.0000e+00 1.0000e+00
       13  1    1    2    0    0 -1.2990513886e+02 -1.5887751425e+02 -1.9487391239e+02 2.8300751115e+02 0.0000000000e+00 0.0000e+00 -1.0000e+00
<mgrwt>
<rscale>  0 0.46008753E+03</rscale>
<asrwt>0</asrwt>
<pdfrwt beam="1">  1        2 0.93393847E-02 0.46008753E+03</pdfrwt>
<pdfrwt beam="2">  1       -2 0.13411457E+00 0.46008753E+03</pdfrwt>
<totfact> 0.36772820E+02</totfact>
</mgrwt>
<rwgt>
<wgt id='morphing_basis_vector_1'> +2.2734147e-04 </wgt>
<wgt id='morphing_basis_vector_2'> +1.2614331e-04 </wgt>
<wgt id='morphing_basis_vector_3'> +1.5508009e-04 </wgt>
<wgt id='morphing_basis_vector_4'> +4.5272248e-05 </wgt>
<wgt id='morphing_basis_vector_5'> +5.9122678e-05 </wgt>
</rwgt>
</event>
<event>
 4      1 +1.9425900e-05 4.99196900e+02 7.81860800e-03 9.40157400e-02
        2 -1    0    0  501    0 +0.0000000000e+00 +0.0000000000e+00 +4.7811492064e+02 4.7811492064e+02 0.0000000000e+00 0.0000e+00 1.0000e+00
       -2 -1    0    0    0  501 -0.0000000000e+00 -0.0000000000e+00 -1.3030209200e+02 1.3030209200e+02 0.0000000000e+00 0.0000e+00 -1.0000e+00
      -13  1    1    2    0    0 -4.0252617574e+01 +1.6447341452e+02 -4.9593534751e+01 1.7644063022e+02 0.0000000000e+00 0.0000e+00 -1.0000e+00
       13  1    1    2    0    0 +4.0252617574e+01 -1.6447341452e+02 +3.9740636339e+02 4.3197638242e+02 0.0000000000e+00 0.0000e+00 1.0000e+00
<mgrwt>
<rscale>  0 0.49919685E+03</rscale>
<asrwt>0</asrwt>
<pdfrwt beam="1">  1        2 0.73556141E-01 0.49919685E+03</pdfrwt>
<pdfrwt beam="2">  1       -2 0.20046476E-01 0.49919685E+03</pdfrwt>
<totfact> 0.15404089E+03</totfact>
</mgrwt>
<rwgt>
<wgt id='morphing_basis_vector_1'> +2.8779892e-04 </wgt>
<wgt id='morphing_basis_vector_2'> +1.5846252e-04 </wgt>
<wgt id='morphing_basis_vector_3'> +2.0688924e-04 </wgt>
<wgt id='morphing_basis_vector_4'> +6.9630958e-05 </wgt>
<wgt id='morphing_basis_vector_5'> +9.7246788e-05 </wgt>
</rwgt>
</event>
<event>
 4      1 +1.9425900e-05 5.01968100e+02 7.81860800e-03 9.39537900e-02
        2 -1    0    0  501    0 +0.0000000000e+00 +0.0000000000e+00 +2.5855594902e+02 2.5855594902e+02 0.0000000000e+00 0.0000e+00 -1.0000e+00
       -2 -1    0    0    0  501 -0.0000000000e+00 -0.0000000000e+00 -2.4363393017e+02 2.4363393017e+02 0.0000000000e+00 0.0000e+00 1.0000e+00
      -13  1    1    2    0    0 -2.1096226320e+02 -7.0326669273e+01 -1.0896086227e+02 2.4763559197e+02 0.0000000000e+00 0.0000e+00 1.0000e+00
       13  1    1    2    0    0 +2.1096226320e+02 +7.0326669273e+01 +1.2388288111e+02 2.5455428721e+02 0.0000000000e+00 0.0000e+00 -1.0000e+00
<mgrwt>
<rscale>  0 0.50196813E+03</rscale>
<asrwt>0</asrwt>
<pdfrwt beam="1">  1        2 0.39777838E-01 0.50196813E+03</pdfrwt>
<pdfrwt beam="2">  1       -2 0.37482143E-01 0.50196813E+03</pdfrwt>
<totfact> 0.10384393E+03</totfact>
</mgrwt>
<rwgt>
<wgt id='morphing_basis_vector_1'> +2.9379364e-04 </wgt>
<wgt id='morphing_basis_vector_2'> +1.6487478e-04 </wgt>
<wgt id='morphing_basis_vector_3'> +2.1053380e-04 </wgt>
<wgt id='morphing_basis_vector_4'> +7.1177848e-05 </wgt>
<wgt id='morphing_basis_vector_5'> +1.0049153e-04 </wgt>
</rwgt>
</event>
<event>
 4      1 +1.9425900e-05 4.57652800e+02 7.81860800e-03 9.49995200e-02
        2 -1    0    0  501    0 +0.0000000000e+00 +0.0000000000e+00 +7.0687624838e+02 7.0687624838e+02 0.0000000000e+00 0.0000e+00 1.0000e+00
       -2 -1    0    0    0  501 -0.0000000000e+00 -0.0000000000e+00 -7.4074519549e+01 7.4074519549e+01 0.0000000000e+00 0.0000e+00 -1.0000e+00
      -13  1    1    2    0    0 +9.9848279848e+01 +1.1968456672e+02 +3.0517439336e+01 1.5882502512e+02 0.0000000000e+00 0.0000e+00 -1.0000e+00
       13  1    1    2    0    0 -9.9848279848e+01 -1.1968456672e+02 +6.0228428950e+02 6.2212574282e+02 0.0000000000e+00 0.0000e+00 1.0000e+00
<mgrwt>
<rscale>  0 0.45765279E+03</rscale>
<asrwt>0</asrwt>
<pdfrwt beam="1">  1        2 0.10875019E+00 0.45765279E+03</pdfrwt>
<pdfrwt beam="2">  1       -2 0.11396080E-01 0.45765279E+03</pdfrwt>
<totfact> 0.24282057E+03</totfact>
</mgrwt>
<rwgt>
<wgt id='morphing_basis_vector_1'> +2.2297421e-04 </wgt>
<wgt id='morphing_basis_vector_2'> +1.2128618e-04 </wgt>
<wgt id='morphing_basis_vector_3'> +1.5286654e-04 </wgt>
<wgt id='morphing_basis_vector_4'> +4.4232545e-05 </wgt>
<wgt id='morphing_basis_vector_5'> +5.7097820e-05 </wgt>
</rwgt>
</event>
<event>
 4      1 +1.9425900e-05 5.12783200e+02 7.81860800e-03 9.37160800e-02
        2 -1    0    0  501    0 +0.0000000000e+00 +0.0000000000e+00 +6.0947554792e+01 6.0947554792e+01 0.0000000000e+00 0.0000e+00 -1.0000e+00
       -2 -1    0    0    0  501 -0.0000000000e+00 -0.0000000000e+00 -1.0785774478e+03 1.0785774478e+03 0.0000000000e+00 0.0000e+00 1.0000e+00
      -13  1    1    2    0    0 +1.8603920594e+02 -9.5151605205e+01 -8.3896646264e+02 8.6459767496e+02 0.0000000000e+00 0.0000e+00 1.0000e+00
       13  1    1    2    0    0 -1.8603920594e+02 +9.5151605205e+01 -1.7866343033e+02 2.7492732759e+02 0.0000000000e+00 0.0000e+00 -1.0000e+00
<mgrwt>
<rscale>  0 0.51278322E+03</rscale>
<asrwt>0</asrwt>
<pdfrwt beam="1">  1        2 0.93765470E-02 0.51278322E+03</pdfrwt>
<pdfrwt beam="2">  1       -2 0.16593499E+00 0.51278322E+03</pdfrwt>
<totfact> 0.20012970E+02</totfact>
</mgrwt>
<rwgt>
<wgt id='morphing_basis_vector_1'> +3.1268163e-04 </wgt>
<wgt id='morphing_basis_vector_2'> +1.7430688e-04 </wgt>
<wgt id='morphing_basis_vector_3'> +2.2751848e-04 </wgt>
<wgt id='morphing_basis_vector_4'> +7.9719287e-05 </wgt>
<wgt id='morphing_basis_vector_5'> +1.1362503e-04 </wgt>
</rwgt>
</event>
<event>
 4      1 +1.9425900e-05 5.07628200e+02 7.81860800e-03 9.38285900e-02
        2 -1    0    0  501    0 +0.0000000000e+00 +0.0000000000e+00 +6.2341400560e+02 6.2341400560e+02 0.0000000000e+00 0.0000e+00 1.0000e+00
       -2 -1    0    0    0  501 -0.0000000000e+00 -0.0000000000e+00 -1.0333678003e+02 1.0333678003e+02 0.0000000000e+00 0.0000e+00 -1.0000e+00
      -13  1    1    2    0    0 +8.7188691379e+01 -2.3527799725e+02 +2.0526023879e+02 3.2417490576e+02 0.0000000000e+00 0.0000e+00 -1.0000e+00
       13  1    1    2    0    0 -8.7188691379e+01 +2.3527799725e+02 +3.1481698678e+02 4.0257587987e+02 0.0000000000e+00 0.0000e+00 1.0000e+00
<mgrwt>
<rscale>  0 0.50762819E+03</rscale>
<asrwt>0</asrwt>
<pdfrwt beam="1">  1        2 0.95909844E-01 0.50762819E+03</pdfrwt>
<pdfrwt beam="2">  1       -2 0.15897967E-01 0.50762819E+03</pdfrwt>
<totfact> 0.16603851E+03</totfact>
</mgrwt>
<rwgt>
<wgt id='morphing_basis_vector_1'> +3.0815032e-04 </wgt>
<wgt id='morphing_basis_vector_2'> +1.8401769e-04 </wgt>
<wgt id='morphing_basis_vector_3'> +2.1757023e-04 </wgt>
<wgt id='morphing_basis_vector_4'> +7.3569695e-05 </wgt>
<wgt id='morphing_basis_vector_5'> +1.0740130e-04 </wgt>
</rwgt>
</event>
<event>
 4      1 +1.9425900e-05 4.87737100e+02 7.81860800e-03 9.42765800e-02
        2 -1    0    0  501    0 +0.0000000000e+00 +0.0000000000e+00 +1.3798549664e+03 1.3798549664e+03 0.0000000000e+00 0.0000e+00 1.0000e+00
       -2 -1    0    0    0  501 -0.0000000000e+00 -0.0000000000e+00 -4.3100093607e+01 4.3100093607e+01 0.0000000000e+00 0.0000e+00 -1.0000e+00
      -13  1    1    2    0    0 -2.2424593645e+02 -3.4469064933e+01 +4.0747203103e+02 4.6637732849e+02 0.0000000000e+00 0.0000e+00 -1.0000e+00
       13  1    1    2    0    0 +2.2424593645e+02 +3.4469064933e+01 +9.2928284176e+02 9.5657773153e+02 0.0000000000e+00 0.0000e+00 1.0000e+00
<mgrwt>
<rscale>  0 0.48773714E+03</rscale>
<asrwt>0</asrwt>
<pdfrwt beam="1">  1        2 0.21228535E+00 0.48773714E+03</pdfrwt>
<pdfrwt beam="2">  1       -2 0.66307847E-02 0.48773714E+03</pdfrwt>
<totfact> 0.21724552E+03</totfact>
</mgrwt>
<rwgt>
<wgt id='morphing_basis_vector_1'> +2.7032582e-04 </wgt>
<wgt id='morphing_basis_vector_2'> +1.5293084e-04 </wgt>
<wgt id='morphing_basis_vector_3'> +1.8972892e-04 </wgt>
<wgt id='morphing_basis_vector_4'> +6.1098454e-05 </wgt>
<wgt id='morphing_basis_vector_5'> +8.4822747e-05 </wgt>
</rwgt>
</event>
<event>
 4      1 +1.9425900e-05 4.57191700e+02 7.81860800e-03 9.50110600e-02
        2 -1    0    0  501    0 +0.0000000000e+00 +0.0000000000e+00 +8.4404322243e+02 8.4404322243e+02 0.0000000000e+00 0.0000e+00 -1.0000e+00
       -2 -1    0    0    0  501 -0.0000000000e+00 -0.0000000000e+00 -6.1911608256e+01 6.1911608256e+01 0.0000000000e+00 0.0000e+00 1.0000e+00
      -13  1    1    2    0    0 +2.0254516025e+02 -2.5402698813e+01 +1.8718379364e+02 2.7696139018e+02 0.0000000000e+00 0.0000e+00 1.0000e+00
       13  1    1    2    0    0 -2.0254516025e+02 +2.5402698813e+01 +5.9494782053e+02 6.2899344051e+02 0.0000000000e+00 0.0000e+00 -1.0000e+00
<mgrwt>
<rscale>  0 0.45719175E+03</rscale>
<asrwt>0</asrwt>
<pdfrwt beam="1">  1        2 0.12985279E+00 0.45719175E+03</pdfrwt>
<pdfrwt beam="2">  1       -2 0.95248634E-02 0.45719175E+03</pdfrwt>
<totfact> 0.25772940E+03</totfact>
</mgrwt>
<rwgt>
<wgt id='morphing_basis_vector_1'> +2.2326411e-04 </wgt>
<wgt id='morphing_basis_vector_2'> +1.2380993e-04 </wgt>
<wgt id='morphing_basis_vector_3'> +1.5175376e-04 </wgt>
<wgt id='morphing_basis_vector_4'> +4.3801506e-05 </wgt>
<wgt id='morphing_basis_vector_5'> +5.6778880e-05 </wgt>
</rwgt>
</event>
<event>
 4      1 +1.9425900e-05 4.86832100e+02 7.81860800e-03 9.42975100e-02
        2 -1    0    0  501    0 +0.0000000000e+00 +0.0000000000e+00 +1.4696257298e+02 1.4696257298e+02 0.0000000000e+00 0.0000e+00 -1.0000e+00
       -2 -1    0    0    0  501 -0.0000000000e+00 -0.0000000000e+00 -4.0317324586e+02 4.0317324586e+02 0.0000000000e+00 0.0000e+00 1.0000e+00
      -13  1    1    2    0    0 +2.1840063010e+02 -2.1562557649e+00 -2.4953983238e+02 3.3162269617e+02 0.0000000000e+00 0.0000e+00 1.0000e+00
       13  1    1    2    0    0 -2.1840063010e+02 +2.1562557649e+00 -6.6708404889e+00 2.1851312267e+02 0.0000000000e+00 0.0000e+00 -1.0000e+00
<mgrwt>
<rscale>  0 0.48683212E+03</rscale>
<asrwt>0</asrwt>
<pdfrwt beam="1">  1        2 0.22609627E-01 0.48683212E+03</pdfrwt>
<pdfrwt beam="2">  1       -2 0.62026652E-01 0.48683212E+03</pdfrwt>
<totfact> 0.75231574E+02</totfact>
</mgrwt>
<rwgt>
<wgt id='morphing_basis_vector_1'> +2.6823859e-04 </wgt>
<wgt id='morphing_basis_vector_2'> +1.5018320e-04 </wgt>
<wgt id='morphing_basis_vector_3'> +1.8877256e-04 </wgt>
<wgt id='morphing_basis_vector_4'> +6.0721965e-05 </wgt>
<wgt id='morphing_basis_vector_5'> +8.3857030e-05 </wgt>
</rwgt>
</event>
<event>
 4      1 +1.9425900e-05 4.80338100e+02 7.81860800e-03 9.44491200e-02
        2 -1    0    0  501    0 +0.0000000000e+00 +0.0000000000e+00 +4.4492479468e+02 4.4492479468e+02 0.0000000000e+00 0.0000e+00 1.0000e+00
       -2 -1    0    0    0  501 -0.0000000000e+00 -0.0000000000e+00 -1.2964251331e+02 1.2964251331e+02 0.0000000000e+00 0.0000e+00 -1.0000e+00
      -13  1    1    2    0    0 +2.2031608119e+02 -2.0851817033e+01 +4.6023453624e+01 2.2603568786e+02 0.0000000000e+00 0.0000e+00 -1.0000e+00
       13  1    1    2    0    0 -2.2031608119e+02 +2.0851817033e+01 +2.6925882775e+02 3.4853162013e+02 0.0000000000e+00 0.0000e+00 1.0000e+00
<mgrwt>
<rscale>  0 0.48033808E+03</rscale>
<asrwt>0</asrwt>
<pdfrwt beam="1">  1        2 0.68449967E-01 0.48033808E+03</pdfrwt>
<pdfrwt beam="2">  1       -2 0.19945002E-01 0.48033808E+03</pdfrwt>
<totfact> 0.16835179E+03</totfact>
</mgrwt>
<rwgt>
<wgt id='morphing_basis_vector_1'> +2.5818726e-04 </wgt>
<wgt id='morphing_basis_vector_2'> +1.4526101e-04 </wgt>
<wgt id='morphing_basis_vector_3'> +1.7985825e-04 </wgt>
<wgt id='morphing_basis_vector_4'> +5.6515554e-05 </wgt>
<wgt id='morphing_basis_vector_5'> +7.7339957e-05 </wgt>
</rwgt>
</event>
<event>
 4      1 +1.9425900e-05 4.43353400e+02 7.81860800e-03 9.53639900e-02
        2 -1    0    0  501    0 +0.0000000000e+00 +0.0000000000e+00 +5.8774581074e+02 5.8774581074e+02 0.0000000000e+00 0.0000e+00 -1.0000e+00
       -2 -1    0    0    0  501 -0.0000000000e+00 -0.0000000000e+00 -8.3608516859e+01 8.3608516859e+01 0.0000000000e+00 0.0000e+00 1.0000e+00
      -13  1    1    2    0    0 -1.3487268597e+02 +1.2490117340e+02 +6.4461036042e+01 1.9479776617e+02 0.0000000000e+00 0.0000e+00 1.0000e+00
       13  1    1    2    0    0 +1.3487268597e+02 -1.2490117340e+02 +4.3967625784e+02 4.7655656143e+02 0.0000000000e+00 0.0000e+00 -1.0000e+00
<mgrwt>
<rscale>  0 0.44335338E+03</rscale>
<asrwt>0</asrwt>
<pdfrwt beam="1">  1        2 0.90422430E-01 0.44335338E+03</pdfrwt>
<pdfrwt beam="2">  1       -2 0.12862849E-01 0.44335338E+03</pdfrwt>
<totfact> 0.24924314E+03</totfact>
</mgrwt>
<rwgt>
<wgt id='morphing_basis_vector_1'> +2.0413533e-04 </wgt>
<wgt id='morphing_basis_vector_2'> +1.1167989e-04 </wgt>
<wgt id='morphing_basis_vector_3'> +1.3704263e-04 </wgt>
<wgt id='morphing_basis_vector_4'> +3.7368525e-05 </wgt>
<wgt id='morphing_basis_vector_5'> +4.6387416e-05 </wgt>
</rwgt>
</event>
<event>
 4      1 +1.9425900e-05 4.53810700e+02 7.81860800e-03 9.50960600e-02
        2 -1    0    0  501    0 +0.0000000000e+00 +0.0000000000e+00 +4.0330870666e+02 4.0330870666e+02 0.0000000000e+00 0.0000e+00 -1.0000e+00
       -2 -1    0    0    0  501 -0.0000000000e+00 -0.0000000000e+00 -1.2765911390e+02 1.2765911390e+02 0.0000000000e+00 0.0000e+00 1.0000e+00
      -13  1    1    2    0    0 -1.7180072963e+02 +2.7749151164e+01 -3.2534882377e+01 1.7704243746e+02 0.0000000000e+00 0.0000e+00 1.0000e+00
       13  1    1    2    0    0 +1.7180072963e+02 -2.7749151164e+01 +3.0818447514e+02 3.5392538311e+02 0.0000000000e+00 0.0000e+00 -1.0000e+00
<mgrwt>
<rscale>  0 0.45381067E+03</rscale>
<asrwt>0</asrwt>
<pdfrwt beam="1">  1        2 0.62047493E-01 0.45381067E+03</pdfrwt>
<pdfrwt beam="2">  1       -2 0.19639864E-01 0.45381067E+03</pdfrwt>
<totfact> 0.19259025E+03</totfact>
</mgrwt>
<rwgt>
<wgt id='morphing_basis_vector_1'> +2.1784118e-04 </wgt>
<wgt id='morphing_basis_vector_2'> +1.1884400e-04 </wgt>
<wgt id='morphing_basis_vector_3'> +1.4842865e-04 </wgt>
<wgt id='morphing_basis_vector_4'> +4.2278075e-05 </wgt>
<wgt id='morphing_basis_vector_5'> +5.4079909e-05 </wgt>
</rwgt>
</event>
<event>
 4      1 +1.9425900e-05 5.04140000e+02 7.81860800e-03 9.39055400e-02
        2 -1    0    0  501    0 +0.0000000000e+00 +0.0000000000e+00 +2.0247084528e+03 2.0247084528e+03 0.0000000000e+00 0.0000e+00 1.0000e+00
       -2 -1    0    0    0  501 -0.0000000000e+00 -0.0000000000e+00 -3.1381939876e+01 3.1381939876e+01 0.0000000000e+00 0.0000e+00 -1.0000e+00
      -13  1    1    2    0    0 -1.8944954271e+02 -1.5451407548e+02 +1.2471969445e+03 1.2709311339e+03 0.0000000000e+00 0.0000e+00 -1.0000e+00
       13  1    1    2    0    0 +1.8944954271e+02 +1.5451407548e+02 +7.4612956833e+02 7.8515925868e+02 0.0000000000e+00 0.0000e+00 1.0000e+00
<mgrwt>
<rscale>  0 0.50413998E+03</rscale>
<asrwt>0</asrwt>
<pdfrwt beam="1">  1        2 0.31149351E+00 0.50413998E+03</pdfrwt>
<pdfrwt beam="2">  1       -2 0.48279923E-02 0.50413998E+03</pdfrwt>
<totfact> 0.15692923E+03</totfact>
</mgrwt>
<rwgt>
<wgt id='morphing_basis_vector_1'> +3.1910644e-04 </wgt>
<wgt id='morphing_basis_vector_2'> +2.3378977e-04 </wgt>
<wgt id='morphing_basis_vector_3'> +2.0538652e-04 </wgt>
<wgt id='morphing_basis_vector_4'> +6.3823702e-05 </wgt>
<wgt id='morphing_basis_vector_5'> +1.0387929e-04 </wgt>
</rwgt>
</event>
<event>
 4      1 +1.9425900e-05 4.72259500e+02 7.81860800e-03 9.46413800e-02
        2 -1    0    0  501    0 +0.0000000000e+00 +0.0000000000e+00 +7.6257448926e+02 7.6257448926e+02 0.0000000000e+00 0.0000e+00 1.0000e+00
       -2 -1    0    0    0  501 -0.0000000000e+00 -0.0000000000e+00 -7.3117115685e+01 7.3117115685e+01 0.0000000000e+00 0.0000e+00 -1.0000e+00
      -13  1    1    2    0    0 -2.2922850607e+02 -5.5952329618e+01 +3.2881484173e+02 4.0471665561e+02 0.0000000000e+00 0.0000e+00 -1.0000e+00
       13  1    1    2    0    0 +2.2922850607e+02 +5.5952329618e+01 +3.6064253185e+02 4.3097494934e+02 0.0000000000e+00 0.0000e+00 1.0000e+00
<mgrwt>
<rscale>  0 0.47225945E+03</rscale>
<asrwt>0</asrwt>
<pdfrwt beam="1">  1        2 0.11731915E+00 0.47225945E+03</pdfrwt>
<pdfrwt beam="2">  1       -2 0.11248788E-01 0.47225945E+03</pdfrwt>
<totfact> 0.22594680E+03</totfact>
</mgrwt>
<rwgt>
<wgt id='morphing_basis_vector_1'> +2.5091409e-04 </wgt>
<wgt id='morphing_basis_vector_2'> +1.5417449e-04 </wgt>
<wgt id='morphing_basis_vector_3'> +1.6658762e-04 </wgt>
<wgt id='morphing_basis_vector_4'> +5.0285216e-05 </wgt>
<wgt id='morphing_basis_vector_5'> +6.9952547e-05 </wgt>
</rwgt>
</event>
<event>
 4      1 +1.9425900e-05 4.38498600e+02 7.81860800e-03 9.54910400e-02
        2 -1    0    0  501    0 +0.0000000000e+00 +0.0000000000e+00 +6.4672081787e+02 6.4672081787e+02 0.0000000000e+00 0.0000e+00 -1.0000e+00
       -2 -1    0    0    0  501 -0.0000000000e+00 -0.0000000000e+00 -7.4329230801e+01 7.4329230801e+01 0.0000000000e+00 0.0000e+00 1.0000e+00
      -13  1    1    2    0    0 -1.7964714631e+02 +2.9295491312e+01 +8.5213852284e+01 2.0097941091e+02 0.0000000000e+00 0.0000e+00 1.0000e+00
       13  1    1    2    0    0 +1.7964714631e+02 -2.9295491312e+01 +4.8717773478e+02 5.2007063776e+02 0.0000000000e+00 0.0000e+00 -1.0000e+00
<mgrwt>
<rscale>  0 0.43849862E+03</rscale>
<asrwt>0</asrwt>
<pdfrwt beam="1">  1        2 0.99495506E-01 0.43849862E+03</pdfrwt>
<pdfrwt beam="2">  1       -2 0.11435267E-01 0.43849862E+03</pdfrwt>
<totfact> 0.26836489E+03</totfact>
</mgrwt>
<rwgt>
<wgt id='morphing_basis_vector_1'> +1.9792581e-04 </wgt>
<wgt id='morphing_basis_vector_2'> +1.0818082e-04 </wgt>
<wgt id='morphing_basis_vector_3'> +1.3208715e-04 </wgt>
<wgt id='morphing_basis_vector_4'> +3.5271994e-05 </wgt>
<wgt id='morphing_basis_vector_5'> +4.3067816e-05 </wgt>
</rwgt>
</event>
<event>
 4      1 +1.9425900e-05 4.56510400e+02 7.81860800e-03 9.50281200e-02
        2 -1    0    0  501    0 +0.0000000000e+00 +0.0000000000e+00 +8.8132346909e+02 8.8132346909e+02 0.0000000000e+00 0.0000e+00 1.0000e+00
       -2 -1    0    0    0  501 -0.0000000000e+00 -0.0000000000e+00 -5.9116139953e+01 5.9116139953e+01 0.0000000000e+00 0.0000e+00 -1.0000e+00
      -13  1    1    2    0    0 -4.3321210206e+01 -1.8773035345e+02 +1.5895827450e+02 2.4977418980e+02 0.0000000000e+00 0.0000e+00 -1.0000e+00
       13  1    1    2    0    0 +4.3321210206e+01 +1.8773035345e+02 +6.6324905464e+02 6.9066541924e+02 0.0000000000e+00 0.0000e+00 1.0000e+00
<mgrwt>
<rscale>  0 0.45651042E+03</rscale>
<asrwt>0</asrwt>
<pdfrwt beam="1">  1        2 0.13558822E+00 0.45651042E+03</pdfrwt>
<pdfrwt beam="2">  1       -2 0.90947914E-02 0.45651042E+03</pdfrwt>
<totfact> 0.26181025E+03</totfact>
</mgrwt>
<rwgt>
<wgt id='morphing_basis_vector_1'> +2.2190613e-04 </wgt>
<wgt id='morphing_basis_vector_2'> +1.2200536e-04 </wgt>
<wgt id='morphing_basis_vector_3'> +1.5123875e-04 </wgt>
<wgt id='morphing_basis_vector_4'> +4.3545953e-05 </wgt>
<wgt id='morphing_basis_vector_5'> +5.6214471e-05 </wgt>
</rwgt>
</event>
<event>
 4      1 +1.9425900e-05 4.67477700e+02 7.81860800e-03 9.47571100e-02
        2 -1    0    0  501    0 +0.0000000000e+00 +0.0000000000e+00 +2.1581697729e+02 2.1581697729e+02 0.0000000000e+00 0.0000e+00 1.0000e+00
       -2 -1    0    0    0  501 -0.0000000000e+00 -0.0000000000e+00 -2.5314901853e+02 2.5314901853e+02 0.0000000000e+00 0.0000e+00 -1.0000e+00
      -13  1    1    2    0    0 -2.0174661229e+02 +4.1798439851e+00 -1.3700210321e+02 2.4390314256e+02 0.0000000000e+00 0.0000e+00 -1.0000e+00
       13  1    1    2    0    0 +2.0174661229e+02 -4.1798439851e+00 +9.9670061964e+01 2.2506285326e+02 0.0000000000e+00 0.0000e+00 1.0000e+00
<mgrwt>
<rscale>  0 0.46747773E+03</rscale>
<asrwt>0</asrwt>
<pdfrwt beam="1">  1        2 0.33202612E-01 0.46747773E+03</pdfrwt>
<pdfrwt beam="2">  1       -2 0.38946003E-01 0.46747773E+03</pdfrwt>
<totfact> 0.11876174E+03</totfact>
</mgrwt>
<rwgt>
<wgt id='morphing_basis_vector_1'> +2.3777650e-04 </wgt>
<wgt id='morphing_basis_vector_2'> +1.3148294e-04 </wgt>
<wgt id='morphing_basis_vector_3'> +1.6400245e-04 </wgt>
<wgt id='morphing_basis_vector_4'> +4.9270968e-05 </wgt>
<wgt id='morphing_basis_vector_5'> +6.5377217e-05 </wgt>
</rwgt>
</event>
<event>
 4      1 +1.9425900e-05 5.00910200e+02 7.81860800e-03 9.39773900e-02
        2 -1    0    0  501    0 +0.0000000000e+00 +0.0000000000e+00 +1.5246015960e+02 1.5246015960e+02 0.0000000000e+00 0.0000e+00 1.0000e+00
       -2 -1    0    0    0  501 -0.0000000000e+00 -0.0000000000e+00 -4.1143698722e+02 4.1143698722e+02 0.0000000000e+00 0.0000e+00 -1.0000e+00
      -13  1    1    2    0    0 +1.1068856560e+02 +1.1400152073e+02 -3.4742824868e+02 3.8204017232e+02 0.0000000000e+00 0.0000e+00 -1.0000e+00
       13  1    1    2    0    0 -1.1068856560e+02 -1.1400152073e+02 +8.8451421066e+01 1.8185697450e+02 0.0000000000e+00 0.0000e+00 1.0000e+00
<mgrwt>
<rscale>  0 0.50091017E+03</rscale>
<asrwt>0</asrwt>
<pdfrwt beam="1">  1        2 0.23455410E-01 0.50091017E+03</pdfrwt>
<pdfrwt beam="2">  1       -2 0.63297996E-01 0.50091017E+03</pdfrwt>
<totfact> 0.69111289E+02</totfact>
</mgrwt>
<rwgt>
<wgt id='morphing_basis_vector_1'> +2.9070553e-04 </wgt>
<wgt id='morphing_basis_vector_2'> +1.5996404e-04 </wgt>
<wgt id='morphing_basis_vector_3'> +2.0945390e-04 </wgt>
<wgt id='morphing_basis_vector_4'> +7.0904842e-05 </wgt>
<wgt id='morphing_basis_vector_5'> +9.9213298e-05 </wgt>
</rwgt>
</event>
<event>
 4      1 +1.9425900e-05 4.79151200e+02 7.81860800e-03 9.44771100e-02
        2 -1    0    0  501    0 +0.0000000000e+00 +0.0000000000e+00 +5.5876892188e+02 5.5876892188e+02 0.0000000000e+00 0.0000e+00 -1.0000e+00
       -2 -1    0    0    0  501 -0.0000000000e+00 -0.0000000000e+00 -1.0271950289e+02 1.0271950289e+02 0.0000000000e+00 0.0000e+00 1.0000e+00
      -13  1    1    2    0    0 -7.8575320638e+01 +5.2215231300e+01 -7.5995485343e+01 1.2114382025e+02 0.0000000000e+00 0.0000e+00 1.0000e+00
       13  1    1    2    0    0 +7.8575320638e+01 -5.2215231300e+01 +5.3204490433e+02 5.4034460451e+02 0.0000000000e+00 0.0000e+00 -1.0000e+00
<mgrwt>
<rscale>  0 0.47915119E+03</rscale>
<asrwt>0</asrwt>
<pdfrwt beam="1">  1        2 0.85964448E-01 0.47915119E+03</pdfrwt>
<pdfrwt beam="2">  1       -2 0.15803001E-01 0.47915119E+03</pdfrwt>
<totfact> 0.19027361E+03</totfact>
</mgrwt>
<rwgt>
<wgt id='morphing_basis_vector_1'> +2.5458463e-04 </wgt>
<wgt id='morphing_basis_vector_2'> +1.3879535e-04 </wgt>
<wgt id='morphing_basis_vector_3'> +1.7919475e-04 </wgt>
<wgt id='morphing_basis_vector_4'> +5.6331727e-05 </wgt>
<wgt id='morphing_basis_vector_5'> +7.6102051e-05 </wgt>
</rwgt>
</event>
<event>
 4      1 +1.9425900e-05 4.89685500e+02 7.81860800e-03 9.42316900e-02
        2 -1    0    0  501    0 +0.0000000000e+00 +0.0000000000e+00 +1.0648792416e+03 1.0648792416e+03 0.0000000000e+00 0.0000e+00 -1.0000e+00
       -2 -1    0    0    0  501 -0.0000000000e+00 -0.0000000000e+00 -5.6295551026e+01 5.6295551026e+01 0.0000000000e+00 0.0000e+00 1.0000e+00
      -13  1    1    2    0    0 +1.5961069149e+02 -1.5824699838e+02 +7.2663223746e+02 7.6059982504e+02 0.0000000000e+00 0.0000e+00 1.0000e+00
       13  1    1    2    0    0 -1.5961069149e+02 +1.5824699838e+02 +2.8195145309e+02 3.6057496757e+02 0.0000000000e+00 0.0000e+00 -1.0000e+00
<mgrwt>
<rscale>  0 0.48968547E+03</rscale>
<asrwt>0</asrwt>
<pdfrwt beam="1">  1        2 0.16382756E+00 0.48968547E+03</pdfrwt>
<pdfrwt beam="2">  1       -2 0.86608548E-02 0.48968547E+03</pdfrwt>
<totfact> 0.21759171E+03</totfact>
</mgrwt>
<rwgt>
<wgt id='morphing_basis_vector_1'> +3.0564362e-04 </wgt>
<wgt id='morphing_basis_vector_2'> +2.5443122e-04 </wgt>
<wgt id='morphing_basis_vector_3'> +1.7755627e-04 </wgt>
<wgt id='morphing_basis_vector_4'> +5.0944449e-05 </wgt>
<wgt id='morphing_basis_vector_5'> +8.8268522e-05 </wgt>
</rwgt>
</event>
<event>
 4      1 +1.9425900e-05 4.37201400e+02 7.81860800e-03 9.55252800e-02
        2 -1    0    0  501    0 +0.0000000000e+00 +0.0000000000e+00 +1.0012925860e+02 1.0012925860e+02 0.0000000000e+00 0.0000e+00 -1.0000e+00
       -2 -1    0    0    0  501 -0.0000000000e+00 -0.0000000000e+00 -4.7724567167e+02 4.7724567167e+02 0.0000000000e+00 0.0000e+00 1.0000e+00
      -13  1    1    2    0    0 +1.6025553681e+02 -1.4738045187e+02 -2.1441735093e+02 3.0557754343e+02 0.0000000000e+00 0.0000e+00 1.0000e+00
       13  1    1    2    0    0 -1.6025553681e+02 +1.4738045187e+02 -1.6269906214e+02 2.7179738684e+02 0.0000000000e+00 0.0000e+00 -1.0000e+00
<mgrwt>
<rscale>  0 0.43720135E+03</rscale>
<asrwt>0</asrwt>
<pdfrwt beam="1">  1        2 0.15404501E-01 0.43720135E+03</pdfrwt>
<pdfrwt beam="2">  1       -2 0.73422412E-01 0.43720135E+03</pdfrwt>
<totfact> 0.83626784E+02</totfact>
</mgrwt>
<rwgt>
<wgt id='morphing_basis_vector_1'> +2.0024554e-04 </wgt>
<wgt id='morphing_basis_vector_2'> +1.1945151e-04 </wgt>
<wgt id='morphing_basis_vector_3'> +1.2787227e-04 </wgt>
<wgt id='morphing_basis_vector_4'> +3.4263528e-05 </wgt>
<wgt id='morphing_basis_vector_5'> +4.2440308e-05 </wgt>
</rwgt>
</event>
<event>
 4      1 +1.9425900e-05 4.32919700e+02 7.81860800e-03 9.56391900e-02
        2 -1    0    0  501    0 +0.0000000000e+00 +0.0000000000e+00 +5.4230680023e+02 5.4230680023e+02 0.0000000000e+00 0.0000e+00 -1.0000e+00
       -2 -1    0    0    0  501 -0.0000000000e+00 -0.0000000000e+00 -8.6399182691e+01 8.6399182691e+01 0.0000000000e+00 0.0000e+00 1.0000e+00
      -13  1    1    2    0    0 +1.5132407408e+02 +8.0355897902e+01 +3.5846176362e+01 1.7504569142e+02 0.0000000000e+00 0.0000e+00 1.0000e+00
       13  1    1    2    0    0 -1.5132407408e+02 -8.0355897902e+01 +4.2006144117e+02 4.5366029150e+02 0.0000000000e+00 0.0000e+00 -1.0000e+00
<mgrwt>
<rscale>  0 0.43291969E+03</rscale>
<asrwt>0</asrwt>
<pdfrwt beam="1">  1        2 0.83431813E-01 0.43291969E+03</pdfrwt>
<pdfrwt beam="2">  1       -2 0.13292182E-01 0.43291969E+03</pdfrwt>
<totfact> 0.25932618E+03</totfact>
</mgrwt>
<rwgt>
<wgt id='morphing_basis_vector_1'> +1.9083720e-04 </wgt>
<wgt id='morphing_basis_vector_2'> +1.0381383e-04 </wgt>
<wgt id='morphing_basis_vector_3'> +1.2670601e-04 </wgt>
<wgt id='morphing_basis_vector_4'> +3.2999344e-05 </wgt>
<wgt id='morphing_basis_vector_5'> +3.9438354e-05 </wgt>
</rwgt>
</event>
<event>
 4      1 +1.9425900e-05 5.03679600e+02 7.81860800e-03 9.39157500e-02
        2 -1    0    0  501    0 +0.0000000000e+00 +0.0000000000e+00 +5.5299940218e+02 5.5299940218e+02 0.0000000000e+00 0.0000e+00 1.0000e+00
       -2 -1    0    0    0  501 -0.0000000000e+00 -0.0000000000e+00 -1.1468959050e+02 1.1468959050e+02 0.0000000000e+00 0.0000e+00 -1.0000e+00
      -13  1    1    2    0    0 -1.7617982698e+02 +1.6251639031e+02 +3.2160045901e+02 4.0109570403e+02 0.0000000000e+00 0.0000e+00 -1.0000e+00
       13  1    1    2    0    0 +1.7617982698e+02 -1.6251639031e+02 +1.1670935267e+02 2.6659328865e+02 0.0000000000e+00 0.0000e+00 1.0000e+00
<mgrwt>
<rscale>  0 0.50367956E+03</rscale>
<asrwt>0</asrwt>
<pdfrwt beam="1">  1        2 0.85076829E-01 0.50367956E+03</pdfrwt>
<pdfrwt beam="2">  1       -2 0.17644553E-01 0.50367956E+03</pdfrwt>
<totfact> 0.16107660E+03</totfact>
</mgrwt>
<rwgt>
<wgt id='morphing_basis_vector_1'> +3.2349934e-04 </wgt>
<wgt id='morphing_basis_vector_2'> +2.4948750e-04 </wgt>
<wgt id='morphing_basis_vector_3'> +2.0258318e-04 </wgt>
<wgt id='morphing_basis_vector_4'> +6.1359894e-05 </wgt>
<wgt id='morphing_basis_vector_5'> +1.0354029e-04 </wgt>
</rwgt>
</event>
<event>
 4      1 +1.9425900e-05 4.84419000e+02 7.81860800e-03 9.43535500e-02
        2 -1    0    0  501    0 +0.0000000000e+00 +0.0000000000e+00 +7.3134778238e+02 7.3134778238e+02 0.0000000000e+00 0.0000e+00 1.0000e+00
       -2 -1    0    0    0  501 -0.0000000000e+00 -0.0000000000e+00 -8.0215510941e+01 8.0215510941e+01 0.0000000000e+00 0.0000e+00 -1.0000e+00
      -13  1    1    2    0    0 -3.1441634227e+01 +1.6261573630e+02 +2.9486884322e+01 1.6823177584e+02 0.0000000000e+00 0.0000e+00 -1.0000e+00
       13  1    1    2    0    0 +3.1441634227e+01 -1.6261573630e+02 +6.2164538712e+02 6.4333151748e+02 0.0000000000e+00 0.0000e+00 1.0000e+00
<mgrwt>
<rscale>  0 0.48441898E+03</rscale>
<asrwt>0</asrwt>
<pdfrwt beam="1">  1        2 0.11251504E+00 0.48441898E+03</pdfrwt>
<pdfrwt beam="2">  1       -2 0.12340848E-01 0.48441898E+03</pdfrwt>
<totfact> 0.20559287E+03</totfact>
</mgrwt>
<rwgt>
<wgt id='morphing_basis_vector_1'> +2.6314464e-04 </wgt>
<wgt id='morphing_basis_vector_2'> +1.4423864e-04 </wgt>
<wgt id='morphing_basis_vector_3'> +1.8606814e-04 </wgt>
<wgt id='morphing_basis_vector_4'> +5.9569962e-05 </wgt>
<wgt id='morphing_basis_vector_5'> +8.1334090e-05 </wgt>
</rwgt>
</event>
<event>
 4      1 +1.9425900e-05 4.96888000e+02 7.81860800e-03 9.40676900e-02
        2 -1    0    0  501    0 +0.0000000000e+00 +0.0000000000e+00 +6.4347219785e+02 6.4347219785e+02 0.0000000000e+00 0.0000e+00 -1.0000e+00
       -2 -1    0    0    0  501 -0.0000000000e+00 -0.0000000000e+00 -9.5923971624e+01 9.5923971624e+01 0.0000000000e+00 0.0000e+00 1.0000e+00
      -13  1    1    2    0    0 +1.1732167572e+02 -1.2044232373e+02 +1.6038459361e+00 1.6814666592e+02 0.0000000000e+00 0.0000e+00 1.0000e+00
       13  1    1    2    0    0 -1.1732167572e+02 +1.2044232373e+02 +5.4594438029e+02 5.7124950355e+02 0.0000000000e+00 0.0000e+00 -1.0000e+00
<mgrwt>
<rscale>  0 0.49688795E+03</rscale>
<asrwt>0</asrwt>
<pdfrwt beam="1">  1        2 0.98995720E-01 0.49688795E+03</pdfrwt>
<pdfrwt beam="2">  1       -2 0.14757534E-01 0.49688795E+03</pdfrwt>
<totfact> 0.18030231E+03</totfact>
</mgrwt>
<rwgt>
<wgt id='morphing_basis_vector_1'> +2.8381984e-04 </wgt>
<wgt id='morphing_basis_vector_2'> +1.5614717e-04 </wgt>
<wgt id='morphing_basis_vector_3'> +2.0351539e-04 </wgt>
<wgt id='morphing_basis_vector_4'> +6.7981650e-05 </wgt>
<wgt id='morphing_basis_vector_5'> +9.4634284e-05 </wgt>
</rwgt>
</event>
<event>
 4      1 +1.9425900e-05 4.39503300e+02 7.81860800e-03 9.54646100e-02
        2 -1    0    0  501    0 +0.0000000000e+00 +0.0000000000e+00 +1.1442110888e+03 1.1442110888e+03 0.0000000000e+00 0.0000e+00 -1.0000e+00
       -2 -1    0    0    0  501 -0.0000000000e+00 -0.0000000000e+00 -4.2204435885e+01 4.2204435885e+01 0.0000000000e+00 0.0000e+00 1.0000e+00
      -13  1    1    2    0    0 -1.9652344180e+02 -9.1786169232e+01 +4.5576911291e+02 5.0474909442e+02 0.0000000000e+00 0.0000e+00 1.0000e+00
       13  1    1    2    0    0 +1.9652344180e+02 +9.1786169232e+01 +6.4623754005e+02 6.8166643031e+02 0.0000000000e+00 0.0000e+00 -1.0000e+00
<mgrwt>
<rscale>  0 0.43950328E+03</rscale>
<asrwt>0</asrwt>
<pdfrwt beam="1">  1        2 0.17603245E+00 0.43950328E+03</pdfrwt>
<pdfrwt beam="2">  1       -2 0.64929910E-02 0.43950328E+03</pdfrwt>
<totfact> 0.30432787E+03</totfact>
</mgrwt>
<rwgt>
<wgt id='morphing_basis_vector_1'> +2.0212373e-04 </wgt>
<wgt id='morphing_basis_vector_2'> +1.1792660e-04 </wgt>
<wgt id='morphing_basis_vector_3'> +1.3097530e-04 </wgt>
<wgt id='morphing_basis_vector_4'> +3.5321272e-05 </wgt>
<wgt id='morphing_basis_vector_5'> +4.3912419e-05 </wgt>
</rwgt>
</event>
<event>
 4      1 +1.9425900e-05 4.38076900e+02 7.81860800e-03 9.55021600e-02
        2 -1    0    0  501    0 +0.0000000000e+00 +0.0000000000e+00 +3.7362930734e+02 3.7362930734e+02 0.0000000000e+00 0.0000e+00 -1.0000e+00
       -2 -1    0    0    0  501 -0.0000000000e+00 -0.0000000000e+00 -1.2841026195e+02 1.2841026195e+02 0.0000000000e+00 0.0000e+00 1.0000e+00
      -13  1    1    2    0    0 -1.2021155754e+02 -1.1627683146e+01 -8.6805405057e+01 1.4873197346e+02 0.0000000000e+00 0.0000e+00 1.0000e+00
       13  1    1    2    0    0 +1.2021155754e+02 +1.1627683146e+01 +3.3202445044e+02 3.5330759583e+02 0.0000000000e+00 0.0000e+00 -1.0000e+00
<mgrwt>
<rscale>  0 0.43807688E+03</rscale>
<asrwt>0</asrwt>
<pdfrwt beam="1">  1        2 0.57481431E-01 0.43807688E+03</pdfrwt>
<pdfrwt beam="2">  1       -2 0.19755425E-01 0.43807688E+03</pdfrwt>
<totfact> 0.20761847E+03</totfact>
</mgrwt>
<rwgt>
<wgt id='morphing_basis_vector_1'> +1.9689450e-04 </wgt>
<wgt id='morphing_basis_vector_2'> +1.0634046e-04 </wgt>
<wgt id='morphing_basis_vector_3'> +1.3203076e-04 </wgt>
<wgt id='morphing_basis_vector_4'> +3.5155435e-05 </wgt>
<wgt id='morphing_basis_vector_5'> +4.2757620e-05 </wgt>
</rwgt>
</event>
<event>
 4      1 +1.9425900e-05 4.54861700e+02 7.81860800e-03 9.50695600e-02
        2 -1    0    0  501    0 +0.0000000000e+00 +0.0000000000e+00 +4.1631888606e+02 4.1631888606e+02 0.0000000000e+00 0.0000e+00 -1.0000e+00
       -2 -1    0    0    0  501 -0.0000000000e+00 -0.0000000000e+00 -1.2424318440e+02 1.2424318440e+02 0.0000000000e+00 0.0000e+00 1.0000e+00
      -13  1    1    2    0    0 -2.2550826563e+02 -1.2124038277e+01 +1.7801057992e+02 2.8755649312e+02 0.0000000000e+00 0.0000e+00 1.0000e+00
       13  1    1    2    0    0 +2.2550826563e+02 +1.2124038277e+01 +1.1406512174e+02 2.5300557735e+02 0.0000000000e+00 0.0000e+00 -1.0000e+00
<mgrwt>
<rscale>  0 0.45486167E+03</rscale>
<asrwt>0</asrwt>
<pdfrwt beam="1">  1        2 0.64049059E-01 0.45486167E+03</pdfrwt>
<pdfrwt beam="2">  1       -2 0.19114336E-01 0.45486167E+03</pdfrwt>
<totfact> 0.19438806E+03</totfact>
</mgrwt>
<rwgt>
<wgt id='morphing_basis_vector_1'> +2.2971887e-04 </wgt>
<wgt id='morphing_basis_vector_2'> +1.5193326e-04 </wgt>
<wgt id='morphing_basis_vector_3'> +1.4289029e-04 </wgt>
<wgt id='morphing_basis_vector_4'> +4.0703058e-05 </wgt>
<wgt id='morphing_basis_vector_5'> +5.5464333e-05 </wgt>
</rwgt>
</event>
<event>
 4      1 +1.9425900e-05 4.69072500e+02 7.81860800e-03 9.47183500e-02
        2 -1    0    0  501    0 +0.0000000000e+00 +0.0000000000e+00 +1.0968128020e+03 1.0968128020e+03 0.0000000000e+00 0.0000e+00 1.0000e+00
       -2 -1    0    0    0  501 -0.0000000000e+00 -0.0000000000e+00 -5.0151900911e+01 5.0151900911e+01 0.0000000000e+00 0.0000e+00 -1.0000e+00
      -13  1    1    2    0    0 +5.3061374538e+01 -2.0505069693e+02 +2.7703496934e+02 3.4872578341e+02 0.0000000000e+00 0.0000e+00 -1.0000e+00
       13  1    1    2    0    0 -5.3061374538e+01 +2.0505069693e+02 +7.6962593171e+02 7.9823891946e+02 0.0000000000e+00 0.0000e+00 1.0000e+00
<mgrwt>
<rscale>  0 0.46907248E+03</rscale>
<asrwt>0</asrwt>
<pdfrwt beam="1">  1        2 0.16874041E+00 0.46907248E+03</pdfrwt>
<pdfrwt beam="2">  1       -2 0.77156779E-02 0.46907248E+03</pdfrwt>
<totfact> 0.24902941E+03</totfact>
</mgrwt>
<rwgt>
<wgt id='morphing_basis_vector_1'> +2.4056680e-04 </wgt>
<wgt id='morphing_basis_vector_2'> +1.3416815e-04 </wgt>
<wgt id='morphing_basis_vector_3'> +1.6570501e-04 </wgt>
<wgt id='morphing_basis_vector_4'> +5.0042204e-05 </wgt>
<wgt id='morphing_basis_vector_5'> +6.6806315e-05 </wgt>
</rwgt>
</event>
<event>
 4      1 +1.9425900e-05 5.14408000e+02 7.81860800e-03 9.36809100e-02
        2 -1    0    0  501    0 +0.0000000000e+00 +0.0000000000e+00 +3.6824411683e+02 3.6824411683e+02 0.0000000000e+00 0.0000e+00 1.0000e+00
       -2 -1    0    0    0  501 -0.0000000000e+00 -0.0000000000e+00 -1.7964684784e+02 1.7964684784e+02 0.0000000000e+00 0.0000e+00 -1.0000e+00
      -13  1    1    2    0    0 -1.9771547368e+02 +1.5938164315e+02 +5.0903842064e+01 2.5900794938e+02 0.0000000000e+00 0.0000e+00 -1.0000e+00
       13  1    1    2    0    0 +1.9771547368e+02 -1.5938164315e+02 +1.3769342692e+02 2.8888301529e+02 0.0000000000e+00 0.0000e+00 1.0000e+00
<mgrwt>
<rscale>  0 0.51440799E+03</rscale>
<asrwt>0</asrwt>
<pdfrwt beam="1">  1        2 0.56652941E-01 0.51440799E+03</pdfrwt>
<pdfrwt beam="2">  1       -2 0.27637977E-01 0.51440799E+03</pdfrwt>
<totfact> 0.12003314E+03</totfact>
</mgrwt>
<rwgt>
<wgt id='morphing_basis_vector_1'> +3.2066825e-04 </wgt>
<wgt id='morphing_basis_vector_2'> +1.9149072e-04 </wgt>
<wgt id='morphing_basis_vector_3'> +2.2841904e-04 </wgt>
<wgt id='morphing_basis_vector_4'> +7.8744147e-05 </wgt>
<wgt id='morphing_basis_vector_5'> +1.1587185e-04 </wgt>
</rwgt>
</event>
<event>
 4      1 +1.9425900e-05 4.30704900e+02 7.81860800e-03 9.56986700e-02
        2 -1    0    0  501    0 +0.0000000000e+00 +0.0000000000e+00 +2.6844429245e+02 2.6844429245e+02 0.0000000000e+00 0.0000e+00 -1.0000e+00
       -2 -1    0    0    0  501 -0.0000000000e+00 -0.0000000000e+00 -1.7276088830e+02 1.7276088830e+02 0.0000000000e+00 0.0000e+00 1.0000e+00
      -13  1    1    2    0    0 +1.3587476419e+02 +1.3780755359e+02 -4.8927184921e+01 1.9961648929e+02 0.0000000000e+00 0.0000e+00 1.0000e+00
       13  1    1    2    0    0 -1.3587476419e+02 -1.3780755359e+02 +1.4461058907e+02 2.4158869146e+02 0.0000000000e+00 0.0000e+00 -1.0000e+00
<mgrwt>
<rscale>  0 0.43070488E+03</rscale>
<asrwt>0</asrwt>
<pdfrwt beam="1">  1        2 0.41299122E-01 0.43070488E+03</pdfrwt>
<pdfrwt beam="2">  1       -2 0.26578598E-01 0.43070488E+03</pdfrwt>
<totfact> 0.18233135E+03</totfact>
</mgrwt>
<rwgt>
<wgt id='morphing_basis_vector_1'> +1.8874959e-04 </wgt>
<wgt id='morphing_basis_vector_2'> +1.0417545e-04 </wgt>
<wgt id='morphing_basis_vector_3'> +1.2411243e-04 </wgt>
<wgt id='morphing_basis_vector_4'> +3.2072247e-05 </wgt>
<wgt id='morphing_basis_vector_5'> +3.8094093e-05 </wgt>
</rwgt>
</event>
<event>
 4      1 +1.9425900e-05 4.49639200e+02 7.81860800e-03 9.52020200e-02
        2 -1    0    0  501    0 +0.0000000000e+00 +0.0000000000e+00 +5.7202371915e+02 5.7202371915e+02 0.0000000000e+00 0.0000e+00 -1.0000e+00
       -2 -1    0    0    0  501 -0.0000000000e+00 -0.0000000000e+00 -8.8359702411e+01 8.8359702411e+01 0.0000000000e+00 0.0000e+00 1.0000e+00
      -13  1    1    2    0    0 -8.5559894899e+01 -1.1488855899e+02 -1.2655269877e+01 1.4380553695e+02 0.0000000000e+00 0.0000e+00 1.0000e+00
       13  1    1    2    0    0 +8.5559894899e+01 +1.1488855899e+02 +4.9631928661e+02 5.1657788461e+02 0.0000000000e+00 0.0000e+00 -1.0000e+00
<mgrwt>
<rscale>  0 0.44963917E+03</rscale>
<asrwt>0</asrwt>
<pdfrwt beam="1">  1        2 0.88003647E-01 0.44963917E+03</pdfrwt>
<pdfrwt beam="2">  1       -2 0.13593801E-01 0.44963917E+03</pdfrwt>
<totfact> 0.23556974E+03</totfact>
</mgrwt>
<rwgt>
<wgt id='morphing_basis_vector_1'> +2.1195692e-04 </wgt>
<wgt id='morphing_basis_vector_2'> +1.1492947e-04 </wgt>
<wgt id='morphing_basis_vector_3'> +1.4401343e-04 </wgt>
<wgt id='morphing_basis_vector_4'> +4.0315770e-05 </wgt>
<wgt id='morphing_basis_vector_5'> +5.0900534e-05 </wgt>
</rwgt>
</event>
<event>
 4      1 +1.9425900e-05 4.74483200e+02 7.81860800e-03 9.45880400e-02
        2 -1    0    0  501    0 +0.0000000000e+00 +0.0000000000e+00 +5.5597645383e+02 5.5597645383e+02 0.0000000000e+00 0.0000e+00 -1.0000e+00
       -2 -1    0    0    0  501 -0.0000000000e+00 -0.0000000000e+00 -1.0123375049e+02 1.0123375049e+02 0.0000000000e+00 0.0000e+00 1.0000e+00
      -13  1    1    2    0    0 -1.5387973368e+02 -1.0167345800e+02 +2.0683269312e+01 1.8559165425e+02 0.0000000000e+00 0.0000e+00 1.0000e+00
       13  1    1    2    0    0 +1.5387973368e+02 +1.0167345800e+02 +4.3405943402e+02 4.7161855006e+02 0.0000000000e+00 0.0000e+00 -1.0000e+00
<mgrwt>
<rscale>  0 0.47448322E+03</rscale>
<asrwt>0</asrwt>
<pdfrwt beam="1">  1        2 0.85534837E-01 0.47448322E+03</pdfrwt>
<pdfrwt beam="2">  1       -2 0.15574423E-01 0.47448322E+03</pdfrwt>
<totfact> 0.19589490E+03</totfact>
</mgrwt>
<rwgt>
<wgt id='morphing_basis_vector_1'> +2.4781965e-04 </wgt>
<wgt id='morphing_basis_vector_2'> +1.3605438e-04 </wgt>
<wgt id='morphing_basis_vector_3'> +1.7295801e-04 </wgt>
<wgt id='morphing_basis_vector_4'> +5.3390226e-05 </wgt>
<wgt id='morphing_basis_vector_5'> +7.1686173e-05 </wgt>
</rwgt>
</event>
<event>
 4      1 +1.9425900e-05 4.76640500e+02 7.81860800e-03 9.45366000e-02
        2 -1    0    0  501    0 +0.0000000000e+00 +0.0000000000e+00 +1.0898075590e+02 1.0898075590e+02 0.0000000000e+00 0.0000e+00 -1.0000e+00
       -2 -1    0    0    0  501 -0.0000000000e+00 -0.0000000000e+00 -5.2116126521e+02 5.2116126521e+02 0.0000000000e+00 0.0000e+00 1.0000e+00
      -13  1    1    2    0    0 -1.4713688824e+02 +1.2212187739e+02 -3.9414457761e+02 4.3807871996e+02 0.0000000000e+00 0.0000e+00 1.0000e+00
       13  1    1    2    0    0 +1.4713688824e+02 -1.2212187739e+02 -1.8035931700e+01 1.9206330115e+02 0.0000000000e+00 0.0000e+00 -1.0000e+00
<mgrwt>
<rscale>  0 0.47664053E+03</rscale>
<asrwt>0</asrwt>
<pdfrwt beam="1">  1        2 0.16766270E-01 0.47664053E+03</pdfrwt>
<pdfrwt beam="2">  1       -2 0.80178656E-01 0.47664053E+03</pdfrwt>
<totfact> 0.62151507E+02</totfact>
</mgrwt>
<rwgt>
<wgt id='morphing_basis_vector_1'> +2.5124140e-04 </wgt>
<wgt id='morphing_basis_vector_2'> +1.3829000e-04 </wgt>
<wgt id='morphing_basis_vector_3'> +1.7565365e-04 </wgt>
<wgt id='morphing_basis_vector_4'> +5.4638791e-05 </wgt>
<wgt id='morphing_basis_vector_5'> +7.3720032e-05 </wgt>
</rwgt>
</event>
<event>
 4      1 +1.9425900e-05 4.63977300e+02 7.81860800e-03 9.48427600e-02
        2 -1    0    0  501    0 +0.0000000000e+00 +0.0000000000e+00 +1.8096891627e+02 1.8096891627e+02 0.0000000000e+00 0.0000e+00 -1.0000e+00
       -2 -1    0    0    0  501 -0.0000000000e+00 -0.0000000000e+00 -2.9739208868e+02 2.9739208868e+02 0.0000000000e+00 0.0000e+00 1.0000e+00
      -13  1    1    2    0    0 -1.5529158019e+02 +1.0855170277e+02 -1.9622629560e+02 2.7277042754e+02 0.0000000000e+00 0.0000e+00 1.0000e+00
       13  1    1    2    0    0 +1.5529158019e+02 -1.0855170277e+02 +7.9803123193e+01 2.0559057742e+02 0.0000000000e+00 0.0000e+00 -1.0000e+00
<mgrwt>
<rscale>  0 0.46397726E+03</rscale>
<asrwt>0</asrwt>
<pdfrwt beam="1">  1        2 0.27841372E-01 0.46397726E+03</pdfrwt>
<pdfrwt beam="2">  1       -2 0.45752629E-01 0.46397726E+03</pdfrwt>
<totfact> 0.10756564E+03</totfact>
</mgrwt>
<rwgt>
<wgt id='morphing_basis_vector_1'> +2.3235758e-04 </wgt>
<wgt id='morphing_basis_vector_2'> +1.2760689e-04 </wgt>
<wgt id='morphing_basis_vector_3'> +1.5997967e-04 </wgt>
<wgt id='morphing_basis_vector_4'> +4.7445187e-05 </wgt>
<wgt id='morphing_basis_vector_5'> +6.2340758e-05 </wgt>
</rwgt>
</event>
<event>
 4      1 +1.9425900e-05 4.44234800e+02 7.81860800e-03 9.53411100e-02
        2 -1    0    0  501    0 +0.0000000000e+00 +0.0000000000e+00 +2.1146695073e+02 2.1146695073e+02 0.0000000000e+00 0.0000e+00 -1.0000e+00
       -2 -1    0    0    0  501 -0.0000000000e+00 -0.0000000000e+00 -2.3330425060e+02 2.3330425060e+02 0.0000000000e+00 0.0000e+00 1.0000e+00
      -13  1    1    2    0    0 -3.1750470502e+00 -1.4898943145e+02 +1.5398665637e+02 2.1428910832e+02 0.0000000000e+00 0.0000e+00 -1.0000e+00
       13  1    1    2    0    0 +3.1750470502e+00 +1.4898943145e+02 -1.7582395624e+02 2.3048209301e+02 0.0000000000e+00 0.0000e+00 1.0000e+00
<mgrwt>
<rscale>  0 0.44423480E+03</rscale>
<asrwt>0</asrwt>
<pdfrwt beam="1">  1        2 0.32533377E-01 0.44423480E+03</pdfrwt>
<pdfrwt beam="2">  1       -2 0.35892961E-01 0.44423480E+03</pdfrwt>
<totfact> 0.14093136E+03</totfact>
</mgrwt>
<rwgt>
<wgt id='morphing_basis_vector_1'> +2.6449000e-04 </wgt>
<wgt id='morphing_basis_vector_2'> +2.9517982e-04 </wgt>
<wgt id='morphing_basis_vector_3'> +9.6503264e-05 </wgt>
<wgt id='morphing_basis_vector_4'> +2.8821001e-05 </wgt>
<wgt id='morphing_basis_vector_5'> +5.0391894e-05 </wgt>
</rwgt>
</event>
<event>
 4      1 +1.9425900e-05 4.51299500e+02 7.81860800e-03 9.51597100e-02
        2 -1    0    0  501    0 +0.0000000000e+00 +0.0000000000e+00 +2.5703935082e+02 2.5703935082e+02 0.0000000000e+00 0.0000e+00 -1.0000e+00
       -2 -1    0    0    0  501 -0.0000000000e+00 -0.0000000000e+00 -1.9809344615e+02 1.9809344615e+02 0.0000000000e+00 0.0000e+00 1.0000e+00
      -13  1    1    2    0    0 +1.0151658565e+02 -1.6184779974e+02 -9.1619759226e+01 2.1188324078e+02 0.0000000000e+00 0.0000e+00 1.0000e+00
       13  1    1    2    0    0 -1.0151658565e+02 +1.6184779974e+02 +1.5056566390e+02 2.4324955619e+02 0.0000000000e+00 0.0000e+00 -1.0000e+00
<mgrwt>
<rscale>  0 0.45129950E+03</rscale>
<asrwt>0</asrwt>
<pdfrwt beam="1">  1        2 0.39544516E-01 0.45129950E+03</pdfrwt>
<pdfrwt beam="2">  1       -2 0.30475915E-01 0.45129950E+03</pdfrwt>
<totfact> 0.15114739E+03</totfact>
</mgrwt>
<rwgt>
<wgt id='morphing_basis_vector_1'> +2.1476473e-04 </wgt>
<wgt id='morphing_basis_vector_2'> +1.1796455e-04 </wgt>
<wgt id='morphing_basis_vector_3'> +1.4543617e-04 </wgt>
<wgt id='morphing_basis_vector_4'> +4.1000034e-05 </wgt>
<wgt id='morphing_basis_vector_5'> +5.2177715e-05 </wgt>
</rwgt>
</event>
<event>
 4      1 +1.9425900e-05 4.46384400e+02 7.81860800e-03 9.52855400e-02
        2 -1    0    0  501    0 +0.0000000000e+00 +0.0000000000e+00 +1.2720246686e+03 1.2720246686e+03 0.0000000000e+00 0.0000e+00 1.0000e+00
       -2 -1    0    0    0  501 -0.0000000000e+00 -0.0000000000e+00 -3.9161778355e+01 3.9161778355e+01 0.0000000000e+00 0.0000e+00 -1.0000e+00
      -13  1    1    2    0    0 -1.5159300426e+02 -1.3698781605e+02 +3.5258219982e+02 4.0750497950e+02 0.0000000000e+00 0.0000e+00 1.0000e+00
       13  1    1    2    0    0 +1.5159300426e+02 +1.3698781605e+02 +8.8028069043e+02 9.0368146746e+02 0.0000000000e+00 0.0000e+00 -1.0000e+00
<mgrwt>
<rscale>  0 0.44638436E+03</rscale>
<asrwt>0</asrwt>
<pdfrwt beam="1">  1        2 0.19569607E+00 0.44638436E+03</pdfrwt>
<pdfrwt beam="2">  1       -2 0.60248899E-02 0.44638436E+03</pdfrwt>
<totfact> 0.28864444E+03</totfact>
</mgrwt>
<rwgt>
<wgt id='morphing_basis_vector_1'> +2.0882589e-04 </wgt>
<wgt id='morphing_basis_vector_2'> +1.1617253e-04 </wgt>
<wgt id='morphing_basis_vector_3'> +1.3971629e-04 </wgt>
<wgt id='morphing_basis_vector_4'> +3.8611048e-05 </wgt>
<wgt id='morphing_basis_vector_5'> +4.8583034e-05 </wgt>
</rwgt>
</event>
<event>
 4      1 +1.9425900e-05 4.52072400e+02 7.81860800e-03 9.51400700e-02
        2 -1    0    0  501    0 +0.0000000000e+00 +0.0000000000e+00 +3.0834685783e+02 3.0834685783e+02 0.0000000000e+00 0.0000e+00 1.0000e+00
       -2 -1    0    0    0  501 -0.0000000000e+00 -0.0000000000e+00 -1.6569768231e+02 1.6569768231e+02 0.0000000000e+00 0.0000e+00 -1.0000e+00
      -13  1    1    2    0    0 -4.3068933664e+01 +2.1145019626e+02 +7.7734949950e-01 2.1579324089e+02 0.0000000000e+00 0.0000e+00 1.0000e+00
       13  1    1    2    0    0 +4.3068933664e+01 -2.1145019626e+02 +1.4187182602e+02 2.5825129924e+02 0.0000000000e+00 0.0000e+00 -1.0000e+00
<mgrwt>
<rscale>  0 0.45207238E+03</rscale>
<asrwt>0</asrwt>
<pdfrwt beam="1">  1        2 0.47437978E-01 0.45207238E+03</pdfrwt>
<pdfrwt beam="2">  1       -2 0.25491951E-01 0.45207238E+03</pdfrwt>
<totfact> 0.16788304E+03</totfact>
</mgrwt>
<rwgt>
<wgt id='morphing_basis_vector_1'> +2.1728355e-04 </wgt>
<wgt id='morphing_basis_vector_2'> +1.2310757e-04 </wgt>
<wgt id='morphing_basis_vector_3'> +1.4531580e-04 </wgt>
<wgt id='morphing_basis_vector_4'> +4.1093689e-05 </wgt>
<wgt id='morphing_basis_vector_5'> +5.2845168e-05 </wgt>
</rwgt>
</event>
<event>
 4      1 +1.9425900e-05 4.50582200e+02 7.81860800e-03 9.51779700e-02
        2 -1    0    0  501    0 +0.0000000000e+00 +0.0000000000e+00 +1.2259553004e+02 1.2259553004e+02 0.0000000000e+00 0.0000e+00 -1.0000e+00
       -2 -1    0    0    0  501 -0.0000000000e+00 -0.0000000000e+00 -4.1401243585e+02 4.1401243585e+02 0.0000000000e+00 0.0000e+00 1.0000e+00
      -13  1    1    2    0    0 +4.0397006497e+01 -2.1414052035e+02 -7.7627802524e+01 2.3133126964e+02 0.0000000000e+00 0.0000e+00 -1.0000e+00
       13  1    1    2    0    0 -4.0397006497e+01 +2.1414052035e+02 -2.1378910329e+02 3.0527669625e+02 0.0000000000e+00 0.0000e+00 1.0000e+00
<mgrwt>
<rscale>  0 0.45058217E+03</rscale>
<asrwt>0</asrwt>
<pdfrwt beam="1">  1        2 0.18860851E-01 0.45058217E+03</pdfrwt>
<pdfrwt beam="2">  1       -2 0.63694222E-01 0.45058217E+03</pdfrwt>
<totfact> 0.88338026E+02</totfact>
</mgrwt>
<rwgt>
<wgt id='morphing_basis_vector_1'> +2.2977289e-04 </wgt>
<wgt id='morphing_basis_vector_2'> +1.6680203e-04 </wgt>
<wgt id='morphing_basis_vector_3'> +1.3401351e-04 </wgt>
<wgt id='morphing_basis_vector_4'> +3.7772777e-05 </wgt>
<wgt id='morphing_basis_vector_5'> +5.2524027e-05 </wgt>
</rwgt>
</event>
<event>
 4      1 +1.9425900e-05 4.92237500e+02 7.81860800e-03 9.41732400e-02
        2 -1    0    0  501    0 +0.0000000000e+00 +0.0000000000e+00 +1.2915402523e+03 1.2915402523e+03 0.0000000000e+00 0.0000e+00 1.0000e+00
       -2 -1    0    0    0  501 -0.0000000000e+00 -0.0000000000e+00 -4.6900924900e+01 4.6900924900e+01 0.0000000000e+00 0.0000e+00 -1.0000e+00
      -13  1    1    2    0    0 +6.2971334759e+01 -2.2374150555e+02 +4.0227801714e+02 4.6460010050e+02 0.0000000000e+00 0.0000e+00 -1.0000e+00
       13  1    1    2    0    0 -6.2971334759e+01 +2.2374150555e+02 +8.4236131023e+02 8.7384107667e+02 0.0000000000e+00 0.0000e+00 1.0000e+00
<mgrwt>
<rscale>  0 0.49223747E+03</rscale>
<asrwt>0</asrwt>
<pdfrwt beam="1">  1        2 0.19869847E+00 0.49223747E+03</pdfrwt>
<pdfrwt beam="2">  1       -2 0.72155279E-02 0.49223747E+03</pdfrwt>
<totfact> 0.21364192E+03</totfact>
</mgrwt>
<rwgt>
<wgt id='morphing_basis_vector_1'> +2.7820603e-04 </wgt>
<wgt id='morphing_basis_vector_2'> +1.5859158e-04 </wgt>
<wgt id='morphing_basis_vector_3'> +1.9584029e-04 </wgt>
<wgt id='morphing_basis_vector_4'> +6.3919689e-05 </wgt>
<wgt id='morphing_basis_vector_5'> +8.9612522e-05 </wgt>
</rwgt>
</event>
<event>
 4      1 +1.9425900e-05 5.00706500e+02 7.81860800e-03 9.39819400e-02
        2 -1    0    0  501    0 +0.0000000000e+00 +0.0000000000e+00 +1.1624546641e+02 1.1624546641e+02 0.0000000000e+00 0.0000e+00 -1.0000e+00
       -2 -1    0    0    0  501 -0.0000000000e+00 -0.0000000000e+00 -5.3917576521e+02 5.3917576521e+02 0.0000000000e+00 0.0000e+00 1.0000e+00
      -13  1    1    2    0    0 -1.4507072403e+02 -1.5009650318e+02 -3.9238229499e+02 4.4445285538e+02 0.0000000000e+00 0.0000e+00 1.0000e+00
       13  1    1    2    0    0 +1.4507072403e+02 +1.5009650318e+02 -3.0548003818e+01 2.1096837624e+02 0.0000000000e+00 0.0000e+00 -1.0000e+00
<mgrwt>
<rscale>  0 0.50070645E+03</rscale>
<asrwt>0</asrwt>
<pdfrwt beam="1">  1        2 0.17883918E-01 0.50070645E+03</pdfrwt>
<pdfrwt beam="2">  1       -2 0.82950118E-01 0.50070645E+03</pdfrwt>
<totfact> 0.53232604E+02</totfact>
</mgrwt>
<rwgt>
<wgt id='morphing_basis_vector_1'> +2.9104900e-04 </wgt>
<wgt id='morphing_basis_vector_2'> +1.6192795e-04 </wgt>
<wgt id='morphing_basis_vector_3'> +2.0886521e-04 </wgt>
<wgt id='morphing_basis_vector_4'> +7.0474400e-05 </wgt>
<wgt id='morphing_basis_vector_5'> +9.9005669e-05 </wgt>
</rwgt>
</event>
<event>
 4      1 +1.9425900e-05 5.17321600e+02 7.81860800e-03 9.36181900e-02
        2 -1    0    0  501    0 +0.0000000000e+00 +0.0000000000e+00 +7.5977053094e+02 7.5977053094e+02 0.0000000000e+00 0.0000e+00 -1.0000e+00
       -2 -1    0    0    0  501 -0.0000000000e+00 -0.0000000000e+00 -8.8060028267e+01 8.8060028267e+01 0.0000000000e+00 0.0000e+00 1.0000e+00
      -13  1    1    2    0    0 +1.7686310745e+02 +4.8969505006e+01 +3.7115524741e+01 1.8723283198e+02 0.0000000000e+00 0.0000e+00 1.0000e+00
       13  1    1    2    0    0 -1.7686310745e+02 -4.8969505006e+01 +6.3459497794e+02 6.6059772723e+02 0.0000000000e+00 0.0000e+00 -1.0000e+00
<mgrwt>
<rscale>  0 0.51732162E+03</rscale>
<asrwt>0</asrwt>
<pdfrwt beam="1">  1        2 0.11688777E+00 0.51732162E+03</pdfrwt>
<pdfrwt beam="2">  1       -2 0.13547697E-01 0.51732162E+03</pdfrwt>
<totfact> 0.16915331E+03</totfact>
</mgrwt>
<rwgt>
<wgt id='morphing_basis_vector_1'> +3.2072593e-04 </wgt>
<wgt id='morphing_basis_vector_2'> +1.7785575e-04 </wgt>
<wgt id='morphing_basis_vector_3'> +2.3500967e-04 </wgt>
<wgt id='morphing_basis_vector_4'> +8.3619677e-05 </wgt>
<wgt id='morphing_basis_vector_5'> +1.1946040e-04 </wgt>
</rwgt>
</event>
<event>
 4      1 +1.9425900e-05 4.77068600e+02 7.81860800e-03 9.45264300e-02
        2 -1    0    0  501    0 +0.0000000000e+00 +0.0000000000e+00 +4.0229456367e+02 4.0229456367e+02 0.0000000000e+00 0.0000e+00 -1.0000e+00
       -2 -1    0    0    0  501 -0.0000000000e+00 -0.0000000000e+00 -1.4143522180e+02 1.4143522180e+02 0.0000000000e+00 0.0000e+00 1.0000e+00
      -13  1    1    2    0    0 -3.6454672824e+01 +1.6481615442e+02 -6.1659130917e+01 1.7970853167e+02 0.0000000000e+00 0.0000e+00 1.0000e+00
       13  1    1    2    0    0 +3.6454672824e+01 -1.6481615442e+02 +3.2251847279e+02 3.6402125380e+02 0.0000000000e+00 0.0000e+00 -1.0000e+00
<mgrwt>
<rscale>  0 0.47706864E+03</rscale>
<asrwt>0</asrwt>
<pdfrwt beam="1">  1        2 0.61891471E-01 0.47706864E+03</pdfrwt>
<pdfrwt beam="2">  1       -2 0.21759265E-01 0.47706864E+03</pdfrwt>
<totfact> 0.16304242E+03</totfact>
</mgrwt>
<rwgt>
<wgt id='morphing_basis_vector_1'> +2.5159795e-04 </wgt>
<wgt id='morphing_basis_vector_2'> +1.3772307e-04 </wgt>
<wgt id='morphing_basis_vector_3'> +1.7636558e-04 </wgt>
<wgt id='morphing_basis_vector_4'> +5.4987488e-05 </wgt>
<wgt id='morphing_basis_vector_5'> +7.4112495e-05 </wgt>
</rwgt>
</event>
<event>
 4      1 +1.9425900e-05 4.43988400e+02 7.81860800e-03 9.53475000e-02
        2 -1    0    0  501    0 +0.0000000000e+00 +0.0000000000e+00 +3.1065740453e+02 3.1065740453e+02 0.0000000000e+00 0.0000e+00 -1.0000e+00
       -2 -1    0    0    0  501 -0.0000000000e+00 -0.0000000000e+00 -1.5863592354e+02 1.5863592354e+02 0.0000000000e+00 0.0000e+00 1.0000e+00
      -13  1    1    2    0    0 +1.6485675092e+02 +1.3899831640e+02 +2.0248451066e+01 2.1658319431e+02 0.0000000000e+00 0.0000e+00 1.0000e+00
       13  1    1    2    0    0 -1.6485675092e+02 -1.3899831640e+02 +1.3177302992e+02 2.5271013375e+02 0.0000000000e+00 0.0000e+00 -1.0000e+00
<mgrwt>
<rscale>  0 0.44398840E+03</rscale>
<asrwt>0</asrwt>
<pdfrwt beam="1">  1        2 0.47793447E-01 0.44398840E+03</pdfrwt>
<pdfrwt beam="2">  1       -2 0.24405527E-01 0.44398840E+03</pdfrwt>
<totfact> 0.17922697E+03</totfact>
</mgrwt>
<rwgt>
<wgt id='morphing_basis_vector_1'> +2.0703002e-04 </wgt>
<wgt id='morphing_basis_vector_2'> +1.1853857e-04 </wgt>
<wgt id='morphing_basis_vector_3'> +1.3625050e-04 </wgt>
<wgt id='morphing_basis_vector_4'> +3.7340035e-05 </wgt>
<wgt id='morphing_basis_vector_5'> +4.6951976e-05 </wgt>
</rwgt>
</event>
<event>
 4      1 +1.9425900e-05 4.45495900e+02 7.81860800e-03 9.53084700e-02
        2 -1    0    0  501    0 +0.0000000000e+00 +0.0000000000e+00 +1.2753646538e+02 1.2753646538e+02 0.0000000000e+00 0.0000e+00 -1.0000e+00
       -2 -1    0    0    0  501 -0.0000000000e+00 -0.0000000000e+00 -3.8903886640e+02 3.8903886640e+02 0.0000000000e+00 0.0000e+00 1.0000e+00
      -13  1    1    2    0    0 -6.2511861534e+01 +2.1021986698e+02 -1.7590700349e+02 2.8114657953e+02 0.0000000000e+00 0.0000e+00 1.0000e+00
       13  1    1    2    0    0 +6.2511861534e+01 -2.1021986698e+02 -8.5595397532e+01 2.3542875225e+02 0.0000000000e+00 0.0000e+00 -1.0000e+00
<mgrwt>
<rscale>  0 0.44549587E+03</rscale>
<asrwt>0</asrwt>
<pdfrwt beam="1">  1        2 0.19620995E-01 0.44549587E+03</pdfrwt>
<pdfrwt beam="2">  1       -2 0.59852131E-01 0.44549587E+03</pdfrwt>
<totfact> 0.95673251E+02</totfact>
</mgrwt>
<rwgt>
<wgt id='morphing_basis_vector_1'> +2.0978627e-04 </wgt>
<wgt id='morphing_basis_vector_2'> +1.2208546e-04 </wgt>
<wgt id='morphing_basis_vector_3'> +1.3729957e-04 </wgt>
<wgt id='morphing_basis_vector_4'> +3.7877376e-05 </wgt>
<wgt id='morphing_basis_vector_5'> +4.8066070e-05 </wgt>
</rwgt>
</event>
<event>
 4      1 +1.9425900e-05 4.95583800e+02 7.81860800e-03 9.40971600e-02
        2 -1    0    0  501    0 +0.0000000000e+00 +0.0000000000e+00 +1.7141564589e+02 1.7141564589e+02 0.0000000000e+00 0.0000e+00 1.0000e+00
       -2 -1    0    0    0  501 -0.0000000000e+00 -0.0000000000e+00 -3.5819856261e+02 3.5819856261e+02 0.0000000000e+00 0.0000e+00 -1.0000e+00
      -13  1    1    2    0    0 -2.1554713558e+02 -1.1138876532e+02 -3.9608576463e+01 2.4583910191e+02 0.0000000000e+00 0.0000e+00 1.0000e+00
       13  1    1    2    0    0 +2.1554713558e+02 +1.1138876532e+02 -1.4717434025e+02 2.8377510660e+02 0.0000000000e+00 0.0000e+00 -1.0000e+00
<mgrwt>
<rscale>  0 0.49558385E+03</rscale>
<asrwt>0</asrwt>
<pdfrwt beam="1">  1        2 0.26371638E-01 0.49558385E+03</pdfrwt>
<pdfrwt beam="2">  1       -2 0.55107470E-01 0.49558385E+03</pdfrwt>
<totfact> 0.79791127E+02</totfact>
</mgrwt>
<rwgt>
<wgt id='morphing_basis_vector_1'> +3.0027034e-04 </wgt>
<wgt id='morphing_basis_vector_2'> +2.1282301e-04 </wgt>
<wgt id='morphing_basis_vector_3'> +1.9352049e-04 </wgt>
<wgt id='morphing_basis_vector_4'> +5.9944594e-05 </wgt>
<wgt id='morphing_basis_vector_5'> +9.3958175e-05 </wgt>
</rwgt>
</event>
<event>
 4      1 +1.9425900e-05 4.57048200e+02 7.81860800e-03 9.50146500e-02
        2 -1    0    0  501    0 +0.0000000000e+00 +0.0000000000e+00 +3.3915781603e+02 3.3915781603e+02 0.0000000000e+00 0.0000e+00 1.0000e+00
       -2 -1    0    0    0  501 -0.0000000000e+00 -0.0000000000e+00 -1.5397921285e+02 1.5397921285e+02 0.0000000000e+00 0.0000e+00 -1.0000e+00
      -13  1    1    2    0    0 +8.4862175589e+01 +1.2128887235e+02 -9.5257348163e+01 1.7602994569e+02 0.0000000000e+00 0.0000e+00 -1.0000e+00
       13  1    1    2    0    0 -8.4862175589e+01 -1.2128887235e+02 +2.8043595134e+02 3.1710708318e+02 0.0000000000e+00 0.0000e+00 1.0000e+00
<mgrwt>
<rscale>  0 0.45704815E+03</rscale>
<asrwt>0</asrwt>
<pdfrwt beam="1">  1        2 0.52178125E-01 0.45704815E+03</pdfrwt>
<pdfrwt beam="2">  1       -2 0.23689110E-01 0.45704815E+03</pdfrwt>
<totfact> 0.17101572E+03</totfact>
</mgrwt>
<rwgt>
<wgt id='morphing_basis_vector_1'> +2.2208608e-04 </wgt>
<wgt id='morphing_basis_vector_2'> +1.2067113e-04 </wgt>
<wgt id='morphing_basis_vector_3'> +1.5220766e-04 </wgt>
<wgt id='morphing_basis_vector_4'> +4.3935434e-05 </wgt>
<wgt id='morphing_basis_vector_5'> +5.6611763e-05 </wgt>
</rwgt>
</event>
<event>
 4      1 +1.9425900e-05 5.06620000e+02 7.81860800e-03 9.38507700e-02
        2 -1    0    0  501    0 +0.0000000000e+00 +0.0000000000e+00 +1.6206291757e+03 1.6206291757e+03 0.0000000000e+00 0.0000e+00 1.0000e+00
       -2 -1    0    0    0  501 -0.0000000000e+00 -0.0000000000e+00 -3.9593233619e+01 3.9593233619e+01 0.0000000000e+00 0.0000e+00 -1.0000e+00
      -13  1    1    2    0    0 +2.3028027390e+02 +1.0425025559e+02 +8.4424863430e+02 8.8127911405e+02 0.0000000000e+00 0.0000e+00 -1.0000e+00
       13  1    1    2    0    0 -2.3028027390e+02 -1.0425025559e+02 +7.3678730777e+02 7.7894329526e+02 0.0000000000e+00 0.0000e+00 1.0000e+00
<mgrwt>
<rscale>  0 0.50661997E+03</rscale>
<asrwt>0</asrwt>
<pdfrwt beam="1">  1        2 0.24932751E+00 0.50661997E+03</pdfrwt>
<pdfrwt beam="2">  1       -2 0.60912680E-02 0.50661997E+03</pdfrwt>
<totfact> 0.18270681E+03</totfact>
</mgrwt>
<rwgt>
<wgt id='morphing_basis_vector_1'> +3.1319492e-04 </wgt>
<wgt id='morphing_basis_vector_2'> +2.0426322e-04 </wgt>
<wgt id='morphing_basis_vector_3'> +2.1337805e-04 </wgt>
<wgt id='morphing_basis_vector_4'> +6.9887004e-05 </wgt>
<wgt id='morphing_basis_vector_5'> +1.0643915e-04 </wgt>
</rwgt>
</event>
<event>
 4      1 +1.9425900e-05 4.72650100e+02 7.81860800e-03 9.46319800e-02
        2 -1    0    0  501    0 +0.0000000000e+00 +0.0000000000e+00 +3.8266241142e+02 3.8266241142e+02 0.0000000000e+00 0.0000e+00 -1.0000e+00
       -2 -1    0    0    0  501 -0.0000000000e+00 -0.0000000000e+00 -1.4594985793e+02 1.4594985793e+02 0.0000000000e+00 0.0000e+00 1.0000e+00
      -13  1    1    2    0    0 +5.2271725130e+01 +1.5719969912e+02 -7.0138061073e+01 1.7989837760e+02 0.0000000000e+00 0.0000e+00 1.0000e+00
       13  1    1    2    0    0 -5.2271725130e+01 -1.5719969912e+02 +3.0685061456e+02 3.4871389176e+02 0.0000000000e+00 0.0000e+00 -1.0000e+00
<mgrwt>
<rscale>  0 0.47265008E+03</rscale>
<asrwt>0</asrwt>
<pdfrwt beam="1">  1        2 0.58871140E-01 0.47265008E+03</pdfrwt>
<pdfrwt beam="2">  1       -2 0.22453824E-01 0.47265008E+03</pdfrwt>
<totfact> 0.16359115E+03</totfact>
</mgrwt>
<rwgt>
<wgt id='morphing_basis_vector_1'> +2.4482320e-04 </wgt>
<wgt id='morphing_basis_vector_2'> +1.3380804e-04 </wgt>
<wgt id='morphing_basis_vector_3'> +1.7076301e-04 </wgt>
<wgt id='morphing_basis_vector_4'> +5.2379200e-05 </wgt>
<wgt id='morphing_basis_vector_5'> +6.9981368e-05 </wgt>
</rwgt>
</event>
<event>
 4      1 +1.9425900e-05 4.81745900e+02 7.81860800e-03 9.44160300e-02
        2 -1    0    0  501    0 +0.0000000000e+00 +0.0000000000e+00 +1.0122351650e+03 1.0122351650e+03 0.0000000000e+00 0.0000e+00 1.0000e+00
       -2 -1    0    0    0  501 -0.0000000000e+00 -0.0000000000e+00 -5.7318469522e+01 5.7318469522e+01 0.0000000000e+00 0.0000e+00 -1.0000e+00
      -13  1    1    2    0    0 -1.3900236713e+02 -1.2095108003e+02 +8.2189798964e+02 8.4229871614e+02 0.0000000000e+00 0.0000e+00 1.0000e+00
       13  1    1    2    0    0 +1.3900236713e+02 +1.2095108003e+02 +1.3301870582e+02 2.2725491837e+02 0.0000000000e+00 0.0000e+00 -1.0000e+00
<mgrwt>
<rscale>  0 0.48174587E+03</rscale>
<asrwt>0</asrwt>
<pdfrwt beam="1">  1        2 0.15572847E+00 0.48174587E+03</pdfrwt>
<pdfrwt beam="2">  1       -2 0.88182268E-02 0.48174587E+03</pdfrwt>
<totfact> 0.22756251E+03</totfact>
</mgrwt>
<rwgt>
<wgt id='morphing_basis_vector_1'> +3.2184609e-04 </wgt>
<wgt id='morphing_basis_vector_2'> +3.3706311e-04 </wgt>
<wgt id='morphing_basis_vector_3'> +1.5080557e-04 </wgt>
<wgt id='morphing_basis_vector_4'> +3.7632348e-05 </wgt>
<wgt id='morphing_basis_vector_5'> +8.1566239e-05 </wgt>
</rwgt>
</event>
<event>
 4      1 +1.9425900e-05 4.51515900e+02 7.81860800e-03 9.51542000e-02
        2 -1    0    0  501    0 +0.0000000000e+00 +0.0000000000e+00 +7.8190359862e+02 7.8190359862e+02 0.0000000000e+00 0.0000e+00 1.0000e+00
       -2 -1    0    0    0  501 -0.0000000000e+00 -0.0000000000e+00 -6.5182794832e+01 6.5182794832e+01 0.0000000000e+00 0.0000e+00 -1.0000e+00
      -13  1    1    2    0    0 +1.0688718627e+02 -1.6509863302e+02 +1.5042490644e+02 2.4760872701e+02 0.0000000000e+00 0.0000e+00 -1.0000e+00
       13  1    1    2    0    0 -1.0688718627e+02 +1.6509863302e+02 +5.6629589735e+02 5.9947766645e+02 0.0000000000e+00 0.0000e+00 1.0000e+00
<mgrwt>
<rscale>  0 0.45151594E+03</rscale>
<asrwt>0</asrwt>
<pdfrwt beam="1">  1        2 0.12029286E+00 0.45151594E+03</pdfrwt>
<pdfrwt beam="2">  1       -2 0.10028123E-01 0.45151594E+03</pdfrwt>
<totfact> 0.26201699E+03</totfact>
</mgrwt>
<rwgt>
<wgt id='morphing_basis_vector_1'> +2.1523201e-04 </wgt>
<wgt id='morphing_basis_vector_2'> +1.1866969e-04 </wgt>
<wgt id='morphing_basis_vector_3'> +1.4555789e-04 </wgt>
<wgt id='morphing_basis_vector_4'> +4.1071027e-05 </wgt>
<wgt id='morphing_basis_vector_5'> +5.2351130e-05 </wgt>
</rwgt>
</event>
<event>
 4      1 +1.9425900e-05 4.36005700e+02 7.81860800e-03 9.55569500e-02
        2 -1    0    0  501    0 +0.0000000000e+00 +0.0000000000e+00 +1.5522770900e+03 1.5522770900e+03 0.0000000000e+00 0.0000e+00 1.0000e+00
       -2 -1    0    0    0  501 -0.0000000000e+00 -0.0000000000e+00 -3.0616473650e+01 3.0616473650e+01 0.0000000000e+00 0.0000e+00 -1.0000e+00
      -13  1    1    2    0    0 -1.7053009010e+02 +1.1288656145e+02 +4.8670516898e+02 5.2792595021e+02 0.0000000000e+00 0.0000e+00 -1.0000e+00
       13  1    1    2    0    0 +1.7053009010e+02 -1.1288656145e+02 +1.0349554474e+03 1.0549676135e+03 0.0000000000e+00 0.0000e+00 1.0000e+00
<mgrwt>
<rscale>  0 0.43600574E+03</rscale>
<asrwt>0</asrwt>
<pdfrwt beam="1">  1        2 0.23881180E+00 0.43600574E+03</pdfrwt>
<pdfrwt beam="2">  1       -2 0.47102279E-02 0.43600574E+03</pdfrwt>
<totfact> 0.29407136E+03</totfact>
</mgrwt>
<rwgt>
<wgt id='morphing_basis_vector_1'> +1.9582601e-04 </wgt>
<wgt id='morphing_basis_vector_2'> +1.0958629e-04 </wgt>
<wgt id='morphing_basis_vector_3'> +1.2884083e-04 </wgt>
<wgt id='morphing_basis_vector_4'> +3.4119101e-05 </wgt>
<wgt id='morphing_basis_vector_5'> +4.1485426e-05 </wgt>
</rwgt>
</event>
<event>
 4      1 +1.9425900e-05 4.44449600e+02 7.81860800e-03 9.53355500e-02
        2 -1    0    0  501    0 +0.0000000000e+00 +0.0000000000e+00 +2.7485031437e+02 2.7485031437e+02 0.0000000000e+00 0.0000e+00 -1.0000e+00
       -2 -1    0    0    0  501 -0.0000000000e+00 -0.0000000000e+00 -1.7967544727e+02 1.7967544727e+02 0.0000000000e+00 0.0000e+00 1.0000e+00
      -13  1    1    2    0    0 +2.2197226467e+02 +3.8781639673e-01 +5.8411164447e+01 2.2952930274e+02 0.0000000000e+00 0.0000e+00 1.0000e+00
       13  1    1    2    0    0 -2.2197226467e+02 -3.8781639673e-01 +3.6763702656e+01 2.2499645890e+02 0.0000000000e+00 0.0000e+00 -1.0000e+00
<mgrwt>
<rscale>  0 0.44444956E+03</rscale>
<asrwt>0</asrwt>
<pdfrwt beam="1">  1        2 0.42284664E-01 0.44444956E+03</pdfrwt>
<pdfrwt beam="2">  1       -2 0.27642376E-01 0.44444956E+03</pdfrwt>
<totfact> 0.16608353E+03</totfact>
</mgrwt>
<rwgt>
<wgt id='morphing_basis_vector_1'> +2.1282224e-04 </wgt>
<wgt id='morphing_basis_vector_2'> +1.3491201e-04 </wgt>
<wgt id='morphing_basis_vector_3'> +1.3310782e-04 </wgt>
<wgt id='morphing_basis_vector_4'> +3.6752136e-05 </wgt>
<wgt id='morphing_basis_vector_5'> +4.7573922e-05 </wgt>
</rwgt>
</event>
<event>
 4      1 +1.9425900e-05 4.98377900e+02 7.81860800e-03 9.40341300e-02
        2 -1    0    0  501    0 +0.0000000000e+00 +0.0000000000e+00 +5.6684244164e+02 5.6684244164e+02 0.0000000000e+00 0.0000e+00 1.0000e+00
       -2 -1    0    0    0  501 -0.0000000000e+00 -0.0000000000e+00 -1.0954564483e+02 1.0954564483e+02 0.0000000000e+00 0.0000e+00 -1.0000e+00
      -13  1    1    2    0    0 -1.8095224967e+02 -3.9381843711e+01 +2.3594625285e+00 1.8520316773e+02 0.0000000000e+00 0.0000e+00 -1.0000e+00
       13  1    1    2    0    0 +1.8095224967e+02 +3.9381843711e+01 +4.5493733428e+02 4.9118491874e+02 0.0000000000e+00 0.0000e+00 1.0000e+00
<mgrwt>
<rscale>  0 0.49837785E+03</rscale>
<asrwt>0</asrwt>
<pdfrwt beam="1">  1        2 0.87206527E-01 0.49837785E+03</pdfrwt>
<pdfrwt beam="2">  1       -2 0.16853177E-01 0.49837785E+03</pdfrwt>
<totfact> 0.16870666E+03</totfact>
</mgrwt>
<rwgt>
<wgt id='morphing_basis_vector_1'> +2.8654770e-04 </wgt>
<wgt id='morphing_basis_vector_2'> +1.5815155e-04 </wgt>
<wgt id='morphing_basis_vector_3'> +2.0561759e-04 </wgt>
<wgt id='morphing_basis_vector_4'> +6.8977479e-05 </wgt>
<wgt id='morphing_basis_vector_5'> +9.6321380e-05 </wgt>
</rwgt>
</event>
<event>
 4      1 +1.9425900e-05 4.39653500e+02 7.81860800e-03 9.54606600e-02
        2 -1    0    0  501    0 +0.0000000000e+00 +0.0000000000e+00 +6.8518187192e+02 6.8518187192e+02 0.0000000000e+00 0.0000e+00 1.0000e+00
       -2 -1    0    0    0  501 -0.0000000000e+00 -0.0000000000e+00 -7.0526959114e+01 7.0526959114e+01 0.0000000000e+00 0.0000e+00 -1.0000e+00
      -13  1    1    2    0    0 +1.9629881984e+02 -5.4126110165e-01 +1.3725208870e+02 2.3952380985e+02 0.0000000000e+00 0.0000e+00 -1.0000e+00
       13  1    1    2    0    0 -1.9629881984e+02 +5.4126110165e-01 +4.7740282410e+02 5.1618502118e+02 0.0000000000e+00 0.0000e+00 1.0000e+00
<mgrwt>
<rscale>  0 0.43965347E+03</rscale>
<asrwt>0</asrwt>
<pdfrwt beam="1">  1        2 0.10541259E+00 0.43965347E+03</pdfrwt>
<pdfrwt beam="2">  1       -2 0.10850302E-01 0.43965347E+03</pdfrwt>
<totfact> 0.27209334E+03</totfact>
</mgrwt>
<rwgt>
<wgt id='morphing_basis_vector_1'> +1.9982199e-04 </wgt>
<wgt id='morphing_basis_vector_2'> +1.1034282e-04 </wgt>
<wgt id='morphing_basis_vector_3'> +1.3293676e-04 </wgt>
<wgt id='morphing_basis_vector_4'> +3.5705554e-05 </wgt>
<wgt id='morphing_basis_vector_5'> +4.3868331e-05 </wgt>
</rwgt>
</event>
<event>
 4      1 +1.9425900e-05 4.77734000e+02 7.81860800e-03 9.45106400e-02
        2 -1    0    0  501    0 +0.0000000000e+00 +0.0000000000e+00 +1.3428976074e+03 1.3428976074e+03 0.0000000000e+00 0.0000e+00 -1.0000e+00
       -2 -1    0    0    0  501 -0.0000000000e+00 -0.0000000000e+00 -4.2488306683e+01 4.2488306683e+01 0.0000000000e+00 0.0000e+00 1.0000e+00
      -13  1    1    2    0    0 -2.3211071482e+02 -2.8876638760e+01 +5.0968008141e+02 5.6078786505e+02 0.0000000000e+00 0.0000e+00 1.0000e+00
       13  1    1    2    0    0 +2.3211071482e+02 +2.8876638760e+01 +7.9072921929e+02 8.2459804902e+02 0.0000000000e+00 0.0000e+00 -1.0000e+00
<mgrwt>
<rscale>  0 0.47773401E+03</rscale>
<asrwt>0</asrwt>
<pdfrwt beam="1">  1        2 0.20659960E+00 0.47773401E+03</pdfrwt>
<pdfrwt beam="2">  1       -2 0.65366636E-02 0.47773401E+03</pdfrwt>
<totfact> 0.23275812E+03</totfact>
</mgrwt>
<rwgt>
<wgt id='morphing_basis_vector_1'> +2.5618328e-04 </wgt>
<wgt id='morphing_basis_vector_2'> +1.4933247e-04 </wgt>
<wgt id='morphing_basis_vector_3'> +1.7536267e-04 </wgt>
<wgt id='morphing_basis_vector_4'> +5.4309565e-05 </wgt>
<wgt id='morphing_basis_vector_5'> +7.4916956e-05 </wgt>
</rwgt>
</event>
<event>
 4      1 +1.9425900e-05 5.00480500e+02 7.81860800e-03 9.39870000e-02
        2 -1    0    0  501    0 +0.0000000000e+00 +0.0000000000e+00 +7.1911654779e+02 7.1911654779e+02 0.0000000000e+00 0.0000e+00 -1.0000e+00
       -2 -1    0    0    0  501 -0.0000000000e+00 -0.0000000000e+00 -8.7079311248e+01 8.7079311248e+01 0.0000000000e+00 0.0000e+00 1.0000e+00
      -13  1    1    2    0    0 +7.1139345661e+01 +2.1308593311e+02 +1.3843265965e+02 2.6387501331e+02 0.0000000000e+00 0.0000e+00 1.0000e+00
       13  1    1    2    0    0 -7.1139345661e+01 -2.1308593311e+02 +4.9360457689e+02 5.4232084574e+02 0.0000000000e+00 0.0000e+00 -1.0000e+00
<mgrwt>
<rscale>  0 0.50048046E+03</rscale>
<asrwt>0</asrwt>
<pdfrwt beam="1">  1        2 0.11063331E+00 0.50048046E+03</pdfrwt>
<pdfrwt beam="2">  1       -2 0.13396818E-01 0.50048046E+03</pdfrwt>
<totfact> 0.18423259E+03</totfact>
</mgrwt>
<rwgt>
<wgt id='morphing_basis_vector_1'> +2.9134907e-04 </wgt>
<wgt id='morphing_basis_vector_2'> +1.6385421e-04 </wgt>
<wgt id='morphing_basis_vector_3'> +2.0824434e-04 </wgt>
<wgt id='morphing_basis_vector_4'> +7.0031260e-05 </wgt>
<wgt id='morphing_basis_vector_5'> +9.8772630e-05 </wgt>
</rwgt>
</event>
<event>
 4      1 +1.9425900e-05 4.36911900e+02 7.81860800e-03 9.55329400e-02
        2 -1    0    0  501    0 +0.0000000000e+00 +0.0000000000e+00 +6.1913045006e+02 6.1913045006e+02 0.0000000000e+00 0.0000e+00 -1.0000e+00
       -2 -1    0    0    0  501 -0.0000000000e+00 -0.0000000000e+00 -7.7080697060e+01 7.7080697060e+01 0.0000000000e+00 0.0000e+00 1.0000e+00
      -13  1    1    2    0    0 -1.8196876575e+02 -3.6670122860e+01 +8.7492880328e+01 2.0521289854e+02 0.0000000000e+00 0.0000e+00 1.0000e+00
       13  1    1    2    0    0 +1.8196876575e+02 +3.6670122860e+01 +4.5455687267e+02 4.9099824858e+02 0.0000000000e+00 0.0000e+00 -1.0000e+00
<mgrwt>
<rscale>  0 0.43691192E+03</rscale>
<asrwt>0</asrwt>
<pdfrwt beam="1">  1        2 0.95250835E-01 0.43691192E+03</pdfrwt>
<pdfrwt beam="2">  1       -2 0.11858569E-01 0.43691192E+03</pdfrwt>
<totfact> 0.26673146E+03</totfact>
</mgrwt>
<rwgt>
<wgt id='morphing_basis_vector_1'> +1.9603238e-04 </wgt>
<wgt id='morphing_basis_vector_2'> +1.0737004e-04 </wgt>
<wgt id='morphing_basis_vector_3'> +1.3042779e-04 </wgt>
<wgt id='morphing_basis_vector_4'> +3.4596587e-05 </wgt>
<wgt id='morphing_basis_vector_5'> +4.2023181e-05 </wgt>
</rwgt>
</event>
<event>
 4      1 +1.9425900e-05 4.40395000e+02 7.81860800e-03 9.54412100e-02
        2 -1    0    0  501    0 +0.0000000000e+00 +0.0000000000e+00 +3.4705177061e+02 3.4705177061e+02 0.0000000000e+00 0.0000e+00 -1.0000e+00
       -2 -1    0    0    0  501 -0.0000000000e+00 -0.0000000000e+00 -1.3971095522e+02 1.3971095522e+02 0.0000000000e+00 0.0000e+00 1.0000e+00
      -13  1    1    2    0    0 +1.1399906097e+02 +1.5591400549e+02 -1.3207961591e+01 1.9359600528e+02 0.0000000000e+00 0.0000e+00 1.0000e+00
       13  1    1    2    0    0 -1.1399906097e+02 -1.5591400549e+02 +2.2054877698e+02 2.9316672055e+02 0.0000000000e+00 0.0000e+00 -1.0000e+00
<mgrwt>
<rscale>  0 0.44039498E+03</rscale>
<asrwt>0</asrwt>
<pdfrwt beam="1">  1        2 0.53392580E-01 0.44039498E+03</pdfrwt>
<pdfrwt beam="2">  1       -2 0.21493993E-01 0.44039498E+03</pdfrwt>
<totfact> 0.19604255E+03</totfact>
</mgrwt>
<rwgt>
<wgt id='morphing_basis_vector_1'> +2.0062790e-04 </wgt>
<wgt id='morphing_basis_vector_2'> +1.1044900e-04 </wgt>
<wgt id='morphing_basis_vector_3'> +1.3379022e-04 </wgt>
<wgt id='morphing_basis_vector_4'> +3.6039720e-05 </wgt>
<wgt id='morphing_basis_vector_5'> +4.4362724e-05 </wgt>
</rwgt>
</event>
<event>
 4      1 +1.9425900e-05 4.36365100e+02 7.81860800e-03 9.55474200e-02
        2 -1    0    0  501    0 +0.0000000000e+00 +0.0000000000e+00 +1.1300179693e+03 1.1300179693e+03 0.0000000000e+00 0.0000e+00 1.0000e+00
       -2 -1    0    0    0  501 -0.0000000000e+00 -0.0000000000e+00 -4.2126441115e+01 4.2126441115e+01 0.0000000000e+00 0.0000e+00 -1.0000e+00
      -13  1    1    2    0    0 +1.9814924377e+02 +2.0249303782e+01 +3.0473497902e+02 3.6405571627e+02 0.0000000000e+00 0.0000e+00 -1.0000e+00
       13  1    1    2    0    0 -1.9814924377e+02 -2.0249303782e+01 +7.8315654916e+02 8.0808869414e+02 0.0000000000e+00 0.0000e+00 1.0000e+00
<mgrwt>
<rscale>  0 0.43636515E+03</rscale>
<asrwt>0</asrwt>
<pdfrwt beam="1">  1        2 0.17384890E+00 0.43636515E+03</pdfrwt>
<pdfrwt beam="2">  1       -2 0.64809918E-02 0.43636515E+03</pdfrwt>
<totfact> 0.31098631E+03</totfact>
</mgrwt>
<rwgt>
<wgt id='morphing_basis_vector_1'> +1.9588793e-04 </wgt>
<wgt id='morphing_basis_vector_2'> +1.0864757e-04 </wgt>
<wgt id='morphing_basis_vector_3'> +1.2948500e-04 </wgt>
<wgt id='morphing_basis_vector_4'> +3.4309309e-05 </wgt>
<wgt id='morphing_basis_vector_5'> +4.1696875e-05 </wgt>
</rwgt>
</event>
<event>
 4      1 +1.9425900e-05 4.92055500e+02 7.81860800e-03 9.41773900e-02
        2 -1    0    0  501    0 +0.0000000000e+00 +0.0000000000e+00 +4.8137120019e+02 4.8137120019e+02 0.0000000000e+00 0.0000e+00 1.0000e+00
       -2 -1    0    0    0  501 -0.0000000000e+00 -0.0000000000e+00 -1.2574425881e+02 1.2574425881e+02 0.0000000000e+00 0.0000e+00 -1.0000e+00
      -13  1    1    2    0    0 -2.2536118722e+02 +8.8515578730e+01 +1.2393296760e+02 2.7199642064e+02 0.0000000000e+00 0.0000e+00 -1.0000e+00
       13  1    1    2    0    0 +2.2536118722e+02 -8.8515578730e+01 +2.3169397378e+02 3.3511903836e+02 0.0000000000e+00 0.0000e+00 1.0000e+00
<mgrwt>
<rscale>  0 0.49205554E+03</rscale>
<asrwt>0</asrwt>
<pdfrwt beam="1">  1        2 0.74057107E-01 0.49205554E+03</pdfrwt>
<pdfrwt beam="2">  1       -2 0.19345271E-01 0.49205554E+03</pdfrwt>
<totfact> 0.16211710E+03</totfact>
</mgrwt>
<rwgt>
<wgt id='morphing_basis_vector_1'> +2.8005782e-04 </wgt>
<wgt id='morphing_basis_vector_2'> +1.6510588e-04 </wgt>
<wgt id='morphing_basis_vector_3'> +1.9460787e-04 </wgt>
<wgt id='morphing_basis_vector_4'> +6.3008053e-05 </wgt>
<wgt id='morphing_basis_vector_5'> +8.9508682e-05 </wgt>
</rwgt>
</event>
<event>
 4      1 +1.9425900e-05 5.05641500e+02 7.81860800e-03 9.38723400e-02
        2 -1    0    0  501    0 +0.0000000000e+00 +0.0000000000e+00 +1.7089147432e+02 1.7089147432e+02 0.0000000000e+00 0.0000e+00 -1.0000e+00
       -2 -1    0    0    0  501 -0.0000000000e+00 -0.0000000000e+00 -3.7402879008e+02 3.7402879008e+02 0.0000000000e+00 0.0000e+00 1.0000e+00
      -13  1    1    2    0    0 -9.9093015267e+01 +7.5313699609e+01 -3.3872400493e+02 3.6086774661e+02 0.0000000000e+00 0.0000e+00 1.0000e+00
       13  1    1    2    0    0 +9.9093015267e+01 -7.5313699609e+01 +1.3558668917e+02 1.8405251779e+02 0.0000000000e+00 0.0000e+00 -1.0000e+00
<mgrwt>
<rscale>  0 0.50564150E+03</rscale>
<asrwt>0</asrwt>
<pdfrwt beam="1">  1        2 0.26290996E-01 0.50564150E+03</pdfrwt>
<pdfrwt beam="2">  1       -2 0.57542890E-01 0.50564150E+03</pdfrwt>
<totfact> 0.73433611E+02</totfact>
</mgrwt>
<rwgt>
<wgt id='morphing_basis_vector_1'> +2.9894087e-04 </wgt>
<wgt id='morphing_basis_vector_2'> +1.6442922e-04 </wgt>
<wgt id='morphing_basis_vector_3'> +2.1663553e-04 </wgt>
<wgt id='morphing_basis_vector_4'> +7.4483374e-05 </wgt>
<wgt id='morphing_basis_vector_5'> +1.0478585e-04 </wgt>
</rwgt>
</event>
<event>
 4      1 +1.9425900e-05 4.54641600e+02 7.81860800e-03 9.50751000e-02
        2 -1    0    0  501    0 +0.0000000000e+00 +0.0000000000e+00 +4.6305761235e+02 4.6305761235e+02 0.0000000000e+00 0.0000e+00 -1.0000e+00
       -2 -1    0    0    0  501 -0.0000000000e+00 -0.0000000000e+00 -1.1159462427e+02 1.1159462427e+02 0.0000000000e+00 0.0000e+00 1.0000e+00
      -13  1    1    2    0    0 +7.2639192731e+01 -1.3317490587e+02 -3.8259131842e+01 1.5644733632e+02 0.0000000000e+00 0.0000e+00 1.0000e+00
       13  1    1    2    0    0 -7.2639192731e+01 +1.3317490587e+02 +3.8972211993e+02 4.1820490030e+02 0.0000000000e+00 0.0000e+00 -1.0000e+00
<mgrwt>
<rscale>  0 0.45464157E+03</rscale>
<asrwt>0</asrwt>
<pdfrwt beam="1">  1        2 0.71239632E-01 0.45464157E+03</pdfrwt>
<pdfrwt beam="2">  1       -2 0.17168404E-01 0.45464157E+03</pdfrwt>
<totfact> 0.20569826E+03</totfact>
</mgrwt>
<rwgt>
<wgt id='morphing_basis_vector_1'> +2.1877976e-04 </wgt>
<wgt id='morphing_basis_vector_2'> +1.1886446e-04 </wgt>
<wgt id='morphing_basis_vector_3'> +1.4948447e-04 </wgt>
<wgt id='morphing_basis_vector_4'> +4.2726844e-05 </wgt>
<wgt id='morphing_basis_vector_5'> +5.4714573e-05 </wgt>
</rwgt>
</event>
<event>
 4      1 +1.9425900e-05 4.58030600e+02 7.81860800e-03 9.49900800e-02
        2 -1    0    0  501    0 +0.0000000000e+00 +0.0000000000e+00 +3.8634226078e+02 3.8634226078e+02 0.0000000000e+00 0.0000e+00 1.0000e+00
       -2 -1    0    0    0  501 -0.0000000000e+00 -0.0000000000e+00 -1.3575531923e+02 1.3575531923e+02 0.0000000000e+00 0.0000e+00 -1.0000e+00
      -13  1    1    2    0    0 -8.7487746207e+01 -5.3925980249e+01 -1.0799381674e+02 1.4907978245e+02 0.0000000000e+00 0.0000e+00 -1.0000e+00
       13  1    1    2    0    0 +8.7487746207e+01 +5.3925980249e+01 +3.5858075829e+02 3.7301779756e+02 0.0000000000e+00 0.0000e+00 1.0000e+00
<mgrwt>
<rscale>  0 0.45803064E+03</rscale>
<asrwt>0</asrwt>
<pdfrwt beam="1">  1        2 0.59437270E-01 0.45803064E+03</pdfrwt>
<pdfrwt beam="2">  1       -2 0.20885434E-01 0.45803064E+03</pdfrwt>
<totfact> 0.18253477E+03</totfact>
</mgrwt>
<rwgt>
<wgt id='morphing_basis_vector_1'> +2.2333800e-04 </wgt>
<wgt id='morphing_basis_vector_2'> +1.2107549e-04 </wgt>
<wgt id='morphing_basis_vector_3'> +1.5340042e-04 </wgt>
<wgt id='morphing_basis_vector_4'> +4.4460383e-05 </wgt>
<wgt id='morphing_basis_vector_5'> +5.7392640e-05 </wgt>
</rwgt>
</event>
<event>
 4      1 +1.9425900e-05 5.06101200e+02 7.81860800e-03 9.38622000e-02
        2 -1    0    0  501    0 +0.0000000000e+00 +0.0000000000e+00 +6.1905531230e+02 6.1905531230e+02 0.0000000000e+00 0.0000e+00 -1.0000e+00
       -2 -1    0    0    0  501 -0.0000000000e+00 -0.0000000000e+00 -1.0343922541e+02 1.0343922541e+02 0.0000000000e+00 0.0000e+00 1.0000e+00
      -13  1    1    2    0    0 -9.8213492049e+01 +3.9062370784e+01 -7.0417573883e+01 1.2700548627e+02 0.0000000000e+00 0.0000e+00 1.0000e+00
       13  1    1    2    0    0 +9.8213492049e+01 -3.9062370784e+01 +5.8603366077e+02 5.9548905144e+02 0.0000000000e+00 0.0000e+00 -1.0000e+00
<mgrwt>
<rscale>  0 0.50610118E+03</rscale>
<asrwt>0</asrwt>
<pdfrwt beam="1">  1        2 0.95239276E-01 0.50610118E+03</pdfrwt>
<pdfrwt beam="2">  1       -2 0.15913727E-01 0.50610118E+03</pdfrwt>
<totfact> 0.16714009E+03</totfact>
</mgrwt>
<rwgt>
<wgt id='morphing_basis_vector_1'> +2.9973606e-04 </wgt>
<wgt id='morphing_basis_vector_2'> +1.6482176e-04 </wgt>
<wgt id='morphing_basis_vector_3'> +2.1734952e-04 </wgt>
<wgt id='morphing_basis_vector_4'> +7.4844783e-05 </wgt>
<wgt id='morphing_basis_vector_5'> +1.0533766e-04 </wgt>
</rwgt>
</event>
<event>
 4      1 +1.9425900e-05 4.90668700e+02 7.81860800e-03 9.42091200e-02
        2 -1    0    0  501    0 +0.0000000000e+00 +0.0000000000e+00 +1.2598573087e+03 1.2598573087e+03 0.0000000000e+00 0.0000e+00 1.0000e+00
       -2 -1    0    0    0  501 -0.0000000000e+00 -0.0000000000e+00 -4.7774421637e+01 4.7774421637e+01 0.0000000000e+00 0.0000e+00 -1.0000e+00
      -13  1    1    2    0    0 +3.8732601823e+01 -2.2845715899e+02 +8.2083551047e+02 8.5291489797e+02 0.0000000000e+00 0.0000e+00 1.0000e+00
       13  1    1    2    0    0 -3.8732601823e+01 +2.2845715899e+02 +3.9124737656e+02 4.5471683233e+02 0.0000000000e+00 0.0000e+00 -1.0000e+00
<mgrwt>
<rscale>  0 0.49066874E+03</rscale>
<asrwt>0</asrwt>
<pdfrwt beam="1">  1        2 0.19382418E+00 0.49066874E+03</pdfrwt>
<pdfrwt beam="2">  1       -2 0.73499120E-02 0.49066874E+03</pdfrwt>
<totfact> 0.21634971E+03</totfact>
</mgrwt>
<rwgt>
<wgt id='morphing_basis_vector_1'> +3.0085104e-04 </wgt>
<wgt id='morphing_basis_vector_2'> +2.3545596e-04 </wgt>
<wgt id='morphing_basis_vector_3'> +1.8203715e-04 </wgt>
<wgt id='morphing_basis_vector_4'> +5.3773603e-05 </wgt>
<wgt id='morphing_basis_vector_5'> +8.9023978e-05 </wgt>
</rwgt>
</event>
<event>
 4      1 +1.9425900e-05 5.03263700e+02 7.81860800e-03 9.39249800e-02
        2 -1    0    0  501    0 +0.0000000000e+00 +0.0000000000e+00 +2.1234068398e+02 2.1234068398e+02 0.0000000000e+00 0.0000e+00 1.0000e+00
       -2 -1    0    0    0  501 -0.0000000000e+00 -0.0000000000e+00 -2.9819334318e+02 2.9819334318e+02 0.0000000000e+00 0.0000e+00 -1.0000e+00
      -13  1    1    2    0    0 +4.6692573617e+01 -1.1041997880e+02 -2.6735941543e+02 2.9300823396e+02 0.0000000000e+00 0.0000e+00 -1.0000e+00
       13  1    1    2    0    0 -4.6692573617e+01 +1.1041997880e+02 +1.8150675623e+02 2.1752579320e+02 0.0000000000e+00 0.0000e+00 1.0000e+00
<mgrwt>
<rscale>  0 0.50326366E+03</rscale>
<asrwt>0</asrwt>
<pdfrwt beam="1">  1        2 0.32667798E-01 0.50326366E+03</pdfrwt>
<pdfrwt beam="2">  1       -2 0.45875899E-01 0.50326366E+03</pdfrwt>
<totfact> 0.89104703E+02</totfact>
</mgrwt>
<rwgt>
<wgt id='morphing_basis_vector_1'> +2.9470876e-04 </wgt>
<wgt id='morphing_basis_vector_2'> +1.6195630e-04 </wgt>
<wgt id='morphing_basis_vector_3'> +2.1302936e-04 </wgt>
<wgt id='morphing_basis_vector_4'> +7.2696577e-05 </wgt>
<wgt id='morphing_basis_vector_5'> +1.0195690e-04 </wgt>
</rwgt>
</event>
<event>
 4      1 +1.9425900e-05 4.84703700e+02 7.81860800e-03 9.43469100e-02
        2 -1    0    0  501    0 +0.0000000000e+00 +0.0000000000e+00 +1.1027594690e+03 1.1027594690e+03 0.0000000000e+00 0.0000e+00 -1.0000e+00
       -2 -1    0    0    0  501 -0.0000000000e+00 -0.0000000000e+00 -5.3261316504e+01 5.3261316504e+01 0.0000000000e+00 0.0000e+00 1.0000e+00
      -13  1    1    2    0    0 +1.1036450922e+02 -1.4424280997e+02 +9.0745216004e+02 9.2544893748e+02 0.0000000000e+00 0.0000e+00 -1.0000e+00
       13  1    1    2    0    0 -1.1036450922e+02 +1.4424280997e+02 +1.4204599243e+02 2.3057184800e+02 0.0000000000e+00 0.0000e+00 1.0000e+00
<mgrwt>
<rscale>  0 0.48470371E+03</rscale>
<asrwt>0</asrwt>
<pdfrwt beam="1">  1        2 0.16965529E+00 0.48470371E+03</pdfrwt>
<pdfrwt beam="2">  1       -2 0.81940495E-02 0.48470371E+03</pdfrwt>
<totfact> 0.22516986E+03</totfact>
</mgrwt>
<rwgt>
<wgt id='morphing_basis_vector_1'> +3.3026431e-04 </wgt>
<wgt id='morphing_basis_vector_2'> +3.5127686e-04 </wgt>
<wgt id='morphing_basis_vector_3'> +1.5389678e-04 </wgt>
<wgt id='morphing_basis_vector_4'> +3.7461332e-05 </wgt>
<wgt id='morphing_basis_vector_5'> +8.4640976e-05 </wgt>
</rwgt>
</event>
<event>
 4      1 +1.9425900e-05 4.83362700e+02 7.81860800e-03 9.43781900e-02
        2 -1    0    0  501    0 +0.0000000000e+00 +0.0000000000e+00 +3.9944706303e+02 3.9944706303e+02 0.0000000000e+00 0.0000e+00 -1.0000e+00
       -2 -1    0    0    0  501 -0.0000000000e+00 -0.0000000000e+00 -1.4622683153e+02 1.4622683153e+02 0.0000000000e+00 0.0000e+00 1.0000e+00
      -13  1    1    2    0    0 +9.8674911357e+01 -6.9836234384e+01 -1.0964295150e+02 1.6320359854e+02 0.0000000000e+00 0.0000e+00 1.0000e+00
       13  1    1    2    0    0 -9.8674911357e+01 +6.9836234384e+01 +3.6286318299e+02 3.8247029602e+02 0.0000000000e+00 0.0000e+00 -1.0000e+00
<mgrwt>
<rscale>  0 0.48336271E+03</rscale>
<asrwt>0</asrwt>
<pdfrwt beam="1">  1        2 0.61453394E-01 0.48336271E+03</pdfrwt>
<pdfrwt beam="2">  1       -2 0.22496436E-01 0.48336271E+03</pdfrwt>
<totfact> 0.15545996E+03</totfact>
</mgrwt>
<rwgt>
<wgt id='morphing_basis_vector_1'> +2.6127050e-04 </wgt>
<wgt id='morphing_basis_vector_2'> +1.4270261e-04 </wgt>
<wgt id='morphing_basis_vector_3'> +1.8474002e-04 </wgt>
<wgt id='morphing_basis_vector_4'> +5.8955674e-05 </wgt>
<wgt id='morphing_basis_vector_5'> +8.0260168e-05 </wgt>
</rwgt>
</event>
<event>
 4      1 +1.9425900e-05 4.86946800e+02 7.81860800e-03 9.42948500e-02
        2 -1    0    0  501    0 +0.0000000000e+00 +0.0000000000e+00 +1.6279386894e+02 1.6279386894e+02 0.0000000000e+00 0.0000e+00 1.0000e+00
       -2 -1    0    0    0  501 -0.0000000000e+00 -0.0000000000e+00 -3.6413721734e+02 3.6413721734e+02 0.0000000000e+00 0.0000e+00 -1.0000e+00
      -13  1    1    2    0    0 -7.4554353077e+00 -2.3916994770e+02 -1.4932412706e+02 2.8205592056e+02 0.0000000000e+00 0.0000e+00 -1.0000e+00
       13  1    1    2    0    0 +7.4554353077e+00 +2.3916994770e+02 -5.2019221349e+01 2.4487516573e+02 0.0000000000e+00 0.0000e+00 1.0000e+00
<mgrwt>
<rscale>  0 0.48694684E+03</rscale>
<asrwt>0</asrwt>
<pdfrwt beam="1">  1        2 0.25045211E-01 0.48694684E+03</pdfrwt>
<pdfrwt beam="2">  1       -2 0.56021110E-01 0.48694684E+03</pdfrwt>
<totfact> 0.82002509E+02</totfact>
</mgrwt>
<rwgt>
<wgt id='morphing_basis_vector_1'> +2.7136274e-04 </wgt>
<wgt id='morphing_basis_vector_2'> +1.5940361e-04 </wgt>
<wgt id='morphing_basis_vector_3'> +1.8752865e-04 </wgt>
<wgt id='morphing_basis_vector_4'> +5.9785541e-05 </wgt>
<wgt id='morphing_basis_vector_5'> +8.4106472e-05 </wgt>
</rwgt>
</event>
<event>
 4      1 +1.9425900e-05 5.16797600e+02 7.81860800e-03 9.36294400e-02
        2 -1    0    0  501    0 +0.0000000000e+00 +0.0000000000e+00 +3.1254020575e+02 3.1254020575e+02 0.0000000000e+00 0.0000e+00 1.0000e+00
       -2 -1    0    0    0  501 -0.0000000000e+00 -0.0000000000e+00 -2.1363636035e+02 2.1363636035e+02 0.0000000000e+00 0.0000e+00 -1.0000e+00
      -13  1    1    2    0    0 +1.7074977872e+02 +1.1252340967e+02 -1.1137986891e+02 2.3285720915e+02 0.0000000000e+00 0.0000e+00 -1.0000e+00
       13  1    1    2    0    0 -1.7074977872e+02 -1.1252340967e+02 +2.1028371431e+02 2.9331935695e+02 0.0000000000e+00 0.0000e+00 1.0000e+00
<mgrwt>
<rscale>  0 0.51679765E+03</rscale>
<asrwt>0</asrwt>
<pdfrwt beam="1">  1        2 0.48083108E-01 0.51679765E+03</pdfrwt>
<pdfrwt beam="2">  1       -2 0.32867132E-01 0.51679765E+03</pdfrwt>
<totfact> 0.10638189E+03</totfact>
</mgrwt>
<rwgt>
<wgt id='morphing_basis_vector_1'> +3.2006082e-04 </wgt>
<wgt id='morphing_basis_vector_2'> +1.7828866e-04 </wgt>
<wgt id='morphing_basis_vector_3'> +2.3404518e-04 </wgt>
<wgt id='morphing_basis_vector_4'> +8.3033967e-05 </wgt>
<wgt id='morphing_basis_vector_5'> +1.1878586e-04 </wgt>
</rwgt>
</event>
<event>
 4      1 +1.9425900e-05 4.80291500e+02 7.81860800e-03 9.44502200e-02
        2 -1    0    0  501    0 +0.0000000000e+00 +0.0000000000e+00 +2.8305515484e+02 2.8305515484e+02 0.0000000000e+00 0.0000e+00 1.0000e+00
       -2 -1    0    0    0  501 -0.0000000000e+00 -0.0000000000e+00 -2.0374112211e+02 2.0374112211e+02 0.0000000000e+00 0.0000e+00 -1.0000e+00
      -13  1    1    2    0    0 -2.0295033218e+02 +1.1851006583e+02 -1.0372435213e+01 2.3524680752e+02 0.0000000000e+00 0.0000e+00 -1.0000e+00
       13  1    1    2    0    0 +2.0295033218e+02 -1.1851006583e+02 +8.9686467942e+01 2.5154946943e+02 0.0000000000e+00 0.0000e+00 1.0000e+00
<mgrwt>
<rscale>  0 0.48029147E+03</rscale>
<asrwt>0</asrwt>
<pdfrwt beam="1">  1        2 0.43546947E-01 0.48029147E+03</pdfrwt>
<pdfrwt beam="2">  1       -2 0.31344788E-01 0.48029147E+03</pdfrwt>
<totfact> 0.12918966E+03</totfact>
</mgrwt>
<rwgt>
<wgt id='morphing_basis_vector_1'> +2.6020074e-04 </wgt>
<wgt id='morphing_basis_vector_2'> +1.5168993e-04 </wgt>
<wgt id='morphing_basis_vector_3'> +1.7873097e-04 </wgt>
<wgt id='morphing_basis_vector_4'> +5.5829409e-05 </wgt>
<wgt id='morphing_basis_vector_5'> +7.7391785e-05 </wgt>
</rwgt>
</event>
<event>
 4      1 +1.9425900e-05 4.67529200e+02 7.81860800e-03 9.47558600e-02
        2 -1    0    0  501    0 +0.0000000000e+00 +0.0000000000e+00 +1.6960067347e+03 1.6960067347e+03 0.0000000000e+00 0.0000e+00 -1.0000e+00
       -2 -1    0    0    0  501 -0.0000000000e+00 -0.0000000000e+00 -3.2220321297e+01 3.2220321297e+01 0.0000000000e+00 0.0000e+00 1.0000e+00
      -13  1    1    2    0    0 -1.5810377383e+02 -1.7067504579e+02 +9.1611426178e+02 9.4519422088e+02 0.0000000000e+00 0.0000e+00 1.0000e+00
       13  1    1    2    0    0 +1.5810377383e+02 +1.7067504579e+02 +7.4767215166e+02 7.8303283515e+02 0.0000000000e+00 0.0000e+00 -1.0000e+00
<mgrwt>
<rscale>  0 0.46752917E+03</rscale>
<asrwt>0</asrwt>
<pdfrwt beam="1">  1        2 0.26092404E+00 0.46752917E+03</pdfrwt>
<pdfrwt beam="2">  1       -2 0.49569739E-02 0.46752917E+03</pdfrwt>
<totfact> 0.22764026E+03</totfact>
</mgrwt>
<rwgt>
<wgt id='morphing_basis_vector_1'> +2.4787454e-04 </wgt>
<wgt id='morphing_basis_vector_2'> +1.6256996e-04 </wgt>
<wgt id='morphing_basis_vector_3'> +1.5828859e-04 </wgt>
<wgt id='morphing_basis_vector_4'> +4.6710299e-05 </wgt>
<wgt id='morphing_basis_vector_5'> +6.5930030e-05 </wgt>
</rwgt>
</event>
<event>
 4      1 +1.9425900e-05 4.48975400e+02 7.81860800e-03 9.52190000e-02
        2 -1    0    0  501    0 +0.0000000000e+00 +0.0000000000e+00 +8.3193475510e+01 8.3193475510e+01 0.0000000000e+00 0.0000e+00 1.0000e+00
       -2 -1    0    0    0  501 -0.0000000000e+00 -0.0000000000e+00 -6.0575334686e+02 6.0575334686e+02 0.0000000000e+00 0.0000e+00 -1.0000e+00
      -13  1    1    2    0    0 -6.1055992466e+01 -1.5380578451e+02 -4.9405037047e+02 5.2102765966e+02 0.0000000000e+00 0.0000e+00 -1.0000e+00
       13  1    1    2    0    0 +6.1055992466e+01 +1.5380578451e+02 -2.8509500875e+01 1.6791916271e+02 0.0000000000e+00 0.0000e+00 1.0000e+00
<mgrwt>
<rscale>  0 0.44897539E+03</rscale>
<asrwt>0</asrwt>
<pdfrwt beam="1">  1        2 0.12798996E-01 0.44897539E+03</pdfrwt>
<pdfrwt beam="2">  1       -2 0.93192822E-01 0.44897539E+03</pdfrwt>
<totfact> 0.61385985E+02</totfact>
</mgrwt>
<rwgt>
<wgt id='morphing_basis_vector_1'> +2.1122392e-04 </wgt>
<wgt id='morphing_basis_vector_2'> +1.1490646e-04 </wgt>
<wgt id='morphing_basis_vector_3'> +1.4319397e-04 </wgt>
<wgt id='morphing_basis_vector_4'> +3.9976667e-05 </wgt>
<wgt id='morphing_basis_vector_5'> +5.0416750e-05 </wgt>
</rwgt>
</event>
<event>
 4      1 +1.9425900e-05 4.74784900e+02 7.81860800e-03 9.45808300e-02
        2 -1    0    0  501    0 +0.0000000000e+00 +0.0000000000e+00 +4.8708787482e+02 4.8708787482e+02 0.0000000000e+00 0.0000e+00 1.0000e+00
       -2 -1    0    0    0  501 -0.0000000000e+00 -0.0000000000e+00 -1.1569815093e+02 1.1569815093e+02 0.0000000000e+00 0.0000e+00 -1.0000e+00
      -13  1    1    2    0    0 +5.8847947277e+01 -2.0998787345e+02 +6.6615084305e+01 2.2802534366e+02 0.0000000000e+00 0.0000e+00 1.0000e+00
       13  1    1    2    0    0 -5.8847947277e+01 +2.0998787345e+02 +3.0477463959e+02 3.7476068208e+02 0.0000000000e+00 0.0000e+00 -1.0000e+00
<mgrwt>
<rscale>  0 0.47478486E+03</rscale>
<asrwt>0</asrwt>
<pdfrwt beam="1">  1        2 0.74936595E-01 0.47478486E+03</pdfrwt>
<pdfrwt beam="2">  1       -2 0.17799716E-01 0.47478486E+03</pdfrwt>
<totfact> 0.18333046E+03</totfact>
</mgrwt>
<rwgt>
<wgt id='morphing_basis_vector_1'> +2.4946535e-04 </wgt>
<wgt id='morphing_basis_vector_2'> +1.3999043e-04 </wgt>
<wgt id='morphing_basis_vector_3'> +1.7270242e-04 </wgt>
<wgt id='morphing_basis_vector_4'> +5.3223430e-05 </wgt>
<wgt id='morphing_basis_vector_5'> +7.2024953e-05 </wgt>
</rwgt>
</event>
<event>
 4      1 +1.9425900e-05 5.05438800e+02 7.81860800e-03 9.38768100e-02
        2 -1    0    0  501    0 +0.0000000000e+00 +0.0000000000e+00 +3.2225263205e+02 3.2225263205e+02 0.0000000000e+00 0.0000e+00 -1.0000e+00
       -2 -1    0    0    0  501 -0.0000000000e+00 -0.0000000000e+00 -1.9818954413e+02 1.9818954413e+02 0.0000000000e+00 0.0000e+00 1.0000e+00
      -13  1    1    2    0    0 -4.6321230772e+01 -1.5254068705e+02 -1.3988308266e+02 2.1208864760e+02 0.0000000000e+00 0.0000e+00 1.0000e+00
       13  1    1    2    0    0 +4.6321230772e+01 +1.5254068705e+02 +2.6394617058e+02 3.0835352858e+02 0.0000000000e+00 0.0000e+00 -1.0000e+00
<mgrwt>
<rscale>  0 0.50543883E+03</rscale>
<asrwt>0</asrwt>
<pdfrwt beam="1">  1        2 0.49577328E-01 0.50543883E+03</pdfrwt>
<pdfrwt beam="2">  1       -2 0.30490699E-01 0.50543883E+03</pdfrwt>
<totfact> 0.11738864E+03</totfact>
</mgrwt>
<rwgt>
<wgt id='morphing_basis_vector_1'> +2.9869953e-04 </wgt>
<wgt id='morphing_basis_vector_2'> +1.6459393e-04 </wgt>
<wgt id='morphing_basis_vector_3'> +2.1627933e-04 </wgt>
<wgt id='morphing_basis_vector_4'> +7.4278549e-05 </wgt>
<wgt id='morphing_basis_vector_5'> +1.0454735e-04 </wgt>
</rwgt>
</event>
<event>
 4      1 +1.9425900e-05 4.69550600e+02 7.81860800e-03 9.47067600e-02
        2 -1    0    0  501    0 +0.0000000000e+00 +0.0000000000e+00 +1.9006265160e+02 1.9006265160e+02 0.0000000000e+00 0.0000e+00 1.0000e+00
       -2 -1    0    0    0  501 -0.0000000000e+00 -0.0000000000e+00 -2.9000664994e+02 2.9000664994e+02 0.0000000000e+00 0.0000e+00 -1.0000e+00
      -13  1    1    2    0    0 -2.1654413765e+01 +5.6248775032e+01 -2.8196167249e+02 2.8833179340e+02 0.0000000000e+00 0.0000e+00 -1.0000e+00
       13  1    1    2    0    0 +2.1654413765e+01 -5.6248775032e+01 +1.8201767415e+02 1.9173750815e+02 0.0000000000e+00 0.0000e+00 1.0000e+00
<mgrwt>
<rscale>  0 0.46955056E+03</rscale>
<asrwt>0</asrwt>
<pdfrwt beam="1">  1        2 0.29240408E-01 0.46955056E+03</pdfrwt>
<pdfrwt beam="2">  1       -2 0.44616407E-01 0.46955056E+03</pdfrwt>
<totfact> 0.10662681E+03</totfact>
</mgrwt>
<rwgt>
<wgt id='morphing_basis_vector_1'> +2.3993441e-04 </wgt>
<wgt id='morphing_basis_vector_2'> +1.3041299e-04 </wgt>
<wgt id='morphing_basis_vector_3'> +1.6705397e-04 </wgt>
<wgt id='morphing_basis_vector_4'> +5.0668476e-05 </wgt>
<wgt id='morphing_basis_vector_5'> +6.7164816e-05 </wgt>
</rwgt>
</event>
<event>
 4      1 +1.9425900e-05 4.62353600e+02 7.81860800e-03 9.48827500e-02
        2 -1    0    0  501    0 +0.0000000000e+00 +0.0000000000e+00 +6.0904096926e+02 6.0904096926e+02 0.0000000000e+00 0.0000e+00 1.0000e+00
       -2 -1    0    0    0  501 -0.0000000000e+00 -0.0000000000e+00 -8.7748967087e+01 8.7748967087e+01 0.0000000000e+00 0.0000e+00 -1.0000e+00
      -13  1    1    2    0    0 -2.0847805297e+02 -5.8137308024e+01 +1.3821574717e+02 2.5680077477e+02 0.0000000000e+00 0.0000e+00 -1.0000e+00
       13  1    1    2    0    0 +2.0847805297e+02 +5.8137308024e+01 +3.8307625500e+02 4.3998916158e+02 0.0000000000e+00 0.0000e+00 1.0000e+00
<mgrwt>
<rscale>  0 0.46235361E+03</rscale>
<asrwt>0</asrwt>
<pdfrwt beam="1">  1        2 0.93698608E-01 0.46235361E+03</pdfrwt>
<pdfrwt beam="2">  1       -2 0.13499841E-01 0.46235361E+03</pdfrwt>
<totfact> 0.22159769E+03</totfact>
</mgrwt>
<rwgt>
<wgt id='morphing_basis_vector_1'> +2.3127709e-04 </wgt>
<wgt id='morphing_basis_vector_2'> +1.3016741e-04 </wgt>
<wgt id='morphing_basis_vector_3'> +1.5730357e-04 </wgt>
<wgt id='morphing_basis_vector_4'> +4.6285795e-05 </wgt>
<wgt id='morphing_basis_vector_5'> +6.1037046e-05 </wgt>
</rwgt>
</event>
<event>
 4      1 +1.9425900e-05 4.87707500e+02 7.81860800e-03 9.42772600e-02
        2 -1    0    0  501    0 +0.0000000000e+00 +0.0000000000e+00 +2.0977630028e+03 2.0977630028e+03 0.0000000000e+00 0.0000e+00 -1.0000e+00
       -2 -1    0    0    0  501 -0.0000000000e+00 -0.0000000000e+00 -2.8346698958e+01 2.8346698958e+01 0.0000000000e+00 0.0000e+00 1.0000e+00
      -13  1    1    2    0    0 -2.0778469524e+02 +1.2652493659e+02 +1.1078651339e+03 1.1342610784e+03 0.0000000000e+00 0.0000e+00 1.0000e+00
       13  1    1    2    0    0 +2.0778469524e+02 -1.2652493659e+02 +9.6155116995e+02 9.9184862333e+02 0.0000000000e+00 0.0000e+00 -1.0000e+00
<mgrwt>
<rscale>  0 0.48770752E+03</rscale>
<asrwt>0</asrwt>
<pdfrwt beam="1">  1        2 0.32273265E+00 0.48770752E+03</pdfrwt>
<pdfrwt beam="2">  1       -2 0.43610322E-02 0.48770752E+03</pdfrwt>
<totfact> 0.16697018E+03</totfact>
</mgrwt>
<rwgt>
<wgt id='morphing_basis_vector_1'> +2.7951957e-04 </wgt>
<wgt id='morphing_basis_vector_2'> +1.8157606e-04 </wgt>
<wgt id='morphing_basis_vector_3'> +1.8531381e-04 </wgt>
<wgt id='morphing_basis_vector_4'> +5.7868362e-05 </wgt>
<wgt id='morphing_basis_vector_5'> +8.5201296e-05 </wgt>
</rwgt>
</event>
<event>
 4      1 +1.9425900e-05 4.47340600e+02 7.81860800e-03 9.52609300e-02
        2 -1    0    0  501    0 +0.0000000000e+00 +0.0000000000e+00 +4.0712362123e+02 4.0712362123e+02 0.0000000000e+00 0.0000e+00 -1.0000e+00
       -2 -1    0    0    0  501 -0.0000000000e+00 -0.0000000000e+00 -1.2288260021e+02 1.2288260021e+02 0.0000000000e+00 0.0000e+00 1.0000e+00
      -13  1    1    2    0    0 -1.0342307603e+02 +6.6580523510e+01 -7.9214341062e+01 1.4630177920e+02 0.0000000000e+00 0.0000e+00 1.0000e+00
       13  1    1    2    0    0 +1.0342307603e+02 -6.6580523510e+01 +3.6345536208e+02 3.8370444224e+02 0.0000000000e+00 0.0000e+00 -1.0000e+00
<mgrwt>
<rscale>  0 0.44734063E+03</rscale>
<asrwt>0</asrwt>
<pdfrwt beam="1">  1        2 0.62634403E-01 0.44734063E+03</pdfrwt>
<pdfrwt beam="2">  1       -2 0.18905016E-01 0.44734063E+03</pdfrwt>
<totfact> 0.20288016E+03</totfact>
</mgrwt>
<rwgt>
<wgt id='morphing_basis_vector_1'> +2.0883483e-04 </wgt>
<wgt id='morphing_basis_vector_2'> +1.1301238e-04 </wgt>
<wgt id='morphing_basis_vector_3'> +1.4159256e-04 </wgt>
<wgt id='morphing_basis_vector_4'> +3.9252797e-05 </wgt>
<wgt id='morphing_basis_vector_5'> +4.9205091e-05 </wgt>
</rwgt>
</event>
<event>
 4      1 +1.9425900e-05 4.96813000e+02 7.81860800e-03 9.40693800e-02
        2 -1    0    0  501    0 +0.0000000000e+00 +0.0000000000e+00 +3.9405397223e+02 3.9405397223e+02 0.0000000000e+00 0.0000e+00 -1.0000e+00
       -2 -1    0    0    0  501 -0.0000000000e+00 -0.0000000000e+00 -1.5659221177e+02 1.5659221177e+02 0.0000000000e+00 0.0000e+00 1.0000e+00
      -13  1    1    2    0    0 +7.8504994884e+00 -1.0626424067e+02 -1.2997631080e+02 1.6807010608e+02 0.0000000000e+00 0.0000e+00 1.0000e+00
       13  1    1    2    0    0 -7.8504994884e+00 +1.0626424067e+02 +3.6743807126e+02 3.8257607792e+02 0.0000000000e+00 0.0000e+00 -1.0000e+00
<mgrwt>
<rscale>  0 0.49681298E+03</rscale>
<asrwt>0</asrwt>
<pdfrwt beam="1">  1        2 0.60623688E-01 0.49681298E+03</pdfrwt>
<pdfrwt beam="2">  1       -2 0.24091110E-01 0.49681298E+03</pdfrwt>
<totfact> 0.14069010E+03</totfact>
</mgrwt>
<rwgt>
<wgt id='morphing_basis_vector_1'> +2.8348095e-04 </wgt>
<wgt id='morphing_basis_vector_2'> +1.5541927e-04 </wgt>
<wgt id='morphing_basis_vector_3'> +2.0349671e-04 </wgt>
<wgt id='morphing_basis_vector_4'> +6.8009897e-05 </wgt>
<wgt id='morphing_basis_vector_5'> +9.4541563e-05 </wgt>
</rwgt>
</event>
<event>
 4      1 +1.9425900e-05 4.36159900e+02 7.81860800e-03 9.55528600e-02
        2 -1    0    0  501    0 +0.0000000000e+00 +0.0000000000e+00 +1.2925652950e+03 1.2925652950e+03 0.0000000000e+00 0.0000e+00 1.0000e+00
       -2 -1    0    0    0  501 -0.0000000000e+00 -0.0000000000e+00 -3.6794174311e+01 3.6794174311e+01 0.0000000000e+00 0.0000e+00 -1.0000e+00
      -13  1    1    2    0    0 -1.7968769204e+02 -7.3820698692e+01 +3.2582764064e+02 3.7934260719e+02 0.0000000000e+00 0.0000e+00 -1.0000e+00
       13  1    1    2    0    0 +1.7968769204e+02 +7.3820698692e+01 +9.2994348008e+02 9.5001686215e+02 0.0000000000e+00 0.0000e+00 1.0000e+00
<mgrwt>
<rscale>  0 0.43615994E+03</rscale>
<asrwt>0</asrwt>
<pdfrwt beam="1">  1        2 0.19885616E+00 0.43615994E+03</pdfrwt>
<pdfrwt beam="2">  1       -2 0.56606432E-02 0.43615994E+03</pdfrwt>
<totfact> 0.30903271E+03</totfact>
</mgrwt>
<rwgt>
<wgt id='morphing_basis_vector_1'> +1.9539234e-04 </wgt>
<wgt id='morphing_basis_vector_2'> +1.0776448e-04 </wgt>
<wgt id='morphing_basis_vector_3'> +1.2945968e-04 </wgt>
<wgt id='morphing_basis_vector_4'> +3.4252352e-05 </wgt>
<wgt id='morphing_basis_vector_5'> +4.1548826e-05 </wgt>
</rwgt>
</event>
<event>
 4      1 +1.9425900e-05 4.40262000e+02 7.81860800e-03 9.54446900e-02
        2 -1    0    0  501    0 +0.0000000000e+00 +0.0000000000e+00 +6.1697185824e+02 6.1697185824e+02 0.0000000000e+00 0.0000e+00 -1.0000e+00
       -2 -1    0    0    0  501 -0.0000000000e+00 -0.0000000000e+00 -7.8541096751e+01 7.8541096751e+01 0.0000000000e+00 0.0000e+00 1.0000e+00
      -13  1    1    2    0    0 -2.0261238347e+02 -8.1899841385e+01 +2.2746982402e+02 3.1543919033e+02 0.0000000000e+00 0.0000e+00 1.0000e+00
       13  1    1    2    0    0 +2.0261238347e+02 +8.1899841385e+01 +3.1096093746e+02 3.8007376466e+02 0.0000000000e+00 0.0000e+00 -1.0000e+00
<mgrwt>
<rscale>  0 0.44026195E+03</rscale>
<asrwt>0</asrwt>
<pdfrwt beam="1">  1        2 0.94918744E-01 0.44026195E+03</pdfrwt>
<pdfrwt beam="2">  1       -2 0.12083246E-01 0.44026195E+03</pdfrwt>
<totfact> 0.26004961E+03</totfact>
</mgrwt>
<rwgt>
<wgt id='morphing_basis_vector_1'> +2.0369841e-04 </wgt>
<wgt id='morphing_basis_vector_2'> +1.2035313e-04 </wgt>
<wgt id='morphing_basis_vector_3'> +1.3131625e-04 </wgt>
<wgt id='morphing_basis_vector_4'> +3.5554392e-05 </wgt>
<wgt id='morphing_basis_vector_5'> +4.4460731e-05 </wgt>
</rwgt>
</event>
<event>
 4      1 +1.9425900e-05 4.33410800e+02 7.81860800e-03 9.56260600e-02
        2 -1    0    0  501    0 +0.0000000000e+00 +0.0000000000e+00 +4.4657167010e+02 4.4657167010e+02 0.0000000000e+00 0.0000e+00 1.0000e+00
       -2 -1    0    0    0  501 -0.0000000000e+00 -0.0000000000e+00 -1.0515945800e+02 1.0515945800e+02 0.0000000000e+00 0.0000e+00 -1.0000e+00
      -13  1    1    2    0    0 +1.2240377562e+02 -1.7674750951e+02 +1.3610330310e+02 2.5445328750e+02 0.0000000000e+00 0.0000e+00 -1.0000e+00
       13  1    1    2    0    0 -1.2240377562e+02 +1.7674750951e+02 +2.0530890899e+02 2.9727784060e+02 0.0000000000e+00 0.0000e+00 1.0000e+00
<mgrwt>
<rscale>  0 0.43341082E+03</rscale>
<asrwt>0</asrwt>
<pdfrwt beam="1">  1        2 0.68703333E-01 0.43341082E+03</pdfrwt>
<pdfrwt beam="2">  1       -2 0.16178378E-01 0.43341082E+03</pdfrwt>
<totfact> 0.23564978E+03</totfact>
</mgrwt>
<rwgt>
<wgt id='morphing_basis_vector_1'> +1.9487823e-04 </wgt>
<wgt id='morphing_basis_vector_2'> +1.1475151e-04 </wgt>
<wgt id='morphing_basis_vector_3'> +1.2457036e-04 </wgt>
<wgt id='morphing_basis_vector_4'> +3.2853400e-05 </wgt>
<wgt id='morphing_basis_vector_5'> +3.9954378e-05 </wgt>
</rwgt>
</event>
<event>
 4      1 +1.9425900e-05 4.85312900e+02 7.81860800e-03 9.43327500e-02
        2 -1    0    0  501    0 +0.0000000000e+00 +0.0000000000e+00 +1.1470271453e+02 1.1470271453e+02 0.0000000000e+00 0.0000e+00 -1.0000e+00
       -2 -1    0    0    0  501 -0.0000000000e+00 -0.0000000000e+00 -5.1334570897e+02 5.1334570897e+02 0.0000000000e+00 0.0000e+00 1.0000e+00
      -13  1    1    2    0    0 +1.3509899555e+02 -8.5592587475e+01 -4.3548978548e+02 4.6392799322e+02 0.0000000000e+00 0.0000e+00 1.0000e+00
       13  1    1    2    0    0 -1.3509899555e+02 +8.5592587475e+01 +3.6846791042e+01 1.6412043029e+02 0.0000000000e+00 0.0000e+00 -1.0000e+00
<mgrwt>
<rscale>  0 0.48531287E+03</rscale>
<asrwt>0</asrwt>
<pdfrwt beam="1">  1        2 0.17646572E-01 0.48531287E+03</pdfrwt>
<pdfrwt beam="2">  1       -2 0.78976263E-01 0.48531287E+03</pdfrwt>
<totfact> 0.60423920E+02</totfact>
</mgrwt>
<rwgt>
<wgt id='morphing_basis_vector_1'> +2.6454266e-04 </wgt>
<wgt id='morphing_basis_vector_2'> +1.4493772e-04 </wgt>
<wgt id='morphing_basis_vector_3'> +1.8729551e-04 </wgt>
<wgt id='morphing_basis_vector_4'> +6.0158905e-05 </wgt>
<wgt id='morphing_basis_vector_5'> +8.2241359e-05 </wgt>
</rwgt>
</event>
<event>
 4      1 +1.9425900e-05 4.50275200e+02 7.81860800e-03 9.51857900e-02
        2 -1    0    0  501    0 +0.0000000000e+00 +0.0000000000e+00 +4.2991289147e+02 4.2991289147e+02 0.0000000000e+00 0.0000e+00 -1.0000e+00
       -2 -1    0    0    0  501 -0.0000000000e+00 -0.0000000000e+00 -1.1790046497e+02 1.1790046497e+02 0.0000000000e+00 0.0000e+00 1.0000e+00
      -13  1    1    2    0    0 +4.5699644394e+01 +2.1900947452e+02 +1.2538890243e+02 2.5646829098e+02 0.0000000000e+00 0.0000e+00 1.0000e+00
       13  1    1    2    0    0 -4.5699644394e+01 -2.1900947452e+02 +1.8662352407e+02 2.9134506545e+02 0.0000000000e+00 0.0000e+00 -1.0000e+00
<mgrwt>
<rscale>  0 0.45027516E+03</rscale>
<asrwt>0</asrwt>
<pdfrwt beam="1">  1        2 0.66140444E-01 0.45027516E+03</pdfrwt>
<pdfrwt beam="2">  1       -2 0.18138533E-01 0.45027516E+03</pdfrwt>
<totfact> 0.20433294E+03</totfact>
</mgrwt>
<rwgt>
<wgt id='morphing_basis_vector_1'> +2.1721521e-04 </wgt>
<wgt id='morphing_basis_vector_2'> +1.2902688e-04 </wgt>
<wgt id='morphing_basis_vector_3'> +1.4176087e-04 </wgt>
<wgt id='morphing_basis_vector_4'> +3.9827308e-05 </wgt>
<wgt id='morphing_basis_vector_5'> +5.1620127e-05 </wgt>
</rwgt>
</event>
<event>
 4      1 +1.9425900e-05 4.69114700e+02 7.81860800e-03 9.47173300e-02
        2 -1    0    0  501    0 +0.0000000000e+00 +0.0000000000e+00 +8.8258072035e+02 8.8258072035e+02 0.0000000000e+00 0.0000e+00 -1.0000e+00
       -2 -1    0    0    0  501 -0.0000000000e+00 -0.0000000000e+00 -6.2336688962e+01 6.2336688962e+01 0.0000000000e+00 0.0000e+00 1.0000e+00
      -13  1    1    2    0    0 -9.0332201124e+01 +1.6266053370e+02 +1.2243707769e+02 2.2273121419e+02 0.0000000000e+00 0.0000e+00 1.0000e+00
       13  1    1    2    0    0 +9.0332201124e+01 -1.6266053370e+02 +6.9780695370e+02 7.2218619512e+02 0.0000000000e+00 0.0000e+00 -1.0000e+00
<mgrwt>
<rscale>  0 0.46911474E+03</rscale>
<asrwt>0</asrwt>
<pdfrwt beam="1">  1        2 0.13578164E+00 0.46911474E+03</pdfrwt>
<pdfrwt beam="2">  1       -2 0.95902605E-02 0.46911474E+03</pdfrwt>
<totfact> 0.24069464E+03</totfact>
</mgrwt>
<rwgt>
<wgt id='morphing_basis_vector_1'> +2.3978863e-04 </wgt>
<wgt id='morphing_basis_vector_2'> +1.3159883e-04 </wgt>
<wgt id='morphing_basis_vector_3'> +1.6623474e-04 </wgt>
<wgt id='morphing_basis_vector_4'> +5.0289008e-05 </wgt>
<wgt id='morphing_basis_vector_5'> +6.6801680e-05 </wgt>
</rwgt>
</event>
<event>
 4      1 +1.9425900e-05 4.56211100e+02 7.81860800e-03 9.50356300e-02
        2 -1    0    0  501    0 +0.0000000000e+00 +0.0000000000e+00 +1.7404611897e+03 1.7404611897e+03 0.0000000000e+00 0.0000e+00 1.0000e+00
       -2 -1    0    0    0  501 -0.0000000000e+00 -0.0000000000e+00 -2.9895601149e+01 2.9895601149e+01 0.0000000000e+00 0.0000e+00 -1.0000e+00
      -13  1    1    2    0    0 -2.0079750787e+02 +1.0674544586e+02 +7.8609283139e+02 8.1832522199e+02 0.0000000000e+00 0.0000e+00 -1.0000e+00
       13  1    1    2    0    0 +2.0079750787e+02 -1.0674544586e+02 +9.2447275720e+02 9.5203156890e+02 0.0000000000e+00 0.0000e+00 1.0000e+00
<mgrwt>
<rscale>  0 0.45621106E+03</rscale>
<asrwt>0</asrwt>
<pdfrwt beam="1">  1        2 0.26776318E+00 0.45621106E+03</pdfrwt>
<pdfrwt beam="2">  1       -2 0.45993246E-02 0.45621106E+03</pdfrwt>
<totfact> 0.24121970E+03</totfact>
</mgrwt>
<rwgt>
<wgt id='morphing_basis_vector_1'> +2.2613736e-04 </wgt>
<wgt id='morphing_basis_vector_2'> +1.3614505e-04 </wgt>
<wgt id='morphing_basis_vector_3'> +1.4794506e-04 </wgt>
<wgt id='morphing_basis_vector_4'> +4.2435634e-05 </wgt>
<wgt id='morphing_basis_vector_5'> +5.6227942e-05 </wgt>
</rwgt>
</event>
<event>
 4      1 +1.9425900e-05 4.64635700e+02 7.81860800e-03 9.48265900e-02
        2 -1    0    0  501    0 +0.0000000000e+00 +0.0000000000e+00 +2.4457995284e+02 2.4457995284e+02 0.0000000000e+00 0.0000e+00 -1.0000e+00
       -2 -1    0    0    0  501 -0.0000000000e+00 -0.0000000000e+00 -2.2067052502e+02 2.2067052502e+02 0.0000000000e+00 0.0000e+00 1.0000e+00
      -13  1    1    2    0    0 -1.7887903862e+01 +1.2396914806e+02 -1.8396525133e+02 2.2255682527e+02 0.0000000000e+00 0.0000e+00 1.0000e+00
       13  1    1    2    0    0 +1.7887903862e+01 -1.2396914806e+02 +2.0787467915e+02 2.4269365259e+02 0.0000000000e+00 0.0000e+00 -1.0000e+00
<mgrwt>
<rscale>  0 0.46463571E+03</rscale>
<asrwt>0</asrwt>
<pdfrwt beam="1">  1        2 0.37627685E-01 0.46463571E+03</pdfrwt>
<pdfrwt beam="2">  1       -2 0.33949312E-01 0.46463571E+03</pdfrwt>
<totfact> 0.13213379E+03</totfact>
</mgrwt>
<rwgt>
<wgt id='morphing_basis_vector_1'> +2.3277904e-04 </wgt>
<wgt id='morphing_basis_vector_2'> +1.2650224e-04 </wgt>
<wgt id='morphing_basis_vector_3'> +1.6107778e-04 </wgt>
<wgt id='morphing_basis_vector_4'> +4.7929744e-05 </wgt>
<wgt id='morphing_basis_vector_5'> +6.2874368e-05 </wgt>
</rwgt>
</event>
<event>
 4      1 +1.9425900e-05 4.32673200e+02 7.81860800e-03 9.56457900e-02
        2 -1    0    0  501    0 +0.0000000000e+00 +0.0000000000e+00 +1.0110041997e+03 1.0110041997e+03 0.0000000000e+00 0.0000e+00 -1.0000e+00
       -2 -1    0    0    0  501 -0.0000000000e+00 -0.0000000000e+00 -4.6292117230e+01 4.6292117230e+01 0.0000000000e+00 0.0000e+00 1.0000e+00
      -13  1    1    2    0    0 -1.5349670979e+02 -3.7874598410e+01 +1.2150934611e+02 1.9939971493e+02 0.0000000000e+00 0.0000e+00 1.0000e+00
       13  1    1    2    0    0 +1.5349670979e+02 +3.7874598410e+01 +8.4320273633e+02 8.5789660198e+02 0.0000000000e+00 0.0000e+00 -1.0000e+00
<mgrwt>
<rscale>  0 0.43267320E+03</rscale>
<asrwt>0</asrwt>
<pdfrwt beam="1">  1        2 0.15553909E+00 0.43267320E+03</pdfrwt>
<pdfrwt beam="2">  1       -2 0.71218650E-02 0.43267320E+03</pdfrwt>
<totfact> 0.31653629E+03</totfact>
</mgrwt>
<rwgt>
<wgt id='morphing_basis_vector_1'> +1.9038561e-04 </wgt>
<wgt id='morphing_basis_vector_2'> +1.0318240e-04 </wgt>
<wgt id='morphing_basis_vector_3'> +1.2658262e-04 </wgt>
<wgt id='morphing_basis_vector_4'> +3.2915457e-05 </wgt>
<wgt id='morphing_basis_vector_5'> +3.9274112e-05 </wgt>
</rwgt>
</event>
<event>
 4      1 +1.9425900e-05 4.42648700e+02 7.81860800e-03 9.53823300e-02
        2 -1    0    0  501    0 +0.0000000000e+00 +0.0000000000e+00 +2.1657137839e+02 2.1657137839e+02 0.0000000000e+00 0.0000e+00 -1.0000e+00
       -2 -1    0    0    0  501 -0.0000000000e+00 -0.0000000000e+00 -2.2618160229e+02 2.2618160229e+02 0.0000000000e+00 0.0000e+00 1.0000e+00
      -13  1    1    2    0    0 +1.3818754495e+02 -9.9610156841e+01 -1.4614120700e+02 2.2444427662e+02 0.0000000000e+00 0.0000e+00 1.0000e+00
       13  1    1    2    0    0 -1.3818754495e+02 +9.9610156841e+01 +1.3653098310e+02 2.1830870406e+02 0.0000000000e+00 0.0000e+00 -1.0000e+00
<mgrwt>
<rscale>  0 0.44264867E+03</rscale>
<asrwt>0</asrwt>
<pdfrwt beam="1">  1        2 0.33318674E-01 0.44264867E+03</pdfrwt>
<pdfrwt beam="2">  1       -2 0.34797170E-01 0.44264867E+03</pdfrwt>
<totfact> 0.14501792E+03</totfact>
</mgrwt>
<rwgt>
<wgt id='morphing_basis_vector_1'> +2.0300117e-04 </wgt>
<wgt id='morphing_basis_vector_2'> +1.1047830e-04 </wgt>
<wgt id='morphing_basis_vector_3'> +1.3647103e-04 </wgt>
<wgt id='morphing_basis_vector_4'> +3.7089915e-05 </wgt>
<wgt id='morphing_basis_vector_5'> +4.5882794e-05 </wgt>
</rwgt>
</event>
<event>
 4      1 +1.9425900e-05 4.60482300e+02 7.81860800e-03 9.49290600e-02
        2 -1    0    0  501    0 +0.0000000000e+00 +0.0000000000e+00 +7.6317293769e+02 7.6317293769e+02 0.0000000000e+00 0.0000e+00 -1.0000e+00
       -2 -1    0    0    0  501 -0.0000000000e+00 -0.0000000000e+00 -6.9461316112e+01 6.9461316112e+01 0.0000000000e+00 0.0000e+00 1.0000e+00
      -13  1    1    2    0    0 +2.1115404676e+02 -6.6751630606e+01 +2.3293791227e+02 3.2140610235e+02 0.0000000000e+00 0.0000e+00 1.0000e+00
       13  1    1    2    0    0 -2.1115404676e+02 +6.6751630606e+01 +4.6077370931e+02 5.1122815146e+02 0.0000000000e+00 0.0000e+00 -1.0000e+00
<mgrwt>
<rscale>  0 0.46048234E+03</rscale>
<asrwt>0</asrwt>
<pdfrwt beam="1">  1        2 0.11741122E+00 0.46048234E+03</pdfrwt>
<pdfrwt beam="2">  1       -2 0.10686357E-01 0.46048234E+03</pdfrwt>
<totfact> 0.24455185E+03</totfact>
</mgrwt>
<rwgt>
<wgt id='morphing_basis_vector_1'> +2.2931572e-04 </wgt>
<wgt id='morphing_basis_vector_2'> +1.3083942e-04 </wgt>
<wgt id='morphing_basis_vector_3'> +1.5467153e-04 </wgt>
<wgt id='morphing_basis_vector_4'> +4.5155858e-05 </wgt>
<wgt id='morphing_basis_vector_5'> +5.9521607e-05 </wgt>
</rwgt>
</event>
<event>
 4      1 +1.9425900e-05 4.38384100e+02 7.81860800e-03 9.54940600e-02
        2 -1    0    0  501    0 +0.0000000000e+00 +0.0000000000e+00 +1.1941195016e+03 1.1941195016e+03 0.0000000000e+00 0.0000e+00 -1.0000e+00
       -2 -1    0    0    0  501 -0.0000000000e+00 -0.0000000000e+00 -4.0234801209e+01 4.0234801209e+01 0.0000000000e+00 0.0000e+00 1.0000e+00
      -13  1    1    2    0    0 +1.0145515301e+02 -1.6315339126e+02 +8.7403424191e+02 8.9490113039e+02 0.0000000000e+00 0.0000e+00 1.0000e+00
       13  1    1    2    0    0 -1.0145515301e+02 +1.6315339126e+02 +2.7985045849e+02 3.3945317243e+02 0.0000000000e+00 0.0000e+00 -1.0000e+00
<mgrwt>
<rscale>  0 0.43838413E+03</rscale>
<asrwt>0</asrwt>
<pdfrwt beam="1">  1        2 0.18371066E+00 0.43838413E+03</pdfrwt>
<pdfrwt beam="2">  1       -2 0.61899704E-02 0.43838413E+03</pdfrwt>
<totfact> 0.30646657E+03</totfact>
</mgrwt>
<rwgt>
<wgt id='morphing_basis_vector_1'> +2.2863598e-04 </wgt>
<wgt id='morphing_basis_vector_2'> +2.0329255e-04 </wgt>
<wgt id='morphing_basis_vector_3'> +1.0938741e-04 </wgt>
<wgt id='morphing_basis_vector_4'> +3.1418903e-05 </wgt>
<wgt id='morphing_basis_vector_5'> +4.4799664e-05 </wgt>
</rwgt>
</event>
<event>
 4      1 +1.9425900e-05 4.92305100e+02 7.81860800e-03 9.41716900e-02
        2 -1    0    0  501    0 +0.0000000000e+00 +0.0000000000e+00 +6.7060853434e+02 6.7060853434e+02 0.0000000000e+00 0.0000e+00 1.0000e+00
       -2 -1    0    0    0  501 -0.0000000000e+00 -0.0000000000e+00 -9.0352384440e+01 9.0352384440e+01 0.0000000000e+00 0.0000e+00 -1.0000e+00
      -13  1    1    2    0    0 -2.0039200065e+02 +8.3594865812e+00 +6.9550088204e+01 2.1228294729e+02 0.0000000000e+00 0.0000e+00 -1.0000e+00
       13  1    1    2    0    0 +2.0039200065e+02 -8.3594865812e+00 +5.1070606170e+02 5.4867797149e+02 0.0000000000e+00 0.0000e+00 1.0000e+00
<mgrwt>
<rscale>  0 0.49230511E+03</rscale>
<asrwt>0</asrwt>
<pdfrwt beam="1">  1        2 0.10317054E+00 0.49230511E+03</pdfrwt>
<pdfrwt beam="2">  1       -2 0.13900367E-01 0.49230511E+03</pdfrwt>
<totfact> 0.18892324E+03</totfact>
</mgrwt>
<rwgt>
<wgt id='morphing_basis_vector_1'> +2.7653608e-04 </wgt>
<wgt id='morphing_basis_vector_2'> +1.5312368e-04 </wgt>
<wgt id='morphing_basis_vector_3'> +1.9673964e-04 </wgt>
<wgt id='morphing_basis_vector_4'> +6.4619917e-05 </wgt>
<wgt id='morphing_basis_vector_5'> +8.9609280e-05 </wgt>
</rwgt>
</event>
<event>
 4      1 +1.9425900e-05 4.72386000e+02 7.81860800e-03 9.46383300e-02
        2 -1    0    0  501    0 +0.0000000000e+00 +0.0000000000e+00 +7.3164097337e+02 7.3164097337e+02 0.0000000000e+00 0.0000e+00 -1.0000e+00
       -2 -1    0    0    0  501 -0.0000000000e+00 -0.0000000000e+00 -7.6249336690e+01 7.6249336690e+01 0.0000000000e+00 0.0000e+00 1.0000e+00
      -13  1    1    2    0    0 -1.5368338747e+02 -1.5922301984e+02 +1.8649448575e+02 2.8939721292e+02 0.0000000000e+00 0.0000e+00 1.0000e+00
       13  1    1    2    0    0 +1.5368338747e+02 +1.5922301984e+02 +4.6889715093e+02 5.1849309714e+02 0.0000000000e+00 0.0000e+00 -1.0000e+00
<mgrwt>
<rscale>  0 0.47238602E+03</rscale>
<asrwt>0</asrwt>
<pdfrwt beam="1">  1        2 0.11256014E+00 0.47238602E+03</pdfrwt>
<pdfrwt beam="2">  1       -2 0.11730668E-01 0.47238602E+03</pdfrwt>
<totfact> 0.22257401E+03</totfact>
</mgrwt>
<rwgt>
<wgt id='morphing_basis_vector_1'> +2.4616953e-04 </wgt>
<wgt id='morphing_basis_vector_2'> +1.3898880e-04 </wgt>
<wgt id='morphing_basis_vector_3'> +1.6947058e-04 </wgt>
<wgt id='morphing_basis_vector_4'> +5.1737242e-05 </wgt>
<wgt id='morphing_basis_vector_5'> +6.9825313e-05 </wgt>
</rwgt>
</event>
<event>
 4      1 +1.9425900e-05 5.19499600e+02 7.81860800e-03 9.35715900e-02
        2 -1    0    0  501    0 +0.0000000000e+00 +0.0000000000e+00 +1.7533104680e+02 1.7533104680e+02 0.0000000000e+00 0.0000e+00 -1.0000e+00
       -2 -1    0    0    0  501 -0.0000000000e+00 -0.0000000000e+00 -3.8481470668e+02 3.8481470668e+02 0.0000000000e+00 0.0000e+00 1.0000e+00
      -13  1    1    2    0    0 +1.8762535559e+02 -5.5171281238e+01 -2.8906370414e+02 3.4900568675e+02 0.0000000000e+00 0.0000e+00 1.0000e+00
       13  1    1    2    0    0 -1.8762535559e+02 +5.5171281238e+01 +7.9580044255e+01 2.1114006672e+02 0.0000000000e+00 0.0000e+00 -1.0000e+00
<mgrwt>
<rscale>  0 0.51949963E+03</rscale>
<asrwt>0</asrwt>
<pdfrwt beam="1">  1        2 0.26974007E-01 0.51949963E+03</pdfrwt>
<pdfrwt beam="2">  1       -2 0.59202262E-01 0.51949963E+03</pdfrwt>
<totfact> 0.67292019E+02</totfact>
</mgrwt>
<rwgt>
<wgt id='morphing_basis_vector_1'> +3.2502312e-04 </wgt>
<wgt id='morphing_basis_vector_2'> +1.8074887e-04 </wgt>
<wgt id='morphing_basis_vector_3'> +2.3854813e-04 </wgt>
<wgt id='morphing_basis_vector_4'> +8.5364859e-05 </wgt>
<wgt id='morphing_basis_vector_5'> +1.2234463e-04 </wgt>
</rwgt>
</event>
<event>
 4      1 +1.9425900e-05 4.52369200e+02 7.81860800e-03 9.51325400e-02
        2 -1    0    0  501    0 +0.0000000000e+00 +0.0000000000e+00 +1.0437112867e+03 1.0437112867e+03 0.0000000000e+00 0.0000e+00 1.0000e+00
       -2 -1    0    0    0  501 -0.0000000000e+00 -0.0000000000e+00 -4.9016877269e+01 4.9016877269e+01 0.0000000000e+00 0.0000e+00 -1.0000e+00
      -13  1    1    2    0    0 -2.1381204616e+02 -6.8718104939e+01 +5.6224010536e+02 6.0543513699e+02 0.0000000000e+00 0.0000e+00 -1.0000e+00
       13  1    1    2    0    0 +2.1381204616e+02 +6.8718104939e+01 +4.3245430409e+02 4.8729302700e+02 0.0000000000e+00 0.0000e+00 1.0000e+00
<mgrwt>
<rscale>  0 0.45236918E+03</rscale>
<asrwt>0</asrwt>
<pdfrwt beam="1">  1        2 0.16057095E+00 0.45236918E+03</pdfrwt>
<pdfrwt beam="2">  1       -2 0.75410588E-02 0.45236918E+03</pdfrwt>
<totfact> 0.27725610E+03</totfact>
</mgrwt>
<rwgt>
<wgt id='morphing_basis_vector_1'> +2.2614969e-04 </wgt>
<wgt id='morphing_basis_vector_2'> +1.4950293e-04 </wgt>
<wgt id='morphing_basis_vector_3'> +1.4008996e-04 </wgt>
<wgt id='morphing_basis_vector_4'> +3.9635064e-05 </wgt>
<wgt id='morphing_basis_vector_5'> +5.3536972e-05 </wgt>
</rwgt>
</event>
<event>
 4      1 +1.9425900e-05 4.60121900e+02 7.81860800e-03 9.49380100e-02
        2 -1    0    0  501    0 +0.0000000000e+00 +0.0000000000e+00 +5.4977351325e+02 5.4977351325e+02 0.0000000000e+00 0.0000e+00 1.0000e+00
       -2 -1    0    0    0  501 -0.0000000000e+00 -0.0000000000e+00 -9.6272458648e+01 9.6272458648e+01 0.0000000000e+00 0.0000e+00 -1.0000e+00
      -13  1    1    2    0    0 +5.8844178952e+01 -1.9806917995e+02 +3.6879142746e+02 4.2273059318e+02 0.0000000000e+00 0.0000e+00 1.0000e+00
       13  1    1    2    0    0 -5.8844178952e+01 +1.9806917995e+02 +8.4709627144e+01 2.2331537872e+02 0.0000000000e+00 0.0000e+00 -1.0000e+00
<mgrwt>
<rscale>  0 0.46012193E+03</rscale>
<asrwt>0</asrwt>
<pdfrwt beam="1">  1        2 0.84580538E-01 0.46012193E+03</pdfrwt>
<pdfrwt beam="2">  1       -2 0.14811148E-01 0.46012193E+03</pdfrwt>
<totfact> 0.21502594E+03</totfact>
</mgrwt>
<rwgt>
<wgt id='morphing_basis_vector_1'> +2.5838744e-04 </wgt>
<wgt id='morphing_basis_vector_2'> +2.2210719e-04 </wgt>
<wgt id='morphing_basis_vector_3'> +1.3605057e-04 </wgt>
<wgt id='morphing_basis_vector_4'> +3.8325095e-05 </wgt>
<wgt id='morphing_basis_vector_5'> +6.0788866e-05 </wgt>
</rwgt>
</event>
<event>
 4      1 +1.9425900e-05 4.66532200e+02 7.81860800e-03 9.47801700e-02
        2 -1    0    0  501    0 +0.0000000000e+00 +0.0000000000e+00 +6.8235494115e+02 6.8235494115e+02 0.0000000000e+00 0.0000e+00 -1.0000e+00
       -2 -1    0    0    0  501 -0.0000000000e+00 -0.0000000000e+00 -7.9743052003e+01 7.9743052003e+01 0.0000000000e+00 0.0000e+00 1.0000e+00
      -13  1    1    2    0    0 -1.3123226161e+02 +1.9241715499e+02 +3.2240310666e+02 3.9773110414e+02 0.0000000000e+00 0.0000e+00 1.0000e+00
       13  1    1    2    0    0 +1.3123226161e+02 -1.9241715499e+02 +2.8020878249e+02 3.6436688901e+02 0.0000000000e+00 0.0000e+00 -1.0000e+00
<mgrwt>
<rscale>  0 0.46653217E+03</rscale>
<asrwt>0</asrwt>
<pdfrwt beam="1">  1        2 0.10497768E+00 0.46653217E+03</pdfrwt>
<pdfrwt beam="2">  1       -2 0.12268162E-01 0.46653217E+03</pdfrwt>
<totfact> 0.22560476E+03</totfact>
</mgrwt>
<rwgt>
<wgt id='morphing_basis_vector_1'> +2.4483501e-04 </wgt>
<wgt id='morphing_basis_vector_2'> +1.5685360e-04 </wgt>
<wgt id='morphing_basis_vector_3'> +1.5794392e-04 </wgt>
<wgt id='morphing_basis_vector_4'> +4.6607346e-05 </wgt>
<wgt id='morphing_basis_vector_5'> +6.4982521e-05 </wgt>
</rwgt>
</event>
<event>
 4      1 +1.9425900e-05 5.05369000e+02 7.81860800e-03 9.38783600e-02
        2 -1    0    0  501    0 +0.0000000000e+00 +0.0000000000e+00 +6.6904645991e+02 6.6904645991e+02 0.0000000000e+00 0.0000e+00 1.0000e+00
       -2 -1    0    0    0  501 -0.0000000000e+00 -0.0000000000e+00 -9.5433503894e+01 9.5433503894e+01 0.0000000000e+00 0.0000e+00 -1.0000e+00
      -13  1    1    2    0    0 -1.1584496416e+02 +1.0480972970e+02 -1.3627975423e+01 1.5681472149e+02 0.0000000000e+00 0.0000e+00 -1.0000e+00
       13  1    1    2    0    0 +1.1584496416e+02 -1.0480972970e+02 +5.8724093144e+02 6.0766524232e+02 0.0000000000e+00 0.0000e+00 1.0000e+00
<mgrwt>
<rscale>  0 0.50536897E+03</rscale>
<asrwt>0</asrwt>
<pdfrwt beam="1">  1        2 0.10293022E+00 0.50536897E+03</pdfrwt>
<pdfrwt beam="2">  1       -2 0.14682078E-01 0.50536897E+03</pdfrwt>
<totfact> 0.17358626E+03</totfact>
</mgrwt>
<rwgt>
<wgt id='morphing_basis_vector_1'> +2.9855786e-04 </wgt>
<wgt id='morphing_basis_vector_2'> +1.6446891e-04 </wgt>
<wgt id='morphing_basis_vector_3'> +2.1617921e-04 </wgt>
<wgt id='morphing_basis_vector_4'> +7.4232773e-05 </wgt>
<wgt id='morphing_basis_vector_5'> +1.0446298e-04 </wgt>
</rwgt>
</event>
<event>
 4      1 +1.9425900e-05 5.15192700e+02 7.81860800e-03 9.36639700e-02
        2 -1    0    0  501    0 +0.0000000000e+00 +0.0000000000e+00 +8.2611886425e+02 8.2611886425e+02 0.0000000000e+00 0.0000e+00 -1.0000e+00
       -2 -1    0    0    0  501 -0.0000000000e+00 -0.0000000000e+00 -8.0322434781e+01 8.0322434781e+01 0.0000000000e+00 0.0000e+00 1.0000e+00
      -13  1    1    2    0    0 +1.6101273714e+02 -6.0364225357e-01 +1.9125711906e+01 1.6214579477e+02 0.0000000000e+00 0.0000e+00 1.0000e+00
       13  1    1    2    0    0 -1.6101273714e+02 +6.0364225357e-01 +7.2667071757e+02 7.4429550427e+02 0.0000000000e+00 0.0000e+00 -1.0000e+00
<mgrwt>
<rscale>  0 0.51519270E+03</rscale>
<asrwt>0</asrwt>
<pdfrwt beam="1">  1        2 0.12709520E+00 0.51519270E+03</pdfrwt>
<pdfrwt beam="2">  1       -2 0.12357298E-01 0.51519270E+03</pdfrwt>
<totfact> 0.17620391E+03</totfact>
</mgrwt>
<rwgt>
<wgt id='morphing_basis_vector_1'> +3.1654166e-04 </wgt>
<wgt id='morphing_basis_vector_2'> +1.7497333e-04 </wgt>
<wgt id='morphing_basis_vector_3'> +2.3160581e-04 </wgt>
<wgt id='morphing_basis_vector_4'> +8.1951479e-05 </wgt>
<wgt id='morphing_basis_vector_5'> +1.1668464e-04 </wgt>
</rwgt>
</event>
<event>
 4      1 +1.9425900e-05 4.38647500e+02 7.81860800e-03 9.54871200e-02
        2 -1    0    0  501    0 +0.0000000000e+00 +0.0000000000e+00 +1.3094265015e+02 1.3094265015e+02 0.0000000000e+00 0.0000e+00 1.0000e+00
       -2 -1    0    0    0  501 -0.0000000000e+00 -0.0000000000e+00 -3.6735854043e+02 3.6735854043e+02 0.0000000000e+00 0.0000e+00 -1.0000e+00
      -13  1    1    2    0    0 -4.3353840957e+01 +2.0797952504e+02 -1.8009476721e+02 2.7851241182e+02 0.0000000000e+00 0.0000e+00 1.0000e+00
       13  1    1    2    0    0 +4.3353840957e+01 -2.0797952504e+02 -5.6321123078e+01 2.1978877876e+02 0.0000000000e+00 0.0000e+00 -1.0000e+00
<mgrwt>
<rscale>  0 0.43864747E+03</rscale>
<asrwt>0</asrwt>
<pdfrwt beam="1">  1        2 0.20145023E-01 0.43864747E+03</pdfrwt>
<pdfrwt beam="2">  1       -2 0.56516699E-01 0.43864747E+03</pdfrwt>
<totfact> 0.10404564E+03</totfact>
</mgrwt>
<rwgt>
<wgt id='morphing_basis_vector_1'> +1.9999401e-04 </wgt>
<wgt id='morphing_basis_vector_2'> +1.1408779e-04 </wgt>
<wgt id='morphing_basis_vector_3'> +1.3086311e-04 </wgt>
<wgt id='morphing_basis_vector_4'> +3.5100580e-05 </wgt>
<wgt id='morphing_basis_vector_5'> +4.3277303e-05 </wgt>
</rwgt>
</event>
<event>
 4      1 +1.9425900e-05 4.31121600e+02 7.81860800e-03 9.56874500e-02
        2 -1    0    0  501    0 +0.0000000000e+00 +0.0000000000e+00 +1.5030239355e+02 1.5030239355e+02 0.0000000000e+00 0.0000e+00 1.0000e+00
       -2 -1    0    0    0  501 -0.0000000000e+00 -0.0000000000e+00 -3.0915313282e+02 3.0915313282e+02 0.0000000000e+00 0.0000e+00 -1.0000e+00
      -13  1    1    2    0    0 +1.5591351939e+02 +1.3874389880e+02 -1.3689099224e+02 2.4959575064e+02 0.0000000000e+00 0.0000e+00 -1.0000e+00
       13  1    1    2    0    0 -1.5591351939e+02 -1.3874389880e+02 -2.1959747042e+01 2.0985977573e+02 0.0000000000e+00 0.0000e+00 1.0000e+00
<mgrwt>
<rscale>  0 0.43112159E+03</rscale>
<asrwt>0</asrwt>
<pdfrwt beam="1">  1        2 0.23123445E-01 0.43112159E+03</pdfrwt>
<pdfrwt beam="2">  1       -2 0.47562021E-01 0.43112159E+03</pdfrwt>
<totfact> 0.12389778E+03</totfact>
</mgrwt>
<rwgt>
<wgt id='morphing_basis_vector_1'> +1.9056096e-04 </wgt>
<wgt id='morphing_basis_vector_2'> +1.0848438e-04 </wgt>
<wgt id='morphing_basis_vector_3'> +1.2350225e-04 </wgt>
<wgt id='morphing_basis_vector_4'> +3.2118213e-05 </wgt>
<wgt id='morphing_basis_vector_5'> +3.8430190e-05 </wgt>
</rwgt>
</event>
<event>
 4      1 +1.9425900e-05 4.64114200e+02 7.81860800e-03 9.48393900e-02
        2 -1    0    0  501    0 +0.0000000000e+00 +0.0000000000e+00 +4.6088576159e+02 4.6088576159e+02 0.0000000000e+00 0.0000e+00 -1.0000e+00
       -2 -1    0    0    0  501 -0.0000000000e+00 -0.0000000000e+00 -1.1684131648e+02 1.1684131648e+02 0.0000000000e+00 0.0000e+00 1.0000e+00
      -13  1    1    2    0    0 -1.1730630757e+02 +2.0012347764e+02 +1.7992672375e+02 2.9357077855e+02 0.0000000000e+00 0.0000e+00 1.0000e+00
       13  1    1    2    0    0 +1.1730630757e+02 -2.0012347764e+02 +1.6411772136e+02 2.8415629953e+02 0.0000000000e+00 0.0000e+00 -1.0000e+00
<mgrwt>
<rscale>  0 0.46411421E+03</rscale>
<asrwt>0</asrwt>
<pdfrwt beam="1">  1        2 0.70905501E-01 0.46411421E+03</pdfrwt>
<pdfrwt beam="2">  1       -2 0.17975587E-01 0.46411421E+03</pdfrwt>
<totfact> 0.19192596E+03</totfact>
</mgrwt>
<rwgt>
<wgt id='morphing_basis_vector_1'> +2.4028999e-04 </wgt>
<wgt id='morphing_basis_vector_2'> +1.5166816e-04 </wgt>
<wgt id='morphing_basis_vector_3'> +1.5554659e-04 </wgt>
<wgt id='morphing_basis_vector_4'> +4.5640112e-05 </wgt>
<wgt id='morphing_basis_vector_5'> +6.2856862e-05 </wgt>
</rwgt>
</event>
<event>
 4      1 +1.9425900e-05 4.47357400e+02 7.81860800e-03 9.52605000e-02
        2 -1    0    0  501    0 +0.0000000000e+00 +0.0000000000e+00 +3.3589932224e+02 3.3589932224e+02 0.0000000000e+00 0.0000e+00 1.0000e+00
       -2 -1    0    0    0  501 -0.0000000000e+00 -0.0000000000e+00 -1.4894985392e+02 1.4894985392e+02 0.0000000000e+00 0.0000e+00 -1.0000e+00
      -13  1    1    2    0    0 -9.8277986647e+01 +2.8009415951e+01 -1.2217041029e+02 1.5927554486e+02 0.0000000000e+00 0.0000e+00 -1.0000e+00
       13  1    1    2    0    0 +9.8277986647e+01 -2.8009415951e+01 +3.0911987861e+02 3.2557363129e+02 0.0000000000e+00 0.0000e+00 1.0000e+00
<mgrwt>
<rscale>  0 0.44735737E+03</rscale>
<asrwt>0</asrwt>
<pdfrwt beam="1">  1        2 0.51676819E-01 0.44735737E+03</pdfrwt>
<pdfrwt beam="2">  1       -2 0.22915362E-01 0.44735737E+03</pdfrwt>
<totfact> 0.18272683E+03</totfact>
</mgrwt>
<rwgt>
<wgt id='morphing_basis_vector_1'> +2.0882263e-04 </wgt>
<wgt id='morphing_basis_vector_2'> +1.1291871e-04 </wgt>
<wgt id='morphing_basis_vector_3'> +1.4163385e-04 </wgt>
<wgt id='morphing_basis_vector_4'> +3.9266228e-05 </wgt>
<wgt id='morphing_basis_vector_5'> +4.9215348e-05 </wgt>
</rwgt>
</event>
<event>
 4      1 +1.9425900e-05 4.61324500e+02 7.81860800e-03 9.49081900e-02
        2 -1    0    0  501    0 +0.0000000000e+00 +0.0000000000e+00 +3.6658708160e+02 3.6658708160e+02 0.0000000000e+00 0.0000e+00 -1.0000e+00
       -2 -1    0    0    0  501 -0.0000000000e+00 -0.0000000000e+00 -1.4513624004e+02 1.4513624004e+02 0.0000000000e+00 0.0000e+00 1.0000e+00
      -13  1    1    2    0    0 -1.0726678207e+02 -2.7252263885e+01 -1.1376026204e+02 1.5871435235e+02 0.0000000000e+00 0.0000e+00 1.0000e+00
       13  1    1    2    0    0 +1.0726678207e+02 +2.7252263885e+01 +3.3521110360e+02 3.5300896929e+02 0.0000000000e+00 0.0000e+00 -1.0000e+00
<mgrwt>
<rscale>  0 0.46132449E+03</rscale>
<asrwt>0</asrwt>
<pdfrwt beam="1">  1        2 0.56398012E-01 0.46132449E+03</pdfrwt>
<pdfrwt beam="2">  1       -2 0.22328653E-01 0.46132449E+03</pdfrwt>
<totfact> 0.17319961E+03</totfact>
</mgrwt>
<rwgt>
<wgt id='morphing_basis_vector_1'> +2.2799672e-04 </wgt>
<wgt id='morphing_basis_vector_2'> +1.2372997e-04 </wgt>
<wgt id='morphing_basis_vector_3'> +1.5719308e-04 </wgt>
<wgt id='morphing_basis_vector_4'> +4.6166878e-05 </wgt>
<wgt id='morphing_basis_vector_5'> +6.0084855e-05 </wgt>
</rwgt>
</event>
<event>
 4      1 +1.9425900e-05 4.65108600e+02 7.81860800e-03 9.48149900e-02
        2 -1    0    0  501    0 +0.0000000000e+00 +0.0000000000e+00 +1.0912764849e+03 1.0912764849e+03 0.0000000000e+00 0.0000e+00 1.0000e+00
       -2 -1    0    0    0  501 -0.0000000000e+00 -0.0000000000e+00 -4.9558028079e+01 4.9558028079e+01 0.0000000000e+00 0.0000e+00 -1.0000e+00
      -13  1    1    2    0    0 +7.5761051359e+01 -1.7654423154e+02 +1.9941708493e+02 2.7690210609e+02 0.0000000000e+00 0.0000e+00 -1.0000e+00
       13  1    1    2    0    0 -7.5761051359e+01 +1.7654423154e+02 +8.4230137190e+02 8.6393240691e+02 0.0000000000e+00 0.0000e+00 1.0000e+00
<mgrwt>
<rscale>  0 0.46510864E+03</rscale>
<asrwt>0</asrwt>
<pdfrwt beam="1">  1        2 0.16788867E+00 0.46510864E+03</pdfrwt>
<pdfrwt beam="2">  1       -2 0.76243128E-02 0.46510864E+03</pdfrwt>
<totfact> 0.25553136E+03</totfact>
</mgrwt>
<rwgt>
<wgt id='morphing_basis_vector_1'> +2.3404993e-04 </wgt>
<wgt id='morphing_basis_vector_2'> +1.2870187e-04 </wgt>
<wgt id='morphing_basis_vector_3'> +1.6129719e-04 </wgt>
<wgt id='morphing_basis_vector_4'> +4.8041993e-05 </wgt>
<wgt id='morphing_basis_vector_5'> +6.3309439e-05 </wgt>
</rwgt>
</event>
<event>
 4      1 +1.9425900e-05 4.60171300e+02 7.81860800e-03 9.49367800e-02
        2 -1    0    0  501    0 +0.0000000000e+00 +0.0000000000e+00 +2.4698233889e+02 2.4698233889e+02 0.0000000000e+00 0.0000e+00 -1.0000e+00
       -2 -1    0    0    0  501 -0.0000000000e+00 -0.0000000000e+00 -2.1434490845e+02 2.1434490845e+02 0.0000000000e+00 0.0000e+00 1.0000e+00
      -13  1    1    2    0    0 +1.9610988274e+02 +1.1934139813e+02 +8.5429255109e-01 2.2956956512e+02 0.0000000000e+00 0.0000e+00 1.0000e+00
       13  1    1    2    0    0 -1.9610988274e+02 -1.1934139813e+02 +3.1783137889e+01 2.3175768222e+02 0.0000000000e+00 0.0000e+00 -1.0000e+00
<mgrwt>
<rscale>  0 0.46017130E+03</rscale>
<asrwt>0</asrwt>
<pdfrwt beam="1">  1        2 0.37997283E-01 0.46017130E+03</pdfrwt>
<pdfrwt beam="2">  1       -2 0.32976140E-01 0.46017130E+03</pdfrwt>
<totfact> 0.13761390E+03</totfact>
</mgrwt>
<rwgt>
<wgt id='morphing_basis_vector_1'> +2.3206241e-04 </wgt>
<wgt id='morphing_basis_vector_2'> +1.4045479e-04 </wgt>
<wgt id='morphing_basis_vector_3'> +1.5234726e-04 </wgt>
<wgt id='morphing_basis_vector_4'> +4.4280283e-05 </wgt>
<wgt id='morphing_basis_vector_5'> +5.9434526e-05 </wgt>
</rwgt>
</event>
<event>
 4      1 +1.9425900e-05 4.37276300e+02 7.81860800e-03 9.55233000e-02
        2 -1    0    0  501    0 +0.0000000000e+00 +0.0000000000e+00 +9.5513095383e+02 9.5513095383e+02 0.0000000000e+00 0.0000e+00 1.0000e+00
       -2 -1    0    0    0  501 -0.0000000000e+00 -0.0000000000e+00 -5.0048256474e+01 5.0048256474e+01 0.0000000000e+00 0.0000e+00 -1.0000e+00
      -13  1    1    2    0    0 +1.6794889348e+02 -1.3641008179e+02 +5.2479961076e+02 5.6765233434e+02 0.0000000000e+00 0.0000e+00 -1.0000e+00
       13  1    1    2    0    0 -1.6794889348e+02 +1.3641008179e+02 +3.8028308659e+02 4.3752687596e+02 0.0000000000e+00 0.0000e+00 1.0000e+00
<mgrwt>
<rscale>  0 0.43727629E+03</rscale>
<asrwt>0</asrwt>
<pdfrwt beam="1">  1        2 0.14694321E+00 0.43727629E+03</pdfrwt>
<pdfrwt beam="2">  1       -2 0.76997325E-02 0.43727629E+03</pdfrwt>
<totfact> 0.30388364E+03</totfact>
</mgrwt>
<rwgt>
<wgt id='morphing_basis_vector_1'> +2.0630336e-04 </wgt>
<wgt id='morphing_basis_vector_2'> +1.3790062e-04 </wgt>
<wgt id='morphing_basis_vector_3'> +1.2354701e-04 </wgt>
<wgt id='morphing_basis_vector_4'> +3.3589288e-05 </wgt>
<wgt id='morphing_basis_vector_5'> +4.2840701e-05 </wgt>
</rwgt>
</event>
<event>
 4      1 +1.9425900e-05 4.35823700e+02 7.81860800e-03 9.55617800e-02
        2 -1    0    0  501    0 +0.0000000000e+00 +0.0000000000e+00 +9.9093589252e+02 9.9093589252e+02 0.0000000000e+00 0.0000e+00 -1.0000e+00
       -2 -1    0    0    0  501 -0.0000000000e+00 -0.0000000000e+00 -4.7919917197e+01 4.7919917197e+01 0.0000000000e+00 0.0000e+00 1.0000e+00
      -13  1    1    2    0    0 -1.7982055650e+02 -5.9835414826e+01 +2.1511363537e+02 2.8668726084e+02 0.0000000000e+00 0.0000e+00 1.0000e+00
       13  1    1    2    0    0 +1.7982055650e+02 +5.9835414826e+01 +7.2790233996e+02 7.5216854888e+02 0.0000000000e+00 0.0000e+00 -1.0000e+00
<mgrwt>
<rscale>  0 0.43582366E+03</rscale>
<asrwt>0</asrwt>
<pdfrwt beam="1">  1        2 0.15245166E+00 0.43582366E+03</pdfrwt>
<pdfrwt beam="2">  1       -2 0.73722957E-02 0.43582366E+03</pdfrwt>
<totfact> 0.30877733E+03</totfact>
</mgrwt>
<rwgt>
<wgt id='morphing_basis_vector_1'> +1.9480087e-04 </wgt>
<wgt id='morphing_basis_vector_2'> +1.0699637e-04 </wgt>
<wgt id='morphing_basis_vector_3'> +1.2925583e-04 </wgt>
<wgt id='morphing_basis_vector_4'> +3.4133928e-05 </wgt>
<wgt id='morphing_basis_vector_5'> +4.1319798e-05 </wgt>
</rwgt>
</event>
<event>
 4      1 +1.9425900e-05 4.96500500e+02 7.81860800e-03 9.40764300e-02
        2 -1    0    0  501    0 +0.0000000000e+00 +0.0000000000e+00 +1.6717589042e+03 1.6717589042e+03 0.0000000000e+00 0.0000e+00 1.0000e+00
       -2 -1    0    0    0  501 -0.0000000000e+00 -0.0000000000e+00 -3.6864275389e+01 3.6864275389e+01 0.0000000000e+00 0.0000e+00 -1.0000e+00
      -13  1    1    2    0    0 +3.0869009180e+01 +2.4573394991e+02 +8.7606228416e+02 9.1039727350e+02 0.0000000000e+00 0.0000e+00 1.0000e+00
       13  1    1    2    0    0 -3.0869009180e+01 -2.4573394991e+02 +7.5883234467e+02 7.9822590611e+02 0.0000000000e+00 0.0000e+00 -1.0000e+00
<mgrwt>
<rscale>  0 0.49650048E+03</rscale>
<asrwt>0</asrwt>
<pdfrwt beam="1">  1        2 0.25719362E+00 0.49650048E+03</pdfrwt>
<pdfrwt beam="2">  1       -2 0.56714283E-02 0.49650048E+03</pdfrwt>
<totfact> 0.19118524E+03</totfact>
</mgrwt>
<rwgt>
<wgt id='morphing_basis_vector_1'> +2.9485229e-04 </wgt>
<wgt id='morphing_basis_vector_2'> +1.9206349e-04 </wgt>
<wgt id='morphing_basis_vector_3'> +1.9792822e-04 </wgt>
<wgt id='morphing_basis_vector_4'> +6.3204742e-05 </wgt>
<wgt id='morphing_basis_vector_5'> +9.4684397e-05 </wgt>
</rwgt>
</event>
<event>
 4      1 +1.9425900e-05 4.57310200e+02 7.81860800e-03 9.50080900e-02
        2 -1    0    0  501    0 +0.0000000000e+00 +0.0000000000e+00 +8.2719627493e+02 8.2719627493e+02 0.0000000000e+00 0.0000e+00 -1.0000e+00
       -2 -1    0    0    0  501 -0.0000000000e+00 -0.0000000000e+00 -6.3205268802e+01 6.3205268802e+01 0.0000000000e+00 0.0000e+00 1.0000e+00
      -13  1    1    2    0    0 -1.5112106372e+02 -2.4883074078e+01 +5.1420253459e+01 1.6155737600e+02 0.0000000000e+00 0.0000e+00 1.0000e+00
       13  1    1    2    0    0 +1.5112106372e+02 +2.4883074078e+01 +7.1257075267e+02 7.2884416773e+02 0.0000000000e+00 0.0000e+00 -1.0000e+00
<mgrwt>
<rscale>  0 0.45731024E+03</rscale>
<asrwt>0</asrwt>
<pdfrwt beam="1">  1        2 0.12726096E+00 0.45731024E+03</pdfrwt>
<pdfrwt beam="2">  1       -2 0.97238881E-02 0.45731024E+03</pdfrwt>
<totfact> 0.25609992E+03</totfact>
</mgrwt>
<rwgt>
<wgt id='morphing_basis_vector_1'> +2.2247947e-04 </wgt>
<wgt id='morphing_basis_vector_2'> +1.2096460e-04 </wgt>
<wgt id='morphing_basis_vector_3'> +1.5248738e-04 </wgt>
<wgt id='morphing_basis_vector_4'> +4.4062188e-05 </wgt>
<wgt id='morphing_basis_vector_5'> +5.6822588e-05 </wgt>
</rwgt>
</event>
<event>
 4      1 +1.9425900e-05 4.92581600e+02 7.81860800e-03 9.41653800e-02
        2 -1    0    0  501    0 +0.0000000000e+00 +0.0000000000e+00 +5.1720559368e+02 5.1720559368e+02 0.0000000000e+00 0.0000e+00 -1.0000e+00
       -2 -1    0    0    0  501 -0.0000000000e+00 -0.0000000000e+00 -1.1728250415e+02 1.1728250415e+02 0.0000000000e+00 0.0000e+00 1.0000e+00
      -13  1    1    2    0    0 -1.5012073573e+02 +3.4758598424e+00 -5.1498843356e+01 1.5874648899e+02 0.0000000000e+00 0.0000e+00 1.0000e+00
       13  1    1    2    0    0 +1.5012073573e+02 -3.4758598424e+00 +4.5142193288e+02 4.7574160884e+02 0.0000000000e+00 0.0000e+00 -1.0000e+00
<mgrwt>
<rscale>  0 0.49258164E+03</rscale>
<asrwt>0</asrwt>
<pdfrwt beam="1">  1        2 0.79570090E-01 0.49258164E+03</pdfrwt>
<pdfrwt beam="2">  1       -2 0.18043463E-01 0.49258164E+03</pdfrwt>
<totfact> 0.16759437E+03</totfact>
</mgrwt>
<rwgt>
<wgt id='morphing_basis_vector_1'> +2.7642987e-04 </wgt>
<wgt id='morphing_basis_vector_2'> +1.5162513e-04 </wgt>
<wgt id='morphing_basis_vector_3'> +1.9738676e-04 </wgt>
<wgt id='morphing_basis_vector_4'> +6.5018104e-05 </wgt>
<wgt id='morphing_basis_vector_5'> +8.9884145e-05 </wgt>
</rwgt>
</event>
<event>
 4      1 +1.9425900e-05 5.13780500e+02 7.81860800e-03 9.36944700e-02
        2 -1    0    0  501    0 +0.0000000000e+00 +0.0000000000e+00 +5.2394862219e+02 5.2394862219e+02 0.0000000000e+00 0.0000e+00 -1.0000e+00
       -2 -1    0    0    0  501 -0.0000000000e+00 -0.0000000000e+00 -1.2595244960e+02 1.2595244960e+02 0.0000000000e+00 0.0000e+00 1.0000e+00
      -13  1    1    2    0    0 -1.3105371327e+02 +1.2407101961e+01 -8.0045288728e+01 1.5406576579e+02 0.0000000000e+00 0.0000e+00 1.0000e+00
       13  1    1    2    0    0 +1.3105371327e+02 -1.2407101961e+01 +4.7804146132e+02 4.9583530600e+02 0.0000000000e+00 0.0000e+00 -1.0000e+00
<mgrwt>
<rscale>  0 0.51378055E+03</rscale>
<asrwt>0</asrwt>
<pdfrwt beam="1">  1        2 0.80607479E-01 0.51378055E+03</pdfrwt>
<pdfrwt beam="2">  1       -2 0.19377300E-01 0.51378055E+03</pdfrwt>
<totfact> 0.14691569E+03</totfact>
</mgrwt>
<rwgt>
<wgt id='morphing_basis_vector_1'> +3.1379621e-04 </wgt>
<wgt id='morphing_basis_vector_2'> +1.7309812e-04 </wgt>
<wgt id='morphing_basis_vector_3'> +2.2937069e-04 </wgt>
<wgt id='morphing_basis_vector_4'> +8.0855213e-05 </wgt>
<wgt id='morphing_basis_vector_5'> +1.1486767e-04 </wgt>
</rwgt>
</event>
<event>
 4      1 +1.9425900e-05 4.75920200e+02 7.81860800e-03 9.45537500e-02
        2 -1    0    0  501    0 +0.0000000000e+00 +0.0000000000e+00 +6.2434467525e+01 6.2434467525e+01 0.0000000000e+00 0.0000e+00 -1.0000e+00
       -2 -1    0    0    0  501 -0.0000000000e+00 -0.0000000000e+00 -9.0695112317e+02 9.0695112317e+02 0.0000000000e+00 0.0000e+00 1.0000e+00
      -13  1    1    2    0    0 -1.1157342903e+02 +1.2709789564e+02 -7.6322811358e+02 7.8174142688e+02 0.0000000000e+00 0.0000e+00 1.0000e+00
       13  1    1    2    0    0 +1.1157342903e+02 -1.2709789564e+02 -8.1288542062e+01 1.8764416381e+02 0.0000000000e+00 0.0000e+00 -1.0000e+00
<mgrwt>
<rscale>  0 0.47592021E+03</rscale>
<asrwt>0</asrwt>
<pdfrwt beam="1">  1        2 0.96053032E-02 0.47592021E+03</pdfrwt>
<pdfrwt beam="2">  1       -2 0.13953093E+00 0.47592021E+03</pdfrwt>
<totfact> 0.31839163E+02</totfact>
</mgrwt>
<rwgt>
<wgt id='morphing_basis_vector_1'> +2.4983222e-04 </wgt>
<wgt id='morphing_basis_vector_2'> +1.3672706e-04 </wgt>
<wgt id='morphing_basis_vector_3'> +1.7488914e-04 </wgt>
<wgt id='morphing_basis_vector_4'> +5.4297177e-05 </wgt>
<wgt id='morphing_basis_vector_5'> +7.3024149e-05 </wgt>
</rwgt>
</event>
<event>
 4      1 +1.9425900e-05 4.30176000e+02 7.81860800e-03 9.57129200e-02
        2 -1    0    0  501    0 +0.0000000000e+00 +0.0000000000e+00 +2.4735918856e+02 2.4735918856e+02 0.0000000000e+00 0.0000e+00 -1.0000e+00
       -2 -1    0    0    0  501 -0.0000000000e+00 -0.0000000000e+00 -1.8702700569e+02 1.8702700569e+02 0.0000000000e+00 0.0000e+00 1.0000e+00
      -13  1    1    2    0    0 -1.2048827618e+02 -3.1372393485e+01 -1.4693916321e+02 1.9259483237e+02 0.0000000000e+00 0.0000e+00 1.0000e+00
       13  1    1    2    0    0 +1.2048827618e+02 +3.1372393485e+01 +2.0727134608e+02 2.4179136187e+02 0.0000000000e+00 0.0000e+00 -1.0000e+00
<mgrwt>
<rscale>  0 0.43017600E+03</rscale>
<asrwt>0</asrwt>
<pdfrwt beam="1">  1        2 0.38055260E-01 0.43017600E+03</pdfrwt>
<pdfrwt beam="2">  1       -2 0.28773386E-01 0.43017600E+03</pdfrwt>
<totfact> 0.17435606E+03</totfact>
</mgrwt>
<rwgt>
<wgt id='morphing_basis_vector_1'> +1.8719179e-04 </wgt>
<wgt id='morphing_basis_vector_2'> +1.0098660e-04 </wgt>
<wgt id='morphing_basis_vector_3'> +1.2432252e-04 </wgt>
<wgt id='morphing_basis_vector_4'> +3.1945187e-05 </wgt>
<wgt id='morphing_basis_vector_5'> +3.7713501e-05 </wgt>
</rwgt>
</event>
<event>
 4      1 +1.9425900e-05 4.62468800e+02 7.81860800e-03 9.48799100e-02
        2 -1    0    0  501    0 +0.0000000000e+00 +0.0000000000e+00 +3.5103463313e+02 3.5103463313e+02 0.0000000000e+00 0.0000e+00 1.0000e+00
       -2 -1    0    0    0  501 -0.0000000000e+00 -0.0000000000e+00 -1.5231928291e+02 1.5231928291e+02 0.0000000000e+00 0.0000e+00 -1.0000e+00
      -13  1    1    2    0    0 -5.4693797132e+01 -1.8160152301e+02 -4.4620080456e+01 1.9483705033e+02 0.0000000000e+00 0.0000e+00 -1.0000e+00
       13  1    1    2    0    0 +5.4693797132e+01 +1.8160152301e+02 +2.4333543068e+02 3.0851686571e+02 0.0000000000e+00 0.0000e+00 1.0000e+00
<mgrwt>
<rscale>  0 0.46246878E+03</rscale>
<asrwt>0</asrwt>
<pdfrwt beam="1">  1        2 0.54005328E-01 0.46246878E+03</pdfrwt>
<pdfrwt beam="2">  1       -2 0.23433736E-01 0.46246878E+03</pdfrwt>
<totfact> 0.16764192E+03</totfact>
</mgrwt>
<rwgt>
<wgt id='morphing_basis_vector_1'> +2.3019964e-04 </wgt>
<wgt id='morphing_basis_vector_2'> +1.2641458e-04 </wgt>
<wgt id='morphing_basis_vector_3'> +1.5818878e-04 </wgt>
<wgt id='morphing_basis_vector_4'> +4.6638530e-05 </wgt>
<wgt id='morphing_basis_vector_5'> +6.1068659e-05 </wgt>
</rwgt>
</event>
<event>
 4      1 +1.9425900e-05 4.41840300e+02 7.81860800e-03 9.54034100e-02
        2 -1    0    0  501    0 +0.0000000000e+00 +0.0000000000e+00 +1.1275675144e+03 1.1275675144e+03 0.0000000000e+00 0.0000e+00 -1.0000e+00
       -2 -1    0    0    0  501 -0.0000000000e+00 -0.0000000000e+00 -4.3284062912e+01 4.3284062912e+01 0.0000000000e+00 0.0000e+00 1.0000e+00
      -13  1    1    2    0    0 +1.6818351592e+02 +9.9303379848e+01 +2.6855710808e+02 3.3206893347e+02 0.0000000000e+00 0.0000e+00 1.0000e+00
       13  1    1    2    0    0 -1.6818351592e+02 -9.9303379848e+01 +8.1572634346e+02 8.3878264389e+02 0.0000000000e+00 0.0000e+00 -1.0000e+00
<mgrwt>
<rscale>  0 0.44184026E+03</rscale>
<asrwt>0</asrwt>
<pdfrwt beam="1">  1        2 0.17347190E+00 0.44184026E+03</pdfrwt>
<pdfrwt beam="2">  1       -2 0.66590875E-02 0.44184026E+03</pdfrwt>
<totfact> 0.29938229E+03</totfact>
</mgrwt>
<rwgt>
<wgt id='morphing_basis_vector_1'> +2.0254170e-04 </wgt>
<wgt id='morphing_basis_vector_2'> +1.1168755e-04 </wgt>
<wgt id='morphing_basis_vector_3'> +1.3522451e-04 </wgt>
<wgt id='morphing_basis_vector_4'> +3.6654144e-05 </wgt>
<wgt id='morphing_basis_vector_5'> +4.5356364e-05 </wgt>
</rwgt>
</event>
<event>
 4      1 +1.9425900e-05 4.87409700e+02 7.81860800e-03 9.42841400e-02
        2 -1    0    0  501    0 +0.0000000000e+00 +0.0000000000e+00 +3.7842786455e+02 3.7842786455e+02 0.0000000000e+00 0.0000e+00 -1.0000e+00
       -2 -1    0    0    0  501 -0.0000000000e+00 -0.0000000000e+00 -1.5694421485e+02 1.5694421485e+02 0.0000000000e+00 0.0000e+00 1.0000e+00
      -13  1    1    2    0    0 +1.9198119249e+02 -1.4083299076e+02 +5.3652841980e+01 2.4406830398e+02 0.0000000000e+00 0.0000e+00 1.0000e+00
       13  1    1    2    0    0 -1.9198119249e+02 +1.4083299076e+02 +1.6783080772e+02 2.9130377542e+02 0.0000000000e+00 0.0000e+00 -1.0000e+00
<mgrwt>
<rscale>  0 0.48740974E+03</rscale>
<asrwt>0</asrwt>
<pdfrwt beam="1">  1        2 0.58219671E-01 0.48740974E+03</pdfrwt>
<pdfrwt beam="2">  1       -2 0.24145264E-01 0.48740974E+03</pdfrwt>
<totfact> 0.14663455E+03</totfact>
</mgrwt>
<rwgt>
<wgt id='morphing_basis_vector_1'> +2.7165807e-04 </wgt>
<wgt id='morphing_basis_vector_2'> +1.5841441e-04 </wgt>
<wgt id='morphing_basis_vector_3'> +1.8839015e-04 </wgt>
<wgt id='morphing_basis_vector_4'> +6.0239560e-05 </wgt>
<wgt id='morphing_basis_vector_5'> +8.4565326e-05 </wgt>
</rwgt>
</event>
<event>
 4      1 +1.9425900e-05 4.56723500e+02 7.81860800e-03 9.50227800e-02
        2 -1    0    0  501    0 +0.0000000000e+00 +0.0000000000e+00 +1.0846007711e+02 1.0846007711e+02 0.0000000000e+00 0.0000e+00 1.0000e+00
       -2 -1    0    0    0  501 -0.0000000000e+00 -0.0000000000e+00 -4.8081369560e+02 4.8081369560e+02 0.0000000000e+00 0.0000e+00 -1.0000e+00
      -13  1    1    2    0    0 +1.9049502236e+02 -1.0743397011e+02 -2.7096575018e+02 3.4821379819e+02 0.0000000000e+00 0.0000e+00 -1.0000e+00
       13  1    1    2    0    0 -1.9049502236e+02 +1.0743397011e+02 -1.0138786831e+02 2.4105997453e+02 0.0000000000e+00 0.0000e+00 1.0000e+00
<mgrwt>
<rscale>  0 0.45672351E+03</rscale>
<asrwt>0</asrwt>
<pdfrwt beam="1">  1        2 0.16686166E-01 0.45672351E+03</pdfrwt>
<pdfrwt beam="2">  1       -2 0.73971337E-01 0.45672351E+03</pdfrwt>
<totfact> 0.74680965E+02</totfact>
</mgrwt>
<rwgt>
<wgt id='morphing_basis_vector_1'> +2.2383267e-04 </wgt>
<wgt id='morphing_basis_vector_2'> +1.2721687e-04 </wgt>
<wgt id='morphing_basis_vector_3'> +1.5044796e-04 </wgt>
<wgt id='morphing_basis_vector_4'> +4.3311811e-05 </wgt>
<wgt id='morphing_basis_vector_5'> +5.6471476e-05 </wgt>
</rwgt>
</event>
<event>
 4      1 +1.9425900e-05 4.37872600e+02 7.81860800e-03 9.55075500e-02
        2 -1    0    0  501    0 +0.0000000000e+00 +0.0000000000e+00 +1.0969495677e+02 1.0969495677e+02 0.0000000000e+00 0.0000e+00 -1.0000e+00
       -2 -1    0    0    0  501 -0.0000000000e+00 -0.0000000000e+00 -4.3696719536e+02 4.3696719536e+02 0.0000000000e+00 0.0000e+00 1.0000e+00
      -13  1    1    2    0    0 -1.6353494134e+02 +4.3873555450e+01 -3.3691693810e+02 3.7706974035e+02 0.0000000000e+00 0.0000e+00 1.0000e+00
       13  1    1    2    0    0 +1.6353494134e+02 -4.3873555450e+01 +9.6446995067e+00 1.6959241178e+02 0.0000000000e+00 0.0000e+00 -1.0000e+00
<mgrwt>
<rscale>  0 0.43787257E+03</rscale>
<asrwt>0</asrwt>
<pdfrwt beam="1">  1        2 0.16876147E-01 0.43787257E+03</pdfrwt>
<pdfrwt beam="2">  1       -2 0.67225723E-01 0.43787257E+03</pdfrwt>
<totfact> 0.90272580E+02</totfact>
</mgrwt>
<rwgt>
<wgt id='morphing_basis_vector_1'> +1.9692740e-04 </wgt>
<wgt id='morphing_basis_vector_2'> +1.0709066e-04 </wgt>
<wgt id='morphing_basis_vector_3'> +1.3161376e-04 </wgt>
<wgt id='morphing_basis_vector_4'> +3.5034202e-05 </wgt>
<wgt id='morphing_basis_vector_5'> +4.2638992e-05 </wgt>
</rwgt>
</event>
<event>
 4      1 +1.9425900e-05 4.30129900e+02 7.81860800e-03 9.57141700e-02
        2 -1    0    0  501    0 +0.0000000000e+00 +0.0000000000e+00 +3.8569114749e+02 3.8569114749e+02 0.0000000000e+00 0.0000e+00 -1.0000e+00
       -2 -1    0    0    0  501 -0.0000000000e+00 -0.0000000000e+00 -1.1992219904e+02 1.1992219904e+02 0.0000000000e+00 0.0000e+00 1.0000e+00
      -13  1    1    2    0    0 +8.9262541605e+00 -1.8158912110e+02 -2.1620957217e+00 1.8182123521e+02 0.0000000000e+00 0.0000e+00 1.0000e+00
       13  1    1    2    0    0 -8.9262541605e+00 +1.8158912110e+02 +2.6793104418e+02 3.2379211131e+02 0.0000000000e+00 0.0000e+00 -1.0000e+00
<mgrwt>
<rscale>  0 0.43012989E+03</rscale>
<asrwt>0</asrwt>
<pdfrwt beam="1">  1        2 0.59337099E-01 0.43012989E+03</pdfrwt>
<pdfrwt beam="2">  1       -2 0.18449569E-01 0.43012989E+03</pdfrwt>
<totfact> 0.22413450E+03</totfact>
</mgrwt>
<rwgt>
<wgt id='morphing_basis_vector_1'> +1.8766814e-04 </wgt>
<wgt id='morphing_basis_vector_2'> +1.0259411e-04 </wgt>
<wgt id='morphing_basis_vector_3'> +1.2386542e-04 </wgt>
<wgt id='morphing_basis_vector_4'> +3.1882601e-05 </wgt>
<wgt id='morphing_basis_vector_5'> +3.7717411e-05 </wgt>
</rwgt>
</event>
<event>
 4      1 +1.9425900e-05 4.63264600e+02 7.81860800e-03 9.48602900e-02
        2 -1    0    0  501    0 +0.0000000000e+00 +0.0000000000e+00 +8.3222385680e+02 8.3222385680e+02 0.0000000000e+00 0.0000e+00 1.0000e+00
       -2 -1    0    0    0  501 -0.0000000000e+00 -0.0000000000e+00 -6.4470063596e+01 6.4470063596e+01 0.0000000000e+00 0.0000e+00 -1.0000e+00
      -13  1    1    2    0    0 -1.6787814637e+02 -1.2200680958e+01 +7.5869858683e+01 1.8462980285e+02 0.0000000000e+00 0.0000e+00 -1.0000e+00
       13  1    1    2    0    0 +1.6787814637e+02 +1.2200680958e+01 +6.9188393452e+02 7.1206411755e+02 0.0000000000e+00 0.0000e+00 1.0000e+00
<mgrwt>
<rscale>  0 0.46326461E+03</rscale>
<asrwt>0</asrwt>
<pdfrwt beam="1">  1        2 0.12803443E+00 0.46326461E+03</pdfrwt>
<pdfrwt beam="2">  1       -2 0.99184719E-02 0.46326461E+03</pdfrwt>
<totfact> 0.24640961E+03</totfact>
</mgrwt>
<rwgt>
<wgt id='morphing_basis_vector_1'> +2.3102158e-04 </wgt>
<wgt id='morphing_basis_vector_2'> +1.2606891e-04 </wgt>
<wgt id='morphing_basis_vector_3'> +1.5931970e-04 </wgt>
<wgt id='morphing_basis_vector_4'> +4.7137867e-05 </wgt>
<wgt id='morphing_basis_vector_5'> +6.1721303e-05 </wgt>
</rwgt>
</event>
<event>
 4      1 +1.9425900e-05 4.34227600e+02 7.81860800e-03 9.56042500e-02
        2 -1    0    0  501    0 +0.0000000000e+00 +0.0000000000e+00 +1.1184267793e+03 1.1184267793e+03 0.0000000000e+00 0.0000e+00 1.0000e+00
       -2 -1    0    0    0  501 -0.0000000000e+00 -0.0000000000e+00 -4.2147068741e+01 4.2147068741e+01 0.0000000000e+00 0.0000e+00 -1.0000e+00
      -13  1    1    2    0    0 -1.7057251650e+02 -1.6143646788e+01 +8.9455447312e+02 9.1081463872e+02 0.0000000000e+00 0.0000e+00 1.0000e+00
       13  1    1    2    0    0 +1.7057251650e+02 +1.6143646788e+01 +1.8172523741e+02 2.4975920930e+02 0.0000000000e+00 0.0000e+00 -1.0000e+00
<mgrwt>
<rscale>  0 0.43422764E+03</rscale>
<asrwt>0</asrwt>
<pdfrwt beam="1">  1        2 0.17206564E+00 0.43422764E+03</pdfrwt>
<pdfrwt beam="2">  1       -2 0.64841653E-02 0.43422764E+03</pdfrwt>
<totfact> 0.31558557E+03</totfact>
</mgrwt>
<rwgt>
<wgt id='morphing_basis_vector_1'> +2.3543014e-04 </wgt>
<wgt id='morphing_basis_vector_2'> +2.3723452e-04 </wgt>
<wgt id='morphing_basis_vector_3'> +9.5532569e-05 </wgt>
<wgt id='morphing_basis_vector_4'> +2.9075453e-05 </wgt>
<wgt id='morphing_basis_vector_5'> +4.2829596e-05 </wgt>
</rwgt>
</event>
<event>
 4      1 +1.9425900e-05 4.68550000e+02 7.81860800e-03 9.47310300e-02
        2 -1    0    0  501    0 +0.0000000000e+00 +0.0000000000e+00 +3.8191593621e+02 3.8191593621e+02 0.0000000000e+00 0.0000e+00 -1.0000e+00
       -2 -1    0    0    0  501 -0.0000000000e+00 -0.0000000000e+00 -1.4370907754e+02 1.4370907754e+02 0.0000000000e+00 0.0000e+00 1.0000e+00
      -13  1    1    2    0    0 +1.1687339263e+01 +2.3202081077e+02 +8.5178377008e+01 2.4743808607e+02 0.0000000000e+00 0.0000e+00 1.0000e+00
       13  1    1    2    0    0 -1.1687339263e+01 -2.3202081077e+02 +1.5302848166e+02 2.7818692767e+02 0.0000000000e+00 0.0000e+00 -1.0000e+00
<mgrwt>
<rscale>  0 0.46855005E+03</rscale>
<asrwt>0</asrwt>
<pdfrwt beam="1">  1        2 0.58756297E-01 0.46855005E+03</pdfrwt>
<pdfrwt beam="2">  1       -2 0.22109089E-01 0.46855005E+03</pdfrwt>
<totfact> 0.16823000E+03</totfact>
</mgrwt>
<rwgt>
<wgt id='morphing_basis_vector_1'> +2.4324741e-04 </wgt>
<wgt id='morphing_basis_vector_2'> +1.4442937e-04 </wgt>
<wgt id='morphing_basis_vector_3'> +1.6309036e-04 </wgt>
<wgt id='morphing_basis_vector_4'> +4.8843155e-05 </wgt>
<wgt id='morphing_basis_vector_5'> +6.6517123e-05 </wgt>
</rwgt>
</event>
<event>
 4      1 +1.9425900e-05 4.92174700e+02 7.81860800e-03 9.41746700e-02
        2 -1    0    0  501    0 +0.0000000000e+00 +0.0000000000e+00 +2.0458686217e+02 2.0458686217e+02 0.0000000000e+00 0.0000e+00 1.0000e+00
       -2 -1    0    0    0  501 -0.0000000000e+00 -0.0000000000e+00 -2.9600618245e+02 2.9600618245e+02 0.0000000000e+00 0.0000e+00 -1.0000e+00
      -13  1    1    2    0    0 -6.1771221239e+01 +2.3699384126e+02 -7.0145824371e+01 2.5475910434e+02 0.0000000000e+00 0.0000e+00 -1.0000e+00
       13  1    1    2    0    0 +6.1771221239e+01 -2.3699384126e+02 -2.1273495908e+01 2.4583394028e+02 0.0000000000e+00 0.0000e+00 1.0000e+00
<mgrwt>
<rscale>  0 0.49217467E+03</rscale>
<asrwt>0</asrwt>
<pdfrwt beam="1">  1        2 0.31474902E-01 0.49217467E+03</pdfrwt>
<pdfrwt beam="2">  1       -2 0.45539413E-01 0.49217467E+03</pdfrwt>
<totfact> 0.94277425E+02</totfact>
</mgrwt>
<rwgt>
<wgt id='morphing_basis_vector_1'> +2.8193483e-04 </wgt>
<wgt id='morphing_basis_vector_2'> +1.7042800e-04 </wgt>
<wgt id='morphing_basis_vector_3'> +1.9402175e-04 </wgt>
<wgt id='morphing_basis_vector_4'> +6.2471911e-05 </wgt>
<wgt id='morphing_basis_vector_5'> +8.9708904e-05 </wgt>
</rwgt>
</event>
<event>
 4      1 +1.9425900e-05 4.36270600e+02 7.81860800e-03 9.55499300e-02
        2 -1    0    0  501    0 +0.0000000000e+00 +0.0000000000e+00 +3.3300636994e+02 3.3300636994e+02 0.0000000000e+00 0.0000e+00 1.0000e+00
       -2 -1    0    0    0  501 -0.0000000000e+00 -0.0000000000e+00 -1.4288916276e+02 1.4288916276e+02 0.0000000000e+00 0.0000e+00 -1.0000e+00
      -13  1    1    2    0    0 -9.8932974830e+01 +1.8402535814e+02 +2.6675560297e+01 2.1062917999e+02 0.0000000000e+00 0.0000e+00 -1.0000e+00
       13  1    1    2    0    0 +9.8932974830e+01 -1.8402535814e+02 +1.6344164688e+02 2.6526635271e+02 0.0000000000e+00 0.0000e+00 1.0000e+00
<mgrwt>
<rscale>  0 0.43627056E+03</rscale>
<asrwt>0</asrwt>
<pdfrwt beam="1">  1        2 0.51231749E-01 0.43627056E+03</pdfrwt>
<pdfrwt beam="2">  1       -2 0.21982948E-01 0.43627056E+03</pdfrwt>
<totfact> 0.19767993E+03</totfact>
</mgrwt>
<rwgt>
<wgt id='morphing_basis_vector_1'> +1.9661771e-04 </wgt>
<wgt id='morphing_basis_vector_2'> +1.1119574e-04 </wgt>
<wgt id='morphing_basis_vector_3'> +1.2876075e-04 </wgt>
<wgt id='morphing_basis_vector_4'> +3.4174562e-05 </wgt>
<wgt id='morphing_basis_vector_5'> +4.1685241e-05 </wgt>
</rwgt>
</event>
<event>
 4      1 +1.9425900e-05 4.61632400e+02 7.81860800e-03 9.49005700e-02
        2 -1    0    0  501    0 +0.0000000000e+00 +0.0000000000e+00 +1.1008520338e+02 1.1008520338e+02 0.0000000000e+00 0.0000e+00 -1.0000e+00
       -2 -1    0    0    0  501 -0.0000000000e+00 -0.0000000000e+00 -4.8395358461e+02 4.8395358461e+02 0.0000000000e+00 0.0000e+00 1.0000e+00
      -13  1    1    2    0    0 -9.9747851113e+00 -2.2169089518e+02 -2.6862235103e+02 3.4843122251e+02 0.0000000000e+00 0.0000e+00 1.0000e+00
       13  1    1    2    0    0 +9.9747851113e+00 +2.2169089518e+02 -1.0524603020e+02 2.4560756547e+02 0.0000000000e+00 0.0000e+00 -1.0000e+00
<mgrwt>
<rscale>  0 0.46163245E+03</rscale>
<asrwt>0</asrwt>
<pdfrwt beam="1">  1        2 0.16936185E-01 0.46163245E+03</pdfrwt>
<pdfrwt beam="2">  1       -2 0.74454397E-01 0.46163245E+03</pdfrwt>
<totfact> 0.72319484E+02</totfact>
</mgrwt>
<rwgt>
<wgt id='morphing_basis_vector_1'> +2.3095585e-04 </wgt>
<wgt id='morphing_basis_vector_2'> +1.3177968e-04 </wgt>
<wgt id='morphing_basis_vector_3'> +1.5602194e-04 </wgt>
<wgt id='morphing_basis_vector_4'> +4.5745549e-05 </wgt>
<wgt id='morphing_basis_vector_5'> +6.0472743e-05 </wgt>
</rwgt>
</event>
<event>
 4      1 +1.9425900e-05 4.60674800e+02 7.81860800e-03 9.49242900e-02
        2 -1    0    0  501    0 +0.0000000000e+00 +0.0000000000e+00 +8.3913938181e+01 8.3913938181e+01 0.0000000000e+00 0.0000e+00 -1.0000e+00
       -2 -1    0    0    0  501 -0.0000000000e+00 -0.0000000000e+00 -6.3225859475e+02 6.3225859475e+02 0.0000000000e+00 0.0000e+00 1.0000e+00
      -13  1    1    2    0    0 -1.8472952649e+01 -2.1535899359e+02 -3.9790419252e+02 4.5282280477e+02 0.0000000000e+00 0.0000e+00 1.0000e+00
       13  1    1    2    0    0 +1.8472952649e+01 +2.1535899359e+02 -1.5044046405e+02 2.6334972816e+02 0.0000000000e+00 0.0000e+00 -1.0000e+00
<mgrwt>
<rscale>  0 0.46067476E+03</rscale>
<asrwt>0</asrwt>
<pdfrwt beam="1">  1        2 0.12909837E-01 0.46067476E+03</pdfrwt>
<pdfrwt beam="2">  1       -2 0.97270553E-01 0.46067476E+03</pdfrwt>
<totfact> 0.54925246E+02</totfact>
</mgrwt>
<rwgt>
<wgt id='morphing_basis_vector_1'> +2.2891186e-04 </wgt>
<wgt id='morphing_basis_vector_2'> +1.2889908e-04 </wgt>
<wgt id='morphing_basis_vector_3'> +1.5531164e-04 </wgt>
<wgt id='morphing_basis_vector_4'> +4.5408042e-05 </wgt>
<wgt id='morphing_basis_vector_5'> +5.9644349e-05 </wgt>
</rwgt>
</event>
<event>
 4      1 +1.9425900e-05 4.33055800e+02 7.81860800e-03 9.56355500e-02
        2 -1    0    0  501    0 +0.0000000000e+00 +0.0000000000e+00 +3.4361678165e+02 3.4361678165e+02 0.0000000000e+00 0.0000e+00 -1.0000e+00
       -2 -1    0    0    0  501 -0.0000000000e+00 -0.0000000000e+00 -1.3644365670e+02 1.3644365670e+02 0.0000000000e+00 0.0000e+00 1.0000e+00
      -13  1    1    2    0    0 -2.0864828596e+02 -6.7353054183e-01 +3.9427277713e+01 2.1234187318e+02 0.0000000000e+00 0.0000e+00 1.0000e+00
       13  1    1    2    0    0 +2.0864828596e+02 +6.7353054183e-01 +1.6774584723e+02 2.6771856518e+02 0.0000000000e+00 0.0000e+00 -1.0000e+00
<mgrwt>
<rscale>  0 0.43305579E+03</rscale>
<asrwt>0</asrwt>
<pdfrwt beam="1">  1        2 0.52864120E-01 0.43305579E+03</pdfrwt>
<pdfrwt beam="2">  1       -2 0.20991332E-01 0.43305579E+03</pdfrwt>
<totfact> 0.20610843E+03</totfact>
</mgrwt>
<rwgt>
<wgt id='morphing_basis_vector_1'> +1.9278392e-04 </wgt>
<wgt id='morphing_basis_vector_2'> +1.0939362e-04 </wgt>
<wgt id='morphing_basis_vector_3'> +1.2548266e-04 </wgt>
<wgt id='morphing_basis_vector_4'> +3.2879448e-05 </wgt>
<wgt id='morphing_basis_vector_5'> +3.9630762e-05 </wgt>
</rwgt>
</event>
<event>
 4      1 +1.9425900e-05 4.74992700e+02 7.81860800e-03 9.45758700e-02
        2 -1    0    0  501    0 +0.0000000000e+00 +0.0000000000e+00 +8.4908745831e+02 8.4908745831e+02 0.0000000000e+00 0.0000e+00 -1.0000e+00
       -2 -1    0    0    0  501 -0.0000000000e+00 -0.0000000000e+00 -6.6429568062e+01 6.6429568062e+01 0.0000000000e+00 0.0000e+00 1.0000e+00
      -13  1    1    2    0    0 -9.0399031332e+00 +1.4979630413e+02 +3.6535207811e+01 1.5445217380e+02 0.0000000000e+00 0.0000e+00 1.0000e+00
       13  1    1    2    0    0 +9.0399031332e+00 -1.4979630413e+02 +7.4612268244e+02 7.6106485258e+02 0.0000000000e+00 0.0000e+00 -1.0000e+00
<mgrwt>
<rscale>  0 0.47499269E+03</rscale>
<asrwt>0</asrwt>
<pdfrwt beam="1">  1        2 0.13062883E+00 0.47499269E+03</pdfrwt>
<pdfrwt beam="2">  1       -2 0.10219934E-01 0.47499269E+03</pdfrwt>
<totfact> 0.22918045E+03</totfact>
</mgrwt>
<rwgt>
<wgt id='morphing_basis_vector_1'> +2.4828200e-04 </wgt>
<wgt id='morphing_basis_vector_2'> +1.3551894e-04 </wgt>
<wgt id='morphing_basis_vector_3'> +1.7377518e-04 </wgt>
<wgt id='morphing_basis_vector_4'> +5.3783033e-05 </wgt>
<wgt id='morphing_basis_vector_5'> +7.2146559e-05 </wgt>
</rwgt>
</event>
<event>
 4      1 +1.9425900e-05 5.05728100e+02 7.81860800e-03 9.38704300e-02
        2 -1    0    0  501    0 +0.0000000000e+00 +0.0000000000e+00 +1.9555814354e+02 1.9555814354e+02 0.0000000000e+00 0.0000e+00 -1.0000e+00
       -2 -1    0    0    0  501 -0.0000000000e+00 -0.0000000000e+00 -3.2696269699e+02 3.2696269699e+02 0.0000000000e+00 0.0000e+00 1.0000e+00
      -13  1    1    2    0    0 -9.4204833508e+01 -2.0746523826e+02 -1.7899661321e+02 2.8975189953e+02 0.0000000000e+00 0.0000e+00 1.0000e+00
       13  1    1    2    0    0 +9.4204833508e+01 +2.0746523826e+02 +4.7592059763e+01 2.3276894100e+02 0.0000000000e+00 0.0000e+00 -1.0000e+00
<mgrwt>
<rscale>  0 0.50572806E+03</rscale>
<asrwt>0</asrwt>
<pdfrwt beam="1">  1        2 0.30085869E-01 0.50572806E+03</pdfrwt>
<pdfrwt beam="2">  1       -2 0.50301952E-01 0.50572806E+03</pdfrwt>
<totfact> 0.81996352E+02</totfact>
</mgrwt>
<rwgt>
<wgt id='morphing_basis_vector_1'> +3.0071792e-04 </wgt>
<wgt id='morphing_basis_vector_2'> +1.6955628e-04 </wgt>
<wgt id='morphing_basis_vector_3'> +2.1614354e-04 </wgt>
<wgt id='morphing_basis_vector_4'> +7.3861828e-05 </wgt>
<wgt id='morphing_basis_vector_5'> +1.0495183e-04 </wgt>
</rwgt>
</event>
<event>
 4      1 +1.9425900e-05 4.59882200e+02 7.81860800e-03 9.49439600e-02
        2 -1    0    0  501    0 +0.0000000000e+00 +0.0000000000e+00 +4.2429083897e+02 4.2429083897e+02 0.0000000000e+00 0.0000e+00 1.0000e+00
       -2 -1    0    0    0  501 -0.0000000000e+00 -0.0000000000e+00 -1.2461476979e+02 1.2461476979e+02 0.0000000000e+00 0.0000e+00 -1.0000e+00
      -13  1    1    2    0    0 +1.8040395430e+02 +1.2488160895e+02 +6.7733155208e+01 2.2962748811e+02 0.0000000000e+00 0.0000e+00 -1.0000e+00
       13  1    1    2    0    0 -1.8040395430e+02 -1.2488160895e+02 +2.3194291397e+02 3.1927812064e+02 0.0000000000e+00 0.0000e+00 1.0000e+00
<mgrwt>
<rscale>  0 0.45988218E+03</rscale>
<asrwt>0</asrwt>
<pdfrwt beam="1">  1        2 0.65275513E-01 0.45988218E+03</pdfrwt>
<pdfrwt beam="2">  1       -2 0.19171503E-01 0.45988218E+03</pdfrwt>
<totfact> 0.18941237E+03</totfact>
</mgrwt>
<rwgt>
<wgt id='morphing_basis_vector_1'> +2.2819622e-04 </wgt>
<wgt id='morphing_basis_vector_2'> +1.2952313e-04 </wgt>
<wgt id='morphing_basis_vector_3'> +1.5413572e-04 </wgt>
<wgt id='morphing_basis_vector_4'> +4.4910437e-05 </wgt>
<wgt id='morphing_basis_vector_5'> +5.9015051e-05 </wgt>
</rwgt>
</event>
<event>
 4      1 +1.9425900e-05 4.89588500e+02 7.81860800e-03 9.42339200e-02
        2 -1    0    0  501    0 +0.0000000000e+00 +0.0000000000e+00 +3.9254147756e+02 3.9254147756e+02 0.0000000000e+00 0.0000e+00 -1.0000e+00
       -2 -1    0    0    0  501 -0.0000000000e+00 -0.0000000000e+00 -1.5265702208e+02 1.5265702208e+02 0.0000000000e+00 0.0000e+00 1.0000e+00
      -13  1    1    2    0    0 -1.9915660966e+02 -8.4733708482e+01 -7.4212464898e+00 2.1655999498e+02 0.0000000000e+00 0.0000e+00 1.0000e+00
       13  1    1    2    0    0 +1.9915660966e+02 +8.4733708482e+01 +2.4730570197e+02 3.2863850467e+02 0.0000000000e+00 0.0000e+00 -1.0000e+00
<mgrwt>
<rscale>  0 0.48958845E+03</rscale>
<asrwt>0</asrwt>
<pdfrwt beam="1">  1        2 0.60390996E-01 0.48958845E+03</pdfrwt>
<pdfrwt beam="2">  1       -2 0.23485696E-01 0.48958845E+03</pdfrwt>
<totfact> 0.14748410E+03</totfact>
</mgrwt>
<rwgt>
<wgt id='morphing_basis_vector_1'> +2.7260217e-04 </wgt>
<wgt id='morphing_basis_vector_2'> +1.5231482e-04 </wgt>
<wgt id='morphing_basis_vector_3'> +1.9265829e-04 </wgt>
<wgt id='morphing_basis_vector_4'> +6.2583680e-05 </wgt>
<wgt id='morphing_basis_vector_5'> +8.6730905e-05 </wgt>
</rwgt>
</event>
<event>
 4      1 +1.9425900e-05 4.51322800e+02 7.81860800e-03 9.51591100e-02
        2 -1    0    0  501    0 +0.0000000000e+00 +0.0000000000e+00 +1.7206667484e+02 1.7206667484e+02 0.0000000000e+00 0.0000e+00 1.0000e+00
       -2 -1    0    0    0  501 -0.0000000000e+00 -0.0000000000e+00 -2.9594968727e+02 2.9594968727e+02 0.0000000000e+00 0.0000e+00 -1.0000e+00
      -13  1    1    2    0    0 -2.7249508590e+01 +1.9037051809e+02 -1.8437465162e+02 2.6641599433e+02 0.0000000000e+00 0.0000e+00 -1.0000e+00
       13  1    1    2    0    0 +2.7249508590e+01 -1.9037051809e+02 +6.0491639191e+01 2.0160036778e+02 0.0000000000e+00 0.0000e+00 1.0000e+00
<mgrwt>
<rscale>  0 0.45132285E+03</rscale>
<asrwt>0</asrwt>
<pdfrwt beam="1">  1        2 0.26471796E-01 0.45132285E+03</pdfrwt>
<pdfrwt beam="2">  1       -2 0.45530721E-01 0.45132285E+03</pdfrwt>
<totfact> 0.11506876E+03</totfact>
</mgrwt>
<rwgt>
<wgt id='morphing_basis_vector_1'> +2.1483163e-04 </wgt>
<wgt id='morphing_basis_vector_2'> +1.1809166e-04 </wgt>
<wgt id='morphing_basis_vector_3'> +1.4543833e-04 </wgt>
<wgt id='morphing_basis_vector_4'> +4.1004657e-05 </wgt>
<wgt id='morphing_basis_vector_5'> +5.2197317e-05 </wgt>
</rwgt>
</event>
<event>
 4      1 +1.9425900e-05 4.79748400e+02 7.81860800e-03 9.44630200e-02
        2 -1    0    0  501    0 +0.0000000000e+00 +0.0000000000e+00 +6.3066543295e+02 6.3066543295e+02 0.0000000000e+00 0.0000e+00 -1.0000e+00
       -2 -1    0    0    0  501 -0.0000000000e+00 -0.0000000000e+00 -9.1236362536e+01 9.1236362536e+01 0.0000000000e+00 0.0000e+00 1.0000e+00
      -13  1    1    2    0    0 -1.7830850838e+02 +1.5863658290e+02 +2.3347125685e+02 3.3386871278e+02 0.0000000000e+00 0.0000e+00 1.0000e+00
       13  1    1    2    0    0 +1.7830850838e+02 -1.5863658290e+02 +3.0595781356e+02 3.8803308270e+02 0.0000000000e+00 0.0000e+00 -1.0000e+00
<mgrwt>
<rscale>  0 0.47974835E+03</rscale>
<asrwt>0</asrwt>
<pdfrwt beam="1">  1        2 0.97025449E-01 0.47974835E+03</pdfrwt>
<pdfrwt beam="2">  1       -2 0.14036364E-01 0.47974835E+03</pdfrwt>
<totfact> 0.19998951E+03</totfact>
</mgrwt>
<rwgt>
<wgt id='morphing_basis_vector_1'> +2.6126897e-04 </wgt>
<wgt id='morphing_basis_vector_2'> +1.5715799e-04 </wgt>
<wgt id='morphing_basis_vector_3'> +1.7702242e-04 </wgt>
<wgt id='morphing_basis_vector_4'> +5.4901587e-05 </wgt>
<wgt id='morphing_basis_vector_5'> +7.6951990e-05 </wgt>
</rwgt>
</event>
<event>
 4      1 +1.9425900e-05 4.32560100e+02 7.81860800e-03 9.56488200e-02
        2 -1    0    0  501    0 +0.0000000000e+00 +0.0000000000e+00 +4.0681652306e+02 4.0681652306e+02 0.0000000000e+00 0.0000e+00 1.0000e+00
       -2 -1    0    0    0  501 -0.0000000000e+00 -0.0000000000e+00 -1.1498318218e+02 1.1498318218e+02 0.0000000000e+00 0.0000e+00 -1.0000e+00
      -13  1    1    2    0    0 -4.0913069117e+00 -1.8701795508e+02 +1.4963843522e+01 1.8766025399e+02 0.0000000000e+00 0.0000e+00 -1.0000e+00
       13  1    1    2    0    0 +4.0913069117e+00 +1.8701795508e+02 +2.7686949735e+02 3.3413945125e+02 0.0000000000e+00 0.0000e+00 1.0000e+00
<mgrwt>
<rscale>  0 0.43256009E+03</rscale>
<asrwt>0</asrwt>
<pdfrwt beam="1">  1        2 0.62587157E-01 0.43256009E+03</pdfrwt>
<pdfrwt beam="2">  1       -2 0.17689721E-01 0.43256009E+03</pdfrwt>
<totfact> 0.22622136E+03</totfact>
</mgrwt>
<rwgt>
<wgt id='morphing_basis_vector_1'> +1.9073712e-04 </wgt>
<wgt id='morphing_basis_vector_2'> +1.0461429e-04 </wgt>
<wgt id='morphing_basis_vector_3'> +1.2609956e-04 </wgt>
<wgt id='morphing_basis_vector_4'> +3.2823560e-05 </wgt>
<wgt id='morphing_basis_vector_5'> +3.9232356e-05 </wgt>
</rwgt>
</event>
<event>
 4      1 +1.9425900e-05 5.07712800e+02 7.81860800e-03 9.38267400e-02
        2 -1    0    0  501    0 +0.0000000000e+00 +0.0000000000e+00 +5.5951053136e+02 5.5951053136e+02 0.0000000000e+00 0.0000e+00 -1.0000e+00
       -2 -1    0    0    0  501 -0.0000000000e+00 -0.0000000000e+00 -1.1517758961e+02 1.1517758961e+02 0.0000000000e+00 0.0000e+00 1.0000e+00
      -13  1    1    2    0    0 -7.0429297875e+01 -1.5366785857e+02 -2.9511058233e+01 1.7159545248e+02 0.0000000000e+00 0.0000e+00 1.0000e+00
       13  1    1    2    0    0 +7.0429297875e+01 +1.5366785857e+02 +4.7384399999e+02 5.0309266848e+02 0.0000000000e+00 0.0000e+00 -1.0000e+00
<mgrwt>
<rscale>  0 0.50771281E+03</rscale>
<asrwt>0</asrwt>
<pdfrwt beam="1">  1        2 0.86078542E-01 0.50771281E+03</pdfrwt>
<pdfrwt beam="2">  1       -2 0.17719629E-01 0.50771281E+03</pdfrwt>
<totfact> 0.15783610E+03</totfact>
</mgrwt>
<rwgt>
<wgt id='morphing_basis_vector_1'> +3.0284214e-04 </wgt>
<wgt id='morphing_basis_vector_2'> +1.6714935e-04 </wgt>
<wgt id='morphing_basis_vector_3'> +2.1975293e-04 </wgt>
<wgt id='morphing_basis_vector_4'> +7.5991420e-05 </wgt>
<wgt id='morphing_basis_vector_5'> +1.0729924e-04 </wgt>
</rwgt>
</event>
<event>
 4      1 +1.9425900e-05 4.84158200e+02 7.81860800e-03 9.43596200e-02
        2 -1    0    0  501    0 +0.0000000000e+00 +0.0000000000e+00 +1.1847005066e+03 1.1847005066e+03 0.0000000000e+00 0.0000e+00 -1.0000e+00
       -2 -1    0    0    0  501 -0.0000000000e+00 -0.0000000000e+00 -4.9465916595e+01 4.9465916595e+01 0.0000000000e+00 0.0000e+00 1.0000e+00
      -13  1    1    2    0    0 -2.0612246864e+02 -1.2452010170e+02 +6.3060469205e+02 6.7502148517e+02 0.0000000000e+00 0.0000e+00 1.0000e+00
       13  1    1    2    0    0 +2.0612246864e+02 +1.2452010170e+02 +5.0462989792e+02 5.5914493799e+02 0.0000000000e+00 0.0000e+00 -1.0000e+00
<mgrwt>
<rscale>  0 0.48415822E+03</rscale>
<asrwt>0</asrwt>
<pdfrwt beam="1">  1        2 0.18226160E+00 0.48415822E+03</pdfrwt>
<pdfrwt beam="2">  1       -2 0.76101419E-02 0.48415822E+03</pdfrwt>
<totfact> 0.22624162E+03</totfact>
</mgrwt>
<rwgt>
<wgt id='morphing_basis_vector_1'> +2.7489115e-04 </wgt>
<wgt id='morphing_basis_vector_2'> +1.8173117e-04 </wgt>
<wgt id='morphing_basis_vector_3'> +1.7974276e-04 </wgt>
<wgt id='morphing_basis_vector_4'> +5.5363950e-05 </wgt>
<wgt id='morphing_basis_vector_5'> +8.1623073e-05 </wgt>
</rwgt>
</event>
<event>
 4      1 +1.9425900e-05 4.42876900e+02 7.81860800e-03 9.53763900e-02
        2 -1    0    0  501    0 +0.0000000000e+00 +0.0000000000e+00 +1.6228066973e+03 1.6228066973e+03 0.0000000000e+00 0.0000e+00 -1.0000e+00
       -2 -1    0    0    0  501 -0.0000000000e+00 -0.0000000000e+00 -3.0216153457e+01 3.0216153457e+01 0.0000000000e+00 0.0000e+00 1.0000e+00
      -13  1    1    2    0    0 +1.1564991097e+02 -1.7993172363e+02 +5.8238070049e+02 6.2041728488e+02 0.0000000000e+00 0.0000e+00 1.0000e+00
       13  1    1    2    0    0 -1.1564991097e+02 +1.7993172363e+02 +1.0102098434e+03 1.0326055659e+03 0.0000000000e+00 0.0000e+00 -1.0000e+00
<mgrwt>
<rscale>  0 0.44287685E+03</rscale>
<asrwt>0</asrwt>
<pdfrwt beam="1">  1        2 0.24966250E+00 0.44287685E+03</pdfrwt>
<pdfrwt beam="2">  1       -2 0.46486402E-02 0.44287685E+03</pdfrwt>
<totfact> 0.27476000E+03</totfact>
</mgrwt>
<rwgt>
<wgt id='morphing_basis_vector_1'> +2.0535298e-04 </wgt>
<wgt id='morphing_basis_vector_2'> +1.1699581e-04 </wgt>
<wgt id='morphing_basis_vector_3'> +1.3525114e-04 </wgt>
<wgt id='morphing_basis_vector_4'> +3.6893079e-05 </wgt>
<wgt id='morphing_basis_vector_5'> +4.6159968e-05 </wgt>
</rwgt>
</event>
<event>
 4      1 +1.9425900e-05 4.32658600e+02 7.81860800e-03 9.56461800e-02
        2 -1    0    0  501    0 +0.0000000000e+00 +0.0000000000e+00 +1.6168772742e+03 1.6168772742e+03 0.0000000000e+00 0.0000e+00 -1.0000e+00
       -2 -1    0    0    0  501 -0.0000000000e+00 -0.0000000000e+00 -2.8943677918e+01 2.8943677918e+01 0.0000000000e+00 0.0000e+00 1.0000e+00
      -13  1    1    2    0    0 +2.1052302061e+02 -1.8293174048e+01 +9.7009487446e+02 9.9284371775e+02 0.0000000000e+00 0.0000e+00 1.0000e+00
       13  1    1    2    0    0 -2.1052302061e+02 +1.8293174048e+01 +6.1783872182e+02 6.5297723437e+02 0.0000000000e+00 0.0000e+00 -1.0000e+00
<mgrwt>
<rscale>  0 0.43265864E+03</rscale>
<asrwt>0</asrwt>
<pdfrwt beam="1">  1        2 0.24875028E+00 0.43265864E+03</pdfrwt>
<pdfrwt beam="2">  1       -2 0.44528748E-02 0.43265864E+03</pdfrwt>
<totfact> 0.29533174E+03</totfact>
</mgrwt>
<rwgt>
<wgt id='morphing_basis_vector_1'> +2.0303759e-04 </wgt>
<wgt id='morphing_basis_vector_2'> +1.4221979e-04 </wgt>
<wgt id='morphing_basis_vector_3'> +1.1689715e-04 </wgt>
<wgt id='morphing_basis_vector_4'> +3.1693246e-05 </wgt>
<wgt id='morphing_basis_vector_5'> +4.0024200e-05 </wgt>
</rwgt>
</event>
<event>
 4      1 +1.9425900e-05 4.54971700e+02 7.81860800e-03 9.50667900e-02
        2 -1    0    0  501    0 +0.0000000000e+00 +0.0000000000e+00 +8.2878794268e+01 8.2878794268e+01 0.0000000000e+00 0.0000e+00 -1.0000e+00
       -2 -1    0    0    0  501 -0.0000000000e+00 -0.0000000000e+00 -6.2440342807e+02 6.2440342807e+02 0.0000000000e+00 0.0000e+00 1.0000e+00
      -13  1    1    2    0    0 +1.3437442679e+02 -1.1343903282e+02 -4.9509878776e+02 5.2540242709e+02 0.0000000000e+00 0.0000e+00 1.0000e+00
       13  1    1    2    0    0 -1.3437442679e+02 +1.1343903282e+02 -4.6425846042e+01 1.8187979526e+02 0.0000000000e+00 0.0000e+00 -1.0000e+00
<mgrwt>
<rscale>  0 0.45497166E+03</rscale>
<asrwt>0</asrwt>
<pdfrwt beam="1">  1        2 0.12750583E-01 0.45497166E+03</pdfrwt>
<pdfrwt beam="2">  1       -2 0.96062068E-01 0.45497166E+03</pdfrwt>
<totfact> 0.57451371E+02</totfact>
</mgrwt>
<rwgt>
<wgt id='morphing_basis_vector_1'> +2.1945593e-04 </wgt>
<wgt id='morphing_basis_vector_2'> +1.1980721e-04 </wgt>
<wgt id='morphing_basis_vector_3'> +1.4971084e-04 </wgt>
<wgt id='morphing_basis_vector_4'> +4.2845740e-05 </wgt>
<wgt id='morphing_basis_vector_5'> +5.4984515e-05 </wgt>
</rwgt>
</event>
<event>
 4      1 +1.9425900e-05 4.36869200e+02 7.81860800e-03 9.55340700e-02
        2 -1    0    0  501    0 +0.0000000000e+00 +0.0000000000e+00 +6.3135102264e+02 6.3135102264e+02 0.0000000000e+00 0.0000e+00 -1.0000e+00
       -2 -1    0    0    0  501 -0.0000000000e+00 -0.0000000000e+00 -7.5573938454e+01 7.5573938454e+01 0.0000000000e+00 0.0000e+00 1.0000e+00
      -13  1    1    2    0    0 +1.7787259629e+02 -8.9128785449e+01 +1.3197485537e+02 2.3874665098e+02 0.0000000000e+00 0.0000e+00 1.0000e+00
       13  1    1    2    0    0 -1.7787259629e+02 +8.9128785449e+01 +4.2380222882e+02 4.6817831011e+02 0.0000000000e+00 0.0000e+00 -1.0000e+00
<mgrwt>
<rscale>  0 0.43686924E+03</rscale>
<asrwt>0</asrwt>
<pdfrwt beam="1">  1        2 0.97130923E-01 0.43686924E+03</pdfrwt>
<pdfrwt beam="2">  1       -2 0.11626760E-01 0.43686924E+03</pdfrwt>
<totfact> 0.26892924E+03</totfact>
</mgrwt>
<rwgt>
<wgt id='morphing_basis_vector_1'> +1.9649440e-04 </wgt>
<wgt id='morphing_basis_vector_2'> +1.0892976e-04 </wgt>
<wgt id='morphing_basis_vector_3'> +1.3000383e-04 </wgt>
<wgt id='morphing_basis_vector_4'> +3.4519053e-05 </wgt>
<wgt id='morphing_basis_vector_5'> +4.2025545e-05 </wgt>
</rwgt>
</event>
<event>
 4      1 +1.9425900e-05 4.82118000e+02 7.81860800e-03 9.44073100e-02
        2 -1    0    0  501    0 +0.0000000000e+00 +0.0000000000e+00 +3.1987079443e+02 3.1987079443e+02 0.0000000000e+00 0.0000e+00 -1.0000e+00
       -2 -1    0    0    0  501 -0.0000000000e+00 -0.0000000000e+00 -1.8166535440e+02 1.8166535440e+02 0.0000000000e+00 0.0000e+00 1.0000e+00
      -13  1    1    2    0    0 -1.3877127014e+02 -1.4858185012e+02 -6.5633842250e+01 2.1363949272e+02 0.0000000000e+00 0.0000e+00 1.0000e+00
       13  1    1    2    0    0 +1.3877127014e+02 +1.4858185012e+02 +2.0383928228e+02 2.8789665612e+02 0.0000000000e+00 0.0000e+00 -1.0000e+00
<mgrwt>
<rscale>  0 0.48211800E+03</rscale>
<asrwt>0</asrwt>
<pdfrwt beam="1">  1        2 0.49210891E-01 0.48211800E+03</pdfrwt>
<pdfrwt beam="2">  1       -2 0.27948516E-01 0.48211800E+03</pdfrwt>
<totfact> 0.13772348E+03</totfact>
</mgrwt>
<rwgt>
<wgt id='morphing_basis_vector_1'> +2.6008006e-04 </wgt>
<wgt id='morphing_basis_vector_2'> +1.4402107e-04 </wgt>
<wgt id='morphing_basis_vector_3'> +1.8268456e-04 </wgt>
<wgt id='morphing_basis_vector_4'> +5.7911984e-05 </wgt>
<wgt id='morphing_basis_vector_5'> +7.9052853e-05 </wgt>
</rwgt>
</event>
<event>
 4      1 +1.9425900e-05 4.35792900e+02 7.81860800e-03 9.55626000e-02
        2 -1    0    0  501    0 +0.0000000000e+00 +0.0000000000e+00 +1.2621427799e+03 1.2621427799e+03 0.0000000000e+00 0.0000e+00 1.0000e+00
       -2 -1    0    0    0  501 -0.0000000000e+00 -0.0000000000e+00 -3.7617661374e+01 3.7617661374e+01 0.0000000000e+00 0.0000e+00 -1.0000e+00
      -13  1    1    2    0    0 -5.3414682733e+00 +2.1499035016e+02 +5.0768379231e+02 5.5135489017e+02 0.0000000000e+00 0.0000e+00 -1.0000e+00
       13  1    1    2    0    0 +5.3414682733e+00 -2.1499035016e+02 +7.1684132622e+02 7.4840555111e+02 0.0000000000e+00 0.0000e+00 1.0000e+00
<mgrwt>
<rscale>  0 0.43579289E+03</rscale>
<asrwt>0</asrwt>
<pdfrwt beam="1">  1        2 0.19417578E+00 0.43579289E+03</pdfrwt>
<pdfrwt beam="2">  1       -2 0.57873335E-02 0.43579289E+03</pdfrwt>
<totfact> 0.31074349E+03</totfact>
</mgrwt>
<rwgt>
<wgt id='morphing_basis_vector_1'> +1.9737919e-04 </wgt>
<wgt id='morphing_basis_vector_2'> +1.1504383e-04 </wgt>
<wgt id='morphing_basis_vector_3'> +1.2727309e-04 </wgt>
<wgt id='morphing_basis_vector_4'> +3.3830927e-05 </wgt>
<wgt id='morphing_basis_vector_5'> +4.1454749e-05 </wgt>
</rwgt>
</event>
<event>
 4      1 +1.9425900e-05 4.93818600e+02 7.81860800e-03 9.41372100e-02
        2 -1    0    0  501    0 +0.0000000000e+00 +0.0000000000e+00 +1.5653815842e+03 1.5653815842e+03 0.0000000000e+00 0.0000e+00 1.0000e+00
       -2 -1    0    0    0  501 -0.0000000000e+00 -0.0000000000e+00 -3.8945258572e+01 3.8945258572e+01 0.0000000000e+00 0.0000e+00 -1.0000e+00
      -13  1    1    2    0    0 -2.1027917737e+02 -1.1376545574e+02 +5.6283480955e+02 6.1150873599e+02 0.0000000000e+00 0.0000e+00 1.0000e+00
       13  1    1    2    0    0 +2.1027917737e+02 +1.1376545574e+02 +9.6360151605e+02 9.9281810675e+02 0.0000000000e+00 0.0000e+00 -1.0000e+00
<mgrwt>
<rscale>  0 0.49381855E+03</rscale>
<asrwt>0</asrwt>
<pdfrwt beam="1">  1        2 0.24082789E+00 0.49381855E+03</pdfrwt>
<pdfrwt beam="2">  1       -2 0.59915795E-02 0.49381855E+03</pdfrwt>
<totfact> 0.20080969E+03</totfact>
</mgrwt>
<rwgt>
<wgt id='morphing_basis_vector_1'> +2.8188253e-04 </wgt>
<wgt id='morphing_basis_vector_2'> +1.6329851e-04 </wgt>
<wgt id='morphing_basis_vector_3'> +1.9764839e-04 </wgt>
<wgt id='morphing_basis_vector_4'> +6.4608986e-05 </wgt>
<wgt id='morphing_basis_vector_5'> +9.1373320e-05 </wgt>
</rwgt>
</event>
<event>
 4      1 +1.9425900e-05 4.48967900e+02 7.81860800e-03 9.52191900e-02
        2 -1    0    0  501    0 +0.0000000000e+00 +0.0000000000e+00 +2.9073667447e+02 2.9073667447e+02 0.0000000000e+00 0.0000e+00 1.0000e+00
       -2 -1    0    0    0  501 -0.0000000000e+00 -0.0000000000e+00 -1.7332882297e+02 1.7332882297e+02 0.0000000000e+00 0.0000e+00 -1.0000e+00
      -13  1    1    2    0    0 -8.2494263544e+01 -1.3712009637e+02 -1.0402532999e+02 1.9086249926e+02 0.0000000000e+00 0.0000e+00 -1.0000e+00
       13  1    1    2    0    0 +8.2494263544e+01 +1.3712009637e+02 +2.2143318149e+02 2.7320299817e+02 0.0000000000e+00 0.0000e+00 1.0000e+00
<mgrwt>
<rscale>  0 0.44896791E+03</rscale>
<asrwt>0</asrwt>
<pdfrwt beam="1">  1        2 0.44728719E-01 0.44896791E+03</pdfrwt>
<pdfrwt beam="2">  1       -2 0.26665973E-01 0.44896791E+03</pdfrwt>
<totfact> 0.16595197E+03</totfact>
</mgrwt>
<rwgt>
<wgt id='morphing_basis_vector_1'> +2.1116468e-04 </wgt>
<wgt id='morphing_basis_vector_2'> +1.1474862e-04 </wgt>
<wgt id='morphing_basis_vector_3'> +1.4321914e-04 </wgt>
<wgt id='morphing_basis_vector_4'> +3.9981689e-05 </wgt>
<wgt id='morphing_basis_vector_5'> +5.0408460e-05 </wgt>
</rwgt>
</event>
<event>
 4      1 +1.9425900e-05 4.83442700e+02 7.81860800e-03 9.43763200e-02
        2 -1    0    0  501    0 +0.0000000000e+00 +0.0000000000e+00 +2.4014521499e+02 2.4014521499e+02 0.0000000000e+00 0.0000e+00 -1.0000e+00
       -2 -1    0    0    0  501 -0.0000000000e+00 -0.0000000000e+00 -2.4330781056e+02 2.4330781056e+02 0.0000000000e+00 0.0000e+00 1.0000e+00
      -13  1    1    2    0    0 +1.1303101959e+01 +2.1154907832e+02 -1.1798152817e+02 2.4248796597e+02 0.0000000000e+00 0.0000e+00 1.0000e+00
       13  1    1    2    0    0 -1.1303101959e+01 -2.1154907832e+02 +1.1481893261e+02 2.4096505957e+02 0.0000000000e+00 0.0000e+00 -1.0000e+00
<mgrwt>
<rscale>  0 0.48344268E+03</rscale>
<asrwt>0</asrwt>
<pdfrwt beam="1">  1        2 0.36945418E-01 0.48344268E+03</pdfrwt>
<pdfrwt beam="2">  1       -2 0.37431971E-01 0.48344268E+03</pdfrwt>
<totfact> 0.11315132E+03</totfact>
</mgrwt>
<rwgt>
<wgt id='morphing_basis_vector_1'> +2.6249093e-04 </wgt>
<wgt id='morphing_basis_vector_2'> +1.4616488e-04 </wgt>
<wgt id='morphing_basis_vector_3'> +1.8430645e-04 </wgt>
<wgt id='morphing_basis_vector_4'> +5.8647191e-05 </wgt>
<wgt id='morphing_basis_vector_5'> +8.0390434e-05 </wgt>
</rwgt>
</event>
<event>
 4      1 +1.9425900e-05 4.46399700e+02 7.81860800e-03 9.52851500e-02
        2 -1    0    0  501    0 +0.0000000000e+00 +0.0000000000e+00 +9.0561121196e+02 9.0561121196e+02 0.0000000000e+00 0.0000e+00 -1.0000e+00
       -2 -1    0    0    0  501 -0.0000000000e+00 -0.0000000000e+00 -5.5010545281e+01 5.5010545281e+01 0.0000000000e+00 0.0000e+00 1.0000e+00
      -13  1    1    2    0    0 -1.1458138132e+02 +1.8382815773e+02 +3.0948555651e+02 3.7776049847e+02 0.0000000000e+00 0.0000e+00 1.0000e+00
       13  1    1    2    0    0 +1.1458138132e+02 -1.8382815773e+02 +5.4111511017e+02 5.8286125877e+02 0.0000000000e+00 0.0000e+00 -1.0000e+00
<mgrwt>
<rscale>  0 0.44639967E+03</rscale>
<asrwt>0</asrwt>
<pdfrwt beam="1">  1        2 0.13932479E+00 0.44639967E+03</pdfrwt>
<pdfrwt beam="2">  1       -2 0.84631615E-02 0.44639967E+03</pdfrwt>
<totfact> 0.28227162E+03</totfact>
</mgrwt>
<rwgt>
<wgt id='morphing_basis_vector_1'> +2.1018547e-04 </wgt>
<wgt id='morphing_basis_vector_2'> +1.2032174e-04 </wgt>
<wgt id='morphing_basis_vector_3'> +1.3881044e-04 </wgt>
<wgt id='morphing_basis_vector_4'> +3.8402141e-05 </wgt>
<wgt id='morphing_basis_vector_5'> +4.8669898e-05 </wgt>
</rwgt>
</event>
<event>
 4      1 +1.9425900e-05 4.68689300e+02 7.81860800e-03 9.47276500e-02
        2 -1    0    0  501    0 +0.0000000000e+00 +0.0000000000e+00 +2.8652938630e+02 2.8652938630e+02 0.0000000000e+00 0.0000e+00 1.0000e+00
       -2 -1    0    0    0  501 -0.0000000000e+00 -0.0000000000e+00 -1.9166414117e+02 1.9166414117e+02 0.0000000000e+00 0.0000e+00 -1.0000e+00
      -13  1    1    2    0    0 -5.7241241316e+01 -1.2973014610e+02 -1.4292774890e+02 2.0133259031e+02 0.0000000000e+00 0.0000e+00 -1.0000e+00
       13  1    1    2    0    0 +5.7241241316e+01 +1.2973014610e+02 +2.3779299403e+02 2.7686093716e+02 0.0000000000e+00 0.0000e+00 1.0000e+00
<mgrwt>
<rscale>  0 0.46868927E+03</rscale>
<asrwt>0</asrwt>
<pdfrwt beam="1">  1        2 0.44081444E-01 0.46868927E+03</pdfrwt>
<pdfrwt beam="2">  1       -2 0.29486791E-01 0.46868927E+03</pdfrwt>
<totfact> 0.14182388E+03</totfact>
</mgrwt>
<rwgt>
<wgt id='morphing_basis_vector_1'> +2.3876429e-04 </wgt>
<wgt id='morphing_basis_vector_2'> +1.3002047e-04 </wgt>
<wgt id='morphing_basis_vector_3'> +1.6593805e-04 </wgt>
<wgt id='morphing_basis_vector_4'> +5.0154191e-05 </wgt>
<wgt id='morphing_basis_vector_5'> +6.6404287e-05 </wgt>
</rwgt>
</event>
<event>
 4      1 +1.9425900e-05 4.41015500e+02 7.81860800e-03 9.54249600e-02
        2 -1    0    0  501    0 +0.0000000000e+00 +0.0000000000e+00 +8.7895077045e+02 8.7895077045e+02 0.0000000000e+00 0.0000e+00 1.0000e+00
       -2 -1    0    0    0  501 -0.0000000000e+00 -0.0000000000e+00 -5.5320127113e+01 5.5320127113e+01 0.0000000000e+00 0.0000e+00 -1.0000e+00
      -13  1    1    2    0    0 -2.0104574291e+02 -9.0546518242e+01 +4.1683102263e+02 4.7155716953e+02 0.0000000000e+00 0.0000e+00 -1.0000e+00
       13  1    1    2    0    0 +2.0104574291e+02 +9.0546518242e+01 +4.0679962071e+02 4.6271372804e+02 0.0000000000e+00 0.0000e+00 1.0000e+00
<mgrwt>
<rscale>  0 0.44101550E+03</rscale>
<asrwt>0</asrwt>
<pdfrwt beam="1">  1        2 0.13522319E+00 0.44101550E+03</pdfrwt>
<pdfrwt beam="2">  1       -2 0.85107894E-02 0.44101550E+03</pdfrwt>
<totfact> 0.29103895E+03</totfact>
</mgrwt>
<rwgt>
<wgt id='morphing_basis_vector_1'> +2.0726125e-04 </wgt>
<wgt id='morphing_basis_vector_2'> +1.2892350e-04 </wgt>
<wgt id='morphing_basis_vector_3'> +1.3023221e-04 </wgt>
<wgt id='morphing_basis_vector_4'> +3.5513156e-05 </wgt>
<wgt id='morphing_basis_vector_5'> +4.5124596e-05 </wgt>
</rwgt>
</event>
<event>
 4      1 +1.9425900e-05 4.76999400e+02 7.81860800e-03 9.45280800e-02
        2 -1    0    0  501    0 +0.0000000000e+00 +0.0000000000e+00 +4.9250083537e+02 4.9250083537e+02 0.0000000000e+00 0.0000e+00 1.0000e+00
       -2 -1    0    0    0  501 -0.0000000000e+00 -0.0000000000e+00 -1.1549645573e+02 1.1549645573e+02 0.0000000000e+00 0.0000e+00 -1.0000e+00
      -13  1    1    2    0    0 +1.5074947629e+02 +1.3847579683e+02 +3.4451361738e+02 4.0073754937e+02 0.0000000000e+00 0.0000e+00 1.0000e+00
       13  1    1    2    0    0 -1.5074947629e+02 -1.3847579683e+02 +3.2490762262e+01 2.0725974173e+02 0.0000000000e+00 0.0000e+00 -1.0000e+00
<mgrwt>
<rscale>  0 0.47699937E+03</rscale>
<asrwt>0</asrwt>
<pdfrwt beam="1">  1        2 0.75769358E-01 0.47699937E+03</pdfrwt>
<pdfrwt beam="2">  1       -2 0.17768686E-01 0.47699937E+03</pdfrwt>
<totfact> 0.18158440E+03</totfact>
</mgrwt>
<rwgt>
<wgt id='morphing_basis_vector_1'> +2.9553122e-04 </wgt>
<wgt id='morphing_basis_vector_2'> +2.7419195e-04 </wgt>
<wgt id='morphing_basis_vector_3'> +1.5304650e-04 </wgt>
<wgt id='morphing_basis_vector_4'> +4.1706674e-05 </wgt>
<wgt id='morphing_basis_vector_5'> +7.6148982e-05 </wgt>
</rwgt>
</event>
<event>
 4      1 +1.9425900e-05 4.61870900e+02 7.81860800e-03 9.48946800e-02
        2 -1    0    0  501    0 +0.0000000000e+00 +0.0000000000e+00 +5.9348004334e+02 5.9348004334e+02 0.0000000000e+00 0.0000e+00 -1.0000e+00
       -2 -1    0    0    0  501 -0.0000000000e+00 -0.0000000000e+00 -8.9861783416e+01 8.9861783416e+01 0.0000000000e+00 0.0000e+00 1.0000e+00
      -13  1    1    2    0    0 -1.8237172176e+02 +8.1173605167e+01 +8.0016759898e+01 2.1506110977e+02 0.0000000000e+00 0.0000e+00 1.0000e+00
       13  1    1    2    0    0 +1.8237172176e+02 -8.1173605167e+01 +4.2360150003e+02 4.6828071698e+02 0.0000000000e+00 0.0000e+00 -1.0000e+00
<mgrwt>
<rscale>  0 0.46187087E+03</rscale>
<asrwt>0</asrwt>
<pdfrwt beam="1">  1        2 0.91304620E-01 0.46187087E+03</pdfrwt>
<pdfrwt beam="2">  1       -2 0.13824890E-01 0.46187087E+03</pdfrwt>
<totfact> 0.21985913E+03</totfact>
</mgrwt>
<rwgt>
<wgt id='morphing_basis_vector_1'> +2.2962584e-04 </wgt>
<wgt id='morphing_basis_vector_2'> +1.2680178e-04 </wgt>
<wgt id='morphing_basis_vector_3'> +1.5731588e-04 </wgt>
<wgt id='morphing_basis_vector_4'> +4.6257446e-05 </wgt>
<wgt id='morphing_basis_vector_5'> +6.0583697e-05 </wgt>
</rwgt>
</event>
<event>
 4      1 +1.9425900e-05 4.82260600e+02 7.81860800e-03 9.44039700e-02
        2 -1    0    0  501    0 +0.0000000000e+00 +0.0000000000e+00 +7.4242375123e+01 7.4242375123e+01 0.0000000000e+00 0.0000e+00 -1.0000e+00
       -2 -1    0    0    0  501 -0.0000000000e+00 -0.0000000000e+00 -7.8316213823e+02 7.8316213823e+02 0.0000000000e+00 0.0000e+00 1.0000e+00
      -13  1    1    2    0    0 +1.1503761214e+02 -1.2308328581e+02 -4.7751707870e+01 1.7510960298e+02 0.0000000000e+00 0.0000e+00 1.0000e+00
       13  1    1    2    0    0 -1.1503761214e+02 +1.2308328581e+02 -6.6116805523e+02 6.8229491037e+02 0.0000000000e+00 0.0000e+00 -1.0000e+00
<mgrwt>
<rscale>  0 0.48226058E+03</rscale>
<asrwt>0</asrwt>
<pdfrwt beam="1">  1        2 0.11421904E-01 0.48226058E+03</pdfrwt>
<pdfrwt beam="2">  1       -2 0.12048648E+00 0.48226058E+03</pdfrwt>
<totfact> 0.37713083E+02</totfact>
</mgrwt>
<rwgt>
<wgt id='morphing_basis_vector_1'> +3.3242819e-04 </wgt>
<wgt id='morphing_basis_vector_2'> +3.6782455e-04 </wgt>
<wgt id='morphing_basis_vector_3'> +1.4676330e-04 </wgt>
<wgt id='morphing_basis_vector_4'> +3.4652484e-05 </wgt>
<wgt id='morphing_basis_vector_5'> +8.2516808e-05 </wgt>
</rwgt>
</event>
<event>
 4      1 +1.9425900e-05 4.73809700e+02 7.81860800e-03 9.46041600e-02
        2 -1    0    0  501    0 +0.0000000000e+00 +0.0000000000e+00 +1.0583432189e+03 1.0583432189e+03 0.0000000000e+00 0.0000e+00 1.0000e+00
       -2 -1    0    0    0  501 -0.0000000000e+00 -0.0000000000e+00 -5.3029974365e+01 5.3029974365e+01 0.0000000000e+00 0.0000e+00 -1.0000e+00
      -13  1    1    2    0    0 -2.0430171805e+02 -1.1779926099e+02 +5.5552691174e+02 6.0351139803e+02 0.0000000000e+00 0.0000e+00 1.0000e+00
       13  1    1    2    0    0 +2.0430171805e+02 +1.1779926099e+02 +4.4978633279e+02 5.0786179523e+02 0.0000000000e+00 0.0000e+00 -1.0000e+00
<mgrwt>
<rscale>  0 0.47380972E+03</rscale>
<asrwt>0</asrwt>
<pdfrwt beam="1">  1        2 0.16282202E+00 0.47380972E+03</pdfrwt>
<pdfrwt beam="2">  1       -2 0.81584584E-02 0.47380972E+03</pdfrwt>
<totfact> 0.24079114E+03</totfact>
</mgrwt>
<rwgt>
<wgt id='morphing_basis_vector_1'> +2.5763934e-04 </wgt>
<wgt id='morphing_basis_vector_2'> +1.6908271e-04 </wgt>
<wgt id='morphing_basis_vector_3'> +1.6620736e-04 </wgt>
<wgt id='morphing_basis_vector_4'> +4.9887983e-05 </wgt>
<wgt id='morphing_basis_vector_5'> +7.1589125e-05 </wgt>
</rwgt>
</event>
<event>
 4      1 +1.9425900e-05 4.71443200e+02 7.81860800e-03 9.46610300e-02
        2 -1    0    0  501    0 +0.0000000000e+00 +0.0000000000e+00 +5.9872430584e+02 5.9872430584e+02 0.0000000000e+00 0.0000e+00 1.0000e+00
       -2 -1    0    0    0  501 -0.0000000000e+00 -0.0000000000e+00 -9.2805103873e+01 9.2805103873e+01 0.0000000000e+00 0.0000e+00 -1.0000e+00
      -13  1    1    2    0    0 -1.5217760923e+02 -1.7766411740e+02 +2.1039337086e+02 3.1462347952e+02 0.0000000000e+00 0.0000e+00 -1.0000e+00
       13  1    1    2    0    0 +1.5217760923e+02 +1.7766411740e+02 +2.9552583111e+02 3.7690593020e+02 0.0000000000e+00 0.0000e+00 1.0000e+00
<mgrwt>
<rscale>  0 0.47144319E+03</rscale>
<asrwt>0</asrwt>
<pdfrwt beam="1">  1        2 0.92111429E-01 0.47144319E+03</pdfrwt>
<pdfrwt beam="2">  1       -2 0.14277709E-01 0.47144319E+03</pdfrwt>
<totfact> 0.20675572E+03</totfact>
</mgrwt>
<rwgt>
<wgt id='morphing_basis_vector_1'> +2.4776572e-04 </wgt>
<wgt id='morphing_basis_vector_2'> +1.4752436e-04 </wgt>
<wgt id='morphing_basis_vector_3'> +1.6660937e-04 </wgt>
<wgt id='morphing_basis_vector_4'> +5.0368680e-05 </wgt>
<wgt id='morphing_basis_vector_5'> +6.9115873e-05 </wgt>
</rwgt>
</event>
<event>
 4      1 +1.9425900e-05 5.10662200e+02 7.81860800e-03 9.37622000e-02
        2 -1    0    0  501    0 +0.0000000000e+00 +0.0000000000e+00 +1.7196657920e+03 1.7196657920e+03 0.0000000000e+00 0.0000e+00 1.0000e+00
       -2 -1    0    0    0  501 -0.0000000000e+00 -0.0000000000e+00 -3.7910832723e+01 3.7910832723e+01 0.0000000000e+00 0.0000e+00 -1.0000e+00
      -13  1    1    2    0    0 +3.8949345441e+01 +2.2057986664e+02 +4.1904864012e+02 4.7515712335e+02 0.0000000000e+00 0.0000e+00 -1.0000e+00
       13  1    1    2    0    0 -3.8949345441e+01 -2.2057986664e+02 +1.2627063192e+03 1.2824195014e+03 0.0000000000e+00 0.0000e+00 1.0000e+00
<mgrwt>
<rscale>  0 0.51066217E+03</rscale>
<asrwt>0</asrwt>
<pdfrwt beam="1">  1        2 0.26456391E+00 0.51066217E+03</pdfrwt>
<pdfrwt beam="2">  1       -2 0.58324371E-02 0.51066217E+03</pdfrwt>
<totfact> 0.17251739E+03</totfact>
</mgrwt>
<rwgt>
<wgt id='morphing_basis_vector_1'> +3.0934437e-04 </wgt>
<wgt id='morphing_basis_vector_2'> +1.7380076e-04 </wgt>
<wgt id='morphing_basis_vector_3'> +2.2394663e-04 </wgt>
<wgt id='morphing_basis_vector_4'> +7.7785823e-05 </wgt>
<wgt id='morphing_basis_vector_5'> +1.1097901e-04 </wgt>
</rwgt>
</event>
<event>
 4      1 +1.9425900e-05 4.72029400e+02 7.81860800e-03 9.46469100e-02
        2 -1    0    0  501    0 +0.0000000000e+00 +0.0000000000e+00 +3.8302563824e+02 3.8302563824e+02 0.0000000000e+00 0.0000e+00 -1.0000e+00
       -2 -1    0    0    0  501 -0.0000000000e+00 -0.0000000000e+00 -1.4542873964e+02 1.4542873964e+02 0.0000000000e+00 0.0000e+00 1.0000e+00
      -13  1    1    2    0    0 -1.6912911000e+01 +1.7721146357e+02 -5.4686398587e+01 1.8622715046e+02 0.0000000000e+00 0.0000e+00 1.0000e+00
       13  1    1    2    0    0 +1.6912911000e+01 -1.7721146357e+02 +2.9228329719e+02 3.4222722743e+02 0.0000000000e+00 0.0000e+00 -1.0000e+00
<mgrwt>
<rscale>  0 0.47202939E+03</rscale>
<asrwt>0</asrwt>
<pdfrwt beam="1">  1        2 0.58927021E-01 0.47202939E+03</pdfrwt>
<pdfrwt beam="2">  1       -2 0.22373652E-01 0.47202939E+03</pdfrwt>
<totfact> 0.16439642E+03</totfact>
</mgrwt>
<rwgt>
<wgt id='morphing_basis_vector_1'> +2.4401565e-04 </wgt>
<wgt id='morphing_basis_vector_2'> +1.3367427e-04 </wgt>
<wgt id='morphing_basis_vector_3'> +1.6991550e-04 </wgt>
<wgt id='morphing_basis_vector_4'> +5.1983903e-05 </wgt>
<wgt id='morphing_basis_vector_5'> +6.9420048e-05 </wgt>
</rwgt>
</event>
<event>
 4      1 +1.9425900e-05 4.98634800e+02 7.81860800e-03 9.40283600e-02
        2 -1    0    0  501    0 +0.0000000000e+00 +0.0000000000e+00 +8.8725229642e+02 8.8725229642e+02 0.0000000000e+00 0.0000e+00 -1.0000e+00
       -2 -1    0    0    0  501 -0.0000000000e+00 -0.0000000000e+00 -7.0058047453e+01 7.0058047453e+01 0.0000000000e+00 0.0000e+00 1.0000e+00
      -13  1    1    2    0    0 +1.8079682523e+02 -1.3689309969e+02 +2.0970869868e+02 3.0887691895e+02 0.0000000000e+00 0.0000e+00 1.0000e+00
       13  1    1    2    0    0 -1.8079682523e+02 +1.3689309969e+02 +6.0748555029e+02 6.4843342493e+02 0.0000000000e+00 0.0000e+00 -1.0000e+00
<mgrwt>
<rscale>  0 0.49863479E+03</rscale>
<asrwt>0</asrwt>
<pdfrwt beam="1">  1        2 0.13650035E+00 0.49863479E+03</pdfrwt>
<pdfrwt beam="2">  1       -2 0.10778162E-01 0.49863479E+03</pdfrwt>
<totfact> 0.19919496E+03</totfact>
</mgrwt>
<rwgt>
<wgt id='morphing_basis_vector_1'> +2.8832940e-04 </wgt>
<wgt id='morphing_basis_vector_2'> +1.6256286e-04 </wgt>
<wgt id='morphing_basis_vector_3'> +2.0543340e-04 </wgt>
<wgt id='morphing_basis_vector_4'> +6.8634339e-05 </wgt>
<wgt id='morphing_basis_vector_5'> +9.6667542e-05 </wgt>
</rwgt>
</event>
<event>
 4      1 +1.9425900e-05 4.93209900e+02 7.81860800e-03 9.41510600e-02
        2 -1    0    0  501    0 +0.0000000000e+00 +0.0000000000e+00 +1.2337035830e+03 1.2337035830e+03 0.0000000000e+00 0.0000e+00 1.0000e+00
       -2 -1    0    0    0  501 -0.0000000000e+00 -0.0000000000e+00 -4.9293847229e+01 4.9293847229e+01 0.0000000000e+00 0.0000e+00 -1.0000e+00
      -13  1    1    2    0    0 +2.5761471100e+01 -1.8051777450e+02 +1.0240843638e+03 1.0401918595e+03 0.0000000000e+00 0.0000e+00 1.0000e+00
       13  1    1    2    0    0 -2.5761471100e+01 +1.8051777450e+02 +1.6032537199e+02 2.4280557079e+02 0.0000000000e+00 0.0000e+00 -1.0000e+00
<mgrwt>
<rscale>  0 0.49320988E+03</rscale>
<asrwt>0</asrwt>
<pdfrwt beam="1">  1        2 0.18980053E+00 0.49320988E+03</pdfrwt>
<pdfrwt beam="2">  1       -2 0.75836697E-02 0.49320988E+03</pdfrwt>
<totfact> 0.21330052E+03</totfact>
</mgrwt>
<rwgt>
<wgt id='morphing_basis_vector_1'> +3.4951898e-04 </wgt>
<wgt id='morphing_basis_vector_2'> +3.7578658e-04 </wgt>
<wgt id='morphing_basis_vector_3'> +1.6615615e-04 </wgt>
<wgt id='morphing_basis_vector_4'> +3.8722286e-05 </wgt>
<wgt id='morphing_basis_vector_5'> +9.3626016e-05 </wgt>
</rwgt>
</event>
<event>
 4      1 +1.9425900e-05 4.60761200e+02 7.81860800e-03 9.49221400e-02
        2 -1    0    0  501    0 +0.0000000000e+00 +0.0000000000e+00 +6.8528456205e+02 6.8528456205e+02 0.0000000000e+00 0.0000e+00 1.0000e+00
       -2 -1    0    0    0  501 -0.0000000000e+00 -0.0000000000e+00 -7.7449909308e+01 7.7449909308e+01 0.0000000000e+00 0.0000e+00 -1.0000e+00
      -13  1    1    2    0    0 -1.3832550072e+02 +1.2900013270e+02 +8.6184644288e+01 2.0785276351e+02 0.0000000000e+00 0.0000e+00 -1.0000e+00
       13  1    1    2    0    0 +1.3832550072e+02 -1.2900013270e+02 +5.2165000845e+02 5.5488170785e+02 0.0000000000e+00 0.0000e+00 1.0000e+00
<mgrwt>
<rscale>  0 0.46076123E+03</rscale>
<asrwt>0</asrwt>
<pdfrwt beam="1">  1        2 0.10542839E+00 0.46076123E+03</pdfrwt>
<pdfrwt beam="2">  1       -2 0.11915371E-01 0.46076123E+03</pdfrwt>
<totfact> 0.23499749E+03</totfact>
</mgrwt>
<rwgt>
<wgt id='morphing_basis_vector_1'> +2.2776179e-04 </wgt>
<wgt id='morphing_basis_vector_2'> +1.2502892e-04 </wgt>
<wgt id='morphing_basis_vector_3'> +1.5619159e-04 </wgt>
<wgt id='morphing_basis_vector_4'> +4.5742295e-05 </wgt>
<wgt id='morphing_basis_vector_5'> +5.9648613e-05 </wgt>
</rwgt>
</event>
<event>
 4      1 +1.9425900e-05 4.91884400e+02 7.81860800e-03 9.41813000e-02
        2 -1    0    0  501    0 +0.0000000000e+00 +0.0000000000e+00 +3.9543941492e+02 3.9543941492e+02 0.0000000000e+00 0.0000e+00 1.0000e+00
       -2 -1    0    0    0  501 -0.0000000000e+00 -0.0000000000e+00 -1.5296289272e+02 1.5296289272e+02 0.0000000000e+00 0.0000e+00 -1.0000e+00
      -13  1    1    2    0    0 +1.2289001355e+02 -2.0343666473e+02 +5.0733452840e+01 2.4302739603e+02 0.0000000000e+00 0.0000e+00 -1.0000e+00
       13  1    1    2    0    0 -1.2289001355e+02 +2.0343666473e+02 +1.9174306936e+02 3.0537491160e+02 0.0000000000e+00 0.0000e+00 1.0000e+00
<mgrwt>
<rscale>  0 0.49188436E+03</rscale>
<asrwt>0</asrwt>
<pdfrwt beam="1">  1        2 0.60836833E-01 0.49188436E+03</pdfrwt>
<pdfrwt beam="2">  1       -2 0.23532753E-01 0.49188436E+03</pdfrwt>
<totfact> 0.14578765E+03</totfact>
</mgrwt>
<rwgt>
<wgt id='morphing_basis_vector_1'> +2.7849387e-04 </wgt>
<wgt id='morphing_basis_vector_2'> +1.6097447e-04 </wgt>
<wgt id='morphing_basis_vector_3'> +1.9494111e-04 </wgt>
<wgt id='morphing_basis_vector_4'> +6.3361629e-05 </wgt>
<wgt id='morphing_basis_vector_5'> +8.9269573e-05 </wgt>
</rwgt>
</event>
<event>
 4      1 +1.9425900e-05 4.50255100e+02 7.81860800e-03 9.51863000e-02
        2 -1    0    0  501    0 +0.0000000000e+00 +0.0000000000e+00 +7.2511009097e+01 7.2511009097e+01 0.0000000000e+00 0.0000e+00 1.0000e+00
       -2 -1    0    0    0  501 -0.0000000000e+00 -0.0000000000e+00 -6.9896164522e+02 6.9896164522e+02 0.0000000000e+00 0.0000e+00 -1.0000e+00
      -13  1    1    2    0    0 -8.0684707616e+01 -1.7699202882e+02 -5.0742542676e+02 5.4343055125e+02 0.0000000000e+00 0.0000e+00 -1.0000e+00
       13  1    1    2    0    0 +8.0684707616e+01 +1.7699202882e+02 -1.1902520937e+02 2.2804210307e+02 0.0000000000e+00 0.0000e+00 1.0000e+00
<mgrwt>
<rscale>  0 0.45025510E+03</rscale>
<asrwt>0</asrwt>
<pdfrwt beam="1">  1        2 0.11155540E-01 0.45025510E+03</pdfrwt>
<pdfrwt beam="2">  1       -2 0.10753256E+00 0.45025510E+03</pdfrwt>
<totfact> 0.51768415E+02</totfact>
</mgrwt>
<rwgt>
<wgt id='morphing_basis_vector_1'> +2.1347110e-04 </wgt>
<wgt id='morphing_basis_vector_2'> +1.1752172e-04 </wgt>
<wgt id='morphing_basis_vector_3'> +1.4422065e-04 </wgt>
<wgt id='morphing_basis_vector_4'> +4.0484132e-05 </wgt>
<wgt id='morphing_basis_vector_5'> +5.1398498e-05 </wgt>
</rwgt>
</event>
<event>
 4      1 +1.9425900e-05 4.64962000e+02 7.81860800e-03 9.48185800e-02
        2 -1    0    0  501    0 +0.0000000000e+00 +0.0000000000e+00 +1.0893344856e+03 1.0893344856e+03 0.0000000000e+00 0.0000e+00 -1.0000e+00
       -2 -1    0    0    0  501 -0.0000000000e+00 -0.0000000000e+00 -4.9615085073e+01 4.9615085073e+01 0.0000000000e+00 0.0000e+00 1.0000e+00
      -13  1    1    2    0    0 +1.6404221462e+02 -6.2598653091e+01 +1.4660214622e+02 2.2873702984e+02 0.0000000000e+00 0.0000e+00 1.0000e+00
       13  1    1    2    0    0 -1.6404221462e+02 +6.2598653091e+01 +8.9311725426e+02 9.1021254078e+02 0.0000000000e+00 0.0000e+00 -1.0000e+00
<mgrwt>
<rscale>  0 0.46496203E+03</rscale>
<asrwt>0</asrwt>
<pdfrwt beam="1">  1        2 0.16758990E+00 0.46496203E+03</pdfrwt>
<pdfrwt beam="2">  1       -2 0.76330908E-02 0.46496203E+03</pdfrwt>
<totfact> 0.25575070E+03</totfact>
</mgrwt>
<rwgt>
<wgt id='morphing_basis_vector_1'> +2.3355112e-04 </wgt>
<wgt id='morphing_basis_vector_2'> +1.2769576e-04 </wgt>
<wgt id='morphing_basis_vector_3'> +1.6129041e-04 </wgt>
<wgt id='morphing_basis_vector_4'> +4.8033173e-05 </wgt>
<wgt id='morphing_basis_vector_5'> +6.3169022e-05 </wgt>
</rwgt>
</event>
<event>
 4      1 +1.9425900e-05 4.41003800e+02 7.81860800e-03 9.54252700e-02
        2 -1    0    0  501    0 +0.0000000000e+00 +0.0000000000e+00 +1.3702156317e+02 1.3702156317e+02 0.0000000000e+00 0.0000e+00 -1.0000e+00
       -2 -1    0    0    0  501 -0.0000000000e+00 -0.0000000000e+00 -3.5484256860e+02 3.5484256860e+02 0.0000000000e+00 0.0000e+00 1.0000e+00
      -13  1    1    2    0    0 +1.4857837150e+02 +1.5169246191e+02 -1.7522284278e+02 2.7529834745e+02 0.0000000000e+00 0.0000e+00 1.0000e+00
       13  1    1    2    0    0 -1.4857837150e+02 -1.5169246191e+02 -4.2598162650e+01 2.1656578432e+02 0.0000000000e+00 0.0000e+00 -1.0000e+00
<mgrwt>
<rscale>  0 0.44100378E+03</rscale>
<asrwt>0</asrwt>
<pdfrwt beam="1">  1        2 0.21080241E-01 0.44100378E+03</pdfrwt>
<pdfrwt beam="2">  1       -2 0.54591164E-01 0.44100378E+03</pdfrwt>
<totfact> 0.10564114E+03</totfact>
</mgrwt>
<rwgt>
<wgt id='morphing_basis_vector_1'> +2.0281408e-04 </wgt>
<wgt id='morphing_basis_vector_2'> +1.1523466e-04 </wgt>
<wgt id='morphing_basis_vector_3'> +1.3340081e-04 </wgt>
<wgt id='morphing_basis_vector_4'> +3.6110009e-05 </wgt>
<wgt id='morphing_basis_vector_5'> +4.4859661e-05 </wgt>
</rwgt>
</event>
<event>
 4      1 +1.9425900e-05 4.70452000e+02 7.81860800e-03 9.46849500e-02
        2 -1    0    0  501    0 +0.0000000000e+00 +0.0000000000e+00 +2.4439110112e+02 2.4439110112e+02 0.0000000000e+00 0.0000e+00 -1.0000e+00
       -2 -1    0    0    0  501 -0.0000000000e+00 -0.0000000000e+00 -2.2640465196e+02 2.2640465196e+02 0.0000000000e+00 0.0000e+00 1.0000e+00
      -13  1    1    2    0    0 +1.1854898037e+02 -8.1978710306e+01 -1.7703748407e+02 2.2829069288e+02 0.0000000000e+00 0.0000e+00 1.0000e+00
       13  1    1    2    0    0 -1.1854898037e+02 +8.1978710306e+01 +1.9502393323e+02 2.4250506020e+02 0.0000000000e+00 0.0000e+00 -1.0000e+00
<mgrwt>
<rscale>  0 0.47045205E+03</rscale>
<asrwt>0</asrwt>
<pdfrwt beam="1">  1        2 0.37598631E-01 0.47045205E+03</pdfrwt>
<pdfrwt beam="2">  1       -2 0.34831485E-01 0.47045205E+03</pdfrwt>
<totfact> 0.12632840E+03</totfact>
</mgrwt>
<rwgt>
<wgt id='morphing_basis_vector_1'> +2.4139399e-04 </wgt>
<wgt id='morphing_basis_vector_2'> +1.3153623e-04 </wgt>
<wgt id='morphing_basis_vector_3'> +1.6809874e-04 </wgt>
<wgt id='morphing_basis_vector_4'> +5.1149485e-05 </wgt>
<wgt id='morphing_basis_vector_5'> +6.7978502e-05 </wgt>
</rwgt>
</event>
<event>
 4      1 +1.9425900e-05 4.40205200e+02 7.81860800e-03 9.54461800e-02
        2 -1    0    0  501    0 +0.0000000000e+00 +0.0000000000e+00 +2.7395653799e+02 2.7395653799e+02 0.0000000000e+00 0.0000e+00 1.0000e+00
       -2 -1    0    0    0  501 -0.0000000000e+00 -0.0000000000e+00 -1.7683520352e+02 1.7683520352e+02 0.0000000000e+00 0.0000e+00 -1.0000e+00
      -13  1    1    2    0    0 -7.5483266057e+01 +2.0372756177e+02 +1.2463595311e+01 2.1761889644e+02 0.0000000000e+00 0.0000e+00 -1.0000e+00
       13  1    1    2    0    0 +7.5483266057e+01 -2.0372756177e+02 +8.4657739166e+01 2.3317284507e+02 0.0000000000e+00 0.0000e+00 1.0000e+00
<mgrwt>
<rscale>  0 0.44020523E+03</rscale>
<asrwt>0</asrwt>
<pdfrwt beam="1">  1        2 0.42147160E-01 0.44020523E+03</pdfrwt>
<pdfrwt beam="2">  1       -2 0.27205416E-01 0.44020523E+03</pdfrwt>
<totfact> 0.17130138E+03</totfact>
</mgrwt>
<rwgt>
<wgt id='morphing_basis_vector_1'> +2.0303661e-04 </wgt>
<wgt id='morphing_basis_vector_2'> +1.1849292e-04 </wgt>
<wgt id='morphing_basis_vector_3'> +1.3168319e-04 </wgt>
<wgt id='morphing_basis_vector_4'> +3.5608801e-05 </wgt>
<wgt id='morphing_basis_vector_5'> +4.4387969e-05 </wgt>
</rwgt>
</event>
<event>
 4      1 +1.9425900e-05 4.88796400e+02 7.81860800e-03 9.42521500e-02
        2 -1    0    0  501    0 +0.0000000000e+00 +0.0000000000e+00 +2.5523876194e+02 2.5523876194e+02 0.0000000000e+00 0.0000e+00 -1.0000e+00
       -2 -1    0    0    0  501 -0.0000000000e+00 -0.0000000000e+00 -2.3401810752e+02 2.3401810752e+02 0.0000000000e+00 0.0000e+00 1.0000e+00
      -13  1    1    2    0    0 -1.6496550109e+02 +1.5169375813e+02 -8.6979609522e+01 2.4039564322e+02 0.0000000000e+00 0.0000e+00 1.0000e+00
       13  1    1    2    0    0 +1.6496550109e+02 -1.5169375813e+02 +1.0820026394e+02 2.4886122624e+02 0.0000000000e+00 0.0000e+00 -1.0000e+00
<mgrwt>
<rscale>  0 0.48879645E+03</rscale>
<asrwt>0</asrwt>
<pdfrwt beam="1">  1        2 0.39267502E-01 0.48879645E+03</pdfrwt>
<pdfrwt beam="2">  1       -2 0.36002786E-01 0.48879645E+03</pdfrwt>
<totfact> 0.11334974E+03</totfact>
</mgrwt>
<rwgt>
<wgt id='morphing_basis_vector_1'> +2.7179196e-04 </wgt>
<wgt id='morphing_basis_vector_2'> +1.5309471e-04 </wgt>
<wgt id='morphing_basis_vector_3'> +1.9132512e-04 </wgt>
<wgt id='morphing_basis_vector_4'> +6.1885693e-05 </wgt>
<wgt id='morphing_basis_vector_5'> +8.5918220e-05 </wgt>
</rwgt>
</event>
<event>
 4      1 +1.9425900e-05 4.34434100e+02 7.81860800e-03 9.55987400e-02
        2 -1    0    0  501    0 +0.0000000000e+00 +0.0000000000e+00 +8.8215347400e+01 8.8215347400e+01 0.0000000000e+00 0.0000e+00 -1.0000e+00
       -2 -1    0    0    0  501 -0.0000000000e+00 -0.0000000000e+00 -5.3486446449e+02 5.3486446449e+02 0.0000000000e+00 0.0000e+00 1.0000e+00
      -13  1    1    2    0    0 +1.2004190065e+02 +2.3728328520e+01 -4.8072909659e+02 4.9605801656e+02 0.0000000000e+00 0.0000e+00 1.0000e+00
       13  1    1    2    0    0 -1.2004190065e+02 -2.3728328520e+01 +3.4079979497e+01 1.2702179533e+02 0.0000000000e+00 0.0000e+00 -1.0000e+00
<mgrwt>
<rscale>  0 0.43443414E+03</rscale>
<asrwt>0</asrwt>
<pdfrwt beam="1">  1        2 0.13571592E-01 0.43443414E+03</pdfrwt>
<pdfrwt beam="2">  1       -2 0.82286842E-01 0.43443414E+03</pdfrwt>
<totfact> 0.75940263E+02</totfact>
</mgrwt>
<rwgt>
<wgt id='morphing_basis_vector_1'> +1.9236791e-04 </wgt>
<wgt id='morphing_basis_vector_2'> +1.0383725e-04 </wgt>
<wgt id='morphing_basis_vector_3'> +1.2842610e-04 </wgt>
<wgt id='morphing_basis_vector_4'> +3.3643352e-05 </wgt>
<wgt id='morphing_basis_vector_5'> +4.0381214e-05 </wgt>
</rwgt>
</event>
<event>
 4      1 +1.9425900e-05 4.73026900e+02 7.81860800e-03 9.46229300e-02
        2 -1    0    0  501    0 +0.0000000000e+00 +0.0000000000e+00 +2.7380148112e+02 2.7380148112e+02 0.0000000000e+00 0.0000e+00 -1.0000e+00
       -2 -1    0    0    0  501 -0.0000000000e+00 -0.0000000000e+00 -2.0430353379e+02 2.0430353379e+02 0.0000000000e+00 0.0000e+00 1.0000e+00
      -13  1    1    2    0    0 -2.1842022480e+02 -5.4552591994e+01 -3.8522232731e+01 2.2840171258e+02 0.0000000000e+00 0.0000e+00 1.0000e+00
       13  1    1    2    0    0 +2.1842022480e+02 +5.4552591994e+01 +1.0802018005e+02 2.4970330233e+02 0.0000000000e+00 0.0000e+00 -1.0000e+00
<mgrwt>
<rscale>  0 0.47302689E+03</rscale>
<asrwt>0</asrwt>
<pdfrwt beam="1">  1        2 0.42123305E-01 0.47302689E+03</pdfrwt>
<pdfrwt beam="2">  1       -2 0.31431313E-01 0.47302689E+03</pdfrwt>
<totfact> 0.13342121E+03</totfact>
</mgrwt>
<rwgt>
<wgt id='morphing_basis_vector_1'> +2.4756056e-04 </wgt>
<wgt id='morphing_basis_vector_2'> +1.4084955e-04 </wgt>
<wgt id='morphing_basis_vector_3'> +1.7004828e-04 </wgt>
<wgt id='morphing_basis_vector_4'> +5.1985004e-05 </wgt>
<wgt id='morphing_basis_vector_5'> +7.0433644e-05 </wgt>
</rwgt>
</event>
<event>
 4      1 +1.9425900e-05 4.76032500e+02 7.81860800e-03 9.45510700e-02
        2 -1    0    0  501    0 +0.0000000000e+00 +0.0000000000e+00 +5.1054946304e+02 5.1054946304e+02 0.0000000000e+00 0.0000e+00 1.0000e+00
       -2 -1    0    0    0  501 -0.0000000000e+00 -0.0000000000e+00 -1.1096229757e+02 1.1096229757e+02 0.0000000000e+00 0.0000e+00 -1.0000e+00
      -13  1    1    2    0    0 -1.0552577060e+01 +2.1766546404e+02 +7.4822090487e+01 2.3040823844e+02 0.0000000000e+00 0.0000e+00 -1.0000e+00
       13  1    1    2    0    0 +1.0552577060e+01 -2.1766546404e+02 +3.2476507498e+02 3.9110352216e+02 0.0000000000e+00 0.0000e+00 1.0000e+00
<mgrwt>
<rscale>  0 0.47603253E+03</rscale>
<asrwt>0</asrwt>
<pdfrwt beam="1">  1        2 0.78546070E-01 0.47603253E+03</pdfrwt>
<pdfrwt beam="2">  1       -2 0.17071123E-01 0.47603253E+03</pdfrwt>
<totfact> 0.18609314E+03</totfact>
</mgrwt>
<rwgt>
<wgt id='morphing_basis_vector_1'> +2.5133773e-04 </wgt>
<wgt id='morphing_basis_vector_2'> +1.4095716e-04 </wgt>
<wgt id='morphing_basis_vector_3'> +1.7432322e-04 </wgt>
<wgt id='morphing_basis_vector_4'> +5.3969298e-05 </wgt>
<wgt id='morphing_basis_vector_5'> +7.3194177e-05 </wgt>
</rwgt>
</event>
<event>
 4      1 +1.9425900e-05 4.35804900e+02 7.81860800e-03 9.55622800e-02
        2 -1    0    0  501    0 +0.0000000000e+00 +0.0000000000e+00 +1.0066449893e+03 1.0066449893e+03 0.0000000000e+00 0.0000e+00 -1.0000e+00
       -2 -1    0    0    0  501 -0.0000000000e+00 -0.0000000000e+00 -4.7168038178e+01 4.7168038178e+01 0.0000000000e+00 0.0000e+00 1.0000e+00
      -13  1    1    2    0    0 -1.0444289194e+02 +1.8166650778e+02 +3.3525045241e+02 3.9535288486e+02 0.0000000000e+00 0.0000e+00 1.0000e+00
       13  1    1    2    0    0 +1.0444289194e+02 -1.8166650778e+02 +6.2422649867e+02 6.5846014258e+02 0.0000000000e+00 0.0000e+00 -1.0000e+00
<mgrwt>
<rscale>  0 0.43580486E+03</rscale>
<asrwt>0</asrwt>
<pdfrwt beam="1">  1        2 0.15486844E+00 0.43580486E+03</pdfrwt>
<pdfrwt beam="2">  1       -2 0.72566220E-02 0.43580486E+03</pdfrwt>
<totfact> 0.30947713E+03</totfact>
</mgrwt>
<rwgt>
<wgt id='morphing_basis_vector_1'> +1.9614834e-04 </wgt>
<wgt id='morphing_basis_vector_2'> +1.1121063e-04 </wgt>
<wgt id='morphing_basis_vector_3'> +1.2821451e-04 </wgt>
<wgt id='morphing_basis_vector_4'> +3.3974010e-05 </wgt>
<wgt id='morphing_basis_vector_5'> +4.1388757e-05 </wgt>
</rwgt>
</event>
<event>
 4      1 +1.9425900e-05 4.59353700e+02 7.81860800e-03 9.49571000e-02
        2 -1    0    0  501    0 +0.0000000000e+00 +0.0000000000e+00 +9.0997121836e+01 9.0997121836e+01 0.0000000000e+00 0.0000e+00 -1.0000e+00
       -2 -1    0    0    0  501 -0.0000000000e+00 -0.0000000000e+00 -5.7970471362e+02 5.7970471362e+02 0.0000000000e+00 0.0000e+00 1.0000e+00
      -13  1    1    2    0    0 -1.3052649307e+02 -1.6861000245e+02 -3.6897613678e+02 4.2615711637e+02 0.0000000000e+00 0.0000e+00 1.0000e+00
       13  1    1    2    0    0 +1.3052649307e+02 +1.6861000245e+02 -1.1973145501e+02 2.4454471909e+02 0.0000000000e+00 0.0000e+00 -1.0000e+00
<mgrwt>
<rscale>  0 0.45935372E+03</rscale>
<asrwt>0</asrwt>
<pdfrwt beam="1">  1        2 0.13999557E-01 0.45935372E+03</pdfrwt>
<pdfrwt beam="2">  1       -2 0.89185341E-01 0.45935372E+03</pdfrwt>
<totfact> 0.60815175E+02</totfact>
</mgrwt>
<rwgt>
<wgt id='morphing_basis_vector_1'> +2.2682208e-04 </wgt>
<wgt id='morphing_basis_vector_2'> +1.2715677e-04 </wgt>
<wgt id='morphing_basis_vector_3'> +1.5390943e-04 </wgt>
<wgt id='morphing_basis_vector_4'> +4.4780909e-05 </wgt>
<wgt id='morphing_basis_vector_5'> +5.8550433e-05 </wgt>
</rwgt>
</event>
<event>
 4      1 +1.9425900e-05 4.43436400e+02 7.81860800e-03 9.53618400e-02
        2 -1    0    0  501    0 +0.0000000000e+00 +0.0000000000e+00 +1.7397866313e+02 1.7397866313e+02 0.0000000000e+00 0.0000e+00 -1.0000e+00
       -2 -1    0    0    0  501 -0.0000000000e+00 -0.0000000000e+00 -2.8255736671e+02 2.8255736671e+02 0.0000000000e+00 0.0000e+00 1.0000e+00
      -13  1    1    2    0    0 +6.9073179978e+01 -1.9022062283e+02 -1.4754080460e+02 2.5044615901e+02 0.0000000000e+00 0.0000e+00 1.0000e+00
       13  1    1    2    0    0 -6.9073179978e+01 +1.9022062283e+02 +3.8962101023e+01 2.0608987083e+02 0.0000000000e+00 0.0000e+00 -1.0000e+00
<mgrwt>
<rscale>  0 0.44343637E+03</rscale>
<asrwt>0</asrwt>
<pdfrwt beam="1">  1        2 0.26765948E-01 0.44343637E+03</pdfrwt>
<pdfrwt beam="2">  1       -2 0.43470364E-01 0.44343637E+03</pdfrwt>
<totfact> 0.12396310E+03</totfact>
</mgrwt>
<rwgt>
<wgt id='morphing_basis_vector_1'> +2.0491919e-04 </wgt>
<wgt id='morphing_basis_vector_2'> +1.1382888e-04 </wgt>
<wgt id='morphing_basis_vector_3'> +1.3665231e-04 </wgt>
<wgt id='morphing_basis_vector_4'> +3.7305676e-05 </wgt>
<wgt id='morphing_basis_vector_5'> +4.6484349e-05 </wgt>
</rwgt>
</event>
<event>
 4      1 +1.9425900e-05 4.87767700e+02 7.81860800e-03 9.42758700e-02
        2 -1    0    0  501    0 +0.0000000000e+00 +0.0000000000e+00 +9.8554935639e+02 9.8554935639e+02 0.0000000000e+00 0.0000e+00 -1.0000e+00
       -2 -1    0    0    0  501 -0.0000000000e+00 -0.0000000000e+00 -6.0351452392e+01 6.0351452392e+01 0.0000000000e+00 0.0000e+00 1.0000e+00
      -13  1    1    2    0    0 +7.2264255821e+01 -1.9892688143e+02 +2.0275118798e+02 2.9309055094e+02 0.0000000000e+00 0.0000e+00 1.0000e+00
       13  1    1    2    0    0 -7.2264255821e+01 +1.9892688143e+02 +7.2244671602e+02 7.5281025784e+02 0.0000000000e+00 0.0000e+00 -1.0000e+00
<mgrwt>
<rscale>  0 0.48776771E+03</rscale>
<asrwt>0</asrwt>
<pdfrwt beam="1">  1        2 0.15162297E+00 0.48776771E+03</pdfrwt>
<pdfrwt beam="2">  1       -2 0.92848395E-02 0.48776771E+03</pdfrwt>
<totfact> 0.21808496E+03</totfact>
</mgrwt>
<rwgt>
<wgt id='morphing_basis_vector_1'> +2.6942047e-04 </wgt>
<wgt id='morphing_basis_vector_2'> +1.4999579e-04 </wgt>
<wgt id='morphing_basis_vector_3'> +1.9022307e-04 </wgt>
<wgt id='morphing_basis_vector_4'> +6.1450491e-05 </wgt>
<wgt id='morphing_basis_vector_5'> +8.4812279e-05 </wgt>
</rwgt>
</event>
<event>
 4      1 +1.9425900e-05 4.54369800e+02 7.81860800e-03 9.50819500e-02
        2 -1    0    0  501    0 +0.0000000000e+00 +0.0000000000e+00 +1.7553682083e+02 1.7553682083e+02 0.0000000000e+00 0.0000e+00 1.0000e+00
       -2 -1    0    0    0  501 -0.0000000000e+00 -0.0000000000e+00 -2.9402941293e+02 2.9402941293e+02 0.0000000000e+00 0.0000e+00 -1.0000e+00
      -13  1    1    2    0    0 -9.8215305094e+01 +8.8677023052e+00 +1.5226458949e+02 1.8140944714e+02 0.0000000000e+00 0.0000e+00 1.0000e+00
       13  1    1    2    0    0 +9.8215305094e+01 -8.8677023052e+00 -2.7075718158e+02 2.8815678662e+02 0.0000000000e+00 0.0000e+00 -1.0000e+00
<mgrwt>
<rscale>  0 0.45436984E+03</rscale>
<asrwt>0</asrwt>
<pdfrwt beam="1">  1        2 0.27005665E-01 0.45436984E+03</pdfrwt>
<pdfrwt beam="2">  1       -2 0.45235294E-01 0.45436984E+03</pdfrwt>
<totfact> 0.11383956E+03</totfact>
</mgrwt>
<rwgt>
<wgt id='morphing_basis_vector_1'> +2.9412705e-04 </wgt>
<wgt id='morphing_basis_vector_2'> +3.5284122e-04 </wgt>
<wgt id='morphing_basis_vector_3'> +1.0028782e-04 </wgt>
<wgt id='morphing_basis_vector_4'> +2.7581494e-05 </wgt>
<wgt id='morphing_basis_vector_5'> +5.8627263e-05 </wgt>
</rwgt>
</event>
<event>
 4      1 +1.9425900e-05 4.38806100e+02 7.81860800e-03 9.54829400e-02
        2 -1    0    0  501    0 +0.0000000000e+00 +0.0000000000e+00 +5.9290182696e+02 5.9290182696e+02 0.0000000000e+00 0.0000e+00 1.0000e+00
       -2 -1    0    0    0  501 -0.0000000000e+00 -0.0000000000e+00 -8.1189989362e+01 8.1189989362e+01 0.0000000000e+00 0.0000e+00 -1.0000e+00
      -13  1    1    2    0    0 -1.6770592571e+02 -1.3599059949e+02 +1.9598425079e+02 2.9159654872e+02 0.0000000000e+00 0.0000e+00 -1.0000e+00
       13  1    1    2    0    0 +1.6770592571e+02 +1.3599059949e+02 +3.1572758681e+02 3.8249526761e+02 0.0000000000e+00 0.0000e+00 1.0000e+00
<mgrwt>
<rscale>  0 0.43880608E+03</rscale>
<asrwt>0</asrwt>
<pdfrwt beam="1">  1        2 0.91215663E-01 0.43880608E+03</pdfrwt>
<pdfrwt beam="2">  1       -2 0.12490768E-01 0.43880608E+03</pdfrwt>
<totfact> 0.25843846E+03</totfact>
</mgrwt>
<rwgt>
<wgt id='morphing_basis_vector_1'> +2.0100076e-04 </wgt>
<wgt id='morphing_basis_vector_2'> +1.1668854e-04 </wgt>
<wgt id='morphing_basis_vector_3'> +1.3043591e-04 </wgt>
<wgt id='morphing_basis_vector_4'> +3.5065139e-05 </wgt>
<wgt id='morphing_basis_vector_5'> +4.3430499e-05 </wgt>
</rwgt>
</event>
<event>
 4      1 +1.9425900e-05 4.84437200e+02 7.81860800e-03 9.43531200e-02
        2 -1    0    0  501    0 +0.0000000000e+00 +0.0000000000e+00 +9.9046043620e+02 9.9046043620e+02 0.0000000000e+00 0.0000e+00 -1.0000e+00
       -2 -1    0    0    0  501 -0.0000000000e+00 -0.0000000000e+00 -5.9234925712e+01 5.9234925712e+01 0.0000000000e+00 0.0000e+00 1.0000e+00
      -13  1    1    2    0    0 -1.4793790694e+02 -7.3179338081e+01 +8.1471327163e+01 1.8406090563e+02 0.0000000000e+00 0.0000e+00 1.0000e+00
       13  1    1    2    0    0 +1.4793790694e+02 +7.3179338081e+01 +8.4975418332e+02 8.6563445629e+02 0.0000000000e+00 0.0000e+00 -1.0000e+00
<mgrwt>
<rscale>  0 0.48443720E+03</rscale>
<asrwt>0</asrwt>
<pdfrwt beam="1">  1        2 0.15237852E+00 0.48443720E+03</pdfrwt>
<pdfrwt beam="2">  1       -2 0.91130662E-02 0.48443720E+03</pdfrwt>
<totfact> 0.22295240E+03</totfact>
</mgrwt>
<rwgt>
<wgt id='morphing_basis_vector_1'> +2.6316949e-04 </wgt>
<wgt id='morphing_basis_vector_2'> +1.4424175e-04 </wgt>
<wgt id='morphing_basis_vector_3'> +1.8609486e-04 </wgt>
<wgt id='morphing_basis_vector_4'> +5.9583117e-05 </wgt>
<wgt id='morphing_basis_vector_5'> +8.1352358e-05 </wgt>
</rwgt>
</event>
<event>
 4      1 +1.9425900e-05 4.96920500e+02 7.81860800e-03 9.40669500e-02
        2 -1    0    0  501    0 +0.0000000000e+00 +0.0000000000e+00 +2.5343442912e+02 2.5343442912e+02 0.0000000000e+00 0.0000e+00 -1.0000e+00
       -2 -1    0    0    0  501 -0.0000000000e+00 -0.0000000000e+00 -2.4358374266e+02 2.4358374266e+02 0.0000000000e+00 0.0000e+00 1.0000e+00
      -13  1    1    2    0    0 +3.6471283031e+01 +2.4466958238e+02 -1.8298773645e+01 2.4804879388e+02 0.0000000000e+00 0.0000e+00 1.0000e+00
       13  1    1    2    0    0 -3.6471283031e+01 -2.4466958238e+02 +2.8149460110e+01 2.4896937790e+02 0.0000000000e+00 0.0000e+00 -1.0000e+00
<mgrwt>
<rscale>  0 0.49692054E+03</rscale>
<asrwt>0</asrwt>
<pdfrwt beam="1">  1        2 0.38989912E-01 0.49692054E+03</pdfrwt>
<pdfrwt beam="2">  1       -2 0.37474422E-01 0.49692054E+03</pdfrwt>
<totfact> 0.10625450E+03</totfact>
</mgrwt>
<rwgt>
<wgt id='morphing_basis_vector_1'> +2.9025778e-04 </wgt>
<wgt id='morphing_basis_vector_2'> +1.7598924e-04 </wgt>
<wgt id='morphing_basis_vector_3'> +2.0083354e-04 </wgt>
<wgt id='morphing_basis_vector_4'> +6.5536167e-05 </wgt>
<wgt id='morphing_basis_vector_5'> +9.4933972e-05 </wgt>
</rwgt>
</event>
<event>
 4      1 +1.9425900e-05 4.82064200e+02 7.81860800e-03 9.44085700e-02
        2 -1    0    0  501    0 +0.0000000000e+00 +0.0000000000e+00 +1.5037773834e+02 1.5037773834e+02 0.0000000000e+00 0.0000e+00 -1.0000e+00
       -2 -1    0    0    0  501 -0.0000000000e+00 -0.0000000000e+00 -3.8633688735e+02 3.8633688735e+02 0.0000000000e+00 0.0000e+00 1.0000e+00
      -13  1    1    2    0    0 -1.1117819774e+02 -2.1143046085e+02 -8.2194964756e+01 2.5262510496e+02 0.0000000000e+00 0.0000e+00 1.0000e+00
       13  1    1    2    0    0 +1.1117819774e+02 +2.1143046085e+02 -1.5376418426e+02 2.8408952073e+02 0.0000000000e+00 0.0000e+00 -1.0000e+00
<mgrwt>
<rscale>  0 0.48206418E+03</rscale>
<asrwt>0</asrwt>
<pdfrwt beam="1">  1        2 0.23135037E-01 0.48206418E+03</pdfrwt>
<pdfrwt beam="2">  1       -2 0.59436443E-01 0.48206418E+03</pdfrwt>
<totfact> 0.79875746E+02</totfact>
</mgrwt>
<rwgt>
<wgt id='morphing_basis_vector_1'> +2.7279393e-04 </wgt>
<wgt id='morphing_basis_vector_2'> +1.8366648e-04 </wgt>
<wgt id='morphing_basis_vector_3'> +1.7619161e-04 </wgt>
<wgt id='morphing_basis_vector_4'> +5.3745600e-05 </wgt>
<wgt id='morphing_basis_vector_5'> +7.9589760e-05 </wgt>
</rwgt>
</event>
<event>
 4      1 +1.9425900e-05 4.95713400e+02 7.81860800e-03 9.40942300e-02
        2 -1    0    0  501    0 +0.0000000000e+00 +0.0000000000e+00 +9.8652507816e+01 9.8652507816e+01 0.0000000000e+00 0.0000e+00 -1.0000e+00
       -2 -1    0    0    0  501 -0.0000000000e+00 -0.0000000000e+00 -6.2272065396e+02 6.2272065396e+02 0.0000000000e+00 0.0000e+00 1.0000e+00
      -13  1    1    2    0    0 +1.5890758300e+02 +1.4771692692e+02 -4.3642435810e+02 4.8737883702e+02 0.0000000000e+00 0.0000e+00 1.0000e+00
       13  1    1    2    0    0 -1.5890758300e+02 -1.4771692692e+02 -8.7643788041e+01 2.3399432475e+02 0.0000000000e+00 0.0000e+00 -1.0000e+00
<mgrwt>
<rscale>  0 0.49571344E+03</rscale>
<asrwt>0</asrwt>
<pdfrwt beam="1">  1        2 0.15177309E-01 0.49571344E+03</pdfrwt>
<pdfrwt beam="2">  1       -2 0.95803178E-01 0.49571344E+03</pdfrwt>
<totfact> 0.46595112E+02</totfact>
</mgrwt>
<rwgt>
<wgt id='morphing_basis_vector_1'> +2.8280353e-04 </wgt>
<wgt id='morphing_basis_vector_2'> +1.5805393e-04 </wgt>
<wgt id='morphing_basis_vector_3'> +2.0138761e-04 </wgt>
<wgt id='morphing_basis_vector_4'> +6.6776151e-05 </wgt>
<wgt id='morphing_basis_vector_5'> +9.3364789e-05 </wgt>
</rwgt>
</event>
<event>
 4      1 +1.9425900e-05 4.72727700e+02 7.81860800e-03 9.46301200e-02
        2 -1    0    0  501    0 +0.0000000000e+00 +0.0000000000e+00 +5.6026737552e+02 5.6026737552e+02 0.0000000000e+00 0.0000e+00 -1.0000e+00
       -2 -1    0    0    0  501 -0.0000000000e+00 -0.0000000000e+00 -9.9716461096e+01 9.9716461096e+01 0.0000000000e+00 0.0000e+00 1.0000e+00
      -13  1    1    2    0    0 -1.7702383570e+01 -1.8818282925e+02 +3.2136179553e+01 1.9172606929e+02 0.0000000000e+00 0.0000e+00 1.0000e+00
       13  1    1    2    0    0 +1.7702383570e+01 +1.8818282925e+02 +4.2841473487e+02 4.6825776733e+02 0.0000000000e+00 0.0000e+00 -1.0000e+00
<mgrwt>
<rscale>  0 0.47272774E+03</rscale>
<asrwt>0</asrwt>
<pdfrwt beam="1">  1        2 0.86194979E-01 0.47272774E+03</pdfrwt>
<pdfrwt beam="2">  1       -2 0.15340994E-01 0.47272774E+03</pdfrwt>
<totfact> 0.19894428E+03</totfact>
</mgrwt>
<rwgt>
<wgt id='morphing_basis_vector_1'> +2.4523943e-04 </wgt>
<wgt id='morphing_basis_vector_2'> +1.3480100e-04 </wgt>
<wgt id='morphing_basis_vector_3'> +1.7069616e-04 </wgt>
<wgt id='morphing_basis_vector_4'> +5.2340137e-05 </wgt>
<wgt id='morphing_basis_vector_5'> +7.0067278e-05 </wgt>
</rwgt>
</event>
<event>
 4      1 +1.9425900e-05 4.58691000e+02 7.81860800e-03 9.49736100e-02
        2 -1    0    0  501    0 +0.0000000000e+00 +0.0000000000e+00 +1.5407617715e+02 1.5407617715e+02 0.0000000000e+00 0.0000e+00 -1.0000e+00
       -2 -1    0    0    0  501 -0.0000000000e+00 -0.0000000000e+00 -3.4138543910e+02 3.4138543910e+02 0.0000000000e+00 0.0000e+00 1.0000e+00
      -13  1    1    2    0    0 -7.3626690326e+00 +1.0693188265e+02 -3.1266634985e+02 3.3052818753e+02 0.0000000000e+00 0.0000e+00 1.0000e+00
       13  1    1    2    0    0 +7.3626690326e+00 -1.0693188265e+02 +1.2535708790e+02 1.6493342872e+02 0.0000000000e+00 0.0000e+00 -1.0000e+00
<mgrwt>
<rscale>  0 0.45869102E+03</rscale>
<asrwt>0</asrwt>
<pdfrwt beam="1">  1        2 0.23704027E-01 0.45869102E+03</pdfrwt>
<pdfrwt beam="2">  1       -2 0.52520837E-01 0.45869102E+03</pdfrwt>
<totfact> 0.99353673E+02</totfact>
</mgrwt>
<rwgt>
<wgt id='morphing_basis_vector_1'> +2.2426876e-04 </wgt>
<wgt id='morphing_basis_vector_2'> +1.2161358e-04 </wgt>
<wgt id='morphing_basis_vector_3'> +1.5415234e-04 </wgt>
<wgt id='morphing_basis_vector_4'> +4.4797760e-05 </wgt>
<wgt id='morphing_basis_vector_5'> +5.7926098e-05 </wgt>
</rwgt>
</event>
<event>
 4      1 +1.9425900e-05 4.99980600e+02 7.81860800e-03 9.39981800e-02
        2 -1    0    0  501    0 +0.0000000000e+00 +0.0000000000e+00 +1.3087909310e+02 1.3087909310e+02 0.0000000000e+00 0.0000e+00 1.0000e+00
       -2 -1    0    0    0  501 -0.0000000000e+00 -0.0000000000e+00 -4.7750293194e+02 4.7750293194e+02 0.0000000000e+00 0.0000e+00 -1.0000e+00
      -13  1    1    2    0    0 -6.9529620233e+01 -1.5341108848e+02 -3.9809559578e+02 4.3226083970e+02 0.0000000000e+00 0.0000e+00 -1.0000e+00
       13  1    1    2    0    0 +6.9529620233e+01 +1.5341108848e+02 +5.1471756940e+01 1.7612118533e+02 0.0000000000e+00 0.0000e+00 1.0000e+00
<mgrwt>
<rscale>  0 0.49998060E+03</rscale>
<asrwt>0</asrwt>
<pdfrwt beam="1">  1        2 0.20135245E-01 0.49998060E+03</pdfrwt>
<pdfrwt beam="2">  1       -2 0.73461989E-01 0.49998060E+03</pdfrwt>
<totfact> 0.60462794E+02</totfact>
</mgrwt>
<rwgt>
<wgt id='morphing_basis_vector_1'> +2.8915010e-04 </wgt>
<wgt id='morphing_basis_vector_2'> +1.5922412e-04 </wgt>
<wgt id='morphing_basis_vector_3'> +2.0804919e-04 </wgt>
<wgt id='morphing_basis_vector_4'> +7.0201616e-05 </wgt>
<wgt id='morphing_basis_vector_5'> +9.8144059e-05 </wgt>
</rwgt>
</event>
<event>
 4      1 +1.9425900e-05 5.09031900e+02 7.81860800e-03 9.37978100e-02
        2 -1    0    0  501    0 +0.0000000000e+00 +0.0000000000e+00 +2.4779982516e+03 2.4779982516e+03 0.0000000000e+00 0.0000e+00 1.0000e+00
       -2 -1    0    0    0  501 -0.0000000000e+00 -0.0000000000e+00 -2.6141414363e+01 2.6141414363e+01 0.0000000000e+00 0.0000e+00 -1.0000e+00
      -13  1    1    2    0    0 +1.8638564948e+02 +1.7038430544e+02 +1.0697451302e+03 1.0991474266e+03 0.0000000000e+00 0.0000e+00 -1.0000e+00
       13  1    1    2    0    0 -1.8638564948e+02 -1.7038430544e+02 +1.3821117070e+03 1.4049922393e+03 0.0000000000e+00 0.0000e+00 1.0000e+00
<mgrwt>
<rscale>  0 0.50903194E+03</rscale>
<asrwt>0</asrwt>
<pdfrwt beam="1">  1        2 0.38123031E+00 0.50903194E+03</pdfrwt>
<pdfrwt beam="2">  1       -2 0.40217580E-02 0.50903194E+03</pdfrwt>
<totfact> 0.11516857E+03</totfact>
</mgrwt>
<rwgt>
<wgt id='morphing_basis_vector_1'> +3.1134888e-04 </wgt>
<wgt id='morphing_basis_vector_2'> +1.8753309e-04 </wgt>
<wgt id='morphing_basis_vector_3'> +2.1954545e-04 </wgt>
<wgt id='morphing_basis_vector_4'> +7.4338561e-05 </wgt>
<wgt id='morphing_basis_vector_5'> +1.0914330e-04 </wgt>
</rwgt>
</event>
<event>
 4      1 +1.9425900e-05 4.66192900e+02 7.81860800e-03 9.47884500e-02
        2 -1    0    0  501    0 +0.0000000000e+00 +0.0000000000e+00 +1.7103399538e+02 1.7103399538e+02 0.0000000000e+00 0.0000e+00 1.0000e+00
       -2 -1    0    0    0  501 -0.0000000000e+00 -0.0000000000e+00 -3.1767928808e+02 3.1767928808e+02 0.0000000000e+00 0.0000e+00 -1.0000e+00
      -13  1    1    2    0    0 -6.1216308545e+01 +2.1375345769e+02 +2.8740458194e-02 2.2234652669e+02 0.0000000000e+00 0.0000e+00 1.0000e+00
       13  1    1    2    0    0 +6.1216308545e+01 -2.1375345769e+02 -1.4667403316e+02 2.6636675677e+02 0.0000000000e+00 0.0000e+00 -1.0000e+00
<mgrwt>
<rscale>  0 0.46619291E+03</rscale>
<asrwt>0</asrwt>
<pdfrwt beam="1">  1        2 0.26312923E-01 0.46619291E+03</pdfrwt>
<pdfrwt beam="2">  1       -2 0.48873736E-01 0.46619291E+03</pdfrwt>
<totfact> 0.10120188E+03</totfact>
</mgrwt>
<rwgt>
<wgt id='morphing_basis_vector_1'> +2.5656376e-04 </wgt>
<wgt id='morphing_basis_vector_2'> +1.9443222e-04 </wgt>
<wgt id='morphing_basis_vector_3'> +1.5038811e-04 </wgt>
<wgt id='morphing_basis_vector_4'> +4.3350553e-05 </wgt>
<wgt id='morphing_basis_vector_5'> +6.5313231e-05 </wgt>
</rwgt>
</event>
<event>
 4      1 +1.9425900e-05 4.91028000e+02 7.81860800e-03 9.42008900e-02
        2 -1    0    0  501    0 +0.0000000000e+00 +0.0000000000e+00 +1.2429307555e+02 1.2429307555e+02 0.0000000000e+00 0.0000e+00 1.0000e+00
       -2 -1    0    0    0  501 -0.0000000000e+00 -0.0000000000e+00 -4.8495967361e+02 4.8495967361e+02 0.0000000000e+00 0.0000e+00 -1.0000e+00
      -13  1    1    2    0    0 +1.5662739297e+02 +1.8698299356e+02 -2.1503825942e+02 3.2517108286e+02 0.0000000000e+00 0.0000e+00 -1.0000e+00
       13  1    1    2    0    0 -1.5662739297e+02 -1.8698299356e+02 -1.4562833864e+02 2.8408166630e+02 0.0000000000e+00 0.0000e+00 1.0000e+00
<mgrwt>
<rscale>  0 0.49102802E+03</rscale>
<asrwt>0</asrwt>
<pdfrwt beam="1">  1        2 0.19122011E-01 0.49102802E+03</pdfrwt>
<pdfrwt beam="2">  1       -2 0.74609181E-01 0.49102802E+03</pdfrwt>
<totfact> 0.62192350E+02</totfact>
</mgrwt>
<rwgt>
<wgt id='morphing_basis_vector_1'> +2.7960223e-04 </wgt>
<wgt id='morphing_basis_vector_2'> +1.6801538e-04 </wgt>
<wgt id='morphing_basis_vector_3'> +1.9256666e-04 </wgt>
<wgt id='morphing_basis_vector_4'> +6.1875281e-05 </wgt>
<wgt id='morphing_basis_vector_5'> +8.8460759e-05 </wgt>
</rwgt>
</event>
<event>
 4      1 +1.9425900e-05 4.71648900e+02 7.81860800e-03 9.46560700e-02
        2 -1    0    0  501    0 +0.0000000000e+00 +0.0000000000e+00 +9.5840460207e+02 9.5840460207e+02 0.0000000000e+00 0.0000e+00 -1.0000e+00
       -2 -1    0    0    0  501 -0.0000000000e+00 -0.0000000000e+00 -5.8026826834e+01 5.8026826834e+01 0.0000000000e+00 0.0000e+00 1.0000e+00
      -13  1    1    2    0    0 -1.2291654856e+02 +1.9032043890e+02 +3.0915461039e+02 3.8328438593e+02 0.0000000000e+00 0.0000e+00 1.0000e+00
       13  1    1    2    0    0 +1.2291654856e+02 -1.9032043890e+02 +5.9122316485e+02 6.3314704298e+02 0.0000000000e+00 0.0000e+00 -1.0000e+00
<mgrwt>
<rscale>  0 0.47164893E+03</rscale>
<asrwt>0</asrwt>
<pdfrwt beam="1">  1        2 0.14744685E+00 0.47164893E+03</pdfrwt>
<pdfrwt beam="2">  1       -2 0.89272048E-02 0.47164893E+03</pdfrwt>
<totfact> 0.24087955E+03</totfact>
</mgrwt>
<rwgt>
<wgt id='morphing_basis_vector_1'> +2.4577303e-04 </wgt>
<wgt id='morphing_basis_vector_2'> +1.4056798e-04 </wgt>
<wgt id='morphing_basis_vector_3'> +1.6814790e-04 </wgt>
<wgt id='morphing_basis_vector_4'> +5.1119807e-05 </wgt>
<wgt id='morphing_basis_vector_5'> +6.9188719e-05 </wgt>
</rwgt>
</event>
<event>
 4      1 +1.9425900e-05 4.58845400e+02 7.81860800e-03 9.49697600e-02
        2 -1    0    0  501    0 +0.0000000000e+00 +0.0000000000e+00 +2.7106758361e+02 2.7106758361e+02 0.0000000000e+00 0.0000e+00 -1.0000e+00
       -2 -1    0    0    0  501 -0.0000000000e+00 -0.0000000000e+00 -1.9417583197e+02 1.9417583197e+02 0.0000000000e+00 0.0000e+00 1.0000e+00
      -13  1    1    2    0    0 +1.4176348325e+02 +1.8031464571e+02 +3.3425376745e+01 2.3179195942e+02 0.0000000000e+00 0.0000e+00 1.0000e+00
       13  1    1    2    0    0 -1.4176348325e+02 -1.8031464571e+02 +4.3466374892e+01 2.3345145617e+02 0.0000000000e+00 0.0000e+00 -1.0000e+00
<mgrwt>
<rscale>  0 0.45884539E+03</rscale>
<asrwt>0</asrwt>
<pdfrwt beam="1">  1        2 0.41702705E-01 0.45884539E+03</pdfrwt>
<pdfrwt beam="2">  1       -2 0.29873205E-01 0.45884539E+03</pdfrwt>
<totfact> 0.14747990E+03</totfact>
</mgrwt>
<rwgt>
<wgt id='morphing_basis_vector_1'> +2.3118283e-04 </wgt>
<wgt id='morphing_basis_vector_2'> +1.4246069e-04 </wgt>
<wgt id='morphing_basis_vector_3'> +1.5016402e-04 </wgt>
<wgt id='morphing_basis_vector_4'> +4.3411501e-05 </wgt>
<wgt id='morphing_basis_vector_5'> +5.8407555e-05 </wgt>
</rwgt>
</event>
<event>
 4      1 +1.9425900e-05 4.57415700e+02 7.81860800e-03 9.50054500e-02
        2 -1    0    0  501    0 +0.0000000000e+00 +0.0000000000e+00 +4.5245916352e+02 4.5245916352e+02 0.0000000000e+00 0.0000e+00 1.0000e+00
       -2 -1    0    0    0  501 -0.0000000000e+00 -0.0000000000e+00 -1.1560665044e+02 1.1560665044e+02 0.0000000000e+00 0.0000e+00 -1.0000e+00
      -13  1    1    2    0    0 +2.1343541128e+02 -3.6719007897e+01 +7.7128857300e+01 2.2989523909e+02 0.0000000000e+00 0.0000e+00 -1.0000e+00
       13  1    1    2    0    0 -2.1343541128e+02 +3.6719007897e+01 +2.5972365578e+02 3.3817057486e+02 0.0000000000e+00 0.0000e+00 1.0000e+00
<mgrwt>
<rscale>  0 0.45741573E+03</rscale>
<asrwt>0</asrwt>
<pdfrwt beam="1">  1        2 0.69609101E-01 0.45741573E+03</pdfrwt>
<pdfrwt beam="2">  1       -2 0.17785639E-01 0.45741573E+03</pdfrwt>
<totfact> 0.19931992E+03</totfact>
</mgrwt>
<rwgt>
<wgt id='morphing_basis_vector_1'> +2.2449101e-04 </wgt>
<wgt id='morphing_basis_vector_2'> +1.2681613e-04 </wgt>
<wgt id='morphing_basis_vector_3'> +1.5143361e-04 </wgt>
<wgt id='morphing_basis_vector_4'> +4.3719907e-05 </wgt>
<wgt id='morphing_basis_vector_5'> +5.7006947e-05 </wgt>
</rwgt>
</event>
<event>
 4      1 +1.9425900e-05 5.06254300e+02 7.81860800e-03 9.38588200e-02
        2 -1    0    0  501    0 +0.0000000000e+00 +0.0000000000e+00 +1.2547914405e+03 1.2547914405e+03 0.0000000000e+00 0.0000e+00 -1.0000e+00
       -2 -1    0    0    0  501 -0.0000000000e+00 -0.0000000000e+00 -5.1062944533e+01 5.1062944533e+01 0.0000000000e+00 0.0000e+00 1.0000e+00
      -13  1    1    2    0    0 +1.2933914248e+02 -2.0862311089e+02 +4.4241519796e+02 5.0594804433e+02 0.0000000000e+00 0.0000e+00 1.0000e+00
       13  1    1    2    0    0 -1.2933914248e+02 +2.0862311089e+02 +7.6131329805e+02 7.9990634074e+02 0.0000000000e+00 0.0000e+00 -1.0000e+00
<mgrwt>
<rscale>  0 0.50625427E+03</rscale>
<asrwt>0</asrwt>
<pdfrwt beam="1">  1        2 0.19304481E+00 0.50625427E+03</pdfrwt>
<pdfrwt beam="2">  1       -2 0.78558386E-02 0.50625427E+03</pdfrwt>
<totfact> 0.19653601E+03</totfact>
</mgrwt>
<rwgt>
<wgt id='morphing_basis_vector_1'> +3.0387519e-04 </wgt>
<wgt id='morphing_basis_vector_2'> +1.7698133e-04 </wgt>
<wgt id='morphing_basis_vector_3'> +2.1610667e-04 </wgt>
<wgt id='morphing_basis_vector_4'> +7.3315750e-05 </wgt>
<wgt id='morphing_basis_vector_5'> +1.0566928e-04 </wgt>
</rwgt>
</event>
<event>
 4      1 +1.9425900e-05 4.40111000e+02 7.81860800e-03 9.54486500e-02
        2 -1    0    0  501    0 +0.0000000000e+00 +0.0000000000e+00 +3.3006102493e+02 3.3006102493e+02 0.0000000000e+00 0.0000e+00 -1.0000e+00
       -2 -1    0    0    0  501 -0.0000000000e+00 -0.0000000000e+00 -1.4671357492e+02 1.4671357492e+02 0.0000000000e+00 0.0000e+00 1.0000e+00
      -13  1    1    2    0    0 -2.9289096481e+01 +7.3896144784e+01 -1.3061761018e+02 1.5290340570e+02 0.0000000000e+00 0.0000e+00 1.0000e+00
       13  1    1    2    0    0 +2.9289096481e+01 -7.3896144784e+01 +3.1396506018e+02 3.2387119415e+02 0.0000000000e+00 0.0000e+00 -1.0000e+00
<mgrwt>
<rscale>  0 0.44011104E+03</rscale>
<asrwt>0</asrwt>
<pdfrwt beam="1">  1        2 0.50778619E-01 0.44011104E+03</pdfrwt>
<pdfrwt beam="2">  1       -2 0.22571319E-01 0.44011104E+03</pdfrwt>
<totfact> 0.19105500E+03</totfact>
</mgrwt>
<rwgt>
<wgt id='morphing_basis_vector_1'> +1.9941638e-04 </wgt>
<wgt id='morphing_basis_vector_2'> +1.0762291e-04 </wgt>
<wgt id='morphing_basis_vector_3'> +1.3411519e-04 </wgt>
<wgt id='morphing_basis_vector_4'> +3.6030054e-05 </wgt>
<wgt id='morphing_basis_vector_5'> +4.4120456e-05 </wgt>
</rwgt>
</event>
<event>
 4      1 +1.9425900e-05 4.94776200e+02 7.81860800e-03 9.41154600e-02
        2 -1    0    0  501    0 +0.0000000000e+00 +0.0000000000e+00 +7.8286247159e+02 7.8286247159e+02 0.0000000000e+00 0.0000e+00 -1.0000e+00
       -2 -1    0    0    0  501 -0.0000000000e+00 -0.0000000000e+00 -7.8175768847e+01 7.8175768847e+01 0.0000000000e+00 0.0000e+00 1.0000e+00
      -13  1    1    2    0    0 -2.2746904013e+02 +9.4627909331e+01 +3.9142251569e+02 4.6250209863e+02 0.0000000000e+00 0.0000e+00 1.0000e+00
       13  1    1    2    0    0 +2.2746904013e+02 -9.4627909331e+01 +3.1326418705e+02 3.9853614181e+02 0.0000000000e+00 0.0000e+00 -1.0000e+00
<mgrwt>
<rscale>  0 0.49477621E+03</rscale>
<asrwt>0</asrwt>
<pdfrwt beam="1">  1        2 0.12044037E+00 0.49477621E+03</pdfrwt>
<pdfrwt beam="2">  1       -2 0.12027042E-01 0.49477621E+03</pdfrwt>
<totfact> 0.19687083E+03</totfact>
</mgrwt>
<rwgt>
<wgt id='morphing_basis_vector_1'> +2.9275101e-04 </wgt>
<wgt id='morphing_basis_vector_2'> +1.9294456e-04 </wgt>
<wgt id='morphing_basis_vector_3'> +1.9497967e-04 </wgt>
<wgt id='morphing_basis_vector_4'> +6.1766472e-05 </wgt>
<wgt id='morphing_basis_vector_5'> +9.2812052e-05 </wgt>
</rwgt>
</event>
<event>
 4      1 +1.9425900e-05 4.70746400e+02 7.81860800e-03 9.46778400e-02
        2 -1    0    0  501    0 +0.0000000000e+00 +0.0000000000e+00 +5.7638515709e+02 5.7638515709e+02 0.0000000000e+00 0.0000e+00 -1.0000e+00
       -2 -1    0    0    0  501 -0.0000000000e+00 -0.0000000000e+00 -9.6117242047e+01 9.6117242047e+01 0.0000000000e+00 0.0000e+00 1.0000e+00
      -13  1    1    2    0    0 -8.3189377226e+01 -9.2316300382e+01 -4.5432683143e+01 1.3231364441e+02 0.0000000000e+00 0.0000e+00 1.0000e+00
       13  1    1    2    0    0 +8.3189377226e+01 +9.2316300382e+01 +5.2570059818e+02 5.4018875472e+02 0.0000000000e+00 0.0000e+00 -1.0000e+00
<mgrwt>
<rscale>  0 0.47074644E+03</rscale>
<asrwt>0</asrwt>
<pdfrwt beam="1">  1        2 0.88674638E-01 0.47074644E+03</pdfrwt>
<pdfrwt beam="2">  1       -2 0.14787268E-01 0.47074644E+03</pdfrwt>
<totfact> 0.20426097E+03</totfact>
</mgrwt>
<rwgt>
<wgt id='morphing_basis_vector_1'> +2.4177304e-04 </wgt>
<wgt id='morphing_basis_vector_2'> +1.3159730e-04 </wgt>
<wgt id='morphing_basis_vector_3'> +1.6849690e-04 </wgt>
<wgt id='morphing_basis_vector_4'> +5.1334225e-05 </wgt>
<wgt id='morphing_basis_vector_5'> +6.8240671e-05 </wgt>
</rwgt>
</event>
<event>
 4      1 +1.9425900e-05 5.15553100e+02 7.81860800e-03 9.36562100e-02
        2 -1    0    0  501    0 +0.0000000000e+00 +0.0000000000e+00 +3.4937562324e+02 3.4937562324e+02 0.0000000000e+00 0.0000e+00 -1.0000e+00
       -2 -1    0    0    0  501 -0.0000000000e+00 -0.0000000000e+00 -1.9019289537e+02 1.9019289537e+02 0.0000000000e+00 0.0000e+00 1.0000e+00
      -13  1    1    2    0    0 -1.5953831860e+02 -6.0709469792e+01 -1.2256599232e+02 2.1014408699e+02 0.0000000000e+00 0.0000e+00 1.0000e+00
       13  1    1    2    0    0 +1.5953831860e+02 +6.0709469792e+01 +2.8174872019e+02 3.2942443163e+02 0.0000000000e+00 0.0000e+00 -1.0000e+00
<mgrwt>
<rscale>  0 0.51555315E+03</rscale>
<asrwt>0</asrwt>
<pdfrwt beam="1">  1        2 0.53750096E-01 0.51555315E+03</pdfrwt>
<pdfrwt beam="2">  1       -2 0.29260446E-01 0.51555315E+03</pdfrwt>
<totfact> 0.11529744E+03</totfact>
</mgrwt>
<rwgt>
<wgt id='morphing_basis_vector_1'> +3.1727967e-04 </wgt>
<wgt id='morphing_basis_vector_2'> +1.7556044e-04 </wgt>
<wgt id='morphing_basis_vector_3'> +2.3216791e-04 </wgt>
<wgt id='morphing_basis_vector_4'> +8.2217112e-05 </wgt>
<wgt id='morphing_basis_vector_5'> +1.1715267e-04 </wgt>
</rwgt>
</event>
<event>
 4      1 +1.9425900e-05 4.41914400e+02 7.81860800e-03 9.54014700e-02
        2 -1    0    0  501    0 +0.0000000000e+00 +0.0000000000e+00 +2.4769131502e+02 2.4769131502e+02 0.0000000000e+00 0.0000e+00 -1.0000e+00
       -2 -1    0    0    0  501 -0.0000000000e+00 -0.0000000000e+00 -1.9710861152e+02 1.9710861152e+02 0.0000000000e+00 0.0000e+00 1.0000e+00
      -13  1    1    2    0    0 -4.4117010110e+01 +9.4086687260e+00 -1.9242463354e+02 1.9764127408e+02 0.0000000000e+00 0.0000e+00 1.0000e+00
       13  1    1    2    0    0 +4.4117010110e+01 -9.4086687260e+00 +2.4300733705e+02 2.4715865246e+02 0.0000000000e+00 0.0000e+00 -1.0000e+00
<mgrwt>
<rscale>  0 0.44191443E+03</rscale>
<asrwt>0</asrwt>
<pdfrwt beam="1">  1        2 0.38106356E-01 0.44191443E+03</pdfrwt>
<pdfrwt beam="2">  1       -2 0.30324402E-01 0.44191443E+03</pdfrwt>
<totfact> 0.15893574E+03</totfact>
</mgrwt>
<rwgt>
<wgt id='morphing_basis_vector_1'> +2.0171092e-04 </wgt>
<wgt id='morphing_basis_vector_2'> +1.0888229e-04 </wgt>
<wgt id='morphing_basis_vector_3'> +1.3596095e-04 </wgt>
<wgt id='morphing_basis_vector_4'> +3.6816039e-05 </wgt>
<wgt id='morphing_basis_vector_5'> +4.5354074e-05 </wgt>
</rwgt>
</event>
<event>
 4      1 +1.9425900e-05 4.61932500e+02 7.81860800e-03 9.48931500e-02
        2 -1    0    0  501    0 +0.0000000000e+00 +0.0000000000e+00 +4.8776664633e+02 4.8776664633e+02 0.0000000000e+00 0.0000e+00 1.0000e+00
       -2 -1    0    0    0  501 -0.0000000000e+00 -0.0000000000e+00 -1.0936667694e+02 1.0936667694e+02 0.0000000000e+00 0.0000e+00 -1.0000e+00
      -13  1    1    2    0    0 -2.2067648801e+02 -2.8487142513e+01 +2.6926080368e+02 3.4930074442e+02 0.0000000000e+00 0.0000e+00 -1.0000e+00
       13  1    1    2    0    0 +2.2067648801e+02 +2.8487142513e+01 +1.0913916570e+02 2.4783257885e+02 0.0000000000e+00 0.0000e+00 1.0000e+00
<mgrwt>
<rscale>  0 0.46193254E+03</rscale>
<asrwt>0</asrwt>
<pdfrwt beam="1">  1        2 0.75041021E-01 0.46193254E+03</pdfrwt>
<pdfrwt beam="2">  1       -2 0.16825643E-01 0.46193254E+03</pdfrwt>
<totfact> 0.20053166E+03</totfact>
</mgrwt>
<rwgt>
<wgt id='morphing_basis_vector_1'> +2.4770882e-04 </wgt>
<wgt id='morphing_basis_vector_2'> +1.8255729e-04 </wgt>
<wgt id='morphing_basis_vector_3'> +1.4648956e-04 </wgt>
<wgt id='morphing_basis_vector_4'> +4.2097742e-05 </wgt>
<wgt id='morphing_basis_vector_5'> +6.1576558e-05 </wgt>
</rwgt>
</event>
<event>
 4      1 +1.9425900e-05 4.60460300e+02 7.81860800e-03 9.49296100e-02
        2 -1    0    0  501    0 +0.0000000000e+00 +0.0000000000e+00 +1.3221765412e+03 1.3221765412e+03 0.0000000000e+00 0.0000e+00 1.0000e+00
       -2 -1    0    0    0  501 -0.0000000000e+00 -0.0000000000e+00 -4.0089891077e+01 4.0089891077e+01 0.0000000000e+00 0.0000e+00 -1.0000e+00
      -13  1    1    2    0    0 +2.1816662745e+02 -2.1833359003e+01 +4.3326261168e+02 4.8558198441e+02 0.0000000000e+00 0.0000e+00 -1.0000e+00
       13  1    1    2    0    0 -2.1816662745e+02 +2.1833359003e+01 +8.4882403840e+02 8.7668444783e+02 0.0000000000e+00 0.0000e+00 1.0000e+00
<mgrwt>
<rscale>  0 0.46046026E+03</rscale>
<asrwt>0</asrwt>
<pdfrwt beam="1">  1        2 0.20341174E+00 0.46046026E+03</pdfrwt>
<pdfrwt beam="2">  1       -2 0.61676766E-02 0.46046026E+03</pdfrwt>
<totfact> 0.26118239E+03</totfact>
</mgrwt>
<rwgt>
<wgt id='morphing_basis_vector_1'> +2.2896622e-04 </wgt>
<wgt id='morphing_basis_vector_2'> +1.2983683e-04 </wgt>
<wgt id='morphing_basis_vector_3'> +1.5484084e-04 </wgt>
<wgt id='morphing_basis_vector_4'> +4.5216570e-05 </wgt>
<wgt id='morphing_basis_vector_5'> +5.9486666e-05 </wgt>
</rwgt>
</event>
<event>
 4      1 +1.9425900e-05 4.59252900e+02 7.81860800e-03 9.49596100e-02
        2 -1    0    0  501    0 +0.0000000000e+00 +0.0000000000e+00 +7.2897130765e+01 7.2897130765e+01 0.0000000000e+00 0.0000e+00 -1.0000e+00
       -2 -1    0    0    0  501 -0.0000000000e+00 -0.0000000000e+00 -7.2332500543e+02 7.2332500543e+02 0.0000000000e+00 0.0000e+00 1.0000e+00
      -13  1    1    2    0    0 +7.9480378295e+01 +9.3863908130e+01 -6.6140066990e+02 6.7273948147e+02 0.0000000000e+00 0.0000e+00 1.0000e+00
       13  1    1    2    0    0 -7.9480378295e+01 -9.3863908130e+01 +1.0972795233e+01 1.2348265473e+02 0.0000000000e+00 0.0000e+00 -1.0000e+00
<mgrwt>
<rscale>  0 0.45925295E+03</rscale>
<asrwt>0</asrwt>
<pdfrwt beam="1">  1        2 0.11214943E-01 0.45925295E+03</pdfrwt>
<pdfrwt beam="2">  1       -2 0.11128077E+00 0.45925295E+03</pdfrwt>
<totfact> 0.47233861E+02</totfact>
</mgrwt>
<rwgt>
<wgt id='morphing_basis_vector_1'> +2.2508570e-04 </wgt>
<wgt id='morphing_basis_vector_2'> +1.2214236e-04 </wgt>
<wgt id='morphing_basis_vector_3'> +1.5478083e-04 </wgt>
<wgt id='morphing_basis_vector_4'> +4.5081475e-05 </wgt>
<wgt id='morphing_basis_vector_5'> +5.8383759e-05 </wgt>
</rwgt>
</event>
<event>
 4      1 +1.9425900e-05 4.83650500e+02 7.81860800e-03 9.43714700e-02
        2 -1    0    0  501    0 +0.0000000000e+00 +0.0000000000e+00 +8.1883696471e+02 8.1883696471e+02 0.0000000000e+00 0.0000e+00 1.0000e+00
       -2 -1    0    0    0  501 -0.0000000000e+00 -0.0000000000e+00 -7.1417703566e+01 7.1417703566e+01 0.0000000000e+00 0.0000e+00 -1.0000e+00
      -13  1    1    2    0    0 +1.4573374944e+02 -5.3418859503e+01 +3.2372719048e+01 1.5855564707e+02 0.0000000000e+00 0.0000e+00 -1.0000e+00
       13  1    1    2    0    0 -1.4573374944e+02 +5.3418859503e+01 +7.1504654209e+02 7.3169902121e+02 0.0000000000e+00 0.0000e+00 1.0000e+00
<mgrwt>
<rscale>  0 0.48365052E+03</rscale>
<asrwt>0</asrwt>
<pdfrwt beam="1">  1        2 0.12597491E+00 0.48365052E+03</pdfrwt>
<pdfrwt beam="2">  1       -2 0.10987340E-01 0.48365052E+03</pdfrwt>
<totfact> 0.21443139E+03</totfact>
</mgrwt>
<rwgt>
<wgt id='morphing_basis_vector_1'> +2.6184604e-04 </wgt>
<wgt id='morphing_basis_vector_2'> +1.4332462e-04 </wgt>
<wgt id='morphing_basis_vector_3'> +1.8506832e-04 </wgt>
<wgt id='morphing_basis_vector_4'> +5.9100934e-05 </wgt>
<wgt id='morphing_basis_vector_5'> +8.0554870e-05 </wgt>
</rwgt>
</event>
<event>
 4      1 +1.9425900e-05 4.58356700e+02 7.81860800e-03 9.49819400e-02
        2 -1    0    0  501    0 +0.0000000000e+00 +0.0000000000e+00 +2.1764211746e+02 2.1764211746e+02 0.0000000000e+00 0.0000e+00 -1.0000e+00
       -2 -1    0    0    0  501 -0.0000000000e+00 -0.0000000000e+00 -2.4132609040e+02 2.4132609040e+02 0.0000000000e+00 0.0000e+00 1.0000e+00
      -13  1    1    2    0    0 -1.9824481877e+02 +5.9616477888e+01 -1.1029705548e+02 2.3456464578e+02 0.0000000000e+00 0.0000e+00 1.0000e+00
       13  1    1    2    0    0 +1.9824481877e+02 -5.9616477888e+01 +8.6613082544e+01 2.2440356207e+02 0.0000000000e+00 0.0000e+00 -1.0000e+00
<mgrwt>
<rscale>  0 0.45835672E+03</rscale>
<asrwt>0</asrwt>
<pdfrwt beam="1">  1        2 0.33483403E-01 0.45835672E+03</pdfrwt>
<pdfrwt beam="2">  1       -2 0.37127091E-01 0.45835672E+03</pdfrwt>
<totfact> 0.12834316E+03</totfact>
</mgrwt>
<rwgt>
<wgt id='morphing_basis_vector_1'> +2.2502337e-04 </wgt>
<wgt id='morphing_basis_vector_2'> +1.2513518e-04 </wgt>
<wgt id='morphing_basis_vector_3'> +1.5300550e-04 </wgt>
<wgt id='morphing_basis_vector_4'> +4.4361121e-05 </wgt>
<wgt id='morphing_basis_vector_5'> +5.7721062e-05 </wgt>
</rwgt>
</event>
<event>
 4      1 +1.9425900e-05 4.85615400e+02 7.81860800e-03 9.43257200e-02
        2 -1    0    0  501    0 +0.0000000000e+00 +0.0000000000e+00 +9.2814875132e+01 9.2814875132e+01 0.0000000000e+00 0.0000e+00 -1.0000e+00
       -2 -1    0    0    0  501 -0.0000000000e+00 -0.0000000000e+00 -6.3519527507e+02 6.3519527507e+02 0.0000000000e+00 0.0000e+00 1.0000e+00
      -13  1    1    2    0    0 +1.6705341807e+02 +7.8948654015e+01 -5.0735190157e+02 5.3994970737e+02 0.0000000000e+00 0.0000e+00 1.0000e+00
       13  1    1    2    0    0 -1.6705341807e+02 -7.8948654015e+01 -3.5028498366e+01 1.8806044283e+02 0.0000000000e+00 0.0000e+00 -1.0000e+00
<mgrwt>
<rscale>  0 0.48561536E+03</rscale>
<asrwt>0</asrwt>
<pdfrwt beam="1">  1        2 0.14279212E-01 0.48561536E+03</pdfrwt>
<pdfrwt beam="2">  1       -2 0.97722348E-01 0.48561536E+03</pdfrwt>
<totfact> 0.47932027E+02</totfact>
</mgrwt>
<rwgt>
<wgt id='morphing_basis_vector_1'> +2.6527236e-04 </wgt>
<wgt id='morphing_basis_vector_2'> +1.4596663e-04 </wgt>
<wgt id='morphing_basis_vector_3'> +1.8758883e-04 </wgt>
<wgt id='morphing_basis_vector_4'> +6.0272909e-05 </wgt>
<wgt id='morphing_basis_vector_5'> +8.2561379e-05 </wgt>
</rwgt>
</event>
<event>
 4      1 +1.9425900e-05 4.46380900e+02 7.81860800e-03 9.52856300e-02
        2 -1    0    0  501    0 +0.0000000000e+00 +0.0000000000e+00 +2.8369658680e+02 2.8369658680e+02 0.0000000000e+00 0.0000e+00 1.0000e+00
       -2 -1    0    0    0  501 -0.0000000000e+00 -0.0000000000e+00 -1.7558888533e+02 1.7558888533e+02 0.0000000000e+00 0.0000e+00 -1.0000e+00
      -13  1    1    2    0    0 -1.8859395878e+02 -8.6073648261e+01 -3.1026527537e+01 2.0961631526e+02 0.0000000000e+00 0.0000e+00 -1.0000e+00
       13  1    1    2    0    0 +1.8859395878e+02 +8.6073648261e+01 +1.3913422900e+02 2.4966915687e+02 0.0000000000e+00 0.0000e+00 1.0000e+00
<mgrwt>
<rscale>  0 0.44638086E+03</rscale>
<asrwt>0</asrwt>
<pdfrwt beam="1">  1        2 0.43645629E-01 0.44638086E+03</pdfrwt>
<pdfrwt beam="2">  1       -2 0.27013675E-01 0.44638086E+03</pdfrwt>
<totfact> 0.16679070E+03</totfact>
</mgrwt>
<rwgt>
<wgt id='morphing_basis_vector_1'> +2.0902958e-04 </wgt>
<wgt id='morphing_basis_vector_2'> +1.1681342e-04 </wgt>
<wgt id='morphing_basis_vector_3'> +1.3956915e-04 </wgt>
<wgt id='morphing_basis_vector_4'> +3.8575921e-05 </wgt>
<wgt id='morphing_basis_vector_5'> +4.8592304e-05 </wgt>
</rwgt>
</event>
<event>
 4      1 +1.9425900e-05 5.06224700e+02 7.81860800e-03 9.38594800e-02
        2 -1    0    0  501    0 +0.0000000000e+00 +0.0000000000e+00 +4.3101530585e+02 4.3101530585e+02 0.0000000000e+00 0.0000e+00 -1.0000e+00
       -2 -1    0    0    0  501 -0.0000000000e+00 -0.0000000000e+00 -1.4863939048e+02 1.4863939048e+02 0.0000000000e+00 0.0000e+00 1.0000e+00
      -13  1    1    2    0    0 +2.4881682115e+02 +1.7097386483e+01 +9.1755006822e+01 2.6574633090e+02 0.0000000000e+00 0.0000e+00 1.0000e+00
       13  1    1    2    0    0 -2.4881682115e+02 -1.7097386483e+01 +1.9062090855e+02 3.1390836543e+02 0.0000000000e+00 0.0000e+00 -1.0000e+00
<mgrwt>
<rscale>  0 0.50622466E+03</rscale>
<asrwt>0</asrwt>
<pdfrwt beam="1">  1        2 0.66310047E-01 0.50622466E+03</pdfrwt>
<pdfrwt beam="2">  1       -2 0.22867599E-01 0.50622466E+03</pdfrwt>
<totfact> 0.13896193E+03</totfact>
</mgrwt>
<rwgt>
<wgt id='morphing_basis_vector_1'> +3.0515608e-04 </wgt>
<wgt id='morphing_basis_vector_2'> +1.8109248e-04 </wgt>
<wgt id='morphing_basis_vector_3'> +2.1555055e-04 </wgt>
<wgt id='morphing_basis_vector_4'> +7.2725734e-05 </wgt>
<wgt id='morphing_basis_vector_5'> +1.0568439e-04 </wgt>
</rwgt>
</event>
<event>
 4      1 +1.9425900e-05 5.05647900e+02 7.81860800e-03 9.38722000e-02
        2 -1    0    0  501    0 +0.0000000000e+00 +0.0000000000e+00 +7.2282326477e+02 7.2282326477e+02 0.0000000000e+00 0.0000e+00 -1.0000e+00
       -2 -1    0    0    0  501 -0.0000000000e+00 -0.0000000000e+00 -8.8430942407e+01 8.8430942407e+01 0.0000000000e+00 0.0000e+00 1.0000e+00
      -13  1    1    2    0    0 -1.3210275679e+02 +2.8422415592e+01 -2.5635834884e+01 1.3753606105e+02 0.0000000000e+00 0.0000e+00 1.0000e+00
       13  1    1    2    0    0 +1.3210275679e+02 -2.8422415592e+01 +6.6002815725e+02 6.7371814612e+02 0.0000000000e+00 0.0000e+00 -1.0000e+00
<mgrwt>
<rscale>  0 0.50564787E+03</rscale>
<asrwt>0</asrwt>
<pdfrwt beam="1">  1        2 0.11120358E+00 0.50564787E+03</pdfrwt>
<pdfrwt beam="2">  1       -2 0.13604761E-01 0.50564787E+03</pdfrwt>
<totfact> 0.17864171E+03</totfact>
</mgrwt>
<rwgt>
<wgt id='morphing_basis_vector_1'> +2.9897663e-04 </wgt>
<wgt id='morphing_basis_vector_2'> +1.6451151e-04 </wgt>
<wgt id='morphing_basis_vector_3'> +2.1663588e-04 </wgt>
<wgt id='morphing_basis_vector_4'> +7.4477897e-05 </wgt>
<wgt id='morphing_basis_vector_5'> +1.0479443e-04 </wgt>
</rwgt>
</event>
<event>
 4      1 +1.9425900e-05 4.50412700e+02 7.81860800e-03 9.51822900e-02
        2 -1    0    0  501    0 +0.0000000000e+00 +0.0000000000e+00 +2.5388840371e+02 2.5388840371e+02 0.0000000000e+00 0.0000e+00 -1.0000e+00
       -2 -1    0    0    0  501 -0.0000000000e+00 -0.0000000000e+00 -1.9976452416e+02 1.9976452416e+02 0.0000000000e+00 0.0000e+00 1.0000e+00
      -13  1    1    2    0    0 +1.9632619149e+02 +1.0831572503e+02 +5.8958505386e+00 2.2430120554e+02 0.0000000000e+00 0.0000e+00 1.0000e+00
       13  1    1    2    0    0 -1.9632619149e+02 -1.0831572503e+02 +4.8228029008e+01 2.2935172233e+02 0.0000000000e+00 0.0000e+00 -1.0000e+00
<mgrwt>
<rscale>  0 0.45041268E+03</rscale>
<asrwt>0</asrwt>
<pdfrwt beam="1">  1        2 0.39059754E-01 0.45041268E+03</pdfrwt>
<pdfrwt beam="2">  1       -2 0.30733004E-01 0.45041268E+03</pdfrwt>
<totfact> 0.15101886E+03</totfact>
</mgrwt>
<rwgt>
<wgt id='morphing_basis_vector_1'> +2.1773323e-04 </wgt>
<wgt id='morphing_basis_vector_2'> +1.3016118e-04 </wgt>
<wgt id='morphing_basis_vector_3'> +1.4169117e-04 </wgt>
<wgt id='morphing_basis_vector_4'> +3.9829912e-05 </wgt>
<wgt id='morphing_basis_vector_5'> +5.1741503e-05 </wgt>
</rwgt>
</event>
<event>
 4      1 +1.9425900e-05 4.50189200e+02 7.81860800e-03 9.51879800e-02
        2 -1    0    0  501    0 +0.0000000000e+00 +0.0000000000e+00 +7.6294258969e+02 7.6294258969e+02 0.0000000000e+00 0.0000e+00 -1.0000e+00
       -2 -1    0    0    0  501 -0.0000000000e+00 -0.0000000000e+00 -6.6410747322e+01 6.6410747322e+01 0.0000000000e+00 0.0000e+00 1.0000e+00
      -13  1    1    2    0    0 -9.4994829107e+01 +1.4627243754e+02 +8.6124920444e+01 1.9451772532e+02 0.0000000000e+00 0.0000e+00 1.0000e+00
       13  1    1    2    0    0 +9.4994829107e+01 -1.4627243754e+02 +6.1040692192e+02 6.3483561169e+02 0.0000000000e+00 0.0000e+00 -1.0000e+00
<mgrwt>
<rscale>  0 0.45018924E+03</rscale>
<asrwt>0</asrwt>
<pdfrwt beam="1">  1        2 0.11737578E+00 0.45018924E+03</pdfrwt>
<pdfrwt beam="2">  1       -2 0.10217039E-01 0.45018924E+03</pdfrwt>
<totfact> 0.26234852E+03</totfact>
</mgrwt>
<rwgt>
<wgt id='morphing_basis_vector_1'> +2.1294940e-04 </wgt>
<wgt id='morphing_basis_vector_2'> +1.1613273e-04 </wgt>
<wgt id='morphing_basis_vector_3'> +1.4443842e-04 </wgt>
<wgt id='morphing_basis_vector_4'> +4.0530558e-05 </wgt>
<wgt id='morphing_basis_vector_5'> +5.1325131e-05 </wgt>
</rwgt>
</event>
<event>
 4      1 +1.9425900e-05 4.40781700e+02 7.81860800e-03 9.54310800e-02
        2 -1    0    0  501    0 +0.0000000000e+00 +0.0000000000e+00 +3.6287981862e+02 3.6287981862e+02 0.0000000000e+00 0.0000e+00 -1.0000e+00
       -2 -1    0    0    0  501 -0.0000000000e+00 -0.0000000000e+00 -1.3385185417e+02 1.3385185417e+02 0.0000000000e+00 0.0000e+00 1.0000e+00
      -13  1    1    2    0    0 -1.0218749063e+02 +9.1502068859e+01 -7.9885214254e+01 1.5873424112e+02 0.0000000000e+00 0.0000e+00 1.0000e+00
       13  1    1    2    0    0 +1.0218749063e+02 -9.1502068859e+01 +3.0891317870e+02 3.3799743168e+02 0.0000000000e+00 0.0000e+00 -1.0000e+00
<mgrwt>
<rscale>  0 0.44078174E+03</rscale>
<asrwt>0</asrwt>
<pdfrwt beam="1">  1        2 0.55827664E-01 0.44078174E+03</pdfrwt>
<pdfrwt beam="2">  1       -2 0.20592593E-01 0.44078174E+03</pdfrwt>
<totfact> 0.20029219E+03</totfact>
</mgrwt>
<rwgt>
<wgt id='morphing_basis_vector_1'> +2.0036631e-04 </wgt>
<wgt id='morphing_basis_vector_2'> +1.0839582e-04 </wgt>
<wgt id='morphing_basis_vector_3'> +1.3472776e-04 </wgt>
<wgt id='morphing_basis_vector_4'> +3.6307374e-05 </wgt>
<wgt id='morphing_basis_vector_5'> +4.4582433e-05 </wgt>
</rwgt>
</event>
<event>
 4      1 +1.9425900e-05 4.47788400e+02 7.81860800e-03 9.52494200e-02
        2 -1    0    0  501    0 +0.0000000000e+00 +0.0000000000e+00 +2.3569854524e+02 2.3569854524e+02 0.0000000000e+00 0.0000e+00 -1.0000e+00
       -2 -1    0    0    0  501 -0.0000000000e+00 -0.0000000000e+00 -2.1268107497e+02 2.1268107497e+02 0.0000000000e+00 0.0000e+00 1.0000e+00
      -13  1    1    2    0    0 -1.2137678697e+01 -1.4509526875e+02 -1.5880008930e+02 2.1544704365e+02 0.0000000000e+00 0.0000e+00 1.0000e+00
       13  1    1    2    0    0 +1.2137678697e+01 +1.4509526875e+02 +1.8181755956e+02 2.3293257656e+02 0.0000000000e+00 0.0000e+00 -1.0000e+00
<mgrwt>
<rscale>  0 0.44778843E+03</rscale>
<asrwt>0</asrwt>
<pdfrwt beam="1">  1        2 0.36261315E-01 0.44778843E+03</pdfrwt>
<pdfrwt beam="2">  1       -2 0.32720165E-01 0.44778843E+03</pdfrwt>
<totfact> 0.14705694E+03</totfact>
</mgrwt>
<rwgt>
<wgt id='morphing_basis_vector_1'> +2.0950581e-04 </wgt>
<wgt id='morphing_basis_vector_2'> +1.1358699e-04 </wgt>
<wgt id='morphing_basis_vector_3'> +1.4201641e-04 </wgt>
<wgt id='morphing_basis_vector_4'> +3.9447149e-05 </wgt>
<wgt id='morphing_basis_vector_5'> +4.9536183e-05 </wgt>
</rwgt>
</event>
<event>
 4      1 +1.9425900e-05 4.91752500e+02 7.81860800e-03 9.41843200e-02
        2 -1    0    0  501    0 +0.0000000000e+00 +0.0000000000e+00 +6.7278162071e+02 6.7278162071e+02 0.0000000000e+00 0.0000e+00 1.0000e+00
       -2 -1    0    0    0  501 -0.0000000000e+00 -0.0000000000e+00 -8.9858480736e+01 8.9858480736e+01 0.0000000000e+00 0.0000e+00 -1.0000e+00
      -13  1    1    2    0    0 +5.8956830332e+01 -1.6165024231e+02 +1.9072580131e+01 1.7311981976e+02 0.0000000000e+00 0.0000e+00 -1.0000e+00
       13  1    1    2    0    0 -5.8956830332e+01 +1.6165024231e+02 +5.6385055984e+02 5.8952028169e+02 0.0000000000e+00 0.0000e+00 1.0000e+00
<mgrwt>
<rscale>  0 0.49175252E+03</rscale>
<asrwt>0</asrwt>
<pdfrwt beam="1">  1        2 0.10350486E+00 0.49175252E+03</pdfrwt>
<pdfrwt beam="2">  1       -2 0.13824382E-01 0.49175252E+03</pdfrwt>
<totfact> 0.18984946E+03</totfact>
</mgrwt>
<rwgt>
<wgt id='morphing_basis_vector_1'> +2.7518706e-04 </wgt>
<wgt id='morphing_basis_vector_2'> +1.5126851e-04 </wgt>
<wgt id='morphing_basis_vector_3'> +1.9615207e-04 </wgt>
<wgt id='morphing_basis_vector_4'> +6.4399755e-05 </wgt>
<wgt id='morphing_basis_vector_5'> +8.8995165e-05 </wgt>
</rwgt>
</event>
<event>
 4      1 +1.9425900e-05 4.90316400e+02 7.81860800e-03 9.42172000e-02
        2 -1    0    0  501    0 +0.0000000000e+00 +0.0000000000e+00 +1.0025897174e+02 1.0025897174e+02 0.0000000000e+00 0.0000e+00 -1.0000e+00
       -2 -1    0    0    0  501 -0.0000000000e+00 -0.0000000000e+00 -5.9947291021e+02 5.9947291021e+02 0.0000000000e+00 0.0000e+00 1.0000e+00
      -13  1    1    2    0    0 -1.3036518960e+02 +2.0442950997e+02 -1.9783577112e+02 3.1293050274e+02 0.0000000000e+00 0.0000e+00 1.0000e+00
       13  1    1    2    0    0 +1.3036518960e+02 -2.0442950997e+02 -3.0137816734e+02 3.8680137921e+02 0.0000000000e+00 0.0000e+00 -1.0000e+00
<mgrwt>
<rscale>  0 0.49031638E+03</rscale>
<asrwt>0</asrwt>
<pdfrwt beam="1">  1        2 0.15424457E-01 0.49031638E+03</pdfrwt>
<pdfrwt beam="2">  1       -2 0.92226601E-01 0.49031638E+03</pdfrwt>
<totfact> 0.49938414E+02</totfact>
</mgrwt>
<rwgt>
<wgt id='morphing_basis_vector_1'> +2.8766388e-04 </wgt>
<wgt id='morphing_basis_vector_2'> +1.9601090e-04 </wgt>
<wgt id='morphing_basis_vector_3'> +1.8729732e-04 </wgt>
<wgt id='morphing_basis_vector_4'> +5.8098048e-05 </wgt>
<wgt id='morphing_basis_vector_5'> +8.8104482e-05 </wgt>
</rwgt>
</event>
<event>
 4      1 +1.9425900e-05 4.66220200e+02 7.81860800e-03 9.47877900e-02
        2 -1    0    0  501    0 +0.0000000000e+00 +0.0000000000e+00 +7.9791643710e+02 7.9791643710e+02 0.0000000000e+00 0.0000e+00 -1.0000e+00
       -2 -1    0    0    0  501 -0.0000000000e+00 -0.0000000000e+00 -6.8102761492e+01 6.8102761492e+01 0.0000000000e+00 0.0000e+00 1.0000e+00
      -13  1    1    2    0    0 +2.1999120294e+02 +6.2991019300e+01 +4.4748487052e+02 5.0259994750e+02 0.0000000000e+00 0.0000e+00 1.0000e+00
       13  1    1    2    0    0 -2.1999120294e+02 -6.2991019300e+01 +2.8232880509e+02 3.6341925110e+02 0.0000000000e+00 0.0000e+00 -1.0000e+00
<mgrwt>
<rscale>  0 0.46622017E+03</rscale>
<asrwt>0</asrwt>
<pdfrwt beam="1">  1        2 0.12275637E+00 0.46622017E+03</pdfrwt>
<pdfrwt beam="2">  1       -2 0.10477348E-01 0.46622017E+03</pdfrwt>
<totfact> 0.23861270E+03</totfact>
</mgrwt>
<rwgt>
<wgt id='morphing_basis_vector_1'> +2.4999330e-04 </wgt>
<wgt id='morphing_basis_vector_2'> +1.7398248e-04 </wgt>
<wgt id='morphing_basis_vector_3'> +1.5427896e-04 </wgt>
<wgt id='morphing_basis_vector_4'> +4.5031466e-05 </wgt>
<wgt id='morphing_basis_vector_5'> +6.4999217e-05 </wgt>
</rwgt>
</event>
<event>
 4      1 +1.9425900e-05 4.42930900e+02 7.81860800e-03 9.53749800e-02
        2 -1    0    0  501    0 +0.0000000000e+00 +0.0000000000e+00 +8.0637908230e+02 8.0637908230e+02 0.0000000000e+00 0.0000e+00 1.0000e+00
       -2 -1    0    0    0  501 -0.0000000000e+00 -0.0000000000e+00 -6.0823687866e+01 6.0823687866e+01 0.0000000000e+00 0.0000e+00 -1.0000e+00
      -13  1    1    2    0    0 -1.1129796801e+02 +1.4048291501e+02 +6.2748390871e+02 6.5257853380e+02 0.0000000000e+00 0.0000e+00 1.0000e+00
       13  1    1    2    0    0 +1.1129796801e+02 -1.4048291501e+02 +1.1807148573e+02 2.1462423637e+02 0.0000000000e+00 0.0000e+00 -1.0000e+00
<mgrwt>
<rscale>  0 0.44293092E+03</rscale>
<asrwt>0</asrwt>
<pdfrwt beam="1">  1        2 0.12405831E+00 0.44293092E+03</pdfrwt>
<pdfrwt beam="2">  1       -2 0.93574910E-02 0.44293092E+03</pdfrwt>
<totfact> 0.28072217E+03</totfact>
</mgrwt>
<rwgt>
<wgt id='morphing_basis_vector_1'> +2.4609945e-04 </wgt>
<wgt id='morphing_basis_vector_2'> +2.4262789e-04 </wgt>
<wgt id='morphing_basis_vector_3'> +1.0653989e-04 </wgt>
<wgt id='morphing_basis_vector_4'> +3.1025217e-05 </wgt>
<wgt id='morphing_basis_vector_5'> +4.8536185e-05 </wgt>
</rwgt>
</event>
<event>
 4      1 +1.9425900e-05 4.54639000e+02 7.81860800e-03 9.50751700e-02
        2 -1    0    0  501    0 +0.0000000000e+00 +0.0000000000e+00 +1.1281320125e+03 1.1281320125e+03 0.0000000000e+00 0.0000e+00 1.0000e+00
       -2 -1    0    0    0  501 -0.0000000000e+00 -0.0000000000e+00 -4.5805066130e+01 4.5805066130e+01 0.0000000000e+00 0.0000e+00 -1.0000e+00
      -13  1    1    2    0    0 +1.3604573867e+02 +1.1067201597e+02 +1.6771370160e+02 2.4266154173e+02 0.0000000000e+00 0.0000e+00 -1.0000e+00
       13  1    1    2    0    0 -1.3604573867e+02 -1.1067201597e+02 +9.1461324473e+02 9.3127553687e+02 0.0000000000e+00 0.0000e+00 1.0000e+00
<mgrwt>
<rscale>  0 0.45463903E+03</rscale>
<asrwt>0</asrwt>
<pdfrwt beam="1">  1        2 0.17355875E+00 0.45463903E+03</pdfrwt>
<pdfrwt beam="2">  1       -2 0.70469341E-02 0.45463903E+03</pdfrwt>
<totfact> 0.27438718E+03</totfact>
</mgrwt>
<rwgt>
<wgt id='morphing_basis_vector_1'> +2.1899277e-04 </wgt>
<wgt id='morphing_basis_vector_2'> +1.1953211e-04 </wgt>
<wgt id='morphing_basis_vector_3'> +1.4934214e-04 </wgt>
<wgt id='morphing_basis_vector_4'> +4.2682395e-05 </wgt>
<wgt id='morphing_basis_vector_5'> +5.4724363e-05 </wgt>
</rwgt>
</event>
<event>
 4      1 +1.9425900e-05 5.11179200e+02 7.81860800e-03 9.37509400e-02
        2 -1    0    0  501    0 +0.0000000000e+00 +0.0000000000e+00 +1.1104989351e+03 1.1104989351e+03 0.0000000000e+00 0.0000e+00 -1.0000e+00
       -2 -1    0    0    0  501 -0.0000000000e+00 -0.0000000000e+00 -5.8825846348e+01 5.8825846348e+01 0.0000000000e+00 0.0000e+00 1.0000e+00
      -13  1    1    2    0    0 -1.0319458248e+02 -1.5685763702e+02 +1.2914999164e+02 2.2788848256e+02 0.0000000000e+00 0.0000e+00 1.0000e+00
       13  1    1    2    0    0 +1.0319458248e+02 +1.5685763702e+02 +9.2252309708e+02 9.4143629885e+02 0.0000000000e+00 0.0000e+00 -1.0000e+00
<mgrwt>
<rscale>  0 0.51117918E+03</rscale>
<asrwt>0</asrwt>
<pdfrwt beam="1">  1        2 0.17084597E+00 0.51117918E+03</pdfrwt>
<pdfrwt beam="2">  1       -2 0.90501310E-02 0.51117918E+03</pdfrwt>
<totfact> 0.19102214E+03</totfact>
</mgrwt>
<rwgt>
<wgt id='morphing_basis_vector_1'> +3.0933399e-04 </wgt>
<wgt id='morphing_basis_vector_2'> +1.7137496e-04 </wgt>
<wgt id='morphing_basis_vector_3'> +2.2510879e-04 </wgt>
<wgt id='morphing_basis_vector_4'> +7.8619575e-05 </wgt>
<wgt id='morphing_basis_vector_5'> +1.1159016e-04 </wgt>
</rwgt>
</event>
<event>
 4      1 +1.9425900e-05 4.82682800e+02 7.81860800e-03 9.43940800e-02
        2 -1    0    0  501    0 +0.0000000000e+00 +0.0000000000e+00 +2.3784415516e+02 2.3784415516e+02 0.0000000000e+00 0.0000e+00 -1.0000e+00
       -2 -1    0    0    0  501 -0.0000000000e+00 -0.0000000000e+00 -2.4489009129e+02 2.4489009129e+02 0.0000000000e+00 0.0000e+00 1.0000e+00
      -13  1    1    2    0    0 +2.1989101294e+02 -9.3769789072e+01 -3.6705501607e+01 2.4185145185e+02 0.0000000000e+00 0.0000e+00 1.0000e+00
       13  1    1    2    0    0 -2.1989101294e+02 +9.3769789072e+01 +2.9659565475e+01 2.4088279461e+02 0.0000000000e+00 0.0000e+00 -1.0000e+00
<mgrwt>
<rscale>  0 0.48268282E+03</rscale>
<asrwt>0</asrwt>
<pdfrwt beam="1">  1        2 0.36591409E-01 0.48268282E+03</pdfrwt>
<pdfrwt beam="2">  1       -2 0.37675398E-01 0.48268282E+03</pdfrwt>
<totfact> 0.11304651E+03</totfact>
</mgrwt>
<rwgt>
<wgt id='morphing_basis_vector_1'> +2.6524019e-04 </wgt>
<wgt id='morphing_basis_vector_2'> +1.5775508e-04 </wgt>
<wgt id='morphing_basis_vector_3'> +1.8131285e-04 </wgt>
<wgt id='morphing_basis_vector_4'> +5.6878812e-05 </wgt>
<wgt id='morphing_basis_vector_5'> +7.9811280e-05 </wgt>
</rwgt>
</event>
<event>
 4      1 +1.9425900e-05 4.61442000e+02 7.81860800e-03 9.49052800e-02
        2 -1    0    0  501    0 +0.0000000000e+00 +0.0000000000e+00 +4.8072577403e+02 4.8072577403e+02 0.0000000000e+00 0.0000e+00 -1.0000e+00
       -2 -1    0    0    0  501 -0.0000000000e+00 -0.0000000000e+00 -1.1073292459e+02 1.1073292459e+02 0.0000000000e+00 0.0000e+00 1.0000e+00
      -13  1    1    2    0    0 +2.7277909403e+01 -9.3414585204e+01 -8.3139457964e+01 1.2799429105e+02 0.0000000000e+00 0.0000e+00 1.0000e+00
       13  1    1    2    0    0 -2.7277909403e+01 +9.3414585204e+01 +4.5313230741e+02 4.6346440757e+02 0.0000000000e+00 0.0000e+00 -1.0000e+00
<mgrwt>
<rscale>  0 0.46144196E+03</rscale>
<asrwt>0</asrwt>
<pdfrwt beam="1">  1        2 0.73957810E-01 0.46144196E+03</pdfrwt>
<pdfrwt beam="2">  1       -2 0.17035835E-01 0.46144196E+03</pdfrwt>
<totfact> 0.19977259E+03</totfact>
</mgrwt>
<rwgt>
<wgt id='morphing_basis_vector_1'> +2.2814881e-04 </wgt>
<wgt id='morphing_basis_vector_2'> +1.2377744e-04 </wgt>
<wgt id='morphing_basis_vector_3'> +1.5733930e-04 </wgt>
<wgt id='morphing_basis_vector_4'> +4.6232266e-05 </wgt>
<wgt id='morphing_basis_vector_5'> +6.0181554e-05 </wgt>
</rwgt>
</event>
<event>
 4      1 +1.9425900e-05 4.86677300e+02 7.81860800e-03 9.43010900e-02
        2 -1    0    0  501    0 +0.0000000000e+00 +0.0000000000e+00 +1.6884012504e+03 1.6884012504e+03 0.0000000000e+00 0.0000e+00 -1.0000e+00
       -2 -1    0    0    0  501 -0.0000000000e+00 -0.0000000000e+00 -3.5070865353e+01 3.5070865353e+01 0.0000000000e+00 0.0000e+00 1.0000e+00
      -13  1    1    2    0    0 -1.6027917314e+02 +1.5897463694e+02 +5.0498408984e+02 5.5314670705e+02 0.0000000000e+00 0.0000e+00 1.0000e+00
       13  1    1    2    0    0 +1.6027917314e+02 -1.5897463694e+02 +1.1483462952e+03 1.1703254087e+03 0.0000000000e+00 0.0000e+00 -1.0000e+00
<mgrwt>
<rscale>  0 0.48667728E+03</rscale>
<asrwt>0</asrwt>
<pdfrwt beam="1">  1        2 0.25975398E+00 0.48667728E+03</pdfrwt>
<pdfrwt beam="2">  1       -2 0.53955191E-02 0.48667728E+03</pdfrwt>
<totfact> 0.20205457E+03</totfact>
</mgrwt>
<rwgt>
<wgt id='morphing_basis_vector_1'> +2.6852597e-04 </wgt>
<wgt id='morphing_basis_vector_2'> +1.5171080e-04 </wgt>
<wgt id='morphing_basis_vector_3'> +1.8830214e-04 </wgt>
<wgt id='morphing_basis_vector_4'> +6.0436713e-05 </wgt>
<wgt id='morphing_basis_vector_5'> +8.3721200e-05 </wgt>
</rwgt>
</event>
<event>
 4      1 +1.9425900e-05 4.78130300e+02 7.81860800e-03 9.45012500e-02
        2 -1    0    0  501    0 +0.0000000000e+00 +0.0000000000e+00 +1.5364750326e+03 1.5364750326e+03 0.0000000000e+00 0.0000e+00 1.0000e+00
       -2 -1    0    0    0  501 -0.0000000000e+00 -0.0000000000e+00 -3.7196922721e+01 3.7196922721e+01 0.0000000000e+00 0.0000e+00 -1.0000e+00
      -13  1    1    2    0    0 -8.3554255755e+01 +2.2255893534e+02 +6.6648234903e+02 7.0761042596e+02 0.0000000000e+00 0.0000e+00 -1.0000e+00
       13  1    1    2    0    0 +8.3554255755e+01 -2.2255893534e+02 +8.3279576084e+02 8.6606152935e+02 0.0000000000e+00 0.0000e+00 1.0000e+00
<mgrwt>
<rscale>  0 0.47813029E+03</rscale>
<asrwt>0</asrwt>
<pdfrwt beam="1">  1        2 0.23638072E+00 0.47813029E+03</pdfrwt>
<pdfrwt beam="2">  1       -2 0.57226047E-02 0.47813029E+03</pdfrwt>
<totfact> 0.22334623E+03</totfact>
</mgrwt>
<rwgt>
<wgt id='morphing_basis_vector_1'> +2.5856903e-04 </wgt>
<wgt id='morphing_basis_vector_2'> +1.5517299e-04 </wgt>
<wgt id='morphing_basis_vector_3'> +1.7495946e-04 </wgt>
<wgt id='morphing_basis_vector_4'> +5.4002971e-05 </wgt>
<wgt id='morphing_basis_vector_5'> +7.5380643e-05 </wgt>
</rwgt>
</event>
<event>
 4      1 +1.9425900e-05 4.34968500e+02 7.81860800e-03 9.55845100e-02
        2 -1    0    0  501    0 +0.0000000000e+00 +0.0000000000e+00 +7.6893584203e+02 7.6893584203e+02 0.0000000000e+00 0.0000e+00 -1.0000e+00
       -2 -1    0    0    0  501 -0.0000000000e+00 -0.0000000000e+00 -6.1512810012e+01 6.1512810012e+01 0.0000000000e+00 0.0000e+00 1.0000e+00
      -13  1    1    2    0    0 -1.0605281345e+02 +1.0985139157e+02 +5.8030324371e+01 1.6334639885e+02 0.0000000000e+00 0.0000e+00 1.0000e+00
       13  1    1    2    0    0 +1.0605281345e+02 -1.0985139157e+02 +6.4939270765e+02 6.6710225319e+02 0.0000000000e+00 0.0000e+00 -1.0000e+00
<mgrwt>
<rscale>  0 0.43496852E+03</rscale>
<asrwt>0</asrwt>
<pdfrwt beam="1">  1        2 0.11829781E+00 0.43496852E+03</pdfrwt>
<pdfrwt beam="2">  1       -2 0.94635098E-02 0.43496852E+03</pdfrwt>
<totfact> 0.29266960E+03</totfact>
</mgrwt>
<rwgt>
<wgt id='morphing_basis_vector_1'> +1.9315725e-04 </wgt>
<wgt id='morphing_basis_vector_2'> +1.0460468e-04 </wgt>
<wgt id='morphing_basis_vector_3'> +1.2885108e-04 </wgt>
<wgt id='morphing_basis_vector_4'> +3.3847696e-05 </wgt>
<wgt id='morphing_basis_vector_5'> +4.0732130e-05 </wgt>
</rwgt>
</event>
<event>
 4      1 +1.9425900e-05 4.77982300e+02 7.81860800e-03 9.45047600e-02
        2 -1    0    0  501    0 +0.0000000000e+00 +0.0000000000e+00 +9.4424594246e+02 9.4424594246e+02 0.0000000000e+00 0.0000e+00 -1.0000e+00
       -2 -1    0    0    0  501 -0.0000000000e+00 -0.0000000000e+00 -6.0489296602e+01 6.0489296602e+01 0.0000000000e+00 0.0000e+00 1.0000e+00
      -13  1    1    2    0    0 +1.7610179979e+02 +3.9759115435e+00 +1.0235506269e+02 2.0372582218e+02 0.0000000000e+00 0.0000e+00 1.0000e+00
       13  1    1    2    0    0 -1.7610179979e+02 -3.9759115435e+00 +7.8140158317e+02 8.0100941688e+02 0.0000000000e+00 0.0000e+00 -1.0000e+00
<mgrwt>
<rscale>  0 0.47798231E+03</rscale>
<asrwt>0</asrwt>
<pdfrwt beam="1">  1        2 0.14526860E+00 0.47798231E+03</pdfrwt>
<pdfrwt beam="2">  1       -2 0.93060463E-02 0.47798231E+03</pdfrwt>
<totfact> 0.23048041E+03</totfact>
</mgrwt>
<rwgt>
<wgt id='morphing_basis_vector_1'> +2.5308644e-04 </wgt>
<wgt id='morphing_basis_vector_2'> +1.3875641e-04 </wgt>
<wgt id='morphing_basis_vector_3'> +1.7750789e-04 </wgt>
<wgt id='morphing_basis_vector_4'> +5.5518306e-05 </wgt>
<wgt id='morphing_basis_vector_5'> +7.4989628e-05 </wgt>
</rwgt>
</event>
<event>
 4      1 +1.9425900e-05 5.17824100e+02 7.81860800e-03 9.36074200e-02
        2 -1    0    0  501    0 +0.0000000000e+00 +0.0000000000e+00 +2.5213886065e+02 2.5213886065e+02 0.0000000000e+00 0.0000e+00 1.0000e+00
       -2 -1    0    0    0  501 -0.0000000000e+00 -0.0000000000e+00 -2.6586720462e+02 2.6586720462e+02 0.0000000000e+00 0.0000e+00 -1.0000e+00
      -13  1    1    2    0    0 +2.2377209750e+02 +1.3340816539e+01 -1.3646093738e+02 2.6243764295e+02 0.0000000000e+00 0.0000e+00 -1.0000e+00
       13  1    1    2    0    0 -2.2377209750e+02 -1.3340816539e+01 +1.2273259341e+02 2.5556842233e+02 0.0000000000e+00 0.0000e+00 1.0000e+00
<mgrwt>
<rscale>  0 0.51782412E+03</rscale>
<asrwt>0</asrwt>
<pdfrwt beam="1">  1        2 0.38790594E-01 0.51782412E+03</pdfrwt>
<pdfrwt beam="2">  1       -2 0.40902647E-01 0.51782412E+03</pdfrwt>
<totfact> 0.90981915E+02</totfact>
</mgrwt>
<rwgt>
<wgt id='morphing_basis_vector_1'> +3.2261785e-04 </wgt>
<wgt id='morphing_basis_vector_2'> +1.8132967e-04 </wgt>
<wgt id='morphing_basis_vector_3'> +2.3552566e-04 </wgt>
<wgt id='morphing_basis_vector_4'> +8.3592136e-05 </wgt>
<wgt id='morphing_basis_vector_5'> +1.2015253e-04 </wgt>
</rwgt>
</event>
<event>
 4      1 +1.9425900e-05 4.78335700e+02 7.81860800e-03 9.44963900e-02
        2 -1    0    0  501    0 +0.0000000000e+00 +0.0000000000e+00 +2.5001726022e+02 2.5001726022e+02 0.0000000000e+00 0.0000e+00 -1.0000e+00
       -2 -1    0    0    0  501 -0.0000000000e+00 -0.0000000000e+00 -2.2878921588e+02 2.2878921588e+02 0.0000000000e+00 0.0000e+00 1.0000e+00
      -13  1    1    2    0    0 -1.0116505044e+01 +5.2115921632e+01 -2.2281679538e+02 2.2905400513e+02 0.0000000000e+00 0.0000e+00 1.0000e+00
       13  1    1    2    0    0 +1.0116505044e+01 -5.2115921632e+01 +2.4404483973e+02 2.4975247098e+02 0.0000000000e+00 0.0000e+00 -1.0000e+00
<mgrwt>
<rscale>  0 0.47833567E+03</rscale>
<asrwt>0</asrwt>
<pdfrwt beam="1">  1        2 0.38464194E-01 0.47833567E+03</pdfrwt>
<pdfrwt beam="2">  1       -2 0.35198341E-01 0.47833567E+03</pdfrwt>
<totfact> 0.12083800E+03</totfact>
</mgrwt>
<rwgt>
<wgt id='morphing_basis_vector_1'> +2.5329804e-04 </wgt>
<wgt id='morphing_basis_vector_2'> +1.3802291e-04 </wgt>
<wgt id='morphing_basis_vector_3'> +1.7814212e-04 </wgt>
<wgt id='morphing_basis_vector_4'> +5.5836721e-05 </wgt>
<wgt id='morphing_basis_vector_5'> +7.5313351e-05 </wgt>
</rwgt>
</event>
<event>
 4      1 +1.9425900e-05 4.94439200e+02 7.81860800e-03 9.41231100e-02
        2 -1    0    0  501    0 +0.0000000000e+00 +0.0000000000e+00 +1.2532952845e+03 1.2532952845e+03 0.0000000000e+00 0.0000e+00 -1.0000e+00
       -2 -1    0    0    0  501 -0.0000000000e+00 -0.0000000000e+00 -4.8765468053e+01 4.8765468053e+01 0.0000000000e+00 0.0000e+00 1.0000e+00
      -13  1    1    2    0    0 +2.2879724796e+02 +7.1907016064e+01 +4.4428819439e+02 5.0488691735e+02 0.0000000000e+00 0.0000e+00 1.0000e+00
       13  1    1    2    0    0 -2.2879724796e+02 -7.1907016064e+01 +7.6024162202e+02 7.9717383517e+02 0.0000000000e+00 0.0000e+00 -1.0000e+00
<mgrwt>
<rscale>  0 0.49443920E+03</rscale>
<asrwt>0</asrwt>
<pdfrwt beam="1">  1        2 0.19281464E+00 0.49443920E+03</pdfrwt>
<pdfrwt beam="2">  1       -2 0.75023806E-02 0.49443920E+03</pdfrwt>
<totfact> 0.21141201E+03</totfact>
</mgrwt>
<rwgt>
<wgt id='morphing_basis_vector_1'> +2.8304856e-04 </wgt>
<wgt id='morphing_basis_vector_2'> +1.6427180e-04 </wgt>
<wgt id='morphing_basis_vector_3'> +1.9849279e-04 </wgt>
<wgt id='morphing_basis_vector_4'> +6.4986057e-05 </wgt>
<wgt id='morphing_basis_vector_5'> +9.2058303e-05 </wgt>
</rwgt>
</event>
<event>
 4      1 +1.9425900e-05 5.12170500e+02 7.81860800e-03 9.37293800e-02
        2 -1    0    0  501    0 +0.0000000000e+00 +0.0000000000e+00 +2.4963334183e+02 2.4963334183e+02 0.0000000000e+00 0.0000e+00 1.0000e+00
       -2 -1    0    0    0  501 -0.0000000000e+00 -0.0000000000e+00 -2.6270394372e+02 2.6270394372e+02 0.0000000000e+00 0.0000e+00 -1.0000e+00
      -13  1    1    2    0    0 -8.9037839856e+01 -7.2811756075e+01 +2.2234123550e+02 2.5032961022e+02 0.0000000000e+00 0.0000e+00 1.0000e+00
       13  1    1    2    0    0 +8.9037839856e+01 +7.2811756075e+01 -2.3541183739e+02 2.6200767533e+02 0.0000000000e+00 0.0000e+00 -1.0000e+00
<mgrwt>
<rscale>  0 0.51217053E+03</rscale>
<asrwt>0</asrwt>
<pdfrwt beam="1">  1        2 0.38405130E-01 0.51217053E+03</pdfrwt>
<pdfrwt beam="2">  1       -2 0.40415991E-01 0.51217053E+03</pdfrwt>
<totfact> 0.94081376E+02</totfact>
</mgrwt>
<rwgt>
<wgt id='morphing_basis_vector_1'> +4.1887734e-04 </wgt>
<wgt id='morphing_basis_vector_2'> +5.0695823e-04 </wgt>
<wgt id='morphing_basis_vector_3'> +1.8853961e-04 </wgt>
<wgt id='morphing_basis_vector_4'> +3.0916963e-05 </wgt>
<wgt id='morphing_basis_vector_5'> +1.1671531e-04 </wgt>
</rwgt>
</event>
<event>
 4      1 +1.9425900e-05 4.81044400e+02 7.81860800e-03 9.44325000e-02
        2 -1    0    0  501    0 +0.0000000000e+00 +0.0000000000e+00 +1.4850671761e+03 1.4850671761e+03 0.0000000000e+00 0.0000e+00 -1.0000e+00
       -2 -1    0    0    0  501 -0.0000000000e+00 -0.0000000000e+00 -3.8955097153e+01 3.8955097153e+01 0.0000000000e+00 0.0000e+00 1.0000e+00
      -13  1    1    2    0    0 +1.0893736581e+02 +2.1081907683e+02 +5.9877302230e+02 6.4408164472e+02 0.0000000000e+00 0.0000e+00 1.0000e+00
       13  1    1    2    0    0 -1.0893736581e+02 -2.1081907683e+02 +8.4733905661e+02 8.7994062850e+02 0.0000000000e+00 0.0000e+00 -1.0000e+00
<mgrwt>
<rscale>  0 0.48104443E+03</rscale>
<asrwt>0</asrwt>
<pdfrwt beam="1">  1        2 0.22847183E+00 0.48104443E+03</pdfrwt>
<pdfrwt beam="2">  1       -2 0.59930930E-02 0.48104443E+03</pdfrwt>
<totfact> 0.22202525E+03</totfact>
</mgrwt>
<rwgt>
<wgt id='morphing_basis_vector_1'> +2.6211161e-04 </wgt>
<wgt id='morphing_basis_vector_2'> +1.5461695e-04 </wgt>
<wgt id='morphing_basis_vector_3'> +1.7936884e-04 </wgt>
<wgt id='morphing_basis_vector_4'> +5.6054636e-05 </wgt>
<wgt id='morphing_basis_vector_5'> +7.8163996e-05 </wgt>
</rwgt>
</event>
<event>
 4      1 +1.9425900e-05 4.49395800e+02 7.81860800e-03 9.52082500e-02
        2 -1    0    0  501    0 +0.0000000000e+00 +0.0000000000e+00 +2.2857853752e+02 2.2857853752e+02 0.0000000000e+00 0.0000e+00 -1.0000e+00
       -2 -1    0    0    0  501 -0.0000000000e+00 -0.0000000000e+00 -2.2088309799e+02 2.2088309799e+02 0.0000000000e+00 0.0000e+00 1.0000e+00
      -13  1    1    2    0    0 -1.5565065831e+02 +5.2636635651e+01 -1.4944377069e+02 2.2210624359e+02 0.0000000000e+00 0.0000e+00 1.0000e+00
       13  1    1    2    0    0 +1.5565065831e+02 -5.2636635651e+01 +1.5713921022e+02 2.2735539192e+02 0.0000000000e+00 0.0000e+00 -1.0000e+00
<mgrwt>
<rscale>  0 0.44939575E+03</rscale>
<asrwt>0</asrwt>
<pdfrwt beam="1">  1        2 0.35165929E-01 0.44939575E+03</pdfrwt>
<pdfrwt beam="2">  1       -2 0.33982015E-01 0.44939575E+03</pdfrwt>
<totfact> 0.14234652E+03</totfact>
</mgrwt>
<rwgt>
<wgt id='morphing_basis_vector_1'> +2.1177277e-04 </wgt>
<wgt id='morphing_basis_vector_2'> +1.1518360e-04 </wgt>
<wgt id='morphing_basis_vector_3'> +1.4365552e-04 </wgt>
<wgt id='morphing_basis_vector_4'> +4.0176185e-05 </wgt>
<wgt id='morphing_basis_vector_5'> +5.0727500e-05 </wgt>
</rwgt>
</event>
<event>
 4      1 +1.9425900e-05 5.14799000e+02 7.81860800e-03 9.36724700e-02
        2 -1    0    0  501    0 +0.0000000000e+00 +0.0000000000e+00 +2.5709225816e+03 2.5709225816e+03 0.0000000000e+00 0.0000e+00 1.0000e+00
       -2 -1    0    0    0  501 -0.0000000000e+00 -0.0000000000e+00 -2.5770714238e+01 2.5770714238e+01 0.0000000000e+00 0.0000e+00 -1.0000e+00
      -13  1    1    2    0    0 -2.0800724295e+02 -1.4962873374e+02 +1.3960006408e+03 1.4193215140e+03 0.0000000000e+00 0.0000e+00 -1.0000e+00
       13  1    1    2    0    0 +2.0800724295e+02 +1.4962873374e+02 +1.1491512266e+03 1.1773717818e+03 0.0000000000e+00 0.0000e+00 1.0000e+00
<mgrwt>
<rscale>  0 0.51479903E+03</rscale>
<asrwt>0</asrwt>
<pdfrwt beam="1">  1        2 0.39552635E+00 0.51479903E+03</pdfrwt>
<pdfrwt beam="2">  1       -2 0.39647273E-02 0.51479903E+03</pdfrwt>
<totfact> 0.10386701E+03</totfact>
</mgrwt>
<rwgt>
<wgt id='morphing_basis_vector_1'> +3.3034176e-04 </wgt>
<wgt id='morphing_basis_vector_2'> +2.1969103e-04 </wgt>
<wgt id='morphing_basis_vector_3'> +2.2600372e-04 </wgt>
<wgt id='morphing_basis_vector_4'> +7.4931609e-05 </wgt>
<wgt id='morphing_basis_vector_5'> +1.1668748e-04 </wgt>
</rwgt>
</event>
<event>
 4      1 +1.9425900e-05 4.96989200e+02 7.81860800e-03 9.40654000e-02
        2 -1    0    0  501    0 +0.0000000000e+00 +0.0000000000e+00 +1.6623587423e+03 1.6623587423e+03 0.0000000000e+00 0.0000e+00 1.0000e+00
       -2 -1    0    0    0  501 -0.0000000000e+00 -0.0000000000e+00 -3.7145757678e+01 3.7145757678e+01 0.0000000000e+00 0.0000e+00 -1.0000e+00
      -13  1    1    2    0    0 -5.1308154261e+00 +2.3939548646e+02 +1.0397732610e+03 1.0669887341e+03 0.0000000000e+00 0.0000e+00 1.0000e+00
       13  1    1    2    0    0 +5.1308154261e+00 -2.3939548646e+02 +5.8543972356e+02 6.3251576591e+02 0.0000000000e+00 0.0000e+00 -1.0000e+00
<mgrwt>
<rscale>  0 0.49698924E+03</rscale>
<asrwt>0</asrwt>
<pdfrwt beam="1">  1        2 0.25574744E+00 0.49698924E+03</pdfrwt>
<pdfrwt beam="2">  1       -2 0.57147332E-02 0.49698924E+03</pdfrwt>
<totfact> 0.19120906E+03</totfact>
</mgrwt>
<rwgt>
<wgt id='morphing_basis_vector_1'> +3.0741650e-04 </wgt>
<wgt id='morphing_basis_vector_2'> +2.2895196e-04 </wgt>
<wgt id='morphing_basis_vector_3'> +1.9365397e-04 </wgt>
<wgt id='morphing_basis_vector_4'> +5.8986657e-05 </wgt>
<wgt id='morphing_basis_vector_5'> +9.5713101e-05 </wgt>
</rwgt>
</event>
<event>
 4      1 +1.9425900e-05 4.55649400e+02 7.81860800e-03 9.50497400e-02
        2 -1    0    0  501    0 +0.0000000000e+00 +0.0000000000e+00 +6.5666148878e+02 6.5666148878e+02 0.0000000000e+00 0.0000e+00 -1.0000e+00
       -2 -1    0    0    0  501 -0.0000000000e+00 -0.0000000000e+00 -7.9042386579e+01 7.9042386579e+01 0.0000000000e+00 0.0000e+00 1.0000e+00
      -13  1    1    2    0    0 -7.6143171033e+01 -1.3681598056e+02 +5.5601788753e+02 5.7764373647e+02 0.0000000000e+00 0.0000e+00 -1.0000e+00
       13  1    1    2    0    0 +7.6143171033e+01 +1.3681598056e+02 +2.1601214675e+01 1.5806013889e+02 0.0000000000e+00 0.0000e+00 1.0000e+00
<mgrwt>
<rscale>  0 0.45564939E+03</rscale>
<asrwt>0</asrwt>
<pdfrwt beam="1">  1        2 0.10102484E+00 0.45564939E+03</pdfrwt>
<pdfrwt beam="2">  1       -2 0.12160368E-01 0.45564939E+03</pdfrwt>
<totfact> 0.23939231E+03</totfact>
</mgrwt>
<rwgt>
<wgt id='morphing_basis_vector_1'> +2.8277829e-04 </wgt>
<wgt id='morphing_basis_vector_2'> +3.1331723e-04 </wgt>
<wgt id='morphing_basis_vector_3'> +1.1061266e-04 </wgt>
<wgt id='morphing_basis_vector_4'> +3.0445871e-05 </wgt>
<wgt id='morphing_basis_vector_5'> +5.8892389e-05 </wgt>
</rwgt>
</event>
<event>
 4      1 +1.9425900e-05 4.36807400e+02 7.81860800e-03 9.55357000e-02
        2 -1    0    0  501    0 +0.0000000000e+00 +0.0000000000e+00 +2.9664529016e+02 2.9664529016e+02 0.0000000000e+00 0.0000e+00 -1.0000e+00
       -2 -1    0    0    0  501 -0.0000000000e+00 -0.0000000000e+00 -1.6079870506e+02 1.6079870506e+02 0.0000000000e+00 0.0000e+00 1.0000e+00
      -13  1    1    2    0    0 -8.6345364019e+01 -8.2609435793e+01 -1.2352581690e+02 1.7186758918e+02 0.0000000000e+00 0.0000e+00 1.0000e+00
       13  1    1    2    0    0 +8.6345364019e+01 +8.2609435793e+01 +2.5937240200e+02 2.8557640604e+02 0.0000000000e+00 0.0000e+00 -1.0000e+00
<mgrwt>
<rscale>  0 0.43680741E+03</rscale>
<asrwt>0</asrwt>
<pdfrwt beam="1">  1        2 0.45637737E-01 0.43680741E+03</pdfrwt>
<pdfrwt beam="2">  1       -2 0.24738262E-01 0.43680741E+03</pdfrwt>
<totfact> 0.18433970E+03</totfact>
</mgrwt>
<rwgt>
<wgt id='morphing_basis_vector_1'> +1.9530260e-04 </wgt>
<wgt id='morphing_basis_vector_2'> +1.0544892e-04 </wgt>
<wgt id='morphing_basis_vector_3'> +1.3076758e-04 </wgt>
<wgt id='morphing_basis_vector_4'> +3.4622670e-05 </wgt>
<wgt id='morphing_basis_vector_5'> +4.1919244e-05 </wgt>
</rwgt>
</event>
<event>
 4      1 +1.9425900e-05 4.71974900e+02 7.81860800e-03 9.46482200e-02
        2 -1    0    0  501    0 +0.0000000000e+00 +0.0000000000e+00 +1.9525419261e+03 1.9525419261e+03 0.0000000000e+00 0.0000e+00 1.0000e+00
       -2 -1    0    0    0  501 -0.0000000000e+00 -0.0000000000e+00 -2.8521833407e+01 2.8521833407e+01 0.0000000000e+00 0.0000e+00 -1.0000e+00
      -13  1    1    2    0    0 -2.2560007939e+02 -6.8549405425e+01 +1.0030627592e+03 1.0304025018e+03 0.0000000000e+00 0.0000e+00 -1.0000e+00
       13  1    1    2    0    0 +2.2560007939e+02 +6.8549405425e+01 +9.2095733352e+02 9.5066125774e+02 0.0000000000e+00 0.0000e+00 1.0000e+00
<mgrwt>
<rscale>  0 0.47197490E+03</rscale>
<asrwt>0</asrwt>
<pdfrwt beam="1">  1        2 0.30039096E+00 0.47197490E+03</pdfrwt>
<pdfrwt beam="2">  1       -2 0.43879759E-02 0.47197490E+03</pdfrwt>
<totfact> 0.19872891E+03</totfact>
</mgrwt>
<rwgt>
<wgt id='morphing_basis_vector_1'> +2.5278861e-04 </wgt>
<wgt id='morphing_basis_vector_2'> +1.6106737e-04 </wgt>
<wgt id='morphing_basis_vector_3'> +1.6494801e-04 </wgt>
<wgt id='morphing_basis_vector_4'> +4.9488283e-05 </wgt>
<wgt id='morphing_basis_vector_5'> +6.9806952e-05 </wgt>
</rwgt>
</event>
<event>
 4      1 +1.9425900e-05 4.36840700e+02 7.81860800e-03 9.55348200e-02
        2 -1    0    0  501    0 +0.0000000000e+00 +0.0000000000e+00 +7.3262652222e+02 7.3262652222e+02 0.0000000000e+00 0.0000e+00 -1.0000e+00
       -2 -1    0    0    0  501 -0.0000000000e+00 -0.0000000000e+00 -6.5118385815e+01 6.5118385815e+01 0.0000000000e+00 0.0000e+00 1.0000e+00
      -13  1    1    2    0    0 -1.4699442383e+02 +3.8953751824e+00 +3.8812704283e+01 1.5208208507e+02 0.0000000000e+00 0.0000e+00 1.0000e+00
       13  1    1    2    0    0 +1.4699442383e+02 -3.8953751824e+00 +6.2869543212e+02 6.4566282296e+02 0.0000000000e+00 0.0000e+00 -1.0000e+00
<mgrwt>
<rscale>  0 0.43684073E+03</rscale>
<asrwt>0</asrwt>
<pdfrwt beam="1">  1        2 0.11271177E+00 0.43684073E+03</pdfrwt>
<pdfrwt beam="2">  1       -2 0.10018214E-01 0.43684073E+03</pdfrwt>
<totfact> 0.28422607E+03</totfact>
</mgrwt>
<rwgt>
<wgt id='morphing_basis_vector_1'> +1.9544413e-04 </wgt>
<wgt id='morphing_basis_vector_2'> +1.0578032e-04 </wgt>
<wgt id='morphing_basis_vector_3'> +1.3072664e-04 </wgt>
<wgt id='morphing_basis_vector_4'> +3.4624984e-05 </wgt>
<wgt id='morphing_basis_vector_5'> +4.1947005e-05 </wgt>
</rwgt>
</event>
<event>
 4      1 +1.9425900e-05 4.59354700e+02 7.81860800e-03 9.49570800e-02
        2 -1    0    0  501    0 +0.0000000000e+00 +0.0000000000e+00 +3.0269226483e+02 3.0269226483e+02 0.0000000000e+00 0.0000e+00 -1.0000e+00
       -2 -1    0    0    0  501 -0.0000000000e+00 -0.0000000000e+00 -1.7427493910e+02 1.7427493910e+02 0.0000000000e+00 0.0000e+00 1.0000e+00
      -13  1    1    2    0    0 +7.9213410579e+01 +6.5666425318e+01 -1.4900526915e+02 1.8107847488e+02 0.0000000000e+00 0.0000e+00 1.0000e+00
       13  1    1    2    0    0 -7.9213410579e+01 -6.5666425318e+01 +2.7742259488e+02 2.9588872905e+02 0.0000000000e+00 0.0000e+00 -1.0000e+00
<mgrwt>
<rscale>  0 0.45935466E+03</rscale>
<asrwt>0</asrwt>
<pdfrwt beam="1">  1        2 0.46568041E-01 0.45935466E+03</pdfrwt>
<pdfrwt beam="2">  1       -2 0.26811529E-01 0.45935466E+03</pdfrwt>
<totfact> 0.15723538E+03</totfact>
</mgrwt>
<rwgt>
<wgt id='morphing_basis_vector_1'> +2.2519706e-04 </wgt>
<wgt id='morphing_basis_vector_2'> +1.2212446e-04 </wgt>
<wgt id='morphing_basis_vector_3'> +1.5491763e-04 </wgt>
<wgt id='morphing_basis_vector_4'> +4.5141105e-05 </wgt>
<wgt id='morphing_basis_vector_5'> +5.8464899e-05 </wgt>
</rwgt>
</event>
<event>
 4      1 +1.9425900e-05 4.49631300e+02 7.81860800e-03 9.52022300e-02
        2 -1    0    0  501    0 +0.0000000000e+00 +0.0000000000e+00 +5.9608898288e+02 5.9608898288e+02 0.0000000000e+00 0.0000e+00 -1.0000e+00
       -2 -1    0    0    0  501 -0.0000000000e+00 -0.0000000000e+00 -8.4789465440e+01 8.4789465440e+01 0.0000000000e+00 0.0000e+00 1.0000e+00
      -13  1    1    2    0    0 -2.1536360972e+00 +2.2399967019e+02 +2.2685504358e+02 3.1881609305e+02 0.0000000000e+00 0.0000e+00 1.0000e+00
       13  1    1    2    0    0 +2.1536360972e+00 -2.2399967019e+02 +2.8444447386e+02 3.6206235527e+02 0.0000000000e+00 0.0000e+00 -1.0000e+00
<mgrwt>
<rscale>  0 0.44963125E+03</rscale>
<asrwt>0</asrwt>
<pdfrwt beam="1">  1        2 0.91705995E-01 0.44963125E+03</pdfrwt>
<pdfrwt beam="2">  1       -2 0.13044534E-01 0.44963125E+03</pdfrwt>
<totfact> 0.23986036E+03</totfact>
</mgrwt>
<rwgt>
<wgt id='morphing_basis_vector_1'> +2.1682178e-04 </wgt>
<wgt id='morphing_basis_vector_2'> +1.2999240e-04 </wgt>
<wgt id='morphing_basis_vector_3'> +1.4073314e-04 </wgt>
<wgt id='morphing_basis_vector_4'> +3.9452757e-05 </wgt>
<wgt id='morphing_basis_vector_5'> +5.1166484e-05 </wgt>
</rwgt>
</event>
<event>
 4      1 +1.9425900e-05 4.60552400e+02 7.81860800e-03 9.49273200e-02
        2 -1    0    0  501    0 +0.0000000000e+00 +0.0000000000e+00 +3.7661782002e+02 3.7661782002e+02 0.0000000000e+00 0.0000e+00 -1.0000e+00
       -2 -1    0    0    0  501 -0.0000000000e+00 -0.0000000000e+00 -1.4079821792e+02 1.4079821792e+02 0.0000000000e+00 0.0000e+00 1.0000e+00
      -13  1    1    2    0    0 -2.0068187657e+02 -1.0870203322e+02 +8.3505787284e+01 2.4302790811e+02 0.0000000000e+00 0.0000e+00 1.0000e+00
       13  1    1    2    0    0 +2.0068187657e+02 +1.0870203322e+02 +1.5231381481e+02 2.7438812983e+02 0.0000000000e+00 0.0000e+00 -1.0000e+00
<mgrwt>
<rscale>  0 0.46055235E+03</rscale>
<asrwt>0</asrwt>
<pdfrwt beam="1">  1        2 0.57941203E-01 0.46055235E+03</pdfrwt>
<pdfrwt beam="2">  1       -2 0.21661264E-01 0.46055235E+03</pdfrwt>
<totfact> 0.17677631E+03</totfact>
</mgrwt>
<rwgt>
<wgt id='morphing_basis_vector_1'> +2.3134553e-04 </wgt>
<wgt id='morphing_basis_vector_2'> +1.3687090e-04 </wgt>
<wgt id='morphing_basis_vector_3'> +1.5357035e-04 </wgt>
<wgt id='morphing_basis_vector_4'> +4.4754064e-05 </wgt>
<wgt id='morphing_basis_vector_5'> +5.9680985e-05 </wgt>
</rwgt>
</event>
<event>
 4      1 +1.9425900e-05 5.07318500e+02 7.81860800e-03 9.38354000e-02
        2 -1    0    0  501    0 +0.0000000000e+00 +0.0000000000e+00 +1.0557849732e+03 1.0557849732e+03 0.0000000000e+00 0.0000e+00 -1.0000e+00
       -2 -1    0    0    0  501 -0.0000000000e+00 -0.0000000000e+00 -6.0943286327e+01 6.0943286327e+01 0.0000000000e+00 0.0000e+00 1.0000e+00
      -13  1    1    2    0    0 -1.8548790135e+00 +2.1862418521e+02 +2.1429834685e+02 3.0614335923e+02 0.0000000000e+00 0.0000e+00 1.0000e+00
       13  1    1    2    0    0 +1.8548790135e+00 -2.1862418521e+02 +7.8054333998e+02 8.1058490025e+02 0.0000000000e+00 0.0000e+00 -1.0000e+00
<mgrwt>
<rscale>  0 0.50731846E+03</rscale>
<asrwt>0</asrwt>
<pdfrwt beam="1">  1        2 0.16242844E+00 0.50731846E+03</pdfrwt>
<pdfrwt beam="2">  1       -2 0.93758910E-02 0.50731846E+03</pdfrwt>
<totfact> 0.19478369E+03</totfact>
</mgrwt>
<rwgt>
<wgt id='morphing_basis_vector_1'> +3.0306329e-04 </wgt>
<wgt id='morphing_basis_vector_2'> +1.6963177e-04 </wgt>
<wgt id='morphing_basis_vector_3'> +2.1879148e-04 </wgt>
<wgt id='morphing_basis_vector_4'> +7.5286635e-05 </wgt>
<wgt id='morphing_basis_vector_5'> +1.0685411e-04 </wgt>
</rwgt>
</event>
<event>
 4      1 +1.9425900e-05 4.95094800e+02 7.81860800e-03 9.41082400e-02
        2 -1    0    0  501    0 +0.0000000000e+00 +0.0000000000e+00 +1.6972733679e+03 1.6972733679e+03 0.0000000000e+00 0.0000e+00 1.0000e+00
       -2 -1    0    0    0  501 -0.0000000000e+00 -0.0000000000e+00 -3.6104804087e+01 3.6104804087e+01 0.0000000000e+00 0.0000e+00 -1.0000e+00
      -13  1    1    2    0    0 -2.2188970079e+02 +7.6854019608e+01 +5.5628578599e+02 6.0381740231e+02 0.0000000000e+00 0.0000e+00 -1.0000e+00
       13  1    1    2    0    0 +2.2188970079e+02 -7.6854019608e+01 +1.1048827779e+03 1.1295607697e+03 0.0000000000e+00 0.0000e+00 1.0000e+00
<mgrwt>
<rscale>  0 0.49509483E+03</rscale>
<asrwt>0</asrwt>
<pdfrwt beam="1">  1        2 0.26111892E+00 0.49509483E+03</pdfrwt>
<pdfrwt beam="2">  1       -2 0.55545866E-02 0.49509483E+03</pdfrwt>
<totfact> 0.19116737E+03</totfact>
</mgrwt>
<rwgt>
<wgt id='morphing_basis_vector_1'> +2.8320055e-04 </wgt>
<wgt id='morphing_basis_vector_2'> +1.6193995e-04 </wgt>
<wgt id='morphing_basis_vector_3'> +1.9986212e-04 </wgt>
<wgt id='morphing_basis_vector_4'> +6.5796665e-05 </wgt>
<wgt id='morphing_basis_vector_5'> +9.2740184e-05 </wgt>
</rwgt>
</event>
<event>
 4      1 +1.9425900e-05 4.83680600e+02 7.81860800e-03 9.43707600e-02
        2 -1    0    0  501    0 +0.0000000000e+00 +0.0000000000e+00 +1.1457122942e+03 1.1457122942e+03 0.0000000000e+00 0.0000e+00 1.0000e+00
       -2 -1    0    0    0  501 -0.0000000000e+00 -0.0000000000e+00 -5.1048361585e+01 5.1048361585e+01 0.0000000000e+00 0.0000e+00 -1.0000e+00
      -13  1    1    2    0    0 -1.3770307432e+02 -1.6828009232e+02 +8.0925992439e+02 8.3796297733e+02 0.0000000000e+00 0.0000e+00 1.0000e+00
       13  1    1    2    0    0 +1.3770307432e+02 +1.6828009232e+02 +2.8540400817e+02 3.5879767840e+02 0.0000000000e+00 0.0000e+00 -1.0000e+00
<mgrwt>
<rscale>  0 0.48368062E+03</rscale>
<asrwt>0</asrwt>
<pdfrwt beam="1">  1        2 0.17626341E+00 0.48368062E+03</pdfrwt>
<pdfrwt beam="2">  1       -2 0.78535950E-02 0.48368062E+03</pdfrwt>
<totfact> 0.22696258E+03</totfact>
</mgrwt>
<rwgt>
<wgt id='morphing_basis_vector_1'> +2.9896376e-04 </wgt>
<wgt id='morphing_basis_vector_2'> +2.5832858e-04 </wgt>
<wgt id='morphing_basis_vector_3'> +1.6681408e-04 </wgt>
<wgt id='morphing_basis_vector_4'> +4.6889383e-05 </wgt>
<wgt id='morphing_basis_vector_5'> +8.2275747e-05 </wgt>
</rwgt>
</event>
<event>
 4      1 +1.9425900e-05 4.70531000e+02 7.81860800e-03 9.46830400e-02
        2 -1    0    0  501    0 +0.0000000000e+00 +0.0000000000e+00 +6.1126946245e+02 6.1126946245e+02 0.0000000000e+00 0.0000e+00 -1.0000e+00
       -2 -1    0    0    0  501 -0.0000000000e+00 -0.0000000000e+00 -9.0549040742e+01 9.0549040742e+01 0.0000000000e+00 0.0000e+00 1.0000e+00
      -13  1    1    2    0    0 -2.0280353845e+02 +1.0875312781e+02 +1.8739106963e+02 2.9676915438e+02 0.0000000000e+00 0.0000e+00 1.0000e+00
       13  1    1    2    0    0 +2.0280353845e+02 -1.0875312781e+02 +3.3332935208e+02 4.0504934881e+02 0.0000000000e+00 0.0000e+00 -1.0000e+00
<mgrwt>
<rscale>  0 0.47053103E+03</rscale>
<asrwt>0</asrwt>
<pdfrwt beam="1">  1        2 0.94041453E-01 0.47053103E+03</pdfrwt>
<pdfrwt beam="2">  1       -2 0.13930622E-01 0.47053103E+03</pdfrwt>
<totfact> 0.20991525E+03</totfact>
</mgrwt>
<rwgt>
<wgt id='morphing_basis_vector_1'> +2.4496331e-04 </wgt>
<wgt id='morphing_basis_vector_2'> +1.4229677e-04 </wgt>
<wgt id='morphing_basis_vector_3'> +1.6626097e-04 </wgt>
<wgt id='morphing_basis_vector_4'> +5.0256402e-05 </wgt>
<wgt id='morphing_basis_vector_5'> +6.8221286e-05 </wgt>
</rwgt>
</event>
<event>
 4      1 +1.9425900e-05 5.08335400e+02 7.81860800e-03 9.38130700e-02
        2 -1    0    0  501    0 +0.0000000000e+00 +0.0000000000e+00 +6.9677709367e+01 6.9677709367e+01 0.0000000000e+00 0.0000e+00 -1.0000e+00
       -2 -1    0    0    0  501 -0.0000000000e+00 -0.0000000000e+00 -9.2714329749e+02 9.2714329749e+02 0.0000000000e+00 0.0000e+00 1.0000e+00
      -13  1    1    2    0    0 +4.0179252937e+01 +1.6818658628e+02 -7.9401819623e+02 8.1262906429e+02 0.0000000000e+00 0.0000e+00 1.0000e+00
       13  1    1    2    0    0 -4.0179252937e+01 -1.6818658628e+02 -6.3447391892e+01 1.8419194258e+02 0.0000000000e+00 0.0000e+00 -1.0000e+00
<mgrwt>
<rscale>  0 0.50833541E+03</rscale>
<asrwt>0</asrwt>
<pdfrwt beam="1">  1        2 0.10719648E-01 0.50833541E+03</pdfrwt>
<pdfrwt beam="2">  1       -2 0.14263743E+00 0.50833541E+03</pdfrwt>
<totfact> 0.26029338E+02</totfact>
</mgrwt>
<rwgt>
<wgt id='morphing_basis_vector_1'> +3.0399760e-04 </wgt>
<wgt id='morphing_basis_vector_2'> +1.6789519e-04 </wgt>
<wgt id='morphing_basis_vector_3'> +2.2070740e-04 </wgt>
<wgt id='morphing_basis_vector_4'> +7.6459732e-05 </wgt>
<wgt id='morphing_basis_vector_5'> +1.0806155e-04 </wgt>
</rwgt>
</event>
<event>
 4      1 +1.9425900e-05 4.72919700e+02 7.81860800e-03 9.46255100e-02
        2 -1    0    0  501    0 +0.0000000000e+00 +0.0000000000e+00 +1.2130654760e+02 1.2130654760e+02 0.0000000000e+00 0.0000e+00 -1.0000e+00
       -2 -1    0    0    0  501 -0.0000000000e+00 -0.0000000000e+00 -4.6092542800e+02 4.6092542800e+02 0.0000000000e+00 0.0000e+00 1.0000e+00
      -13  1    1    2    0    0 -1.4726218059e+02 -9.4605942230e+01 -3.6554511005e+02 4.0528960216e+02 0.0000000000e+00 0.0000e+00 1.0000e+00
       13  1    1    2    0    0 +1.4726218059e+02 +9.4605942230e+01 +2.5926229643e+01 1.7694237345e+02 0.0000000000e+00 0.0000e+00 -1.0000e+00
<mgrwt>
<rscale>  0 0.47291975E+03</rscale>
<asrwt>0</asrwt>
<pdfrwt beam="1">  1        2 0.18662546E-01 0.47291975E+03</pdfrwt>
<pdfrwt beam="2">  1       -2 0.70911603E-01 0.47291975E+03</pdfrwt>
<totfact> 0.71447821E+02</totfact>
</mgrwt>
<rwgt>
<wgt id='morphing_basis_vector_1'> +2.4532187e-04 </wgt>
<wgt id='morphing_basis_vector_2'> +1.3432192e-04 </wgt>
<wgt id='morphing_basis_vector_3'> +1.7105136e-04 </wgt>
<wgt id='morphing_basis_vector_4'> +5.2510272e-05 </wgt>
<wgt id='morphing_basis_vector_5'> +7.0233410e-05 </wgt>
</rwgt>
</event>
</LesHouchesEvents>
