<LesHouchesEvents version="3.0">
<header>
<!--
#*********************************************************************
#                                                                    *
#                        MadGraph5_aMC@NLO                           *
#                                                                    *
#                           Going Beyond                             *
#                                                                    *
#                   http://madgraph.hep.uiuc.edu                     *
#                   http://madgraph.phys.ucl.ac.be                   *
#                   http://amcatnlo.cern.ch                          *
#                                                                    *
#                     The MadGraph5_aMC@NLO team                     *
#                                                                    *
#....................................................................*
#                                                                    *
# This file contains all the information necessary to reproduce      *
# the events generated:                                              *
#                                                                    *
# 1. software version                                                *
# 2. proc_card          : code generation info including model       *
# 3. param_card         : model primary parameters in the LH format  *
# 4. run_card           : running parameters (collider and cuts)     *
# 5. pythia_card        : present only if pythia has been run        *
# 6. pgs_card           : present only if pgs has been run           *
# 7. delphes_cards      : present only if delphes has been run       *
#                                                                    *
#                                                                    *
#*********************************************************************
-->
<MGVersion>
2.6.4
</MGVersion>
<MG5ProcCard>
<![CDATA[
#************************************************************
#*                     MadGraph5_aMC@NLO                    *
#*                                                          *
#*                *                       *                 *
#*                  *        * *        *                   *
#*                    * * * * 5 * * * *                     *
#*                  *        * *        *                   *
#*                *                       *                 *
#*                                                          *
#*                                                          *
#*         VERSION 2.6.4                 2018-11-09         *
#*                                                          *
#*    The MadGraph5_aMC@NLO Development Team - Find us at   *
#*    https://server06.fynu.ucl.ac.be/projects/madgraph     *
#*                                                          *
#************************************************************
#*                                                          *
#*               Command File for MadGraph5_aMC@NLO         *
#*                                                          *
#*     run as ./bin/mg5_aMC  filename                       *
#*                                                          *
#************************************************************
set default_unset_couplings 99
set group_subprocesses Auto
set ignore_six_quark_processes False
set loop_optimized_output True
set loop_color_flows False
set gauge unitary
set complex_mass_scheme False
set max_npoint_for_channel 0
import model SM4fLL_UFO
define p = g u c d s u~ c~ d~ s~
define j = g u c d s u~ c~ d~ s~
define l+ = e+ mu+
define l- = e- mu-
define vl = ve vm vt
define vl~ = ve~ vm~ vt~
generate u u~ > mu+ mu- NP=2 QED=99 QCD=0
output /Users/dpappadopulo/Projects/~Physics/madminer/examples/example\
4_systematics_DY/data/mg_processes/DY_sys/
]]>
</MG5ProcCard>
<MGProcCard>
#*********************************************************************
#                        MadGraph/MadEvent                           *
#                   http://madgraph.hep.uiuc.edu                     *
#                                                                    *
#                          proc_card.dat                             *
#*********************************************************************
#                                                                    *
#            This Files is generated by MADGRAPH 5                   *
#                                                                    *
# WARNING: This Files is generated for MADEVENT (compatibility issue)*
#          This files is NOT a valid MG4 proc_card.dat               *
#          Running this in MG4 will NEVER reproduce the result of MG5*
#                                                                    *
#*********************************************************************
#*********************************************************************
# Process(es) requested : mg2 input                                  *
#*********************************************************************
# Begin PROCESS # This is TAG. Do not modify this line
u u~ > mu+ mu-           #Process
# Be carefull the coupling are here in MG5 convention
NP=2
QED=99
QCD=0
          
end_coup           # End the couplings input

done               # this tells MG there are no more procs
# End PROCESS  # This is TAG. Do not modify this line
#*********************************************************************
# Model information                                                  *
#*********************************************************************
# Begin MODEL  # This is TAG. Do not modify this line
SM4fLL_UFO
# End   MODEL  # This is TAG. Do not modify this line
#*********************************************************************
# Start multiparticle definitions                                    *
#*********************************************************************
# Begin MULTIPARTICLES # This is TAG. Do not modify this line

# End  MULTIPARTICLES # This is TAG. Do not modify this line
</MGProcCard>
<MGRunCard>
<![CDATA[
#*********************************************************************
#                       MadGraph5_aMC@NLO                            *
#                                                                    *
#                     run_card.dat MadEvent                          *
#                                                                    *
#  This file is used to set the parameters of the run.               *
#                                                                    *
#  Some notation/conventions:                                        *
#                                                                    *
#   Lines starting with a '# ' are info or comments                  *
#                                                                    *
#   mind the format:   value    = variable     ! comment             *
#*********************************************************************
#
#*******************                                                 
# Running parameters
#*******************                                                 
#                                                                    
#*********************************************************************
# Tag name for the run (one word)                                    *
#*********************************************************************
  tag_1     = run_tag ! name of the run 
#*********************************************************************
# Run to generate the grid pack                                      *
#*********************************************************************
  False     = gridpack  !True = setting up the grid pack
#*********************************************************************
# Number of events and rnd seed                                      *
# Warning: Do not generate more than 1M events in a single run       *
# If you want to run Pythia, avoid more than 50k events in a run.    *
#*********************************************************************
  1000 = nevents ! Number of unweighted events requested
 66 = iseed   ! rnd seed (0=assigned automatically=default))
#*********************************************************************
# Collider type and energy                                           *
# lpp: 0=No PDF, 1=proton, -1=antiproton, 2=photon from proton,      *
#                                         3=photon from electron     *
#*********************************************************************
     1        = lpp1    ! beam 1 type 
     1        = lpp2    ! beam 2 type
     6500.0     = ebeam1  ! beam 1 total energy in GeV
     6500.0     = ebeam2  ! beam 2 total energy in GeV
#*********************************************************************
# Beam polarization from -100 (left-handed) to 100 (right-handed)    *
#*********************************************************************
     0.0     = polbeam1 ! beam polarization for beam 1
     0.0     = polbeam2 ! beam polarization for beam 2
#*********************************************************************
# PDF CHOICE: this automatically fixes also alpha_s and its evol.    *
#*********************************************************************
     lhapdf    = pdlabel     ! PDF set
     90900   = lhaid     ! if pdlabel=lhapdf, this is the lhapdf number
#*********************************************************************
# Renormalization and factorization scales                           *
#*********************************************************************
 False = fixed_ren_scale  ! if .true. use fixed ren scale
 False        = fixed_fac_scale  ! if .true. use fixed fac scale
 91.188  = scale            ! fixed ren scale
 91.188  = dsqrt_q2fact1    ! fixed fact scale for pdf1
 91.188  = dsqrt_q2fact2    ! fixed fact scale for pdf2
 -1 = dynamical_scale_choice ! Choose one of the preselected dynamical choices
 1.0  = scalefact        ! scale factor for event-by-event scales
#*********************************************************************
# Type and output format
#*********************************************************************
  False     = gridpack  !True = setting up the grid pack
  -1.0 = time_of_flight ! threshold (in mm) below which the invariant livetime is not written (-1 means not written)
  3.0 = lhe_version       ! Change the way clustering information pass to shower.        
  True = clusinfo         ! include clustering tag in output
  sum =  event_norm       ! average/sum. Normalization of the weight in the LHEF
#*********************************************************************
# Matching - Warning! ickkw > 1 is still beta
#*********************************************************************
 0 = ickkw            ! 0 no matching, 1 MLM, 2 CKKW matching
 1 = highestmult      ! for ickkw=2, highest mult group
 1 = ktscheme         ! for ickkw=1, 1 Durham kT, 2 Pythia pTE
 1.0 = alpsfact         ! scale factor for QCD emission vx
 False = chcluster        ! cluster only according to channel diag
 True = pdfwgt           ! for ickkw=1, perform pdf reweighting
 4 = asrwgtflavor     ! highest quark flavor for a_s reweight    
#*********************************************************************
#**********************************************************
#
#**********************************************************
# Automatic ptj and mjj cuts if xqcut > 0
# (turn off for VBF and single top processes)
#**********************************************************
   False  = auto_ptj_mjj  ! Automatic setting of ptj and mjj
#**********************************************************
#                                                                    
#**********************************
# BW cutoff (M+/-bwcutoff*Gamma)
#**********************************
  15.0  = bwcutoff      ! (M+/-bwcutoff*Gamma)
#**********************************************************
# Apply pt/E/eta/dr/mij/kt_durham cuts on decay products or not
# (note that etmiss/ptll/ptheavy/ht/sorted cuts always apply)
#*************************************************************
   False  = cut_decays    ! Cut decay products 
#*************************************************************
# Number of helicities to sum per event (0 = all helicities)
# 0 gives more stable result, but longer run time (needed for
# long decay chains e.g.).
# Use >=2 if most helicities contribute, e.g. pure QCD.
#*************************************************************
   0  = nhel          ! Number of helicities used per event
#*******************                                                 
# Standard Cuts
#*******************                                                 
#                                                                    
#*********************************************************************
# Minimum and maximum pt's (for max, -1 means no cut)                *
#*********************************************************************
 15.0  = ptj       ! minimum pt for the jets
 0.0  = ptb       ! minimum pt for the b 
 0.0 = pta       ! minimum pt for the photons
 25.0  = ptl       ! minimum pt for the charged leptons
 0.0  = misset    ! minimum missing Et (sum of neutrino's momenta)
 0.0  = ptheavy   ! minimum pt for one heavy final state
 -1.0  = ptjmax    ! maximum pt for the jets
 -1.0  = ptbmax    ! maximum pt for the b
 -1.0 = ptamax       ! maximum pt for the photons
 -1.0  = ptlmax    ! maximum pt for the charged leptons
 -1.0  = missetmax ! maximum missing Et (sum of neutrino's momenta)
#*********************************************************************
# Minimum and maximum E's (in the center of mass frame)              *
#*********************************************************************
  0.0  = ej     ! minimum E for the jets 
  0.0  = eb     ! minimum E for the b 
  0.0  = ea     ! minimum E for the photons 
  0.0  = el     ! minimum E for the charged leptons 
  -1.0   = ejmax ! maximum E for the jets
 -1.0   = ebmax ! maximum E for the b
 -1.0   = eamax ! maximum E for the photons
 -1.0   = elmax ! maximum E for the charged leptons
#*********************************************************************
# Maximum and minimum absolute rapidity (for max, -1 means no cut)   *
#*********************************************************************
 2.5 = etaj    ! max rap for the jets
  -1.0  = etab    ! max rap for the b
 3.0  = etaa    ! max rap for the photons
 2.5  = etal    ! max rap for the charged leptons
 0.0  = etajmin ! min rap for the jets
 0.0  = etabmin ! min rap for the b
 0.0  = etaamin ! min rap for the photons
 0.0  = etalmin ! main rap for the charged leptons
#*********************************************************************
# Minimum and maximum DeltaR distance                                *
#*********************************************************************
 0.0 = drjj    ! min distance between jets
 0.0 = drbb    ! min distance between b's
 0.0 = drll    ! min distance between leptons
 0.0 = draa    ! min distance between gammas
 0.0 = drbj    ! min distance between b and jet
 0.0 = draj    ! min distance between gamma and jet
 0.0 = drjl    ! min distance between jet and lepton
 0.0 = drab    ! min distance between gamma and b
 0.0 = drbl    ! min distance between b and lepton
 0.0 = dral    ! min distance between gamma and lepton
 -1.0  = drjjmax ! max distance between jets
 -1.0  = drbbmax ! max distance between b's
 -1.0  = drllmax ! max distance between leptons
 -1.0  = draamax ! max distance between gammas
 -1.0  = drbjmax ! max distance between b and jet
 -1.0  = drajmax ! max distance between gamma and jet
 -1.0  = drjlmax ! max distance between jet and lepton
 -1.0  = drabmax ! max distance between gamma and b
 -1.0  = drblmax ! max distance between b and lepton
 -1.0  = dralmax ! maxdistance between gamma and lepton
#*********************************************************************
# Minimum and maximum invariant mass for pairs                       *
# WARNING: for four lepton final state mmll cut require to have      *
#          different lepton masses for each flavor!                  *           
#*********************************************************************
 0.0   = mmjj    ! min invariant mass of a jet pair 
 0.0   = mmbb    ! min invariant mass of a b pair 
 0.0   = mmaa    ! min invariant mass of gamma gamma pair
 750   = mmll    ! min invariant mass of l+l- (same flavour) lepton pair
 -1.0  = mmjjmax ! max invariant mass of a jet pair
 -1.0  = mmbbmax ! max invariant mass of a b pair
 -1.0  = mmaamax ! max invariant mass of gamma gamma pair
 900  = mmllmax ! max invariant mass of l+l- (same flavour) lepton pair
#*********************************************************************
# Minimum and maximum invariant mass for all letpons                 *
#*********************************************************************
 0.0   = mmnl    ! min invariant mass for all letpons (l+- and vl) 
 -1.0  = mmnlmax ! max invariant mass for all letpons (l+- and vl) 
#*********************************************************************
# Minimum and maximum pt for 4-momenta sum of leptons                *
#*********************************************************************
 0.0   = ptllmin  ! Minimum pt for 4-momenta sum of leptons(l and vl)
 -1.0  = ptllmax  ! Maximum pt for 4-momenta sum of leptons(l and vl)
#*********************************************************************
# Inclusive cuts                                                     *
#*********************************************************************
 0.0  = xptj ! minimum pt for at least one jet  
 0.0  = xptb ! minimum pt for at least one b 
 0.0  = xpta ! minimum pt for at least one photon 
 0.0  = xptl ! minimum pt for at least one charged lepton 
#*********************************************************************
# Control the pt's of the jets sorted by pt                          *
#*********************************************************************
 0.0   = ptj1min ! minimum pt for the leading jet in pt
 0.0   = ptj2min ! minimum pt for the second jet in pt
 0.0   = ptj3min ! minimum pt for the third jet in pt
 0.0   = ptj4min ! minimum pt for the fourth jet in pt
 -1.0  = ptj1max ! maximum pt for the leading jet in pt 
 -1.0  = ptj2max ! maximum pt for the second jet in pt
 -1.0  = ptj3max ! maximum pt for the third jet in pt
 -1.0  = ptj4max ! maximum pt for the fourth jet in pt
 0   = cutuse  ! reject event if fails any (0) / all (1) jet pt cuts
#*********************************************************************
# Control the pt's of leptons sorted by pt                           *
#*********************************************************************
 0.0   = ptl1min ! minimum pt for the leading lepton in pt
 0.0   = ptl2min ! minimum pt for the second lepton in pt
 0.0   = ptl3min ! minimum pt for the third lepton in pt
 0.0   = ptl4min ! minimum pt for the fourth lepton in pt
 -1.0  = ptl1max ! maximum pt for the leading lepton in pt 
 -1.0  = ptl2max ! maximum pt for the second lepton in pt
 -1.0  = ptl3max ! maximum pt for the third lepton in pt
 -1.0  = ptl4max ! maximum pt for the fourth lepton in pt
#*********************************************************************
# Control the Ht(k)=Sum of k leading jets                            *
#*********************************************************************
 0.0   = htjmin ! minimum jet HT=Sum(jet pt)
 -1.0  = htjmax ! maximum jet HT=Sum(jet pt)
 0.0   = ihtmin  !inclusive Ht for all partons (including b)
 -1.0  = ihtmax  !inclusive Ht for all partons (including b)
 0.0   = ht2min ! minimum Ht for the two leading jets
 0.0   = ht3min ! minimum Ht for the three leading jets
 0.0   = ht4min ! minimum Ht for the four leading jets
 -1.0  = ht2max ! maximum Ht for the two leading jets
 -1.0  = ht3max ! maximum Ht for the three leading jets
 -1.0  = ht4max ! maximum Ht for the four leading jets
#***********************************************************************
# Photon-isolation cuts, according to hep-ph/9801442                   *
# When ptgmin=0, all the other parameters are ignored                  *
# When ptgmin>0, pta and draj are not going to be used                 *
#***********************************************************************
 0.0 = ptgmin ! Min photon transverse momentum
 0.4 = R0gamma ! Radius of isolation code
 1.0 = xn ! n parameter of eq.(3.4) in hep-ph/9801442
 1.0 = epsgamma ! epsilon_gamma parameter of eq.(3.4) in hep-ph/9801442
 True = isoEM ! isolate photons from EM energy (photons and leptons)
#*********************************************************************
# WBF cuts                                                           *
#*********************************************************************
 0.0   = xetamin ! minimum rapidity for two jets in the WBF case  
 0.0   = deltaeta ! minimum rapidity for two jets in the WBF case 
#*********************************************************************
# KT DURHAM CUT                                                      *
#*********************************************************************
 -1.0    =  ktdurham        
 0.4  =  dparameter 
#*********************************************************************
# maximal pdg code for quark to be considered as a light jet         *
# (otherwise b cuts are applied)                                     *
#*********************************************************************
 4 = maxjetflavor    ! Maximum jet pdg code
#*********************************************************************
# Jet measure cuts                                                   *
#*********************************************************************
 0.0   = xqcut   ! minimum kt jet measure between partons
#*********************************************************************
#
#*********************************************************************
# Store info for systematics studies                                 *
# WARNING: If use_syst is T, matched Pythia output is                *
#          meaningful ONLY if plotted taking matchscale              *
#          reweighting into account!                                 *
#*********************************************************************
#    False  = use_syst      ! Enable systematics studies # Commented out by MadMiner
#
#**************************************
# Parameter of the systematics study
#  will be used by SysCalc (if installed)
#**************************************                                  
#
0.5 1 2 = sys_scalefact  # factorization/renormalization scale factor
None = sys_alpsfact  # \alpha_s emission scale factors
30 50 = sys_matchscale # variation of merging scale
# PDF sets and number of members (0 or none for all members).
NNPDF23_lo_as_0130_qed = sys_pdf # matching scales
# MSTW2008nlo68cl.LHgrid 1  = sys_pdf


#*********************************************************************
# MadMiner systematics setup                                         *
#*********************************************************************
True = use_syst
systematics = systematics_program
['--pdf=90900'] = systematics_arguments
]]>
</MGRunCard>
<slha>
######################################################################
## PARAM_CARD AUTOMATICALY GENERATED BY MG5 FOLLOWING UFO MODEL   ####
######################################################################
##                                                                  ##
##  Width set on Auto will be computed following the information    ##
##        present in the decay.py files of the model.               ##
##        See  arXiv:1402.1178 for more details.                    ##
##                                                                  ##
######################################################################

###################################
## INFORMATION FOR CKMBLOCK
###################################
Block ckmblock 
    1 2.277360e-01 # cabi 

###################################
## INFORMATION FOR MASS
###################################
Block mass 
    5 4.700000e+00 # MB 
    6 1.720000e+02 # MT 
   15 1.777000e+00 # MTA 
   23 9.118760e+01 # MZ 
   25 1.250000e+02 # MH 
## Dependent parameters, given by model restrictions.
## Those values should be edited following the 
## analytical expression. MG5 ignores those values 
## but they are important for interfacing the output of MG5
## to external program such as Pythia.
  1 0.000000 # d : 0.0 
  2 0.000000 # u : 0.0 
  3 0.000000 # s : 0.0 
  4 0.000000 # c : 0.0 
  11 0.000000 # e- : 0.0 
  12 0.000000 # ve : 0.0 
  13 0.000000 # mu- : 0.0 
  14 0.000000 # vm : 0.0 
  16 0.000000 # vt : 0.0 
  21 0.000000 # g : 0.0 
  22 0.000000 # a : 0.0 
  24 79.824360 # w+ : cmath.sqrt(MZ__exp__2/2. + cmath.sqrt(MZ__exp__4/4. - (aEW*cmath.pi*MZ__exp__2)/(Gf*sqrt__2))) 

###################################
## INFORMATION FOR OBLIQUE
###################################
Block oblique 
    1    0.0    # MadMiner
    2    0.0    # MadMiner

###################################
## INFORMATION FOR SMINPUTS
###################################
Block sminputs 
    1 1.279000e+02 # aEWM1 
    2 1.166370e-05 # Gf 
    3 1.184000e-01 # aS 

###################################
## INFORMATION FOR YUKAWA
###################################
Block yukawa 
    5 4.700000e+00 # ymb 
    6 1.720000e+02 # ymt 
   15 1.777000e+00 # ymtau 

###################################
## INFORMATION FOR DECAY
###################################
DECAY   6 1.508336e+00 # WT 
DECAY  23 2.495200e+00 # WZ 
DECAY  24 2.085000e+00 # WW 
DECAY  25 4.070000e-03 # WH 
## Dependent parameters, given by model restrictions.
## Those values should be edited following the 
## analytical expression. MG5 ignores those values 
## but they are important for interfacing the output of MG5
## to external program such as Pythia.
DECAY  1 0.000000 # d : 0.0 
DECAY  2 0.000000 # u : 0.0 
DECAY  3 0.000000 # s : 0.0 
DECAY  4 0.000000 # c : 0.0 
DECAY  5 0.000000 # b : 0.0 
DECAY  11 0.000000 # e- : 0.0 
DECAY  12 0.000000 # ve : 0.0 
DECAY  13 0.000000 # mu- : 0.0 
DECAY  14 0.000000 # vm : 0.0 
DECAY  15 0.000000 # ta- : 0.0 
DECAY  16 0.000000 # vt : 0.0 
DECAY  21 0.000000 # g : 0.0 
DECAY  22 0.000000 # a : 0.0
</slha>
<initrwgt>
<weightgroup name='mg_reweighting' weight_name_strategy='includeIdInWeightName'>
<weight id='morphing_basis_vector_1'>set param_card oblique 1 -0.06391685 # orig: 0.0
set param_card oblique 2 -0.08653588 # orig: 0.0
</weight>
<weight id='morphing_basis_vector_2'>set param_card oblique 1 0.0342439 # orig: 0.0
set param_card oblique 2 -0.09831893 # orig: 0.0
</weight>
<weight id='morphing_basis_vector_3'>set param_card oblique 1 -0.08145691 # orig: 0.0
set param_card oblique 2 0.09700122 # orig: 0.0
</weight>
<weight id='morphing_basis_vector_4'>set param_card oblique 1 0.09132942 # orig: 0.0
set param_card oblique 2 -0.005442744 # orig: 0.0
</weight>
<weight id='morphing_basis_vector_5'>set param_card oblique 1 0.08535809 # orig: 0.0
set param_card oblique 2 0.08156918 # orig: 0.0
</weight>
</weightgroup>
</initrwgt>
<MGGenerationInfo>
#  Number of Events        :       1000
#  Integrated weight (pb)  :       0.00297417
</MGGenerationInfo>
</header>
<init>
2212 2212 6.500000e+03 6.500000e+03 0 0 90900 90900 -3 1
2.974170e-03 1.716024e-05 2.974170e-06 1
<generator name='MadGraph5_aMC@NLO' version='2.6.4'>please cite 1405.0301 </generator>
</init>
<event>
 4      1 +2.9741700e-06 8.39047500e+02 7.81860800e-03 8.85479000e-02
        2 -1    0    0  501    0 +0.0000000000e+00 +0.0000000000e+00 +1.3801174866e+03 1.3801174866e+03 0.0000000000e+00 0.0000e+00 -1.0000e+00
       -2 -1    0    0    0  501 -0.0000000000e+00 -0.0000000000e+00 -1.2752549723e+02 1.2752549723e+02 0.0000000000e+00 0.0000e+00 1.0000e+00
      -13  1    1    2    0    0 -1.2835234574e+02 -1.9236382655e+02 -2.6581972607e+00 2.3126874504e+02 0.0000000000e+00 0.0000e+00 1.0000e+00
       13  1    1    2    0    0 +1.2835234574e+02 +1.9236382655e+02 +1.2552501867e+03 1.2763742388e+03 0.0000000000e+00 0.0000e+00 -1.0000e+00
<mgrwt>
<rscale>  0 0.83904748E+03</rscale>
<asrwt>0</asrwt>
<pdfrwt beam="1">  1        2 0.21232576E+00 0.83904748E+03</pdfrwt>
<pdfrwt beam="2">  1       -2 0.19619308E-01 0.83904748E+03</pdfrwt>
<totfact> 0.38248759E+02</totfact>
</mgrwt>
<rwgt>
<wgt id='morphing_basis_vector_1'> +2.4753556e-04 </wgt>
<wgt id='morphing_basis_vector_2'> +1.5055170e-04 </wgt>
<wgt id='morphing_basis_vector_3'> +2.2607172e-04 </wgt>
<wgt id='morphing_basis_vector_4'> +1.2774565e-04 </wgt>
<wgt id='morphing_basis_vector_5'> +2.0095519e-04 </wgt>
</rwgt>
</event>
<event>
 4      1 +2.9741700e-06 7.90524700e+02 7.81860800e-03 8.91420200e-02
        2 -1    0    0  501    0 +0.0000000000e+00 +0.0000000000e+00 +9.7595347912e+02 9.7595347912e+02 0.0000000000e+00 0.0000e+00 -1.0000e+00
       -2 -1    0    0    0  501 -0.0000000000e+00 -0.0000000000e+00 -1.6008173417e+02 1.6008173417e+02 0.0000000000e+00 0.0000e+00 1.0000e+00
      -13  1    1    2    0    0 +2.2390065168e+02 -1.6544530608e+02 +8.1115657161e+02 8.5760051002e+02 0.0000000000e+00 0.0000e+00 -1.0000e+00
       13  1    1    2    0    0 -2.2390065168e+02 +1.6544530608e+02 +4.7151733394e+00 2.7843470327e+02 0.0000000000e+00 0.0000e+00 1.0000e+00
<mgrwt>
<rscale>  0 0.79052470E+03</rscale>
<asrwt>0</asrwt>
<pdfrwt beam="1">  1        2 0.15014669E+00 0.79052470E+03</pdfrwt>
<pdfrwt beam="2">  1       -2 0.24627960E-01 0.79052470E+03</pdfrwt>
<totfact> 0.45104421E+02</totfact>
</mgrwt>
<rwgt>
<wgt id='morphing_basis_vector_1'> +2.5767212e-04 </wgt>
<wgt id='morphing_basis_vector_2'> +2.9636205e-04 </wgt>
<wgt id='morphing_basis_vector_3'> +2.1216530e-04 </wgt>
<wgt id='morphing_basis_vector_4'> +2.6353810e-05 </wgt>
<wgt id='morphing_basis_vector_5'> +1.5035813e-04 </wgt>
</rwgt>
</event>
<event>
 4      1 +2.9741700e-06 7.79858800e+02 7.81860800e-03 8.92786800e-02
        2 -1    0    0  501    0 +0.0000000000e+00 +0.0000000000e+00 +3.0778619076e+03 3.0778619076e+03 0.0000000000e+00 0.0000e+00 -1.0000e+00
       -2 -1    0    0    0  501 -0.0000000000e+00 -0.0000000000e+00 -4.9399533388e+01 4.9399533388e+01 0.0000000000e+00 0.0000e+00 1.0000e+00
      -13  1    1    2    0    0 +3.5628333273e+02 -1.0811784899e+02 +1.9787321203e+03 2.0134567506e+03 0.0000000000e+00 0.0000e+00 1.0000e+00
       13  1    1    2    0    0 -3.5628333273e+02 +1.0811784899e+02 +1.0497302539e+03 1.1138046904e+03 0.0000000000e+00 0.0000e+00 -1.0000e+00
<mgrwt>
<rscale>  0 0.77985881E+03</rscale>
<asrwt>0</asrwt>
<pdfrwt beam="1">  1        2 0.47351707E+00 0.77985881E+03</pdfrwt>
<pdfrwt beam="2">  1       -2 0.75999306E-02 0.77985881E+03</pdfrwt>
<totfact> 0.18293685E+02</totfact>
</mgrwt>
<rwgt>
<wgt id='morphing_basis_vector_1'> +2.0935326e-04 </wgt>
<wgt id='morphing_basis_vector_2'> +1.7112586e-04 </wgt>
<wgt id='morphing_basis_vector_3'> +1.8004929e-04 </wgt>
<wgt id='morphing_basis_vector_4'> +6.9388497e-05 </wgt>
<wgt id='morphing_basis_vector_5'> +1.4315053e-04 </wgt>
</rwgt>
</event>
<event>
 4      1 +2.9741700e-06 8.81723300e+02 7.81860800e-03 8.80594100e-02
        2 -1    0    0  501    0 +0.0000000000e+00 +0.0000000000e+00 +5.1312568950e+02 5.1312568950e+02 0.0000000000e+00 0.0000e+00 1.0000e+00
       -2 -1    0    0    0  501 -0.0000000000e+00 -0.0000000000e+00 -3.7877465542e+02 3.7877465542e+02 0.0000000000e+00 0.0000e+00 -1.0000e+00
      -13  1    1    2    0    0 +3.5576529117e+01 +2.0272117380e+02 +4.6154394713e+02 5.0535569539e+02 0.0000000000e+00 0.0000e+00 1.0000e+00
       13  1    1    2    0    0 -3.5576529117e+01 -2.0272117380e+02 -3.2719291305e+02 3.8654464953e+02 0.0000000000e+00 0.0000e+00 -1.0000e+00
<mgrwt>
<rscale>  0 0.88172333E+03</rscale>
<asrwt>0</asrwt>
<pdfrwt beam="1">  1        2 0.78942414E-01 0.88172333E+03</pdfrwt>
<pdfrwt beam="2">  1       -2 0.58273024E-01 0.88172333E+03</pdfrwt>
<totfact> 0.20276004E+02</totfact>
</mgrwt>
<rwgt>
<wgt id='morphing_basis_vector_1'> +4.0031478e-04 </wgt>
<wgt id='morphing_basis_vector_2'> +4.9964606e-04 </wgt>
<wgt id='morphing_basis_vector_3'> +3.5340148e-04 </wgt>
<wgt id='morphing_basis_vector_4'> +1.3413785e-05 </wgt>
<wgt id='morphing_basis_vector_5'> +2.4348470e-04 </wgt>
</rwgt>
</event>
<event>
 4      1 +2.9741700e-06 8.39904500e+02 7.81860800e-03 8.85377900e-02
        2 -1    0    0  501    0 +0.0000000000e+00 +0.0000000000e+00 +1.3226652383e+03 1.3226652383e+03 0.0000000000e+00 0.0000e+00 -1.0000e+00
       -2 -1    0    0    0  501 -0.0000000000e+00 -0.0000000000e+00 -1.3333675647e+02 1.3333675647e+02 0.0000000000e+00 0.0000e+00 1.0000e+00
      -13  1    1    2    0    0 -3.8366730946e+02 -1.7074556588e+02 +5.9863253598e+02 7.3124248082e+02 0.0000000000e+00 0.0000e+00 -1.0000e+00
       13  1    1    2    0    0 +3.8366730946e+02 +1.7074556588e+02 +5.9069594580e+02 7.2475951391e+02 0.0000000000e+00 0.0000e+00 1.0000e+00
<mgrwt>
<rscale>  0 0.83990450E+03</rscale>
<asrwt>0</asrwt>
<pdfrwt beam="1">  1        2 0.20348695E+00 0.83990450E+03</pdfrwt>
<pdfrwt beam="2">  1       -2 0.20513348E-01 0.83990450E+03</pdfrwt>
<totfact> 0.38248332E+02</totfact>
</mgrwt>
<rwgt>
<wgt id='morphing_basis_vector_1'> +2.5731091e-04 </wgt>
<wgt id='morphing_basis_vector_2'> +1.7822114e-04 </wgt>
<wgt id='morphing_basis_vector_3'> +2.3299064e-04 </wgt>
<wgt id='morphing_basis_vector_4'> +1.1652021e-04 </wgt>
<wgt id='morphing_basis_vector_5'> +2.0132354e-04 </wgt>
</rwgt>
</event>
<event>
 4      1 +2.9741700e-06 8.10795100e+02 7.81860800e-03 8.88884800e-02
        2 -1    0    0  501    0 +0.0000000000e+00 +0.0000000000e+00 +6.0970799505e+02 6.0970799505e+02 0.0000000000e+00 0.0000e+00 -1.0000e+00
       -2 -1    0    0    0  501 -0.0000000000e+00 -0.0000000000e+00 -2.6955066004e+02 2.6955066004e+02 0.0000000000e+00 0.0000e+00 1.0000e+00
      -13  1    1    2    0    0 -3.1271424244e+00 +3.9940022607e+02 +2.4534280767e+02 4.6874664040e+02 0.0000000000e+00 0.0000e+00 1.0000e+00
       13  1    1    2    0    0 +3.1271424244e+00 -3.9940022607e+02 +9.4814527345e+01 4.1051201469e+02 0.0000000000e+00 0.0000e+00 -1.0000e+00
<mgrwt>
<rscale>  0 0.81079515E+03</rscale>
<asrwt>0</asrwt>
<pdfrwt beam="1">  1        2 0.93801230E-01 0.81079515E+03</pdfrwt>
<pdfrwt beam="2">  1       -2 0.41469332E-01 0.81079515E+03</pdfrwt>
<totfact> 0.32342874E+02</totfact>
</mgrwt>
<rwgt>
<wgt id='morphing_basis_vector_1'> +2.3304692e-04 </wgt>
<wgt id='morphing_basis_vector_2'> +1.7518835e-04 </wgt>
<wgt id='morphing_basis_vector_3'> +2.0637159e-04 </wgt>
<wgt id='morphing_basis_vector_4'> +9.1691596e-05 </wgt>
<wgt id='morphing_basis_vector_5'> +1.7130712e-04 </wgt>
</rwgt>
</event>
<event>
 4      1 +2.9741700e-06 7.75389600e+02 7.81860800e-03 8.93366400e-02
        2 -1    0    0  501    0 +0.0000000000e+00 +0.0000000000e+00 +3.0556126619e+03 3.0556126619e+03 0.0000000000e+00 0.0000e+00 1.0000e+00
       -2 -1    0    0    0  501 -0.0000000000e+00 -0.0000000000e+00 -4.9190546810e+01 4.9190546810e+01 0.0000000000e+00 0.0000e+00 -1.0000e+00
      -13  1    1    2    0    0 +2.8259529599e+02 -2.5917923774e+02 +1.2741213251e+03 1.3305709788e+03 0.0000000000e+00 0.0000e+00 -1.0000e+00
       13  1    1    2    0    0 -2.8259529599e+02 +2.5917923774e+02 +1.7323007900e+03 1.7742322299e+03 0.0000000000e+00 0.0000e+00 1.0000e+00
<mgrwt>
<rscale>  0 0.77538960E+03</rscale>
<asrwt>0</asrwt>
<pdfrwt beam="1">  1        2 0.47009410E+00 0.77538960E+03</pdfrwt>
<pdfrwt beam="2">  1       -2 0.75677789E-02 0.77538960E+03</pdfrwt>
<totfact> 0.19043676E+02</totfact>
</mgrwt>
<rwgt>
<wgt id='morphing_basis_vector_1'> +1.9079791e-04 </wgt>
<wgt id='morphing_basis_vector_2'> +1.2353809e-04 </wgt>
<wgt id='morphing_basis_vector_3'> +1.6811568e-04 </wgt>
<wgt id='morphing_basis_vector_4'> +8.5097639e-05 </wgt>
<wgt id='morphing_basis_vector_5'> +1.4011595e-04 </wgt>
</rwgt>
</event>
<event>
 4      1 +2.9741700e-06 7.98069100e+02 7.81860800e-03 8.90467300e-02
        2 -1    0    0  501    0 +0.0000000000e+00 +0.0000000000e+00 +7.1042739951e+02 7.1042739951e+02 0.0000000000e+00 0.0000e+00 -1.0000e+00
       -2 -1    0    0    0  501 -0.0000000000e+00 -0.0000000000e+00 -2.2413068678e+02 2.2413068678e+02 0.0000000000e+00 0.0000e+00 1.0000e+00
      -13  1    1    2    0    0 +5.0340037608e+01 -1.8129574217e+02 -1.6892284777e+02 2.5285805111e+02 0.0000000000e+00 0.0000e+00 1.0000e+00
       13  1    1    2    0    0 -5.0340037608e+01 +1.8129574217e+02 +6.5521956049e+02 6.8170003518e+02 0.0000000000e+00 0.0000e+00 -1.0000e+00
<mgrwt>
<rscale>  0 0.79806912E+03</rscale>
<asrwt>0</asrwt>
<pdfrwt beam="1">  1        2 0.10929652E+00 0.79806912E+03</pdfrwt>
<pdfrwt beam="2">  1       -2 0.34481644E-01 0.79806912E+03</pdfrwt>
<totfact> 0.37807455E+02</totfact>
</mgrwt>
<rwgt>
<wgt id='morphing_basis_vector_1'> +2.0707581e-04 </wgt>
<wgt id='morphing_basis_vector_2'> +1.2470378e-04 </wgt>
<wgt id='morphing_basis_vector_3'> +1.8584013e-04 </wgt>
<wgt id='morphing_basis_vector_4'> +1.0213289e-04 </wgt>
<wgt id='morphing_basis_vector_5'> +1.6012741e-04 </wgt>
</rwgt>
</event>
<event>
 4      1 +2.9741700e-06 8.24762800e+02 7.81860800e-03 8.87183000e-02
        2 -1    0    0  501    0 +0.0000000000e+00 +0.0000000000e+00 +1.2541644120e+03 1.2541644120e+03 0.0000000000e+00 0.0000e+00 1.0000e+00
       -2 -1    0    0    0  501 -0.0000000000e+00 -0.0000000000e+00 -1.3559498081e+02 1.3559498081e+02 0.0000000000e+00 0.0000e+00 -1.0000e+00
      -13  1    1    2    0    0 +1.4772125109e+02 -2.2879792764e+02 +3.7497447231e+01 2.7491110975e+02 0.0000000000e+00 0.0000e+00 -1.0000e+00
       13  1    1    2    0    0 -1.4772125109e+02 +2.2879792764e+02 +1.0810719839e+03 1.1148482830e+03 0.0000000000e+00 0.0000e+00 1.0000e+00
<mgrwt>
<rscale>  0 0.82476275E+03</rscale>
<asrwt>0</asrwt>
<pdfrwt beam="1">  1        2 0.19294836E+00 0.82476275E+03</pdfrwt>
<pdfrwt beam="2">  1       -2 0.20860767E-01 0.82476275E+03</pdfrwt>
<totfact> 0.40715186E+02</totfact>
</mgrwt>
<rwgt>
<wgt id='morphing_basis_vector_1'> +2.3291114e-04 </wgt>
<wgt id='morphing_basis_vector_2'> +1.4148476e-04 </wgt>
<wgt id='morphing_basis_vector_3'> +2.1144000e-04 </wgt>
<wgt id='morphing_basis_vector_4'> +1.1818160e-04 </wgt>
<wgt id='morphing_basis_vector_5'> +1.8595397e-04 </wgt>
</rwgt>
</event>
<event>
 4      1 +2.9741700e-06 8.65581400e+02 7.81860800e-03 8.82406800e-02
        2 -1    0    0  501    0 +0.0000000000e+00 +0.0000000000e+00 +4.5727837605e+02 4.5727837605e+02 0.0000000000e+00 0.0000e+00 -1.0000e+00
       -2 -1    0    0    0  501 -0.0000000000e+00 -0.0000000000e+00 -4.0961435501e+02 4.0961435501e+02 0.0000000000e+00 0.0000e+00 1.0000e+00
      -13  1    1    2    0    0 -8.5887288026e+01 -1.5253558763e+02 -3.7257573472e+02 4.1165083486e+02 0.0000000000e+00 0.0000e+00 1.0000e+00
       13  1    1    2    0    0 +8.5887288026e+01 +1.5253558763e+02 +4.2023975576e+02 4.5524189621e+02 0.0000000000e+00 0.0000e+00 -1.0000e+00
<mgrwt>
<rscale>  0 0.86558139E+03</rscale>
<asrwt>0</asrwt>
<pdfrwt beam="1">  1        2 0.70350519E-01 0.86558139E+03</pdfrwt>
<pdfrwt beam="2">  1       -2 0.63017593E-01 0.86558139E+03</pdfrwt>
<totfact> 0.19708624E+02</totfact>
</mgrwt>
<rwgt>
<wgt id='morphing_basis_vector_1'> +2.7675737e-04 </wgt>
<wgt id='morphing_basis_vector_2'> +1.6909253e-04 </wgt>
<wgt id='morphing_basis_vector_3'> +2.5538791e-04 </wgt>
<wgt id='morphing_basis_vector_4'> +1.4677240e-04 </wgt>
<wgt id='morphing_basis_vector_5'> +2.3110148e-04 </wgt>
</rwgt>
</event>
<event>
 4      1 +2.9741700e-06 8.46650500e+02 7.81860800e-03 8.84586600e-02
        2 -1    0    0  501    0 +0.0000000000e+00 +0.0000000000e+00 +7.1241337824e+02 7.1241337824e+02 0.0000000000e+00 0.0000e+00 -1.0000e+00
       -2 -1    0    0    0  501 -0.0000000000e+00 -0.0000000000e+00 -2.5154535799e+02 2.5154535799e+02 0.0000000000e+00 0.0000e+00 1.0000e+00
      -13  1    1    2    0    0 -4.1372823954e+01 +2.1483416744e+02 -1.8218654863e+02 2.8470575787e+02 0.0000000000e+00 0.0000e+00 1.0000e+00
       13  1    1    2    0    0 +4.1372823954e+01 -2.1483416744e+02 +6.4305456888e+02 6.7925297836e+02 0.0000000000e+00 0.0000e+00 -1.0000e+00
<mgrwt>
<rscale>  0 0.84665053E+03</rscale>
<asrwt>0</asrwt>
<pdfrwt beam="1">  1        2 0.10960206E+00 0.84665053E+03</pdfrwt>
<pdfrwt beam="2">  1       -2 0.38699286E-01 0.84665053E+03</pdfrwt>
<totfact> 0.30442119E+02</totfact>
</mgrwt>
<rwgt>
<wgt id='morphing_basis_vector_1'> +2.5564708e-04 </wgt>
<wgt id='morphing_basis_vector_2'> +1.5568429e-04 </wgt>
<wgt id='morphing_basis_vector_3'> +2.3419337e-04 </wgt>
<wgt id='morphing_basis_vector_4'> +1.3300587e-04 </wgt>
<wgt id='morphing_basis_vector_5'> +2.0928372e-04 </wgt>
</rwgt>
</event>
<event>
 4      1 +2.9741700e-06 8.56500000e+02 7.81860800e-03 8.83445100e-02
        2 -1    0    0  501    0 +0.0000000000e+00 +0.0000000000e+00 +5.0146888614e+02 5.0146888614e+02 0.0000000000e+00 0.0000e+00 1.0000e+00
       -2 -1    0    0    0  501 -0.0000000000e+00 -0.0000000000e+00 -3.6572171660e+02 3.6572171660e+02 0.0000000000e+00 0.0000e+00 -1.0000e+00
      -13  1    1    2    0    0 +1.8982369373e+02 -3.2988470808e+02 -1.3089570510e+02 4.0248060939e+02 0.0000000000e+00 0.0000e+00 -1.0000e+00
       13  1    1    2    0    0 -1.8982369373e+02 +3.2988470808e+02 +2.6664287464e+02 4.6470999335e+02 0.0000000000e+00 0.0000e+00 1.0000e+00
<mgrwt>
<rscale>  0 0.85650000E+03</rscale>
<asrwt>0</asrwt>
<pdfrwt beam="1">  1        2 0.77149059E-01 0.85650000E+03</pdfrwt>
<pdfrwt beam="2">  1       -2 0.56264880E-01 0.85650000E+03</pdfrwt>
<totfact> 0.22379585E+02</totfact>
</mgrwt>
<rwgt>
<wgt id='morphing_basis_vector_1'> +2.6784538e-04 </wgt>
<wgt id='morphing_basis_vector_2'> +1.6675710e-04 </wgt>
<wgt id='morphing_basis_vector_3'> +2.4602355e-04 </wgt>
<wgt id='morphing_basis_vector_4'> +1.3817414e-04 </wgt>
<wgt id='morphing_basis_vector_5'> +2.2034837e-04 </wgt>
</rwgt>
</event>
<event>
 4      1 +2.9741700e-06 8.58816300e+02 7.81860800e-03 8.83179000e-02
        2 -1    0    0  501    0 +0.0000000000e+00 +0.0000000000e+00 +6.9325050272e+02 6.9325050272e+02 0.0000000000e+00 0.0000e+00 1.0000e+00
       -2 -1    0    0    0  501 -0.0000000000e+00 -0.0000000000e+00 -2.6598082884e+02 2.6598082884e+02 0.0000000000e+00 0.0000e+00 -1.0000e+00
      -13  1    1    2    0    0 -3.1587950002e+02 -9.3190116623e+01 -9.4131747561e+01 3.4252743287e+02 0.0000000000e+00 0.0000e+00 -1.0000e+00
       13  1    1    2    0    0 +3.1587950002e+02 +9.3190116623e+01 +5.2140142145e+02 6.1670389869e+02 0.0000000000e+00 0.0000e+00 1.0000e+00
<mgrwt>
<rscale>  0 0.85881626E+03</rscale>
<asrwt>0</asrwt>
<pdfrwt beam="1">  1        2 0.10665392E+00 0.85881626E+03</pdfrwt>
<pdfrwt beam="2">  1       -2 0.40920128E-01 0.85881626E+03</pdfrwt>
<totfact> 0.28356765E+02</totfact>
</mgrwt>
<rwgt>
<wgt id='morphing_basis_vector_1'> +2.6952709e-04 </wgt>
<wgt id='morphing_basis_vector_2'> +1.6561694e-04 </wgt>
<wgt id='morphing_basis_vector_3'> +2.4798417e-04 </wgt>
<wgt id='morphing_basis_vector_4'> +1.4110756e-04 </wgt>
<wgt id='morphing_basis_vector_5'> +2.2309364e-04 </wgt>
</rwgt>
</event>
<event>
 4      1 +2.9741700e-06 8.19632400e+02 7.81860800e-03 8.87803900e-02
        2 -1    0    0  501    0 +0.0000000000e+00 +0.0000000000e+00 +9.5445684884e+02 9.5445684884e+02 0.0000000000e+00 0.0000e+00 1.0000e+00
       -2 -1    0    0    0  501 -0.0000000000e+00 -0.0000000000e+00 -1.7596323127e+02 1.7596323127e+02 0.0000000000e+00 0.0000e+00 -1.0000e+00
      -13  1    1    2    0    0 +4.1517324165e+01 -2.8092995059e+02 -1.8262740573e+01 2.8456783557e+02 0.0000000000e+00 0.0000e+00 -1.0000e+00
       13  1    1    2    0    0 -4.1517324165e+01 +2.8092995059e+02 +7.9675635815e+02 8.4585224454e+02 0.0000000000e+00 0.0000e+00 1.0000e+00
<mgrwt>
<rscale>  0 0.81963238E+03</rscale>
<asrwt>0</asrwt>
<pdfrwt beam="1">  1        2 0.14683951E+00 0.81963238E+03</pdfrwt>
<pdfrwt beam="2">  1       -2 0.27071267E-01 0.81963238E+03</pdfrwt>
<totfact> 0.39476083E+02</totfact>
</mgrwt>
<rwgt>
<wgt id='morphing_basis_vector_1'> +2.2784087e-04 </wgt>
<wgt id='morphing_basis_vector_2'> +1.3837767e-04 </wgt>
<wgt id='morphing_basis_vector_3'> +2.0637302e-04 </wgt>
<wgt id='morphing_basis_vector_4'> +1.1485996e-04 </wgt>
<wgt id='morphing_basis_vector_5'> +1.8076841e-04 </wgt>
</rwgt>
</event>
<event>
 4      1 +2.9741700e-06 7.83903500e+02 7.81860800e-03 8.92265900e-02
        2 -1    0    0  501    0 +0.0000000000e+00 +0.0000000000e+00 +5.3293485633e+02 5.3293485633e+02 0.0000000000e+00 0.0000e+00 1.0000e+00
       -2 -1    0    0    0  501 -0.0000000000e+00 -0.0000000000e+00 -2.8826443437e+02 2.8826443437e+02 0.0000000000e+00 0.0000e+00 -1.0000e+00
      -13  1    1    2    0    0 +4.9063402329e+01 -1.6189395438e+02 -2.4805297715e+02 3.0024514881e+02 0.0000000000e+00 0.0000e+00 -1.0000e+00
       13  1    1    2    0    0 -4.9063402329e+01 +1.6189395438e+02 +4.9272339912e+02 5.2095414189e+02 0.0000000000e+00 0.0000e+00 1.0000e+00
<mgrwt>
<rscale>  0 0.78390348E+03</rscale>
<asrwt>0</asrwt>
<pdfrwt beam="1">  1        2 0.81989977E-01 0.78390348E+03</pdfrwt>
<pdfrwt beam="2">  1       -2 0.44348375E-01 0.78390348E+03</pdfrwt>
<totfact> 0.33373067E+02</totfact>
</mgrwt>
<rwgt>
<wgt id='morphing_basis_vector_1'> +1.9436687e-04 </wgt>
<wgt id='morphing_basis_vector_2'> +1.1662855e-04 </wgt>
<wgt id='morphing_basis_vector_3'> +1.7329426e-04 </wgt>
<wgt id='morphing_basis_vector_4'> +9.4217975e-05 </wgt>
<wgt id='morphing_basis_vector_5'> +1.4752081e-04 </wgt>
</rwgt>
</event>
<event>
 4      1 +2.9741700e-06 8.16794200e+02 7.81860800e-03 8.88149500e-02
        2 -1    0    0  501    0 +0.0000000000e+00 +0.0000000000e+00 +4.5931339172e+02 4.5931339172e+02 0.0000000000e+00 0.0000e+00 -1.0000e+00
       -2 -1    0    0    0  501 -0.0000000000e+00 -0.0000000000e+00 -3.6312503321e+02 3.6312503321e+02 0.0000000000e+00 0.0000e+00 1.0000e+00
      -13  1    1    2    0    0 +2.8943587732e+02 -2.5679804796e+02 -8.3460196084e+01 3.9583325890e+02 0.0000000000e+00 0.0000e+00 1.0000e+00
       13  1    1    2    0    0 -2.8943587732e+02 +2.5679804796e+02 +1.7964855460e+02 4.2660516604e+02 0.0000000000e+00 0.0000e+00 -1.0000e+00
<mgrwt>
<rscale>  0 0.81679420E+03</rscale>
<asrwt>0</asrwt>
<pdfrwt beam="1">  1        2 0.70663599E-01 0.81679420E+03</pdfrwt>
<pdfrwt beam="2">  1       -2 0.55865390E-01 0.81679420E+03</pdfrwt>
<totfact> 0.25141614E+02</totfact>
</mgrwt>
<rwgt>
<wgt id='morphing_basis_vector_1'> +2.2707809e-04 </wgt>
<wgt id='morphing_basis_vector_2'> +1.4281470e-04 </wgt>
<wgt id='morphing_basis_vector_3'> +2.0487663e-04 </wgt>
<wgt id='morphing_basis_vector_4'> +1.1046114e-04 </wgt>
<wgt id='morphing_basis_vector_5'> +1.7782910e-04 </wgt>
</rwgt>
</event>
<event>
 4      1 +2.9741700e-06 7.64643400e+02 7.81860800e-03 8.94777100e-02
        2 -1    0    0  501    0 +0.0000000000e+00 +0.0000000000e+00 +2.9253481777e+02 2.9253481777e+02 0.0000000000e+00 0.0000e+00 -1.0000e+00
       -2 -1    0    0    0  501 -0.0000000000e+00 -0.0000000000e+00 -4.9966655224e+02 4.9966655224e+02 0.0000000000e+00 0.0000e+00 1.0000e+00
      -13  1    1    2    0    0 +1.2613874978e+01 -3.5612795191e+02 -2.4706263970e+02 4.3361985184e+02 0.0000000000e+00 0.0000e+00 1.0000e+00
       13  1    1    2    0    0 -1.2613874978e+01 +3.5612795191e+02 +3.9930905236e+01 3.5858151816e+02 0.0000000000e+00 0.0000e+00 -1.0000e+00
<mgrwt>
<rscale>  0 0.76464335E+03</rscale>
<asrwt>0</asrwt>
<pdfrwt beam="1">  1        2 0.45005357E-01 0.76464335E+03</pdfrwt>
<pdfrwt beam="2">  1       -2 0.76871777E-01 0.76464335E+03</pdfrwt>
<totfact> 0.21427103E+02</totfact>
</mgrwt>
<rwgt>
<wgt id='morphing_basis_vector_1'> +1.7954963e-04 </wgt>
<wgt id='morphing_basis_vector_2'> +1.1082996e-04 </wgt>
<wgt id='morphing_basis_vector_3'> +1.5805050e-04 </wgt>
<wgt id='morphing_basis_vector_4'> +8.2425141e-05 </wgt>
<wgt id='morphing_basis_vector_5'> +1.3147762e-04 </wgt>
</rwgt>
</event>
<event>
 4      1 +2.9741700e-06 8.32268700e+02 7.81860800e-03 8.86283200e-02
        2 -1    0    0  501    0 +0.0000000000e+00 +0.0000000000e+00 +1.4368168788e+03 1.4368168788e+03 0.0000000000e+00 0.0000e+00 1.0000e+00
       -2 -1    0    0    0  501 -0.0000000000e+00 -0.0000000000e+00 -1.2052181500e+02 1.2052181500e+02 0.0000000000e+00 0.0000e+00 -1.0000e+00
      -13  1    1    2    0    0 -3.7194644716e+02 -1.0978222861e+02 +3.7577973024e+02 5.4000620638e+02 0.0000000000e+00 0.0000e+00 -1.0000e+00
       13  1    1    2    0    0 +3.7194644716e+02 +1.0978222861e+02 +9.4051533352e+02 1.0173324874e+03 0.0000000000e+00 0.0000e+00 1.0000e+00
<mgrwt>
<rscale>  0 0.83226865E+03</rscale>
<asrwt>0</asrwt>
<pdfrwt beam="1">  1        2 0.22104874E+00 0.83226865E+03</pdfrwt>
<pdfrwt beam="2">  1       -2 0.18541819E-01 0.83226865E+03</pdfrwt>
<totfact> 0.39071147E+02</totfact>
</mgrwt>
<rwgt>
<wgt id='morphing_basis_vector_1'> +2.4238733e-04 </wgt>
<wgt id='morphing_basis_vector_2'> +1.5193472e-04 </wgt>
<wgt id='morphing_basis_vector_3'> +2.2028144e-04 </wgt>
<wgt id='morphing_basis_vector_4'> +1.2066193e-04 </wgt>
<wgt id='morphing_basis_vector_5'> +1.9361651e-04 </wgt>
</rwgt>
</event>
<event>
 4      1 +2.9741700e-06 8.87001400e+02 7.81860800e-03 8.80010200e-02
        2 -1    0    0  501    0 +0.0000000000e+00 +0.0000000000e+00 +8.4896417009e+02 8.4896417009e+02 0.0000000000e+00 0.0000e+00 -1.0000e+00
       -2 -1    0    0    0  501 -0.0000000000e+00 -0.0000000000e+00 -2.3168569418e+02 2.3168569418e+02 0.0000000000e+00 0.0000e+00 1.0000e+00
      -13  1    1    2    0    0 -1.4392609604e+02 -4.0287895891e+02 +1.6621228813e+02 4.5896917258e+02 0.0000000000e+00 0.0000e+00 1.0000e+00
       13  1    1    2    0    0 +1.4392609604e+02 +4.0287895891e+02 +4.5106618778e+02 6.2168069169e+02 0.0000000000e+00 0.0000e+00 -1.0000e+00
<mgrwt>
<rscale>  0 0.88700136E+03</rscale>
<asrwt>0</asrwt>
<pdfrwt beam="1">  1        2 0.13060987E+00 0.88700136E+03</pdfrwt>
<pdfrwt beam="2">  1       -2 0.35643953E-01 0.88700136E+03</pdfrwt>
<totfact> 0.28267780E+02</totfact>
</mgrwt>
<rwgt>
<wgt id='morphing_basis_vector_1'> +3.0617097e-04 </wgt>
<wgt id='morphing_basis_vector_2'> +1.9726053e-04 </wgt>
<wgt id='morphing_basis_vector_3'> +2.8408275e-04 </wgt>
<wgt id='morphing_basis_vector_4'> +1.5807202e-04 </wgt>
<wgt id='morphing_basis_vector_5'> +2.5743706e-04 </wgt>
</rwgt>
</event>
<event>
 4      1 +2.9741700e-06 7.63751500e+02 7.81860800e-03 8.94895300e-02
        2 -1    0    0  501    0 +0.0000000000e+00 +0.0000000000e+00 +6.9298155351e+02 6.9298155351e+02 0.0000000000e+00 0.0000e+00 -1.0000e+00
       -2 -1    0    0    0  501 -0.0000000000e+00 -0.0000000000e+00 -2.1043719264e+02 2.1043719264e+02 0.0000000000e+00 0.0000e+00 1.0000e+00
      -13  1    1    2    0    0 +1.0660041485e+02 +2.0753461649e+02 -1.1632807761e+02 2.6070383029e+02 0.0000000000e+00 0.0000e+00 1.0000e+00
       13  1    1    2    0    0 -1.0660041485e+02 -2.0753461649e+02 +5.9887243848e+02 6.4271491585e+02 0.0000000000e+00 0.0000e+00 -1.0000e+00
<mgrwt>
<rscale>  0 0.76375151E+03</rscale>
<asrwt>0</asrwt>
<pdfrwt beam="1">  1        2 0.10661255E+00 0.76375151E+03</pdfrwt>
<pdfrwt beam="2">  1       -2 0.32374953E-01 0.76375151E+03</pdfrwt>
<totfact> 0.43711323E+02</totfact>
</mgrwt>
<rwgt>
<wgt id='morphing_basis_vector_1'> +1.7743727e-04 </wgt>
<wgt id='morphing_basis_vector_2'> +1.0611942e-04 </wgt>
<wgt id='morphing_basis_vector_3'> +1.5662201e-04 </wgt>
<wgt id='morphing_basis_vector_4'> +8.3634610e-05 </wgt>
<wgt id='morphing_basis_vector_5'> +1.3083180e-04 </wgt>
</rwgt>
</event>
<event>
 4      1 +2.9741700e-06 8.23671500e+02 7.81860800e-03 8.87314700e-02
        2 -1    0    0  501    0 +0.0000000000e+00 +0.0000000000e+00 +4.0452948679e+02 4.0452948679e+02 0.0000000000e+00 0.0000e+00 -1.0000e+00
       -2 -1    0    0    0  501 -0.0000000000e+00 -0.0000000000e+00 -4.1927401024e+02 4.1927401024e+02 0.0000000000e+00 0.0000e+00 1.0000e+00
      -13  1    1    2    0    0 -2.1904057499e+02 -3.6739492823e+01 -3.5424209252e+02 4.1811006200e+02 0.0000000000e+00 0.0000e+00 1.0000e+00
       13  1    1    2    0    0 +2.1904057499e+02 +3.6739492823e+01 +3.3949756907e+02 4.0569343503e+02 0.0000000000e+00 0.0000e+00 -1.0000e+00
<mgrwt>
<rscale>  0 0.82367154E+03</rscale>
<asrwt>0</asrwt>
<pdfrwt beam="1">  1        2 0.62235305E-01 0.82367154E+03</pdfrwt>
<pdfrwt beam="2">  1       -2 0.64503694E-01 0.82367154E+03</pdfrwt>
<totfact> 0.21615527E+02</totfact>
</mgrwt>
<rwgt>
<wgt id='morphing_basis_vector_1'> +2.3169762e-04 </wgt>
<wgt id='morphing_basis_vector_2'> +1.4042866e-04 </wgt>
<wgt id='morphing_basis_vector_3'> +2.1027195e-04 </wgt>
<wgt id='morphing_basis_vector_4'> +1.1763593e-04 </wgt>
<wgt id='morphing_basis_vector_5'> +1.8484973e-04 </wgt>
</rwgt>
</event>
<event>
 4      1 +2.9741700e-06 7.70990800e+02 7.81860800e-03 8.93940900e-02
        2 -1    0    0  501    0 +0.0000000000e+00 +0.0000000000e+00 +2.4785795953e+02 2.4785795953e+02 0.0000000000e+00 0.0000e+00 -1.0000e+00
       -2 -1    0    0    0  501 -0.0000000000e+00 -0.0000000000e+00 -5.9956393659e+02 5.9956393659e+02 0.0000000000e+00 0.0000e+00 1.0000e+00
      -13  1    1    2    0    0 -1.4013056727e+02 -1.1302712124e+02 -5.5051891367e+02 5.7920875367e+02 0.0000000000e+00 0.0000e+00 1.0000e+00
       13  1    1    2    0    0 +1.4013056727e+02 +1.1302712124e+02 +1.9881293661e+02 2.6821314245e+02 0.0000000000e+00 0.0000e+00 -1.0000e+00
<mgrwt>
<rscale>  0 0.77099078E+03</rscale>
<asrwt>0</asrwt>
<pdfrwt beam="1">  1        2 0.38131995E-01 0.77099078E+03</pdfrwt>
<pdfrwt beam="2">  1       -2 0.92240604E-01 0.77099078E+03</pdfrwt>
<totfact> 0.17025081E+02</totfact>
</mgrwt>
<rwgt>
<wgt id='morphing_basis_vector_1'> +1.8333892e-04 </wgt>
<wgt id='morphing_basis_vector_2'> +1.0967936e-04 </wgt>
<wgt id='morphing_basis_vector_3'> +1.6244188e-04 </wgt>
<wgt id='morphing_basis_vector_4'> +8.7380470e-05 </wgt>
<wgt id='morphing_basis_vector_5'> +1.3666403e-04 </wgt>
</rwgt>
</event>
<event>
 4      1 +2.9741700e-06 7.70300400e+02 7.81860800e-03 8.94031400e-02
        2 -1    0    0  501    0 +0.0000000000e+00 +0.0000000000e+00 +1.4108774006e+03 1.4108774006e+03 0.0000000000e+00 0.0000e+00 -1.0000e+00
       -2 -1    0    0    0  501 -0.0000000000e+00 -0.0000000000e+00 -1.0514071809e+02 1.0514071809e+02 0.0000000000e+00 0.0000e+00 1.0000e+00
      -13  1    1    2    0    0 -3.5076422960e+01 -2.9334154623e+02 +1.6654355573e+02 3.3914064066e+02 0.0000000000e+00 0.0000e+00 1.0000e+00
       13  1    1    2    0    0 +3.5076422960e+01 +2.9334154623e+02 +1.1391931268e+03 1.1768774780e+03 0.0000000000e+00 0.0000e+00 -1.0000e+00
<mgrwt>
<rscale>  0 0.77030036E+03</rscale>
<asrwt>0</asrwt>
<pdfrwt beam="1">  1        2 0.21705805E+00 0.77030036E+03</pdfrwt>
<pdfrwt beam="2">  1       -2 0.16175496E-01 0.77030036E+03</pdfrwt>
<totfact> 0.50730518E+02</totfact>
</mgrwt>
<rwgt>
<wgt id='morphing_basis_vector_1'> +1.8307250e-04 </wgt>
<wgt id='morphing_basis_vector_2'> +1.1026543e-04 </wgt>
<wgt id='morphing_basis_vector_3'> +1.6204051e-04 </wgt>
<wgt id='morphing_basis_vector_4'> +8.6652695e-05 </wgt>
<wgt id='morphing_basis_vector_5'> +1.3608582e-04 </wgt>
</rwgt>
</event>
<event>
 4      1 +2.9741700e-06 8.07495600e+02 7.81860800e-03 8.89292100e-02
        2 -1    0    0  501    0 +0.0000000000e+00 +0.0000000000e+00 +1.5025819233e+03 1.5025819233e+03 0.0000000000e+00 0.0000e+00 1.0000e+00
       -2 -1    0    0    0  501 -0.0000000000e+00 -0.0000000000e+00 -1.0848812763e+02 1.0848812763e+02 0.0000000000e+00 0.0000e+00 -1.0000e+00
      -13  1    1    2    0    0 +4.0053865944e+02 -3.9499288572e+01 +6.3329937926e+02 7.5037291747e+02 0.0000000000e+00 0.0000e+00 -1.0000e+00
       13  1    1    2    0    0 -4.0053865944e+02 +3.9499288572e+01 +7.6079441639e+02 8.6069713345e+02 0.0000000000e+00 0.0000e+00 1.0000e+00
<mgrwt>
<rscale>  0 0.80749563E+03</rscale>
<asrwt>0</asrwt>
<pdfrwt beam="1">  1        2 0.23116643E+00 0.80749563E+03</pdfrwt>
<pdfrwt beam="2">  1       -2 0.16690482E-01 0.80749563E+03</pdfrwt>
<totfact> 0.42775385E+02</totfact>
</mgrwt>
<rwgt>
<wgt id='morphing_basis_vector_1'> +2.2153001e-04 </wgt>
<wgt id='morphing_basis_vector_2'> +1.4758619e-04 </wgt>
<wgt id='morphing_basis_vector_3'> +1.9802313e-04 </wgt>
<wgt id='morphing_basis_vector_4'> +1.0046080e-04 </wgt>
<wgt id='morphing_basis_vector_5'> +1.6861999e-04 </wgt>
</rwgt>
</event>
<event>
 4      1 +2.9741700e-06 7.90599900e+02 7.81860800e-03 8.91410600e-02
        2 -1    0    0  501    0 +0.0000000000e+00 +0.0000000000e+00 +9.1246150722e+02 9.1246150722e+02 0.0000000000e+00 0.0000e+00 1.0000e+00
       -2 -1    0    0    0  501 -0.0000000000e+00 -0.0000000000e+00 -1.7125332782e+02 1.7125332782e+02 0.0000000000e+00 0.0000e+00 -1.0000e+00
      -13  1    1    2    0    0 +3.5766356060e+02 -8.1394554422e+01 +1.6861594089e+02 4.0370735886e+02 0.0000000000e+00 0.0000e+00 1.0000e+00
       13  1    1    2    0    0 -3.5766356060e+02 +8.1394554422e+01 +5.7259223851e+02 6.8000747619e+02 0.0000000000e+00 0.0000e+00 -1.0000e+00
<mgrwt>
<rscale>  0 0.79059995E+03</rscale>
<asrwt>0</asrwt>
<pdfrwt beam="1">  1        2 0.14037869E+00 0.79059995E+03</pdfrwt>
<pdfrwt beam="2">  1       -2 0.26346666E-01 0.79059995E+03</pdfrwt>
<totfact> 0.44076254E+02</totfact>
</mgrwt>
<rwgt>
<wgt id='morphing_basis_vector_1'> +2.0186151e-04 </wgt>
<wgt id='morphing_basis_vector_2'> +1.2518969e-04 </wgt>
<wgt id='morphing_basis_vector_3'> +1.8004336e-04 </wgt>
<wgt id='morphing_basis_vector_4'> +9.5952993e-05 </wgt>
<wgt id='morphing_basis_vector_5'> +1.5330702e-04 </wgt>
</rwgt>
</event>
<event>
 4      1 +2.9741700e-06 7.67956900e+02 7.81860800e-03 8.94339500e-02
        2 -1    0    0  501    0 +0.0000000000e+00 +0.0000000000e+00 +1.5589237304e+03 1.5589237304e+03 0.0000000000e+00 0.0000e+00 1.0000e+00
       -2 -1    0    0    0  501 -0.0000000000e+00 -0.0000000000e+00 -9.4577718190e+01 9.4577718190e+01 0.0000000000e+00 0.0000e+00 -1.0000e+00
      -13  1    1    2    0    0 +2.7408646189e+02 -1.2059266197e+02 +2.1464725706e+02 3.6842831552e+02 0.0000000000e+00 0.0000e+00 -1.0000e+00
       13  1    1    2    0    0 -2.7408646189e+02 +1.2059266197e+02 +1.2496987552e+03 1.2850731331e+03 0.0000000000e+00 0.0000e+00 1.0000e+00
<mgrwt>
<rscale>  0 0.76795690E+03</rscale>
<asrwt>0</asrwt>
<pdfrwt beam="1">  1        2 0.23983440E+00 0.76795690E+03</pdfrwt>
<pdfrwt beam="2">  1       -2 0.14550419E-01 0.76795690E+03</pdfrwt>
<totfact> 0.49882265E+02</totfact>
</mgrwt>
<rwgt>
<wgt id='morphing_basis_vector_1'> +1.8116120e-04 </wgt>
<wgt id='morphing_basis_vector_2'> +1.0913984e-04 </wgt>
<wgt id='morphing_basis_vector_3'> +1.6014805e-04 </wgt>
<wgt id='morphing_basis_vector_4'> +8.5418776e-05 </wgt>
<wgt id='morphing_basis_vector_5'> +1.3418317e-04 </wgt>
</rwgt>
</event>
<event>
 4      1 +2.9741700e-06 8.14779500e+02 7.81860800e-03 8.88395700e-02
        2 -1    0    0  501    0 +0.0000000000e+00 +0.0000000000e+00 +1.3202518900e+02 1.3202518900e+02 0.0000000000e+00 0.0000e+00 -1.0000e+00
       -2 -1    0    0    0  501 -0.0000000000e+00 -0.0000000000e+00 -1.2570812723e+03 1.2570812723e+03 0.0000000000e+00 0.0000e+00 1.0000e+00
      -13  1    1    2    0    0 +6.3524687596e+01 -2.4588838996e+02 -1.1056083904e+03 1.1344013396e+03 0.0000000000e+00 0.0000e+00 1.0000e+00
       13  1    1    2    0    0 -6.3524687596e+01 +2.4588838996e+02 -1.9447692827e+01 2.5470512167e+02 0.0000000000e+00 0.0000e+00 -1.0000e+00
<mgrwt>
<rscale>  0 0.81477946E+03</rscale>
<asrwt>0</asrwt>
<pdfrwt beam="1">  1        2 0.20311568E-01 0.81477946E+03</pdfrwt>
<pdfrwt beam="2">  1       -2 0.19339711E+00 0.81477946E+03</pdfrwt>
<totfact> 0.46566712E+01</totfact>
</mgrwt>
<rwgt>
<wgt id='morphing_basis_vector_1'> +2.2297669e-04 </wgt>
<wgt id='morphing_basis_vector_2'> +1.3503563e-04 </wgt>
<wgt id='morphing_basis_vector_3'> +2.0157208e-04 </wgt>
<wgt id='morphing_basis_vector_4'> +1.1197200e-04 </wgt>
<wgt id='morphing_basis_vector_5'> +1.7596851e-04 </wgt>
</rwgt>
</event>
<event>
 4      1 +2.9741700e-06 7.91670400e+02 7.81860800e-03 8.91274800e-02
        2 -1    0    0  501    0 +0.0000000000e+00 +0.0000000000e+00 +2.3039123907e+03 2.3039123907e+03 0.0000000000e+00 0.0000e+00 1.0000e+00
       -2 -1    0    0    0  501 -0.0000000000e+00 -0.0000000000e+00 -6.8008440710e+01 6.8008440710e+01 0.0000000000e+00 0.0000e+00 -1.0000e+00
      -13  1    1    2    0    0 +3.8911584141e+02 -7.2074229320e+01 +1.1446923096e+03 1.2111673361e+03 0.0000000000e+00 0.0000e+00 -1.0000e+00
       13  1    1    2    0    0 -3.8911584141e+02 +7.2074229320e+01 +1.0912116404e+03 1.1607534953e+03 0.0000000000e+00 0.0000e+00 1.0000e+00
<mgrwt>
<rscale>  0 0.79167036E+03</rscale>
<asrwt>0</asrwt>
<pdfrwt beam="1">  1        2 0.35444800E+00 0.79167036E+03</pdfrwt>
<pdfrwt beam="2">  1       -2 0.10462839E-01 0.79167036E+03</pdfrwt>
<totfact> 0.32579727E+02</totfact>
</mgrwt>
<rwgt>
<wgt id='morphing_basis_vector_1'> +2.0890157e-04 </wgt>
<wgt id='morphing_basis_vector_2'> +1.4442595e-04 </wgt>
<wgt id='morphing_basis_vector_3'> +1.8451287e-04 </wgt>
<wgt id='morphing_basis_vector_4'> +8.8967655e-05 </wgt>
<wgt id='morphing_basis_vector_5'> +1.5394447e-04 </wgt>
</rwgt>
</event>
<event>
 4      1 +2.9741700e-06 7.93360200e+02 7.81860800e-03 8.91060700e-02
        2 -1    0    0  501    0 +0.0000000000e+00 +0.0000000000e+00 +2.3807602672e+02 2.3807602672e+02 0.0000000000e+00 0.0000e+00 -1.0000e+00
       -2 -1    0    0    0  501 -0.0000000000e+00 -0.0000000000e+00 -6.6094481700e+02 6.6094481700e+02 0.0000000000e+00 0.0000e+00 1.0000e+00
      -13  1    1    2    0    0 -3.8205389052e+02 -4.5962482677e+01 -1.0228728082e+02 3.9817133610e+02 0.0000000000e+00 0.0000e+00 1.0000e+00
       13  1    1    2    0    0 +3.8205389052e+02 +4.5962482677e+01 -3.2058150947e+02 5.0084950762e+02 0.0000000000e+00 0.0000e+00 -1.0000e+00
<mgrwt>
<rscale>  0 0.79336024E+03</rscale>
<asrwt>0</asrwt>
<pdfrwt beam="1">  1        2 0.36627082E-01 0.79336024E+03</pdfrwt>
<pdfrwt beam="2">  1       -2 0.10168382E+00 0.79336024E+03</pdfrwt>
<totfact> 0.14117725E+02</totfact>
</mgrwt>
<rwgt>
<wgt id='morphing_basis_vector_1'> +2.1925972e-04 </wgt>
<wgt id='morphing_basis_vector_2'> +1.7245535e-04 </wgt>
<wgt id='morphing_basis_vector_3'> +1.9119037e-04 </wgt>
<wgt id='morphing_basis_vector_4'> +7.8850208e-05 </wgt>
<wgt id='morphing_basis_vector_5'> +1.5499297e-04 </wgt>
</rwgt>
</event>
<event>
 4      1 +2.9741700e-06 8.18396800e+02 7.81860800e-03 8.87954200e-02
        2 -1    0    0  501    0 +0.0000000000e+00 +0.0000000000e+00 +1.4111073512e+03 1.4111073512e+03 0.0000000000e+00 0.0000e+00 -1.0000e+00
       -2 -1    0    0    0  501 -0.0000000000e+00 -0.0000000000e+00 -1.1866094364e+02 1.1866094364e+02 0.0000000000e+00 0.0000e+00 1.0000e+00
      -13  1    1    2    0    0 +3.6608587961e+02 +9.9516351721e+01 +3.5954861145e+02 5.2268305837e+02 0.0000000000e+00 0.0000e+00 1.0000e+00
       13  1    1    2    0    0 -3.6608587961e+02 -9.9516351721e+01 +9.3289779607e+02 1.0070852364e+03 0.0000000000e+00 0.0000e+00 -1.0000e+00
<mgrwt>
<rscale>  0 0.81839680E+03</rscale>
<asrwt>0</asrwt>
<pdfrwt beam="1">  1        2 0.21709343E+00 0.81839680E+03</pdfrwt>
<pdfrwt beam="2">  1       -2 0.18255531E-01 0.81839680E+03</pdfrwt>
<totfact> 0.41470105E+02</totfact>
</mgrwt>
<rwgt>
<wgt id='morphing_basis_vector_1'> +2.2817568e-04 </wgt>
<wgt id='morphing_basis_vector_2'> +1.4235671e-04 </wgt>
<wgt id='morphing_basis_vector_3'> +2.0614670e-04 </wgt>
<wgt id='morphing_basis_vector_4'> +1.1207206e-04 </wgt>
<wgt id='morphing_basis_vector_5'> +1.7944557e-04 </wgt>
</rwgt>
</event>
<event>
 4      1 +2.9741700e-06 7.65071900e+02 7.81860800e-03 8.94720400e-02
        2 -1    0    0  501    0 +0.0000000000e+00 +0.0000000000e+00 +1.1445613256e+03 1.1445613256e+03 0.0000000000e+00 0.0000e+00 -1.0000e+00
       -2 -1    0    0    0  501 -0.0000000000e+00 -0.0000000000e+00 -1.2785139431e+02 1.2785139431e+02 0.0000000000e+00 0.0000e+00 1.0000e+00
      -13  1    1    2    0    0 -7.3320091597e+01 -2.0871561667e+02 -1.0678866862e+01 2.2147704773e+02 0.0000000000e+00 0.0000e+00 1.0000e+00
       13  1    1    2    0    0 +7.3320091597e+01 +2.0871561667e+02 +1.0273887981e+03 1.0509356721e+03 0.0000000000e+00 0.0000e+00 -1.0000e+00
<mgrwt>
<rscale>  0 0.76507192E+03</rscale>
<asrwt>0</asrwt>
<pdfrwt beam="1">  1        2 0.17608635E+00 0.76507192E+03</pdfrwt>
<pdfrwt beam="2">  1       -2 0.19669446E-01 0.76507192E+03</pdfrwt>
<totfact> 0.52156996E+02</totfact>
</mgrwt>
<rwgt>
<wgt id='morphing_basis_vector_1'> +1.7849247e-04 </wgt>
<wgt id='morphing_basis_vector_2'> +1.0673130e-04 </wgt>
<wgt id='morphing_basis_vector_3'> +1.5766642e-04 </wgt>
<wgt id='morphing_basis_vector_4'> +8.4320787e-05 </wgt>
<wgt id='morphing_basis_vector_5'> +1.3188245e-04 </wgt>
</rwgt>
</event>
<event>
 4      1 +2.9741700e-06 8.99165100e+02 7.81860800e-03 8.78680600e-02
        2 -1    0    0  501    0 +0.0000000000e+00 +0.0000000000e+00 +1.5403679175e+03 1.5403679175e+03 0.0000000000e+00 0.0000e+00 -1.0000e+00
       -2 -1    0    0    0  501 -0.0000000000e+00 -0.0000000000e+00 -1.3121831623e+02 1.3121831623e+02 0.0000000000e+00 0.0000e+00 1.0000e+00
      -13  1    1    2    0    0 +3.7056829325e+02 -1.9597924732e+02 +4.0254040291e+02 5.8117768481e+02 0.0000000000e+00 0.0000e+00 -1.0000e+00
       13  1    1    2    0    0 -3.7056829325e+02 +1.9597924732e+02 +1.0066091983e+03 1.0904085489e+03 0.0000000000e+00 0.0000e+00 1.0000e+00
<mgrwt>
<rscale>  0 0.89916513E+03</rscale>
<asrwt>0</asrwt>
<pdfrwt beam="1">  1        2 0.23697967E+00 0.89916513E+03</pdfrwt>
<pdfrwt beam="2">  1       -2 0.20187434E-01 0.89916513E+03</pdfrwt>
<totfact> 0.29584827E+02</totfact>
</mgrwt>
<rwgt>
<wgt id='morphing_basis_vector_1'> +3.2026333e-04 </wgt>
<wgt id='morphing_basis_vector_2'> +2.0341190e-04 </wgt>
<wgt id='morphing_basis_vector_3'> +2.9868500e-04 </wgt>
<wgt id='morphing_basis_vector_4'> +1.6981839e-04 </wgt>
<wgt id='morphing_basis_vector_5'> +2.7358547e-04 </wgt>
</rwgt>
</event>
<event>
 4      1 +2.9741700e-06 8.10070600e+02 7.81860800e-03 8.88974100e-02
        2 -1    0    0  501    0 +0.0000000000e+00 +0.0000000000e+00 +2.8009812652e+02 2.8009812652e+02 0.0000000000e+00 0.0000e+00 -1.0000e+00
       -2 -1    0    0    0  501 -0.0000000000e+00 -0.0000000000e+00 -5.8570042350e+02 5.8570042350e+02 0.0000000000e+00 0.0000e+00 1.0000e+00
      -13  1    1    2    0    0 -3.0940029010e+02 +1.6036217433e+02 -3.7342110010e+02 5.1077185168e+02 0.0000000000e+00 0.0000e+00 1.0000e+00
       13  1    1    2    0    0 +3.0940029010e+02 -1.6036217433e+02 +6.7818803119e+01 3.5502669833e+02 0.0000000000e+00 0.0000e+00 -1.0000e+00
<mgrwt>
<rscale>  0 0.81007059E+03</rscale>
<asrwt>0</asrwt>
<pdfrwt beam="1">  1        2 0.43092020E-01 0.81007059E+03</pdfrwt>
<pdfrwt beam="2">  1       -2 0.90107757E-01 0.81007059E+03</pdfrwt>
<totfact> 0.15619199E+02</totfact>
</mgrwt>
<rwgt>
<wgt id='morphing_basis_vector_1'> +2.1918932e-04 </wgt>
<wgt id='morphing_basis_vector_2'> +1.3446709e-04 </wgt>
<wgt id='morphing_basis_vector_3'> +1.9752545e-04 </wgt>
<wgt id='morphing_basis_vector_4'> +1.0812548e-04 </wgt>
<wgt id='morphing_basis_vector_5'> +1.7135128e-04 </wgt>
</rwgt>
</event>
<event>
 4      1 +2.9741700e-06 8.68904800e+02 7.81860800e-03 8.82030200e-02
        2 -1    0    0  501    0 +0.0000000000e+00 +0.0000000000e+00 +1.4351273427e+03 1.4351273427e+03 0.0000000000e+00 0.0000e+00 -1.0000e+00
       -2 -1    0    0    0  501 -0.0000000000e+00 -0.0000000000e+00 -1.3152064085e+02 1.3152064085e+02 0.0000000000e+00 0.0000e+00 1.0000e+00
      -13  1    1    2    0    0 +1.4291080659e+02 +2.9032386009e+02 +1.2912366648e+02 3.4840258843e+02 0.0000000000e+00 0.0000e+00 1.0000e+00
       13  1    1    2    0    0 -1.4291080659e+02 -2.9032386009e+02 +1.1744830354e+03 1.2182453952e+03 0.0000000000e+00 0.0000e+00 -1.0000e+00
<mgrwt>
<rscale>  0 0.86890475E+03</rscale>
<asrwt>0</asrwt>
<pdfrwt beam="1">  1        2 0.22078881E+00 0.86890475E+03</pdfrwt>
<pdfrwt beam="2">  1       -2 0.20233946E-01 0.86890475E+03</pdfrwt>
<totfact> 0.33782241E+02</totfact>
</mgrwt>
<rwgt>
<wgt id='morphing_basis_vector_1'> +2.8102122e-04 </wgt>
<wgt id='morphing_basis_vector_2'> +1.7282283e-04 </wgt>
<wgt id='morphing_basis_vector_3'> +2.5956287e-04 </wgt>
<wgt id='morphing_basis_vector_4'> +1.4871117e-04 </wgt>
<wgt id='morphing_basis_vector_5'> +2.3506559e-04 </wgt>
</rwgt>
</event>
<event>
 4      1 +2.9741700e-06 7.89294100e+02 7.81860800e-03 8.91576700e-02
        2 -1    0    0  501    0 +0.0000000000e+00 +0.0000000000e+00 +1.5847292800e+03 1.5847292800e+03 0.0000000000e+00 0.0000e+00 -1.0000e+00
       -2 -1    0    0    0  501 -0.0000000000e+00 -0.0000000000e+00 -9.8279433707e+01 9.8279433707e+01 0.0000000000e+00 0.0000e+00 1.0000e+00
      -13  1    1    2    0    0 +1.9825922537e+02 -2.1126636618e+02 +1.3146090477e+03 1.3461564345e+03 0.0000000000e+00 0.0000e+00 1.0000e+00
       13  1    1    2    0    0 -1.9825922537e+02 +2.1126636618e+02 +1.7184079858e+02 3.3685227917e+02 0.0000000000e+00 0.0000e+00 -1.0000e+00
<mgrwt>
<rscale>  0 0.78929411E+03</rscale>
<asrwt>0</asrwt>
<pdfrwt beam="1">  1        2 0.24380449E+00 0.78929411E+03</pdfrwt>
<pdfrwt beam="2">  1       -2 0.15119914E-01 0.78929411E+03</pdfrwt>
<totfact> 0.45311755E+02</totfact>
</mgrwt>
<rwgt>
<wgt id='morphing_basis_vector_1'> +2.5315782e-04 </wgt>
<wgt id='morphing_basis_vector_2'> +2.8521426e-04 </wgt>
<wgt id='morphing_basis_vector_3'> +2.0896599e-04 </wgt>
<wgt id='morphing_basis_vector_4'> +3.0044640e-05 </wgt>
<wgt id='morphing_basis_vector_5'> +1.4946026e-04 </wgt>
</rwgt>
</event>
<event>
 4      1 +2.9741700e-06 7.64897400e+02 7.81860800e-03 8.94743500e-02
        2 -1    0    0  501    0 +0.0000000000e+00 +0.0000000000e+00 +1.2237619982e+02 1.2237619982e+02 0.0000000000e+00 0.0000e+00 1.0000e+00
       -2 -1    0    0    0  501 -0.0000000000e+00 -0.0000000000e+00 -1.1952242144e+03 1.1952242144e+03 0.0000000000e+00 0.0000e+00 -1.0000e+00
      -13  1    1    2    0    0 -2.3653657567e+02 -2.4858378482e+02 -8.2734986533e+02 8.9568479354e+02 0.0000000000e+00 0.0000e+00 -1.0000e+00
       13  1    1    2    0    0 +2.3653657567e+02 +2.4858378482e+02 -2.4549814926e+02 4.2191562071e+02 0.0000000000e+00 0.0000e+00 1.0000e+00
<mgrwt>
<rscale>  0 0.76489737E+03</rscale>
<asrwt>0</asrwt>
<pdfrwt beam="1">  1        2 0.18827107E-01 0.76489737E+03</pdfrwt>
<pdfrwt beam="2">  1       -2 0.18388066E+00 0.76489737E+03</pdfrwt>
<totfact> 0.60264839E+01</totfact>
</mgrwt>
<rwgt>
<wgt id='morphing_basis_vector_1'> +1.7929942e-04 </wgt>
<wgt id='morphing_basis_vector_2'> +1.0955595e-04 </wgt>
<wgt id='morphing_basis_vector_3'> +1.5801791e-04 </wgt>
<wgt id='morphing_basis_vector_4'> +8.3098532e-05 </wgt>
<wgt id='morphing_basis_vector_5'> +1.3170045e-04 </wgt>
</rwgt>
</event>
<event>
 4      1 +2.9741700e-06 7.72808800e+02 7.81860800e-03 8.93703000e-02
        2 -1    0    0  501    0 +0.0000000000e+00 +0.0000000000e+00 +7.0172216989e+02 7.0172216989e+02 0.0000000000e+00 0.0000e+00 -1.0000e+00
       -2 -1    0    0    0  501 -0.0000000000e+00 -0.0000000000e+00 -2.1277415901e+02 2.1277415901e+02 0.0000000000e+00 0.0000e+00 1.0000e+00
      -13  1    1    2    0    0 -2.6960171861e+02 -1.1004524815e+02 -5.6088334799e+01 2.9654838495e+02 0.0000000000e+00 0.0000e+00 1.0000e+00
       13  1    1    2    0    0 +2.6960171861e+02 +1.1004524815e+02 +5.4503634568e+02 6.1794794395e+02 0.0000000000e+00 0.0000e+00 -1.0000e+00
<mgrwt>
<rscale>  0 0.77280876E+03</rscale>
<asrwt>0</asrwt>
<pdfrwt beam="1">  1        2 0.10795726E+00 0.77280876E+03</pdfrwt>
<pdfrwt beam="2">  1       -2 0.32734486E-01 0.77280876E+03</pdfrwt>
<totfact> 0.42190302E+02</totfact>
</mgrwt>
<rwgt>
<wgt id='morphing_basis_vector_1'> +1.8514046e-04 </wgt>
<wgt id='morphing_basis_vector_2'> +1.1149458e-04 </wgt>
<wgt id='morphing_basis_vector_3'> +1.6408716e-04 </wgt>
<wgt id='morphing_basis_vector_4'> +8.7982326e-05 </wgt>
<wgt id='morphing_basis_vector_5'> +1.3814353e-04 </wgt>
</rwgt>
</event>
<event>
 4      1 +2.9741700e-06 7.89352700e+02 7.81860800e-03 8.91569300e-02
        2 -1    0    0  501    0 +0.0000000000e+00 +0.0000000000e+00 +2.6892637029e+02 2.6892637029e+02 0.0000000000e+00 0.0000e+00 1.0000e+00
       -2 -1    0    0    0  501 -0.0000000000e+00 -0.0000000000e+00 -5.7922695667e+02 5.7922695667e+02 0.0000000000e+00 0.0000e+00 -1.0000e+00
      -13  1    1    2    0    0 +1.9157673199e+02 +3.3682487528e+02 -7.4622404163e+01 3.9461518477e+02 0.0000000000e+00 0.0000e+00 -1.0000e+00
       13  1    1    2    0    0 -1.9157673199e+02 -3.3682487528e+02 -2.3567818221e+02 4.5353814219e+02 0.0000000000e+00 0.0000e+00 1.0000e+00
<mgrwt>
<rscale>  0 0.78935265E+03</rscale>
<asrwt>0</asrwt>
<pdfrwt beam="1">  1        2 0.41373288E-01 0.78935265E+03</pdfrwt>
<pdfrwt beam="2">  1       -2 0.89111839E-01 0.78935265E+03</pdfrwt>
<totfact> 0.16802563E+02</totfact>
</mgrwt>
<rwgt>
<wgt id='morphing_basis_vector_1'> +2.1273925e-04 </wgt>
<wgt id='morphing_basis_vector_2'> +1.6123134e-04 </wgt>
<wgt id='morphing_basis_vector_3'> +1.8581605e-04 </wgt>
<wgt id='morphing_basis_vector_4'> +8.0360458e-05 </wgt>
<wgt id='morphing_basis_vector_5'> +1.5158709e-04 </wgt>
</rwgt>
</event>
<event>
 4      1 +2.9741700e-06 8.14897500e+02 7.81860800e-03 8.88381300e-02
        2 -1    0    0  501    0 +0.0000000000e+00 +0.0000000000e+00 +1.0626680030e+03 1.0626680030e+03 0.0000000000e+00 0.0000e+00 -1.0000e+00
       -2 -1    0    0    0  501 -0.0000000000e+00 -0.0000000000e+00 -1.5622421411e+02 1.5622421411e+02 0.0000000000e+00 0.0000e+00 1.0000e+00
      -13  1    1    2    0    0 -2.1727478722e+02 -8.2619868215e+01 -4.7311148872e+01 2.3721871889e+02 0.0000000000e+00 0.0000e+00 1.0000e+00
       13  1    1    2    0    0 +2.1727478722e+02 +8.2619868215e+01 +9.5375493772e+02 9.8167349817e+02 0.0000000000e+00 0.0000e+00 -1.0000e+00
<mgrwt>
<rscale>  0 0.81489747E+03</rscale>
<asrwt>0</asrwt>
<pdfrwt beam="1">  1        2 0.16348738E+00 0.81489747E+03</pdfrwt>
<pdfrwt beam="2">  1       -2 0.24034495E-01 0.81489747E+03</pdfrwt>
<totfact> 0.41543397E+02</totfact>
</mgrwt>
<rwgt>
<wgt id='morphing_basis_vector_1'> +2.2304520e-04 </wgt>
<wgt id='morphing_basis_vector_2'> +1.3496685e-04 </wgt>
<wgt id='morphing_basis_vector_3'> +2.0165714e-04 </wgt>
<wgt id='morphing_basis_vector_4'> +1.1210452e-04 </wgt>
<wgt id='morphing_basis_vector_5'> +1.7608693e-04 </wgt>
</rwgt>
</event>
<event>
 4      1 +2.9741700e-06 7.75171300e+02 7.81860800e-03 8.93394800e-02
        2 -1    0    0  501    0 +0.0000000000e+00 +0.0000000000e+00 +1.2394519514e+03 1.2394519514e+03 0.0000000000e+00 0.0000e+00 -1.0000e+00
       -2 -1    0    0    0  501 -0.0000000000e+00 -0.0000000000e+00 -1.2120086534e+02 1.2120086534e+02 0.0000000000e+00 0.0000e+00 1.0000e+00
      -13  1    1    2    0    0 +1.7479206939e+01 -2.5013072822e+02 +4.0342927553e+01 2.5396546159e+02 0.0000000000e+00 0.0000e+00 1.0000e+00
       13  1    1    2    0    0 -1.7479206939e+01 +2.5013072822e+02 +1.0779081586e+03 1.1066873552e+03 0.0000000000e+00 0.0000e+00 -1.0000e+00
<mgrwt>
<rscale>  0 0.77517133E+03</rscale>
<asrwt>0</asrwt>
<pdfrwt beam="1">  1        2 0.19068491E+00 0.77517133E+03</pdfrwt>
<pdfrwt beam="2">  1       -2 0.18646288E-01 0.77517133E+03</pdfrwt>
<totfact> 0.50182331E+02</totfact>
</mgrwt>
<rwgt>
<wgt id='morphing_basis_vector_1'> +1.8696077e-04 </wgt>
<wgt id='morphing_basis_vector_2'> +1.1221995e-04 </wgt>
<wgt id='morphing_basis_vector_3'> +1.6595449e-04 </wgt>
<wgt id='morphing_basis_vector_4'> +8.9423547e-05 </wgt>
<wgt id='morphing_basis_vector_5'> +1.4010885e-04 </wgt>
</rwgt>
</event>
<event>
 4      1 +2.9741700e-06 7.99863500e+02 7.81860800e-03 8.90242200e-02
        2 -1    0    0  501    0 +0.0000000000e+00 +0.0000000000e+00 +2.0064291270e+03 2.0064291270e+03 0.0000000000e+00 0.0000e+00 -1.0000e+00
       -2 -1    0    0    0  501 -0.0000000000e+00 -0.0000000000e+00 -7.9716450160e+01 7.9716450160e+01 0.0000000000e+00 0.0000e+00 1.0000e+00
      -13  1    1    2    0    0 +1.3678833759e+02 +3.7376908309e+02 +8.6130453531e+02 9.4882025659e+02 0.0000000000e+00 0.0000e+00 1.0000e+00
       13  1    1    2    0    0 -1.3678833759e+02 -3.7376908309e+02 +1.0654081416e+03 1.1373253206e+03 0.0000000000e+00 0.0000e+00 -1.0000e+00
<mgrwt>
<rscale>  0 0.79986351E+03</rscale>
<asrwt>0</asrwt>
<pdfrwt beam="1">  1        2 0.30868137E+00 0.79986351E+03</pdfrwt>
<pdfrwt beam="2">  1       -2 0.12264071E-01 0.79986351E+03</pdfrwt>
<totfact> 0.37172937E+02</totfact>
</mgrwt>
<rwgt>
<wgt id='morphing_basis_vector_1'> +2.1381617e-04 </wgt>
<wgt id='morphing_basis_vector_2'> +1.4132907e-04 </wgt>
<wgt id='morphing_basis_vector_3'> +1.9051041e-04 </wgt>
<wgt id='morphing_basis_vector_4'> +9.6750857e-05 </wgt>
<wgt id='morphing_basis_vector_5'> +1.6150400e-04 </wgt>
</rwgt>
</event>
<event>
 4      1 +2.9741700e-06 7.73201500e+02 7.81860800e-03 8.93651700e-02
        2 -1    0    0  501    0 +0.0000000000e+00 +0.0000000000e+00 +3.6323181932e+02 3.6323181932e+02 0.0000000000e+00 0.0000e+00 -1.0000e+00
       -2 -1    0    0    0  501 -0.0000000000e+00 -0.0000000000e+00 -4.1147314106e+02 4.1147314106e+02 0.0000000000e+00 0.0000e+00 1.0000e+00
      -13  1    1    2    0    0 +1.2556961358e+02 -1.9045610970e+01 -3.8997403232e+02 4.1013437924e+02 0.0000000000e+00 0.0000e+00 1.0000e+00
       13  1    1    2    0    0 -1.2556961358e+02 +1.9045610970e+01 +3.4173271058e+02 3.6457058114e+02 0.0000000000e+00 0.0000e+00 -1.0000e+00
<mgrwt>
<rscale>  0 0.77320149E+03</rscale>
<asrwt>0</asrwt>
<pdfrwt beam="1">  1        2 0.55881819E-01 0.77320149E+03</pdfrwt>
<pdfrwt beam="2">  1       -2 0.63303560E-01 0.77320149E+03</pdfrwt>
<totfact> 0.25446719E+02</totfact>
</mgrwt>
<rwgt>
<wgt id='morphing_basis_vector_1'> +1.8517139e-04 </wgt>
<wgt id='morphing_basis_vector_2'> +1.1078460e-04 </wgt>
<wgt id='morphing_basis_vector_3'> +1.6425124e-04 </wgt>
<wgt id='morphing_basis_vector_4'> +8.8548653e-05 </wgt>
<wgt id='morphing_basis_vector_5'> +1.3848164e-04 </wgt>
</rwgt>
</event>
<event>
 4      1 +2.9741700e-06 7.68570800e+02 7.81860800e-03 8.94258700e-02
        2 -1    0    0  501    0 +0.0000000000e+00 +0.0000000000e+00 +3.9504671248e+02 3.9504671248e+02 0.0000000000e+00 0.0000e+00 1.0000e+00
       -2 -1    0    0    0  501 -0.0000000000e+00 -0.0000000000e+00 -3.7381723229e+02 3.7381723229e+02 0.0000000000e+00 0.0000e+00 -1.0000e+00
      -13  1    1    2    0    0 +3.6390477395e+02 +3.1450566364e+01 -1.0884372833e+02 3.8113354591e+02 0.0000000000e+00 0.0000e+00 -1.0000e+00
       13  1    1    2    0    0 -3.6390477395e+02 -3.1450566364e+01 +1.3007320851e+02 3.8773039886e+02 0.0000000000e+00 0.0000e+00 1.0000e+00
<mgrwt>
<rscale>  0 0.76857080E+03</rscale>
<asrwt>0</asrwt>
<pdfrwt beam="1">  1        2 0.60776417E-01 0.76857080E+03</pdfrwt>
<pdfrwt beam="2">  1       -2 0.57510344E-01 0.76857080E+03</pdfrwt>
<totfact> 0.28177846E+02</totfact>
</mgrwt>
<rwgt>
<wgt id='morphing_basis_vector_1'> +1.8318883e-04 </wgt>
<wgt id='morphing_basis_vector_2'> +1.1412390e-04 </wgt>
<wgt id='morphing_basis_vector_3'> +1.6144629e-04 </wgt>
<wgt id='morphing_basis_vector_4'> +8.3903016e-05 </wgt>
<wgt id='morphing_basis_vector_5'> +1.3460926e-04 </wgt>
</rwgt>
</event>
<event>
 4      1 +2.9741700e-06 8.70029300e+02 7.81860800e-03 8.81903200e-02
        2 -1    0    0  501    0 +0.0000000000e+00 +0.0000000000e+00 +3.6970747807e+02 3.6970747807e+02 0.0000000000e+00 0.0000e+00 -1.0000e+00
       -2 -1    0    0    0  501 -0.0000000000e+00 -0.0000000000e+00 -5.1185802160e+02 5.1185802160e+02 0.0000000000e+00 0.0000e+00 1.0000e+00
      -13  1    1    2    0    0 +2.0334074208e+02 -2.2289443591e+02 +2.4646215842e+02 3.8958052118e+02 0.0000000000e+00 0.0000e+00 -1.0000e+00
       13  1    1    2    0    0 -2.0334074208e+02 +2.2289443591e+02 -3.8861270195e+02 4.9198497850e+02 0.0000000000e+00 0.0000e+00 1.0000e+00
<mgrwt>
<rscale>  0 0.87002928E+03</rscale>
<asrwt>0</asrwt>
<pdfrwt beam="1">  1        2 0.56878073E-01 0.87002928E+03</pdfrwt>
<pdfrwt beam="2">  1       -2 0.78747389E-01 0.87002928E+03</pdfrwt>
<totfact> 0.15515005E+02</totfact>
</mgrwt>
<rwgt>
<wgt id='morphing_basis_vector_1'> +3.6457761e-04 </wgt>
<wgt id='morphing_basis_vector_2'> +4.2442965e-04 </wgt>
<wgt id='morphing_basis_vector_3'> +3.2122841e-04 </wgt>
<wgt id='morphing_basis_vector_4'> +3.6178660e-05 </wgt>
<wgt id='morphing_basis_vector_5'> +2.3073224e-04 </wgt>
</rwgt>
</event>
<event>
 4      1 +2.9741700e-06 8.30987100e+02 7.81860800e-03 8.86436100e-02
        2 -1    0    0  501    0 +0.0000000000e+00 +0.0000000000e+00 +5.4465164341e+02 5.4465164341e+02 0.0000000000e+00 0.0000e+00 1.0000e+00
       -2 -1    0    0    0  501 -0.0000000000e+00 -0.0000000000e+00 -3.1696389526e+02 3.1696389526e+02 0.0000000000e+00 0.0000e+00 -1.0000e+00
      -13  1    1    2    0    0 +3.5936333338e+02 -1.8936345869e+02 +2.0443927508e+02 4.5474821832e+02 0.0000000000e+00 0.0000e+00 -1.0000e+00
       13  1    1    2    0    0 -3.5936333338e+02 +1.8936345869e+02 +2.3248473065e+01 4.0686732035e+02 0.0000000000e+00 0.0000e+00 1.0000e+00
<mgrwt>
<rscale>  0 0.83098714E+03</rscale>
<asrwt>0</asrwt>
<pdfrwt beam="1">  1        2 0.83792560E-01 0.83098714E+03</pdfrwt>
<pdfrwt beam="2">  1       -2 0.48763676E-01 0.83098714E+03</pdfrwt>
<totfact> 0.27052589E+02</totfact>
</mgrwt>
<rwgt>
<wgt id='morphing_basis_vector_1'> +2.5659099e-04 </wgt>
<wgt id='morphing_basis_vector_2'> +1.9853814e-04 </wgt>
<wgt id='morphing_basis_vector_3'> +2.2921365e-04 </wgt>
<wgt id='morphing_basis_vector_4'> +9.9383067e-05 </wgt>
<wgt id='morphing_basis_vector_5'> +1.9132687e-04 </wgt>
</rwgt>
</event>
<event>
 4      1 +2.9741700e-06 8.22168300e+02 7.81860800e-03 8.87496400e-02
        2 -1    0    0  501    0 +0.0000000000e+00 +0.0000000000e+00 +9.5979748268e+02 9.5979748268e+02 0.0000000000e+00 0.0000e+00 -1.0000e+00
       -2 -1    0    0    0  501 -0.0000000000e+00 -0.0000000000e+00 -1.7606859980e+02 1.7606859980e+02 0.0000000000e+00 0.0000e+00 1.0000e+00
      -13  1    1    2    0    0 +1.7029823601e+02 +2.8014304717e+02 +4.9227458192e+01 3.3151916793e+02 0.0000000000e+00 0.0000e+00 1.0000e+00
       13  1    1    2    0    0 -1.7029823601e+02 -2.8014304717e+02 +7.3450142470e+02 8.0434691455e+02 0.0000000000e+00 0.0000e+00 -1.0000e+00
<mgrwt>
<rscale>  0 0.82216835E+03</rscale>
<asrwt>0</asrwt>
<pdfrwt beam="1">  1        2 0.14766115E+00 0.82216835E+03</pdfrwt>
<pdfrwt beam="2">  1       -2 0.27087477E-01 0.82216835E+03</pdfrwt>
<totfact> 0.39124801E+02</totfact>
</mgrwt>
<rwgt>
<wgt id='morphing_basis_vector_1'> +2.3067393e-04 </wgt>
<wgt id='morphing_basis_vector_2'> +1.4093942e-04 </wgt>
<wgt id='morphing_basis_vector_3'> +2.0908318e-04 </wgt>
<wgt id='morphing_basis_vector_4'> +1.1605364e-04 </wgt>
<wgt id='morphing_basis_vector_5'> +1.8329851e-04 </wgt>
</rwgt>
</event>
<event>
 4      1 +2.9741700e-06 8.57474300e+02 7.81860800e-03 8.83333100e-02
        2 -1    0    0  501    0 +0.0000000000e+00 +0.0000000000e+00 +6.5845708163e+02 6.5845708163e+02 0.0000000000e+00 0.0000e+00 1.0000e+00
       -2 -1    0    0    0  501 -0.0000000000e+00 -0.0000000000e+00 -2.7916100328e+02 2.7916100328e+02 0.0000000000e+00 0.0000e+00 -1.0000e+00
      -13  1    1    2    0    0 -1.4727707217e+02 -1.3042130014e+02 -2.2689650663e+02 3.0030364007e+02 0.0000000000e+00 0.0000e+00 -1.0000e+00
       13  1    1    2    0    0 +1.4727707217e+02 +1.3042130014e+02 +6.0619258498e+02 6.3731444484e+02 0.0000000000e+00 0.0000e+00 1.0000e+00
<mgrwt>
<rscale>  0 0.85747429E+03</rscale>
<asrwt>0</asrwt>
<pdfrwt beam="1">  1        2 0.10130109E+00 0.85747429E+03</pdfrwt>
<pdfrwt beam="2">  1       -2 0.42947847E-01 0.85747429E+03</pdfrwt>
<totfact> 0.27560693E+02</totfact>
</mgrwt>
<rwgt>
<wgt id='morphing_basis_vector_1'> +2.6755502e-04 </wgt>
<wgt id='morphing_basis_vector_2'> +1.6323874e-04 </wgt>
<wgt id='morphing_basis_vector_3'> +2.4613892e-04 </wgt>
<wgt id='morphing_basis_vector_4'> +1.4075850e-04 </wgt>
<wgt id='morphing_basis_vector_5'> +2.2156650e-04 </wgt>
</rwgt>
</event>
<event>
 4      1 +2.9741700e-06 7.50238700e+02 7.81860800e-03 8.96707200e-02
        2 -1    0    0  501    0 +0.0000000000e+00 +0.0000000000e+00 +7.7070643456e+02 7.7070643456e+02 0.0000000000e+00 0.0000e+00 -1.0000e+00
       -2 -1    0    0    0  501 -0.0000000000e+00 -0.0000000000e+00 -1.8257862661e+02 1.8257862661e+02 0.0000000000e+00 0.0000e+00 1.0000e+00
      -13  1    1    2    0    0 +4.2665278607e+01 +2.5359630802e+02 -5.2947360181e+01 2.6255444462e+02 0.0000000000e+00 0.0000e+00 1.0000e+00
       13  1    1    2    0    0 -4.2665278607e+01 -2.5359630802e+02 +6.4107516813e+02 6.9073061654e+02 0.0000000000e+00 0.0000e+00 -1.0000e+00
<mgrwt>
<rscale>  0 0.75023869E+03</rscale>
<asrwt>0</asrwt>
<pdfrwt beam="1">  1        2 0.11857022E+00 0.75023869E+03</pdfrwt>
<pdfrwt beam="2">  1       -2 0.28089020E-01 0.75023869E+03</pdfrwt>
<totfact> 0.49256406E+02</totfact>
</mgrwt>
<rwgt>
<wgt id='morphing_basis_vector_1'> +1.6677351e-04 </wgt>
<wgt id='morphing_basis_vector_2'> +9.9571755e-05 </wgt>
<wgt id='morphing_basis_vector_3'> +1.4615916e-04 </wgt>
<wgt id='morphing_basis_vector_4'> +7.7014934e-05 </wgt>
<wgt id='morphing_basis_vector_5'> +1.2042781e-04 </wgt>
</rwgt>
</event>
<event>
 4      1 +2.9741700e-06 7.93775600e+02 7.81860800e-03 8.91008200e-02
        2 -1    0    0  501    0 +0.0000000000e+00 +0.0000000000e+00 +1.5462517222e+03 1.5462517222e+03 0.0000000000e+00 0.0000e+00 1.0000e+00
       -2 -1    0    0    0  501 -0.0000000000e+00 -0.0000000000e+00 -1.0187209793e+02 1.0187209793e+02 0.0000000000e+00 0.0000e+00 -1.0000e+00
      -13  1    1    2    0    0 -3.9271111198e+01 -3.9004355503e+02 +8.5091618422e+02 9.3687488362e+02 0.0000000000e+00 0.0000e+00 1.0000e+00
       13  1    1    2    0    0 +3.9271111198e+01 +3.9004355503e+02 +5.9346344002e+02 7.1124893647e+02 0.0000000000e+00 0.0000e+00 -1.0000e+00
<mgrwt>
<rscale>  0 0.79377555E+03</rscale>
<asrwt>0</asrwt>
<pdfrwt beam="1">  1        2 0.23788486E+00 0.79377555E+03</pdfrwt>
<pdfrwt beam="2">  1       -2 0.15672632E-01 0.79377555E+03</pdfrwt>
<totfact> 0.44873130E+02</totfact>
</mgrwt>
<rwgt>
<wgt id='morphing_basis_vector_1'> +2.1549150e-04 </wgt>
<wgt id='morphing_basis_vector_2'> +1.5999753e-04 </wgt>
<wgt id='morphing_basis_vector_3'> +1.8915987e-04 </wgt>
<wgt id='morphing_basis_vector_4'> +8.4255862e-05 </wgt>
<wgt id='morphing_basis_vector_5'> +1.5558189e-04 </wgt>
</rwgt>
</event>
<event>
 4      1 +2.9741700e-06 8.42695600e+02 7.81860800e-03 8.85049600e-02
        2 -1    0    0  501    0 +0.0000000000e+00 +0.0000000000e+00 +2.1820810645e+02 2.1820810645e+02 0.0000000000e+00 0.0000e+00 1.0000e+00
       -2 -1    0    0    0  501 -0.0000000000e+00 -0.0000000000e+00 -8.1359930109e+02 8.1359930109e+02 0.0000000000e+00 0.0000e+00 -1.0000e+00
      -13  1    1    2    0    0 -2.2818529171e+02 -5.4723807612e+01 -7.2618895471e+02 7.6316028487e+02 0.0000000000e+00 0.0000e+00 -1.0000e+00
       13  1    1    2    0    0 +2.2818529171e+02 +5.4723807612e+01 +1.3079776007e+02 2.6864712266e+02 0.0000000000e+00 0.0000e+00 1.0000e+00
<mgrwt>
<rscale>  0 0.84269559E+03</rscale>
<asrwt>0</asrwt>
<pdfrwt beam="1">  1        2 0.33570478E-01 0.84269559E+03</pdfrwt>
<pdfrwt beam="2">  1       -2 0.12516912E+00 0.84269559E+03</pdfrwt>
<totfact> 0.91895177E+01</totfact>
</mgrwt>
<rwgt>
<wgt id='morphing_basis_vector_1'> +2.5141640e-04 </wgt>
<wgt id='morphing_basis_vector_2'> +1.5304110e-04 </wgt>
<wgt id='morphing_basis_vector_3'> +2.2995118e-04 </wgt>
<wgt id='morphing_basis_vector_4'> +1.3023132e-04 </wgt>
<wgt id='morphing_basis_vector_5'> +2.0492002e-04 </wgt>
</rwgt>
</event>
<event>
 4      1 +2.9741700e-06 7.84712700e+02 7.81860800e-03 8.92162000e-02
        2 -1    0    0  501    0 +0.0000000000e+00 +0.0000000000e+00 +5.5494966497e+02 5.5494966497e+02 0.0000000000e+00 0.0000e+00 1.0000e+00
       -2 -1    0    0    0  501 -0.0000000000e+00 -0.0000000000e+00 -2.7740086530e+02 2.7740086530e+02 0.0000000000e+00 0.0000e+00 -1.0000e+00
      -13  1    1    2    0    0 +2.8212728846e+02 -1.1474430585e+02 +4.0113913572e+02 5.0366126397e+02 0.0000000000e+00 0.0000e+00 1.0000e+00
       13  1    1    2    0    0 -2.8212728846e+02 +1.1474430585e+02 -1.2359033605e+02 3.2868926630e+02 0.0000000000e+00 0.0000e+00 -1.0000e+00
<mgrwt>
<rscale>  0 0.78471273E+03</rscale>
<asrwt>0</asrwt>
<pdfrwt beam="1">  1        2 0.85376871E-01 0.78471273E+03</pdfrwt>
<pdfrwt beam="2">  1       -2 0.42677056E-01 0.78471273E+03</pdfrwt>
<totfact> 0.34251279E+02</totfact>
</mgrwt>
<rwgt>
<wgt id='morphing_basis_vector_1'> +2.4302619e-04 </wgt>
<wgt id='morphing_basis_vector_2'> +2.6405752e-04 </wgt>
<wgt id='morphing_basis_vector_3'> +2.0099470e-04 </wgt>
<wgt id='morphing_basis_vector_4'> +3.5495836e-05 </wgt>
<wgt id='morphing_basis_vector_5'> +1.4581610e-04 </wgt>
</rwgt>
</event>
<event>
 4      1 +2.9741700e-06 7.65530800e+02 7.81860800e-03 8.94659700e-02
        2 -1    0    0  501    0 +0.0000000000e+00 +0.0000000000e+00 +8.1500132337e+02 8.1500132337e+02 0.0000000000e+00 0.0000e+00 -1.0000e+00
       -2 -1    0    0    0  501 -0.0000000000e+00 -0.0000000000e+00 -1.7976576004e+02 1.7976576004e+02 0.0000000000e+00 0.0000e+00 1.0000e+00
      -13  1    1    2    0    0 +3.2435973162e+02 +1.4932939560e+02 +4.9673817502e+02 6.1176573817e+02 0.0000000000e+00 0.0000e+00 1.0000e+00
       13  1    1    2    0    0 -3.2435973162e+02 -1.4932939560e+02 +1.3849738832e+02 3.8300134524e+02 0.0000000000e+00 0.0000e+00 -1.0000e+00
<mgrwt>
<rscale>  0 0.76553075E+03</rscale>
<asrwt>0</asrwt>
<pdfrwt beam="1">  1        2 0.12538482E+00 0.76553075E+03</pdfrwt>
<pdfrwt beam="2">  1       -2 0.27656271E-01 0.76553075E+03</pdfrwt>
<totfact> 0.47097061E+02</totfact>
</mgrwt>
<rwgt>
<wgt id='morphing_basis_vector_1'> +1.9994448e-04 </wgt>
<wgt id='morphing_basis_vector_2'> +1.7165391e-04 </wgt>
<wgt id='morphing_basis_vector_3'> +1.6897149e-04 </wgt>
<wgt id='morphing_basis_vector_4'> +5.9338186e-05 </wgt>
<wgt id='morphing_basis_vector_5'> +1.3129316e-04 </wgt>
</rwgt>
</event>
<event>
 4      1 +2.9741700e-06 8.61604400e+02 7.81860800e-03 8.82859900e-02
        2 -1    0    0  501    0 +0.0000000000e+00 +0.0000000000e+00 +2.0963753941e+03 2.0963753941e+03 0.0000000000e+00 0.0000e+00 -1.0000e+00
       -2 -1    0    0    0  501 -0.0000000000e+00 -0.0000000000e+00 -8.8529251669e+01 8.8529251669e+01 0.0000000000e+00 0.0000e+00 1.0000e+00
      -13  1    1    2    0    0 -1.5580336636e+01 +4.2048358558e+02 +7.6956069917e+02 8.7708201574e+02 0.0000000000e+00 0.0000e+00 1.0000e+00
       13  1    1    2    0    0 +1.5580336636e+01 -4.2048358558e+02 +1.2382854433e+03 1.3078226301e+03 0.0000000000e+00 0.0000e+00 -1.0000e+00
<mgrwt>
<rscale>  0 0.86160442E+03</rscale>
<asrwt>0</asrwt>
<pdfrwt beam="1">  1        2 0.32251925E+00 0.86160442E+03</pdfrwt>
<pdfrwt beam="2">  1       -2 0.13619886E-01 0.86160442E+03</pdfrwt>
<totfact> 0.27867578E+02</totfact>
</mgrwt>
<rwgt>
<wgt id='morphing_basis_vector_1'> +2.7645419e-04 </wgt>
<wgt id='morphing_basis_vector_2'> +1.7913937e-04 </wgt>
<wgt id='morphing_basis_vector_3'> +2.5386613e-04 </wgt>
<wgt id='morphing_basis_vector_4'> +1.3800639e-04 </wgt>
<wgt id='morphing_basis_vector_5'> +2.2610134e-04 </wgt>
</rwgt>
</event>
<event>
 4      1 +2.9741700e-06 7.58871400e+02 7.81860800e-03 8.95545000e-02
        2 -1    0    0  501    0 +0.0000000000e+00 +0.0000000000e+00 +1.1168418384e+03 1.1168418384e+03 0.0000000000e+00 0.0000e+00 1.0000e+00
       -2 -1    0    0    0  501 -0.0000000000e+00 -0.0000000000e+00 -1.2890944431e+02 1.2890944431e+02 0.0000000000e+00 0.0000e+00 -1.0000e+00
      -13  1    1    2    0    0 -2.1822609185e+02 -1.0949215436e+02 +1.7170635420e+01 2.4475700144e+02 0.0000000000e+00 0.0000e+00 -1.0000e+00
       13  1    1    2    0    0 +2.1822609185e+02 +1.0949215436e+02 +9.7076175867e+02 1.0009942813e+03 0.0000000000e+00 0.0000e+00 1.0000e+00
<mgrwt>
<rscale>  0 0.75887143E+03</rscale>
<asrwt>0</asrwt>
<pdfrwt beam="1">  1        2 0.17182181E+00 0.75887143E+03</pdfrwt>
<pdfrwt beam="2">  1       -2 0.19832223E-01 0.75887143E+03</pdfrwt>
<totfact> 0.53433861E+02</totfact>
</mgrwt>
<rwgt>
<wgt id='morphing_basis_vector_1'> +1.7352679e-04 </wgt>
<wgt id='morphing_basis_vector_2'> +1.0371902e-04 </wgt>
<wgt id='morphing_basis_vector_3'> +1.5278016e-04 </wgt>
<wgt id='morphing_basis_vector_4'> +8.1197018e-05 </wgt>
<wgt id='morphing_basis_vector_5'> +1.2700310e-04 </wgt>
</rwgt>
</event>
<event>
 4      1 +2.9741700e-06 8.83682900e+02 7.81860800e-03 8.80376800e-02
        2 -1    0    0  501    0 +0.0000000000e+00 +0.0000000000e+00 +1.7356063211e+03 1.7356063211e+03 0.0000000000e+00 0.0000e+00 -1.0000e+00
       -2 -1    0    0    0  501 -0.0000000000e+00 -0.0000000000e+00 -1.1248165975e+02 1.1248165975e+02 0.0000000000e+00 0.0000e+00 1.0000e+00
      -13  1    1    2    0    0 -1.1846947616e+02 +3.8471374813e+02 +4.3059141657e+02 5.8944775240e+02 0.0000000000e+00 0.0000e+00 1.0000e+00
       13  1    1    2    0    0 +1.1846947616e+02 -3.8471374813e+02 +1.1925332448e+03 1.2586402284e+03 0.0000000000e+00 0.0000e+00 -1.0000e+00
<mgrwt>
<rscale>  0 0.88368293E+03</rscale>
<asrwt>0</asrwt>
<pdfrwt beam="1">  1        2 0.26701634E+00 0.88368293E+03</pdfrwt>
<pdfrwt beam="2">  1       -2 0.17304872E-01 0.88368293E+03</pdfrwt>
<totfact> 0.29846106E+02</totfact>
</mgrwt>
<rwgt>
<wgt id='morphing_basis_vector_1'> +3.0019822e-04 </wgt>
<wgt id='morphing_basis_vector_2'> +1.8885914e-04 </wgt>
<wgt id='morphing_basis_vector_3'> +2.7850980e-04 </wgt>
<wgt id='morphing_basis_vector_4'> +1.5806976e-04 </wgt>
<wgt id='morphing_basis_vector_5'> +2.5331450e-04 </wgt>
</rwgt>
</event>
<event>
 4      1 +2.9741700e-06 7.68033900e+02 7.81860800e-03 8.94329400e-02
        2 -1    0    0  501    0 +0.0000000000e+00 +0.0000000000e+00 +1.5548376969e+03 1.5548376969e+03 0.0000000000e+00 0.0000e+00 1.0000e+00
       -2 -1    0    0    0  501 -0.0000000000e+00 -0.0000000000e+00 -9.4845285439e+01 9.4845285439e+01 0.0000000000e+00 0.0000e+00 -1.0000e+00
      -13  1    1    2    0    0 +2.0244675059e+02 +3.1445792762e+02 +5.4273724570e+02 6.5911470393e+02 0.0000000000e+00 0.0000e+00 -1.0000e+00
       13  1    1    2    0    0 -2.0244675059e+02 -3.1445792762e+02 +9.1725516572e+02 9.9056827837e+02 0.0000000000e+00 0.0000e+00 1.0000e+00
<mgrwt>
<rscale>  0 0.76803392E+03</rscale>
<asrwt>0</asrwt>
<pdfrwt beam="1">  1        2 0.23920578E+00 0.76803392E+03</pdfrwt>
<pdfrwt beam="2">  1       -2 0.14591584E-01 0.76803392E+03</pdfrwt>
<totfact> 0.49912853E+02</totfact>
</mgrwt>
<rwgt>
<wgt id='morphing_basis_vector_1'> +1.8352665e-04 </wgt>
<wgt id='morphing_basis_vector_2'> +1.1624329e-04 </wgt>
<wgt id='morphing_basis_vector_3'> +1.6141858e-04 </wgt>
<wgt id='morphing_basis_vector_4'> +8.2692739e-05 </wgt>
<wgt id='morphing_basis_vector_5'> +1.3413953e-04 </wgt>
</rwgt>
</event>
<event>
 4      1 +2.9741700e-06 8.16134700e+02 7.81860800e-03 8.88230000e-02
        2 -1    0    0  501    0 +0.0000000000e+00 +0.0000000000e+00 +2.2267312728e+03 2.2267312728e+03 0.0000000000e+00 0.0000e+00 -1.0000e+00
       -2 -1    0    0    0  501 -0.0000000000e+00 -0.0000000000e+00 -7.4781788188e+01 7.4781788188e+01 0.0000000000e+00 0.0000e+00 1.0000e+00
      -13  1    1    2    0    0 -3.1806242062e+02 +1.4007428253e+02 +4.7289700595e+02 5.8686973536e+02 0.0000000000e+00 0.0000e+00 1.0000e+00
       13  1    1    2    0    0 +3.1806242062e+02 -1.4007428253e+02 +1.6790524786e+03 1.7146433256e+03 0.0000000000e+00 0.0000e+00 -1.0000e+00
<mgrwt>
<rscale>  0 0.81613466E+03</rscale>
<asrwt>0</asrwt>
<pdfrwt beam="1">  1        2 0.34257399E+00 0.81613466E+03</pdfrwt>
<pdfrwt beam="2">  1       -2 0.11504892E-01 0.81613466E+03</pdfrwt>
<totfact> 0.30951524E+02</totfact>
</mgrwt>
<rwgt>
<wgt id='morphing_basis_vector_1'> +2.2501239e-04 </wgt>
<wgt id='morphing_basis_vector_2'> +1.3805995e-04 </wgt>
<wgt id='morphing_basis_vector_3'> +2.0333627e-04 </wgt>
<wgt id='morphing_basis_vector_4'> +1.1188798e-04 </wgt>
<wgt id='morphing_basis_vector_5'> +1.7726006e-04 </wgt>
</rwgt>
</event>
<event>
 4      1 +2.9741700e-06 8.63920100e+02 7.81860800e-03 8.82595800e-02
        2 -1    0    0  501    0 +0.0000000000e+00 +0.0000000000e+00 +1.3481614663e+03 1.3481614663e+03 0.0000000000e+00 0.0000e+00 -1.0000e+00
       -2 -1    0    0    0  501 -0.0000000000e+00 -0.0000000000e+00 -1.3840292895e+02 1.3840292895e+02 0.0000000000e+00 0.0000e+00 1.0000e+00
      -13  1    1    2    0    0 -3.9233742470e+02 -1.6601846253e+02 +4.8201083255e+02 6.4329248978e+02 0.0000000000e+00 0.0000e+00 1.0000e+00
       13  1    1    2    0    0 +3.9233742470e+02 +1.6601846253e+02 +7.2774770482e+02 8.4327190549e+02 0.0000000000e+00 0.0000e+00 -1.0000e+00
<mgrwt>
<rscale>  0 0.86392013E+03</rscale>
<asrwt>0</asrwt>
<pdfrwt beam="1">  1        2 0.20740945E+00 0.86392013E+03</pdfrwt>
<pdfrwt beam="2">  1       -2 0.21292759E-01 0.86392013E+03</pdfrwt>
<totfact> 0.34708805E+02</totfact>
</mgrwt>
<rwgt>
<wgt id='morphing_basis_vector_1'> +2.8006652e-04 </wgt>
<wgt id='morphing_basis_vector_2'> +1.8378523e-04 </wgt>
<wgt id='morphing_basis_vector_3'> +2.5724050e-04 </wgt>
<wgt id='morphing_basis_vector_4'> +1.3838426e-04 </wgt>
<wgt id='morphing_basis_vector_5'> +2.2876928e-04 </wgt>
</rwgt>
</event>
<event>
 4      1 +2.9741700e-06 7.67640200e+02 7.81860800e-03 8.94381200e-02
        2 -1    0    0  501    0 +0.0000000000e+00 +0.0000000000e+00 +2.7354287254e+02 2.7354287254e+02 0.0000000000e+00 0.0000e+00 1.0000e+00
       -2 -1    0    0    0  501 -0.0000000000e+00 -0.0000000000e+00 -5.3855495654e+02 5.3855495654e+02 0.0000000000e+00 0.0000e+00 -1.0000e+00
      -13  1    1    2    0    0 +9.5568944707e+01 +3.1479012133e+02 +7.6660639875e+01 3.3779149987e+02 0.0000000000e+00 0.0000e+00 1.0000e+00
       13  1    1    2    0    0 -9.5568944707e+01 -3.1479012133e+02 -3.4167272388e+02 4.7430632920e+02 0.0000000000e+00 0.0000e+00 -1.0000e+00
<mgrwt>
<rscale>  0 0.76764020E+03</rscale>
<asrwt>0</asrwt>
<pdfrwt beam="1">  1        2 0.42083519E-01 0.76764020E+03</pdfrwt>
<pdfrwt beam="2">  1       -2 0.82854609E-01 0.76764020E+03</pdfrwt>
<totfact> 0.19516276E+02</totfact>
</mgrwt>
<rwgt>
<wgt id='morphing_basis_vector_1'> +2.1404496e-04 </wgt>
<wgt id='morphing_basis_vector_2'> +2.1068670e-04 </wgt>
<wgt id='morphing_basis_vector_3'> +1.7725589e-04 </wgt>
<wgt id='morphing_basis_vector_4'> +4.5467964e-05 </wgt>
<wgt id='morphing_basis_vector_5'> +1.3240725e-04 </wgt>
</rwgt>
</event>
<event>
 4      1 +2.9741700e-06 7.98735400e+02 7.81860800e-03 8.90383600e-02
        2 -1    0    0  501    0 +0.0000000000e+00 +0.0000000000e+00 +3.4819067525e+02 3.4819067525e+02 0.0000000000e+00 0.0000e+00 -1.0000e+00
       -2 -1    0    0    0  501 -0.0000000000e+00 -0.0000000000e+00 -4.5806672158e+02 4.5806672158e+02 0.0000000000e+00 0.0000e+00 1.0000e+00
      -13  1    1    2    0    0 +1.0406450893e+02 -1.5558753715e+02 -4.1104590692e+02 4.5165876647e+02 0.0000000000e+00 0.0000e+00 1.0000e+00
       13  1    1    2    0    0 -1.0406450893e+02 +1.5558753715e+02 +3.0116986058e+02 3.5459863036e+02 0.0000000000e+00 0.0000e+00 -1.0000e+00
<mgrwt>
<rscale>  0 0.79873540E+03</rscale>
<asrwt>0</asrwt>
<pdfrwt beam="1">  1        2 0.53567796E-01 0.79873540E+03</pdfrwt>
<pdfrwt beam="2">  1       -2 0.70471804E-01 0.79873540E+03</pdfrwt>
<totfact> 0.21260583E+02</totfact>
</mgrwt>
<rwgt>
<wgt id='morphing_basis_vector_1'> +2.0768786e-04 </wgt>
<wgt id='morphing_basis_vector_2'> +1.2508993e-04 </wgt>
<wgt id='morphing_basis_vector_3'> +1.8644606e-04 </wgt>
<wgt id='morphing_basis_vector_4'> +1.0251836e-04 </wgt>
<wgt id='morphing_basis_vector_5'> +1.6073884e-04 </wgt>
</rwgt>
</event>
<event>
 4      1 +2.9741700e-06 7.95932400e+02 7.81860800e-03 8.90736000e-02
        2 -1    0    0  501    0 +0.0000000000e+00 +0.0000000000e+00 +4.7373259646e+02 4.7373259646e+02 0.0000000000e+00 0.0000e+00 -1.0000e+00
       -2 -1    0    0    0  501 -0.0000000000e+00 -0.0000000000e+00 -3.3431748762e+02 3.3431748762e+02 0.0000000000e+00 0.0000e+00 1.0000e+00
      -13  1    1    2    0    0 +2.3864914453e+02 -2.2341054823e+02 -1.6070906317e+02 3.6427062774e+02 0.0000000000e+00 0.0000e+00 1.0000e+00
       13  1    1    2    0    0 -2.3864914453e+02 +2.2341054823e+02 +3.0012417201e+02 4.4377945634e+02 0.0000000000e+00 0.0000e+00 -1.0000e+00
<mgrwt>
<rscale>  0 0.79593239E+03</rscale>
<asrwt>0</asrwt>
<pdfrwt beam="1">  1        2 0.72881938E-01 0.79593239E+03</pdfrwt>
<pdfrwt beam="2">  1       -2 0.51433460E-01 0.79593239E+03</pdfrwt>
<totfact> 0.28646240E+02</totfact>
</mgrwt>
<rwgt>
<wgt id='morphing_basis_vector_1'> +2.0568131e-04 </wgt>
<wgt id='morphing_basis_vector_2'> +1.2518320e-04 </wgt>
<wgt id='morphing_basis_vector_3'> +1.8423556e-04 </wgt>
<wgt id='morphing_basis_vector_4'> +1.0020262e-04 </wgt>
<wgt id='morphing_basis_vector_5'> +1.5814831e-04 </wgt>
</rwgt>
</event>
<event>
 4      1 +2.9741700e-06 7.63041200e+02 7.81860800e-03 8.94989600e-02
        2 -1    0    0  501    0 +0.0000000000e+00 +0.0000000000e+00 +1.9829971893e+03 1.9829971893e+03 0.0000000000e+00 0.0000e+00 -1.0000e+00
       -2 -1    0    0    0  501 -0.0000000000e+00 -0.0000000000e+00 -7.3403004425e+01 7.3403004425e+01 0.0000000000e+00 0.0000e+00 1.0000e+00
      -13  1    1    2    0    0 -3.3106210717e+02 -1.8648943230e+02 +1.0472764089e+03 1.1140773329e+03 0.0000000000e+00 0.0000e+00 1.0000e+00
       13  1    1    2    0    0 +3.3106210717e+02 +1.8648943230e+02 +8.6231777601e+02 9.4232286080e+02 0.0000000000e+00 0.0000e+00 -1.0000e+00
<mgrwt>
<rscale>  0 0.76304116E+03</rscale>
<asrwt>0</asrwt>
<pdfrwt beam="1">  1        2 0.30507645E+00 0.76304116E+03</pdfrwt>
<pdfrwt beam="2">  1       -2 0.11292771E-01 0.76304116E+03</pdfrwt>
<totfact> 0.43784274E+02</totfact>
</mgrwt>
<rwgt>
<wgt id='morphing_basis_vector_1'> +1.8529282e-04 </wgt>
<wgt id='morphing_basis_vector_2'> +1.3164103e-04 </wgt>
<wgt id='morphing_basis_vector_3'> +1.6038239e-04 </wgt>
<wgt id='morphing_basis_vector_4'> +7.3235632e-05 </wgt>
<wgt id='morphing_basis_vector_5'> +1.2989271e-04 </wgt>
</rwgt>
</event>
<event>
 4      1 +2.9741700e-06 8.20443500e+02 7.81860800e-03 8.87705400e-02
        2 -1    0    0  501    0 +0.0000000000e+00 +0.0000000000e+00 +2.7392116992e+02 2.7392116992e+02 0.0000000000e+00 0.0000e+00 1.0000e+00
       -2 -1    0    0    0  501 -0.0000000000e+00 -0.0000000000e+00 -6.1434425785e+02 6.1434425785e+02 0.0000000000e+00 0.0000e+00 -1.0000e+00
      -13  1    1    2    0    0 +2.9773575062e+02 +2.3625880310e+02 -3.3729693920e+02 5.0816731933e+02 0.0000000000e+00 0.0000e+00 -1.0000e+00
       13  1    1    2    0    0 -2.9773575062e+02 -2.3625880310e+02 -3.1261487313e+00 3.8009810845e+02 0.0000000000e+00 0.0000e+00 1.0000e+00
<mgrwt>
<rscale>  0 0.82044353E+03</rscale>
<asrwt>0</asrwt>
<pdfrwt beam="1">  1        2 0.42141719E-01 0.82044353E+03</pdfrwt>
<pdfrwt beam="2">  1       -2 0.94514500E-01 0.82044353E+03</pdfrwt>
<totfact> 0.14313329E+02</totfact>
</mgrwt>
<rwgt>
<wgt id='morphing_basis_vector_1'> +2.3020376e-04 </wgt>
<wgt id='morphing_basis_vector_2'> +1.4365774e-04 </wgt>
<wgt id='morphing_basis_vector_3'> +2.0817001e-04 </wgt>
<wgt id='morphing_basis_vector_4'> +1.1334549e-04 </wgt>
<wgt id='morphing_basis_vector_5'> +1.8148941e-04 </wgt>
</rwgt>
</event>
<event>
 4      1 +2.9741700e-06 8.07610000e+02 7.81860800e-03 8.89278000e-02
        2 -1    0    0  501    0 +0.0000000000e+00 +0.0000000000e+00 +1.1582387069e+03 1.1582387069e+03 0.0000000000e+00 0.0000e+00 -1.0000e+00
       -2 -1    0    0    0  501 -0.0000000000e+00 -0.0000000000e+00 -1.4078141575e+02 1.4078141575e+02 0.0000000000e+00 0.0000e+00 1.0000e+00
      -13  1    1    2    0    0 -1.0148461405e+02 -2.2165751561e+02 -9.0585195902e+00 2.4395335188e+02 0.0000000000e+00 0.0000e+00 1.0000e+00
       13  1    1    2    0    0 +1.0148461405e+02 +2.2165751561e+02 +1.0265158108e+03 1.0550667708e+03 0.0000000000e+00 0.0000e+00 -1.0000e+00
<mgrwt>
<rscale>  0 0.80761002E+03</rscale>
<asrwt>0</asrwt>
<pdfrwt beam="1">  1        2 0.17819056E+00 0.80761002E+03</pdfrwt>
<pdfrwt beam="2">  1       -2 0.21658680E-01 0.80761002E+03</pdfrwt>
<totfact> 0.43485316E+02</totfact>
</mgrwt>
<rwgt>
<wgt id='morphing_basis_vector_1'> +2.1606233e-04 </wgt>
<wgt id='morphing_basis_vector_2'> +1.3058756e-04 </wgt>
<wgt id='morphing_basis_vector_3'> +1.9471456e-04 </wgt>
<wgt id='morphing_basis_vector_4'> +1.0764403e-04 </wgt>
<wgt id='morphing_basis_vector_5'> +1.6903912e-04 </wgt>
</rwgt>
</event>
<event>
 4      1 +2.9741700e-06 7.80183300e+02 7.81860800e-03 8.92744900e-02
        2 -1    0    0  501    0 +0.0000000000e+00 +0.0000000000e+00 +2.2312643311e+03 2.2312643311e+03 0.0000000000e+00 0.0000e+00 -1.0000e+00
       -2 -1    0    0    0  501 -0.0000000000e+00 -0.0000000000e+00 -6.8199676347e+01 6.8199676347e+01 0.0000000000e+00 0.0000e+00 1.0000e+00
      -13  1    1    2    0    0 +2.6262008386e+01 -3.8099810042e+02 +8.4718170296e+02 9.2928256383e+02 0.0000000000e+00 0.0000e+00 1.0000e+00
       13  1    1    2    0    0 -2.6262008386e+01 +3.8099810042e+02 +1.3158829517e+03 1.3701814436e+03 0.0000000000e+00 0.0000e+00 -1.0000e+00
<mgrwt>
<rscale>  0 0.78018333E+03</rscale>
<asrwt>0</asrwt>
<pdfrwt beam="1">  1        2 0.34327138E+00 0.78018333E+03</pdfrwt>
<pdfrwt beam="2">  1       -2 0.10492260E-01 0.78018333E+03</pdfrwt>
<totfact> 0.35698891E+02</totfact>
</mgrwt>
<rwgt>
<wgt id='morphing_basis_vector_1'> +1.9421828e-04 </wgt>
<wgt id='morphing_basis_vector_2'> +1.2403741e-04 </wgt>
<wgt id='morphing_basis_vector_3'> +1.7181568e-04 </wgt>
<wgt id='morphing_basis_vector_4'> +8.8435564e-05 </wgt>
<wgt id='morphing_basis_vector_5'> +1.4418073e-04 </wgt>
</rwgt>
</event>
<event>
 4      1 +2.9741700e-06 7.63916000e+02 7.81860800e-03 8.94873500e-02
        2 -1    0    0  501    0 +0.0000000000e+00 +0.0000000000e+00 +2.8165559044e+03 2.8165559044e+03 0.0000000000e+00 0.0000e+00 -1.0000e+00
       -2 -1    0    0    0  501 -0.0000000000e+00 -0.0000000000e+00 -5.1797985049e+01 5.1797985049e+01 0.0000000000e+00 0.0000e+00 1.0000e+00
      -13  1    1    2    0    0 -3.7039826222e+02 +8.0131909682e+01 +1.5615080379e+03 1.6068364409e+03 0.0000000000e+00 0.0000e+00 1.0000e+00
       13  1    1    2    0    0 +3.7039826222e+02 -8.0131909682e+01 +1.2032498815e+03 1.2615174486e+03 0.0000000000e+00 0.0000e+00 -1.0000e+00
<mgrwt>
<rscale>  0 0.76391602E+03</rscale>
<asrwt>0</asrwt>
<pdfrwt beam="1">  1        2 0.43331617E+00 0.76391602E+03</pdfrwt>
<pdfrwt beam="2">  1       -2 0.79689230E-02 0.76391602E+03</pdfrwt>
<totfact> 0.24894069E+02</totfact>
</mgrwt>
<rwgt>
<wgt id='morphing_basis_vector_1'> +1.8714557e-04 </wgt>
<wgt id='morphing_basis_vector_2'> +1.3559164e-04 </wgt>
<wgt id='morphing_basis_vector_3'> +1.6168488e-04 </wgt>
<wgt id='morphing_basis_vector_4'> +7.2294431e-05 </wgt>
<wgt id='morphing_basis_vector_5'> +1.3053220e-04 </wgt>
</rwgt>
</event>
<event>
 4      1 +2.9741700e-06 8.22751800e+02 7.81860800e-03 8.87425800e-02
        2 -1    0    0  501    0 +0.0000000000e+00 +0.0000000000e+00 +6.5437533861e+02 6.5437533861e+02 0.0000000000e+00 0.0000e+00 1.0000e+00
       -2 -1    0    0    0  501 -0.0000000000e+00 -0.0000000000e+00 -2.5861327043e+02 2.5861327043e+02 0.0000000000e+00 0.0000e+00 -1.0000e+00
      -13  1    1    2    0    0 -1.4333979810e+02 -1.3370615087e+02 -2.0345779944e+02 2.8252204985e+02 0.0000000000e+00 0.0000e+00 -1.0000e+00
       13  1    1    2    0    0 +1.4333979810e+02 +1.3370615087e+02 +5.9921986762e+02 6.3046655919e+02 0.0000000000e+00 0.0000e+00 1.0000e+00
<mgrwt>
<rscale>  0 0.82275184E+03</rscale>
<asrwt>0</asrwt>
<pdfrwt beam="1">  1        2 0.10067313E+00 0.82275184E+03</pdfrwt>
<pdfrwt beam="2">  1       -2 0.39786657E-01 0.82275184E+03</pdfrwt>
<totfact> 0.32102177E+02</totfact>
</mgrwt>
<rwgt>
<wgt id='morphing_basis_vector_1'> +2.3074755e-04 </wgt>
<wgt id='morphing_basis_vector_2'> +1.3975336e-04 </wgt>
<wgt id='morphing_basis_vector_3'> +2.0933606e-04 </wgt>
<wgt id='morphing_basis_vector_4'> +1.1708739e-04 </wgt>
<wgt id='morphing_basis_vector_5'> +1.8391862e-04 </wgt>
</rwgt>
</event>
<event>
 4      1 +2.9741700e-06 8.84878100e+02 7.81860800e-03 8.80244500e-02
        2 -1    0    0  501    0 +0.0000000000e+00 +0.0000000000e+00 +3.7549997991e+02 3.7549997991e+02 0.0000000000e+00 0.0000e+00 -1.0000e+00
       -2 -1    0    0    0  501 -0.0000000000e+00 -0.0000000000e+00 -5.2131110308e+02 5.2131110308e+02 0.0000000000e+00 0.0000e+00 1.0000e+00
      -13  1    1    2    0    0 +1.2846150304e+02 +3.2979977128e+01 -5.0069040757e+02 5.1795841617e+02 0.0000000000e+00 0.0000e+00 1.0000e+00
       13  1    1    2    0    0 -1.2846150304e+02 -3.2979977128e+01 +3.5487928440e+02 3.7885266681e+02 0.0000000000e+00 0.0000e+00 -1.0000e+00
<mgrwt>
<rscale>  0 0.88487809E+03</rscale>
<asrwt>0</asrwt>
<pdfrwt beam="1">  1        2 0.57769228E-01 0.88487809E+03</pdfrwt>
<pdfrwt beam="2">  1       -2 0.80201708E-01 0.88487809E+03</pdfrwt>
<totfact> 0.14615647E+02</totfact>
</mgrwt>
<rwgt>
<wgt id='morphing_basis_vector_1'> +2.9967548e-04 </wgt>
<wgt id='morphing_basis_vector_2'> +1.8375129e-04 </wgt>
<wgt id='morphing_basis_vector_3'> +2.7848187e-04 </wgt>
<wgt id='morphing_basis_vector_4'> +1.6180710e-04 </wgt>
<wgt id='morphing_basis_vector_5'> +2.5498635e-04 </wgt>
</rwgt>
</event>
<event>
 4      1 +2.9741700e-06 8.71975500e+02 7.81860800e-03 8.81683800e-02
        2 -1    0    0  501    0 +0.0000000000e+00 +0.0000000000e+00 +5.9248858637e+02 5.9248858637e+02 0.0000000000e+00 0.0000e+00 1.0000e+00
       -2 -1    0    0    0  501 -0.0000000000e+00 -0.0000000000e+00 -3.2082526103e+02 3.2082526103e+02 0.0000000000e+00 0.0000e+00 -1.0000e+00
      -13  1    1    2    0    0 -3.6173827591e+02 -4.0543618483e+01 -1.1551769270e+02 3.8189357494e+02 0.0000000000e+00 0.0000e+00 -1.0000e+00
       13  1    1    2    0    0 +3.6173827591e+02 +4.0543618483e+01 +3.8718101804e+02 5.3142027246e+02 0.0000000000e+00 0.0000e+00 1.0000e+00
<mgrwt>
<rscale>  0 0.87197547E+03</rscale>
<asrwt>0</asrwt>
<pdfrwt beam="1">  1        2 0.91152090E-01 0.87197547E+03</pdfrwt>
<pdfrwt beam="2">  1       -2 0.49357733E-01 0.87197547E+03</pdfrwt>
<totfact> 0.23901626E+02</totfact>
</mgrwt>
<rwgt>
<wgt id='morphing_basis_vector_1'> +2.8510715e-04 </wgt>
<wgt id='morphing_basis_vector_2'> +1.7662707e-04 </wgt>
<wgt id='morphing_basis_vector_3'> +2.6354492e-04 </wgt>
<wgt id='morphing_basis_vector_4'> +1.5037551e-04 </wgt>
<wgt id='morphing_basis_vector_5'> +2.3876439e-04 </wgt>
</rwgt>
</event>
<event>
 4      1 +2.9741700e-06 8.04621100e+02 7.81860800e-03 8.89648700e-02
        2 -1    0    0  501    0 +0.0000000000e+00 +0.0000000000e+00 +8.4489431243e+02 8.4489431243e+02 0.0000000000e+00 0.0000e+00 1.0000e+00
       -2 -1    0    0    0  501 -0.0000000000e+00 -0.0000000000e+00 -1.9156690924e+02 1.9156690924e+02 0.0000000000e+00 0.0000e+00 -1.0000e+00
      -13  1    1    2    0    0 -1.8446660540e+02 -1.5013722864e+02 +7.4463283005e+02 7.8169506044e+02 0.0000000000e+00 0.0000e+00 1.0000e+00
       13  1    1    2    0    0 +1.8446660540e+02 +1.5013722864e+02 -9.1305426864e+01 2.5476616123e+02 0.0000000000e+00 0.0000e+00 -1.0000e+00
<mgrwt>
<rscale>  0 0.80462113E+03</rscale>
<asrwt>0</asrwt>
<pdfrwt beam="1">  1        2 0.12998374E+00 0.80462113E+03</pdfrwt>
<pdfrwt beam="2">  1       -2 0.29471833E-01 0.80462113E+03</pdfrwt>
<totfact> 0.40136893E+02</totfact>
</mgrwt>
<rwgt>
<wgt id='morphing_basis_vector_1'> +2.8332385e-04 </wgt>
<wgt id='morphing_basis_vector_2'> +3.4334705e-04 </wgt>
<wgt id='morphing_basis_vector_3'> +2.3442606e-04 </wgt>
<wgt id='morphing_basis_vector_4'> +1.6805384e-05 </wgt>
<wgt id='morphing_basis_vector_5'> +1.6235754e-04 </wgt>
</rwgt>
</event>
<event>
 4      1 +2.9741700e-06 7.71765100e+02 7.81860800e-03 8.93839500e-02
        2 -1    0    0  501    0 +0.0000000000e+00 +0.0000000000e+00 +1.6694974545e+03 1.6694974545e+03 0.0000000000e+00 0.0000e+00 -1.0000e+00
       -2 -1    0    0    0  501 -0.0000000000e+00 -0.0000000000e+00 -8.9191716324e+01 8.9191716324e+01 0.0000000000e+00 0.0000e+00 1.0000e+00
      -13  1    1    2    0    0 -3.1782390742e+02 +2.0307120571e+02 +9.7605775075e+02 1.0463931783e+03 0.0000000000e+00 0.0000e+00 1.0000e+00
       13  1    1    2    0    0 +3.1782390742e+02 -2.0307120571e+02 +6.0424798743e+02 7.1229599256e+02 0.0000000000e+00 0.0000e+00 -1.0000e+00
<mgrwt>
<rscale>  0 0.77176510E+03</rscale>
<asrwt>0</asrwt>
<pdfrwt beam="1">  1        2 0.25684574E+00 0.77176510E+03</pdfrwt>
<pdfrwt beam="2">  1       -2 0.13721804E-01 0.77176510E+03</pdfrwt>
<totfact> 0.47660776E+02</totfact>
</mgrwt>
<rwgt>
<wgt id='morphing_basis_vector_1'> +1.9742059e-04 </wgt>
<wgt id='morphing_basis_vector_2'> +1.5130167e-04 </wgt>
<wgt id='morphing_basis_vector_3'> +1.7024550e-04 </wgt>
<wgt id='morphing_basis_vector_4'> +7.1541856e-05 </wgt>
<wgt id='morphing_basis_vector_5'> +1.3666800e-04 </wgt>
</rwgt>
</event>
<event>
 4      1 +2.9741700e-06 8.22276100e+02 7.81860800e-03 8.87483400e-02
        2 -1    0    0  501    0 +0.0000000000e+00 +0.0000000000e+00 +5.2123751477e+02 5.2123751477e+02 0.0000000000e+00 0.0000e+00 1.0000e+00
       -2 -1    0    0    0  501 -0.0000000000e+00 -0.0000000000e+00 -3.2429455315e+02 3.2429455315e+02 0.0000000000e+00 0.0000e+00 -1.0000e+00
      -13  1    1    2    0    0 -1.4431125277e+02 +3.2285051969e+02 -1.1716474789e+02 3.7253962727e+02 0.0000000000e+00 0.0000e+00 -1.0000e+00
       13  1    1    2    0    0 +1.4431125277e+02 -3.2285051969e+02 +3.1410770951e+02 4.7299244065e+02 0.0000000000e+00 0.0000e+00 1.0000e+00
<mgrwt>
<rscale>  0 0.82227608E+03</rscale>
<asrwt>0</asrwt>
<pdfrwt beam="1">  1        2 0.80190387E-01 0.82227608E+03</pdfrwt>
<pdfrwt beam="2">  1       -2 0.49891470E-01 0.82227608E+03</pdfrwt>
<totfact> 0.27229417E+02</totfact>
</mgrwt>
<rwgt>
<wgt id='morphing_basis_vector_1'> +2.3117065e-04 </wgt>
<wgt id='morphing_basis_vector_2'> +1.4219799e-04 </wgt>
<wgt id='morphing_basis_vector_3'> +2.0944065e-04 </wgt>
<wgt id='morphing_basis_vector_4'> +1.1561531e-04 </wgt>
<wgt id='morphing_basis_vector_5'> +1.8338437e-04 </wgt>
</rwgt>
</event>
<event>
 4      1 +2.9741700e-06 8.68779500e+02 7.81860800e-03 8.82044400e-02
        2 -1    0    0  501    0 +0.0000000000e+00 +0.0000000000e+00 +4.8463530156e+02 4.8463530156e+02 0.0000000000e+00 0.0000e+00 1.0000e+00
       -2 -1    0    0    0  501 -0.0000000000e+00 -0.0000000000e+00 -3.8935352859e+02 3.8935352859e+02 0.0000000000e+00 0.0000e+00 -1.0000e+00
      -13  1    1    2    0    0 -2.4522089083e+02 -3.0871259806e+02 -1.3581957661e+02 4.1699365809e+02 0.0000000000e+00 0.0000e+00 -1.0000e+00
       13  1    1    2    0    0 +2.4522089083e+02 +3.0871259806e+02 +2.3110134959e+02 4.5699517206e+02 0.0000000000e+00 0.0000e+00 1.0000e+00
<mgrwt>
<rscale>  0 0.86877952E+03</rscale>
<asrwt>0</asrwt>
<pdfrwt beam="1">  1        2 0.74559277E-01 0.86877952E+03</pdfrwt>
<pdfrwt beam="2">  1       -2 0.59900543E-01 0.86877952E+03</pdfrwt>
<totfact> 0.20476511E+02</totfact>
</mgrwt>
<rwgt>
<wgt id='morphing_basis_vector_1'> +2.8224319e-04 </wgt>
<wgt id='morphing_basis_vector_2'> +1.7690007e-04 </wgt>
<wgt id='morphing_basis_vector_3'> +2.6041660e-04 </wgt>
<wgt id='morphing_basis_vector_4'> +1.4673300e-04 </wgt>
<wgt id='morphing_basis_vector_5'> +2.3481987e-04 </wgt>
</rwgt>
</event>
<event>
 4      1 +2.9741700e-06 7.71186300e+02 7.81860800e-03 8.93915300e-02
        2 -1    0    0  501    0 +0.0000000000e+00 +0.0000000000e+00 +2.8479043655e+02 2.8479043655e+02 0.0000000000e+00 0.0000e+00 -1.0000e+00
       -2 -1    0    0    0  501 -0.0000000000e+00 -0.0000000000e+00 -5.2207540019e+02 5.2207540019e+02 0.0000000000e+00 0.0000e+00 1.0000e+00
      -13  1    1    2    0    0 +1.6470710239e+01 +1.2733436510e+02 -4.9905291172e+02 5.1530489376e+02 0.0000000000e+00 0.0000e+00 1.0000e+00
       13  1    1    2    0    0 -1.6470710239e+01 -1.2733436510e+02 +2.6176794808e+02 2.9156094298e+02 0.0000000000e+00 0.0000e+00 -1.0000e+00
<mgrwt>
<rscale>  0 0.77118631E+03</rscale>
<asrwt>0</asrwt>
<pdfrwt beam="1">  1        2 0.43813913E-01 0.77118631E+03</pdfrwt>
<pdfrwt beam="2">  1       -2 0.80319292E-01 0.77118631E+03</pdfrwt>
<totfact> 0.20008247E+02</totfact>
</mgrwt>
<rwgt>
<wgt id='morphing_basis_vector_1'> +1.8348158e-04 </wgt>
<wgt id='morphing_basis_vector_2'> +1.0971894e-04 </wgt>
<wgt id='morphing_basis_vector_3'> +1.6259127e-04 </wgt>
<wgt id='morphing_basis_vector_4'> +8.7506094e-05 </wgt>
<wgt id='morphing_basis_vector_5'> +1.3682499e-04 </wgt>
</rwgt>
</event>
<event>
 4      1 +2.9741700e-06 7.78293800e+02 7.81860800e-03 8.92989300e-02
        2 -1    0    0  501    0 +0.0000000000e+00 +0.0000000000e+00 +2.1660718686e+02 2.1660718686e+02 0.0000000000e+00 0.0000e+00 1.0000e+00
       -2 -1    0    0    0  501 -0.0000000000e+00 -0.0000000000e+00 -6.9912415581e+02 6.9912415581e+02 0.0000000000e+00 0.0000e+00 -1.0000e+00
      -13  1    1    2    0    0 -1.4406597535e+02 -2.5273219194e+02 -5.4537126537e+02 6.1810871471e+02 0.0000000000e+00 0.0000e+00 -1.0000e+00
       13  1    1    2    0    0 +1.4406597535e+02 +2.5273219194e+02 +6.2854296427e+01 2.9762262797e+02 0.0000000000e+00 0.0000e+00 1.0000e+00
<mgrwt>
<rscale>  0 0.77829382E+03</rscale>
<asrwt>0</asrwt>
<pdfrwt beam="1">  1        2 0.33324182E-01 0.77829382E+03</pdfrwt>
<pdfrwt beam="2">  1       -2 0.10755756E+00 0.77829382E+03</pdfrwt>
<totfact> 0.13713087E+02</totfact>
</mgrwt>
<rwgt>
<wgt id='morphing_basis_vector_1'> +1.8978918e-04 </wgt>
<wgt id='morphing_basis_vector_2'> +1.1441273e-04 </wgt>
<wgt id='morphing_basis_vector_3'> +1.6866466e-04 </wgt>
<wgt id='morphing_basis_vector_4'> +9.0865246e-05 </wgt>
<wgt id='morphing_basis_vector_5'> +1.4271776e-04 </wgt>
</rwgt>
</event>
<event>
 4      1 +2.9741700e-06 7.51874000e+02 7.81860800e-03 8.96485800e-02
        2 -1    0    0  501    0 +0.0000000000e+00 +0.0000000000e+00 +5.9479204498e+02 5.9479204498e+02 0.0000000000e+00 0.0000e+00 -1.0000e+00
       -2 -1    0    0    0  501 -0.0000000000e+00 -0.0000000000e+00 -2.3761015903e+02 2.3761015903e+02 0.0000000000e+00 0.0000e+00 1.0000e+00
      -13  1    1    2    0    0 -3.5315500332e+02 -1.2837357695e+02 +1.6594858092e+02 4.1077629330e+02 0.0000000000e+00 0.0000e+00 1.0000e+00
       13  1    1    2    0    0 +3.5315500332e+02 +1.2837357695e+02 +1.9123330503e+02 4.2162591071e+02 0.0000000000e+00 0.0000e+00 -1.0000e+00
<mgrwt>
<rscale>  0 0.75187401E+03</rscale>
<asrwt>0</asrwt>
<pdfrwt beam="1">  1        2 0.91506468E-01 0.75187401E+03</pdfrwt>
<pdfrwt beam="2">  1       -2 0.36555409E-01 0.75187401E+03</pdfrwt>
<totfact> 0.42161145E+02</totfact>
</mgrwt>
<rwgt>
<wgt id='morphing_basis_vector_1'> +1.7314326e-04 </wgt>
<wgt id='morphing_basis_vector_2'> +1.1603399e-04 </wgt>
<wgt id='morphing_basis_vector_3'> +1.4987794e-04 </wgt>
<wgt id='morphing_basis_vector_4'> +7.1829043e-05 </wgt>
<wgt id='morphing_basis_vector_5'> +1.2144092e-04 </wgt>
</rwgt>
</event>
<event>
 4      1 +2.9741700e-06 7.84049400e+02 7.81860800e-03 8.92247200e-02
        2 -1    0    0  501    0 +0.0000000000e+00 +0.0000000000e+00 +2.8506779533e+03 2.8506779533e+03 0.0000000000e+00 0.0000e+00 -1.0000e+00
       -2 -1    0    0    0  501 -0.0000000000e+00 -0.0000000000e+00 -5.3911160791e+01 5.3911160791e+01 0.0000000000e+00 0.0000e+00 1.0000e+00
      -13  1    1    2    0    0 +4.0099145197e+01 -3.7690010138e+02 +1.0275211446e+03 1.0951992195e+03 0.0000000000e+00 0.0000e+00 1.0000e+00
       13  1    1    2    0    0 -4.0099145197e+01 +3.7690010138e+02 +1.7692456479e+03 1.8093898946e+03 0.0000000000e+00 0.0000e+00 -1.0000e+00
<mgrwt>
<rscale>  0 0.78404938E+03</rscale>
<asrwt>0</asrwt>
<pdfrwt beam="1">  1        2 0.43856572E+00 0.78404938E+03</pdfrwt>
<pdfrwt beam="2">  1       -2 0.82940270E-02 0.78404938E+03</pdfrwt>
<totfact> 0.22237802E+02</totfact>
</mgrwt>
<rwgt>
<wgt id='morphing_basis_vector_1'> +1.9703751e-04 </wgt>
<wgt id='morphing_basis_vector_2'> +1.2450463e-04 </wgt>
<wgt id='morphing_basis_vector_3'> +1.7484827e-04 </wgt>
<wgt id='morphing_basis_vector_4'> +9.1162845e-05 </wgt>
<wgt id='morphing_basis_vector_5'> +1.4751977e-04 </wgt>
</rwgt>
</event>
<event>
 4      1 +2.9741700e-06 8.41660700e+02 7.81860800e-03 8.85171200e-02
        2 -1    0    0  501    0 +0.0000000000e+00 +0.0000000000e+00 +4.4459264437e+02 4.4459264437e+02 0.0000000000e+00 0.0000e+00 1.0000e+00
       -2 -1    0    0    0  501 -0.0000000000e+00 -0.0000000000e+00 -3.9833812637e+02 3.9833812637e+02 0.0000000000e+00 0.0000e+00 -1.0000e+00
      -13  1    1    2    0    0 -2.5295965767e+02 -2.9341487851e+02 +1.8774475214e+02 4.3049851486e+02 0.0000000000e+00 0.0000e+00 1.0000e+00
       13  1    1    2    0    0 +2.5295965767e+02 +2.9341487851e+02 -1.4149023414e+02 4.1243225589e+02 0.0000000000e+00 0.0000e+00 -1.0000e+00
<mgrwt>
<rscale>  0 0.84166074E+03</rscale>
<asrwt>0</asrwt>
<pdfrwt beam="1">  1        2 0.68398869E-01 0.84166074E+03</pdfrwt>
<pdfrwt beam="2">  1       -2 0.61282789E-01 0.84166074E+03</pdfrwt>
<totfact> 0.21581230E+02</totfact>
</mgrwt>
<rwgt>
<wgt id='morphing_basis_vector_1'> +2.8294449e-04 </wgt>
<wgt id='morphing_basis_vector_2'> +2.5200262e-04 </wgt>
<wgt id='morphing_basis_vector_3'> +2.5108017e-04 </wgt>
<wgt id='morphing_basis_vector_4'> +8.5982256e-05 </wgt>
<wgt id='morphing_basis_vector_5'> +2.0172359e-04 </wgt>
</rwgt>
</event>
<event>
 4      1 +2.9741700e-06 7.83504400e+02 7.81860800e-03 8.92317100e-02
        2 -1    0    0  501    0 +0.0000000000e+00 +0.0000000000e+00 +5.1949952070e+02 5.1949952070e+02 0.0000000000e+00 0.0000e+00 1.0000e+00
       -2 -1    0    0    0  501 -0.0000000000e+00 -0.0000000000e+00 -2.9541855715e+02 2.9541855715e+02 0.0000000000e+00 0.0000e+00 -1.0000e+00
      -13  1    1    2    0    0 -8.8467128203e+01 +3.3911486927e+02 -7.0033781989e+01 3.5739342181e+02 0.0000000000e+00 0.0000e+00 -1.0000e+00
       13  1    1    2    0    0 +8.8467128203e+01 -3.3911486927e+02 +2.9411474555e+02 4.5752465604e+02 0.0000000000e+00 0.0000e+00 1.0000e+00
<mgrwt>
<rscale>  0 0.78350443E+03</rscale>
<asrwt>0</asrwt>
<pdfrwt beam="1">  1        2 0.79923003E-01 0.78350443E+03</pdfrwt>
<pdfrwt beam="2">  1       -2 0.45449009E-01 0.78350443E+03</pdfrwt>
<totfact> 0.32797199E+02</totfact>
</mgrwt>
<rwgt>
<wgt id='morphing_basis_vector_1'> +1.9508323e-04 </wgt>
<wgt id='morphing_basis_vector_2'> +1.1967278e-04 </wgt>
<wgt id='morphing_basis_vector_3'> +1.7354750e-04 </wgt>
<wgt id='morphing_basis_vector_4'> +9.2689769e-05 </wgt>
<wgt id='morphing_basis_vector_5'> +1.4712325e-04 </wgt>
</rwgt>
</event>
<event>
 4      1 +2.9741700e-06 8.16622700e+02 7.81860800e-03 8.88170400e-02
        2 -1    0    0  501    0 +0.0000000000e+00 +0.0000000000e+00 +8.9155271007e+02 8.9155271007e+02 0.0000000000e+00 0.0000e+00 1.0000e+00
       -2 -1    0    0    0  501 -0.0000000000e+00 -0.0000000000e+00 -1.8699755646e+02 1.8699755646e+02 0.0000000000e+00 0.0000e+00 -1.0000e+00
      -13  1    1    2    0    0 -1.2450762188e+02 +1.6924080319e+02 -1.1012192095e+02 2.3721600883e+02 0.0000000000e+00 0.0000e+00 -1.0000e+00
       13  1    1    2    0    0 +1.2450762188e+02 -1.6924080319e+02 +8.1467707456e+02 8.4133425770e+02 0.0000000000e+00 0.0000e+00 1.0000e+00
<mgrwt>
<rscale>  0 0.81662275E+03</rscale>
<asrwt>0</asrwt>
<pdfrwt beam="1">  1        2 0.13716195E+00 0.81662275E+03</pdfrwt>
<pdfrwt beam="2">  1       -2 0.28768855E-01 0.81662275E+03</pdfrwt>
<totfact> 0.38976724E+02</totfact>
</mgrwt>
<rwgt>
<wgt id='morphing_basis_vector_1'> +2.2469754e-04 </wgt>
<wgt id='morphing_basis_vector_2'> +1.3593960e-04 </wgt>
<wgt id='morphing_basis_vector_3'> +2.0331132e-04 </wgt>
<wgt id='morphing_basis_vector_4'> +1.1321400e-04 </wgt>
<wgt id='morphing_basis_vector_5'> +1.7778748e-04 </wgt>
</rwgt>
</event>
<event>
 4      1 +2.9741700e-06 7.62280900e+02 7.81860800e-03 8.95090500e-02
        2 -1    0    0  501    0 +0.0000000000e+00 +0.0000000000e+00 +2.3175480869e+03 2.3175480869e+03 0.0000000000e+00 0.0000e+00 -1.0000e+00
       -2 -1    0    0    0  501 -0.0000000000e+00 -0.0000000000e+00 -6.2681785900e+01 6.2681785900e+01 0.0000000000e+00 0.0000e+00 1.0000e+00
      -13  1    1    2    0    0 +3.1412718098e+02 -1.4930271410e+02 +6.4067332165e+02 7.2899210650e+02 0.0000000000e+00 0.0000e+00 1.0000e+00
       13  1    1    2    0    0 -3.1412718098e+02 +1.4930271410e+02 +1.6141929793e+03 1.6512377663e+03 0.0000000000e+00 0.0000e+00 -1.0000e+00
<mgrwt>
<rscale>  0 0.76228093E+03</rscale>
<asrwt>0</asrwt>
<pdfrwt beam="1">  1        2 0.35654579E+00 0.76228093E+03</pdfrwt>
<pdfrwt beam="2">  1       -2 0.96433535E-02 0.76228093E+03</pdfrwt>
<totfact> 0.36482986E+02</totfact>
</mgrwt>
<rwgt>
<wgt id='morphing_basis_vector_1'> +1.7733002e-04 </wgt>
<wgt id='morphing_basis_vector_2'> +1.0870181e-04 </wgt>
<wgt id='morphing_basis_vector_3'> +1.5600789e-04 </wgt>
<wgt id='morphing_basis_vector_4'> +8.1611600e-05 </wgt>
<wgt id='morphing_basis_vector_5'> +1.2962148e-04 </wgt>
</rwgt>
</event>
<event>
 4      1 +2.9741700e-06 8.00395000e+02 7.81860800e-03 8.90175700e-02
        2 -1    0    0  501    0 +0.0000000000e+00 +0.0000000000e+00 +2.1146317861e+02 2.1146317861e+02 0.0000000000e+00 0.0000e+00 1.0000e+00
       -2 -1    0    0    0  501 -0.0000000000e+00 -0.0000000000e+00 -7.5738032797e+02 7.5738032797e+02 0.0000000000e+00 0.0000e+00 -1.0000e+00
      -13  1    1    2    0    0 -3.9438024795e+02 -1.1242620681e+01 -1.9179589701e+02 4.3868877647e+02 0.0000000000e+00 0.0000e+00 -1.0000e+00
       13  1    1    2    0    0 +3.9438024795e+02 +1.1242620681e+01 -3.5412125235e+02 5.3015473011e+02 0.0000000000e+00 0.0000e+00 1.0000e+00
<mgrwt>
<rscale>  0 0.80039503E+03</rscale>
<asrwt>0</asrwt>
<pdfrwt beam="1">  1        2 0.32532796E-01 0.80039503E+03</pdfrwt>
<pdfrwt beam="2">  1       -2 0.11652005E+00 0.80039503E+03</pdfrwt>
<totfact> 0.11506116E+02</totfact>
</mgrwt>
<rwgt>
<wgt id='morphing_basis_vector_1'> +2.2243154e-04 </wgt>
<wgt id='morphing_basis_vector_2'> +1.6651592e-04 </wgt>
<wgt id='morphing_basis_vector_3'> +1.9585730e-04 </wgt>
<wgt id='morphing_basis_vector_4'> +8.6794235e-05 </wgt>
<wgt id='morphing_basis_vector_5'> +1.6155630e-04 </wgt>
</rwgt>
</event>
<event>
 4      1 +2.9741700e-06 8.48473800e+02 7.81860800e-03 8.84374100e-02
        2 -1    0    0  501    0 +0.0000000000e+00 +0.0000000000e+00 +6.5578241100e+02 6.5578241100e+02 0.0000000000e+00 0.0000e+00 -1.0000e+00
       -2 -1    0    0    0  501 -0.0000000000e+00 -0.0000000000e+00 -2.7444616058e+02 2.7444616058e+02 0.0000000000e+00 0.0000e+00 1.0000e+00
      -13  1    1    2    0    0 -4.1009154971e+02 -1.0161228074e+02 +1.4853569696e+02 4.4784259290e+02 0.0000000000e+00 0.0000e+00 1.0000e+00
       13  1    1    2    0    0 +4.1009154971e+02 +1.0161228074e+02 +2.3280055345e+02 4.8238597868e+02 0.0000000000e+00 0.0000e+00 -1.0000e+00
<mgrwt>
<rscale>  0 0.84847384E+03</rscale>
<asrwt>0</asrwt>
<pdfrwt beam="1">  1        2 0.10088960E+00 0.84847384E+03</pdfrwt>
<pdfrwt beam="2">  1       -2 0.42222486E-01 0.84847384E+03</pdfrwt>
<totfact> 0.28614051E+02</totfact>
</mgrwt>
<rwgt>
<wgt id='morphing_basis_vector_1'> +2.6409170e-04 </wgt>
<wgt id='morphing_basis_vector_2'> +1.7668452e-04 </wgt>
<wgt id='morphing_basis_vector_3'> +2.4066487e-04 </wgt>
<wgt id='morphing_basis_vector_4'> +1.2558844e-04 </wgt>
<wgt id='morphing_basis_vector_5'> +2.1089850e-04 </wgt>
</rwgt>
</event>
<event>
 4      1 +2.9741700e-06 8.22144600e+02 7.81860800e-03 8.87499300e-02
        2 -1    0    0  501    0 +0.0000000000e+00 +0.0000000000e+00 +3.6765502689e+02 3.6765502689e+02 0.0000000000e+00 0.0000e+00 -1.0000e+00
       -2 -1    0    0    0  501 -0.0000000000e+00 -0.0000000000e+00 -4.5961686304e+02 4.5961686304e+02 0.0000000000e+00 0.0000e+00 1.0000e+00
      -13  1    1    2    0    0 +1.8977226015e+02 +1.9169462752e+02 -3.5810908606e+02 4.4833297721e+02 0.0000000000e+00 0.0000e+00 1.0000e+00
       13  1    1    2    0    0 -1.8977226015e+02 -1.9169462752e+02 +2.6614724991e+02 3.7893891272e+02 0.0000000000e+00 0.0000e+00 -1.0000e+00
<mgrwt>
<rscale>  0 0.82214463E+03</rscale>
<asrwt>0</asrwt>
<pdfrwt beam="1">  1        2 0.56562312E-01 0.82214463E+03</pdfrwt>
<pdfrwt beam="2">  1       -2 0.70710287E-01 0.82214463E+03</pdfrwt>
<totfact> 0.19828120E+02</totfact>
</mgrwt>
<rwgt>
<wgt id='morphing_basis_vector_1'> +2.3027925e-04 </wgt>
<wgt id='morphing_basis_vector_2'> +1.3978981e-04 </wgt>
<wgt id='morphing_basis_vector_3'> +2.0882107e-04 </wgt>
<wgt id='morphing_basis_vector_4'> +1.1652151e-04 </wgt>
<wgt id='morphing_basis_vector_5'> +1.8329645e-04 </wgt>
</rwgt>
</event>
<event>
 4      1 +2.9741700e-06 7.82149900e+02 7.81860800e-03 8.92491300e-02
        2 -1    0    0  501    0 +0.0000000000e+00 +0.0000000000e+00 +3.7125653754e+02 3.7125653754e+02 0.0000000000e+00 0.0000e+00 -1.0000e+00
       -2 -1    0    0    0  501 -0.0000000000e+00 -0.0000000000e+00 -4.1195127728e+02 4.1195127728e+02 0.0000000000e+00 0.0000e+00 1.0000e+00
      -13  1    1    2    0    0 +1.9202175014e+02 -1.0562985168e+02 -3.4468297145e+02 4.0845607952e+02 0.0000000000e+00 0.0000e+00 1.0000e+00
       13  1    1    2    0    0 -1.9202175014e+02 +1.0562985168e+02 +3.0398823171e+02 3.7475173530e+02 0.0000000000e+00 0.0000e+00 -1.0000e+00
<mgrwt>
<rscale>  0 0.78214987E+03</rscale>
<asrwt>0</asrwt>
<pdfrwt beam="1">  1        2 0.57116390E-01 0.78214987E+03</pdfrwt>
<pdfrwt beam="2">  1       -2 0.63377120E-01 0.78214987E+03</pdfrwt>
<totfact> 0.24756534E+02</totfact>
</mgrwt>
<rwgt>
<wgt id='morphing_basis_vector_1'> +1.9288456e-04 </wgt>
<wgt id='morphing_basis_vector_2'> +1.1580341e-04 </wgt>
<wgt id='morphing_basis_vector_3'> +1.7181395e-04 </wgt>
<wgt id='morphing_basis_vector_4'> +9.3211906e-05 </wgt>
<wgt id='morphing_basis_vector_5'> +1.4600910e-04 </wgt>
</rwgt>
</event>
<event>
 4      1 +2.9741700e-06 8.44911700e+02 7.81860800e-03 8.84789800e-02
        2 -1    0    0  501    0 +0.0000000000e+00 +0.0000000000e+00 +1.1779532463e+03 1.1779532463e+03 0.0000000000e+00 0.0000e+00 1.0000e+00
       -2 -1    0    0    0  501 -0.0000000000e+00 -0.0000000000e+00 -1.5150767472e+02 1.5150767472e+02 0.0000000000e+00 0.0000e+00 -1.0000e+00
      -13  1    1    2    0    0 -2.9311346837e+02 -1.6056207435e+02 +1.0662447802e+02 3.5080545089e+02 0.0000000000e+00 0.0000e+00 -1.0000e+00
       13  1    1    2    0    0 +2.9311346837e+02 +1.6056207435e+02 +9.1982109359e+02 9.7865547016e+02 0.0000000000e+00 0.0000e+00 1.0000e+00
<mgrwt>
<rscale>  0 0.84491173E+03</rscale>
<asrwt>0</asrwt>
<pdfrwt beam="1">  1        2 0.18122357E+00 0.84491173E+03</pdfrwt>
<pdfrwt beam="2">  1       -2 0.23308874E-01 0.84491173E+03</pdfrwt>
<totfact> 0.37330127E+02</totfact>
</mgrwt>
<rwgt>
<wgt id='morphing_basis_vector_1'> +2.5428231e-04 </wgt>
<wgt id='morphing_basis_vector_2'> +1.5605089e-04 </wgt>
<wgt id='morphing_basis_vector_3'> +2.3266622e-04 </wgt>
<wgt id='morphing_basis_vector_4'> +1.3110830e-04 </wgt>
<wgt id='morphing_basis_vector_5'> +2.0732489e-04 </wgt>
</rwgt>
</event>
<event>
 4      1 +2.9741700e-06 8.45744000e+02 7.81860800e-03 8.84692500e-02
        2 -1    0    0  501    0 +0.0000000000e+00 +0.0000000000e+00 +9.8921981899e+02 9.8921981899e+02 0.0000000000e+00 0.0000e+00 1.0000e+00
       -2 -1    0    0    0  501 -0.0000000000e+00 -0.0000000000e+00 -1.8076945380e+02 1.8076945380e+02 0.0000000000e+00 0.0000e+00 -1.0000e+00
      -13  1    1    2    0    0 +2.9647737009e+02 +1.4172274169e+02 +3.6035437882e+01 3.3057936909e+02 0.0000000000e+00 0.0000e+00 -1.0000e+00
       13  1    1    2    0    0 -2.9647737009e+02 -1.4172274169e+02 +7.7241492731e+02 8.3940990369e+02 0.0000000000e+00 0.0000e+00 1.0000e+00
<mgrwt>
<rscale>  0 0.84574400E+03</rscale>
<asrwt>0</asrwt>
<pdfrwt beam="1">  1        2 0.15218766E+00 0.84574400E+03</pdfrwt>
<pdfrwt beam="2">  1       -2 0.27810686E-01 0.84574400E+03</pdfrwt>
<totfact> 0.35774239E+02</totfact>
</mgrwt>
<rwgt>
<wgt id='morphing_basis_vector_1'> +2.5511944e-04 </wgt>
<wgt id='morphing_basis_vector_2'> +1.5644009e-04 </wgt>
<wgt id='morphing_basis_vector_3'> +2.3352382e-04 </wgt>
<wgt id='morphing_basis_vector_4'> +1.3176683e-04 </wgt>
<wgt id='morphing_basis_vector_5'> +2.0824893e-04 </wgt>
</rwgt>
</event>
<event>
 4      1 +2.9741700e-06 7.63040800e+02 7.81860800e-03 8.94989600e-02
        2 -1    0    0  501    0 +0.0000000000e+00 +0.0000000000e+00 +8.5886262620e+01 8.5886262620e+01 0.0000000000e+00 0.0000e+00 1.0000e+00
       -2 -1    0    0    0  501 -0.0000000000e+00 -0.0000000000e+00 -1.6947739102e+03 1.6947739102e+03 0.0000000000e+00 0.0000e+00 -1.0000e+00
      -13  1    1    2    0    0 -1.3787108482e+02 +2.3114758757e+02 -1.4354765176e+03 1.4604898068e+03 0.0000000000e+00 0.0000e+00 -1.0000e+00
       13  1    1    2    0    0 +1.3787108482e+02 -2.3114758757e+02 -1.7341113002e+02 3.2017036603e+02 0.0000000000e+00 0.0000e+00 1.0000e+00
<mgrwt>
<rscale>  0 0.76304075E+03</rscale>
<asrwt>0</asrwt>
<pdfrwt beam="1">  1        2 0.13213272E-01 0.76304075E+03</pdfrwt>
<pdfrwt beam="2">  1       -2 0.26073443E+00 0.76304075E+03</pdfrwt>
<totfact> 0.26634429E+01</totfact>
</mgrwt>
<rwgt>
<wgt id='morphing_basis_vector_1'> +1.7696528e-04 </wgt>
<wgt id='morphing_basis_vector_2'> +1.0607966e-04 </wgt>
<wgt id='morphing_basis_vector_3'> +1.5611017e-04 </wgt>
<wgt id='morphing_basis_vector_4'> +8.3155016e-05 </wgt>
<wgt id='morphing_basis_vector_5'> +1.3026454e-04 </wgt>
</rwgt>
</event>
<event>
 4      1 +2.9741700e-06 8.72473000e+02 7.81860800e-03 8.81627900e-02
        2 -1    0    0  501    0 +0.0000000000e+00 +0.0000000000e+00 +1.2788091577e+03 1.2788091577e+03 0.0000000000e+00 0.0000e+00 1.0000e+00
       -2 -1    0    0    0  501 -0.0000000000e+00 -0.0000000000e+00 -1.4881209911e+02 1.4881209911e+02 0.0000000000e+00 0.0000e+00 -1.0000e+00
      -13  1    1    2    0    0 +3.2605854804e+01 +2.6117394848e+02 -4.2510205780e+00 2.6323572004e+02 0.0000000000e+00 0.0000e+00 -1.0000e+00
       13  1    1    2    0    0 -3.2605854804e+01 -2.6117394848e+02 +1.1342480792e+03 1.1643855368e+03 0.0000000000e+00 0.0000e+00 1.0000e+00
<mgrwt>
<rscale>  0 0.87247298E+03</rscale>
<asrwt>0</asrwt>
<pdfrwt beam="1">  1        2 0.19673986E+00 0.87247298E+03</pdfrwt>
<pdfrwt beam="2">  1       -2 0.22894170E-01 0.87247298E+03</pdfrwt>
<totfact> 0.33607078E+02</totfact>
</mgrwt>
<rwgt>
<wgt id='morphing_basis_vector_1'> +2.8490521e-04 </wgt>
<wgt id='morphing_basis_vector_2'> +1.7460161e-04 </wgt>
<wgt id='morphing_basis_vector_3'> +2.6355407e-04 </wgt>
<wgt id='morphing_basis_vector_4'> +1.5184614e-04 </wgt>
<wgt id='morphing_basis_vector_5'> +2.3942811e-04 </wgt>
</rwgt>
</event>
<event>
 4      1 +2.9741700e-06 7.74980900e+02 7.81860800e-03 8.93419600e-02
        2 -1    0    0  501    0 +0.0000000000e+00 +0.0000000000e+00 +9.6070727387e+02 9.6070727387e+02 0.0000000000e+00 0.0000e+00 1.0000e+00
       -2 -1    0    0    0  501 -0.0000000000e+00 -0.0000000000e+00 -1.5628989833e+02 1.5628989833e+02 0.0000000000e+00 0.0000e+00 -1.0000e+00
      -13  1    1    2    0    0 -3.3698547057e+02 -1.0568058099e+02 +6.3201371834e+02 7.2399511928e+02 0.0000000000e+00 0.0000e+00 -1.0000e+00
       13  1    1    2    0    0 +3.3698547057e+02 +1.0568058099e+02 +1.7240365720e+02 3.9300205291e+02 0.0000000000e+00 0.0000e+00 1.0000e+00
<mgrwt>
<rscale>  0 0.77498088E+03</rscale>
<asrwt>0</asrwt>
<pdfrwt beam="1">  1        2 0.14780111E+00 0.77498088E+03</pdfrwt>
<pdfrwt beam="2">  1       -2 0.24044600E-01 0.77498088E+03</pdfrwt>
<totfact> 0.48070274E+02</totfact>
</mgrwt>
<rwgt>
<wgt id='morphing_basis_vector_1'> +2.1250867e-04 </wgt>
<wgt id='morphing_basis_vector_2'> +1.9097332e-04 </wgt>
<wgt id='morphing_basis_vector_3'> +1.7970424e-04 </wgt>
<wgt id='morphing_basis_vector_4'> +5.8086750e-05 </wgt>
<wgt id='morphing_basis_vector_5'> +1.3872313e-04 </wgt>
</rwgt>
</event>
<event>
 4      1 +2.9741700e-06 7.85971400e+02 7.81860800e-03 8.92000800e-02
        2 -1    0    0  501    0 +0.0000000000e+00 +0.0000000000e+00 +2.6520017914e+02 2.6520017914e+02 0.0000000000e+00 0.0000e+00 1.0000e+00
       -2 -1    0    0    0  501 -0.0000000000e+00 -0.0000000000e+00 -5.8234413218e+02 5.8234413218e+02 0.0000000000e+00 0.0000e+00 -1.0000e+00
      -13  1    1    2    0    0 -3.1307019633e+02 -2.3749319477e+02 -1.5353683580e+02 4.2188804835e+02 0.0000000000e+00 0.0000e+00 -1.0000e+00
       13  1    1    2    0    0 +3.1307019633e+02 +2.3749319477e+02 -1.6360711724e+02 4.2565626297e+02 0.0000000000e+00 0.0000e+00 1.0000e+00
<mgrwt>
<rscale>  0 0.78597142E+03</rscale>
<asrwt>0</asrwt>
<pdfrwt beam="1">  1        2 0.40800028E-01 0.78597142E+03</pdfrwt>
<pdfrwt beam="2">  1       -2 0.89591404E-01 0.78597142E+03</pdfrwt>
<totfact> 0.16861322E+02</totfact>
</mgrwt>
<rwgt>
<wgt id='morphing_basis_vector_1'> +2.0335343e-04 </wgt>
<wgt id='morphing_basis_vector_2'> +1.3975847e-04 </wgt>
<wgt id='morphing_basis_vector_3'> +1.7914209e-04 </wgt>
<wgt id='morphing_basis_vector_4'> +8.6480458e-05 </wgt>
<wgt id='morphing_basis_vector_5'> +1.4895322e-04 </wgt>
</rwgt>
</event>
<event>
 4      1 +2.9741700e-06 7.59714500e+02 7.81860800e-03 8.95432400e-02
        2 -1    0    0  501    0 +0.0000000000e+00 +0.0000000000e+00 +7.0138251010e+02 7.0138251010e+02 0.0000000000e+00 0.0000e+00 1.0000e+00
       -2 -1    0    0    0  501 -0.0000000000e+00 -0.0000000000e+00 -2.0572446882e+02 2.0572446882e+02 0.0000000000e+00 0.0000e+00 -1.0000e+00
      -13  1    1    2    0    0 -2.8601599304e+02 +1.0985236909e+02 +5.1593379803e+02 6.0005031057e+02 0.0000000000e+00 0.0000e+00 1.0000e+00
       13  1    1    2    0    0 +2.8601599304e+02 -1.0985236909e+02 -2.0275756751e+01 3.0705666835e+02 0.0000000000e+00 0.0000e+00 -1.0000e+00
<mgrwt>
<rscale>  0 0.75971454E+03</rscale>
<asrwt>0</asrwt>
<pdfrwt beam="1">  1        2 0.10790500E+00 0.75971454E+03</pdfrwt>
<pdfrwt beam="2">  1       -2 0.31649919E-01 0.75971454E+03</pdfrwt>
<totfact> 0.44854230E+02</totfact>
</mgrwt>
<rwgt>
<wgt id='morphing_basis_vector_1'> +2.1319101e-04 </wgt>
<wgt id='morphing_basis_vector_2'> +2.2385130e-04 </wgt>
<wgt id='morphing_basis_vector_3'> +1.7313194e-04 </wgt>
<wgt id='morphing_basis_vector_4'> +3.5428359e-05 </wgt>
<wgt id='morphing_basis_vector_5'> +1.2594972e-04 </wgt>
</rwgt>
</event>
<event>
 4      1 +2.9741700e-06 7.67899100e+02 7.81860800e-03 8.94347100e-02
        2 -1    0    0  501    0 +0.0000000000e+00 +0.0000000000e+00 +3.6471457673e+02 3.6471457673e+02 0.0000000000e+00 0.0000e+00 1.0000e+00
       -2 -1    0    0    0  501 -0.0000000000e+00 -0.0000000000e+00 -4.0419900780e+02 4.0419900780e+02 0.0000000000e+00 0.0000e+00 -1.0000e+00
      -13  1    1    2    0    0 +2.5282683589e+02 -2.3155551043e+02 -1.9282283430e+02 3.9334464377e+02 0.0000000000e+00 0.0000e+00 -1.0000e+00
       13  1    1    2    0    0 -2.5282683589e+02 +2.3155551043e+02 +1.5333840323e+02 3.7556894076e+02 0.0000000000e+00 0.0000e+00 1.0000e+00
<mgrwt>
<rscale>  0 0.76789913E+03</rscale>
<asrwt>0</asrwt>
<pdfrwt beam="1">  1        2 0.56109935E-01 0.76789913E+03</pdfrwt>
<pdfrwt beam="2">  1       -2 0.62184463E-01 0.76789913E+03</pdfrwt>
<totfact> 0.26288077E+02</totfact>
</mgrwt>
<rwgt>
<wgt id='morphing_basis_vector_1'> +1.8173692e-04 </wgt>
<wgt id='morphing_basis_vector_2'> +1.1102285e-04 </wgt>
<wgt id='morphing_basis_vector_3'> +1.6042819e-04 </wgt>
<wgt id='morphing_basis_vector_4'> +8.4640738e-05 </wgt>
<wgt id='morphing_basis_vector_5'> +1.3410792e-04 </wgt>
</rwgt>
</event>
<event>
 4      1 +2.9741700e-06 7.63332600e+02 7.81860800e-03 8.94950900e-02
        2 -1    0    0  501    0 +0.0000000000e+00 +0.0000000000e+00 +9.8385322993e+02 9.8385322993e+02 0.0000000000e+00 0.0000e+00 -1.0000e+00
       -2 -1    0    0    0  501 -0.0000000000e+00 -0.0000000000e+00 -1.4805985909e+02 1.4805985909e+02 0.0000000000e+00 0.0000e+00 1.0000e+00
      -13  1    1    2    0    0 -9.9736778616e+01 -1.7812734323e+02 -6.0292833737e+01 2.1286615798e+02 0.0000000000e+00 0.0000e+00 1.0000e+00
       13  1    1    2    0    0 +9.9736778616e+01 +1.7812734323e+02 +8.9608620458e+02 9.1904693104e+02 0.0000000000e+00 0.0000e+00 -1.0000e+00
<mgrwt>
<rscale>  0 0.76333262E+03</rscale>
<asrwt>0</asrwt>
<pdfrwt beam="1">  1        2 0.15136203E+00 0.76333262E+03</pdfrwt>
<pdfrwt beam="2">  1       -2 0.22778440E-01 0.76333262E+03</pdfrwt>
<totfact> 0.50988087E+02</totfact>
</mgrwt>
<rwgt>
<wgt id='morphing_basis_vector_1'> +1.7705231e-04 </wgt>
<wgt id='morphing_basis_vector_2'> +1.0576861e-04 </wgt>
<wgt id='morphing_basis_vector_3'> +1.5626544e-04 </wgt>
<wgt id='morphing_basis_vector_4'> +8.3478847e-05 </wgt>
<wgt id='morphing_basis_vector_5'> +1.3050204e-04 </wgt>
</rwgt>
</event>
<event>
 4      1 +2.9741700e-06 7.93281500e+02 7.81860800e-03 8.91070700e-02
        2 -1    0    0  501    0 +0.0000000000e+00 +0.0000000000e+00 +1.8148441678e+03 1.8148441678e+03 0.0000000000e+00 0.0000e+00 -1.0000e+00
       -2 -1    0    0    0  501 -0.0000000000e+00 -0.0000000000e+00 -8.6687275286e+01 8.6687275286e+01 0.0000000000e+00 0.0000e+00 1.0000e+00
      -13  1    1    2    0    0 +3.0881690505e+02 +1.9890677359e+02 +5.0538479993e+02 6.2477642515e+02 0.0000000000e+00 0.0000e+00 1.0000e+00
       13  1    1    2    0    0 -3.0881690505e+02 -1.9890677359e+02 +1.2227720926e+03 1.2767550180e+03 0.0000000000e+00 0.0000e+00 -1.0000e+00
<mgrwt>
<rscale>  0 0.79328153E+03</rscale>
<asrwt>0</asrwt>
<pdfrwt beam="1">  1        2 0.27920677E+00 0.79328153E+03</pdfrwt>
<pdfrwt beam="2">  1       -2 0.13336505E-01 0.79328153E+03</pdfrwt>
<totfact> 0.41468816E+02</totfact>
</mgrwt>
<rwgt>
<wgt id='morphing_basis_vector_1'> +2.0426000e-04 </wgt>
<wgt id='morphing_basis_vector_2'> +1.2667614e-04 </wgt>
<wgt id='morphing_basis_vector_3'> +1.8242707e-04 </wgt>
<wgt id='morphing_basis_vector_4'> +9.7468283e-05 </wgt>
<wgt id='morphing_basis_vector_5'> +1.5570252e-04 </wgt>
</rwgt>
</event>
<event>
 4      1 +2.9741700e-06 8.49452700e+02 7.81860800e-03 8.84260200e-02
        2 -1    0    0  501    0 +0.0000000000e+00 +0.0000000000e+00 +1.4565868734e+03 1.4565868734e+03 0.0000000000e+00 0.0000e+00 1.0000e+00
       -2 -1    0    0    0  501 -0.0000000000e+00 -0.0000000000e+00 -1.2384599693e+02 1.2384599693e+02 0.0000000000e+00 0.0000e+00 -1.0000e+00
      -13  1    1    2    0    0 +2.1608333346e+01 -2.7096807651e+02 +5.9193286605e+01 2.7819860484e+02 0.0000000000e+00 0.0000e+00 -1.0000e+00
       13  1    1    2    0    0 -2.1608333346e+01 +2.7096807651e+02 +1.2735475898e+03 1.3022342654e+03 0.0000000000e+00 0.0000e+00 1.0000e+00
<mgrwt>
<rscale>  0 0.84945266E+03</rscale>
<asrwt>0</asrwt>
<pdfrwt beam="1">  1        2 0.22409028E+00 0.84945266E+03</pdfrwt>
<pdfrwt beam="2">  1       -2 0.19053231E-01 0.84945266E+03</pdfrwt>
<totfact> 0.36374625E+02</totfact>
</mgrwt>
<rwgt>
<wgt id='morphing_basis_vector_1'> +2.5880873e-04 </wgt>
<wgt id='morphing_basis_vector_2'> +1.5797753e-04 </wgt>
<wgt id='morphing_basis_vector_3'> +2.3732571e-04 </wgt>
<wgt id='morphing_basis_vector_4'> +1.3482161e-04 </wgt>
<wgt id='morphing_basis_vector_5'> +2.1240735e-04 </wgt>
</rwgt>
</event>
<event>
 4      1 +2.9741700e-06 7.50547500e+02 7.81860800e-03 8.96665400e-02
        2 -1    0    0  501    0 +0.0000000000e+00 +0.0000000000e+00 +1.1281716385e+02 1.1281716385e+02 0.0000000000e+00 0.0000e+00 -1.0000e+00
       -2 -1    0    0    0  501 -0.0000000000e+00 -0.0000000000e+00 -1.2483062333e+03 1.2483062333e+03 0.0000000000e+00 0.0000e+00 1.0000e+00
      -13  1    1    2    0    0 -2.0805513182e+02 -3.0033220321e+02 -7.2315692526e+02 8.1021127412e+02 0.0000000000e+00 0.0000e+00 1.0000e+00
       13  1    1    2    0    0 +2.0805513182e+02 +3.0033220321e+02 -4.1233214416e+02 5.5091212300e+02 0.0000000000e+00 0.0000e+00 -1.0000e+00
<mgrwt>
<rscale>  0 0.75054745E+03</rscale>
<asrwt>0</asrwt>
<pdfrwt beam="1">  1        2 0.17356486E-01 0.75054745E+03</pdfrwt>
<pdfrwt beam="2">  1       -2 0.19204712E+00 0.75054745E+03</pdfrwt>
<totfact> 0.57901056E+01</totfact>
</mgrwt>
<rwgt>
<wgt id='morphing_basis_vector_1'> +1.6929863e-04 </wgt>
<wgt id='morphing_basis_vector_2'> +1.0674441e-04 </wgt>
<wgt id='morphing_basis_vector_3'> +1.4749617e-04 </wgt>
<wgt id='morphing_basis_vector_4'> +7.4496086e-05 </wgt>
<wgt id='morphing_basis_vector_5'> +1.2056395e-04 </wgt>
</rwgt>
</event>
<event>
 4      1 +2.9741700e-06 8.38176600e+02 7.81860800e-03 8.85581900e-02
        2 -1    0    0  501    0 +0.0000000000e+00 +0.0000000000e+00 +2.3273891222e+03 2.3273891222e+03 0.0000000000e+00 0.0000e+00 -1.0000e+00
       -2 -1    0    0    0  501 -0.0000000000e+00 -0.0000000000e+00 -7.5464393492e+01 7.5464393492e+01 0.0000000000e+00 0.0000e+00 1.0000e+00
      -13  1    1    2    0    0 +2.4937808386e+02 -3.2739743167e+02 +8.9920701794e+02 9.8891443921e+02 0.0000000000e+00 0.0000e+00 1.0000e+00
       13  1    1    2    0    0 -2.4937808386e+02 +3.2739743167e+02 +1.3527177108e+03 1.4139390765e+03 0.0000000000e+00 0.0000e+00 -1.0000e+00
<mgrwt>
<rscale>  0 0.83817661E+03</rscale>
<asrwt>0</asrwt>
<pdfrwt beam="1">  1        2 0.35805981E+00 0.83817661E+03</pdfrwt>
<pdfrwt beam="2">  1       -2 0.11609908E-01 0.83817661E+03</pdfrwt>
<totfact> 0.26691124E+02</totfact>
</mgrwt>
<rwgt>
<wgt id='morphing_basis_vector_1'> +2.5081511e-04 </wgt>
<wgt id='morphing_basis_vector_2'> +1.6278964e-04 </wgt>
<wgt id='morphing_basis_vector_3'> +2.2798581e-04 </wgt>
<wgt id='morphing_basis_vector_4'> +1.2157895e-04 </wgt>
<wgt id='morphing_basis_vector_5'> +1.9975430e-04 </wgt>
</rwgt>
</event>
<event>
 4      1 +2.9741700e-06 7.69677000e+02 7.81860800e-03 8.94113300e-02
        2 -1    0    0  501    0 +0.0000000000e+00 +0.0000000000e+00 +1.8083431281e+03 1.8083431281e+03 0.0000000000e+00 0.0000e+00 -1.0000e+00
       -2 -1    0    0    0  501 -0.0000000000e+00 -0.0000000000e+00 -8.1898535368e+01 8.1898535368e+01 0.0000000000e+00 0.0000e+00 1.0000e+00
      -13  1    1    2    0    0 -3.0365607743e+02 -2.3250618673e+02 +7.5803354670e+02 8.4904711186e+02 0.0000000000e+00 0.0000e+00 1.0000e+00
       13  1    1    2    0    0 +3.0365607743e+02 +2.3250618673e+02 +9.6841104601e+02 1.0411945516e+03 0.0000000000e+00 0.0000e+00 -1.0000e+00
<mgrwt>
<rscale>  0 0.76967695E+03</rscale>
<asrwt>0</asrwt>
<pdfrwt beam="1">  1        2 0.27820661E+00 0.76967695E+03</pdfrwt>
<pdfrwt beam="2">  1       -2 0.12599776E-01 0.76967695E+03</pdfrwt>
<totfact> 0.45872765E+02</totfact>
</mgrwt>
<rwgt>
<wgt id='morphing_basis_vector_1'> +1.8644978e-04 </wgt>
<wgt id='morphing_basis_vector_2'> +1.2189222e-04 </wgt>
<wgt id='morphing_basis_vector_3'> +1.6359054e-04 </wgt>
<wgt id='morphing_basis_vector_4'> +8.1640792e-05 </wgt>
<wgt id='morphing_basis_vector_5'> +1.3539746e-04 </wgt>
</rwgt>
</event>
<event>
 4      1 +2.9741700e-06 7.71549300e+02 7.81860800e-03 8.93867700e-02
        2 -1    0    0  501    0 +0.0000000000e+00 +0.0000000000e+00 +3.0366226038e+02 3.0366226038e+02 0.0000000000e+00 0.0000e+00 -1.0000e+00
       -2 -1    0    0    0  501 -0.0000000000e+00 -0.0000000000e+00 -4.9009085987e+02 4.9009085987e+02 0.0000000000e+00 0.0000e+00 1.0000e+00
      -13  1    1    2    0    0 -3.5983992942e+02 +1.3867685454e+02 -1.0380889230e+02 3.9936490946e+02 0.0000000000e+00 0.0000e+00 1.0000e+00
       13  1    1    2    0    0 +3.5983992942e+02 -1.3867685454e+02 -8.2619707199e+01 3.9438821079e+02 0.0000000000e+00 0.0000e+00 -1.0000e+00
<mgrwt>
<rscale>  0 0.77154935E+03</rscale>
<asrwt>0</asrwt>
<pdfrwt beam="1">  1        2 0.46717271E-01 0.77154935E+03</pdfrwt>
<pdfrwt beam="2">  1       -2 0.75398594E-01 0.77154935E+03</pdfrwt>
<totfact> 0.21438292E+02</totfact>
</mgrwt>
<rwgt>
<wgt id='morphing_basis_vector_1'> +1.8962769e-04 </wgt>
<wgt id='morphing_basis_vector_2'> +1.2783468e-04 </wgt>
<wgt id='morphing_basis_vector_3'> +1.6600370e-04 </wgt>
<wgt id='morphing_basis_vector_4'> +8.0633891e-05 </wgt>
<wgt id='morphing_basis_vector_5'> +1.3684855e-04 </wgt>
</rwgt>
</event>
<event>
 4      1 +2.9741700e-06 7.95282700e+02 7.81860800e-03 8.90817900e-02
        2 -1    0    0  501    0 +0.0000000000e+00 +0.0000000000e+00 +9.8112377998e+02 9.8112377998e+02 0.0000000000e+00 0.0000e+00 -1.0000e+00
       -2 -1    0    0    0  501 -0.0000000000e+00 -0.0000000000e+00 -1.6116076095e+02 1.6116076095e+02 0.0000000000e+00 0.0000e+00 1.0000e+00
      -13  1    1    2    0    0 -3.0284124271e+02 +2.4937148549e+02 +3.1667896673e+02 5.0416715882e+02 0.0000000000e+00 0.0000e+00 1.0000e+00
       13  1    1    2    0    0 +3.0284124271e+02 -2.4937148549e+02 +5.0328405230e+02 6.3811738212e+02 0.0000000000e+00 0.0000e+00 -1.0000e+00
<mgrwt>
<rscale>  0 0.79528273E+03</rscale>
<asrwt>0</asrwt>
<pdfrwt beam="1">  1        2 0.15094212E+00 0.79528273E+03</pdfrwt>
<pdfrwt beam="2">  1       -2 0.24793964E-01 0.79528273E+03</pdfrwt>
<totfact> 0.44248194E+02</totfact>
</mgrwt>
<rwgt>
<wgt id='morphing_basis_vector_1'> +2.0839724e-04 </wgt>
<wgt id='morphing_basis_vector_2'> +1.3494020e-04 </wgt>
<wgt id='morphing_basis_vector_3'> +1.8558957e-04 </wgt>
<wgt id='morphing_basis_vector_4'> +9.5685924e-05 </wgt>
<wgt id='morphing_basis_vector_5'> +1.5738468e-04 </wgt>
</rwgt>
</event>
<event>
 4      1 +2.9741700e-06 7.79059700e+02 7.81860800e-03 8.92890200e-02
        2 -1    0    0  501    0 +0.0000000000e+00 +0.0000000000e+00 +7.1523941410e+02 7.1523941410e+02 0.0000000000e+00 0.0000e+00 -1.0000e+00
       -2 -1    0    0    0  501 -0.0000000000e+00 -0.0000000000e+00 -2.1214365084e+02 2.1214365084e+02 0.0000000000e+00 0.0000e+00 1.0000e+00
      -13  1    1    2    0    0 -7.4201339809e+01 -3.2903127057e+02 +1.9602177851e+01 3.3786337656e+02 0.0000000000e+00 0.0000e+00 1.0000e+00
       13  1    1    2    0    0 +7.4201339809e+01 +3.2903127057e+02 +4.8349358541e+02 5.8951968837e+02 0.0000000000e+00 0.0000e+00 -1.0000e+00
<mgrwt>
<rscale>  0 0.77905969E+03</rscale>
<asrwt>0</asrwt>
<pdfrwt beam="1">  1        2 0.11003683E+00 0.77905969E+03</pdfrwt>
<pdfrwt beam="2">  1       -2 0.32637485E-01 0.77905969E+03</pdfrwt>
<totfact> 0.41421569E+02</totfact>
</mgrwt>
<rwgt>
<wgt id='morphing_basis_vector_1'> +1.9095821e-04 </wgt>
<wgt id='morphing_basis_vector_2'> +1.1639710e-04 </wgt>
<wgt id='morphing_basis_vector_3'> +1.6959365e-04 </wgt>
<wgt id='morphing_basis_vector_4'> +9.0646153e-05 </wgt>
<wgt id='morphing_basis_vector_5'> +1.4333999e-04 </wgt>
</rwgt>
</event>
<event>
 4      1 +2.9741700e-06 7.57264000e+02 7.81860800e-03 8.95760200e-02
        2 -1    0    0  501    0 +0.0000000000e+00 +0.0000000000e+00 +1.0483553376e+03 1.0483553376e+03 0.0000000000e+00 0.0000e+00 -1.0000e+00
       -2 -1    0    0    0  501 -0.0000000000e+00 -0.0000000000e+00 -1.3674962607e+02 1.3674962607e+02 0.0000000000e+00 0.0000e+00 1.0000e+00
      -13  1    1    2    0    0 +2.1446042964e+02 -2.4059644758e+02 +1.4483852856e+02 3.5335269325e+02 0.0000000000e+00 0.0000e+00 1.0000e+00
       13  1    1    2    0    0 -2.1446042964e+02 +2.4059644758e+02 +7.6676718296e+02 8.3175227041e+02 0.0000000000e+00 0.0000e+00 -1.0000e+00
<mgrwt>
<rscale>  0 0.75726402E+03</rscale>
<asrwt>0</asrwt>
<pdfrwt beam="1">  1        2 0.16128543E+00 0.75726402E+03</pdfrwt>
<pdfrwt beam="2">  1       -2 0.21038405E-01 0.75726402E+03</pdfrwt>
<totfact> 0.53214614E+02</totfact>
</mgrwt>
<rwgt>
<wgt id='morphing_basis_vector_1'> +1.7276805e-04 </wgt>
<wgt id='morphing_basis_vector_2'> +1.0451728e-04 </wgt>
<wgt id='morphing_basis_vector_3'> +1.5178729e-04 </wgt>
<wgt id='morphing_basis_vector_4'> +7.9798971e-05 </wgt>
<wgt id='morphing_basis_vector_5'> +1.2573756e-04 </wgt>
</rwgt>
</event>
<event>
 4      1 +2.9741700e-06 7.65730400e+02 7.81860800e-03 8.94633300e-02
        2 -1    0    0  501    0 +0.0000000000e+00 +0.0000000000e+00 +3.8385369141e+02 3.8385369141e+02 0.0000000000e+00 0.0000e+00 -1.0000e+00
       -2 -1    0    0    0  501 -0.0000000000e+00 -0.0000000000e+00 -3.8187926706e+02 3.8187926706e+02 0.0000000000e+00 0.0000e+00 1.0000e+00
      -13  1    1    2    0    0 -2.4363193964e+02 +1.1983767155e+02 -2.6895474690e+02 3.8217044027e+02 0.0000000000e+00 0.0000e+00 1.0000e+00
       13  1    1    2    0    0 +2.4363193964e+02 -1.1983767155e+02 +2.7092917125e+02 3.8356251820e+02 0.0000000000e+00 0.0000e+00 -1.0000e+00
<mgrwt>
<rscale>  0 0.76573041E+03</rscale>
<asrwt>0</asrwt>
<pdfrwt beam="1">  1        2 0.59054414E-01 0.76573041E+03</pdfrwt>
<pdfrwt beam="2">  1       -2 0.58750656E-01 0.76573041E+03</pdfrwt>
<totfact> 0.27877382E+02</totfact>
</mgrwt>
<rwgt>
<wgt id='morphing_basis_vector_1'> +1.7916734e-04 </wgt>
<wgt id='morphing_basis_vector_2'> +1.0748802e-04 </wgt>
<wgt id='morphing_basis_vector_3'> +1.5826546e-04 </wgt>
<wgt id='morphing_basis_vector_4'> +8.4488860e-05 </wgt>
<wgt id='morphing_basis_vector_5'> +1.3240201e-04 </wgt>
</rwgt>
</event>
<event>
 4      1 +2.9741700e-06 7.99958600e+02 7.81860800e-03 8.90230300e-02
        2 -1    0    0  501    0 +0.0000000000e+00 +0.0000000000e+00 +5.8008505557e+02 5.8008505557e+02 0.0000000000e+00 0.0000e+00 -1.0000e+00
       -2 -1    0    0    0  501 -0.0000000000e+00 -0.0000000000e+00 -2.7579304287e+02 2.7579304287e+02 0.0000000000e+00 0.0000e+00 1.0000e+00
      -13  1    1    2    0    0 -3.4305923698e+02 -2.0482851774e+02 +1.7184677827e+02 4.3494330315e+02 0.0000000000e+00 0.0000e+00 1.0000e+00
       13  1    1    2    0    0 +3.4305923698e+02 +2.0482851774e+02 +1.3244523443e+02 4.2093479528e+02 0.0000000000e+00 0.0000e+00 -1.0000e+00
<mgrwt>
<rscale>  0 0.79995856E+03</rscale>
<asrwt>0</asrwt>
<pdfrwt beam="1">  1        2 0.89243854E-01 0.79995856E+03</pdfrwt>
<pdfrwt beam="2">  1       -2 0.42429699E-01 0.79995856E+03</pdfrwt>
<totfact> 0.32865943E+02</totfact>
</mgrwt>
<rwgt>
<wgt id='morphing_basis_vector_1'> +2.1744811e-04 </wgt>
<wgt id='morphing_basis_vector_2'> +1.5223743e-04 </wgt>
<wgt id='morphing_basis_vector_3'> +1.9271286e-04 </wgt>
<wgt id='morphing_basis_vector_4'> +9.2331601e-05 </wgt>
<wgt id='morphing_basis_vector_5'> +1.6140081e-04 </wgt>
</rwgt>
</event>
<event>
 4      1 +2.9741700e-06 8.76183500e+02 7.81860800e-03 8.81211600e-02
        2 -1    0    0  501    0 +0.0000000000e+00 +0.0000000000e+00 +3.3447545240e+03 3.3447545240e+03 0.0000000000e+00 0.0000e+00 1.0000e+00
       -2 -1    0    0    0  501 -0.0000000000e+00 -0.0000000000e+00 -5.7380702091e+01 5.7380702091e+01 0.0000000000e+00 0.0000e+00 -1.0000e+00
      -13  1    1    2    0    0 -4.2555361569e+02 +1.3493025326e+01 +1.2430431840e+03 1.3139384684e+03 0.0000000000e+00 0.0000e+00 -1.0000e+00
       13  1    1    2    0    0 +4.2555361569e+02 -1.3493025326e+01 +2.0443306379e+03 2.0881967576e+03 0.0000000000e+00 0.0000e+00 1.0000e+00
<mgrwt>
<rscale>  0 0.87618346E+03</rscale>
<asrwt>0</asrwt>
<pdfrwt beam="1">  1        2 0.51457747E+00 0.87618346E+03</pdfrwt>
<pdfrwt beam="2">  1       -2 0.88278029E-02 0.87618346E+03</pdfrwt>
<totfact> 0.95048990E+01</totfact>
</mgrwt>
<rwgt>
<wgt id='morphing_basis_vector_1'> +2.9333334e-04 </wgt>
<wgt id='morphing_basis_vector_2'> +1.8970828e-04 </wgt>
<wgt id='morphing_basis_vector_3'> +2.7098534e-04 </wgt>
<wgt id='morphing_basis_vector_4'> +1.4912706e-04 </wgt>
<wgt id='morphing_basis_vector_5'> +2.4372048e-04 </wgt>
</rwgt>
</event>
<event>
 4      1 +2.9741700e-06 7.60765400e+02 7.81860800e-03 8.95292200e-02
        2 -1    0    0  501    0 +0.0000000000e+00 +0.0000000000e+00 +1.2424293365e+03 1.2424293365e+03 0.0000000000e+00 0.0000e+00 -1.0000e+00
       -2 -1    0    0    0  501 -0.0000000000e+00 -0.0000000000e+00 -1.1645814168e+02 1.1645814168e+02 0.0000000000e+00 0.0000e+00 1.0000e+00
      -13  1    1    2    0    0 -2.4090267786e+02 +2.9433112466e+02 +5.5386007671e+02 6.7188235259e+02 0.0000000000e+00 0.0000e+00 1.0000e+00
       13  1    1    2    0    0 +2.4090267786e+02 -2.9433112466e+02 +5.7211111814e+02 6.8700512563e+02 0.0000000000e+00 0.0000e+00 -1.0000e+00
<mgrwt>
<rscale>  0 0.76076543E+03</rscale>
<asrwt>0</asrwt>
<pdfrwt beam="1">  1        2 0.19114297E+00 0.76076543E+03</pdfrwt>
<pdfrwt beam="2">  1       -2 0.17916638E-01 0.76076543E+03</pdfrwt>
<totfact> 0.53429643E+02</totfact>
</mgrwt>
<rwgt>
<wgt id='morphing_basis_vector_1'> +1.8076265e-04 </wgt>
<wgt id='morphing_basis_vector_2'> +1.2222555e-04 </wgt>
<wgt id='morphing_basis_vector_3'> +1.5716905e-04 </wgt>
<wgt id='morphing_basis_vector_4'> +7.5342002e-05 </wgt>
<wgt id='morphing_basis_vector_5'> +1.2822685e-04 </wgt>
</rwgt>
</event>
<event>
 4      1 +2.9741700e-06 8.57687700e+02 7.81860800e-03 8.83308500e-02
        2 -1    0    0  501    0 +0.0000000000e+00 +0.0000000000e+00 +2.6682898267e+03 2.6682898267e+03 0.0000000000e+00 0.0000e+00 -1.0000e+00
       -2 -1    0    0    0  501 -0.0000000000e+00 -0.0000000000e+00 -6.8923187645e+01 6.8923187645e+01 0.0000000000e+00 0.0000e+00 1.0000e+00
      -13  1    1    2    0    0 -3.2027720985e+02 -1.8486828311e+02 +6.0667999561e+02 7.1050291366e+02 0.0000000000e+00 0.0000e+00 1.0000e+00
       13  1    1    2    0    0 +3.2027720985e+02 +1.8486828311e+02 +1.9926866434e+03 2.0267101007e+03 0.0000000000e+00 0.0000e+00 -1.0000e+00
<mgrwt>
<rscale>  0 0.85768768E+03</rscale>
<asrwt>0</asrwt>
<pdfrwt beam="1">  1        2 0.41050605E+00 0.85768768E+03</pdfrwt>
<pdfrwt beam="2">  1       -2 0.10603569E-01 0.85768768E+03</pdfrwt>
<totfact> 0.19405373E+02</totfact>
</mgrwt>
<rwgt>
<wgt id='morphing_basis_vector_1'> +2.6887178e-04 </wgt>
<wgt id='morphing_basis_vector_2'> +1.6667892e-04 </wgt>
<wgt id='morphing_basis_vector_3'> +2.4714571e-04 </wgt>
<wgt id='morphing_basis_vector_4'> +1.3944914e-04 </wgt>
<wgt id='morphing_basis_vector_5'> +2.2174187e-04 </wgt>
</rwgt>
</event>
<event>
 4      1 +2.9741700e-06 7.90504400e+02 7.81860800e-03 8.91422800e-02
        2 -1    0    0  501    0 +0.0000000000e+00 +0.0000000000e+00 +1.8301040405e+02 1.8301040405e+02 0.0000000000e+00 0.0000e+00 -1.0000e+00
       -2 -1    0    0    0  501 -0.0000000000e+00 -0.0000000000e+00 -8.5363608742e+02 8.5363608742e+02 0.0000000000e+00 0.0000e+00 1.0000e+00
      -13  1    1    2    0    0 +6.6227997769e+01 +1.5221640513e+02 -8.0570730447e+02 8.2263007613e+02 0.0000000000e+00 0.0000e+00 1.0000e+00
       13  1    1    2    0    0 -6.6227997769e+01 -1.5221640513e+02 +1.3508162110e+02 2.1401641534e+02 0.0000000000e+00 0.0000e+00 -1.0000e+00
<mgrwt>
<rscale>  0 0.79050436E+03</rscale>
<asrwt>0</asrwt>
<pdfrwt beam="1">  1        2 0.28155447E-01 0.79050436E+03</pdfrwt>
<pdfrwt beam="2">  1       -2 0.13132863E+00 0.79050436E+03</pdfrwt>
<totfact> 0.99455582E+01</totfact>
</mgrwt>
<rwgt>
<wgt id='morphing_basis_vector_1'> +2.0020351e-04 </wgt>
<wgt id='morphing_basis_vector_2'> +1.2031741e-04 </wgt>
<wgt id='morphing_basis_vector_3'> +1.7905282e-04 </wgt>
<wgt id='morphing_basis_vector_4'> +9.7857212e-05 </wgt>
<wgt id='morphing_basis_vector_5'> +1.5330324e-04 </wgt>
</rwgt>
</event>
<event>
 4      1 +2.9741700e-06 8.48041900e+02 7.81860800e-03 8.84424400e-02
        2 -1    0    0  501    0 +0.0000000000e+00 +0.0000000000e+00 +1.3727759782e+03 1.3727759782e+03 0.0000000000e+00 0.0000e+00 -1.0000e+00
       -2 -1    0    0    0  501 -0.0000000000e+00 -0.0000000000e+00 -1.3097095546e+02 1.3097095546e+02 0.0000000000e+00 0.0000e+00 1.0000e+00
      -13  1    1    2    0    0 +3.9482276128e+02 -1.3311162151e+02 +4.8139261163e+02 6.3666518920e+02 0.0000000000e+00 0.0000e+00 1.0000e+00
       13  1    1    2    0    0 -3.9482276128e+02 +1.3311162151e+02 +7.6041241116e+02 8.6708174450e+02 0.0000000000e+00 0.0000e+00 -1.0000e+00
<mgrwt>
<rscale>  0 0.84804194E+03</rscale>
<asrwt>0</asrwt>
<pdfrwt beam="1">  1        2 0.21119629E+00 0.84804194E+03</pdfrwt>
<pdfrwt beam="2">  1       -2 0.20149379E-01 0.84804194E+03</pdfrwt>
<totfact> 0.36912680E+02</totfact>
</mgrwt>
<rwgt>
<wgt id='morphing_basis_vector_1'> +2.6161777e-04 </wgt>
<wgt id='morphing_basis_vector_2'> +1.7026714e-04 </wgt>
<wgt id='morphing_basis_vector_3'> +2.3879908e-04 </wgt>
<wgt id='morphing_basis_vector_4'> +1.2798336e-04 </wgt>
<wgt id='morphing_basis_vector_5'> +2.1054572e-04 </wgt>
</rwgt>
</event>
<event>
 4      1 +2.9741700e-06 7.62172600e+02 7.81860800e-03 8.95104900e-02
        2 -1    0    0  501    0 +0.0000000000e+00 +0.0000000000e+00 +1.4471923029e+03 1.4471923029e+03 0.0000000000e+00 0.0000e+00 1.0000e+00
       -2 -1    0    0    0  501 -0.0000000000e+00 -0.0000000000e+00 -1.0035070691e+02 1.0035070691e+02 0.0000000000e+00 0.0000e+00 -1.0000e+00
      -13  1    1    2    0    0 -4.5199361479e+01 -3.0306466782e+02 +2.1337751486e+02 3.7339140189e+02 0.0000000000e+00 0.0000e+00 -1.0000e+00
       13  1    1    2    0    0 +4.5199361479e+01 +3.0306466782e+02 +1.1334640812e+03 1.1741516080e+03 0.0000000000e+00 0.0000e+00 1.0000e+00
<mgrwt>
<rscale>  0 0.76217261E+03</rscale>
<asrwt>0</asrwt>
<pdfrwt beam="1">  1        2 0.22264495E+00 0.76217261E+03</pdfrwt>
<pdfrwt beam="2">  1       -2 0.15438571E-01 0.76217261E+03</pdfrwt>
<totfact> 0.52261270E+02</totfact>
</mgrwt>
<rwgt>
<wgt id='morphing_basis_vector_1'> +1.7650155e-04 </wgt>
<wgt id='morphing_basis_vector_2'> +1.0637249e-04 </wgt>
<wgt id='morphing_basis_vector_3'> +1.5554324e-04 </wgt>
<wgt id='morphing_basis_vector_4'> +8.2439364e-05 </wgt>
<wgt id='morphing_basis_vector_5'> +1.2956916e-04 </wgt>
</rwgt>
</event>
<event>
 4      1 +2.9741700e-06 7.84524400e+02 7.81860800e-03 8.92186200e-02
        2 -1    0    0  501    0 +0.0000000000e+00 +0.0000000000e+00 +4.3733462683e+02 4.3733462683e+02 0.0000000000e+00 0.0000e+00 -1.0000e+00
       -2 -1    0    0    0  501 -0.0000000000e+00 -0.0000000000e+00 -3.5183500842e+02 3.5183500842e+02 0.0000000000e+00 0.0000e+00 1.0000e+00
      -13  1    1    2    0    0 +6.3983696063e+00 -1.2879004422e+02 -3.2990535468e+02 3.5421089434e+02 0.0000000000e+00 0.0000e+00 1.0000e+00
       13  1    1    2    0    0 -6.3983696063e+00 +1.2879004422e+02 +4.1540497309e+02 4.3495874091e+02 0.0000000000e+00 0.0000e+00 -1.0000e+00
<mgrwt>
<rscale>  0 0.78452440E+03</rscale>
<asrwt>0</asrwt>
<pdfrwt beam="1">  1        2 0.67282250E-01 0.78452440E+03</pdfrwt>
<pdfrwt beam="2">  1       -2 0.54128463E-01 0.78452440E+03</pdfrwt>
<totfact> 0.28356476E+02</totfact>
</mgrwt>
<rwgt>
<wgt id='morphing_basis_vector_1'> +1.9489648e-04 </wgt>
<wgt id='morphing_basis_vector_2'> +1.1692983e-04 </wgt>
<wgt id='morphing_basis_vector_3'> +1.7382213e-04 </wgt>
<wgt id='morphing_basis_vector_4'> +9.4572901e-05 </wgt>
<wgt id='morphing_basis_vector_5'> +1.4805864e-04 </wgt>
</rwgt>
</event>
<event>
 4      1 +2.9741700e-06 8.69203400e+02 7.81860800e-03 8.81996500e-02
        2 -1    0    0  501    0 +0.0000000000e+00 +0.0000000000e+00 +2.0640285057e+02 2.0640285057e+02 0.0000000000e+00 0.0000e+00 -1.0000e+00
       -2 -1    0    0    0  501 -0.0000000000e+00 -0.0000000000e+00 -9.1509704941e+02 9.1509704941e+02 0.0000000000e+00 0.0000e+00 1.0000e+00
      -13  1    1    2    0    0 +3.0209509444e+02 -2.1159527310e+02 -6.5095196235e+02 7.4817943234e+02 0.0000000000e+00 0.0000e+00 1.0000e+00
       13  1    1    2    0    0 -3.0209509444e+02 +2.1159527310e+02 -5.7742236484e+01 3.7332046764e+02 0.0000000000e+00 0.0000e+00 -1.0000e+00
<mgrwt>
<rscale>  0 0.86920340E+03</rscale>
<asrwt>0</asrwt>
<pdfrwt beam="1">  1        2 0.31754285E-01 0.86920340E+03</pdfrwt>
<pdfrwt beam="2">  1       -2 0.14078416E+00 0.86920340E+03</pdfrwt>
<totfact> 0.71182721E+01</totfact>
</mgrwt>
<rwgt>
<wgt id='morphing_basis_vector_1'> +2.8196804e-04 </wgt>
<wgt id='morphing_basis_vector_2'> +1.7487188e-04 </wgt>
<wgt id='morphing_basis_vector_3'> +2.6035171e-04 </wgt>
<wgt id='morphing_basis_vector_4'> +1.4811312e-04 </wgt>
<wgt id='morphing_basis_vector_5'> +2.3538542e-04 </wgt>
</rwgt>
</event>
<event>
 4      1 +2.9741700e-06 7.82119700e+02 7.81860800e-03 8.92495200e-02
        2 -1    0    0  501    0 +0.0000000000e+00 +0.0000000000e+00 +1.6657203134e+03 1.6657203134e+03 0.0000000000e+00 0.0000e+00 1.0000e+00
       -2 -1    0    0    0  501 -0.0000000000e+00 -0.0000000000e+00 -9.1808824027e+01 9.1808824027e+01 0.0000000000e+00 0.0000e+00 -1.0000e+00
      -13  1    1    2    0    0 -3.2073040828e+02 -1.9001010349e+01 +2.8599673450e+02 4.3014319166e+02 0.0000000000e+00 0.0000e+00 -1.0000e+00
       13  1    1    2    0    0 +3.2073040828e+02 +1.9001010349e+01 +1.2879147549e+03 1.3273859457e+03 0.0000000000e+00 0.0000e+00 1.0000e+00
<mgrwt>
<rscale>  0 0.78211974E+03</rscale>
<asrwt>0</asrwt>
<pdfrwt beam="1">  1        2 0.25626464E+00 0.78211974E+03</pdfrwt>
<pdfrwt beam="2">  1       -2 0.14124436E-01 0.78211974E+03</pdfrwt>
<totfact> 0.45679184E+02</totfact>
</mgrwt>
<rwgt>
<wgt id='morphing_basis_vector_1'> +1.9334953e-04 </wgt>
<wgt id='morphing_basis_vector_2'> +1.1729258e-04 </wgt>
<wgt id='morphing_basis_vector_3'> +1.7206187e-04 </wgt>
<wgt id='morphing_basis_vector_4'> +9.2592117e-05 </wgt>
<wgt id='morphing_basis_vector_5'> +1.4595895e-04 </wgt>
</rwgt>
</event>
<event>
 4      1 +2.9741700e-06 7.60787900e+02 7.81860800e-03 8.95289300e-02
        2 -1    0    0  501    0 +0.0000000000e+00 +0.0000000000e+00 +7.6067343246e+02 7.6067343246e+02 0.0000000000e+00 0.0000e+00 -1.0000e+00
       -2 -1    0    0    0  501 -0.0000000000e+00 -0.0000000000e+00 -1.9022557392e+02 1.9022557392e+02 0.0000000000e+00 0.0000e+00 1.0000e+00
      -13  1    1    2    0    0 -8.7977027518e+01 +2.9697967858e+02 +9.2204943192e+00 3.0987401372e+02 0.0000000000e+00 0.0000e+00 1.0000e+00
       13  1    1    2    0    0 +8.7977027518e+01 -2.9697967858e+02 +5.6122736422e+02 6.4102499266e+02 0.0000000000e+00 0.0000e+00 -1.0000e+00
<mgrwt>
<rscale>  0 0.76078786E+03</rscale>
<asrwt>0</asrwt>
<pdfrwt beam="1">  1        2 0.11702668E+00 0.76078786E+03</pdfrwt>
<pdfrwt beam="2">  1       -2 0.29265473E-01 0.76078786E+03</pdfrwt>
<totfact> 0.46584255E+02</totfact>
</mgrwt>
<rwgt>
<wgt id='morphing_basis_vector_1'> +1.7541984e-04 </wgt>
<wgt id='morphing_basis_vector_2'> +1.0577877e-04 </wgt>
<wgt id='morphing_basis_vector_3'> +1.5446578e-04 </wgt>
<wgt id='morphing_basis_vector_4'> +8.1714213e-05 </wgt>
<wgt id='morphing_basis_vector_5'> +1.2848082e-04 </wgt>
</rwgt>
</event>
<event>
 4      1 +2.9741700e-06 7.74334400e+02 7.81860800e-03 8.93503900e-02
        2 -1    0    0  501    0 +0.0000000000e+00 +0.0000000000e+00 +1.0949232086e+03 1.0949232086e+03 0.0000000000e+00 0.0000e+00 -1.0000e+00
       -2 -1    0    0    0  501 -0.0000000000e+00 -0.0000000000e+00 -1.3690314630e+02 1.3690314630e+02 0.0000000000e+00 0.0000e+00 1.0000e+00
      -13  1    1    2    0    0 +2.4596304902e+02 +1.6401156847e+02 +8.1302518516e+01 3.0660677682e+02 0.0000000000e+00 0.0000e+00 1.0000e+00
       13  1    1    2    0    0 -2.4596304902e+02 -1.6401156847e+02 +8.7671754374e+02 9.2521957804e+02 0.0000000000e+00 0.0000e+00 -1.0000e+00
<mgrwt>
<rscale>  0 0.77433438E+03</rscale>
<asrwt>0</asrwt>
<pdfrwt beam="1">  1        2 0.16844972E+00 0.77433438E+03</pdfrwt>
<pdfrwt beam="2">  1       -2 0.21062023E-01 0.77433438E+03</pdfrwt>
<totfact> 0.49756804E+02</totfact>
</mgrwt>
<rwgt>
<wgt id='morphing_basis_vector_1'> +1.8645417e-04 </wgt>
<wgt id='morphing_basis_vector_2'> +1.1239166e-04 </wgt>
<wgt id='morphing_basis_vector_3'> +1.6536678e-04 </wgt>
<wgt id='morphing_basis_vector_4'> +8.8741243e-05 </wgt>
<wgt id='morphing_basis_vector_5'> +1.3940367e-04 </wgt>
</rwgt>
</event>
<event>
 4      1 +2.9741700e-06 8.54507000e+02 7.81860800e-03 8.83674800e-02
        2 -1    0    0  501    0 +0.0000000000e+00 +0.0000000000e+00 +4.3181422601e+02 4.3181422601e+02 0.0000000000e+00 0.0000e+00 1.0000e+00
       -2 -1    0    0    0  501 -0.0000000000e+00 -0.0000000000e+00 -4.2274094520e+02 4.2274094520e+02 0.0000000000e+00 0.0000e+00 -1.0000e+00
      -13  1    1    2    0    0 -6.4267091056e+01 -3.3241288451e+02 -2.5608689378e+02 4.2451040264e+02 0.0000000000e+00 0.0000e+00 -1.0000e+00
       13  1    1    2    0    0 +6.4267091056e+01 +3.3241288451e+02 +2.6516017459e+02 4.3004476857e+02 0.0000000000e+00 0.0000e+00 1.0000e+00
<mgrwt>
<rscale>  0 0.85450700E+03</rscale>
<asrwt>0</asrwt>
<pdfrwt beam="1">  1        2 0.66432958E-01 0.85450700E+03</pdfrwt>
<pdfrwt beam="2">  1       -2 0.65037068E-01 0.85450700E+03</pdfrwt>
<totfact> 0.19705145E+02</totfact>
</mgrwt>
<rwgt>
<wgt id='morphing_basis_vector_1'> +2.6480885e-04 </wgt>
<wgt id='morphing_basis_vector_2'> +1.6285035e-04 </wgt>
<wgt id='morphing_basis_vector_3'> +2.4321450e-04 </wgt>
<wgt id='morphing_basis_vector_4'> +1.3784194e-04 </wgt>
<wgt id='morphing_basis_vector_5'> +2.1811174e-04 </wgt>
</rwgt>
</event>
<event>
 4      1 +2.9741700e-06 8.49639100e+02 7.81860800e-03 8.84238500e-02
        2 -1    0    0  501    0 +0.0000000000e+00 +0.0000000000e+00 +5.3018800455e+02 5.3018800455e+02 0.0000000000e+00 0.0000e+00 1.0000e+00
       -2 -1    0    0    0  501 -0.0000000000e+00 -0.0000000000e+00 -3.4039180945e+02 3.4039180945e+02 0.0000000000e+00 0.0000e+00 -1.0000e+00
      -13  1    1    2    0    0 -3.5651498983e+02 +7.4958917096e+01 -1.2900506422e+02 3.8647649840e+02 0.0000000000e+00 0.0000e+00 -1.0000e+00
       13  1    1    2    0    0 +3.5651498983e+02 -7.4958917096e+01 +3.1880125932e+02 4.8410331559e+02 0.0000000000e+00 0.0000e+00 1.0000e+00
<mgrwt>
<rscale>  0 0.84963911E+03</rscale>
<asrwt>0</asrwt>
<pdfrwt beam="1">  1        2 0.81567386E-01 0.84963911E+03</pdfrwt>
<pdfrwt beam="2">  1       -2 0.52367970E-01 0.84963911E+03</pdfrwt>
<totfact> 0.24240082E+02</totfact>
</mgrwt>
<rwgt>
<wgt id='morphing_basis_vector_1'> +2.5986981e-04 </wgt>
<wgt id='morphing_basis_vector_2'> +1.6072472e-04 </wgt>
<wgt id='morphing_basis_vector_3'> +2.3812705e-04 </wgt>
<wgt id='morphing_basis_vector_4'> +1.3379853e-04 </wgt>
<wgt id='morphing_basis_vector_5'> +2.1256114e-04 </wgt>
</rwgt>
</event>
<event>
 4      1 +2.9741700e-06 7.63043800e+02 7.81860800e-03 8.94989200e-02
        2 -1    0    0  501    0 +0.0000000000e+00 +0.0000000000e+00 +8.8757086461e+02 8.8757086461e+02 0.0000000000e+00 0.0000e+00 1.0000e+00
       -2 -1    0    0    0  501 -0.0000000000e+00 -0.0000000000e+00 -1.6399700065e+02 1.6399700065e+02 0.0000000000e+00 0.0000e+00 -1.0000e+00
      -13  1    1    2    0    0 +2.9023565376e+02 -2.2732515328e+02 +2.2643944291e+02 4.3265261046e+02 0.0000000000e+00 0.0000e+00 -1.0000e+00
       13  1    1    2    0    0 -2.9023565376e+02 +2.2732515328e+02 +4.9713442105e+02 6.1891525480e+02 0.0000000000e+00 0.0000e+00 1.0000e+00
<mgrwt>
<rscale>  0 0.76304380E+03</rscale>
<asrwt>0</asrwt>
<pdfrwt beam="1">  1        2 0.13654936E+00 0.76304380E+03</pdfrwt>
<pdfrwt beam="2">  1       -2 0.25230308E-01 0.76304380E+03</pdfrwt>
<totfact> 0.49355031E+02</totfact>
</mgrwt>
<rwgt>
<wgt id='morphing_basis_vector_1'> +1.7907327e-04 </wgt>
<wgt id='morphing_basis_vector_2'> +1.1254429e-04 </wgt>
<wgt id='morphing_basis_vector_3'> +1.5719275e-04 </wgt>
<wgt id='morphing_basis_vector_4'> +8.0648376e-05 </wgt>
<wgt id='morphing_basis_vector_5'> +1.3017285e-04 </wgt>
</rwgt>
</event>
<event>
 4      1 +2.9741700e-06 8.52511000e+02 7.81860800e-03 8.83905400e-02
        2 -1    0    0  501    0 +0.0000000000e+00 +0.0000000000e+00 +4.2666486174e+02 4.2666486174e+02 0.0000000000e+00 0.0000e+00 1.0000e+00
       -2 -1    0    0    0  501 -0.0000000000e+00 -0.0000000000e+00 -4.2584653807e+02 4.2584653807e+02 0.0000000000e+00 0.0000e+00 -1.0000e+00
      -13  1    1    2    0    0 +3.4941010643e+02 -8.3727582736e+01 -2.2892917373e+02 4.2603555858e+02 0.0000000000e+00 0.0000e+00 -1.0000e+00
       13  1    1    2    0    0 -3.4941010643e+02 +8.3727582736e+01 +2.2974749741e+02 4.2647584123e+02 0.0000000000e+00 0.0000e+00 1.0000e+00
<mgrwt>
<rscale>  0 0.85251101E+03</rscale>
<asrwt>0</asrwt>
<pdfrwt beam="1">  1        2 0.65640748E-01 0.85251101E+03</pdfrwt>
<pdfrwt beam="2">  1       -2 0.65514852E-01 0.85251101E+03</pdfrwt>
<totfact> 0.19672570E+02</totfact>
</mgrwt>
<rwgt>
<wgt id='morphing_basis_vector_1'> +2.6291137e-04 </wgt>
<wgt id='morphing_basis_vector_2'> +1.6239316e-04 </wgt>
<wgt id='morphing_basis_vector_3'> +2.4121522e-04 </wgt>
<wgt id='morphing_basis_vector_4'> +1.3598883e-04 </wgt>
<wgt id='morphing_basis_vector_5'> +2.1581426e-04 </wgt>
</rwgt>
</event>
<event>
 4      1 +2.9741700e-06 7.88457400e+02 7.81860800e-03 8.91683300e-02
        2 -1    0    0  501    0 +0.0000000000e+00 +0.0000000000e+00 +6.4854027501e+02 6.4854027501e+02 0.0000000000e+00 0.0000e+00 -1.0000e+00
       -2 -1    0    0    0  501 -0.0000000000e+00 -0.0000000000e+00 -2.3964009979e+02 2.3964009979e+02 0.0000000000e+00 0.0000e+00 1.0000e+00
      -13  1    1    2    0    0 -1.5424770043e+02 +2.8961458165e+02 -4.1698502225e+01 3.3076838434e+02 0.0000000000e+00 0.0000e+00 1.0000e+00
       13  1    1    2    0    0 +1.5424770043e+02 -2.8961458165e+02 +4.5059867744e+02 5.5741199046e+02 0.0000000000e+00 0.0000e+00 -1.0000e+00
<mgrwt>
<rscale>  0 0.78845737E+03</rscale>
<asrwt>0</asrwt>
<pdfrwt beam="1">  1        2 0.99775427E-01 0.78845737E+03</pdfrwt>
<pdfrwt beam="2">  1       -2 0.36867708E-01 0.78845737E+03</pdfrwt>
<totfact> 0.37405691E+02</totfact>
</mgrwt>
<rwgt>
<wgt id='morphing_basis_vector_1'> +1.9898900e-04 </wgt>
<wgt id='morphing_basis_vector_2'> +1.2103312e-04 </wgt>
<wgt id='morphing_basis_vector_3'> +1.7760021e-04 </wgt>
<wgt id='morphing_basis_vector_4'> +9.5960983e-05 </wgt>
<wgt id='morphing_basis_vector_5'> +1.5146181e-04 </wgt>
</rwgt>
</event>
<event>
 4      1 +2.9741700e-06 8.88603700e+02 7.81860800e-03 8.79833700e-02
        2 -1    0    0  501    0 +0.0000000000e+00 +0.0000000000e+00 +3.4990471831e+02 3.4990471831e+02 0.0000000000e+00 0.0000e+00 1.0000e+00
       -2 -1    0    0    0  501 -0.0000000000e+00 -0.0000000000e+00 -5.6416544998e+02 5.6416544998e+02 0.0000000000e+00 0.0000e+00 -1.0000e+00
      -13  1    1    2    0    0 +1.1525955716e+02 -3.8885853112e+02 -2.9373609782e+02 5.0077601570e+02 0.0000000000e+00 0.0000e+00 -1.0000e+00
       13  1    1    2    0    0 -1.1525955716e+02 +3.8885853112e+02 +7.9475366154e+01 4.1329415259e+02 0.0000000000e+00 0.0000e+00 1.0000e+00
<mgrwt>
<rscale>  0 0.88860374E+03</rscale>
<asrwt>0</asrwt>
<pdfrwt beam="1">  1        2 0.53831495E-01 0.88860374E+03</pdfrwt>
<pdfrwt beam="2">  1       -2 0.86794685E-01 0.88860374E+03</pdfrwt>
<totfact> 0.13207057E+02</totfact>
</mgrwt>
<rwgt>
<wgt id='morphing_basis_vector_1'> +3.0633277e-04 </wgt>
<wgt id='morphing_basis_vector_2'> +1.9298855e-04 </wgt>
<wgt id='morphing_basis_vector_3'> +2.8470105e-04 </wgt>
<wgt id='morphing_basis_vector_4'> +1.6192740e-04 </wgt>
<wgt id='morphing_basis_vector_5'> +2.5964503e-04 </wgt>
</rwgt>
</event>
<event>
 4      1 +2.9741700e-06 7.99490700e+02 7.81860800e-03 8.90288900e-02
        2 -1    0    0  501    0 +0.0000000000e+00 +0.0000000000e+00 +3.0702849567e+02 3.0702849567e+02 0.0000000000e+00 0.0000e+00 1.0000e+00
       -2 -1    0    0    0  501 -0.0000000000e+00 -0.0000000000e+00 -5.2046094063e+02 5.2046094063e+02 0.0000000000e+00 0.0000e+00 -1.0000e+00
      -13  1    1    2    0    0 -1.1270507185e+02 -2.9296615297e+02 +1.4946915957e+02 3.4766741244e+02 0.0000000000e+00 0.0000e+00 -1.0000e+00
       13  1    1    2    0    0 +1.1270507185e+02 +2.9296615297e+02 -3.6290160454e+02 4.7982202387e+02 0.0000000000e+00 0.0000e+00 1.0000e+00
<mgrwt>
<rscale>  0 0.79949069E+03</rscale>
<asrwt>0</asrwt>
<pdfrwt beam="1">  1        2 0.47235153E-01 0.79949069E+03</pdfrwt>
<pdfrwt beam="2">  1       -2 0.80070913E-01 0.79949069E+03</pdfrwt>
<totfact> 0.18487463E+02</totfact>
</mgrwt>
<rwgt>
<wgt id='morphing_basis_vector_1'> +2.5840009e-04 </wgt>
<wgt id='morphing_basis_vector_2'> +2.7869594e-04 </wgt>
<wgt id='morphing_basis_vector_3'> +2.1692477e-04 </wgt>
<wgt id='morphing_basis_vector_4'> +3.9864776e-05 </wgt>
<wgt id='morphing_basis_vector_5'> +1.5874635e-04 </wgt>
</rwgt>
</event>
<event>
 4      1 +2.9741700e-06 8.63732400e+02 7.81860800e-03 8.82617200e-02
        2 -1    0    0  501    0 +0.0000000000e+00 +0.0000000000e+00 +1.0735140759e+03 1.0735140759e+03 0.0000000000e+00 0.0000e+00 -1.0000e+00
       -2 -1    0    0    0  501 -0.0000000000e+00 -0.0000000000e+00 -1.7373632912e+02 1.7373632912e+02 0.0000000000e+00 0.0000e+00 1.0000e+00
      -13  1    1    2    0    0 -2.1122533185e+02 +1.7362086899e+02 -3.2830176849e+01 2.7538730449e+02 0.0000000000e+00 0.0000e+00 1.0000e+00
       13  1    1    2    0    0 +2.1122533185e+02 -1.7362086899e+02 +9.3260792363e+02 9.7186310053e+02 0.0000000000e+00 0.0000e+00 -1.0000e+00
<mgrwt>
<rscale>  0 0.86373235E+03</rscale>
<asrwt>0</asrwt>
<pdfrwt beam="1">  1        2 0.16515601E+00 0.86373235E+03</pdfrwt>
<pdfrwt beam="2">  1       -2 0.26728667E-01 0.86373235E+03</pdfrwt>
<totfact> 0.34000774E+02</totfact>
</mgrwt>
<rwgt>
<wgt id='morphing_basis_vector_1'> +2.7478643e-04 </wgt>
<wgt id='morphing_basis_vector_2'> +1.6819856e-04 </wgt>
<wgt id='morphing_basis_vector_3'> +2.5336340e-04 </wgt>
<wgt id='morphing_basis_vector_4'> +1.4518023e-04 </wgt>
<wgt id='morphing_basis_vector_5'> +2.2889100e-04 </wgt>
</rwgt>
</event>
<event>
 4      1 +2.9741700e-06 8.28444100e+02 7.81860800e-03 8.86740400e-02
        2 -1    0    0  501    0 +0.0000000000e+00 +0.0000000000e+00 +2.0463907807e+03 2.0463907807e+03 0.0000000000e+00 0.0000e+00 -1.0000e+00
       -2 -1    0    0    0  501 -0.0000000000e+00 -0.0000000000e+00 -8.3845125146e+01 8.3845125146e+01 0.0000000000e+00 0.0000e+00 1.0000e+00
      -13  1    1    2    0    0 -3.1598224632e+02 -1.6868945890e+02 +4.4633537275e+02 5.7229029216e+02 0.0000000000e+00 0.0000e+00 1.0000e+00
       13  1    1    2    0    0 +3.1598224632e+02 +1.6868945890e+02 +1.5162102828e+03 1.5579456137e+03 0.0000000000e+00 0.0000e+00 -1.0000e+00
<mgrwt>
<rscale>  0 0.82844406E+03</rscale>
<asrwt>0</asrwt>
<pdfrwt beam="1">  1        2 0.31482931E+00 0.82844406E+03</pdfrwt>
<pdfrwt beam="2">  1       -2 0.12899252E-01 0.82844406E+03</pdfrwt>
<totfact> 0.32511297E+02</totfact>
</mgrwt>
<rwgt>
<wgt id='morphing_basis_vector_1'> +2.3745855e-04 </wgt>
<wgt id='morphing_basis_vector_2'> +1.4636193e-04 </wgt>
<wgt id='morphing_basis_vector_3'> +2.1569390e-04 </wgt>
<wgt id='morphing_basis_vector_4'> +1.1948570e-04 </wgt>
<wgt id='morphing_basis_vector_5'> +1.8968877e-04 </wgt>
</rwgt>
</event>
<event>
 4      1 +2.9741700e-06 7.84061500e+02 7.81860800e-03 8.92245600e-02
        2 -1    0    0  501    0 +0.0000000000e+00 +0.0000000000e+00 +5.9778990605e+02 5.9778990605e+02 0.0000000000e+00 0.0000e+00 -1.0000e+00
       -2 -1    0    0    0  501 -0.0000000000e+00 -0.0000000000e+00 -2.5709387534e+02 2.5709387534e+02 0.0000000000e+00 0.0000e+00 1.0000e+00
      -13  1    1    2    0    0 +1.7840822622e+02 -1.1631679242e+01 -2.1005490720e+02 2.7584027114e+02 0.0000000000e+00 0.0000e+00 1.0000e+00
       13  1    1    2    0    0 -1.7840822622e+02 +1.1631679242e+01 +5.5075093792e+02 5.7904351025e+02 0.0000000000e+00 0.0000e+00 -1.0000e+00
<mgrwt>
<rscale>  0 0.78406154E+03</rscale>
<asrwt>0</asrwt>
<pdfrwt beam="1">  1        2 0.91967677E-01 0.78406154E+03</pdfrwt>
<pdfrwt beam="2">  1       -2 0.39552904E-01 0.78406154E+03</pdfrwt>
<totfact> 0.36202906E+02</totfact>
</mgrwt>
<rwgt>
<wgt id='morphing_basis_vector_1'> +1.9451070e-04 </wgt>
<wgt id='morphing_basis_vector_2'> +1.1673313e-04 </wgt>
<wgt id='morphing_basis_vector_3'> +1.7343364e-04 </wgt>
<wgt id='morphing_basis_vector_4'> +9.4296996e-05 </wgt>
<wgt id='morphing_basis_vector_5'> +1.4765713e-04 </wgt>
</rwgt>
</event>
<event>
 4      1 +2.9741700e-06 8.21674900e+02 7.81860800e-03 8.87556200e-02
        2 -1    0    0  501    0 +0.0000000000e+00 +0.0000000000e+00 +1.2496164272e+03 1.2496164272e+03 0.0000000000e+00 0.0000e+00 -1.0000e+00
       -2 -1    0    0    0  501 -0.0000000000e+00 -0.0000000000e+00 -1.3507139238e+02 1.3507139238e+02 0.0000000000e+00 0.0000e+00 1.0000e+00
      -13  1    1    2    0    0 +3.8821390581e+02 +1.3444501286e+02 +5.5961526087e+02 6.9422960059e+02 0.0000000000e+00 0.0000e+00 1.0000e+00
       13  1    1    2    0    0 -3.8821390581e+02 -1.3444501286e+02 +5.5492977397e+02 6.9045821900e+02 0.0000000000e+00 0.0000e+00 -1.0000e+00
<mgrwt>
<rscale>  0 0.82167495E+03</rscale>
<asrwt>0</asrwt>
<pdfrwt beam="1">  1        2 0.19224867E+00 0.82167495E+03</pdfrwt>
<pdfrwt beam="2">  1       -2 0.20780215E-01 0.82167495E+03</pdfrwt>
<totfact> 0.41233487E+02</totfact>
</mgrwt>
<rwgt>
<wgt id='morphing_basis_vector_1'> +2.3783272e-04 </wgt>
<wgt id='morphing_basis_vector_2'> +1.6402233e-04 </wgt>
<wgt id='morphing_basis_vector_3'> +2.1350425e-04 </wgt>
<wgt id='morphing_basis_vector_4'> +1.0578924e-04 </wgt>
<wgt id='morphing_basis_vector_5'> +1.8235015e-04 </wgt>
</rwgt>
</event>
<event>
 4      1 +2.9741700e-06 8.42758000e+02 7.81860800e-03 8.85042300e-02
        2 -1    0    0  501    0 +0.0000000000e+00 +0.0000000000e+00 +8.1316157401e+02 8.1316157401e+02 0.0000000000e+00 0.0000e+00 1.0000e+00
       -2 -1    0    0    0  501 -0.0000000000e+00 -0.0000000000e+00 -2.1835788805e+02 2.1835788805e+02 0.0000000000e+00 0.0000e+00 -1.0000e+00
      -13  1    1    2    0    0 -2.5112358953e+02 +1.5966165447e+02 -6.7757656272e+01 3.0519829801e+02 0.0000000000e+00 0.0000e+00 -1.0000e+00
       13  1    1    2    0    0 +2.5112358953e+02 -1.5966165447e+02 +6.6256134223e+02 7.2632116405e+02 0.0000000000e+00 0.0000e+00 1.0000e+00
<mgrwt>
<rscale>  0 0.84275796E+03</rscale>
<asrwt>0</asrwt>
<pdfrwt beam="1">  1        2 0.12510178E+00 0.84275796E+03</pdfrwt>
<pdfrwt beam="2">  1       -2 0.33593522E-01 0.84275796E+03</pdfrwt>
<totfact> 0.33362637E+02</totfact>
</mgrwt>
<rwgt>
<wgt id='morphing_basis_vector_1'> +2.5168546e-04 </wgt>
<wgt id='morphing_basis_vector_2'> +1.5370177e-04 </wgt>
<wgt id='morphing_basis_vector_3'> +2.3015621e-04 </wgt>
<wgt id='morphing_basis_vector_4'> +1.3000385e-04 </wgt>
<wgt id='morphing_basis_vector_5'> +2.0497543e-04 </wgt>
</rwgt>
</event>
<event>
 4      1 +2.9741700e-06 7.75406100e+02 7.81860800e-03 8.93364300e-02
        2 -1    0    0  501    0 +0.0000000000e+00 +0.0000000000e+00 +2.2667828367e+02 2.2667828367e+02 0.0000000000e+00 0.0000e+00 -1.0000e+00
       -2 -1    0    0    0  501 -0.0000000000e+00 -0.0000000000e+00 -6.6311446730e+02 6.6311446730e+02 0.0000000000e+00 0.0000e+00 1.0000e+00
      -13  1    1    2    0    0 +1.3468662684e+02 -3.2129011850e+02 -4.1345080914e+02 5.4065645217e+02 0.0000000000e+00 0.0000e+00 1.0000e+00
       13  1    1    2    0    0 -1.3468662684e+02 +3.2129011850e+02 -2.2985374493e+01 3.4913629880e+02 0.0000000000e+00 0.0000e+00 -1.0000e+00
<mgrwt>
<rscale>  0 0.77540609E+03</rscale>
<asrwt>0</asrwt>
<pdfrwt beam="1">  1        2 0.34873583E-01 0.77540609E+03</pdfrwt>
<pdfrwt beam="2">  1       -2 0.10201761E+00 0.77540609E+03</pdfrwt>
<totfact> 0.14827203E+02</totfact>
</mgrwt>
<rwgt>
<wgt id='morphing_basis_vector_1'> +1.8811531e-04 </wgt>
<wgt id='morphing_basis_vector_2'> +1.1527617e-04 </wgt>
<wgt id='morphing_basis_vector_3'> +1.6666810e-04 </wgt>
<wgt id='morphing_basis_vector_4'> +8.8384803e-05 </wgt>
<wgt id='morphing_basis_vector_5'> +1.4025868e-04 </wgt>
</rwgt>
</event>
<event>
 4      1 +2.9741700e-06 7.86132900e+02 7.81860800e-03 8.91980100e-02
        2 -1    0    0  501    0 +0.0000000000e+00 +0.0000000000e+00 +3.8792863749e+02 3.8792863749e+02 0.0000000000e+00 0.0000e+00 -1.0000e+00
       -2 -1    0    0    0  501 -0.0000000000e+00 -0.0000000000e+00 -3.9827232849e+02 3.9827232849e+02 0.0000000000e+00 0.0000e+00 1.0000e+00
      -13  1    1    2    0    0 -1.0086241386e+01 +2.1889854547e+02 -3.3151732363e+02 3.9739406304e+02 0.0000000000e+00 0.0000e+00 1.0000e+00
       13  1    1    2    0    0 +1.0086241386e+01 -2.1889854547e+02 +3.2117363263e+02 3.8880690294e+02 0.0000000000e+00 0.0000e+00 -1.0000e+00
<mgrwt>
<rscale>  0 0.78613292E+03</rscale>
<asrwt>0</asrwt>
<pdfrwt beam="1">  1        2 0.59681329E-01 0.78613292E+03</pdfrwt>
<pdfrwt beam="2">  1       -2 0.61272666E-01 0.78613292E+03</pdfrwt>
<totfact> 0.25253440E+02</totfact>
</mgrwt>
<rwgt>
<wgt id='morphing_basis_vector_1'> +1.9636927e-04 </wgt>
<wgt id='morphing_basis_vector_2'> +1.1800603e-04 </wgt>
<wgt id='morphing_basis_vector_3'> +1.7524928e-04 </wgt>
<wgt id='morphing_basis_vector_4'> +9.5378791e-05 </wgt>
<wgt id='morphing_basis_vector_5'> +1.4945365e-04 </wgt>
</rwgt>
</event>
<event>
 4      1 +2.9741700e-06 8.44568300e+02 7.81860800e-03 8.84830000e-02
        2 -1    0    0  501    0 +0.0000000000e+00 +0.0000000000e+00 +2.2619824277e+03 2.2619824277e+03 0.0000000000e+00 0.0000e+00 -1.0000e+00
       -2 -1    0    0    0  501 -0.0000000000e+00 -0.0000000000e+00 -7.8835230470e+01 7.8835230470e+01 0.0000000000e+00 0.0000e+00 1.0000e+00
      -13  1    1    2    0    0 +1.2622548123e+02 -3.3588996267e+02 +4.7449890143e+02 5.9489843384e+02 0.0000000000e+00 0.0000e+00 1.0000e+00
       13  1    1    2    0    0 -1.2622548123e+02 +3.3588996267e+02 +1.7086482958e+03 1.7459192243e+03 0.0000000000e+00 0.0000e+00 -1.0000e+00
<mgrwt>
<rscale>  0 0.84456831E+03</rscale>
<asrwt>0</asrwt>
<pdfrwt beam="1">  1        2 0.34799725E+00 0.84456831E+03</pdfrwt>
<pdfrwt beam="2">  1       -2 0.12128499E-01 0.84456831E+03</pdfrwt>
<totfact> 0.27115884E+02</totfact>
</mgrwt>
<rwgt>
<wgt id='morphing_basis_vector_1'> +2.5428025e-04 </wgt>
<wgt id='morphing_basis_vector_2'> +1.5693714e-04 </wgt>
<wgt id='morphing_basis_vector_3'> +2.3254842e-04 </wgt>
<wgt id='morphing_basis_vector_4'> +1.3037836e-04 </wgt>
<wgt id='morphing_basis_vector_5'> +2.0692255e-04 </wgt>
</rwgt>
</event>
<event>
 4      1 +2.9741700e-06 7.81471800e+02 7.81860800e-03 8.92578700e-02
        2 -1    0    0  501    0 +0.0000000000e+00 +0.0000000000e+00 +5.8538663303e+02 5.8538663303e+02 0.0000000000e+00 0.0000e+00 -1.0000e+00
       -2 -1    0    0    0  501 -0.0000000000e+00 -0.0000000000e+00 -2.6080975607e+02 2.6080975607e+02 0.0000000000e+00 0.0000e+00 1.0000e+00
      -13  1    1    2    0    0 -3.0108451337e+02 +1.4327750987e+02 -5.8284199032e+01 3.3849280182e+02 0.0000000000e+00 0.0000e+00 1.0000e+00
       13  1    1    2    0    0 +3.0108451337e+02 -1.4327750987e+02 +3.8286107599e+02 5.0770358728e+02 0.0000000000e+00 0.0000e+00 -1.0000e+00
<mgrwt>
<rscale>  0 0.78147180E+03</rscale>
<asrwt>0</asrwt>
<pdfrwt beam="1">  1        2 0.90059481E-01 0.78147180E+03</pdfrwt>
<pdfrwt beam="2">  1       -2 0.40124578E-01 0.78147180E+03</pdfrwt>
<totfact> 0.36133159E+02</totfact>
</mgrwt>
<rwgt>
<wgt id='morphing_basis_vector_1'> +1.9296168e-04 </wgt>
<wgt id='morphing_basis_vector_2'> +1.1747199e-04 </wgt>
<wgt id='morphing_basis_vector_3'> +1.7160419e-04 </wgt>
<wgt id='morphing_basis_vector_4'> +9.2029654e-05 </wgt>
<wgt id='morphing_basis_vector_5'> +1.4539559e-04 </wgt>
</rwgt>
</event>
<event>
 4      1 +2.9741700e-06 8.27308200e+02 7.81860800e-03 8.86876700e-02
        2 -1    0    0  501    0 +0.0000000000e+00 +0.0000000000e+00 +4.5553122795e+02 4.5553122795e+02 0.0000000000e+00 0.0000e+00 -1.0000e+00
       -2 -1    0    0    0  501 -0.0000000000e+00 -0.0000000000e+00 -3.7562677446e+02 3.7562677446e+02 0.0000000000e+00 0.0000e+00 1.0000e+00
      -13  1    1    2    0    0 -3.9138408017e+02 -1.3378127356e+02 +4.5527686193e+01 4.1611500523e+02 0.0000000000e+00 0.0000e+00 1.0000e+00
       13  1    1    2    0    0 +3.9138408017e+02 +1.3378127356e+02 +3.4376767297e+01 4.1504299717e+02 0.0000000000e+00 0.0000e+00 -1.0000e+00
<mgrwt>
<rscale>  0 0.82730823E+03</rscale>
<asrwt>0</asrwt>
<pdfrwt beam="1">  1        2 0.70081727E-01 0.82730823E+03</pdfrwt>
<pdfrwt beam="2">  1       -2 0.57788735E-01 0.82730823E+03</pdfrwt>
<totfact> 0.23688143E+02</totfact>
</mgrwt>
<rwgt>
<wgt id='morphing_basis_vector_1'> +2.4401410e-04 </wgt>
<wgt id='morphing_basis_vector_2'> +1.6919803e-04 </wgt>
<wgt id='morphing_basis_vector_3'> +2.1957713e-04 </wgt>
<wgt id='morphing_basis_vector_4'> +1.0864545e-04 </wgt>
<wgt id='morphing_basis_vector_5'> +1.8805167e-04 </wgt>
</rwgt>
</event>
<event>
 4      1 +2.9741700e-06 7.99016900e+02 7.81860800e-03 8.90348300e-02
        2 -1    0    0  501    0 +0.0000000000e+00 +0.0000000000e+00 +1.0973887670e+03 1.0973887670e+03 0.0000000000e+00 0.0000e+00 -1.0000e+00
       -2 -1    0    0    0  501 -0.0000000000e+00 -0.0000000000e+00 -1.4544253390e+02 1.4544253390e+02 0.0000000000e+00 0.0000e+00 1.0000e+00
      -13  1    1    2    0    0 +1.8546881867e+02 -3.0576277415e+02 +1.9895681838e+02 4.0923510643e+02 0.0000000000e+00 0.0000e+00 1.0000e+00
       13  1    1    2    0    0 -1.8546881867e+02 +3.0576277415e+02 +7.5298941469e+02 8.3359619444e+02 0.0000000000e+00 0.0000e+00 -1.0000e+00
<mgrwt>
<rscale>  0 0.79901690E+03</rscale>
<asrwt>0</asrwt>
<pdfrwt beam="1">  1        2 0.16882904E+00 0.79901690E+03</pdfrwt>
<pdfrwt beam="2">  1       -2 0.22375775E-01 0.79901690E+03</pdfrwt>
<totfact> 0.44736724E+02</totfact>
</mgrwt>
<rwgt>
<wgt id='morphing_basis_vector_1'> +2.0908734e-04 </wgt>
<wgt id='morphing_basis_vector_2'> +1.2874596e-04 </wgt>
<wgt id='morphing_basis_vector_3'> +1.8738062e-04 </wgt>
<wgt id='morphing_basis_vector_4'> +1.0124392e-04 </wgt>
<wgt id='morphing_basis_vector_5'> +1.6093652e-04 </wgt>
</rwgt>
</event>
<event>
 4      1 +2.9741700e-06 8.55430800e+02 7.81860800e-03 8.83568200e-02
        2 -1    0    0  501    0 +0.0000000000e+00 +0.0000000000e+00 +5.0504883620e+02 5.0504883620e+02 0.0000000000e+00 0.0000e+00 1.0000e+00
       -2 -1    0    0    0  501 -0.0000000000e+00 -0.0000000000e+00 -3.6222331350e+02 3.6222331350e+02 0.0000000000e+00 0.0000e+00 -1.0000e+00
      -13  1    1    2    0    0 +1.0455208900e+02 -2.8785542501e+02 -2.3129790750e+02 3.8378458415e+02 0.0000000000e+00 0.0000e+00 -1.0000e+00
       13  1    1    2    0    0 -1.0455208900e+02 +2.8785542501e+02 +3.7412343020e+02 4.8348756556e+02 0.0000000000e+00 0.0000e+00 1.0000e+00
<mgrwt>
<rscale>  0 0.85543080E+03</rscale>
<asrwt>0</asrwt>
<pdfrwt beam="1">  1        2 0.77699821E-01 0.85543080E+03</pdfrwt>
<pdfrwt beam="2">  1       -2 0.55726664E-01 0.85543080E+03</pdfrwt>
<totfact> 0.22633317E+02</totfact>
</mgrwt>
<rwgt>
<wgt id='morphing_basis_vector_1'> +2.6556069e-04 </wgt>
<wgt id='morphing_basis_vector_2'> +1.6266472e-04 </wgt>
<wgt id='morphing_basis_vector_3'> +2.4405143e-04 </wgt>
<wgt id='morphing_basis_vector_4'> +1.3888198e-04 </wgt>
<wgt id='morphing_basis_vector_5'> +2.1918971e-04 </wgt>
</rwgt>
</event>
<event>
 4      1 +2.9741700e-06 8.20346900e+02 7.81860800e-03 8.87717200e-02
        2 -1    0    0  501    0 +0.0000000000e+00 +0.0000000000e+00 +5.0662663288e+02 5.0662663288e+02 0.0000000000e+00 0.0000e+00 1.0000e+00
       -2 -1    0    0    0  501 -0.0000000000e+00 -0.0000000000e+00 -3.3208329059e+02 3.3208329059e+02 0.0000000000e+00 0.0000e+00 -1.0000e+00
      -13  1    1    2    0    0 -2.9053209415e+01 +3.8167759615e+02 -6.3405620358e+01 3.8799761478e+02 0.0000000000e+00 0.0000e+00 -1.0000e+00
       13  1    1    2    0    0 +2.9053209415e+01 -3.8167759615e+02 +2.3794896265e+02 4.5071230869e+02 0.0000000000e+00 0.0000e+00 1.0000e+00
<mgrwt>
<rscale>  0 0.82034685E+03</rscale>
<asrwt>0</asrwt>
<pdfrwt beam="1">  1        2 0.77942558E-01 0.82034685E+03</pdfrwt>
<pdfrwt beam="2">  1       -2 0.51089737E-01 0.82034685E+03</pdfrwt>
<totfact> 0.26855226E+02</totfact>
</mgrwt>
<rwgt>
<wgt id='morphing_basis_vector_1'> +2.3024938e-04 </wgt>
<wgt id='morphing_basis_vector_2'> +1.4402952e-04 </wgt>
<wgt id='morphing_basis_vector_3'> +2.0816470e-04 </wgt>
<wgt id='morphing_basis_vector_4'> +1.1310107e-04 </wgt>
<wgt id='morphing_basis_vector_5'> +1.8138419e-04 </wgt>
</rwgt>
</event>
<event>
 4      1 +2.9741700e-06 8.48758900e+02 7.81860800e-03 8.84340900e-02
        2 -1    0    0  501    0 +0.0000000000e+00 +0.0000000000e+00 +3.6008600713e+02 3.6008600713e+02 0.0000000000e+00 0.0000e+00 -1.0000e+00
       -2 -1    0    0    0  501 -0.0000000000e+00 -0.0000000000e+00 -5.0015251277e+02 5.0015251277e+02 0.0000000000e+00 0.0000e+00 1.0000e+00
      -13  1    1    2    0    0 +2.8142231962e+02 -1.0127287733e+02 -3.7517537553e+02 4.7980337646e+02 0.0000000000e+00 0.0000e+00 1.0000e+00
       13  1    1    2    0    0 -2.8142231962e+02 +1.0127287733e+02 +2.3510886989e+02 3.8043514344e+02 0.0000000000e+00 0.0000e+00 -1.0000e+00
<mgrwt>
<rscale>  0 0.84875891E+03</rscale>
<asrwt>0</asrwt>
<pdfrwt beam="1">  1        2 0.55397847E-01 0.84875891E+03</pdfrwt>
<pdfrwt beam="2">  1       -2 0.76946541E-01 0.84875891E+03</pdfrwt>
<totfact> 0.16853390E+02</totfact>
</mgrwt>
<rwgt>
<wgt id='morphing_basis_vector_1'> +2.5816875e-04 </wgt>
<wgt id='morphing_basis_vector_2'> +1.5785194e-04 </wgt>
<wgt id='morphing_basis_vector_3'> +2.3664832e-04 </wgt>
<wgt id='morphing_basis_vector_4'> +1.3417454e-04 </wgt>
<wgt id='morphing_basis_vector_5'> +2.1162146e-04 </wgt>
</rwgt>
</event>
<event>
 4      1 +2.9741700e-06 7.94725400e+02 7.81860800e-03 8.90888200e-02
        2 -1    0    0  501    0 +0.0000000000e+00 +0.0000000000e+00 +1.4357881689e+02 1.4357881689e+02 0.0000000000e+00 0.0000e+00 -1.0000e+00
       -2 -1    0    0    0  501 -0.0000000000e+00 -0.0000000000e+00 -1.0997243350e+03 1.0997243350e+03 0.0000000000e+00 0.0000e+00 1.0000e+00
      -13  1    1    2    0    0 +3.3452556748e+02 -2.1284971124e+02 -4.3713440190e+02 5.9016848459e+02 0.0000000000e+00 0.0000e+00 1.0000e+00
       13  1    1    2    0    0 -3.3452556748e+02 +2.1284971124e+02 -5.1901111616e+02 6.5313466726e+02 0.0000000000e+00 0.0000e+00 -1.0000e+00
<mgrwt>
<rscale>  0 0.79472541E+03</rscale>
<asrwt>0</asrwt>
<pdfrwt beam="1">  1        2 0.22089049E-01 0.79472541E+03</pdfrwt>
<pdfrwt beam="2">  1       -2 0.16918836E+00 0.79472541E+03</pdfrwt>
<totfact> 0.64288818E+01</totfact>
</mgrwt>
<rwgt>
<wgt id='morphing_basis_vector_1'> +2.1306354e-04 </wgt>
<wgt id='morphing_basis_vector_2'> +1.5046551e-04 </wgt>
<wgt id='morphing_basis_vector_3'> +1.8811160e-04 </wgt>
<wgt id='morphing_basis_vector_4'> +8.8893001e-05 </wgt>
<wgt id='morphing_basis_vector_5'> +1.5660885e-04 </wgt>
</rwgt>
</event>
<event>
 4      1 +2.9741700e-06 7.67265700e+02 7.81860800e-03 8.94430600e-02
        2 -1    0    0  501    0 +0.0000000000e+00 +0.0000000000e+00 +7.4291567196e+02 7.4291567196e+02 0.0000000000e+00 0.0000e+00 -1.0000e+00
       -2 -1    0    0    0  501 -0.0000000000e+00 -0.0000000000e+00 -1.9810343812e+02 1.9810343812e+02 0.0000000000e+00 0.0000e+00 1.0000e+00
      -13  1    1    2    0    0 -2.2895145667e+02 -2.8899018294e+02 +4.0243411320e+02 5.4579053749e+02 0.0000000000e+00 0.0000e+00 1.0000e+00
       13  1    1    2    0    0 +2.2895145667e+02 +2.8899018294e+02 +1.4237812065e+02 3.9522857259e+02 0.0000000000e+00 0.0000e+00 -1.0000e+00
<mgrwt>
<rscale>  0 0.76726566E+03</rscale>
<asrwt>0</asrwt>
<pdfrwt beam="1">  1        2 0.11429472E+00 0.76726566E+03</pdfrwt>
<pdfrwt beam="2">  1       -2 0.30477452E-01 0.76726566E+03</pdfrwt>
<totfact> 0.44656398E+02</totfact>
</mgrwt>
<rwgt>
<wgt id='morphing_basis_vector_1'> +1.9655397e-04 </wgt>
<wgt id='morphing_basis_vector_2'> +1.5776688e-04 </wgt>
<wgt id='morphing_basis_vector_3'> +1.6793692e-04 </wgt>
<wgt id='morphing_basis_vector_4'> +6.5917295e-05 </wgt>
<wgt id='morphing_basis_vector_5'> +1.3289532e-04 </wgt>
</rwgt>
</event>
<event>
 4      1 +2.9741700e-06 7.91905000e+02 7.81860800e-03 8.91245000e-02
        2 -1    0    0  501    0 +0.0000000000e+00 +0.0000000000e+00 +1.6127983207e+02 1.6127983207e+02 0.0000000000e+00 0.0000e+00 -1.0000e+00
       -2 -1    0    0    0  501 -0.0000000000e+00 -0.0000000000e+00 -9.7208911857e+02 9.7208911857e+02 0.0000000000e+00 0.0000e+00 1.0000e+00
      -13  1    1    2    0    0 +1.6524780117e+02 -4.3027591644e+01 -9.1668356176e+02 9.3245212308e+02 0.0000000000e+00 0.0000e+00 1.0000e+00
       13  1    1    2    0    0 -1.6524780117e+02 +4.3027591644e+01 +1.0587427527e+02 2.0091682756e+02 0.0000000000e+00 0.0000e+00 -1.0000e+00
<mgrwt>
<rscale>  0 0.79190497E+03</rscale>
<asrwt>0</asrwt>
<pdfrwt beam="1">  1        2 0.24812282E-01 0.79190497E+03</pdfrwt>
<pdfrwt beam="2">  1       -2 0.14955217E+00 0.79190497E+03</pdfrwt>
<totfact> 0.80499102E+01</totfact>
</mgrwt>
<rwgt>
<wgt id='morphing_basis_vector_1'> +2.0146221e-04 </wgt>
<wgt id='morphing_basis_vector_2'> +1.2112023e-04 </wgt>
<wgt id='morphing_basis_vector_3'> +1.8029490e-04 </wgt>
<wgt id='morphing_basis_vector_4'> +9.8638895e-05 </wgt>
<wgt id='morphing_basis_vector_5'> +1.5455066e-04 </wgt>
</rwgt>
</event>
<event>
 4      1 +2.9741700e-06 8.05064200e+02 7.81860800e-03 8.89593600e-02
        2 -1    0    0  501    0 +0.0000000000e+00 +0.0000000000e+00 +4.2430438745e+02 4.2430438745e+02 0.0000000000e+00 0.0000e+00 -1.0000e+00
       -2 -1    0    0    0  501 -0.0000000000e+00 -0.0000000000e+00 -3.8187705127e+02 3.8187705127e+02 0.0000000000e+00 0.0000e+00 1.0000e+00
      -13  1    1    2    0    0 +1.7877008346e+02 -1.5972588366e+02 -3.0259400643e+02 3.8604952193e+02 0.0000000000e+00 0.0000e+00 1.0000e+00
       13  1    1    2    0    0 -1.7877008346e+02 +1.5972588366e+02 +3.4502134260e+02 4.2013191679e+02 0.0000000000e+00 0.0000e+00 -1.0000e+00
<mgrwt>
<rscale>  0 0.80506424E+03</rscale>
<asrwt>0</asrwt>
<pdfrwt beam="1">  1        2 0.65277598E-01 0.80506424E+03</pdfrwt>
<pdfrwt beam="2">  1       -2 0.58750315E-01 0.80506424E+03</pdfrwt>
<totfact> 0.24850344E+02</totfact>
</mgrwt>
<rwgt>
<wgt id='morphing_basis_vector_1'> +2.1364761e-04 </wgt>
<wgt id='morphing_basis_vector_2'> +1.2903496e-04 </wgt>
<wgt id='morphing_basis_vector_3'> +1.9232288e-04 </wgt>
<wgt id='morphing_basis_vector_4'> +1.0613724e-04 </wgt>
<wgt id='morphing_basis_vector_5'> +1.6662655e-04 </wgt>
</rwgt>
</event>
<event>
 4      1 +2.9741700e-06 8.06717500e+02 7.81860800e-03 8.89388500e-02
        2 -1    0    0  501    0 +0.0000000000e+00 +0.0000000000e+00 +8.3113148609e+02 8.3113148609e+02 0.0000000000e+00 0.0000e+00 -1.0000e+00
       -2 -1    0    0    0  501 -0.0000000000e+00 -0.0000000000e+00 -1.9575516593e+02 1.9575516593e+02 0.0000000000e+00 0.0000e+00 1.0000e+00
      -13  1    1    2    0    0 +2.3716952022e+02 +1.1912673503e+02 -6.8947931720e+01 2.7421593245e+02 0.0000000000e+00 0.0000e+00 1.0000e+00
       13  1    1    2    0    0 -2.3716952022e+02 -1.1912673503e+02 +7.0432425188e+02 7.5267071957e+02 0.0000000000e+00 0.0000e+00 -1.0000e+00
<mgrwt>
<rscale>  0 0.80671750E+03</rscale>
<asrwt>0</asrwt>
<pdfrwt beam="1">  1        2 0.12786638E+00 0.80671750E+03</pdfrwt>
<pdfrwt beam="2">  1       -2 0.30116180E-01 0.80671750E+03</pdfrwt>
<totfact> 0.39469673E+02</totfact>
</mgrwt>
<rwgt>
<wgt id='morphing_basis_vector_1'> +2.1527523e-04 </wgt>
<wgt id='morphing_basis_vector_2'> +1.3023102e-04 </wgt>
<wgt id='morphing_basis_vector_3'> +1.9391130e-04 </wgt>
<wgt id='morphing_basis_vector_4'> +1.0703515e-04 </wgt>
<wgt id='morphing_basis_vector_5'> +1.6818703e-04 </wgt>
</rwgt>
</event>
<event>
 4      1 +2.9741700e-06 7.81588800e+02 7.81860800e-03 8.92563600e-02
        2 -1    0    0  501    0 +0.0000000000e+00 +0.0000000000e+00 +7.3966796630e+02 7.3966796630e+02 0.0000000000e+00 0.0000e+00 -1.0000e+00
       -2 -1    0    0    0  501 -0.0000000000e+00 -0.0000000000e+00 -2.0647140245e+02 2.0647140245e+02 0.0000000000e+00 0.0000e+00 1.0000e+00
      -13  1    1    2    0    0 -2.4514275033e+02 -3.0089920602e+02 +3.2187317705e+02 5.0421983532e+02 0.0000000000e+00 0.0000e+00 1.0000e+00
       13  1    1    2    0    0 +2.4514275033e+02 +3.0089920602e+02 +2.1132338680e+02 4.4191953344e+02 0.0000000000e+00 0.0000e+00 -1.0000e+00
<mgrwt>
<rscale>  0 0.78158885E+03</rscale>
<asrwt>0</asrwt>
<pdfrwt beam="1">  1        2 0.11379507E+00 0.78158885E+03</pdfrwt>
<pdfrwt beam="2">  1       -2 0.31764832E-01 0.78158885E+03</pdfrwt>
<totfact> 0.41697305E+02</totfact>
</mgrwt>
<rwgt>
<wgt id='morphing_basis_vector_1'> +2.0254071e-04 </wgt>
<wgt id='morphing_basis_vector_2'> +1.4659303e-04 </wgt>
<wgt id='morphing_basis_vector_3'> +1.7697462e-04 </wgt>
<wgt id='morphing_basis_vector_4'> +8.0455556e-05 </wgt>
<wgt id='morphing_basis_vector_5'> +1.4502764e-04 </wgt>
</rwgt>
</event>
<event>
 4      1 +2.9741700e-06 8.38186300e+02 7.81860800e-03 8.85580700e-02
        2 -1    0    0  501    0 +0.0000000000e+00 +0.0000000000e+00 +2.1885496275e+02 2.1885496275e+02 0.0000000000e+00 0.0000e+00 -1.0000e+00
       -2 -1    0    0    0  501 -0.0000000000e+00 -0.0000000000e+00 -8.0253635476e+02 8.0253635476e+02 0.0000000000e+00 0.0000e+00 1.0000e+00
      -13  1    1    2    0    0 -3.3885129661e+01 +2.5497025500e+02 -6.9504118347e+02 7.4110746836e+02 0.0000000000e+00 0.0000e+00 1.0000e+00
       13  1    1    2    0    0 +3.3885129661e+01 -2.5497025500e+02 +1.1135979146e+02 2.8028384916e+02 0.0000000000e+00 0.0000e+00 -1.0000e+00
<mgrwt>
<rscale>  0 0.83818629E+03</rscale>
<asrwt>0</asrwt>
<pdfrwt beam="1">  1        2 0.33669994E-01 0.83818629E+03</pdfrwt>
<pdfrwt beam="2">  1       -2 0.12346713E+00 0.83818629E+03</pdfrwt>
<totfact> 0.94962026E+01</totfact>
</mgrwt>
<rwgt>
<wgt id='morphing_basis_vector_1'> +2.4668186e-04 </wgt>
<wgt id='morphing_basis_vector_2'> +1.5013842e-04 </wgt>
<wgt id='morphing_basis_vector_3'> +2.2520074e-04 </wgt>
<wgt id='morphing_basis_vector_4'> +1.2709012e-04 </wgt>
<wgt id='morphing_basis_vector_5'> +2.0002389e-04 </wgt>
</rwgt>
</event>
<event>
 4      1 +2.9741700e-06 7.92058200e+02 7.81860800e-03 8.91225600e-02
        2 -1    0    0  501    0 +0.0000000000e+00 +0.0000000000e+00 +2.7289877243e+02 2.7289877243e+02 0.0000000000e+00 0.0000e+00 -1.0000e+00
       -2 -1    0    0    0  501 -0.0000000000e+00 -0.0000000000e+00 -5.7471515470e+02 5.7471515470e+02 0.0000000000e+00 0.0000e+00 1.0000e+00
      -13  1    1    2    0    0 -3.1601076394e+02 -2.3670783460e+02 -1.8381669197e+02 4.3552494548e+02 0.0000000000e+00 0.0000e+00 1.0000e+00
       13  1    1    2    0    0 +3.1601076394e+02 +2.3670783460e+02 -1.1799969030e+02 4.1208898165e+02 0.0000000000e+00 0.0000e+00 -1.0000e+00
<mgrwt>
<rscale>  0 0.79205823E+03</rscale>
<asrwt>0</asrwt>
<pdfrwt beam="1">  1        2 0.41984428E-01 0.79205823E+03</pdfrwt>
<pdfrwt beam="2">  1       -2 0.88417714E-01 0.79205823E+03</pdfrwt>
<totfact> 0.16826936E+02</totfact>
</mgrwt>
<rwgt>
<wgt id='morphing_basis_vector_1'> +2.0690733e-04 </wgt>
<wgt id='morphing_basis_vector_2'> +1.3746789e-04 </wgt>
<wgt id='morphing_basis_vector_3'> +1.8350626e-04 </wgt>
<wgt id='morphing_basis_vector_4'> +9.2103251e-05 </wgt>
<wgt id='morphing_basis_vector_5'> +1.5441190e-04 </wgt>
</rwgt>
</event>
<event>
 4      1 +2.9741700e-06 7.78681500e+02 7.81860800e-03 8.92939100e-02
        2 -1    0    0  501    0 +0.0000000000e+00 +0.0000000000e+00 +1.1837005934e+03 1.1837005934e+03 0.0000000000e+00 0.0000e+00 -1.0000e+00
       -2 -1    0    0    0  501 -0.0000000000e+00 -0.0000000000e+00 -1.2806129292e+02 1.2806129292e+02 0.0000000000e+00 0.0000e+00 1.0000e+00
      -13  1    1    2    0    0 -3.4665701677e+02 -9.1134322080e+00 +2.2963190082e+02 4.1591459676e+02 0.0000000000e+00 0.0000e+00 1.0000e+00
       13  1    1    2    0    0 +3.4665701677e+02 +9.1134322080e+00 +8.2600739966e+02 8.9584728956e+02 0.0000000000e+00 0.0000e+00 -1.0000e+00
<mgrwt>
<rscale>  0 0.77868152E+03</rscale>
<asrwt>0</asrwt>
<pdfrwt beam="1">  1        2 0.18210778E+00 0.77868152E+03</pdfrwt>
<pdfrwt beam="2">  1       -2 0.19701738E-01 0.77868152E+03</pdfrwt>
<totfact> 0.49312387E+02</totfact>
</mgrwt>
<rwgt>
<wgt id='morphing_basis_vector_1'> +1.9084432e-04 </wgt>
<wgt id='morphing_basis_vector_2'> +1.1683866e-04 </wgt>
<wgt id='morphing_basis_vector_3'> +1.6938920e-04 </wgt>
<wgt id='morphing_basis_vector_4'> +9.0187773e-05 </wgt>
<wgt id='morphing_basis_vector_5'> +1.4300995e-04 </wgt>
</rwgt>
</event>
<event>
 4      1 +2.9741700e-06 8.02093900e+02 7.81860800e-03 8.89963400e-02
        2 -1    0    0  501    0 +0.0000000000e+00 +0.0000000000e+00 +2.3541002863e+03 2.3541002863e+03 0.0000000000e+00 0.0000e+00 1.0000e+00
       -2 -1    0    0    0  501 -0.0000000000e+00 -0.0000000000e+00 -6.8322763957e+01 6.8322763957e+01 0.0000000000e+00 0.0000e+00 -1.0000e+00
      -13  1    1    2    0    0 +5.6057655923e+01 +3.9700595900e+02 +1.1154661132e+03 1.1853357507e+03 0.0000000000e+00 0.0000e+00 -1.0000e+00
       13  1    1    2    0    0 -5.6057655923e+01 -3.9700595900e+02 +1.1703114091e+03 1.2370872995e+03 0.0000000000e+00 0.0000e+00 1.0000e+00
<mgrwt>
<rscale>  0 0.80209386E+03</rscale>
<asrwt>0</asrwt>
<pdfrwt beam="1">  1        2 0.36216921E+00 0.80209386E+03</pdfrwt>
<pdfrwt beam="2">  1       -2 0.10511196E-01 0.80209386E+03</pdfrwt>
<totfact> 0.30248875E+02</totfact>
</mgrwt>
<rwgt>
<wgt id='morphing_basis_vector_1'> +2.1759904e-04 </wgt>
<wgt id='morphing_basis_vector_2'> +1.4788480e-04 </wgt>
<wgt id='morphing_basis_vector_3'> +1.9361412e-04 </wgt>
<wgt id='morphing_basis_vector_4'> +9.5861896e-05 </wgt>
<wgt id='morphing_basis_vector_5'> +1.6347656e-04 </wgt>
</rwgt>
</event>
<event>
 4      1 +2.9741700e-06 8.12070700e+02 7.81860800e-03 8.88727900e-02
        2 -1    0    0  501    0 +0.0000000000e+00 +0.0000000000e+00 +1.9657756909e+02 1.9657756909e+02 0.0000000000e+00 0.0000e+00 -1.0000e+00
       -2 -1    0    0    0  501 -0.0000000000e+00 -0.0000000000e+00 -8.3867504999e+02 8.3867504999e+02 0.0000000000e+00 0.0000e+00 1.0000e+00
      -13  1    1    2    0    0 +2.9955619253e+02 -8.9956868709e+00 -6.7029154414e+02 7.3423810104e+02 0.0000000000e+00 0.0000e+00 1.0000e+00
       13  1    1    2    0    0 -2.9955619253e+02 +8.9956868709e+00 +2.8194063244e+01 3.0101451804e+02 0.0000000000e+00 0.0000e+00 -1.0000e+00
<mgrwt>
<rscale>  0 0.81207069E+03</rscale>
<asrwt>0</asrwt>
<pdfrwt beam="1">  1        2 0.30242703E-01 0.81207069E+03</pdfrwt>
<pdfrwt beam="2">  1       -2 0.12902693E+00 0.81207069E+03</pdfrwt>
<totfact> 0.95827717E+01</totfact>
</mgrwt>
<rwgt>
<wgt id='morphing_basis_vector_1'> +2.2054578e-04 </wgt>
<wgt id='morphing_basis_vector_2'> +1.3395803e-04 </wgt>
<wgt id='morphing_basis_vector_3'> +1.9908517e-04 </wgt>
<wgt id='morphing_basis_vector_4'> +1.1006349e-04 </wgt>
<wgt id='morphing_basis_vector_5'> +1.7331545e-04 </wgt>
</rwgt>
</event>
<event>
 4      1 +2.9741700e-06 7.59983900e+02 7.81860800e-03 8.95396500e-02
        2 -1    0    0  501    0 +0.0000000000e+00 +0.0000000000e+00 +1.7286267558e+03 1.7286267558e+03 0.0000000000e+00 0.0000e+00 1.0000e+00
       -2 -1    0    0    0  501 -0.0000000000e+00 -0.0000000000e+00 -8.3530980748e+01 8.3530980748e+01 0.0000000000e+00 0.0000e+00 -1.0000e+00
      -13  1    1    2    0    0 -5.1242043922e+01 +3.5064857913e+02 +1.1496089764e+03 1.2029883506e+03 0.0000000000e+00 0.0000e+00 1.0000e+00
       13  1    1    2    0    0 +5.1242043922e+01 -3.5064857913e+02 +4.9548679863e+02 6.0916938591e+02 0.0000000000e+00 0.0000e+00 -1.0000e+00
<mgrwt>
<rscale>  0 0.75998392E+03</rscale>
<asrwt>0</asrwt>
<pdfrwt beam="1">  1        2 0.26594255E+00 0.75998392E+03</pdfrwt>
<pdfrwt beam="2">  1       -2 0.12850921E-01 0.75998392E+03</pdfrwt>
<totfact> 0.49181915E+02</totfact>
</mgrwt>
<rwgt>
<wgt id='morphing_basis_vector_1'> +1.9495714e-04 </wgt>
<wgt id='morphing_basis_vector_2'> +1.6733977e-04 </wgt>
<wgt id='morphing_basis_vector_3'> +1.6403887e-04 </wgt>
<wgt id='morphing_basis_vector_4'> +5.7402246e-05 </wgt>
<wgt id='morphing_basis_vector_5'> +1.2696685e-04 </wgt>
</rwgt>
</event>
<event>
 4      1 +2.9741700e-06 7.89720100e+02 7.81860800e-03 8.91522500e-02
        2 -1    0    0  501    0 +0.0000000000e+00 +0.0000000000e+00 +2.7707533507e+02 2.7707533507e+02 0.0000000000e+00 0.0000e+00 -1.0000e+00
       -2 -1    0    0    0  501 -0.0000000000e+00 -0.0000000000e+00 -5.6271503586e+02 5.6271503586e+02 0.0000000000e+00 0.0000e+00 1.0000e+00
      -13  1    1    2    0    0 -2.8484675916e+02 +1.8339462757e+02 -3.5851813440e+02 4.9326110562e+02 0.0000000000e+00 0.0000e+00 1.0000e+00
       13  1    1    2    0    0 +2.8484675916e+02 -1.8339462757e+02 +7.2878433611e+01 3.4652926530e+02 0.0000000000e+00 0.0000e+00 -1.0000e+00
<mgrwt>
<rscale>  0 0.78972009E+03</rscale>
<asrwt>0</asrwt>
<pdfrwt beam="1">  1        2 0.42626975E-01 0.78972009E+03</pdfrwt>
<pdfrwt beam="2">  1       -2 0.86571543E-01 0.78972009E+03</pdfrwt>
<totfact> 0.17371796E+02</totfact>
</mgrwt>
<rwgt>
<wgt id='morphing_basis_vector_1'> +2.0027648e-04 </wgt>
<wgt id='morphing_basis_vector_2'> +1.2224470e-04 </wgt>
<wgt id='morphing_basis_vector_3'> +1.7880529e-04 </wgt>
<wgt id='morphing_basis_vector_4'> +9.6457841e-05 </wgt>
<wgt id='morphing_basis_vector_5'> +1.5256810e-04 </wgt>
</rwgt>
</event>
<event>
 4      1 +2.9741700e-06 7.85371400e+02 7.81860800e-03 8.92077600e-02
        2 -1    0    0  501    0 +0.0000000000e+00 +0.0000000000e+00 +2.4843185991e+02 2.4843185991e+02 0.0000000000e+00 0.0000e+00 -1.0000e+00
       -2 -1    0    0    0  501 -0.0000000000e+00 -0.0000000000e+00 -6.2070167901e+02 6.2070167901e+02 0.0000000000e+00 0.0000e+00 1.0000e+00
      -13  1    1    2    0    0 -6.0131110777e+01 +3.7036118355e+02 -3.1432962480e+02 4.8947550479e+02 0.0000000000e+00 0.0000e+00 1.0000e+00
       13  1    1    2    0    0 +6.0131110777e+01 -3.7036118355e+02 -5.7940194304e+01 3.7965803413e+02 0.0000000000e+00 0.0000e+00 -1.0000e+00
<mgrwt>
<rscale>  0 0.78537143E+03</rscale>
<asrwt>0</asrwt>
<pdfrwt beam="1">  1        2 0.38220287E-01 0.78537143E+03</pdfrwt>
<pdfrwt beam="2">  1       -2 0.95492565E-01 0.78537143E+03</pdfrwt>
<totfact> 0.15639111E+02</totfact>
</mgrwt>
<rwgt>
<wgt id='morphing_basis_vector_1'> +1.9781825e-04 </wgt>
<wgt id='morphing_basis_vector_2'> +1.2407732e-04 </wgt>
<wgt id='morphing_basis_vector_3'> +1.7578485e-04 </wgt>
<wgt id='morphing_basis_vector_4'> +9.2344626e-05 </wgt>
<wgt id='morphing_basis_vector_5'> +1.4868403e-04 </wgt>
</rwgt>
</event>
<event>
 4      1 +2.9741700e-06 8.60773700e+02 7.81860800e-03 8.82954800e-02
        2 -1    0    0  501    0 +0.0000000000e+00 +0.0000000000e+00 +3.0468005744e+03 3.0468005744e+03 0.0000000000e+00 0.0000e+00 -1.0000e+00
       -2 -1    0    0    0  501 -0.0000000000e+00 -0.0000000000e+00 -6.0795858317e+01 6.0795858317e+01 0.0000000000e+00 0.0000e+00 1.0000e+00
      -13  1    1    2    0    0 +3.7263383308e+02 -3.3172356899e+01 +7.2480657026e+02 8.1565982070e+02 0.0000000000e+00 0.0000e+00 1.0000e+00
       13  1    1    2    0    0 -3.7263383308e+02 +3.3172356899e+01 +2.2611981458e+03 2.2919366120e+03 0.0000000000e+00 0.0000e+00 -1.0000e+00
<mgrwt>
<rscale>  0 0.86077374E+03</rscale>
<asrwt>0</asrwt>
<pdfrwt beam="1">  1        2 0.46873843E+00 0.86077374E+03</pdfrwt>
<pdfrwt beam="2">  1       -2 0.93532113E-02 0.86077374E+03</pdfrwt>
<totfact> 0.13739105E+02</totfact>
</mgrwt>
<rwgt>
<wgt id='morphing_basis_vector_1'> +2.7244252e-04 </wgt>
<wgt id='morphing_basis_vector_2'> +1.6917577e-04 </wgt>
<wgt id='morphing_basis_vector_3'> +2.5071188e-04 </wgt>
<wgt id='morphing_basis_vector_4'> +1.4158533e-04 </wgt>
<wgt id='morphing_basis_vector_5'> +2.2533311e-04 </wgt>
</rwgt>
</event>
<event>
 4      1 +2.9741700e-06 7.82962700e+02 7.81860800e-03 8.92386800e-02
        2 -1    0    0  501    0 +0.0000000000e+00 +0.0000000000e+00 +1.4176727431e+03 1.4176727431e+03 0.0000000000e+00 0.0000e+00 -1.0000e+00
       -2 -1    0    0    0  501 -0.0000000000e+00 -0.0000000000e+00 -1.0810510339e+02 1.0810510339e+02 0.0000000000e+00 0.0000e+00 1.0000e+00
      -13  1    1    2    0    0 -3.3430112158e+01 -3.2977183118e+02 +2.4885660287e+02 4.1448358451e+02 0.0000000000e+00 0.0000e+00 1.0000e+00
       13  1    1    2    0    0 +3.3430112158e+01 +3.2977183118e+02 +1.0607110369e+03 1.1112942620e+03 0.0000000000e+00 0.0000e+00 -1.0000e+00
<mgrwt>
<rscale>  0 0.78296273E+03</rscale>
<asrwt>0</asrwt>
<pdfrwt beam="1">  1        2 0.21810349E+00 0.78296273E+03</pdfrwt>
<pdfrwt beam="2">  1       -2 0.16631555E-01 0.78296273E+03</pdfrwt>
<totfact> 0.48023980E+02</totfact>
</mgrwt>
<rwgt>
<wgt id='morphing_basis_vector_1'> +1.9422027e-04 </wgt>
<wgt id='morphing_basis_vector_2'> +1.1817707e-04 </wgt>
<wgt id='morphing_basis_vector_3'> +1.7286227e-04 </wgt>
<wgt id='morphing_basis_vector_4'> +9.2877807e-05 </wgt>
<wgt id='morphing_basis_vector_5'> +1.4667613e-04 </wgt>
</rwgt>
</event>
<event>
 4      1 +2.9741700e-06 8.13271800e+02 7.81860800e-03 8.88580500e-02
        2 -1    0    0  501    0 +0.0000000000e+00 +0.0000000000e+00 +3.5183783039e+02 3.5183783039e+02 0.0000000000e+00 0.0000e+00 -1.0000e+00
       -2 -1    0    0    0  501 -0.0000000000e+00 -0.0000000000e+00 -4.6996862851e+02 4.6996862851e+02 0.0000000000e+00 0.0000e+00 1.0000e+00
      -13  1    1    2    0    0 +7.9575006352e+01 +3.9664770998e+02 -1.7510179864e+01 4.0492986290e+02 0.0000000000e+00 0.0000e+00 1.0000e+00
       13  1    1    2    0    0 -7.9575006352e+01 -3.9664770998e+02 -1.0062061825e+02 4.1687659599e+02 0.0000000000e+00 0.0000e+00 -1.0000e+00
<mgrwt>
<rscale>  0 0.81327177E+03</rscale>
<asrwt>0</asrwt>
<pdfrwt beam="1">  1        2 0.54128897E-01 0.81327177E+03</pdfrwt>
<pdfrwt beam="2">  1       -2 0.72302865E-01 0.81327177E+03</pdfrwt>
<totfact> 0.19868722E+02</totfact>
</mgrwt>
<rwgt>
<wgt id='morphing_basis_vector_1'> +2.3254838e-04 </wgt>
<wgt id='morphing_basis_vector_2'> +1.6786863e-04 </wgt>
<wgt id='morphing_basis_vector_3'> +2.0701169e-04 </wgt>
<wgt id='morphing_basis_vector_4'> +9.6852643e-05 </wgt>
<wgt id='morphing_basis_vector_5'> +1.7386574e-04 </wgt>
</rwgt>
</event>
<event>
 4      1 +2.9741700e-06 7.70269900e+02 7.81860800e-03 8.94035400e-02
        2 -1    0    0  501    0 +0.0000000000e+00 +0.0000000000e+00 +9.4947823340e+02 9.4947823340e+02 0.0000000000e+00 0.0000e+00 -1.0000e+00
       -2 -1    0    0    0  501 -0.0000000000e+00 -0.0000000000e+00 -1.5622151625e+02 1.5622151625e+02 0.0000000000e+00 0.0000e+00 1.0000e+00
      -13  1    1    2    0    0 +3.5608778829e+02 +1.4663868556e+01 +6.0620404552e+02 7.0320472611e+02 0.0000000000e+00 0.0000e+00 -1.0000e+00
       13  1    1    2    0    0 -3.5608778829e+02 -1.4663868556e+01 +1.8705267162e+02 4.0249502354e+02 0.0000000000e+00 0.0000e+00 1.0000e+00
<mgrwt>
<rscale>  0 0.77026990E+03</rscale>
<asrwt>0</asrwt>
<pdfrwt beam="1">  1        2 0.14607357E+00 0.77026990E+03</pdfrwt>
<pdfrwt beam="2">  1       -2 0.24034080E-01 0.77026990E+03</pdfrwt>
<totfact> 0.48908820E+02</totfact>
</mgrwt>
<rwgt>
<wgt id='morphing_basis_vector_1'> +2.0563313e-04 </wgt>
<wgt id='morphing_basis_vector_2'> +1.7954638e-04 </wgt>
<wgt id='morphing_basis_vector_3'> +1.7398748e-04 </wgt>
<wgt id='morphing_basis_vector_4'> +5.9404612e-05 </wgt>
<wgt id='morphing_basis_vector_5'> +1.3500975e-04 </wgt>
</rwgt>
</event>
<event>
 4      1 +2.9741700e-06 7.57980800e+02 7.81860800e-03 8.95664200e-02
        2 -1    0    0  501    0 +0.0000000000e+00 +0.0000000000e+00 +3.4589896310e+02 3.4589896310e+02 0.0000000000e+00 0.0000e+00 -1.0000e+00
       -2 -1    0    0    0  501 -0.0000000000e+00 -0.0000000000e+00 -4.1524767107e+02 4.1524767107e+02 0.0000000000e+00 0.0000e+00 1.0000e+00
      -13  1    1    2    0    0 -2.3122681839e+02 -2.9553240595e+02 -8.8080072215e+01 3.8543915685e+02 0.0000000000e+00 0.0000e+00 1.0000e+00
       13  1    1    2    0    0 +2.3122681839e+02 +2.9553240595e+02 +1.8731364236e+01 3.7570747732e+02 0.0000000000e+00 0.0000e+00 -1.0000e+00
<mgrwt>
<rscale>  0 0.75798084E+03</rscale>
<asrwt>0</asrwt>
<pdfrwt beam="1">  1        2 0.53215225E-01 0.75798084E+03</pdfrwt>
<pdfrwt beam="2">  1       -2 0.63884257E-01 0.75798084E+03</pdfrwt>
<totfact> 0.26400513E+02</totfact>
</mgrwt>
<rwgt>
<wgt id='morphing_basis_vector_1'> +1.7628241e-04 </wgt>
<wgt id='morphing_basis_vector_2'> +1.1391579e-04 </wgt>
<wgt id='morphing_basis_vector_3'> +1.5382077e-04 </wgt>
<wgt id='morphing_basis_vector_4'> +7.6669690e-05 </wgt>
<wgt id='morphing_basis_vector_5'> +1.2616299e-04 </wgt>
</rwgt>
</event>
<event>
 4      1 +2.9741700e-06 7.78187100e+02 7.81860800e-03 8.93003100e-02
        2 -1    0    0  501    0 +0.0000000000e+00 +0.0000000000e+00 +1.1564460600e+03 1.1564460600e+03 0.0000000000e+00 0.0000e+00 1.0000e+00
       -2 -1    0    0    0  501 -0.0000000000e+00 -0.0000000000e+00 -1.3091298589e+02 1.3091298589e+02 0.0000000000e+00 0.0000e+00 -1.0000e+00
      -13  1    1    2    0    0 +1.0030236435e+02 -2.6449684312e+02 +7.0801746523e+01 2.9160252335e+02 0.0000000000e+00 0.0000e+00 -1.0000e+00
       13  1    1    2    0    0 -1.0030236435e+02 +2.6449684312e+02 +9.5473132758e+02 9.9575652254e+02 0.0000000000e+00 0.0000e+00 1.0000e+00
<mgrwt>
<rscale>  0 0.77818714E+03</rscale>
<asrwt>0</asrwt>
<pdfrwt beam="1">  1        2 0.17791477E+00 0.77818714E+03</pdfrwt>
<pdfrwt beam="2">  1       -2 0.20140460E-01 0.77818714E+03</pdfrwt>
<totfact> 0.49308747E+02</totfact>
</mgrwt>
<rwgt>
<wgt id='morphing_basis_vector_1'> +1.8965242e-04 </wgt>
<wgt id='morphing_basis_vector_2'> +1.1421595e-04 </wgt>
<wgt id='morphing_basis_vector_3'> +1.6854978e-04 </wgt>
<wgt id='morphing_basis_vector_4'> +9.0864070e-05 </wgt>
<wgt id='morphing_basis_vector_5'> +1.4262998e-04 </wgt>
</rwgt>
</event>
<event>
 4      1 +2.9741700e-06 7.93201400e+02 7.81860800e-03 8.91080800e-02
        2 -1    0    0  501    0 +0.0000000000e+00 +0.0000000000e+00 +1.9777365747e+03 1.9777365747e+03 0.0000000000e+00 0.0000e+00 -1.0000e+00
       -2 -1    0    0    0  501 -0.0000000000e+00 -0.0000000000e+00 -7.9531377199e+01 7.9531377199e+01 0.0000000000e+00 0.0000e+00 1.0000e+00
      -13  1    1    2    0    0 -3.7579284687e+02 +5.6750876952e+01 +6.5508114202e+02 7.5734551456e+02 0.0000000000e+00 0.0000e+00 1.0000e+00
       13  1    1    2    0    0 +3.7579284687e+02 -5.6750876952e+01 +1.2431240555e+03 1.2999224374e+03 0.0000000000e+00 0.0000e+00 -1.0000e+00
<mgrwt>
<rscale>  0 0.79320140E+03</rscale>
<asrwt>0</asrwt>
<pdfrwt beam="1">  1        2 0.30426713E+00 0.79320140E+03</pdfrwt>
<pdfrwt beam="2">  1       -2 0.12235598E-01 0.79320140E+03</pdfrwt>
<totfact> 0.38719523E+02</totfact>
</mgrwt>
<rwgt>
<wgt id='morphing_basis_vector_1'> +2.0496406e-04 </wgt>
<wgt id='morphing_basis_vector_2'> +1.2900902e-04 </wgt>
<wgt id='morphing_basis_vector_3'> +1.8280712e-04 </wgt>
<wgt id='morphing_basis_vector_4'> +9.6452822e-05 </wgt>
<wgt id='morphing_basis_vector_5'> +1.5559002e-04 </wgt>
</rwgt>
</event>
<event>
 4      1 +2.9741700e-06 8.31257000e+02 7.81860800e-03 8.86403900e-02
        2 -1    0    0  501    0 +0.0000000000e+00 +0.0000000000e+00 +1.4508706342e+03 1.4508706342e+03 0.0000000000e+00 0.0000e+00 -1.0000e+00
       -2 -1    0    0    0  501 -0.0000000000e+00 -0.0000000000e+00 -1.1906441651e+02 1.1906441651e+02 0.0000000000e+00 0.0000e+00 1.0000e+00
      -13  1    1    2    0    0 +2.0145821212e+02 -9.4545150221e+01 +1.3288702572e+03 1.3473753586e+03 0.0000000000e+00 0.0000e+00 -1.0000e+00
       13  1    1    2    0    0 -2.0145821212e+02 +9.4545150221e+01 +2.9359604923e+00 2.2255969205e+02 0.0000000000e+00 0.0000e+00 1.0000e+00
<mgrwt>
<rscale>  0 0.83125704E+03</rscale>
<asrwt>0</asrwt>
<pdfrwt beam="1">  1        2 0.22321085E+00 0.83125704E+03</pdfrwt>
<pdfrwt beam="2">  1       -2 0.18317604E-01 0.83125704E+03</pdfrwt>
<totfact> 0.39156102E+02</totfact>
</mgrwt>
<rwgt>
<wgt id='morphing_basis_vector_1'> +3.2126886e-04 </wgt>
<wgt id='morphing_basis_vector_2'> +3.9553353e-04 </wgt>
<wgt id='morphing_basis_vector_3'> +2.7207465e-04 </wgt>
<wgt id='morphing_basis_vector_4'> +1.4735414e-05 </wgt>
<wgt id='morphing_basis_vector_5'> +1.8767773e-04 </wgt>
</rwgt>
</event>
<event>
 4      1 +2.9741700e-06 8.53967800e+02 7.81860800e-03 8.83737000e-02
        2 -1    0    0  501    0 +0.0000000000e+00 +0.0000000000e+00 +1.2785794730e+03 1.2785794730e+03 0.0000000000e+00 0.0000e+00 -1.0000e+00
       -2 -1    0    0    0  501 -0.0000000000e+00 -0.0000000000e+00 -1.4259201983e+02 1.4259201983e+02 0.0000000000e+00 0.0000e+00 1.0000e+00
      -13  1    1    2    0    0 -1.8402006255e+02 +1.8010229873e+02 +1.1516180392e+00 2.5749086907e+02 0.0000000000e+00 0.0000e+00 1.0000e+00
       13  1    1    2    0    0 +1.8402006255e+02 -1.8010229873e+02 +1.1348358352e+03 1.1636806238e+03 0.0000000000e+00 0.0000e+00 -1.0000e+00
<mgrwt>
<rscale>  0 0.85396775E+03</rscale>
<asrwt>0</asrwt>
<pdfrwt beam="1">  1        2 0.19670453E+00 0.85396775E+03</pdfrwt>
<pdfrwt beam="2">  1       -2 0.21937235E-01 0.85396775E+03</pdfrwt>
<totfact> 0.36171664E+02</totfact>
</mgrwt>
<rwgt>
<wgt id='morphing_basis_vector_1'> +2.6373717e-04 </wgt>
<wgt id='morphing_basis_vector_2'> +1.6102404e-04 </wgt>
<wgt id='morphing_basis_vector_3'> +2.4228019e-04 </wgt>
<wgt id='morphing_basis_vector_4'> +1.3809500e-04 </wgt>
<wgt id='morphing_basis_vector_5'> +2.1752607e-04 </wgt>
</rwgt>
</event>
<event>
 4      1 +2.9741700e-06 8.36789200e+02 7.81860800e-03 8.85746000e-02
        2 -1    0    0  501    0 +0.0000000000e+00 +0.0000000000e+00 +1.9291629241e+03 1.9291629241e+03 0.0000000000e+00 0.0000e+00 1.0000e+00
       -2 -1    0    0    0  501 -0.0000000000e+00 -0.0000000000e+00 -9.0740940503e+01 9.0740940503e+01 0.0000000000e+00 0.0000e+00 -1.0000e+00
      -13  1    1    2    0    0 +3.1460452983e+02 -2.7346198065e+02 +1.0061303398e+03 1.0890618558e+03 0.0000000000e+00 0.0000e+00 -1.0000e+00
       13  1    1    2    0    0 -3.1460452983e+02 +2.7346198065e+02 +8.3229164380e+02 9.3084200882e+02 0.0000000000e+00 0.0000e+00 1.0000e+00
<mgrwt>
<rscale>  0 0.83678924E+03</rscale>
<asrwt>0</asrwt>
<pdfrwt beam="1">  1        2 0.29679427E+00 0.83678924E+03</pdfrwt>
<pdfrwt beam="2">  1       -2 0.13960146E-01 0.83678924E+03</pdfrwt>
<totfact> 0.33226644E+02</totfact>
</mgrwt>
<rwgt>
<wgt id='morphing_basis_vector_1'> +2.5683481e-04 </wgt>
<wgt id='morphing_basis_vector_2'> +1.8470461e-04 </wgt>
<wgt id='morphing_basis_vector_3'> +2.3154224e-04 </wgt>
<wgt id='morphing_basis_vector_4'> +1.1073663e-04 </wgt>
<wgt id='morphing_basis_vector_5'> +1.9780185e-04 </wgt>
</rwgt>
</event>
<event>
 4      1 +2.9741700e-06 8.94369500e+02 7.81860800e-03 8.79202100e-02
        2 -1    0    0  501    0 +0.0000000000e+00 +0.0000000000e+00 +4.7766254390e+02 4.7766254390e+02 0.0000000000e+00 0.0000e+00 1.0000e+00
       -2 -1    0    0    0  501 -0.0000000000e+00 -0.0000000000e+00 -4.1865160588e+02 4.1865160588e+02 0.0000000000e+00 0.0000e+00 -1.0000e+00
      -13  1    1    2    0    0 -1.0422149650e+02 +2.2386866237e+02 -3.4412536032e+02 4.2355821553e+02 0.0000000000e+00 0.0000e+00 -1.0000e+00
       13  1    1    2    0    0 +1.0422149650e+02 -2.2386866237e+02 +4.0313629835e+02 4.7275593425e+02 0.0000000000e+00 0.0000e+00 1.0000e+00
<mgrwt>
<rscale>  0 0.89436948E+03</rscale>
<asrwt>0</asrwt>
<pdfrwt beam="1">  1        2 0.73486545E-01 0.89436948E+03</pdfrwt>
<pdfrwt beam="2">  1       -2 0.64407939E-01 0.89436948E+03</pdfrwt>
<totfact> 0.17895665E+02</totfact>
</mgrwt>
<rwgt>
<wgt id='morphing_basis_vector_1'> +3.1157743e-04 </wgt>
<wgt id='morphing_basis_vector_2'> +1.9162287e-04 </wgt>
<wgt id='morphing_basis_vector_3'> +2.9048563e-04 </wgt>
<wgt id='morphing_basis_vector_4'> +1.6945648e-04 </wgt>
<wgt id='morphing_basis_vector_5'> +2.6736050e-04 </wgt>
</rwgt>
</event>
<event>
 4      1 +2.9741700e-06 7.96535500e+02 7.81860800e-03 8.90660100e-02
        2 -1    0    0  501    0 +0.0000000000e+00 +0.0000000000e+00 +1.0201775596e+03 1.0201775596e+03 0.0000000000e+00 0.0000e+00 -1.0000e+00
       -2 -1    0    0    0  501 -0.0000000000e+00 -0.0000000000e+00 -1.5548001191e+02 1.5548001191e+02 0.0000000000e+00 0.0000e+00 1.0000e+00
      -13  1    1    2    0    0 +1.4607653346e+02 -2.6659991401e+02 +5.2583131620e+01 3.0851070242e+02 0.0000000000e+00 0.0000e+00 1.0000e+00
       13  1    1    2    0    0 -1.4607653346e+02 +2.6659991401e+02 +8.1211441603e+02 8.6714686905e+02 0.0000000000e+00 0.0000e+00 -1.0000e+00
<mgrwt>
<rscale>  0 0.79653555E+03</rscale>
<asrwt>0</asrwt>
<pdfrwt beam="1">  1        2 0.15695039E+00 0.79653555E+03</pdfrwt>
<pdfrwt beam="2">  1       -2 0.23920002E-01 0.79653555E+03</pdfrwt>
<totfact> 0.44495007E+02</totfact>
</mgrwt>
<rwgt>
<wgt id='morphing_basis_vector_1'> +2.0600722e-04 </wgt>
<wgt id='morphing_basis_vector_2'> +1.2484391e-04 </wgt>
<wgt id='morphing_basis_vector_3'> +1.8464842e-04 </wgt>
<wgt id='morphing_basis_vector_4'> +1.0082918e-04 </wgt>
<wgt id='morphing_basis_vector_5'> +1.5870869e-04 </wgt>
</rwgt>
</event>
<event>
 4      1 +2.9741700e-06 8.23299400e+02 7.81860800e-03 8.87359600e-02
        2 -1    0    0  501    0 +0.0000000000e+00 +0.0000000000e+00 +2.8274551719e+03 2.8274551719e+03 0.0000000000e+00 0.0000e+00 1.0000e+00
       -2 -1    0    0    0  501 -0.0000000000e+00 -0.0000000000e+00 -5.9932154369e+01 5.9932154369e+01 0.0000000000e+00 0.0000e+00 -1.0000e+00
      -13  1    1    2    0    0 +6.4042924505e+00 -3.9914428601e+02 +1.0313326546e+03 1.1058952123e+03 0.0000000000e+00 0.0000e+00 -1.0000e+00
       13  1    1    2    0    0 -6.4042924505e+00 +3.9914428601e+02 +1.7361903629e+03 1.7814921140e+03 0.0000000000e+00 0.0000e+00 1.0000e+00
<mgrwt>
<rscale>  0 0.82329941E+03</rscale>
<asrwt>0</asrwt>
<pdfrwt beam="1">  1        2 0.43499300E+00 0.82329941E+03</pdfrwt>
<pdfrwt beam="2">  1       -2 0.92203337E-02 0.82329941E+03</pdfrwt>
<totfact> 0.19405330E+02</totfact>
</mgrwt>
<rwgt>
<wgt id='morphing_basis_vector_1'> +2.3446446e-04 </wgt>
<wgt id='morphing_basis_vector_2'> +1.4979185e-04 </wgt>
<wgt id='morphing_basis_vector_3'> +2.1192637e-04 </wgt>
<wgt id='morphing_basis_vector_4'> +1.1330544e-04 </wgt>
<wgt id='morphing_basis_vector_5'> +1.8428583e-04 </wgt>
</rwgt>
</event>
<event>
 4      1 +2.9741700e-06 7.90796800e+02 7.81860800e-03 8.91385600e-02
        2 -1    0    0  501    0 +0.0000000000e+00 +0.0000000000e+00 +1.3788885558e+03 1.3788885558e+03 0.0000000000e+00 0.0000e+00 -1.0000e+00
       -2 -1    0    0    0  501 -0.0000000000e+00 -0.0000000000e+00 -1.1338110084e+02 1.1338110084e+02 0.0000000000e+00 0.0000e+00 1.0000e+00
      -13  1    1    2    0    0 -1.6505079582e+02 +3.2985638469e+02 +9.0156933512e+02 9.7410177381e+02 0.0000000000e+00 0.0000e+00 1.0000e+00
       13  1    1    2    0    0 +1.6505079582e+02 -3.2985638469e+02 +3.6393811985e+02 5.1816788283e+02 0.0000000000e+00 0.0000e+00 -1.0000e+00
<mgrwt>
<rscale>  0 0.79079682E+03</rscale>
<asrwt>0</asrwt>
<pdfrwt beam="1">  1        2 0.21213669E+00 0.79079682E+03</pdfrwt>
<pdfrwt beam="2">  1       -2 0.17443247E-01 0.79079682E+03</pdfrwt>
<totfact> 0.46666286E+02</totfact>
</mgrwt>
<rwgt>
<wgt id='morphing_basis_vector_1'> +2.2422576e-04 </wgt>
<wgt id='morphing_basis_vector_2'> +1.9328596e-04 </wgt>
<wgt id='morphing_basis_vector_3'> +1.9301289e-04 </wgt>
<wgt id='morphing_basis_vector_4'> +6.8431367e-05 </wgt>
<wgt id='morphing_basis_vector_5'> +1.5233605e-04 </wgt>
</rwgt>
</event>
<event>
 4      1 +2.9741700e-06 7.67640100e+02 7.81860800e-03 8.94381200e-02
        2 -1    0    0  501    0 +0.0000000000e+00 +0.0000000000e+00 +1.4204492553e+03 1.4204492553e+03 0.0000000000e+00 0.0000e+00 -1.0000e+00
       -2 -1    0    0    0  501 -0.0000000000e+00 -0.0000000000e+00 -1.0371215048e+02 1.0371215048e+02 0.0000000000e+00 0.0000e+00 1.0000e+00
      -13  1    1    2    0    0 -3.8373776758e+02 +5.5621673546e+00 +6.6964147997e+02 7.7181948904e+02 0.0000000000e+00 0.0000e+00 1.0000e+00
       13  1    1    2    0    0 +3.8373776758e+02 -5.5621673546e+00 +6.4709562485e+02 7.5234191673e+02 0.0000000000e+00 0.0000e+00 -1.0000e+00
<mgrwt>
<rscale>  0 0.76764014E+03</rscale>
<asrwt>0</asrwt>
<pdfrwt beam="1">  1        2 0.21853064E+00 0.76764014E+03</pdfrwt>
<pdfrwt beam="2">  1       -2 0.15955716E-01 0.76764014E+03</pdfrwt>
<totfact> 0.51247615E+02</totfact>
</mgrwt>
<rwgt>
<wgt id='morphing_basis_vector_1'> +1.8720483e-04 </wgt>
<wgt id='morphing_basis_vector_2'> +1.2832337e-04 </wgt>
<wgt id='morphing_basis_vector_3'> +1.6319447e-04 </wgt>
<wgt id='morphing_basis_vector_4'> +7.7689019e-05 </wgt>
<wgt id='morphing_basis_vector_5'> +1.3363844e-04 </wgt>
</rwgt>
</event>
<event>
 4      1 +2.9741700e-06 7.85978600e+02 7.81860800e-03 8.91999900e-02
        2 -1    0    0  501    0 +0.0000000000e+00 +0.0000000000e+00 +1.1612437204e+03 1.1612437204e+03 0.0000000000e+00 0.0000e+00 -1.0000e+00
       -2 -1    0    0    0  501 -0.0000000000e+00 -0.0000000000e+00 -1.3299583918e+02 1.3299583918e+02 0.0000000000e+00 0.0000e+00 1.0000e+00
      -13  1    1    2    0    0 +1.5239086689e+02 -1.0608444809e+02 -5.6209554859e+01 1.9400103221e+02 0.0000000000e+00 0.0000e+00 1.0000e+00
       13  1    1    2    0    0 -1.5239086689e+02 +1.0608444809e+02 +1.0844574361e+03 1.1002385274e+03 0.0000000000e+00 0.0000e+00 -1.0000e+00
<mgrwt>
<rscale>  0 0.78597858E+03</rscale>
<asrwt>0</asrwt>
<pdfrwt beam="1">  1        2 0.17865287E+00 0.78597858E+03</pdfrwt>
<pdfrwt beam="2">  1       -2 0.20460899E-01 0.78597858E+03</pdfrwt>
<totfact> 0.47696808E+02</totfact>
</mgrwt>
<rwgt>
<wgt id='morphing_basis_vector_1'> +1.9619800e-04 </wgt>
<wgt id='morphing_basis_vector_2'> +1.1781178e-04 </wgt>
<wgt id='morphing_basis_vector_3'> +1.7509520e-04 </wgt>
<wgt id='morphing_basis_vector_4'> +9.5337833e-05 </wgt>
<wgt id='morphing_basis_vector_5'> +1.4932089e-04 </wgt>
</rwgt>
</event>
<event>
 4      1 +2.9741700e-06 8.34150000e+02 7.81860800e-03 8.86059200e-02
        2 -1    0    0  501    0 +0.0000000000e+00 +0.0000000000e+00 +1.7805495922e+02 1.7805495922e+02 0.0000000000e+00 0.0000e+00 1.0000e+00
       -2 -1    0    0    0  501 -0.0000000000e+00 -0.0000000000e+00 -9.7695422283e+02 9.7695422283e+02 0.0000000000e+00 0.0000e+00 -1.0000e+00
      -13  1    1    2    0    0 -4.1104536324e+02 +1.8346418128e+01 -4.9393807279e+02 6.4286056144e+02 0.0000000000e+00 0.0000e+00 -1.0000e+00
       13  1    1    2    0    0 +4.1104536324e+02 -1.8346418128e+01 -3.0496119082e+02 5.1214862062e+02 0.0000000000e+00 0.0000e+00 1.0000e+00
<mgrwt>
<rscale>  0 0.83414997E+03</rscale>
<asrwt>0</asrwt>
<pdfrwt beam="1">  1        2 0.27393071E-01 0.83414997E+03</pdfrwt>
<pdfrwt beam="2">  1       -2 0.15030065E+00 0.83414997E+03</pdfrwt>
<totfact> 0.70471653E+01</totfact>
</mgrwt>
<rwgt>
<wgt id='morphing_basis_vector_1'> +2.4696433e-04 </wgt>
<wgt id='morphing_basis_vector_2'> +1.6120854e-04 </wgt>
<wgt id='morphing_basis_vector_3'> +2.2398629e-04 </wgt>
<wgt id='morphing_basis_vector_4'> +1.1842881e-04 </wgt>
<wgt id='morphing_basis_vector_5'> +1.9543839e-04 </wgt>
</rwgt>
</event>
<event>
 4      1 +2.9741700e-06 8.34108500e+02 7.81860800e-03 8.86064100e-02
        2 -1    0    0  501    0 +0.0000000000e+00 +0.0000000000e+00 +8.7759052223e+02 8.7759052223e+02 0.0000000000e+00 0.0000e+00 1.0000e+00
       -2 -1    0    0    0  501 -0.0000000000e+00 -0.0000000000e+00 -1.9819523731e+02 1.9819523731e+02 0.0000000000e+00 0.0000e+00 -1.0000e+00
      -13  1    1    2    0    0 +1.2494505393e+02 -7.7409377284e+01 -1.6368364173e+02 2.1999048334e+02 0.0000000000e+00 0.0000e+00 -1.0000e+00
       13  1    1    2    0    0 -1.2494505393e+02 +7.7409377284e+01 +8.4307892665e+02 8.5579527619e+02 0.0000000000e+00 0.0000e+00 1.0000e+00
<mgrwt>
<rscale>  0 0.83410853E+03</rscale>
<asrwt>0</asrwt>
<pdfrwt beam="1">  1        2 0.13501392E+00 0.83410853E+03</pdfrwt>
<pdfrwt beam="2">  1       -2 0.30491575E-01 0.83410853E+03</pdfrwt>
<totfact> 0.35898802E+02</totfact>
</mgrwt>
<rwgt>
<wgt id='morphing_basis_vector_1'> +2.4229467e-04 </wgt>
<wgt id='morphing_basis_vector_2'> +1.4704383e-04 </wgt>
<wgt id='morphing_basis_vector_3'> +2.2085837e-04 </wgt>
<wgt id='morphing_basis_vector_4'> +1.2451696e-04 </wgt>
<wgt id='morphing_basis_vector_5'> +1.9567985e-04 </wgt>
</rwgt>
</event>
<event>
 4      1 +2.9741700e-06 8.12175400e+02 7.81860800e-03 8.88715100e-02
        2 -1    0    0  501    0 +0.0000000000e+00 +0.0000000000e+00 +1.7029319622e+03 1.7029319622e+03 0.0000000000e+00 0.0000e+00 1.0000e+00
       -2 -1    0    0    0  501 -0.0000000000e+00 -0.0000000000e+00 -9.6837231865e+01 9.6837231865e+01 0.0000000000e+00 0.0000e+00 -1.0000e+00
      -13  1    1    2    0    0 -2.7965201062e+02 -2.7683778928e+02 +5.8075395215e+02 7.0151233885e+02 0.0000000000e+00 0.0000e+00 -1.0000e+00
       13  1    1    2    0    0 +2.7965201062e+02 +2.7683778928e+02 +1.0253407782e+03 1.0982568552e+03 0.0000000000e+00 0.0000e+00 1.0000e+00
<mgrwt>
<rscale>  0 0.81217539E+03</rscale>
<asrwt>0</asrwt>
<pdfrwt beam="1">  1        2 0.26198951E+00 0.81217539E+03</pdfrwt>
<pdfrwt beam="2">  1       -2 0.14898037E-01 0.81217539E+03</pdfrwt>
<totfact> 0.39905872E+02</totfact>
</mgrwt>
<rwgt>
<wgt id='morphing_basis_vector_1'> +2.2333885e-04 </wgt>
<wgt id='morphing_basis_vector_2'> +1.4225961e-04 </wgt>
<wgt id='morphing_basis_vector_3'> +2.0086117e-04 </wgt>
<wgt id='morphing_basis_vector_4'> +1.0667008e-04 </wgt>
<wgt id='morphing_basis_vector_5'> +1.7326436e-04 </wgt>
</rwgt>
</event>
<event>
 4      1 +2.9741700e-06 8.28563200e+02 7.81860800e-03 8.86726100e-02
        2 -1    0    0  501    0 +0.0000000000e+00 +0.0000000000e+00 +6.6073721156e+02 6.6073721156e+02 0.0000000000e+00 0.0000e+00 -1.0000e+00
       -2 -1    0    0    0  501 -0.0000000000e+00 -0.0000000000e+00 -2.5975417464e+02 2.5975417464e+02 0.0000000000e+00 0.0000e+00 1.0000e+00
      -13  1    1    2    0    0 -3.5649570089e+02 +3.9013735212e+01 -2.9927940775e+01 3.5987072391e+02 0.0000000000e+00 0.0000e+00 1.0000e+00
       13  1    1    2    0    0 +3.5649570089e+02 -3.9013735212e+01 +4.3091097770e+02 5.6062066229e+02 0.0000000000e+00 0.0000e+00 -1.0000e+00
<mgrwt>
<rscale>  0 0.82856321E+03</rscale>
<asrwt>0</asrwt>
<pdfrwt beam="1">  1        2 0.10165188E+00 0.82856321E+03</pdfrwt>
<pdfrwt beam="2">  1       -2 0.39962181E-01 0.82856321E+03</pdfrwt>
<totfact> 0.31463007E+02</totfact>
</mgrwt>
<rwgt>
<wgt id='morphing_basis_vector_1'> +2.3758898e-04 </wgt>
<wgt id='morphing_basis_vector_2'> +1.4646671e-04 </wgt>
<wgt id='morphing_basis_vector_3'> +2.1582112e-04 </wgt>
<wgt id='morphing_basis_vector_4'> +1.1955132e-04 </wgt>
<wgt id='morphing_basis_vector_5'> +1.8981161e-04 </wgt>
</rwgt>
</event>
<event>
 4      1 +2.9741700e-06 7.87638100e+02 7.81860800e-03 8.91787800e-02
        2 -1    0    0  501    0 +0.0000000000e+00 +0.0000000000e+00 +2.3939641948e+03 2.3939641948e+03 0.0000000000e+00 0.0000e+00 -1.0000e+00
       -2 -1    0    0    0  501 -0.0000000000e+00 -0.0000000000e+00 -6.4785202563e+01 6.4785202563e+01 0.0000000000e+00 0.0000e+00 1.0000e+00
      -13  1    1    2    0    0 -2.2359228917e+02 +2.4623534719e+02 +5.0630775573e+02 6.0578288313e+02 0.0000000000e+00 0.0000e+00 1.0000e+00
       13  1    1    2    0    0 +2.2359228917e+02 -2.4623534719e+02 +1.8228712365e+03 1.8529665143e+03 0.0000000000e+00 0.0000e+00 -1.0000e+00
<mgrwt>
<rscale>  0 0.78763813E+03</rscale>
<asrwt>0</asrwt>
<pdfrwt beam="1">  1        2 0.36830212E+00 0.78763813E+03</pdfrwt>
<pdfrwt beam="2">  1       -2 0.99669561E-02 0.78763813E+03</pdfrwt>
<totfact> 0.31243090E+02</totfact>
</mgrwt>
<rwgt>
<wgt id='morphing_basis_vector_1'> +1.9832999e-04 </wgt>
<wgt id='morphing_basis_vector_2'> +1.2078089e-04 </wgt>
<wgt id='morphing_basis_vector_3'> +1.7692058e-04 </wgt>
<wgt id='morphing_basis_vector_4'> +9.5424994e-05 </wgt>
<wgt id='morphing_basis_vector_5'> +1.5073831e-04 </wgt>
</rwgt>
</event>
<event>
 4      1 +2.9741700e-06 8.61602900e+02 7.81860800e-03 8.82860000e-02
        2 -1    0    0  501    0 +0.0000000000e+00 +0.0000000000e+00 +1.1714589614e+03 1.1714589614e+03 0.0000000000e+00 0.0000e+00 1.0000e+00
       -2 -1    0    0    0  501 -0.0000000000e+00 -0.0000000000e+00 -1.5842628412e+02 1.5842628412e+02 0.0000000000e+00 0.0000e+00 -1.0000e+00
      -13  1    1    2    0    0 +1.7982547573e+02 +3.8871076133e+02 +5.7819585952e+02 7.1954409849e+02 0.0000000000e+00 0.0000e+00 1.0000e+00
       13  1    1    2    0    0 -1.7982547573e+02 -3.8871076133e+02 +4.3483681779e+02 6.1034114706e+02 0.0000000000e+00 0.0000e+00 -1.0000e+00
<mgrwt>
<rscale>  0 0.86160290E+03</rscale>
<asrwt>0</asrwt>
<pdfrwt beam="1">  1        2 0.18022445E+00 0.86160290E+03</pdfrwt>
<pdfrwt beam="2">  1       -2 0.24373275E-01 0.86160290E+03</pdfrwt>
<totfact> 0.34867142E+02</totfact>
</mgrwt>
<rwgt>
<wgt id='morphing_basis_vector_1'> +2.8629472e-04 </wgt>
<wgt id='morphing_basis_vector_2'> +2.0916260e-04 </wgt>
<wgt id='morphing_basis_vector_3'> +2.6093681e-04 </wgt>
<wgt id='morphing_basis_vector_4'> +1.2456253e-04 </wgt>
<wgt id='morphing_basis_vector_5'> +2.2543494e-04 </wgt>
</rwgt>
</event>
<event>
 4      1 +2.9741700e-06 7.90187400e+02 7.81860800e-03 8.91463100e-02
        2 -1    0    0  501    0 +0.0000000000e+00 +0.0000000000e+00 +1.7636181082e+03 1.7636181082e+03 0.0000000000e+00 0.0000e+00 -1.0000e+00
       -2 -1    0    0    0  501 -0.0000000000e+00 -0.0000000000e+00 -8.8510670573e+01 8.8510670573e+01 0.0000000000e+00 0.0000e+00 1.0000e+00
      -13  1    1    2    0    0 -3.0497988243e+02 +1.4819419770e+02 +3.6222632049e+02 4.9616746788e+02 0.0000000000e+00 0.0000e+00 1.0000e+00
       13  1    1    2    0    0 +3.0497988243e+02 -1.4819419770e+02 +1.3128811171e+03 1.3559613109e+03 0.0000000000e+00 0.0000e+00 -1.0000e+00
<mgrwt>
<rscale>  0 0.79018737E+03</rscale>
<asrwt>0</asrwt>
<pdfrwt beam="1">  1        2 0.27132584E+00 0.79018737E+03</pdfrwt>
<pdfrwt beam="2">  1       -2 0.13617028E-01 0.79018737E+03</pdfrwt>
<totfact> 0.42794740E+02</totfact>
</mgrwt>
<rwgt>
<wgt id='morphing_basis_vector_1'> +2.0069726e-04 </wgt>
<wgt id='morphing_basis_vector_2'> +1.2251949e-04 </wgt>
<wgt id='morphing_basis_vector_3'> +1.7922008e-04 </wgt>
<wgt id='morphing_basis_vector_4'> +9.6713254e-05 </wgt>
<wgt id='morphing_basis_vector_5'> +1.5298188e-04 </wgt>
</rwgt>
</event>
<event>
 4      1 +2.9741700e-06 8.48086500e+02 7.81860800e-03 8.84419200e-02
        2 -1    0    0  501    0 +0.0000000000e+00 +0.0000000000e+00 +1.6369680209e+02 1.6369680209e+02 0.0000000000e+00 0.0000e+00 -1.0000e+00
       -2 -1    0    0    0  501 -0.0000000000e+00 -0.0000000000e+00 -1.0984494591e+03 1.0984494591e+03 0.0000000000e+00 0.0000e+00 1.0000e+00
      -13  1    1    2    0    0 +5.9747469866e+01 -3.9625466781e+02 -2.6102639752e+02 4.7824920504e+02 0.0000000000e+00 0.0000e+00 1.0000e+00
       13  1    1    2    0    0 -5.9747469866e+01 +3.9625466781e+02 -6.7372625950e+02 7.8389705616e+02 0.0000000000e+00 0.0000e+00 -1.0000e+00
<mgrwt>
<rscale>  0 0.84808647E+03</rscale>
<asrwt>0</asrwt>
<pdfrwt beam="1">  1        2 0.25184123E-01 0.84808647E+03</pdfrwt>
<pdfrwt beam="2">  1       -2 0.16899223E+00 0.84808647E+03</pdfrwt>
<totfact> 0.55051450E+01</totfact>
</mgrwt>
<rwgt>
<wgt id='morphing_basis_vector_1'> +2.8476695e-04 </wgt>
<wgt id='morphing_basis_vector_2'> +2.4082537e-04 </wgt>
<wgt id='morphing_basis_vector_3'> +2.5486965e-04 </wgt>
<wgt id='morphing_basis_vector_4'> +9.6953386e-05 </wgt>
<wgt id='morphing_basis_vector_5'> +2.0910105e-04 </wgt>
</rwgt>
</event>
<event>
 4      1 +2.9741700e-06 7.95227300e+02 7.81860800e-03 8.90824900e-02
        2 -1    0    0  501    0 +0.0000000000e+00 +0.0000000000e+00 +7.6185137503e+02 7.6185137503e+02 0.0000000000e+00 0.0000e+00 1.0000e+00
       -2 -1    0    0    0  501 -0.0000000000e+00 -0.0000000000e+00 -2.0751637246e+02 2.0751637246e+02 0.0000000000e+00 0.0000e+00 -1.0000e+00
      -13  1    1    2    0    0 -3.8376625170e+02 -1.0378016800e+02 +2.6856745740e+02 4.7976592041e+02 0.0000000000e+00 0.0000e+00 -1.0000e+00
       13  1    1    2    0    0 +3.8376625170e+02 +1.0378016800e+02 +2.8576754517e+02 4.8960182708e+02 0.0000000000e+00 0.0000e+00 1.0000e+00
<mgrwt>
<rscale>  0 0.79522735E+03</rscale>
<asrwt>0</asrwt>
<pdfrwt beam="1">  1        2 0.11720790E+00 0.79522735E+03</pdfrwt>
<pdfrwt beam="2">  1       -2 0.31925596E-01 0.79522735E+03</pdfrwt>
<totfact> 0.39800607E+02</totfact>
</mgrwt>
<rwgt>
<wgt id='morphing_basis_vector_1'> +2.1118716e-04 </wgt>
<wgt id='morphing_basis_vector_2'> +1.4360861e-04 </wgt>
<wgt id='morphing_basis_vector_3'> +1.8720474e-04 </wgt>
<wgt id='morphing_basis_vector_4'> +9.2094254e-05 </wgt>
<wgt id='morphing_basis_vector_5'> +1.5718485e-04 </wgt>
</rwgt>
</event>
<event>
 4      1 +2.9741700e-06 8.31516000e+02 7.81860800e-03 8.86372900e-02
        2 -1    0    0  501    0 +0.0000000000e+00 +0.0000000000e+00 +8.5731548116e+02 8.5731548116e+02 0.0000000000e+00 0.0000e+00 1.0000e+00
       -2 -1    0    0    0  501 -0.0000000000e+00 -0.0000000000e+00 -2.0162323743e+02 2.0162323743e+02 0.0000000000e+00 0.0000e+00 -1.0000e+00
      -13  1    1    2    0    0 +6.0145499488e+00 +2.8463736221e+02 +7.1369907796e+02 7.6838855839e+02 0.0000000000e+00 0.0000e+00 1.0000e+00
       13  1    1    2    0    0 -6.0145499488e+00 -2.8463736221e+02 -5.8006834223e+01 2.9055016020e+02 0.0000000000e+00 0.0000e+00 -1.0000e+00
<mgrwt>
<rscale>  0 0.83151602E+03</rscale>
<asrwt>0</asrwt>
<pdfrwt beam="1">  1        2 0.13189469E+00 0.83151602E+03</pdfrwt>
<pdfrwt beam="2">  1       -2 0.31018960E-01 0.83151602E+03</pdfrwt>
<totfact> 0.35922499E+02</totfact>
</mgrwt>
<rwgt>
<wgt id='morphing_basis_vector_1'> +3.1071343e-04 </wgt>
<wgt id='morphing_basis_vector_2'> +3.6262588e-04 </wgt>
<wgt id='morphing_basis_vector_3'> +2.6522256e-04 </wgt>
<wgt id='morphing_basis_vector_4'> +2.9128085e-05 </wgt>
<wgt id='morphing_basis_vector_5'> +1.8860543e-04 </wgt>
</rwgt>
</event>
<event>
 4      1 +2.9741700e-06 8.32925900e+02 7.81860800e-03 8.86204800e-02
        2 -1    0    0  501    0 +0.0000000000e+00 +0.0000000000e+00 +1.5562456910e+02 1.5562456910e+02 0.0000000000e+00 0.0000e+00 1.0000e+00
       -2 -1    0    0    0  501 -0.0000000000e+00 -0.0000000000e+00 -1.1144858034e+03 1.1144858034e+03 0.0000000000e+00 0.0000e+00 -1.0000e+00
      -13  1    1    2    0    0 +2.4406288231e+02 -3.1671648255e+02 -3.0182747261e+02 5.0097489365e+02 0.0000000000e+00 0.0000e+00 -1.0000e+00
       13  1    1    2    0    0 -2.4406288231e+02 +3.1671648255e+02 -6.5703376165e+02 7.6913547883e+02 0.0000000000e+00 0.0000e+00 1.0000e+00
<mgrwt>
<rscale>  0 0.83292586E+03</rscale>
<asrwt>0</asrwt>
<pdfrwt beam="1">  1        2 0.23942243E-01 0.83292586E+03</pdfrwt>
<pdfrwt beam="2">  1       -2 0.17145935E+00 0.83292586E+03</pdfrwt>
<totfact> 0.55970144E+01</totfact>
</mgrwt>
<rwgt>
<wgt id='morphing_basis_vector_1'> +2.6328145e-04 </wgt>
<wgt id='morphing_basis_vector_2'> +2.1414162e-04 </wgt>
<wgt id='morphing_basis_vector_3'> +2.3439229e-04 </wgt>
<wgt id='morphing_basis_vector_4'> +9.4414558e-05 </wgt>
<wgt id='morphing_basis_vector_5'> +1.9306670e-04 </wgt>
</rwgt>
</event>
<event>
 4      1 +2.9741700e-06 8.91972400e+02 7.81860800e-03 8.79464100e-02
        2 -1    0    0  501    0 +0.0000000000e+00 +0.0000000000e+00 +2.7839590683e+03 2.7839590683e+03 0.0000000000e+00 0.0000e+00 1.0000e+00
       -2 -1    0    0    0  501 -0.0000000000e+00 -0.0000000000e+00 -7.1446340791e+01 7.1446340791e+01 0.0000000000e+00 0.0000e+00 -1.0000e+00
      -13  1    1    2    0    0 -3.6512530043e+02 -6.0110915609e+01 +2.1531873465e+03 2.1847529737e+03 0.0000000000e+00 0.0000e+00 1.0000e+00
       13  1    1    2    0    0 +3.6512530043e+02 +6.0110915609e+01 +5.5932538104e+02 6.7065243537e+02 0.0000000000e+00 0.0000e+00 -1.0000e+00
<mgrwt>
<rscale>  0 0.89197239E+03</rscale>
<asrwt>0</asrwt>
<pdfrwt beam="1">  1        2 0.42830131E+00 0.89197239E+03</pdfrwt>
<pdfrwt beam="2">  1       -2 0.10991747E-01 0.89197239E+03</pdfrwt>
<totfact> 0.15539201E+02</totfact>
</mgrwt>
<rwgt>
<wgt id='morphing_basis_vector_1'> +3.7299510e-04 </wgt>
<wgt id='morphing_basis_vector_2'> +3.8589438e-04 </wgt>
<wgt id='morphing_basis_vector_3'> +3.3715272e-04 </wgt>
<wgt id='morphing_basis_vector_4'> +7.6563613e-05 </wgt>
<wgt id='morphing_basis_vector_5'> +2.5945195e-04 </wgt>
</rwgt>
</event>
<event>
 4      1 +2.9741700e-06 7.94931600e+02 7.81860800e-03 8.90862200e-02
        2 -1    0    0  501    0 +0.0000000000e+00 +0.0000000000e+00 +1.2746200783e+03 1.2746200783e+03 0.0000000000e+00 0.0000e+00 -1.0000e+00
       -2 -1    0    0    0  501 -0.0000000000e+00 -0.0000000000e+00 -1.2394207139e+02 1.2394207139e+02 0.0000000000e+00 0.0000e+00 1.0000e+00
      -13  1    1    2    0    0 +3.0951162371e+02 -1.0287680759e+02 +1.7569957440e+02 3.7047459183e+02 0.0000000000e+00 0.0000e+00 1.0000e+00
       13  1    1    2    0    0 -3.0951162371e+02 +1.0287680759e+02 +9.7497843254e+02 1.0280875579e+03 0.0000000000e+00 0.0000e+00 -1.0000e+00
<mgrwt>
<rscale>  0 0.79493158E+03</rscale>
<asrwt>0</asrwt>
<pdfrwt beam="1">  1        2 0.19609539E+00 0.79493158E+03</pdfrwt>
<pdfrwt beam="2">  1       -2 0.19068012E-01 0.79493158E+03</pdfrwt>
<totfact> 0.46121574E+02</totfact>
</mgrwt>
<rwgt>
<wgt id='morphing_basis_vector_1'> +2.0476343e-04 </wgt>
<wgt id='morphing_basis_vector_2'> +1.2458507e-04 </wgt>
<wgt id='morphing_basis_vector_3'> +1.8332955e-04 </wgt>
<wgt id='morphing_basis_vector_4'> +9.9641686e-05 </wgt>
<wgt id='morphing_basis_vector_5'> +1.5724162e-04 </wgt>
</rwgt>
</event>
<event>
 4      1 +2.9741700e-06 8.71376300e+02 7.81860800e-03 8.81751300e-02
        2 -1    0    0  501    0 +0.0000000000e+00 +0.0000000000e+00 +1.9297685880e+03 1.9297685880e+03 0.0000000000e+00 0.0000e+00 -1.0000e+00
       -2 -1    0    0    0  501 -0.0000000000e+00 -0.0000000000e+00 -9.8366290143e+01 9.8366290143e+01 0.0000000000e+00 0.0000e+00 1.0000e+00
      -13  1    1    2    0    0 -1.8927813875e+02 +3.6298857907e+02 +5.6861949474e+02 7.0065330381e+02 0.0000000000e+00 0.0000e+00 1.0000e+00
       13  1    1    2    0    0 +1.8927813875e+02 -3.6298857907e+02 +1.2627828031e+03 1.3274815743e+03 0.0000000000e+00 0.0000e+00 -1.0000e+00
<mgrwt>
<rscale>  0 0.87137633E+03</rscale>
<asrwt>0</asrwt>
<pdfrwt beam="1">  1        2 0.29688745E+00 0.87137633E+03</pdfrwt>
<pdfrwt beam="2">  1       -2 0.15133277E-01 0.87137633E+03</pdfrwt>
<totfact> 0.29065002E+02</totfact>
</mgrwt>
<rwgt>
<wgt id='morphing_basis_vector_1'> +2.8607730e-04 </wgt>
<wgt id='morphing_basis_vector_2'> +1.8127985e-04 </wgt>
<wgt id='morphing_basis_vector_3'> +2.6406759e-04 </wgt>
<wgt id='morphing_basis_vector_4'> +1.4760497e-04 </wgt>
<wgt id='morphing_basis_vector_5'> +2.3791633e-04 </wgt>
</rwgt>
</event>
<event>
 4      1 +2.9741700e-06 7.70610500e+02 7.81860800e-03 8.93990800e-02
        2 -1    0    0  501    0 +0.0000000000e+00 +0.0000000000e+00 +1.9474546728e+03 1.9474546728e+03 0.0000000000e+00 0.0000e+00 1.0000e+00
       -2 -1    0    0    0  501 -0.0000000000e+00 -0.0000000000e+00 -7.6232910194e+01 7.6232910194e+01 0.0000000000e+00 0.0000e+00 -1.0000e+00
      -13  1    1    2    0    0 -2.7669495813e+02 +6.2130083378e+01 +1.6206105227e+03 1.6452351544e+03 0.0000000000e+00 0.0000e+00 1.0000e+00
       13  1    1    2    0    0 +2.7669495813e+02 -6.2130083378e+01 +2.5061123992e+02 3.7845242857e+02 0.0000000000e+00 0.0000e+00 -1.0000e+00
<mgrwt>
<rscale>  0 0.77061050E+03</rscale>
<asrwt>0</asrwt>
<pdfrwt beam="1">  1        2 0.29960837E+00 0.77061050E+03</pdfrwt>
<pdfrwt beam="2">  1       -2 0.11728141E-01 0.77061050E+03</pdfrwt>
<totfact> 0.43115942E+02</totfact>
</mgrwt>
<rwgt>
<wgt id='morphing_basis_vector_1'> +2.3242700e-04 </wgt>
<wgt id='morphing_basis_vector_2'> +2.6105838e-04 </wgt>
<wgt id='morphing_basis_vector_3'> +1.8835734e-04 </wgt>
<wgt id='morphing_basis_vector_4'> +2.7582320e-05 </wgt>
<wgt id='morphing_basis_vector_5'> +1.3404951e-04 </wgt>
</rwgt>
</event>
<event>
 4      1 +2.9741700e-06 8.07586300e+02 7.81860800e-03 8.89280900e-02
        2 -1    0    0  501    0 +0.0000000000e+00 +0.0000000000e+00 +1.3351497906e+03 1.3351497906e+03 0.0000000000e+00 0.0000e+00 1.0000e+00
       -2 -1    0    0    0  501 -0.0000000000e+00 -0.0000000000e+00 -1.2212030144e+02 1.2212030144e+02 0.0000000000e+00 0.0000e+00 -1.0000e+00
      -13  1    1    2    0    0 +3.5817023378e+02 +3.5764845741e+01 +9.3670849443e+02 1.0034878395e+03 0.0000000000e+00 0.0000e+00 1.0000e+00
       13  1    1    2    0    0 -3.5817023378e+02 -3.5764845741e+01 +2.7632099472e+02 4.5378225249e+02 0.0000000000e+00 0.0000e+00 -1.0000e+00
<mgrwt>
<rscale>  0 0.80758627E+03</rscale>
<asrwt>0</asrwt>
<pdfrwt beam="1">  1        2 0.20540765E+00 0.80758627E+03</pdfrwt>
<pdfrwt beam="2">  1       -2 0.18787740E-01 0.80758627E+03</pdfrwt>
<totfact> 0.43646981E+02</totfact>
</mgrwt>
<rwgt>
<wgt id='morphing_basis_vector_1'> +2.4980378e-04 </wgt>
<wgt id='morphing_basis_vector_2'> +2.3391589e-04 </wgt>
<wgt id='morphing_basis_vector_3'> +2.1538409e-04 </wgt>
<wgt id='morphing_basis_vector_4'> +6.4545040e-05 </wgt>
<wgt id='morphing_basis_vector_5'> +1.6713770e-04 </wgt>
</rwgt>
</event>
<event>
 4      1 +2.9741700e-06 8.27673100e+02 7.81860800e-03 8.86832900e-02
        2 -1    0    0  501    0 +0.0000000000e+00 +0.0000000000e+00 +4.3276310924e+02 4.3276310924e+02 0.0000000000e+00 0.0000e+00 -1.0000e+00
       -2 -1    0    0    0  501 -0.0000000000e+00 -0.0000000000e+00 -3.9573770649e+02 3.9573770649e+02 0.0000000000e+00 0.0000e+00 1.0000e+00
      -13  1    1    2    0    0 -3.4512040347e+02 +8.9820248618e+01 +2.2868675148e+02 4.2364301039e+02 0.0000000000e+00 0.0000e+00 1.0000e+00
       13  1    1    2    0    0 +3.4512040347e+02 -8.9820248618e+01 -1.9166134872e+02 4.0485780535e+02 0.0000000000e+00 0.0000e+00 -1.0000e+00
<mgrwt>
<rscale>  0 0.82767308E+03</rscale>
<asrwt>0</asrwt>
<pdfrwt beam="1">  1        2 0.66578940E-01 0.82767308E+03</pdfrwt>
<pdfrwt beam="2">  1       -2 0.60882724E-01 0.82767308E+03</pdfrwt>
<totfact> 0.22567890E+02</totfact>
</mgrwt>
<rwgt>
<wgt id='morphing_basis_vector_1'> +2.7872104e-04 </wgt>
<wgt id='morphing_basis_vector_2'> +2.7439497e-04 </wgt>
<wgt id='morphing_basis_vector_3'> +2.4240846e-04 </wgt>
<wgt id='morphing_basis_vector_4'> +6.3861907e-05 </wgt>
<wgt id='morphing_basis_vector_5'> +1.8635908e-04 </wgt>
</rwgt>
</event>
<event>
 4      1 +2.9741700e-06 8.30373000e+02 7.81860800e-03 8.86509500e-02
        2 -1    0    0  501    0 +0.0000000000e+00 +0.0000000000e+00 +1.5318279137e+02 1.5318279137e+02 0.0000000000e+00 0.0000e+00 1.0000e+00
       -2 -1    0    0    0  501 -0.0000000000e+00 -0.0000000000e+00 -1.1253210557e+03 1.1253210557e+03 0.0000000000e+00 0.0000e+00 -1.0000e+00
      -13  1    1    2    0    0 -7.1722038794e+01 -3.7406651796e+02 -7.4051169379e+02 8.3272287068e+02 0.0000000000e+00 0.0000e+00 -1.0000e+00
       13  1    1    2    0    0 +7.1722038794e+01 +3.7406651796e+02 -2.3162657050e+02 4.4578097634e+02 0.0000000000e+00 0.0000e+00 1.0000e+00
<mgrwt>
<rscale>  0 0.83037298E+03</rscale>
<asrwt>0</asrwt>
<pdfrwt beam="1">  1        2 0.23566584E-01 0.83037298E+03</pdfrwt>
<pdfrwt beam="2">  1       -2 0.17312631E+00 0.83037298E+03</pdfrwt>
<totfact> 0.55367129E+01</totfact>
</mgrwt>
<rwgt>
<wgt id='morphing_basis_vector_1'> +2.4012192e-04 </wgt>
<wgt id='morphing_basis_vector_2'> +1.4973048e-04 </wgt>
<wgt id='morphing_basis_vector_3'> +2.1812023e-04 </wgt>
<wgt id='morphing_basis_vector_4'> +1.1983395e-04 </wgt>
<wgt id='morphing_basis_vector_5'> +1.9165125e-04 </wgt>
</rwgt>
</event>
<event>
 4      1 +2.9741700e-06 8.36768000e+02 7.81860800e-03 8.85748500e-02
        2 -1    0    0  501    0 +0.0000000000e+00 +0.0000000000e+00 +3.5909319132e+02 3.5909319132e+02 0.0000000000e+00 0.0000e+00 1.0000e+00
       -2 -1    0    0    0  501 -0.0000000000e+00 -0.0000000000e+00 -4.8746451333e+02 4.8746451333e+02 0.0000000000e+00 0.0000e+00 -1.0000e+00
      -13  1    1    2    0    0 +1.8329966906e+02 -2.7016730455e+02 -3.2888776324e+02 4.6341806388e+02 0.0000000000e+00 0.0000e+00 -1.0000e+00
       13  1    1    2    0    0 -1.8329966906e+02 +2.7016730455e+02 +2.0051644123e+02 3.8313964077e+02 0.0000000000e+00 0.0000e+00 1.0000e+00
<mgrwt>
<rscale>  0 0.83676804E+03</rscale>
<asrwt>0</asrwt>
<pdfrwt beam="1">  1        2 0.55245106E-01 0.83676804E+03</pdfrwt>
<pdfrwt beam="2">  1       -2 0.74994540E-01 0.83676804E+03</pdfrwt>
<totfact> 0.17907177E+02</totfact>
</mgrwt>
<rwgt>
<wgt id='morphing_basis_vector_1'> +2.4556507e-04 </wgt>
<wgt id='morphing_basis_vector_2'> +1.5032768e-04 </wgt>
<wgt id='morphing_basis_vector_3'> +2.2396248e-04 </wgt>
<wgt id='morphing_basis_vector_4'> +1.2563918e-04 </wgt>
<wgt id='morphing_basis_vector_5'> +1.9847934e-04 </wgt>
</rwgt>
</event>
<event>
 4      1 +2.9741700e-06 8.49359400e+02 7.81860800e-03 8.84271000e-02
        2 -1    0    0  501    0 +0.0000000000e+00 +0.0000000000e+00 +1.3022040676e+03 1.3022040676e+03 0.0000000000e+00 0.0000e+00 1.0000e+00
       -2 -1    0    0    0  501 -0.0000000000e+00 -0.0000000000e+00 -1.3849813080e+02 1.3849813080e+02 0.0000000000e+00 0.0000e+00 -1.0000e+00
      -13  1    1    2    0    0 +1.3118246298e+02 +3.9385172068e+02 +4.2990314534e+02 5.9761587232e+02 0.0000000000e+00 0.0000e+00 1.0000e+00
       13  1    1    2    0    0 -1.3118246298e+02 -3.9385172068e+02 +7.3380279150e+02 8.4308632612e+02 0.0000000000e+00 0.0000e+00 -1.0000e+00
<mgrwt>
<rscale>  0 0.84935936E+03</rscale>
<asrwt>0</asrwt>
<pdfrwt beam="1">  1        2 0.20033908E+00 0.84935936E+03</pdfrwt>
<pdfrwt beam="2">  1       -2 0.21307406E-01 0.84935936E+03</pdfrwt>
<totfact> 0.36839884E+02</totfact>
</mgrwt>
<rwgt>
<wgt id='morphing_basis_vector_1'> +2.6264359e-04 </wgt>
<wgt id='morphing_basis_vector_2'> +1.6993069e-04 </wgt>
<wgt id='morphing_basis_vector_3'> +2.3996337e-04 </wgt>
<wgt id='morphing_basis_vector_4'> +1.2945436e-04 </wgt>
<wgt id='morphing_basis_vector_5'> +2.1204683e-04 </wgt>
</rwgt>
</event>
<event>
 4      1 +2.9741700e-06 7.65032500e+02 7.81860800e-03 8.94725600e-02
        2 -1    0    0  501    0 +0.0000000000e+00 +0.0000000000e+00 +2.0521393817e+02 2.0521393817e+02 0.0000000000e+00 0.0000e+00 -1.0000e+00
       -2 -1    0    0    0  501 -0.0000000000e+00 -0.0000000000e+00 -7.1300555153e+02 7.1300555153e+02 0.0000000000e+00 0.0000e+00 1.0000e+00
      -13  1    1    2    0    0 -3.0833708358e+02 -2.2627599271e+02 -2.4574699312e+02 4.5460330686e+02 0.0000000000e+00 0.0000e+00 1.0000e+00
       13  1    1    2    0    0 +3.0833708358e+02 +2.2627599271e+02 -2.6204462025e+02 4.6361618283e+02 0.0000000000e+00 0.0000e+00 -1.0000e+00
<mgrwt>
<rscale>  0 0.76503249E+03</rscale>
<asrwt>0</asrwt>
<pdfrwt beam="1">  1        2 0.31571375E-01 0.76503249E+03</pdfrwt>
<pdfrwt beam="2">  1       -2 0.10969316E+00 0.76503249E+03</pdfrwt>
<totfact> 0.13903654E+02</totfact>
</mgrwt>
<rwgt>
<wgt id='morphing_basis_vector_1'> +1.8505236e-04 </wgt>
<wgt id='morphing_basis_vector_2'> +1.2694351e-04 </wgt>
<wgt id='morphing_basis_vector_3'> +1.6104780e-04 </wgt>
<wgt id='morphing_basis_vector_4'> +7.6421775e-05 </wgt>
<wgt id='morphing_basis_vector_5'> +1.3155302e-04 </wgt>
</rwgt>
</event>
<event>
 4      1 +2.9741700e-06 8.95591500e+02 7.81860800e-03 8.79068900e-02
        2 -1    0    0  501    0 +0.0000000000e+00 +0.0000000000e+00 +1.0816064183e+02 1.0816064183e+02 0.0000000000e+00 0.0000e+00 -1.0000e+00
       -2 -1    0    0    0  501 -0.0000000000e+00 -0.0000000000e+00 -1.8539185539e+03 1.8539185539e+03 0.0000000000e+00 0.0000e+00 1.0000e+00
      -13  1    1    2    0    0 +3.2631716579e+02 +2.7351967209e+02 -1.1766462970e+03 1.2513162718e+03 0.0000000000e+00 0.0000e+00 1.0000e+00
       13  1    1    2    0    0 -3.2631716579e+02 -2.7351967209e+02 -5.6911161507e+02 7.1076292399e+02 0.0000000000e+00 0.0000e+00 -1.0000e+00
<mgrwt>
<rscale>  0 0.89559147E+03</rscale>
<asrwt>0</asrwt>
<pdfrwt beam="1">  1        2 0.16640100E-01 0.89559147E+03</pdfrwt>
<pdfrwt beam="2">  1       -2 0.28521821E+00 0.89559147E+03</pdfrwt>
<totfact> 0.13487306E+01</totfact>
</mgrwt>
<rwgt>
<wgt id='morphing_basis_vector_1'> +3.1634332e-04 </wgt>
<wgt id='morphing_basis_vector_2'> +2.0241948e-04 </wgt>
<wgt id='morphing_basis_vector_3'> +2.9455347e-04 </wgt>
<wgt id='morphing_basis_vector_4'> +1.6591879e-04 </wgt>
<wgt id='morphing_basis_vector_5'> +2.6874641e-04 </wgt>
</rwgt>
</event>
<event>
 4      1 +2.9741700e-06 7.87490400e+02 7.81860800e-03 8.91806700e-02
        2 -1    0    0  501    0 +0.0000000000e+00 +0.0000000000e+00 +6.7249272437e+02 6.7249272437e+02 0.0000000000e+00 0.0000e+00 -1.0000e+00
       -2 -1    0    0    0  501 -0.0000000000e+00 -0.0000000000e+00 -2.3053825133e+02 2.3053825133e+02 0.0000000000e+00 0.0000e+00 1.0000e+00
      -13  1    1    2    0    0 -1.3743080789e+02 +9.2499876175e+01 -1.8863112585e+02 2.5104811429e+02 0.0000000000e+00 0.0000e+00 1.0000e+00
       13  1    1    2    0    0 +1.3743080789e+02 -9.2499876175e+01 +6.3058559889e+02 6.5198286142e+02 0.0000000000e+00 0.0000e+00 -1.0000e+00
<mgrwt>
<rscale>  0 0.78749044E+03</rscale>
<asrwt>0</asrwt>
<pdfrwt beam="1">  1        2 0.10346042E+00 0.78749044E+03</pdfrwt>
<pdfrwt beam="2">  1       -2 0.35467424E-01 0.78749044E+03</pdfrwt>
<totfact> 0.38428723E+02</totfact>
</mgrwt>
<rwgt>
<wgt id='morphing_basis_vector_1'> +1.9752084e-04 </wgt>
<wgt id='morphing_basis_vector_2'> +1.1861920e-04 </wgt>
<wgt id='morphing_basis_vector_3'> +1.7640511e-04 </wgt>
<wgt id='morphing_basis_vector_4'> +9.6184231e-05 </wgt>
<wgt id='morphing_basis_vector_5'> +1.5064326e-04 </wgt>
</rwgt>
</event>
<event>
 4      1 +2.9741700e-06 8.99434000e+02 7.81860800e-03 8.78651400e-02
        2 -1    0    0  501    0 +0.0000000000e+00 +0.0000000000e+00 +1.4892386027e+02 1.4892386027e+02 0.0000000000e+00 0.0000e+00 -1.0000e+00
       -2 -1    0    0    0  501 -0.0000000000e+00 -0.0000000000e+00 -1.3580454730e+03 1.3580454730e+03 0.0000000000e+00 0.0000e+00 1.0000e+00
      -13  1    1    2    0    0 -1.4903164529e+02 -2.1205651458e+02 -1.2203183075e+03 1.2475396460e+03 0.0000000000e+00 0.0000e+00 1.0000e+00
       13  1    1    2    0    0 +1.4903164529e+02 +2.1205651458e+02 +1.1196694779e+01 2.5942968729e+02 0.0000000000e+00 0.0000e+00 -1.0000e+00
<mgrwt>
<rscale>  0 0.89943399E+03</rscale>
<asrwt>0</asrwt>
<pdfrwt beam="1">  1        2 0.22911363E-01 0.89943399E+03</pdfrwt>
<pdfrwt beam="2">  1       -2 0.20893007E+00 0.89943399E+03</pdfrwt>
<totfact> 0.30911050E+01</totfact>
</mgrwt>
<rwgt>
<wgt id='morphing_basis_vector_1'> +3.1804968e-04 </wgt>
<wgt id='morphing_basis_vector_2'> +1.9584597e-04 </wgt>
<wgt id='morphing_basis_vector_3'> +2.9702945e-04 </wgt>
<wgt id='morphing_basis_vector_4'> +1.7368195e-04 </wgt>
<wgt id='morphing_basis_vector_5'> +2.7414037e-04 </wgt>
</rwgt>
</event>
<event>
 4      1 +2.9741700e-06 7.90351500e+02 7.81860800e-03 8.91442200e-02
        2 -1    0    0  501    0 +0.0000000000e+00 +0.0000000000e+00 +3.8002137873e+02 3.8002137873e+02 0.0000000000e+00 0.0000e+00 -1.0000e+00
       -2 -1    0    0    0  501 -0.0000000000e+00 -0.0000000000e+00 -4.1093441524e+02 4.1093441524e+02 0.0000000000e+00 0.0000e+00 1.0000e+00
      -13  1    1    2    0    0 -2.8022546171e+01 +3.8438959955e+02 -1.0283442141e+02 3.9889289986e+02 0.0000000000e+00 0.0000e+00 1.0000e+00
       13  1    1    2    0    0 +2.8022546171e+01 -3.8438959955e+02 +7.1921384889e+01 3.9206289411e+02 0.0000000000e+00 0.0000e+00 -1.0000e+00
<mgrwt>
<rscale>  0 0.79035147E+03</rscale>
<asrwt>0</asrwt>
<pdfrwt beam="1">  1        2 0.58464828E-01 0.79035147E+03</pdfrwt>
<pdfrwt beam="2">  1       -2 0.63220679E-01 0.79035147E+03</pdfrwt>
<totfact> 0.24226538E+02</totfact>
</mgrwt>
<rwgt>
<wgt id='morphing_basis_vector_1'> +2.0308441e-04 </wgt>
<wgt id='morphing_basis_vector_2'> +1.2947732e-04 </wgt>
<wgt id='morphing_basis_vector_3'> +1.8065496e-04 </wgt>
<wgt id='morphing_basis_vector_4'> +9.4016405e-05 </wgt>
<wgt id='morphing_basis_vector_5'> +1.5301199e-04 </wgt>
</rwgt>
</event>
<event>
 4      1 +2.9741700e-06 7.96327700e+02 7.81860800e-03 8.90686200e-02
        2 -1    0    0  501    0 +0.0000000000e+00 +0.0000000000e+00 +3.8338900755e+02 3.8338900755e+02 0.0000000000e+00 0.0000e+00 1.0000e+00
       -2 -1    0    0    0  501 -0.0000000000e+00 -0.0000000000e+00 -4.1350807069e+02 4.1350807069e+02 0.0000000000e+00 0.0000e+00 -1.0000e+00
      -13  1    1    2    0    0 -9.2668800428e+01 +2.6535928584e+02 +2.6715521703e+02 3.8778211297e+02 0.0000000000e+00 0.0000e+00 1.0000e+00
       13  1    1    2    0    0 +9.2668800428e+01 -2.6535928584e+02 -2.9727428017e+02 4.0911496526e+02 0.0000000000e+00 0.0000e+00 -1.0000e+00
<mgrwt>
<rscale>  0 0.79632769E+03</rscale>
<asrwt>0</asrwt>
<pdfrwt beam="1">  1        2 0.58982925E-01 0.79632769E+03</pdfrwt>
<pdfrwt beam="2">  1       -2 0.63616626E-01 0.79632769E+03</pdfrwt>
<totfact> 0.23670604E+02</totfact>
</mgrwt>
<rwgt>
<wgt id='morphing_basis_vector_1'> +2.6428167e-04 </wgt>
<wgt id='morphing_basis_vector_2'> +3.0379633e-04 </wgt>
<wgt id='morphing_basis_vector_3'> +2.1888197e-04 </wgt>
<wgt id='morphing_basis_vector_4'> +2.7302309e-05 </wgt>
<wgt id='morphing_basis_vector_5'> +1.5542215e-04 </wgt>
</rwgt>
</event>
<event>
 4      1 +2.9741700e-06 8.09299800e+02 7.81860800e-03 8.89069200e-02
        2 -1    0    0  501    0 +0.0000000000e+00 +0.0000000000e+00 +1.9293701332e+02 1.9293701332e+02 0.0000000000e+00 0.0000e+00 1.0000e+00
       -2 -1    0    0    0  501 -0.0000000000e+00 -0.0000000000e+00 -8.4867883232e+02 8.4867883232e+02 0.0000000000e+00 0.0000e+00 -1.0000e+00
      -13  1    1    2    0    0 -2.3222564221e+02 +1.0278092062e+02 -7.3334299098e+02 7.7606997685e+02 0.0000000000e+00 0.0000e+00 -1.0000e+00
       13  1    1    2    0    0 +2.3222564221e+02 -1.0278092062e+02 +7.7601171976e+01 2.6554586880e+02 0.0000000000e+00 0.0000e+00 1.0000e+00
<mgrwt>
<rscale>  0 0.80929984E+03</rscale>
<asrwt>0</asrwt>
<pdfrwt beam="1">  1        2 0.29682618E-01 0.80929984E+03</pdfrwt>
<pdfrwt beam="2">  1       -2 0.13056597E+00 0.80929984E+03</pdfrwt>
<totfact> 0.94897036E+01</totfact>
</mgrwt>
<rwgt>
<wgt id='morphing_basis_vector_1'> +2.1769565e-04 </wgt>
<wgt id='morphing_basis_vector_2'> +1.3168347e-04 </wgt>
<wgt id='morphing_basis_vector_3'> +1.9632618e-04 </wgt>
<wgt id='morphing_basis_vector_4'> +1.0862878e-04 </wgt>
<wgt id='morphing_basis_vector_5'> +1.7065329e-04 </wgt>
</rwgt>
</event>
<event>
 4      1 +2.9741700e-06 8.69353800e+02 7.81860800e-03 8.81979500e-02
        2 -1    0    0  501    0 +0.0000000000e+00 +0.0000000000e+00 +2.0774119404e+03 2.0774119404e+03 0.0000000000e+00 0.0000e+00 1.0000e+00
       -2 -1    0    0    0  501 -0.0000000000e+00 -0.0000000000e+00 -9.0951633311e+01 9.0951633311e+01 0.0000000000e+00 0.0000e+00 -1.0000e+00
      -13  1    1    2    0    0 +4.3042753082e+02 +2.2986232052e+01 +1.1331688839e+03 1.2123811057e+03 0.0000000000e+00 0.0000e+00 -1.0000e+00
       13  1    1    2    0    0 -4.3042753082e+02 -2.2986232052e+01 +8.5329142323e+02 9.5598246799e+02 0.0000000000e+00 0.0000e+00 1.0000e+00
<mgrwt>
<rscale>  0 0.86935380E+03</rscale>
<asrwt>0</asrwt>
<pdfrwt beam="1">  1        2 0.31960180E+00 0.86935380E+03</pdfrwt>
<pdfrwt beam="2">  1       -2 0.13992560E-01 0.86935380E+03</pdfrwt>
<totfact> 0.27322511E+02</totfact>
</mgrwt>
<rwgt>
<wgt id='morphing_basis_vector_1'> +2.9680697e-04 </wgt>
<wgt id='morphing_basis_vector_2'> +2.1969573e-04 </wgt>
<wgt id='morphing_basis_vector_3'> +2.7126980e-04 </wgt>
<wgt id='morphing_basis_vector_4'> +1.2802603e-04 </wgt>
<wgt id='morphing_basis_vector_5'> +2.3455400e-04 </wgt>
</rwgt>
</event>
<event>
 4      1 +2.9741700e-06 7.83904200e+02 7.81860800e-03 8.92265800e-02
        2 -1    0    0  501    0 +0.0000000000e+00 +0.0000000000e+00 +5.9094177467e+02 5.9094177467e+02 0.0000000000e+00 0.0000e+00 -1.0000e+00
       -2 -1    0    0    0  501 -0.0000000000e+00 -0.0000000000e+00 -2.5996881616e+02 2.5996881616e+02 0.0000000000e+00 0.0000e+00 1.0000e+00
      -13  1    1    2    0    0 -1.5785423557e+01 +3.7424664784e+02 +2.9074846044e+02 4.7417760414e+02 0.0000000000e+00 0.0000e+00 -1.0000e+00
       13  1    1    2    0    0 +1.5785423557e+01 -3.7424664784e+02 +4.0224498068e+01 3.7673298669e+02 0.0000000000e+00 0.0000e+00 1.0000e+00
<mgrwt>
<rscale>  0 0.78390416E+03</rscale>
<asrwt>0</asrwt>
<pdfrwt beam="1">  1        2 0.90914118E-01 0.78390416E+03</pdfrwt>
<pdfrwt beam="2">  1       -2 0.39995203E-01 0.78390416E+03</pdfrwt>
<totfact> 0.35946488E+02</totfact>
</mgrwt>
<rwgt>
<wgt id='morphing_basis_vector_1'> +2.1305319e-04 </wgt>
<wgt id='morphing_basis_vector_2'> +1.7390823e-04 </wgt>
<wgt id='morphing_basis_vector_3'> +1.8378323e-04 </wgt>
<wgt id='morphing_basis_vector_4'> +7.1192363e-05 </wgt>
<wgt id='morphing_basis_vector_5'> +1.4658792e-04 </wgt>
</rwgt>
</event>
<event>
 4      1 +2.9741700e-06 8.78736900e+02 7.81860800e-03 8.80926400e-02
        2 -1    0    0  501    0 +0.0000000000e+00 +0.0000000000e+00 +1.2022908289e+03 1.2022908289e+03 0.0000000000e+00 0.0000e+00 -1.0000e+00
       -2 -1    0    0    0  501 -0.0000000000e+00 -0.0000000000e+00 -1.6056402222e+02 1.6056402222e+02 0.0000000000e+00 0.0000e+00 1.0000e+00
      -13  1    1    2    0    0 -2.0671573408e+02 +1.9748613222e+01 -7.9653469864e+01 2.2240970686e+02 0.0000000000e+00 0.0000e+00 1.0000e+00
       13  1    1    2    0    0 +2.0671573408e+02 -1.9748613222e+01 +1.1213802765e+03 1.1404451442e+03 0.0000000000e+00 0.0000e+00 -1.0000e+00
<mgrwt>
<rscale>  0 0.87873694E+03</rscale>
<asrwt>0</asrwt>
<pdfrwt beam="1">  1        2 0.18496781E+00 0.87873694E+03</pdfrwt>
<pdfrwt beam="2">  1       -2 0.24702158E-01 0.87873694E+03</pdfrwt>
<totfact> 0.32663078E+02</totfact>
</mgrwt>
<rwgt>
<wgt id='morphing_basis_vector_1'> +2.9226189e-04 </wgt>
<wgt id='morphing_basis_vector_2'> +1.7908788e-04 </wgt>
<wgt id='morphing_basis_vector_3'> +2.7099263e-04 </wgt>
<wgt id='morphing_basis_vector_4'> +1.5685831e-04 </wgt>
<wgt id='morphing_basis_vector_5'> +2.4719755e-04 </wgt>
</rwgt>
</event>
<event>
 4      1 +2.9741700e-06 8.75846600e+02 7.81860800e-03 8.81249300e-02
        2 -1    0    0  501    0 +0.0000000000e+00 +0.0000000000e+00 +3.0856557793e+02 3.0856557793e+02 0.0000000000e+00 0.0000e+00 -1.0000e+00
       -2 -1    0    0    0  501 -0.0000000000e+00 -0.0000000000e+00 -6.2151066821e+02 6.2151066821e+02 0.0000000000e+00 0.0000e+00 1.0000e+00
      -13  1    1    2    0    0 -3.0890078098e+01 -1.0968258700e+02 -6.0549180436e+02 6.1612076086e+02 0.0000000000e+00 0.0000e+00 1.0000e+00
       13  1    1    2    0    0 +3.0890078098e+01 +1.0968258700e+02 +2.9254671408e+02 3.1395548528e+02 0.0000000000e+00 0.0000e+00 -1.0000e+00
<mgrwt>
<rscale>  0 0.87584656E+03</rscale>
<asrwt>0</asrwt>
<pdfrwt beam="1">  1        2 0.47471628E-01 0.87584656E+03</pdfrwt>
<pdfrwt beam="2">  1       -2 0.95617024E-01 0.87584656E+03</pdfrwt>
<totfact> 0.12138130E+02</totfact>
</mgrwt>
<rwgt>
<wgt id='morphing_basis_vector_1'> +2.8876223e-04 </wgt>
<wgt id='morphing_basis_vector_2'> +1.7674178e-04 </wgt>
<wgt id='morphing_basis_vector_3'> +2.6747625e-04 </wgt>
<wgt id='morphing_basis_vector_4'> +1.5465130e-04 </wgt>
<wgt id='morphing_basis_vector_5'> +2.4359626e-04 </wgt>
</rwgt>
</event>
<event>
 4      1 +2.9741700e-06 8.82932500e+02 7.81860800e-03 8.80459900e-02
        2 -1    0    0  501    0 +0.0000000000e+00 +0.0000000000e+00 +1.3240774800e+03 1.3240774800e+03 0.0000000000e+00 0.0000e+00 -1.0000e+00
       -2 -1    0    0    0  501 -0.0000000000e+00 -0.0000000000e+00 -1.4719112322e+02 1.4719112322e+02 0.0000000000e+00 0.0000e+00 1.0000e+00
      -13  1    1    2    0    0 +3.2067700605e+02 -1.2244131923e+02 +1.2585107226e+02 3.6560102742e+02 0.0000000000e+00 0.0000e+00 1.0000e+00
       13  1    1    2    0    0 -3.2067700605e+02 +1.2244131923e+02 +1.0510352845e+03 1.1056675758e+03 0.0000000000e+00 0.0000e+00 -1.0000e+00
<mgrwt>
<rscale>  0 0.88293250E+03</rscale>
<asrwt>0</asrwt>
<pdfrwt beam="1">  1        2 0.20370422E+00 0.88293250E+03</pdfrwt>
<pdfrwt beam="2">  1       -2 0.22644789E-01 0.88293250E+03</pdfrwt>
<totfact> 0.32245665E+02</totfact>
</mgrwt>
<rwgt>
<wgt id='morphing_basis_vector_1'> +2.9789492e-04 </wgt>
<wgt id='morphing_basis_vector_2'> +1.8404242e-04 </wgt>
<wgt id='morphing_basis_vector_3'> +2.7653396e-04 </wgt>
<wgt id='morphing_basis_vector_4'> +1.5941108e-04 </wgt>
<wgt id='morphing_basis_vector_5'> +2.5245787e-04 </wgt>
</rwgt>
</event>
<event>
 4      1 +2.9741700e-06 8.97791300e+02 7.81860800e-03 8.78829600e-02
        2 -1    0    0  501    0 +0.0000000000e+00 +0.0000000000e+00 +8.4709124294e+02 8.4709124294e+02 0.0000000000e+00 0.0000e+00 1.0000e+00
       -2 -1    0    0    0  501 -0.0000000000e+00 -0.0000000000e+00 -2.3788145971e+02 2.3788145971e+02 0.0000000000e+00 0.0000e+00 -1.0000e+00
      -13  1    1    2    0    0 -6.1019519041e+01 +4.2371897327e+02 +4.6784582123e+02 6.3414577382e+02 0.0000000000e+00 0.0000e+00 1.0000e+00
       13  1    1    2    0    0 +6.1019519041e+01 -4.2371897327e+02 +1.4136396200e+02 4.5082692883e+02 0.0000000000e+00 0.0000e+00 -1.0000e+00
<mgrwt>
<rscale>  0 0.89779129E+03</rscale>
<asrwt>0</asrwt>
<pdfrwt beam="1">  1        2 0.13032173E+00 0.89779129E+03</pdfrwt>
<pdfrwt beam="2">  1       -2 0.36597148E-01 0.89779129E+03</pdfrwt>
<totfact> 0.27000941E+02</totfact>
</mgrwt>
<rwgt>
<wgt id='morphing_basis_vector_1'> +3.4715913e-04 </wgt>
<wgt id='morphing_basis_vector_2'> +2.8950708e-04 </wgt>
<wgt id='morphing_basis_vector_3'> +3.1928630e-04 </wgt>
<wgt id='morphing_basis_vector_4'> +1.2800151e-04 </wgt>
<wgt id='morphing_basis_vector_5'> +2.6959563e-04 </wgt>
</rwgt>
</event>
<event>
 4      1 +2.9741700e-06 7.81530700e+02 7.81860800e-03 8.92571100e-02
        2 -1    0    0  501    0 +0.0000000000e+00 +0.0000000000e+00 +1.4064381721e+03 1.4064381721e+03 0.0000000000e+00 0.0000e+00 -1.0000e+00
       -2 -1    0    0    0  501 -0.0000000000e+00 -0.0000000000e+00 -1.0857039723e+02 1.0857039723e+02 0.0000000000e+00 0.0000e+00 1.0000e+00
      -13  1    1    2    0    0 +2.8856251914e+02 +2.3157240551e+02 +8.9262794358e+02 9.6627053774e+02 0.0000000000e+00 0.0000e+00 1.0000e+00
       13  1    1    2    0    0 -2.8856251914e+02 -2.3157240551e+02 +4.0523983129e+02 5.4873803159e+02 0.0000000000e+00 0.0000e+00 -1.0000e+00
<mgrwt>
<rscale>  0 0.78153068E+03</rscale>
<asrwt>0</asrwt>
<pdfrwt beam="1">  1        2 0.21637509E+00 0.78153068E+03</pdfrwt>
<pdfrwt beam="2">  1       -2 0.16703139E-01 0.78153068E+03</pdfrwt>
<totfact> 0.48384752E+02</totfact>
</mgrwt>
<rwgt>
<wgt id='morphing_basis_vector_1'> +2.1247166e-04 </wgt>
<wgt id='morphing_basis_vector_2'> +1.7716296e-04 </wgt>
<wgt id='morphing_basis_vector_3'> +1.8247275e-04 </wgt>
<wgt id='morphing_basis_vector_4'> +6.8170985e-05 </wgt>
<wgt id='morphing_basis_vector_5'> +1.4448524e-04 </wgt>
</rwgt>
</event>
<event>
 4      1 +2.9741700e-06 8.71635100e+02 7.81860800e-03 8.81722200e-02
        2 -1    0    0  501    0 +0.0000000000e+00 +0.0000000000e+00 +1.5070966158e+03 1.5070966158e+03 0.0000000000e+00 0.0000e+00 1.0000e+00
       -2 -1    0    0    0  501 -0.0000000000e+00 -0.0000000000e+00 -1.2602838073e+02 1.2602838073e+02 0.0000000000e+00 0.0000e+00 -1.0000e+00
      -13  1    1    2    0    0 -8.5879860997e+01 -4.1961403025e+02 +5.3964363973e+02 6.8896047986e+02 0.0000000000e+00 0.0000e+00 -1.0000e+00
       13  1    1    2    0    0 +8.5879860997e+01 +4.1961403025e+02 +8.4142459532e+02 9.4416451666e+02 0.0000000000e+00 0.0000e+00 1.0000e+00
<mgrwt>
<rscale>  0 0.87163512E+03</rscale>
<asrwt>0</asrwt>
<pdfrwt beam="1">  1        2 0.23186101E+00 0.87163512E+03</pdfrwt>
<pdfrwt beam="2">  1       -2 0.19388983E-01 0.87163512E+03</pdfrwt>
<totfact> 0.33078222E+02</totfact>
</mgrwt>
<rwgt>
<wgt id='morphing_basis_vector_1'> +2.8879379e-04 </wgt>
<wgt id='morphing_basis_vector_2'> +1.8882994e-04 </wgt>
<wgt id='morphing_basis_vector_3'> +2.6615175e-04 </wgt>
<wgt id='morphing_basis_vector_4'> +1.4447050e-04 </wgt>
<wgt id='morphing_basis_vector_5'> +2.3806422e-04 </wgt>
</rwgt>
</event>
<event>
 4      1 +2.9741700e-06 8.00834800e+02 7.81860800e-03 8.90120700e-02
        2 -1    0    0  501    0 +0.0000000000e+00 +0.0000000000e+00 +4.2565558171e+02 4.2565558171e+02 0.0000000000e+00 0.0000e+00 -1.0000e+00
       -2 -1    0    0    0  501 -0.0000000000e+00 -0.0000000000e+00 -3.7667568852e+02 3.7667568852e+02 0.0000000000e+00 0.0000e+00 1.0000e+00
      -13  1    1    2    0    0 +7.9790717256e+01 -2.7830783022e+02 -2.5263549413e+02 3.8424796657e+02 0.0000000000e+00 0.0000e+00 1.0000e+00
       13  1    1    2    0    0 -7.9790717256e+01 +2.7830783022e+02 +3.0161538733e+02 4.1808330365e+02 0.0000000000e+00 0.0000e+00 -1.0000e+00
<mgrwt>
<rscale>  0 0.80083484E+03</rscale>
<asrwt>0</asrwt>
<pdfrwt beam="1">  1        2 0.65485474E-01 0.80083484E+03</pdfrwt>
<pdfrwt beam="2">  1       -2 0.57950106E-01 0.80083484E+03</pdfrwt>
<totfact> 0.25466571E+02</totfact>
</mgrwt>
<rwgt>
<wgt id='morphing_basis_vector_1'> +2.0986906e-04 </wgt>
<wgt id='morphing_basis_vector_2'> +1.2705813e-04 </wgt>
<wgt id='morphing_basis_vector_3'> +1.8851089e-04 </wgt>
<wgt id='morphing_basis_vector_4'> +1.0343227e-04 </wgt>
<wgt id='morphing_basis_vector_5'> +1.6266327e-04 </wgt>
</rwgt>
</event>
<event>
 4      1 +2.9741700e-06 7.80824500e+02 7.81860800e-03 8.92662200e-02
        2 -1    0    0  501    0 +0.0000000000e+00 +0.0000000000e+00 +7.1928177072e+02 7.1928177072e+02 0.0000000000e+00 0.0000e+00 -1.0000e+00
       -2 -1    0    0    0  501 -0.0000000000e+00 -0.0000000000e+00 -2.1190822516e+02 2.1190822516e+02 0.0000000000e+00 0.0000e+00 1.0000e+00
      -13  1    1    2    0    0 -2.5122673419e+02 -2.1075654215e+01 -1.0181727232e+02 2.7189301594e+02 0.0000000000e+00 0.0000e+00 1.0000e+00
       13  1    1    2    0    0 +2.5122673419e+02 +2.1075654215e+01 +6.0919081788e+02 6.5929697994e+02 0.0000000000e+00 0.0000e+00 -1.0000e+00
<mgrwt>
<rscale>  0 0.78082450E+03</rscale>
<asrwt>0</asrwt>
<pdfrwt beam="1">  1        2 0.11065873E+00 0.78082450E+03</pdfrwt>
<pdfrwt beam="2">  1       -2 0.32601266E-01 0.78082450E+03</pdfrwt>
<totfact> 0.41213163E+02</totfact>
</mgrwt>
<rwgt>
<wgt id='morphing_basis_vector_1'> +1.9180321e-04 </wgt>
<wgt id='morphing_basis_vector_2'> +1.1528424e-04 </wgt>
<wgt id='morphing_basis_vector_3'> +1.7071969e-04 </wgt>
<wgt id='morphing_basis_vector_4'> +9.2416243e-05 </wgt>
<wgt id='morphing_basis_vector_5'> +1.4487235e-04 </wgt>
</rwgt>
</event>
<event>
 4      1 +2.9741700e-06 7.74167900e+02 7.81860800e-03 8.93525600e-02
        2 -1    0    0  501    0 +0.0000000000e+00 +0.0000000000e+00 +2.8386481629e+02 2.8386481629e+02 0.0000000000e+00 0.0000e+00 1.0000e+00
       -2 -1    0    0    0  501 -0.0000000000e+00 -0.0000000000e+00 -5.2783567532e+02 5.2783567532e+02 0.0000000000e+00 0.0000e+00 -1.0000e+00
      -13  1    1    2    0    0 -1.1964615962e+02 +1.6115229740e-01 -5.0796147250e+02 5.2186213411e+02 0.0000000000e+00 0.0000e+00 -1.0000e+00
       13  1    1    2    0    0 +1.1964615962e+02 -1.6115229740e-01 +2.6399061346e+02 2.8983835750e+02 0.0000000000e+00 0.0000e+00 1.0000e+00
<mgrwt>
<rscale>  0 0.77416788E+03</rscale>
<asrwt>0</asrwt>
<pdfrwt beam="1">  1        2 0.43671511E-01 0.77416788E+03</pdfrwt>
<pdfrwt beam="2">  1       -2 0.81205487E-01 0.77416788E+03</pdfrwt>
<totfact> 0.19586053E+02</totfact>
</mgrwt>
<rwgt>
<wgt id='morphing_basis_vector_1'> +1.8598490e-04 </wgt>
<wgt id='morphing_basis_vector_2'> +1.1129491e-04 </wgt>
<wgt id='morphing_basis_vector_3'> +1.6505124e-04 </wgt>
<wgt id='morphing_basis_vector_4'> +8.9053223e-05 </wgt>
<wgt id='morphing_basis_vector_5'> +1.3928122e-04 </wgt>
</rwgt>
</event>
<event>
 4      1 +2.9741700e-06 8.52315800e+02 7.81860800e-03 8.83928000e-02
        2 -1    0    0  501    0 +0.0000000000e+00 +0.0000000000e+00 +7.8795676208e+02 7.8795676208e+02 0.0000000000e+00 0.0000e+00 1.0000e+00
       -2 -1    0    0    0  501 -0.0000000000e+00 -0.0000000000e+00 -2.3048288934e+02 2.3048288934e+02 0.0000000000e+00 0.0000e+00 -1.0000e+00
      -13  1    1    2    0    0 -4.2434139125e+02 +7.6924424017e+00 +3.2479538143e+02 5.3443131439e+02 0.0000000000e+00 0.0000e+00 -1.0000e+00
       13  1    1    2    0    0 +4.2434139125e+02 -7.6924424017e+00 +2.3267849131e+02 4.8400833703e+02 0.0000000000e+00 0.0000e+00 1.0000e+00
<mgrwt>
<rscale>  0 0.85231579E+03</rscale>
<asrwt>0</asrwt>
<pdfrwt beam="1">  1        2 0.12122412E+00 0.85231579E+03</pdfrwt>
<pdfrwt beam="2">  1       -2 0.35458906E-01 0.85231579E+03</pdfrwt>
<totfact> 0.31489708E+02</totfact>
</mgrwt>
<rwgt>
<wgt id='morphing_basis_vector_1'> +2.7454595e-04 </wgt>
<wgt id='morphing_basis_vector_2'> +1.9842473e-04 </wgt>
<wgt id='morphing_basis_vector_3'> +2.4931150e-04 </wgt>
<wgt id='morphing_basis_vector_4'> +1.1983657e-04 </wgt>
<wgt id='morphing_basis_vector_5'> +2.1481529e-04 </wgt>
</rwgt>
</event>
<event>
 4      1 +2.9741700e-06 8.69042700e+02 7.81860800e-03 8.82014600e-02
        2 -1    0    0  501    0 +0.0000000000e+00 +0.0000000000e+00 +1.2842893441e+03 1.2842893441e+03 0.0000000000e+00 0.0000e+00 1.0000e+00
       -2 -1    0    0    0  501 -0.0000000000e+00 -0.0000000000e+00 -1.4701423062e+02 1.4701423062e+02 0.0000000000e+00 0.0000e+00 -1.0000e+00
      -13  1    1    2    0    0 +1.9293277943e+02 -2.4364837223e+02 +6.8480878497e+01 3.1824081666e+02 0.0000000000e+00 0.0000e+00 -1.0000e+00
       13  1    1    2    0    0 -1.9293277943e+02 +2.4364837223e+02 +1.0687942350e+03 1.1130627581e+03 0.0000000000e+00 0.0000e+00 1.0000e+00
<mgrwt>
<rscale>  0 0.86904271E+03</rscale>
<asrwt>0</asrwt>
<pdfrwt beam="1">  1        2 0.19758297E+00 0.86904271E+03</pdfrwt>
<pdfrwt beam="2">  1       -2 0.22617575E-01 0.86904271E+03</pdfrwt>
<totfact> 0.34066690E+02</totfact>
</mgrwt>
<rwgt>
<wgt id='morphing_basis_vector_1'> +2.8109021e-04 </wgt>
<wgt id='morphing_basis_vector_2'> +1.7264617e-04 </wgt>
<wgt id='morphing_basis_vector_3'> +2.5965752e-04 </wgt>
<wgt id='morphing_basis_vector_4'> +1.4894223e-04 </wgt>
<wgt id='morphing_basis_vector_5'> +2.3523873e-04 </wgt>
</rwgt>
</event>
<event>
 4      1 +2.9741700e-06 7.53276800e+02 7.81860800e-03 8.96296300e-02
        2 -1    0    0  501    0 +0.0000000000e+00 +0.0000000000e+00 +5.2672565079e+02 5.2672565079e+02 0.0000000000e+00 0.0000e+00 -1.0000e+00
       -2 -1    0    0    0  501 -0.0000000000e+00 -0.0000000000e+00 -2.6931760096e+02 2.6931760096e+02 0.0000000000e+00 0.0000e+00 1.0000e+00
      -13  1    1    2    0    0 +9.9824615301e+01 +2.9601142284e+01 -2.5380623308e+02 2.7433334722e+02 0.0000000000e+00 0.0000e+00 1.0000e+00
       13  1    1    2    0    0 -9.9824615301e+01 -2.9601142284e+01 +5.1121428291e+02 5.2170990454e+02 0.0000000000e+00 0.0000e+00 -1.0000e+00
<mgrwt>
<rscale>  0 0.75327681E+03</rscale>
<asrwt>0</asrwt>
<pdfrwt beam="1">  1        2 0.81034716E-01 0.75327681E+03</pdfrwt>
<pdfrwt beam="2">  1       -2 0.41433477E-01 0.75327681E+03</pdfrwt>
<totfact> 0.38509754E+02</totfact>
</mgrwt>
<rwgt>
<wgt id='morphing_basis_vector_1'> +1.6898360e-04 </wgt>
<wgt id='morphing_basis_vector_2'> +1.0057819e-04 </wgt>
<wgt id='morphing_basis_vector_3'> +1.4839408e-04 </wgt>
<wgt id='morphing_basis_vector_4'> +7.8635312e-05 </wgt>
<wgt id='morphing_basis_vector_5'> +1.2271937e-04 </wgt>
</rwgt>
</event>
<event>
 4      1 +2.9741700e-06 8.79841400e+02 7.81860800e-03 8.80803300e-02
        2 -1    0    0  501    0 +0.0000000000e+00 +0.0000000000e+00 +5.4383317596e+02 5.4383317596e+02 0.0000000000e+00 0.0000e+00 1.0000e+00
       -2 -1    0    0    0  501 -0.0000000000e+00 -0.0000000000e+00 -3.5586318903e+02 3.5586318903e+02 0.0000000000e+00 0.0000e+00 -1.0000e+00
      -13  1    1    2    0    0 +2.6678970512e+02 +2.3787154985e+02 -1.6826014632e+02 3.9505834737e+02 0.0000000000e+00 0.0000e+00 -1.0000e+00
       13  1    1    2    0    0 -2.6678970512e+02 -2.3787154985e+02 +3.5623013325e+02 5.0463801762e+02 0.0000000000e+00 0.0000e+00 1.0000e+00
<mgrwt>
<rscale>  0 0.87984137E+03</rscale>
<asrwt>0</asrwt>
<pdfrwt beam="1">  1        2 0.83666642E-01 0.87984137E+03</pdfrwt>
<pdfrwt beam="2">  1       -2 0.54748183E-01 0.87984137E+03</pdfrwt>
<totfact> 0.21510132E+02</totfact>
</mgrwt>
<rwgt>
<wgt id='morphing_basis_vector_1'> +2.9433976e-04 </wgt>
<wgt id='morphing_basis_vector_2'> +1.8222110e-04 </wgt>
<wgt id='morphing_basis_vector_3'> +2.7289526e-04 </wgt>
<wgt id='morphing_basis_vector_4'> +1.5668778e-04 </wgt>
<wgt id='morphing_basis_vector_5'> +2.4853162e-04 </wgt>
</rwgt>
</event>
<event>
 4      1 +2.9741700e-06 8.05707000e+02 7.81860800e-03 8.89513800e-02
        2 -1    0    0  501    0 +0.0000000000e+00 +0.0000000000e+00 +1.1025359192e+03 1.1025359192e+03 0.0000000000e+00 0.0000e+00 -1.0000e+00
       -2 -1    0    0    0  501 -0.0000000000e+00 -0.0000000000e+00 -1.4719787883e+02 1.4719787883e+02 0.0000000000e+00 0.0000e+00 1.0000e+00
      -13  1    1    2    0    0 -2.1916179906e+02 +2.4686163746e+02 +1.1950754595e+02 3.5107636741e+02 0.0000000000e+00 0.0000e+00 1.0000e+00
       13  1    1    2    0    0 +2.1916179906e+02 -2.4686163746e+02 +8.3583049444e+02 8.9865743064e+02 0.0000000000e+00 0.0000e+00 -1.0000e+00
<mgrwt>
<rscale>  0 0.80570702E+03</rscale>
<asrwt>0</asrwt>
<pdfrwt beam="1">  1        2 0.16962091E+00 0.80570702E+03</pdfrwt>
<pdfrwt beam="2">  1       -2 0.22645828E-01 0.80570702E+03</pdfrwt>
<totfact> 0.43515759E+02</totfact>
</mgrwt>
<rwgt>
<wgt id='morphing_basis_vector_1'> +2.1476382e-04 </wgt>
<wgt id='morphing_basis_vector_2'> +1.3098227e-04 </wgt>
<wgt id='morphing_basis_vector_3'> +1.9323424e-04 </wgt>
<wgt id='morphing_basis_vector_4'> +1.0586903e-04 </wgt>
<wgt id='morphing_basis_vector_5'> +1.6720527e-04 </wgt>
</rwgt>
</event>
<event>
 4      1 +2.9741700e-06 7.68502600e+02 7.81860800e-03 8.94267700e-02
        2 -1    0    0  501    0 +0.0000000000e+00 +0.0000000000e+00 +5.0426154592e+02 5.0426154592e+02 0.0000000000e+00 0.0000e+00 -1.0000e+00
       -2 -1    0    0    0  501 -0.0000000000e+00 -0.0000000000e+00 -2.9280250350e+02 2.9280250350e+02 0.0000000000e+00 0.0000e+00 1.0000e+00
      -13  1    1    2    0    0 -4.6113530923e+01 -2.2066954621e+02 -2.1700643200e+02 3.1291100634e+02 0.0000000000e+00 0.0000e+00 1.0000e+00
       13  1    1    2    0    0 +4.6113530923e+01 +2.2066954621e+02 +4.2846547442e+02 4.8415304309e+02 0.0000000000e+00 0.0000e+00 -1.0000e+00
<mgrwt>
<rscale>  0 0.76850255E+03</rscale>
<asrwt>0</asrwt>
<pdfrwt beam="1">  1        2 0.77578699E-01 0.76850255E+03</pdfrwt>
<pdfrwt beam="2">  1       -2 0.45046539E-01 0.76850255E+03</pdfrwt>
<totfact> 0.34539746E+02</totfact>
</mgrwt>
<rwgt>
<wgt id='morphing_basis_vector_1'> +1.8132098e-04 </wgt>
<wgt id='morphing_basis_vector_2'> +1.0853014e-04 </wgt>
<wgt id='morphing_basis_vector_3'> +1.6043792e-04 </wgt>
<wgt id='morphing_basis_vector_4'> +8.6046156e-05 </wgt>
<wgt id='morphing_basis_vector_5'> +1.3463755e-04 </wgt>
</rwgt>
</event>
<event>
 4      1 +2.9741700e-06 7.99338700e+02 7.81860800e-03 8.90308000e-02
        2 -1    0    0  501    0 +0.0000000000e+00 +0.0000000000e+00 +4.5437497172e+02 4.5437497172e+02 0.0000000000e+00 0.0000e+00 -1.0000e+00
       -2 -1    0    0    0  501 -0.0000000000e+00 -0.0000000000e+00 -3.5155019347e+02 3.5155019347e+02 0.0000000000e+00 0.0000e+00 1.0000e+00
      -13  1    1    2    0    0 -6.4860480240e+01 +2.9174406830e+02 -2.1613070562e+02 3.6882782595e+02 0.0000000000e+00 0.0000e+00 1.0000e+00
       13  1    1    2    0    0 +6.4860480240e+01 -2.9174406830e+02 +3.1895548387e+02 4.3709733925e+02 0.0000000000e+00 0.0000e+00 -1.0000e+00
<mgrwt>
<rscale>  0 0.79933875E+03</rscale>
<asrwt>0</asrwt>
<pdfrwt beam="1">  1        2 0.69903842E-01 0.79933875E+03</pdfrwt>
<pdfrwt beam="2">  1       -2 0.54084645E-01 0.79933875E+03</pdfrwt>
<totfact> 0.27181203E+02</totfact>
</mgrwt>
<rwgt>
<wgt id='morphing_basis_vector_1'> +2.0854225e-04 </wgt>
<wgt id='morphing_basis_vector_2'> +1.2635588e-04 </wgt>
<wgt id='morphing_basis_vector_3'> +1.8717401e-04 </wgt>
<wgt id='morphing_basis_vector_4'> +1.0249133e-04 </wgt>
<wgt id='morphing_basis_vector_5'> +1.6127791e-04 </wgt>
</rwgt>
</event>
<event>
 4      1 +2.9741700e-06 8.63571600e+02 7.81860800e-03 8.82635500e-02
        2 -1    0    0  501    0 +0.0000000000e+00 +0.0000000000e+00 +1.6370187433e+03 1.6370187433e+03 0.0000000000e+00 0.0000e+00 1.0000e+00
       -2 -1    0    0    0  501 -0.0000000000e+00 -0.0000000000e+00 -1.1388933593e+02 1.1388933593e+02 0.0000000000e+00 0.0000e+00 -1.0000e+00
      -13  1    1    2    0    0 +3.6003517074e+02 +1.7105632397e+02 +4.2501245685e+02 5.8268445888e+02 0.0000000000e+00 0.0000e+00 1.0000e+00
       13  1    1    2    0    0 -3.6003517074e+02 -1.7105632397e+02 +1.0981169505e+03 1.1682236203e+03 0.0000000000e+00 0.0000e+00 -1.0000e+00
<mgrwt>
<rscale>  0 0.86357160E+03</rscale>
<asrwt>0</asrwt>
<pdfrwt beam="1">  1        2 0.25184902E+00 0.86357160E+03</pdfrwt>
<pdfrwt beam="2">  1       -2 0.17521438E-01 0.86357160E+03</pdfrwt>
<totfact> 0.33177243E+02</totfact>
</mgrwt>
<rwgt>
<wgt id='morphing_basis_vector_1'> +2.7651075e-04 </wgt>
<wgt id='morphing_basis_vector_2'> +1.7390157e-04 </wgt>
<wgt id='morphing_basis_vector_3'> +2.5455650e-04 </wgt>
<wgt id='morphing_basis_vector_4'> +1.4244824e-04 </wgt>
<wgt id='morphing_basis_vector_5'> +2.2857081e-04 </wgt>
</rwgt>
</event>
<event>
 4      1 +2.9741700e-06 8.84610900e+02 7.81860800e-03 8.80274100e-02
        2 -1    0    0  501    0 +0.0000000000e+00 +0.0000000000e+00 +8.3822222659e+02 8.3822222659e+02 0.0000000000e+00 0.0000e+00 -1.0000e+00
       -2 -1    0    0    0  501 -0.0000000000e+00 -0.0000000000e+00 -2.3339171921e+02 2.3339171921e+02 0.0000000000e+00 0.0000e+00 1.0000e+00
      -13  1    1    2    0    0 +2.0116217952e+02 +2.1887281982e+02 -9.4328592030e+01 3.1188045305e+02 0.0000000000e+00 0.0000e+00 1.0000e+00
       13  1    1    2    0    0 -2.0116217952e+02 -2.1887281982e+02 +6.9915909940e+02 7.5973349275e+02 0.0000000000e+00 0.0000e+00 -1.0000e+00
<mgrwt>
<rscale>  0 0.88461093E+03</rscale>
<asrwt>0</asrwt>
<pdfrwt beam="1">  1        2 0.12895726E+00 0.88461093E+03</pdfrwt>
<pdfrwt beam="2">  1       -2 0.35906419E-01 0.88461093E+03</pdfrwt>
<totfact> 0.28366506E+02</totfact>
</mgrwt>
<rwgt>
<wgt id='morphing_basis_vector_1'> +2.9960253e-04 </wgt>
<wgt id='morphing_basis_vector_2'> +1.8431591e-04 </wgt>
<wgt id='morphing_basis_vector_3'> +2.7834459e-04 </wgt>
<wgt id='morphing_basis_vector_4'> +1.6123582e-04 </wgt>
<wgt id='morphing_basis_vector_5'> +2.5462564e-04 </wgt>
</rwgt>
</event>
<event>
 4      1 +2.9741700e-06 8.90841900e+02 7.81860800e-03 8.79588000e-02
        2 -1    0    0  501    0 +0.0000000000e+00 +0.0000000000e+00 +1.3218239206e+03 1.3218239206e+03 0.0000000000e+00 0.0000e+00 -1.0000e+00
       -2 -1    0    0    0  501 -0.0000000000e+00 -0.0000000000e+00 -1.5009548564e+02 1.5009548564e+02 0.0000000000e+00 0.0000e+00 1.0000e+00
      -13  1    1    2    0    0 +2.4153698400e+02 -1.7951934066e+01 -3.1781980065e+01 2.4427951374e+02 0.0000000000e+00 0.0000e+00 1.0000e+00
       13  1    1    2    0    0 -2.4153698400e+02 +1.7951934066e+01 +1.2035104150e+03 1.2276398925e+03 0.0000000000e+00 0.0000e+00 -1.0000e+00
<mgrwt>
<rscale>  0 0.89084186E+03</rscale>
<asrwt>0</asrwt>
<pdfrwt beam="1">  1        2 0.20335752E+00 0.89084186E+03</pdfrwt>
<pdfrwt beam="2">  1       -2 0.23091614E-01 0.89084186E+03</pdfrwt>
<totfact> 0.31272272E+02</totfact>
</mgrwt>
<rwgt>
<wgt id='morphing_basis_vector_1'> +3.0713897e-04 </wgt>
<wgt id='morphing_basis_vector_2'> +1.8875028e-04 </wgt>
<wgt id='morphing_basis_vector_3'> +2.8599984e-04 </wgt>
<wgt id='morphing_basis_vector_4'> +1.6654525e-04 </wgt>
<wgt id='morphing_basis_vector_5'> +2.6270981e-04 </wgt>
</rwgt>
</event>
<event>
 4      1 +2.9741700e-06 8.83250800e+02 7.81860800e-03 8.80424600e-02
        2 -1    0    0  501    0 +0.0000000000e+00 +0.0000000000e+00 +1.3479217445e+02 1.3479217445e+02 0.0000000000e+00 0.0000e+00 -1.0000e+00
       -2 -1    0    0    0  501 -0.0000000000e+00 -0.0000000000e+00 -1.4469164106e+03 1.4469164106e+03 0.0000000000e+00 0.0000e+00 1.0000e+00
      -13  1    1    2    0    0 +2.4210311067e+02 +2.0437725869e+02 -1.2069972879e+03 1.2478887904e+03 0.0000000000e+00 0.0000e+00 1.0000e+00
       13  1    1    2    0    0 -2.4210311067e+02 -2.0437725869e+02 -1.0512694821e+02 3.3381979466e+02 0.0000000000e+00 0.0000e+00 -1.0000e+00
<mgrwt>
<rscale>  0 0.88325083E+03</rscale>
<asrwt>0</asrwt>
<pdfrwt beam="1">  1        2 0.20737258E-01 0.88325083E+03</pdfrwt>
<pdfrwt beam="2">  1       -2 0.22260252E+00 0.88325083E+03</pdfrwt>
<totfact> 0.27866771E+01</totfact>
</mgrwt>
<rwgt>
<wgt id='morphing_basis_vector_1'> +2.9805243e-04 </wgt>
<wgt id='morphing_basis_vector_2'> +1.8358946e-04 </wgt>
<wgt id='morphing_basis_vector_3'> +2.7675135e-04 </wgt>
<wgt id='morphing_basis_vector_4'> +1.5998782e-04 </wgt>
<wgt id='morphing_basis_vector_5'> +2.5287988e-04 </wgt>
</rwgt>
</event>
<event>
 4      1 +2.9741700e-06 8.48857400e+02 7.81860800e-03 8.84329400e-02
        2 -1    0    0  501    0 +0.0000000000e+00 +0.0000000000e+00 +6.1391430368e+02 6.1391430368e+02 0.0000000000e+00 0.0000e+00 -1.0000e+00
       -2 -1    0    0    0  501 -0.0000000000e+00 -0.0000000000e+00 -2.9342814817e+02 2.9342814817e+02 0.0000000000e+00 0.0000e+00 1.0000e+00
      -13  1    1    2    0    0 -3.8952774324e+02 -1.5936760905e+02 +1.0160116120e+02 4.3295807363e+02 0.0000000000e+00 0.0000e+00 1.0000e+00
       13  1    1    2    0    0 +3.8952774324e+02 +1.5936760905e+02 +2.1888499431e+02 4.7438437822e+02 0.0000000000e+00 0.0000e+00 -1.0000e+00
<mgrwt>
<rscale>  0 0.84885744E+03</rscale>
<asrwt>0</asrwt>
<pdfrwt beam="1">  1        2 0.94448354E-01 0.84885744E+03</pdfrwt>
<pdfrwt beam="2">  1       -2 0.45142792E-01 0.84885744E+03</pdfrwt>
<totfact> 0.27266653E+02</totfact>
</mgrwt>
<rwgt>
<wgt id='morphing_basis_vector_1'> +2.6363003e-04 </wgt>
<wgt id='morphing_basis_vector_2'> +1.7426523e-04 </wgt>
<wgt id='morphing_basis_vector_3'> +2.4047697e-04 </wgt>
<wgt id='morphing_basis_vector_4'> +1.2703864e-04 </wgt>
<wgt id='morphing_basis_vector_5'> +2.1138465e-04 </wgt>
</rwgt>
</event>
<event>
 4      1 +2.9741700e-06 7.54944900e+02 7.81860800e-03 8.96071600e-02
        2 -1    0    0  501    0 +0.0000000000e+00 +0.0000000000e+00 +1.8467338479e+03 1.8467338479e+03 0.0000000000e+00 0.0000e+00 1.0000e+00
       -2 -1    0    0    0  501 -0.0000000000e+00 -0.0000000000e+00 -7.7155381162e+01 7.7155381162e+01 0.0000000000e+00 0.0000e+00 -1.0000e+00
      -13  1    1    2    0    0 -9.0186609662e+01 -3.3306518630e+02 +4.9479984768e+02 6.0323538702e+02 0.0000000000e+00 0.0000e+00 -1.0000e+00
       13  1    1    2    0    0 +9.0186609662e+01 +3.3306518630e+02 +1.2747786190e+03 1.3206538420e+03 0.0000000000e+00 0.0000e+00 1.0000e+00
<mgrwt>
<rscale>  0 0.75494491E+03</rscale>
<asrwt>0</asrwt>
<pdfrwt beam="1">  1        2 0.28411287E+00 0.75494491E+03</pdfrwt>
<pdfrwt beam="2">  1       -2 0.11870060E-01 0.75494491E+03</pdfrwt>
<totfact> 0.48108096E+02</totfact>
</mgrwt>
<rwgt>
<wgt id='morphing_basis_vector_1'> +1.7144969e-04 </wgt>
<wgt id='morphing_basis_vector_2'> +1.0495101e-04 </wgt>
<wgt id='morphing_basis_vector_3'> +1.5024468e-04 </wgt>
<wgt id='morphing_basis_vector_4'> +7.8075833e-05 </wgt>
<wgt id='morphing_basis_vector_5'> +1.2393790e-04 </wgt>
</rwgt>
</event>
<event>
 4      1 +2.9741700e-06 7.56038500e+02 7.81860800e-03 8.95924600e-02
        2 -1    0    0  501    0 +0.0000000000e+00 +0.0000000000e+00 +6.6520029941e+02 6.6520029941e+02 0.0000000000e+00 0.0000e+00 1.0000e+00
       -2 -1    0    0    0  501 -0.0000000000e+00 -0.0000000000e+00 -2.1482033466e+02 2.1482033466e+02 0.0000000000e+00 0.0000e+00 -1.0000e+00
      -13  1    1    2    0    0 +2.0719379694e+02 +3.0689008037e+02 +1.3663679358e+02 3.9469026373e+02 0.0000000000e+00 0.0000e+00 -1.0000e+00
       13  1    1    2    0    0 -2.0719379694e+02 -3.0689008037e+02 +3.1374317118e+02 4.8533037034e+02 0.0000000000e+00 0.0000e+00 1.0000e+00
<mgrwt>
<rscale>  0 0.75603849E+03</rscale>
<asrwt>0</asrwt>
<pdfrwt beam="1">  1        2 0.10233851E+00 0.75603849E+03</pdfrwt>
<pdfrwt beam="2">  1       -2 0.33049283E-01 0.75603849E+03</pdfrwt>
<totfact> 0.44283652E+02</totfact>
</mgrwt>
<rwgt>
<wgt id='morphing_basis_vector_1'> +1.7395386e-04 </wgt>
<wgt id='morphing_basis_vector_2'> +1.1053222e-04 </wgt>
<wgt id='morphing_basis_vector_3'> +1.5190574e-04 </wgt>
<wgt id='morphing_basis_vector_4'> +7.6668583e-05 </wgt>
<wgt id='morphing_basis_vector_5'> +1.2470342e-04 </wgt>
</rwgt>
</event>
<event>
 4      1 +2.9741700e-06 8.30566400e+02 7.81860800e-03 8.86486400e-02
        2 -1    0    0  501    0 +0.0000000000e+00 +0.0000000000e+00 +1.1381244913e+03 1.1381244913e+03 0.0000000000e+00 0.0000e+00 -1.0000e+00
       -2 -1    0    0    0  501 -0.0000000000e+00 -0.0000000000e+00 -1.5153012296e+02 1.5153012296e+02 0.0000000000e+00 0.0000e+00 1.0000e+00
      -13  1    1    2    0    0 +8.2333228896e+01 +2.1024002817e+02 -4.7896050450e+01 2.3081087859e+02 0.0000000000e+00 0.0000e+00 1.0000e+00
       13  1    1    2    0    0 -8.2333228896e+01 -2.1024002817e+02 +1.0344904188e+03 1.0588437357e+03 0.0000000000e+00 0.0000e+00 -1.0000e+00
<mgrwt>
<rscale>  0 0.83056642E+03</rscale>
<asrwt>0</asrwt>
<pdfrwt beam="1">  1        2 0.17509607E+00 0.83056642E+03</pdfrwt>
<pdfrwt beam="2">  1       -2 0.23312327E-01 0.83056642E+03</pdfrwt>
<totfact> 0.39414715E+02</totfact>
</mgrwt>
<rwgt>
<wgt id='morphing_basis_vector_1'> +2.3869802e-04 </wgt>
<wgt id='morphing_basis_vector_2'> +1.4489836e-04 </wgt>
<wgt id='morphing_basis_vector_3'> +2.1724853e-04 </wgt>
<wgt id='morphing_basis_vector_4'> +1.2209522e-04 </wgt>
<wgt id='morphing_basis_vector_5'> +1.9195186e-04 </wgt>
</rwgt>
</event>
<event>
 4      1 +2.9741700e-06 8.46998600e+02 7.81860800e-03 8.84546000e-02
        2 -1    0    0  501    0 +0.0000000000e+00 +0.0000000000e+00 +1.6709944592e+03 1.6709944592e+03 0.0000000000e+00 0.0000e+00 -1.0000e+00
       -2 -1    0    0    0  501 -0.0000000000e+00 -0.0000000000e+00 -1.0733228078e+02 1.0733228078e+02 0.0000000000e+00 0.0000e+00 1.0000e+00
      -13  1    1    2    0    0 -1.0877027114e+02 -3.3486129830e+02 +1.2759585798e+03 1.3236439697e+03 0.0000000000e+00 0.0000e+00 1.0000e+00
       13  1    1    2    0    0 +1.0877027114e+02 +3.3486129830e+02 +2.8770359860e+02 4.5468277033e+02 0.0000000000e+00 0.0000e+00 -1.0000e+00
<mgrwt>
<rscale>  0 0.84699857E+03</rscale>
<asrwt>0</asrwt>
<pdfrwt beam="1">  1        2 0.25707605E+00 0.84699857E+03</pdfrwt>
<pdfrwt beam="2">  1       -2 0.16512660E-01 0.84699857E+03</pdfrwt>
<totfact> 0.35066431E+02</totfact>
</mgrwt>
<rwgt>
<wgt id='morphing_basis_vector_1'> +3.0904882e-04 </wgt>
<wgt id='morphing_basis_vector_2'> +3.1782187e-04 </wgt>
<wgt id='morphing_basis_vector_3'> +2.7123769e-04 </wgt>
<wgt id='morphing_basis_vector_4'> +6.2045426e-05 </wgt>
<wgt id='morphing_basis_vector_5'> +2.0625294e-04 </wgt>
</rwgt>
</event>
<event>
 4      1 +2.9741700e-06 8.44245300e+02 7.81860800e-03 8.84867900e-02
        2 -1    0    0  501    0 +0.0000000000e+00 +0.0000000000e+00 +1.3576691714e+03 1.3576691714e+03 0.0000000000e+00 0.0000e+00 -1.0000e+00
       -2 -1    0    0    0  501 -0.0000000000e+00 -0.0000000000e+00 -1.3124517696e+02 1.3124517696e+02 0.0000000000e+00 0.0000e+00 1.0000e+00
      -13  1    1    2    0    0 -2.4253047880e+02 -6.8278978034e+01 +1.5913733246e+01 2.5246048977e+02 0.0000000000e+00 0.0000e+00 1.0000e+00
       13  1    1    2    0    0 +2.4253047880e+02 +6.8278978034e+01 +1.2105102612e+03 1.2364538586e+03 0.0000000000e+00 0.0000e+00 -1.0000e+00
<mgrwt>
<rscale>  0 0.84424530E+03</rscale>
<asrwt>0</asrwt>
<pdfrwt beam="1">  1        2 0.20887217E+00 0.84424530E+03</pdfrwt>
<pdfrwt beam="2">  1       -2 0.20191567E-01 0.84424530E+03</pdfrwt>
<totfact> 0.37518284E+02</totfact>
</mgrwt>
<rwgt>
<wgt id='morphing_basis_vector_1'> +2.5311173e-04 </wgt>
<wgt id='morphing_basis_vector_2'> +1.5420735e-04 </wgt>
<wgt id='morphing_basis_vector_3'> +2.3163673e-04 </wgt>
<wgt id='morphing_basis_vector_4'> +1.3125436e-04 </wgt>
<wgt id='morphing_basis_vector_5'> +2.0661917e-04 </wgt>
</rwgt>
</event>
<event>
 4      1 +2.9741700e-06 8.75632900e+02 7.81860800e-03 8.81273200e-02
        2 -1    0    0  501    0 +0.0000000000e+00 +0.0000000000e+00 +4.1814451638e+02 4.1814451638e+02 0.0000000000e+00 0.0000e+00 1.0000e+00
       -2 -1    0    0    0  501 -0.0000000000e+00 -0.0000000000e+00 -4.5841384502e+02 4.5841384502e+02 0.0000000000e+00 0.0000e+00 -1.0000e+00
      -13  1    1    2    0    0 -6.2016588615e+01 -1.0567826564e+02 -4.4089936466e+02 4.5760922505e+02 0.0000000000e+00 0.0000e+00 -1.0000e+00
       13  1    1    2    0    0 +6.2016588615e+01 +1.0567826564e+02 +4.0063003602e+02 4.1894913635e+02 0.0000000000e+00 0.0000e+00 1.0000e+00
<mgrwt>
<rscale>  0 0.87563288E+03</rscale>
<asrwt>0</asrwt>
<pdfrwt beam="1">  1        2 0.64329926E-01 0.87563288E+03</pdfrwt>
<pdfrwt beam="2">  1       -2 0.70525207E-01 0.87563288E+03</pdfrwt>
<totfact> 0.17191421E+02</totfact>
</mgrwt>
<rwgt>
<wgt id='morphing_basis_vector_1'> +2.8850912e-04 </wgt>
<wgt id='morphing_basis_vector_2'> +1.7658243e-04 </wgt>
<wgt id='morphing_basis_vector_3'> +2.6722090e-04 </wgt>
<wgt id='morphing_basis_vector_4'> +1.5448305e-04 </wgt>
<wgt id='morphing_basis_vector_5'> +2.4333124e-04 </wgt>
</rwgt>
</event>
<event>
 4      1 +2.9741700e-06 8.36472600e+02 7.81860800e-03 8.85783500e-02
        2 -1    0    0  501    0 +0.0000000000e+00 +0.0000000000e+00 +2.8207504272e+02 2.8207504272e+02 0.0000000000e+00 0.0000e+00 1.0000e+00
       -2 -1    0    0    0  501 -0.0000000000e+00 -0.0000000000e+00 -6.2012428130e+02 6.2012428130e+02 0.0000000000e+00 0.0000e+00 -1.0000e+00
      -13  1    1    2    0    0 -2.5328408338e+02 -2.3961827923e+02 +8.0105071396e+01 3.5775210565e+02 0.0000000000e+00 0.0000e+00 -1.0000e+00
       13  1    1    2    0    0 +2.5328408338e+02 +2.3961827923e+02 -4.1815430998e+02 5.4444721837e+02 0.0000000000e+00 0.0000e+00 1.0000e+00
<mgrwt>
<rscale>  0 0.83647255E+03</rscale>
<asrwt>0</asrwt>
<pdfrwt beam="1">  1        2 0.43396161E-01 0.83647255E+03</pdfrwt>
<pdfrwt beam="2">  1       -2 0.95403735E-01 0.83647255E+03</pdfrwt>
<totfact> 0.13531629E+02</totfact>
</mgrwt>
<rwgt>
<wgt id='morphing_basis_vector_1'> +2.9503760e-04 </wgt>
<wgt id='morphing_basis_vector_2'> +3.0222446e-04 </wgt>
<wgt id='morphing_basis_vector_3'> +2.5707242e-04 </wgt>
<wgt id='morphing_basis_vector_4'> +5.9444375e-05 </wgt>
<wgt id='morphing_basis_vector_5'> +1.9506794e-04 </wgt>
</rwgt>
</event>
<event>
 4      1 +2.9741700e-06 8.94109100e+02 7.81860800e-03 8.79230500e-02
        2 -1    0    0  501    0 +0.0000000000e+00 +0.0000000000e+00 +5.4361552548e+02 5.4361552548e+02 0.0000000000e+00 0.0000e+00 -1.0000e+00
       -2 -1    0    0    0  501 -0.0000000000e+00 -0.0000000000e+00 -3.6764544498e+02 3.6764544498e+02 0.0000000000e+00 0.0000e+00 1.0000e+00
      -13  1    1    2    0    0 +4.1129113573e+02 +1.6463477226e+02 +2.6895526108e+01 4.4383372550e+02 0.0000000000e+00 0.0000e+00 1.0000e+00
       13  1    1    2    0    0 -4.1129113573e+02 -1.6463477226e+02 +1.4907455439e+02 4.6742724496e+02 0.0000000000e+00 0.0000e+00 -1.0000e+00
<mgrwt>
<rscale>  0 0.89410910E+03</rscale>
<asrwt>0</asrwt>
<pdfrwt beam="1">  1        2 0.83633158E-01 0.89410910E+03</pdfrwt>
<pdfrwt beam="2">  1       -2 0.56560837E-01 0.89410910E+03</pdfrwt>
<totfact> 0.20139434E+02</totfact>
</mgrwt>
<rwgt>
<wgt id='morphing_basis_vector_1'> +3.1785842e-04 </wgt>
<wgt id='morphing_basis_vector_2'> +2.1153661e-04 </wgt>
<wgt id='morphing_basis_vector_3'> +2.9527681e-04 </wgt>
<wgt id='morphing_basis_vector_4'> +1.5989453e-04 </wgt>
<wgt id='morphing_basis_vector_5'> +2.6652606e-04 </wgt>
</rwgt>
</event>
<event>
 4      1 +2.9741700e-06 7.55253700e+02 7.81860800e-03 8.96030100e-02
        2 -1    0    0  501    0 +0.0000000000e+00 +0.0000000000e+00 +2.4624476802e+02 2.4624476802e+02 0.0000000000e+00 0.0000e+00 1.0000e+00
       -2 -1    0    0    0  501 -0.0000000000e+00 -0.0000000000e+00 -5.7910693300e+02 5.7910693300e+02 0.0000000000e+00 0.0000e+00 -1.0000e+00
      -13  1    1    2    0    0 +2.1319661506e+02 +1.8906959808e+01 -5.0642050910e+02 5.4979268988e+02 0.0000000000e+00 0.0000e+00 -1.0000e+00
       13  1    1    2    0    0 -2.1319661506e+02 -1.8906959808e+01 +1.7355834413e+02 2.7555901113e+02 0.0000000000e+00 0.0000e+00 1.0000e+00
<mgrwt>
<rscale>  0 0.75525374E+03</rscale>
<asrwt>0</asrwt>
<pdfrwt beam="1">  1        2 0.37883811E-01 0.75525374E+03</pdfrwt>
<pdfrwt beam="2">  1       -2 0.89093374E-01 0.75525374E+03</pdfrwt>
<totfact> 0.18615054E+02</totfact>
</mgrwt>
<rwgt>
<wgt id='morphing_basis_vector_1'> +1.7059676e-04 </wgt>
<wgt id='morphing_basis_vector_2'> +1.0173666e-04 </wgt>
<wgt id='morphing_basis_vector_3'> +1.4994161e-04 </wgt>
<wgt id='morphing_basis_vector_4'> +7.9512074e-05 </wgt>
<wgt id='morphing_basis_vector_5'> +1.2422032e-04 </wgt>
</rwgt>
</event>
<event>
 4      1 +2.9741700e-06 8.86956300e+02 7.81860800e-03 8.80015100e-02
        2 -1    0    0  501    0 +0.0000000000e+00 +0.0000000000e+00 +1.0894402013e+03 1.0894402013e+03 0.0000000000e+00 0.0000e+00 -1.0000e+00
       -2 -1    0    0    0  501 -0.0000000000e+00 -0.0000000000e+00 -1.8052652272e+02 1.8052652272e+02 0.0000000000e+00 0.0000e+00 1.0000e+00
      -13  1    1    2    0    0 -3.1168088198e+02 +2.0252539637e+02 +1.0811084287e+02 3.8710394304e+02 0.0000000000e+00 0.0000e+00 1.0000e+00
       13  1    1    2    0    0 +3.1168088198e+02 -2.0252539637e+02 +8.0080283573e+02 8.8286278100e+02 0.0000000000e+00 0.0000e+00 -1.0000e+00
<mgrwt>
<rscale>  0 0.88695626E+03</rscale>
<asrwt>0</asrwt>
<pdfrwt beam="1">  1        2 0.16760618E+00 0.88695626E+03</pdfrwt>
<pdfrwt beam="2">  1       -2 0.27773312E-01 0.88695626E+03</pdfrwt>
<totfact> 0.31073503E+02</totfact>
</mgrwt>
<rwgt>
<wgt id='morphing_basis_vector_1'> +3.0324178e-04 </wgt>
<wgt id='morphing_basis_vector_2'> +1.8847190e-04 </wgt>
<wgt id='morphing_basis_vector_3'> +2.8183336e-04 </wgt>
<wgt id='morphing_basis_vector_4'> +1.6206902e-04 </wgt>
<wgt id='morphing_basis_vector_5'> +2.5758749e-04 </wgt>
</rwgt>
</event>
<event>
 4      1 +2.9741700e-06 7.76141300e+02 7.81860800e-03 8.93268600e-02
        2 -1    0    0  501    0 +0.0000000000e+00 +0.0000000000e+00 +2.8776851010e+02 2.8776851010e+02 0.0000000000e+00 0.0000e+00 -1.0000e+00
       -2 -1    0    0    0  501 -0.0000000000e+00 -0.0000000000e+00 -5.2333329368e+02 5.2333329368e+02 0.0000000000e+00 0.0000e+00 1.0000e+00
      -13  1    1    2    0    0 -3.2707349613e+01 -3.1291498332e+02 -3.5520130048e+02 4.7450344716e+02 0.0000000000e+00 0.0000e+00 1.0000e+00
       13  1    1    2    0    0 +3.2707349613e+01 +3.1291498332e+02 +1.1963651690e+02 3.3659835662e+02 0.0000000000e+00 0.0000e+00 -1.0000e+00
<mgrwt>
<rscale>  0 0.77614133E+03</rscale>
<asrwt>0</asrwt>
<pdfrwt beam="1">  1        2 0.44272079E-01 0.77614133E+03</pdfrwt>
<pdfrwt beam="2">  1       -2 0.80512813E-01 0.77614133E+03</pdfrwt>
<totfact> 0.19662795E+02</totfact>
</mgrwt>
<rwgt>
<wgt id='morphing_basis_vector_1'> +1.8814759e-04 </wgt>
<wgt id='morphing_basis_vector_2'> +1.1385391e-04 </wgt>
<wgt id='morphing_basis_vector_3'> +1.6696205e-04 </wgt>
<wgt id='morphing_basis_vector_4'> +8.9490313e-05 </wgt>
<wgt id='morphing_basis_vector_5'> +1.4090067e-04 </wgt>
</rwgt>
</event>
<event>
 4      1 +2.9741700e-06 7.90762000e+02 7.81860800e-03 8.91390100e-02
        2 -1    0    0  501    0 +0.0000000000e+00 +0.0000000000e+00 +3.5076543111e+02 3.5076543111e+02 0.0000000000e+00 0.0000e+00 1.0000e+00
       -2 -1    0    0    0  501 -0.0000000000e+00 -0.0000000000e+00 -4.4567142366e+02 4.4567142366e+02 0.0000000000e+00 0.0000e+00 -1.0000e+00
      -13  1    1    2    0    0 -4.0166490301e+00 -3.9021629176e+02 -1.1147996679e+02 4.0584808836e+02 0.0000000000e+00 0.0000e+00 -1.0000e+00
       13  1    1    2    0    0 +4.0166490301e+00 +3.9021629176e+02 +1.6573974247e+01 3.9058876641e+02 0.0000000000e+00 0.0000e+00 1.0000e+00
<mgrwt>
<rscale>  0 0.79076198E+03</rscale>
<asrwt>0</asrwt>
<pdfrwt beam="1">  1        2 0.53963913E-01 0.79076198E+03</pdfrwt>
<pdfrwt beam="2">  1       -2 0.68564834E-01 0.79076198E+03</pdfrwt>
<totfact> 0.22365393E+02</totfact>
</mgrwt>
<rwgt>
<wgt id='morphing_basis_vector_1'> +2.0427513e-04 </wgt>
<wgt id='morphing_basis_vector_2'> +1.3223242e-04 </wgt>
<wgt id='morphing_basis_vector_3'> +1.8149517e-04 </wgt>
<wgt id='morphing_basis_vector_4'> +9.3218179e-05 </wgt>
<wgt id='morphing_basis_vector_5'> +1.5333383e-04 </wgt>
</rwgt>
</event>
<event>
 4      1 +2.9741700e-06 8.35176900e+02 7.81860800e-03 8.85937200e-02
        2 -1    0    0  501    0 +0.0000000000e+00 +0.0000000000e+00 +9.1400817843e+01 9.1400817843e+01 0.0000000000e+00 0.0000e+00 -1.0000e+00
       -2 -1    0    0    0  501 -0.0000000000e+00 -0.0000000000e+00 -1.9078618248e+03 1.9078618248e+03 0.0000000000e+00 0.0000e+00 1.0000e+00
      -13  1    1    2    0    0 +2.5980696299e+02 -1.3692312147e+02 -1.6188865882e+03 1.6453089025e+03 0.0000000000e+00 0.0000e+00 1.0000e+00
       13  1    1    2    0    0 -2.5980696299e+02 +1.3692312147e+02 -1.9757441876e+02 3.5395374014e+02 0.0000000000e+00 0.0000e+00 -1.0000e+00
<mgrwt>
<rscale>  0 0.83517694E+03</rscale>
<asrwt>0</asrwt>
<pdfrwt beam="1">  1        2 0.14061665E-01 0.83517694E+03</pdfrwt>
<pdfrwt beam="2">  1       -2 0.29351719E+00 0.83517694E+03</pdfrwt>
<totfact> 0.14677215E+01</totfact>
</mgrwt>
<rwgt>
<wgt id='morphing_basis_vector_1'> +2.4366677e-04 </wgt>
<wgt id='morphing_basis_vector_2'> +1.4854825e-04 </wgt>
<wgt id='morphing_basis_vector_3'> +2.2214257e-04 </wgt>
<wgt id='morphing_basis_vector_4'> +1.2488505e-04 </wgt>
<wgt id='morphing_basis_vector_5'> +1.9679725e-04 </wgt>
</rwgt>
</event>
<event>
 4      1 +2.9741700e-06 7.66575800e+02 7.81860800e-03 8.94521600e-02
        2 -1    0    0  501    0 +0.0000000000e+00 +0.0000000000e+00 +2.5901857708e+02 2.5901857708e+02 0.0000000000e+00 0.0000e+00 -1.0000e+00
       -2 -1    0    0    0  501 -0.0000000000e+00 -0.0000000000e+00 -5.6717795626e+02 5.6717795626e+02 0.0000000000e+00 0.0000e+00 1.0000e+00
      -13  1    1    2    0    0 +3.4613672185e+01 -3.0175104818e+02 -4.0605292965e+02 5.0708064749e+02 0.0000000000e+00 0.0000e+00 1.0000e+00
       13  1    1    2    0    0 -3.4613672185e+01 +3.0175104818e+02 +9.7893550467e+01 3.1911588585e+02 0.0000000000e+00 0.0000e+00 -1.0000e+00
<mgrwt>
<rscale>  0 0.76657583E+03</rscale>
<asrwt>0</asrwt>
<pdfrwt beam="1">  1        2 0.39849012E-01 0.76657583E+03</pdfrwt>
<pdfrwt beam="2">  1       -2 0.87258147E-01 0.76657583E+03</pdfrwt>
<totfact> 0.18432420E+02</totfact>
</mgrwt>
<rwgt>
<wgt id='morphing_basis_vector_1'> +1.8006057e-04 </wgt>
<wgt id='morphing_basis_vector_2'> +1.0853722e-04 </wgt>
<wgt id='morphing_basis_vector_3'> +1.5905015e-04 </wgt>
<wgt id='morphing_basis_vector_4'> +8.4675641e-05 </wgt>
<wgt id='morphing_basis_vector_5'> +1.3307005e-04 </wgt>
</rwgt>
</event>
<event>
 4      1 +2.9741700e-06 7.72124600e+02 7.81860800e-03 8.93792400e-02
        2 -1    0    0  501    0 +0.0000000000e+00 +0.0000000000e+00 +1.8253868730e+03 1.8253868730e+03 0.0000000000e+00 0.0000e+00 -1.0000e+00
       -2 -1    0    0    0  501 -0.0000000000e+00 -0.0000000000e+00 -8.1650697200e+01 8.1650697200e+01 0.0000000000e+00 0.0000e+00 1.0000e+00
      -13  1    1    2    0    0 +9.6470440274e+01 +2.5621670930e+02 +1.9958329092e+02 3.3880235829e+02 0.0000000000e+00 0.0000e+00 1.0000e+00
       13  1    1    2    0    0 -9.6470440274e+01 -2.5621670930e+02 +1.5441528849e+03 1.5682352120e+03 0.0000000000e+00 0.0000e+00 -1.0000e+00
<mgrwt>
<rscale>  0 0.77212463E+03</rscale>
<asrwt>0</asrwt>
<pdfrwt beam="1">  1        2 0.28082872E+00 0.77212463E+03</pdfrwt>
<pdfrwt beam="2">  1       -2 0.12561647E-01 0.77212463E+03</pdfrwt>
<totfact> 0.45105829E+02</totfact>
</mgrwt>
<rwgt>
<wgt id='morphing_basis_vector_1'> +1.8447415e-04 </wgt>
<wgt id='morphing_basis_vector_2'> +1.1084998e-04 </wgt>
<wgt id='morphing_basis_vector_3'> +1.6347334e-04 </wgt>
<wgt id='morphing_basis_vector_4'> +8.7739752e-05 </wgt>
<wgt id='morphing_basis_vector_5'> +1.3758484e-04 </wgt>
</rwgt>
</event>
<event>
 4      1 +2.9741700e-06 7.71724400e+02 7.81860800e-03 8.93844800e-02
        2 -1    0    0  501    0 +0.0000000000e+00 +0.0000000000e+00 +5.6707638496e+02 5.6707638496e+02 0.0000000000e+00 0.0000e+00 -1.0000e+00
       -2 -1    0    0    0  501 -0.0000000000e+00 -0.0000000000e+00 -2.6255658730e+02 2.6255658730e+02 0.0000000000e+00 0.0000e+00 1.0000e+00
      -13  1    1    2    0    0 +2.3066714158e+02 +3.0331005541e+02 +8.6997745884e+01 3.9086177570e+02 0.0000000000e+00 0.0000e+00 1.0000e+00
       13  1    1    2    0    0 -2.3066714158e+02 -3.0331005541e+02 +2.1752205178e+02 4.3877119656e+02 0.0000000000e+00 0.0000e+00 -1.0000e+00
<mgrwt>
<rscale>  0 0.77172441E+03</rscale>
<asrwt>0</asrwt>
<pdfrwt beam="1">  1        2 0.87242521E-01 0.77172441E+03</pdfrwt>
<pdfrwt beam="2">  1       -2 0.40393321E-01 0.77172441E+03</pdfrwt>
<totfact> 0.37051050E+02</totfact>
</mgrwt>
<rwgt>
<wgt id='morphing_basis_vector_1'> +1.8750691e-04 </wgt>
<wgt id='morphing_basis_vector_2'> +1.2097120e-04 </wgt>
<wgt id='morphing_basis_vector_3'> +1.6494050e-04 </wgt>
<wgt id='morphing_basis_vector_4'> +8.3462465e-05 </wgt>
<wgt id='morphing_basis_vector_5'> +1.3709822e-04 </wgt>
</rwgt>
</event>
<event>
 4      1 +2.9741700e-06 8.29348900e+02 7.81860800e-03 8.86632000e-02
        2 -1    0    0  501    0 +0.0000000000e+00 +0.0000000000e+00 +8.8324048171e+02 8.8324048171e+02 0.0000000000e+00 0.0000e+00 -1.0000e+00
       -2 -1    0    0    0  501 -0.0000000000e+00 -0.0000000000e+00 -1.9468640464e+02 1.9468640464e+02 0.0000000000e+00 0.0000e+00 1.0000e+00
      -13  1    1    2    0    0 -1.9705183890e+02 +2.1504160668e+02 -3.8828475558e+01 2.9424474563e+02 0.0000000000e+00 0.0000e+00 1.0000e+00
       13  1    1    2    0    0 +1.9705183890e+02 -2.1504160668e+02 +7.2738255263e+02 7.8368214072e+02 0.0000000000e+00 0.0000e+00 -1.0000e+00
<mgrwt>
<rscale>  0 0.82934893E+03</rscale>
<asrwt>0</asrwt>
<pdfrwt beam="1">  1        2 0.13588315E+00 0.82934893E+03</pdfrwt>
<pdfrwt beam="2">  1       -2 0.29951755E-01 0.82934893E+03</pdfrwt>
<totfact> 0.36744495E+02</totfact>
</mgrwt>
<rwgt>
<wgt id='morphing_basis_vector_1'> +2.3764394e-04 </wgt>
<wgt id='morphing_basis_vector_2'> +1.4469378e-04 </wgt>
<wgt id='morphing_basis_vector_3'> +2.1613140e-04 </wgt>
<wgt id='morphing_basis_vector_4'> +1.2104429e-04 </wgt>
<wgt id='morphing_basis_vector_5'> +1.9067197e-04 </wgt>
</rwgt>
</event>
<event>
 4      1 +2.9741700e-06 8.92134900e+02 7.81860800e-03 8.79446300e-02
        2 -1    0    0  501    0 +0.0000000000e+00 +0.0000000000e+00 +2.5397297963e+03 2.5397297963e+03 0.0000000000e+00 0.0000e+00 -1.0000e+00
       -2 -1    0    0    0  501 -0.0000000000e+00 -0.0000000000e+00 -7.8345417168e+01 7.8345417168e+01 0.0000000000e+00 0.0000e+00 1.0000e+00
      -13  1    1    2    0    0 +9.1533088760e+01 +4.1046089220e+02 +7.9423507548e+02 8.9870228969e+02 0.0000000000e+00 0.0000e+00 1.0000e+00
       13  1    1    2    0    0 -9.1533088760e+01 -4.1046089220e+02 +1.6671493037e+03 1.7193729238e+03 0.0000000000e+00 0.0000e+00 -1.0000e+00
<mgrwt>
<rscale>  0 0.89213495E+03</rscale>
<asrwt>0</asrwt>
<pdfrwt beam="1">  1        2 0.39072760E+00 0.89213495E+03</pdfrwt>
<pdfrwt beam="2">  1       -2 0.12053143E-01 0.89213495E+03</pdfrwt>
<totfact> 0.18833864E+02</totfact>
</mgrwt>
<rwgt>
<wgt id='morphing_basis_vector_1'> +3.1161736e-04 </wgt>
<wgt id='morphing_basis_vector_2'> +1.9849981e-04 </wgt>
<wgt id='morphing_basis_vector_3'> +2.8984335e-04 </wgt>
<wgt id='morphing_basis_vector_4'> +1.6357657e-04 </wgt>
<wgt id='morphing_basis_vector_5'> +2.6419737e-04 </wgt>
</rwgt>
</event>
<event>
 4      1 +2.9741700e-06 8.44467000e+02 7.81860800e-03 8.84841900e-02
        2 -1    0    0  501    0 +0.0000000000e+00 +0.0000000000e+00 +3.6045525227e+02 3.6045525227e+02 0.0000000000e+00 0.0000e+00 -1.0000e+00
       -2 -1    0    0    0  501 -0.0000000000e+00 -0.0000000000e+00 -4.9459983747e+02 4.9459983747e+02 0.0000000000e+00 0.0000e+00 1.0000e+00
      -13  1    1    2    0    0 +9.1599123796e+01 +4.1206186312e+02 -7.6979174519e+01 4.2908177755e+02 0.0000000000e+00 0.0000e+00 1.0000e+00
       13  1    1    2    0    0 -9.1599123796e+01 -4.1206186312e+02 -5.7165410686e+01 4.2597331219e+02 0.0000000000e+00 0.0000e+00 -1.0000e+00
<mgrwt>
<rscale>  0 0.84446695E+03</rscale>
<asrwt>0</asrwt>
<pdfrwt beam="1">  1        2 0.55454654E-01 0.84446695E+03</pdfrwt>
<pdfrwt beam="2">  1       -2 0.76092282E-01 0.84446695E+03</pdfrwt>
<totfact> 0.17260685E+02</totfact>
</mgrwt>
<rwgt>
<wgt id='morphing_basis_vector_1'> +2.6145862e-04 </wgt>
<wgt id='morphing_basis_vector_2'> +1.7912099e-04 </wgt>
<wgt id='morphing_basis_vector_3'> +2.3744340e-04 </wgt>
<wgt id='morphing_basis_vector_4'> +1.2055221e-04 </wgt>
<wgt id='morphing_basis_vector_5'> +2.0634508e-04 </wgt>
</rwgt>
</event>
<event>
 4      1 +2.9741700e-06 8.30699200e+02 7.81860800e-03 8.86470500e-02
        2 -1    0    0  501    0 +0.0000000000e+00 +0.0000000000e+00 +2.1031483061e+03 2.1031483061e+03 0.0000000000e+00 0.0000e+00 1.0000e+00
       -2 -1    0    0    0  501 -0.0000000000e+00 -0.0000000000e+00 -8.2027163156e+01 8.2027163156e+01 0.0000000000e+00 0.0000e+00 -1.0000e+00
      -13  1    1    2    0    0 -3.6812467298e+02 +1.7213876490e+02 +1.2363534607e+03 1.3014289873e+03 0.0000000000e+00 0.0000e+00 -1.0000e+00
       13  1    1    2    0    0 +3.6812467298e+02 -1.7213876490e+02 +7.8476768221e+02 8.8374648190e+02 0.0000000000e+00 0.0000e+00 1.0000e+00
<mgrwt>
<rscale>  0 0.83069920E+03</rscale>
<asrwt>0</asrwt>
<pdfrwt beam="1">  1        2 0.32356124E+00 0.83069920E+03</pdfrwt>
<pdfrwt beam="2">  1       -2 0.12619565E-01 0.83069920E+03</pdfrwt>
<totfact> 0.31303104E+02</totfact>
</mgrwt>
<rwgt>
<wgt id='morphing_basis_vector_1'> +2.5606140e-04 </wgt>
<wgt id='morphing_basis_vector_2'> +1.9763613e-04 </wgt>
<wgt id='morphing_basis_vector_3'> +2.2875428e-04 </wgt>
<wgt id='morphing_basis_vector_4'> +9.9509930e-05 </wgt>
<wgt id='morphing_basis_vector_5'> +1.9104125e-04 </wgt>
</rwgt>
</event>
<event>
 4      1 +2.9741700e-06 8.48619200e+02 7.81860800e-03 8.84357100e-02
        2 -1    0    0  501    0 +0.0000000000e+00 +0.0000000000e+00 +6.6812553873e+02 6.6812553873e+02 0.0000000000e+00 0.0000e+00 1.0000e+00
       -2 -1    0    0    0  501 -0.0000000000e+00 -0.0000000000e+00 -2.6946828159e+02 2.6946828159e+02 0.0000000000e+00 0.0000e+00 -1.0000e+00
      -13  1    1    2    0    0 -3.8736191993e+02 -1.6659707373e+02 +1.4709850001e+02 4.4658908483e+02 0.0000000000e+00 0.0000e+00 -1.0000e+00
       13  1    1    2    0    0 +3.8736191993e+02 +1.6659707373e+02 +2.5155875713e+02 4.9100473549e+02 0.0000000000e+00 0.0000e+00 1.0000e+00
<mgrwt>
<rscale>  0 0.84861921E+03</rscale>
<asrwt>0</asrwt>
<pdfrwt beam="1">  1        2 0.10278854E+00 0.84861921E+03</pdfrwt>
<pdfrwt beam="2">  1       -2 0.41456659E-01 0.84861921E+03</pdfrwt>
<totfact> 0.28957077E+02</totfact>
</mgrwt>
<rwgt>
<wgt id='morphing_basis_vector_1'> +2.6376096e-04 </wgt>
<wgt id='morphing_basis_vector_2'> +1.7529222e-04 </wgt>
<wgt id='morphing_basis_vector_3'> +2.4048559e-04 </wgt>
<wgt id='morphing_basis_vector_4'> +1.2634736e-04 </wgt>
<wgt id='morphing_basis_vector_5'> +2.1109273e-04 </wgt>
</rwgt>
</event>
<event>
 4      1 +2.9741700e-06 8.05081800e+02 7.81860800e-03 8.89591400e-02
        2 -1    0    0  501    0 +0.0000000000e+00 +0.0000000000e+00 +1.6629907949e+03 1.6629907949e+03 0.0000000000e+00 0.0000e+00 -1.0000e+00
       -2 -1    0    0    0  501 -0.0000000000e+00 -0.0000000000e+00 -9.7438409967e+01 9.7438409967e+01 0.0000000000e+00 0.0000e+00 1.0000e+00
      -13  1    1    2    0    0 +3.4686813317e+02 -4.4463432576e+01 +3.4684488941e+02 4.9254022776e+02 0.0000000000e+00 0.0000e+00 1.0000e+00
       13  1    1    2    0    0 -3.4686813317e+02 +4.4463432576e+01 +1.2187074955e+03 1.2678889771e+03 0.0000000000e+00 0.0000e+00 -1.0000e+00
<mgrwt>
<rscale>  0 0.80508181E+03</rscale>
<asrwt>0</asrwt>
<pdfrwt beam="1">  1        2 0.25584472E+00 0.80508181E+03</pdfrwt>
<pdfrwt beam="2">  1       -2 0.14990526E-01 0.80508181E+03</pdfrwt>
<totfact> 0.41573712E+02</totfact>
</mgrwt>
<rwgt>
<wgt id='morphing_basis_vector_1'> +2.1450204e-04 </wgt>
<wgt id='morphing_basis_vector_2'> +1.3161046e-04 </wgt>
<wgt id='morphing_basis_vector_3'> +1.9284833e-04 </wgt>
<wgt id='morphing_basis_vector_4'> +1.0508221e-04 </wgt>
<wgt id='morphing_basis_vector_5'> +1.6659698e-04 </wgt>
</rwgt>
</event>
<event>
 4      1 +2.9741700e-06 8.64037200e+02 7.81860800e-03 8.82582400e-02
        2 -1    0    0  501    0 +0.0000000000e+00 +0.0000000000e+00 +7.7824796294e+02 7.7824796294e+02 0.0000000000e+00 0.0000e+00 -1.0000e+00
       -2 -1    0    0    0  501 -0.0000000000e+00 -0.0000000000e+00 -2.3982082572e+02 2.3982082572e+02 0.0000000000e+00 0.0000e+00 1.0000e+00
      -13  1    1    2    0    0 +1.4376576066e+02 -8.1204871869e+01 -2.0117617151e+02 2.6025886563e+02 0.0000000000e+00 0.0000e+00 1.0000e+00
       13  1    1    2    0    0 -1.4376576066e+02 +8.1204871869e+01 +7.3960330874e+02 7.5780992303e+02 0.0000000000e+00 0.0000e+00 -1.0000e+00
<mgrwt>
<rscale>  0 0.86403720E+03</rscale>
<asrwt>0</asrwt>
<pdfrwt beam="1">  1        2 0.11973045E+00 0.86403720E+03</pdfrwt>
<pdfrwt beam="2">  1       -2 0.36895512E-01 0.86403720E+03</pdfrwt>
<totfact> 0.29735602E+02</totfact>
</mgrwt>
<rwgt>
<wgt id='morphing_basis_vector_1'> +2.7497813e-04 </wgt>
<wgt id='morphing_basis_vector_2'> +1.6794162e-04 </wgt>
<wgt id='morphing_basis_vector_3'> +2.5360060e-04 </wgt>
<wgt id='morphing_basis_vector_4'> +1.4562329e-04 </wgt>
<wgt id='morphing_basis_vector_5'> +2.2926338e-04 </wgt>
</rwgt>
</event>
<event>
 4      1 +2.9741700e-06 8.57226000e+02 7.81860800e-03 8.83361600e-02
        2 -1    0    0  501    0 +0.0000000000e+00 +0.0000000000e+00 +9.8246132129e+02 9.8246132129e+02 0.0000000000e+00 0.0000e+00 -1.0000e+00
       -2 -1    0    0    0  501 -0.0000000000e+00 -0.0000000000e+00 -1.8698865059e+02 1.8698865059e+02 0.0000000000e+00 0.0000e+00 1.0000e+00
      -13  1    1    2    0    0 -1.4829350582e+02 -2.8053440979e+02 +4.6626284158e+00 3.1735194823e+02 0.0000000000e+00 0.0000e+00 1.0000e+00
       13  1    1    2    0    0 +1.4829350582e+02 +2.8053440979e+02 +7.9081004228e+02 8.5209802365e+02 0.0000000000e+00 0.0000e+00 -1.0000e+00
<mgrwt>
<rscale>  0 0.85722603E+03</rscale>
<asrwt>0</asrwt>
<pdfrwt beam="1">  1        2 0.15114789E+00 0.85722603E+03</pdfrwt>
<pdfrwt beam="2">  1       -2 0.28767485E-01 0.85722603E+03</pdfrwt>
<totfact> 0.34027166E+02</totfact>
</mgrwt>
<rwgt>
<wgt id='morphing_basis_vector_1'> +2.6764064e-04 </wgt>
<wgt id='morphing_basis_vector_2'> +1.6417150e-04 </wgt>
<wgt id='morphing_basis_vector_3'> +2.4611814e-04 </wgt>
<wgt id='morphing_basis_vector_4'> +1.4008307e-04 </wgt>
<wgt id='morphing_basis_vector_5'> +2.2125486e-04 </wgt>
</rwgt>
</event>
<event>
 4      1 +2.9741700e-06 7.51580000e+02 7.81860800e-03 8.96525600e-02
        2 -1    0    0  501    0 +0.0000000000e+00 +0.0000000000e+00 +5.6320000401e+01 5.6320000401e+01 0.0000000000e+00 0.0000e+00 1.0000e+00
       -2 -1    0    0    0  501 -0.0000000000e+00 -0.0000000000e+00 -2.5074243494e+03 2.5074243494e+03 0.0000000000e+00 0.0000e+00 -1.0000e+00
      -13  1    1    2    0    0 -2.9278081812e+02 -2.2058628914e+02 -1.5076520052e+03 1.5515777413e+03 0.0000000000e+00 0.0000e+00 -1.0000e+00
       13  1    1    2    0    0 +2.9278081812e+02 +2.2058628914e+02 -9.4345234380e+02 1.0121666085e+03 0.0000000000e+00 0.0000e+00 1.0000e+00
<mgrwt>
<rscale>  0 0.75158004E+03</rscale>
<asrwt>0</asrwt>
<pdfrwt beam="1">  1        2 0.86646143E-02 0.75158004E+03</pdfrwt>
<pdfrwt beam="2">  1       -2 0.38575764E+00 0.75158004E+03</pdfrwt>
<totfact> 0.68780135E+00</totfact>
</mgrwt>
<rwgt>
<wgt id='morphing_basis_vector_1'> +1.7019679e-04 </wgt>
<wgt id='morphing_basis_vector_2'> +1.0754244e-04 </wgt>
<wgt id='morphing_basis_vector_3'> +1.4833196e-04 </wgt>
<wgt id='morphing_basis_vector_4'> +7.4866172e-05 </wgt>
<wgt id='morphing_basis_vector_5'> +1.2133355e-04 </wgt>
</rwgt>
</event>
<event>
 4      1 +2.9741700e-06 7.77715700e+02 7.81860800e-03 8.93064300e-02
        2 -1    0    0  501    0 +0.0000000000e+00 +0.0000000000e+00 +3.2069283239e+02 3.2069283239e+02 0.0000000000e+00 0.0000e+00 -1.0000e+00
       -2 -1    0    0    0  501 -0.0000000000e+00 -0.0000000000e+00 -4.7151166460e+02 4.7151166460e+02 0.0000000000e+00 0.0000e+00 1.0000e+00
      -13  1    1    2    0    0 -1.9817433985e+02 -1.2595053855e+02 -3.9114167302e+02 4.5621093313e+02 0.0000000000e+00 0.0000e+00 1.0000e+00
       13  1    1    2    0    0 +1.9817433985e+02 +1.2595053855e+02 +2.4032284082e+02 3.3599356386e+02 0.0000000000e+00 0.0000e+00 -1.0000e+00
<mgrwt>
<rscale>  0 0.77771566E+03</rscale>
<asrwt>0</asrwt>
<pdfrwt beam="1">  1        2 0.49337359E-01 0.77771566E+03</pdfrwt>
<pdfrwt beam="2">  1       -2 0.72540256E-01 0.77771566E+03</pdfrwt>
<totfact> 0.21933745E+02</totfact>
</mgrwt>
<rwgt>
<wgt id='morphing_basis_vector_1'> +1.8908925e-04 </wgt>
<wgt id='morphing_basis_vector_2'> +1.1347169e-04 </wgt>
<wgt id='morphing_basis_vector_3'> +1.6806508e-04 </wgt>
<wgt id='morphing_basis_vector_4'> +9.0809132e-05 </wgt>
<wgt id='morphing_basis_vector_5'> +1.4224051e-04 </wgt>
</rwgt>
</event>
<event>
 4      1 +2.9741700e-06 8.12772900e+02 7.81860800e-03 8.88641700e-02
        2 -1    0    0  501    0 +0.0000000000e+00 +0.0000000000e+00 +1.4230140043e+03 1.4230140043e+03 0.0000000000e+00 0.0000e+00 1.0000e+00
       -2 -1    0    0    0  501 -0.0000000000e+00 -0.0000000000e+00 -1.1605645409e+02 1.1605645409e+02 0.0000000000e+00 0.0000e+00 -1.0000e+00
      -13  1    1    2    0    0 +3.1970516735e+02 -2.4982269145e+02 +6.1000051675e+02 7.3261408779e+02 0.0000000000e+00 0.0000e+00 -1.0000e+00
       13  1    1    2    0    0 -3.1970516735e+02 +2.4982269145e+02 +6.9695703348e+02 8.0645637062e+02 0.0000000000e+00 0.0000e+00 1.0000e+00
<mgrwt>
<rscale>  0 0.81277293E+03</rscale>
<asrwt>0</asrwt>
<pdfrwt beam="1">  1        2 0.21892522E+00 0.81277293E+03</pdfrwt>
<pdfrwt beam="2">  1       -2 0.17854840E-01 0.81277293E+03</pdfrwt>
<totfact> 0.42377372E+02</totfact>
</mgrwt>
<rwgt>
<wgt id='morphing_basis_vector_1'> +2.2723132e-04 </wgt>
<wgt id='morphing_basis_vector_2'> +1.5277062e-04 </wgt>
<wgt id='morphing_basis_vector_3'> +2.0350568e-04 </wgt>
<wgt id='morphing_basis_vector_4'> +1.0277065e-04 </wgt>
<wgt id='morphing_basis_vector_5'> +1.7365608e-04 </wgt>
</rwgt>
</event>
<event>
 4      1 +2.9741700e-06 7.84384900e+02 7.81860800e-03 8.92204100e-02
        2 -1    0    0  501    0 +0.0000000000e+00 +0.0000000000e+00 +6.2889318412e+02 6.2889318412e+02 0.0000000000e+00 0.0000e+00 -1.0000e+00
       -2 -1    0    0    0  501 -0.0000000000e+00 -0.0000000000e+00 -2.4458035101e+02 2.4458035101e+02 0.0000000000e+00 0.0000e+00 1.0000e+00
      -13  1    1    2    0    0 +2.5097225380e+02 -8.7574627641e+01 -1.2896844236e+02 2.9544753630e+02 0.0000000000e+00 0.0000e+00 1.0000e+00
       13  1    1    2    0    0 -2.5097225380e+02 +8.7574627641e+01 +5.1328127546e+02 5.7802599883e+02 0.0000000000e+00 0.0000e+00 -1.0000e+00
<mgrwt>
<rscale>  0 0.78438489E+03</rscale>
<asrwt>0</asrwt>
<pdfrwt beam="1">  1        2 0.96752797E-01 0.78438489E+03</pdfrwt>
<pdfrwt beam="2">  1       -2 0.37627746E-01 0.78438489E+03</pdfrwt>
<totfact> 0.37385773E+02</totfact>
</mgrwt>
<rwgt>
<wgt id='morphing_basis_vector_1'> +1.9494382e-04 </wgt>
<wgt id='morphing_basis_vector_2'> +1.1737223e-04 </wgt>
<wgt id='morphing_basis_vector_3'> +1.7379703e-04 </wgt>
<wgt id='morphing_basis_vector_4'> +9.4287842e-05 </wgt>
<wgt id='morphing_basis_vector_5'> +1.4792935e-04 </wgt>
</rwgt>
</event>
<event>
 4      1 +2.9741700e-06 7.96560100e+02 7.81860800e-03 8.90657000e-02
        2 -1    0    0  501    0 +0.0000000000e+00 +0.0000000000e+00 +6.7418665432e+02 6.7418665432e+02 0.0000000000e+00 0.0000e+00 -1.0000e+00
       -2 -1    0    0    0  501 -0.0000000000e+00 -0.0000000000e+00 -2.3528644927e+02 2.3528644927e+02 0.0000000000e+00 0.0000e+00 1.0000e+00
      -13  1    1    2    0    0 +1.4920262482e+02 -2.2544170991e+02 -1.1448341002e+02 2.9358446654e+02 0.0000000000e+00 0.0000e+00 1.0000e+00
       13  1    1    2    0    0 -1.4920262482e+02 +2.2544170991e+02 +5.5338361507e+02 6.1588863705e+02 0.0000000000e+00 0.0000e+00 -1.0000e+00
<mgrwt>
<rscale>  0 0.79656006E+03</rscale>
<asrwt>0</asrwt>
<pdfrwt beam="1">  1        2 0.10372102E+00 0.79656006E+03</pdfrwt>
<pdfrwt beam="2">  1       -2 0.36197915E-01 0.79656006E+03</pdfrwt>
<totfact> 0.36901836E+02</totfact>
</mgrwt>
<rwgt>
<wgt id='morphing_basis_vector_1'> +2.0584869e-04 </wgt>
<wgt id='morphing_basis_vector_2'> +1.2430392e-04 </wgt>
<wgt id='morphing_basis_vector_3'> +1.8456398e-04 </wgt>
<wgt id='morphing_basis_vector_4'> +1.0107046e-04 </wgt>
<wgt id='morphing_basis_vector_5'> +1.5874061e-04 </wgt>
</rwgt>
</event>
<event>
 4      1 +2.9741700e-06 8.28582700e+02 7.81860800e-03 8.86723800e-02
        2 -1    0    0  501    0 +0.0000000000e+00 +0.0000000000e+00 +4.6046970566e+02 4.6046970566e+02 0.0000000000e+00 0.0000e+00 1.0000e+00
       -2 -1    0    0    0  501 -0.0000000000e+00 -0.0000000000e+00 -3.7274404733e+02 3.7274404733e+02 0.0000000000e+00 0.0000e+00 -1.0000e+00
      -13  1    1    2    0    0 -2.4172091788e+02 -2.6547779996e+02 -1.6400456288e+02 3.9472137143e+02 0.0000000000e+00 0.0000e+00 -1.0000e+00
       13  1    1    2    0    0 +2.4172091788e+02 +2.6547779996e+02 +2.5173022121e+02 4.3849238156e+02 0.0000000000e+00 0.0000e+00 1.0000e+00
<mgrwt>
<rscale>  0 0.82858275E+03</rscale>
<asrwt>0</asrwt>
<pdfrwt beam="1">  1        2 0.70841493E-01 0.82858275E+03</pdfrwt>
<pdfrwt beam="2">  1       -2 0.57345238E-01 0.82858275E+03</pdfrwt>
<totfact> 0.23767236E+02</totfact>
</mgrwt>
<rwgt>
<wgt id='morphing_basis_vector_1'> +2.3761803e-04 </wgt>
<wgt id='morphing_basis_vector_2'> +1.4650733e-04 </wgt>
<wgt id='morphing_basis_vector_3'> +2.1584701e-04 </wgt>
<wgt id='morphing_basis_vector_4'> +1.1955202e-04 </wgt>
<wgt id='morphing_basis_vector_5'> +1.8983129e-04 </wgt>
</rwgt>
</event>
<event>
 4      1 +2.9741700e-06 7.89011900e+02 7.81860800e-03 8.91612600e-02
        2 -1    0    0  501    0 +0.0000000000e+00 +0.0000000000e+00 +1.1041724713e+03 1.1041724713e+03 0.0000000000e+00 0.0000e+00 1.0000e+00
       -2 -1    0    0    0  501 -0.0000000000e+00 -0.0000000000e+00 -1.4095167056e+02 1.4095167056e+02 0.0000000000e+00 0.0000e+00 -1.0000e+00
      -13  1    1    2    0    0 +9.9556408083e+01 +2.0209964958e+02 -2.9451829539e+01 2.2720729965e+02 0.0000000000e+00 0.0000e+00 -1.0000e+00
       13  1    1    2    0    0 -9.9556408083e+01 -2.0209964958e+02 +9.9267263032e+02 1.0179168423e+03 0.0000000000e+00 0.0000e+00 1.0000e+00
<mgrwt>
<rscale>  0 0.78901192E+03</rscale>
<asrwt>0</asrwt>
<pdfrwt beam="1">  1        2 0.16987268E+00 0.78901192E+03</pdfrwt>
<pdfrwt beam="2">  1       -2 0.21684873E-01 0.78901192E+03</pdfrwt>
<totfact> 0.46750352E+02</totfact>
</mgrwt>
<rwgt>
<wgt id='morphing_basis_vector_1'> +1.9892806e-04 </wgt>
<wgt id='morphing_basis_vector_2'> +1.1964726e-04 </wgt>
<wgt id='morphing_basis_vector_3'> +1.7777031e-04 </wgt>
<wgt id='morphing_basis_vector_4'> +9.6955998e-05 </wgt>
<wgt id='morphing_basis_vector_5'> +1.5197900e-04 </wgt>
</rwgt>
</event>
<event>
 4      1 +2.9741700e-06 8.03156400e+02 7.81860800e-03 8.89831000e-02
        2 -1    0    0  501    0 +0.0000000000e+00 +0.0000000000e+00 +6.2483050129e+02 6.2483050129e+02 0.0000000000e+00 0.0000e+00 -1.0000e+00
       -2 -1    0    0    0  501 -0.0000000000e+00 -0.0000000000e+00 -2.5809406502e+02 2.5809406502e+02 0.0000000000e+00 0.0000e+00 1.0000e+00
      -13  1    1    2    0    0 +3.3808011133e+02 -1.7500016614e+02 +4.2836695298e+01 3.8309033176e+02 0.0000000000e+00 0.0000e+00 1.0000e+00
       13  1    1    2    0    0 -3.3808011133e+02 +1.7500016614e+02 +3.2389974097e+02 4.9983423455e+02 0.0000000000e+00 0.0000e+00 -1.0000e+00
<mgrwt>
<rscale>  0 0.80315638E+03</rscale>
<asrwt>0</asrwt>
<pdfrwt beam="1">  1        2 0.96127769E-01 0.80315638E+03</pdfrwt>
<pdfrwt beam="2">  1       -2 0.39706779E-01 0.80315638E+03</pdfrwt>
<totfact> 0.34082161E+02</totfact>
</mgrwt>
<rwgt>
<wgt id='morphing_basis_vector_1'> +2.1390316e-04 </wgt>
<wgt id='morphing_basis_vector_2'> +1.3416114e-04 </wgt>
<wgt id='morphing_basis_vector_3'> +1.9178318e-04 </wgt>
<wgt id='morphing_basis_vector_4'> +1.0241686e-04 </wgt>
<wgt id='morphing_basis_vector_5'> +1.6472282e-04 </wgt>
</rwgt>
</event>
<event>
 4      1 +2.9741700e-06 8.86837900e+02 7.81860800e-03 8.80028200e-02
        2 -1    0    0  501    0 +0.0000000000e+00 +0.0000000000e+00 +1.1330787175e+03 1.1330787175e+03 0.0000000000e+00 0.0000e+00 -1.0000e+00
       -2 -1    0    0    0  501 -0.0000000000e+00 -0.0000000000e+00 -1.7352752801e+02 1.7352752801e+02 0.0000000000e+00 0.0000e+00 1.0000e+00
      -13  1    1    2    0    0 +2.5294090463e+02 +1.0397346878e+01 -5.6592271335e+01 2.5940295147e+02 0.0000000000e+00 0.0000e+00 1.0000e+00
       13  1    1    2    0    0 -2.5294090463e+02 -1.0397346878e+01 +1.0161434609e+03 1.0472032941e+03 0.0000000000e+00 0.0000e+00 -1.0000e+00
<mgrwt>
<rscale>  0 0.88683786E+03</rscale>
<asrwt>0</asrwt>
<pdfrwt beam="1">  1        2 0.17431980E+00 0.88683786E+03</pdfrwt>
<pdfrwt beam="2">  1       -2 0.26696543E-01 0.88683786E+03</pdfrwt>
<totfact> 0.31352721E+02</totfact>
</mgrwt>
<rwgt>
<wgt id='morphing_basis_vector_1'> +3.0219261e-04 </wgt>
<wgt id='morphing_basis_vector_2'> +1.8562713e-04 </wgt>
<wgt id='morphing_basis_vector_3'> +2.8099666e-04 </wgt>
<wgt id='morphing_basis_vector_4'> +1.6324059e-04 </wgt>
<wgt id='morphing_basis_vector_5'> +2.5750016e-04 </wgt>
</rwgt>
</event>
<event>
 4      1 +2.9741700e-06 7.75814000e+02 7.81860800e-03 8.93311200e-02
        2 -1    0    0  501    0 +0.0000000000e+00 +0.0000000000e+00 +1.1020493436e+03 1.1020493436e+03 0.0000000000e+00 0.0000e+00 -1.0000e+00
       -2 -1    0    0    0  501 -0.0000000000e+00 -0.0000000000e+00 -1.3653821178e+02 1.3653821178e+02 0.0000000000e+00 0.0000e+00 1.0000e+00
      -13  1    1    2    0    0 -3.2978039649e+02 -2.5602627510e+01 +1.5924748531e+02 3.6711083616e+02 0.0000000000e+00 0.0000e+00 1.0000e+00
       13  1    1    2    0    0 +3.2978039649e+02 +2.5602627510e+01 +8.0626364647e+02 8.7147671917e+02 0.0000000000e+00 0.0000e+00 -1.0000e+00
<mgrwt>
<rscale>  0 0.77581402E+03</rscale>
<asrwt>0</asrwt>
<pdfrwt beam="1">  1        2 0.16954605E+00 0.77581402E+03</pdfrwt>
<pdfrwt beam="2">  1       -2 0.21005879E-01 0.77581402E+03</pdfrwt>
<totfact> 0.49489922E+02</totfact>
</mgrwt>
<rwgt>
<wgt id='morphing_basis_vector_1'> +1.8808334e-04 </wgt>
<wgt id='morphing_basis_vector_2'> +1.1433458e-04 </wgt>
<wgt id='morphing_basis_vector_3'> +1.6680426e-04 </wgt>
<wgt id='morphing_basis_vector_4'> +8.9058233e-05 </wgt>
<wgt id='morphing_basis_vector_5'> +1.4061699e-04 </wgt>
</rwgt>
</event>
<event>
 4      1 +2.9741700e-06 8.44622700e+02 7.81860800e-03 8.84823700e-02
        2 -1    0    0  501    0 +0.0000000000e+00 +0.0000000000e+00 +1.5972241658e+03 1.5972241658e+03 0.0000000000e+00 0.0000e+00 1.0000e+00
       -2 -1    0    0    0  501 -0.0000000000e+00 -0.0000000000e+00 -1.1166050985e+02 1.1166050985e+02 0.0000000000e+00 0.0000e+00 -1.0000e+00
      -13  1    1    2    0    0 -3.4067064955e+02 -2.2831785408e+02 +5.3883107462e+02 6.7714434276e+02 0.0000000000e+00 0.0000e+00 -1.0000e+00
       13  1    1    2    0    0 +3.4067064955e+02 +2.2831785408e+02 +9.4673258134e+02 1.0317403329e+03 0.0000000000e+00 0.0000e+00 1.0000e+00
<mgrwt>
<rscale>  0 0.84462267E+03</rscale>
<asrwt>0</asrwt>
<pdfrwt beam="1">  1        2 0.24572678E+00 0.84462267E+03</pdfrwt>
<pdfrwt beam="2">  1       -2 0.17178541E-01 0.84462267E+03</pdfrwt>
<totfact> 0.36091609E+02</totfact>
</mgrwt>
<rwgt>
<wgt id='morphing_basis_vector_1'> +2.5699807e-04 </wgt>
<wgt id='morphing_basis_vector_2'> +1.6509524e-04 </wgt>
<wgt id='morphing_basis_vector_3'> +2.3443400e-04 </wgt>
<wgt id='morphing_basis_vector_4'> +1.2685506e-04 </wgt>
<wgt id='morphing_basis_vector_5'> +2.0681243e-04 </wgt>
</rwgt>
</event>
<event>
 4      1 +2.9741700e-06 8.66588500e+02 7.81860800e-03 8.82292500e-02
        2 -1    0    0  501    0 +0.0000000000e+00 +0.0000000000e+00 +6.0884412363e+02 6.0884412363e+02 0.0000000000e+00 0.0000e+00 -1.0000e+00
       -2 -1    0    0    0  501 -0.0000000000e+00 -0.0000000000e+00 -3.0836118479e+02 3.0836118479e+02 0.0000000000e+00 0.0000e+00 1.0000e+00
      -13  1    1    2    0    0 +2.1610429902e+02 -2.8160464466e+01 -2.4613220355e+02 3.2874783868e+02 0.0000000000e+00 0.0000e+00 1.0000e+00
       13  1    1    2    0    0 -2.1610429902e+02 +2.8160464466e+01 +5.4661514239e+02 5.8845746975e+02 0.0000000000e+00 0.0000e+00 -1.0000e+00
<mgrwt>
<rscale>  0 0.86658847E+03</rscale>
<asrwt>0</asrwt>
<pdfrwt beam="1">  1        2 0.93668327E-01 0.86658847E+03</pdfrwt>
<pdfrwt beam="2">  1       -2 0.47440182E-01 0.86658847E+03</pdfrwt>
<totfact> 0.25005260E+02</totfact>
</mgrwt>
<rwgt>
<wgt id='morphing_basis_vector_1'> +2.7795546e-04 </wgt>
<wgt id='morphing_basis_vector_2'> +1.6994674e-04 </wgt>
<wgt id='morphing_basis_vector_3'> +2.5658264e-04 </wgt>
<wgt id='morphing_basis_vector_4'> +1.4748016e-04 </wgt>
<wgt id='morphing_basis_vector_5'> +2.3230370e-04 </wgt>
</rwgt>
</event>
<event>
 4      1 +2.9741700e-06 7.56720400e+02 7.81860800e-03 8.95833100e-02
        2 -1    0    0  501    0 +0.0000000000e+00 +0.0000000000e+00 +2.4695423165e+02 2.4695423165e+02 0.0000000000e+00 0.0000e+00 -1.0000e+00
       -2 -1    0    0    0  501 -0.0000000000e+00 -0.0000000000e+00 -5.7968809334e+02 5.7968809334e+02 0.0000000000e+00 0.0000e+00 1.0000e+00
      -13  1    1    2    0    0 -9.8315796532e+01 +2.9444674725e+02 +6.9934258756e+01 3.1820698195e+02 0.0000000000e+00 0.0000e+00 1.0000e+00
       13  1    1    2    0    0 +9.8315796532e+01 -2.9444674725e+02 -4.0266812045e+02 5.0843534303e+02 0.0000000000e+00 0.0000e+00 -1.0000e+00
<mgrwt>
<rscale>  0 0.75672036E+03</rscale>
<asrwt>0</asrwt>
<pdfrwt beam="1">  1        2 0.37992960E-01 0.75672036E+03</pdfrwt>
<pdfrwt beam="2">  1       -2 0.89182782E-01 0.75672036E+03</pdfrwt>
<totfact> 0.18509472E+02</totfact>
</mgrwt>
<rwgt>
<wgt id='morphing_basis_vector_1'> +2.0850321e-04 </wgt>
<wgt id='morphing_basis_vector_2'> +2.1530970e-04 </wgt>
<wgt id='morphing_basis_vector_3'> +1.6936840e-04 </wgt>
<wgt id='morphing_basis_vector_4'> +3.6920849e-05 </wgt>
<wgt id='morphing_basis_vector_5'> +1.2376232e-04 </wgt>
</rwgt>
</event>
<event>
 4      1 +2.9741700e-06 8.47457200e+02 7.81860800e-03 8.84492500e-02
        2 -1    0    0  501    0 +0.0000000000e+00 +0.0000000000e+00 +4.4288619343e+02 4.4288619343e+02 0.0000000000e+00 0.0000e+00 -1.0000e+00
       -2 -1    0    0    0  501 -0.0000000000e+00 -0.0000000000e+00 -4.0539972974e+02 4.0539972974e+02 0.0000000000e+00 0.0000e+00 1.0000e+00
      -13  1    1    2    0    0 -1.9803574650e+02 -9.4123857341e+00 -3.5610819522e+02 4.0757796384e+02 0.0000000000e+00 0.0000e+00 1.0000e+00
       13  1    1    2    0    0 +1.9803574650e+02 +9.4123857341e+00 +3.9359465892e+02 4.4070795934e+02 0.0000000000e+00 0.0000e+00 -1.0000e+00
<mgrwt>
<rscale>  0 0.84745724E+03</rscale>
<asrwt>0</asrwt>
<pdfrwt beam="1">  1        2 0.68136337E-01 0.84745724E+03</pdfrwt>
<pdfrwt beam="2">  1       -2 0.62369189E-01 0.84745724E+03</pdfrwt>
<totfact> 0.20897893E+02</totfact>
</mgrwt>
<rwgt>
<wgt id='morphing_basis_vector_1'> +2.5649989e-04 </wgt>
<wgt id='morphing_basis_vector_2'> +1.5617612e-04 </wgt>
<wgt id='morphing_basis_vector_3'> +2.3505419e-04 </wgt>
<wgt id='morphing_basis_vector_4'> +1.3359981e-04 </wgt>
<wgt id='morphing_basis_vector_5'> +2.1018309e-04 </wgt>
</rwgt>
</event>
<event>
 4      1 +2.9741700e-06 8.72773500e+02 7.81860800e-03 8.81594100e-02
        2 -1    0    0  501    0 +0.0000000000e+00 +0.0000000000e+00 +1.2374481476e+03 1.2374481476e+03 0.0000000000e+00 0.0000e+00 -1.0000e+00
       -2 -1    0    0    0  501 -0.0000000000e+00 -0.0000000000e+00 -1.5389203295e+02 1.5389203295e+02 0.0000000000e+00 0.0000e+00 1.0000e+00
      -13  1    1    2    0    0 +3.1578626578e+02 -1.8116804371e+02 +1.5821592099e+02 3.9695730674e+02 0.0000000000e+00 0.0000e+00 1.0000e+00
       13  1    1    2    0    0 -3.1578626578e+02 +1.8116804371e+02 +9.2534019364e+02 9.9438287379e+02 0.0000000000e+00 0.0000e+00 -1.0000e+00
<mgrwt>
<rscale>  0 0.87277354E+03</rscale>
<asrwt>0</asrwt>
<pdfrwt beam="1">  1        2 0.19037663E+00 0.87277354E+03</pdfrwt>
<pdfrwt beam="2">  1       -2 0.23675698E-01 0.87277354E+03</pdfrwt>
<totfact> 0.33524463E+02</totfact>
</mgrwt>
<rwgt>
<wgt id='morphing_basis_vector_1'> +2.8604500e-04 </wgt>
<wgt id='morphing_basis_vector_2'> +1.7722358e-04 </wgt>
<wgt id='morphing_basis_vector_3'> +2.6449101e-04 </wgt>
<wgt id='morphing_basis_vector_4'> +1.5099133e-04 </wgt>
<wgt id='morphing_basis_vector_5'> +2.3974164e-04 </wgt>
</rwgt>
</event>
<event>
 4      1 +2.9741700e-06 8.73965000e+02 7.81860800e-03 8.81460200e-02
        2 -1    0    0  501    0 +0.0000000000e+00 +0.0000000000e+00 +1.4413216077e+03 1.4413216077e+03 0.0000000000e+00 0.0000e+00 -1.0000e+00
       -2 -1    0    0    0  501 -0.0000000000e+00 -0.0000000000e+00 -1.3248515025e+02 1.3248515025e+02 0.0000000000e+00 0.0000e+00 1.0000e+00
      -13  1    1    2    0    0 -4.7824223611e+01 -4.2133091410e+02 +4.6429606791e+02 6.2879069189e+02 0.0000000000e+00 0.0000e+00 1.0000e+00
       13  1    1    2    0    0 +4.7824223611e+01 +4.2133091410e+02 +8.4454038957e+02 9.4501606608e+02 0.0000000000e+00 0.0000e+00 -1.0000e+00
<mgrwt>
<rscale>  0 0.87396501E+03</rscale>
<asrwt>0</asrwt>
<pdfrwt beam="1">  1        2 0.22174178E+00 0.87396501E+03</pdfrwt>
<pdfrwt beam="2">  1       -2 0.20382332E-01 0.87396501E+03</pdfrwt>
<totfact> 0.33096761E+02</totfact>
</mgrwt>
<rwgt>
<wgt id='morphing_basis_vector_1'> +2.9055833e-04 </wgt>
<wgt id='morphing_basis_vector_2'> +1.8759340e-04 </wgt>
<wgt id='morphing_basis_vector_3'> +2.6821083e-04 </wgt>
<wgt id='morphing_basis_vector_4'> +1.4760992e-04 </wgt>
<wgt id='morphing_basis_vector_5'> +2.4098828e-04 </wgt>
</rwgt>
</event>
<event>
 4      1 +2.9741700e-06 7.94673000e+02 7.81860800e-03 8.90894800e-02
        2 -1    0    0  501    0 +0.0000000000e+00 +0.0000000000e+00 +2.2252293754e+03 2.2252293754e+03 0.0000000000e+00 0.0000e+00 1.0000e+00
       -2 -1    0    0    0  501 -0.0000000000e+00 -0.0000000000e+00 -7.0948320202e+01 7.0948320202e+01 0.0000000000e+00 0.0000e+00 -1.0000e+00
      -13  1    1    2    0    0 -3.6020786148e+02 -9.1731970074e+01 +6.7146341844e+02 7.6748132232e+02 0.0000000000e+00 0.0000e+00 -1.0000e+00
       13  1    1    2    0    0 +3.6020786148e+02 +9.1731970074e+01 +1.4828176368e+03 1.5286963733e+03 0.0000000000e+00 0.0000e+00 1.0000e+00
<mgrwt>
<rscale>  0 0.79467298E+03</rscale>
<asrwt>0</asrwt>
<pdfrwt beam="1">  1        2 0.34234293E+00 0.79467298E+03</pdfrwt>
<pdfrwt beam="2">  1       -2 0.10915128E-01 0.79467298E+03</pdfrwt>
<totfact> 0.33767243E+02</totfact>
</mgrwt>
<rwgt>
<wgt id='morphing_basis_vector_1'> +2.0571124e-04 </wgt>
<wgt id='morphing_basis_vector_2'> +1.2805920e-04 </wgt>
<wgt id='morphing_basis_vector_3'> +1.8378910e-04 </wgt>
<wgt id='morphing_basis_vector_4'> +9.8013530e-05 </wgt>
<wgt id='morphing_basis_vector_5'> +1.5694567e-04 </wgt>
</rwgt>
</event>
<event>
 4      1 +2.9741700e-06 8.14465200e+02 7.81860800e-03 8.88434200e-02
        2 -1    0    0  501    0 +0.0000000000e+00 +0.0000000000e+00 +1.0358248255e+03 1.0358248255e+03 0.0000000000e+00 0.0000e+00 -1.0000e+00
       -2 -1    0    0    0  501 -0.0000000000e+00 -0.0000000000e+00 -1.6010274646e+02 1.6010274646e+02 0.0000000000e+00 0.0000e+00 1.0000e+00
      -13  1    1    2    0    0 +1.0173740005e+02 -3.6221718843e+02 +2.0902955559e+02 4.3040114460e+02 0.0000000000e+00 0.0000e+00 1.0000e+00
       13  1    1    2    0    0 -1.0173740005e+02 +3.6221718843e+02 +6.6669252345e+02 7.6552642736e+02 0.0000000000e+00 0.0000e+00 -1.0000e+00
<mgrwt>
<rscale>  0 0.81446522E+03</rscale>
<asrwt>0</asrwt>
<pdfrwt beam="1">  1        2 0.15935766E+00 0.81446522E+03</pdfrwt>
<pdfrwt beam="2">  1       -2 0.24631192E-01 0.81446522E+03</pdfrwt>
<totfact> 0.41364559E+02</totfact>
</mgrwt>
<rwgt>
<wgt id='morphing_basis_vector_1'> +2.2423512e-04 </wgt>
<wgt id='morphing_basis_vector_2'> +1.3962642e-04 </wgt>
<wgt id='morphing_basis_vector_3'> +2.0224929e-04 </wgt>
<wgt id='morphing_basis_vector_4'> +1.0976351e-04 </wgt>
<wgt id='morphing_basis_vector_5'> +1.7557099e-04 </wgt>
</rwgt>
</event>
<event>
 4      1 +2.9741700e-06 7.58254000e+02 7.81860800e-03 8.95627600e-02
        2 -1    0    0  501    0 +0.0000000000e+00 +0.0000000000e+00 +8.1562387933e+02 8.1562387933e+02 0.0000000000e+00 0.0000e+00 -1.0000e+00
       -2 -1    0    0    0  501 -0.0000000000e+00 -0.0000000000e+00 -1.7622984060e+02 1.7622984060e+02 0.0000000000e+00 0.0000e+00 1.0000e+00
      -13  1    1    2    0    0 +3.1192696262e+02 -1.5508814012e+02 +1.2398112851e+02 3.6975949135e+02 0.0000000000e+00 0.0000e+00 1.0000e+00
       13  1    1    2    0    0 -3.1192696262e+02 +1.5508814012e+02 +5.1541291022e+02 6.2209422859e+02 0.0000000000e+00 0.0000e+00 -1.0000e+00
<mgrwt>
<rscale>  0 0.75825396E+03</rscale>
<asrwt>0</asrwt>
<pdfrwt beam="1">  1        2 0.12548060E+00 0.75825396E+03</pdfrwt>
<pdfrwt beam="2">  1       -2 0.27112284E-01 0.75825396E+03</pdfrwt>
<totfact> 0.48717709E+02</totfact>
</mgrwt>
<rwgt>
<wgt id='morphing_basis_vector_1'> +1.7415245e-04 </wgt>
<wgt id='morphing_basis_vector_2'> +1.0684384e-04 </wgt>
<wgt id='morphing_basis_vector_3'> +1.5285870e-04 </wgt>
<wgt id='morphing_basis_vector_4'> +7.9574324e-05 </wgt>
<wgt id='morphing_basis_vector_5'> +1.2647598e-04 </wgt>
</rwgt>
</event>
<event>
 4      1 +2.9741700e-06 7.66214600e+02 7.81860800e-03 8.94569300e-02
        2 -1    0    0  501    0 +0.0000000000e+00 +0.0000000000e+00 +2.5689664866e+02 2.5689664866e+02 0.0000000000e+00 0.0000e+00 -1.0000e+00
       -2 -1    0    0    0  501 -0.0000000000e+00 -0.0000000000e+00 -5.7132397172e+02 5.7132397172e+02 0.0000000000e+00 0.0000e+00 1.0000e+00
      -13  1    1    2    0    0 -1.1952796687e+02 -4.9520636701e+01 -5.4699469013e+02 5.6208755488e+02 0.0000000000e+00 0.0000e+00 1.0000e+00
       13  1    1    2    0    0 +1.1952796687e+02 +4.9520636701e+01 +2.3256736708e+02 2.6613306550e+02 0.0000000000e+00 0.0000e+00 -1.0000e+00
<mgrwt>
<rscale>  0 0.76621463E+03</rscale>
<asrwt>0</asrwt>
<pdfrwt beam="1">  1        2 0.39522561E-01 0.76621463E+03</pdfrwt>
<pdfrwt beam="2">  1       -2 0.87895995E-01 0.76621463E+03</pdfrwt>
<totfact> 0.18294567E+02</totfact>
</mgrwt>
<rwgt>
<wgt id='morphing_basis_vector_1'> +1.7936389e-04 </wgt>
<wgt id='morphing_basis_vector_2'> +1.0712271e-04 </wgt>
<wgt id='morphing_basis_vector_3'> +1.5855066e-04 </wgt>
<wgt id='morphing_basis_vector_4'> +8.4972732e-05 </wgt>
<wgt id='morphing_basis_vector_5'> +1.3279866e-04 </wgt>
</rwgt>
</event>
<event>
 4      1 +2.9741700e-06 8.78270100e+02 7.81860800e-03 8.80978400e-02
        2 -1    0    0  501    0 +0.0000000000e+00 +0.0000000000e+00 +4.7548394606e+02 4.7548394606e+02 0.0000000000e+00 0.0000e+00 -1.0000e+00
       -2 -1    0    0    0  501 -0.0000000000e+00 -0.0000000000e+00 -4.0556487005e+02 4.0556487005e+02 0.0000000000e+00 0.0000e+00 1.0000e+00
      -13  1    1    2    0    0 -3.5201128304e+02 -2.2907104695e+02 -9.3719826411e+01 4.3031255362e+02 0.0000000000e+00 0.0000e+00 1.0000e+00
       13  1    1    2    0    0 +3.5201128304e+02 +2.2907104695e+02 +1.6363890242e+02 4.5073626249e+02 0.0000000000e+00 0.0000e+00 -1.0000e+00
<mgrwt>
<rscale>  0 0.87827008E+03</rscale>
<asrwt>0</asrwt>
<pdfrwt beam="1">  1        2 0.73151376E-01 0.87827008E+03</pdfrwt>
<pdfrwt beam="2">  1       -2 0.62394595E-01 0.87827008E+03</pdfrwt>
<totfact> 0.19232302E+02</totfact>
</mgrwt>
<rwgt>
<wgt id='morphing_basis_vector_1'> +2.9498467e-04 </wgt>
<wgt id='morphing_basis_vector_2'> +1.8873461e-04 </wgt>
<wgt id='morphing_basis_vector_3'> +2.7288407e-04 </wgt>
<wgt id='morphing_basis_vector_4'> +1.5192368e-04 </wgt>
<wgt id='morphing_basis_vector_5'> +2.4637999e-04 </wgt>
</rwgt>
</event>
<event>
 4      1 +2.9741700e-06 8.72622900e+02 7.81860800e-03 8.81611000e-02
        2 -1    0    0  501    0 +0.0000000000e+00 +0.0000000000e+00 +7.1424876192e+02 7.1424876192e+02 0.0000000000e+00 0.0000e+00 1.0000e+00
       -2 -1    0    0    0  501 -0.0000000000e+00 -0.0000000000e+00 -2.6652851213e+02 2.6652851213e+02 0.0000000000e+00 0.0000e+00 -1.0000e+00
      -13  1    1    2    0    0 -1.0169692377e+02 -4.1089756341e+02 +1.0497392329e+02 4.3611764066e+02 0.0000000000e+00 0.0000e+00 -1.0000e+00
       13  1    1    2    0    0 +1.0169692377e+02 +4.1089756341e+02 +3.4274632649e+02 5.4465963339e+02 0.0000000000e+00 0.0000e+00 1.0000e+00
<mgrwt>
<rscale>  0 0.87262285E+03</rscale>
<asrwt>0</asrwt>
<pdfrwt beam="1">  1        2 0.10988442E+00 0.87262285E+03</pdfrwt>
<pdfrwt beam="2">  1       -2 0.41004387E-01 0.87262285E+03</pdfrwt>
<totfact> 0.27212381E+02</totfact>
</mgrwt>
<rwgt>
<wgt id='morphing_basis_vector_1'> +2.8893700e-04 </wgt>
<wgt id='morphing_basis_vector_2'> +1.8646770e-04 </wgt>
<wgt id='morphing_basis_vector_3'> +2.6657827e-04 </wgt>
<wgt id='morphing_basis_vector_4'> +1.4663144e-04 </wgt>
<wgt id='morphing_basis_vector_5'> +2.3934275e-04 </wgt>
</rwgt>
</event>
<event>
 4      1 +2.9741700e-06 8.87488800e+02 7.81860800e-03 8.79956400e-02
        2 -1    0    0  501    0 +0.0000000000e+00 +0.0000000000e+00 +1.3512250502e+03 1.3512250502e+03 0.0000000000e+00 0.0000e+00 1.0000e+00
       -2 -1    0    0    0  501 -0.0000000000e+00 -0.0000000000e+00 -1.4572635820e+02 1.4572635820e+02 0.0000000000e+00 0.0000e+00 -1.0000e+00
      -13  1    1    2    0    0 +2.1316452993e+02 +4.2078031609e+01 -4.9862388232e+01 2.2292585163e+02 0.0000000000e+00 0.0000e+00 -1.0000e+00
       13  1    1    2    0    0 -2.1316452993e+02 -4.2078031609e+01 +1.2553610802e+03 1.2740255567e+03 0.0000000000e+00 0.0000e+00 1.0000e+00
<mgrwt>
<rscale>  0 0.88748883E+03</rscale>
<asrwt>0</asrwt>
<pdfrwt beam="1">  1        2 0.20788077E+00 0.88748883E+03</pdfrwt>
<pdfrwt beam="2">  1       -2 0.22419441E-01 0.88748883E+03</pdfrwt>
<totfact> 0.31648758E+02</totfact>
</mgrwt>
<rwgt>
<wgt id='morphing_basis_vector_1'> +3.0293730e-04 </wgt>
<wgt id='morphing_basis_vector_2'> +1.8596386e-04 </wgt>
<wgt id='morphing_basis_vector_3'> +2.8176332e-04 </wgt>
<wgt id='morphing_basis_vector_4'> +1.6385215e-04 </wgt>
<wgt id='morphing_basis_vector_5'> +2.5834601e-04 </wgt>
</rwgt>
</event>
<event>
 4      1 +2.9741700e-06 7.71226400e+02 7.81860800e-03 8.93910000e-02
        2 -1    0    0  501    0 +0.0000000000e+00 +0.0000000000e+00 +5.2166519282e+02 5.2166519282e+02 0.0000000000e+00 0.0000e+00 -1.0000e+00
       -2 -1    0    0    0  501 -0.0000000000e+00 -0.0000000000e+00 -2.8504402790e+02 2.8504402790e+02 0.0000000000e+00 0.0000e+00 1.0000e+00
      -13  1    1    2    0    0 +2.9825186811e+02 +1.2338906107e+02 -1.0239099383e+02 3.3861918558e+02 0.0000000000e+00 0.0000e+00 1.0000e+00
       13  1    1    2    0    0 -2.9825186811e+02 -1.2338906107e+02 +3.3901215875e+02 4.6809003515e+02 0.0000000000e+00 0.0000e+00 -1.0000e+00
<mgrwt>
<rscale>  0 0.77122642E+03</rscale>
<asrwt>0</asrwt>
<pdfrwt beam="1">  1        2 0.80256183E-01 0.77122642E+03</pdfrwt>
<pdfrwt beam="2">  1       -2 0.43852927E-01 0.77122642E+03</pdfrwt>
<totfact> 0.34961452E+02</totfact>
</mgrwt>
<rwgt>
<wgt id='morphing_basis_vector_1'> +1.8411340e-04 </wgt>
<wgt id='morphing_basis_vector_2'> +1.1157564e-04 </wgt>
<wgt id='morphing_basis_vector_3'> +1.6294266e-04 </wgt>
<wgt id='morphing_basis_vector_4'> +8.6804231e-05 </wgt>
<wgt id='morphing_basis_vector_5'> +1.3682983e-04 </wgt>
</rwgt>
</event>
<event>
 4      1 +2.9741700e-06 7.86284400e+02 7.81860800e-03 8.91960800e-02
        2 -1    0    0  501    0 +0.0000000000e+00 +0.0000000000e+00 +1.8306002218e+03 1.8306002218e+03 0.0000000000e+00 0.0000e+00 -1.0000e+00
       -2 -1    0    0    0  501 -0.0000000000e+00 -0.0000000000e+00 -8.4431764383e+01 8.4431764383e+01 0.0000000000e+00 0.0000e+00 1.0000e+00
      -13  1    1    2    0    0 +3.1498707348e+02 -2.2337457405e+02 +6.9331931683e+02 7.9360237644e+02 0.0000000000e+00 0.0000e+00 1.0000e+00
       13  1    1    2    0    0 -3.1498707348e+02 +2.2337457405e+02 +1.0528491405e+03 1.1214296097e+03 0.0000000000e+00 0.0000e+00 -1.0000e+00
<mgrwt>
<rscale>  0 0.78628444E+03</rscale>
<asrwt>0</asrwt>
<pdfrwt beam="1">  1        2 0.28163077E+00 0.78628444E+03</pdfrwt>
<pdfrwt beam="2">  1       -2 0.12989504E-01 0.78628444E+03</pdfrwt>
<totfact> 0.42428657E+02</totfact>
</mgrwt>
<rwgt>
<wgt id='morphing_basis_vector_1'> +1.9983885e-04 </wgt>
<wgt id='morphing_basis_vector_2'> +1.2831521e-04 </wgt>
<wgt id='morphing_basis_vector_3'> +1.7727133e-04 </wgt>
<wgt id='morphing_basis_vector_4'> +9.1335892e-05 </wgt>
<wgt id='morphing_basis_vector_5'> +1.4941722e-04 </wgt>
</rwgt>
</event>
<event>
 4      1 +2.9741700e-06 7.92982400e+02 7.81860800e-03 8.91108500e-02
        2 -1    0    0  501    0 +0.0000000000e+00 +0.0000000000e+00 +5.1814437697e+02 5.1814437697e+02 0.0000000000e+00 0.0000e+00 1.0000e+00
       -2 -1    0    0    0  501 -0.0000000000e+00 -0.0000000000e+00 -3.0340053339e+02 3.0340053339e+02 0.0000000000e+00 0.0000e+00 -1.0000e+00
      -13  1    1    2    0    0 -1.3416038892e+02 +3.7191910718e+02 +7.6595910249e+01 4.0272790530e+02 0.0000000000e+00 0.0000e+00 -1.0000e+00
       13  1    1    2    0    0 +1.3416038892e+02 -3.7191910718e+02 +1.3814793333e+02 4.1881700506e+02 0.0000000000e+00 0.0000e+00 1.0000e+00
<mgrwt>
<rscale>  0 0.79298242E+03</rscale>
<asrwt>0</asrwt>
<pdfrwt beam="1">  1        2 0.79714519E-01 0.79298242E+03</pdfrwt>
<pdfrwt beam="2">  1       -2 0.46677005E-01 0.79298242E+03</pdfrwt>
<totfact> 0.31240970E+02</totfact>
</mgrwt>
<rwgt>
<wgt id='morphing_basis_vector_1'> +2.0781741e-04 </wgt>
<wgt id='morphing_basis_vector_2'> +1.3823113e-04 </wgt>
<wgt id='morphing_basis_vector_3'> +1.8438471e-04 </wgt>
<wgt id='morphing_basis_vector_4'> +9.2518134e-05 </wgt>
<wgt id='morphing_basis_vector_5'> +1.5523438e-04 </wgt>
</rwgt>
</event>
<event>
 4      1 +2.9741700e-06 7.65112900e+02 7.81860800e-03 8.94715000e-02
        2 -1    0    0  501    0 +0.0000000000e+00 +0.0000000000e+00 +1.7528585891e+03 1.7528585891e+03 0.0000000000e+00 0.0000e+00 1.0000e+00
       -2 -1    0    0    0  501 -0.0000000000e+00 -0.0000000000e+00 -8.3491869747e+01 8.3491869747e+01 0.0000000000e+00 0.0000e+00 -1.0000e+00
      -13  1    1    2    0    0 +1.8729835034e+02 -2.0903882408e+02 +2.1078773006e+02 3.5101192167e+02 0.0000000000e+00 0.0000e+00 -1.0000e+00
       13  1    1    2    0    0 -1.8729835034e+02 +2.0903882408e+02 +1.4585789893e+03 1.4853385372e+03 0.0000000000e+00 0.0000e+00 1.0000e+00
<mgrwt>
<rscale>  0 0.76511291E+03</rscale>
<asrwt>0</asrwt>
<pdfrwt beam="1">  1        2 0.26967052E+00 0.76511291E+03</pdfrwt>
<pdfrwt beam="2">  1       -2 0.12844904E-01 0.76511291E+03</pdfrwt>
<totfact> 0.47721532E+02</totfact>
</mgrwt>
<rwgt>
<wgt id='morphing_basis_vector_1'> +1.7870588e-04 </wgt>
<wgt id='morphing_basis_vector_2'> +1.0730456e-04 </wgt>
<wgt id='morphing_basis_vector_3'> +1.5779245e-04 </wgt>
<wgt id='morphing_basis_vector_4'> +8.4126286e-05 </wgt>
<wgt id='morphing_basis_vector_5'> +1.3190699e-04 </wgt>
</rwgt>
</event>
<event>
 4      1 +2.9741700e-06 8.27929800e+02 7.81860800e-03 8.86802100e-02
        2 -1    0    0  501    0 +0.0000000000e+00 +0.0000000000e+00 +1.5601326290e+02 1.5601326290e+02 0.0000000000e+00 0.0000e+00 1.0000e+00
       -2 -1    0    0    0  501 -0.0000000000e+00 -0.0000000000e+00 -1.0984126946e+03 1.0984126946e+03 0.0000000000e+00 0.0000e+00 -1.0000e+00
      -13  1    1    2    0    0 -3.5520080195e+02 -1.8930038849e+02 -3.2457793872e+02 5.1706197413e+02 0.0000000000e+00 0.0000e+00 -1.0000e+00
       13  1    1    2    0    0 +3.5520080195e+02 +1.8930038849e+02 -6.1782149296e+02 7.3736398335e+02 0.0000000000e+00 0.0000e+00 1.0000e+00
<mgrwt>
<rscale>  0 0.82792982E+03</rscale>
<asrwt>0</asrwt>
<pdfrwt beam="1">  1        2 0.24002040E-01 0.82792982E+03</pdfrwt>
<pdfrwt beam="2">  1       -2 0.16898658E+00 0.82792982E+03</pdfrwt>
<totfact> 0.58347263E+01</totfact>
</mgrwt>
<rwgt>
<wgt id='morphing_basis_vector_1'> +2.5463618e-04 </wgt>
<wgt id='morphing_basis_vector_2'> +2.0013801e-04 </wgt>
<wgt id='morphing_basis_vector_3'> +2.2675632e-04 </wgt>
<wgt id='morphing_basis_vector_4'> +9.5938060e-05 </wgt>
<wgt id='morphing_basis_vector_5'> +1.8808968e-04 </wgt>
</rwgt>
</event>
<event>
 4      1 +2.9741700e-06 8.68039800e+02 7.81860800e-03 8.82128100e-02
        2 -1    0    0  501    0 +0.0000000000e+00 +0.0000000000e+00 +6.2628319072e+02 6.2628319072e+02 0.0000000000e+00 0.0000e+00 -1.0000e+00
       -2 -1    0    0    0  501 -0.0000000000e+00 -0.0000000000e+00 -3.0077972899e+02 3.0077972899e+02 0.0000000000e+00 0.0000e+00 1.0000e+00
      -13  1    1    2    0    0 -2.4530872396e+02 +4.9294095343e+01 +5.4150197750e+02 5.9651543946e+02 0.0000000000e+00 0.0000e+00 -1.0000e+00
       13  1    1    2    0    0 +2.4530872396e+02 -4.9294095343e+01 -2.1599851576e+02 3.3054748025e+02 0.0000000000e+00 0.0000e+00 1.0000e+00
<mgrwt>
<rscale>  0 0.86803983E+03</rscale>
<asrwt>0</asrwt>
<pdfrwt beam="1">  1        2 0.96351260E-01 0.86803983E+03</pdfrwt>
<pdfrwt beam="2">  1       -2 0.46273805E-01 0.86803983E+03</pdfrwt>
<totfact> 0.25369067E+02</totfact>
</mgrwt>
<rwgt>
<wgt id='morphing_basis_vector_1'> +3.7294156e-04 </wgt>
<wgt id='morphing_basis_vector_2'> +4.5554628e-04 </wgt>
<wgt id='morphing_basis_vector_3'> +3.2640289e-04 </wgt>
<wgt id='morphing_basis_vector_4'> +2.0220645e-05 </wgt>
<wgt id='morphing_basis_vector_5'> +2.2762410e-04 </wgt>
</rwgt>
</event>
<event>
 4      1 +2.9741700e-06 7.92900000e+02 7.81860800e-03 8.91119000e-02
        2 -1    0    0  501    0 +0.0000000000e+00 +0.0000000000e+00 +9.8474836601e+02 9.8474836601e+02 0.0000000000e+00 0.0000e+00 1.0000e+00
       -2 -1    0    0    0  501 -0.0000000000e+00 -0.0000000000e+00 -1.5960686614e+02 1.5960686614e+02 0.0000000000e+00 0.0000e+00 -1.0000e+00
      -13  1    1    2    0    0 -1.9097252406e+02 -6.8689842012e+01 -7.8949158952e+01 2.1776539909e+02 0.0000000000e+00 0.0000e+00 -1.0000e+00
       13  1    1    2    0    0 +1.9097252406e+02 +6.8689842012e+01 +9.0409065883e+02 9.2658983306e+02 0.0000000000e+00 0.0000e+00 1.0000e+00
<mgrwt>
<rscale>  0 0.79290000E+03</rscale>
<asrwt>0</asrwt>
<pdfrwt beam="1">  1        2 0.15149975E+00 0.79290000E+03</pdfrwt>
<pdfrwt beam="2">  1       -2 0.24554903E-01 0.79290000E+03</pdfrwt>
<totfact> 0.44759521E+02</totfact>
</mgrwt>
<rwgt>
<wgt id='morphing_basis_vector_1'> +2.0238299e-04 </wgt>
<wgt id='morphing_basis_vector_2'> +1.2176300e-04 </wgt>
<wgt id='morphing_basis_vector_3'> +1.8119456e-04 </wgt>
<wgt id='morphing_basis_vector_4'> +9.9168466e-05 </wgt>
<wgt id='morphing_basis_vector_5'> +1.5544008e-04 </wgt>
</rwgt>
</event>
<event>
 4      1 +2.9741700e-06 8.18214700e+02 7.81860800e-03 8.87976400e-02
        2 -1    0    0  501    0 +0.0000000000e+00 +0.0000000000e+00 +6.9155880110e+02 6.9155880110e+02 0.0000000000e+00 0.0000e+00 -1.0000e+00
       -2 -1    0    0    0  501 -0.0000000000e+00 -0.0000000000e+00 -2.4201676418e+02 2.4201676418e+02 0.0000000000e+00 0.0000e+00 1.0000e+00
      -13  1    1    2    0    0 -3.3855749033e+02 +1.0330441869e+02 -9.2735831101e+00 3.5408893872e+02 0.0000000000e+00 0.0000e+00 1.0000e+00
       13  1    1    2    0    0 +3.3855749033e+02 -1.0330441869e+02 +4.5881562002e+02 5.7948662656e+02 0.0000000000e+00 0.0000e+00 -1.0000e+00
<mgrwt>
<rscale>  0 0.81821470E+03</rscale>
<asrwt>0</asrwt>
<pdfrwt beam="1">  1        2 0.10639366E+00 0.81821470E+03</pdfrwt>
<pdfrwt beam="2">  1       -2 0.37233349E-01 0.81821470E+03</pdfrwt>
<totfact> 0.33946014E+02</totfact>
</mgrwt>
<rwgt>
<wgt id='morphing_basis_vector_1'> +2.2717109e-04 </wgt>
<wgt id='morphing_basis_vector_2'> +1.3971853e-04 </wgt>
<wgt id='morphing_basis_vector_3'> +2.0544373e-04 </wgt>
<wgt id='morphing_basis_vector_4'> +1.1302725e-04 </wgt>
<wgt id='morphing_basis_vector_5'> +1.7931246e-04 </wgt>
</rwgt>
</event>
<event>
 4      1 +2.9741700e-06 8.71155000e+02 7.81860800e-03 8.81776200e-02
        2 -1    0    0  501    0 +0.0000000000e+00 +0.0000000000e+00 +8.9720424614e+02 8.9720424614e+02 0.0000000000e+00 0.0000e+00 -1.0000e+00
       -2 -1    0    0    0  501 -0.0000000000e+00 -0.0000000000e+00 -2.1146552045e+02 2.1146552045e+02 0.0000000000e+00 0.0000e+00 1.0000e+00
      -13  1    1    2    0    0 -1.0070336006e+02 -3.1737362668e+02 -1.4515983716e+01 3.3328351208e+02 0.0000000000e+00 0.0000e+00 1.0000e+00
       13  1    1    2    0    0 +1.0070336006e+02 +3.1737362668e+02 +7.0025470940e+02 7.7538625451e+02 0.0000000000e+00 0.0000e+00 -1.0000e+00
<mgrwt>
<rscale>  0 0.87115501E+03</rscale>
<asrwt>0</asrwt>
<pdfrwt beam="1">  1        2 0.13803142E+00 0.87115501E+03</pdfrwt>
<pdfrwt beam="2">  1       -2 0.32533158E-01 0.87115501E+03</pdfrwt>
<totfact> 0.30995227E+02</totfact>
</mgrwt>
<rwgt>
<wgt id='morphing_basis_vector_1'> +2.8373035e-04 </wgt>
<wgt id='morphing_basis_vector_2'> +1.7474979e-04 </wgt>
<wgt id='morphing_basis_vector_3'> +2.6226952e-04 </wgt>
<wgt id='morphing_basis_vector_4'> +1.5031736e-04 </wgt>
<wgt id='morphing_basis_vector_5'> +2.3779157e-04 </wgt>
</rwgt>
</event>
<event>
 4      1 +2.9741700e-06 7.58765600e+02 7.81860800e-03 8.95559200e-02
        2 -1    0    0  501    0 +0.0000000000e+00 +0.0000000000e+00 +4.0261134691e+02 4.0261134691e+02 0.0000000000e+00 0.0000e+00 1.0000e+00
       -2 -1    0    0    0  501 -0.0000000000e+00 -0.0000000000e+00 -3.5749439296e+02 3.5749439296e+02 0.0000000000e+00 0.0000e+00 -1.0000e+00
      -13  1    1    2    0    0 -3.6903130641e+02 +4.5707228669e+01 -5.2794345334e+01 3.7558021615e+02 0.0000000000e+00 0.0000e+00 -1.0000e+00
       13  1    1    2    0    0 +3.6903130641e+02 -4.5707228669e+01 +9.7911299280e+01 3.8452552372e+02 0.0000000000e+00 0.0000e+00 1.0000e+00
<mgrwt>
<rscale>  0 0.75876557E+03</rscale>
<asrwt>0</asrwt>
<pdfrwt beam="1">  1        2 0.61940207E-01 0.75876557E+03</pdfrwt>
<pdfrwt beam="2">  1       -2 0.54999137E-01 0.75876557E+03</pdfrwt>
<totfact> 0.30189244E+02</totfact>
</mgrwt>
<rwgt>
<wgt id='morphing_basis_vector_1'> +1.7619275e-04 </wgt>
<wgt id='morphing_basis_vector_2'> +1.1211128e-04 </wgt>
<wgt id='morphing_basis_vector_3'> +1.5408021e-04 </wgt>
<wgt id='morphing_basis_vector_4'> +7.7892794e-05 </wgt>
<wgt id='morphing_basis_vector_5'> +1.2680111e-04 </wgt>
</rwgt>
</event>
<event>
 4      1 +2.9741700e-06 7.83726400e+02 7.81860800e-03 8.92288600e-02
        2 -1    0    0  501    0 +0.0000000000e+00 +0.0000000000e+00 +2.4516036579e+03 2.4516036579e+03 0.0000000000e+00 0.0000e+00 -1.0000e+00
       -2 -1    0    0    0  501 -0.0000000000e+00 -0.0000000000e+00 -6.2635237269e+01 6.2635237269e+01 0.0000000000e+00 0.0000e+00 1.0000e+00
      -13  1    1    2    0    0 -2.1288471073e+02 +3.0196559573e+02 +7.7554520523e+02 8.5905383208e+02 0.0000000000e+00 0.0000e+00 1.0000e+00
       13  1    1    2    0    0 +2.1288471073e+02 -3.0196559573e+02 +1.6134232154e+03 1.6551850631e+03 0.0000000000e+00 0.0000e+00 -1.0000e+00
<mgrwt>
<rscale>  0 0.78372642E+03</rscale>
<asrwt>0</asrwt>
<pdfrwt beam="1">  1        2 0.37716972E+00 0.78372642E+03</pdfrwt>
<pdfrwt beam="2">  1       -2 0.96361923E-02 0.78372642E+03</pdfrwt>
<totfact> 0.30523253E+02</totfact>
</mgrwt>
<rwgt>
<wgt id='morphing_basis_vector_1'> +1.9603044e-04 </wgt>
<wgt id='morphing_basis_vector_2'> +1.2210463e-04 </wgt>
<wgt id='morphing_basis_vector_3'> +1.7416165e-04 </wgt>
<wgt id='morphing_basis_vector_4'> +9.1881746e-05 </wgt>
<wgt id='morphing_basis_vector_5'> +1.4727715e-04 </wgt>
</rwgt>
</event>
<event>
 4      1 +2.9741700e-06 8.26169800e+02 7.81860800e-03 8.87013600e-02
        2 -1    0    0  501    0 +0.0000000000e+00 +0.0000000000e+00 +2.7031171878e+02 2.7031171878e+02 0.0000000000e+00 0.0000e+00 1.0000e+00
       -2 -1    0    0    0  501 -0.0000000000e+00 -0.0000000000e+00 -6.3126799730e+02 6.3126799730e+02 0.0000000000e+00 0.0000e+00 -1.0000e+00
      -13  1    1    2    0    0 -3.7570837807e+02 +1.4663647219e+02 -2.7796338694e+02 4.8981903271e+02 0.0000000000e+00 0.0000e+00 -1.0000e+00
       13  1    1    2    0    0 +3.7570837807e+02 -1.4663647219e+02 -8.2992891585e+01 4.1176068338e+02 0.0000000000e+00 0.0000e+00 1.0000e+00
<mgrwt>
<rscale>  0 0.82616981E+03</rscale>
<asrwt>0</asrwt>
<pdfrwt beam="1">  1        2 0.41586418E-01 0.82616981E+03</pdfrwt>
<pdfrwt beam="2">  1       -2 0.97118153E-01 0.82616981E+03</pdfrwt>
<totfact> 0.13619603E+02</totfact>
</mgrwt>
<rwgt>
<wgt id='morphing_basis_vector_1'> +2.3778281e-04 </wgt>
<wgt id='morphing_basis_vector_2'> +1.5294190e-04 </wgt>
<wgt id='morphing_basis_vector_3'> +2.1510213e-04 </wgt>
<wgt id='morphing_basis_vector_4'> +1.1456991e-04 </wgt>
<wgt id='morphing_basis_vector_5'> +1.8718712e-04 </wgt>
</rwgt>
</event>
<event>
 4      1 +2.9741700e-06 8.36259100e+02 7.81860800e-03 8.85808800e-02
        2 -1    0    0  501    0 +0.0000000000e+00 +0.0000000000e+00 +1.5184266909e+02 1.5184266909e+02 0.0000000000e+00 0.0000e+00 -1.0000e+00
       -2 -1    0    0    0  501 -0.0000000000e+00 -0.0000000000e+00 -1.1514044538e+03 1.1514044538e+03 0.0000000000e+00 0.0000e+00 1.0000e+00
      -13  1    1    2    0    0 +4.0309528618e+02 -8.4152722971e+01 -6.1285893757e+02 7.3835192685e+02 0.0000000000e+00 0.0000e+00 1.0000e+00
       13  1    1    2    0    0 -4.0309528618e+02 +8.4152722971e+01 -3.8670284713e+02 5.6489519603e+02 0.0000000000e+00 0.0000e+00 -1.0000e+00
<mgrwt>
<rscale>  0 0.83625911E+03</rscale>
<asrwt>0</asrwt>
<pdfrwt beam="1">  1        2 0.23360411E-01 0.83625911E+03</pdfrwt>
<pdfrwt beam="2">  1       -2 0.17713915E+00 0.83625911E+03</pdfrwt>
<totfact> 0.52092953E+01</totfact>
</mgrwt>
<rwgt>
<wgt id='morphing_basis_vector_1'> +2.4902833e-04 </wgt>
<wgt id='morphing_basis_vector_2'> +1.6219704e-04 </wgt>
<wgt id='morphing_basis_vector_3'> +2.2611068e-04 </wgt>
<wgt id='morphing_basis_vector_4'> +1.2000131e-04 </wgt>
<wgt id='morphing_basis_vector_5'> +1.9768720e-04 </wgt>
</rwgt>
</event>
<event>
 4      1 +2.9741700e-06 7.61059400e+02 7.81860800e-03 8.95253100e-02
        2 -1    0    0  501    0 +0.0000000000e+00 +0.0000000000e+00 +8.3962506228e+02 8.3962506228e+02 0.0000000000e+00 0.0000e+00 -1.0000e+00
       -2 -1    0    0    0  501 -0.0000000000e+00 -0.0000000000e+00 -1.7246133614e+02 1.7246133614e+02 0.0000000000e+00 0.0000e+00 1.0000e+00
      -13  1    1    2    0    0 +7.6569875403e+01 +3.3966624278e+02 +5.3773165513e+02 6.4061801039e+02 0.0000000000e+00 0.0000e+00 -1.0000e+00
       13  1    1    2    0    0 -7.6569875403e+01 -3.3966624278e+02 +1.2943207101e+02 3.7146838804e+02 0.0000000000e+00 0.0000e+00 1.0000e+00
<mgrwt>
<rscale>  0 0.76105942E+03</rscale>
<asrwt>0</asrwt>
<pdfrwt beam="1">  1        2 0.12917308E+00 0.76105942E+03</pdfrwt>
<pdfrwt beam="2">  1       -2 0.26532514E-01 0.76105942E+03</pdfrwt>
<totfact> 0.48700150E+02</totfact>
</mgrwt>
<rwgt>
<wgt id='morphing_basis_vector_1'> +1.9880319e-04 </wgt>
<wgt id='morphing_basis_vector_2'> +1.7703188e-04 </wgt>
<wgt id='morphing_basis_vector_3'> +1.6645403e-04 </wgt>
<wgt id='morphing_basis_vector_4'> +5.4346694e-05 </wgt>
<wgt id='morphing_basis_vector_5'> +1.2767005e-04 </wgt>
</rwgt>
</event>
<event>
 4      1 +2.9741700e-06 8.97552800e+02 7.81860800e-03 8.78855600e-02
        2 -1    0    0  501    0 +0.0000000000e+00 +0.0000000000e+00 +3.9594610042e+02 3.9594610042e+02 0.0000000000e+00 0.0000e+00 -1.0000e+00
       -2 -1    0    0    0  501 -0.0000000000e+00 -0.0000000000e+00 -5.0865573754e+02 5.0865573754e+02 0.0000000000e+00 0.0000e+00 1.0000e+00
      -13  1    1    2    0    0 +4.1883112155e+02 +1.5357694535e+02 -1.0567655542e+02 4.5844620283e+02 0.0000000000e+00 0.0000e+00 1.0000e+00
       13  1    1    2    0    0 -4.1883112155e+02 -1.5357694535e+02 -7.0330817046e+00 4.4615563513e+02 0.0000000000e+00 0.0000e+00 -1.0000e+00
<mgrwt>
<rscale>  0 0.89755280E+03</rscale>
<asrwt>0</asrwt>
<pdfrwt beam="1">  1        2 0.60914784E-01 0.89755280E+03</pdfrwt>
<pdfrwt beam="2">  1       -2 0.78254729E-01 0.89755280E+03</pdfrwt>
<totfact> 0.14537938E+02</totfact>
</mgrwt>
<rwgt>
<wgt id='morphing_basis_vector_1'> +3.2300410e-04 </wgt>
<wgt id='morphing_basis_vector_2'> +2.1670647e-04 </wgt>
<wgt id='morphing_basis_vector_3'> +3.0034136e-04 </wgt>
<wgt id='morphing_basis_vector_4'> +1.6164712e-04 </wgt>
<wgt id='morphing_basis_vector_5'> +2.7105738e-04 </wgt>
</rwgt>
</event>
<event>
 4      1 +2.9741700e-06 7.90612100e+02 7.81860800e-03 8.91409100e-02
        2 -1    0    0  501    0 +0.0000000000e+00 +0.0000000000e+00 +4.3558607909e+02 4.3558607909e+02 0.0000000000e+00 0.0000e+00 -1.0000e+00
       -2 -1    0    0    0  501 -0.0000000000e+00 -0.0000000000e+00 -3.5875083864e+02 3.5875083864e+02 0.0000000000e+00 0.0000e+00 1.0000e+00
      -13  1    1    2    0    0 +1.3003781193e+02 +5.2037097887e+01 -3.3298486620e+02 3.6124314970e+02 0.0000000000e+00 0.0000e+00 1.0000e+00
       13  1    1    2    0    0 -1.3003781193e+02 -5.2037097887e+01 +4.0982010666e+02 4.3309376803e+02 0.0000000000e+00 0.0000e+00 -1.0000e+00
<mgrwt>
<rscale>  0 0.79061209E+03</rscale>
<asrwt>0</asrwt>
<pdfrwt beam="1">  1        2 0.67013243E-01 0.79061209E+03</pdfrwt>
<pdfrwt beam="2">  1       -2 0.55192437E-01 0.79061209E+03</pdfrwt>
<totfact> 0.27389605E+02</totfact>
</mgrwt>
<rwgt>
<wgt id='morphing_basis_vector_1'> +2.0029039e-04 </wgt>
<wgt id='morphing_basis_vector_2'> +1.2034923e-04 </wgt>
<wgt id='morphing_basis_vector_3'> +1.7914252e-04 </wgt>
<wgt id='morphing_basis_vector_4'> +9.7929283e-05 </wgt>
<wgt id='morphing_basis_vector_5'> +1.5339944e-04 </wgt>
</rwgt>
</event>
<event>
 4      1 +2.9741700e-06 8.33511300e+02 7.81860800e-03 8.86135200e-02
        2 -1    0    0  501    0 +0.0000000000e+00 +0.0000000000e+00 +5.8455198529e+02 5.8455198529e+02 0.0000000000e+00 0.0000e+00 -1.0000e+00
       -2 -1    0    0    0  501 -0.0000000000e+00 -0.0000000000e+00 -2.9712543109e+02 2.9712543109e+02 0.0000000000e+00 0.0000e+00 1.0000e+00
      -13  1    1    2    0    0 -3.3608710316e+02 +2.3355962531e+02 +6.0553311651e+01 4.1372858620e+02 0.0000000000e+00 0.0000e+00 1.0000e+00
       13  1    1    2    0    0 +3.3608710316e+02 -2.3355962531e+02 +2.2687324255e+02 4.6794883018e+02 0.0000000000e+00 0.0000e+00 -1.0000e+00
<mgrwt>
<rscale>  0 0.83351127E+03</rscale>
<asrwt>0</asrwt>
<pdfrwt beam="1">  1        2 0.89931074E-01 0.83351127E+03</pdfrwt>
<pdfrwt beam="2">  1       -2 0.45711605E-01 0.83351127E+03</pdfrwt>
<totfact> 0.28225113E+02</totfact>
</mgrwt>
<rwgt>
<wgt id='morphing_basis_vector_1'> +2.4585626e-04 </wgt>
<wgt id='morphing_basis_vector_2'> +1.5942589e-04 </wgt>
<wgt id='morphing_basis_vector_3'> +2.2302248e-04 </wgt>
<wgt id='morphing_basis_vector_4'> +1.1859712e-04 </wgt>
<wgt id='morphing_basis_vector_5'> +1.9479096e-04 </wgt>
</rwgt>
</event>
<event>
 4      1 +2.9741700e-06 7.93993500e+02 7.81860800e-03 8.90980700e-02
        2 -1    0    0  501    0 +0.0000000000e+00 +0.0000000000e+00 +5.2234632300e+02 5.2234632300e+02 0.0000000000e+00 0.0000e+00 1.0000e+00
       -2 -1    0    0    0  501 -0.0000000000e+00 -0.0000000000e+00 -3.0172779925e+02 3.0172779925e+02 0.0000000000e+00 0.0000e+00 -1.0000e+00
      -13  1    1    2    0    0 -1.6896039832e+02 +2.8346429693e+02 -1.1874800210e+02 3.5071457317e+02 0.0000000000e+00 0.0000e+00 -1.0000e+00
       13  1    1    2    0    0 +1.6896039832e+02 -2.8346429693e+02 +3.3936652585e+02 4.7335954908e+02 0.0000000000e+00 0.0000e+00 1.0000e+00
<mgrwt>
<rscale>  0 0.79399347E+03</rscale>
<asrwt>0</asrwt>
<pdfrwt beam="1">  1        2 0.80360973E-01 0.79399347E+03</pdfrwt>
<pdfrwt beam="2">  1       -2 0.46419661E-01 0.79399347E+03</pdfrwt>
<totfact> 0.31282153E+02</totfact>
</mgrwt>
<rwgt>
<wgt id='morphing_basis_vector_1'> +2.0396522e-04 </wgt>
<wgt id='morphing_basis_vector_2'> +1.2420793e-04 </wgt>
<wgt id='morphing_basis_vector_3'> +1.8251799e-04 </wgt>
<wgt id='morphing_basis_vector_4'> +9.9043830e-05 </wgt>
<wgt id='morphing_basis_vector_5'> +1.5639203e-04 </wgt>
</rwgt>
</event>
<event>
 4      1 +2.9741700e-06 8.62442300e+02 7.81860800e-03 8.82764200e-02
        2 -1    0    0  501    0 +0.0000000000e+00 +0.0000000000e+00 +1.5850889361e+02 1.5850889361e+02 0.0000000000e+00 0.0000e+00 -1.0000e+00
       -2 -1    0    0    0  501 -0.0000000000e+00 -0.0000000000e+00 -1.1731307633e+03 1.1731307633e+03 0.0000000000e+00 0.0000e+00 1.0000e+00
      -13  1    1    2    0    0 -8.8464075286e+01 +4.1725624380e+02 -4.0937741268e+02 5.9120092322e+02 0.0000000000e+00 0.0000e+00 1.0000e+00
       13  1    1    2    0    0 +8.8464075286e+01 -4.1725624380e+02 -6.0524445698e+02 7.4043873367e+02 0.0000000000e+00 0.0000e+00 -1.0000e+00
<mgrwt>
<rscale>  0 0.86244225E+03</rscale>
<asrwt>0</asrwt>
<pdfrwt beam="1">  1        2 0.24385983E-01 0.86244225E+03</pdfrwt>
<pdfrwt beam="2">  1       -2 0.18048166E+00 0.86244225E+03</pdfrwt>
<totfact> 0.46619143E+01</totfact>
</mgrwt>
<rwgt>
<wgt id='morphing_basis_vector_1'> +2.8935609e-04 </wgt>
<wgt id='morphing_basis_vector_2'> +2.1619503e-04 </wgt>
<wgt id='morphing_basis_vector_3'> +2.6343479e-04 </wgt>
<wgt id='morphing_basis_vector_4'> +1.2228744e-04 </wgt>
<wgt id='morphing_basis_vector_5'> +2.2627884e-04 </wgt>
</rwgt>
</event>
<event>
 4      1 +2.9741700e-06 8.82131100e+02 7.81860800e-03 8.80548800e-02
        2 -1    0    0  501    0 +0.0000000000e+00 +0.0000000000e+00 +2.7760274629e+03 2.7760274629e+03 0.0000000000e+00 0.0000e+00 -1.0000e+00
       -2 -1    0    0    0  501 -0.0000000000e+00 -0.0000000000e+00 -7.0078127900e+01 7.0078127900e+01 0.0000000000e+00 0.0000e+00 1.0000e+00
      -13  1    1    2    0    0 -2.2433780213e+02 -3.1028268790e+02 +6.4657768256e+02 7.5144227687e+02 0.0000000000e+00 0.0000e+00 1.0000e+00
       13  1    1    2    0    0 +2.2433780213e+02 +3.1028268790e+02 +2.0593716524e+03 2.0946633139e+03 0.0000000000e+00 0.0000e+00 -1.0000e+00
<mgrwt>
<rscale>  0 0.88213107E+03</rscale>
<asrwt>0</asrwt>
<pdfrwt beam="1">  1        2 0.42708106E+00 0.88213107E+03</pdfrwt>
<pdfrwt beam="2">  1       -2 0.10781253E-01 0.88213107E+03</pdfrwt>
<totfact> 0.16218081E+02</totfact>
</mgrwt>
<rwgt>
<wgt id='morphing_basis_vector_1'> +2.9761928e-04 </wgt>
<wgt id='morphing_basis_vector_2'> +1.8554722e-04 </wgt>
<wgt id='morphing_basis_vector_3'> +2.7607736e-04 </wgt>
<wgt id='morphing_basis_vector_4'> +1.5779487e-04 </wgt>
<wgt id='morphing_basis_vector_5'> +2.5138908e-04 </wgt>
</rwgt>
</event>
<event>
 4      1 +2.9741700e-06 7.59454300e+02 7.81860800e-03 8.95467100e-02
        2 -1    0    0  501    0 +0.0000000000e+00 +0.0000000000e+00 +2.5554922201e+03 2.5554922201e+03 0.0000000000e+00 0.0000e+00 1.0000e+00
       -2 -1    0    0    0  501 -0.0000000000e+00 -0.0000000000e+00 -5.6424638519e+01 5.6424638519e+01 0.0000000000e+00 0.0000e+00 -1.0000e+00
      -13  1    1    2    0    0 -3.3815855831e+02 -1.5511555170e+01 +6.5782205986e+02 7.3981192295e+02 0.0000000000e+00 0.0000e+00 -1.0000e+00
       13  1    1    2    0    0 +3.3815855831e+02 +1.5511555170e+01 +1.8412455217e+03 1.8721049357e+03 0.0000000000e+00 0.0000e+00 1.0000e+00
<mgrwt>
<rscale>  0 0.75945434E+03</rscale>
<asrwt>0</asrwt>
<pdfrwt beam="1">  1        2 0.39315256E+00 0.75945434E+03</pdfrwt>
<pdfrwt beam="2">  1       -2 0.86807156E-02 0.75945434E+03</pdfrwt>
<totfact> 0.31314043E+02</totfact>
</mgrwt>
<rwgt>
<wgt id='morphing_basis_vector_1'> +1.7481503e-04 </wgt>
<wgt id='morphing_basis_vector_2'> +1.0653567e-04 </wgt>
<wgt id='morphing_basis_vector_3'> +1.5365125e-04 </wgt>
<wgt id='morphing_basis_vector_4'> +8.0508999e-05 </wgt>
<wgt id='morphing_basis_vector_5'> +1.2742007e-04 </wgt>
</rwgt>
</event>
<event>
 4      1 +2.9741700e-06 8.99514200e+02 7.81860800e-03 8.78642800e-02
        2 -1    0    0  501    0 +0.0000000000e+00 +0.0000000000e+00 +8.7204350003e+02 8.7204350003e+02 0.0000000000e+00 0.0000e+00 -1.0000e+00
       -2 -1    0    0    0  501 -0.0000000000e+00 -0.0000000000e+00 -2.3196256788e+02 2.3196256788e+02 0.0000000000e+00 0.0000e+00 1.0000e+00
      -13  1    1    2    0    0 +1.6861317383e+02 -9.4907012422e+01 -1.7826955531e+02 2.6309271701e+02 0.0000000000e+00 0.0000e+00 1.0000e+00
       13  1    1    2    0    0 -1.6861317383e+02 +9.4907012422e+01 +8.1835048746e+02 8.4091335090e+02 0.0000000000e+00 0.0000e+00 -1.0000e+00
<mgrwt>
<rscale>  0 0.89951420E+03</rscale>
<asrwt>0</asrwt>
<pdfrwt beam="1">  1        2 0.13416054E+00 0.89951420E+03</pdfrwt>
<pdfrwt beam="2">  1       -2 0.35686549E-01 0.89951420E+03</pdfrwt>
<totfact> 0.27205161E+02</totfact>
</mgrwt>
<rwgt>
<wgt id='morphing_basis_vector_1'> +3.1805892e-04 </wgt>
<wgt id='morphing_basis_vector_2'> +1.9562700e-04 </wgt>
<wgt id='morphing_basis_vector_3'> +2.9706020e-04 </wgt>
<wgt id='morphing_basis_vector_4'> +1.7388324e-04 </wgt>
<wgt id='morphing_basis_vector_5'> +2.7425580e-04 </wgt>
</rwgt>
</event>
<event>
 4      1 +2.9741700e-06 7.66814500e+02 7.81860800e-03 8.94490100e-02
        2 -1    0    0  501    0 +0.0000000000e+00 +0.0000000000e+00 +5.3781166800e+02 5.3781166800e+02 0.0000000000e+00 0.0000e+00 -1.0000e+00
       -2 -1    0    0    0  501 -0.0000000000e+00 -0.0000000000e+00 -2.7333199758e+02 2.7333199758e+02 0.0000000000e+00 0.0000e+00 1.0000e+00
      -13  1    1    2    0    0 -2.1784244804e+02 -2.6818554491e+02 -4.3567707937e+01 3.4824842260e+02 0.0000000000e+00 0.0000e+00 1.0000e+00
       13  1    1    2    0    0 +2.1784244804e+02 +2.6818554491e+02 +3.0804737835e+02 4.6289524298e+02 0.0000000000e+00 0.0000e+00 -1.0000e+00
<mgrwt>
<rscale>  0 0.76681455E+03</rscale>
<asrwt>0</asrwt>
<pdfrwt beam="1">  1        2 0.82740256E-01 0.76681455E+03</pdfrwt>
<pdfrwt beam="2">  1       -2 0.42051077E-01 0.76681455E+03</pdfrwt>
<totfact> 0.36546878E+02</totfact>
</mgrwt>
<rwgt>
<wgt id='morphing_basis_vector_1'> +1.8092200e-04 </wgt>
<wgt id='morphing_basis_vector_2'> +1.1070210e-04 </wgt>
<wgt id='morphing_basis_vector_3'> +1.5959005e-04 </wgt>
<wgt id='morphing_basis_vector_4'> +8.3998658e-05 </wgt>
<wgt id='morphing_basis_vector_5'> +1.3323131e-04 </wgt>
</rwgt>
</event>
<event>
 4      1 +2.9741700e-06 7.60385400e+02 7.81860800e-03 8.95342900e-02
        2 -1    0    0  501    0 +0.0000000000e+00 +0.0000000000e+00 +9.8130519805e+01 9.8130519805e+01 0.0000000000e+00 0.0000e+00 1.0000e+00
       -2 -1    0    0    0  501 -0.0000000000e+00 -0.0000000000e+00 -1.4730024858e+03 1.4730024858e+03 0.0000000000e+00 0.0000e+00 -1.0000e+00
      -13  1    1    2    0    0 +3.5199073221e+02 -9.7981752087e+01 -9.0462246885e+02 9.7562272957e+02 0.0000000000e+00 0.0000e+00 -1.0000e+00
       13  1    1    2    0    0 -3.5199073221e+02 +9.7981752087e+01 -4.7024949718e+02 5.9551027607e+02 0.0000000000e+00 0.0000e+00 1.0000e+00
<mgrwt>
<rscale>  0 0.76038543E+03</rscale>
<asrwt>0</asrwt>
<pdfrwt beam="1">  1        2 0.15097005E-01 0.76038543E+03</pdfrwt>
<pdfrwt beam="2">  1       -2 0.22661574E+00 0.76038543E+03</pdfrwt>
<totfact> 0.38813483E+01</totfact>
</mgrwt>
<rwgt>
<wgt id='morphing_basis_vector_1'> +1.7672399e-04 </wgt>
<wgt id='morphing_basis_vector_2'> +1.1057276e-04 </wgt>
<wgt id='morphing_basis_vector_3'> +1.5497321e-04 </wgt>
<wgt id='morphing_basis_vector_4'> +7.9586252e-05 </wgt>
<wgt id='morphing_basis_vector_5'> +1.2809459e-04 </wgt>
</rwgt>
</event>
<event>
 4      1 +2.9741700e-06 8.29681800e+02 7.81860800e-03 8.86592200e-02
        2 -1    0    0  501    0 +0.0000000000e+00 +0.0000000000e+00 +8.2425702695e+02 8.2425702695e+02 0.0000000000e+00 0.0000e+00 -1.0000e+00
       -2 -1    0    0    0  501 -0.0000000000e+00 -0.0000000000e+00 -2.0878555630e+02 2.0878555630e+02 0.0000000000e+00 0.0000e+00 1.0000e+00
      -13  1    1    2    0    0 +3.1529797517e+02 -1.2150665486e+02 +8.0907533347e+00 3.3799724942e+02 0.0000000000e+00 0.0000e+00 1.0000e+00
       13  1    1    2    0    0 -3.1529797517e+02 +1.2150665486e+02 +6.0738071731e+02 6.9504533384e+02 0.0000000000e+00 0.0000e+00 -1.0000e+00
<mgrwt>
<rscale>  0 0.82968177E+03</rscale>
<asrwt>0</asrwt>
<pdfrwt beam="1">  1        2 0.12680877E+00 0.82968177E+03</pdfrwt>
<pdfrwt beam="2">  1       -2 0.32120855E-01 0.82968177E+03</pdfrwt>
<totfact> 0.35546005E+02</totfact>
</mgrwt>
<rwgt>
<wgt id='morphing_basis_vector_1'> +2.3837108e-04 </wgt>
<wgt id='morphing_basis_vector_2'> +1.4609260e-04 </wgt>
<wgt id='morphing_basis_vector_3'> +2.1672552e-04 </wgt>
<wgt id='morphing_basis_vector_4'> +1.2075350e-04 </wgt>
<wgt id='morphing_basis_vector_5'> +1.9099459e-04 </wgt>
</rwgt>
</event>
<event>
 4      1 +2.9741700e-06 7.93531200e+02 7.81860800e-03 8.91039100e-02
        2 -1    0    0  501    0 +0.0000000000e+00 +0.0000000000e+00 +4.1614544918e+02 4.1614544918e+02 0.0000000000e+00 0.0000e+00 -1.0000e+00
       -2 -1    0    0    0  501 -0.0000000000e+00 -0.0000000000e+00 -3.7828826986e+02 3.7828826986e+02 0.0000000000e+00 0.0000e+00 1.0000e+00
      -13  1    1    2    0    0 +2.0392204785e+02 -2.1982047234e+02 -2.4120862274e+02 3.8482053134e+02 0.0000000000e+00 0.0000e+00 1.0000e+00
       13  1    1    2    0    0 -2.0392204785e+02 +2.1982047234e+02 +2.7906580206e+02 4.0961318770e+02 0.0000000000e+00 0.0000e+00 -1.0000e+00
<mgrwt>
<rscale>  0 0.79353120E+03</rscale>
<asrwt>0</asrwt>
<pdfrwt beam="1">  1        2 0.64022377E-01 0.79353120E+03</pdfrwt>
<pdfrwt beam="2">  1       -2 0.58198196E-01 0.79353120E+03</pdfrwt>
<totfact> 0.25907942E+02</totfact>
</mgrwt>
<rwgt>
<wgt id='morphing_basis_vector_1'> +2.0324964e-04 </wgt>
<wgt id='morphing_basis_vector_2'> +1.2303244e-04 </wgt>
<wgt id='morphing_basis_vector_3'> +1.8193074e-04 </wgt>
<wgt id='morphing_basis_vector_4'> +9.9154278e-05 </wgt>
<wgt id='morphing_basis_vector_5'> +1.5599151e-04 </wgt>
</rwgt>
</event>
<event>
 4      1 +2.9741700e-06 7.61926800e+02 7.81860800e-03 8.95137600e-02
        2 -1    0    0  501    0 +0.0000000000e+00 +0.0000000000e+00 +1.4527033764e+03 1.4527033764e+03 0.0000000000e+00 0.0000e+00 -1.0000e+00
       -2 -1    0    0    0  501 -0.0000000000e+00 -0.0000000000e+00 -9.9905536100e+01 9.9905536100e+01 0.0000000000e+00 0.0000e+00 1.0000e+00
      -13  1    1    2    0    0 -1.8705206900e+01 -3.2915033564e+02 +2.8739178597e+02 4.3736011119e+02 0.0000000000e+00 0.0000e+00 1.0000e+00
       13  1    1    2    0    0 +1.8705206900e+01 +3.2915033564e+02 +1.0654060544e+03 1.1152488013e+03 0.0000000000e+00 0.0000e+00 -1.0000e+00
<mgrwt>
<rscale>  0 0.76192679E+03</rscale>
<asrwt>0</asrwt>
<pdfrwt beam="1">  1        2 0.22349281E+00 0.76192679E+03</pdfrwt>
<pdfrwt beam="2">  1       -2 0.15370083E-01 0.76192679E+03</pdfrwt>
<totfact> 0.52270885E+02</totfact>
</mgrwt>
<rwgt>
<wgt id='morphing_basis_vector_1'> +1.7660868e-04 </wgt>
<wgt id='morphing_basis_vector_2'> +1.0718642e-04 </wgt>
<wgt id='morphing_basis_vector_3'> +1.5550444e-04 </wgt>
<wgt id='morphing_basis_vector_4'> +8.1954155e-05 </wgt>
<wgt id='morphing_basis_vector_5'> +1.2936218e-04 </wgt>
</rwgt>
</event>
<event>
 4      1 +2.9741700e-06 8.41354300e+02 7.81860800e-03 8.85207200e-02
        2 -1    0    0  501    0 +0.0000000000e+00 +0.0000000000e+00 +2.0911050291e+03 2.0911050291e+03 0.0000000000e+00 0.0000e+00 -1.0000e+00
       -2 -1    0    0    0  501 -0.0000000000e+00 -0.0000000000e+00 -8.4629542351e+01 8.4629542351e+01 0.0000000000e+00 0.0000e+00 1.0000e+00
      -13  1    1    2    0    0 -4.0253801643e+02 +5.8652762342e+01 +7.2601444472e+02 8.3221029502e+02 0.0000000000e+00 0.0000e+00 1.0000e+00
       13  1    1    2    0    0 +4.0253801643e+02 -5.8652762342e+01 +1.2804610421e+03 1.3435242765e+03 0.0000000000e+00 0.0000e+00 -1.0000e+00
<mgrwt>
<rscale>  0 0.84135429E+03</rscale>
<asrwt>0</asrwt>
<pdfrwt beam="1">  1        2 0.32170843E+00 0.84135429E+03</pdfrwt>
<pdfrwt beam="2">  1       -2 0.13019931E-01 0.84135429E+03</pdfrwt>
<totfact> 0.30213598E+02</totfact>
</mgrwt>
<rwgt>
<wgt id='morphing_basis_vector_1'> +2.5322351e-04 </wgt>
<wgt id='morphing_basis_vector_2'> +1.6201634e-04 </wgt>
<wgt id='morphing_basis_vector_3'> +2.3072422e-04 </wgt>
<wgt id='morphing_basis_vector_4'> +1.2499287e-04 </wgt>
<wgt id='morphing_basis_vector_5'> +2.0325089e-04 </wgt>
</rwgt>
</event>
<event>
 4      1 +2.9741700e-06 8.71965700e+02 7.81860800e-03 8.81684900e-02
        2 -1    0    0  501    0 +0.0000000000e+00 +0.0000000000e+00 +2.2624427088e+02 2.2624427088e+02 0.0000000000e+00 0.0000e+00 1.0000e+00
       -2 -1    0    0    0  501 -0.0000000000e+00 -0.0000000000e+00 -8.4015850492e+02 8.4015850492e+02 0.0000000000e+00 0.0000e+00 -1.0000e+00
      -13  1    1    2    0    0 +2.4462328665e+02 +4.9070509590e+01 -7.4422002717e+02 7.8492796875e+02 0.0000000000e+00 0.0000e+00 -1.0000e+00
       13  1    1    2    0    0 -2.4462328665e+02 -4.9070509590e+01 +1.3030579314e+02 2.8147480705e+02 0.0000000000e+00 0.0000e+00 1.0000e+00
<mgrwt>
<rscale>  0 0.87196571E+03</rscale>
<asrwt>0</asrwt>
<pdfrwt beam="1">  1        2 0.34806811E-01 0.87196571E+03</pdfrwt>
<pdfrwt beam="2">  1       -2 0.12925515E+00 0.87196571E+03</pdfrwt>
<totfact> 0.80844711E+01</totfact>
</mgrwt>
<rwgt>
<wgt id='morphing_basis_vector_1'> +2.8427541e-04 </wgt>
<wgt id='morphing_basis_vector_2'> +1.7411900e-04 </wgt>
<wgt id='morphing_basis_vector_3'> +2.6292868e-04 </wgt>
<wgt id='morphing_basis_vector_4'> +1.5150127e-04 </wgt>
<wgt id='morphing_basis_vector_5'> +2.3880958e-04 </wgt>
</rwgt>
</event>
<event>
 4      1 +2.9741700e-06 8.22868500e+02 7.81860800e-03 8.87411700e-02
        2 -1    0    0  501    0 +0.0000000000e+00 +0.0000000000e+00 +1.5080704337e+03 1.5080704337e+03 0.0000000000e+00 0.0000e+00 1.0000e+00
       -2 -1    0    0    0  501 -0.0000000000e+00 -0.0000000000e+00 -1.1224815955e+02 1.1224815955e+02 0.0000000000e+00 0.0000e+00 -1.0000e+00
      -13  1    1    2    0    0 -7.6286246649e+01 +2.7659014891e+02 +1.1725256695e+02 3.0995139354e+02 0.0000000000e+00 0.0000e+00 -1.0000e+00
       13  1    1    2    0    0 +7.6286246649e+01 -2.7659014891e+02 +1.2785697072e+03 1.3103671997e+03 0.0000000000e+00 0.0000e+00 1.0000e+00
<mgrwt>
<rscale>  0 0.82286847E+03</rscale>
<asrwt>0</asrwt>
<pdfrwt beam="1">  1        2 0.23201082E+00 0.82286847E+03</pdfrwt>
<pdfrwt beam="2">  1       -2 0.17268949E-01 0.82286847E+03</pdfrwt>
<totfact> 0.40131655E+02</totfact>
</mgrwt>
<rwgt>
<wgt id='morphing_basis_vector_1'> +2.3107162e-04 </wgt>
<wgt id='morphing_basis_vector_2'> +1.4046189e-04 </wgt>
<wgt id='morphing_basis_vector_3'> +2.0958585e-04 </wgt>
<wgt id='morphing_basis_vector_4'> +1.1689140e-04 </wgt>
<wgt id='morphing_basis_vector_5'> +1.8402446e-04 </wgt>
</rwgt>
</event>
<event>
 4      1 +2.9741700e-06 8.45201300e+02 7.81860800e-03 8.84755900e-02
        2 -1    0    0  501    0 +0.0000000000e+00 +0.0000000000e+00 +1.1970611613e+03 1.1970611613e+03 0.0000000000e+00 0.0000e+00 1.0000e+00
       -2 -1    0    0    0  501 -0.0000000000e+00 -0.0000000000e+00 -1.4919147757e+02 1.4919147757e+02 0.0000000000e+00 0.0000e+00 -1.0000e+00
      -13  1    1    2    0    0 -3.9090103695e+01 +2.6722866819e+02 +6.2022386791e+00 2.7014378592e+02 0.0000000000e+00 0.0000e+00 -1.0000e+00
       13  1    1    2    0    0 +3.9090103695e+01 -2.6722866819e+02 +1.0416674451e+03 1.0761088530e+03 0.0000000000e+00 0.0000e+00 1.0000e+00
<mgrwt>
<rscale>  0 0.84520133E+03</rscale>
<asrwt>0</asrwt>
<pdfrwt beam="1">  1        2 0.18416325E+00 0.84520133E+03</pdfrwt>
<pdfrwt beam="2">  1       -2 0.22952536E-01 0.84520133E+03</pdfrwt>
<totfact> 0.37348543E+02</totfact>
</mgrwt>
<rwgt>
<wgt id='morphing_basis_vector_1'> +2.5419042e-04 </wgt>
<wgt id='morphing_basis_vector_2'> +1.5501692e-04 </wgt>
<wgt id='morphing_basis_vector_3'> +2.3270089e-04 </wgt>
<wgt id='morphing_basis_vector_4'> +1.3185029e-04 </wgt>
<wgt id='morphing_basis_vector_5'> +2.0767063e-04 </wgt>
</rwgt>
</event>
<event>
 4      1 +2.9741700e-06 7.55710300e+02 7.81860800e-03 8.95968700e-02
        2 -1    0    0  501    0 +0.0000000000e+00 +0.0000000000e+00 +6.0332730869e+02 6.0332730869e+02 0.0000000000e+00 0.0000e+00 -1.0000e+00
       -2 -1    0    0    0  501 -0.0000000000e+00 -0.0000000000e+00 -2.3664518868e+02 2.3664518868e+02 0.0000000000e+00 0.0000e+00 1.0000e+00
      -13  1    1    2    0    0 -3.4204484670e+02 -9.6406416548e+01 +3.2605372633e+02 4.8228612541e+02 0.0000000000e+00 0.0000e+00 -1.0000e+00
       13  1    1    2    0    0 +3.4204484670e+02 +9.6406416548e+01 +4.0628393677e+01 3.5768637195e+02 0.0000000000e+00 0.0000e+00 1.0000e+00
<mgrwt>
<rscale>  0 0.75571027E+03</rscale>
<asrwt>0</asrwt>
<pdfrwt beam="1">  1        2 0.92819586E-01 0.75571027E+03</pdfrwt>
<pdfrwt beam="2">  1       -2 0.36406952E-01 0.75571027E+03</pdfrwt>
<totfact> 0.41762985E+02</totfact>
</mgrwt>
<rwgt>
<wgt id='morphing_basis_vector_1'> +1.8984579e-04 </wgt>
<wgt id='morphing_basis_vector_2'> +1.5997169e-04 </wgt>
<wgt id='morphing_basis_vector_3'> +1.5965046e-04 </wgt>
<wgt id='morphing_basis_vector_4'> +5.7514633e-05 </wgt>
<wgt id='morphing_basis_vector_5'> +1.2376127e-04 </wgt>
</rwgt>
</event>
<event>
 4      1 +2.9741700e-06 8.15394400e+02 7.81860800e-03 8.88320500e-02
        2 -1    0    0  501    0 +0.0000000000e+00 +0.0000000000e+00 +1.4084905600e+03 1.4084905600e+03 0.0000000000e+00 0.0000e+00 1.0000e+00
       -2 -1    0    0    0  501 -0.0000000000e+00 -0.0000000000e+00 -1.1801073618e+02 1.1801073618e+02 0.0000000000e+00 0.0000e+00 -1.0000e+00
      -13  1    1    2    0    0 +8.6401132172e+01 +3.3712748343e+02 +2.4767975366e+02 4.2715963772e+02 0.0000000000e+00 0.0000e+00 -1.0000e+00
       13  1    1    2    0    0 -8.6401132172e+01 -3.3712748343e+02 +1.0428000702e+03 1.0993416585e+03 0.0000000000e+00 0.0000e+00 1.0000e+00
<mgrwt>
<rscale>  0 0.81539440E+03</rscale>
<asrwt>0</asrwt>
<pdfrwt beam="1">  1        2 0.21669084E+00 0.81539440E+03</pdfrwt>
<pdfrwt beam="2">  1       -2 0.18155499E-01 0.81539440E+03</pdfrwt>
<totfact> 0.41996580E+02</totfact>
</mgrwt>
<rwgt>
<wgt id='morphing_basis_vector_1'> +2.2430162e-04 </wgt>
<wgt id='morphing_basis_vector_2'> +1.3763719e-04 </wgt>
<wgt id='morphing_basis_vector_3'> +2.0262419e-04 </wgt>
<wgt id='morphing_basis_vector_4'> +1.1141525e-04 </wgt>
<wgt id='morphing_basis_vector_5'> +1.7653063e-04 </wgt>
</rwgt>
</event>
<event>
 4      1 +2.9741700e-06 7.77392400e+02 7.81860800e-03 8.93106200e-02
        2 -1    0    0  501    0 +0.0000000000e+00 +0.0000000000e+00 +2.6198539437e+02 2.6198539437e+02 0.0000000000e+00 0.0000e+00 -1.0000e+00
       -2 -1    0    0    0  501 -0.0000000000e+00 -0.0000000000e+00 -5.7669144641e+02 5.7669144641e+02 0.0000000000e+00 0.0000e+00 1.0000e+00
      -13  1    1    2    0    0 +6.6928043894e+01 +2.8009768708e+02 +1.2428376583e+02 3.1365671014e+02 0.0000000000e+00 0.0000e+00 1.0000e+00
       13  1    1    2    0    0 -6.6928043894e+01 -2.8009768708e+02 -4.3898981787e+02 5.2502013063e+02 0.0000000000e+00 0.0000e+00 -1.0000e+00
<mgrwt>
<rscale>  0 0.77739240E+03</rscale>
<asrwt>0</asrwt>
<pdfrwt beam="1">  1        2 0.40305446E-01 0.77739240E+03</pdfrwt>
<pdfrwt beam="2">  1       -2 0.88721761E-01 0.77739240E+03</pdfrwt>
<totfact> 0.17496752E+02</totfact>
</mgrwt>
<rwgt>
<wgt id='morphing_basis_vector_1'> +2.3919725e-04 </wgt>
<wgt id='morphing_basis_vector_2'> +2.6781109e-04 </wgt>
<wgt id='morphing_basis_vector_3'> +1.9532969e-04 </wgt>
<wgt id='morphing_basis_vector_4'> +2.9183279e-05 </wgt>
<wgt id='morphing_basis_vector_5'> +1.3953307e-04 </wgt>
</rwgt>
</event>
<event>
 4      1 +2.9741700e-06 8.29831500e+02 7.81860800e-03 8.86574200e-02
        2 -1    0    0  501    0 +0.0000000000e+00 +0.0000000000e+00 +1.7963619355e+03 1.7963619355e+03 0.0000000000e+00 0.0000e+00 -1.0000e+00
       -2 -1    0    0    0  501 -0.0000000000e+00 -0.0000000000e+00 -9.5835397932e+01 9.5835397932e+01 0.0000000000e+00 0.0000e+00 1.0000e+00
      -13  1    1    2    0    0 +1.2244685432e+02 -2.6256652359e+02 +1.7299354968e+02 3.3743322254e+02 0.0000000000e+00 0.0000e+00 1.0000e+00
       13  1    1    2    0    0 -1.2244685432e+02 +2.6256652359e+02 +1.5275329879e+03 1.5547641109e+03 0.0000000000e+00 0.0000e+00 -1.0000e+00
<mgrwt>
<rscale>  0 0.82983145E+03</rscale>
<asrwt>0</asrwt>
<pdfrwt beam="1">  1        2 0.27636335E+00 0.82983145E+03</pdfrwt>
<pdfrwt beam="2">  1       -2 0.14743909E-01 0.82983145E+03</pdfrwt>
<totfact> 0.36018752E+02</totfact>
</mgrwt>
<rwgt>
<wgt id='morphing_basis_vector_1'> +2.3812755e-04 </wgt>
<wgt id='morphing_basis_vector_2'> +1.4497757e-04 </wgt>
<wgt id='morphing_basis_vector_3'> +2.1661735e-04 </wgt>
<wgt id='morphing_basis_vector_4'> +1.2137288e-04 </wgt>
<wgt id='morphing_basis_vector_5'> +1.9117445e-04 </wgt>
</rwgt>
</event>
<event>
 4      1 +2.9741700e-06 8.21221300e+02 7.81860800e-03 8.87611100e-02
        2 -1    0    0  501    0 +0.0000000000e+00 +0.0000000000e+00 +4.3393504208e+02 4.3393504208e+02 0.0000000000e+00 0.0000e+00 -1.0000e+00
       -2 -1    0    0    0  501 -0.0000000000e+00 -0.0000000000e+00 -3.8853998469e+02 3.8853998469e+02 0.0000000000e+00 0.0000e+00 1.0000e+00
      -13  1    1    2    0    0 +4.4121797807e+01 +3.2151325249e+02 -2.2924885355e+02 3.9733177751e+02 0.0000000000e+00 0.0000e+00 1.0000e+00
       13  1    1    2    0    0 -4.4121797807e+01 -3.2151325249e+02 +2.7464391095e+02 4.2514324925e+02 0.0000000000e+00 0.0000e+00 -1.0000e+00
<mgrwt>
<rscale>  0 0.82122132E+03</rscale>
<asrwt>0</asrwt>
<pdfrwt beam="1">  1        2 0.66759238E-01 0.82122132E+03</pdfrwt>
<pdfrwt beam="2">  1       -2 0.59775382E-01 0.82122132E+03</pdfrwt>
<totfact> 0.23369028E+02</totfact>
</mgrwt>
<rwgt>
<wgt id='morphing_basis_vector_1'> +2.2969707e-04 </wgt>
<wgt id='morphing_basis_vector_2'> +1.4023692e-04 </wgt>
<wgt id='morphing_basis_vector_3'> +2.0812164e-04 </wgt>
<wgt id='morphing_basis_vector_4'> +1.1549756e-04 </wgt>
<wgt id='morphing_basis_vector_5'> +1.8234579e-04 </wgt>
</rwgt>
</event>
<event>
 4      1 +2.9741700e-06 8.06974000e+02 7.81860800e-03 8.89356700e-02
        2 -1    0    0  501    0 +0.0000000000e+00 +0.0000000000e+00 +1.9797655863e+03 1.9797655863e+03 0.0000000000e+00 0.0000e+00 -1.0000e+00
       -2 -1    0    0    0  501 -0.0000000000e+00 -0.0000000000e+00 -8.2232836118e+01 8.2232836118e+01 0.0000000000e+00 0.0000e+00 1.0000e+00
      -13  1    1    2    0    0 +5.1358242199e+01 -2.8197093223e+02 +2.2308094992e+02 3.6319469418e+02 0.0000000000e+00 0.0000e+00 1.0000e+00
       13  1    1    2    0    0 -5.1358242199e+01 +2.8197093223e+02 +1.6744518003e+03 1.6988037283e+03 0.0000000000e+00 0.0000e+00 -1.0000e+00
<mgrwt>
<rscale>  0 0.80697395E+03</rscale>
<asrwt>0</asrwt>
<pdfrwt beam="1">  1        2 0.30457929E+00 0.80697395E+03</pdfrwt>
<pdfrwt beam="2">  1       -2 0.12651207E-01 0.80697395E+03</pdfrwt>
<totfact> 0.36575526E+02</totfact>
</mgrwt>
<rwgt>
<wgt id='morphing_basis_vector_1'> +2.1560473e-04 </wgt>
<wgt id='morphing_basis_vector_2'> +1.3065043e-04 </wgt>
<wgt id='morphing_basis_vector_3'> +1.9420520e-04 </wgt>
<wgt id='morphing_basis_vector_4'> +1.0707778e-04 </wgt>
<wgt id='morphing_basis_vector_5'> +1.6842580e-04 </wgt>
</rwgt>
</event>
<event>
 4      1 +2.9741700e-06 8.06245600e+02 7.81860800e-03 8.89447000e-02
        2 -1    0    0  501    0 +0.0000000000e+00 +0.0000000000e+00 +1.0931898475e+03 1.0931898475e+03 0.0000000000e+00 0.0000e+00 -1.0000e+00
       -2 -1    0    0    0  501 -0.0000000000e+00 -0.0000000000e+00 -1.4865485240e+02 1.4865485240e+02 0.0000000000e+00 0.0000e+00 1.0000e+00
      -13  1    1    2    0    0 -3.8256857830e+01 +3.7549831542e+02 +2.5419175870e+02 4.5505606495e+02 0.0000000000e+00 0.0000e+00 1.0000e+00
       13  1    1    2    0    0 +3.8256857830e+01 -3.7549831542e+02 +6.9034323636e+02 7.8678863492e+02 0.0000000000e+00 0.0000e+00 -1.0000e+00
<mgrwt>
<rscale>  0 0.80624556E+03</rscale>
<asrwt>0</asrwt>
<pdfrwt beam="1">  1        2 0.16818305E+00 0.80624556E+03</pdfrwt>
<pdfrwt beam="2">  1       -2 0.22869978E-01 0.80624556E+03</pdfrwt>
<totfact> 0.43348727E+02</totfact>
</mgrwt>
<rwgt>
<wgt id='morphing_basis_vector_1'> +2.1654495e-04 </wgt>
<wgt id='morphing_basis_vector_2'> +1.3520058e-04 </wgt>
<wgt id='morphing_basis_vector_3'> +1.9451537e-04 </wgt>
<wgt id='morphing_basis_vector_4'> +1.0456809e-04 </wgt>
<wgt id='morphing_basis_vector_5'> +1.6764450e-04 </wgt>
</rwgt>
</event>
<event>
 4      1 +2.9741700e-06 7.86837300e+02 7.81860800e-03 8.91890100e-02
        2 -1    0    0  501    0 +0.0000000000e+00 +0.0000000000e+00 +7.9291651611e+02 7.9291651611e+02 0.0000000000e+00 0.0000e+00 1.0000e+00
       -2 -1    0    0    0  501 -0.0000000000e+00 -0.0000000000e+00 -1.9520119277e+02 1.9520119277e+02 0.0000000000e+00 0.0000e+00 -1.0000e+00
      -13  1    1    2    0    0 +2.6921816728e+02 -1.2978103220e+02 -2.2435005560e+01 2.9970797018e+02 0.0000000000e+00 0.0000e+00 -1.0000e+00
       13  1    1    2    0    0 -2.6921816728e+02 +1.2978103220e+02 +6.2015032890e+02 6.8840973871e+02 0.0000000000e+00 0.0000e+00 1.0000e+00
<mgrwt>
<rscale>  0 0.78683734E+03</rscale>
<asrwt>0</asrwt>
<pdfrwt beam="1">  1        2 0.12198715E+00 0.78683734E+03</pdfrwt>
<pdfrwt beam="2">  1       -2 0.30030953E-01 0.78683734E+03</pdfrwt>
<totfact> 0.42188766E+02</totfact>
</mgrwt>
<rwgt>
<wgt id='morphing_basis_vector_1'> +1.9726719e-04 </wgt>
<wgt id='morphing_basis_vector_2'> +1.1924649e-04 </wgt>
<wgt id='morphing_basis_vector_3'> +1.7601930e-04 </wgt>
<wgt id='morphing_basis_vector_4'> +9.5423480e-05 </wgt>
<wgt id='morphing_basis_vector_5'> +1.5005484e-04 </wgt>
</rwgt>
</event>
<event>
 4      1 +2.9741700e-06 7.53625600e+02 7.81860800e-03 8.96249300e-02
        2 -1    0    0  501    0 +0.0000000000e+00 +0.0000000000e+00 +1.1626841324e+03 1.1626841324e+03 0.0000000000e+00 0.0000e+00 1.0000e+00
       -2 -1    0    0    0  501 -0.0000000000e+00 -0.0000000000e+00 -1.2212077083e+02 1.2212077083e+02 0.0000000000e+00 0.0000e+00 -1.0000e+00
      -13  1    1    2    0    0 -2.3662311531e+02 +4.3560700433e+01 +1.0146824718e+03 1.0428176024e+03 0.0000000000e+00 0.0000e+00 1.0000e+00
       13  1    1    2    0    0 +2.3662311531e+02 -4.3560700433e+01 +2.5880889810e+01 2.4198730086e+02 0.0000000000e+00 0.0000e+00 -1.0000e+00
<mgrwt>
<rscale>  0 0.75362559E+03</rscale>
<asrwt>0</asrwt>
<pdfrwt beam="1">  1        2 0.17887447E+00 0.75362559E+03</pdfrwt>
<pdfrwt beam="2">  1       -2 0.18787812E-01 0.75362559E+03</pdfrwt>
<totfact> 0.54955276E+02</totfact>
</mgrwt>
<rwgt>
<wgt id='morphing_basis_vector_1'> +2.2238834e-04 </wgt>
<wgt id='morphing_basis_vector_2'> +2.6394349e-04 </wgt>
<wgt id='morphing_basis_vector_3'> +1.7470952e-04 </wgt>
<wgt id='morphing_basis_vector_4'> +1.6537350e-05 </wgt>
<wgt id='morphing_basis_vector_5'> +1.2073971e-04 </wgt>
</rwgt>
</event>
<event>
 4      1 +2.9741700e-06 8.38863000e+02 7.81860800e-03 8.85500800e-02
        2 -1    0    0  501    0 +0.0000000000e+00 +0.0000000000e+00 +2.9442997164e+02 2.9442997164e+02 0.0000000000e+00 0.0000e+00 -1.0000e+00
       -2 -1    0    0    0  501 -0.0000000000e+00 -0.0000000000e+00 -5.9750302559e+02 5.9750302559e+02 0.0000000000e+00 0.0000e+00 1.0000e+00
      -13  1    1    2    0    0 +1.4959209351e+02 -3.7789743994e+02 -2.6171926902e+02 4.8340588053e+02 0.0000000000e+00 0.0000e+00 1.0000e+00
       13  1    1    2    0    0 -1.4959209351e+02 +3.7789743994e+02 -4.1353784932e+01 4.0852711670e+02 0.0000000000e+00 0.0000e+00 -1.0000e+00
<mgrwt>
<rscale>  0 0.83886304E+03</rscale>
<asrwt>0</asrwt>
<pdfrwt beam="1">  1        2 0.45296919E-01 0.83886304E+03</pdfrwt>
<pdfrwt beam="2">  1       -2 0.91923541E-01 0.83886304E+03</pdfrwt>
<totfact> 0.14069110E+02</totfact>
</mgrwt>
<rwgt>
<wgt id='morphing_basis_vector_1'> +2.5065435e-04 </wgt>
<wgt id='morphing_basis_vector_2'> +1.6054937e-04 </wgt>
<wgt id='morphing_basis_vector_3'> +2.2811684e-04 </wgt>
<wgt id='morphing_basis_vector_4'> +1.2321480e-04 </wgt>
<wgt id='morphing_basis_vector_5'> +2.0054843e-04 </wgt>
</rwgt>
</event>
<event>
 4      1 +2.9741700e-06 8.01217800e+02 7.81860800e-03 8.90072800e-02
        2 -1    0    0  501    0 +0.0000000000e+00 +0.0000000000e+00 +4.0238229539e+03 4.0238229539e+03 0.0000000000e+00 0.0000e+00 1.0000e+00
       -2 -1    0    0    0  501 -0.0000000000e+00 -0.0000000000e+00 -3.9884330775e+01 3.9884330775e+01 0.0000000000e+00 0.0000e+00 -1.0000e+00
      -13  1    1    2    0    0 +2.2815362810e+02 +3.2905969105e+02 +2.0547315273e+03 2.0933838653e+03 0.0000000000e+00 0.0000e+00 -1.0000e+00
       13  1    1    2    0    0 -2.2815362810e+02 -3.2905969105e+02 +1.9292070958e+03 1.9703234194e+03 0.0000000000e+00 0.0000e+00 1.0000e+00
<mgrwt>
<rscale>  0 0.80121779E+03</rscale>
<asrwt>0</asrwt>
<pdfrwt beam="1">  1        2 0.61904937E+00 0.80121779E+03</pdfrwt>
<pdfrwt beam="2">  1       -2 0.61360540E-02 0.80121779E+03</pdfrwt>
<totfact> 0.51624510E+01</totfact>
</mgrwt>
<rwgt>
<wgt id='morphing_basis_vector_1'> +2.1820706e-04 </wgt>
<wgt id='morphing_basis_vector_2'> +1.5172599e-04 </wgt>
<wgt id='morphing_basis_vector_3'> +1.9364708e-04 </wgt>
<wgt id='morphing_basis_vector_4'> +9.3561010e-05 </wgt>
<wgt id='morphing_basis_vector_5'> +1.6258623e-04 </wgt>
</rwgt>
</event>
<event>
 4      1 +2.9741700e-06 7.52173100e+02 7.81860800e-03 8.96445400e-02
        2 -1    0    0  501    0 +0.0000000000e+00 +0.0000000000e+00 +1.6247024726e+03 1.6247024726e+03 0.0000000000e+00 0.0000e+00 1.0000e+00
       -2 -1    0    0    0  501 -0.0000000000e+00 -0.0000000000e+00 -8.7056605205e+01 8.7056605205e+01 0.0000000000e+00 0.0000e+00 -1.0000e+00
      -13  1    1    2    0    0 -7.6312451326e+01 -3.6811075522e+02 +7.4474257749e+02 8.3424853914e+02 0.0000000000e+00 0.0000e+00 -1.0000e+00
       13  1    1    2    0    0 +7.6312451326e+01 +3.6811075522e+02 +7.9290328995e+02 8.7751053871e+02 0.0000000000e+00 0.0000e+00 1.0000e+00
<mgrwt>
<rscale>  0 0.75217307E+03</rscale>
<asrwt>0</asrwt>
<pdfrwt beam="1">  1        2 0.24995420E+00 0.75217307E+03</pdfrwt>
<pdfrwt beam="2">  1       -2 0.13393325E-01 0.75217307E+03</pdfrwt>
<totfact> 0.52501598E+02</totfact>
</mgrwt>
<rwgt>
<wgt id='morphing_basis_vector_1'> +1.7342729e-04 </wgt>
<wgt id='morphing_basis_vector_2'> +1.1633643e-04 </wgt>
<wgt id='morphing_basis_vector_3'> +1.5013421e-04 </wgt>
<wgt id='morphing_basis_vector_4'> +7.1908039e-05 </wgt>
<wgt id='morphing_basis_vector_5'> +1.2166357e-04 </wgt>
</rwgt>
</event>
<event>
 4      1 +2.9741700e-06 7.69318300e+02 7.81860800e-03 8.94160400e-02
        2 -1    0    0  501    0 +0.0000000000e+00 +0.0000000000e+00 +5.6453156005e+02 5.6453156005e+02 0.0000000000e+00 0.0000e+00 -1.0000e+00
       -2 -1    0    0    0  501 -0.0000000000e+00 -0.0000000000e+00 -2.6209811241e+02 2.6209811241e+02 0.0000000000e+00 0.0000e+00 1.0000e+00
      -13  1    1    2    0    0 -2.5801737294e+02 +2.4709117505e+02 -2.0097781653e+00 3.5725488483e+02 0.0000000000e+00 0.0000e+00 1.0000e+00
       13  1    1    2    0    0 +2.5801737294e+02 -2.4709117505e+02 +3.0444322580e+02 4.6937478763e+02 0.0000000000e+00 0.0000e+00 -1.0000e+00
<mgrwt>
<rscale>  0 0.76931829E+03</rscale>
<asrwt>0</asrwt>
<pdfrwt beam="1">  1        2 0.86851009E-01 0.76931829E+03</pdfrwt>
<pdfrwt beam="2">  1       -2 0.40322787E-01 0.76931829E+03</pdfrwt>
<totfact> 0.37370592E+02</totfact>
</mgrwt>
<rwgt>
<wgt id='morphing_basis_vector_1'> +1.8337419e-04 </wgt>
<wgt id='morphing_basis_vector_2'> +1.1318184e-04 </wgt>
<wgt id='morphing_basis_vector_3'> +1.6182844e-04 </wgt>
<wgt id='morphing_basis_vector_4'> +8.4804277e-05 </wgt>
<wgt id='morphing_basis_vector_5'> +1.3523499e-04 </wgt>
</rwgt>
</event>
<event>
 4      1 +2.9741700e-06 8.74636600e+02 7.81860800e-03 8.81384900e-02
        2 -1    0    0  501    0 +0.0000000000e+00 +0.0000000000e+00 +6.3642185076e+02 6.3642185076e+02 0.0000000000e+00 0.0000e+00 1.0000e+00
       -2 -1    0    0    0  501 -0.0000000000e+00 -0.0000000000e+00 -3.0050394055e+02 3.0050394055e+02 0.0000000000e+00 0.0000e+00 -1.0000e+00
      -13  1    1    2    0    0 -3.6362388683e+02 -3.4758528344e+01 -8.9616544486e+01 3.7611382773e+02 0.0000000000e+00 0.0000e+00 -1.0000e+00
       13  1    1    2    0    0 +3.6362388683e+02 +3.4758528344e+01 +4.2553445469e+02 5.6081196358e+02 0.0000000000e+00 0.0000e+00 1.0000e+00
<mgrwt>
<rscale>  0 0.87463655E+03</rscale>
<asrwt>0</asrwt>
<pdfrwt beam="1">  1        2 0.97911054E-01 0.87463655E+03</pdfrwt>
<pdfrwt beam="2">  1       -2 0.46231376E-01 0.87463655E+03</pdfrwt>
<totfact> 0.24923321E+02</totfact>
</mgrwt>
<rwgt>
<wgt id='morphing_basis_vector_1'> +2.8826352e-04 </wgt>
<wgt id='morphing_basis_vector_2'> +1.7868273e-04 </wgt>
<wgt id='morphing_basis_vector_3'> +2.6672434e-04 </wgt>
<wgt id='morphing_basis_vector_4'> +1.5240855e-04 </wgt>
<wgt id='morphing_basis_vector_5'> +2.4203284e-04 </wgt>
</rwgt>
</event>
<event>
 4      1 +2.9741700e-06 8.87974700e+02 7.81860800e-03 8.79902900e-02
        2 -1    0    0  501    0 +0.0000000000e+00 +0.0000000000e+00 +4.4081113794e+02 4.4081113794e+02 0.0000000000e+00 0.0000e+00 -1.0000e+00
       -2 -1    0    0    0  501 -0.0000000000e+00 -0.0000000000e+00 -4.4718645826e+02 4.4718645826e+02 0.0000000000e+00 0.0000e+00 1.0000e+00
      -13  1    1    2    0    0 -3.5262741294e+02 -9.2474553231e+01 -2.5662492439e+02 4.4581833427e+02 0.0000000000e+00 0.0000e+00 1.0000e+00
       13  1    1    2    0    0 +3.5262741294e+02 +9.2474553231e+01 +2.5024960407e+02 4.4217926194e+02 0.0000000000e+00 0.0000e+00 -1.0000e+00
<mgrwt>
<rscale>  0 0.88797471E+03</rscale>
<asrwt>0</asrwt>
<pdfrwt beam="1">  1        2 0.67817099E-01 0.88797471E+03</pdfrwt>
<pdfrwt beam="2">  1       -2 0.68797916E-01 0.88797471E+03</pdfrwt>
<totfact> 0.17064822E+02</totfact>
</mgrwt>
<rwgt>
<wgt id='morphing_basis_vector_1'> +3.0436552e-04 </wgt>
<wgt id='morphing_basis_vector_2'> +1.8886980e-04 </wgt>
<wgt id='morphing_basis_vector_3'> +2.8300305e-04 </wgt>
<wgt id='morphing_basis_vector_4'> +1.6308525e-04 </wgt>
<wgt id='morphing_basis_vector_5'> +2.5891522e-04 </wgt>
</rwgt>
</event>
<event>
 4      1 +2.9741700e-06 7.64674600e+02 7.81860800e-03 8.94773000e-02
        2 -1    0    0  501    0 +0.0000000000e+00 +0.0000000000e+00 +9.9271926038e+02 9.9271926038e+02 0.0000000000e+00 0.0000e+00 -1.0000e+00
       -2 -1    0    0    0  501 -0.0000000000e+00 -0.0000000000e+00 -1.4725392578e+02 1.4725392578e+02 0.0000000000e+00 0.0000e+00 1.0000e+00
      -13  1    1    2    0    0 +2.4284443534e+02 -2.9411696971e+02 +3.8318873493e+02 5.4065868922e+02 0.0000000000e+00 0.0000e+00 1.0000e+00
       13  1    1    2    0    0 -2.4284443534e+02 +2.9411696971e+02 +4.6227659967e+02 5.9931449694e+02 0.0000000000e+00 0.0000e+00 -1.0000e+00
<mgrwt>
<rscale>  0 0.76467459E+03</rscale>
<asrwt>0</asrwt>
<pdfrwt beam="1">  1        2 0.15272604E+00 0.76467459E+03</pdfrwt>
<pdfrwt beam="2">  1       -2 0.22654451E-01 0.76467459E+03</pdfrwt>
<totfact> 0.50808699E+02</totfact>
</mgrwt>
<rwgt>
<wgt id='morphing_basis_vector_1'> +1.8293546e-04 </wgt>
<wgt id='morphing_basis_vector_2'> +1.2115975e-04 </wgt>
<wgt id='morphing_basis_vector_3'> +1.5981252e-04 </wgt>
<wgt id='morphing_basis_vector_4'> +7.8426689e-05 </wgt>
<wgt id='morphing_basis_vector_5'> +1.3135088e-04 </wgt>
</rwgt>
</event>
<event>
 4      1 +2.9741700e-06 7.92482100e+02 7.81860800e-03 8.91171900e-02
        2 -1    0    0  501    0 +0.0000000000e+00 +0.0000000000e+00 +1.2331030790e+03 1.2331030790e+03 0.0000000000e+00 0.0000e+00 -1.0000e+00
       -2 -1    0    0    0  501 -0.0000000000e+00 -0.0000000000e+00 -1.2732672245e+02 1.2732672245e+02 0.0000000000e+00 0.0000e+00 1.0000e+00
      -13  1    1    2    0    0 +1.5891305735e+02 -3.6263289395e+02 +5.8008522397e+02 7.0232103958e+02 0.0000000000e+00 0.0000e+00 1.0000e+00
       13  1    1    2    0    0 -1.5891305735e+02 +3.6263289395e+02 +5.2569113257e+02 6.5810876186e+02 0.0000000000e+00 0.0000e+00 -1.0000e+00
<mgrwt>
<rscale>  0 0.79248211E+03</rscale>
<asrwt>0</asrwt>
<pdfrwt beam="1">  1        2 0.18970816E+00 0.79248211E+03</pdfrwt>
<pdfrwt beam="2">  1       -2 0.19588727E-01 0.79248211E+03</pdfrwt>
<totfact> 0.46585225E+02</totfact>
</mgrwt>
<rwgt>
<wgt id='morphing_basis_vector_1'> +2.1015520e-04 </wgt>
<wgt id='morphing_basis_vector_2'> +1.4649045e-04 </wgt>
<wgt id='morphing_basis_vector_3'> +1.8555166e-04 </wgt>
<wgt id='morphing_basis_vector_4'> +8.8759153e-05 </wgt>
<wgt id='morphing_basis_vector_5'> +1.5464139e-04 </wgt>
</rwgt>
</event>
<event>
 4      1 +2.9741700e-06 8.02648500e+02 7.81860800e-03 8.89894300e-02
        2 -1    0    0  501    0 +0.0000000000e+00 +0.0000000000e+00 +1.6531377214e+03 1.6531377214e+03 0.0000000000e+00 0.0000e+00 1.0000e+00
       -2 -1    0    0    0  501 -0.0000000000e+00 -0.0000000000e+00 -9.7427551749e+01 9.7427551749e+01 0.0000000000e+00 0.0000e+00 -1.0000e+00
      -13  1    1    2    0    0 +1.3029876645e+02 -2.4882219752e+02 +1.5266520484e+02 3.1968252890e+02 0.0000000000e+00 0.0000e+00 -1.0000e+00
       13  1    1    2    0    0 -1.3029876645e+02 +2.4882219752e+02 +1.4030449648e+03 1.4308827443e+03 0.0000000000e+00 0.0000e+00 1.0000e+00
<mgrwt>
<rscale>  0 0.80264852E+03</rscale>
<asrwt>0</asrwt>
<pdfrwt beam="1">  1        2 0.25432886E+00 0.80264852E+03</pdfrwt>
<pdfrwt beam="2">  1       -2 0.14988855E-01 0.80264852E+03</pdfrwt>
<totfact> 0.42109010E+02</totfact>
</mgrwt>
<rwgt>
<wgt id='morphing_basis_vector_1'> +2.1151254e-04 </wgt>
<wgt id='morphing_basis_vector_2'> +1.2799360e-04 </wgt>
<wgt id='morphing_basis_vector_3'> +1.9015662e-04 </wgt>
<wgt id='morphing_basis_vector_4'> +1.0454838e-04 </wgt>
<wgt id='morphing_basis_vector_5'> +1.6435278e-04 </wgt>
</rwgt>
</event>
<event>
 4      1 +2.9741700e-06 8.60797500e+02 7.81860800e-03 8.82952100e-02
        2 -1    0    0  501    0 +0.0000000000e+00 +0.0000000000e+00 +1.6035149360e+03 1.6035149360e+03 0.0000000000e+00 0.0000e+00 -1.0000e+00
       -2 -1    0    0    0  501 -0.0000000000e+00 -0.0000000000e+00 -1.1552313289e+02 1.1552313289e+02 0.0000000000e+00 0.0000e+00 1.0000e+00
      -13  1    1    2    0    0 -1.3780531127e+00 -4.0320056892e+02 +4.4330880694e+02 5.9924560584e+02 0.0000000000e+00 0.0000e+00 1.0000e+00
       13  1    1    2    0    0 +1.3780531127e+00 +4.0320056892e+02 +1.0446829962e+03 1.1197924630e+03 0.0000000000e+00 0.0000e+00 -1.0000e+00
<mgrwt>
<rscale>  0 0.86079747E+03</rscale>
<asrwt>0</asrwt>
<pdfrwt beam="1">  1        2 0.24669459E+00 0.86079747E+03</pdfrwt>
<pdfrwt beam="2">  1       -2 0.17772791E-01 0.86079747E+03</pdfrwt>
<totfact> 0.33820726E+02</totfact>
</mgrwt>
<rwgt>
<wgt id='morphing_basis_vector_1'> +2.7367395e-04 </wgt>
<wgt id='morphing_basis_vector_2'> +1.7286762e-04 </wgt>
<wgt id='morphing_basis_vector_3'> +2.5160274e-04 </wgt>
<wgt id='morphing_basis_vector_4'> +1.3995912e-04 </wgt>
<wgt id='morphing_basis_vector_5'> +2.2527979e-04 </wgt>
</rwgt>
</event>
<event>
 4      1 +2.9741700e-06 8.26425300e+02 7.81860800e-03 8.86982800e-02
        2 -1    0    0  501    0 +0.0000000000e+00 +0.0000000000e+00 +2.4799974514e+02 2.4799974514e+02 0.0000000000e+00 0.0000e+00 -1.0000e+00
       -2 -1    0    0    0  501 -0.0000000000e+00 -0.0000000000e+00 -6.8848737847e+02 6.8848737847e+02 0.0000000000e+00 0.0000e+00 1.0000e+00
      -13  1    1    2    0    0 +1.0633044480e+02 -1.6925344422e+02 +1.8957176658e+02 2.7548202583e+02 0.0000000000e+00 0.0000e+00 -1.0000e+00
       13  1    1    2    0    0 -1.0633044480e+02 +1.6925344422e+02 -6.3005939991e+02 6.6100509778e+02 0.0000000000e+00 0.0000e+00 1.0000e+00
<mgrwt>
<rscale>  0 0.82642530E+03</rscale>
<asrwt>0</asrwt>
<pdfrwt beam="1">  1        2 0.38153808E-01 0.82642530E+03</pdfrwt>
<pdfrwt beam="2">  1       -2 0.10592113E+00 0.82642530E+03</pdfrwt>
<totfact> 0.12169350E+02</totfact>
</mgrwt>
<rwgt>
<wgt id='morphing_basis_vector_1'> +3.1655856e-04 </wgt>
<wgt id='morphing_basis_vector_2'> +3.9314177e-04 </wgt>
<wgt id='morphing_basis_vector_3'> +2.6651542e-04 </wgt>
<wgt id='morphing_basis_vector_4'> +1.1963316e-05 </wgt>
<wgt id='morphing_basis_vector_5'> +1.8274163e-04 </wgt>
</rwgt>
</event>
<event>
 4      1 +2.9741700e-06 7.65653700e+02 7.81860800e-03 8.94643400e-02
        2 -1    0    0  501    0 +0.0000000000e+00 +0.0000000000e+00 +7.5879361290e+02 7.5879361290e+02 0.0000000000e+00 0.0000e+00 -1.0000e+00
       -2 -1    0    0    0  501 -0.0000000000e+00 -0.0000000000e+00 -1.9314395440e+02 1.9314395440e+02 0.0000000000e+00 0.0000e+00 1.0000e+00
      -13  1    1    2    0    0 -3.1686422168e+02 -2.1407732275e+02 +2.6043285836e+02 4.6266327800e+02 0.0000000000e+00 0.0000e+00 1.0000e+00
       13  1    1    2    0    0 +3.1686422168e+02 +2.1407732275e+02 +3.0521680013e+02 4.8927428930e+02 0.0000000000e+00 0.0000e+00 -1.0000e+00
<mgrwt>
<rscale>  0 0.76565370E+03</rscale>
<asrwt>0</asrwt>
<pdfrwt beam="1">  1        2 0.11673748E+00 0.76565370E+03</pdfrwt>
<pdfrwt beam="2">  1       -2 0.29714455E-01 0.76565370E+03</pdfrwt>
<totfact> 0.45484969E+02</totfact>
</mgrwt>
<rwgt>
<wgt id='morphing_basis_vector_1'> +1.8417745e-04 </wgt>
<wgt id='morphing_basis_vector_2'> +1.2301768e-04 </wgt>
<wgt id='morphing_basis_vector_3'> +1.6083773e-04 </wgt>
<wgt id='morphing_basis_vector_4'> +7.8380515e-05 </wgt>
<wgt id='morphing_basis_vector_5'> +1.3211056e-04 </wgt>
</rwgt>
</event>
<event>
 4      1 +2.9741700e-06 7.82642300e+02 7.81860800e-03 8.92428000e-02
        2 -1    0    0  501    0 +0.0000000000e+00 +0.0000000000e+00 +5.6271033444e+02 5.6271033444e+02 0.0000000000e+00 0.0000e+00 1.0000e+00
       -2 -1    0    0    0  501 -0.0000000000e+00 -0.0000000000e+00 -2.7213336815e+02 2.7213336815e+02 0.0000000000e+00 0.0000e+00 -1.0000e+00
      -13  1    1    2    0    0 +2.8081412736e+02 +8.8217598105e+01 -1.2977371515e+02 3.2168328506e+02 0.0000000000e+00 0.0000e+00 -1.0000e+00
       13  1    1    2    0    0 -2.8081412736e+02 -8.8217598105e+01 +4.2035068144e+02 5.1316041754e+02 0.0000000000e+00 0.0000e+00 1.0000e+00
<mgrwt>
<rscale>  0 0.78264234E+03</rscale>
<asrwt>0</asrwt>
<pdfrwt beam="1">  1        2 0.86570821E-01 0.78264234E+03</pdfrwt>
<pdfrwt beam="2">  1       -2 0.41866672E-01 0.78264234E+03</pdfrwt>
<totfact> 0.34945544E+02</totfact>
</mgrwt>
<rwgt>
<wgt id='morphing_basis_vector_1'> +1.9356267e-04 </wgt>
<wgt id='morphing_basis_vector_2'> +1.1684010e-04 </wgt>
<wgt id='morphing_basis_vector_3'> +1.7237545e-04 </wgt>
<wgt id='morphing_basis_vector_4'> +9.3170521e-05 </wgt>
<wgt id='morphing_basis_vector_5'> +1.4641947e-04 </wgt>
</rwgt>
</event>
<event>
 4      1 +2.9741700e-06 8.33162100e+02 7.81860800e-03 8.86176700e-02
        2 -1    0    0  501    0 +0.0000000000e+00 +0.0000000000e+00 +9.9119790771e+02 9.9119790771e+02 0.0000000000e+00 0.0000e+00 -1.0000e+00
       -2 -1    0    0    0  501 -0.0000000000e+00 -0.0000000000e+00 -1.7508083819e+02 1.7508083819e+02 0.0000000000e+00 0.0000e+00 1.0000e+00
      -13  1    1    2    0    0 -6.4003812059e+01 +1.4592439460e+02 -1.3073544497e+02 2.0611204106e+02 0.0000000000e+00 0.0000e+00 1.0000e+00
       13  1    1    2    0    0 +6.4003812059e+01 -1.4592439460e+02 +9.4685251448e+02 9.6016670484e+02 0.0000000000e+00 0.0000e+00 -1.0000e+00
<mgrwt>
<rscale>  0 0.83316207E+03</rscale>
<asrwt>0</asrwt>
<pdfrwt beam="1">  1        2 0.15249198E+00 0.83316207E+03</pdfrwt>
<pdfrwt beam="2">  1       -2 0.26935514E-01 0.83316207E+03</pdfrwt>
<totfact> 0.37737773E+02</totfact>
</mgrwt>
<rwgt>
<wgt id='morphing_basis_vector_1'> +2.4131749e-04 </wgt>
<wgt id='morphing_basis_vector_2'> +1.4643136e-04 </wgt>
<wgt id='morphing_basis_vector_3'> +2.1988145e-04 </wgt>
<wgt id='morphing_basis_vector_4'> +1.2388232e-04 </wgt>
<wgt id='morphing_basis_vector_5'> +1.9467938e-04 </wgt>
</rwgt>
</event>
<event>
 4      1 +2.9741700e-06 8.37172600e+02 7.81860800e-03 8.85700600e-02
        2 -1    0    0  501    0 +0.0000000000e+00 +0.0000000000e+00 +1.8665221111e+03 1.8665221111e+03 0.0000000000e+00 0.0000e+00 -1.0000e+00
       -2 -1    0    0    0  501 -0.0000000000e+00 -0.0000000000e+00 -9.3872166441e+01 9.3872166441e+01 0.0000000000e+00 0.0000e+00 1.0000e+00
      -13  1    1    2    0    0 -3.6040997329e+02 -6.2760125036e+00 +3.8803701777e+02 5.2962955387e+02 0.0000000000e+00 0.0000e+00 1.0000e+00
       13  1    1    2    0    0 +3.6040997329e+02 +6.2760125036e+00 +1.3846129269e+03 1.4307647236e+03 0.0000000000e+00 0.0000e+00 -1.0000e+00
<mgrwt>
<rscale>  0 0.83717256E+03</rscale>
<asrwt>0</asrwt>
<pdfrwt beam="1">  1        2 0.28715722E+00 0.83717256E+03</pdfrwt>
<pdfrwt beam="2">  1       -2 0.14441873E-01 0.83717256E+03</pdfrwt>
<totfact> 0.34059528E+02</totfact>
</mgrwt>
<rwgt>
<wgt id='morphing_basis_vector_1'> +2.4649137e-04 </wgt>
<wgt id='morphing_basis_vector_2'> +1.5213214e-04 </wgt>
<wgt id='morphing_basis_vector_3'> +2.2472441e-04 </wgt>
<wgt id='morphing_basis_vector_4'> +1.2524494e-04 </wgt>
<wgt id='morphing_basis_vector_5'> +1.9888108e-04 </wgt>
</rwgt>
</event>
<event>
 4      1 +2.9741700e-06 7.92942500e+02 7.81860800e-03 8.91113600e-02
        2 -1    0    0  501    0 +0.0000000000e+00 +0.0000000000e+00 +1.4809586052e+03 1.4809586052e+03 0.0000000000e+00 0.0000e+00 -1.0000e+00
       -2 -1    0    0    0  501 -0.0000000000e+00 -0.0000000000e+00 -1.0614034578e+02 1.0614034578e+02 0.0000000000e+00 0.0000e+00 1.0000e+00
      -13  1    1    2    0    0 -8.6936861152e+01 -3.1378394201e+02 +2.3464231847e+02 4.0134199594e+02 0.0000000000e+00 0.0000e+00 1.0000e+00
       13  1    1    2    0    0 +8.6936861152e+01 +3.1378394201e+02 +1.1401759409e+03 1.1857569550e+03 0.0000000000e+00 0.0000e+00 -1.0000e+00
<mgrwt>
<rscale>  0 0.79294252E+03</rscale>
<asrwt>0</asrwt>
<pdfrwt beam="1">  1        2 0.22783977E+00 0.79294252E+03</pdfrwt>
<pdfrwt beam="2">  1       -2 0.16329285E-01 0.79294252E+03</pdfrwt>
<totfact> 0.45610982E+02</totfact>
</mgrwt>
<rwgt>
<wgt id='morphing_basis_vector_1'> +2.0296014e-04 </wgt>
<wgt id='morphing_basis_vector_2'> +1.2343791e-04 </wgt>
<wgt id='morphing_basis_vector_3'> +1.8154571e-04 </wgt>
<wgt id='morphing_basis_vector_4'> +9.8519346e-05 </wgt>
<wgt id='morphing_basis_vector_5'> +1.5545012e-04 </wgt>
</rwgt>
</event>
<event>
 4      1 +2.9741700e-06 8.04883000e+02 7.81860800e-03 8.89616100e-02
        2 -1    0    0  501    0 +0.0000000000e+00 +0.0000000000e+00 +3.0222044854e+03 3.0222044854e+03 0.0000000000e+00 0.0000e+00 -1.0000e+00
       -2 -1    0    0    0  501 -0.0000000000e+00 -0.0000000000e+00 -5.3589743810e+01 5.3589743810e+01 0.0000000000e+00 0.0000e+00 1.0000e+00
      -13  1    1    2    0    0 +3.8135779931e+02 +5.7713281482e+01 +1.0453502059e+03 1.1142359028e+03 0.0000000000e+00 0.0000e+00 1.0000e+00
       13  1    1    2    0    0 -3.8135779931e+02 -5.7713281482e+01 +1.9232645357e+03 1.9615583265e+03 0.0000000000e+00 0.0000e+00 -1.0000e+00
<mgrwt>
<rscale>  0 0.80488301E+03</rscale>
<asrwt>0</asrwt>
<pdfrwt beam="1">  1        2 0.46495440E+00 0.80488301E+03</pdfrwt>
<pdfrwt beam="2">  1       -2 0.82445783E-02 0.80488301E+03</pdfrwt>
<totfact> 0.17459886E+02</totfact>
</mgrwt>
<rwgt>
<wgt id='morphing_basis_vector_1'> +2.1586521e-04 </wgt>
<wgt id='morphing_basis_vector_2'> +1.3623740e-04 </wgt>
<wgt id='morphing_basis_vector_3'> +1.9360372e-04 </wgt>
<wgt id='morphing_basis_vector_4'> +1.0299404e-04 </wgt>
<wgt id='morphing_basis_vector_5'> +1.6632435e-04 </wgt>
</rwgt>
</event>
<event>
 4      1 +2.9741700e-06 7.61806100e+02 7.81860800e-03 8.95153700e-02
        2 -1    0    0  501    0 +0.0000000000e+00 +0.0000000000e+00 +7.2209973848e+02 7.2209973848e+02 0.0000000000e+00 0.0000e+00 1.0000e+00
       -2 -1    0    0    0  501 -0.0000000000e+00 -0.0000000000e+00 -2.0092393935e+02 2.0092393935e+02 0.0000000000e+00 0.0000e+00 -1.0000e+00
      -13  1    1    2    0    0 -2.2224097631e+02 -9.9789299104e+01 +6.1536494341e+02 6.6183303737e+02 0.0000000000e+00 0.0000e+00 1.0000e+00
       13  1    1    2    0    0 +2.2224097631e+02 +9.9789299104e+01 -9.4189144277e+01 2.6119064046e+02 0.0000000000e+00 0.0000e+00 -1.0000e+00
<mgrwt>
<rscale>  0 0.76180608E+03</rscale>
<asrwt>0</asrwt>
<pdfrwt beam="1">  1        2 0.11109227E+00 0.76180608E+03</pdfrwt>
<pdfrwt beam="2">  1       -2 0.30911376E-01 0.76180608E+03</pdfrwt>
<totfact> 0.45125943E+02</totfact>
</mgrwt>
<rwgt>
<wgt id='morphing_basis_vector_1'> +2.3090438e-04 </wgt>
<wgt id='morphing_basis_vector_2'> +2.7410401e-04 </wgt>
<wgt id='morphing_basis_vector_3'> +1.8315225e-04 </wgt>
<wgt id='morphing_basis_vector_4'> +1.7236299e-05 </wgt>
<wgt id='morphing_basis_vector_5'> +1.2685376e-04 </wgt>
</rwgt>
</event>
<event>
 4      1 +2.9741700e-06 8.57493400e+02 7.81860800e-03 8.83330900e-02
        2 -1    0    0  501    0 +0.0000000000e+00 +0.0000000000e+00 +1.7965091635e+02 1.7965091635e+02 0.0000000000e+00 0.0000e+00 -1.0000e+00
       -2 -1    0    0    0  501 -0.0000000000e+00 -0.0000000000e+00 -1.0232273598e+03 1.0232273598e+03 0.0000000000e+00 0.0000e+00 1.0000e+00
      -13  1    1    2    0    0 +4.6413542675e+01 -4.0706457349e+02 -5.9905014722e+02 7.2575261820e+02 0.0000000000e+00 0.0000e+00 1.0000e+00
       13  1    1    2    0    0 -4.6413542675e+01 +4.0706457349e+02 -2.4452629627e+02 4.7712565798e+02 0.0000000000e+00 0.0000e+00 -1.0000e+00
<mgrwt>
<rscale>  0 0.85749340E+03</rscale>
<asrwt>0</asrwt>
<pdfrwt beam="1">  1        2 0.27638603E-01 0.85749340E+03</pdfrwt>
<pdfrwt beam="2">  1       -2 0.15741959E+00 0.85749340E+03</pdfrwt>
<totfact> 0.60914437E+01</totfact>
</mgrwt>
<rwgt>
<wgt id='morphing_basis_vector_1'> +2.7055422e-04 </wgt>
<wgt id='morphing_basis_vector_2'> +1.7233849e-04 </wgt>
<wgt id='morphing_basis_vector_3'> +2.4827783e-04 </wgt>
<wgt id='morphing_basis_vector_4'> +1.3672431e-04 </wgt>
<wgt id='morphing_basis_vector_5'> +2.2139010e-04 </wgt>
</rwgt>
</event>
<event>
 4      1 +2.9741700e-06 8.71992500e+02 7.81860800e-03 8.81681900e-02
        2 -1    0    0  501    0 +0.0000000000e+00 +0.0000000000e+00 +2.8342756706e+02 2.8342756706e+02 0.0000000000e+00 0.0000e+00 1.0000e+00
       -2 -1    0    0    0  501 -0.0000000000e+00 -0.0000000000e+00 -6.7069241542e+02 6.7069241542e+02 0.0000000000e+00 0.0000e+00 -1.0000e+00
      -13  1    1    2    0    0 -9.0472862764e+01 -1.0451338516e+02 -6.4608015368e+02 6.6070261960e+02 0.0000000000e+00 0.0000e+00 -1.0000e+00
       13  1    1    2    0    0 +9.0472862764e+01 +1.0451338516e+02 +2.5881530531e+02 2.9341736288e+02 0.0000000000e+00 0.0000e+00 1.0000e+00
<mgrwt>
<rscale>  0 0.87199248E+03</rscale>
<asrwt>0</asrwt>
<pdfrwt beam="1">  1        2 0.43604242E-01 0.87199248E+03</pdfrwt>
<pdfrwt beam="2">  1       -2 0.10318345E+00 0.87199248E+03</pdfrwt>
<totfact> 0.11123392E+02</totfact>
</mgrwt>
<rwgt>
<wgt id='morphing_basis_vector_1'> +2.8420587e-04 </wgt>
<wgt id='morphing_basis_vector_2'> +1.7383119e-04 </wgt>
<wgt id='morphing_basis_vector_3'> +2.6288591e-04 </wgt>
<wgt id='morphing_basis_vector_4'> +1.5166142e-04 </wgt>
<wgt id='morphing_basis_vector_5'> +2.3884935e-04 </wgt>
</rwgt>
</event>
<event>
 4      1 +2.9741700e-06 8.68269400e+02 7.81860800e-03 8.82102100e-02
        2 -1    0    0  501    0 +0.0000000000e+00 +0.0000000000e+00 +5.1838064394e+02 5.1838064394e+02 0.0000000000e+00 0.0000e+00 -1.0000e+00
       -2 -1    0    0    0  501 -0.0000000000e+00 -0.0000000000e+00 -3.6358020258e+02 3.6358020258e+02 0.0000000000e+00 0.0000e+00 1.0000e+00
      -13  1    1    2    0    0 -1.3414093975e+02 +6.9523794236e+01 -3.3601336726e+02 3.6841869206e+02 0.0000000000e+00 0.0000e+00 1.0000e+00
       13  1    1    2    0    0 +1.3414093975e+02 -6.9523794236e+01 +4.9081380862e+02 5.1354215446e+02 0.0000000000e+00 0.0000e+00 -1.0000e+00
<mgrwt>
<rscale>  0 0.86826940E+03</rscale>
<asrwt>0</asrwt>
<pdfrwt beam="1">  1        2 0.79750868E-01 0.86826940E+03</pdfrwt>
<pdfrwt beam="2">  1       -2 0.55935416E-01 0.86826940E+03</pdfrwt>
<totfact> 0.21787463E+02</totfact>
</mgrwt>
<rwgt>
<wgt id='morphing_basis_vector_1'> +2.7985715e-04 </wgt>
<wgt id='morphing_basis_vector_2'> +1.7105337e-04 </wgt>
<wgt id='morphing_basis_vector_3'> +2.5850833e-04 </wgt>
<wgt id='morphing_basis_vector_4'> +1.4881415e-04 </wgt>
<wgt id='morphing_basis_vector_5'> +2.3432777e-04 </wgt>
</rwgt>
</event>
<event>
 4      1 +2.9741700e-06 8.41081300e+02 7.81860800e-03 8.85239300e-02
        2 -1    0    0  501    0 +0.0000000000e+00 +0.0000000000e+00 +1.7481603485e+03 1.7481603485e+03 0.0000000000e+00 0.0000e+00 1.0000e+00
       -2 -1    0    0    0  501 -0.0000000000e+00 -0.0000000000e+00 -1.0116603143e+02 1.0116603143e+02 0.0000000000e+00 0.0000e+00 -1.0000e+00
      -13  1    1    2    0    0 -3.8485291825e+02 +1.3807103072e+02 +6.0717932866e+02 7.3201237377e+02 0.0000000000e+00 0.0000e+00 -1.0000e+00
       13  1    1    2    0    0 +3.8485291825e+02 -1.3807103072e+02 +1.0398149884e+03 1.1173140061e+03 0.0000000000e+00 0.0000e+00 1.0000e+00
<mgrwt>
<rscale>  0 0.84108132E+03</rscale>
<asrwt>0</asrwt>
<pdfrwt beam="1">  1        2 0.26894772E+00 0.84108132E+03</pdfrwt>
<pdfrwt beam="2">  1       -2 0.15564006E-01 0.84108132E+03</pdfrwt>
<totfact> 0.35038873E+02</totfact>
</mgrwt>
<rwgt>
<wgt id='morphing_basis_vector_1'> +2.5322535e-04 </wgt>
<wgt id='morphing_basis_vector_2'> +1.6272360e-04 </wgt>
<wgt id='morphing_basis_vector_3'> +2.3063089e-04 </wgt>
<wgt id='morphing_basis_vector_4'> +1.2441799e-04 </wgt>
<wgt id='morphing_basis_vector_5'> +2.0293553e-04 </wgt>
</rwgt>
</event>
<event>
 4      1 +2.9741700e-06 7.94182400e+02 7.81860800e-03 8.90956800e-02
        2 -1    0    0  501    0 +0.0000000000e+00 +0.0000000000e+00 +2.7873400106e+03 2.7873400106e+03 0.0000000000e+00 0.0000e+00 1.0000e+00
       -2 -1    0    0    0  501 -0.0000000000e+00 -0.0000000000e+00 -5.6570570369e+01 5.6570570369e+01 0.0000000000e+00 0.0000e+00 -1.0000e+00
      -13  1    1    2    0    0 -1.6326665549e+02 +3.0779889577e+02 +6.8326474579e+02 7.6697253789e+02 0.0000000000e+00 0.0000e+00 -1.0000e+00
       13  1    1    2    0    0 +1.6326665549e+02 -3.0779889577e+02 +2.0475046945e+03 2.0769380431e+03 0.0000000000e+00 0.0000e+00 1.0000e+00
<mgrwt>
<rscale>  0 0.79418238E+03</rscale>
<asrwt>0</asrwt>
<pdfrwt beam="1">  1        2 0.42882143E+00 0.79418238E+03</pdfrwt>
<pdfrwt beam="2">  1       -2 0.87031668E-02 0.79418238E+03</pdfrwt>
<totfact> 0.22548017E+02</totfact>
</mgrwt>
<rwgt>
<wgt id='morphing_basis_vector_1'> +2.0446369e-04 </wgt>
<wgt id='morphing_basis_vector_2'> +1.2531900e-04 </wgt>
<wgt id='morphing_basis_vector_3'> +1.8287860e-04 </wgt>
<wgt id='morphing_basis_vector_4'> +9.8741051e-05 </wgt>
<wgt id='morphing_basis_vector_5'> +1.5654512e-04 </wgt>
</rwgt>
</event>
<event>
 4      1 +2.9741700e-06 8.06612400e+02 7.81860800e-03 8.89401500e-02
        2 -1    0    0  501    0 +0.0000000000e+00 +0.0000000000e+00 +2.5412796214e+03 2.5412796214e+03 0.0000000000e+00 0.0000e+00 1.0000e+00
       -2 -1    0    0    0  501 -0.0000000000e+00 -0.0000000000e+00 -6.4005504566e+01 6.4005504566e+01 0.0000000000e+00 0.0000e+00 -1.0000e+00
      -13  1    1    2    0    0 +1.2440411785e+02 +3.1301238081e+02 +5.2218842266e+02 6.2139672017e+02 0.0000000000e+00 0.0000e+00 1.0000e+00
       13  1    1    2    0    0 -1.2440411785e+02 -3.1301238081e+02 +1.9550856942e+03 1.9838884058e+03 0.0000000000e+00 0.0000e+00 -1.0000e+00
<mgrwt>
<rscale>  0 0.80661238E+03</rscale>
<asrwt>0</asrwt>
<pdfrwt beam="1">  1        2 0.39096602E+00 0.80661238E+03</pdfrwt>
<pdfrwt beam="2">  1       -2 0.98470027E-02 0.80661238E+03</pdfrwt>
<totfact> 0.26087612E+02</totfact>
</mgrwt>
<rwgt>
<wgt id='morphing_basis_vector_1'> +2.1570964e-04 </wgt>
<wgt id='morphing_basis_vector_2'> +1.3180207e-04 </wgt>
<wgt id='morphing_basis_vector_3'> +1.9413871e-04 </wgt>
<wgt id='morphing_basis_vector_4'> +1.0629208e-04 </wgt>
<wgt id='morphing_basis_vector_5'> +1.6805768e-04 </wgt>
</rwgt>
</event>
<event>
 4      1 +2.9741700e-06 8.89636600e+02 7.81860800e-03 8.79720200e-02
        2 -1    0    0  501    0 +0.0000000000e+00 +0.0000000000e+00 +1.2862696238e+02 1.2862696238e+02 0.0000000000e+00 0.0000e+00 -1.0000e+00
       -2 -1    0    0    0  501 -0.0000000000e+00 -0.0000000000e+00 -1.5382726647e+03 1.5382726647e+03 0.0000000000e+00 0.0000e+00 1.0000e+00
      -13  1    1    2    0    0 +3.2736559745e+02 +2.5315151776e+02 -1.0104658468e+03 1.0919226863e+03 0.0000000000e+00 0.0000e+00 1.0000e+00
       13  1    1    2    0    0 -3.2736559745e+02 -2.5315151776e+02 -3.9917985548e+02 5.7497694072e+02 0.0000000000e+00 0.0000e+00 -1.0000e+00
<mgrwt>
<rscale>  0 0.88963665E+03</rscale>
<asrwt>0</asrwt>
<pdfrwt beam="1">  1        2 0.19788765E-01 0.88963665E+03</pdfrwt>
<pdfrwt beam="2">  1       -2 0.23665731E+00 0.88963665E+03</pdfrwt>
<totfact> 0.23494684E+01</totfact>
</mgrwt>
<rwgt>
<wgt id='morphing_basis_vector_1'> +3.0806419e-04 </wgt>
<wgt id='morphing_basis_vector_2'> +1.9517820e-04 </wgt>
<wgt id='morphing_basis_vector_3'> +2.8634510e-04 </wgt>
<wgt id='morphing_basis_vector_4'> +1.6213845e-04 </wgt>
<wgt id='morphing_basis_vector_5'> +2.6095669e-04 </wgt>
</rwgt>
</event>
<event>
 4      1 +2.9741700e-06 8.34739300e+02 7.81860800e-03 8.85989100e-02
        2 -1    0    0  501    0 +0.0000000000e+00 +0.0000000000e+00 +8.5598608299e+02 8.5598608299e+02 0.0000000000e+00 0.0000e+00 -1.0000e+00
       -2 -1    0    0    0  501 -0.0000000000e+00 -0.0000000000e+00 -2.0350498036e+02 2.0350498036e+02 0.0000000000e+00 0.0000e+00 1.0000e+00
      -13  1    1    2    0    0 +1.0115667105e+02 +3.7616887907e+02 +1.3601534549e+02 4.1259650009e+02 0.0000000000e+00 0.0000e+00 1.0000e+00
       13  1    1    2    0    0 -1.0115667105e+02 -3.7616887907e+02 +5.1646575715e+02 6.4689456326e+02 0.0000000000e+00 0.0000e+00 -1.0000e+00
<mgrwt>
<rscale>  0 0.83473932E+03</rscale>
<asrwt>0</asrwt>
<pdfrwt beam="1">  1        2 0.13169016E+00 0.83473932E+03</pdfrwt>
<pdfrwt beam="2">  1       -2 0.31308459E-01 0.83473932E+03</pdfrwt>
<totfact> 0.35401319E+02</totfact>
</mgrwt>
<rwgt>
<wgt id='morphing_basis_vector_1'> +2.4500282e-04 </wgt>
<wgt id='morphing_basis_vector_2'> +1.5373279e-04 </wgt>
<wgt id='morphing_basis_vector_3'> +2.2288401e-04 </wgt>
<wgt id='morphing_basis_vector_4'> +1.2222255e-04 </wgt>
<wgt id='morphing_basis_vector_5'> +1.9622166e-04 </wgt>
</rwgt>
</event>
<event>
 4      1 +2.9741700e-06 7.96341700e+02 7.81860800e-03 8.90684500e-02
        2 -1    0    0  501    0 +0.0000000000e+00 +0.0000000000e+00 +1.2629596326e+03 1.2629596326e+03 0.0000000000e+00 0.0000e+00 1.0000e+00
       -2 -1    0    0    0  501 -0.0000000000e+00 -0.0000000000e+00 -1.2553056860e+02 1.2553056860e+02 0.0000000000e+00 0.0000e+00 -1.0000e+00
      -13  1    1    2    0    0 +6.3205572715e+01 +2.8711944108e+02 +1.0051213894e+02 3.1070115536e+02 0.0000000000e+00 0.0000e+00 -1.0000e+00
       13  1    1    2    0    0 -6.3205572715e+01 -2.8711944108e+02 +1.0369169250e+03 1.0777890458e+03 0.0000000000e+00 0.0000e+00 1.0000e+00
<mgrwt>
<rscale>  0 0.79634174E+03</rscale>
<asrwt>0</asrwt>
<pdfrwt beam="1">  1        2 0.19430147E+00 0.79634174E+03</pdfrwt>
<pdfrwt beam="2">  1       -2 0.19312396E-01 0.79634174E+03</pdfrwt>
<totfact> 0.45849184E+02</totfact>
</mgrwt>
<rwgt>
<wgt id='morphing_basis_vector_1'> +2.0576307e-04 </wgt>
<wgt id='morphing_basis_vector_2'> +1.2452618e-04 </wgt>
<wgt id='morphing_basis_vector_3'> +1.8443367e-04 </wgt>
<wgt id='morphing_basis_vector_4'> +1.0080261e-04 </wgt>
<wgt id='morphing_basis_vector_5'> +1.5853585e-04 </wgt>
</rwgt>
</event>
<event>
 4      1 +2.9741700e-06 8.86402200e+02 7.81860800e-03 8.80076200e-02
        2 -1    0    0  501    0 +0.0000000000e+00 +0.0000000000e+00 +8.0057468238e+02 8.0057468238e+02 0.0000000000e+00 0.0000e+00 1.0000e+00
       -2 -1    0    0    0  501 -0.0000000000e+00 -0.0000000000e+00 -2.4535779064e+02 2.4535779064e+02 0.0000000000e+00 0.0000e+00 -1.0000e+00
      -13  1    1    2    0    0 +2.2357566235e+02 -2.1735154318e+02 -9.4035843966e+01 3.2568467889e+02 0.0000000000e+00 0.0000e+00 -1.0000e+00
       13  1    1    2    0    0 -2.2357566235e+02 +2.1735154318e+02 +6.4925273570e+02 7.2024779412e+02 0.0000000000e+00 0.0000e+00 1.0000e+00
<mgrwt>
<rscale>  0 0.88640225E+03</rscale>
<asrwt>0</asrwt>
<pdfrwt beam="1">  1        2 0.12316533E+00 0.88640225E+03</pdfrwt>
<pdfrwt beam="2">  1       -2 0.37747353E-01 0.88640225E+03</pdfrwt>
<totfact> 0.27470895E+02</totfact>
</mgrwt>
<rwgt>
<wgt id='morphing_basis_vector_1'> +3.0187916e-04 </wgt>
<wgt id='morphing_basis_vector_2'> +1.8596276e-04 </wgt>
<wgt id='morphing_basis_vector_3'> +2.8062475e-04 </wgt>
<wgt id='morphing_basis_vector_4'> +1.6257405e-04 </wgt>
<wgt id='morphing_basis_vector_5'> +2.5692191e-04 </wgt>
</rwgt>
</event>
<event>
 4      1 +2.9741700e-06 8.60652600e+02 7.81860800e-03 8.82968700e-02
        2 -1    0    0  501    0 +0.0000000000e+00 +0.0000000000e+00 +1.0445683421e+02 1.0445683421e+02 0.0000000000e+00 0.0000e+00 1.0000e+00
       -2 -1    0    0    0  501 -0.0000000000e+00 -0.0000000000e+00 -1.7727964405e+03 1.7727964405e+03 0.0000000000e+00 0.0000e+00 -1.0000e+00
      -13  1    1    2    0    0 -3.0260576144e+02 +2.7643444197e+02 -1.1201850820e+03 1.1928121669e+03 0.0000000000e+00 0.0000e+00 -1.0000e+00
       13  1    1    2    0    0 +3.0260576144e+02 -2.7643444197e+02 -5.4815452423e+02 6.8444110777e+02 0.0000000000e+00 0.0000e+00 1.0000e+00
<mgrwt>
<rscale>  0 0.86065255E+03</rscale>
<asrwt>0</asrwt>
<pdfrwt beam="1">  1        2 0.16070282E-01 0.86065255E+03</pdfrwt>
<pdfrwt beam="2">  1       -2 0.27273791E+00 0.86065255E+03</pdfrwt>
<totfact> 0.17157281E+01</totfact>
</mgrwt>
<rwgt>
<wgt id='morphing_basis_vector_1'> +2.7403106e-04 </wgt>
<wgt id='morphing_basis_vector_2'> +1.7435328e-04 </wgt>
<wgt id='morphing_basis_vector_3'> +2.5181085e-04 </wgt>
<wgt id='morphing_basis_vector_4'> +1.3914142e-04 </wgt>
<wgt id='morphing_basis_vector_5'> +2.2507486e-04 </wgt>
</rwgt>
</event>
<event>
 4      1 +2.9741700e-06 8.29737100e+02 7.81860800e-03 8.86585500e-02
        2 -1    0    0  501    0 +0.0000000000e+00 +0.0000000000e+00 +1.1169592151e+03 1.1169592151e+03 0.0000000000e+00 0.0000e+00 1.0000e+00
       -2 -1    0    0    0  501 -0.0000000000e+00 -0.0000000000e+00 -1.5409327998e+02 1.5409327998e+02 0.0000000000e+00 0.0000e+00 -1.0000e+00
      -13  1    1    2    0    0 -1.5560434372e+02 +1.2622892950e+02 -7.5060018994e+01 2.1396369056e+02 0.0000000000e+00 0.0000e+00 -1.0000e+00
       13  1    1    2    0    0 +1.5560434372e+02 -1.2622892950e+02 +1.0379259541e+03 1.0570888045e+03 0.0000000000e+00 0.0000e+00 1.0000e+00
<mgrwt>
<rscale>  0 0.82973709E+03</rscale>
<asrwt>0</asrwt>
<pdfrwt beam="1">  1        2 0.17183987E+00 0.82973709E+03</pdfrwt>
<pdfrwt beam="2">  1       -2 0.23706659E-01 0.82973709E+03</pdfrwt>
<totfact> 0.39428747E+02</totfact>
</mgrwt>
<rwgt>
<wgt id='morphing_basis_vector_1'> +2.3781765e-04 </wgt>
<wgt id='morphing_basis_vector_2'> +1.4426410e-04 </wgt>
<wgt id='morphing_basis_vector_3'> +2.1638059e-04 </wgt>
<wgt id='morphing_basis_vector_4'> +1.2159152e-04 </wgt>
<wgt id='morphing_basis_vector_5'> +1.9108917e-04 </wgt>
</rwgt>
</event>
<event>
 4      1 +2.9741700e-06 7.64076500e+02 7.81860800e-03 8.94852200e-02
        2 -1    0    0  501    0 +0.0000000000e+00 +0.0000000000e+00 +1.7231298461e+02 1.7231298461e+02 0.0000000000e+00 0.0000e+00 -1.0000e+00
       -2 -1    0    0    0  501 -0.0000000000e+00 -0.0000000000e+00 -8.4702388333e+02 8.4702388333e+02 0.0000000000e+00 0.0000e+00 1.0000e+00
      -13  1    1    2    0    0 +4.7999393775e+01 +3.7408199441e+02 -4.1863493976e+02 5.6346827162e+02 0.0000000000e+00 0.0000e+00 1.0000e+00
       13  1    1    2    0    0 -4.7999393775e+01 -3.7408199441e+02 -2.5607595896e+02 4.5586859631e+02 0.0000000000e+00 0.0000e+00 -1.0000e+00
<mgrwt>
<rscale>  0 0.76407647E+03</rscale>
<asrwt>0</asrwt>
<pdfrwt beam="1">  1        2 0.26509690E-01 0.76407647E+03</pdfrwt>
<pdfrwt beam="2">  1       -2 0.13031137E+00 0.76407647E+03</pdfrwt>
<totfact> 0.10911367E+02</totfact>
</mgrwt>
<rwgt>
<wgt id='morphing_basis_vector_1'> +1.8103534e-04 </wgt>
<wgt id='morphing_basis_vector_2'> +1.1651793e-04 </wgt>
<wgt id='morphing_basis_vector_3'> +1.5859963e-04 </wgt>
<wgt id='morphing_basis_vector_4'> +7.9818798e-05 </wgt>
<wgt id='morphing_basis_vector_5'> +1.3093970e-04 </wgt>
</rwgt>
</event>
<event>
 4      1 +2.9741700e-06 8.40006800e+02 7.81860800e-03 8.85365900e-02
        2 -1    0    0  501    0 +0.0000000000e+00 +0.0000000000e+00 +1.3212533459e+03 1.3212533459e+03 0.0000000000e+00 0.0000e+00 1.0000e+00
       -2 -1    0    0    0  501 -0.0000000000e+00 -0.0000000000e+00 -1.3351175629e+02 1.3351175629e+02 0.0000000000e+00 0.0000e+00 -1.0000e+00
      -13  1    1    2    0    0 -3.1099181879e+02 -4.9449624162e+01 +1.0751930294e+03 1.1203576336e+03 0.0000000000e+00 0.0000e+00 1.0000e+00
       13  1    1    2    0    0 +3.1099181879e+02 +4.9449624162e+01 +1.1254856030e+02 3.3440746868e+02 0.0000000000e+00 0.0000e+00 -1.0000e+00
<mgrwt>
<rscale>  0 0.84000680E+03</rscale>
<asrwt>0</asrwt>
<pdfrwt beam="1">  1        2 0.20326974E+00 0.84000680E+03</pdfrwt>
<pdfrwt beam="2">  1       -2 0.20540271E-01 0.84000680E+03</pdfrwt>
<totfact> 0.38234490E+02</totfact>
</mgrwt>
<rwgt>
<wgt id='morphing_basis_vector_1'> +3.1388795e-04 </wgt>
<wgt id='morphing_basis_vector_2'> +3.5077591e-04 </wgt>
<wgt id='morphing_basis_vector_3'> +2.7139539e-04 </wgt>
<wgt id='morphing_basis_vector_4'> +4.1399404e-05 </wgt>
<wgt id='morphing_basis_vector_5'> +1.9787933e-04 </wgt>
</rwgt>
</event>
<event>
 4      1 +2.9741700e-06 7.94226200e+02 7.81860800e-03 8.90951300e-02
        2 -1    0    0  501    0 +0.0000000000e+00 +0.0000000000e+00 +1.6137505339e+02 1.6137505339e+02 0.0000000000e+00 0.0000e+00 -1.0000e+00
       -2 -1    0    0    0  501 -0.0000000000e+00 -0.0000000000e+00 -9.7721938382e+02 9.7721938382e+02 0.0000000000e+00 0.0000e+00 1.0000e+00
      -13  1    1    2    0    0 -1.0550921488e+02 -1.2355920851e+02 -9.2738775985e+02 9.4151321263e+02 0.0000000000e+00 0.0000e+00 1.0000e+00
       13  1    1    2    0    0 +1.0550921488e+02 +1.2355920851e+02 +1.1154342942e+02 1.9708122458e+02 0.0000000000e+00 0.0000e+00 -1.0000e+00
<mgrwt>
<rscale>  0 0.79422624E+03</rscale>
<asrwt>0</asrwt>
<pdfrwt beam="1">  1        2 0.24826932E-01 0.79422624E+03</pdfrwt>
<pdfrwt beam="2">  1       -2 0.15034144E+00 0.79422624E+03</pdfrwt>
<totfact> 0.79233947E+01</totfact>
</mgrwt>
<rwgt>
<wgt id='morphing_basis_vector_1'> +2.0355377e-04 </wgt>
<wgt id='morphing_basis_vector_2'> +1.2243499e-04 </wgt>
<wgt id='morphing_basis_vector_3'> +1.8236320e-04 </wgt>
<wgt id='morphing_basis_vector_4'> +9.9954571e-05 </wgt>
<wgt id='morphing_basis_vector_5'> +1.5663450e-04 </wgt>
</rwgt>
</event>
<event>
 4      1 +2.9741700e-06 7.92644300e+02 7.81860800e-03 8.91151300e-02
        2 -1    0    0  501    0 +0.0000000000e+00 +0.0000000000e+00 +2.2640178778e+03 2.2640178778e+03 0.0000000000e+00 0.0000e+00 1.0000e+00
       -2 -1    0    0    0  501 -0.0000000000e+00 -0.0000000000e+00 -6.9377207489e+01 6.9377207489e+01 0.0000000000e+00 0.0000e+00 -1.0000e+00
      -13  1    1    2    0    0 -3.7223226967e+02 -1.3606685263e+02 +1.0960469869e+03 1.1654999135e+03 0.0000000000e+00 0.0000e+00 -1.0000e+00
       13  1    1    2    0    0 +3.7223226967e+02 +1.3606685263e+02 +1.0985936835e+03 1.1678951718e+03 0.0000000000e+00 0.0000e+00 1.0000e+00
<mgrwt>
<rscale>  0 0.79264428E+03</rscale>
<asrwt>0</asrwt>
<pdfrwt beam="1">  1        2 0.34831039E+00 0.79264428E+03</pdfrwt>
<pdfrwt beam="2">  1       -2 0.10673418E-01 0.79264428E+03</pdfrwt>
<totfact> 0.33263061E+02</totfact>
</mgrwt>
<rwgt>
<wgt id='morphing_basis_vector_1'> +2.0918380e-04 </wgt>
<wgt id='morphing_basis_vector_2'> +1.4315894e-04 </wgt>
<wgt id='morphing_basis_vector_3'> +1.8504998e-04 </wgt>
<wgt id='morphing_basis_vector_4'> +9.0243615e-05 </wgt>
<wgt id='morphing_basis_vector_5'> +1.5484455e-04 </wgt>
</rwgt>
</event>
<event>
 4      1 +2.9741700e-06 7.70514200e+02 7.81860800e-03 8.94003400e-02
        2 -1    0    0  501    0 +0.0000000000e+00 +0.0000000000e+00 +2.3315075518e+03 2.3315075518e+03 0.0000000000e+00 0.0000e+00 1.0000e+00
       -2 -1    0    0    0  501 -0.0000000000e+00 -0.0000000000e+00 -6.3659682068e+01 6.3659682068e+01 0.0000000000e+00 0.0000e+00 -1.0000e+00
      -13  1    1    2    0    0 +2.0844500241e+02 +2.8045177121e+02 +6.2960835239e+02 7.2007582407e+02 0.0000000000e+00 0.0000e+00 -1.0000e+00
       13  1    1    2    0    0 -2.0844500241e+02 -2.8045177121e+02 +1.6382395174e+03 1.6750914098e+03 0.0000000000e+00 0.0000e+00 1.0000e+00
<mgrwt>
<rscale>  0 0.77051419E+03</rscale>
<asrwt>0</asrwt>
<pdfrwt beam="1">  1        2 0.35869340E+00 0.77051419E+03</pdfrwt>
<pdfrwt beam="2">  1       -2 0.97937990E-02 0.77051419E+03</pdfrwt>
<totfact> 0.34933524E+02</totfact>
</mgrwt>
<rwgt>
<wgt id='morphing_basis_vector_1'> +1.8407154e-04 </wgt>
<wgt id='morphing_basis_vector_2'> +1.1289624e-04 </wgt>
<wgt id='morphing_basis_vector_3'> +1.6265117e-04 </wgt>
<wgt id='morphing_basis_vector_4'> +8.5772190e-05 </wgt>
<wgt id='morphing_basis_vector_5'> +1.3622198e-04 </wgt>
</rwgt>
</event>
<event>
 4      1 +2.9741700e-06 7.75412200e+02 7.81860800e-03 8.93363500e-02
        2 -1    0    0  501    0 +0.0000000000e+00 +0.0000000000e+00 +9.2921477810e+02 9.2921477810e+02 0.0000000000e+00 0.0000e+00 -1.0000e+00
       -2 -1    0    0    0  501 -0.0000000000e+00 -0.0000000000e+00 -1.6176672302e+02 1.6176672302e+02 0.0000000000e+00 0.0000e+00 1.0000e+00
      -13  1    1    2    0    0 +8.3383058091e+00 -3.2285148361e+02 +8.1918625803e+01 3.3318653794e+02 0.0000000000e+00 0.0000e+00 1.0000e+00
       13  1    1    2    0    0 -8.3383058091e+00 +3.2285148361e+02 +6.8552942928e+02 7.5779496318e+02 0.0000000000e+00 0.0000e+00 -1.0000e+00
<mgrwt>
<rscale>  0 0.77541222E+03</rscale>
<asrwt>0</asrwt>
<pdfrwt beam="1">  1        2 0.14295612E+00 0.77541222E+03</pdfrwt>
<pdfrwt beam="2">  1       -2 0.24887189E-01 0.77541222E+03</pdfrwt>
<totfact> 0.47458792E+02</totfact>
</mgrwt>
<rwgt>
<wgt id='morphing_basis_vector_1'> +1.8762901e-04 </wgt>
<wgt id='morphing_basis_vector_2'> +1.1377195e-04 </wgt>
<wgt id='morphing_basis_vector_3'> +1.6640685e-04 </wgt>
<wgt id='morphing_basis_vector_4'> +8.8985613e-05 </wgt>
<wgt id='morphing_basis_vector_5'> +1.4028731e-04 </wgt>
</rwgt>
</event>
<event>
 4      1 +2.9741700e-06 8.44614500e+02 7.81860800e-03 8.84824600e-02
        2 -1    0    0  501    0 +0.0000000000e+00 +0.0000000000e+00 +5.8781760238e+02 5.8781760238e+02 0.0000000000e+00 0.0000e+00 -1.0000e+00
       -2 -1    0    0    0  501 -0.0000000000e+00 -0.0000000000e+00 -3.0339925609e+02 3.0339925609e+02 0.0000000000e+00 0.0000e+00 1.0000e+00
      -13  1    1    2    0    0 +3.6415146800e+01 -3.6659996136e+02 -7.5632461767e+01 3.7608757472e+02 0.0000000000e+00 0.0000e+00 1.0000e+00
       13  1    1    2    0    0 -3.6415146800e+01 +3.6659996136e+02 +3.6005080807e+02 5.1512928375e+02 0.0000000000e+00 0.0000e+00 -1.0000e+00
<mgrwt>
<rscale>  0 0.84461452E+03</rscale>
<asrwt>0</asrwt>
<pdfrwt beam="1">  1        2 0.90433477E-01 0.84461452E+03</pdfrwt>
<pdfrwt beam="2">  1       -2 0.46676809E-01 0.84461452E+03</pdfrwt>
<totfact> 0.26922281E+02</totfact>
</mgrwt>
<rwgt>
<wgt id='morphing_basis_vector_1'> +2.5454367e-04 </wgt>
<wgt id='morphing_basis_vector_2'> +1.5762147e-04 </wgt>
<wgt id='morphing_basis_vector_3'> +2.3274507e-04 </wgt>
<wgt id='morphing_basis_vector_4'> +1.3012417e-04 </wgt>
<wgt id='morphing_basis_vector_5'> +2.0695984e-04 </wgt>
</rwgt>
</event>
<event>
 4      1 +2.9741700e-06 8.29481700e+02 7.81860800e-03 8.86616100e-02
        2 -1    0    0  501    0 +0.0000000000e+00 +0.0000000000e+00 +4.9297249444e+02 4.9297249444e+02 0.0000000000e+00 0.0000e+00 1.0000e+00
       -2 -1    0    0    0  501 -0.0000000000e+00 -0.0000000000e+00 -3.4892411579e+02 3.4892411579e+02 0.0000000000e+00 0.0000e+00 -1.0000e+00
      -13  1    1    2    0    0 +2.6403525058e+02 +2.4076363032e+02 -1.4166976384e+02 3.8438530307e+02 0.0000000000e+00 0.0000e+00 -1.0000e+00
       13  1    1    2    0    0 -2.6403525058e+02 -2.4076363032e+02 +2.8571814249e+02 4.5751130716e+02 0.0000000000e+00 0.0000e+00 1.0000e+00
<mgrwt>
<rscale>  0 0.82948175E+03</rscale>
<asrwt>0</asrwt>
<pdfrwt beam="1">  1        2 0.75841922E-01 0.82948175E+03</pdfrwt>
<pdfrwt beam="2">  1       -2 0.53680633E-01 0.82948175E+03</pdfrwt>
<totfact> 0.25111242E+02</totfact>
</mgrwt>
<rwgt>
<wgt id='morphing_basis_vector_1'> +2.3849400e-04 </wgt>
<wgt id='morphing_basis_vector_2'> +1.4696346e-04 </wgt>
<wgt id='morphing_basis_vector_3'> +2.1673658e-04 </wgt>
<wgt id='morphing_basis_vector_4'> +1.2019246e-04 </wgt>
<wgt id='morphing_basis_vector_5'> +1.9076670e-04 </wgt>
</rwgt>
</event>
<event>
 4      1 +2.9741700e-06 7.85520400e+02 7.81860800e-03 8.92058600e-02
        2 -1    0    0  501    0 +0.0000000000e+00 +0.0000000000e+00 +2.0077552057e+03 2.0077552057e+03 0.0000000000e+00 0.0000e+00 -1.0000e+00
       -2 -1    0    0    0  501 -0.0000000000e+00 -0.0000000000e+00 -7.6832358828e+01 7.6832358828e+01 0.0000000000e+00 0.0000e+00 1.0000e+00
      -13  1    1    2    0    0 +3.8233699257e+02 +7.7304939021e+01 +1.0871573417e+03 1.1550189241e+03 0.0000000000e+00 0.0000e+00 1.0000e+00
       13  1    1    2    0    0 -3.8233699257e+02 -7.7304939021e+01 +8.4376550518e+02 9.2956864040e+02 0.0000000000e+00 0.0000e+00 -1.0000e+00
<mgrwt>
<rscale>  0 0.78552038E+03</rscale>
<asrwt>0</asrwt>
<pdfrwt beam="1">  1        2 0.30888538E+00 0.78552038E+03</pdfrwt>
<pdfrwt beam="2">  1       -2 0.11820364E-01 0.78552038E+03</pdfrwt>
<totfact> 0.39394801E+02</totfact>
</mgrwt>
<rwgt>
<wgt id='morphing_basis_vector_1'> +2.0615741e-04 </wgt>
<wgt id='morphing_basis_vector_2'> +1.4931898e-04 </wgt>
<wgt id='morphing_basis_vector_3'> +1.8055175e-04 </wgt>
<wgt id='morphing_basis_vector_4'> +8.2285382e-05 </wgt>
<wgt id='morphing_basis_vector_5'> +1.4840015e-04 </wgt>
</rwgt>
</event>
<event>
 4      1 +2.9741700e-06 8.98672400e+02 7.81860800e-03 8.78734000e-02
        2 -1    0    0  501    0 +0.0000000000e+00 +0.0000000000e+00 +1.7453444353e+03 1.7453444353e+03 0.0000000000e+00 0.0000e+00 -1.0000e+00
       -2 -1    0    0    0  501 -0.0000000000e+00 -0.0000000000e+00 -1.1568089963e+02 1.1568089963e+02 0.0000000000e+00 0.0000e+00 1.0000e+00
      -13  1    1    2    0    0 -3.0228919792e+02 +2.5518078237e+00 +1.2639050461e+02 3.2765810010e+02 0.0000000000e+00 0.0000e+00 1.0000e+00
       13  1    1    2    0    0 +3.0228919792e+02 -2.5518078237e+00 +1.5032730310e+03 1.5333672348e+03 0.0000000000e+00 0.0000e+00 -1.0000e+00
<mgrwt>
<rscale>  0 0.89867239E+03</rscale>
<asrwt>0</asrwt>
<pdfrwt beam="1">  1        2 0.26851451E+00 0.89867239E+03</pdfrwt>
<pdfrwt beam="2">  1       -2 0.17797063E-01 0.89867239E+03</pdfrwt>
<totfact> 0.28120012E+02</totfact>
</mgrwt>
<rwgt>
<wgt id='morphing_basis_vector_1'> +3.1722533e-04 </wgt>
<wgt id='morphing_basis_vector_2'> +1.9567985e-04 </wgt>
<wgt id='morphing_basis_vector_3'> +2.9616004e-04 </wgt>
<wgt id='morphing_basis_vector_4'> +1.7282076e-04 </wgt>
<wgt id='morphing_basis_vector_5'> +2.7310129e-04 </wgt>
</rwgt>
</event>
<event>
 4      1 +2.9741700e-06 7.56966100e+02 7.81860800e-03 8.95800100e-02
        2 -1    0    0  501    0 +0.0000000000e+00 +0.0000000000e+00 +7.0177108444e+02 7.0177108444e+02 0.0000000000e+00 0.0000e+00 -1.0000e+00
       -2 -1    0    0    0  501 -0.0000000000e+00 -0.0000000000e+00 -2.0412554592e+02 2.0412554592e+02 0.0000000000e+00 0.0000e+00 1.0000e+00
      -13  1    1    2    0    0 -2.0688299408e+02 +2.7670486344e+02 +4.3377047819e+02 5.5454754751e+02 0.0000000000e+00 0.0000e+00 1.0000e+00
       13  1    1    2    0    0 +2.0688299408e+02 -2.7670486344e+02 +6.3875060327e+01 3.5134908286e+02 0.0000000000e+00 0.0000e+00 -1.0000e+00
<mgrwt>
<rscale>  0 0.75696606E+03</rscale>
<asrwt>0</asrwt>
<pdfrwt beam="1">  1        2 0.10796478E+00 0.75696606E+03</pdfrwt>
<pdfrwt beam="2">  1       -2 0.31403930E-01 0.75696606E+03</pdfrwt>
<totfact> 0.45454844E+02</totfact>
</mgrwt>
<rwgt>
<wgt id='morphing_basis_vector_1'> +1.9542087e-04 </wgt>
<wgt id='morphing_basis_vector_2'> +1.7465816e-04 </wgt>
<wgt id='morphing_basis_vector_3'> +1.6296354e-04 </wgt>
<wgt id='morphing_basis_vector_4'> +5.2672575e-05 </wgt>
<wgt id='morphing_basis_vector_5'> +1.2452135e-04 </wgt>
</rwgt>
</event>
<event>
 4      1 +2.9741700e-06 8.91383600e+02 7.81860800e-03 8.79528600e-02
        2 -1    0    0  501    0 +0.0000000000e+00 +0.0000000000e+00 +1.6008291823e+03 1.6008291823e+03 0.0000000000e+00 0.0000e+00 -1.0000e+00
       -2 -1    0    0    0  501 -0.0000000000e+00 -0.0000000000e+00 -1.2408643341e+02 1.2408643341e+02 0.0000000000e+00 0.0000e+00 1.0000e+00
      -13  1    1    2    0    0 -4.3828269165e+02 -4.4560310504e+01 +8.6909938067e+02 9.7437727424e+02 0.0000000000e+00 0.0000e+00 1.0000e+00
       13  1    1    2    0    0 +4.3828269165e+02 +4.4560310504e+01 +6.0764336821e+02 7.5053834146e+02 0.0000000000e+00 0.0000e+00 -1.0000e+00
<mgrwt>
<rscale>  0 0.89138361E+03</rscale>
<asrwt>0</asrwt>
<pdfrwt beam="1">  1        2 0.24628140E+00 0.89138361E+03</pdfrwt>
<pdfrwt beam="2">  1       -2 0.19090222E-01 0.89138361E+03</pdfrwt>
<totfact> 0.30086692E+02</totfact>
</mgrwt>
<rwgt>
<wgt id='morphing_basis_vector_1'> +3.2632195e-04 </wgt>
<wgt id='morphing_basis_vector_2'> +2.4554047e-04 </wgt>
<wgt id='morphing_basis_vector_3'> +3.0094510e-04 </wgt>
<wgt id='morphing_basis_vector_4'> +1.4089921e-04 </wgt>
<wgt id='morphing_basis_vector_5'> +2.6206060e-04 </wgt>
</rwgt>
</event>
<event>
 4      1 +2.9741700e-06 7.63030400e+02 7.81860800e-03 8.94991000e-02
        2 -1    0    0  501    0 +0.0000000000e+00 +0.0000000000e+00 +3.8399648772e+02 3.8399648772e+02 0.0000000000e+00 0.0000e+00 -1.0000e+00
       -2 -1    0    0    0  501 -0.0000000000e+00 -0.0000000000e+00 -3.7904999242e+02 3.7904999242e+02 0.0000000000e+00 0.0000e+00 1.0000e+00
      -13  1    1    2    0    0 +1.1970473735e+02 -2.1581103878e+02 -2.8848000395e+02 3.7963711789e+02 0.0000000000e+00 0.0000e+00 1.0000e+00
       13  1    1    2    0    0 -1.1970473735e+02 +2.1581103878e+02 +2.9342649924e+02 3.8340936225e+02 0.0000000000e+00 0.0000e+00 -1.0000e+00
<mgrwt>
<rscale>  0 0.76303045E+03</rscale>
<asrwt>0</asrwt>
<pdfrwt beam="1">  1        2 0.59076383E-01 0.76303045E+03</pdfrwt>
<pdfrwt beam="2">  1       -2 0.58315383E-01 0.76303045E+03</pdfrwt>
<totfact> 0.28293670E+02</totfact>
</mgrwt>
<rwgt>
<wgt id='morphing_basis_vector_1'> +1.7688254e-04 </wgt>
<wgt id='morphing_basis_vector_2'> +1.0584608e-04 </wgt>
<wgt id='morphing_basis_vector_3'> +1.5606382e-04 </wgt>
<wgt id='morphing_basis_vector_4'> +8.3238496e-05 </wgt>
<wgt id='morphing_basis_vector_5'> +1.3025972e-04 </wgt>
</rwgt>
</event>
<event>
 4      1 +2.9741700e-06 8.12964700e+02 7.81860800e-03 8.88618100e-02
        2 -1    0    0  501    0 +0.0000000000e+00 +0.0000000000e+00 +4.4110699003e+02 4.4110699003e+02 0.0000000000e+00 0.0000e+00 -1.0000e+00
       -2 -1    0    0    0  501 -0.0000000000e+00 -0.0000000000e+00 -3.7457554335e+02 3.7457554335e+02 0.0000000000e+00 0.0000e+00 1.0000e+00
      -13  1    1    2    0    0 -2.9686153245e+02 +2.6139393059e+02 +1.2725029592e+02 4.1550715301e+02 0.0000000000e+00 0.0000e+00 1.0000e+00
       13  1    1    2    0    0 +2.9686153245e+02 -2.6139393059e+02 -6.0718849250e+01 4.0017538036e+02 0.0000000000e+00 0.0000e+00 -1.0000e+00
<mgrwt>
<rscale>  0 0.81296467E+03</rscale>
<asrwt>0</asrwt>
<pdfrwt beam="1">  1        2 0.67862614E-01 0.81296467E+03</pdfrwt>
<pdfrwt beam="2">  1       -2 0.57627007E-01 0.81296467E+03</pdfrwt>
<totfact> 0.24724659E+02</totfact>
</mgrwt>
<rwgt>
<wgt id='morphing_basis_vector_1'> +2.3839671e-04 </wgt>
<wgt id='morphing_basis_vector_2'> +1.8648368e-04 </wgt>
<wgt id='morphing_basis_vector_3'> +2.1054472e-04 </wgt>
<wgt id='morphing_basis_vector_4'> +8.8769899e-05 </wgt>
<wgt id='morphing_basis_vector_5'> +1.7321771e-04 </wgt>
</rwgt>
</event>
<event>
 4      1 +2.9741700e-06 7.52887800e+02 7.81860800e-03 8.96348800e-02
        2 -1    0    0  501    0 +0.0000000000e+00 +0.0000000000e+00 +3.6281505316e+02 3.6281505316e+02 0.0000000000e+00 0.0000e+00 -1.0000e+00
       -2 -1    0    0    0  501 -0.0000000000e+00 -0.0000000000e+00 -3.9058469372e+02 3.9058469372e+02 0.0000000000e+00 0.0000e+00 1.0000e+00
      -13  1    1    2    0    0 -1.1681519718e+02 -3.3891434863e+02 -1.2885977403e+02 3.8093774736e+02 0.0000000000e+00 0.0000e+00 1.0000e+00
       13  1    1    2    0    0 +1.1681519718e+02 +3.3891434863e+02 +1.0109013347e+02 3.7246199952e+02 0.0000000000e+00 0.0000e+00 -1.0000e+00
<mgrwt>
<rscale>  0 0.75288779E+03</rscale>
<asrwt>0</asrwt>
<pdfrwt beam="1">  1        2 0.55817701E-01 0.75288779E+03</pdfrwt>
<pdfrwt beam="2">  1       -2 0.60089953E-01 0.75288779E+03</pdfrwt>
<totfact> 0.28390471E+02</totfact>
</mgrwt>
<rwgt>
<wgt id='morphing_basis_vector_1'> +1.7047230e-04 </wgt>
<wgt id='morphing_basis_vector_2'> +1.0589488e-04 </wgt>
<wgt id='morphing_basis_vector_3'> +1.4897259e-04 </wgt>
<wgt id='morphing_basis_vector_4'> +7.6351411e-05 </wgt>
<wgt id='morphing_basis_vector_5'> +1.2234967e-04 </wgt>
</rwgt>
</event>
<event>
 4      1 +2.9741700e-06 7.76805700e+02 7.81860800e-03 8.93182300e-02
        2 -1    0    0  501    0 +0.0000000000e+00 +0.0000000000e+00 +2.5704627470e+02 2.5704627470e+02 0.0000000000e+00 0.0000e+00 1.0000e+00
       -2 -1    0    0    0  501 -0.0000000000e+00 -0.0000000000e+00 -5.8688569382e+02 5.8688569382e+02 0.0000000000e+00 0.0000e+00 -1.0000e+00
      -13  1    1    2    0    0 -3.4636169971e+02 +1.1978484588e+02 -3.0464927543e+02 4.7657739911e+02 0.0000000000e+00 0.0000e+00 1.0000e+00
       13  1    1    2    0    0 +3.4636169971e+02 -1.1978484588e+02 -2.5190143699e+01 3.6735456941e+02 0.0000000000e+00 0.0000e+00 -1.0000e+00
<mgrwt>
<rscale>  0 0.77680572E+03</rscale>
<asrwt>0</asrwt>
<pdfrwt beam="1">  1        2 0.39545581E-01 0.77680572E+03</pdfrwt>
<pdfrwt beam="2">  1       -2 0.90290106E-01 0.77680572E+03</pdfrwt>
<totfact> 0.17164938E+02</totfact>
</mgrwt>
<rwgt>
<wgt id='morphing_basis_vector_1'> +1.9001559e-04 </wgt>
<wgt id='morphing_basis_vector_2'> +1.1820488e-04 </wgt>
<wgt id='morphing_basis_vector_3'> +1.6822918e-04 </wgt>
<wgt id='morphing_basis_vector_4'> +8.8252724e-05 </wgt>
<wgt id='morphing_basis_vector_5'> +1.4139407e-04 </wgt>
</rwgt>
</event>
<event>
 4      1 +2.9741700e-06 7.64388200e+02 7.81860800e-03 8.94810900e-02
        2 -1    0    0  501    0 +0.0000000000e+00 +0.0000000000e+00 +3.4530046004e+02 3.4530046004e+02 0.0000000000e+00 0.0000e+00 -1.0000e+00
       -2 -1    0    0    0  501 -0.0000000000e+00 -0.0000000000e+00 -4.2302962140e+02 4.2302962140e+02 0.0000000000e+00 0.0000e+00 1.0000e+00
      -13  1    1    2    0    0 +3.6674772265e+02 +5.6227925645e+01 -1.3102629690e+02 3.9348870653e+02 0.0000000000e+00 0.0000e+00 1.0000e+00
       13  1    1    2    0    0 -3.6674772265e+02 -5.6227925645e+01 +5.3297135542e+01 3.7484137491e+02 0.0000000000e+00 0.0000e+00 -1.0000e+00
<mgrwt>
<rscale>  0 0.76438818E+03</rscale>
<asrwt>0</asrwt>
<pdfrwt beam="1">  1        2 0.53123148E-01 0.76438818E+03</pdfrwt>
<pdfrwt beam="2">  1       -2 0.65081480E-01 0.76438818E+03</pdfrwt>
<totfact> 0.25440740E+02</totfact>
</mgrwt>
<rwgt>
<wgt id='morphing_basis_vector_1'> +1.8035458e-04 </wgt>
<wgt id='morphing_basis_vector_2'> +1.1380849e-04 </wgt>
<wgt id='morphing_basis_vector_3'> +1.5836856e-04 </wgt>
<wgt id='morphing_basis_vector_4'> +8.1088578e-05 </wgt>
<wgt id='morphing_basis_vector_5'> +1.3122914e-04 </wgt>
</rwgt>
</event>
<event>
 4      1 +2.9741700e-06 8.17860700e+02 7.81860800e-03 8.88019500e-02
        2 -1    0    0  501    0 +0.0000000000e+00 +0.0000000000e+00 +1.1053502449e+03 1.1053502449e+03 0.0000000000e+00 0.0000e+00 -1.0000e+00
       -2 -1    0    0    0  501 -0.0000000000e+00 -0.0000000000e+00 -1.5128602255e+02 1.5128602255e+02 0.0000000000e+00 0.0000e+00 1.0000e+00
      -13  1    1    2    0    0 +3.3538608737e+01 +3.9908055299e+02 +3.5001417420e+02 5.3188349118e+02 0.0000000000e+00 0.0000e+00 1.0000e+00
       13  1    1    2    0    0 -3.3538608737e+01 -3.9908055299e+02 +6.0405004812e+02 7.2475277625e+02 0.0000000000e+00 0.0000e+00 -1.0000e+00
<mgrwt>
<rscale>  0 0.81786073E+03</rscale>
<asrwt>0</asrwt>
<pdfrwt beam="1">  1        2 0.17005388E+00 0.81786073E+03</pdfrwt>
<pdfrwt beam="2">  1       -2 0.23274773E-01 0.81786073E+03</pdfrwt>
<totfact> 0.41357102E+02</totfact>
</mgrwt>
<rwgt>
<wgt id='morphing_basis_vector_1'> +2.2956778e-04 </wgt>
<wgt id='morphing_basis_vector_2'> +1.4789325e-04 </wgt>
<wgt id='morphing_basis_vector_3'> +2.0683746e-04 </wgt>
<wgt id='morphing_basis_vector_4'> +1.0925419e-04 </wgt>
<wgt id='morphing_basis_vector_5'> +1.7880156e-04 </wgt>
</rwgt>
</event>
<event>
 4      1 +2.9741700e-06 8.79547000e+02 7.81860800e-03 8.80836100e-02
        2 -1    0    0  501    0 +0.0000000000e+00 +0.0000000000e+00 +2.0460604970e+03 2.0460604970e+03 0.0000000000e+00 0.0000e+00 1.0000e+00
       -2 -1    0    0    0  501 -0.0000000000e+00 -0.0000000000e+00 -9.4523456195e+01 9.4523456195e+01 0.0000000000e+00 0.0000e+00 -1.0000e+00
      -13  1    1    2    0    0 -3.2936450082e+02 -1.3664130517e+02 +3.4935295888e+02 4.9919866842e+02 0.0000000000e+00 0.0000e+00 -1.0000e+00
       13  1    1    2    0    0 +3.2936450082e+02 +1.3664130517e+02 +1.6021840819e+03 1.6413852848e+03 0.0000000000e+00 0.0000e+00 1.0000e+00
<mgrwt>
<rscale>  0 0.87954695E+03</rscale>
<asrwt>0</asrwt>
<pdfrwt beam="1">  1        2 0.31477850E+00 0.87954695E+03</pdfrwt>
<pdfrwt beam="2">  1       -2 0.14542072E-01 0.87954695E+03</pdfrwt>
<totfact> 0.26707086E+02</totfact>
</mgrwt>
<rwgt>
<wgt id='morphing_basis_vector_1'> +2.9397291e-04 </wgt>
<wgt id='morphing_basis_vector_2'> +1.8195703e-04 </wgt>
<wgt id='morphing_basis_vector_3'> +2.7252801e-04 </wgt>
<wgt id='morphing_basis_vector_4'> +1.5647194e-04 </wgt>
<wgt id='morphing_basis_vector_5'> +2.4816212e-04 </wgt>
</rwgt>
</event>
<event>
 4      1 +2.9741700e-06 7.65184500e+02 7.81860800e-03 8.94705500e-02
        2 -1    0    0  501    0 +0.0000000000e+00 +0.0000000000e+00 +5.3030672135e+02 5.3030672135e+02 0.0000000000e+00 0.0000e+00 -1.0000e+00
       -2 -1    0    0    0  501 -0.0000000000e+00 -0.0000000000e+00 -2.7602296630e+02 2.7602296630e+02 0.0000000000e+00 0.0000e+00 1.0000e+00
      -13  1    1    2    0    0 -9.5670324708e+01 +1.8240071817e+02 -2.1261408286e+02 2.9601956227e+02 0.0000000000e+00 0.0000e+00 1.0000e+00
       13  1    1    2    0    0 +9.5670324708e+01 -1.8240071817e+02 +4.6689783791e+02 5.1031012537e+02 0.0000000000e+00 0.0000e+00 -1.0000e+00
<mgrwt>
<rscale>  0 0.76518451E+03</rscale>
<asrwt>0</asrwt>
<pdfrwt beam="1">  1        2 0.81585650E-01 0.76518451E+03</pdfrwt>
<pdfrwt beam="2">  1       -2 0.42465072E-01 0.76518451E+03</pdfrwt>
<totfact> 0.36467659E+02</totfact>
</mgrwt>
<rwgt>
<wgt id='morphing_basis_vector_1'> +1.7856383e-04 </wgt>
<wgt id='morphing_basis_vector_2'> +1.0672577e-04 </wgt>
<wgt id='morphing_basis_vector_3'> +1.5774596e-04 </wgt>
<wgt id='morphing_basis_vector_4'> +8.4402014e-05 </wgt>
<wgt id='morphing_basis_vector_5'> +1.3197317e-04 </wgt>
</rwgt>
</event>
<event>
 4      1 +2.9741700e-06 7.77215300e+02 7.81860800e-03 8.93129200e-02
        2 -1    0    0  501    0 +0.0000000000e+00 +0.0000000000e+00 +1.0446343716e+03 1.0446343716e+03 0.0000000000e+00 0.0000e+00 -1.0000e+00
       -2 -1    0    0    0  501 -0.0000000000e+00 -0.0000000000e+00 -1.4456341511e+02 1.4456341511e+02 0.0000000000e+00 0.0000e+00 1.0000e+00
      -13  1    1    2    0    0 -1.8548216154e+01 -2.6332138956e+02 +1.3672332256e+01 2.6432768147e+02 0.0000000000e+00 0.0000e+00 1.0000e+00
       13  1    1    2    0    0 +1.8548216154e+01 +2.6332138956e+02 +8.8639862420e+02 9.2487010521e+02 0.0000000000e+00 0.0000e+00 -1.0000e+00
<mgrwt>
<rscale>  0 0.77721532E+03</rscale>
<asrwt>0</asrwt>
<pdfrwt beam="1">  1        2 0.16071298E+00 0.77721532E+03</pdfrwt>
<pdfrwt beam="2">  1       -2 0.22240526E-01 0.77721532E+03</pdfrwt>
<totfact> 0.48678542E+02</totfact>
</mgrwt>
<rwgt>
<wgt id='morphing_basis_vector_1'> +1.8874030e-04 </wgt>
<wgt id='morphing_basis_vector_2'> +1.1344275e-04 </wgt>
<wgt id='morphing_basis_vector_3'> +1.6768728e-04 </wgt>
<wgt id='morphing_basis_vector_4'> +9.0448708e-05 </wgt>
<wgt id='morphing_basis_vector_5'> +1.4181606e-04 </wgt>
</rwgt>
</event>
<event>
 4      1 +2.9741700e-06 8.44994900e+02 7.81860800e-03 8.84780100e-02
        2 -1    0    0  501    0 +0.0000000000e+00 +0.0000000000e+00 +4.4289117855e+02 4.4289117855e+02 0.0000000000e+00 0.0000e+00 -1.0000e+00
       -2 -1    0    0    0  501 -0.0000000000e+00 -0.0000000000e+00 -4.0304279776e+02 4.0304279776e+02 0.0000000000e+00 0.0000e+00 1.0000e+00
      -13  1    1    2    0    0 +1.1817038712e+02 +1.8412535977e+02 -3.4191587789e+02 4.0592222908e+02 0.0000000000e+00 0.0000e+00 1.0000e+00
       13  1    1    2    0    0 -1.1817038712e+02 -1.8412535977e+02 +3.8176425868e+02 4.4001174724e+02 0.0000000000e+00 0.0000e+00 -1.0000e+00
<mgrwt>
<rscale>  0 0.84499491E+03</rscale>
<asrwt>0</asrwt>
<pdfrwt beam="1">  1        2 0.68137105E-01 0.84499491E+03</pdfrwt>
<pdfrwt beam="2">  1       -2 0.62006584E-01 0.84499491E+03</pdfrwt>
<totfact> 0.21153455E+02</totfact>
</mgrwt>
<rwgt>
<wgt id='morphing_basis_vector_1'> +2.5385931e-04 </wgt>
<wgt id='morphing_basis_vector_2'> +1.5454288e-04 </wgt>
<wgt id='morphing_basis_vector_3'> +2.3240346e-04 </wgt>
<wgt id='morphing_basis_vector_4'> +1.3185262e-04 </wgt>
<wgt id='morphing_basis_vector_5'> +2.0744954e-04 </wgt>
</rwgt>
</event>
<event>
 4      1 +2.9741700e-06 8.43716200e+02 7.81860800e-03 8.84929900e-02
        2 -1    0    0  501    0 +0.0000000000e+00 +0.0000000000e+00 +5.5960441639e+02 5.5960441639e+02 0.0000000000e+00 0.0000e+00 -1.0000e+00
       -2 -1    0    0    0  501 -0.0000000000e+00 -0.0000000000e+00 -3.1801798400e+02 3.1801798400e+02 0.0000000000e+00 0.0000e+00 1.0000e+00
      -13  1    1    2    0    0 -1.9149390724e+02 +1.7415411881e+02 -2.2570715852e+02 3.4342873353e+02 0.0000000000e+00 0.0000e+00 1.0000e+00
       13  1    1    2    0    0 +1.9149390724e+02 -1.7415411881e+02 +4.6729359091e+02 5.3419366686e+02 0.0000000000e+00 0.0000e+00 -1.0000e+00
<mgrwt>
<rscale>  0 0.84371623E+03</rscale>
<asrwt>0</asrwt>
<pdfrwt beam="1">  1        2 0.86092987E-01 0.84371623E+03</pdfrwt>
<pdfrwt beam="2">  1       -2 0.48925844E-01 0.84371623E+03</pdfrwt>
<totfact> 0.26031077E+02</totfact>
</mgrwt>
<rwgt>
<wgt id='morphing_basis_vector_1'> +2.5256119e-04 </wgt>
<wgt id='morphing_basis_vector_2'> +1.5389776e-04 </wgt>
<wgt id='morphing_basis_vector_3'> +2.3108025e-04 </wgt>
<wgt id='morphing_basis_vector_4'> +1.3086533e-04 </wgt>
<wgt id='morphing_basis_vector_5'> +2.0603608e-04 </wgt>
</rwgt>
</event>
<event>
 4      1 +2.9741700e-06 8.45038000e+02 7.81860800e-03 8.84775100e-02
        2 -1    0    0  501    0 +0.0000000000e+00 +0.0000000000e+00 +5.8502366933e+02 5.8502366933e+02 0.0000000000e+00 0.0000e+00 -1.0000e+00
       -2 -1    0    0    0  501 -0.0000000000e+00 -0.0000000000e+00 -3.0515396903e+02 3.0515396903e+02 0.0000000000e+00 0.0000e+00 1.0000e+00
      -13  1    1    2    0    0 -2.1597667487e+02 +1.9488920740e+02 -1.8285560724e+02 3.4360427871e+02 0.0000000000e+00 0.0000e+00 1.0000e+00
       13  1    1    2    0    0 +2.1597667487e+02 -1.9488920740e+02 +4.6272530754e+02 5.4657335965e+02 0.0000000000e+00 0.0000e+00 -1.0000e+00
<mgrwt>
<rscale>  0 0.84503797E+03</rscale>
<asrwt>0</asrwt>
<pdfrwt beam="1">  1        2 0.90003642E-01 0.84503797E+03</pdfrwt>
<pdfrwt beam="2">  1       -2 0.46946764E-01 0.84503797E+03</pdfrwt>
<totfact> 0.26773336E+02</totfact>
</mgrwt>
<rwgt>
<wgt id='morphing_basis_vector_1'> +2.5409676e-04 </wgt>
<wgt id='morphing_basis_vector_2'> +1.5515595e-04 </wgt>
<wgt id='morphing_basis_vector_3'> +2.3258130e-04 </wgt>
<wgt id='morphing_basis_vector_4'> +1.3162654e-04 </wgt>
<wgt id='morphing_basis_vector_5'> +2.0748487e-04 </wgt>
</rwgt>
</event>
<event>
 4      1 +2.9741700e-06 8.30820600e+02 7.81860800e-03 8.86456000e-02
        2 -1    0    0  501    0 +0.0000000000e+00 +0.0000000000e+00 +1.1769886892e+03 1.1769886892e+03 0.0000000000e+00 0.0000e+00 -1.0000e+00
       -2 -1    0    0    0  501 -0.0000000000e+00 -0.0000000000e+00 -1.4661628404e+02 1.4661628404e+02 0.0000000000e+00 0.0000e+00 1.0000e+00
      -13  1    1    2    0    0 -2.6071474700e+02 -2.8848069706e+02 +2.8228166154e+02 4.8049581509e+02 0.0000000000e+00 0.0000e+00 1.0000e+00
       13  1    1    2    0    0 +2.6071474700e+02 +2.8848069706e+02 +7.4809074361e+02 8.4310915814e+02 0.0000000000e+00 0.0000e+00 -1.0000e+00
<mgrwt>
<rscale>  0 0.83082058E+03</rscale>
<asrwt>0</asrwt>
<pdfrwt beam="1">  1        2 0.18107518E+00 0.83082058E+03</pdfrwt>
<pdfrwt beam="2">  1       -2 0.22556352E-01 0.83082058E+03</pdfrwt>
<totfact> 0.39545910E+02</totfact>
</mgrwt>
<rwgt>
<wgt id='morphing_basis_vector_1'> +2.4098132e-04 </wgt>
<wgt id='morphing_basis_vector_2'> +1.5124537e-04 </wgt>
<wgt id='morphing_basis_vector_3'> +2.1884410e-04 </wgt>
<wgt id='morphing_basis_vector_4'> +1.1960019e-04 </wgt>
<wgt id='morphing_basis_vector_5'> +1.9209413e-04 </wgt>
</rwgt>
</event>
<event>
 4      1 +2.9741700e-06 8.07976400e+02 7.81860800e-03 8.89232700e-02
        2 -1    0    0  501    0 +0.0000000000e+00 +0.0000000000e+00 +3.8298708913e+02 3.8298708913e+02 0.0000000000e+00 0.0000e+00 1.0000e+00
       -2 -1    0    0    0  501 -0.0000000000e+00 -0.0000000000e+00 -4.2614095868e+02 4.2614095868e+02 0.0000000000e+00 0.0000e+00 -1.0000e+00
      -13  1    1    2    0    0 +3.4051277331e+02 +3.9451085401e+01 -2.3565989966e+02 4.1598188090e+02 0.0000000000e+00 0.0000e+00 1.0000e+00
       13  1    1    2    0    0 -3.4051277331e+02 -3.9451085401e+01 +1.9250603011e+02 3.9314616691e+02 0.0000000000e+00 0.0000e+00 -1.0000e+00
<mgrwt>
<rscale>  0 0.80797645E+03</rscale>
<asrwt>0</asrwt>
<pdfrwt beam="1">  1        2 0.58921091E-01 0.80797645E+03</pdfrwt>
<pdfrwt beam="2">  1       -2 0.65560147E-01 0.80797645E+03</pdfrwt>
<totfact> 0.22244179E+02</totfact>
</mgrwt>
<rwgt>
<wgt id='morphing_basis_vector_1'> +2.1709463e-04 </wgt>
<wgt id='morphing_basis_vector_2'> +1.3290261e-04 </wgt>
<wgt id='morphing_basis_vector_3'> +1.9547979e-04 </wgt>
<wgt id='morphing_basis_vector_4'> +1.0699019e-04 </wgt>
<wgt id='morphing_basis_vector_5'> +1.6935037e-04 </wgt>
</rwgt>
</event>
<event>
 4      1 +2.9741700e-06 7.71933100e+02 7.81860800e-03 8.93817500e-02
        2 -1    0    0  501    0 +0.0000000000e+00 +0.0000000000e+00 +1.3337622879e+03 1.3337622879e+03 0.0000000000e+00 0.0000e+00 -1.0000e+00
       -2 -1    0    0    0  501 -0.0000000000e+00 -0.0000000000e+00 -1.1169171229e+02 1.1169171229e+02 0.0000000000e+00 0.0000e+00 1.0000e+00
      -13  1    1    2    0    0 -2.3810902510e+02 -1.4216563649e+02 +1.0836708578e+02 2.9774217255e+02 0.0000000000e+00 0.0000e+00 1.0000e+00
       13  1    1    2    0    0 +2.3810902510e+02 +1.4216563649e+02 +1.1137034898e+03 1.1477118276e+03 0.0000000000e+00 0.0000e+00 -1.0000e+00
<mgrwt>
<rscale>  0 0.77193314E+03</rscale>
<asrwt>0</asrwt>
<pdfrwt beam="1">  1        2 0.20519419E+00 0.77193314E+03</pdfrwt>
<pdfrwt beam="2">  1       -2 0.17183341E-01 0.77193314E+03</pdfrwt>
<totfact> 0.50756754E+02</totfact>
</mgrwt>
<rwgt>
<wgt id='morphing_basis_vector_1'> +1.8432997e-04 </wgt>
<wgt id='morphing_basis_vector_2'> +1.1079878e-04 </wgt>
<wgt id='morphing_basis_vector_3'> +1.6332432e-04 </wgt>
<wgt id='morphing_basis_vector_4'> +8.7621132e-05 </wgt>
<wgt id='morphing_basis_vector_5'> +1.3742678e-04 </wgt>
</rwgt>
</event>
<event>
 4      1 +2.9741700e-06 8.94317600e+02 7.81860800e-03 8.79207800e-02
        2 -1    0    0  501    0 +0.0000000000e+00 +0.0000000000e+00 +5.7999675471e+02 5.7999675471e+02 0.0000000000e+00 0.0000e+00 -1.0000e+00
       -2 -1    0    0    0  501 -0.0000000000e+00 -0.0000000000e+00 -3.4474498623e+02 3.4474498623e+02 0.0000000000e+00 0.0000e+00 1.0000e+00
      -13  1    1    2    0    0 +4.2392932717e+02 +3.4550009423e+00 -2.9419394399e+01 4.2496295395e+02 0.0000000000e+00 0.0000e+00 1.0000e+00
       13  1    1    2    0    0 -4.2392932717e+02 -3.4550009423e+00 +2.6467116288e+02 4.9977878699e+02 0.0000000000e+00 0.0000e+00 -1.0000e+00
<mgrwt>
<rscale>  0 0.89431756E+03</rscale>
<asrwt>0</asrwt>
<pdfrwt beam="1">  1        2 0.89230270E-01 0.89431756E+03</pdfrwt>
<pdfrwt beam="2">  1       -2 0.53037690E-01 0.89431756E+03</pdfrwt>
<totfact> 0.21245914E+02</totfact>
</mgrwt>
<rwgt>
<wgt id='morphing_basis_vector_1'> +3.1459696e-04 </wgt>
<wgt id='morphing_basis_vector_2'> +2.0097406e-04 </wgt>
<wgt id='morphing_basis_vector_3'> +2.9281186e-04 </wgt>
<wgt id='morphing_basis_vector_4'> +1.6505049e-04 </wgt>
<wgt id='morphing_basis_vector_5'> +2.6706319e-04 </wgt>
</rwgt>
</event>
<event>
 4      1 +2.9741700e-06 8.74370100e+02 7.81860800e-03 8.81414700e-02
        2 -1    0    0  501    0 +0.0000000000e+00 +0.0000000000e+00 +2.3374168571e+03 2.3374168571e+03 0.0000000000e+00 0.0000e+00 1.0000e+00
       -2 -1    0    0    0  501 -0.0000000000e+00 -0.0000000000e+00 -8.1770079073e+01 8.1770079073e+01 0.0000000000e+00 0.0000e+00 -1.0000e+00
      -13  1    1    2    0    0 +3.4875161266e+02 -2.1480665626e+02 +7.0493917523e+02 8.1529677276e+02 0.0000000000e+00 0.0000e+00 -1.0000e+00
       13  1    1    2    0    0 -3.4875161266e+02 +2.1480665626e+02 +1.5507076028e+03 1.6038901634e+03 0.0000000000e+00 0.0000e+00 1.0000e+00
<mgrwt>
<rscale>  0 0.87437008E+03</rscale>
<asrwt>0</asrwt>
<pdfrwt beam="1">  1        2 0.35960254E+00 0.87437008E+03</pdfrwt>
<pdfrwt beam="2">  1       -2 0.12580014E-01 0.87437008E+03</pdfrwt>
<totfact> 0.23104497E+02</totfact>
</mgrwt>
<rwgt>
<wgt id='morphing_basis_vector_1'> +2.8955679e-04 </wgt>
<wgt id='morphing_basis_vector_2'> +1.8338543e-04 </wgt>
<wgt id='morphing_basis_vector_3'> +2.6759871e-04 </wgt>
<wgt id='morphing_basis_vector_4'> +1.4997318e-04 </wgt>
<wgt id='morphing_basis_vector_5'> +2.4159116e-04 </wgt>
</rwgt>
</event>
<event>
 4      1 +2.9741700e-06 8.77783000e+02 7.81860800e-03 8.81032800e-02
        2 -1    0    0  501    0 +0.0000000000e+00 +0.0000000000e+00 +8.4929021959e+02 8.4929021959e+02 0.0000000000e+00 0.0000e+00 -1.0000e+00
       -2 -1    0    0    0  501 -0.0000000000e+00 -0.0000000000e+00 -2.2680794496e+02 2.2680794496e+02 0.0000000000e+00 0.0000e+00 1.0000e+00
      -13  1    1    2    0    0 -1.5780172353e+02 +9.9389607890e+01 -1.7581791318e+02 2.5630375865e+02 0.0000000000e+00 0.0000e+00 1.0000e+00
       13  1    1    2    0    0 +1.5780172353e+02 -9.9389607890e+01 +7.9830018780e+02 8.1979440590e+02 0.0000000000e+00 0.0000e+00 -1.0000e+00
<mgrwt>
<rscale>  0 0.87778305E+03</rscale>
<asrwt>0</asrwt>
<pdfrwt beam="1">  1        2 0.13066003E+00 0.87778305E+03</pdfrwt>
<pdfrwt beam="2">  1       -2 0.34893530E-01 0.87778305E+03</pdfrwt>
<totfact> 0.29381276E+02</totfact>
</mgrwt>
<rwgt>
<wgt id='morphing_basis_vector_1'> +2.9109990e-04 </wgt>
<wgt id='morphing_basis_vector_2'> +1.7830062e-04 </wgt>
<wgt id='morphing_basis_vector_3'> +2.6982570e-04 </wgt>
<wgt id='morphing_basis_vector_4'> +1.5613218e-04 </wgt>
<wgt id='morphing_basis_vector_5'> +2.4600506e-04 </wgt>
</rwgt>
</event>
<event>
 4      1 +2.9741700e-06 8.52874800e+02 7.81860800e-03 8.83863400e-02
        2 -1    0    0  501    0 +0.0000000000e+00 +0.0000000000e+00 +1.5546118177e+03 1.5546118177e+03 0.0000000000e+00 0.0000e+00 1.0000e+00
       -2 -1    0    0    0  501 -0.0000000000e+00 -0.0000000000e+00 -1.1697381317e+02 1.1697381317e+02 0.0000000000e+00 0.0000e+00 -1.0000e+00
      -13  1    1    2    0    0 -4.1730306902e+02 +1.7528477104e+01 +8.8741704853e+02 9.8079463546e+02 0.0000000000e+00 0.0000e+00 1.0000e+00
       13  1    1    2    0    0 +4.1730306902e+02 -1.7528477104e+01 +5.5022095599e+02 6.9079099541e+02 0.0000000000e+00 0.0000e+00 -1.0000e+00
<mgrwt>
<rscale>  0 0.85287484E+03</rscale>
<asrwt>0</asrwt>
<pdfrwt beam="1">  1        2 0.23917103E+00 0.85287484E+03</pdfrwt>
<pdfrwt beam="2">  1       -2 0.17995972E-01 0.85287484E+03</pdfrwt>
<totfact> 0.35273300E+02</totfact>
</mgrwt>
<rwgt>
<wgt id='morphing_basis_vector_1'> +2.8113159e-04 </wgt>
<wgt id='morphing_basis_vector_2'> +2.1703422e-04 </wgt>
<wgt id='morphing_basis_vector_3'> +2.5413660e-04 </wgt>
<wgt id='morphing_basis_vector_4'> +1.1215455e-04 </wgt>
<wgt id='morphing_basis_vector_5'> +2.1505723e-04 </wgt>
</rwgt>
</event>
<event>
 4      1 +2.9741700e-06 7.69898700e+02 7.81860800e-03 8.94084200e-02
        2 -1    0    0  501    0 +0.0000000000e+00 +0.0000000000e+00 +1.7440491512e+03 1.7440491512e+03 0.0000000000e+00 0.0000e+00 -1.0000e+00
       -2 -1    0    0    0  501 -0.0000000000e+00 -0.0000000000e+00 -8.4966635558e+01 8.4966635558e+01 0.0000000000e+00 0.0000e+00 1.0000e+00
      -13  1    1    2    0    0 +3.7310886737e+02 +6.1046654338e+01 +1.0016587362e+03 1.0706339919e+03 0.0000000000e+00 0.0000e+00 1.0000e+00
       13  1    1    2    0    0 -3.7310886737e+02 -6.1046654338e+01 +6.5742377947e+02 7.5838179483e+02 0.0000000000e+00 0.0000e+00 -1.0000e+00
<mgrwt>
<rscale>  0 0.76989867E+03</rscale>
<asrwt>0</asrwt>
<pdfrwt beam="1">  1        2 0.26831523E+00 0.76989867E+03</pdfrwt>
<pdfrwt beam="2">  1       -2 0.13071791E-01 0.76989867E+03</pdfrwt>
<totfact> 0.46904632E+02</totfact>
</mgrwt>
<rwgt>
<wgt id='morphing_basis_vector_1'> +1.9474476e-04 </wgt>
<wgt id='morphing_basis_vector_2'> +1.4689345e-04 </wgt>
<wgt id='morphing_basis_vector_3'> +1.6806576e-04 </wgt>
<wgt id='morphing_basis_vector_4'> +7.1979221e-05 </wgt>
<wgt id='morphing_basis_vector_5'> +1.3520088e-04 </wgt>
</rwgt>
</event>
<event>
 4      1 +2.9741700e-06 8.07732100e+02 7.81860800e-03 8.89262900e-02
        2 -1    0    0  501    0 +0.0000000000e+00 +0.0000000000e+00 +8.8036019975e+02 8.8036019975e+02 0.0000000000e+00 0.0000e+00 -1.0000e+00
       -2 -1    0    0    0  501 -0.0000000000e+00 -0.0000000000e+00 -1.8527393339e+02 1.8527393339e+02 0.0000000000e+00 0.0000e+00 1.0000e+00
      -13  1    1    2    0    0 +2.0068449889e+02 -1.7177547945e+02 -5.5492785723e+01 2.6992690251e+02 0.0000000000e+00 0.0000e+00 1.0000e+00
       13  1    1    2    0    0 -2.0068449889e+02 +1.7177547945e+02 +7.5057905208e+02 7.9570723062e+02 0.0000000000e+00 0.0000e+00 -1.0000e+00
<mgrwt>
<rscale>  0 0.80773213E+03</rscale>
<asrwt>0</asrwt>
<pdfrwt beam="1">  1        2 0.13544003E+00 0.80773213E+03</pdfrwt>
<pdfrwt beam="2">  1       -2 0.28503683E-01 0.80773213E+03</pdfrwt>
<totfact> 0.40306174E+02</totfact>
</mgrwt>
<rwgt>
<wgt id='morphing_basis_vector_1'> +2.1623288e-04 </wgt>
<wgt id='morphing_basis_vector_2'> +1.3082826e-04 </wgt>
<wgt id='morphing_basis_vector_3'> +1.9486307e-04 </wgt>
<wgt id='morphing_basis_vector_4'> +1.0764753e-04 </wgt>
<wgt id='morphing_basis_vector_5'> +1.6915245e-04 </wgt>
</rwgt>
</event>
<event>
 4      1 +2.9741700e-06 7.81302900e+02 7.81860800e-03 8.92600500e-02
        2 -1    0    0  501    0 +0.0000000000e+00 +0.0000000000e+00 +1.2100663321e+03 1.2100663321e+03 0.0000000000e+00 0.0000e+00 1.0000e+00
       -2 -1    0    0    0  501 -0.0000000000e+00 -0.0000000000e+00 -1.2611584943e+02 1.2611584943e+02 0.0000000000e+00 0.0000e+00 -1.0000e+00
      -13  1    1    2    0    0 -1.2132671705e+02 +2.3202901754e+02 +4.6162758477e+01 2.6587334865e+02 0.0000000000e+00 0.0000e+00 -1.0000e+00
       13  1    1    2    0    0 +1.2132671705e+02 -2.3202901754e+02 +1.0377877242e+03 1.0703088329e+03 0.0000000000e+00 0.0000e+00 1.0000e+00
<mgrwt>
<rscale>  0 0.78130287E+03</rscale>
<asrwt>0</asrwt>
<pdfrwt beam="1">  1        2 0.18616404E+00 0.78130287E+03</pdfrwt>
<pdfrwt beam="2">  1       -2 0.19402439E-01 0.78130287E+03</pdfrwt>
<totfact> 0.48829457E+02</totfact>
</mgrwt>
<rwgt>
<wgt id='morphing_basis_vector_1'> +1.9224677e-04 </wgt>
<wgt id='morphing_basis_vector_2'> +1.1563643e-04 </wgt>
<wgt id='morphing_basis_vector_3'> +1.7114396e-04 </wgt>
<wgt id='morphing_basis_vector_4'> +9.2636788e-05 </wgt>
<wgt id='morphing_basis_vector_5'> +1.4527925e-04 </wgt>
</rwgt>
</event>
<event>
 4      1 +2.9741700e-06 8.32449200e+02 7.81860800e-03 8.86261600e-02
        2 -1    0    0  501    0 +0.0000000000e+00 +0.0000000000e+00 +7.2140927088e+02 7.2140927088e+02 0.0000000000e+00 0.0000e+00 1.0000e+00
       -2 -1    0    0    0  501 -0.0000000000e+00 -0.0000000000e+00 -2.4014512427e+02 2.4014512427e+02 0.0000000000e+00 0.0000e+00 -1.0000e+00
      -13  1    1    2    0    0 -3.3650127010e+02 -1.8047455535e+02 +4.9295377606e+01 3.8501195327e+02 0.0000000000e+00 0.0000e+00 -1.0000e+00
       13  1    1    2    0    0 +3.3650127010e+02 +1.8047455535e+02 +4.3196876900e+02 5.7654244189e+02 0.0000000000e+00 0.0000e+00 1.0000e+00
<mgrwt>
<rscale>  0 0.83244920E+03</rscale>
<asrwt>0</asrwt>
<pdfrwt beam="1">  1        2 0.11098604E+00 0.83244920E+03</pdfrwt>
<pdfrwt beam="2">  1       -2 0.36945404E-01 0.83244920E+03</pdfrwt>
<totfact> 0.32668868E+02</totfact>
</mgrwt>
<rwgt>
<wgt id='morphing_basis_vector_1'> +2.4227507e-04 </wgt>
<wgt id='morphing_basis_vector_2'> +1.5114068e-04 </wgt>
<wgt id='morphing_basis_vector_3'> +2.2027005e-04 </wgt>
<wgt id='morphing_basis_vector_4'> +1.2117468e-04 </wgt>
<wgt id='morphing_basis_vector_5'> +1.9382459e-04 </wgt>
</rwgt>
</event>
<event>
 4      1 +2.9741700e-06 7.51395800e+02 7.81860800e-03 8.96550500e-02
        2 -1    0    0  501    0 +0.0000000000e+00 +0.0000000000e+00 +5.3453329010e+02 5.3453329010e+02 0.0000000000e+00 0.0000e+00 -1.0000e+00
       -2 -1    0    0    0  501 -0.0000000000e+00 -0.0000000000e+00 -2.6406009468e+02 2.6406009468e+02 0.0000000000e+00 0.0000e+00 1.0000e+00
      -13  1    1    2    0    0 -5.9052352527e+01 +1.8410142547e+02 -2.0712851108e+02 2.8334208177e+02 0.0000000000e+00 0.0000e+00 1.0000e+00
       13  1    1    2    0    0 +5.9052352527e+01 -1.8410142547e+02 +4.7760170650e+02 5.1525130301e+02 0.0000000000e+00 0.0000e+00 -1.0000e+00
<mgrwt>
<rscale>  0 0.75139580E+03</rscale>
<asrwt>0</asrwt>
<pdfrwt beam="1">  1        2 0.82235890E-01 0.75139580E+03</pdfrwt>
<pdfrwt beam="2">  1       -2 0.40624630E-01 0.75139580E+03</pdfrwt>
<totfact> 0.39287063E+02</totfact>
</mgrwt>
<rwgt>
<wgt id='morphing_basis_vector_1'> +1.6755074e-04 </wgt>
<wgt id='morphing_basis_vector_2'> +9.9764333e-05 </wgt>
<wgt id='morphing_basis_vector_3'> +1.4697758e-04 </wgt>
<wgt id='morphing_basis_vector_4'> +7.7701255e-05 </wgt>
<wgt id='morphing_basis_vector_5'> +1.2129949e-04 </wgt>
</rwgt>
</event>
<event>
 4      1 +2.9741700e-06 8.92381400e+02 7.81860800e-03 8.79419300e-02
        2 -1    0    0  501    0 +0.0000000000e+00 +0.0000000000e+00 +7.4463361886e+02 7.4463361886e+02 0.0000000000e+00 0.0000e+00 -1.0000e+00
       -2 -1    0    0    0  501 -0.0000000000e+00 -0.0000000000e+00 -2.6736122353e+02 2.6736122353e+02 0.0000000000e+00 0.0000e+00 1.0000e+00
      -13  1    1    2    0    0 -3.9799985536e+02 +4.8814815319e+01 +1.6702284894e+01 4.0132996073e+02 0.0000000000e+00 0.0000e+00 1.0000e+00
       13  1    1    2    0    0 +3.9799985536e+02 -4.8814815319e+01 +4.6057011043e+02 6.1066488165e+02 0.0000000000e+00 0.0000e+00 -1.0000e+00
<mgrwt>
<rscale>  0 0.89238143E+03</rscale>
<asrwt>0</asrwt>
<pdfrwt beam="1">  1        2 0.11455902E+00 0.89238143E+03</pdfrwt>
<pdfrwt beam="2">  1       -2 0.41132496E-01 0.89238143E+03</pdfrwt>
<totfact> 0.25662032E+02</totfact>
</mgrwt>
<rwgt>
<wgt id='morphing_basis_vector_1'> +3.1079369e-04 </wgt>
<wgt id='morphing_basis_vector_2'> +1.9524867e-04 </wgt>
<wgt id='morphing_basis_vector_3'> +2.8928225e-04 </wgt>
<wgt id='morphing_basis_vector_4'> +1.6537849e-04 </wgt>
<wgt id='morphing_basis_vector_5'> +2.6460528e-04 </wgt>
</rwgt>
</event>
<event>
 4      1 +2.9741700e-06 8.60135000e+02 7.81860800e-03 8.83027900e-02
        2 -1    0    0  501    0 +0.0000000000e+00 +0.0000000000e+00 +9.0733642225e+02 9.0733642225e+02 0.0000000000e+00 0.0000e+00 1.0000e+00
       -2 -1    0    0    0  501 -0.0000000000e+00 -0.0000000000e+00 -2.0384728442e+02 2.0384728442e+02 0.0000000000e+00 0.0000e+00 -1.0000e+00
      -13  1    1    2    0    0 -2.2344872716e+02 -2.5200730073e+02 +6.9723512444e+02 7.7432153015e+02 0.0000000000e+00 0.0000e+00 -1.0000e+00
       13  1    1    2    0    0 +2.2344872716e+02 +2.5200730073e+02 +6.2540133813e+00 3.3686217653e+02 0.0000000000e+00 0.0000e+00 1.0000e+00
<mgrwt>
<rscale>  0 0.86013503E+03</rscale>
<asrwt>0</asrwt>
<pdfrwt beam="1">  1        2 0.13959022E+00 0.86013503E+03</pdfrwt>
<pdfrwt beam="2">  1       -2 0.31361121E-01 0.86013503E+03</pdfrwt>
<totfact> 0.32611007E+02</totfact>
</mgrwt>
<rwgt>
<wgt id='morphing_basis_vector_1'> +3.3610955e-04 </wgt>
<wgt id='morphing_basis_vector_2'> +3.6515720e-04 </wgt>
<wgt id='morphing_basis_vector_3'> +2.9608127e-04 </wgt>
<wgt id='morphing_basis_vector_4'> +5.3316223e-05 </wgt>
<wgt id='morphing_basis_vector_5'> +2.2025667e-04 </wgt>
</rwgt>
</event>
<event>
 4      1 +2.9741700e-06 7.72391700e+02 7.81860800e-03 8.93757500e-02
        2 -1    0    0  501    0 +0.0000000000e+00 +0.0000000000e+00 +1.9728198792e+02 1.9728198792e+02 0.0000000000e+00 0.0000e+00 -1.0000e+00
       -2 -1    0    0    0  501 -0.0000000000e+00 -0.0000000000e+00 -7.5601046012e+02 7.5601046012e+02 0.0000000000e+00 0.0000e+00 1.0000e+00
      -13  1    1    2    0    0 +5.8611683347e+01 +3.1811569424e+02 -5.3976270062e+02 6.2926679344e+02 0.0000000000e+00 0.0000e+00 1.0000e+00
       13  1    1    2    0    0 -5.8611683347e+01 -3.1811569424e+02 -1.8965771585e+01 3.2402565460e+02 0.0000000000e+00 0.0000e+00 -1.0000e+00
<mgrwt>
<rscale>  0 0.77239173E+03</rscale>
<asrwt>0</asrwt>
<pdfrwt beam="1">  1        2 0.30351075E-01 0.77239173E+03</pdfrwt>
<pdfrwt beam="2">  1       -2 0.11630930E+00 0.77239173E+03</pdfrwt>
<totfact> 0.12541818E+02</totfact>
</mgrwt>
<rwgt>
<wgt id='morphing_basis_vector_1'> +1.8509562e-04 </wgt>
<wgt id='morphing_basis_vector_2'> +1.1221049e-04 </wgt>
<wgt id='morphing_basis_vector_3'> +1.6390618e-04 </wgt>
<wgt id='morphing_basis_vector_4'> +8.7396989e-05 </wgt>
<wgt id='morphing_basis_vector_5'> +1.3778575e-04 </wgt>
</rwgt>
</event>
<event>
 4      1 +2.9741700e-06 8.45699500e+02 7.81860800e-03 8.84697700e-02
        2 -1    0    0  501    0 +0.0000000000e+00 +0.0000000000e+00 +9.0440024955e+02 9.0440024955e+02 0.0000000000e+00 0.0000e+00 -1.0000e+00
       -2 -1    0    0    0  501 -0.0000000000e+00 -0.0000000000e+00 -1.9770216948e+02 1.9770216948e+02 0.0000000000e+00 0.0000e+00 1.0000e+00
      -13  1    1    2    0    0 -3.2154660012e+02 +2.3732501935e+02 +5.3338911044e+02 6.6649780494e+02 0.0000000000e+00 0.0000e+00 1.0000e+00
       13  1    1    2    0    0 +3.2154660012e+02 -2.3732501935e+02 +1.7330896963e+02 4.3560461409e+02 0.0000000000e+00 0.0000e+00 -1.0000e+00
<mgrwt>
<rscale>  0 0.84569945E+03</rscale>
<asrwt>0</asrwt>
<pdfrwt beam="1">  1        2 0.13913850E+00 0.84569945E+03</pdfrwt>
<pdfrwt beam="2">  1       -2 0.30415719E-01 0.84569945E+03</pdfrwt>
<totfact> 0.34608834E+02</totfact>
</mgrwt>
<rwgt>
<wgt id='morphing_basis_vector_1'> +2.8187441e-04 </wgt>
<wgt id='morphing_basis_vector_2'> +2.3825189e-04 </wgt>
<wgt id='morphing_basis_vector_3'> +2.5194407e-04 </wgt>
<wgt id='morphing_basis_vector_4'> +9.5799525e-05 </wgt>
<wgt id='morphing_basis_vector_5'> +2.0647940e-04 </wgt>
</rwgt>
</event>
<event>
 4      1 +2.9741700e-06 8.57571000e+02 7.81860800e-03 8.83321900e-02
        2 -1    0    0  501    0 +0.0000000000e+00 +0.0000000000e+00 +3.6802309190e+02 3.6802309190e+02 0.0000000000e+00 0.0000e+00 -1.0000e+00
       -2 -1    0    0    0  501 -0.0000000000e+00 -0.0000000000e+00 -4.9958013496e+02 4.9958013496e+02 0.0000000000e+00 0.0000e+00 1.0000e+00
      -13  1    1    2    0    0 -3.6292345620e+01 -2.1017202542e+02 -4.4210802669e+02 4.9086548247e+02 0.0000000000e+00 0.0000e+00 1.0000e+00
       13  1    1    2    0    0 +3.6292345620e+01 +2.1017202542e+02 +3.1055098362e+02 3.7673774439e+02 0.0000000000e+00 0.0000e+00 -1.0000e+00
<mgrwt>
<rscale>  0 0.85757105E+03</rscale>
<asrwt>0</asrwt>
<pdfrwt beam="1">  1        2 0.56618938E-01 0.85757105E+03</pdfrwt>
<pdfrwt beam="2">  1       -2 0.76858482E-01 0.85757105E+03</pdfrwt>
<totfact> 0.16477529E+02</totfact>
</mgrwt>
<rwgt>
<wgt id='morphing_basis_vector_1'> +2.6767984e-04 </wgt>
<wgt id='morphing_basis_vector_2'> +1.6335772e-04 </wgt>
<wgt id='morphing_basis_vector_3'> +2.4625945e-04 </wgt>
<wgt id='morphing_basis_vector_4'> +1.4080689e-04 </wgt>
<wgt id='morphing_basis_vector_5'> +2.2167750e-04 </wgt>
</rwgt>
</event>
<event>
 4      1 +2.9741700e-06 8.13767900e+02 7.81860800e-03 8.88519600e-02
        2 -1    0    0  501    0 +0.0000000000e+00 +0.0000000000e+00 +9.7140500665e+02 9.7140500665e+02 0.0000000000e+00 0.0000e+00 1.0000e+00
       -2 -1    0    0    0  501 -0.0000000000e+00 -0.0000000000e+00 -1.7042793581e+02 1.7042793581e+02 0.0000000000e+00 0.0000e+00 -1.0000e+00
      -13  1    1    2    0    0 +3.9950462717e+02 -6.8013090211e+01 +4.5156030042e+02 6.0674247625e+02 0.0000000000e+00 0.0000e+00 -1.0000e+00
       13  1    1    2    0    0 -3.9950462717e+02 +6.8013090211e+01 +3.4941677042e+02 5.3509046620e+02 0.0000000000e+00 0.0000e+00 1.0000e+00
<mgrwt>
<rscale>  0 0.81376790E+03</rscale>
<asrwt>0</asrwt>
<pdfrwt beam="1">  1        2 0.14944692E+00 0.81376790E+03</pdfrwt>
<pdfrwt beam="2">  1       -2 0.26219683E-01 0.81376790E+03</pdfrwt>
<totfact> 0.40720915E+02</totfact>
</mgrwt>
<rwgt>
<wgt id='morphing_basis_vector_1'> +2.3260710e-04 </wgt>
<wgt id='morphing_basis_vector_2'> +1.6688201e-04 </wgt>
<wgt id='morphing_basis_vector_3'> +2.0723661e-04 </wgt>
<wgt id='morphing_basis_vector_4'> +9.7690449e-05 </wgt>
<wgt id='morphing_basis_vector_5'> +1.7437267e-04 </wgt>
</rwgt>
</event>
<event>
 4      1 +2.9741700e-06 7.96396000e+02 7.81860800e-03 8.90677600e-02
        2 -1    0    0  501    0 +0.0000000000e+00 +0.0000000000e+00 +7.3874191363e+02 7.3874191363e+02 0.0000000000e+00 0.0000e+00 -1.0000e+00
       -2 -1    0    0    0  501 -0.0000000000e+00 -0.0000000000e+00 -2.1463741849e+02 2.1463741849e+02 0.0000000000e+00 0.0000e+00 1.0000e+00
      -13  1    1    2    0    0 +8.9202072816e+00 +1.2531333060e+02 -1.9029119016e+02 2.2802135421e+02 0.0000000000e+00 0.0000e+00 1.0000e+00
       13  1    1    2    0    0 -8.9202072816e+00 -1.2531333060e+02 +7.1439568531e+02 7.2535797791e+02 0.0000000000e+00 0.0000e+00 -1.0000e+00
<mgrwt>
<rscale>  0 0.79639603E+03</rscale>
<asrwt>0</asrwt>
<pdfrwt beam="1">  1        2 0.11365260E+00 0.79639603E+03</pdfrwt>
<pdfrwt beam="2">  1       -2 0.33021142E-01 0.79639603E+03</pdfrwt>
<totfact> 0.38941701E+02</totfact>
</mgrwt>
<rwgt>
<wgt id='morphing_basis_vector_1'> +2.0551698e-04 </wgt>
<wgt id='morphing_basis_vector_2'> +1.2365196e-04 </wgt>
<wgt id='morphing_basis_vector_3'> +1.8430861e-04 </wgt>
<wgt id='morphing_basis_vector_4'> +1.0120494e-04 </wgt>
<wgt id='morphing_basis_vector_5'> +1.5860092e-04 </wgt>
</rwgt>
</event>
<event>
 4      1 +2.9741700e-06 8.74030700e+02 7.81860800e-03 8.81452800e-02
        2 -1    0    0  501    0 +0.0000000000e+00 +0.0000000000e+00 +7.3474175449e+02 7.3474175449e+02 0.0000000000e+00 0.0000e+00 -1.0000e+00
       -2 -1    0    0    0  501 -0.0000000000e+00 -0.0000000000e+00 -2.5993134623e+02 2.5993134623e+02 0.0000000000e+00 0.0000e+00 1.0000e+00
      -13  1    1    2    0    0 +3.2708166238e+02 +1.8398719491e+02 -1.7444174561e+01 3.7568337863e+02 0.0000000000e+00 0.0000e+00 1.0000e+00
       13  1    1    2    0    0 -3.2708166238e+02 -1.8398719491e+02 +4.9225458281e+02 6.1898972209e+02 0.0000000000e+00 0.0000e+00 -1.0000e+00
<mgrwt>
<rscale>  0 0.87403069E+03</rscale>
<asrwt>0</asrwt>
<pdfrwt beam="1">  1        2 0.11303719E+00 0.87403069E+03</pdfrwt>
<pdfrwt beam="2">  1       -2 0.39989438E-01 0.87403069E+03</pdfrwt>
<totfact> 0.27531088E+02</totfact>
</mgrwt>
<rwgt>
<wgt id='morphing_basis_vector_1'> +2.8775880e-04 </wgt>
<wgt id='morphing_basis_vector_2'> +1.7887237e-04 </wgt>
<wgt id='morphing_basis_vector_3'> +2.6615813e-04 </wgt>
<wgt id='morphing_basis_vector_4'> +1.5164446e-04 </wgt>
<wgt id='morphing_basis_vector_5'> +2.4127072e-04 </wgt>
</rwgt>
</event>
<event>
 4      1 +2.9741700e-06 7.85777200e+02 7.81860800e-03 8.92025700e-02
        2 -1    0    0  501    0 +0.0000000000e+00 +0.0000000000e+00 +2.1789979309e+03 2.1789979309e+03 0.0000000000e+00 0.0000e+00 1.0000e+00
       -2 -1    0    0    0  501 -0.0000000000e+00 -0.0000000000e+00 -7.0840569096e+01 7.0840569096e+01 0.0000000000e+00 0.0000e+00 -1.0000e+00
      -13  1    1    2    0    0 -2.5230833198e+02 +1.6310217168e+02 +3.2917598223e+02 4.4566651216e+02 0.0000000000e+00 0.0000e+00 -1.0000e+00
       13  1    1    2    0    0 +2.5230833198e+02 -1.6310217168e+02 +1.7789813796e+03 1.8041719879e+03 0.0000000000e+00 0.0000e+00 1.0000e+00
<mgrwt>
<rscale>  0 0.78577720E+03</rscale>
<asrwt>0</asrwt>
<pdfrwt beam="1">  1        2 0.33523040E+00 0.78577720E+03</pdfrwt>
<pdfrwt beam="2">  1       -2 0.10898551E-01 0.78577720E+03</pdfrwt>
<totfact> 0.35964685E+02</totfact>
</mgrwt>
<rwgt>
<wgt id='morphing_basis_vector_1'> +1.9634488e-04 </wgt>
<wgt id='morphing_basis_vector_2'> +1.1869323e-04 </wgt>
<wgt id='morphing_basis_vector_3'> +1.7510369e-04 </wgt>
<wgt id='morphing_basis_vector_4'> +9.4826867e-05 </wgt>
<wgt id='morphing_basis_vector_5'> +1.4912912e-04 </wgt>
</rwgt>
</event>
<event>
 4      1 +2.9741700e-06 8.58328200e+02 7.81860800e-03 8.83235000e-02
        2 -1    0    0  501    0 +0.0000000000e+00 +0.0000000000e+00 +7.7721640621e+02 7.7721640621e+02 0.0000000000e+00 0.0000e+00 -1.0000e+00
       -2 -1    0    0    0  501 -0.0000000000e+00 -0.0000000000e+00 -2.3697626380e+02 2.3697626380e+02 0.0000000000e+00 0.0000e+00 1.0000e+00
      -13  1    1    2    0    0 -1.5312755366e+02 +3.7879329041e+02 +1.1493336619e+02 4.2443148236e+02 0.0000000000e+00 0.0000e+00 1.0000e+00
       13  1    1    2    0    0 +1.5312755366e+02 -3.7879329041e+02 +4.2530677622e+02 5.8976118764e+02 0.0000000000e+00 0.0000e+00 -1.0000e+00
<mgrwt>
<rscale>  0 0.85832824E+03</rscale>
<asrwt>0</asrwt>
<pdfrwt beam="1">  1        2 0.11957175E+00 0.85832824E+03</pdfrwt>
<pdfrwt beam="2">  1       -2 0.36457887E-01 0.85832824E+03</pdfrwt>
<totfact> 0.30452321E+02</totfact>
</mgrwt>
<rwgt>
<wgt id='morphing_basis_vector_1'> +2.7136073e-04 </wgt>
<wgt id='morphing_basis_vector_2'> +1.7253682e-04 </wgt>
<wgt id='morphing_basis_vector_3'> +2.4913029e-04 </wgt>
<wgt id='morphing_basis_vector_4'> +1.3750822e-04 </wgt>
<wgt id='morphing_basis_vector_5'> +2.2236682e-04 </wgt>
</rwgt>
</event>
<event>
 4      1 +2.9741700e-06 8.89496700e+02 7.81860800e-03 8.79735600e-02
        2 -1    0    0  501    0 +0.0000000000e+00 +0.0000000000e+00 +1.1749264715e+03 1.1749264715e+03 0.0000000000e+00 0.0000e+00 1.0000e+00
       -2 -1    0    0    0  501 -0.0000000000e+00 -0.0000000000e+00 -1.6835189661e+02 1.6835189661e+02 0.0000000000e+00 0.0000e+00 -1.0000e+00
      -13  1    1    2    0    0 -3.7624935177e+02 +2.2468079269e+02 +6.1786089208e+02 7.5749397046e+02 0.0000000000e+00 0.0000e+00 -1.0000e+00
       13  1    1    2    0    0 +3.7624935177e+02 -2.2468079269e+02 +3.8871368276e+02 5.8578439761e+02 0.0000000000e+00 0.0000e+00 1.0000e+00
<mgrwt>
<rscale>  0 0.88949671E+03</rscale>
<asrwt>0</asrwt>
<pdfrwt beam="1">  1        2 0.18075791E+00 0.88949671E+03</pdfrwt>
<pdfrwt beam="2">  1       -2 0.25900293E-01 0.88949671E+03</pdfrwt>
<totfact> 0.31213845E+02</totfact>
</mgrwt>
<rwgt>
<wgt id='morphing_basis_vector_1'> +3.2505792e-04 </wgt>
<wgt id='morphing_basis_vector_2'> +2.4735246e-04 </wgt>
<wgt id='morphing_basis_vector_3'> +2.9934379e-04 </wgt>
<wgt id='morphing_basis_vector_4'> +1.3786456e-04 </wgt>
<wgt id='morphing_basis_vector_5'> +2.5951915e-04 </wgt>
</rwgt>
</event>
<event>
 4      1 +2.9741700e-06 7.79808300e+02 7.81860800e-03 8.92793400e-02
        2 -1    0    0  501    0 +0.0000000000e+00 +0.0000000000e+00 +1.2832235124e+03 1.2832235124e+03 0.0000000000e+00 0.0000e+00 -1.0000e+00
       -2 -1    0    0    0  501 -0.0000000000e+00 -0.0000000000e+00 -1.1847136257e+02 1.1847136257e+02 0.0000000000e+00 0.0000e+00 1.0000e+00
      -13  1    1    2    0    0 -2.2154051640e+02 -2.6168897687e+02 +9.1606973954e+02 9.7813347184e+02 0.0000000000e+00 0.0000e+00 -1.0000e+00
       13  1    1    2    0    0 +2.2154051640e+02 +2.6168897687e+02 +2.4868241024e+02 4.2356140309e+02 0.0000000000e+00 0.0000e+00 1.0000e+00
<mgrwt>
<rscale>  0 0.77980828E+03</rscale>
<asrwt>0</asrwt>
<pdfrwt beam="1">  1        2 0.19741899E+00 0.77980828E+03</pdfrwt>
<pdfrwt beam="2">  1       -2 0.18226364E-01 0.77980828E+03</pdfrwt>
<totfact> 0.49182692E+02</totfact>
</mgrwt>
<rwgt>
<wgt id='morphing_basis_vector_1'> +2.2265922e-04 </wgt>
<wgt id='morphing_basis_vector_2'> +2.1203110e-04 </wgt>
<wgt id='morphing_basis_vector_3'> +1.8737379e-04 </wgt>
<wgt id='morphing_basis_vector_4'> +5.3018079e-05 </wgt>
<wgt id='morphing_basis_vector_5'> +1.4245449e-04 </wgt>
</rwgt>
</event>
<event>
 4      1 +2.9741700e-06 8.70883400e+02 7.81860800e-03 8.81806900e-02
        2 -1    0    0  501    0 +0.0000000000e+00 +0.0000000000e+00 +2.2662439026e+03 2.2662439026e+03 0.0000000000e+00 0.0000e+00 1.0000e+00
       -2 -1    0    0    0  501 -0.0000000000e+00 -0.0000000000e+00 -8.3666834239e+01 8.3666834239e+01 0.0000000000e+00 0.0000e+00 -1.0000e+00
      -13  1    1    2    0    0 +3.7331568689e+02 -2.2129817953e+02 +1.1875226879e+03 1.2643368304e+03 0.0000000000e+00 0.0000e+00 -1.0000e+00
       13  1    1    2    0    0 -3.7331568689e+02 +2.2129817953e+02 +9.9505438048e+02 1.0855739065e+03 0.0000000000e+00 0.0000e+00 1.0000e+00
<mgrwt>
<rscale>  0 0.87088335E+03</rscale>
<asrwt>0</asrwt>
<pdfrwt beam="1">  1        2 0.34865286E+00 0.87088335E+03</pdfrwt>
<pdfrwt beam="2">  1       -2 0.12871822E-01 0.87088335E+03</pdfrwt>
<totfact> 0.24463604E+02</totfact>
</mgrwt>
<rwgt>
<wgt id='morphing_basis_vector_1'> +2.9630779e-04 </wgt>
<wgt id='morphing_basis_vector_2'> +2.1386381e-04 </wgt>
<wgt id='morphing_basis_vector_3'> +2.7143027e-04 </wgt>
<wgt id='morphing_basis_vector_4'> +1.3231369e-04 </wgt>
<wgt id='morphing_basis_vector_5'> +2.3656532e-04 </wgt>
</rwgt>
</event>
<event>
 4      1 +2.9741700e-06 7.62165600e+02 7.81860800e-03 8.95105900e-02
        2 -1    0    0  501    0 +0.0000000000e+00 +0.0000000000e+00 +3.4446936668e+02 3.4446936668e+02 0.0000000000e+00 0.0000e+00 -1.0000e+00
       -2 -1    0    0    0  501 -0.0000000000e+00 -0.0000000000e+00 -4.2158784155e+02 4.2158784155e+02 0.0000000000e+00 0.0000e+00 1.0000e+00
      -13  1    1    2    0    0 +1.2459362007e+02 +3.3185657778e+01 +3.2187917205e+02 3.4674350670e+02 0.0000000000e+00 0.0000e+00 -1.0000e+00
       13  1    1    2    0    0 -1.2459362007e+02 -3.3185657778e+01 -3.9899764691e+02 4.1931370152e+02 0.0000000000e+00 0.0000e+00 1.0000e+00
<mgrwt>
<rscale>  0 0.76216559E+03</rscale>
<asrwt>0</asrwt>
<pdfrwt beam="1">  1        2 0.52995287E-01 0.76216559E+03</pdfrwt>
<pdfrwt beam="2">  1       -2 0.64859668E-01 0.76216559E+03</pdfrwt>
<totfact> 0.25694913E+02</totfact>
</mgrwt>
<rwgt>
<wgt id='morphing_basis_vector_1'> +2.3960744e-04 </wgt>
<wgt id='morphing_basis_vector_2'> +3.0010722e-04 </wgt>
<wgt id='morphing_basis_vector_3'> +1.8778229e-04 </wgt>
<wgt id='morphing_basis_vector_4'> +7.3678380e-06 </wgt>
<wgt id='morphing_basis_vector_5'> +1.2675739e-04 </wgt>
</rwgt>
</event>
<event>
 4      1 +2.9741700e-06 7.86082400e+02 7.81860800e-03 8.91986600e-02
        2 -1    0    0  501    0 +0.0000000000e+00 +0.0000000000e+00 +1.9651110249e+03 1.9651110249e+03 0.0000000000e+00 0.0000e+00 1.0000e+00
       -2 -1    0    0    0  501 -0.0000000000e+00 -0.0000000000e+00 -7.8612038774e+01 7.8612038774e+01 0.0000000000e+00 0.0000e+00 -1.0000e+00
      -13  1    1    2    0    0 +1.7100398643e+02 -3.1117143196e+02 +5.0502162614e+02 6.1734663384e+02 0.0000000000e+00 0.0000e+00 -1.0000e+00
       13  1    1    2    0    0 -1.7100398643e+02 +3.1117143196e+02 +1.3814773600e+03 1.4263764299e+03 0.0000000000e+00 0.0000e+00 1.0000e+00
<mgrwt>
<rscale>  0 0.78608240E+03</rscale>
<asrwt>0</asrwt>
<pdfrwt beam="1">  1        2 0.30232474E+00 0.78608240E+03</pdfrwt>
<pdfrwt beam="2">  1       -2 0.12094161E-01 0.78608240E+03</pdfrwt>
<totfact> 0.40103307E+02</totfact>
</mgrwt>
<rwgt>
<wgt id='morphing_basis_vector_1'> +1.9745769e-04 </wgt>
<wgt id='morphing_basis_vector_2'> +1.2145029e-04 </wgt>
<wgt id='morphing_basis_vector_3'> +1.7584683e-04 </wgt>
<wgt id='morphing_basis_vector_4'> +9.3950292e-05 </wgt>
<wgt id='morphing_basis_vector_5'> +1.4935240e-04 </wgt>
</rwgt>
</event>
<event>
 4      1 +2.9741700e-06 7.60888100e+02 7.81860800e-03 8.95275900e-02
        2 -1    0    0  501    0 +0.0000000000e+00 +0.0000000000e+00 +7.9062195699e+02 7.9062195699e+02 0.0000000000e+00 0.0000e+00 1.0000e+00
       -2 -1    0    0    0  501 -0.0000000000e+00 -0.0000000000e+00 -1.8306812969e+02 1.8306812969e+02 0.0000000000e+00 0.0000e+00 -1.0000e+00
      -13  1    1    2    0    0 +4.5580039161e+01 -2.2407798787e+02 +6.9286821310e+02 7.2962651086e+02 0.0000000000e+00 0.0000e+00 1.0000e+00
       13  1    1    2    0    0 -4.5580039161e+01 +2.2407798787e+02 -8.5314385797e+01 2.4406357582e+02 0.0000000000e+00 0.0000e+00 -1.0000e+00
<mgrwt>
<rscale>  0 0.76088812E+03</rscale>
<asrwt>0</asrwt>
<pdfrwt beam="1">  1        2 0.12163415E+00 0.76088812E+03</pdfrwt>
<pdfrwt beam="2">  1       -2 0.28164328E-01 0.76088812E+03</pdfrwt>
<totfact> 0.47446939E+02</totfact>
</mgrwt>
<rwgt>
<wgt id='morphing_basis_vector_1'> +2.3207306e-04 </wgt>
<wgt id='morphing_basis_vector_2'> +2.7950905e-04 </wgt>
<wgt id='morphing_basis_vector_3'> +1.8327565e-04 </wgt>
<wgt id='morphing_basis_vector_4'> +1.4620398e-05 </wgt>
<wgt id='morphing_basis_vector_5'> +1.2606252e-04 </wgt>
</rwgt>
</event>
<event>
 4      1 +2.9741700e-06 8.05617900e+02 7.81860800e-03 8.89524900e-02
        2 -1    0    0  501    0 +0.0000000000e+00 +0.0000000000e+00 +6.6515901109e+02 6.6515901109e+02 0.0000000000e+00 0.0000e+00 -1.0000e+00
       -2 -1    0    0    0  501 -0.0000000000e+00 -0.0000000000e+00 -2.4393425052e+02 2.4393425052e+02 0.0000000000e+00 0.0000e+00 1.0000e+00
      -13  1    1    2    0    0 -1.0339949505e+02 +3.2359969951e+02 -3.3629131768e+01 3.4137829398e+02 0.0000000000e+00 0.0000e+00 1.0000e+00
       13  1    1    2    0    0 +1.0339949505e+02 -3.2359969951e+02 +4.5485389233e+02 5.6771496763e+02 0.0000000000e+00 0.0000e+00 -1.0000e+00
<mgrwt>
<rscale>  0 0.80561794E+03</rscale>
<asrwt>0</asrwt>
<pdfrwt beam="1">  1        2 0.10233215E+00 0.80561794E+03</pdfrwt>
<pdfrwt beam="2">  1       -2 0.37528347E-01 0.80561794E+03</pdfrwt>
<totfact> 0.35094804E+02</totfact>
</mgrwt>
<rwgt>
<wgt id='morphing_basis_vector_1'> +2.1481863e-04 </wgt>
<wgt id='morphing_basis_vector_2'> +1.3135390e-04 </wgt>
<wgt id='morphing_basis_vector_3'> +1.9323533e-04 </wgt>
<wgt id='morphing_basis_vector_4'> +1.0563952e-04 </wgt>
<wgt id='morphing_basis_vector_5'> +1.6711342e-04 </wgt>
</rwgt>
</event>
<event>
 4      1 +2.9741700e-06 7.68951400e+02 7.81860800e-03 8.94208600e-02
        2 -1    0    0  501    0 +0.0000000000e+00 +0.0000000000e+00 +4.0060426298e+02 4.0060426298e+02 0.0000000000e+00 0.0000e+00 -1.0000e+00
       -2 -1    0    0    0  501 -0.0000000000e+00 -0.0000000000e+00 -3.6899644388e+02 3.6899644388e+02 0.0000000000e+00 0.0000e+00 1.0000e+00
      -13  1    1    2    0    0 +3.6549288168e+02 -9.6740184544e+01 +8.5704412519e+01 3.8767119597e+02 0.0000000000e+00 0.0000e+00 1.0000e+00
       13  1    1    2    0    0 -3.6549288168e+02 +9.6740184544e+01 -5.4096593419e+01 3.8192951088e+02 0.0000000000e+00 0.0000e+00 -1.0000e+00
<mgrwt>
<rscale>  0 0.76895136E+03</rscale>
<asrwt>0</asrwt>
<pdfrwt beam="1">  1        2 0.61631425E-01 0.76895136E+03</pdfrwt>
<pdfrwt beam="2">  1       -2 0.56768684E-01 0.76895136E+03</pdfrwt>
<totfact> 0.28474118E+02</totfact>
</mgrwt>
<rwgt>
<wgt id='morphing_basis_vector_1'> +1.9363427e-04 </wgt>
<wgt id='morphing_basis_vector_2'> +1.4540600e-04 </wgt>
<wgt id='morphing_basis_vector_3'> +1.6709567e-04 </wgt>
<wgt id='morphing_basis_vector_4'> +7.1907923e-05 </wgt>
<wgt id='morphing_basis_vector_5'> +1.3444926e-04 </wgt>
</rwgt>
</event>
<event>
 4      1 +2.9741700e-06 7.92738000e+02 7.81860800e-03 8.91139500e-02
        2 -1    0    0  501    0 +0.0000000000e+00 +0.0000000000e+00 +8.3460217417e+02 8.3460217417e+02 0.0000000000e+00 0.0000e+00 -1.0000e+00
       -2 -1    0    0    0  501 -0.0000000000e+00 -0.0000000000e+00 -1.8824344079e+02 1.8824344079e+02 0.0000000000e+00 0.0000e+00 1.0000e+00
      -13  1    1    2    0    0 +1.9725018499e+02 +1.2914736939e+02 -8.7932359551e+01 2.5163222837e+02 0.0000000000e+00 0.0000e+00 1.0000e+00
       13  1    1    2    0    0 -1.9725018499e+02 -1.2914736939e+02 +7.3429109293e+02 7.7121338659e+02 0.0000000000e+00 0.0000e+00 -1.0000e+00
<mgrwt>
<rscale>  0 0.79273800E+03</rscale>
<asrwt>0</asrwt>
<pdfrwt beam="1">  1        2 0.12840033E+00 0.79273800E+03</pdfrwt>
<pdfrwt beam="2">  1       -2 0.28960530E-01 0.79273800E+03</pdfrwt>
<totfact> 0.42082620E+02</totfact>
</mgrwt>
<rwgt>
<wgt id='morphing_basis_vector_1'> +2.0228452e-04 </wgt>
<wgt id='morphing_basis_vector_2'> +1.2181644e-04 </wgt>
<wgt id='morphing_basis_vector_3'> +1.8107787e-04 </wgt>
<wgt id='morphing_basis_vector_4'> +9.9017595e-05 </wgt>
<wgt id='morphing_basis_vector_5'> +1.5529234e-04 </wgt>
</rwgt>
</event>
<event>
 4      1 +2.9741700e-06 7.65913300e+02 7.81860800e-03 8.94609100e-02
        2 -1    0    0  501    0 +0.0000000000e+00 +0.0000000000e+00 +1.2558244571e+03 1.2558244571e+03 0.0000000000e+00 0.0000e+00 -1.0000e+00
       -2 -1    0    0    0  501 -0.0000000000e+00 -0.0000000000e+00 -1.1678048471e+02 1.1678048471e+02 0.0000000000e+00 0.0000e+00 1.0000e+00
      -13  1    1    2    0    0 -3.6791047332e+02 +3.6688006948e+01 +7.4829986442e+02 8.3465969911e+02 0.0000000000e+00 0.0000e+00 -1.0000e+00
       13  1    1    2    0    0 +3.6791047332e+02 -3.6688006948e+01 +3.9074410798e+02 5.3794524271e+02 0.0000000000e+00 0.0000e+00 1.0000e+00
<mgrwt>
<rscale>  0 0.76591328E+03</rscale>
<asrwt>0</asrwt>
<pdfrwt beam="1">  1        2 0.19320375E+00 0.76591328E+03</pdfrwt>
<pdfrwt beam="2">  1       -2 0.17966229E-01 0.76591328E+03</pdfrwt>
<totfact> 0.52243612E+02</totfact>
</mgrwt>
<rwgt>
<wgt id='morphing_basis_vector_1'> +1.9452000e-04 </wgt>
<wgt id='morphing_basis_vector_2'> +1.5424002e-04 </wgt>
<wgt id='morphing_basis_vector_3'> +1.6631524e-04 </wgt>
<wgt id='morphing_basis_vector_4'> +6.6382778e-05 </wgt>
<wgt id='morphing_basis_vector_5'> +1.3185759e-04 </wgt>
</rwgt>
</event>
<event>
 4      1 +2.9741700e-06 8.55054800e+02 7.81860800e-03 8.83611600e-02
        2 -1    0    0  501    0 +0.0000000000e+00 +0.0000000000e+00 +4.7758261002e+02 4.7758261002e+02 0.0000000000e+00 0.0000e+00 1.0000e+00
       -2 -1    0    0    0  501 -0.0000000000e+00 -0.0000000000e+00 -3.8271848416e+02 3.8271848416e+02 0.0000000000e+00 0.0000e+00 -1.0000e+00
      -13  1    1    2    0    0 -1.5179374625e+02 +3.7412738703e+02 +1.8889003659e+02 4.4574890807e+02 0.0000000000e+00 0.0000e+00 -1.0000e+00
       13  1    1    2    0    0 +1.5179374625e+02 -3.7412738703e+02 -9.4025910732e+01 4.1455218611e+02 0.0000000000e+00 0.0000e+00 1.0000e+00
<mgrwt>
<rscale>  0 0.85505483E+03</rscale>
<asrwt>0</asrwt>
<pdfrwt beam="1">  1        2 0.73474247E-01 0.85505483E+03</pdfrwt>
<pdfrwt beam="2">  1       -2 0.58879767E-01 0.85505483E+03</pdfrwt>
<totfact> 0.21581435E+02</totfact>
</mgrwt>
<rwgt>
<wgt id='morphing_basis_vector_1'> +2.9344442e-04 </wgt>
<wgt id='morphing_basis_vector_2'> +2.4876910e-04 </wgt>
<wgt id='morphing_basis_vector_3'> +2.6362880e-04 </wgt>
<wgt id='morphing_basis_vector_4'> +1.0024299e-04 </wgt>
<wgt id='morphing_basis_vector_5'> +2.1688539e-04 </wgt>
</rwgt>
</event>
<event>
 4      1 +2.9741700e-06 8.47428800e+02 7.81860800e-03 8.84495800e-02
        2 -1    0    0  501    0 +0.0000000000e+00 +0.0000000000e+00 +1.2867365530e+03 1.2867365530e+03 0.0000000000e+00 0.0000e+00 -1.0000e+00
       -2 -1    0    0    0  501 -0.0000000000e+00 -0.0000000000e+00 -1.3952654243e+02 1.3952654243e+02 0.0000000000e+00 0.0000e+00 1.0000e+00
      -13  1    1    2    0    0 +2.1232690407e+02 +2.9110936953e+02 +1.9837020712e+02 4.1131267704e+02 0.0000000000e+00 0.0000e+00 1.0000e+00
       13  1    1    2    0    0 -2.1232690407e+02 -2.9110936953e+02 +9.4883980349e+02 1.0149504184e+03 0.0000000000e+00 0.0000e+00 -1.0000e+00
<mgrwt>
<rscale>  0 0.84742882E+03</rscale>
<asrwt>0</asrwt>
<pdfrwt beam="1">  1        2 0.19795946E+00 0.84742882E+03</pdfrwt>
<pdfrwt beam="2">  1       -2 0.21465623E-01 0.84742882E+03</pdfrwt>
<totfact> 0.37133667E+02</totfact>
</mgrwt>
<rwgt>
<wgt id='morphing_basis_vector_1'> +2.5738835e-04 </wgt>
<wgt id='morphing_basis_vector_2'> +1.5896322e-04 </wgt>
<wgt id='morphing_basis_vector_3'> +2.3565975e-04 </wgt>
<wgt id='morphing_basis_vector_4'> +1.3234477e-04 </wgt>
<wgt id='morphing_basis_vector_5'> +2.1009207e-04 </wgt>
</rwgt>
</event>
<event>
 4      1 +2.9741700e-06 8.95235900e+02 7.81860800e-03 8.79107700e-02
        2 -1    0    0  501    0 +0.0000000000e+00 +0.0000000000e+00 +1.0713811726e+03 1.0713811726e+03 0.0000000000e+00 0.0000e+00 -1.0000e+00
       -2 -1    0    0    0  501 -0.0000000000e+00 -0.0000000000e+00 -1.8701263019e+02 1.8701263019e+02 0.0000000000e+00 0.0000e+00 1.0000e+00
      -13  1    1    2    0    0 -5.8852092906e+01 +2.4318674592e+02 -7.9536614444e+01 2.6254415870e+02 0.0000000000e+00 0.0000e+00 1.0000e+00
       13  1    1    2    0    0 +5.8852092906e+01 -2.4318674592e+02 +9.6390515680e+02 9.9584964404e+02 0.0000000000e+00 0.0000e+00 -1.0000e+00
<mgrwt>
<rscale>  0 0.89523586E+03</rscale>
<asrwt>0</asrwt>
<pdfrwt beam="1">  1        2 0.16482787E+00 0.89523586E+03</pdfrwt>
<pdfrwt beam="2">  1       -2 0.28771175E-01 0.89523586E+03</pdfrwt>
<totfact> 0.29938311E+02</totfact>
</mgrwt>
<rwgt>
<wgt id='morphing_basis_vector_1'> +3.1267942e-04 </wgt>
<wgt id='morphing_basis_vector_2'> +1.9234668e-04 </wgt>
<wgt id='morphing_basis_vector_3'> +2.9159884e-04 </wgt>
<wgt id='morphing_basis_vector_4'> +1.7017099e-04 </wgt>
<wgt id='morphing_basis_vector_5'> +2.6851145e-04 </wgt>
</rwgt>
</event>
<event>
 4      1 +2.9741700e-06 7.67450500e+02 7.81860800e-03 8.94406200e-02
        2 -1    0    0  501    0 +0.0000000000e+00 +0.0000000000e+00 +1.5939391560e+03 1.5939391560e+03 0.0000000000e+00 0.0000e+00 -1.0000e+00
       -2 -1    0    0    0  501 -0.0000000000e+00 -0.0000000000e+00 -9.2378104941e+01 9.2378104941e+01 0.0000000000e+00 0.0000e+00 1.0000e+00
      -13  1    1    2    0    0 -8.3594958858e+01 -2.6492663446e+02 +1.6913611765e+02 3.2524031897e+02 0.0000000000e+00 0.0000e+00 1.0000e+00
       13  1    1    2    0    0 +8.3594958858e+01 +2.6492663446e+02 +1.3324249334e+03 1.3610769420e+03 0.0000000000e+00 0.0000e+00 -1.0000e+00
<mgrwt>
<rscale>  0 0.76745053E+03</rscale>
<asrwt>0</asrwt>
<pdfrwt beam="1">  1        2 0.24522139E+00 0.76745053E+03</pdfrwt>
<pdfrwt beam="2">  1       -2 0.14212017E-01 0.76745053E+03</pdfrwt>
<totfact> 0.49566629E+02</totfact>
</mgrwt>
<rwgt>
<wgt id='morphing_basis_vector_1'> +1.8060915e-04 </wgt>
<wgt id='morphing_basis_vector_2'> +1.0846476e-04 </wgt>
<wgt id='morphing_basis_vector_3'> +1.5966745e-04 </wgt>
<wgt id='morphing_basis_vector_4'> +8.5323226e-05 </wgt>
<wgt id='morphing_basis_vector_5'> +1.3378105e-04 </wgt>
</rwgt>
</event>
<event>
 4      1 +2.9741700e-06 8.11241400e+02 7.81860800e-03 8.88829900e-02
        2 -1    0    0  501    0 +0.0000000000e+00 +0.0000000000e+00 +1.4066575787e+03 1.4066575787e+03 0.0000000000e+00 0.0000e+00 -1.0000e+00
       -2 -1    0    0    0  501 -0.0000000000e+00 -0.0000000000e+00 -1.1696388748e+02 1.1696388748e+02 0.0000000000e+00 0.0000e+00 1.0000e+00
      -13  1    1    2    0    0 +2.7518851560e+02 +1.8813496099e+02 +2.1082003637e+02 3.9442181785e+02 0.0000000000e+00 0.0000e+00 1.0000e+00
       13  1    1    2    0    0 -2.7518851560e+02 -1.8813496099e+02 +1.0788736548e+03 1.1291996483e+03 0.0000000000e+00 0.0000e+00 -1.0000e+00
<mgrwt>
<rscale>  0 0.81124137E+03</rscale>
<asrwt>0</asrwt>
<pdfrwt beam="1">  1        2 0.21640885E+00 0.81124137E+03</pdfrwt>
<pdfrwt beam="2">  1       -2 0.17994445E-01 0.81124137E+03</pdfrwt>
<totfact> 0.42729524E+02</totfact>
</mgrwt>
<rwgt>
<wgt id='morphing_basis_vector_1'> +2.2006233e-04 </wgt>
<wgt id='morphing_basis_vector_2'> +1.3441462e-04 </wgt>
<wgt id='morphing_basis_vector_3'> +1.9848732e-04 </wgt>
<wgt id='morphing_basis_vector_4'> +1.0915486e-04 </wgt>
<wgt id='morphing_basis_vector_5'> +1.7249451e-04 </wgt>
</rwgt>
</event>
<event>
 4      1 +2.9741700e-06 8.50597000e+02 7.81860800e-03 8.84127300e-02
        2 -1    0    0  501    0 +0.0000000000e+00 +0.0000000000e+00 +1.0542096631e+03 1.0542096631e+03 0.0000000000e+00 0.0000e+00 -1.0000e+00
       -2 -1    0    0    0  501 -0.0000000000e+00 -0.0000000000e+00 -1.7157765856e+02 1.7157765856e+02 0.0000000000e+00 0.0000e+00 1.0000e+00
      -13  1    1    2    0    0 +2.1103884185e+02 -2.9395886752e+01 -8.9109693316e+01 2.3095897552e+02 0.0000000000e+00 0.0000e+00 1.0000e+00
       13  1    1    2    0    0 -2.1103884185e+02 +2.9395886752e+01 +9.7174169781e+02 9.9482834610e+02 0.0000000000e+00 0.0000e+00 -1.0000e+00
<mgrwt>
<rscale>  0 0.85059703E+03</rscale>
<asrwt>0</asrwt>
<pdfrwt beam="1">  1        2 0.16218610E+00 0.85059703E+03</pdfrwt>
<pdfrwt beam="2">  1       -2 0.26396564E-01 0.85059703E+03</pdfrwt>
<totfact> 0.35717669E+02</totfact>
</mgrwt>
<rwgt>
<wgt id='morphing_basis_vector_1'> +2.5994127e-04 </wgt>
<wgt id='morphing_basis_vector_2'> +1.5841038e-04 </wgt>
<wgt id='morphing_basis_vector_3'> +2.3849751e-04 </wgt>
<wgt id='morphing_basis_vector_4'> +1.3579383e-04 </wgt>
<wgt id='morphing_basis_vector_5'> +2.1370354e-04 </wgt>
</rwgt>
</event>
<event>
 4      1 +2.9741700e-06 8.50002700e+02 7.81860800e-03 8.84196300e-02
        2 -1    0    0  501    0 +0.0000000000e+00 +0.0000000000e+00 +1.7782752973e+03 1.7782752973e+03 0.0000000000e+00 0.0000e+00 -1.0000e+00
       -2 -1    0    0    0  501 -0.0000000000e+00 -0.0000000000e+00 -1.0157378716e+02 1.0157378716e+02 0.0000000000e+00 0.0000e+00 1.0000e+00
      -13  1    1    2    0    0 +2.6225170123e+02 -3.2314043262e+02 +6.4771226299e+02 7.6988756947e+02 0.0000000000e+00 0.0000e+00 1.0000e+00
       13  1    1    2    0    0 -2.6225170123e+02 +3.2314043262e+02 +1.0289892472e+03 1.1099615150e+03 0.0000000000e+00 0.0000e+00 -1.0000e+00
<mgrwt>
<rscale>  0 0.85000272E+03</rscale>
<asrwt>0</asrwt>
<pdfrwt beam="1">  1        2 0.27358079E+00 0.85000272E+03</pdfrwt>
<pdfrwt beam="2">  1       -2 0.15626738E-01 0.85000272E+03</pdfrwt>
<totfact> 0.33488557E+02</totfact>
</mgrwt>
<rwgt>
<wgt id='morphing_basis_vector_1'> +2.6349448e-04 </wgt>
<wgt id='morphing_basis_vector_2'> +1.7082926e-04 </wgt>
<wgt id='morphing_basis_vector_3'> +2.4077600e-04 </wgt>
<wgt id='morphing_basis_vector_4'> +1.2970655e-04 </wgt>
<wgt id='morphing_basis_vector_5'> +2.1276005e-04 </wgt>
</rwgt>
</event>
<event>
 4      1 +2.9741700e-06 8.78456300e+02 7.81860800e-03 8.80957600e-02
        2 -1    0    0  501    0 +0.0000000000e+00 +0.0000000000e+00 +2.2295997364e+03 2.2295997364e+03 0.0000000000e+00 0.0000e+00 1.0000e+00
       -2 -1    0    0    0  501 -0.0000000000e+00 -0.0000000000e+00 -8.6527357107e+01 8.6527357107e+01 0.0000000000e+00 0.0000e+00 -1.0000e+00
      -13  1    1    2    0    0 -8.8975793584e+01 +4.2023944383e+02 +8.2983873377e+02 9.3442506712e+02 0.0000000000e+00 0.0000e+00 -1.0000e+00
       13  1    1    2    0    0 +8.8975793584e+01 -4.2023944383e+02 +1.3132336455e+03 1.3817020264e+03 0.0000000000e+00 0.0000e+00 1.0000e+00
<mgrwt>
<rscale>  0 0.87845631E+03</rscale>
<asrwt>0</asrwt>
<pdfrwt beam="1">  1        2 0.34301530E+00 0.87845631E+03</pdfrwt>
<pdfrwt beam="2">  1       -2 0.13311903E-01 0.87845631E+03</pdfrwt>
<totfact> 0.24298502E+02</totfact>
</mgrwt>
<rwgt>
<wgt id='morphing_basis_vector_1'> +2.9657361e-04 </wgt>
<wgt id='morphing_basis_vector_2'> +1.9303901e-04 </wgt>
<wgt id='morphing_basis_vector_3'> +2.7413254e-04 </wgt>
<wgt id='morphing_basis_vector_4'> +1.5016972e-04 </wgt>
<wgt id='morphing_basis_vector_5'> +2.4651614e-04 </wgt>
</rwgt>
</event>
<event>
 4      1 +2.9741700e-06 7.89424300e+02 7.81860800e-03 8.91560100e-02
        2 -1    0    0  501    0 +0.0000000000e+00 +0.0000000000e+00 +1.8771022848e+02 1.8771022848e+02 0.0000000000e+00 0.0000e+00 1.0000e+00
       -2 -1    0    0    0  501 -0.0000000000e+00 -0.0000000000e+00 -8.2999039398e+02 8.2999039398e+02 0.0000000000e+00 0.0000e+00 -1.0000e+00
      -13  1    1    2    0    0 +1.8381768465e+02 -2.6207142093e+02 -2.3436265227e+01 3.2096671072e+02 0.0000000000e+00 0.0000e+00 1.0000e+00
       13  1    1    2    0    0 -1.8381768465e+02 +2.6207142093e+02 -6.1884390028e+02 6.9673391174e+02 0.0000000000e+00 0.0000e+00 -1.0000e+00
<mgrwt>
<rscale>  0 0.78942431E+03</rscale>
<asrwt>0</asrwt>
<pdfrwt beam="1">  1        2 0.28878497E-01 0.78942431E+03</pdfrwt>
<pdfrwt beam="2">  1       -2 0.12769083E+00 0.78942431E+03</pdfrwt>
<totfact> 0.10406356E+02</totfact>
</mgrwt>
<rwgt>
<wgt id='morphing_basis_vector_1'> +2.4343440e-04 </wgt>
<wgt id='morphing_basis_vector_2'> +2.5513521e-04 </wgt>
<wgt id='morphing_basis_vector_3'> +2.0345199e-04 </wgt>
<wgt id='morphing_basis_vector_4'> +4.2331695e-05 </wgt>
<wgt id='morphing_basis_vector_5'> +1.5007850e-04 </wgt>
</rwgt>
</event>
<event>
 4      1 +2.9741700e-06 7.58560300e+02 7.81860800e-03 8.95586600e-02
        2 -1    0    0  501    0 +0.0000000000e+00 +0.0000000000e+00 +1.5652004054e+03 1.5652004054e+03 0.0000000000e+00 0.0000e+00 1.0000e+00
       -2 -1    0    0    0  501 -0.0000000000e+00 -0.0000000000e+00 -9.1907345689e+01 9.1907345689e+01 0.0000000000e+00 0.0000e+00 -1.0000e+00
      -13  1    1    2    0    0 +2.5201789441e+02 +2.1530523096e+02 +1.1393619438e+03 1.1865980787e+03 0.0000000000e+00 0.0000e+00 -1.0000e+00
       13  1    1    2    0    0 -2.5201789441e+02 -2.1530523096e+02 +3.3393111597e+02 4.7050967237e+02 0.0000000000e+00 0.0000e+00 1.0000e+00
<mgrwt>
<rscale>  0 0.75856025E+03</rscale>
<asrwt>0</asrwt>
<pdfrwt beam="1">  1        2 0.24080004E+00 0.75856025E+03</pdfrwt>
<pdfrwt beam="2">  1       -2 0.14139593E-01 0.75856025E+03</pdfrwt>
<totfact> 0.51856020E+02</totfact>
</mgrwt>
<rwgt>
<wgt id='morphing_basis_vector_1'> +2.0283590e-04 </wgt>
<wgt id='morphing_basis_vector_2'> +1.9431973e-04 </wgt>
<wgt id='morphing_basis_vector_3'> +1.6738242e-04 </wgt>
<wgt id='morphing_basis_vector_4'> +4.6105358e-05 </wgt>
<wgt id='morphing_basis_vector_5'> +1.2547520e-04 </wgt>
</rwgt>
</event>
<event>
 4      1 +2.9741700e-06 7.95304500e+02 7.81860800e-03 8.90815200e-02
        2 -1    0    0  501    0 +0.0000000000e+00 +0.0000000000e+00 +8.7602565921e+02 8.7602565921e+02 0.0000000000e+00 0.0000e+00 1.0000e+00
       -2 -1    0    0    0  501 -0.0000000000e+00 -0.0000000000e+00 -1.8050533676e+02 1.8050533676e+02 0.0000000000e+00 0.0000e+00 -1.0000e+00
      -13  1    1    2    0    0 +2.1249329487e+02 +1.8936981919e+02 -2.1143144895e+01 2.8541436782e+02 0.0000000000e+00 0.0000e+00 -1.0000e+00
       13  1    1    2    0    0 -2.1249329487e+02 -1.8936981919e+02 +7.1666346735e+02 7.7111662815e+02 0.0000000000e+00 0.0000e+00 1.0000e+00
<mgrwt>
<rscale>  0 0.79530449E+03</rscale>
<asrwt>0</asrwt>
<pdfrwt beam="1">  1        2 0.13477318E+00 0.79530449E+03</pdfrwt>
<pdfrwt beam="2">  1       -2 0.27770052E-01 0.79530449E+03</pdfrwt>
<totfact> 0.42486005E+02</totfact>
</mgrwt>
<rwgt>
<wgt id='morphing_basis_vector_1'> +2.0476670e-04 </wgt>
<wgt id='morphing_basis_vector_2'> +1.2377123e-04 </wgt>
<wgt id='morphing_basis_vector_3'> +1.8346828e-04 </wgt>
<wgt id='morphing_basis_vector_4'> +1.0027463e-04 </wgt>
<wgt id='morphing_basis_vector_5'> +1.5759687e-04 </wgt>
</rwgt>
</event>
<event>
 4      1 +2.9741700e-06 8.68103100e+02 7.81860800e-03 8.82120900e-02
        2 -1    0    0  501    0 +0.0000000000e+00 +0.0000000000e+00 +9.4161044652e+02 9.4161044652e+02 0.0000000000e+00 0.0000e+00 1.0000e+00
       -2 -1    0    0    0  501 -0.0000000000e+00 -0.0000000000e+00 -2.0008351931e+02 2.0008351931e+02 0.0000000000e+00 0.0000e+00 -1.0000e+00
      -13  1    1    2    0    0 +1.5161585886e+02 -2.0511740599e+02 -9.1118245646e+01 2.7085614925e+02 0.0000000000e+00 0.0000e+00 -1.0000e+00
       13  1    1    2    0    0 -1.5161585886e+02 +2.0511740599e+02 +8.3264517286e+02 8.7083781658e+02 0.0000000000e+00 0.0000e+00 1.0000e+00
<mgrwt>
<rscale>  0 0.86810306E+03</rscale>
<asrwt>0</asrwt>
<pdfrwt beam="1">  1        2 0.14486314E+00 0.86810306E+03</pdfrwt>
<pdfrwt beam="2">  1       -2 0.30782080E-01 0.86810306E+03</pdfrwt>
<totfact> 0.32025685E+02</totfact>
</mgrwt>
<rwgt>
<wgt id='morphing_basis_vector_1'> +2.7977444e-04 </wgt>
<wgt id='morphing_basis_vector_2'> +1.7126662e-04 </wgt>
<wgt id='morphing_basis_vector_3'> +2.5839464e-04 </wgt>
<wgt id='morphing_basis_vector_4'> +1.4853602e-04 </wgt>
<wgt id='morphing_basis_vector_5'> +2.3411961e-04 </wgt>
</rwgt>
</event>
<event>
 4      1 +2.9741700e-06 8.35991800e+02 7.81860800e-03 8.85840500e-02
        2 -1    0    0  501    0 +0.0000000000e+00 +0.0000000000e+00 +1.8536588243e+03 1.8536588243e+03 0.0000000000e+00 0.0000e+00 1.0000e+00
       -2 -1    0    0    0  501 -0.0000000000e+00 -0.0000000000e+00 -9.4257136338e+01 9.4257136338e+01 0.0000000000e+00 0.0000e+00 -1.0000e+00
      -13  1    1    2    0    0 +3.5685238381e+02 -2.1764591203e+02 +8.8595552889e+02 9.7960735298e+02 0.0000000000e+00 0.0000e+00 -1.0000e+00
       13  1    1    2    0    0 -3.5685238381e+02 +2.1764591203e+02 +8.7344615907e+02 9.6830860764e+02 0.0000000000e+00 0.0000e+00 1.0000e+00
<mgrwt>
<rscale>  0 0.83599180E+03</rscale>
<asrwt>0</asrwt>
<pdfrwt beam="1">  1        2 0.28517825E+00 0.83599180E+03</pdfrwt>
<pdfrwt beam="2">  1       -2 0.14501099E-01 0.83599180E+03</pdfrwt>
<totfact> 0.34394168E+02</totfact>
</mgrwt>
<rwgt>
<wgt id='morphing_basis_vector_1'> +2.5307372e-04 </wgt>
<wgt id='morphing_basis_vector_2'> +1.7523286e-04 </wgt>
<wgt id='morphing_basis_vector_3'> +2.2872847e-04 </wgt>
<wgt id='morphing_basis_vector_4'> +1.1409381e-04 </wgt>
<wgt id='morphing_basis_vector_5'> +1.9713375e-04 </wgt>
</rwgt>
</event>
<event>
 4      1 +2.9741700e-06 7.97925000e+02 7.81860800e-03 8.90485400e-02
        2 -1    0    0  501    0 +0.0000000000e+00 +0.0000000000e+00 +2.8970515159e+02 2.8970515159e+02 0.0000000000e+00 0.0000e+00 -1.0000e+00
       -2 -1    0    0    0  501 -0.0000000000e+00 -0.0000000000e+00 -5.4942442348e+02 5.4942442348e+02 0.0000000000e+00 0.0000e+00 1.0000e+00
      -13  1    1    2    0    0 +1.5297970906e+01 -2.8889413094e+02 -4.1877786595e+02 5.0898796431e+02 0.0000000000e+00 0.0000e+00 1.0000e+00
       13  1    1    2    0    0 -1.5297970906e+01 +2.8889413094e+02 +1.5905859406e+02 3.3014161075e+02 0.0000000000e+00 0.0000e+00 -1.0000e+00
<mgrwt>
<rscale>  0 0.79792502E+03</rscale>
<asrwt>0</asrwt>
<pdfrwt beam="1">  1        2 0.44570023E-01 0.79792502E+03</pdfrwt>
<pdfrwt beam="2">  1       -2 0.84526834E-01 0.79792502E+03</pdfrwt>
<totfact> 0.17447578E+02</totfact>
</mgrwt>
<rwgt>
<wgt id='morphing_basis_vector_1'> +2.0718462e-04 </wgt>
<wgt id='morphing_basis_vector_2'> +1.2535845e-04 </wgt>
<wgt id='morphing_basis_vector_3'> +1.8585200e-04 </wgt>
<wgt id='morphing_basis_vector_4'> +1.0174636e-04 </wgt>
<wgt id='morphing_basis_vector_5'> +1.5998254e-04 </wgt>
</rwgt>
</event>
<event>
 4      1 +2.9741700e-06 7.60683500e+02 7.81860800e-03 8.95303200e-02
        2 -1    0    0  501    0 +0.0000000000e+00 +0.0000000000e+00 +1.3266114629e+02 1.3266114629e+02 0.0000000000e+00 0.0000e+00 -1.0000e+00
       -2 -1    0    0    0  501 -0.0000000000e+00 -0.0000000000e+00 -1.0904462783e+03 1.0904462783e+03 0.0000000000e+00 0.0000e+00 1.0000e+00
      -13  1    1    2    0    0 +2.8367793463e+02 +6.9196029960e+01 -8.7076857128e+02 9.1842210659e+02 0.0000000000e+00 0.0000e+00 1.0000e+00
       13  1    1    2    0    0 -2.8367793463e+02 -6.9196029960e+01 -8.7016560718e+01 3.0468531799e+02 0.0000000000e+00 0.0000e+00 -1.0000e+00
<mgrwt>
<rscale>  0 0.76068352E+03</rscale>
<asrwt>0</asrwt>
<pdfrwt beam="1">  1        2 0.20409407E-01 0.76068352E+03</pdfrwt>
<pdfrwt beam="2">  1       -2 0.16776097E+00 0.76068352E+03</pdfrwt>
<totfact> 0.72646176E+01</totfact>
</mgrwt>
<rwgt>
<wgt id='morphing_basis_vector_1'> +1.7518498e-04 </wgt>
<wgt id='morphing_basis_vector_2'> +1.0526269e-04 </wgt>
<wgt id='morphing_basis_vector_3'> +1.5430690e-04 </wgt>
<wgt id='morphing_basis_vector_4'> +8.1841959e-05 </wgt>
<wgt id='morphing_basis_vector_5'> +1.2840585e-04 </wgt>
</rwgt>
</event>
<event>
 4      1 +2.9741700e-06 8.17534200e+02 7.81860800e-03 8.88059300e-02
        2 -1    0    0  501    0 +0.0000000000e+00 +0.0000000000e+00 +6.8232805473e+02 6.8232805473e+02 0.0000000000e+00 0.0000e+00 1.0000e+00
       -2 -1    0    0    0  501 -0.0000000000e+00 -0.0000000000e+00 -2.4488300999e+02 2.4488300999e+02 0.0000000000e+00 0.0000e+00 -1.0000e+00
      -13  1    1    2    0    0 +6.9342097191e+01 +3.1627920329e+02 +5.0169308242e+02 5.9710703381e+02 0.0000000000e+00 0.0000e+00 1.0000e+00
       13  1    1    2    0    0 -6.9342097191e+01 -3.1627920329e+02 -6.4248037678e+01 3.3010403091e+02 0.0000000000e+00 0.0000e+00 -1.0000e+00
<mgrwt>
<rscale>  0 0.81753421E+03</rscale>
<asrwt>0</asrwt>
<pdfrwt beam="1">  1        2 0.10497355E+00 0.81753421E+03</pdfrwt>
<pdfrwt beam="2">  1       -2 0.37674309E-01 0.81753421E+03</pdfrwt>
<totfact> 0.33768340E+02</totfact>
</mgrwt>
<rwgt>
<wgt id='morphing_basis_vector_1'> +2.7871861e-04 </wgt>
<wgt id='morphing_basis_vector_2'> +2.9901388e-04 </wgt>
<wgt id='morphing_basis_vector_3'> +2.3785632e-04 </wgt>
<wgt id='morphing_basis_vector_4'> +4.5055749e-05 </wgt>
<wgt id='morphing_basis_vector_5'> +1.7561123e-04 </wgt>
</rwgt>
</event>
<event>
 4      1 +2.9741700e-06 7.66907500e+02 7.81860800e-03 8.94477900e-02
        2 -1    0    0  501    0 +0.0000000000e+00 +0.0000000000e+00 +1.2230801181e+03 1.2230801181e+03 0.0000000000e+00 0.0000e+00 -1.0000e+00
       -2 -1    0    0    0  501 -0.0000000000e+00 -0.0000000000e+00 -1.2021842676e+02 1.2021842676e+02 0.0000000000e+00 0.0000e+00 1.0000e+00
      -13  1    1    2    0    0 +4.1209159341e+01 -2.5396931052e+02 +5.3421158370e+01 2.6277828233e+02 0.0000000000e+00 0.0000e+00 1.0000e+00
       13  1    1    2    0    0 -4.1209159341e+01 +2.5396931052e+02 +1.0494405330e+03 1.0805202625e+03 0.0000000000e+00 0.0000e+00 -1.0000e+00
<mgrwt>
<rscale>  0 0.76690747E+03</rscale>
<asrwt>0</asrwt>
<pdfrwt beam="1">  1        2 0.18816616E+00 0.76690747E+03</pdfrwt>
<pdfrwt beam="2">  1       -2 0.18495143E-01 0.76690747E+03</pdfrwt>
<totfact> 0.51997825E+02</totfact>
</mgrwt>
<rwgt>
<wgt id='morphing_basis_vector_1'> +1.8008040e-04 </wgt>
<wgt id='morphing_basis_vector_2'> +1.0793293e-04 </wgt>
<wgt id='morphing_basis_vector_3'> +1.5918588e-04 </wgt>
<wgt id='morphing_basis_vector_4'> +8.5146199e-05 </wgt>
<wgt id='morphing_basis_vector_5'> +1.3334788e-04 </wgt>
</rwgt>
</event>
<event>
 4      1 +2.9741700e-06 8.37116600e+02 7.81860800e-03 8.85707300e-02
        2 -1    0    0  501    0 +0.0000000000e+00 +0.0000000000e+00 +2.9218513475e+02 2.9218513475e+02 0.0000000000e+00 0.0000e+00 -1.0000e+00
       -2 -1    0    0    0  501 -0.0000000000e+00 -0.0000000000e+00 -5.9958925745e+02 5.9958925745e+02 0.0000000000e+00 0.0000e+00 1.0000e+00
      -13  1    1    2    0    0 +1.9489996941e+02 -3.6241882050e+02 -7.2169438220e+01 4.1778203329e+02 0.0000000000e+00 0.0000e+00 1.0000e+00
       13  1    1    2    0    0 -1.9489996941e+02 +3.6241882050e+02 -2.3523468448e+02 4.7399235892e+02 0.0000000000e+00 0.0000e+00 -1.0000e+00
<mgrwt>
<rscale>  0 0.83711664E+03</rscale>
<asrwt>0</asrwt>
<pdfrwt beam="1">  1        2 0.44951559E-01 0.83711664E+03</pdfrwt>
<pdfrwt beam="2">  1       -2 0.92244501E-01 0.83711664E+03</pdfrwt>
<totfact> 0.14076977E+02</totfact>
</mgrwt>
<rwgt>
<wgt id='morphing_basis_vector_1'> +2.6184627e-04 </wgt>
<wgt id='morphing_basis_vector_2'> +1.9918445e-04 </wgt>
<wgt id='morphing_basis_vector_3'> +2.3503234e-04 </wgt>
<wgt id='morphing_basis_vector_4'> +1.0475709e-04 </wgt>
<wgt id='morphing_basis_vector_5'> +1.9786058e-04 </wgt>
</rwgt>
</event>
<event>
 4      1 +2.9741700e-06 8.04248900e+02 7.81860800e-03 8.89695000e-02
        2 -1    0    0  501    0 +0.0000000000e+00 +0.0000000000e+00 +1.8138410592e+02 1.8138410592e+02 0.0000000000e+00 0.0000e+00 1.0000e+00
       -2 -1    0    0    0  501 -0.0000000000e+00 -0.0000000000e+00 -8.9150085740e+02 8.9150085740e+02 0.0000000000e+00 0.0000e+00 -1.0000e+00
      -13  1    1    2    0    0 +1.4912419261e+02 +1.5543216569e+02 -8.0805015419e+02 8.3626684415e+02 0.0000000000e+00 0.0000e+00 -1.0000e+00
       13  1    1    2    0    0 -1.4912419261e+02 -1.5543216569e+02 +9.7933402698e+01 2.3661811917e+02 0.0000000000e+00 0.0000e+00 1.0000e+00
<mgrwt>
<rscale>  0 0.80424893E+03</rscale>
<asrwt>0</asrwt>
<pdfrwt beam="1">  1        2 0.27905247E-01 0.80424893E+03</pdfrwt>
<pdfrwt beam="2">  1       -2 0.13715398E+00 0.80424893E+03</pdfrwt>
<totfact> 0.89218235E+01</totfact>
</mgrwt>
<rwgt>
<wgt id='morphing_basis_vector_1'> +2.1284141e-04 </wgt>
<wgt id='morphing_basis_vector_2'> +1.2842646e-04 </wgt>
<wgt id='morphing_basis_vector_3'> +1.9153908e-04 </wgt>
<wgt id='morphing_basis_vector_4'> +1.0570535e-04 </wgt>
<wgt id='morphing_basis_vector_5'> +1.6586122e-04 </wgt>
</rwgt>
</event>
<event>
 4      1 +2.9741700e-06 8.42929300e+02 7.81860800e-03 8.85022200e-02
        2 -1    0    0  501    0 +0.0000000000e+00 +0.0000000000e+00 +1.5312361519e+03 1.5312361519e+03 0.0000000000e+00 0.0000e+00 1.0000e+00
       -2 -1    0    0    0  501 -0.0000000000e+00 -0.0000000000e+00 -1.1600592105e+02 1.1600592105e+02 0.0000000000e+00 0.0000e+00 -1.0000e+00
      -13  1    1    2    0    0 -3.0550400226e+02 -2.5176918557e+02 +4.2502010732e+02 5.8082915718e+02 0.0000000000e+00 0.0000e+00 -1.0000e+00
       13  1    1    2    0    0 +3.0550400226e+02 +2.5176918557e+02 +9.9021012356e+02 1.0664129158e+03 0.0000000000e+00 0.0000e+00 1.0000e+00
<mgrwt>
<rscale>  0 0.84292932E+03</rscale>
<asrwt>0</asrwt>
<pdfrwt beam="1">  1        2 0.23557478E+00 0.84292932E+03</pdfrwt>
<pdfrwt beam="2">  1       -2 0.17847066E-01 0.84292932E+03</pdfrwt>
<totfact> 0.36863163E+02</totfact>
</mgrwt>
<rwgt>
<wgt id='morphing_basis_vector_1'> +2.5387759e-04 </wgt>
<wgt id='morphing_basis_vector_2'> +1.5995385e-04 </wgt>
<wgt id='morphing_basis_vector_3'> +2.3171322e-04 </wgt>
<wgt id='morphing_basis_vector_4'> +1.2743735e-04 </wgt>
<wgt id='morphing_basis_vector_5'> +2.0503537e-04 </wgt>
</rwgt>
</event>
<event>
 4      1 +2.9741700e-06 8.35672300e+02 7.81860800e-03 8.85878400e-02
        2 -1    0    0  501    0 +0.0000000000e+00 +0.0000000000e+00 +1.9769226500e+03 1.9769226500e+03 0.0000000000e+00 0.0000e+00 1.0000e+00
       -2 -1    0    0    0  501 -0.0000000000e+00 -0.0000000000e+00 -8.8312525660e+01 8.8312525660e+01 0.0000000000e+00 0.0000e+00 -1.0000e+00
      -13  1    1    2    0    0 -1.5182007256e+02 -3.8332086840e+02 +1.1119710743e+03 1.1859443042e+03 0.0000000000e+00 0.0000e+00 -1.0000e+00
       13  1    1    2    0    0 +1.5182007256e+02 +3.8332086840e+02 +7.7663905006e+02 8.7929087148e+02 0.0000000000e+00 0.0000e+00 1.0000e+00
<mgrwt>
<rscale>  0 0.83567226E+03</rscale>
<asrwt>0</asrwt>
<pdfrwt beam="1">  1        2 0.30414191E+00 0.83567226E+03</pdfrwt>
<pdfrwt beam="2">  1       -2 0.13586544E-01 0.83567226E+03</pdfrwt>
<totfact> 0.32665905E+02</totfact>
</mgrwt>
<rwgt>
<wgt id='morphing_basis_vector_1'> +2.5913552e-04 </wgt>
<wgt id='morphing_basis_vector_2'> +1.9456139e-04 </wgt>
<wgt id='morphing_basis_vector_3'> +2.3267308e-04 </wgt>
<wgt id='morphing_basis_vector_4'> +1.0541407e-04 </wgt>
<wgt id='morphing_basis_vector_5'> +1.9639721e-04 </wgt>
</rwgt>
</event>
<event>
 4      1 +2.9741700e-06 8.44428600e+02 7.81860800e-03 8.84846400e-02
        2 -1    0    0  501    0 +0.0000000000e+00 +0.0000000000e+00 +3.2492028669e+02 3.2492028669e+02 0.0000000000e+00 0.0000e+00 -1.0000e+00
       -2 -1    0    0    0  501 -0.0000000000e+00 -0.0000000000e+00 -5.4864195442e+02 5.4864195442e+02 0.0000000000e+00 0.0000e+00 1.0000e+00
      -13  1    1    2    0    0 -6.3917428884e+01 -3.9012615862e+02 -2.6523601631e+02 4.7606092226e+02 0.0000000000e+00 0.0000e+00 1.0000e+00
       13  1    1    2    0    0 +6.3917428884e+01 +3.9012615862e+02 +4.1514348585e+01 3.9750131885e+02 0.0000000000e+00 0.0000e+00 -1.0000e+00
<mgrwt>
<rscale>  0 0.84442857E+03</rscale>
<asrwt>0</asrwt>
<pdfrwt beam="1">  1        2 0.49987737E-01 0.84442857E+03</pdfrwt>
<pdfrwt beam="2">  1       -2 0.84406454E-01 0.84442857E+03</pdfrwt>
<totfact> 0.15347819E+02</totfact>
</mgrwt>
<rwgt>
<wgt id='morphing_basis_vector_1'> +2.5541928e-04 </wgt>
<wgt id='morphing_basis_vector_2'> +1.6077828e-04 </wgt>
<wgt id='morphing_basis_vector_3'> +2.3328306e-04 </wgt>
<wgt id='morphing_basis_vector_4'> +1.2855578e-04 </wgt>
<wgt id='morphing_basis_vector_5'> +2.0668616e-04 </wgt>
</rwgt>
</event>
<event>
 4      1 +2.9741700e-06 8.45546700e+02 7.81860800e-03 8.84715600e-02
        2 -1    0    0  501    0 +0.0000000000e+00 +0.0000000000e+00 +9.0164821735e+02 9.0164821735e+02 0.0000000000e+00 0.0000e+00 1.0000e+00
       -2 -1    0    0    0  501 -0.0000000000e+00 -0.0000000000e+00 -1.9823398909e+02 1.9823398909e+02 0.0000000000e+00 0.0000e+00 -1.0000e+00
      -13  1    1    2    0    0 -2.6934774737e+01 +3.2446710852e+02 +8.9537590193e-01 3.2558437969e+02 0.0000000000e+00 0.0000e+00 -1.0000e+00
       13  1    1    2    0    0 +2.6934774737e+01 -3.2446710852e+02 +7.0251885235e+02 7.7429782675e+02 0.0000000000e+00 0.0000e+00 1.0000e+00
<mgrwt>
<rscale>  0 0.84554674E+03</rscale>
<asrwt>0</asrwt>
<pdfrwt beam="1">  1        2 0.13871511E+00 0.84554674E+03</pdfrwt>
<pdfrwt beam="2">  1       -2 0.30497537E-01 0.84554674E+03</pdfrwt>
<totfact> 0.34587426E+02</totfact>
</mgrwt>
<rwgt>
<wgt id='morphing_basis_vector_1'> +2.5487791e-04 </wgt>
<wgt id='morphing_basis_vector_2'> +1.5621672e-04 </wgt>
<wgt id='morphing_basis_vector_3'> +2.3329079e-04 </wgt>
<wgt id='morphing_basis_vector_4'> +1.3166807e-04 </wgt>
<wgt id='morphing_basis_vector_5'> +2.0803241e-04 </wgt>
</rwgt>
</event>
<event>
 4      1 +2.9741700e-06 8.48350100e+02 7.81860800e-03 8.84388500e-02
        2 -1    0    0  501    0 +0.0000000000e+00 +0.0000000000e+00 +3.0333416910e+02 3.0333416910e+02 0.0000000000e+00 0.0000e+00 1.0000e+00
       -2 -1    0    0    0  501 -0.0000000000e+00 -0.0000000000e+00 -5.9315591242e+02 5.9315591242e+02 0.0000000000e+00 0.0000e+00 -1.0000e+00
      -13  1    1    2    0    0 +1.0164105150e+01 -4.2165711711e+02 -9.7340627256e+01 4.3286629709e+02 0.0000000000e+00 0.0000e+00 1.0000e+00
       13  1    1    2    0    0 -1.0164105150e+01 +4.2165711711e+02 -1.9248111606e+02 4.6362378442e+02 0.0000000000e+00 0.0000e+00 -1.0000e+00
<mgrwt>
<rscale>  0 0.84835006E+03</rscale>
<asrwt>0</asrwt>
<pdfrwt beam="1">  1        2 0.46666795E-01 0.84835006E+03</pdfrwt>
<pdfrwt beam="2">  1       -2 0.91254756E-01 0.84835006E+03</pdfrwt>
<totfact> 0.13832260E+02</totfact>
</mgrwt>
<rwgt>
<wgt id='morphing_basis_vector_1'> +2.7068750e-04 </wgt>
<wgt id='morphing_basis_vector_2'> +1.9714701e-04 </wgt>
<wgt id='morphing_basis_vector_3'> +2.4519972e-04 </wgt>
<wgt id='morphing_basis_vector_4'> +1.1644992e-04 </wgt>
<wgt id='morphing_basis_vector_5'> +2.1032439e-04 </wgt>
</rwgt>
</event>
<event>
 4      1 +2.9741700e-06 8.33821100e+02 7.81860800e-03 8.86098300e-02
        2 -1    0    0  501    0 +0.0000000000e+00 +0.0000000000e+00 +1.1985813347e+03 1.1985813347e+03 0.0000000000e+00 0.0000e+00 -1.0000e+00
       -2 -1    0    0    0  501 -0.0000000000e+00 -0.0000000000e+00 -1.4501679367e+02 1.4501679367e+02 0.0000000000e+00 0.0000e+00 1.0000e+00
      -13  1    1    2    0    0 +2.2481225742e+02 +3.3804689925e+02 +6.7963509375e+02 7.9165656558e+02 0.0000000000e+00 0.0000e+00 1.0000e+00
       13  1    1    2    0    0 -2.2481225742e+02 -3.3804689925e+02 +3.7392944728e+02 5.5194156278e+02 0.0000000000e+00 0.0000e+00 -1.0000e+00
<mgrwt>
<rscale>  0 0.83382114E+03</rscale>
<asrwt>0</asrwt>
<pdfrwt beam="1">  1        2 0.18439712E+00 0.83382114E+03</pdfrwt>
<pdfrwt beam="2">  1       -2 0.22310277E-01 0.83382114E+03</pdfrwt>
<totfact> 0.39130153E+02</totfact>
</mgrwt>
<rwgt>
<wgt id='morphing_basis_vector_1'> +2.6078649e-04 </wgt>
<wgt id='morphing_basis_vector_2'> +2.0427082e-04 </wgt>
<wgt id='morphing_basis_vector_3'> +2.3307735e-04 </wgt>
<wgt id='morphing_basis_vector_4'> +9.9498023e-05 </wgt>
<wgt id='morphing_basis_vector_5'> +1.9421828e-04 </wgt>
</rwgt>
</event>
<event>
 4      1 +2.9741700e-06 7.66809300e+02 7.81860800e-03 8.94490800e-02
        2 -1    0    0  501    0 +0.0000000000e+00 +0.0000000000e+00 +1.2646921531e+03 1.2646921531e+03 0.0000000000e+00 0.0000e+00 1.0000e+00
       -2 -1    0    0    0  501 -0.0000000000e+00 -0.0000000000e+00 -1.1623313691e+02 1.1623313691e+02 0.0000000000e+00 0.0000e+00 -1.0000e+00
      -13  1    1    2    0    0 -2.9270582822e+02 -1.5949614116e+02 +2.3309183581e+02 4.0675241221e+02 0.0000000000e+00 0.0000e+00 -1.0000e+00
       13  1    1    2    0    0 +2.9270582822e+02 +1.5949614116e+02 +9.1536718042e+02 9.7417287783e+02 0.0000000000e+00 0.0000e+00 1.0000e+00
<mgrwt>
<rscale>  0 0.76680933E+03</rscale>
<asrwt>0</asrwt>
<pdfrwt beam="1">  1        2 0.19456801E+00 0.76680933E+03</pdfrwt>
<pdfrwt beam="2">  1       -2 0.17882022E-01 0.76680933E+03</pdfrwt>
<totfact> 0.52037306E+02</totfact>
</mgrwt>
<rwgt>
<wgt id='morphing_basis_vector_1'> +1.8063628e-04 </wgt>
<wgt id='morphing_basis_vector_2'> +1.0983576e-04 </wgt>
<wgt id='morphing_basis_vector_3'> +1.5943894e-04 </wgt>
<wgt id='morphing_basis_vector_4'> +8.4333406e-05 </wgt>
<wgt id='morphing_basis_vector_5'> +1.3323996e-04 </wgt>
</rwgt>
</event>
<event>
 4      1 +2.9741700e-06 8.30120900e+02 7.81860800e-03 8.86539600e-02
        2 -1    0    0  501    0 +0.0000000000e+00 +0.0000000000e+00 +6.2245382388e+02 6.2245382388e+02 0.0000000000e+00 0.0000e+00 -1.0000e+00
       -2 -1    0    0    0  501 -0.0000000000e+00 -0.0000000000e+00 -2.7676780290e+02 2.7676780290e+02 0.0000000000e+00 0.0000e+00 1.0000e+00
      -13  1    1    2    0    0 +9.6337114458e+01 +3.2995863338e+02 -7.9162977673e+01 3.5273264152e+02 0.0000000000e+00 0.0000e+00 1.0000e+00
       13  1    1    2    0    0 -9.6337114458e+01 -3.2995863338e+02 +4.2484899865e+02 5.4648898526e+02 0.0000000000e+00 0.0000e+00 -1.0000e+00
<mgrwt>
<rscale>  0 0.83012090E+03</rscale>
<asrwt>0</asrwt>
<pdfrwt beam="1">  1        2 0.95762126E-01 0.83012090E+03</pdfrwt>
<pdfrwt beam="2">  1       -2 0.42579662E-01 0.83012090E+03</pdfrwt>
<totfact> 0.30001960E+02</totfact>
</mgrwt>
<rwgt>
<wgt id='morphing_basis_vector_1'> +2.3890184e-04 </wgt>
<wgt id='morphing_basis_vector_2'> +1.4662679e-04 </wgt>
<wgt id='morphing_basis_vector_3'> +2.1722802e-04 </wgt>
<wgt id='morphing_basis_vector_4'> +1.2093401e-04 </wgt>
<wgt id='morphing_basis_vector_5'> +1.9144692e-04 </wgt>
</rwgt>
</event>
<event>
 4      1 +2.9741700e-06 8.96286800e+02 7.81860800e-03 8.78993200e-02
        2 -1    0    0  501    0 +0.0000000000e+00 +0.0000000000e+00 +1.4969798236e+03 1.4969798236e+03 0.0000000000e+00 0.0000e+00 -1.0000e+00
       -2 -1    0    0    0  501 -0.0000000000e+00 -0.0000000000e+00 -1.3415846662e+02 1.3415846662e+02 0.0000000000e+00 0.0000e+00 1.0000e+00
      -13  1    1    2    0    0 +2.3422126943e+02 -2.9213392833e+02 +2.3329514416e+02 4.4116715587e+02 0.0000000000e+00 0.0000e+00 1.0000e+00
       13  1    1    2    0    0 -2.3422126943e+02 +2.9213392833e+02 +1.1295262129e+03 1.1899711344e+03 0.0000000000e+00 0.0000e+00 -1.0000e+00
<mgrwt>
<rscale>  0 0.89628682E+03</rscale>
<asrwt>0</asrwt>
<pdfrwt beam="1">  1        2 0.23030458E+00 0.89628682E+03</pdfrwt>
<pdfrwt beam="2">  1       -2 0.20639765E-01 0.89628682E+03</pdfrwt>
<totfact> 0.30136444E+02</totfact>
</mgrwt>
<rwgt>
<wgt id='morphing_basis_vector_1'> +3.1493944e-04 </wgt>
<wgt id='morphing_basis_vector_2'> +1.9602593e-04 </wgt>
<wgt id='morphing_basis_vector_3'> +2.9366945e-04 </wgt>
<wgt id='morphing_basis_vector_4'> +1.6973825e-04 </wgt>
<wgt id='morphing_basis_vector_5'> +2.6984403e-04 </wgt>
</rwgt>
</event>
<event>
 4      1 +2.9741700e-06 8.45084900e+02 7.81860800e-03 8.84769600e-02
        2 -1    0    0  501    0 +0.0000000000e+00 +0.0000000000e+00 +4.7792115606e+02 4.7792115606e+02 0.0000000000e+00 0.0000e+00 -1.0000e+00
       -2 -1    0    0    0  501 -0.0000000000e+00 -0.0000000000e+00 -3.7358068731e+02 3.7358068731e+02 0.0000000000e+00 0.0000e+00 1.0000e+00
      -13  1    1    2    0    0 +1.6428624811e+02 +3.6283268590e+02 -8.9984661191e+01 4.0833168935e+02 0.0000000000e+00 0.0000e+00 1.0000e+00
       13  1    1    2    0    0 -1.6428624811e+02 -3.6283268590e+02 +1.9432512994e+02 4.4317015401e+02 0.0000000000e+00 0.0000e+00 -1.0000e+00
<mgrwt>
<rscale>  0 0.84508488E+03</rscale>
<asrwt>0</asrwt>
<pdfrwt beam="1">  1        2 0.73526331E-01 0.84508488E+03</pdfrwt>
<pdfrwt beam="2">  1       -2 0.57473952E-01 0.84508488E+03</pdfrwt>
<totfact> 0.22661527E+02</totfact>
</mgrwt>
<rwgt>
<wgt id='morphing_basis_vector_1'> +2.5630904e-04 </wgt>
<wgt id='morphing_basis_vector_2'> +1.6178933e-04 </wgt>
<wgt id='morphing_basis_vector_3'> +2.3411891e-04 </wgt>
<wgt id='morphing_basis_vector_4'> +1.2876286e-04 </wgt>
<wgt id='morphing_basis_vector_5'> +2.0739823e-04 </wgt>
</rwgt>
</event>
<event>
 4      1 +2.9741700e-06 7.71003500e+02 7.81860800e-03 8.93939200e-02
        2 -1    0    0  501    0 +0.0000000000e+00 +0.0000000000e+00 +2.2012942733e+02 2.2012942733e+02 0.0000000000e+00 0.0000e+00 -1.0000e+00
       -2 -1    0    0    0  501 -0.0000000000e+00 -0.0000000000e+00 -6.7511018225e+02 6.7511018225e+02 0.0000000000e+00 0.0000e+00 1.0000e+00
      -13  1    1    2    0    0 +2.8586564565e+02 +2.2053570603e+02 -7.0601877063e+01 3.6788556651e+02 0.0000000000e+00 0.0000e+00 1.0000e+00
       13  1    1    2    0    0 -2.8586564565e+02 -2.2053570603e+02 -3.8437887786e+02 5.2735404308e+02 0.0000000000e+00 0.0000e+00 -1.0000e+00
<mgrwt>
<rscale>  0 0.77100355E+03</rscale>
<asrwt>0</asrwt>
<pdfrwt beam="1">  1        2 0.33866066E-01 0.77100355E+03</pdfrwt>
<pdfrwt beam="2">  1       -2 0.10386310E+00 0.77100355E+03</pdfrwt>
<totfact> 0.14679758E+02</totfact>
</mgrwt>
<rwgt>
<wgt id='morphing_basis_vector_1'> +2.0437720e-04 </wgt>
<wgt id='morphing_basis_vector_2'> +1.7419857e-04 </wgt>
<wgt id='morphing_basis_vector_3'> +1.7363422e-04 </wgt>
<wgt id='morphing_basis_vector_4'> +6.2002966e-05 </wgt>
<wgt id='morphing_basis_vector_5'> +1.3569187e-04 </wgt>
</rwgt>
</event>
<event>
 4      1 +2.9741700e-06 7.59774500e+02 7.81860800e-03 8.95424400e-02
        2 -1    0    0  501    0 +0.0000000000e+00 +0.0000000000e+00 +7.4245347060e+02 7.4245347060e+02 0.0000000000e+00 0.0000e+00 -1.0000e+00
       -2 -1    0    0    0  501 -0.0000000000e+00 -0.0000000000e+00 -1.9437492461e+02 1.9437492461e+02 0.0000000000e+00 0.0000e+00 1.0000e+00
      -13  1    1    2    0    0 -1.3068078703e+02 +2.2541771599e+02 -6.6831216596e+01 2.6899261383e+02 0.0000000000e+00 0.0000e+00 1.0000e+00
       13  1    1    2    0    0 +1.3068078703e+02 -2.2541771599e+02 +6.1490976258e+02 6.6783578139e+02 0.0000000000e+00 0.0000e+00 -1.0000e+00
<mgrwt>
<rscale>  0 0.75977454E+03</rscale>
<asrwt>0</asrwt>
<pdfrwt beam="1">  1        2 0.11422361E+00 0.75977454E+03</pdfrwt>
<pdfrwt beam="2">  1       -2 0.29903835E-01 0.75977454E+03</pdfrwt>
<totfact> 0.46230321E+02</totfact>
</mgrwt>
<rwgt>
<wgt id='morphing_basis_vector_1'> +1.7429876e-04 </wgt>
<wgt id='morphing_basis_vector_2'> +1.0432410e-04 </wgt>
<wgt id='morphing_basis_vector_3'> +1.5351267e-04 </wgt>
<wgt id='morphing_basis_vector_4'> +8.1580834e-05 </wgt>
<wgt id='morphing_basis_vector_5'> +1.2770317e-04 </wgt>
</rwgt>
</event>
<event>
 4      1 +2.9741700e-06 7.78825700e+02 7.81860800e-03 8.92920400e-02
        2 -1    0    0  501    0 +0.0000000000e+00 +0.0000000000e+00 +1.3850554907e+03 1.3850554907e+03 0.0000000000e+00 0.0000e+00 1.0000e+00
       -2 -1    0    0    0  501 -0.0000000000e+00 -0.0000000000e+00 -1.0948469324e+02 1.0948469324e+02 0.0000000000e+00 0.0000e+00 -1.0000e+00
      -13  1    1    2    0    0 +2.2654042431e+02 -3.1153489850e+02 +7.4748278683e+02 8.4089539982e+02 0.0000000000e+00 0.0000e+00 -1.0000e+00
       13  1    1    2    0    0 -2.2654042431e+02 +3.1153489850e+02 +5.2808801062e+02 6.5364478411e+02 0.0000000000e+00 0.0000e+00 1.0000e+00
<mgrwt>
<rscale>  0 0.77882572E+03</rscale>
<asrwt>0</asrwt>
<pdfrwt beam="1">  1        2 0.21308545E+00 0.77882572E+03</pdfrwt>
<pdfrwt beam="2">  1       -2 0.16843800E-01 0.77882572E+03</pdfrwt>
<totfact> 0.49063152E+02</totfact>
</mgrwt>
<rwgt>
<wgt id='morphing_basis_vector_1'> +2.0112278e-04 </wgt>
<wgt id='morphing_basis_vector_2'> +1.4805530e-04 </wgt>
<wgt id='morphing_basis_vector_3'> +1.7509444e-04 </wgt>
<wgt id='morphing_basis_vector_4'> +7.7850042e-05 </wgt>
<wgt id='morphing_basis_vector_5'> +1.4263730e-04 </wgt>
</rwgt>
</event>
<event>
 4      1 +2.9741700e-06 7.89298200e+02 7.81860800e-03 8.91576200e-02
        2 -1    0    0  501    0 +0.0000000000e+00 +0.0000000000e+00 +2.8706334221e+03 2.8706334221e+03 0.0000000000e+00 0.0000e+00 1.0000e+00
       -2 -1    0    0    0  501 -0.0000000000e+00 -0.0000000000e+00 -5.4255595970e+01 5.4255595970e+01 0.0000000000e+00 0.0000e+00 -1.0000e+00
      -13  1    1    2    0    0 +2.6102136396e+02 +2.8293299610e+02 +1.0858862064e+03 1.1520989914e+03 0.0000000000e+00 0.0000e+00 -1.0000e+00
       13  1    1    2    0    0 -2.6102136396e+02 -2.8293299610e+02 +1.7304916198e+03 1.7727900267e+03 0.0000000000e+00 0.0000e+00 1.0000e+00
<mgrwt>
<rscale>  0 0.78929824E+03</rscale>
<asrwt>0</asrwt>
<pdfrwt beam="1">  1        2 0.44163579E+00 0.78929824E+03</pdfrwt>
<pdfrwt beam="2">  1       -2 0.83470170E-02 0.78929824E+03</pdfrwt>
<totfact> 0.21386607E+02</totfact>
</mgrwt>
<rwgt>
<wgt id='morphing_basis_vector_1'> +2.0213639e-04 </wgt>
<wgt id='morphing_basis_vector_2'> +1.2885871e-04 </wgt>
<wgt id='morphing_basis_vector_3'> +1.7971530e-04 </wgt>
<wgt id='morphing_basis_vector_4'> +9.3445453e-05 </wgt>
<wgt id='morphing_basis_vector_5'> +1.5208040e-04 </wgt>
</rwgt>
</event>
<event>
 4      1 +2.9741700e-06 8.72355600e+02 7.81860800e-03 8.81641100e-02
        2 -1    0    0  501    0 +0.0000000000e+00 +0.0000000000e+00 +5.3973609713e+02 5.3973609713e+02 0.0000000000e+00 0.0000e+00 -1.0000e+00
       -2 -1    0    0    0  501 -0.0000000000e+00 -0.0000000000e+00 -3.5248904273e+02 3.5248904273e+02 0.0000000000e+00 0.0000e+00 1.0000e+00
      -13  1    1    2    0    0 -3.1501609470e+02 -3.0106249367e+02 +1.1349003580e+02 4.5028185978e+02 0.0000000000e+00 0.0000e+00 1.0000e+00
       13  1    1    2    0    0 +3.1501609470e+02 +3.0106249367e+02 +7.3757018589e+01 4.4194328008e+02 0.0000000000e+00 0.0000e+00 -1.0000e+00
<mgrwt>
<rscale>  0 0.87235557E+03</rscale>
<asrwt>0</asrwt>
<pdfrwt beam="1">  1        2 0.83036322E-01 0.87235557E+03</pdfrwt>
<pdfrwt beam="2">  1       -2 0.54229084E-01 0.87235557E+03</pdfrwt>
<totfact> 0.22125623E+02</totfact>
</mgrwt>
<rwgt>
<wgt id='morphing_basis_vector_1'> +2.9645358e-04 </wgt>
<wgt id='morphing_basis_vector_2'> +2.1014105e-04 </wgt>
<wgt id='morphing_basis_vector_3'> +2.7203773e-04 </wgt>
<wgt id='morphing_basis_vector_4'> +1.3560289e-04 </wgt>
<wgt id='morphing_basis_vector_5'> +2.3846951e-04 </wgt>
</rwgt>
</event>
<event>
 4      1 +2.9741700e-06 8.97625000e+02 7.81860800e-03 8.78847700e-02
        2 -1    0    0  501    0 +0.0000000000e+00 +0.0000000000e+00 +8.3474385449e+02 8.3474385449e+02 0.0000000000e+00 0.0000e+00 1.0000e+00
       -2 -1    0    0    0  501 -0.0000000000e+00 -0.0000000000e+00 -2.4131074426e+02 2.4131074426e+02 0.0000000000e+00 0.0000e+00 -1.0000e+00
      -13  1    1    2    0    0 -2.8697569825e+02 -1.8209986582e+02 -5.4665474506e+01 3.4424370237e+02 0.0000000000e+00 0.0000e+00 -1.0000e+00
       13  1    1    2    0    0 +2.8697569825e+02 +1.8209986582e+02 +6.4809858474e+02 7.3181089638e+02 0.0000000000e+00 0.0000e+00 1.0000e+00
<mgrwt>
<rscale>  0 0.89762500E+03</rscale>
<asrwt>0</asrwt>
<pdfrwt beam="1">  1        2 0.12842213E+00 0.89762500E+03</pdfrwt>
<pdfrwt beam="2">  1       -2 0.37124730E-01 0.89762500E+03</pdfrwt>
<totfact> 0.26813509E+02</totfact>
</mgrwt>
<rwgt>
<wgt id='morphing_basis_vector_1'> +3.1615288e-04 </wgt>
<wgt id='morphing_basis_vector_2'> +1.9562885e-04 </wgt>
<wgt id='morphing_basis_vector_3'> +2.9501270e-04 </wgt>
<wgt id='morphing_basis_vector_4'> +1.7155832e-04 </wgt>
<wgt id='morphing_basis_vector_5'> +2.7167266e-04 </wgt>
</rwgt>
</event>
<event>
 4      1 +2.9741700e-06 8.50769000e+02 7.81860800e-03 8.84107300e-02
        2 -1    0    0  501    0 +0.0000000000e+00 +0.0000000000e+00 +8.5629535342e+02 8.5629535342e+02 0.0000000000e+00 0.0000e+00 -1.0000e+00
       -2 -1    0    0    0  501 -0.0000000000e+00 -0.0000000000e+00 -2.1131956715e+02 2.1131956715e+02 0.0000000000e+00 0.0000e+00 1.0000e+00
      -13  1    1    2    0    0 -3.8613119380e+02 -1.2355269695e+02 +1.6085927047e+02 4.3616312619e+02 0.0000000000e+00 0.0000e+00 1.0000e+00
       13  1    1    2    0    0 +3.8613119380e+02 +1.2355269695e+02 +4.8411651580e+02 6.3145179438e+02 0.0000000000e+00 0.0000e+00 -1.0000e+00
<mgrwt>
<rscale>  0 0.85076898E+03</rscale>
<asrwt>0</asrwt>
<pdfrwt beam="1">  1        2 0.13173774E+00 0.85076898E+03</pdfrwt>
<pdfrwt beam="2">  1       -2 0.32510703E-01 0.85076898E+03</pdfrwt>
<totfact> 0.33058480E+02</totfact>
</mgrwt>
<rwgt>
<wgt id='morphing_basis_vector_1'> +2.6290659e-04 </wgt>
<wgt id='morphing_basis_vector_2'> +1.6700676e-04 </wgt>
<wgt id='morphing_basis_vector_3'> +2.4062636e-04 </wgt>
<wgt id='morphing_basis_vector_4'> +1.3217054e-04 </wgt>
<wgt id='morphing_basis_vector_5'> +2.1371641e-04 </wgt>
</rwgt>
</event>
<event>
 4      1 +2.9741700e-06 8.03803400e+02 7.81860800e-03 8.89750400e-02
        2 -1    0    0  501    0 +0.0000000000e+00 +0.0000000000e+00 +6.9032358584e+02 6.9032358584e+02 0.0000000000e+00 0.0000e+00 -1.0000e+00
       -2 -1    0    0    0  501 -0.0000000000e+00 -0.0000000000e+00 -2.3398446575e+02 2.3398446575e+02 0.0000000000e+00 0.0000e+00 1.0000e+00
      -13  1    1    2    0    0 +2.8580352766e+02 -2.0526455500e+02 +4.8727711957e+00 3.5191041170e+02 0.0000000000e+00 0.0000e+00 1.0000e+00
       13  1    1    2    0    0 -2.8580352766e+02 +2.0526455500e+02 +4.5146634890e+02 5.7239763989e+02 0.0000000000e+00 0.0000e+00 -1.0000e+00
<mgrwt>
<rscale>  0 0.80380345E+03</rscale>
<asrwt>0</asrwt>
<pdfrwt beam="1">  1        2 0.10620363E+00 0.80380345E+03</pdfrwt>
<pdfrwt beam="2">  1       -2 0.35997610E-01 0.80380345E+03</pdfrwt>
<totfact> 0.36209977E+02</totfact>
</mgrwt>
<rwgt>
<wgt id='morphing_basis_vector_1'> +2.1335641e-04 </wgt>
<wgt id='morphing_basis_vector_2'> +1.3101706e-04 </wgt>
<wgt id='morphing_basis_vector_3'> +1.9168921e-04 </wgt>
<wgt id='morphing_basis_vector_4'> +1.0425836e-04 </wgt>
<wgt id='morphing_basis_vector_5'> +1.6539184e-04 </wgt>
</rwgt>
</event>
<event>
 4      1 +2.9741700e-06 7.89444100e+02 7.81860800e-03 8.91557600e-02
        2 -1    0    0  501    0 +0.0000000000e+00 +0.0000000000e+00 +9.5635514550e+02 9.5635514550e+02 0.0000000000e+00 0.0000e+00 -1.0000e+00
       -2 -1    0    0    0  501 -0.0000000000e+00 -0.0000000000e+00 -1.6291594225e+02 1.6291594225e+02 0.0000000000e+00 0.0000e+00 1.0000e+00
      -13  1    1    2    0    0 +3.5896360338e+02 -1.5966537043e+02 +4.5084899575e+02 5.9800728761e+02 0.0000000000e+00 0.0000e+00 1.0000e+00
       13  1    1    2    0    0 -3.5896360338e+02 +1.5966537043e+02 +3.4259020750e+02 5.2126380015e+02 0.0000000000e+00 0.0000e+00 -1.0000e+00
<mgrwt>
<rscale>  0 0.78944411E+03</rscale>
<asrwt>0</asrwt>
<pdfrwt beam="1">  1        2 0.14713156E+00 0.78944411E+03</pdfrwt>
<pdfrwt beam="2">  1       -2 0.25063992E-01 0.78944411E+03</pdfrwt>
<totfact> 0.45030260E+02</totfact>
</mgrwt>
<rwgt>
<wgt id='morphing_basis_vector_1'> +2.0910824e-04 </wgt>
<wgt id='morphing_basis_vector_2'> +1.4990638e-04 </wgt>
<wgt id='morphing_basis_vector_3'> +1.8376951e-04 </wgt>
<wgt id='morphing_basis_vector_4'> +8.5022828e-05 </wgt>
<wgt id='morphing_basis_vector_5'> +1.5185815e-04 </wgt>
</rwgt>
</event>
<event>
 4      1 +2.9741700e-06 7.71678500e+02 7.81860800e-03 8.93850800e-02
        2 -1    0    0  501    0 +0.0000000000e+00 +0.0000000000e+00 +2.9312244069e+02 2.9312244069e+02 0.0000000000e+00 0.0000e+00 -1.0000e+00
       -2 -1    0    0    0  501 -0.0000000000e+00 -0.0000000000e+00 -5.0788312345e+02 5.0788312345e+02 0.0000000000e+00 0.0000e+00 1.0000e+00
      -13  1    1    2    0    0 +2.2610340402e+02 -2.5827104250e+01 -4.3080178391e+02 4.8721654902e+02 0.0000000000e+00 0.0000e+00 1.0000e+00
       13  1    1    2    0    0 -2.2610340402e+02 +2.5827104250e+01 +2.1604110115e+02 3.1378901512e+02 0.0000000000e+00 0.0000e+00 -1.0000e+00
<mgrwt>
<rscale>  0 0.77167854E+03</rscale>
<asrwt>0</asrwt>
<pdfrwt beam="1">  1        2 0.45095760E-01 0.77167854E+03</pdfrwt>
<pdfrwt beam="2">  1       -2 0.78135865E-01 0.77167854E+03</pdfrwt>
<totfact> 0.20607456E+02</totfact>
</mgrwt>
<rwgt>
<wgt id='morphing_basis_vector_1'> +1.8396793e-04 </wgt>
<wgt id='morphing_basis_vector_2'> +1.1020774e-04 </wgt>
<wgt id='morphing_basis_vector_3'> +1.6303540e-04 </wgt>
<wgt id='morphing_basis_vector_4'> +8.7669611e-05 </wgt>
<wgt id='morphing_basis_vector_5'> +1.3722481e-04 </wgt>
</rwgt>
</event>
<event>
 4      1 +2.9741700e-06 8.26713500e+02 7.81860800e-03 8.86948200e-02
        2 -1    0    0  501    0 +0.0000000000e+00 +0.0000000000e+00 +3.0766621061e+02 3.0766621061e+02 0.0000000000e+00 0.0000e+00 -1.0000e+00
       -2 -1    0    0    0  501 -0.0000000000e+00 -0.0000000000e+00 -5.5535442921e+02 5.5535442921e+02 0.0000000000e+00 0.0000e+00 1.0000e+00
      -13  1    1    2    0    0 -2.5771710204e+01 +1.6905279645e+02 -5.1669670908e+02 5.4425960552e+02 0.0000000000e+00 0.0000e+00 1.0000e+00
       13  1    1    2    0    0 +2.5771710204e+01 -1.6905279645e+02 +2.6900849048e+02 3.1876103429e+02 0.0000000000e+00 0.0000e+00 -1.0000e+00
<mgrwt>
<rscale>  0 0.82671348E+03</rscale>
<asrwt>0</asrwt>
<pdfrwt beam="1">  1        2 0.47333263E-01 0.82671348E+03</pdfrwt>
<pdfrwt beam="2">  1       -2 0.85439143E-01 0.82671348E+03</pdfrwt>
<totfact> 0.15883522E+02</totfact>
</mgrwt>
<rwgt>
<wgt id='morphing_basis_vector_1'> +2.3471778e-04 </wgt>
<wgt id='morphing_basis_vector_2'> +1.4223959e-04 </wgt>
<wgt id='morphing_basis_vector_3'> +2.1329703e-04 </wgt>
<wgt id='morphing_basis_vector_4'> +1.1965166e-04 </wgt>
<wgt id='morphing_basis_vector_5'> +1.8796221e-04 </wgt>
</rwgt>
</event>
<event>
 4      1 +2.9741700e-06 8.44940200e+02 7.81860800e-03 8.84786500e-02
        2 -1    0    0  501    0 +0.0000000000e+00 +0.0000000000e+00 +7.9884957183e+02 7.9884957183e+02 0.0000000000e+00 0.0000e+00 -1.0000e+00
       -2 -1    0    0    0  501 -0.0000000000e+00 -0.0000000000e+00 -2.2342254402e+02 2.2342254402e+02 0.0000000000e+00 0.0000e+00 1.0000e+00
      -13  1    1    2    0    0 +2.9156092641e+02 -2.5605645662e+02 +4.8983262197e+02 6.2490693734e+02 0.0000000000e+00 0.0000e+00 1.0000e+00
       13  1    1    2    0    0 -2.9156092641e+02 +2.5605645662e+02 +8.5594405835e+01 3.9736517852e+02 0.0000000000e+00 0.0000e+00 -1.0000e+00
<mgrwt>
<rscale>  0 0.84494024E+03</rscale>
<asrwt>0</asrwt>
<pdfrwt beam="1">  1        2 0.12289993E+00 0.84494024E+03</pdfrwt>
<pdfrwt beam="2">  1       -2 0.34372699E-01 0.84494024E+03</pdfrwt>
<totfact> 0.32748382E+02</totfact>
</mgrwt>
<rwgt>
<wgt id='morphing_basis_vector_1'> +2.8741419e-04 </wgt>
<wgt id='morphing_basis_vector_2'> +2.5714884e-04 </wgt>
<wgt id='morphing_basis_vector_3'> +2.5545735e-04 </wgt>
<wgt id='morphing_basis_vector_4'> +8.6788010e-05 </wgt>
<wgt id='morphing_basis_vector_5'> +2.0523733e-04 </wgt>
</rwgt>
</event>
<event>
 4      1 +2.9741700e-06 7.53356700e+02 7.81860800e-03 8.96285500e-02
        2 -1    0    0  501    0 +0.0000000000e+00 +0.0000000000e+00 +2.5735433217e+02 2.5735433217e+02 0.0000000000e+00 0.0000e+00 1.0000e+00
       -2 -1    0    0    0  501 -0.0000000000e+00 -0.0000000000e+00 -5.5132779422e+02 5.5132779422e+02 0.0000000000e+00 0.0000e+00 -1.0000e+00
      -13  1    1    2    0    0 -4.4884221857e+01 +2.6713025020e+02 +1.3398655197e+02 3.0220119135e+02 0.0000000000e+00 0.0000e+00 1.0000e+00
       13  1    1    2    0    0 +4.4884221857e+01 -2.6713025020e+02 -4.2796001402e+02 5.0648093503e+02 0.0000000000e+00 0.0000e+00 -1.0000e+00
<mgrwt>
<rscale>  0 0.75335674E+03</rscale>
<asrwt>0</asrwt>
<pdfrwt beam="1">  1        2 0.39592974E-01 0.75335674E+03</pdfrwt>
<pdfrwt beam="2">  1       -2 0.84819660E-01 0.75335674E+03</pdfrwt>
<totfact> 0.19835584E+02</totfact>
</mgrwt>
<rwgt>
<wgt id='morphing_basis_vector_1'> +2.1619949e-04 </wgt>
<wgt id='morphing_basis_vector_2'> +2.4545180e-04 </wgt>
<wgt id='morphing_basis_vector_3'> +1.7154178e-04 </wgt>
<wgt id='morphing_basis_vector_4'> +2.3441202e-05 </wgt>
<wgt id='morphing_basis_vector_5'> +1.2079177e-04 </wgt>
</rwgt>
</event>
<event>
 4      1 +2.9741700e-06 8.93870300e+02 7.81860800e-03 8.79256600e-02
        2 -1    0    0  501    0 +0.0000000000e+00 +0.0000000000e+00 +8.6835790922e+02 8.6835790922e+02 0.0000000000e+00 0.0000e+00 1.0000e+00
       -2 -1    0    0    0  501 -0.0000000000e+00 -0.0000000000e+00 -2.3003306193e+02 2.3003306193e+02 0.0000000000e+00 0.0000e+00 -1.0000e+00
      -13  1    1    2    0    0 -1.0055520507e+02 -4.3040027237e+02 +2.3769650368e+02 5.0185194190e+02 0.0000000000e+00 0.0000e+00 -1.0000e+00
       13  1    1    2    0    0 +1.0055520507e+02 +4.3040027237e+02 +4.0062834361e+02 5.9653902926e+02 0.0000000000e+00 0.0000e+00 1.0000e+00
<mgrwt>
<rscale>  0 0.89387030E+03</rscale>
<asrwt>0</asrwt>
<pdfrwt beam="1">  1        2 0.13359352E+00 0.89387030E+03</pdfrwt>
<pdfrwt beam="2">  1       -2 0.35389702E-01 0.89387030E+03</pdfrwt>
<totfact> 0.27785982E+02</totfact>
</mgrwt>
<rwgt>
<wgt id='morphing_basis_vector_1'> +3.1719273e-04 </wgt>
<wgt id='morphing_basis_vector_2'> +2.1023347e-04 </wgt>
<wgt id='morphing_basis_vector_3'> +2.9468715e-04 </wgt>
<wgt id='morphing_basis_vector_4'> +1.6021310e-04 </wgt>
<wgt id='morphing_basis_vector_5'> +2.6623687e-04 </wgt>
</rwgt>
</event>
<event>
 4      1 +2.9741700e-06 7.95747000e+02 7.81860800e-03 8.90759400e-02
        2 -1    0    0  501    0 +0.0000000000e+00 +0.0000000000e+00 +9.5874965021e+02 9.5874965021e+02 0.0000000000e+00 0.0000e+00 -1.0000e+00
       -2 -1    0    0    0  501 -0.0000000000e+00 -0.0000000000e+00 -1.6511436153e+02 1.6511436153e+02 0.0000000000e+00 0.0000e+00 1.0000e+00
      -13  1    1    2    0    0 +2.7212056993e+02 +5.0045400885e+01 -6.9955107574e+00 2.7677262130e+02 0.0000000000e+00 0.0000e+00 1.0000e+00
       13  1    1    2    0    0 -2.7212056993e+02 -5.0045400885e+01 +8.0063079944e+02 8.4709139043e+02 0.0000000000e+00 0.0000e+00 -1.0000e+00
<mgrwt>
<rscale>  0 0.79574704E+03</rscale>
<asrwt>0</asrwt>
<pdfrwt beam="1">  1        2 0.14749994E+00 0.79574704E+03</pdfrwt>
<pdfrwt beam="2">  1       -2 0.25402210E-01 0.79574704E+03</pdfrwt>
<totfact> 0.43839591E+02</totfact>
</mgrwt>
<rwgt>
<wgt id='morphing_basis_vector_1'> +2.0513258e-04 </wgt>
<wgt id='morphing_basis_vector_2'> +1.2391291e-04 </wgt>
<wgt id='morphing_basis_vector_3'> +1.8384514e-04 </wgt>
<wgt id='morphing_basis_vector_4'> +1.0057339e-04 </wgt>
<wgt id='morphing_basis_vector_5'> +1.5800011e-04 </wgt>
</rwgt>
</event>
<event>
 4      1 +2.9741700e-06 8.36668000e+02 7.81860800e-03 8.85760400e-02
        2 -1    0    0  501    0 +0.0000000000e+00 +0.0000000000e+00 +6.7911545977e+02 6.7911545977e+02 0.0000000000e+00 0.0000e+00 1.0000e+00
       -2 -1    0    0    0  501 -0.0000000000e+00 -0.0000000000e+00 -2.5769304349e+02 2.5769304349e+02 0.0000000000e+00 0.0000e+00 -1.0000e+00
      -13  1    1    2    0    0 -1.6460045877e+02 +3.8378395071e+02 +1.8283345676e+02 4.5586347163e+02 0.0000000000e+00 0.0000e+00 -1.0000e+00
       13  1    1    2    0    0 +1.6460045877e+02 -3.8378395071e+02 +2.3858895951e+02 4.8094503163e+02 0.0000000000e+00 0.0000e+00 1.0000e+00
<mgrwt>
<rscale>  0 0.83666799E+03</rscale>
<asrwt>0</asrwt>
<pdfrwt beam="1">  1        2 0.10447930E+00 0.83666799E+03</pdfrwt>
<pdfrwt beam="2">  1       -2 0.39645084E-01 0.83666799E+03</pdfrwt>
<totfact> 0.30878703E+02</totfact>
</mgrwt>
<rwgt>
<wgt id='morphing_basis_vector_1'> +2.5191284e-04 </wgt>
<wgt id='morphing_basis_vector_2'> +1.6997458e-04 </wgt>
<wgt id='morphing_basis_vector_3'> +2.2819183e-04 </wgt>
<wgt id='morphing_basis_vector_4'> +1.1701563e-04 </wgt>
<wgt id='morphing_basis_vector_5'> +1.9797083e-04 </wgt>
</rwgt>
</event>
<event>
 4      1 +2.9741700e-06 7.61107100e+02 7.81860800e-03 8.95246700e-02
        2 -1    0    0  501    0 +0.0000000000e+00 +0.0000000000e+00 +4.2939645595e+02 4.2939645595e+02 0.0000000000e+00 0.0000e+00 -1.0000e+00
       -2 -1    0    0    0  501 -0.0000000000e+00 -0.0000000000e+00 -3.3726641846e+02 3.3726641846e+02 0.0000000000e+00 0.0000e+00 1.0000e+00
      -13  1    1    2    0    0 +1.0792771736e+02 -1.2664334362e+02 -2.9868181605e+02 3.4190313818e+02 0.0000000000e+00 0.0000e+00 1.0000e+00
       13  1    1    2    0    0 -1.0792771736e+02 +1.2664334362e+02 +3.9081185354e+02 4.2475973623e+02 0.0000000000e+00 0.0000e+00 -1.0000e+00
<mgrwt>
<rscale>  0 0.76110710E+03</rscale>
<asrwt>0</asrwt>
<pdfrwt beam="1">  1        2 0.66060993E-01 0.76110710E+03</pdfrwt>
<pdfrwt beam="2">  1       -2 0.51887141E-01 0.76110710E+03</pdfrwt>
<totfact> 0.31516783E+02</totfact>
</mgrwt>
<rwgt>
<wgt id='morphing_basis_vector_1'> +1.7522208e-04 </wgt>
<wgt id='morphing_basis_vector_2'> +1.0454413e-04 </wgt>
<wgt id='morphing_basis_vector_3'> +1.5448661e-04 </wgt>
<wgt id='morphing_basis_vector_4'> +8.2411305e-05 </wgt>
<wgt id='morphing_basis_vector_5'> +1.2875088e-04 </wgt>
</rwgt>
</event>
<event>
 4      1 +2.9741700e-06 8.07330800e+02 7.81860800e-03 8.89312600e-02
        2 -1    0    0  501    0 +0.0000000000e+00 +0.0000000000e+00 +6.6928348038e+02 6.6928348038e+02 0.0000000000e+00 0.0000e+00 -1.0000e+00
       -2 -1    0    0    0  501 -0.0000000000e+00 -0.0000000000e+00 -2.4346296613e+02 2.4346296613e+02 0.0000000000e+00 0.0000e+00 1.0000e+00
      -13  1    1    2    0    0 -3.0610569868e+02 -8.7437157329e+01 -6.7690119701e+01 3.2546567799e+02 0.0000000000e+00 0.0000e+00 1.0000e+00
       13  1    1    2    0    0 +3.0610569868e+02 +8.7437157329e+01 +4.9351063395e+02 5.8728076851e+02 0.0000000000e+00 0.0000e+00 -1.0000e+00
<mgrwt>
<rscale>  0 0.80733077E+03</rscale>
<asrwt>0</asrwt>
<pdfrwt beam="1">  1        2 0.10296669E+00 0.80733077E+03</pdfrwt>
<pdfrwt beam="2">  1       -2 0.37455841E-01 0.80733077E+03</pdfrwt>
<totfact> 0.34955167E+02</totfact>
</mgrwt>
<rwgt>
<wgt id='morphing_basis_vector_1'> +2.1616557e-04 </wgt>
<wgt id='morphing_basis_vector_2'> +1.3154645e-04 </wgt>
<wgt id='morphing_basis_vector_3'> +1.9467714e-04 </wgt>
<wgt id='morphing_basis_vector_4'> +1.0700710e-04 </wgt>
<wgt id='morphing_basis_vector_5'> +1.6875274e-04 </wgt>
</rwgt>
</event>
<event>
 4      1 +2.9741700e-06 8.64773600e+02 7.81860800e-03 8.82498700e-02
        2 -1    0    0  501    0 +0.0000000000e+00 +0.0000000000e+00 +1.5926052154e+03 1.5926052154e+03 0.0000000000e+00 0.0000e+00 1.0000e+00
       -2 -1    0    0    0  501 -0.0000000000e+00 -0.0000000000e+00 -1.1739152448e+02 1.1739152448e+02 0.0000000000e+00 0.0000e+00 -1.0000e+00
      -13  1    1    2    0    0 -1.7764509256e+02 -2.4277882512e+02 +1.2347125664e+02 3.2518377581e+02 0.0000000000e+00 0.0000e+00 -1.0000e+00
       13  1    1    2    0    0 +1.7764509256e+02 +2.4277882512e+02 +1.3517424343e+03 1.3848129641e+03 0.0000000000e+00 0.0000e+00 1.0000e+00
<mgrwt>
<rscale>  0 0.86477362E+03</rscale>
<asrwt>0</asrwt>
<pdfrwt beam="1">  1        2 0.24501617E+00 0.86477362E+03</pdfrwt>
<pdfrwt beam="2">  1       -2 0.18060236E-01 0.86477362E+03</pdfrwt>
<totfact> 0.33387881E+02</totfact>
</mgrwt>
<rwgt>
<wgt id='morphing_basis_vector_1'> +2.7609627e-04 </wgt>
<wgt id='morphing_basis_vector_2'> +1.6931547e-04 </wgt>
<wgt id='morphing_basis_vector_3'> +2.5464787e-04 </wgt>
<wgt id='morphing_basis_vector_4'> +1.4579938e-04 </wgt>
<wgt id='morphing_basis_vector_5'> +2.3012018e-04 </wgt>
</rwgt>
</event>
<event>
 4      1 +2.9741700e-06 8.61912200e+02 7.81860800e-03 8.82824700e-02
        2 -1    0    0  501    0 +0.0000000000e+00 +0.0000000000e+00 +1.7686331215e+03 1.7686331215e+03 0.0000000000e+00 0.0000e+00 -1.0000e+00
       -2 -1    0    0    0  501 -0.0000000000e+00 -0.0000000000e+00 -1.0500943787e+02 1.0500943787e+02 0.0000000000e+00 0.0000e+00 1.0000e+00
      -13  1    1    2    0    0 -2.2235587349e+02 +1.6939917475e+02 +1.1879551490e+02 3.0372782099e+02 0.0000000000e+00 0.0000e+00 1.0000e+00
       13  1    1    2    0    0 +2.2235587349e+02 -1.6939917475e+02 +1.5448281687e+03 1.5699147384e+03 0.0000000000e+00 0.0000e+00 -1.0000e+00
<mgrwt>
<rscale>  0 0.86191222E+03</rscale>
<asrwt>0</asrwt>
<pdfrwt beam="1">  1        2 0.27209738E+00 0.86191222E+03</pdfrwt>
<pdfrwt beam="2">  1       -2 0.16155299E-01 0.86191222E+03</pdfrwt>
<totfact> 0.32085083E+02</totfact>
</mgrwt>
<rwgt>
<wgt id='morphing_basis_vector_1'> +2.7273024e-04 </wgt>
<wgt id='morphing_basis_vector_2'> +1.6693505e-04 </wgt>
<wgt id='morphing_basis_vector_3'> +2.5129044e-04 </wgt>
<wgt id='morphing_basis_vector_4'> +1.4379865e-04 </wgt>
<wgt id='morphing_basis_vector_5'> +2.2673872e-04 </wgt>
</rwgt>
</event>
<event>
 4      1 +2.9741700e-06 7.74469700e+02 7.81860800e-03 8.93486200e-02
        2 -1    0    0  501    0 +0.0000000000e+00 +0.0000000000e+00 +1.0186279857e+03 1.0186279857e+03 0.0000000000e+00 0.0000e+00 -1.0000e+00
       -2 -1    0    0    0  501 -0.0000000000e+00 -0.0000000000e+00 -1.4720861184e+02 1.4720861184e+02 0.0000000000e+00 0.0000e+00 1.0000e+00
      -13  1    1    2    0    0 +3.0163841310e+02 -1.7382625065e+02 +1.8046980646e+02 3.9213600793e+02 0.0000000000e+00 0.0000e+00 1.0000e+00
       13  1    1    2    0    0 -3.0163841310e+02 +1.7382625065e+02 +6.9094956735e+02 7.7370058957e+02 0.0000000000e+00 0.0000e+00 -1.0000e+00
<mgrwt>
<rscale>  0 0.77446966E+03</rscale>
<asrwt>0</asrwt>
<pdfrwt beam="1">  1        2 0.15671199E+00 0.77446966E+03</pdfrwt>
<pdfrwt beam="2">  1       -2 0.22647479E-01 0.77446966E+03</pdfrwt>
<totfact> 0.48975837E+02</totfact>
</mgrwt>
<rwgt>
<wgt id='morphing_basis_vector_1'> +1.8732256e-04 </wgt>
<wgt id='morphing_basis_vector_2'> +1.1477670e-04 </wgt>
<wgt id='morphing_basis_vector_3'> +1.6588631e-04 </wgt>
<wgt id='morphing_basis_vector_4'> +8.7896368e-05 </wgt>
<wgt id='morphing_basis_vector_5'> +1.3948003e-04 </wgt>
</rwgt>
</event>
<event>
 4      1 +2.9741700e-06 8.89287900e+02 7.81860800e-03 8.79758500e-02
        2 -1    0    0  501    0 +0.0000000000e+00 +0.0000000000e+00 +5.3104184860e+02 5.3104184860e+02 0.0000000000e+00 0.0000e+00 1.0000e+00
       -2 -1    0    0    0  501 -0.0000000000e+00 -0.0000000000e+00 -3.7230255579e+02 3.7230255579e+02 0.0000000000e+00 0.0000e+00 -1.0000e+00
      -13  1    1    2    0    0 +3.0443046943e+02 -4.7060067571e+01 +4.0508681446e+02 5.0890852609e+02 0.0000000000e+00 0.0000e+00 1.0000e+00
       13  1    1    2    0    0 -3.0443046943e+02 +4.7060067571e+01 -2.4634752165e+02 3.9443587831e+02 0.0000000000e+00 0.0000e+00 -1.0000e+00
<mgrwt>
<rscale>  0 0.88928789E+03</rscale>
<asrwt>0</asrwt>
<pdfrwt beam="1">  1        2 0.81698746E-01 0.88928789E+03</pdfrwt>
<pdfrwt beam="2">  1       -2 0.57277316E-01 0.88928789E+03</pdfrwt>
<totfact> 0.20176661E+02</totfact>
</mgrwt>
<rwgt>
<wgt id='morphing_basis_vector_1'> +3.9478162e-04 </wgt>
<wgt id='morphing_basis_vector_2'> +4.6032926e-04 </wgt>
<wgt id='morphing_basis_vector_3'> +3.5275749e-04 </wgt>
<wgt id='morphing_basis_vector_4'> +3.9235022e-05 </wgt>
<wgt id='morphing_basis_vector_5'> +2.5413422e-04 </wgt>
</rwgt>
</event>
<event>
 4      1 +2.9741700e-06 7.78221300e+02 7.81860800e-03 8.92998700e-02
        2 -1    0    0  501    0 +0.0000000000e+00 +0.0000000000e+00 +1.8291212018e+03 1.8291212018e+03 0.0000000000e+00 0.0000e+00 1.0000e+00
       -2 -1    0    0    0  501 -0.0000000000e+00 -0.0000000000e+00 -8.2775863320e+01 8.2775863320e+01 0.0000000000e+00 0.0000e+00 -1.0000e+00
      -13  1    1    2    0    0 -3.2155883145e+02 -2.1908430122e+02 +8.6577239103e+02 9.4918904660e+02 0.0000000000e+00 0.0000e+00 1.0000e+00
       13  1    1    2    0    0 +3.2155883145e+02 +2.1908430122e+02 +8.8057294741e+02 9.6270801847e+02 0.0000000000e+00 0.0000e+00 -1.0000e+00
<mgrwt>
<rscale>  0 0.77822127E+03</rscale>
<asrwt>0</asrwt>
<pdfrwt beam="1">  1        2 0.28140323E+00 0.77822127E+03</pdfrwt>
<pdfrwt beam="2">  1       -2 0.12734749E-01 0.77822127E+03</pdfrwt>
<totfact> 0.43903037E+02</totfact>
</mgrwt>
<rwgt>
<wgt id='morphing_basis_vector_1'> +1.9589284e-04 </wgt>
<wgt id='morphing_basis_vector_2'> +1.3328124e-04 </wgt>
<wgt id='morphing_basis_vector_3'> +1.7198494e-04 </wgt>
<wgt id='morphing_basis_vector_4'> +8.3296250e-05 </wgt>
<wgt id='morphing_basis_vector_5'> +1.4235723e-04 </wgt>
</rwgt>
</event>
<event>
 4      1 +2.9741700e-06 7.59559400e+02 7.81860800e-03 8.95453100e-02
        2 -1    0    0  501    0 +0.0000000000e+00 +0.0000000000e+00 +7.8426990085e+02 7.8426990085e+02 0.0000000000e+00 0.0000e+00 1.0000e+00
       -2 -1    0    0    0  501 -0.0000000000e+00 -0.0000000000e+00 -1.8390685495e+02 1.8390685495e+02 0.0000000000e+00 0.0000e+00 -1.0000e+00
      -13  1    1    2    0    0 +2.8761377804e+02 +1.3506354081e+02 +3.5038516825e+01 3.1967412006e+02 0.0000000000e+00 0.0000e+00 -1.0000e+00
       13  1    1    2    0    0 -2.8761377804e+02 -1.3506354081e+02 +5.6532452908e+02 6.4850263573e+02 0.0000000000e+00 0.0000e+00 1.0000e+00
<mgrwt>
<rscale>  0 0.75955937E+03</rscale>
<asrwt>0</asrwt>
<pdfrwt beam="1">  1        2 0.12065691E+00 0.75955937E+03</pdfrwt>
<pdfrwt beam="2">  1       -2 0.28293363E-01 0.75955937E+03</pdfrwt>
<totfact> 0.47557540E+02</totfact>
</mgrwt>
<rwgt>
<wgt id='morphing_basis_vector_1'> +1.7452946e-04 </wgt>
<wgt id='morphing_basis_vector_2'> +1.0545346e-04 </wgt>
<wgt id='morphing_basis_vector_3'> +1.5354726e-04 </wgt>
<wgt id='morphing_basis_vector_4'> +8.0998031e-05 </wgt>
<wgt id='morphing_basis_vector_5'> +1.2751796e-04 </wgt>
</rwgt>
</event>
<event>
 4      1 +2.9741700e-06 8.32875600e+02 7.81860800e-03 8.86210800e-02
        2 -1    0    0  501    0 +0.0000000000e+00 +0.0000000000e+00 +1.0207747472e+03 1.0207747472e+03 0.0000000000e+00 0.0000e+00 -1.0000e+00
       -2 -1    0    0    0  501 -0.0000000000e+00 -0.0000000000e+00 -1.6989100683e+02 1.6989100683e+02 0.0000000000e+00 0.0000e+00 1.0000e+00
      -13  1    1    2    0    0 +1.1766637393e+01 -3.7912218958e+02 +1.7970155414e+02 4.1971983149e+02 0.0000000000e+00 0.0000e+00 1.0000e+00
       13  1    1    2    0    0 -1.1766637393e+01 +3.7912218958e+02 +6.7118218625e+02 7.7094592257e+02 0.0000000000e+00 0.0000e+00 -1.0000e+00
<mgrwt>
<rscale>  0 0.83287562E+03</rscale>
<asrwt>0</asrwt>
<pdfrwt beam="1">  1        2 0.15704226E+00 0.83287562E+03</pdfrwt>
<pdfrwt beam="2">  1       -2 0.26137079E-01 0.83287562E+03</pdfrwt>
<totfact> 0.38117160E+02</totfact>
</mgrwt>
<rwgt>
<wgt id='morphing_basis_vector_1'> +2.4260400e-04 </wgt>
<wgt id='morphing_basis_vector_2'> +1.5107973e-04 </wgt>
<wgt id='morphing_basis_vector_3'> +2.2063708e-04 </wgt>
<wgt id='morphing_basis_vector_4'> +1.2160334e-04 </wgt>
<wgt id='morphing_basis_vector_5'> +1.9428022e-04 </wgt>
</rwgt>
</event>
<event>
 4      1 +2.9741700e-06 8.34944700e+02 7.81860800e-03 8.85964800e-02
        2 -1    0    0  501    0 +0.0000000000e+00 +0.0000000000e+00 +1.2468271547e+03 1.2468271547e+03 0.0000000000e+00 0.0000e+00 1.0000e+00
       -2 -1    0    0    0  501 -0.0000000000e+00 -0.0000000000e+00 -1.3978132345e+02 1.3978132345e+02 0.0000000000e+00 0.0000e+00 -1.0000e+00
      -13  1    1    2    0    0 +1.8162804671e+02 -2.4937385101e+02 +8.6429391776e+01 3.2038430780e+02 0.0000000000e+00 0.0000e+00 -1.0000e+00
       13  1    1    2    0    0 -1.8162804671e+02 +2.4937385101e+02 +1.0206164395e+03 1.0662241704e+03 0.0000000000e+00 0.0000e+00 1.0000e+00
<mgrwt>
<rscale>  0 0.83494467E+03</rscale>
<asrwt>0</asrwt>
<pdfrwt beam="1">  1        2 0.19181955E+00 0.83494467E+03</pdfrwt>
<pdfrwt beam="2">  1       -2 0.21504820E-01 0.83494467E+03</pdfrwt>
<totfact> 0.39043576E+02</totfact>
</mgrwt>
<rwgt>
<wgt id='morphing_basis_vector_1'> +2.4351369e-04 </wgt>
<wgt id='morphing_basis_vector_2'> +1.4866572e-04 </wgt>
<wgt id='morphing_basis_vector_3'> +2.2196021e-04 </wgt>
<wgt id='morphing_basis_vector_4'> +1.2461225e-04 </wgt>
<wgt id='morphing_basis_vector_5'> +1.9654493e-04 </wgt>
</rwgt>
</event>
<event>
 4      1 +2.9741700e-06 7.98839100e+02 7.81860800e-03 8.90370600e-02
        2 -1    0    0  501    0 +0.0000000000e+00 +0.0000000000e+00 +7.4941086411e+02 7.4941086411e+02 0.0000000000e+00 0.0000e+00 -1.0000e+00
       -2 -1    0    0    0  501 -0.0000000000e+00 -0.0000000000e+00 -2.1288184376e+02 2.1288184376e+02 0.0000000000e+00 0.0000e+00 1.0000e+00
      -13  1    1    2    0    0 -4.9423449039e+01 +3.6611876844e+02 +8.5375954233e+01 3.7917632241e+02 0.0000000000e+00 0.0000e+00 1.0000e+00
       13  1    1    2    0    0 +4.9423449039e+01 -3.6611876844e+02 +4.5115306612e+02 5.8311638546e+02 0.0000000000e+00 0.0000e+00 -1.0000e+00
<mgrwt>
<rscale>  0 0.79883907E+03</rscale>
<asrwt>0</asrwt>
<pdfrwt beam="1">  1        2 0.11529398E+00 0.79883907E+03</pdfrwt>
<pdfrwt beam="2">  1       -2 0.32751053E-01 0.79883907E+03</pdfrwt>
<totfact> 0.38813765E+02</totfact>
</mgrwt>
<rwgt>
<wgt id='morphing_basis_vector_1'> +2.0934973e-04 </wgt>
<wgt id='morphing_basis_vector_2'> +1.2994748e-04 </wgt>
<wgt id='morphing_basis_vector_3'> +1.8747130e-04 </wgt>
<wgt id='morphing_basis_vector_4'> +1.0060427e-04 </wgt>
<wgt id='morphing_basis_vector_5'> +1.6075020e-04 </wgt>
</rwgt>
</event>
<event>
 4      1 +2.9741700e-06 8.60742400e+02 7.81860800e-03 8.82958400e-02
        2 -1    0    0  501    0 +0.0000000000e+00 +0.0000000000e+00 +1.8950220709e+02 1.8950220709e+02 0.0000000000e+00 0.0000e+00 -1.0000e+00
       -2 -1    0    0    0  501 -0.0000000000e+00 -0.0000000000e+00 -9.7739952561e+02 9.7739952561e+02 0.0000000000e+00 0.0000e+00 1.0000e+00
      -13  1    1    2    0    0 +1.9912662647e+02 +1.5350077810e+02 -8.6748218625e+02 9.0318284179e+02 0.0000000000e+00 0.0000e+00 1.0000e+00
       13  1    1    2    0    0 -1.9912662647e+02 -1.5350077810e+02 +7.9584867735e+01 2.6371889091e+02 0.0000000000e+00 0.0000e+00 -1.0000e+00
<mgrwt>
<rscale>  0 0.86074239E+03</rscale>
<asrwt>0</asrwt>
<pdfrwt beam="1">  1        2 0.29154185E-01 0.86074239E+03</pdfrwt>
<pdfrwt beam="2">  1       -2 0.15036916E+00 0.86074239E+03</pdfrwt>
<totfact> 0.65337805E+01</totfact>
</mgrwt>
<rwgt>
<wgt id='morphing_basis_vector_1'> +2.7131974e-04 </wgt>
<wgt id='morphing_basis_vector_2'> +1.6583620e-04 </wgt>
<wgt id='morphing_basis_vector_3'> +2.4989656e-04 </wgt>
<wgt id='morphing_basis_vector_4'> +1.4304580e-04 </wgt>
<wgt id='morphing_basis_vector_5'> +2.2536959e-04 </wgt>
</rwgt>
</event>
<event>
 4      1 +2.9741700e-06 8.18312000e+02 7.81860800e-03 8.87964500e-02
        2 -1    0    0  501    0 +0.0000000000e+00 +0.0000000000e+00 +8.4428664608e+01 8.4428664608e+01 0.0000000000e+00 0.0000e+00 -1.0000e+00
       -2 -1    0    0    0  501 -0.0000000000e+00 -0.0000000000e+00 -1.9828412094e+03 1.9828412094e+03 0.0000000000e+00 0.0000e+00 1.0000e+00
      -13  1    1    2    0    0 +5.8391441013e+01 -3.1282780043e+02 -1.5988919057e+03 1.6302533911e+03 0.0000000000e+00 0.0000e+00 1.0000e+00
       13  1    1    2    0    0 -5.8391441013e+01 +3.1282780043e+02 -2.9952063916e+02 4.3701648297e+02 0.0000000000e+00 0.0000e+00 -1.0000e+00
<mgrwt>
<rscale>  0 0.81831201E+03</rscale>
<asrwt>0</asrwt>
<pdfrwt beam="1">  1        2 0.12989026E-01 0.81831201E+03</pdfrwt>
<pdfrwt beam="2">  1       -2 0.30505248E+00 0.81831201E+03</pdfrwt>
<totfact> 0.13586713E+01</totfact>
</mgrwt>
<rwgt>
<wgt id='morphing_basis_vector_1'> +2.2676166e-04 </wgt>
<wgt id='morphing_basis_vector_2'> +1.3823406e-04 </wgt>
<wgt id='morphing_basis_vector_3'> +2.0521833e-04 </wgt>
<wgt id='morphing_basis_vector_4'> +1.1374222e-04 </wgt>
<wgt id='morphing_basis_vector_5'> +1.7943858e-04 </wgt>
</rwgt>
</event>
<event>
 4      1 +2.9741700e-06 7.70994500e+02 7.81860800e-03 8.93940400e-02
        2 -1    0    0  501    0 +0.0000000000e+00 +0.0000000000e+00 +1.7035462930e+03 1.7035462930e+03 0.0000000000e+00 0.0000e+00 1.0000e+00
       -2 -1    0    0    0  501 -0.0000000000e+00 -0.0000000000e+00 -8.7234578479e+01 8.7234578479e+01 0.0000000000e+00 0.0000e+00 -1.0000e+00
      -13  1    1    2    0    0 +3.0848092543e+02 -1.6230732480e+02 +4.2576474289e+02 5.5025427334e+02 0.0000000000e+00 0.0000e+00 -1.0000e+00
       13  1    1    2    0    0 -3.0848092543e+02 +1.6230732480e+02 +1.1905469716e+03 1.2405265981e+03 0.0000000000e+00 0.0000e+00 1.0000e+00
<mgrwt>
<rscale>  0 0.77099453E+03</rscale>
<asrwt>0</asrwt>
<pdfrwt beam="1">  1        2 0.26208402E+00 0.77099453E+03</pdfrwt>
<pdfrwt beam="2">  1       -2 0.13420706E-01 0.77099453E+03</pdfrwt>
<totfact> 0.47316072E+02</totfact>
</mgrwt>
<rwgt>
<wgt id='morphing_basis_vector_1'> +1.8444229e-04 </wgt>
<wgt id='morphing_basis_vector_2'> +1.1305684e-04 </wgt>
<wgt id='morphing_basis_vector_3'> +1.6303001e-04 </wgt>
<wgt id='morphing_basis_vector_4'> +8.6054246e-05 </wgt>
<wgt id='morphing_basis_vector_5'> +1.3661570e-04 </wgt>
</rwgt>
</event>
<event>
 4      1 +2.9741700e-06 8.44165000e+02 7.81860800e-03 8.84877300e-02
        2 -1    0    0  501    0 +0.0000000000e+00 +0.0000000000e+00 +3.7079324577e+02 3.7079324577e+02 0.0000000000e+00 0.0000e+00 1.0000e+00
       -2 -1    0    0    0  501 -0.0000000000e+00 -0.0000000000e+00 -4.8046619193e+02 4.8046619193e+02 0.0000000000e+00 0.0000e+00 -1.0000e+00
      -13  1    1    2    0    0 +1.2952708463e+02 +2.2898292656e+02 -3.8767579530e+02 4.6851143910e+02 0.0000000000e+00 0.0000e+00 -1.0000e+00
       13  1    1    2    0    0 -1.2952708463e+02 -2.2898292656e+02 +2.7800284914e+02 3.8274799861e+02 0.0000000000e+00 0.0000e+00 1.0000e+00
<mgrwt>
<rscale>  0 0.84416496E+03</rscale>
<asrwt>0</asrwt>
<pdfrwt beam="1">  1        2 0.57045115E-01 0.84416496E+03</pdfrwt>
<pdfrwt beam="2">  1       -2 0.73917876E-01 0.84416496E+03</pdfrwt>
<totfact> 0.17819520E+02</totfact>
</mgrwt>
<rwgt>
<wgt id='morphing_basis_vector_1'> +2.5305438e-04 </wgt>
<wgt id='morphing_basis_vector_2'> +1.5424065e-04 </wgt>
<wgt id='morphing_basis_vector_3'> +2.3157022e-04 </wgt>
<wgt id='morphing_basis_vector_4'> +1.3116002e-04 </wgt>
<wgt id='morphing_basis_vector_5'> +2.0652887e-04 </wgt>
</rwgt>
</event>
<event>
 4      1 +2.9741700e-06 8.24381700e+02 7.81860800e-03 8.87229000e-02
        2 -1    0    0  501    0 +0.0000000000e+00 +0.0000000000e+00 +8.6905026577e+02 8.6905026577e+02 0.0000000000e+00 0.0000e+00 -1.0000e+00
       -2 -1    0    0    0  501 -0.0000000000e+00 -0.0000000000e+00 -1.9550226703e+02 1.9550226703e+02 0.0000000000e+00 0.0000e+00 1.0000e+00
      -13  1    1    2    0    0 -3.1797162289e+02 +6.4857883517e+01 +8.5900329909e+00 3.2463254102e+02 0.0000000000e+00 0.0000e+00 1.0000e+00
       13  1    1    2    0    0 +3.1797162289e+02 -6.4857883517e+01 +6.6495796575e+02 7.3991999178e+02 0.0000000000e+00 0.0000e+00 -1.0000e+00
<mgrwt>
<rscale>  0 0.82438170E+03</rscale>
<asrwt>0</asrwt>
<pdfrwt beam="1">  1        2 0.13370004E+00 0.82438170E+03</pdfrwt>
<pdfrwt beam="2">  1       -2 0.30077272E-01 0.82438170E+03</pdfrwt>
<totfact> 0.37275835E+02</totfact>
</mgrwt>
<rwgt>
<wgt id='morphing_basis_vector_1'> +2.3285163e-04 </wgt>
<wgt id='morphing_basis_vector_2'> +1.4223076e-04 </wgt>
<wgt id='morphing_basis_vector_3'> +2.1126768e-04 </wgt>
<wgt id='morphing_basis_vector_4'> +1.1751466e-04 </wgt>
<wgt id='morphing_basis_vector_5'> +1.8554614e-04 </wgt>
</rwgt>
</event>
<event>
 4      1 +2.9741700e-06 8.51355400e+02 7.81860800e-03 8.84039300e-02
        2 -1    0    0  501    0 +0.0000000000e+00 +0.0000000000e+00 +2.4419783580e+03 2.4419783580e+03 0.0000000000e+00 0.0000e+00 -1.0000e+00
       -2 -1    0    0    0  501 -0.0000000000e+00 -0.0000000000e+00 -7.4202741830e+01 7.4202741830e+01 0.0000000000e+00 0.0000e+00 1.0000e+00
      -13  1    1    2    0    0 -8.4727781196e+01 -4.0733136227e+02 +9.1782950067e+02 1.0077244802e+03 0.0000000000e+00 0.0000e+00 1.0000e+00
       13  1    1    2    0    0 +8.4727781196e+01 +4.0733136227e+02 +1.4499461155e+03 1.5084566197e+03 0.0000000000e+00 0.0000e+00 -1.0000e+00
<mgrwt>
<rscale>  0 0.85135537E+03</rscale>
<asrwt>0</asrwt>
<pdfrwt beam="1">  1        2 0.37568892E+00 0.85135537E+03</pdfrwt>
<pdfrwt beam="2">  1       -2 0.11415808E-01 0.85135537E+03</pdfrwt>
<totfact> 0.23517382E+02</totfact>
</mgrwt>
<rwgt>
<wgt id='morphing_basis_vector_1'> +2.6485816e-04 </wgt>
<wgt id='morphing_basis_vector_2'> +1.7140864e-04 </wgt>
<wgt id='morphing_basis_vector_3'> +2.4218989e-04 </wgt>
<wgt id='morphing_basis_vector_4'> +1.3082003e-04 </wgt>
<wgt id='morphing_basis_vector_5'> +2.1429337e-04 </wgt>
</rwgt>
</event>
<event>
 4      1 +2.9741700e-06 8.14648200e+02 7.81860800e-03 8.88411800e-02
        2 -1    0    0  501    0 +0.0000000000e+00 +0.0000000000e+00 +3.0955014590e+02 3.0955014590e+02 0.0000000000e+00 0.0000e+00 1.0000e+00
       -2 -1    0    0    0  501 -0.0000000000e+00 -0.0000000000e+00 -5.3598078713e+02 5.3598078713e+02 0.0000000000e+00 0.0000e+00 -1.0000e+00
      -13  1    1    2    0    0 +2.6060445090e+02 -2.9859976325e+02 -2.1078117845e+02 4.4889330985e+02 0.0000000000e+00 0.0000e+00 -1.0000e+00
       13  1    1    2    0    0 -2.6060445090e+02 +2.9859976325e+02 -1.5649462784e+01 3.9663762318e+02 0.0000000000e+00 0.0000e+00 1.0000e+00
<mgrwt>
<rscale>  0 0.81464822E+03</rscale>
<asrwt>0</asrwt>
<pdfrwt beam="1">  1        2 0.47623100E-01 0.81464822E+03</pdfrwt>
<pdfrwt beam="2">  1       -2 0.82458582E-01 0.81464822E+03</pdfrwt>
<totfact> 0.17123220E+02</totfact>
</mgrwt>
<rwgt>
<wgt id='morphing_basis_vector_1'> +2.2597618e-04 </wgt>
<wgt id='morphing_basis_vector_2'> +1.4452164e-04 </wgt>
<wgt id='morphing_basis_vector_3'> +2.0340769e-04 </wgt>
<wgt id='morphing_basis_vector_4'> +1.0786155e-04 </wgt>
<wgt id='morphing_basis_vector_5'> +1.7566070e-04 </wgt>
</rwgt>
</event>
<event>
 4      1 +2.9741700e-06 7.82688700e+02 7.81860800e-03 8.92422000e-02
        2 -1    0    0  501    0 +0.0000000000e+00 +0.0000000000e+00 +8.6318771619e+02 8.6318771619e+02 0.0000000000e+00 0.0000e+00 1.0000e+00
       -2 -1    0    0    0  501 -0.0000000000e+00 -0.0000000000e+00 -1.7742419070e+02 1.7742419070e+02 0.0000000000e+00 0.0000e+00 -1.0000e+00
      -13  1    1    2    0    0 +2.5522797455e+02 -1.9657341592e+02 +4.7473715091e+01 3.2563197089e+02 0.0000000000e+00 0.0000e+00 -1.0000e+00
       13  1    1    2    0    0 -2.5522797455e+02 +1.9657341592e+02 +6.3828981040e+02 7.1497993601e+02 0.0000000000e+00 0.0000e+00 1.0000e+00
<mgrwt>
<rscale>  0 0.78268865E+03</rscale>
<asrwt>0</asrwt>
<pdfrwt beam="1">  1        2 0.13279811E+00 0.78268865E+03</pdfrwt>
<pdfrwt beam="2">  1       -2 0.27296030E-01 0.78268865E+03</pdfrwt>
<totfact> 0.44666658E+02</totfact>
</mgrwt>
<rwgt>
<wgt id='morphing_basis_vector_1'> +1.9385338e-04 </wgt>
<wgt id='morphing_basis_vector_2'> +1.1763321e-04 </wgt>
<wgt id='morphing_basis_vector_3'> +1.7255506e-04 </wgt>
<wgt id='morphing_basis_vector_4'> +9.2887556e-05 </wgt>
<wgt id='morphing_basis_vector_5'> +1.4644683e-04 </wgt>
</rwgt>
</event>
<event>
 4      1 +2.9741700e-06 7.54960100e+02 7.81860800e-03 8.96069500e-02
        2 -1    0    0  501    0 +0.0000000000e+00 +0.0000000000e+00 +9.9938551694e+02 9.9938551694e+02 0.0000000000e+00 0.0000e+00 1.0000e+00
       -2 -1    0    0    0  501 -0.0000000000e+00 -0.0000000000e+00 -1.4257880200e+02 1.4257880200e+02 0.0000000000e+00 0.0000e+00 -1.0000e+00
      -13  1    1    2    0    0 +2.3266926386e+02 -1.7828660665e+02 +6.8635827438e+01 3.0105145285e+02 0.0000000000e+00 0.0000e+00 -1.0000e+00
       13  1    1    2    0    0 -2.3266926386e+02 +1.7828660665e+02 +7.8817088750e+02 8.4091286609e+02 0.0000000000e+00 0.0000e+00 1.0000e+00
<mgrwt>
<rscale>  0 0.75496010E+03</rscale>
<asrwt>0</asrwt>
<pdfrwt beam="1">  1        2 0.15375161E+00 0.75496010E+03</pdfrwt>
<pdfrwt beam="2">  1       -2 0.21935201E-01 0.75496010E+03</pdfrwt>
<totfact> 0.53164614E+02</totfact>
</mgrwt>
<rwgt>
<wgt id='morphing_basis_vector_1'> +1.7064137e-04 </wgt>
<wgt id='morphing_basis_vector_2'> +1.0243922e-04 </wgt>
<wgt id='morphing_basis_vector_3'> +1.4985159e-04 </wgt>
<wgt id='morphing_basis_vector_4'> +7.9046661e-05 </wgt>
<wgt id='morphing_basis_vector_5'> +1.2398442e-04 </wgt>
</rwgt>
</event>
<event>
 4      1 +2.9741700e-06 7.68842100e+02 7.81860800e-03 8.94223000e-02
        2 -1    0    0  501    0 +0.0000000000e+00 +0.0000000000e+00 +3.6403588677e+02 3.6403588677e+02 0.0000000000e+00 0.0000e+00 1.0000e+00
       -2 -1    0    0    0  501 -0.0000000000e+00 -0.0000000000e+00 -4.0594769397e+02 4.0594769397e+02 0.0000000000e+00 0.0000e+00 -1.0000e+00
      -13  1    1    2    0    0 -2.4834257777e+02 -1.7022047565e+02 +2.1841881232e+02 3.7196212689e+02 0.0000000000e+00 0.0000e+00 1.0000e+00
       13  1    1    2    0    0 +2.4834257777e+02 +1.7022047565e+02 -2.6033061953e+02 3.9802145385e+02 0.0000000000e+00 0.0000e+00 -1.0000e+00
<mgrwt>
<rscale>  0 0.76884206E+03</rscale>
<asrwt>0</asrwt>
<pdfrwt beam="1">  1        2 0.56005522E-01 0.76884206E+03</pdfrwt>
<pdfrwt beam="2">  1       -2 0.62453491E-01 0.76884206E+03</pdfrwt>
<totfact> 0.26108576E+02</totfact>
</mgrwt>
<rwgt>
<wgt id='morphing_basis_vector_1'> +2.2528517e-04 </wgt>
<wgt id='morphing_basis_vector_2'> +2.4274552e-04 </wgt>
<wgt id='morphing_basis_vector_3'> +1.8372249e-04 </wgt>
<wgt id='morphing_basis_vector_4'> +3.3673497e-05 </wgt>
<wgt id='morphing_basis_vector_5'> +1.3289518e-04 </wgt>
</rwgt>
</event>
<event>
 4      1 +2.9741700e-06 7.98946900e+02 7.81860800e-03 8.90357100e-02
        2 -1    0    0  501    0 +0.0000000000e+00 +0.0000000000e+00 +1.7647410542e+02 1.7647410542e+02 0.0000000000e+00 0.0000e+00 1.0000e+00
       -2 -1    0    0    0  501 -0.0000000000e+00 -0.0000000000e+00 -9.0426311788e+02 9.0426311788e+02 0.0000000000e+00 0.0000e+00 -1.0000e+00
      -13  1    1    2    0    0 -2.7450755690e+02 +2.1358787387e+02 -9.8114000283e+01 3.6138696118e+02 0.0000000000e+00 0.0000e+00 1.0000e+00
       13  1    1    2    0    0 +2.7450755690e+02 -2.1358787387e+02 -6.2967501218e+02 7.1935026213e+02 0.0000000000e+00 0.0000e+00 -1.0000e+00
<mgrwt>
<rscale>  0 0.79894687E+03</rscale>
<asrwt>0</asrwt>
<pdfrwt beam="1">  1        2 0.27149862E-01 0.79894687E+03</pdfrwt>
<pdfrwt beam="2">  1       -2 0.13911740E+00 0.79894687E+03</pdfrwt>
<totfact> 0.88624969E+01</totfact>
</mgrwt>
<rwgt>
<wgt id='morphing_basis_vector_1'> +2.4417325e-04 </wgt>
<wgt id='morphing_basis_vector_2'> +2.3635069e-04 </wgt>
<wgt id='morphing_basis_vector_3'> +2.0821103e-04 </wgt>
<wgt id='morphing_basis_vector_4'> +5.6899245e-05 </wgt>
<wgt id='morphing_basis_vector_5'> +1.5898788e-04 </wgt>
</rwgt>
</event>
<event>
 4      1 +2.9741700e-06 8.60027600e+02 7.81860800e-03 8.83040200e-02
        2 -1    0    0  501    0 +0.0000000000e+00 +0.0000000000e+00 +1.6934887269e+03 1.6934887269e+03 0.0000000000e+00 0.0000e+00 -1.0000e+00
       -2 -1    0    0    0  501 -0.0000000000e+00 -0.0000000000e+00 -1.0918991194e+02 1.0918991194e+02 0.0000000000e+00 0.0000e+00 1.0000e+00
      -13  1    1    2    0    0 -1.5497772856e+02 -2.9522618681e+02 +2.2297732227e+02 4.0111779315e+02 0.0000000000e+00 0.0000e+00 1.0000e+00
       13  1    1    2    0    0 +1.5497772856e+02 +2.9522618681e+02 +1.3613214926e+03 1.4015608457e+03 0.0000000000e+00 0.0000e+00 -1.0000e+00
<mgrwt>
<rscale>  0 0.86002764E+03</rscale>
<asrwt>0</asrwt>
<pdfrwt beam="1">  1        2 0.26053671E+00 0.86002764E+03</pdfrwt>
<pdfrwt beam="2">  1       -2 0.16798449E-01 0.86002764E+03</pdfrwt>
<totfact> 0.33108158E+02</totfact>
</mgrwt>
<rwgt>
<wgt id='morphing_basis_vector_1'> +2.7093305e-04 </wgt>
<wgt id='morphing_basis_vector_2'> +1.6660837e-04 </wgt>
<wgt id='morphing_basis_vector_3'> +2.4938600e-04 </wgt>
<wgt id='morphing_basis_vector_4'> +1.4194316e-04 </wgt>
<wgt id='morphing_basis_vector_5'> +2.2450426e-04 </wgt>
</rwgt>
</event>
<event>
 4      1 +2.9741700e-06 7.72714300e+02 7.81860800e-03 8.93715300e-02
        2 -1    0    0  501    0 +0.0000000000e+00 +0.0000000000e+00 +7.9556180029e+02 7.9556180029e+02 0.0000000000e+00 0.0000e+00 1.0000e+00
       -2 -1    0    0    0  501 -0.0000000000e+00 -0.0000000000e+00 -1.8763073400e+02 1.8763073400e+02 0.0000000000e+00 0.0000e+00 -1.0000e+00
      -13  1    1    2    0    0 +2.6042041296e+02 -2.5214553323e+02 +1.3384726592e+02 3.8640814174e+02 0.0000000000e+00 0.0000e+00 -1.0000e+00
       13  1    1    2    0    0 -2.6042041296e+02 +2.5214553323e+02 +4.7408380037e+02 5.9678439255e+02 0.0000000000e+00 0.0000e+00 1.0000e+00
<mgrwt>
<rscale>  0 0.77271429E+03</rscale>
<asrwt>0</asrwt>
<pdfrwt beam="1">  1        2 0.12239412E+00 0.77271429E+03</pdfrwt>
<pdfrwt beam="2">  1       -2 0.28866267E-01 0.77271429E+03</pdfrwt>
<totfact> 0.45064890E+02</totfact>
</mgrwt>
<rwgt>
<wgt id='morphing_basis_vector_1'> +1.8640661e-04 </wgt>
<wgt id='morphing_basis_vector_2'> +1.1557210e-04 </wgt>
<wgt id='morphing_basis_vector_3'> +1.6472997e-04 </wgt>
<wgt id='morphing_basis_vector_4'> +8.6304562e-05 </wgt>
<wgt id='morphing_basis_vector_5'> +1.3800223e-04 </wgt>
</rwgt>
</event>
<event>
 4      1 +2.9741700e-06 7.94763400e+02 7.81860800e-03 8.90883400e-02
        2 -1    0    0  501    0 +0.0000000000e+00 +0.0000000000e+00 +2.8226655194e+02 2.8226655194e+02 0.0000000000e+00 0.0000e+00 1.0000e+00
       -2 -1    0    0    0  501 -0.0000000000e+00 -0.0000000000e+00 -5.5944356776e+02 5.5944356776e+02 0.0000000000e+00 0.0000e+00 -1.0000e+00
      -13  1    1    2    0    0 +2.9773900606e+02 -2.0109546465e+02 +4.1217469682e+01 3.6164455123e+02 0.0000000000e+00 0.0000e+00 -1.0000e+00
       13  1    1    2    0    0 -2.9773900606e+02 +2.0109546465e+02 -3.1839448550e+02 4.8006556847e+02 0.0000000000e+00 0.0000e+00 1.0000e+00
<mgrwt>
<rscale>  0 0.79476338E+03</rscale>
<asrwt>0</asrwt>
<pdfrwt beam="1">  1        2 0.43425624E-01 0.79476338E+03</pdfrwt>
<pdfrwt beam="2">  1       -2 0.86068240E-01 0.79476338E+03</pdfrwt>
<totfact> 0.17237655E+02</totfact>
</mgrwt>
<rwgt>
<wgt id='morphing_basis_vector_1'> +2.3367273e-04 </wgt>
<wgt id='morphing_basis_vector_2'> +2.1351276e-04 </wgt>
<wgt id='morphing_basis_vector_3'> +2.0018995e-04 </wgt>
<wgt id='morphing_basis_vector_4'> +6.3139786e-05 </wgt>
<wgt id='morphing_basis_vector_5'> +1.5556080e-04 </wgt>
</rwgt>
</event>
<event>
 4      1 +2.9741700e-06 7.96188300e+02 7.81860800e-03 8.90703800e-02
        2 -1    0    0  501    0 +0.0000000000e+00 +0.0000000000e+00 +6.5843803663e+02 6.5843803663e+02 0.0000000000e+00 0.0000e+00 -1.0000e+00
       -2 -1    0    0    0  501 -0.0000000000e+00 -0.0000000000e+00 -2.4068922864e+02 2.4068922864e+02 0.0000000000e+00 0.0000e+00 1.0000e+00
      -13  1    1    2    0    0 +3.1739855900e+02 +2.2789490534e+02 +1.2286277043e+02 4.0960126159e+02 0.0000000000e+00 0.0000e+00 1.0000e+00
       13  1    1    2    0    0 -3.1739855900e+02 -2.2789490534e+02 +2.9488603756e+02 4.8952600368e+02 0.0000000000e+00 0.0000e+00 -1.0000e+00
<mgrwt>
<rscale>  0 0.79618828E+03</rscale>
<asrwt>0</asrwt>
<pdfrwt beam="1">  1        2 0.10129816E+00 0.79618828E+03</pdfrwt>
<pdfrwt beam="2">  1       -2 0.37029112E-01 0.79618828E+03</pdfrwt>
<totfact> 0.36426256E+02</totfact>
</mgrwt>
<rwgt>
<wgt id='morphing_basis_vector_1'> +2.0883141e-04 </wgt>
<wgt id='morphing_basis_vector_2'> +1.3426474e-04 </wgt>
<wgt id='morphing_basis_vector_3'> +1.8618305e-04 </wgt>
<wgt id='morphing_basis_vector_4'> +9.6687200e-05 </wgt>
<wgt id='morphing_basis_vector_5'> +1.5822641e-04 </wgt>
</rwgt>
</event>
<event>
 4      1 +2.9741700e-06 8.58961400e+02 7.81860800e-03 8.83162400e-02
        2 -1    0    0  501    0 +0.0000000000e+00 +0.0000000000e+00 +5.5958233303e+02 5.5958233303e+02 0.0000000000e+00 0.0000e+00 1.0000e+00
       -2 -1    0    0    0  501 -0.0000000000e+00 -0.0000000000e+00 -3.2962741491e+02 3.2962741491e+02 0.0000000000e+00 0.0000e+00 -1.0000e+00
      -13  1    1    2    0    0 +3.4734591474e+02 -1.8060446375e+02 -6.7838466303e+01 3.9732759069e+02 0.0000000000e+00 0.0000e+00 -1.0000e+00
       13  1    1    2    0    0 -3.4734591474e+02 +1.8060446375e+02 +2.9779338442e+02 4.9188215725e+02 0.0000000000e+00 0.0000e+00 1.0000e+00
<mgrwt>
<rscale>  0 0.85896141E+03</rscale>
<asrwt>0</asrwt>
<pdfrwt beam="1">  1        2 0.86089590E-01 0.85896141E+03</pdfrwt>
<pdfrwt beam="2">  1       -2 0.50711910E-01 0.85896141E+03</pdfrwt>
<totfact> 0.24250848E+02</totfact>
</mgrwt>
<rwgt>
<wgt id='morphing_basis_vector_1'> +2.7099379e-04 </wgt>
<wgt id='morphing_basis_vector_2'> +1.6969738e-04 </wgt>
<wgt id='morphing_basis_vector_3'> +2.4907866e-04 </wgt>
<wgt id='morphing_basis_vector_4'> +1.3943924e-04 </wgt>
<wgt id='morphing_basis_vector_5'> +2.2317535e-04 </wgt>
</rwgt>
</event>
<event>
 4      1 +2.9741700e-06 8.09356700e+02 7.81860800e-03 8.89062200e-02
        2 -1    0    0  501    0 +0.0000000000e+00 +0.0000000000e+00 +5.0344249157e+02 5.0344249157e+02 0.0000000000e+00 0.0000e+00 -1.0000e+00
       -2 -1    0    0    0  501 -0.0000000000e+00 -0.0000000000e+00 -3.2528953388e+02 3.2528953388e+02 0.0000000000e+00 0.0000e+00 1.0000e+00
      -13  1    1    2    0    0 -3.6204472495e+01 -1.3895066460e+02 -2.9832792036e+02 3.3108548607e+02 0.0000000000e+00 0.0000e+00 1.0000e+00
       13  1    1    2    0    0 +3.6204472495e+01 +1.3895066460e+02 +4.7648087805e+02 4.9764653939e+02 0.0000000000e+00 0.0000e+00 -1.0000e+00
<mgrwt>
<rscale>  0 0.80935672E+03</rscale>
<asrwt>0</asrwt>
<pdfrwt beam="1">  1        2 0.77452691E-01 0.80935672E+03</pdfrwt>
<pdfrwt beam="2">  1       -2 0.50044544E-01 0.80935672E+03</pdfrwt>
<totfact> 0.28183985E+02</totfact>
</mgrwt>
<rwgt>
<wgt id='morphing_basis_vector_1'> +2.1762829e-04 </wgt>
<wgt id='morphing_basis_vector_2'> +1.3134559e-04 </wgt>
<wgt id='morphing_basis_vector_3'> +1.9630508e-04 </wgt>
<wgt id='morphing_basis_vector_4'> +1.0881873e-04 </wgt>
<wgt id='morphing_basis_vector_5'> +1.7071467e-04 </wgt>
</rwgt>
</event>
<event>
 4      1 +2.9741700e-06 8.19518200e+02 7.81860800e-03 8.87817800e-02
        2 -1    0    0  501    0 +0.0000000000e+00 +0.0000000000e+00 +1.2344708435e+03 1.2344708435e+03 0.0000000000e+00 0.0000e+00 -1.0000e+00
       -2 -1    0    0    0  501 -0.0000000000e+00 -0.0000000000e+00 -1.3601174154e+02 1.3601174154e+02 0.0000000000e+00 0.0000e+00 1.0000e+00
      -13  1    1    2    0    0 +3.4888178307e+02 +1.2329494483e+02 +2.5487392162e+02 4.4931153769e+02 0.0000000000e+00 0.0000e+00 1.0000e+00
       13  1    1    2    0    0 -3.4888178307e+02 -1.2329494483e+02 +8.4358518033e+02 9.2117104734e+02 0.0000000000e+00 0.0000e+00 -1.0000e+00
<mgrwt>
<rscale>  0 0.81951822E+03</rscale>
<asrwt>0</asrwt>
<pdfrwt beam="1">  1        2 0.18991858E+00 0.81951822E+03</pdfrwt>
<pdfrwt beam="2">  1       -2 0.20924884E-01 0.81951822E+03</pdfrwt>
<totfact> 0.41585652E+02</totfact>
</mgrwt>
<rwgt>
<wgt id='morphing_basis_vector_1'> +2.2888505e-04 </wgt>
<wgt id='morphing_basis_vector_2'> +1.4184475e-04 </wgt>
<wgt id='morphing_basis_vector_3'> +2.0699835e-04 </wgt>
<wgt id='morphing_basis_vector_4'> +1.1328742e-04 </wgt>
<wgt id='morphing_basis_vector_5'> +1.8058671e-04 </wgt>
</rwgt>
</event>
<event>
 4      1 +2.9741700e-06 7.76555900e+02 7.81860800e-03 8.93214800e-02
        2 -1    0    0  501    0 +0.0000000000e+00 +0.0000000000e+00 +1.5680847776e+03 1.5680847776e+03 0.0000000000e+00 0.0000e+00 -1.0000e+00
       -2 -1    0    0    0  501 -0.0000000000e+00 -0.0000000000e+00 -9.6142619887e+01 9.6142619887e+01 0.0000000000e+00 0.0000e+00 1.0000e+00
      -13  1    1    2    0    0 +2.3506738742e+02 -2.1313982949e+02 +2.5640517004e+02 4.0795695210e+02 0.0000000000e+00 0.0000e+00 1.0000e+00
       13  1    1    2    0    0 -2.3506738742e+02 +2.1313982949e+02 +1.2155369877e+03 1.2562704454e+03 0.0000000000e+00 0.0000e+00 -1.0000e+00
<mgrwt>
<rscale>  0 0.77655593E+03</rscale>
<asrwt>0</asrwt>
<pdfrwt beam="1">  1        2 0.24124379E+00 0.77655593E+03</pdfrwt>
<pdfrwt beam="2">  1       -2 0.14791173E-01 0.77655593E+03</pdfrwt>
<totfact> 0.47991251E+02</totfact>
</mgrwt>
<rwgt>
<wgt id='morphing_basis_vector_1'> +1.8852922e-04 </wgt>
<wgt id='morphing_basis_vector_2'> +1.1416484e-04 </wgt>
<wgt id='morphing_basis_vector_3'> +1.6732522e-04 </wgt>
<wgt id='morphing_basis_vector_4'> +8.9673171e-05 </wgt>
<wgt id='morphing_basis_vector_5'> +1.4124616e-04 </wgt>
</rwgt>
</event>
<event>
 4      1 +2.9741700e-06 8.16255700e+02 7.81860800e-03 8.88215200e-02
        2 -1    0    0  501    0 +0.0000000000e+00 +0.0000000000e+00 +6.3205852136e+02 6.3205852136e+02 0.0000000000e+00 0.0000e+00 -1.0000e+00
       -2 -1    0    0    0  501 -0.0000000000e+00 -0.0000000000e+00 -2.6353306911e+02 2.6353306911e+02 0.0000000000e+00 0.0000e+00 1.0000e+00
      -13  1    1    2    0    0 +3.3516638830e+02 -1.0755858745e+02 +4.1088851056e+02 5.4104965178e+02 0.0000000000e+00 0.0000e+00 1.0000e+00
       13  1    1    2    0    0 -3.3516638830e+02 +1.0755858745e+02 -4.2363058312e+01 3.5454193869e+02 0.0000000000e+00 0.0000e+00 -1.0000e+00
<mgrwt>
<rscale>  0 0.81625565E+03</rscale>
<asrwt>0</asrwt>
<pdfrwt beam="1">  1        2 0.97239772E-01 0.81625565E+03</pdfrwt>
<pdfrwt beam="2">  1       -2 0.40543549E-01 0.81625565E+03</pdfrwt>
<totfact> 0.32318909E+02</totfact>
</mgrwt>
<rwgt>
<wgt id='morphing_basis_vector_1'> +2.6508343e-04 </wgt>
<wgt id='morphing_basis_vector_2'> +2.6035275e-04 </wgt>
<wgt id='morphing_basis_vector_3'> +2.2865937e-04 </wgt>
<wgt id='morphing_basis_vector_4'> +6.0368852e-05 </wgt>
<wgt id='morphing_basis_vector_5'> +1.7507602e-04 </wgt>
</rwgt>
</event>
<event>
 4      1 +2.9741700e-06 8.83173100e+02 7.81860800e-03 8.80433200e-02
        2 -1    0    0  501    0 +0.0000000000e+00 +0.0000000000e+00 +6.6955665906e+02 6.6955665906e+02 0.0000000000e+00 0.0000e+00 -1.0000e+00
       -2 -1    0    0    0  501 -0.0000000000e+00 -0.0000000000e+00 -2.9123552333e+02 2.9123552333e+02 0.0000000000e+00 0.0000e+00 1.0000e+00
      -13  1    1    2    0    0 +4.1809781512e+02 +1.4210168548e+02 +1.8904150997e+02 4.8034921101e+02 0.0000000000e+00 0.0000e+00 1.0000e+00
       13  1    1    2    0    0 -4.1809781512e+02 -1.4210168548e+02 +1.8927962577e+02 4.8044297139e+02 0.0000000000e+00 0.0000e+00 -1.0000e+00
<mgrwt>
<rscale>  0 0.88317311E+03</rscale>
<asrwt>0</asrwt>
<pdfrwt beam="1">  1        2 0.10300872E+00 0.88317311E+03</pdfrwt>
<pdfrwt beam="2">  1       -2 0.44805465E-01 0.88317311E+03</pdfrwt>
<totfact> 0.24887979E+02</totfact>
</mgrwt>
<rwgt>
<wgt id='morphing_basis_vector_1'> +3.0812890e-04 </wgt>
<wgt id='morphing_basis_vector_2'> +2.1451725e-04 </wgt>
<wgt id='morphing_basis_vector_3'> +2.8435199e-04 </wgt>
<wgt id='morphing_basis_vector_4'> +1.4570480e-04 </wgt>
<wgt id='morphing_basis_vector_5'> +2.5204978e-04 </wgt>
</rwgt>
</event>
<event>
 4      1 +2.9741700e-06 7.95296100e+02 7.81860800e-03 8.90816200e-02
        2 -1    0    0  501    0 +0.0000000000e+00 +0.0000000000e+00 +2.5010245984e+02 2.5010245984e+02 0.0000000000e+00 0.0000e+00 -1.0000e+00
       -2 -1    0    0    0  501 -0.0000000000e+00 -0.0000000000e+00 -6.3223674098e+02 6.3223674098e+02 0.0000000000e+00 0.0000e+00 1.0000e+00
      -13  1    1    2    0    0 +1.2716726901e+02 +2.9966342445e+02 -4.4443511364e+02 5.5090130922e+02 0.0000000000e+00 0.0000e+00 1.0000e+00
       13  1    1    2    0    0 -1.2716726901e+02 -2.9966342445e+02 +6.2300832491e+01 3.3143789160e+02 0.0000000000e+00 0.0000e+00 -1.0000e+00
<mgrwt>
<rscale>  0 0.79529608E+03</rscale>
<asrwt>0</asrwt>
<pdfrwt beam="1">  1        2 0.38477301E-01 0.79529608E+03</pdfrwt>
<pdfrwt beam="2">  1       -2 0.97267192E-01 0.79529608E+03</pdfrwt>
<totfact> 0.14848607E+02</totfact>
</mgrwt>
<rwgt>
<wgt id='morphing_basis_vector_1'> +2.0508618e-04 </wgt>
<wgt id='morphing_basis_vector_2'> +1.2476842e-04 </wgt>
<wgt id='morphing_basis_vector_3'> +1.8365257e-04 </wgt>
<wgt id='morphing_basis_vector_4'> +9.9859732e-05 </wgt>
<wgt id='morphing_basis_vector_5'> +1.5757200e-04 </wgt>
</rwgt>
</event>
<event>
 4      1 +2.9741700e-06 8.30755100e+02 7.81860800e-03 8.86463800e-02
        2 -1    0    0  501    0 +0.0000000000e+00 +0.0000000000e+00 +2.4101871558e+02 2.4101871558e+02 0.0000000000e+00 0.0000e+00 -1.0000e+00
       -2 -1    0    0    0  501 -0.0000000000e+00 -0.0000000000e+00 -7.1587190329e+02 7.1587190329e+02 0.0000000000e+00 0.0000e+00 1.0000e+00
      -13  1    1    2    0    0 -5.9317602101e+00 -1.7580108797e+02 -6.7085440325e+02 6.9353214682e+02 0.0000000000e+00 0.0000e+00 1.0000e+00
       13  1    1    2    0    0 +5.9317602101e+00 +1.7580108797e+02 +1.9600121554e+02 2.6335847205e+02 0.0000000000e+00 0.0000e+00 -1.0000e+00
<mgrwt>
<rscale>  0 0.83075514E+03</rscale>
<asrwt>0</asrwt>
<pdfrwt beam="1">  1        2 0.37079803E-01 0.83075514E+03</pdfrwt>
<pdfrwt beam="2">  1       -2 0.11013414E+00 0.83075514E+03</pdfrwt>
<totfact> 0.11407080E+02</totfact>
</mgrwt>
<rwgt>
<wgt id='morphing_basis_vector_1'> +2.3884340e-04 </wgt>
<wgt id='morphing_basis_vector_2'> +1.4487393e-04 </wgt>
<wgt id='morphing_basis_vector_3'> +2.1740990e-04 </wgt>
<wgt id='morphing_basis_vector_4'> +1.2228285e-04 </wgt>
<wgt id='morphing_basis_vector_5'> +1.9215193e-04 </wgt>
</rwgt>
</event>
<event>
 4      1 +2.9741700e-06 8.72420400e+02 7.81860800e-03 8.81633800e-02
        2 -1    0    0  501    0 +0.0000000000e+00 +0.0000000000e+00 +4.8731585226e+02 4.8731585226e+02 0.0000000000e+00 0.0000e+00 -1.0000e+00
       -2 -1    0    0    0  501 -0.0000000000e+00 -0.0000000000e+00 -3.9046410554e+02 3.9046410554e+02 0.0000000000e+00 0.0000e+00 1.0000e+00
      -13  1    1    2    0    0 -2.8712833366e+02 -3.2836232395e+02 +4.4548292022e+01 4.3846213759e+02 0.0000000000e+00 0.0000e+00 1.0000e+00
       13  1    1    2    0    0 +2.8712833366e+02 +3.2836232395e+02 +5.2303454697e+01 4.3931782021e+02 0.0000000000e+00 0.0000e+00 -1.0000e+00
<mgrwt>
<rscale>  0 0.87242042E+03</rscale>
<asrwt>0</asrwt>
<pdfrwt beam="1">  1        2 0.74971669E-01 0.87242042E+03</pdfrwt>
<pdfrwt beam="2">  1       -2 0.60071401E-01 0.87242042E+03</pdfrwt>
<totfact> 0.20225701E+02</totfact>
</mgrwt>
<rwgt>
<wgt id='morphing_basis_vector_1'> +2.9447138e-04 </wgt>
<wgt id='morphing_basis_vector_2'> +2.0391410e-04 </wgt>
<wgt id='morphing_basis_vector_3'> +2.7059684e-04 </wgt>
<wgt id='morphing_basis_vector_4'> +1.3849715e-04 </wgt>
<wgt id='morphing_basis_vector_5'> +2.3869233e-04 </wgt>
</rwgt>
</event>
<event>
 4      1 +2.9741700e-06 7.59765000e+02 7.81860800e-03 8.95425700e-02
        2 -1    0    0  501    0 +0.0000000000e+00 +0.0000000000e+00 +1.5693539903e+03 1.5693539903e+03 0.0000000000e+00 0.0000e+00 -1.0000e+00
       -2 -1    0    0    0  501 -0.0000000000e+00 -0.0000000000e+00 -9.1955484072e+01 9.1955484072e+01 0.0000000000e+00 0.0000e+00 1.0000e+00
      -13  1    1    2    0    0 -4.0920588250e+01 -3.5392814073e+02 +4.5050540077e+02 5.7436463981e+02 0.0000000000e+00 0.0000e+00 1.0000e+00
       13  1    1    2    0    0 +4.0920588250e+01 +3.5392814073e+02 +1.0268931055e+03 1.0869448346e+03 0.0000000000e+00 0.0000e+00 -1.0000e+00
<mgrwt>
<rscale>  0 0.75976498E+03</rscale>
<asrwt>0</asrwt>
<pdfrwt beam="1">  1        2 0.24143906E+00 0.75976498E+03</pdfrwt>
<pdfrwt beam="2">  1       -2 0.14146999E-01 0.75976498E+03</pdfrwt>
<totfact> 0.51536719E+02</totfact>
</mgrwt>
<rwgt>
<wgt id='morphing_basis_vector_1'> +1.7567100e-04 </wgt>
<wgt id='morphing_basis_vector_2'> +1.0855594e-04 </wgt>
<wgt id='morphing_basis_vector_3'> +1.5420224e-04 </wgt>
<wgt id='morphing_basis_vector_4'> +7.9941573e-05 </wgt>
<wgt id='morphing_basis_vector_5'> +1.2763522e-04 </wgt>
</rwgt>
</event>
<event>
 4      1 +2.9741700e-06 8.18658500e+02 7.81860800e-03 8.87922400e-02
        2 -1    0    0  501    0 +0.0000000000e+00 +0.0000000000e+00 +2.8833480463e+03 2.8833480463e+03 0.0000000000e+00 0.0000e+00 -1.0000e+00
       -2 -1    0    0    0  501 -0.0000000000e+00 -0.0000000000e+00 -5.8109678999e+01 5.8109678999e+01 0.0000000000e+00 0.0000e+00 1.0000e+00
      -13  1    1    2    0    0 +1.6931761525e+01 -4.0880687958e+02 +1.3700028448e+03 1.4297963296e+03 0.0000000000e+00 0.0000e+00 1.0000e+00
       13  1    1    2    0    0 -1.6931761525e+01 +4.0880687958e+02 +1.4552355225e+03 1.5116613957e+03 0.0000000000e+00 0.0000e+00 -1.0000e+00
<mgrwt>
<rscale>  0 0.81865849E+03</rscale>
<asrwt>0</asrwt>
<pdfrwt beam="1">  1        2 0.44359189E+00 0.81865849E+03</pdfrwt>
<pdfrwt beam="2">  1       -2 0.89399529E-02 0.81865849E+03</pdfrwt>
<totfact> 0.18809487E+02</totfact>
</mgrwt>
<rwgt>
<wgt id='morphing_basis_vector_1'> +2.3383727e-04 </wgt>
<wgt id='morphing_basis_vector_2'> +1.5904831e-04 </wgt>
<wgt id='morphing_basis_vector_3'> +2.0983983e-04 </wgt>
<wgt id='morphing_basis_vector_4'> +1.0523431e-04 </wgt>
<wgt id='morphing_basis_vector_5'> +1.7939150e-04 </wgt>
</rwgt>
</event>
<event>
 4      1 +2.9741700e-06 7.50778100e+02 7.81860800e-03 8.96634100e-02
        2 -1    0    0  501    0 +0.0000000000e+00 +0.0000000000e+00 +1.5100479078e+02 1.5100479078e+02 0.0000000000e+00 0.0000e+00 -1.0000e+00
       -2 -1    0    0    0  501 -0.0000000000e+00 -0.0000000000e+00 -9.3319518267e+02 9.3319518267e+02 0.0000000000e+00 0.0000e+00 1.0000e+00
      -13  1    1    2    0    0 -3.1421207190e+02 -8.6825037493e+01 -6.5990428993e+02 7.3603089958e+02 0.0000000000e+00 0.0000e+00 1.0000e+00
       13  1    1    2    0    0 +3.1421207190e+02 +8.6825037493e+01 -1.2228610196e+02 3.4816907387e+02 0.0000000000e+00 0.0000e+00 -1.0000e+00
<mgrwt>
<rscale>  0 0.75077811E+03</rscale>
<asrwt>0</asrwt>
<pdfrwt beam="1">  1        2 0.23231507E-01 0.75077811E+03</pdfrwt>
<pdfrwt beam="2">  1       -2 0.14356849E+00 0.75077811E+03</pdfrwt>
<totfact> 0.97837614E+01</totfact>
</mgrwt>
<rwgt>
<wgt id='morphing_basis_vector_1'> +1.6775788e-04 </wgt>
<wgt id='morphing_basis_vector_2'> +1.0157362e-04 </wgt>
<wgt id='morphing_basis_vector_3'> +1.4684112e-04 </wgt>
<wgt id='morphing_basis_vector_4'> +7.6608652e-05 </wgt>
<wgt id='morphing_basis_vector_5'> +1.2080779e-04 </wgt>
</rwgt>
</event>
<event>
 4      1 +2.9741700e-06 7.90830100e+02 7.81860800e-03 8.91381400e-02
        2 -1    0    0  501    0 +0.0000000000e+00 +0.0000000000e+00 +4.9284939080e+02 4.9284939080e+02 0.0000000000e+00 0.0000e+00 -1.0000e+00
       -2 -1    0    0    0  501 -0.0000000000e+00 -0.0000000000e+00 -3.1724309768e+02 3.1724309768e+02 0.0000000000e+00 0.0000e+00 1.0000e+00
      -13  1    1    2    0    0 -1.1384473637e+02 -2.8707263534e+02 -1.6515655025e+02 3.5021137625e+02 0.0000000000e+00 0.0000e+00 1.0000e+00
       13  1    1    2    0    0 +1.1384473637e+02 +2.8707263534e+02 +3.4076284337e+02 4.5988111223e+02 0.0000000000e+00 0.0000e+00 -1.0000e+00
<mgrwt>
<rscale>  0 0.79083011E+03</rscale>
<asrwt>0</asrwt>
<pdfrwt beam="1">  1        2 0.75822983E-01 0.79083011E+03</pdfrwt>
<pdfrwt beam="2">  1       -2 0.48806630E-01 0.79083011E+03</pdfrwt>
<totfact> 0.30349106E+02</totfact>
</mgrwt>
<rwgt>
<wgt id='morphing_basis_vector_1'> +2.0089107e-04 </wgt>
<wgt id='morphing_basis_vector_2'> +1.2171517e-04 </wgt>
<wgt id='morphing_basis_vector_3'> +1.7956913e-04 </wgt>
<wgt id='morphing_basis_vector_4'> +9.7546235e-05 </wgt>
<wgt id='morphing_basis_vector_5'> +1.5357230e-04 </wgt>
</rwgt>
</event>
<event>
 4      1 +2.9741700e-06 7.81859600e+02 7.81860800e-03 8.92528700e-02
        2 -1    0    0  501    0 +0.0000000000e+00 +0.0000000000e+00 +1.6673142776e+03 1.6673142776e+03 0.0000000000e+00 0.0000e+00 -1.0000e+00
       -2 -1    0    0    0  501 -0.0000000000e+00 -0.0000000000e+00 -9.1660058964e+01 9.1660058964e+01 0.0000000000e+00 0.0000e+00 1.0000e+00
      -13  1    1    2    0    0 -5.6217572537e+01 +3.8139859705e+02 +6.4201361155e+02 7.4887033771e+02 0.0000000000e+00 0.0000e+00 1.0000e+00
       13  1    1    2    0    0 +5.6217572537e+01 -3.8139859705e+02 +9.3364060709e+02 1.0101039989e+03 0.0000000000e+00 0.0000e+00 -1.0000e+00
<mgrwt>
<rscale>  0 0.78185964E+03</rscale>
<asrwt>0</asrwt>
<pdfrwt beam="1">  1        2 0.25650987E+00 0.78185964E+03</pdfrwt>
<pdfrwt beam="2">  1       -2 0.14101549E-01 0.78185964E+03</pdfrwt>
<totfact> 0.45707380E+02</totfact>
</mgrwt>
<rwgt>
<wgt id='morphing_basis_vector_1'> +1.9619909e-04 </wgt>
<wgt id='morphing_basis_vector_2'> +1.2657851e-04 </wgt>
<wgt id='morphing_basis_vector_3'> +1.7355113e-04 </wgt>
<wgt id='morphing_basis_vector_4'> +8.8674440e-05 </wgt>
<wgt id='morphing_basis_vector_5'> +1.4558399e-04 </wgt>
</rwgt>
</event>
<event>
 4      1 +2.9741700e-06 8.02330100e+02 7.81860800e-03 8.89934000e-02
        2 -1    0    0  501    0 +0.0000000000e+00 +0.0000000000e+00 +7.9519984987e+02 7.9519984987e+02 0.0000000000e+00 0.0000e+00 1.0000e+00
       -2 -1    0    0    0  501 -0.0000000000e+00 -0.0000000000e+00 -2.0238109052e+02 2.0238109052e+02 0.0000000000e+00 0.0000e+00 -1.0000e+00
      -13  1    1    2    0    0 -6.7643310738e+01 +3.3882476511e+02 +4.2949234790e+01 3.4817018211e+02 0.0000000000e+00 0.0000e+00 -1.0000e+00
       13  1    1    2    0    0 +6.7643310738e+01 -3.3882476511e+02 +5.4986952456e+02 6.4941075829e+02 0.0000000000e+00 0.0000e+00 1.0000e+00
<mgrwt>
<rscale>  0 0.80233014E+03</rscale>
<asrwt>0</asrwt>
<pdfrwt beam="1">  1        2 0.12233844E+00 0.80233014E+03</pdfrwt>
<pdfrwt beam="2">  1       -2 0.31135553E-01 0.80233014E+03</pdfrwt>
<totfact> 0.39402809E+02</totfact>
</mgrwt>
<rwgt>
<wgt id='morphing_basis_vector_1'> +2.1185182e-04 </wgt>
<wgt id='morphing_basis_vector_2'> +1.2975333e-04 </wgt>
<wgt id='morphing_basis_vector_3'> +1.9024512e-04 </wgt>
<wgt id='morphing_basis_vector_4'> +1.0355575e-04 </wgt>
<wgt id='morphing_basis_vector_5'> +1.6402109e-04 </wgt>
</rwgt>
</event>
<event>
 4      1 +2.9741700e-06 7.64485400e+02 7.81860800e-03 8.94798000e-02
        2 -1    0    0  501    0 +0.0000000000e+00 +0.0000000000e+00 +1.6516845891e+03 1.6516845891e+03 0.0000000000e+00 0.0000e+00 -1.0000e+00
       -2 -1    0    0    0  501 -0.0000000000e+00 -0.0000000000e+00 -8.8460886309e+01 8.8460886309e+01 0.0000000000e+00 0.0000e+00 1.0000e+00
      -13  1    1    2    0    0 -1.2198598818e+02 +2.4209465251e+02 +1.6821473154e+02 3.1904011973e+02 0.0000000000e+00 0.0000e+00 1.0000e+00
       13  1    1    2    0    0 +1.2198598818e+02 -2.4209465251e+02 +1.3950089713e+03 1.4211053557e+03 0.0000000000e+00 0.0000e+00 -1.0000e+00
<mgrwt>
<rscale>  0 0.76448540E+03</rscale>
<asrwt>0</asrwt>
<pdfrwt beam="1">  1        2 0.25410530E+00 0.76448540E+03</pdfrwt>
<pdfrwt beam="2">  1       -2 0.13609368E-01 0.76448540E+03</pdfrwt>
<totfact> 0.49416922E+02</totfact>
</mgrwt>
<rwgt>
<wgt id='morphing_basis_vector_1'> +1.7814824e-04 </wgt>
<wgt id='morphing_basis_vector_2'> +1.0684310e-04 </wgt>
<wgt id='morphing_basis_vector_3'> +1.5726646e-04 </wgt>
<wgt id='morphing_basis_vector_4'> +8.3866103e-05 </wgt>
<wgt id='morphing_basis_vector_5'> +1.3140938e-04 </wgt>
</rwgt>
</event>
<event>
 4      1 +2.9741700e-06 8.83544500e+02 7.81860800e-03 8.80392100e-02
        2 -1    0    0  501    0 +0.0000000000e+00 +0.0000000000e+00 +1.5518685671e+03 1.5518685671e+03 0.0000000000e+00 0.0000e+00 -1.0000e+00
       -2 -1    0    0    0  501 -0.0000000000e+00 -0.0000000000e+00 -1.2575982890e+02 1.2575982890e+02 0.0000000000e+00 0.0000e+00 1.0000e+00
      -13  1    1    2    0    0 -4.0380570462e+02 +1.6400109135e+02 +5.7603735898e+02 7.2233956280e+02 0.0000000000e+00 0.0000e+00 1.0000e+00
       13  1    1    2    0    0 +4.0380570462e+02 -1.6400109135e+02 +8.5007137919e+02 9.5528883317e+02 0.0000000000e+00 0.0000e+00 -1.0000e+00
<mgrwt>
<rscale>  0 0.88354451E+03</rscale>
<asrwt>0</asrwt>
<pdfrwt beam="1">  1        2 0.23874900E+00 0.88354451E+03</pdfrwt>
<pdfrwt beam="2">  1       -2 0.19347667E-01 0.88354451E+03</pdfrwt>
<totfact> 0.31329728E+02</totfact>
</mgrwt>
<rwgt>
<wgt id='morphing_basis_vector_1'> +3.0377347e-04 </wgt>
<wgt id='morphing_basis_vector_2'> +2.0015792e-04 </wgt>
<wgt id='morphing_basis_vector_3'> +2.8117435e-04 </wgt>
<wgt id='morphing_basis_vector_4'> +1.5272218e-04 </wgt>
<wgt id='morphing_basis_vector_5'> +2.5286852e-04 </wgt>
</rwgt>
</event>
<event>
 4      1 +2.9741700e-06 7.61481800e+02 7.81860800e-03 8.95196800e-02
        2 -1    0    0  501    0 +0.0000000000e+00 +0.0000000000e+00 +1.0356047758e+03 1.0356047758e+03 0.0000000000e+00 0.0000e+00 1.0000e+00
       -2 -1    0    0    0  501 -0.0000000000e+00 -0.0000000000e+00 -1.3997967305e+02 1.3997967305e+02 0.0000000000e+00 0.0000e+00 -1.0000e+00
      -13  1    1    2    0    0 -1.8035919396e+02 +2.1842214826e+02 +5.5046878214e+01 2.8856166152e+02 0.0000000000e+00 0.0000e+00 -1.0000e+00
       13  1    1    2    0    0 +1.8035919396e+02 -2.1842214826e+02 +8.4057822454e+02 8.8702278734e+02 0.0000000000e+00 0.0000e+00 1.0000e+00
<mgrwt>
<rscale>  0 0.76148176E+03</rscale>
<asrwt>0</asrwt>
<pdfrwt beam="1">  1        2 0.15932381E+00 0.76148176E+03</pdfrwt>
<pdfrwt beam="2">  1       -2 0.21535335E-01 0.76148176E+03</pdfrwt>
<totfact> 0.52082854E+02</totfact>
</mgrwt>
<rwgt>
<wgt id='morphing_basis_vector_1'> +1.7577308e-04 </wgt>
<wgt id='morphing_basis_vector_2'> +1.0549835e-04 </wgt>
<wgt id='morphing_basis_vector_3'> +1.5490919e-04 </wgt>
<wgt id='morphing_basis_vector_4'> +8.2300530e-05 </wgt>
<wgt id='morphing_basis_vector_5'> +1.2903370e-04 </wgt>
</rwgt>
</event>
<event>
 4      1 +2.9741700e-06 8.51477800e+02 7.81860800e-03 8.84025100e-02
        2 -1    0    0  501    0 +0.0000000000e+00 +0.0000000000e+00 +6.4095707339e+02 6.4095707339e+02 0.0000000000e+00 0.0000e+00 -1.0000e+00
       -2 -1    0    0    0  501 -0.0000000000e+00 -0.0000000000e+00 -2.8278586367e+02 2.8278586367e+02 0.0000000000e+00 0.0000e+00 1.0000e+00
      -13  1    1    2    0    0 +2.0646951183e+02 -3.0647420896e+02 -5.0275318956e+01 3.7293928161e+02 0.0000000000e+00 0.0000e+00 1.0000e+00
       13  1    1    2    0    0 -2.0646951183e+02 +3.0647420896e+02 +4.0844652867e+02 5.5080365545e+02 0.0000000000e+00 0.0000e+00 -1.0000e+00
<mgrwt>
<rscale>  0 0.85147777E+03</rscale>
<asrwt>0</asrwt>
<pdfrwt beam="1">  1        2 0.98608780E-01 0.85147777E+03</pdfrwt>
<pdfrwt beam="2">  1       -2 0.43505518E-01 0.85147777E+03</pdfrwt>
<totfact> 0.27787846E+02</totfact>
</mgrwt>
<rwgt>
<wgt id='morphing_basis_vector_1'> +2.6199775e-04 </wgt>
<wgt id='morphing_basis_vector_2'> +1.6235250e-04 </wgt>
<wgt id='morphing_basis_vector_3'> +2.4022950e-04 </wgt>
<wgt id='morphing_basis_vector_4'> +1.3494961e-04 </wgt>
<wgt id='morphing_basis_vector_5'> +2.1462772e-04 </wgt>
</rwgt>
</event>
<event>
 4      1 +2.9741700e-06 7.72356800e+02 7.81860800e-03 8.93762100e-02
        2 -1    0    0  501    0 +0.0000000000e+00 +0.0000000000e+00 +1.9705165380e+03 1.9705165380e+03 0.0000000000e+00 0.0000e+00 -1.0000e+00
       -2 -1    0    0    0  501 -0.0000000000e+00 -0.0000000000e+00 -7.5682568549e+01 7.5682568549e+01 0.0000000000e+00 0.0000e+00 1.0000e+00
      -13  1    1    2    0    0 -3.6544142388e+02 -4.1188034954e+01 +1.2596500735e+03 1.3122355719e+03 0.0000000000e+00 0.0000e+00 1.0000e+00
       13  1    1    2    0    0 +3.6544142388e+02 +4.1188034954e+01 +6.3518389594e+02 7.3396353463e+02 0.0000000000e+00 0.0000e+00 -1.0000e+00
<mgrwt>
<rscale>  0 0.77235679E+03</rscale>
<asrwt>0</asrwt>
<pdfrwt beam="1">  1        2 0.30315635E+00 0.77235679E+03</pdfrwt>
<pdfrwt beam="2">  1       -2 0.11643474E-01 0.77235679E+03</pdfrwt>
<totfact> 0.42349980E+02</totfact>
</mgrwt>
<rwgt>
<wgt id='morphing_basis_vector_1'> +2.0281239e-04 </wgt>
<wgt id='morphing_basis_vector_2'> +1.6663200e-04 </wgt>
<wgt id='morphing_basis_vector_3'> +1.7337005e-04 </wgt>
<wgt id='morphing_basis_vector_4'> +6.5908759e-05 </wgt>
<wgt id='morphing_basis_vector_5'> +1.3692166e-04 </wgt>
</rwgt>
</event>
<event>
 4      1 +2.9741700e-06 8.25422300e+02 7.81860800e-03 8.87103600e-02
        2 -1    0    0  501    0 +0.0000000000e+00 +0.0000000000e+00 +3.4185804371e+02 3.4185804371e+02 0.0000000000e+00 0.0000e+00 1.0000e+00
       -2 -1    0    0    0  501 -0.0000000000e+00 -0.0000000000e+00 -4.9824916914e+02 4.9824916914e+02 0.0000000000e+00 0.0000e+00 -1.0000e+00
      -13  1    1    2    0    0 +2.0143238666e+02 -7.2296710328e+01 -4.3735988696e+02 4.8691425471e+02 0.0000000000e+00 0.0000e+00 -1.0000e+00
       13  1    1    2    0    0 -2.0143238666e+02 +7.2296710328e+01 +2.8096876153e+02 3.5319295814e+02 0.0000000000e+00 0.0000e+00 1.0000e+00
<mgrwt>
<rscale>  0 0.82542228E+03</rscale>
<asrwt>0</asrwt>
<pdfrwt beam="1">  1        2 0.52593545E-01 0.82542228E+03</pdfrwt>
<pdfrwt beam="2">  1       -2 0.76653718E-01 0.82542228E+03</pdfrwt>
<totfact> 0.18043606E+02</totfact>
</mgrwt>
<rwgt>
<wgt id='morphing_basis_vector_1'> +2.3344783e-04 </wgt>
<wgt id='morphing_basis_vector_2'> +1.4151678e-04 </wgt>
<wgt id='morphing_basis_vector_3'> +2.1201925e-04 </wgt>
<wgt id='morphing_basis_vector_4'> +1.1877242e-04 </wgt>
<wgt id='morphing_basis_vector_5'> +1.8663555e-04 </wgt>
</rwgt>
</event>
<event>
 4      1 +2.9741700e-06 8.39300100e+02 7.81860800e-03 8.85449200e-02
        2 -1    0    0  501    0 +0.0000000000e+00 +0.0000000000e+00 +6.2541373990e+02 6.2541373990e+02 0.0000000000e+00 0.0000e+00 -1.0000e+00
       -2 -1    0    0    0  501 -0.0000000000e+00 -0.0000000000e+00 -2.8158346592e+02 2.8158346592e+02 0.0000000000e+00 0.0000e+00 1.0000e+00
      -13  1    1    2    0    0 -1.7662261268e+02 +2.1187112536e+02 -1.6985554310e+02 3.2393799807e+02 0.0000000000e+00 0.0000e+00 1.0000e+00
       13  1    1    2    0    0 +1.7662261268e+02 -2.1187112536e+02 +5.1368581708e+02 5.8305920775e+02 0.0000000000e+00 0.0000e+00 -1.0000e+00
<mgrwt>
<rscale>  0 0.83930011E+03</rscale>
<asrwt>0</asrwt>
<pdfrwt beam="1">  1        2 0.96217498E-01 0.83930011E+03</pdfrwt>
<pdfrwt beam="2">  1       -2 0.43320533E-01 0.83930011E+03</pdfrwt>
<totfact> 0.28863003E+02</totfact>
</mgrwt>
<rwgt>
<wgt id='morphing_basis_vector_1'> +2.4791440e-04 </wgt>
<wgt id='morphing_basis_vector_2'> +1.5106398e-04 </wgt>
<wgt id='morphing_basis_vector_3'> +2.2641428e-04 </wgt>
<wgt id='morphing_basis_vector_4'> +1.2776819e-04 </wgt>
<wgt id='morphing_basis_vector_5'> +2.0122094e-04 </wgt>
</rwgt>
</event>
<event>
 4      1 +2.9741700e-06 8.47072700e+02 7.81860800e-03 8.84537400e-02
        2 -1    0    0  501    0 +0.0000000000e+00 +0.0000000000e+00 +1.0656233739e+03 1.0656233739e+03 0.0000000000e+00 0.0000e+00 -1.0000e+00
       -2 -1    0    0    0  501 -0.0000000000e+00 -0.0000000000e+00 -1.6833623662e+02 1.6833623662e+02 0.0000000000e+00 0.0000e+00 1.0000e+00
      -13  1    1    2    0    0 +1.4830944156e+02 +2.0134784396e+02 -4.9308924585e+01 2.5488823976e+02 0.0000000000e+00 0.0000e+00 1.0000e+00
       13  1    1    2    0    0 -1.4830944156e+02 -2.0134784396e+02 +9.4659606188e+02 9.7907137078e+02 0.0000000000e+00 0.0000e+00 -1.0000e+00
<mgrwt>
<rscale>  0 0.84707267E+03</rscale>
<asrwt>0</asrwt>
<pdfrwt beam="1">  1        2 0.16394205E+00 0.84707267E+03</pdfrwt>
<pdfrwt beam="2">  1       -2 0.25897883E-01 0.84707267E+03</pdfrwt>
<totfact> 0.36338123E+02</totfact>
</mgrwt>
<rwgt>
<wgt id='morphing_basis_vector_1'> +2.5615850e-04 </wgt>
<wgt id='morphing_basis_vector_2'> +1.5614128e-04 </wgt>
<wgt id='morphing_basis_vector_3'> +2.3468879e-04 </wgt>
<wgt id='morphing_basis_vector_4'> +1.3322856e-04 </wgt>
<wgt id='morphing_basis_vector_5'> +2.0974979e-04 </wgt>
</rwgt>
</event>
<event>
 4      1 +2.9741700e-06 8.66278700e+02 7.81860800e-03 8.82327700e-02
        2 -1    0    0  501    0 +0.0000000000e+00 +0.0000000000e+00 +1.6496137646e+03 1.6496137646e+03 0.0000000000e+00 0.0000e+00 -1.0000e+00
       -2 -1    0    0    0  501 -0.0000000000e+00 -0.0000000000e+00 -1.1372947233e+02 1.1372947233e+02 0.0000000000e+00 0.0000e+00 1.0000e+00
      -13  1    1    2    0    0 -4.2675599029e+02 -3.8933991408e+01 +8.9624842185e+02 9.9342728199e+02 0.0000000000e+00 0.0000e+00 1.0000e+00
       13  1    1    2    0    0 +4.2675599029e+02 +3.8933991408e+01 +6.3963587046e+02 7.6991595497e+02 0.0000000000e+00 0.0000e+00 -1.0000e+00
<mgrwt>
<rscale>  0 0.86627871E+03</rscale>
<asrwt>0</asrwt>
<pdfrwt beam="1">  1        2 0.25378672E+00 0.86627871E+03</pdfrwt>
<pdfrwt beam="2">  1       -2 0.17496843E-01 0.86627871E+03</pdfrwt>
<totfact> 0.32721570E+02</totfact>
</mgrwt>
<rwgt>
<wgt id='morphing_basis_vector_1'> +2.9393692e-04 </wgt>
<wgt id='morphing_basis_vector_2'> +2.1954757e-04 </wgt>
<wgt id='morphing_basis_vector_3'> +2.6810182e-04 </wgt>
<wgt id='morphing_basis_vector_4'> +1.2481334e-04 </wgt>
<wgt id='morphing_basis_vector_5'> +2.3081364e-04 </wgt>
</rwgt>
</event>
<event>
 4      1 +2.9741700e-06 7.87336000e+02 7.81860800e-03 8.91826400e-02
        2 -1    0    0  501    0 +0.0000000000e+00 +0.0000000000e+00 +2.2100657247e+02 2.2100657247e+02 0.0000000000e+00 0.0000e+00 1.0000e+00
       -2 -1    0    0    0  501 -0.0000000000e+00 -0.0000000000e+00 -7.0122114547e+02 7.0122114547e+02 0.0000000000e+00 0.0000e+00 -1.0000e+00
      -13  1    1    2    0    0 +2.8201079986e+02 +1.5518350913e+02 -5.0556846953e+02 5.9934254824e+02 0.0000000000e+00 0.0000e+00 -1.0000e+00
       13  1    1    2    0    0 -2.8201079986e+02 -1.5518350913e+02 +2.5353896536e+01 3.2288516970e+02 0.0000000000e+00 0.0000e+00 1.0000e+00
<mgrwt>
<rscale>  0 0.78733597E+03</rscale>
<asrwt>0</asrwt>
<pdfrwt beam="1">  1        2 0.34001011E-01 0.78733597E+03</pdfrwt>
<pdfrwt beam="2">  1       -2 0.10788018E+00 0.78733597E+03</pdfrwt>
<totfact> 0.13294744E+02</totfact>
</mgrwt>
<rwgt>
<wgt id='morphing_basis_vector_1'> +1.9791809e-04 </wgt>
<wgt id='morphing_basis_vector_2'> +1.2016915e-04 </wgt>
<wgt id='morphing_basis_vector_3'> +1.7657405e-04 </wgt>
<wgt id='morphing_basis_vector_4'> +9.5437566e-05 </wgt>
<wgt id='morphing_basis_vector_5'> +1.5048070e-04 </wgt>
</rwgt>
</event>
<event>
 4      1 +2.9741700e-06 8.66978000e+02 7.81860800e-03 8.82248400e-02
        2 -1    0    0  501    0 +0.0000000000e+00 +0.0000000000e+00 +3.7620200872e+02 3.7620200872e+02 0.0000000000e+00 0.0000e+00 -1.0000e+00
       -2 -1    0    0    0  501 -0.0000000000e+00 -0.0000000000e+00 -4.9949951038e+02 4.9949951038e+02 0.0000000000e+00 0.0000e+00 1.0000e+00
      -13  1    1    2    0    0 +4.1410053224e+02 +6.9189212203e-01 -1.9112982978e+02 4.5608150735e+02 0.0000000000e+00 0.0000e+00 1.0000e+00
       13  1    1    2    0    0 -4.1410053224e+02 -6.9189212203e-01 +6.7832328117e+01 4.1962001174e+02 0.0000000000e+00 0.0000e+00 -1.0000e+00
<mgrwt>
<rscale>  0 0.86697801E+03</rscale>
<asrwt>0</asrwt>
<pdfrwt beam="1">  1        2 0.57877232E-01 0.86697801E+03</pdfrwt>
<pdfrwt beam="2">  1       -2 0.76846078E-01 0.86697801E+03</pdfrwt>
<totfact> 0.16070389E+02</totfact>
</mgrwt>
<rwgt>
<wgt id='morphing_basis_vector_1'> +2.8147389e-04 </wgt>
<wgt id='morphing_basis_vector_2'> +1.7959121e-04 </wgt>
<wgt id='morphing_basis_vector_3'> +2.5927005e-04 </wgt>
<wgt id='morphing_basis_vector_4'> +1.4355833e-04 </wgt>
<wgt id='morphing_basis_vector_5'> +2.3256034e-04 </wgt>
</rwgt>
</event>
<event>
 4      1 +2.9741700e-06 8.39327800e+02 7.81860800e-03 8.85445900e-02
        2 -1    0    0  501    0 +0.0000000000e+00 +0.0000000000e+00 +1.3724611437e+03 1.3724611437e+03 0.0000000000e+00 0.0000e+00 1.0000e+00
       -2 -1    0    0    0  501 -0.0000000000e+00 -0.0000000000e+00 -1.2832261376e+02 1.2832261376e+02 0.0000000000e+00 0.0000e+00 -1.0000e+00
      -13  1    1    2    0    0 -3.6606667382e+02 +5.3024688129e+01 +2.6759038505e+02 4.5653153385e+02 0.0000000000e+00 0.0000e+00 -1.0000e+00
       13  1    1    2    0    0 +3.6606667382e+02 -5.3024688129e+01 +9.7654814486e+02 1.0442522236e+03 0.0000000000e+00 0.0000e+00 1.0000e+00
<mgrwt>
<rscale>  0 0.83932783E+03</rscale>
<asrwt>0</asrwt>
<pdfrwt beam="1">  1        2 0.21114786E+00 0.83932783E+03</pdfrwt>
<pdfrwt beam="2">  1       -2 0.19741942E-01 0.83932783E+03</pdfrwt>
<totfact> 0.38228897E+02</totfact>
</mgrwt>
<rwgt>
<wgt id='morphing_basis_vector_1'> +2.4898010e-04 </wgt>
<wgt id='morphing_basis_vector_2'> +1.5424854e-04 </wgt>
<wgt id='morphing_basis_vector_3'> +2.2714506e-04 </wgt>
<wgt id='morphing_basis_vector_4'> +1.2640817e-04 </wgt>
<wgt id='morphing_basis_vector_5'> +2.0118580e-04 </wgt>
</rwgt>
</event>
<event>
 4      1 +2.9741700e-06 8.85539400e+02 7.81860800e-03 8.80171500e-02
        2 -1    0    0  501    0 +0.0000000000e+00 +0.0000000000e+00 +1.8832006523e+03 1.8832006523e+03 0.0000000000e+00 0.0000e+00 1.0000e+00
       -2 -1    0    0    0  501 -0.0000000000e+00 -0.0000000000e+00 -1.0410203399e+02 1.0410203399e+02 0.0000000000e+00 0.0000e+00 -1.0000e+00
      -13  1    1    2    0    0 -3.1861615016e+02 -1.1417845312e+02 +1.5301888418e+03 1.5671728883e+03 0.0000000000e+00 0.0000e+00 1.0000e+00
       13  1    1    2    0    0 +3.1861615016e+02 +1.1417845312e+02 +2.4890977648e+02 4.2012979795e+02 0.0000000000e+00 0.0000e+00 -1.0000e+00
<mgrwt>
<rscale>  0 0.88553943E+03</rscale>
<asrwt>0</asrwt>
<pdfrwt beam="1">  1        2 0.28972315E+00 0.88553943E+03</pdfrwt>
<pdfrwt beam="2">  1       -2 0.16015699E-01 0.88553943E+03</pdfrwt>
<totfact> 0.28093862E+02</totfact>
</mgrwt>
<rwgt>
<wgt id='morphing_basis_vector_1'> +3.7708272e-04 </wgt>
<wgt id='morphing_basis_vector_2'> +4.1760483e-04 </wgt>
<wgt id='morphing_basis_vector_3'> +3.3756910e-04 </wgt>
<wgt id='morphing_basis_vector_4'> +5.4985797e-05 </wgt>
<wgt id='morphing_basis_vector_5'> +2.5029445e-04 </wgt>
</rwgt>
</event>
<event>
 4      1 +2.9741700e-06 8.65224100e+02 7.81860800e-03 8.82447400e-02
        2 -1    0    0  501    0 +0.0000000000e+00 +0.0000000000e+00 +8.7650771912e+02 8.7650771912e+02 0.0000000000e+00 0.0000e+00 -1.0000e+00
       -2 -1    0    0    0  501 -0.0000000000e+00 -0.0000000000e+00 -2.1352144200e+02 2.1352144200e+02 0.0000000000e+00 0.0000e+00 1.0000e+00
      -13  1    1    2    0    0 +3.3942932841e+01 +3.7673102996e+02 +6.7005926333e+01 3.8414604747e+02 0.0000000000e+00 0.0000e+00 1.0000e+00
       13  1    1    2    0    0 -3.3942932841e+01 -3.7673102996e+02 +5.9598035078e+02 7.0588311365e+02 0.0000000000e+00 0.0000e+00 -1.0000e+00
<mgrwt>
<rscale>  0 0.86522411E+03</rscale>
<asrwt>0</asrwt>
<pdfrwt beam="1">  1        2 0.13484734E+00 0.86522411E+03</pdfrwt>
<pdfrwt beam="2">  1       -2 0.32849453E-01 0.86522411E+03</pdfrwt>
<totfact> 0.31440241E+02</totfact>
</mgrwt>
<rwgt>
<wgt id='morphing_basis_vector_1'> +2.7760894e-04 </wgt>
<wgt id='morphing_basis_vector_2'> +1.7268085e-04 </wgt>
<wgt id='morphing_basis_vector_3'> +2.5589011e-04 </wgt>
<wgt id='morphing_basis_vector_4'> +1.4477249e-04 </wgt>
<wgt id='morphing_basis_vector_5'> +2.3058896e-04 </wgt>
</rwgt>
</event>
<event>
 4      1 +2.9741700e-06 7.56453600e+02 7.81860800e-03 8.95868900e-02
        2 -1    0    0  501    0 +0.0000000000e+00 +0.0000000000e+00 +7.9743175537e+02 7.9743175537e+02 0.0000000000e+00 0.0000e+00 1.0000e+00
       -2 -1    0    0    0  501 -0.0000000000e+00 -0.0000000000e+00 -1.7939528341e+02 1.7939528341e+02 0.0000000000e+00 0.0000e+00 -1.0000e+00
      -13  1    1    2    0    0 -2.2702183135e+02 +2.7657609106e+02 +1.5074667281e+02 3.8827542469e+02 0.0000000000e+00 0.0000e+00 -1.0000e+00
       13  1    1    2    0    0 +2.2702183135e+02 -2.7657609106e+02 +4.6728979916e+02 5.8855161409e+02 0.0000000000e+00 0.0000e+00 1.0000e+00
<mgrwt>
<rscale>  0 0.75645356E+03</rscale>
<asrwt>0</asrwt>
<pdfrwt beam="1">  1        2 0.12268181E+00 0.75645356E+03</pdfrwt>
<pdfrwt beam="2">  1       -2 0.27599275E-01 0.75645356E+03</pdfrwt>
<totfact> 0.48626588E+02</totfact>
</mgrwt>
<rwgt>
<wgt id='morphing_basis_vector_1'> +1.7316797e-04 </wgt>
<wgt id='morphing_basis_vector_2'> +1.0731603e-04 </wgt>
<wgt id='morphing_basis_vector_3'> +1.5167574e-04 </wgt>
<wgt id='morphing_basis_vector_4'> +7.8179220e-05 </wgt>
<wgt id='morphing_basis_vector_5'> +1.2506943e-04 </wgt>
</rwgt>
</event>
<event>
 4      1 +2.9741700e-06 8.49939500e+02 7.81860800e-03 8.84203600e-02
        2 -1    0    0  501    0 +0.0000000000e+00 +0.0000000000e+00 +4.2462455551e+02 4.2462455551e+02 0.0000000000e+00 0.0000e+00 -1.0000e+00
       -2 -1    0    0    0  501 -0.0000000000e+00 -0.0000000000e+00 -4.2531517692e+02 4.2531517692e+02 0.0000000000e+00 0.0000e+00 1.0000e+00
      -13  1    1    2    0    0 +1.0495002221e+01 -1.5768528655e+02 -3.9483811931e+02 4.2529041269e+02 0.0000000000e+00 0.0000e+00 1.0000e+00
       13  1    1    2    0    0 -1.0495002221e+01 +1.5768528655e+02 +3.9414749790e+02 4.2464931975e+02 0.0000000000e+00 0.0000e+00 -1.0000e+00
<mgrwt>
<rscale>  0 0.84993945E+03</rscale>
<asrwt>0</asrwt>
<pdfrwt beam="1">  1        2 0.65326854E-01 0.84993945E+03</pdfrwt>
<pdfrwt beam="2">  1       -2 0.65433104E-01 0.84993945E+03</pdfrwt>
<totfact> 0.19833966E+02</totfact>
</mgrwt>
<rwgt>
<wgt id='morphing_basis_vector_1'> +2.5918180e-04 </wgt>
<wgt id='morphing_basis_vector_2'> +1.5783124e-04 </wgt>
<wgt id='morphing_basis_vector_3'> +2.3774826e-04 </wgt>
<wgt id='morphing_basis_vector_4'> +1.3538038e-04 </wgt>
<wgt id='morphing_basis_vector_5'> +2.1296507e-04 </wgt>
</rwgt>
</event>
<event>
 4      1 +2.9741700e-06 7.76026500e+02 7.81860800e-03 8.93283600e-02
        2 -1    0    0  501    0 +0.0000000000e+00 +0.0000000000e+00 +3.4017324988e+02 3.4017324988e+02 0.0000000000e+00 0.0000e+00 -1.0000e+00
       -2 -1    0    0    0  501 -0.0000000000e+00 -0.0000000000e+00 -4.4258121228e+02 4.4258121228e+02 0.0000000000e+00 0.0000e+00 1.0000e+00
      -13  1    1    2    0    0 +1.8738130278e+02 +4.3469076050e+01 -3.9110170039e+02 4.3584613484e+02 0.0000000000e+00 0.0000e+00 1.0000e+00
       13  1    1    2    0    0 -1.8738130278e+02 -4.3469076050e+01 +2.8869373800e+02 3.4690832732e+02 0.0000000000e+00 0.0000e+00 -1.0000e+00
<mgrwt>
<rscale>  0 0.77602652E+03</rscale>
<asrwt>0</asrwt>
<pdfrwt beam="1">  1        2 0.52334346E-01 0.77602652E+03</pdfrwt>
<pdfrwt beam="2">  1       -2 0.68089417E-01 0.77602652E+03</pdfrwt>
<totfact> 0.23511366E+02</totfact>
</mgrwt>
<rwgt>
<wgt id='morphing_basis_vector_1'> +1.8759144e-04 </wgt>
<wgt id='morphing_basis_vector_2'> +1.1238603e-04 </wgt>
<wgt id='morphing_basis_vector_3'> +1.6661675e-04 </wgt>
<wgt id='morphing_basis_vector_4'> +8.9988083e-05 </wgt>
<wgt id='morphing_basis_vector_5'> +1.4082672e-04 </wgt>
</rwgt>
</event>
<event>
 4      1 +2.9741700e-06 8.03322400e+02 7.81860800e-03 8.89810300e-02
        2 -1    0    0  501    0 +0.0000000000e+00 +0.0000000000e+00 +2.4554033918e+03 2.4554033918e+03 0.0000000000e+00 0.0000e+00 -1.0000e+00
       -2 -1    0    0    0  501 -0.0000000000e+00 -0.0000000000e+00 -6.5704773496e+01 6.5704773496e+01 0.0000000000e+00 0.0000e+00 1.0000e+00
      -13  1    1    2    0    0 +3.3255058791e+02 -1.6337571037e+02 +7.0814968627e+02 7.9922305674e+02 0.0000000000e+00 0.0000e+00 1.0000e+00
       13  1    1    2    0    0 -3.3255058791e+02 +1.6337571037e+02 +1.6815489321e+03 1.7218851086e+03 0.0000000000e+00 0.0000e+00 -1.0000e+00
<mgrwt>
<rscale>  0 0.80332241E+03</rscale>
<asrwt>0</asrwt>
<pdfrwt beam="1">  1        2 0.37775430E+00 0.80332241E+03</pdfrwt>
<pdfrwt beam="2">  1       -2 0.10108429E-01 0.80332241E+03</pdfrwt>
<totfact> 0.28112565E+02</totfact>
</mgrwt>
<rwgt>
<wgt id='morphing_basis_vector_1'> +2.1350033e-04 </wgt>
<wgt id='morphing_basis_vector_2'> +1.3255093e-04 </wgt>
<wgt id='morphing_basis_vector_3'> +1.9160079e-04 </wgt>
<wgt id='morphing_basis_vector_4'> +1.0322184e-04 </wgt>
<wgt id='morphing_basis_vector_5'> +1.6490863e-04 </wgt>
</rwgt>
</event>
<event>
 4      1 +2.9741700e-06 7.76816900e+02 7.81860800e-03 8.93180900e-02
        2 -1    0    0  501    0 +0.0000000000e+00 +0.0000000000e+00 +2.3670055914e+03 2.3670055914e+03 0.0000000000e+00 0.0000e+00 1.0000e+00
       -2 -1    0    0    0  501 -0.0000000000e+00 -0.0000000000e+00 -6.3735007277e+01 6.3735007277e+01 0.0000000000e+00 0.0000e+00 -1.0000e+00
      -13  1    1    2    0    0 +7.5795888677e+01 +3.5020050300e+02 +6.8252316200e+02 7.7085879103e+02 0.0000000000e+00 0.0000e+00 -1.0000e+00
       13  1    1    2    0    0 -7.5795888677e+01 -3.5020050300e+02 +1.6207474221e+03 1.6598818076e+03 0.0000000000e+00 0.0000e+00 1.0000e+00
<mgrwt>
<rscale>  0 0.77681689E+03</rscale>
<asrwt>0</asrwt>
<pdfrwt beam="1">  1        2 0.36415464E+00 0.77681689E+03</pdfrwt>
<pdfrwt beam="2">  1       -2 0.98053875E-02 0.77681689E+03</pdfrwt>
<totfact> 0.33255325E+02</totfact>
</mgrwt>
<rwgt>
<wgt id='morphing_basis_vector_1'> +1.8963334e-04 </wgt>
<wgt id='morphing_basis_vector_2'> +1.1700938e-04 </wgt>
<wgt id='morphing_basis_vector_3'> +1.6802499e-04 </wgt>
<wgt id='morphing_basis_vector_4'> +8.8735994e-05 </wgt>
<wgt id='morphing_basis_vector_5'> +1.4142231e-04 </wgt>
</rwgt>
</event>
<event>
 4      1 +2.9741700e-06 8.32645500e+02 7.81860800e-03 8.86238200e-02
        2 -1    0    0  501    0 +0.0000000000e+00 +0.0000000000e+00 +3.8096970406e+02 3.8096970406e+02 0.0000000000e+00 0.0000e+00 -1.0000e+00
       -2 -1    0    0    0  501 -0.0000000000e+00 -0.0000000000e+00 -4.5495645784e+02 4.5495645784e+02 0.0000000000e+00 0.0000e+00 1.0000e+00
      -13  1    1    2    0    0 +1.0707334120e+02 +1.3853434512e+02 -4.1619598667e+02 4.5152581819e+02 0.0000000000e+00 0.0000e+00 1.0000e+00
       13  1    1    2    0    0 -1.0707334120e+02 -1.3853434512e+02 +3.4220923289e+02 3.8440034372e+02 0.0000000000e+00 0.0000e+00 -1.0000e+00
<mgrwt>
<rscale>  0 0.83264549E+03</rscale>
<asrwt>0</asrwt>
<pdfrwt beam="1">  1        2 0.58610724E-01 0.83264549E+03</pdfrwt>
<pdfrwt beam="2">  1       -2 0.69993301E-01 0.83264549E+03</pdfrwt>
<totfact> 0.19456401E+02</totfact>
</mgrwt>
<rwgt>
<wgt id='morphing_basis_vector_1'> +2.4079060e-04 </wgt>
<wgt id='morphing_basis_vector_2'> +1.4611367e-04 </wgt>
<wgt id='morphing_basis_vector_3'> +2.1935304e-04 </wgt>
<wgt id='morphing_basis_vector_4'> +1.2353013e-04 </wgt>
<wgt id='morphing_basis_vector_5'> +1.9413457e-04 </wgt>
</rwgt>
</event>
<event>
 4      1 +2.9741700e-06 8.51332600e+02 7.81860800e-03 8.84042000e-02
        2 -1    0    0  501    0 +0.0000000000e+00 +0.0000000000e+00 +4.1261594262e+02 4.1261594262e+02 0.0000000000e+00 0.0000e+00 1.0000e+00
       -2 -1    0    0    0  501 -0.0000000000e+00 -0.0000000000e+00 -4.3912937069e+02 4.3912937069e+02 0.0000000000e+00 0.0000e+00 -1.0000e+00
      -13  1    1    2    0    0 +7.9234272714e+01 +2.4667995475e+02 -3.5115217154e+02 4.3639078545e+02 0.0000000000e+00 0.0000e+00 -1.0000e+00
       13  1    1    2    0    0 -7.9234272714e+01 -2.4667995475e+02 +3.2463874347e+02 4.1535452785e+02 0.0000000000e+00 0.0000e+00 1.0000e+00
<mgrwt>
<rscale>  0 0.85133255E+03</rscale>
<asrwt>0</asrwt>
<pdfrwt beam="1">  1        2 0.63479376E-01 0.85133255E+03</pdfrwt>
<pdfrwt beam="2">  1       -2 0.67558365E-01 0.85133255E+03</pdfrwt>
<totfact> 0.19151605E+02</totfact>
</mgrwt>
<rwgt>
<wgt id='morphing_basis_vector_1'> +2.6083146e-04 </wgt>
<wgt id='morphing_basis_vector_2'> +1.5917799e-04 </wgt>
<wgt id='morphing_basis_vector_3'> +2.3936485e-04 </wgt>
<wgt id='morphing_basis_vector_4'> +1.3620515e-04 </wgt>
<wgt id='morphing_basis_vector_5'> +2.1452920e-04 </wgt>
</rwgt>
</event>
<event>
 4      1 +2.9741700e-06 7.96942300e+02 7.81860800e-03 8.90608900e-02
        2 -1    0    0  501    0 +0.0000000000e+00 +0.0000000000e+00 +1.7146332656e+03 1.7146332656e+03 0.0000000000e+00 0.0000e+00 -1.0000e+00
       -2 -1    0    0    0  501 -0.0000000000e+00 -0.0000000000e+00 -9.2602470180e+01 9.2602470180e+01 0.0000000000e+00 0.0000e+00 1.0000e+00
      -13  1    1    2    0    0 +5.2396009785e+01 +3.5765537706e+02 +4.3076556255e+02 5.6233591426e+02 0.0000000000e+00 0.0000e+00 1.0000e+00
       13  1    1    2    0    0 -5.2396009785e+01 -3.5765537706e+02 +1.1912652329e+03 1.2448998216e+03 0.0000000000e+00 0.0000e+00 -1.0000e+00
<mgrwt>
<rscale>  0 0.79694235E+03</rscale>
<asrwt>0</asrwt>
<pdfrwt beam="1">  1        2 0.26378971E+00 0.79694235E+03</pdfrwt>
<pdfrwt beam="2">  1       -2 0.14246535E-01 0.79694235E+03</pdfrwt>
<totfact> 0.42309233E+02</totfact>
</mgrwt>
<rwgt>
<wgt id='morphing_basis_vector_1'> +2.0732028e-04 </wgt>
<wgt id='morphing_basis_vector_2'> +1.2796193e-04 </wgt>
<wgt id='morphing_basis_vector_3'> +1.8557196e-04 </wgt>
<wgt id='morphing_basis_vector_4'> +9.9879427e-05 </wgt>
<wgt id='morphing_basis_vector_5'> +1.5902940e-04 </wgt>
</rwgt>
</event>
<event>
 4      1 +2.9741700e-06 7.73361500e+02 7.81860800e-03 8.93630800e-02
        2 -1    0    0  501    0 +0.0000000000e+00 +0.0000000000e+00 +3.2628337733e+03 3.2628337733e+03 0.0000000000e+00 0.0000e+00 -1.0000e+00
       -2 -1    0    0    0  501 -0.0000000000e+00 -0.0000000000e+00 -4.5825812630e+01 4.5825812630e+01 0.0000000000e+00 0.0000e+00 1.0000e+00
      -13  1    1    2    0    0 -2.7432136056e+02 +2.6148958527e+02 +1.2800778966e+03 1.3350012860e+03 0.0000000000e+00 0.0000e+00 1.0000e+00
       13  1    1    2    0    0 +2.7432136056e+02 -2.6148958527e+02 +1.9369300641e+03 1.9736583000e+03 0.0000000000e+00 0.0000e+00 -1.0000e+00
<mgrwt>
<rscale>  0 0.77336152E+03</rscale>
<asrwt>0</asrwt>
<pdfrwt beam="1">  1        2 0.50197425E+00 0.77336152E+03</pdfrwt>
<pdfrwt beam="2">  1       -2 0.70501276E-02 0.77336152E+03</pdfrwt>
<totfact> 0.15518226E+02</totfact>
</mgrwt>
<rwgt>
<wgt id='morphing_basis_vector_1'> +1.8837001e-04 </wgt>
<wgt id='morphing_basis_vector_2'> +1.2026818e-04 </wgt>
<wgt id='morphing_basis_vector_3'> +1.6602969e-04 </wgt>
<wgt id='morphing_basis_vector_4'> +8.4918868e-05 </wgt>
<wgt id='morphing_basis_vector_5'> +1.3846880e-04 </wgt>
</rwgt>
</event>
<event>
 4      1 +2.9741700e-06 7.52166700e+02 7.81860800e-03 8.96446200e-02
        2 -1    0    0  501    0 +0.0000000000e+00 +0.0000000000e+00 +7.4451829225e+02 7.4451829225e+02 0.0000000000e+00 0.0000e+00 -1.0000e+00
       -2 -1    0    0    0  501 -0.0000000000e+00 -0.0000000000e+00 -1.8997340726e+02 1.8997340726e+02 0.0000000000e+00 0.0000e+00 1.0000e+00
      -13  1    1    2    0    0 +2.4772837250e+02 +7.0192374388e+01 -6.3295509654e+01 2.6514644539e+02 0.0000000000e+00 0.0000e+00 1.0000e+00
       13  1    1    2    0    0 -2.4772837250e+02 -7.0192374388e+01 +6.1784039464e+02 6.6934525412e+02 0.0000000000e+00 0.0000e+00 -1.0000e+00
<mgrwt>
<rscale>  0 0.75216668E+03</rscale>
<asrwt>0</asrwt>
<pdfrwt beam="1">  1        2 0.11454127E+00 0.75216668E+03</pdfrwt>
<pdfrwt beam="2">  1       -2 0.29226678E-01 0.75216668E+03</pdfrwt>
<totfact> 0.47980211E+02</totfact>
</mgrwt>
<rwgt>
<wgt id='morphing_basis_vector_1'> +1.6827273e-04 </wgt>
<wgt id='morphing_basis_vector_2'> +1.0051479e-04 </wgt>
<wgt id='morphing_basis_vector_3'> +1.4762302e-04 </wgt>
<wgt id='morphing_basis_vector_4'> +7.7924171e-05 </wgt>
<wgt id='morphing_basis_vector_5'> +1.2187426e-04 </wgt>
</rwgt>
</event>
<event>
 4      1 +2.9741700e-06 8.62013100e+02 7.81860800e-03 8.82813200e-02
        2 -1    0    0  501    0 +0.0000000000e+00 +0.0000000000e+00 +1.3245189860e+03 1.3245189860e+03 0.0000000000e+00 0.0000e+00 -1.0000e+00
       -2 -1    0    0    0  501 -0.0000000000e+00 -0.0000000000e+00 -1.4025216172e+02 1.4025216172e+02 0.0000000000e+00 0.0000e+00 1.0000e+00
      -13  1    1    2    0    0 -2.6163388037e+02 -7.5372129919e+01 +2.4388837882e+01 2.7336433699e+02 0.0000000000e+00 0.0000e+00 1.0000e+00
       13  1    1    2    0    0 +2.6163388037e+02 +7.5372129919e+01 +1.1598779864e+03 1.1914068107e+03 0.0000000000e+00 0.0000e+00 -1.0000e+00
<mgrwt>
<rscale>  0 0.86201311E+03</rscale>
<asrwt>0</asrwt>
<pdfrwt beam="1">  1        2 0.20377214E+00 0.86201311E+03</pdfrwt>
<pdfrwt beam="2">  1       -2 0.21577256E-01 0.86201311E+03</pdfrwt>
<totfact> 0.35006888E+02</totfact>
</mgrwt>
<rwgt>
<wgt id='morphing_basis_vector_1'> +2.7282000e-04 </wgt>
<wgt id='morphing_basis_vector_2'> +1.6693200e-04 </wgt>
<wgt id='morphing_basis_vector_3'> +2.5138782e-04 </wgt>
<wgt id='morphing_basis_vector_4'> +1.4390762e-04 </wgt>
<wgt id='morphing_basis_vector_5'> +2.2685925e-04 </wgt>
</rwgt>
</event>
<event>
 4      1 +2.9741700e-06 7.61888900e+02 7.81860800e-03 8.95142700e-02
        2 -1    0    0  501    0 +0.0000000000e+00 +0.0000000000e+00 +6.5441801915e+02 6.5441801915e+02 0.0000000000e+00 0.0000e+00 1.0000e+00
       -2 -1    0    0    0  501 -0.0000000000e+00 -0.0000000000e+00 -2.2175227666e+02 2.2175227666e+02 0.0000000000e+00 0.0000e+00 -1.0000e+00
      -13  1    1    2    0    0 -3.2627425550e+02 +7.4310826481e+01 +6.9774399468e+00 3.3470236540e+02 0.0000000000e+00 0.0000e+00 -1.0000e+00
       13  1    1    2    0    0 +3.2627425550e+02 -7.4310826481e+01 +4.2568830255e+02 5.4146793041e+02 0.0000000000e+00 0.0000e+00 1.0000e+00
<mgrwt>
<rscale>  0 0.76188893E+03</rscale>
<asrwt>0</asrwt>
<pdfrwt beam="1">  1        2 0.10067969E+00 0.76188893E+03</pdfrwt>
<pdfrwt beam="2">  1       -2 0.34115735E-01 0.76188893E+03</pdfrwt>
<totfact> 0.42648129E+02</totfact>
</mgrwt>
<rwgt>
<wgt id='morphing_basis_vector_1'> +1.7667332e-04 </wgt>
<wgt id='morphing_basis_vector_2'> +1.0745951e-04 </wgt>
<wgt id='morphing_basis_vector_3'> +1.5552300e-04 </wgt>
<wgt id='morphing_basis_vector_4'> +8.1822253e-05 </wgt>
<wgt id='morphing_basis_vector_5'> +1.2932818e-04 </wgt>
</rwgt>
</event>
<event>
 4      1 +2.9741700e-06 7.62044700e+02 7.81860800e-03 8.95121900e-02
        2 -1    0    0  501    0 +0.0000000000e+00 +0.0000000000e+00 +7.4383018680e+02 7.4383018680e+02 0.0000000000e+00 0.0000e+00 -1.0000e+00
       -2 -1    0    0    0  501 -0.0000000000e+00 -0.0000000000e+00 -1.9517633104e+02 1.9517633104e+02 0.0000000000e+00 0.0000e+00 1.0000e+00
      -13  1    1    2    0    0 +2.2271422165e+02 +2.5859009156e+02 +6.5548088063e+01 3.4751548430e+02 0.0000000000e+00 0.0000e+00 1.0000e+00
       13  1    1    2    0    0 -2.2271422165e+02 -2.5859009156e+02 +4.8310576770e+02 5.9149103354e+02 0.0000000000e+00 0.0000e+00 -1.0000e+00
<mgrwt>
<rscale>  0 0.76204474E+03</rscale>
<asrwt>0</asrwt>
<pdfrwt beam="1">  1        2 0.11443541E+00 0.76204474E+03</pdfrwt>
<pdfrwt beam="2">  1       -2 0.30027128E-01 0.76204474E+03</pdfrwt>
<totfact> 0.45785979E+02</totfact>
</mgrwt>
<rwgt>
<wgt id='morphing_basis_vector_1'> +1.7695193e-04 </wgt>
<wgt id='morphing_basis_vector_2'> +1.0800742e-04 </wgt>
<wgt id='morphing_basis_vector_3'> +1.5572461e-04 </wgt>
<wgt id='morphing_basis_vector_4'> +8.1717569e-05 </wgt>
<wgt id='morphing_basis_vector_5'> +1.2944392e-04 </wgt>
</rwgt>
</event>
<event>
 4      1 +2.9741700e-06 8.51145500e+02 7.81860800e-03 8.84063600e-02
        2 -1    0    0  501    0 +0.0000000000e+00 +0.0000000000e+00 +2.4725512084e+02 2.4725512084e+02 0.0000000000e+00 0.0000e+00 -1.0000e+00
       -2 -1    0    0    0  501 -0.0000000000e+00 -0.0000000000e+00 -7.3249113566e+02 7.3249113566e+02 0.0000000000e+00 0.0000e+00 1.0000e+00
      -13  1    1    2    0    0 -6.9931688531e+00 -2.2649289694e+02 -6.5727339186e+02 6.9523826737e+02 0.0000000000e+00 0.0000e+00 1.0000e+00
       13  1    1    2    0    0 +6.9931688531e+00 +2.2649289694e+02 +1.7203737705e+02 2.8450798912e+02 0.0000000000e+00 0.0000e+00 -1.0000e+00
<mgrwt>
<rscale>  0 0.85114554E+03</rscale>
<asrwt>0</asrwt>
<pdfrwt beam="1">  1        2 0.38039249E-01 0.85114554E+03</pdfrwt>
<pdfrwt beam="2">  1       -2 0.11269094E+00 0.85114554E+03</pdfrwt>
<totfact> 0.10444860E+02</totfact>
</mgrwt>
<rwgt>
<wgt id='morphing_basis_vector_1'> +2.6056111e-04 </wgt>
<wgt id='morphing_basis_vector_2'> +1.5884890e-04 </wgt>
<wgt id='morphing_basis_vector_3'> +2.3911345e-04 </wgt>
<wgt id='morphing_basis_vector_4'> +1.3615960e-04 </wgt>
<wgt id='morphing_basis_vector_5'> +2.1432192e-04 </wgt>
</rwgt>
</event>
<event>
 4      1 +2.9741700e-06 8.08427300e+02 7.81860800e-03 8.89176900e-02
        2 -1    0    0  501    0 +0.0000000000e+00 +0.0000000000e+00 +8.6733272800e+02 8.6733272800e+02 0.0000000000e+00 0.0000e+00 1.0000e+00
       -2 -1    0    0    0  501 -0.0000000000e+00 -0.0000000000e+00 -1.8838061181e+02 1.8838061181e+02 0.0000000000e+00 0.0000e+00 -1.0000e+00
      -13  1    1    2    0    0 -9.8880198963e+01 -1.4076135401e+02 +8.1714745326e+02 8.3505749077e+02 0.0000000000e+00 0.0000e+00 1.0000e+00
       13  1    1    2    0    0 +9.8880198963e+01 +1.4076135401e+02 -1.3819533706e+02 2.2065584904e+02 0.0000000000e+00 0.0000e+00 -1.0000e+00
<mgrwt>
<rscale>  0 0.80842729E+03</rscale>
<asrwt>0</asrwt>
<pdfrwt beam="1">  1        2 0.13343580E+00 0.80842729E+03</pdfrwt>
<pdfrwt beam="2">  1       -2 0.28981633E-01 0.80842729E+03</pdfrwt>
<totfact> 0.39928013E+02</totfact>
</mgrwt>
<rwgt>
<wgt id='morphing_basis_vector_1'> +2.9398320e-04 </wgt>
<wgt id='morphing_basis_vector_2'> +3.6718511e-04 </wgt>
<wgt id='morphing_basis_vector_3'> +2.4289876e-04 </wgt>
<wgt id='morphing_basis_vector_4'> +9.5786567e-06 </wgt>
<wgt id='morphing_basis_vector_5'> +1.6551127e-04 </wgt>
</rwgt>
</event>
<event>
 4      1 +2.9741700e-06 8.70315400e+02 7.81860800e-03 8.81870900e-02
        2 -1    0    0  501    0 +0.0000000000e+00 +0.0000000000e+00 +1.8719707569e+02 1.8719707569e+02 0.0000000000e+00 0.0000e+00 -1.0000e+00
       -2 -1    0    0    0  501 -0.0000000000e+00 -0.0000000000e+00 -1.0115662470e+03 1.0115662470e+03 0.0000000000e+00 0.0000e+00 1.0000e+00
      -13  1    1    2    0    0 +4.6653248856e+00 +4.3473500488e+02 -3.8656537944e+02 5.8176376847e+02 0.0000000000e+00 0.0000e+00 1.0000e+00
       13  1    1    2    0    0 -4.6653248856e+00 -4.3473500488e+02 -4.3780379185e+02 6.1699955420e+02 0.0000000000e+00 0.0000e+00 -1.0000e+00
<mgrwt>
<rscale>  0 0.87031544E+03</rscale>
<asrwt>0</asrwt>
<pdfrwt beam="1">  1        2 0.28799551E-01 0.87031544E+03</pdfrwt>
<pdfrwt beam="2">  1       -2 0.15562557E+00 0.87031544E+03</pdfrwt>
<totfact> 0.59985539E+01</totfact>
</mgrwt>
<rwgt>
<wgt id='morphing_basis_vector_1'> +2.9388350e-04 </wgt>
<wgt id='morphing_basis_vector_2'> +2.0807475e-04 </wgt>
<wgt id='morphing_basis_vector_3'> +2.6945574e-04 </wgt>
<wgt id='morphing_basis_vector_4'> +1.3431722e-04 </wgt>
<wgt id='morphing_basis_vector_5'> +2.3599793e-04 </wgt>
</rwgt>
</event>
<event>
 4      1 +2.9741700e-06 7.57499000e+02 7.81860800e-03 8.95728700e-02
        2 -1    0    0  501    0 +0.0000000000e+00 +0.0000000000e+00 +5.9217396489e+02 5.9217396489e+02 0.0000000000e+00 0.0000e+00 -1.0000e+00
       -2 -1    0    0    0  501 -0.0000000000e+00 -0.0000000000e+00 -2.4224500127e+02 2.4224500127e+02 0.0000000000e+00 0.0000e+00 1.0000e+00
      -13  1    1    2    0    0 +2.1707189742e+02 -2.6873614335e+02 +3.4601226754e+02 4.8894152276e+02 0.0000000000e+00 0.0000e+00 1.0000e+00
       13  1    1    2    0    0 -2.1707189742e+02 +2.6873614335e+02 +3.9166960892e+00 3.4547744340e+02 0.0000000000e+00 0.0000e+00 -1.0000e+00
<mgrwt>
<rscale>  0 0.75749900E+03</rscale>
<asrwt>0</asrwt>
<pdfrwt beam="1">  1        2 0.91103686E-01 0.75749900E+03</pdfrwt>
<pdfrwt beam="2">  1       -2 0.37268462E-01 0.75749900E+03</pdfrwt>
<totfact> 0.40898923E+02</totfact>
</mgrwt>
<rwgt>
<wgt id='morphing_basis_vector_1'> +1.9602121e-04 </wgt>
<wgt id='morphing_basis_vector_2'> +1.7546505e-04 </wgt>
<wgt id='morphing_basis_vector_3'> +1.6349641e-04 </wgt>
<wgt id='morphing_basis_vector_4'> +5.2696499e-05 </wgt>
<wgt id='morphing_basis_vector_5'> +1.2492104e-04 </wgt>
</rwgt>
</event>
<event>
 4      1 +2.9741700e-06 8.98774300e+02 7.81860800e-03 8.78723000e-02
        2 -1    0    0  501    0 +0.0000000000e+00 +0.0000000000e+00 +1.0346324164e+03 1.0346324164e+03 0.0000000000e+00 0.0000e+00 -1.0000e+00
       -2 -1    0    0    0  501 -0.0000000000e+00 -0.0000000000e+00 -1.9518893237e+02 1.9518893237e+02 0.0000000000e+00 0.0000e+00 1.0000e+00
      -13  1    1    2    0    0 +3.0420931082e+02 +1.5237813653e+02 +1.8013487354e+01 3.4071525797e+02 0.0000000000e+00 0.0000e+00 1.0000e+00
       13  1    1    2    0    0 -3.0420931082e+02 -1.5237813653e+02 +8.2142999668e+02 8.8910609082e+02 0.0000000000e+00 0.0000e+00 -1.0000e+00
<mgrwt>
<rscale>  0 0.89877427E+03</rscale>
<asrwt>0</asrwt>
<pdfrwt beam="1">  1        2 0.15917421E+00 0.89877427E+03</pdfrwt>
<pdfrwt beam="2">  1       -2 0.30029067E-01 0.89877427E+03</pdfrwt>
<totfact> 0.29224364E+02</totfact>
</mgrwt>
<rwgt>
<wgt id='morphing_basis_vector_1'> +3.1762359e-04 </wgt>
<wgt id='morphing_basis_vector_2'> +1.9657901e-04 </wgt>
<wgt id='morphing_basis_vector_3'> +2.9650179e-04 </wgt>
<wgt id='morphing_basis_vector_4'> +1.7252660e-04 </wgt>
<wgt id='morphing_basis_vector_5'> +2.7321855e-04 </wgt>
</rwgt>
</event>
<event>
 4      1 +2.9741700e-06 7.93826000e+02 7.81860800e-03 8.91001800e-02
        2 -1    0    0  501    0 +0.0000000000e+00 +0.0000000000e+00 +1.5043093815e+02 1.5043093815e+02 0.0000000000e+00 0.0000e+00 -1.0000e+00
       -2 -1    0    0    0  501 -0.0000000000e+00 -0.0000000000e+00 -1.0472575056e+03 1.0472575056e+03 0.0000000000e+00 0.0000e+00 1.0000e+00
      -13  1    1    2    0    0 +1.3513101821e+02 -1.2183237973e+02 -9.8063461165e+02 9.9737042386e+02 0.0000000000e+00 0.0000e+00 1.0000e+00
       13  1    1    2    0    0 -1.3513101821e+02 +1.2183237973e+02 +8.3808044170e+01 2.0031801991e+02 0.0000000000e+00 0.0000e+00 -1.0000e+00
<mgrwt>
<rscale>  0 0.79382600E+03</rscale>
<asrwt>0</asrwt>
<pdfrwt beam="1">  1        2 0.23143222E-01 0.79382600E+03</pdfrwt>
<pdfrwt beam="2">  1       -2 0.16111654E+00 0.79382600E+03</pdfrwt>
<totfact> 0.70399129E+01</totfact>
</mgrwt>
<rwgt>
<wgt id='morphing_basis_vector_1'> +2.0320205e-04 </wgt>
<wgt id='morphing_basis_vector_2'> +1.2223850e-04 </wgt>
<wgt id='morphing_basis_vector_3'> +1.8201119e-04 </wgt>
<wgt id='morphing_basis_vector_4'> +9.9714154e-05 </wgt>
<wgt id='morphing_basis_vector_5'> +1.5627323e-04 </wgt>
</rwgt>
</event>
<event>
 4      1 +2.9741700e-06 7.84062900e+02 7.81860800e-03 8.92245400e-02
        2 -1    0    0  501    0 +0.0000000000e+00 +0.0000000000e+00 +5.4438623989e+02 5.4438623989e+02 0.0000000000e+00 0.0000e+00 -1.0000e+00
       -2 -1    0    0    0  501 -0.0000000000e+00 -0.0000000000e+00 -2.8231544646e+02 2.8231544646e+02 0.0000000000e+00 0.0000e+00 1.0000e+00
      -13  1    1    2    0    0 +3.5603762810e+02 -1.3835652749e+02 +3.8014511968e+01 3.8386250721e+02 0.0000000000e+00 0.0000e+00 1.0000e+00
       13  1    1    2    0    0 -3.5603762810e+02 +1.3835652749e+02 +2.2405628146e+02 4.4283917914e+02 0.0000000000e+00 0.0000e+00 -1.0000e+00
<mgrwt>
<rscale>  0 0.78406287E+03</rscale>
<asrwt>0</asrwt>
<pdfrwt beam="1">  1        2 0.83751729E-01 0.78406287E+03</pdfrwt>
<pdfrwt beam="2">  1       -2 0.43433146E-01 0.78406287E+03</pdfrwt>
<totfact> 0.33879037E+02</totfact>
</mgrwt>
<rwgt>
<wgt id='morphing_basis_vector_1'> +1.9738719e-04 </wgt>
<wgt id='morphing_basis_vector_2'> +1.2554782e-04 </wgt>
<wgt id='morphing_basis_vector_3'> +1.7504975e-04 </wgt>
<wgt id='morphing_basis_vector_4'> +9.0753647e-05 </wgt>
<wgt id='morphing_basis_vector_5'> +1.4751453e-04 </wgt>
</rwgt>
</event>
<event>
 4      1 +2.9741700e-06 8.19655600e+02 7.81860800e-03 8.87801100e-02
        2 -1    0    0  501    0 +0.0000000000e+00 +0.0000000000e+00 +9.9110884314e+02 9.9110884314e+02 0.0000000000e+00 0.0000e+00 1.0000e+00
       -2 -1    0    0    0  501 -0.0000000000e+00 -0.0000000000e+00 -1.6946559049e+02 1.6946559049e+02 0.0000000000e+00 0.0000e+00 -1.0000e+00
      -13  1    1    2    0    0 +3.1233493730e+02 +2.4524103334e+02 +5.5426139762e+02 6.8183720519e+02 0.0000000000e+00 0.0000e+00 -1.0000e+00
       13  1    1    2    0    0 -3.1233493730e+02 -2.4524103334e+02 +2.6738185503e+02 4.7873722844e+02 0.0000000000e+00 0.0000e+00 1.0000e+00
<mgrwt>
<rscale>  0 0.81965565E+03</rscale>
<asrwt>0</asrwt>
<pdfrwt beam="1">  1        2 0.15247828E+00 0.81965565E+03</pdfrwt>
<pdfrwt beam="2">  1       -2 0.26071630E-01 0.81965565E+03</pdfrwt>
<totfact> 0.39960394E+02</totfact>
</mgrwt>
<rwgt>
<wgt id='morphing_basis_vector_1'> +2.4648012e-04 </wgt>
<wgt id='morphing_basis_vector_2'> +1.9532820e-04 </wgt>
<wgt id='morphing_basis_vector_3'> +2.1827003e-04 </wgt>
<wgt id='morphing_basis_vector_4'> +9.0724044e-05 </wgt>
<wgt id='morphing_basis_vector_5'> +1.7970395e-04 </wgt>
</rwgt>
</event>
<event>
 4      1 +2.9741700e-06 8.66456000e+02 7.81860800e-03 8.82307600e-02
        2 -1    0    0  501    0 +0.0000000000e+00 +0.0000000000e+00 +4.1621462732e+02 4.1621462732e+02 0.0000000000e+00 0.0000e+00 1.0000e+00
       -2 -1    0    0    0  501 -0.0000000000e+00 -0.0000000000e+00 -4.5093678402e+02 4.5093678402e+02 0.0000000000e+00 0.0000e+00 -1.0000e+00
      -13  1    1    2    0    0 +1.3954524185e+02 +3.9337280129e+02 -1.3352081357e+02 4.3822693090e+02 0.0000000000e+00 0.0000e+00 -1.0000e+00
       13  1    1    2    0    0 -1.3954524185e+02 -3.9337280129e+02 +9.8798656869e+01 4.2892448043e+02 0.0000000000e+00 0.0000e+00 1.0000e+00
<mgrwt>
<rscale>  0 0.86645597E+03</rscale>
<asrwt>0</asrwt>
<pdfrwt beam="1">  1        2 0.64033020E-01 0.86645597E+03</pdfrwt>
<pdfrwt beam="2">  1       -2 0.69374890E-01 0.86645597E+03</pdfrwt>
<totfact> 0.17909641E+02</totfact>
</mgrwt>
<rwgt>
<wgt id='morphing_basis_vector_1'> +2.8125012e-04 </wgt>
<wgt id='morphing_basis_vector_2'> +1.8036327e-04 </wgt>
<wgt id='morphing_basis_vector_3'> +2.5893637e-04 </wgt>
<wgt id='morphing_basis_vector_4'> +1.4264569e-04 </wgt>
<wgt id='morphing_basis_vector_5'> +2.3190868e-04 </wgt>
</rwgt>
</event>
<event>
 4      1 +2.9741700e-06 7.51703900e+02 7.81860800e-03 8.96508800e-02
        2 -1    0    0  501    0 +0.0000000000e+00 +0.0000000000e+00 +1.0703575175e+03 1.0703575175e+03 0.0000000000e+00 0.0000e+00 1.0000e+00
       -2 -1    0    0    0  501 -0.0000000000e+00 -0.0000000000e+00 -1.3197896686e+02 1.3197896686e+02 0.0000000000e+00 0.0000e+00 -1.0000e+00
      -13  1    1    2    0    0 +3.4080679979e+02 -8.5846469028e+01 +2.5611702907e+02 4.3487334203e+02 0.0000000000e+00 0.0000e+00 1.0000e+00
       13  1    1    2    0    0 -3.4080679979e+02 +8.5846469028e+01 +6.8226152160e+02 7.6746314237e+02 0.0000000000e+00 0.0000e+00 -1.0000e+00
<mgrwt>
<rscale>  0 0.75170388E+03</rscale>
<asrwt>0</asrwt>
<pdfrwt beam="1">  1        2 0.16467038E+00 0.75170388E+03</pdfrwt>
<pdfrwt beam="2">  1       -2 0.20304457E-01 0.75170388E+03</pdfrwt>
<totfact> 0.54782822E+02</totfact>
</mgrwt>
<rwgt>
<wgt id='morphing_basis_vector_1'> +1.6919240e-04 </wgt>
<wgt id='morphing_basis_vector_2'> +1.0422140e-04 </wgt>
<wgt id='morphing_basis_vector_3'> +1.4789237e-04 </wgt>
<wgt id='morphing_basis_vector_4'> +7.6209714e-05 </wgt>
<wgt id='morphing_basis_vector_5'> +1.2147250e-04 </wgt>
</rwgt>
</event>
<event>
 4      1 +2.9741700e-06 8.52236100e+02 7.81860800e-03 8.83937300e-02
        2 -1    0    0  501    0 +0.0000000000e+00 +0.0000000000e+00 +1.2256454492e+03 1.2256454492e+03 0.0000000000e+00 0.0000e+00 -1.0000e+00
       -2 -1    0    0    0  501 -0.0000000000e+00 -0.0000000000e+00 -1.4814774738e+02 1.4814774738e+02 0.0000000000e+00 0.0000e+00 1.0000e+00
      -13  1    1    2    0    0 +1.6528871191e+01 +2.4288420919e+02 -2.5010272314e+01 2.4472731024e+02 0.0000000000e+00 0.0000e+00 1.0000e+00
       13  1    1    2    0    0 -1.6528871191e+01 -2.4288420919e+02 +1.1025079741e+03 1.1290658863e+03 0.0000000000e+00 0.0000e+00 -1.0000e+00
<mgrwt>
<rscale>  0 0.85223615E+03</rscale>
<asrwt>0</asrwt>
<pdfrwt beam="1">  1        2 0.18856083E+00 0.85223615E+03</pdfrwt>
<pdfrwt beam="2">  1       -2 0.22791962E-01 0.85223615E+03</pdfrwt>
<totfact> 0.36367913E+02</totfact>
</mgrwt>
<rwgt>
<wgt id='morphing_basis_vector_1'> +2.6179058e-04 </wgt>
<wgt id='morphing_basis_vector_2'> +1.5970411e-04 </wgt>
<wgt id='morphing_basis_vector_3'> +2.4033735e-04 </wgt>
<wgt id='morphing_basis_vector_4'> +1.3689752e-04 </wgt>
<wgt id='morphing_basis_vector_5'> +2.1555568e-04 </wgt>
</rwgt>
</event>
<event>
 4      1 +2.9741700e-06 8.11201100e+02 7.81860800e-03 8.88834900e-02
        2 -1    0    0  501    0 +0.0000000000e+00 +0.0000000000e+00 +6.5267166880e+02 6.5267166880e+02 0.0000000000e+00 0.0000e+00 1.0000e+00
       -2 -1    0    0    0  501 -0.0000000000e+00 -0.0000000000e+00 -2.5205904587e+02 2.5205904587e+02 0.0000000000e+00 0.0000e+00 -1.0000e+00
      -13  1    1    2    0    0 +3.8861244068e+02 -7.7004441551e+01 +2.9729544472e+02 4.9531191639e+02 0.0000000000e+00 0.0000e+00 1.0000e+00
       13  1    1    2    0    0 -3.8861244068e+02 +7.7004441551e+01 +1.0331717821e+02 4.0941879828e+02 0.0000000000e+00 0.0000e+00 -1.0000e+00
<mgrwt>
<rscale>  0 0.81120108E+03</rscale>
<asrwt>0</asrwt>
<pdfrwt beam="1">  1        2 0.10041103E+00 0.81120108E+03</pdfrwt>
<pdfrwt beam="2">  1       -2 0.38778315E-01 0.81120108E+03</pdfrwt>
<totfact> 0.33791287E+02</totfact>
</mgrwt>
<rwgt>
<wgt id='morphing_basis_vector_1'> +2.3566740e-04 </wgt>
<wgt id='morphing_basis_vector_2'> +1.8226055e-04 </wgt>
<wgt id='morphing_basis_vector_3'> +2.0815444e-04 </wgt>
<wgt id='morphing_basis_vector_4'> +8.9067417e-05 </wgt>
<wgt id='morphing_basis_vector_5'> +1.7157190e-04 </wgt>
</rwgt>
</event>
<event>
 4      1 +2.9741700e-06 7.97422800e+02 7.81860800e-03 8.90548500e-02
        2 -1    0    0  501    0 +0.0000000000e+00 +0.0000000000e+00 +1.8054211252e+02 1.8054211252e+02 0.0000000000e+00 0.0000e+00 1.0000e+00
       -2 -1    0    0    0  501 -0.0000000000e+00 -0.0000000000e+00 -8.8051906362e+02 8.8051906362e+02 0.0000000000e+00 0.0000e+00 -1.0000e+00
      -13  1    1    2    0    0 +2.7354916003e+02 +2.2552154698e+02 -5.9273570494e+02 6.9066976697e+02 0.0000000000e+00 0.0000e+00 -1.0000e+00
       13  1    1    2    0    0 -2.7354916003e+02 -2.2552154698e+02 -1.0724124617e+02 3.7039140916e+02 0.0000000000e+00 0.0000e+00 1.0000e+00
<mgrwt>
<rscale>  0 0.79742278E+03</rscale>
<asrwt>0</asrwt>
<pdfrwt beam="1">  1        2 0.27775711E-01 0.79742278E+03</pdfrwt>
<pdfrwt beam="2">  1       -2 0.13546447E+00 0.79742278E+03</pdfrwt>
<totfact> 0.92846349E+01</totfact>
</mgrwt>
<rwgt>
<wgt id='morphing_basis_vector_1'> +2.0754780e-04 </wgt>
<wgt id='morphing_basis_vector_2'> +1.2758994e-04 </wgt>
<wgt id='morphing_basis_vector_3'> +1.8588295e-04 </wgt>
<wgt id='morphing_basis_vector_4'> +1.0042139e-04 </wgt>
<wgt id='morphing_basis_vector_5'> +1.5947921e-04 </wgt>
</rwgt>
</event>
<event>
 4      1 +2.9741700e-06 8.79318700e+02 7.81860800e-03 8.80861500e-02
        2 -1    0    0  501    0 +0.0000000000e+00 +0.0000000000e+00 +8.1271958823e+02 8.1271958823e+02 0.0000000000e+00 0.0000e+00 1.0000e+00
       -2 -1    0    0    0  501 -0.0000000000e+00 -0.0000000000e+00 -2.3784381576e+02 2.3784381576e+02 0.0000000000e+00 0.0000e+00 -1.0000e+00
      -13  1    1    2    0    0 +1.4507012800e+02 +5.3133368185e+01 -2.0434507688e+02 2.5617456411e+02 0.0000000000e+00 0.0000e+00 -1.0000e+00
       13  1    1    2    0    0 -1.4507012800e+02 -5.3133368185e+01 +7.7922084935e+02 7.9438883987e+02 0.0000000000e+00 0.0000e+00 1.0000e+00
<mgrwt>
<rscale>  0 0.87931866E+03</rscale>
<asrwt>0</asrwt>
<pdfrwt beam="1">  1        2 0.12503378E+00 0.87931866E+03</pdfrwt>
<pdfrwt beam="2">  1       -2 0.36591357E-01 0.87931866E+03</pdfrwt>
<totfact> 0.28537118E+02</totfact>
</mgrwt>
<rwgt>
<wgt id='morphing_basis_vector_1'> +2.9292842e-04 </wgt>
<wgt id='morphing_basis_vector_2'> +1.7943558e-04 </wgt>
<wgt id='morphing_basis_vector_3'> +2.7167328e-04 </wgt>
<wgt id='morphing_basis_vector_4'> +1.5736343e-04 </wgt>
<wgt id='morphing_basis_vector_5'> +2.4792996e-04 </wgt>
</rwgt>
</event>
<event>
 4      1 +2.9741700e-06 8.26093300e+02 7.81860800e-03 8.87022800e-02
        2 -1    0    0  501    0 +0.0000000000e+00 +0.0000000000e+00 +1.1510275627e+03 1.1510275627e+03 0.0000000000e+00 0.0000e+00 1.0000e+00
       -2 -1    0    0    0  501 -0.0000000000e+00 -0.0000000000e+00 -1.4822194320e+02 1.4822194320e+02 0.0000000000e+00 0.0000e+00 -1.0000e+00
      -13  1    1    2    0    0 +3.9070501730e+02 -1.2023774484e+02 +5.9444897492e+02 7.2144099524e+02 0.0000000000e+00 0.0000e+00 1.0000e+00
       13  1    1    2    0    0 -3.9070501730e+02 +1.2023774484e+02 +4.0835664458e+02 5.7780851066e+02 0.0000000000e+00 0.0000e+00 -1.0000e+00
<mgrwt>
<rscale>  0 0.82609332E+03</rscale>
<asrwt>0</asrwt>
<pdfrwt beam="1">  1        2 0.17708116E+00 0.82609332E+03</pdfrwt>
<pdfrwt beam="2">  1       -2 0.22803377E-01 0.82609332E+03</pdfrwt>
<totfact> 0.40217607E+02</totfact>
</mgrwt>
<rwgt>
<wgt id='morphing_basis_vector_1'> +2.4774103e-04 </wgt>
<wgt id='morphing_basis_vector_2'> +1.8357314e-04 </wgt>
<wgt id='morphing_basis_vector_3'> +2.2155599e-04 </wgt>
<wgt id='morphing_basis_vector_4'> +1.0139128e-04 </wgt>
<wgt id='morphing_basis_vector_5'> +1.8650775e-04 </wgt>
</rwgt>
</event>
<event>
 4      1 +2.9741700e-06 7.94439900e+02 7.81860800e-03 8.90924300e-02
        2 -1    0    0  501    0 +0.0000000000e+00 +0.0000000000e+00 +7.3000756327e+02 7.3000756327e+02 0.0000000000e+00 0.0000e+00 1.0000e+00
       -2 -1    0    0    0  501 -0.0000000000e+00 -0.0000000000e+00 -2.1613978212e+02 2.1613978212e+02 0.0000000000e+00 0.0000e+00 -1.0000e+00
      -13  1    1    2    0    0 +2.3586138050e+02 -1.6831683581e+02 -6.6653955051e+01 2.9732792965e+02 0.0000000000e+00 0.0000e+00 -1.0000e+00
       13  1    1    2    0    0 -2.3586138050e+02 +1.6831683581e+02 +5.8052173621e+02 6.4881941574e+02 0.0000000000e+00 0.0000e+00 1.0000e+00
<mgrwt>
<rscale>  0 0.79443987E+03</rscale>
<asrwt>0</asrwt>
<pdfrwt beam="1">  1        2 0.11230885E+00 0.79443987E+03</pdfrwt>
<pdfrwt beam="2">  1       -2 0.33252274E-01 0.79443987E+03</pdfrwt>
<totfact> 0.39033724E+02</totfact>
</mgrwt>
<rwgt>
<wgt id='morphing_basis_vector_1'> +2.0400898e-04 </wgt>
<wgt id='morphing_basis_vector_2'> +1.2335876e-04 </wgt>
<wgt id='morphing_basis_vector_3'> +1.8270756e-04 </wgt>
<wgt id='morphing_basis_vector_4'> +9.9748392e-05 </wgt>
<wgt id='morphing_basis_vector_5'> +1.5681353e-04 </wgt>
</rwgt>
</event>
<event>
 4      1 +2.9741700e-06 8.17747000e+02 7.81860800e-03 8.88033300e-02
        2 -1    0    0  501    0 +0.0000000000e+00 +0.0000000000e+00 +6.1485693961e+02 6.1485693961e+02 0.0000000000e+00 0.0000e+00 1.0000e+00
       -2 -1    0    0    0  501 -0.0000000000e+00 -0.0000000000e+00 -2.7189663641e+02 2.7189663641e+02 0.0000000000e+00 0.0000e+00 -1.0000e+00
      -13  1    1    2    0    0 -1.3408772550e+02 +3.6579815846e+02 +3.6956268241e+01 3.9134840823e+02 0.0000000000e+00 0.0000e+00 -1.0000e+00
       13  1    1    2    0    0 +1.3408772550e+02 -3.6579815846e+02 +3.0600403496e+02 4.9540516779e+02 0.0000000000e+00 0.0000e+00 1.0000e+00
<mgrwt>
<rscale>  0 0.81774699E+03</rscale>
<asrwt>0</asrwt>
<pdfrwt beam="1">  1        2 0.94593375E-01 0.81774699E+03</pdfrwt>
<pdfrwt beam="2">  1       -2 0.41830252E-01 0.81774699E+03</pdfrwt>
<totfact> 0.31495751E+02</totfact>
</mgrwt>
<rwgt>
<wgt id='morphing_basis_vector_1'> +2.2819016e-04 </wgt>
<wgt id='morphing_basis_vector_2'> +1.4395041e-04 </wgt>
<wgt id='morphing_basis_vector_3'> +2.0592296e-04 </wgt>
<wgt id='morphing_basis_vector_4'> +1.1082184e-04 </wgt>
<wgt id='morphing_basis_vector_5'> +1.7876216e-04 </wgt>
</rwgt>
</event>
<event>
 4      1 +2.9741700e-06 7.68878500e+02 7.81860800e-03 8.94218200e-02
        2 -1    0    0  501    0 +0.0000000000e+00 +0.0000000000e+00 +1.0008328079e+03 1.0008328079e+03 0.0000000000e+00 0.0000e+00 -1.0000e+00
       -2 -1    0    0    0  501 -0.0000000000e+00 -0.0000000000e+00 -1.4767055986e+02 1.4767055986e+02 0.0000000000e+00 0.0000e+00 1.0000e+00
      -13  1    1    2    0    0 +2.2835547624e+02 -2.0604655405e+02 +7.7108829119e+02 8.3016778953e+02 0.0000000000e+00 0.0000e+00 1.0000e+00
       13  1    1    2    0    0 -2.2835547624e+02 +2.0604655405e+02 +8.2073956826e+01 3.1833557821e+02 0.0000000000e+00 0.0000e+00 -1.0000e+00
<mgrwt>
<rscale>  0 0.76887851E+03</rscale>
<asrwt>0</asrwt>
<pdfrwt beam="1">  1        2 0.15397427E+00 0.76887851E+03</pdfrwt>
<pdfrwt beam="2">  1       -2 0.22718548E-01 0.76887851E+03</pdfrwt>
<totfact> 0.49975486E+02</totfact>
</mgrwt>
<rwgt>
<wgt id='morphing_basis_vector_1'> +2.2321600e-04 </wgt>
<wgt id='morphing_basis_vector_2'> +2.3632250e-04 </wgt>
<wgt id='morphing_basis_vector_3'> +1.8264992e-04 </wgt>
<wgt id='morphing_basis_vector_4'> +3.6214354e-05 </wgt>
<wgt id='morphing_basis_vector_5'> +1.3302128e-04 </wgt>
</rwgt>
</event>
<event>
 4      1 +2.9741700e-06 7.81047200e+02 7.81860800e-03 8.92633400e-02
        2 -1    0    0  501    0 +0.0000000000e+00 +0.0000000000e+00 +1.5778331760e+02 1.5778331760e+02 0.0000000000e+00 0.0000e+00 1.0000e+00
       -2 -1    0    0    0  501 -0.0000000000e+00 -0.0000000000e+00 -9.6657046461e+02 9.6657046461e+02 0.0000000000e+00 0.0000e+00 -1.0000e+00
      -13  1    1    2    0    0 +3.1565471456e+02 -2.0468194612e+02 -2.5357679843e+02 4.5368909023e+02 0.0000000000e+00 0.0000e+00 1.0000e+00
       13  1    1    2    0    0 -3.1565471456e+02 +2.0468194612e+02 -5.5521034858e+02 6.7066469197e+02 0.0000000000e+00 0.0000e+00 -1.0000e+00
<mgrwt>
<rscale>  0 0.78104723E+03</rscale>
<asrwt>0</asrwt>
<pdfrwt beam="1">  1        2 0.24274356E-01 0.78104723E+03</pdfrwt>
<pdfrwt beam="2">  1       -2 0.14870315E+00 0.78104723E+03</pdfrwt>
<totfact> 0.84008153E+01</totfact>
</mgrwt>
<rwgt>
<wgt id='morphing_basis_vector_1'> +2.0882217e-04 </wgt>
<wgt id='morphing_basis_vector_2'> +1.6699492e-04 </wgt>
<wgt id='morphing_basis_vector_3'> +1.8024565e-04 </wgt>
<wgt id='morphing_basis_vector_4'> +7.1893330e-05 </wgt>
<wgt id='morphing_basis_vector_5'> +1.4423368e-04 </wgt>
</rwgt>
</event>
<event>
 4      1 +2.9741700e-06 7.66153000e+02 7.81860800e-03 8.94577400e-02
        2 -1    0    0  501    0 +0.0000000000e+00 +0.0000000000e+00 +8.6552524499e+02 8.6552524499e+02 0.0000000000e+00 0.0000e+00 1.0000e+00
       -2 -1    0    0    0  501 -0.0000000000e+00 -0.0000000000e+00 -1.6954747442e+02 1.6954747442e+02 0.0000000000e+00 0.0000e+00 -1.0000e+00
      -13  1    1    2    0    0 +2.4906726870e+02 +1.2495665915e+02 -7.1441336693e+00 2.7874667648e+02 0.0000000000e+00 0.0000e+00 -1.0000e+00
       13  1    1    2    0    0 -2.4906726870e+02 -1.2495665915e+02 +7.0312190424e+02 7.5632604294e+02 0.0000000000e+00 0.0000e+00 1.0000e+00
<mgrwt>
<rscale>  0 0.76615304E+03</rscale>
<asrwt>0</asrwt>
<pdfrwt beam="1">  1        2 0.13315773E+00 0.76615304E+03</pdfrwt>
<pdfrwt beam="2">  1       -2 0.26084227E-01 0.76615304E+03</pdfrwt>
<totfact> 0.48182049E+02</totfact>
</mgrwt>
<rwgt>
<wgt id='morphing_basis_vector_1'> +1.7954687e-04 </wgt>
<wgt id='morphing_basis_vector_2'> +1.0780755e-04 </wgt>
<wgt id='morphing_basis_vector_3'> +1.5862262e-04 </wgt>
<wgt id='morphing_basis_vector_4'> +8.4662033e-05 </wgt>
<wgt id='morphing_basis_vector_5'> +1.3273870e-04 </wgt>
</rwgt>
</event>
<event>
 4      1 +2.9741700e-06 8.49224300e+02 7.81860800e-03 8.84286700e-02
        2 -1    0    0  501    0 +0.0000000000e+00 +0.0000000000e+00 +1.5448533192e+03 1.5448533192e+03 0.0000000000e+00 0.0000e+00 1.0000e+00
       -2 -1    0    0    0  501 -0.0000000000e+00 -0.0000000000e+00 -1.1670718307e+02 1.1670718307e+02 0.0000000000e+00 0.0000e+00 -1.0000e+00
      -13  1    1    2    0    0 -4.2295919449e+02 +3.2331234873e+01 +7.5097335076e+02 8.6249681884e+02 0.0000000000e+00 0.0000e+00 -1.0000e+00
       13  1    1    2    0    0 +4.2295919449e+02 -3.2331234873e+01 +6.7717278539e+02 7.9906368347e+02 0.0000000000e+00 0.0000e+00 1.0000e+00
<mgrwt>
<rscale>  0 0.84922430E+03</rscale>
<asrwt>0</asrwt>
<pdfrwt beam="1">  1        2 0.23766973E+00 0.84922430E+03</pdfrwt>
<pdfrwt beam="2">  1       -2 0.17954952E-01 0.84922430E+03</pdfrwt>
<totfact> 0.35856965E+02</totfact>
</mgrwt>
<rwgt>
<wgt id='morphing_basis_vector_1'> +2.6909735e-04 </wgt>
<wgt id='morphing_basis_vector_2'> +1.8998908e-04 </wgt>
<wgt id='morphing_basis_vector_3'> +2.4440703e-04 </wgt>
<wgt id='morphing_basis_vector_4'> +1.2047192e-04 </wgt>
<wgt id='morphing_basis_vector_5'> +2.1146669e-04 </wgt>
</rwgt>
</event>
<event>
 4      1 +2.9741700e-06 8.39355600e+02 7.81860800e-03 8.85442700e-02
        2 -1    0    0  501    0 +0.0000000000e+00 +0.0000000000e+00 +5.5559419636e+02 5.5559419636e+02 0.0000000000e+00 0.0000e+00 -1.0000e+00
       -2 -1    0    0    0  501 -0.0000000000e+00 -0.0000000000e+00 -3.1701096430e+02 3.1701096430e+02 0.0000000000e+00 0.0000e+00 1.0000e+00
      -13  1    1    2    0    0 +9.6895706701e+01 +3.2368118736e+02 -1.3950977874e+02 3.6554242899e+02 0.0000000000e+00 0.0000e+00 1.0000e+00
       13  1    1    2    0    0 -9.6895706701e+01 -3.2368118736e+02 +3.7809301080e+02 5.0706273167e+02 0.0000000000e+00 0.0000e+00 -1.0000e+00
<mgrwt>
<rscale>  0 0.83935559E+03</rscale>
<asrwt>0</asrwt>
<pdfrwt beam="1">  1        2 0.85476030E-01 0.83935559E+03</pdfrwt>
<pdfrwt beam="2">  1       -2 0.48770918E-01 0.83935559E+03</pdfrwt>
<totfact> 0.26417671E+02</totfact>
</mgrwt>
<rwgt>
<wgt id='morphing_basis_vector_1'> +2.4840972e-04 </wgt>
<wgt id='morphing_basis_vector_2'> +1.5243531e-04 </wgt>
<wgt id='morphing_basis_vector_3'> +2.2676851e-04 </wgt>
<wgt id='morphing_basis_vector_4'> +1.2722488e-04 </wgt>
<wgt id='morphing_basis_vector_5'> +2.0125345e-04 </wgt>
</rwgt>
</event>
<event>
 4      1 +2.9741700e-06 8.71161200e+02 7.81860800e-03 8.81775600e-02
        2 -1    0    0  501    0 +0.0000000000e+00 +0.0000000000e+00 +4.4821719993e+02 4.4821719993e+02 0.0000000000e+00 0.0000e+00 -1.0000e+00
       -2 -1    0    0    0  501 -0.0000000000e+00 -0.0000000000e+00 -4.2330025605e+02 4.2330025605e+02 0.0000000000e+00 0.0000e+00 1.0000e+00
      -13  1    1    2    0    0 +1.7508464703e+02 +3.9334761557e+02 -5.3549381094e+01 4.3387154379e+02 0.0000000000e+00 0.0000e+00 1.0000e+00
       13  1    1    2    0    0 -1.7508464703e+02 -3.9334761557e+02 +7.8466324975e+01 4.3764591218e+02 0.0000000000e+00 0.0000e+00 -1.0000e+00
<mgrwt>
<rscale>  0 0.87116119E+03</rscale>
<asrwt>0</asrwt>
<pdfrwt beam="1">  1        2 0.68956493E-01 0.87116119E+03</pdfrwt>
<pdfrwt beam="2">  1       -2 0.65123116E-01 0.87116119E+03</pdfrwt>
<totfact> 0.18821557E+02</totfact>
</mgrwt>
<rwgt>
<wgt id='morphing_basis_vector_1'> +2.8892266e-04 </wgt>
<wgt id='morphing_basis_vector_2'> +1.9056278e-04 </wgt>
<wgt id='morphing_basis_vector_3'> +2.6609163e-04 </wgt>
<wgt id='morphing_basis_vector_4'> +1.4316478e-04 </wgt>
<wgt id='morphing_basis_vector_5'> +2.3743884e-04 </wgt>
</rwgt>
</event>
<event>
 4      1 +2.9741700e-06 8.21949300e+02 7.81860800e-03 8.87522900e-02
        2 -1    0    0  501    0 +0.0000000000e+00 +0.0000000000e+00 +3.2793469765e+02 3.2793469765e+02 0.0000000000e+00 0.0000e+00 -1.0000e+00
       -2 -1    0    0    0  501 -0.0000000000e+00 -0.0000000000e+00 -5.1504201897e+02 5.1504201897e+02 0.0000000000e+00 0.0000e+00 1.0000e+00
      -13  1    1    2    0    0 +6.9891595454e+01 +4.0326510388e+02 -1.3182547307e+02 4.2998317929e+02 0.0000000000e+00 0.0000e+00 1.0000e+00
       13  1    1    2    0    0 -6.9891595454e+01 -4.0326510388e+02 -5.5281848253e+01 4.1299353732e+02 0.0000000000e+00 0.0000e+00 -1.0000e+00
<mgrwt>
<rscale>  0 0.82194927E+03</rscale>
<asrwt>0</asrwt>
<pdfrwt beam="1">  1        2 0.50451492E-01 0.82194927E+03</pdfrwt>
<pdfrwt beam="2">  1       -2 0.79237234E-01 0.82194927E+03</pdfrwt>
<totfact> 0.17558359E+02</totfact>
</mgrwt>
<rwgt>
<wgt id='morphing_basis_vector_1'> +2.3571280e-04 </wgt>
<wgt id='morphing_basis_vector_2'> +1.5687726e-04 </wgt>
<wgt id='morphing_basis_vector_3'> +2.1224324e-04 </wgt>
<wgt id='morphing_basis_vector_4'> +1.0907362e-04 </wgt>
<wgt id='morphing_basis_vector_5'> +1.8276742e-04 </wgt>
</rwgt>
</event>
<event>
 4      1 +2.9741700e-06 8.60002600e+02 7.81860800e-03 8.83043100e-02
        2 -1    0    0  501    0 +0.0000000000e+00 +0.0000000000e+00 +3.1294299673e+02 3.1294299673e+02 0.0000000000e+00 0.0000e+00 1.0000e+00
       -2 -1    0    0    0  501 -0.0000000000e+00 -0.0000000000e+00 -5.9084602108e+02 5.9084602108e+02 0.0000000000e+00 0.0000e+00 -1.0000e+00
      -13  1    1    2    0    0 -2.8943803254e+02 -1.7606025496e+02 -4.1725443787e+02 5.3746893303e+02 0.0000000000e+00 0.0000e+00 -1.0000e+00
       13  1    1    2    0    0 +2.8943803254e+02 +1.7606025496e+02 +1.3935141352e+02 3.6632008477e+02 0.0000000000e+00 0.0000e+00 1.0000e+00
<mgrwt>
<rscale>  0 0.86000261E+03</rscale>
<asrwt>0</asrwt>
<pdfrwt beam="1">  1        2 0.48145077E-01 0.86000261E+03</pdfrwt>
<pdfrwt beam="2">  1       -2 0.90899387E-01 0.86000261E+03</pdfrwt>
<totfact> 0.13469419E+02</totfact>
</mgrwt>
<rwgt>
<wgt id='morphing_basis_vector_1'> +2.7096221e-04 </wgt>
<wgt id='morphing_basis_vector_2'> +1.6676559e-04 </wgt>
<wgt id='morphing_basis_vector_3'> +2.4939868e-04 </wgt>
<wgt id='morphing_basis_vector_4'> +1.4184644e-04 </wgt>
<wgt id='morphing_basis_vector_5'> +2.2447114e-04 </wgt>
</rwgt>
</event>
<event>
 4      1 +2.9741700e-06 7.51250700e+02 7.81860800e-03 8.96570100e-02
        2 -1    0    0  501    0 +0.0000000000e+00 +0.0000000000e+00 +1.6043604463e+03 1.6043604463e+03 0.0000000000e+00 0.0000e+00 -1.0000e+00
       -2 -1    0    0    0  501 -0.0000000000e+00 -0.0000000000e+00 -8.7944329205e+01 8.7944329205e+01 0.0000000000e+00 0.0000e+00 1.0000e+00
      -13  1    1    2    0    0 -3.3884160211e+02 -5.2473502412e+01 +4.1268282594e+02 5.3653910817e+02 0.0000000000e+00 0.0000e+00 1.0000e+00
       13  1    1    2    0    0 +3.3884160211e+02 +5.2473502412e+01 +1.1037332911e+03 1.1557656673e+03 0.0000000000e+00 0.0000e+00 -1.0000e+00
<mgrwt>
<rscale>  0 0.75125070E+03</rscale>
<asrwt>0</asrwt>
<pdfrwt beam="1">  1        2 0.24682466E+00 0.75125070E+03</pdfrwt>
<pdfrwt beam="2">  1       -2 0.13529898E-01 0.75125070E+03</pdfrwt>
<totfact> 0.53000248E+02</totfact>
</mgrwt>
<rwgt>
<wgt id='morphing_basis_vector_1'> +1.6852188e-04 </wgt>
<wgt id='morphing_basis_vector_2'> +1.0302341e-04 </wgt>
<wgt id='morphing_basis_vector_3'> +1.4739254e-04 </wgt>
<wgt id='morphing_basis_vector_4'> +7.6367777e-05 </wgt>
<wgt id='morphing_basis_vector_5'> +1.2114547e-04 </wgt>
</rwgt>
</event>
<event>
 4      1 +2.9741700e-06 7.70823400e+02 7.81860800e-03 8.93962800e-02
        2 -1    0    0  501    0 +0.0000000000e+00 +0.0000000000e+00 +1.5568667762e+02 1.5568667762e+02 0.0000000000e+00 0.0000e+00 -1.0000e+00
       -2 -1    0    0    0  501 -0.0000000000e+00 -0.0000000000e+00 -9.5410975579e+02 9.5410975579e+02 0.0000000000e+00 0.0000e+00 1.0000e+00
      -13  1    1    2    0    0 -2.8630374511e+02 +2.3610771668e+02 -2.4941140247e+02 4.4712720341e+02 0.0000000000e+00 0.0000e+00 1.0000e+00
       13  1    1    2    0    0 +2.8630374511e+02 -2.3610771668e+02 -5.4901167570e+02 6.6266923001e+02 0.0000000000e+00 0.0000e+00 -1.0000e+00
<mgrwt>
<rscale>  0 0.77082340E+03</rscale>
<asrwt>0</asrwt>
<pdfrwt beam="1">  1        2 0.23951796E-01 0.77082340E+03</pdfrwt>
<pdfrwt beam="2">  1       -2 0.14678612E+00 0.77082340E+03</pdfrwt>
<totfact> 0.88585189E+01</totfact>
</mgrwt>
<rwgt>
<wgt id='morphing_basis_vector_1'> +1.9943573e-04 </wgt>
<wgt id='morphing_basis_vector_2'> +1.5940533e-04 </wgt>
<wgt id='morphing_basis_vector_3'> +1.7093196e-04 </wgt>
<wgt id='morphing_basis_vector_4'> +6.7699782e-05 </wgt>
<wgt id='morphing_basis_vector_5'> +1.3576921e-04 </wgt>
</rwgt>
</event>
<event>
 4      1 +2.9741700e-06 8.95756300e+02 7.81860800e-03 8.79051000e-02
        2 -1    0    0  501    0 +0.0000000000e+00 +0.0000000000e+00 +5.8802941976e+02 5.8802941976e+02 0.0000000000e+00 0.0000e+00 -1.0000e+00
       -2 -1    0    0    0  501 -0.0000000000e+00 -0.0000000000e+00 -3.4113060632e+02 3.4113060632e+02 0.0000000000e+00 0.0000e+00 1.0000e+00
      -13  1    1    2    0    0 -7.8915835801e+01 +1.8272008576e+02 -2.9273641285e+02 3.5399003700e+02 0.0000000000e+00 0.0000e+00 1.0000e+00
       13  1    1    2    0    0 +7.8915835801e+01 -1.8272008576e+02 +5.3963522630e+02 5.7516998909e+02 0.0000000000e+00 0.0000e+00 -1.0000e+00
<mgrwt>
<rscale>  0 0.89575629E+03</rscale>
<asrwt>0</asrwt>
<pdfrwt beam="1">  1        2 0.90466065E-01 0.89575629E+03</pdfrwt>
<pdfrwt beam="2">  1       -2 0.52481632E-01 0.89575629E+03</pdfrwt>
<totfact> 0.21346060E+02</totfact>
</mgrwt>
<rwgt>
<wgt id='morphing_basis_vector_1'> +3.1326905e-04 </wgt>
<wgt id='morphing_basis_vector_2'> +1.9255786e-04 </wgt>
<wgt id='morphing_basis_vector_3'> +2.9221171e-04 </wgt>
<wgt id='morphing_basis_vector_4'> +1.7070572e-04 </wgt>
<wgt id='morphing_basis_vector_5'> +2.6921003e-04 </wgt>
</rwgt>
</event>
<event>
 4      1 +2.9741700e-06 8.05048300e+02 7.81860800e-03 8.89595600e-02
        2 -1    0    0  501    0 +0.0000000000e+00 +0.0000000000e+00 +1.9672962159e+03 1.9672962159e+03 0.0000000000e+00 0.0000e+00 1.0000e+00
       -2 -1    0    0    0  501 -0.0000000000e+00 -0.0000000000e+00 -8.2359587834e+01 8.2359587834e+01 0.0000000000e+00 0.0000e+00 -1.0000e+00
      -13  1    1    2    0    0 +3.9918044389e+02 -5.1177738076e+01 +9.6243745969e+02 1.0431922409e+03 0.0000000000e+00 0.0000e+00 -1.0000e+00
       13  1    1    2    0    0 -3.9918044389e+02 +5.1177738076e+01 +9.2249916833e+02 1.0064635628e+03 0.0000000000e+00 0.0000e+00 1.0000e+00
<mgrwt>
<rscale>  0 0.80504834E+03</rscale>
<asrwt>0</asrwt>
<pdfrwt beam="1">  1        2 0.30266092E+00 0.80504834E+03</pdfrwt>
<pdfrwt beam="2">  1       -2 0.12670707E-01 0.80504834E+03</pdfrwt>
<totfact> 0.37074651E+02</totfact>
</mgrwt>
<rwgt>
<wgt id='morphing_basis_vector_1'> +2.2159666e-04 </wgt>
<wgt id='morphing_basis_vector_2'> +1.5340517e-04 </wgt>
<wgt id='morphing_basis_vector_3'> +1.9714599e-04 </wgt>
<wgt id='morphing_basis_vector_4'> +9.6001537e-05 </wgt>
<wgt id='morphing_basis_vector_5'> +1.6617314e-04 </wgt>
</rwgt>
</event>
<event>
 4      1 +2.9741700e-06 7.86803900e+02 7.81860800e-03 8.91894300e-02
        2 -1    0    0  501    0 +0.0000000000e+00 +0.0000000000e+00 +3.5548267806e+02 3.5548267806e+02 0.0000000000e+00 0.0000e+00 -1.0000e+00
       -2 -1    0    0    0  501 -0.0000000000e+00 -0.0000000000e+00 -4.3536606488e+02 4.3536606488e+02 0.0000000000e+00 0.0000e+00 1.0000e+00
      -13  1    1    2    0    0 -9.4631155897e+01 +6.3119594136e+01 +3.3859221046e+02 3.5718877896e+02 0.0000000000e+00 0.0000e+00 -1.0000e+00
       13  1    1    2    0    0 +9.4631155897e+01 -6.3119594136e+01 -4.1847559728e+02 4.3365996397e+02 0.0000000000e+00 0.0000e+00 1.0000e+00
<mgrwt>
<rscale>  0 0.78680390E+03</rscale>
<asrwt>0</asrwt>
<pdfrwt beam="1">  1        2 0.54689642E-01 0.78680390E+03</pdfrwt>
<pdfrwt beam="2">  1       -2 0.66979395E-01 0.78680390E+03</pdfrwt>
<totfact> 0.23155518E+02</totfact>
</mgrwt>
<rwgt>
<wgt id='morphing_basis_vector_1'> +2.6833487e-04 </wgt>
<wgt id='morphing_basis_vector_2'> +3.3712845e-04 </wgt>
<wgt id='morphing_basis_vector_3'> +2.1635898e-04 </wgt>
<wgt id='morphing_basis_vector_4'> +7.4013854e-06 </wgt>
<wgt id='morphing_basis_vector_5'> +1.4642310e-04 </wgt>
</rwgt>
</event>
<event>
 4      1 +2.9741700e-06 8.56561700e+02 7.81860800e-03 8.83438000e-02
        2 -1    0    0  501    0 +0.0000000000e+00 +0.0000000000e+00 +3.6026356624e+02 3.6026356624e+02 0.0000000000e+00 0.0000e+00 -1.0000e+00
       -2 -1    0    0    0  501 -0.0000000000e+00 -0.0000000000e+00 -5.0913974570e+02 5.0913974570e+02 0.0000000000e+00 0.0000e+00 1.0000e+00
      -13  1    1    2    0    0 +2.5405813890e+02 +3.3495450120e+02 -1.5742226633e+02 4.4891182403e+02 0.0000000000e+00 0.0000e+00 1.0000e+00
       13  1    1    2    0    0 -2.5405813890e+02 -3.3495450120e+02 +8.5460868688e+00 4.2049148792e+02 0.0000000000e+00 0.0000e+00 -1.0000e+00
<mgrwt>
<rscale>  0 0.85656173E+03</rscale>
<asrwt>0</asrwt>
<pdfrwt beam="1">  1        2 0.55425164E-01 0.85656173E+03</pdfrwt>
<pdfrwt beam="2">  1       -2 0.78329191E-01 0.85656173E+03</pdfrwt>
<totfact> 0.16179566E+02</totfact>
</mgrwt>
<rwgt>
<wgt id='morphing_basis_vector_1'> +2.7108781e-04 </wgt>
<wgt id='morphing_basis_vector_2'> +1.7648473e-04 </wgt>
<wgt id='morphing_basis_vector_3'> +2.4834405e-04 </wgt>
<wgt id='morphing_basis_vector_4'> +1.3390937e-04 </wgt>
<wgt id='morphing_basis_vector_5'> +2.2020863e-04 </wgt>
</rwgt>
</event>
<event>
 4      1 +2.9741700e-06 7.83656200e+02 7.81860800e-03 8.92297600e-02
        2 -1    0    0  501    0 +0.0000000000e+00 +0.0000000000e+00 +1.6188742690e+03 1.6188742690e+03 0.0000000000e+00 0.0000e+00 -1.0000e+00
       -2 -1    0    0    0  501 -0.0000000000e+00 -0.0000000000e+00 -9.4837038823e+01 9.4837038823e+01 0.0000000000e+00 0.0000e+00 1.0000e+00
      -13  1    1    2    0    0 -3.2098875429e+01 -3.0909574297e+02 +2.4011266688e+02 3.9271441140e+02 0.0000000000e+00 0.0000e+00 1.0000e+00
       13  1    1    2    0    0 +3.2098875429e+01 +3.0909574297e+02 +1.2839245633e+03 1.3209968964e+03 0.0000000000e+00 0.0000e+00 -1.0000e+00
<mgrwt>
<rscale>  0 0.78365615E+03</rscale>
<asrwt>0</asrwt>
<pdfrwt beam="1">  1        2 0.24905756E+00 0.78365615E+03</pdfrwt>
<pdfrwt beam="2">  1       -2 0.14590315E-01 0.78365615E+03</pdfrwt>
<totfact> 0.45988013E+02</totfact>
</mgrwt>
<rwgt>
<wgt id='morphing_basis_vector_1'> +1.9457318e-04 </wgt>
<wgt id='morphing_basis_vector_2'> +1.1778686e-04 </wgt>
<wgt id='morphing_basis_vector_3'> +1.7331814e-04 </wgt>
<wgt id='morphing_basis_vector_4'> +9.3563277e-05 </wgt>
<wgt id='morphing_basis_vector_5'> +1.4728618e-04 </wgt>
</rwgt>
</event>
<event>
 4      1 +2.9741700e-06 7.71056400e+02 7.81860800e-03 8.93932300e-02
        2 -1    0    0  501    0 +0.0000000000e+00 +0.0000000000e+00 +1.3631654413e+03 1.3631654413e+03 0.0000000000e+00 0.0000e+00 -1.0000e+00
       -2 -1    0    0    0  501 -0.0000000000e+00 -0.0000000000e+00 -1.0903445092e+02 1.0903445092e+02 0.0000000000e+00 0.0000e+00 1.0000e+00
      -13  1    1    2    0    0 -2.3894626432e+02 -1.4191690069e+02 +1.1372395844e+03 1.1707047435e+03 0.0000000000e+00 0.0000e+00 1.0000e+00
       13  1    1    2    0    0 +2.3894626432e+02 +1.4191690069e+02 +1.1689140591e+02 3.0149514874e+02 0.0000000000e+00 0.0000e+00 -1.0000e+00
<mgrwt>
<rscale>  0 0.77105641E+03</rscale>
<asrwt>0</asrwt>
<pdfrwt beam="1">  1        2 0.20971775E+00 0.77105641E+03</pdfrwt>
<pdfrwt beam="2">  1       -2 0.16774532E-01 0.77105641E+03</pdfrwt>
<totfact> 0.50830470E+02</totfact>
</mgrwt>
<rwgt>
<wgt id='morphing_basis_vector_1'> +2.3440756e-04 </wgt>
<wgt id='morphing_basis_vector_2'> +2.6622329e-04 </wgt>
<wgt id='morphing_basis_vector_3'> +1.8962965e-04 </wgt>
<wgt id='morphing_basis_vector_4'> +2.5826109e-05 </wgt>
<wgt id='morphing_basis_vector_5'> +1.3433317e-04 </wgt>
</rwgt>
</event>
<event>
 4      1 +2.9741700e-06 7.97965500e+02 7.81860800e-03 8.90480300e-02
        2 -1    0    0  501    0 +0.0000000000e+00 +0.0000000000e+00 +1.6674110792e+02 1.6674110792e+02 0.0000000000e+00 0.0000e+00 -1.0000e+00
       -2 -1    0    0    0  501 -0.0000000000e+00 -0.0000000000e+00 -9.5469692695e+02 9.5469692695e+02 0.0000000000e+00 0.0000e+00 1.0000e+00
      -13  1    1    2    0    0 -2.7484564324e+02 +7.9619159094e+01 -7.8473159136e+02 8.3527421161e+02 0.0000000000e+00 0.0000e+00 1.0000e+00
       13  1    1    2    0    0 +2.7484564324e+02 -7.9619159094e+01 -3.2242276742e+00 2.8616382327e+02 0.0000000000e+00 0.0000e+00 -1.0000e+00
<mgrwt>
<rscale>  0 0.79796547E+03</rscale>
<asrwt>0</asrwt>
<pdfrwt beam="1">  1        2 0.25652478E-01 0.79796547E+03</pdfrwt>
<pdfrwt beam="2">  1       -2 0.14687645E+00 0.79796547E+03</pdfrwt>
<totfact> 0.81433702E+01</totfact>
</mgrwt>
<rwgt>
<wgt id='morphing_basis_vector_1'> +2.0720506e-04 </wgt>
<wgt id='morphing_basis_vector_2'> +1.2533083e-04 </wgt>
<wgt id='morphing_basis_vector_3'> +1.8587887e-04 </wgt>
<wgt id='morphing_basis_vector_4'> +1.0179067e-04 </wgt>
<wgt id='morphing_basis_vector_5'> +1.6002047e-04 </wgt>
</rwgt>
</event>
<event>
 4      1 +2.9741700e-06 8.80636700e+02 7.81860800e-03 8.80714800e-02
        2 -1    0    0  501    0 +0.0000000000e+00 +0.0000000000e+00 +2.5498715693e+02 2.5498715693e+02 0.0000000000e+00 0.0000e+00 1.0000e+00
       -2 -1    0    0    0  501 -0.0000000000e+00 -0.0000000000e+00 -7.6035301265e+02 7.6035301265e+02 0.0000000000e+00 0.0000e+00 -1.0000e+00
      -13  1    1    2    0    0 +9.9129091310e+01 +2.2308644755e+02 -6.7518645184e+02 7.1796301058e+02 0.0000000000e+00 0.0000e+00 -1.0000e+00
       13  1    1    2    0    0 -9.9129091310e+01 -2.2308644755e+02 +1.6982059612e+02 2.9737715899e+02 0.0000000000e+00 0.0000e+00 1.0000e+00
<mgrwt>
<rscale>  0 0.88063671E+03</rscale>
<asrwt>0</asrwt>
<pdfrwt beam="1">  1        2 0.39228794E-01 0.88063671E+03</pdfrwt>
<pdfrwt beam="2">  1       -2 0.11697739E+00 0.88063671E+03</pdfrwt>
<totfact> 0.91520436E+01</totfact>
</mgrwt>
<rwgt>
<wgt id='morphing_basis_vector_1'> +2.9460302e-04 </wgt>
<wgt id='morphing_basis_vector_2'> +1.8071295e-04 </wgt>
<wgt id='morphing_basis_vector_3'> +2.7334044e-04 </wgt>
<wgt id='morphing_basis_vector_4'> +1.5828918e-04 </wgt>
<wgt id='morphing_basis_vector_5'> +2.4958383e-04 </wgt>
</rwgt>
</event>
<event>
 4      1 +2.9741700e-06 7.72730900e+02 7.81860800e-03 8.93713200e-02
        2 -1    0    0  501    0 +0.0000000000e+00 +0.0000000000e+00 +1.6911070088e+03 1.6911070088e+03 0.0000000000e+00 0.0000e+00 -1.0000e+00
       -2 -1    0    0    0  501 -0.0000000000e+00 -0.0000000000e+00 -8.8272517366e+01 8.8272517366e+01 0.0000000000e+00 0.0000e+00 1.0000e+00
      -13  1    1    2    0    0 -1.9537160728e+01 -3.4987276447e+02 +4.2666402713e+02 5.5211850541e+02 0.0000000000e+00 0.0000e+00 1.0000e+00
       13  1    1    2    0    0 +1.9537160728e+01 +3.4987276447e+02 +1.1761704643e+03 1.2272610207e+03 0.0000000000e+00 0.0000e+00 -1.0000e+00
<mgrwt>
<rscale>  0 0.77273093E+03</rscale>
<asrwt>0</asrwt>
<pdfrwt beam="1">  1        2 0.26017028E+00 0.77273093E+03</pdfrwt>
<pdfrwt beam="2">  1       -2 0.13580389E-01 0.77273093E+03</pdfrwt>
<totfact> 0.47154317E+02</totfact>
</mgrwt>
<rwgt>
<wgt id='morphing_basis_vector_1'> +1.8593836e-04 </wgt>
<wgt id='morphing_basis_vector_2'> +1.1410162e-04 </wgt>
<wgt id='morphing_basis_vector_3'> +1.6448540e-04 </wgt>
<wgt id='morphing_basis_vector_4'> +8.6896913e-05 </wgt>
<wgt id='morphing_basis_vector_5'> +1.3803868e-04 </wgt>
</rwgt>
</event>
<event>
 4      1 +2.9741700e-06 7.67387100e+02 7.81860800e-03 8.94414600e-02
        2 -1    0    0  501    0 +0.0000000000e+00 +0.0000000000e+00 +9.7491314972e+02 9.7491314972e+02 0.0000000000e+00 0.0000e+00 -1.0000e+00
       -2 -1    0    0    0  501 -0.0000000000e+00 -0.0000000000e+00 -1.5100909805e+02 1.5100909805e+02 0.0000000000e+00 0.0000e+00 1.0000e+00
      -13  1    1    2    0    0 +2.3887697259e+02 +4.6063074896e+01 -2.3385256224e+01 2.4439902846e+02 0.0000000000e+00 0.0000e+00 1.0000e+00
       13  1    1    2    0    0 -2.3887697259e+02 -4.6063074896e+01 +8.4728930789e+02 8.8152321930e+02 0.0000000000e+00 0.0000e+00 -1.0000e+00
<mgrwt>
<rscale>  0 0.76738714E+03</rscale>
<asrwt>0</asrwt>
<pdfrwt beam="1">  1        2 0.14998663E+00 0.76738714E+03</pdfrwt>
<pdfrwt beam="2">  1       -2 0.23232170E-01 0.76738714E+03</pdfrwt>
<totfact> 0.49942544E+02</totfact>
</mgrwt>
<rwgt>
<wgt id='morphing_basis_vector_1'> +1.8043617e-04 </wgt>
<wgt id='morphing_basis_vector_2'> +1.0806135e-04 </wgt>
<wgt id='morphing_basis_vector_3'> +1.5955298e-04 </wgt>
<wgt id='morphing_basis_vector_4'> +8.5435998e-05 </wgt>
<wgt id='morphing_basis_vector_5'> +1.3373553e-04 </wgt>
</rwgt>
</event>
<event>
 4      1 +2.9741700e-06 8.47373000e+02 7.81860800e-03 8.84502300e-02
        2 -1    0    0  501    0 +0.0000000000e+00 +0.0000000000e+00 +1.0661426142e+03 1.0661426142e+03 0.0000000000e+00 0.0000e+00 1.0000e+00
       -2 -1    0    0    0  501 -0.0000000000e+00 -0.0000000000e+00 -1.6837356904e+02 1.6837356904e+02 0.0000000000e+00 0.0000e+00 -1.0000e+00
      -13  1    1    2    0    0 +4.2360476842e+02 -1.0369331475e+00 +4.6091251999e+02 6.2600513268e+02 0.0000000000e+00 0.0000e+00 -1.0000e+00
       13  1    1    2    0    0 -4.2360476842e+02 +1.0369331475e+00 +4.3685652517e+02 6.0851105055e+02 0.0000000000e+00 0.0000e+00 1.0000e+00
<mgrwt>
<rscale>  0 0.84737297E+03</rscale>
<asrwt>0</asrwt>
<pdfrwt beam="1">  1        2 0.16402194E+00 0.84737297E+03</pdfrwt>
<pdfrwt beam="2">  1       -2 0.25903627E-01 0.84737297E+03</pdfrwt>
<totfact> 0.36297398E+02</totfact>
</mgrwt>
<rwgt>
<wgt id='morphing_basis_vector_1'> +2.6609160e-04 </wgt>
<wgt id='morphing_basis_vector_2'> +1.8568209e-04 </wgt>
<wgt id='morphing_basis_vector_3'> +2.4166538e-04 </wgt>
<wgt id='morphing_basis_vector_4'> +1.2053193e-04 </wgt>
<wgt id='morphing_basis_vector_5'> +2.0946422e-04 </wgt>
</rwgt>
</event>
<event>
 4      1 +2.9741700e-06 8.03975600e+02 7.81860800e-03 8.89729000e-02
        2 -1    0    0  501    0 +0.0000000000e+00 +0.0000000000e+00 +1.1124033367e+03 1.1124033367e+03 0.0000000000e+00 0.0000e+00 1.0000e+00
       -2 -1    0    0    0  501 -0.0000000000e+00 -0.0000000000e+00 -1.4526583904e+02 1.4526583904e+02 0.0000000000e+00 0.0000e+00 -1.0000e+00
      -13  1    1    2    0    0 -9.3448462420e+01 +3.6375449350e+02 +7.0778586127e+02 8.0125574699e+02 0.0000000000e+00 0.0000e+00 -1.0000e+00
       13  1    1    2    0    0 +9.3448462420e+01 -3.6375449350e+02 +2.5935163643e+02 4.5641342880e+02 0.0000000000e+00 0.0000e+00 1.0000e+00
<mgrwt>
<rscale>  0 0.80397563E+03</rscale>
<asrwt>0</asrwt>
<pdfrwt beam="1">  1        2 0.17113897E+00 0.80397563E+03</pdfrwt>
<pdfrwt beam="2">  1       -2 0.22348591E-01 0.80397563E+03</pdfrwt>
<totfact> 0.43904522E+02</totfact>
</mgrwt>
<rwgt>
<wgt id='morphing_basis_vector_1'> +2.3747882e-04 </wgt>
<wgt id='morphing_basis_vector_2'> +2.0447462e-04 </wgt>
<wgt id='morphing_basis_vector_3'> +2.0635068e-04 </wgt>
<wgt id='morphing_basis_vector_4'> +7.3939582e-05 </wgt>
<wgt id='morphing_basis_vector_5'> +1.6424039e-04 </wgt>
</rwgt>
</event>
<event>
 4      1 +2.9741700e-06 7.51118000e+02 7.81860800e-03 8.96588100e-02
        2 -1    0    0  501    0 +0.0000000000e+00 +0.0000000000e+00 +9.3420588555e+02 9.3420588555e+02 0.0000000000e+00 0.0000e+00 1.0000e+00
       -2 -1    0    0    0  501 -0.0000000000e+00 -0.0000000000e+00 -1.5097803643e+02 1.5097803643e+02 0.0000000000e+00 0.0000e+00 -1.0000e+00
      -13  1    1    2    0    0 +3.2173225596e+02 +1.7740916110e+02 +5.0407250786e+02 6.2375856559e+02 0.0000000000e+00 0.0000e+00 1.0000e+00
       13  1    1    2    0    0 -3.2173225596e+02 -1.7740916110e+02 +2.7915534125e+02 4.6142535639e+02 0.0000000000e+00 0.0000e+00 -1.0000e+00
<mgrwt>
<rscale>  0 0.75111802E+03</rscale>
<asrwt>0</asrwt>
<pdfrwt beam="1">  1        2 0.14372398E+00 0.75111802E+03</pdfrwt>
<pdfrwt beam="2">  1       -2 0.23227391E-01 0.75111802E+03</pdfrwt>
<totfact> 0.53045388E+02</totfact>
</mgrwt>
<rwgt>
<wgt id='morphing_basis_vector_1'> +1.7934028e-04 </wgt>
<wgt id='morphing_basis_vector_2'> +1.3650980e-04 </wgt>
<wgt id='morphing_basis_vector_3'> +1.5257869e-04 </wgt>
<wgt id='morphing_basis_vector_4'> +6.3563761e-05 </wgt>
<wgt id='morphing_basis_vector_5'> +1.2059194e-04 </wgt>
</rwgt>
</event>
<event>
 4      1 +2.9741700e-06 8.41953100e+02 7.81860800e-03 8.85136800e-02
        2 -1    0    0  501    0 +0.0000000000e+00 +0.0000000000e+00 +5.5628335938e+02 5.5628335938e+02 0.0000000000e+00 0.0000e+00 -1.0000e+00
       -2 -1    0    0    0  501 -0.0000000000e+00 -0.0000000000e+00 -3.1858092426e+02 3.1858092426e+02 0.0000000000e+00 0.0000e+00 1.0000e+00
      -13  1    1    2    0    0 -5.7350670942e+01 +3.5675371131e+02 -1.0559913149e+02 3.7644851781e+02 0.0000000000e+00 0.0000e+00 1.0000e+00
       13  1    1    2    0    0 +5.7350670942e+01 -3.5675371131e+02 +3.4330156661e+02 4.9841576583e+02 0.0000000000e+00 0.0000e+00 -1.0000e+00
<mgrwt>
<rscale>  0 0.84195313E+03</rscale>
<asrwt>0</asrwt>
<pdfrwt beam="1">  1        2 0.85582055E-01 0.84195313E+03</pdfrwt>
<pdfrwt beam="2">  1       -2 0.49012450E-01 0.84195313E+03</pdfrwt>
<totfact> 0.26123827E+02</totfact>
</mgrwt>
<rwgt>
<wgt id='morphing_basis_vector_1'> +2.5154335e-04 </wgt>
<wgt id='morphing_basis_vector_2'> +1.5534353e-04 </wgt>
<wgt id='morphing_basis_vector_3'> +2.2978530e-04 </wgt>
<wgt id='morphing_basis_vector_4'> +1.2849391e-04 </wgt>
<wgt id='morphing_basis_vector_5'> +2.0405022e-04 </wgt>
</rwgt>
</event>
<event>
 4      1 +2.9741700e-06 8.01098800e+02 7.81860800e-03 8.90087700e-02
        2 -1    0    0  501    0 +0.0000000000e+00 +0.0000000000e+00 +4.5101637600e+02 4.5101637600e+02 0.0000000000e+00 0.0000e+00 1.0000e+00
       -2 -1    0    0    0  501 -0.0000000000e+00 -0.0000000000e+00 -3.5572948143e+02 3.5572948143e+02 0.0000000000e+00 0.0000e+00 -1.0000e+00
      -13  1    1    2    0    0 -1.6612457667e+02 +1.2270289420e+02 -2.9797612052e+02 3.6255088418e+02 0.0000000000e+00 0.0000e+00 -1.0000e+00
       13  1    1    2    0    0 +1.6612457667e+02 -1.2270289420e+02 +3.9326301510e+02 4.4419497325e+02 0.0000000000e+00 0.0000e+00 1.0000e+00
<mgrwt>
<rscale>  0 0.80109880E+03</rscale>
<asrwt>0</asrwt>
<pdfrwt beam="1">  1        2 0.69387135E-01 0.80109880E+03</pdfrwt>
<pdfrwt beam="2">  1       -2 0.54727613E-01 0.80109880E+03</pdfrwt>
<totfact> 0.26768442E+02</totfact>
</mgrwt>
<rwgt>
<wgt id='morphing_basis_vector_1'> +2.0989057e-04 </wgt>
<wgt id='morphing_basis_vector_2'> +1.2652931e-04 </wgt>
<wgt id='morphing_basis_vector_3'> +1.8861972e-04 </wgt>
<wgt id='morphing_basis_vector_4'> +1.0386859e-04 </wgt>
<wgt id='morphing_basis_vector_5'> +1.6292012e-04 </wgt>
</rwgt>
</event>
<event>
 4      1 +2.9741700e-06 8.28008600e+02 7.81860800e-03 8.86792700e-02
        2 -1    0    0  501    0 +0.0000000000e+00 +0.0000000000e+00 +4.1805206582e+03 4.1805206582e+03 0.0000000000e+00 0.0000e+00 -1.0000e+00
       -2 -1    0    0    0  501 -0.0000000000e+00 -0.0000000000e+00 -4.0999571496e+01 4.0999571496e+01 0.0000000000e+00 0.0000e+00 1.0000e+00
      -13  1    1    2    0    0 -3.7447014409e+02 +1.6229900819e+02 +2.4241159070e+03 2.4582324518e+03 0.0000000000e+00 0.0000e+00 1.0000e+00
       13  1    1    2    0    0 +3.7447014409e+02 -1.6229900819e+02 +1.7154051797e+03 1.7632877779e+03 0.0000000000e+00 0.0000e+00 -1.0000e+00
<mgrwt>
<rscale>  0 0.82800859E+03</rscale>
<asrwt>0</asrwt>
<pdfrwt beam="1">  1        2 0.64315669E+00 0.82800859E+03</pdfrwt>
<pdfrwt beam="2">  1       -2 0.63076297E-02 0.82800859E+03</pdfrwt>
<totfact> 0.36120137E+01</totfact>
</mgrwt>
<rwgt>
<wgt id='morphing_basis_vector_1'> +2.5101059e-04 </wgt>
<wgt id='morphing_basis_vector_2'> +1.8886108e-04 </wgt>
<wgt id='morphing_basis_vector_3'> +2.2441317e-04 </wgt>
<wgt id='morphing_basis_vector_4'> +1.0084708e-04 </wgt>
<wgt id='morphing_basis_vector_5'> +1.8839426e-04 </wgt>
</rwgt>
</event>
<event>
 4      1 +2.9741700e-06 7.93606200e+02 7.81860800e-03 8.91029600e-02
        2 -1    0    0  501    0 +0.0000000000e+00 +0.0000000000e+00 +8.2360890948e+02 8.2360890948e+02 0.0000000000e+00 0.0000e+00 -1.0000e+00
       -2 -1    0    0    0  501 -0.0000000000e+00 -0.0000000000e+00 -1.9117411303e+02 1.9117411303e+02 0.0000000000e+00 0.0000e+00 1.0000e+00
      -13  1    1    2    0    0 -3.9025651426e+02 +5.3023262074e+01 +2.5434782131e+02 4.6883304859e+02 0.0000000000e+00 0.0000e+00 1.0000e+00
       13  1    1    2    0    0 +3.9025651426e+02 -5.3023262074e+01 +3.7808697515e+02 5.4594997392e+02 0.0000000000e+00 0.0000e+00 -1.0000e+00
<mgrwt>
<rscale>  0 0.79360621E+03</rscale>
<asrwt>0</asrwt>
<pdfrwt beam="1">  1        2 0.12670906E+00 0.79360621E+03</pdfrwt>
<pdfrwt beam="2">  1       -2 0.29411403E-01 0.79360621E+03</pdfrwt>
<totfact> 0.41666992E+02</totfact>
</mgrwt>
<rwgt>
<wgt id='morphing_basis_vector_1'> +2.0751629e-04 </wgt>
<wgt id='morphing_basis_vector_2'> +1.3593838e-04 </wgt>
<wgt id='morphing_basis_vector_3'> +1.8444501e-04 </wgt>
<wgt id='morphing_basis_vector_4'> +9.3945786e-05 </wgt>
<wgt id='morphing_basis_vector_5'> +1.5583927e-04 </wgt>
</rwgt>
</event>
<event>
 4      1 +2.9741700e-06 8.43838700e+02 7.81860800e-03 8.84915500e-02
        2 -1    0    0  501    0 +0.0000000000e+00 +0.0000000000e+00 +1.2886231187e+03 1.2886231187e+03 0.0000000000e+00 0.0000e+00 -1.0000e+00
       -2 -1    0    0    0  501 -0.0000000000e+00 -0.0000000000e+00 -1.3814429126e+02 1.3814429126e+02 0.0000000000e+00 0.0000e+00 1.0000e+00
      -13  1    1    2    0    0 -3.3361231303e+02 +2.2992838245e+02 +3.7624304499e+02 5.5292229596e+02 0.0000000000e+00 0.0000e+00 1.0000e+00
       13  1    1    2    0    0 +3.3361231303e+02 -2.2992838245e+02 +7.7423578247e+02 8.7384511403e+02 0.0000000000e+00 0.0000e+00 -1.0000e+00
<mgrwt>
<rscale>  0 0.84383868E+03</rscale>
<asrwt>0</asrwt>
<pdfrwt beam="1">  1        2 0.19824970E+00 0.84383868E+03</pdfrwt>
<pdfrwt beam="2">  1       -2 0.21252969E-01 0.84383868E+03</pdfrwt>
<totfact> 0.37674518E+02</totfact>
</mgrwt>
<rwgt>
<wgt id='morphing_basis_vector_1'> +2.5559367e-04 </wgt>
<wgt id='morphing_basis_vector_2'> +1.6284116e-04 </wgt>
<wgt id='morphing_basis_vector_3'> +2.3320044e-04 </wgt>
<wgt id='morphing_basis_vector_4'> +1.2706893e-04 </wgt>
<wgt id='morphing_basis_vector_5'> +2.0598563e-04 </wgt>
</rwgt>
</event>
<event>
 4      1 +2.9741700e-06 8.43682600e+02 7.81860800e-03 8.84933800e-02
        2 -1    0    0  501    0 +0.0000000000e+00 +0.0000000000e+00 +2.2432618665e+03 2.2432618665e+03 0.0000000000e+00 0.0000e+00 1.0000e+00
       -2 -1    0    0    0  501 -0.0000000000e+00 -0.0000000000e+00 -7.9326481832e+01 7.9326481832e+01 0.0000000000e+00 0.0000e+00 -1.0000e+00
      -13  1    1    2    0    0 +2.5584717314e+02 +3.0435294521e+02 +1.4699394081e+03 1.5227640509e+03 0.0000000000e+00 0.0000e+00 1.0000e+00
       13  1    1    2    0    0 -2.5584717314e+02 -3.0435294521e+02 +6.9399597661e+02 7.9982429746e+02 0.0000000000e+00 0.0000e+00 -1.0000e+00
<mgrwt>
<rscale>  0 0.84368257E+03</rscale>
<asrwt>0</asrwt>
<pdfrwt beam="1">  1        2 0.34511716E+00 0.84368257E+03</pdfrwt>
<pdfrwt beam="2">  1       -2 0.12204076E-01 0.84368257E+03</pdfrwt>
<totfact> 0.27515274E+02</totfact>
</mgrwt>
<rwgt>
<wgt id='morphing_basis_vector_1'> +2.8010391e-04 </wgt>
<wgt id='morphing_basis_vector_2'> +2.3809631e-04 </wgt>
<wgt id='morphing_basis_vector_3'> +2.4994127e-04 </wgt>
<wgt id='morphing_basis_vector_4'> +9.3955488e-05 </wgt>
<wgt id='morphing_basis_vector_5'> +2.0424104e-04 </wgt>
</rwgt>
</event>
<event>
 4      1 +2.9741700e-06 8.16216000e+02 7.81860800e-03 8.88220100e-02
        2 -1    0    0  501    0 +0.0000000000e+00 +0.0000000000e+00 +1.4733738431e+03 1.4733738431e+03 0.0000000000e+00 0.0000e+00 1.0000e+00
       -2 -1    0    0    0  501 -0.0000000000e+00 -0.0000000000e+00 -1.1304133531e+02 1.1304133531e+02 0.0000000000e+00 0.0000e+00 -1.0000e+00
      -13  1    1    2    0    0 +3.4976330089e+02 -9.2772575268e+01 +3.1338763853e+02 4.7869920550e+02 0.0000000000e+00 0.0000e+00 -1.0000e+00
       13  1    1    2    0    0 -3.4976330089e+02 +9.2772575268e+01 +1.0469448693e+03 1.1077159729e+03 0.0000000000e+00 0.0000e+00 1.0000e+00
<mgrwt>
<rscale>  0 0.81621602E+03</rscale>
<asrwt>0</asrwt>
<pdfrwt beam="1">  1        2 0.22667289E+00 0.81621602E+03</pdfrwt>
<pdfrwt beam="2">  1       -2 0.17390976E-01 0.81621602E+03</pdfrwt>
<totfact> 0.41481627E+02</totfact>
</mgrwt>
<rwgt>
<wgt id='morphing_basis_vector_1'> +2.2541335e-04 </wgt>
<wgt id='morphing_basis_vector_2'> +1.3909375e-04 </wgt>
<wgt id='morphing_basis_vector_3'> +2.0361823e-04 </wgt>
<wgt id='morphing_basis_vector_4'> +1.1152326e-04 </wgt>
<wgt id='morphing_basis_vector_5'> +1.7732175e-04 </wgt>
</rwgt>
</event>
<event>
 4      1 +2.9741700e-06 7.69175400e+02 7.81860800e-03 8.94179200e-02
        2 -1    0    0  501    0 +0.0000000000e+00 +0.0000000000e+00 +1.9441275427e+03 1.9441275427e+03 0.0000000000e+00 0.0000e+00 -1.0000e+00
       -2 -1    0    0    0  501 -0.0000000000e+00 -0.0000000000e+00 -7.6079212584e+01 7.6079212584e+01 0.0000000000e+00 0.0000e+00 1.0000e+00
      -13  1    1    2    0    0 +3.7725143470e+02 +7.2946285203e+01 +9.7701207640e+02 1.0498535150e+03 0.0000000000e+00 0.0000e+00 1.0000e+00
       13  1    1    2    0    0 -3.7725143470e+02 -7.2946285203e+01 +8.9103625367e+02 9.7035324025e+02 0.0000000000e+00 0.0000e+00 -1.0000e+00
<mgrwt>
<rscale>  0 0.76917538E+03</rscale>
<asrwt>0</asrwt>
<pdfrwt beam="1">  1        2 0.29909651E+00 0.76917538E+03</pdfrwt>
<pdfrwt beam="2">  1       -2 0.11704496E-01 0.76917538E+03</pdfrwt>
<totfact> 0.43441997E+02</totfact>
</mgrwt>
<rwgt>
<wgt id='morphing_basis_vector_1'> +1.8922506e-04 </wgt>
<wgt id='morphing_basis_vector_2'> +1.3142353e-04 </wgt>
<wgt id='morphing_basis_vector_3'> +1.6486045e-04 </wgt>
<wgt id='morphing_basis_vector_4'> +7.7547179e-05 </wgt>
<wgt id='morphing_basis_vector_5'> +1.3484287e-04 </wgt>
</rwgt>
</event>
<event>
 4      1 +2.9741700e-06 7.61321900e+02 7.81860800e-03 8.95218100e-02
        2 -1    0    0  501    0 +0.0000000000e+00 +0.0000000000e+00 +3.0003725831e+03 3.0003725831e+03 0.0000000000e+00 0.0000e+00 -1.0000e+00
       -2 -1    0    0    0  501 -0.0000000000e+00 -0.0000000000e+00 -4.8294927070e+01 4.8294927070e+01 0.0000000000e+00 0.0000e+00 1.0000e+00
      -13  1    1    2    0    0 -2.3146661717e+02 -2.9909558599e+02 +1.6491033871e+03 1.6919151710e+03 0.0000000000e+00 0.0000e+00 1.0000e+00
       13  1    1    2    0    0 +2.3146661717e+02 +2.9909558599e+02 +1.3029742689e+03 1.3567523392e+03 0.0000000000e+00 0.0000e+00 -1.0000e+00
<mgrwt>
<rscale>  0 0.76132194E+03</rscale>
<asrwt>0</asrwt>
<pdfrwt beam="1">  1        2 0.46159564E+00 0.76132194E+03</pdfrwt>
<pdfrwt beam="2">  1       -2 0.74299911E-02 0.76132194E+03</pdfrwt>
<totfact> 0.21290575E+02</totfact>
</mgrwt>
<rwgt>
<wgt id='morphing_basis_vector_1'> +1.8455744e-04 </wgt>
<wgt id='morphing_basis_vector_2'> +1.3278050e-04 </wgt>
<wgt id='morphing_basis_vector_3'> +1.5931879e-04 </wgt>
<wgt id='morphing_basis_vector_4'> +7.1635082e-05 </wgt>
<wgt id='morphing_basis_vector_5'> +1.2851393e-04 </wgt>
</rwgt>
</event>
<event>
 4      1 +2.9741700e-06 8.66421600e+02 7.81860800e-03 8.82311500e-02
        2 -1    0    0  501    0 +0.0000000000e+00 +0.0000000000e+00 +1.1149011993e+03 1.1149011993e+03 0.0000000000e+00 0.0000e+00 1.0000e+00
       -2 -1    0    0    0  501 -0.0000000000e+00 -0.0000000000e+00 -1.6833023097e+02 1.6833023097e+02 0.0000000000e+00 0.0000e+00 -1.0000e+00
      -13  1    1    2    0    0 -1.2131484892e+02 -2.2627824631e+02 +9.9007604985e+02 1.0228243846e+03 0.0000000000e+00 0.0000e+00 1.0000e+00
       13  1    1    2    0    0 +1.2131484892e+02 +2.2627824631e+02 -4.3505081480e+01 2.6040704567e+02 0.0000000000e+00 0.0000e+00 -1.0000e+00
<mgrwt>
<rscale>  0 0.86642155E+03</rscale>
<asrwt>0</asrwt>
<pdfrwt beam="1">  1        2 0.17152326E+00 0.86642155E+03</pdfrwt>
<pdfrwt beam="2">  1       -2 0.25896959E-01 0.86642155E+03</pdfrwt>
<totfact> 0.33915345E+02</totfact>
</mgrwt>
<rwgt>
<wgt id='morphing_basis_vector_1'> +3.6928223e-04 </wgt>
<wgt id='morphing_basis_vector_2'> +4.4892889e-04 </wgt>
<wgt id='morphing_basis_vector_3'> +3.2294906e-04 </wgt>
<wgt id='morphing_basis_vector_4'> +2.1679346e-05 </wgt>
<wgt id='morphing_basis_vector_5'> +2.2583309e-04 </wgt>
</rwgt>
</event>
<event>
 4      1 +2.9741700e-06 8.48782600e+02 7.81860800e-03 8.84338100e-02
        2 -1    0    0  501    0 +0.0000000000e+00 +0.0000000000e+00 +8.8881596979e+02 8.8881596979e+02 0.0000000000e+00 0.0000e+00 1.0000e+00
       -2 -1    0    0    0  501 -0.0000000000e+00 -0.0000000000e+00 -2.0263810800e+02 2.0263810800e+02 0.0000000000e+00 0.0000e+00 -1.0000e+00
      -13  1    1    2    0    0 -5.1550201362e+01 +3.6201562119e+02 +6.6110620710e+01 3.7159567734e+02 0.0000000000e+00 0.0000e+00 1.0000e+00
       13  1    1    2    0    0 +5.1550201362e+01 -3.6201562119e+02 +6.2006724108e+02 7.1985840045e+02 0.0000000000e+00 0.0000e+00 -1.0000e+00
<mgrwt>
<rscale>  0 0.84878263E+03</rscale>
<asrwt>0</asrwt>
<pdfrwt beam="1">  1        2 0.13674092E+00 0.84878263E+03</pdfrwt>
<pdfrwt beam="2">  1       -2 0.31175094E-01 0.84878263E+03</pdfrwt>
<totfact> 0.33909078E+02</totfact>
</mgrwt>
<rwgt>
<wgt id='morphing_basis_vector_1'> +2.5896898e-04 </wgt>
<wgt id='morphing_basis_vector_2'> +1.6023252e-04 </wgt>
<wgt id='morphing_basis_vector_3'> +2.3721232e-04 </wgt>
<wgt id='morphing_basis_vector_4'> +1.3314918e-04 </wgt>
<wgt id='morphing_basis_vector_5'> +2.1159783e-04 </wgt>
</rwgt>
</event>
<event>
 4      1 +2.9741700e-06 8.89101000e+02 7.81860800e-03 8.79779100e-02
        2 -1    0    0  501    0 +0.0000000000e+00 +0.0000000000e+00 +3.1182889820e+02 3.1182889820e+02 0.0000000000e+00 0.0000e+00 1.0000e+00
       -2 -1    0    0    0  501 -0.0000000000e+00 -0.0000000000e+00 -6.3376145497e+02 6.3376145497e+02 0.0000000000e+00 0.0000e+00 -1.0000e+00
      -13  1    1    2    0    0 -2.0144953582e+02 +2.1342964539e+02 -5.1608360743e+02 5.9369724513e+02 0.0000000000e+00 0.0000e+00 -1.0000e+00
       13  1    1    2    0    0 +2.0144953582e+02 -2.1342964539e+02 +1.9415105067e+02 3.5189310804e+02 0.0000000000e+00 0.0000e+00 1.0000e+00
<mgrwt>
<rscale>  0 0.88910098E+03</rscale>
<asrwt>0</asrwt>
<pdfrwt beam="1">  1        2 0.47973677E-01 0.88910098E+03</pdfrwt>
<pdfrwt beam="2">  1       -2 0.97501761E-01 0.88910098E+03</pdfrwt>
<totfact> 0.11442720E+02</totfact>
</mgrwt>
<rwgt>
<wgt id='morphing_basis_vector_1'> +3.0512027e-04 </wgt>
<wgt id='morphing_basis_vector_2'> +1.8781250e-04 </wgt>
<wgt id='morphing_basis_vector_3'> +2.8392333e-04 </wgt>
<wgt id='morphing_basis_vector_4'> +1.6490614e-04 </wgt>
<wgt id='morphing_basis_vector_5'> +2.6042523e-04 </wgt>
</rwgt>
</event>
<event>
 4      1 +2.9741700e-06 7.67729900e+02 7.81860800e-03 8.94369400e-02
        2 -1    0    0  501    0 +0.0000000000e+00 +0.0000000000e+00 +1.0669746263e+02 1.0669746263e+02 0.0000000000e+00 0.0000e+00 -1.0000e+00
       -2 -1    0    0    0  501 -0.0000000000e+00 -0.0000000000e+00 -1.3810289683e+03 1.3810289683e+03 0.0000000000e+00 0.0000e+00 1.0000e+00
      -13  1    1    2    0    0 +1.9005189524e+02 +1.6300924958e+02 -1.2010048432e+03 1.2268269527e+03 0.0000000000e+00 0.0000e+00 1.0000e+00
       13  1    1    2    0    0 -1.9005189524e+02 -1.6300924958e+02 -7.3326662461e+01 2.6089947827e+02 0.0000000000e+00 0.0000e+00 -1.0000e+00
<mgrwt>
<rscale>  0 0.76772987E+03</rscale>
<asrwt>0</asrwt>
<pdfrwt beam="1">  1        2 0.16414995E-01 0.76772987E+03</pdfrwt>
<pdfrwt beam="2">  1       -2 0.21246598E+00 0.76772987E+03</pdfrwt>
<totfact> 0.44044311E+01</totfact>
</mgrwt>
<rwgt>
<wgt id='morphing_basis_vector_1'> +1.8073726e-04 </wgt>
<wgt id='morphing_basis_vector_2'> +1.0829601e-04 </wgt>
<wgt id='morphing_basis_vector_3'> +1.5984001e-04 </wgt>
<wgt id='morphing_basis_vector_4'> +8.5587615e-05 </wgt>
<wgt id='morphing_basis_vector_5'> +1.3401087e-04 </wgt>
</rwgt>
</event>
<event>
 4      1 +2.9741700e-06 8.29329800e+02 7.81860800e-03 8.86634300e-02
        2 -1    0    0  501    0 +0.0000000000e+00 +0.0000000000e+00 +3.0253528675e+03 3.0253528675e+03 0.0000000000e+00 0.0000e+00 -1.0000e+00
       -2 -1    0    0    0  501 -0.0000000000e+00 -0.0000000000e+00 -5.6835340507e+01 5.6835340507e+01 0.0000000000e+00 0.0000e+00 1.0000e+00
      -13  1    1    2    0    0 +3.4625026968e+02 -1.5807558043e+02 +8.7278953374e+02 9.5217577610e+02 0.0000000000e+00 0.0000e+00 1.0000e+00
       13  1    1    2    0    0 -3.4625026968e+02 +1.5807558043e+02 +2.0957279933e+03 2.1300124319e+03 0.0000000000e+00 0.0000e+00 -1.0000e+00
<mgrwt>
<rscale>  0 0.82932975E+03</rscale>
<asrwt>0</asrwt>
<pdfrwt beam="1">  1        2 0.46543878E+00 0.82932975E+03</pdfrwt>
<pdfrwt beam="2">  1       -2 0.87439009E-02 0.82932975E+03</pdfrwt>
<totfact> 0.15813895E+02</totfact>
</mgrwt>
<rwgt>
<wgt id='morphing_basis_vector_1'> +2.3905582e-04 </wgt>
<wgt id='morphing_basis_vector_2'> +1.4905669e-04 </wgt>
<wgt id='morphing_basis_vector_3'> +2.1705273e-04 </wgt>
<wgt id='morphing_basis_vector_4'> +1.1915109e-04 </wgt>
<wgt id='morphing_basis_vector_5'> +1.9056528e-04 </wgt>
</rwgt>
</event>
<event>
 4      1 +2.9741700e-06 7.50586500e+02 7.81860800e-03 8.96660100e-02
        2 -1    0    0  501    0 +0.0000000000e+00 +0.0000000000e+00 +3.0108986526e+02 3.0108986526e+02 0.0000000000e+00 0.0000e+00 1.0000e+00
       -2 -1    0    0    0  501 -0.0000000000e+00 -0.0000000000e+00 -4.6778398637e+02 4.6778398637e+02 0.0000000000e+00 0.0000e+00 -1.0000e+00
      -13  1    1    2    0    0 -7.4723749952e+01 +1.0808109892e+02 -4.4345126484e+02 4.6250858050e+02 0.0000000000e+00 0.0000e+00 -1.0000e+00
       13  1    1    2    0    0 +7.4723749952e+01 -1.0808109892e+02 +2.7675714372e+02 3.0636527113e+02 0.0000000000e+00 0.0000e+00 1.0000e+00
<mgrwt>
<rscale>  0 0.75058648E+03</rscale>
<asrwt>0</asrwt>
<pdfrwt beam="1">  1        2 0.46321518E-01 0.75058648E+03</pdfrwt>
<pdfrwt beam="2">  1       -2 0.71966767E-01 0.75058648E+03</pdfrwt>
<totfact> 0.23981231E+02</totfact>
</mgrwt>
<rwgt>
<wgt id='morphing_basis_vector_1'> +1.6689075e-04 </wgt>
<wgt id='morphing_basis_vector_2'> +9.9273102e-05 </wgt>
<wgt id='morphing_basis_vector_3'> +1.4634882e-04 </wgt>
<wgt id='morphing_basis_vector_4'> +7.7356033e-05 </wgt>
<wgt id='morphing_basis_vector_5'> +1.2069414e-04 </wgt>
</rwgt>
</event>
<event>
 4      1 +2.9741700e-06 7.50176000e+02 7.81860800e-03 8.96715700e-02
        2 -1    0    0  501    0 +0.0000000000e+00 +0.0000000000e+00 +1.7300134440e+03 1.7300134440e+03 0.0000000000e+00 0.0000e+00 -1.0000e+00
       -2 -1    0    0    0  501 -0.0000000000e+00 -0.0000000000e+00 -8.1323648186e+01 8.1323648186e+01 0.0000000000e+00 0.0000e+00 1.0000e+00
      -13  1    1    2    0    0 -2.8410061661e+01 -3.1497891500e+02 +3.3739450821e+02 4.6244340483e+02 0.0000000000e+00 0.0000e+00 1.0000e+00
       13  1    1    2    0    0 +2.8410061661e+01 +3.1497891500e+02 +1.3112952876e+03 1.3488936874e+03 0.0000000000e+00 0.0000e+00 -1.0000e+00
<mgrwt>
<rscale>  0 0.75017599E+03</rscale>
<asrwt>0</asrwt>
<pdfrwt beam="1">  1        2 0.26615589E+00 0.75017599E+03</pdfrwt>
<pdfrwt beam="2">  1       -2 0.12511332E-01 0.75017599E+03</pdfrwt>
<totfact> 0.51276816E+02</totfact>
</mgrwt>
<rwgt>
<wgt id='morphing_basis_vector_1'> +1.6714273e-04 </wgt>
<wgt id='morphing_basis_vector_2'> +1.0082476e-04 </wgt>
<wgt id='morphing_basis_vector_3'> +1.4631304e-04 </wgt>
<wgt id='morphing_basis_vector_4'> +7.6498898e-05 </wgt>
<wgt id='morphing_basis_vector_5'> +1.2036372e-04 </wgt>
</rwgt>
</event>
<event>
 4      1 +2.9741700e-06 7.60902900e+02 7.81860800e-03 8.95273900e-02
        2 -1    0    0  501    0 +0.0000000000e+00 +0.0000000000e+00 +8.4338808864e+02 8.4338808864e+02 0.0000000000e+00 0.0000e+00 -1.0000e+00
       -2 -1    0    0    0  501 -0.0000000000e+00 -0.0000000000e+00 -1.7162124587e+02 1.7162124587e+02 0.0000000000e+00 0.0000e+00 1.0000e+00
      -13  1    1    2    0    0 +1.4132777040e+02 -2.5227546018e+02 +6.0787095391e+00 2.8922897020e+02 0.0000000000e+00 0.0000e+00 1.0000e+00
       13  1    1    2    0    0 -1.4132777040e+02 +2.5227546018e+02 +6.6568813323e+02 7.2578036431e+02 0.0000000000e+00 0.0000e+00 -1.0000e+00
<mgrwt>
<rscale>  0 0.76090292E+03</rscale>
<asrwt>0</asrwt>
<pdfrwt beam="1">  1        2 0.12975201E+00 0.76090292E+03</pdfrwt>
<pdfrwt beam="2">  1       -2 0.26403269E-01 0.76090292E+03</pdfrwt>
<totfact> 0.48826895E+02</totfact>
</mgrwt>
<rwgt>
<wgt id='morphing_basis_vector_1'> +1.7534255e-04 </wgt>
<wgt id='morphing_basis_vector_2'> +1.0531538e-04 </wgt>
<wgt id='morphing_basis_vector_3'> +1.5447029e-04 </wgt>
<wgt id='morphing_basis_vector_4'> +8.1972473e-05 </wgt>
<wgt id='morphing_basis_vector_5'> +1.2857837e-04 </wgt>
</rwgt>
</event>
<event>
 4      1 +2.9741700e-06 8.66829700e+02 7.81860800e-03 8.82265200e-02
        2 -1    0    0  501    0 +0.0000000000e+00 +0.0000000000e+00 +6.3838657025e+02 6.3838657025e+02 0.0000000000e+00 0.0000e+00 -1.0000e+00
       -2 -1    0    0    0  501 -0.0000000000e+00 -0.0000000000e+00 -2.9425498645e+02 2.9425498645e+02 0.0000000000e+00 0.0000e+00 1.0000e+00
      -13  1    1    2    0    0 -4.1972985810e+01 +2.9913562859e+02 -1.6234464969e+02 3.4292804073e+02 0.0000000000e+00 0.0000e+00 1.0000e+00
       13  1    1    2    0    0 +4.1972985810e+01 -2.9913562859e+02 +5.0647623349e+02 5.8971351598e+02 0.0000000000e+00 0.0000e+00 -1.0000e+00
<mgrwt>
<rscale>  0 0.86682970E+03</rscale>
<asrwt>0</asrwt>
<pdfrwt beam="1">  1        2 0.98213318E-01 0.86682970E+03</pdfrwt>
<pdfrwt beam="2">  1       -2 0.45269998E-01 0.86682970E+03</pdfrwt>
<totfact> 0.25864101E+02</totfact>
</mgrwt>
<rwgt>
<wgt id='morphing_basis_vector_1'> +2.7847183e-04 </wgt>
<wgt id='morphing_basis_vector_2'> +1.7084957e-04 </wgt>
<wgt id='morphing_basis_vector_3'> +2.5703603e-04 </wgt>
<wgt id='morphing_basis_vector_4'> +1.4733573e-04 </wgt>
<wgt id='morphing_basis_vector_5'> +2.3257665e-04 </wgt>
</rwgt>
</event>
<event>
 4      1 +2.9741700e-06 7.62671600e+02 7.81860800e-03 8.95038600e-02
        2 -1    0    0  501    0 +0.0000000000e+00 +0.0000000000e+00 +2.5696973383e+02 2.5696973383e+02 0.0000000000e+00 0.0000e+00 1.0000e+00
       -2 -1    0    0    0  501 -0.0000000000e+00 -0.0000000000e+00 -5.6589155466e+02 5.6589155466e+02 0.0000000000e+00 0.0000e+00 -1.0000e+00
      -13  1    1    2    0    0 -3.1499885864e+02 +2.1484529147e+02 -1.6077254063e+02 4.1380018128e+02 0.0000000000e+00 0.0000e+00 1.0000e+00
       13  1    1    2    0    0 +3.1499885864e+02 -2.1484529147e+02 -1.4814928019e+02 4.0906110721e+02 0.0000000000e+00 0.0000e+00 -1.0000e+00
<mgrwt>
<rscale>  0 0.76267163E+03</rscale>
<asrwt>0</asrwt>
<pdfrwt beam="1">  1        2 0.39533805E-01 0.76267163E+03</pdfrwt>
<pdfrwt beam="2">  1       -2 0.87060239E-01 0.76267163E+03</pdfrwt>
<totfact> 0.18701368E+02</totfact>
</mgrwt>
<rwgt>
<wgt id='morphing_basis_vector_1'> +1.8231435e-04 </wgt>
<wgt id='morphing_basis_vector_2'> +1.2322995e-04 </wgt>
<wgt id='morphing_basis_vector_3'> +1.5870945e-04 </wgt>
<wgt id='morphing_basis_vector_4'> +7.6247431e-05 </wgt>
<wgt id='morphing_basis_vector_5'> +1.2972119e-04 </wgt>
</rwgt>
</event>
<event>
 4      1 +2.9741700e-06 7.98052500e+02 7.81860800e-03 8.90469400e-02
        2 -1    0    0  501    0 +0.0000000000e+00 +0.0000000000e+00 +2.8107023136e+02 2.8107023136e+02 0.0000000000e+00 0.0000e+00 1.0000e+00
       -2 -1    0    0    0  501 -0.0000000000e+00 -0.0000000000e+00 -5.6648450912e+02 5.6648450912e+02 0.0000000000e+00 0.0000e+00 -1.0000e+00
      -13  1    1    2    0    0 +3.4646060005e+02 -6.2980867705e+01 -3.4201913001e+02 4.9089573473e+02 0.0000000000e+00 0.0000e+00 1.0000e+00
       13  1    1    2    0    0 -3.4646060005e+02 +6.2980867705e+01 +5.6604852249e+01 3.5665900575e+02 0.0000000000e+00 0.0000e+00 -1.0000e+00
<mgrwt>
<rscale>  0 0.79805246E+03</rscale>
<asrwt>0</asrwt>
<pdfrwt beam="1">  1        2 0.43241575E-01 0.79805246E+03</pdfrwt>
<pdfrwt beam="2">  1       -2 0.87151462E-01 0.79805246E+03</pdfrwt>
<totfact> 0.16823848E+02</totfact>
</mgrwt>
<rwgt>
<wgt id='morphing_basis_vector_1'> +2.0806040e-04 </wgt>
<wgt id='morphing_basis_vector_2'> +1.2775636e-04 </wgt>
<wgt id='morphing_basis_vector_3'> +1.8641742e-04 </wgt>
<wgt id='morphing_basis_vector_4'> +1.0086464e-04 </wgt>
<wgt id='morphing_basis_vector_5'> +1.6005876e-04 </wgt>
</rwgt>
</event>
<event>
 4      1 +2.9741700e-06 8.82241500e+02 7.81860800e-03 8.80536600e-02
        2 -1    0    0  501    0 +0.0000000000e+00 +0.0000000000e+00 +2.3855817390e+03 2.3855817390e+03 0.0000000000e+00 0.0000e+00 -1.0000e+00
       -2 -1    0    0    0  501 -0.0000000000e+00 -0.0000000000e+00 -8.1568153110e+01 8.1568153110e+01 0.0000000000e+00 0.0000e+00 1.0000e+00
      -13  1    1    2    0    0 -3.5606459935e+02 +2.4318735690e+02 +8.9168977554e+02 9.9047097144e+02 0.0000000000e+00 0.0000e+00 1.0000e+00
       13  1    1    2    0    0 +3.5606459935e+02 -2.4318735690e+02 +1.4123238103e+03 1.4766789207e+03 0.0000000000e+00 0.0000e+00 -1.0000e+00
<mgrwt>
<rscale>  0 0.88224146E+03</rscale>
<asrwt>0</asrwt>
<pdfrwt beam="1">  1        2 0.36701252E+00 0.88224146E+03</pdfrwt>
<pdfrwt beam="2">  1       -2 0.12548948E-01 0.88224146E+03</pdfrwt>
<totfact> 0.21746534E+02</totfact>
</mgrwt>
<rwgt>
<wgt id='morphing_basis_vector_1'> +3.0117690e-04 </wgt>
<wgt id='morphing_basis_vector_2'> +1.9606419e-04 </wgt>
<wgt id='morphing_basis_vector_3'> +2.7879792e-04 </wgt>
<wgt id='morphing_basis_vector_4'> +1.5310086e-04 </wgt>
<wgt id='morphing_basis_vector_5'> +2.5128376e-04 </wgt>
</rwgt>
</event>
<event>
 4      1 +2.9741700e-06 8.29728100e+02 7.81860800e-03 8.86586600e-02
        2 -1    0    0  501    0 +0.0000000000e+00 +0.0000000000e+00 +1.2652294375e+03 1.2652294375e+03 0.0000000000e+00 0.0000e+00 -1.0000e+00
       -2 -1    0    0    0  501 -0.0000000000e+00 -0.0000000000e+00 -1.3603239365e+02 1.3603239365e+02 0.0000000000e+00 0.0000e+00 1.0000e+00
      -13  1    1    2    0    0 +2.6855665464e+02 +3.0070657384e+02 +3.9942990682e+02 5.6753094256e+02 0.0000000000e+00 0.0000e+00 1.0000e+00
       13  1    1    2    0    0 -2.6855665464e+02 -3.0070657384e+02 +7.2976713701e+02 8.3373088858e+02 0.0000000000e+00 0.0000e+00 -1.0000e+00
<mgrwt>
<rscale>  0 0.82972812E+03</rscale>
<asrwt>0</asrwt>
<pdfrwt beam="1">  1        2 0.19465067E+00 0.82972812E+03</pdfrwt>
<pdfrwt beam="2">  1       -2 0.20928061E-01 0.82972812E+03</pdfrwt>
<totfact> 0.39899249E+02</totfact>
</mgrwt>
<rwgt>
<wgt id='morphing_basis_vector_1'> +2.4118095e-04 </wgt>
<wgt id='morphing_basis_vector_2'> +1.5456614e-04 </wgt>
<wgt id='morphing_basis_vector_3'> +2.1859077e-04 </wgt>
<wgt id='morphing_basis_vector_4'> +1.1715265e-04 </wgt>
<wgt id='morphing_basis_vector_5'> +1.9087515e-04 </wgt>
</rwgt>
</event>
<event>
 4      1 +2.9741700e-06 7.77948400e+02 7.81860800e-03 8.93034100e-02
        2 -1    0    0  501    0 +0.0000000000e+00 +0.0000000000e+00 +3.5730550948e+02 3.5730550948e+02 0.0000000000e+00 0.0000e+00 -1.0000e+00
       -2 -1    0    0    0  501 -0.0000000000e+00 -0.0000000000e+00 -4.2344969460e+02 4.2344969460e+02 0.0000000000e+00 0.0000e+00 1.0000e+00
      -13  1    1    2    0    0 -2.1959426736e+02 -2.7633224546e+02 -1.9712365595e+02 4.0427575722e+02 0.0000000000e+00 0.0000e+00 1.0000e+00
       13  1    1    2    0    0 +2.1959426736e+02 +2.7633224546e+02 +1.3097947083e+02 3.7647944687e+02 0.0000000000e+00 0.0000e+00 -1.0000e+00
<mgrwt>
<rscale>  0 0.77794835E+03</rscale>
<asrwt>0</asrwt>
<pdfrwt beam="1">  1        2 0.54970078E-01 0.77794835E+03</pdfrwt>
<pdfrwt beam="2">  1       -2 0.65146107E-01 0.77794835E+03</pdfrwt>
<totfact> 0.24414742E+02</totfact>
</mgrwt>
<rwgt>
<wgt id='morphing_basis_vector_1'> +1.9039789e-04 </wgt>
<wgt id='morphing_basis_vector_2'> +1.1699994e-04 </wgt>
<wgt id='morphing_basis_vector_3'> +1.6886882e-04 </wgt>
<wgt id='morphing_basis_vector_4'> +8.9577840e-05 </wgt>
<wgt id='morphing_basis_vector_5'> +1.4238266e-04 </wgt>
</rwgt>
</event>
<event>
 4      1 +2.9741700e-06 8.52548700e+02 7.81860800e-03 8.83901100e-02
        2 -1    0    0  501    0 +0.0000000000e+00 +0.0000000000e+00 +1.6057334621e+03 1.6057334621e+03 0.0000000000e+00 0.0000e+00 -1.0000e+00
       -2 -1    0    0    0  501 -0.0000000000e+00 -0.0000000000e+00 -1.1316311604e+02 1.1316311604e+02 0.0000000000e+00 0.0000e+00 1.0000e+00
      -13  1    1    2    0    0 +2.7460547755e+02 -2.7011631417e+02 +3.7815143158e+02 5.3978652881e+02 0.0000000000e+00 0.0000e+00 1.0000e+00
       13  1    1    2    0    0 -2.7460547755e+02 +2.7011631417e+02 +1.1144189145e+03 1.1791100493e+03 0.0000000000e+00 0.0000e+00 -1.0000e+00
<mgrwt>
<rscale>  0 0.85254865E+03</rscale>
<asrwt>0</asrwt>
<pdfrwt beam="1">  1        2 0.24703590E+00 0.85254865E+03</pdfrwt>
<pdfrwt beam="2">  1       -2 0.17409711E-01 0.85254865E+03</pdfrwt>
<totfact> 0.34910321E+02</totfact>
</mgrwt>
<rwgt>
<wgt id='morphing_basis_vector_1'> +2.6365212e-04 </wgt>
<wgt id='morphing_basis_vector_2'> +1.6455378e-04 </wgt>
<wgt id='morphing_basis_vector_3'> +2.4174772e-04 </wgt>
<wgt id='morphing_basis_vector_4'> +1.3507060e-04 </wgt>
<wgt id='morphing_basis_vector_5'> +2.1581115e-04 </wgt>
</rwgt>
</event>
<event>
 4      1 +2.9741700e-06 7.99687100e+02 7.81860800e-03 8.90264300e-02
        2 -1    0    0  501    0 +0.0000000000e+00 +0.0000000000e+00 +7.1779792380e+02 7.1779792380e+02 0.0000000000e+00 0.0000e+00 -1.0000e+00
       -2 -1    0    0    0  501 -0.0000000000e+00 -0.0000000000e+00 -2.2272963744e+02 2.2272963744e+02 0.0000000000e+00 0.0000e+00 1.0000e+00
      -13  1    1    2    0    0 +6.4217456986e+01 +2.1058738879e+02 -1.4502193371e+02 2.6363287230e+02 0.0000000000e+00 0.0000e+00 1.0000e+00
       13  1    1    2    0    0 -6.4217456986e+01 -2.1058738879e+02 +6.4009022007e+02 6.7689468895e+02 0.0000000000e+00 0.0000e+00 -1.0000e+00
<mgrwt>
<rscale>  0 0.79968712E+03</rscale>
<asrwt>0</asrwt>
<pdfrwt beam="1">  1        2 0.11043045E+00 0.79968712E+03</pdfrwt>
<pdfrwt beam="2">  1       -2 0.34266098E-01 0.79968712E+03</pdfrwt>
<totfact> 0.37751847E+02</totfact>
</mgrwt>
<rwgt>
<wgt id='morphing_basis_vector_1'> +2.0860045e-04 </wgt>
<wgt id='morphing_basis_vector_2'> +1.2575306e-04 </wgt>
<wgt id='morphing_basis_vector_3'> +1.8733559e-04 </wgt>
<wgt id='morphing_basis_vector_4'> +1.0302551e-04 </wgt>
<wgt id='morphing_basis_vector_5'> +1.6161319e-04 </wgt>
</rwgt>
</event>
<event>
 4      1 +2.9741700e-06 7.64146800e+02 7.81860800e-03 8.94842900e-02
        2 -1    0    0  501    0 +0.0000000000e+00 +0.0000000000e+00 +8.3689309408e+02 8.3689309408e+02 0.0000000000e+00 0.0000e+00 1.0000e+00
       -2 -1    0    0    0  501 -0.0000000000e+00 -0.0000000000e+00 -1.7443100040e+02 1.7443100040e+02 0.0000000000e+00 0.0000e+00 -1.0000e+00
      -13  1    1    2    0    0 -3.4782230994e+02 -1.3592321920e+02 +2.2432774894e+02 4.3563565023e+02 0.0000000000e+00 0.0000e+00 -1.0000e+00
       13  1    1    2    0    0 +3.4782230994e+02 +1.3592321920e+02 +4.3813434474e+02 5.7568844425e+02 0.0000000000e+00 0.0000e+00 1.0000e+00
<mgrwt>
<rscale>  0 0.76414684E+03</rscale>
<asrwt>0</asrwt>
<pdfrwt beam="1">  1        2 0.12875278E+00 0.76414684E+03</pdfrwt>
<pdfrwt beam="2">  1       -2 0.26835539E-01 0.76414684E+03</pdfrwt>
<totfact> 0.47949813E+02</totfact>
</mgrwt>
<rwgt>
<wgt id='morphing_basis_vector_1'> +1.8045882e-04 </wgt>
<wgt id='morphing_basis_vector_2'> +1.1460846e-04 </wgt>
<wgt id='morphing_basis_vector_3'> +1.5832954e-04 </wgt>
<wgt id='morphing_basis_vector_4'> +8.0609947e-05 </wgt>
<wgt id='morphing_basis_vector_5'> +1.3102402e-04 </wgt>
</rwgt>
</event>
<event>
 4      1 +2.9741700e-06 7.52267300e+02 7.81860800e-03 8.96432600e-02
        2 -1    0    0  501    0 +0.0000000000e+00 +0.0000000000e+00 +6.3650918204e+02 6.3650918204e+02 0.0000000000e+00 0.0000e+00 1.0000e+00
       -2 -1    0    0    0  501 -0.0000000000e+00 -0.0000000000e+00 -2.2226939001e+02 2.2226939001e+02 0.0000000000e+00 0.0000e+00 -1.0000e+00
      -13  1    1    2    0    0 +1.5004165266e+02 +6.4380869248e+01 -1.7970652871e+02 2.4279998006e+02 0.0000000000e+00 0.0000e+00 -1.0000e+00
       13  1    1    2    0    0 -1.5004165266e+02 -6.4380869248e+01 +5.9394632074e+02 6.1597859198e+02 0.0000000000e+00 0.0000e+00 1.0000e+00
<mgrwt>
<rscale>  0 0.75226726E+03</rscale>
<asrwt>0</asrwt>
<pdfrwt beam="1">  1        2 0.97924489E-01 0.75226726E+03</pdfrwt>
<pdfrwt beam="2">  1       -2 0.34195291E-01 0.75226726E+03</pdfrwt>
<totfact> 0.43919533E+02</totfact>
</mgrwt>
<rwgt>
<wgt id='morphing_basis_vector_1'> +1.6820934e-04 </wgt>
<wgt id='morphing_basis_vector_2'> +1.0012830e-04 </wgt>
<wgt id='morphing_basis_vector_3'> +1.4763061e-04 </wgt>
<wgt id='morphing_basis_vector_4'> +7.8137706e-05 </wgt>
<wgt id='morphing_basis_vector_5'> +1.2195601e-04 </wgt>
</rwgt>
</event>
<event>
 4      1 +2.9741700e-06 7.69637100e+02 7.81860800e-03 8.94118500e-02
        2 -1    0    0  501    0 +0.0000000000e+00 +0.0000000000e+00 +1.2244541342e+03 1.2244541342e+03 0.0000000000e+00 0.0000e+00 1.0000e+00
       -2 -1    0    0    0  501 -0.0000000000e+00 -0.0000000000e+00 -1.2093985836e+02 1.2093985836e+02 0.0000000000e+00 0.0000e+00 -1.0000e+00
      -13  1    1    2    0    0 -2.7855379928e+02 -1.3729508207e+02 +1.5450168640e+02 3.4686154263e+02 0.0000000000e+00 0.0000e+00 -1.0000e+00
       13  1    1    2    0    0 +2.7855379928e+02 +1.3729508207e+02 +9.4901258947e+02 9.9853244996e+02 0.0000000000e+00 0.0000e+00 1.0000e+00
<mgrwt>
<rscale>  0 0.76963708E+03</rscale>
<asrwt>0</asrwt>
<pdfrwt beam="1">  1        2 0.18837755E+00 0.76963708E+03</pdfrwt>
<pdfrwt beam="2">  1       -2 0.18606133E-01 0.76963708E+03</pdfrwt>
<totfact> 0.51385090E+02</totfact>
</mgrwt>
<rwgt>
<wgt id='morphing_basis_vector_1'> +1.8264946e-04 </wgt>
<wgt id='morphing_basis_vector_2'> +1.1031265e-04 </wgt>
<wgt id='morphing_basis_vector_3'> +1.6156636e-04 </wgt>
<wgt id='morphing_basis_vector_4'> +8.6158169e-05 </wgt>
<wgt id='morphing_basis_vector_5'> +1.3553981e-04 </wgt>
</rwgt>
</event>
<event>
 4      1 +2.9741700e-06 8.96106900e+02 7.81860800e-03 8.79012800e-02
        2 -1    0    0  501    0 +0.0000000000e+00 +0.0000000000e+00 +4.0479774820e+02 4.0479774820e+02 0.0000000000e+00 0.0000e+00 -1.0000e+00
       -2 -1    0    0    0  501 -0.0000000000e+00 -0.0000000000e+00 -4.9593137113e+02 4.9593137113e+02 0.0000000000e+00 0.0000e+00 1.0000e+00
      -13  1    1    2    0    0 -6.4584578986e+01 -3.3771582073e+02 -3.3432680924e+02 4.7958060719e+02 0.0000000000e+00 0.0000e+00 1.0000e+00
       13  1    1    2    0    0 +6.4584578986e+01 +3.3771582073e+02 +2.4319318630e+02 4.2114851214e+02 0.0000000000e+00 0.0000e+00 -1.0000e+00
<mgrwt>
<rscale>  0 0.89610692E+03</rscale>
<asrwt>0</asrwt>
<pdfrwt beam="1">  1        2 0.62276577E-01 0.89610692E+03</pdfrwt>
<pdfrwt beam="2">  1       -2 0.76297134E-01 0.89610692E+03</pdfrwt>
<totfact> 0.15005394E+02</totfact>
</mgrwt>
<rwgt>
<wgt id='morphing_basis_vector_1'> +3.1426337e-04 </wgt>
<wgt id='morphing_basis_vector_2'> +1.9451643e-04 </wgt>
<wgt id='morphing_basis_vector_3'> +2.9308954e-04 </wgt>
<wgt id='morphing_basis_vector_4'> +1.7022154e-04 </wgt>
<wgt id='morphing_basis_vector_5'> +2.6963705e-04 </wgt>
</rwgt>
</event>
<event>
 4      1 +2.9741700e-06 8.50580000e+02 7.81860800e-03 8.84129300e-02
        2 -1    0    0  501    0 +0.0000000000e+00 +0.0000000000e+00 +6.9044192603e+02 6.9044192603e+02 0.0000000000e+00 0.0000e+00 1.0000e+00
       -2 -1    0    0    0  501 -0.0000000000e+00 -0.0000000000e+00 -2.6196492383e+02 2.6196492383e+02 0.0000000000e+00 0.0000e+00 -1.0000e+00
      -13  1    1    2    0    0 +2.2643060782e+02 +3.5823557406e+02 +1.7436628304e+02 4.5826536782e+02 0.0000000000e+00 0.0000e+00 1.0000e+00
       13  1    1    2    0    0 -2.2643060782e+02 -3.5823557406e+02 +2.5411071915e+02 4.9414148204e+02 0.0000000000e+00 0.0000e+00 -1.0000e+00
<mgrwt>
<rscale>  0 0.85057996E+03</rscale>
<asrwt>0</asrwt>
<pdfrwt beam="1">  1        2 0.10622183E+00 0.85057996E+03</pdfrwt>
<pdfrwt beam="2">  1       -2 0.40302296E-01 0.85057996E+03</pdfrwt>
<totfact> 0.29331173E+02</totfact>
</mgrwt>
<rwgt>
<wgt id='morphing_basis_vector_1'> +2.6662500e-04 </wgt>
<wgt id='morphing_basis_vector_2'> +1.7885815e-04 </wgt>
<wgt id='morphing_basis_vector_3'> +2.4315867e-04 </wgt>
<wgt id='morphing_basis_vector_4'> +1.2674305e-04 </wgt>
<wgt id='morphing_basis_vector_5'> +2.1324715e-04 </wgt>
</rwgt>
</event>
<event>
 4      1 +2.9741700e-06 8.14128700e+02 7.81860800e-03 8.88475400e-02
        2 -1    0    0  501    0 +0.0000000000e+00 +0.0000000000e+00 +2.1605059147e+03 2.1605059147e+03 0.0000000000e+00 0.0000e+00 1.0000e+00
       -2 -1    0    0    0  501 -0.0000000000e+00 -0.0000000000e+00 -7.6695643128e+01 7.6695643128e+01 0.0000000000e+00 0.0000e+00 -1.0000e+00
      -13  1    1    2    0    0 +1.3904400855e+02 +2.6618536198e+02 +1.7970397220e+03 1.8219603853e+03 0.0000000000e+00 0.0000e+00 1.0000e+00
       13  1    1    2    0    0 -1.3904400855e+02 -2.6618536198e+02 +2.8677054960e+02 4.1524117253e+02 0.0000000000e+00 0.0000e+00 -1.0000e+00
<mgrwt>
<rscale>  0 0.81412871E+03</rscale>
<asrwt>0</asrwt>
<pdfrwt beam="1">  1        2 0.33238548E+00 0.81412871E+03</pdfrwt>
<pdfrwt beam="2">  1       -2 0.11799331E-01 0.81412871E+03</pdfrwt>
<totfact> 0.32403834E+02</totfact>
</mgrwt>
<rwgt>
<wgt id='morphing_basis_vector_1'> +2.8217691e-04 </wgt>
<wgt id='morphing_basis_vector_2'> +3.1768979e-04 </wgt>
<wgt id='morphing_basis_vector_3'> +2.3842819e-04 </wgt>
<wgt id='morphing_basis_vector_4'> +3.4527609e-05 </wgt>
<wgt id='morphing_basis_vector_5'> +1.7191091e-04 </wgt>
</rwgt>
</event>
<event>
 4      1 +2.9741700e-06 8.79854400e+02 7.81860800e-03 8.80801900e-02
        2 -1    0    0  501    0 +0.0000000000e+00 +0.0000000000e+00 +6.1836631486e+02 6.1836631486e+02 0.0000000000e+00 0.0000e+00 1.0000e+00
       -2 -1    0    0    0  501 -0.0000000000e+00 -0.0000000000e+00 -3.1297941081e+02 3.1297941081e+02 0.0000000000e+00 0.0000e+00 -1.0000e+00
      -13  1    1    2    0    0 +2.0903387492e+02 -9.9200914953e+01 -2.4336935634e+02 3.3580444606e+02 0.0000000000e+00 0.0000e+00 -1.0000e+00
       13  1    1    2    0    0 -2.0903387492e+02 +9.9200914953e+01 +5.4875626039e+02 5.9554127960e+02 0.0000000000e+00 0.0000e+00 1.0000e+00
<mgrwt>
<rscale>  0 0.87985436E+03</rscale>
<asrwt>0</asrwt>
<pdfrwt beam="1">  1        2 0.95133279E-01 0.87985436E+03</pdfrwt>
<pdfrwt beam="2">  1       -2 0.48150679E-01 0.87985436E+03</pdfrwt>
<totfact> 0.23836054E+02</totfact>
</mgrwt>
<rwgt>
<wgt id='morphing_basis_vector_1'> +2.9363661e-04 </wgt>
<wgt id='morphing_basis_vector_2'> +1.8004071e-04 </wgt>
<wgt id='morphing_basis_vector_3'> +2.7237128e-04 </wgt>
<wgt id='morphing_basis_vector_4'> +1.5769957e-04 </wgt>
<wgt id='morphing_basis_vector_5'> +2.4859917e-04 </wgt>
</rwgt>
</event>
<event>
 4      1 +2.9741700e-06 7.91717000e+02 7.81860800e-03 8.91268900e-02
        2 -1    0    0  501    0 +0.0000000000e+00 +0.0000000000e+00 +4.1186936909e+02 4.1186936909e+02 0.0000000000e+00 0.0000e+00 1.0000e+00
       -2 -1    0    0    0  501 -0.0000000000e+00 -0.0000000000e+00 -3.8047001887e+02 3.8047001887e+02 0.0000000000e+00 0.0000e+00 -1.0000e+00
      -13  1    1    2    0    0 +2.4177492658e+02 +2.0958442732e+02 +2.4895628133e+02 4.0541334131e+02 0.0000000000e+00 0.0000e+00 1.0000e+00
       13  1    1    2    0    0 -2.4177492658e+02 -2.0958442732e+02 -2.1755693111e+02 3.8692604664e+02 0.0000000000e+00 0.0000e+00 -1.0000e+00
<mgrwt>
<rscale>  0 0.79171699E+03</rscale>
<asrwt>0</asrwt>
<pdfrwt beam="1">  1        2 0.63364518E-01 0.79171699E+03</pdfrwt>
<pdfrwt beam="2">  1       -2 0.58533850E-01 0.79171699E+03</pdfrwt>
<totfact> 0.25909244E+02</totfact>
</mgrwt>
<rwgt>
<wgt id='morphing_basis_vector_1'> +2.4634531e-04 </wgt>
<wgt id='morphing_basis_vector_2'> +2.5904611e-04 </wgt>
<wgt id='morphing_basis_vector_3'> +2.0619878e-04 </wgt>
<wgt id='morphing_basis_vector_4'> +4.2351538e-05 </wgt>
<wgt id='morphing_basis_vector_5'> +1.5204607e-04 </wgt>
</rwgt>
</event>
<event>
 4      1 +2.9741700e-06 8.56942800e+02 7.81860800e-03 8.83394200e-02
        2 -1    0    0  501    0 +0.0000000000e+00 +0.0000000000e+00 +2.6679807359e+02 2.6679807359e+02 0.0000000000e+00 0.0000e+00 1.0000e+00
       -2 -1    0    0    0  501 -0.0000000000e+00 -0.0000000000e+00 -6.8811489861e+02 6.8811489861e+02 0.0000000000e+00 0.0000e+00 -1.0000e+00
      -13  1    1    2    0    0 -4.1265868879e+02 -8.3819520082e+01 -2.9892833512e+02 5.1640202839e+02 0.0000000000e+00 0.0000e+00 -1.0000e+00
       13  1    1    2    0    0 +4.1265868879e+02 +8.3819520082e+01 -1.2238848989e+02 4.3851094381e+02 0.0000000000e+00 0.0000e+00 1.0000e+00
<mgrwt>
<rscale>  0 0.85694277E+03</rscale>
<asrwt>0</asrwt>
<pdfrwt beam="1">  1        2 0.41045858E-01 0.85694277E+03</pdfrwt>
<pdfrwt beam="2">  1       -2 0.10586383E+00 0.85694277E+03</pdfrwt>
<totfact> 0.11193143E+02</totfact>
</mgrwt>
<rwgt>
<wgt id='morphing_basis_vector_1'> +2.7163255e-04 </wgt>
<wgt id='morphing_basis_vector_2'> +1.7711794e-04 </wgt>
<wgt id='morphing_basis_vector_3'> +2.4885923e-04 </wgt>
<wgt id='morphing_basis_vector_4'> +1.3402272e-04 </wgt>
<wgt id='morphing_basis_vector_5'> +2.2064050e-04 </wgt>
</rwgt>
</event>
<event>
 4      1 +2.9741700e-06 8.90542400e+02 7.81860800e-03 8.79620800e-02
        2 -1    0    0  501    0 +0.0000000000e+00 +0.0000000000e+00 +1.7333711709e+03 1.7333711709e+03 0.0000000000e+00 0.0000e+00 -1.0000e+00
       -2 -1    0    0    0  501 -0.0000000000e+00 -0.0000000000e+00 -1.1438198902e+02 1.1438198902e+02 0.0000000000e+00 0.0000e+00 1.0000e+00
      -13  1    1    2    0    0 -4.3518336393e+02 +8.2137376601e+01 +7.1361587821e+02 8.3986828164e+02 0.0000000000e+00 0.0000e+00 1.0000e+00
       13  1    1    2    0    0 +4.3518336393e+02 -8.2137376601e+01 +9.0537330367e+02 1.0078848783e+03 0.0000000000e+00 0.0000e+00 -1.0000e+00
<mgrwt>
<rscale>  0 0.89054240E+03</rscale>
<asrwt>0</asrwt>
<pdfrwt beam="1">  1        2 0.26667247E+00 0.89054240E+03</pdfrwt>
<pdfrwt beam="2">  1       -2 0.17597230E-01 0.89054240E+03</pdfrwt>
<totfact> 0.29102753E+02</totfact>
</mgrwt>
<rwgt>
<wgt id='morphing_basis_vector_1'> +3.1409259e-04 </wgt>
<wgt id='morphing_basis_vector_2'> +2.1082507e-04 </wgt>
<wgt id='morphing_basis_vector_3'> +2.9125825e-04 </wgt>
<wgt id='morphing_basis_vector_4'> +1.5597622e-04 </wgt>
<wgt id='morphing_basis_vector_5'> +2.6178051e-04 </wgt>
</rwgt>
</event>
<event>
 4      1 +2.9741700e-06 8.37638500e+02 7.81860800e-03 8.85645500e-02
        2 -1    0    0  501    0 +0.0000000000e+00 +0.0000000000e+00 +3.5342395593e+02 3.5342395593e+02 0.0000000000e+00 0.0000e+00 -1.0000e+00
       -2 -1    0    0    0  501 -0.0000000000e+00 -0.0000000000e+00 -4.9631485263e+02 4.9631485263e+02 0.0000000000e+00 0.0000e+00 1.0000e+00
      -13  1    1    2    0    0 -2.8570459258e+02 -2.4774116253e+02 -2.5406473478e+02 4.5557840960e+02 0.0000000000e+00 0.0000e+00 1.0000e+00
       13  1    1    2    0    0 +2.8570459258e+02 +2.4774116253e+02 +1.1117383809e+02 3.9416039896e+02 0.0000000000e+00 0.0000e+00 -1.0000e+00
<mgrwt>
<rscale>  0 0.83763849E+03</rscale>
<asrwt>0</asrwt>
<pdfrwt beam="1">  1        2 0.54372916E-01 0.83763849E+03</pdfrwt>
<pdfrwt beam="2">  1       -2 0.76356131E-01 0.83763849E+03</pdfrwt>
<totfact> 0.17519782E+02</totfact>
</mgrwt>
<rwgt>
<wgt id='morphing_basis_vector_1'> +2.4747621e-04 </wgt>
<wgt id='morphing_basis_vector_2'> +1.5395802e-04 </wgt>
<wgt id='morphing_basis_vector_3'> +2.2554798e-04 </wgt>
<wgt id='morphing_basis_vector_4'> +1.2490046e-04 </wgt>
<wgt id='morphing_basis_vector_5'> +1.9934970e-04 </wgt>
</rwgt>
</event>
<event>
 4      1 +2.9741700e-06 8.49725900e+02 7.81860800e-03 8.84228400e-02
        2 -1    0    0  501    0 +0.0000000000e+00 +0.0000000000e+00 +6.7529840443e+02 6.7529840443e+02 0.0000000000e+00 0.0000e+00 -1.0000e+00
       -2 -1    0    0    0  501 -0.0000000000e+00 -0.0000000000e+00 -2.6730186527e+02 2.6730186527e+02 0.0000000000e+00 0.0000e+00 1.0000e+00
      -13  1    1    2    0    0 -7.4674503550e+01 +3.3073180401e+02 -8.0009878678e+01 3.4836961456e+02 0.0000000000e+00 0.0000e+00 1.0000e+00
       13  1    1    2    0    0 +7.4674503550e+01 -3.3073180401e+02 +4.8800641783e+02 5.9423065514e+02 0.0000000000e+00 0.0000e+00 -1.0000e+00
<mgrwt>
<rscale>  0 0.84972589E+03</rscale>
<asrwt>0</asrwt>
<pdfrwt beam="1">  1        2 0.10389206E+00 0.84972589E+03</pdfrwt>
<pdfrwt beam="2">  1       -2 0.41123364E-01 0.84972589E+03</pdfrwt>
<totfact> 0.29019455E+02</totfact>
</mgrwt>
<rwgt>
<wgt id='morphing_basis_vector_1'> +2.5955330e-04 </wgt>
<wgt id='morphing_basis_vector_2'> +1.5952936e-04 </wgt>
<wgt id='morphing_basis_vector_3'> +2.3793570e-04 </wgt>
<wgt id='morphing_basis_vector_4'> +1.3441403e-04 </wgt>
<wgt id='morphing_basis_vector_5'> +2.1268545e-04 </wgt>
</rwgt>
</event>
<event>
 4      1 +2.9741700e-06 7.91710600e+02 7.81860800e-03 8.91269700e-02
        2 -1    0    0  501    0 +0.0000000000e+00 +0.0000000000e+00 +1.4237464258e+03 1.4237464258e+03 0.0000000000e+00 0.0000e+00 -1.0000e+00
       -2 -1    0    0    0  501 -0.0000000000e+00 -0.0000000000e+00 -1.1006273120e+02 1.1006273120e+02 0.0000000000e+00 0.0000e+00 1.0000e+00
      -13  1    1    2    0    0 +2.7823659484e+02 +1.8180861330e+02 +2.4028564906e+02 4.1013067152e+02 0.0000000000e+00 0.0000e+00 1.0000e+00
       13  1    1    2    0    0 -2.7823659484e+02 -1.8180861330e+02 +1.0733980455e+03 1.1236784855e+03 0.0000000000e+00 0.0000e+00 -1.0000e+00
<mgrwt>
<rscale>  0 0.79171060E+03</rscale>
<asrwt>0</asrwt>
<pdfrwt beam="1">  1        2 0.21903790E+00 0.79171060E+03</pdfrwt>
<pdfrwt beam="2">  1       -2 0.16932729E-01 0.79171060E+03</pdfrwt>
<totfact> 0.46248302E+02</totfact>
</mgrwt>
<rwgt>
<wgt id='morphing_basis_vector_1'> +2.0194659e-04 </wgt>
<wgt id='morphing_basis_vector_2'> +1.2302896e-04 </wgt>
<wgt id='morphing_basis_vector_3'> +1.8050373e-04 </wgt>
<wgt id='morphing_basis_vector_4'> +9.7707824e-05 </wgt>
<wgt id='morphing_basis_vector_5'> +1.5434292e-04 </wgt>
</rwgt>
</event>
<event>
 4      1 +2.9741700e-06 7.56559700e+02 7.81860800e-03 8.95854600e-02
        2 -1    0    0  501    0 +0.0000000000e+00 +0.0000000000e+00 +7.1447821795e+02 7.1447821795e+02 0.0000000000e+00 0.0000e+00 -1.0000e+00
       -2 -1    0    0    0  501 -0.0000000000e+00 -0.0000000000e+00 -2.0027990345e+02 2.0027990345e+02 0.0000000000e+00 0.0000e+00 1.0000e+00
      -13  1    1    2    0    0 -1.7961522553e+02 +6.0270613912e+01 -1.3878072245e+02 2.3484945192e+02 0.0000000000e+00 0.0000e+00 -1.0000e+00
       13  1    1    2    0    0 +1.7961522553e+02 -6.0270613912e+01 +6.5297903695e+02 6.7990866948e+02 0.0000000000e+00 0.0000e+00 1.0000e+00
<mgrwt>
<rscale>  0 0.75655966E+03</rscale>
<asrwt>0</asrwt>
<pdfrwt beam="1">  1        2 0.10991973E+00 0.75655966E+03</pdfrwt>
<pdfrwt beam="2">  1       -2 0.30812293E-01 0.75655966E+03</pdfrwt>
<totfact> 0.45991131E+02</totfact>
</mgrwt>
<rwgt>
<wgt id='morphing_basis_vector_1'> +1.7160257e-04 </wgt>
<wgt id='morphing_basis_vector_2'> +1.0230344e-04 </wgt>
<wgt id='morphing_basis_vector_3'> +1.5093790e-04 </wgt>
<wgt id='morphing_basis_vector_4'> +8.0173189e-05 </wgt>
<wgt id='morphing_basis_vector_5'> +1.2522181e-04 </wgt>
</rwgt>
</event>
<event>
 4      1 +2.9741700e-06 7.83111300e+02 7.81860800e-03 8.92367700e-02
        2 -1    0    0  501    0 +0.0000000000e+00 +0.0000000000e+00 +1.7595818064e+03 1.7595818064e+03 0.0000000000e+00 0.0000e+00 -1.0000e+00
       -2 -1    0    0    0  501 -0.0000000000e+00 -0.0000000000e+00 -8.7131958929e+01 8.7131958929e+01 0.0000000000e+00 0.0000e+00 1.0000e+00
      -13  1    1    2    0    0 -1.5850384857e+02 -3.4816100226e+02 +6.3926070825e+02 7.4497906455e+02 0.0000000000e+00 0.0000e+00 1.0000e+00
       13  1    1    2    0    0 +1.5850384857e+02 +3.4816100226e+02 +1.0331891392e+03 1.1017347008e+03 0.0000000000e+00 0.0000e+00 -1.0000e+00
<mgrwt>
<rscale>  0 0.78311126E+03</rscale>
<asrwt>0</asrwt>
<pdfrwt beam="1">  1        2 0.27070487E+00 0.78311126E+03</pdfrwt>
<pdfrwt beam="2">  1       -2 0.13404918E-01 0.78311126E+03</pdfrwt>
<totfact> 0.44134138E+02</totfact>
</mgrwt>
<rwgt>
<wgt id='morphing_basis_vector_1'> +1.9668307e-04 </wgt>
<wgt id='morphing_basis_vector_2'> +1.2541192e-04 </wgt>
<wgt id='morphing_basis_vector_3'> +1.7429560e-04 </wgt>
<wgt id='morphing_basis_vector_4'> +9.0086249e-05 </wgt>
<wgt id='morphing_basis_vector_5'> +1.4668785e-04 </wgt>
</rwgt>
</event>
<event>
 4      1 +2.9741700e-06 7.54074100e+02 7.81860800e-03 8.96188800e-02
        2 -1    0    0  501    0 +0.0000000000e+00 +0.0000000000e+00 +1.1280842645e+03 1.1280842645e+03 0.0000000000e+00 0.0000e+00 -1.0000e+00
       -2 -1    0    0    0  501 -0.0000000000e+00 -0.0000000000e+00 -1.2601622918e+02 1.2601622918e+02 0.0000000000e+00 0.0000e+00 1.0000e+00
      -13  1    1    2    0    0 -2.5925012817e+02 +2.3191231735e+02 +2.5909457565e+02 4.3373258009e+02 0.0000000000e+00 0.0000e+00 1.0000e+00
       13  1    1    2    0    0 +2.5925012817e+02 -2.3191231735e+02 +7.4297345968e+02 8.2036791361e+02 0.0000000000e+00 0.0000e+00 -1.0000e+00
<mgrwt>
<rscale>  0 0.75407407E+03</rscale>
<asrwt>0</asrwt>
<pdfrwt beam="1">  1        2 0.17355142E+00 0.75407407E+03</pdfrwt>
<pdfrwt beam="2">  1       -2 0.19387113E-01 0.75407407E+03</pdfrwt>
<totfact> 0.54661549E+02</totfact>
</mgrwt>
<rwgt>
<wgt id='morphing_basis_vector_1'> +1.7086957e-04 </wgt>
<wgt id='morphing_basis_vector_2'> +1.0484311e-04 </wgt>
<wgt id='morphing_basis_vector_3'> +1.4962437e-04 </wgt>
<wgt id='morphing_basis_vector_4'> +7.7537457e-05 </wgt>
<wgt id='morphing_basis_vector_5'> +1.2327073e-04 </wgt>
</rwgt>
</event>
<event>
 4      1 +2.9741700e-06 7.59441600e+02 7.81860800e-03 8.95468800e-02
        2 -1    0    0  501    0 +0.0000000000e+00 +0.0000000000e+00 +1.1032242379e+02 1.1032242379e+02 0.0000000000e+00 0.0000e+00 1.0000e+00
       -2 -1    0    0    0  501 -0.0000000000e+00 -0.0000000000e+00 -1.3069681215e+03 1.3069681215e+03 0.0000000000e+00 0.0000e+00 -1.0000e+00
      -13  1    1    2    0    0 -2.4712678795e+02 +1.3226860049e+02 -1.0763876610e+03 1.1122845988e+03 0.0000000000e+00 0.0000e+00 -1.0000e+00
       13  1    1    2    0    0 +2.4712678795e+02 -1.3226860049e+02 -1.2025803671e+02 3.0500594649e+02 0.0000000000e+00 0.0000e+00 1.0000e+00
<mgrwt>
<rscale>  0 0.75944161E+03</rscale>
<asrwt>0</asrwt>
<pdfrwt beam="1">  1        2 0.16972681E-01 0.75944161E+03</pdfrwt>
<pdfrwt beam="2">  1       -2 0.20107201E+00 0.75944161E+03</pdfrwt>
<totfact> 0.51083803E+01</totfact>
</mgrwt>
<rwgt>
<wgt id='morphing_basis_vector_1'> +1.7411805e-04 </wgt>
<wgt id='morphing_basis_vector_2'> +1.0442061e-04 </wgt>
<wgt id='morphing_basis_vector_3'> +1.5329485e-04 </wgt>
<wgt id='morphing_basis_vector_4'> +8.1315868e-05 </wgt>
<wgt id='morphing_basis_vector_5'> +1.2744022e-04 </wgt>
</rwgt>
</event>
<event>
 4      1 +2.9741700e-06 7.65096700e+02 7.81860800e-03 8.94717100e-02
        2 -1    0    0  501    0 +0.0000000000e+00 +0.0000000000e+00 +3.5450875211e+02 3.5450875211e+02 0.0000000000e+00 0.0000e+00 -1.0000e+00
       -2 -1    0    0    0  501 -0.0000000000e+00 -0.0000000000e+00 -4.1280568763e+02 4.1280568763e+02 0.0000000000e+00 0.0000e+00 1.0000e+00
      -13  1    1    2    0    0 +2.4959560545e+02 -9.0392507889e+01 -3.0540010318e+02 4.0464551742e+02 0.0000000000e+00 0.0000e+00 1.0000e+00
       13  1    1    2    0    0 -2.4959560545e+02 +9.0392507889e+01 +2.4710316766e+02 3.6266892232e+02 0.0000000000e+00 0.0000e+00 -1.0000e+00
<mgrwt>
<rscale>  0 0.76509667E+03</rscale>
<asrwt>0</asrwt>
<pdfrwt beam="1">  1        2 0.54539808E-01 0.76509667E+03</pdfrwt>
<pdfrwt beam="2">  1       -2 0.63508567E-01 0.76509667E+03</pdfrwt>
<totfact> 0.25988312E+02</totfact>
</mgrwt>
<rwgt>
<wgt id='morphing_basis_vector_1'> +1.7862437e-04 </wgt>
<wgt id='morphing_basis_vector_2'> +1.0708676e-04 </wgt>
<wgt id='morphing_basis_vector_3'> +1.5774409e-04 </wgt>
<wgt id='morphing_basis_vector_4'> +8.4199720e-05 </wgt>
<wgt id='morphing_basis_vector_5'> +1.3189713e-04 </wgt>
</rwgt>
</event>
<event>
 4      1 +2.9741700e-06 8.17108500e+02 7.81860800e-03 8.88111200e-02
        2 -1    0    0  501    0 +0.0000000000e+00 +0.0000000000e+00 +1.3696110325e+03 1.3696110325e+03 0.0000000000e+00 0.0000e+00 -1.0000e+00
       -2 -1    0    0    0  501 -0.0000000000e+00 -0.0000000000e+00 -1.2187150659e+02 1.2187150659e+02 0.0000000000e+00 0.0000e+00 1.0000e+00
      -13  1    1    2    0    0 -1.6478387090e+02 +3.3254943376e+02 +3.1209978268e+02 4.8492177137e+02 0.0000000000e+00 0.0000e+00 1.0000e+00
       13  1    1    2    0    0 +1.6478387090e+02 -3.3254943376e+02 +9.3563974318e+02 1.0065607677e+03 0.0000000000e+00 0.0000e+00 -1.0000e+00
<mgrwt>
<rscale>  0 0.81710846E+03</rscale>
<asrwt>0</asrwt>
<pdfrwt beam="1">  1        2 0.21070938E+00 0.81710846E+03</pdfrwt>
<pdfrwt beam="2">  1       -2 0.18749464E-01 0.81710846E+03</pdfrwt>
<totfact> 0.41860536E+02</totfact>
</mgrwt>
<rwgt>
<wgt id='morphing_basis_vector_1'> +2.2657488e-04 </wgt>
<wgt id='morphing_basis_vector_2'> +1.4052884e-04 </wgt>
<wgt id='morphing_basis_vector_3'> +2.0467113e-04 </wgt>
<wgt id='morphing_basis_vector_4'> +1.1170430e-04 </wgt>
<wgt id='morphing_basis_vector_5'> +1.7818677e-04 </wgt>
</rwgt>
</event>
<event>
 4      1 +2.9741700e-06 7.76236900e+02 7.81860800e-03 8.93256200e-02
        2 -1    0    0  501    0 +0.0000000000e+00 +0.0000000000e+00 +8.2988864338e+02 8.2988864338e+02 0.0000000000e+00 0.0000e+00 1.0000e+00
       -2 -1    0    0    0  501 -0.0000000000e+00 -0.0000000000e+00 -1.8151340312e+02 1.8151340312e+02 0.0000000000e+00 0.0000e+00 -1.0000e+00
      -13  1    1    2    0    0 +3.1395788161e+02 +2.2679041367e+02 +2.9141968349e+02 4.8469462044e+02 0.0000000000e+00 0.0000e+00 -1.0000e+00
       13  1    1    2    0    0 -3.1395788161e+02 -2.2679041367e+02 +3.5695555678e+02 5.2670742606e+02 0.0000000000e+00 0.0000e+00 1.0000e+00
<mgrwt>
<rscale>  0 0.77623685E+03</rscale>
<asrwt>0</asrwt>
<pdfrwt beam="1">  1        2 0.12767517E+00 0.77623685E+03</pdfrwt>
<pdfrwt beam="2">  1       -2 0.27925139E-01 0.77623685E+03</pdfrwt>
<totfact> 0.45215127E+02</totfact>
</mgrwt>
<rwgt>
<wgt id='morphing_basis_vector_1'> +1.9292975e-04 </wgt>
<wgt id='morphing_basis_vector_2'> +1.2832259e-04 </wgt>
<wgt id='morphing_basis_vector_3'> +1.6959879e-04 </wgt>
<wgt id='morphing_basis_vector_4'> +8.3817261e-05 </wgt>
<wgt id='morphing_basis_vector_5'> +1.4075465e-04 </wgt>
</rwgt>
</event>
<event>
 4      1 +2.9741700e-06 8.01686700e+02 7.81860800e-03 8.90014300e-02
        2 -1    0    0  501    0 +0.0000000000e+00 +0.0000000000e+00 +1.1418511297e+02 1.1418511297e+02 0.0000000000e+00 0.0000e+00 1.0000e+00
       -2 -1    0    0    0  501 -0.0000000000e+00 -0.0000000000e+00 -1.4071484716e+03 1.4071484716e+03 0.0000000000e+00 0.0000e+00 -1.0000e+00
      -13  1    1    2    0    0 -2.4564969661e+02 +3.1650120760e+02 -6.2258168306e+02 7.4035446912e+02 0.0000000000e+00 0.0000e+00 -1.0000e+00
       13  1    1    2    0    0 +2.4564969661e+02 -3.1650120760e+02 -6.7038167559e+02 7.8097911548e+02 0.0000000000e+00 0.0000e+00 1.0000e+00
<mgrwt>
<rscale>  0 0.80168674E+03</rscale>
<asrwt>0</asrwt>
<pdfrwt beam="1">  1        2 0.17566940E-01 0.80168674E+03</pdfrwt>
<pdfrwt beam="2">  1       -2 0.21648439E+00 0.80168674E+03</pdfrwt>
<totfact> 0.37860733E+01</totfact>
</mgrwt>
<rwgt>
<wgt id='morphing_basis_vector_1'> +2.1867620e-04 </wgt>
<wgt id='morphing_basis_vector_2'> +1.5210352e-04 </wgt>
<wgt id='morphing_basis_vector_3'> +1.9410698e-04 </wgt>
<wgt id='morphing_basis_vector_4'> +9.3785955e-05 </wgt>
<wgt id='morphing_basis_vector_5'> +1.6301925e-04 </wgt>
</rwgt>
</event>
<event>
 4      1 +2.9741700e-06 8.47628100e+02 7.81860800e-03 8.84472600e-02
        2 -1    0    0  501    0 +0.0000000000e+00 +0.0000000000e+00 +5.9147037426e+02 5.9147037426e+02 0.0000000000e+00 0.0000e+00 -1.0000e+00
       -2 -1    0    0    0  501 -0.0000000000e+00 -0.0000000000e+00 -3.0368108932e+02 3.0368108932e+02 0.0000000000e+00 0.0000e+00 1.0000e+00
      -13  1    1    2    0    0 +1.6229543926e+02 +3.8539827935e+02 +7.1135401768e+01 4.2418379120e+02 0.0000000000e+00 0.0000e+00 1.0000e+00
       13  1    1    2    0    0 -1.6229543926e+02 -3.8539827935e+02 +2.1665388317e+02 4.7096767238e+02 0.0000000000e+00 0.0000e+00 -1.0000e+00
<mgrwt>
<rscale>  0 0.84762814E+03</rscale>
<asrwt>0</asrwt>
<pdfrwt beam="1">  1        2 0.90995442E-01 0.84762814E+03</pdfrwt>
<pdfrwt beam="2">  1       -2 0.46720168E-01 0.84762814E+03</pdfrwt>
<totfact> 0.26675120E+02</totfact>
</mgrwt>
<rwgt>
<wgt id='morphing_basis_vector_1'> +2.6158506e-04 </wgt>
<wgt id='morphing_basis_vector_2'> +1.7125362e-04 </wgt>
<wgt id='morphing_basis_vector_3'> +2.3863397e-04 </wgt>
<wgt id='morphing_basis_vector_4'> +1.2713535e-04 </wgt>
<wgt id='morphing_basis_vector_5'> +2.1005720e-04 </wgt>
</rwgt>
</event>
<event>
 4      1 +2.9741700e-06 8.72251900e+02 7.81860800e-03 8.81652700e-02
        2 -1    0    0  501    0 +0.0000000000e+00 +0.0000000000e+00 +2.1314088627e+03 2.1314088627e+03 0.0000000000e+00 0.0000e+00 -1.0000e+00
       -2 -1    0    0    0  501 -0.0000000000e+00 -0.0000000000e+00 -8.9239488125e+01 8.9239488125e+01 0.0000000000e+00 0.0000e+00 1.0000e+00
      -13  1    1    2    0    0 +4.0686279987e+02 +1.4387141702e+02 +1.1814854799e+03 1.2578331613e+03 0.0000000000e+00 0.0000e+00 -1.0000e+00
       13  1    1    2    0    0 -4.0686279987e+02 -1.4387141702e+02 +8.6068389467e+02 9.6281518948e+02 0.0000000000e+00 0.0000e+00 1.0000e+00
<mgrwt>
<rscale>  0 0.87225188E+03</rscale>
<asrwt>0</asrwt>
<pdfrwt beam="1">  1        2 0.32790902E+00 0.87225188E+03</pdfrwt>
<pdfrwt beam="2">  1       -2 0.13729154E-01 0.87225188E+03</pdfrwt>
<totfact> 0.26273979E+02</totfact>
</mgrwt>
<rwgt>
<wgt id='morphing_basis_vector_1'> +3.0125878e-04 </wgt>
<wgt id='morphing_basis_vector_2'> +2.2508445e-04 </wgt>
<wgt id='morphing_basis_vector_3'> +2.7554731e-04 </wgt>
<wgt id='morphing_basis_vector_4'> +1.2871540e-04 </wgt>
<wgt id='morphing_basis_vector_5'> +2.3799939e-04 </wgt>
</rwgt>
</event>
<event>
 4      1 +2.9741700e-06 8.99917100e+02 7.81860800e-03 8.78599100e-02
        2 -1    0    0  501    0 +0.0000000000e+00 +0.0000000000e+00 +9.5907394876e+02 9.5907394876e+02 0.0000000000e+00 0.0000e+00 -1.0000e+00
       -2 -1    0    0    0  501 -0.0000000000e+00 -0.0000000000e+00 -2.1110226604e+02 2.1110226604e+02 0.0000000000e+00 0.0000e+00 1.0000e+00
      -13  1    1    2    0    0 -4.1954797122e+02 +1.6058116770e+02 +3.4068475332e+02 5.6380219290e+02 0.0000000000e+00 0.0000e+00 1.0000e+00
       13  1    1    2    0    0 +4.1954797122e+02 -1.6058116770e+02 +4.0728692940e+02 6.0637402190e+02 0.0000000000e+00 0.0000e+00 -1.0000e+00
<mgrwt>
<rscale>  0 0.89991707E+03</rscale>
<asrwt>0</asrwt>
<pdfrwt beam="1">  1        2 0.14754984E+00 0.89991707E+03</pdfrwt>
<pdfrwt beam="2">  1       -2 0.32477272E-01 0.89991707E+03</pdfrwt>
<totfact> 0.28325042E+02</totfact>
</mgrwt>
<rwgt>
<wgt id='morphing_basis_vector_1'> +3.2773168e-04 </wgt>
<wgt id='morphing_basis_vector_2'> +2.2382688e-04 </wgt>
<wgt id='morphing_basis_vector_3'> +3.0476893e-04 </wgt>
<wgt id='morphing_basis_vector_4'> +1.6120695e-04 </wgt>
<wgt id='morphing_basis_vector_5'> +2.7411314e-04 </wgt>
</rwgt>
</event>
<event>
 4      1 +2.9741700e-06 7.74184000e+02 7.81860800e-03 8.93523500e-02
        2 -1    0    0  501    0 +0.0000000000e+00 +0.0000000000e+00 +2.8058148318e+02 2.8058148318e+02 0.0000000000e+00 0.0000e+00 1.0000e+00
       -2 -1    0    0    0  501 -0.0000000000e+00 -0.0000000000e+00 -5.3403462265e+02 5.3403462265e+02 0.0000000000e+00 0.0000e+00 -1.0000e+00
      -13  1    1    2    0    0 +2.0094412304e+02 +3.2931715666e+02 -1.6019819317e+02 4.1772214611e+02 0.0000000000e+00 0.0000e+00 -1.0000e+00
       13  1    1    2    0    0 -2.0094412304e+02 -3.2931715666e+02 -9.3254946307e+01 3.9689395972e+02 0.0000000000e+00 0.0000e+00 1.0000e+00
<mgrwt>
<rscale>  0 0.77418403E+03</rscale>
<asrwt>0</asrwt>
<pdfrwt beam="1">  1        2 0.43166382E-01 0.77418403E+03</pdfrwt>
<pdfrwt beam="2">  1       -2 0.82159172E-01 0.77418403E+03</pdfrwt>
<totfact> 0.19325403E+02</totfact>
</mgrwt>
<rwgt>
<wgt id='morphing_basis_vector_1'> +1.9081732e-04 </wgt>
<wgt id='morphing_basis_vector_2'> +1.2608443e-04 </wgt>
<wgt id='morphing_basis_vector_3'> +1.6766270e-04 </wgt>
<wgt id='morphing_basis_vector_4'> +8.3214281e-05 </wgt>
<wgt id='morphing_basis_vector_5'> +1.3906555e-04 </wgt>
</rwgt>
</event>
<event>
 4      1 +2.9741700e-06 8.07940900e+02 7.81860800e-03 8.89237100e-02
        2 -1    0    0  501    0 +0.0000000000e+00 +0.0000000000e+00 +2.0318140692e+03 2.0318140692e+03 0.0000000000e+00 0.0000e+00 -1.0000e+00
       -2 -1    0    0    0  501 -0.0000000000e+00 -0.0000000000e+00 -8.0318438060e+01 8.0318438060e+01 0.0000000000e+00 0.0000e+00 1.0000e+00
      -13  1    1    2    0    0 +3.6307311990e+02 -6.5006725295e+01 +5.4504290678e+02 6.5811832899e+02 0.0000000000e+00 0.0000e+00 1.0000e+00
       13  1    1    2    0    0 -3.6307311990e+02 +6.5006725295e+01 +1.4064527243e+03 1.4540141782e+03 0.0000000000e+00 0.0000e+00 -1.0000e+00
<mgrwt>
<rscale>  0 0.80794092E+03</rscale>
<asrwt>0</asrwt>
<pdfrwt beam="1">  1        2 0.31258674E+00 0.80794092E+03</pdfrwt>
<pdfrwt beam="2">  1       -2 0.12356684E-01 0.80794092E+03</pdfrwt>
<totfact> 0.35536678E+02</totfact>
</mgrwt>
<rwgt>
<wgt id='morphing_basis_vector_1'> +2.1773324e-04 </wgt>
<wgt id='morphing_basis_vector_2'> +1.3493910e-04 </wgt>
<wgt id='morphing_basis_vector_3'> +1.9585880e-04 </wgt>
<wgt id='morphing_basis_vector_4'> +1.0611050e-04 </wgt>
<wgt id='morphing_basis_vector_5'> +1.6927901e-04 </wgt>
</rwgt>
</event>
<event>
 4      1 +2.9741700e-06 8.82207900e+02 7.81860800e-03 8.80540300e-02
        2 -1    0    0  501    0 +0.0000000000e+00 +0.0000000000e+00 +9.9828031359e+02 9.9828031359e+02 0.0000000000e+00 0.0000e+00 -1.0000e+00
       -2 -1    0    0    0  501 -0.0000000000e+00 -0.0000000000e+00 -1.9490786045e+02 1.9490786045e+02 0.0000000000e+00 0.0000e+00 1.0000e+00
      -13  1    1    2    0    0 +3.5865342805e+02 +2.3886287072e+02 +2.7419950277e+02 5.1075739817e+02 0.0000000000e+00 0.0000e+00 1.0000e+00
       13  1    1    2    0    0 -3.5865342805e+02 -2.3886287072e+02 +5.2917295036e+02 6.8243077588e+02 0.0000000000e+00 0.0000e+00 -1.0000e+00
<mgrwt>
<rscale>  0 0.88220787E+03</rscale>
<asrwt>0</asrwt>
<pdfrwt beam="1">  1        2 0.15358158E+00 0.88220787E+03</pdfrwt>
<pdfrwt beam="2">  1       -2 0.29985825E-01 0.88220787E+03</pdfrwt>
<totfact> 0.30879053E+02</totfact>
</mgrwt>
<rwgt>
<wgt id='morphing_basis_vector_1'> +3.0108524e-04 </wgt>
<wgt id='morphing_basis_vector_2'> +1.9588311e-04 </wgt>
<wgt id='morphing_basis_vector_3'> +2.7871808e-04 </wgt>
<wgt id='morphing_basis_vector_4'> +1.5314530e-04 </wgt>
<wgt id='morphing_basis_vector_5'> +2.5124479e-04 </wgt>
</rwgt>
</event>
<event>
 4      1 +2.9741700e-06 8.00388100e+02 7.81860800e-03 8.90176600e-02
        2 -1    0    0  501    0 +0.0000000000e+00 +0.0000000000e+00 +1.0743815362e+03 1.0743815362e+03 0.0000000000e+00 0.0000e+00 -1.0000e+00
       -2 -1    0    0    0  501 -0.0000000000e+00 -0.0000000000e+00 -1.4906742636e+02 1.4906742636e+02 0.0000000000e+00 0.0000e+00 1.0000e+00
      -13  1    1    2    0    0 +3.4883220806e+02 -4.5166930919e+01 +1.7089908617e+02 3.9106324128e+02 0.0000000000e+00 0.0000e+00 1.0000e+00
       13  1    1    2    0    0 -3.4883220806e+02 +4.5166930919e+01 +7.5441502363e+02 8.3238572123e+02 0.0000000000e+00 0.0000e+00 -1.0000e+00
<mgrwt>
<rscale>  0 0.80038813E+03</rscale>
<asrwt>0</asrwt>
<pdfrwt beam="1">  1        2 0.16528946E+00 0.80038813E+03</pdfrwt>
<pdfrwt beam="2">  1       -2 0.22933451E-01 0.80038813E+03</pdfrwt>
<totfact> 0.44294159E+02</totfact>
</mgrwt>
<rwgt>
<wgt id='morphing_basis_vector_1'> +2.1019120e-04 </wgt>
<wgt id='morphing_basis_vector_2'> +1.2904978e-04 </wgt>
<wgt id='morphing_basis_vector_3'> +1.8854061e-04 </wgt>
<wgt id='morphing_basis_vector_4'> +1.0224253e-04 </wgt>
<wgt id='morphing_basis_vector_5'> +1.6220994e-04 </wgt>
</rwgt>
</event>
<event>
 4      1 +2.9741700e-06 7.74417200e+02 7.81860800e-03 8.93493100e-02
        2 -1    0    0  501    0 +0.0000000000e+00 +0.0000000000e+00 +2.0297906952e+03 2.0297906952e+03 0.0000000000e+00 0.0000e+00 1.0000e+00
       -2 -1    0    0    0  501 -0.0000000000e+00 -0.0000000000e+00 -7.3865012781e+01 7.3865012781e+01 0.0000000000e+00 0.0000e+00 -1.0000e+00
      -13  1    1    2    0    0 +2.8745617146e+02 +2.2135873961e+02 +6.1049231805e+02 7.1016308867e+02 0.0000000000e+00 0.0000e+00 -1.0000e+00
       13  1    1    2    0    0 -2.8745617146e+02 -2.2135873961e+02 +1.3454333643e+03 1.3934926193e+03 0.0000000000e+00 0.0000e+00 1.0000e+00
<mgrwt>
<rscale>  0 0.77441724E+03</rscale>
<asrwt>0</asrwt>
<pdfrwt beam="1">  1        2 0.31227545E+00 0.77441724E+03</pdfrwt>
<pdfrwt beam="2">  1       -2 0.11363850E-01 0.77441724E+03</pdfrwt>
<totfact> 0.40808023E+02</totfact>
</mgrwt>
<rwgt>
<wgt id='morphing_basis_vector_1'> +1.8783075e-04 </wgt>
<wgt id='morphing_basis_vector_2'> +1.1644343e-04 </wgt>
<wgt id='morphing_basis_vector_3'> +1.6614081e-04 </wgt>
<wgt id='morphing_basis_vector_4'> +8.7198422e-05 </wgt>
<wgt id='morphing_basis_vector_5'> +1.3941024e-04 </wgt>
</rwgt>
</event>
<event>
 4      1 +2.9741700e-06 8.18871000e+02 7.81860800e-03 8.87896500e-02
        2 -1    0    0  501    0 +0.0000000000e+00 +0.0000000000e+00 +2.4874766791e+02 2.4874766791e+02 0.0000000000e+00 0.0000e+00 -1.0000e+00
       -2 -1    0    0    0  501 -0.0000000000e+00 -0.0000000000e+00 -6.7392567598e+02 6.7392567598e+02 0.0000000000e+00 0.0000e+00 1.0000e+00
      -13  1    1    2    0    0 +2.6272073429e+01 -3.2537434834e+02 -4.9105844615e+02 5.8965844855e+02 0.0000000000e+00 0.0000e+00 1.0000e+00
       13  1    1    2    0    0 -2.6272073429e+01 +3.2537434834e+02 +6.5880438082e+01 3.3301489535e+02 0.0000000000e+00 0.0000e+00 -1.0000e+00
<mgrwt>
<rscale>  0 0.81887103E+03</rscale>
<asrwt>0</asrwt>
<pdfrwt beam="1">  1        2 0.38268873E-01 0.81887103E+03</pdfrwt>
<pdfrwt beam="2">  1       -2 0.10368087E+00 0.81887103E+03</pdfrwt>
<totfact> 0.12787962E+02</totfact>
</mgrwt>
<rwgt>
<wgt id='morphing_basis_vector_1'> +2.2739322e-04 </wgt>
<wgt id='morphing_basis_vector_2'> +1.3883073e-04 </wgt>
<wgt id='morphing_basis_vector_3'> +2.0581816e-04 </wgt>
<wgt id='morphing_basis_vector_4'> +1.1398754e-04 </wgt>
<wgt id='morphing_basis_vector_5'> +1.7999053e-04 </wgt>
</rwgt>
</event>
<event>
 4      1 +2.9741700e-06 8.81935400e+02 7.81860800e-03 8.80570500e-02
        2 -1    0    0  501    0 +0.0000000000e+00 +0.0000000000e+00 +1.5000433138e+03 1.5000433138e+03 0.0000000000e+00 0.0000e+00 1.0000e+00
       -2 -1    0    0    0  501 -0.0000000000e+00 -0.0000000000e+00 -1.2963127730e+02 1.2963127730e+02 0.0000000000e+00 0.0000e+00 -1.0000e+00
      -13  1    1    2    0    0 -4.1508808488e+02 +1.4514592656e+02 +6.2428132315e+02 7.6360502136e+02 0.0000000000e+00 0.0000e+00 -1.0000e+00
       13  1    1    2    0    0 +4.1508808488e+02 -1.4514592656e+02 +7.4613071334e+02 8.6606956973e+02 0.0000000000e+00 0.0000e+00 1.0000e+00
<mgrwt>
<rscale>  0 0.88193544E+03</rscale>
<asrwt>0</asrwt>
<pdfrwt beam="1">  1        2 0.23077588E+00 0.88193544E+03</pdfrwt>
<pdfrwt beam="2">  1       -2 0.19943274E-01 0.88193544E+03</pdfrwt>
<totfact> 0.31823337E+02</totfact>
</mgrwt>
<rwgt>
<wgt id='morphing_basis_vector_1'> +3.0406048e-04 </wgt>
<wgt id='morphing_basis_vector_2'> +2.0574445e-04 </wgt>
<wgt id='morphing_basis_vector_3'> +2.8087669e-04 </wgt>
<wgt id='morphing_basis_vector_4'> +1.4831337e-04 </wgt>
<wgt id='morphing_basis_vector_5'> +2.5066250e-04 </wgt>
</rwgt>
</event>
<event>
 4      1 +2.9741700e-06 8.00281600e+02 7.81860800e-03 8.90189900e-02
        2 -1    0    0  501    0 +0.0000000000e+00 +0.0000000000e+00 +9.5181910274e+02 9.5181910274e+02 0.0000000000e+00 0.0000e+00 -1.0000e+00
       -2 -1    0    0    0  501 -0.0000000000e+00 -0.0000000000e+00 -1.6821754881e+02 1.6821754881e+02 0.0000000000e+00 0.0000e+00 1.0000e+00
      -13  1    1    2    0    0 -3.9403322075e+01 +1.6307883170e+02 -1.1661537124e+02 2.0431953394e+02 0.0000000000e+00 0.0000e+00 1.0000e+00
       13  1    1    2    0    0 +3.9403322075e+01 -1.6307883170e+02 +9.0021692516e+02 9.1571711761e+02 0.0000000000e+00 0.0000e+00 -1.0000e+00
<mgrwt>
<rscale>  0 0.80028164E+03</rscale>
<asrwt>0</asrwt>
<pdfrwt beam="1">  1        2 0.14643370E+00 0.80028164E+03</pdfrwt>
<pdfrwt beam="2">  1       -2 0.25879624E-01 0.80028164E+03</pdfrwt>
<totfact> 0.42877923E+02</totfact>
</mgrwt>
<rwgt>
<wgt id='morphing_basis_vector_1'> +2.0910345e-04 </wgt>
<wgt id='morphing_basis_vector_2'> +1.2595834e-04 </wgt>
<wgt id='morphing_basis_vector_3'> +1.8785195e-04 </wgt>
<wgt id='morphing_basis_vector_4'> +1.0342993e-04 </wgt>
<wgt id='morphing_basis_vector_5'> +1.6216481e-04 </wgt>
</rwgt>
</event>
<event>
 4      1 +2.9741700e-06 8.02715500e+02 7.81860800e-03 8.89885900e-02
        2 -1    0    0  501    0 +0.0000000000e+00 +0.0000000000e+00 +3.3600899948e+02 3.3600899948e+02 0.0000000000e+00 0.0000e+00 -1.0000e+00
       -2 -1    0    0    0  501 -0.0000000000e+00 -0.0000000000e+00 -4.7941589694e+02 4.7941589694e+02 0.0000000000e+00 0.0000e+00 1.0000e+00
      -13  1    1    2    0    0 +8.7741814377e+01 -5.1220581865e+01 -4.6613698892e+02 4.7708056598e+02 0.0000000000e+00 0.0000e+00 1.0000e+00
       13  1    1    2    0    0 -8.7741814377e+01 +5.1220581865e+01 +3.2273009146e+02 3.3834433043e+02 0.0000000000e+00 0.0000e+00 -1.0000e+00
<mgrwt>
<rscale>  0 0.80271553E+03</rscale>
<asrwt>0</asrwt>
<pdfrwt beam="1">  1        2 0.51693692E-01 0.80271553E+03</pdfrwt>
<pdfrwt beam="2">  1       -2 0.73756292E-01 0.80271553E+03</pdfrwt>
<totfact> 0.20049874E+02</totfact>
</mgrwt>
<rwgt>
<wgt id='morphing_basis_vector_1'> +2.1134940e-04 </wgt>
<wgt id='morphing_basis_vector_2'> +1.2734227e-04 </wgt>
<wgt id='morphing_basis_vector_3'> +1.9008263e-04 </wgt>
<wgt id='morphing_basis_vector_4'> +1.0487373e-04 </wgt>
<wgt id='morphing_basis_vector_5'> +1.6442765e-04 </wgt>
</rwgt>
</event>
<event>
 4      1 +2.9741700e-06 8.07221900e+02 7.81860800e-03 8.89326000e-02
        2 -1    0    0  501    0 +0.0000000000e+00 +0.0000000000e+00 +1.0853460583e+03 1.0853460583e+03 0.0000000000e+00 0.0000e+00 -1.0000e+00
       -2 -1    0    0    0  501 -0.0000000000e+00 -0.0000000000e+00 -1.5009202575e+02 1.5009202575e+02 0.0000000000e+00 0.0000e+00 1.0000e+00
      -13  1    1    2    0    0 +3.6616394526e+02 +1.6906105268e+02 +4.4371453831e+02 5.9961676582e+02 0.0000000000e+00 0.0000e+00 1.0000e+00
       13  1    1    2    0    0 -3.6616394526e+02 -1.6906105268e+02 +4.9153949428e+02 6.3582131827e+02 0.0000000000e+00 0.0000e+00 -1.0000e+00
<mgrwt>
<rscale>  0 0.80722187E+03</rscale>
<asrwt>0</asrwt>
<pdfrwt beam="1">  1        2 0.16697631E+00 0.80722187E+03</pdfrwt>
<pdfrwt beam="2">  1       -2 0.23091082E-01 0.80722187E+03</pdfrwt>
<totfact> 0.43109532E+02</totfact>
</mgrwt>
<rwgt>
<wgt id='morphing_basis_vector_1'> +2.2217962e-04 </wgt>
<wgt id='morphing_basis_vector_2'> +1.5020481e-04 </wgt>
<wgt id='morphing_basis_vector_3'> +1.9831884e-04 </wgt>
<wgt id='morphing_basis_vector_4'> +9.9139981e-05 </wgt>
<wgt id='morphing_basis_vector_5'> +1.6830927e-04 </wgt>
</rwgt>
</event>
<event>
 4      1 +2.9741700e-06 7.94057600e+02 7.81860800e-03 8.90972600e-02
        2 -1    0    0  501    0 +0.0000000000e+00 +0.0000000000e+00 +8.3242401152e+02 8.3242401152e+02 0.0000000000e+00 0.0000e+00 1.0000e+00
       -2 -1    0    0    0  501 -0.0000000000e+00 -0.0000000000e+00 -1.8936488162e+02 1.8936488162e+02 0.0000000000e+00 0.0000e+00 -1.0000e+00
      -13  1    1    2    0    0 +2.1315994311e+02 -3.0851020302e+02 +4.8938679040e+02 6.1653478193e+02 0.0000000000e+00 0.0000e+00 -1.0000e+00
       13  1    1    2    0    0 -2.1315994311e+02 +3.0851020302e+02 +1.5367233950e+02 4.0525411120e+02 0.0000000000e+00 0.0000e+00 1.0000e+00
<mgrwt>
<rscale>  0 0.79405762E+03</rscale>
<asrwt>0</asrwt>
<pdfrwt beam="1">  1        2 0.12806523E+00 0.79405762E+03</pdfrwt>
<pdfrwt beam="2">  1       -2 0.29133059E-01 0.79405762E+03</pdfrwt>
<totfact> 0.41785741E+02</totfact>
</mgrwt>
<rwgt>
<wgt id='morphing_basis_vector_1'> +2.2523634e-04 </wgt>
<wgt id='morphing_basis_vector_2'> +1.8922844e-04 </wgt>
<wgt id='morphing_basis_vector_3'> +1.9495997e-04 </wgt>
<wgt id='morphing_basis_vector_4'> +7.2534118e-05 </wgt>
<wgt id='morphing_basis_vector_5'> +1.5533757e-04 </wgt>
</rwgt>
</event>
<event>
 4      1 +2.9741700e-06 8.69223100e+02 7.81860800e-03 8.81994300e-02
        2 -1    0    0  501    0 +0.0000000000e+00 +0.0000000000e+00 +1.0279391403e+03 1.0279391403e+03 0.0000000000e+00 0.0000e+00 -1.0000e+00
       -2 -1    0    0    0  501 -0.0000000000e+00 -0.0000000000e+00 -1.8375329503e+02 1.8375329503e+02 0.0000000000e+00 0.0000e+00 1.0000e+00
      -13  1    1    2    0    0 +6.1293130821e+01 +3.0966987421e+02 +5.6758144852e+00 3.1572851273e+02 0.0000000000e+00 0.0000e+00 1.0000e+00
       13  1    1    2    0    0 -6.1293130821e+01 -3.0966987421e+02 +8.3851003073e+02 8.9596392255e+02 0.0000000000e+00 0.0000e+00 -1.0000e+00
<mgrwt>
<rscale>  0 0.86922311E+03</rscale>
<asrwt>0</asrwt>
<pdfrwt beam="1">  1        2 0.15814448E+00 0.86922311E+03</pdfrwt>
<pdfrwt beam="2">  1       -2 0.28269738E-01 0.86922311E+03</pdfrwt>
<totfact> 0.32860742E+02</totfact>
</mgrwt>
<rwgt>
<wgt id='morphing_basis_vector_1'> +2.8133265e-04 </wgt>
<wgt id='morphing_basis_vector_2'> +1.7287913e-04 </wgt>
<wgt id='morphing_basis_vector_3'> +2.5989275e-04 </wgt>
<wgt id='morphing_basis_vector_4'> +1.4903494e-04 </wgt>
<wgt id='morphing_basis_vector_5'> +2.3545475e-04 </wgt>
</rwgt>
</event>
<event>
 4      1 +2.9741700e-06 7.55967700e+02 7.81860800e-03 8.95934100e-02
        2 -1    0    0  501    0 +0.0000000000e+00 +0.0000000000e+00 +1.0799058563e+02 1.0799058563e+02 0.0000000000e+00 0.0000e+00 -1.0000e+00
       -2 -1    0    0    0  501 -0.0000000000e+00 -0.0000000000e+00 -1.3230023608e+03 1.3230023608e+03 0.0000000000e+00 0.0000e+00 1.0000e+00
      -13  1    1    2    0    0 +3.0077470126e+02 +2.1920624873e+02 -4.8258694883e+02 6.0943167261e+02 0.0000000000e+00 0.0000e+00 1.0000e+00
       13  1    1    2    0    0 -3.0077470126e+02 -2.1920624873e+02 -7.3242482632e+02 8.2156127380e+02 0.0000000000e+00 0.0000e+00 -1.0000e+00
<mgrwt>
<rscale>  0 0.75596772E+03</rscale>
<asrwt>0</asrwt>
<pdfrwt beam="1">  1        2 0.16613937E-01 0.75596772E+03</pdfrwt>
<pdfrwt beam="2">  1       -2 0.20353882E+00 0.75596772E+03</pdfrwt>
<totfact> 0.50339125E+01</totfact>
</mgrwt>
<rwgt>
<wgt id='morphing_basis_vector_1'> +1.8213769e-04 </wgt>
<wgt id='morphing_basis_vector_2'> +1.3580179e-04 </wgt>
<wgt id='morphing_basis_vector_3'> +1.5593729e-04 </wgt>
<wgt id='morphing_basis_vector_4'> +6.6938652e-05 </wgt>
<wgt id='morphing_basis_vector_5'> +1.2429616e-04 </wgt>
</rwgt>
</event>
<event>
 4      1 +2.9741700e-06 7.90453600e+02 7.81860800e-03 8.91429200e-02
        2 -1    0    0  501    0 +0.0000000000e+00 +0.0000000000e+00 +2.7798931739e+02 2.7798931739e+02 0.0000000000e+00 0.0000e+00 -1.0000e+00
       -2 -1    0    0    0  501 -0.0000000000e+00 -0.0000000000e+00 -5.6190728464e+02 5.6190728464e+02 0.0000000000e+00 0.0000e+00 1.0000e+00
      -13  1    1    2    0    0 -1.4145662096e+02 +9.1278509546e+01 -5.2190422245e+02 5.4838468189e+02 0.0000000000e+00 0.0000e+00 1.0000e+00
       13  1    1    2    0    0 +1.4145662096e+02 -9.1278509546e+01 +2.3798625520e+02 2.9151192014e+02 0.0000000000e+00 0.0000e+00 -1.0000e+00
<mgrwt>
<rscale>  0 0.79045360E+03</rscale>
<asrwt>0</asrwt>
<pdfrwt beam="1">  1        2 0.42767588E-01 0.79045360E+03</pdfrwt>
<pdfrwt beam="2">  1       -2 0.86447274E-01 0.79045360E+03</pdfrwt>
<totfact> 0.17364190E+02</totfact>
</mgrwt>
<rwgt>
<wgt id='morphing_basis_vector_1'> +2.0015927e-04 </wgt>
<wgt id='morphing_basis_vector_2'> +1.2029225e-04 </wgt>
<wgt id='morphing_basis_vector_3'> +1.7900865e-04 </wgt>
<wgt id='morphing_basis_vector_4'> +9.7827400e-05 </wgt>
<wgt id='morphing_basis_vector_5'> +1.5325810e-04 </wgt>
</rwgt>
</event>
<event>
 4      1 +2.9741700e-06 8.09676200e+02 7.81860800e-03 8.89022700e-02
        2 -1    0    0  501    0 +0.0000000000e+00 +0.0000000000e+00 +7.7548609815e+02 7.7548609815e+02 0.0000000000e+00 0.0000e+00 1.0000e+00
       -2 -1    0    0    0  501 -0.0000000000e+00 -0.0000000000e+00 -2.1134343440e+02 2.1134343440e+02 0.0000000000e+00 0.0000e+00 -1.0000e+00
      -13  1    1    2    0    0 -2.4519500484e+02 +2.2608003867e+02 +5.6176060073e+02 6.5330524781e+02 0.0000000000e+00 0.0000e+00 1.0000e+00
       13  1    1    2    0    0 +2.4519500484e+02 -2.2608003867e+02 +2.3820630277e+00 3.3352428474e+02 0.0000000000e+00 0.0000e+00 -1.0000e+00
<mgrwt>
<rscale>  0 0.80967622E+03</rscale>
<asrwt>0</asrwt>
<pdfrwt beam="1">  1        2 0.11930555E+00 0.80967622E+03</pdfrwt>
<pdfrwt beam="2">  1       -2 0.32514375E-01 0.80967622E+03</pdfrwt>
<totfact> 0.37646170E+02</totfact>
</mgrwt>
<rwgt>
<wgt id='morphing_basis_vector_1'> +2.6427067e-04 </wgt>
<wgt id='morphing_basis_vector_2'> +2.7334605e-04 </wgt>
<wgt id='morphing_basis_vector_3'> +2.2520857e-04 </wgt>
<wgt id='morphing_basis_vector_4'> +4.9710310e-05 </wgt>
<wgt id='morphing_basis_vector_5'> +1.6842045e-04 </wgt>
</rwgt>
</event>
<event>
 4      1 +2.9741700e-06 8.64339100e+02 7.81860800e-03 8.82548100e-02
        2 -1    0    0  501    0 +0.0000000000e+00 +0.0000000000e+00 +8.6960462857e+01 8.6960462857e+01 0.0000000000e+00 0.0000e+00 -1.0000e+00
       -2 -1    0    0    0  501 -0.0000000000e+00 -0.0000000000e+00 -2.1477636804e+03 2.1477636804e+03 0.0000000000e+00 0.0000e+00 1.0000e+00
      -13  1    1    2    0    0 +2.9628833301e+02 +3.0389901261e+02 -1.2409094483e+03 1.3114868071e+03 0.0000000000e+00 0.0000e+00 1.0000e+00
       13  1    1    2    0    0 -2.9628833301e+02 -3.0389901261e+02 -8.1989376920e+02 9.2323733618e+02 0.0000000000e+00 0.0000e+00 -1.0000e+00
<mgrwt>
<rscale>  0 0.86433911E+03</rscale>
<asrwt>0</asrwt>
<pdfrwt beam="1">  1        2 0.13378534E-01 0.86433911E+03</pdfrwt>
<pdfrwt beam="2">  1       -2 0.33042516E+00 0.86433911E+03</pdfrwt>
<totfact> 0.88432231E+00</totfact>
</mgrwt>
<rwgt>
<wgt id='morphing_basis_vector_1'> +2.8010165e-04 </wgt>
<wgt id='morphing_basis_vector_2'> +1.8273433e-04 </wgt>
<wgt id='morphing_basis_vector_3'> +2.5740515e-04 </wgt>
<wgt id='morphing_basis_vector_4'> +1.3930371e-04 </wgt>
<wgt id='morphing_basis_vector_5'> +2.2929670e-04 </wgt>
</rwgt>
</event>
<event>
 4      1 +2.9741700e-06 7.83200300e+02 7.81860800e-03 8.92356200e-02
        2 -1    0    0  501    0 +0.0000000000e+00 +0.0000000000e+00 +6.5102614885e+02 6.5102614885e+02 0.0000000000e+00 0.0000e+00 -1.0000e+00
       -2 -1    0    0    0  501 -0.0000000000e+00 -0.0000000000e+00 -2.3555227435e+02 2.3555227435e+02 0.0000000000e+00 0.0000e+00 1.0000e+00
      -13  1    1    2    0    0 -1.4700800827e+02 +3.5535436511e+02 +1.2407182051e+02 4.0408154615e+02 0.0000000000e+00 0.0000e+00 1.0000e+00
       13  1    1    2    0    0 +1.4700800827e+02 -3.5535436511e+02 +2.9140205398e+02 4.8249687705e+02 0.0000000000e+00 0.0000e+00 -1.0000e+00
<mgrwt>
<rscale>  0 0.78320033E+03</rscale>
<asrwt>0</asrwt>
<pdfrwt beam="1">  1        2 0.10015787E+00 0.78320033E+03</pdfrwt>
<pdfrwt beam="2">  1       -2 0.36238812E-01 0.78320033E+03</pdfrwt>
<totfact> 0.38432455E+02</totfact>
</mgrwt>
<rwgt>
<wgt id='morphing_basis_vector_1'> +1.9707331e-04 </wgt>
<wgt id='morphing_basis_vector_2'> +1.2641917e-04 </wgt>
<wgt id='morphing_basis_vector_3'> +1.7454770e-04 </wgt>
<wgt id='morphing_basis_vector_4'> +8.9749238e-05 </wgt>
<wgt id='morphing_basis_vector_5'> +1.4674894e-04 </wgt>
</rwgt>
</event>
<event>
 4      1 +2.9741700e-06 7.69293300e+02 7.81860800e-03 8.94163700e-02
        2 -1    0    0  501    0 +0.0000000000e+00 +0.0000000000e+00 +6.3916902203e+02 6.3916902203e+02 0.0000000000e+00 0.0000e+00 1.0000e+00
       -2 -1    0    0    0  501 -0.0000000000e+00 -0.0000000000e+00 -2.3147721029e+02 2.3147721029e+02 0.0000000000e+00 0.0000e+00 -1.0000e+00
      -13  1    1    2    0    0 -3.1640899193e+02 -6.3873751906e+01 +4.4059113737e+02 5.4618225592e+02 0.0000000000e+00 0.0000e+00 1.0000e+00
       13  1    1    2    0    0 +3.1640899193e+02 +6.3873751906e+01 -3.2899325628e+01 3.2446397640e+02 0.0000000000e+00 0.0000e+00 -1.0000e+00
<mgrwt>
<rscale>  0 0.76929334E+03</rscale>
<asrwt>0</asrwt>
<pdfrwt beam="1">  1        2 0.98333695E-01 0.76929334E+03</pdfrwt>
<pdfrwt beam="2">  1       -2 0.35611879E-01 0.76929334E+03</pdfrwt>
<totfact> 0.40578999E+02</totfact>
</mgrwt>
<rwgt>
<wgt id='morphing_basis_vector_1'> +2.1830470e-04 </wgt>
<wgt id='morphing_basis_vector_2'> +2.2041079e-04 </wgt>
<wgt id='morphing_basis_vector_3'> +1.8025441e-04 </wgt>
<wgt id='morphing_basis_vector_4'> +4.2717959e-05 </wgt>
<wgt id='morphing_basis_vector_5'> +1.3359668e-04 </wgt>
</rwgt>
</event>
<event>
 4      1 +2.9741700e-06 7.79170300e+02 7.81860800e-03 8.92875900e-02
        2 -1    0    0  501    0 +0.0000000000e+00 +0.0000000000e+00 +1.8463975019e+02 1.8463975019e+02 0.0000000000e+00 0.0000e+00 -1.0000e+00
       -2 -1    0    0    0  501 -0.0000000000e+00 -0.0000000000e+00 -8.2201469074e+02 8.2201469074e+02 0.0000000000e+00 0.0000e+00 1.0000e+00
      -13  1    1    2    0    0 +8.5065229495e+01 +3.2003767906e+02 -5.3548519506e+01 3.3545141709e+02 0.0000000000e+00 0.0000e+00 1.0000e+00
       13  1    1    2    0    0 -8.5065229495e+01 -3.2003767906e+02 -5.8382642104e+02 6.7120302383e+02 0.0000000000e+00 0.0000e+00 -1.0000e+00
<mgrwt>
<rscale>  0 0.77917029E+03</rscale>
<asrwt>0</asrwt>
<pdfrwt beam="1">  1        2 0.28406116E-01 0.77917029E+03</pdfrwt>
<pdfrwt beam="2">  1       -2 0.12646380E+00 0.77917029E+03</pdfrwt>
<totfact> 0.10888026E+02</totfact>
</mgrwt>
<rwgt>
<wgt id='morphing_basis_vector_1'> +2.2670092e-04 </wgt>
<wgt id='morphing_basis_vector_2'> +2.2576526e-04 </wgt>
<wgt id='morphing_basis_vector_3'> +1.8931466e-04 </wgt>
<wgt id='morphing_basis_vector_4'> +4.7101691e-05 </wgt>
<wgt id='morphing_basis_vector_5'> +1.4169458e-04 </wgt>
</rwgt>
</event>
<event>
 4      1 +2.9741700e-06 8.47661600e+02 7.81860800e-03 8.84468700e-02
        2 -1    0    0  501    0 +0.0000000000e+00 +0.0000000000e+00 +6.5579072739e+02 6.5579072739e+02 0.0000000000e+00 0.0000e+00 -1.0000e+00
       -2 -1    0    0    0  501 -0.0000000000e+00 -0.0000000000e+00 -2.7391745586e+02 2.7391745586e+02 0.0000000000e+00 0.0000e+00 1.0000e+00
      -13  1    1    2    0    0 +3.1424734609e+02 -1.5264532324e+02 -7.2248906441e+01 3.5675186575e+02 0.0000000000e+00 0.0000e+00 1.0000e+00
       13  1    1    2    0    0 -3.1424734609e+02 +1.5264532324e+02 +4.5412217797e+02 5.7295631749e+02 0.0000000000e+00 0.0000e+00 -1.0000e+00
<mgrwt>
<rscale>  0 0.84766155E+03</rscale>
<asrwt>0</asrwt>
<pdfrwt beam="1">  1        2 0.10089088E+00 0.84766155E+03</pdfrwt>
<pdfrwt beam="2">  1       -2 0.42141147E-01 0.84766155E+03</pdfrwt>
<totfact> 0.28718887E+02</totfact>
</mgrwt>
<rwgt>
<wgt id='morphing_basis_vector_1'> +2.5744820e-04 </wgt>
<wgt id='morphing_basis_vector_2'> +1.5853568e-04 </wgt>
<wgt id='morphing_basis_vector_3'> +2.3577966e-04 </wgt>
<wgt id='morphing_basis_vector_4'> +1.3276684e-04 </wgt>
<wgt id='morphing_basis_vector_5'> +2.1036403e-04 </wgt>
</rwgt>
</event>
<event>
 4      1 +2.9741700e-06 7.74880200e+02 7.81860800e-03 8.93432700e-02
        2 -1    0    0  501    0 +0.0000000000e+00 +0.0000000000e+00 +9.9251772099e+02 9.9251772099e+02 0.0000000000e+00 0.0000e+00 1.0000e+00
       -2 -1    0    0    0  501 -0.0000000000e+00 -0.0000000000e+00 -1.5124146634e+02 1.5124146634e+02 0.0000000000e+00 0.0000e+00 -1.0000e+00
      -13  1    1    2    0    0 -2.3578628230e+02 +1.1578583299e+02 +2.6718387375e-01 2.6268155898e+02 0.0000000000e+00 0.0000e+00 -1.0000e+00
       13  1    1    2    0    0 +2.3578628230e+02 -1.1578583299e+02 +8.4100907078e+02 8.8107762835e+02 0.0000000000e+00 0.0000e+00 1.0000e+00
<mgrwt>
<rscale>  0 0.77488021E+03</rscale>
<asrwt>0</asrwt>
<pdfrwt beam="1">  1        2 0.15269503E+00 0.77488021E+03</pdfrwt>
<pdfrwt beam="2">  1       -2 0.23267919E-01 0.77488021E+03</pdfrwt>
<totfact> 0.48553767E+02</totfact>
</mgrwt>
<rwgt>
<wgt id='morphing_basis_vector_1'> +1.8675120e-04 </wgt>
<wgt id='morphing_basis_vector_2'> +1.1217794e-04 </wgt>
<wgt id='morphing_basis_vector_3'> +1.6573199e-04 </wgt>
<wgt id='morphing_basis_vector_4'> +8.9226196e-05 </wgt>
<wgt id='morphing_basis_vector_5'> +1.3986485e-04 </wgt>
</rwgt>
</event>
<event>
 4      1 +2.9741700e-06 8.01157200e+02 7.81860800e-03 8.90080400e-02
        2 -1    0    0  501    0 +0.0000000000e+00 +0.0000000000e+00 +2.9419912975e+02 2.9419912975e+02 0.0000000000e+00 0.0000e+00 1.0000e+00
       -2 -1    0    0    0  501 -0.0000000000e+00 -0.0000000000e+00 -5.4542387395e+02 5.4542387395e+02 0.0000000000e+00 0.0000e+00 -1.0000e+00
      -13  1    1    2    0    0 -1.8021942473e+02 +3.4339842283e+02 -2.0488223032e+01 3.8835716182e+02 0.0000000000e+00 0.0000e+00 1.0000e+00
       13  1    1    2    0    0 +1.8021942473e+02 -3.4339842283e+02 -2.3073652116e+02 4.5126584188e+02 0.0000000000e+00 0.0000e+00 -1.0000e+00
<mgrwt>
<rscale>  0 0.80115724E+03</rscale>
<asrwt>0</asrwt>
<pdfrwt beam="1">  1        2 0.45261405E-01 0.80115724E+03</pdfrwt>
<pdfrwt beam="2">  1       -2 0.83911365E-01 0.80115724E+03</pdfrwt>
<totfact> 0.17434375E+02</totfact>
</mgrwt>
<rwgt>
<wgt id='morphing_basis_vector_1'> +2.2743094e-04 </wgt>
<wgt id='morphing_basis_vector_2'> +1.8010606e-04 </wgt>
<wgt id='morphing_basis_vector_3'> +1.9915080e-04 </wgt>
<wgt id='morphing_basis_vector_4'> +8.1792276e-05 </wgt>
<wgt id='morphing_basis_vector_5'> +1.6202781e-04 </wgt>
</rwgt>
</event>
<event>
 4      1 +2.9741700e-06 7.64439300e+02 7.81860800e-03 8.94804100e-02
        2 -1    0    0  501    0 +0.0000000000e+00 +0.0000000000e+00 +5.2970504290e+02 5.2970504290e+02 0.0000000000e+00 0.0000e+00 -1.0000e+00
       -2 -1    0    0    0  501 -0.0000000000e+00 -0.0000000000e+00 -2.7579848391e+02 2.7579848391e+02 0.0000000000e+00 0.0000e+00 1.0000e+00
      -13  1    1    2    0    0 +2.4565182873e+01 +1.3405177036e+02 +5.0323324496e+02 5.2136074284e+02 0.0000000000e+00 0.0000e+00 -1.0000e+00
       13  1    1    2    0    0 -2.4565182873e+01 -1.3405177036e+02 -2.4932668597e+02 2.8414278397e+02 0.0000000000e+00 0.0000e+00 1.0000e+00
<mgrwt>
<rscale>  0 0.76443927E+03</rscale>
<asrwt>0</asrwt>
<pdfrwt beam="1">  1        2 0.81493083E-01 0.76443927E+03</pdfrwt>
<pdfrwt beam="2">  1       -2 0.42430536E-01 0.76443927E+03</pdfrwt>
<totfact> 0.36572501E+02</totfact>
</mgrwt>
<rwgt>
<wgt id='morphing_basis_vector_1'> +2.4198919e-04 </wgt>
<wgt id='morphing_basis_vector_2'> +3.0288284e-04 </wgt>
<wgt id='morphing_basis_vector_3'> +1.9021195e-04 </wgt>
<wgt id='morphing_basis_vector_4'> +7.5686221e-06 </wgt>
<wgt id='morphing_basis_vector_5'> +1.2849485e-04 </wgt>
</rwgt>
</event>
<event>
 4      1 +2.9741700e-06 7.84725700e+02 7.81860800e-03 8.92160400e-02
        2 -1    0    0  501    0 +0.0000000000e+00 +0.0000000000e+00 +2.4665272843e+03 2.4665272843e+03 0.0000000000e+00 0.0000e+00 -1.0000e+00
       -2 -1    0    0    0  501 -0.0000000000e+00 -0.0000000000e+00 -6.2415123790e+01 6.2415123790e+01 0.0000000000e+00 0.0000e+00 1.0000e+00
      -13  1    1    2    0    0 -3.0901237334e+02 -2.3265390519e+02 +9.8994113577e+02 1.0628263916e+03 0.0000000000e+00 0.0000e+00 1.0000e+00
       13  1    1    2    0    0 +3.0901237334e+02 +2.3265390519e+02 +1.4141710247e+03 1.4661160164e+03 0.0000000000e+00 0.0000e+00 -1.0000e+00
<mgrwt>
<rscale>  0 0.78472570E+03</rscale>
<asrwt>0</asrwt>
<pdfrwt beam="1">  1        2 0.37946566E+00 0.78472570E+03</pdfrwt>
<pdfrwt beam="2">  1       -2 0.96023286E-02 0.78472570E+03</pdfrwt>
<totfact> 0.30082466E+02</totfact>
</mgrwt>
<rwgt>
<wgt id='morphing_basis_vector_1'> +1.9871981e-04 </wgt>
<wgt id='morphing_basis_vector_2'> +1.2822004e-04 </wgt>
<wgt id='morphing_basis_vector_3'> +1.7604981e-04 </wgt>
<wgt id='morphing_basis_vector_4'> +9.0182928e-05 </wgt>
<wgt id='morphing_basis_vector_5'> +1.4805016e-04 </wgt>
</rwgt>
</event>
<event>
 4      1 +2.9741700e-06 8.10610600e+02 7.81860800e-03 8.88907600e-02
        2 -1    0    0  501    0 +0.0000000000e+00 +0.0000000000e+00 +1.3796669575e+03 1.3796669575e+03 0.0000000000e+00 0.0000e+00 -1.0000e+00
       -2 -1    0    0    0  501 -0.0000000000e+00 -0.0000000000e+00 -1.1906670765e+02 1.1906670765e+02 0.0000000000e+00 0.0000e+00 1.0000e+00
      -13  1    1    2    0    0 -3.0748767139e+02 -3.0352434027e+01 +1.4533092384e+02 3.4145426595e+02 0.0000000000e+00 0.0000e+00 1.0000e+00
       13  1    1    2    0    0 +3.0748767139e+02 +3.0352434027e+01 +1.1152693260e+03 1.1572793992e+03 0.0000000000e+00 0.0000e+00 -1.0000e+00
<mgrwt>
<rscale>  0 0.81061064E+03</rscale>
<asrwt>0</asrwt>
<pdfrwt beam="1">  1        2 0.21225644E+00 0.81061064E+03</pdfrwt>
<pdfrwt beam="2">  1       -2 0.18317956E-01 0.81061064E+03</pdfrwt>
<totfact> 0.42960097E+02</totfact>
</mgrwt>
<rwgt>
<wgt id='morphing_basis_vector_1'> +2.1920849e-04 </wgt>
<wgt id='morphing_basis_vector_2'> +1.3327057e-04 </wgt>
<wgt id='morphing_basis_vector_3'> +1.9773157e-04 </wgt>
<wgt id='morphing_basis_vector_4'> +1.0909051e-04 </wgt>
<wgt id='morphing_basis_vector_5'> +1.7189952e-04 </wgt>
</rwgt>
</event>
<event>
 4      1 +2.9741700e-06 7.83893100e+02 7.81860800e-03 8.92267200e-02
        2 -1    0    0  501    0 +0.0000000000e+00 +0.0000000000e+00 +1.2239225500e+03 1.2239225500e+03 0.0000000000e+00 0.0000e+00 -1.0000e+00
       -2 -1    0    0    0  501 -0.0000000000e+00 -0.0000000000e+00 -1.2551618320e+02 1.2551618320e+02 0.0000000000e+00 0.0000e+00 1.0000e+00
      -13  1    1    2    0    0 -5.0796695204e+01 -3.8370549758e+02 +4.4291974203e+02 5.8820754075e+02 0.0000000000e+00 0.0000e+00 1.0000e+00
       13  1    1    2    0    0 +5.0796695204e+01 +3.8370549758e+02 +6.5548662478e+02 7.6123119246e+02 0.0000000000e+00 0.0000e+00 -1.0000e+00
<mgrwt>
<rscale>  0 0.78389307E+03</rscale>
<asrwt>0</asrwt>
<pdfrwt beam="1">  1        2 0.18829577E+00 0.78389307E+03</pdfrwt>
<pdfrwt beam="2">  1       -2 0.19310183E-01 0.78389307E+03</pdfrwt>
<totfact> 0.48314025E+02</totfact>
</mgrwt>
<rwgt>
<wgt id='morphing_basis_vector_1'> +1.9812466e-04 </wgt>
<wgt id='morphing_basis_vector_2'> +1.2816982e-04 </wgt>
<wgt id='morphing_basis_vector_3'> +1.7539957e-04 </wgt>
<wgt id='morphing_basis_vector_4'> +8.9570562e-05 </wgt>
<wgt id='morphing_basis_vector_5'> +1.4732365e-04 </wgt>
</rwgt>
</event>
<event>
 4      1 +2.9741700e-06 8.86491800e+02 7.81860800e-03 8.80066300e-02
        2 -1    0    0  501    0 +0.0000000000e+00 +0.0000000000e+00 +1.2433797414e+03 1.2433797414e+03 0.0000000000e+00 0.0000e+00 -1.0000e+00
       -2 -1    0    0    0  501 -0.0000000000e+00 -0.0000000000e+00 -1.5801041073e+02 1.5801041073e+02 0.0000000000e+00 0.0000e+00 1.0000e+00
      -13  1    1    2    0    0 +1.1527183959e+02 +2.9376816642e+02 +5.0644546946e+01 3.1961258226e+02 0.0000000000e+00 0.0000e+00 1.0000e+00
       13  1    1    2    0    0 -1.1527183959e+02 -2.9376816642e+02 +1.0347247837e+03 1.0817775698e+03 0.0000000000e+00 0.0000e+00 -1.0000e+00
<mgrwt>
<rscale>  0 0.88649184E+03</rscale>
<asrwt>0</asrwt>
<pdfrwt beam="1">  1        2 0.19128918E+00 0.88649184E+03</pdfrwt>
<pdfrwt beam="2">  1       -2 0.24309295E-01 0.88649184E+03</pdfrwt>
<totfact> 0.31771478E+02</totfact>
</mgrwt>
<rwgt>
<wgt id='morphing_basis_vector_1'> +3.0201308e-04 </wgt>
<wgt id='morphing_basis_vector_2'> +1.8610545e-04 </wgt>
<wgt id='morphing_basis_vector_3'> +2.8075419e-04 </wgt>
<wgt id='morphing_basis_vector_4'> +1.6261353e-04 </wgt>
<wgt id='morphing_basis_vector_5'> +2.5703572e-04 </wgt>
</rwgt>
</event>
<event>
 4      1 +2.9741700e-06 7.62797300e+02 7.81860800e-03 8.95021900e-02
        2 -1    0    0  501    0 +0.0000000000e+00 +0.0000000000e+00 +1.8094973649e+03 1.8094973649e+03 0.0000000000e+00 0.0000e+00 -1.0000e+00
       -2 -1    0    0    0  501 -0.0000000000e+00 -0.0000000000e+00 -8.0389690296e+01 8.0389690296e+01 0.0000000000e+00 0.0000e+00 1.0000e+00
      -13  1    1    2    0    0 -1.9607925588e+02 -3.1486952973e+02 +1.0844172741e+03 1.1461024037e+03 0.0000000000e+00 0.0000e+00 1.0000e+00
       13  1    1    2    0    0 +1.9607925588e+02 +3.1486952973e+02 +6.4469040050e+02 7.4378465152e+02 0.0000000000e+00 0.0000e+00 -1.0000e+00
<mgrwt>
<rscale>  0 0.76279731E+03</rscale>
<asrwt>0</asrwt>
<pdfrwt beam="1">  1        2 0.27838418E+00 0.76279731E+03</pdfrwt>
<pdfrwt beam="2">  1       -2 0.12367646E-01 0.76279731E+03</pdfrwt>
<totfact> 0.47208597E+02</totfact>
</mgrwt>
<rwgt>
<wgt id='morphing_basis_vector_1'> +1.9042398e-04 </wgt>
<wgt id='morphing_basis_vector_2'> +1.4787491e-04 </wgt>
<wgt id='morphing_basis_vector_3'> +1.6291434e-04 </wgt>
<wgt id='morphing_basis_vector_4'> +6.6773282e-05 </wgt>
<wgt id='morphing_basis_vector_5'> +1.2946282e-04 </wgt>
</rwgt>
</event>
<event>
 4      1 +2.9741700e-06 7.60542100e+02 7.81860800e-03 8.95322000e-02
        2 -1    0    0  501    0 +0.0000000000e+00 +0.0000000000e+00 +9.2759636839e+02 9.2759636839e+02 0.0000000000e+00 0.0000e+00 1.0000e+00
       -2 -1    0    0    0  501 -0.0000000000e+00 -0.0000000000e+00 -1.5589333180e+02 1.5589333180e+02 0.0000000000e+00 0.0000e+00 -1.0000e+00
      -13  1    1    2    0    0 -1.6886638162e+02 -9.4987408923e+01 -8.0303740842e+01 2.0973114572e+02 0.0000000000e+00 0.0000e+00 -1.0000e+00
       13  1    1    2    0    0 +1.6886638162e+02 +9.4987408923e+01 +8.5200677744e+02 8.7375855446e+02 0.0000000000e+00 0.0000e+00 1.0000e+00
<mgrwt>
<rscale>  0 0.76054214E+03</rscale>
<asrwt>0</asrwt>
<pdfrwt beam="1">  1        2 0.14270713E+00 0.76054214E+03</pdfrwt>
<pdfrwt beam="2">  1       -2 0.23983590E-01 0.76054214E+03</pdfrwt>
<totfact> 0.50707051E+02</totfact>
</mgrwt>
<rwgt>
<wgt id='morphing_basis_vector_1'> +1.7478623e-04 </wgt>
<wgt id='morphing_basis_vector_2'> +1.0431603e-04 </wgt>
<wgt id='morphing_basis_vector_3'> +1.5405095e-04 </wgt>
<wgt id='morphing_basis_vector_4'> +8.2110574e-05 </wgt>
<wgt id='morphing_basis_vector_5'> +1.2830786e-04 </wgt>
</rwgt>
</event>
<event>
 4      1 +2.9741700e-06 7.91792000e+02 7.81860800e-03 8.91259300e-02
        2 -1    0    0  501    0 +0.0000000000e+00 +0.0000000000e+00 +1.5831497337e+03 1.5831497337e+03 0.0000000000e+00 0.0000e+00 -1.0000e+00
       -2 -1    0    0    0  501 -0.0000000000e+00 -0.0000000000e+00 -9.9001147549e+01 9.9001147549e+01 0.0000000000e+00 0.0000e+00 1.0000e+00
      -13  1    1    2    0    0 +1.9573033023e+02 +2.7826195677e+02 +3.1193247381e+02 4.6156467258e+02 0.0000000000e+00 0.0000e+00 1.0000e+00
       13  1    1    2    0    0 -1.9573033023e+02 -2.7826195677e+02 +1.1722161123e+03 1.2205862086e+03 0.0000000000e+00 0.0000e+00 -1.0000e+00
<mgrwt>
<rscale>  0 0.79179199E+03</rscale>
<asrwt>0</asrwt>
<pdfrwt beam="1">  1        2 0.24356148E+00 0.79179199E+03</pdfrwt>
<pdfrwt beam="2">  1       -2 0.15230947E-01 0.79179199E+03</pdfrwt>
<totfact> 0.44860418E+02</totfact>
</mgrwt>
<rwgt>
<wgt id='morphing_basis_vector_1'> +2.0214937e-04 </wgt>
<wgt id='morphing_basis_vector_2'> +1.2347244e-04 </wgt>
<wgt id='morphing_basis_vector_3'> +1.8065113e-04 </wgt>
<wgt id='morphing_basis_vector_4'> +9.7591751e-05 </wgt>
<wgt id='morphing_basis_vector_5'> +1.5440884e-04 </wgt>
</rwgt>
</event>
<event>
 4      1 +2.9741700e-06 8.08336900e+02 7.81860800e-03 8.89188100e-02
        2 -1    0    0  501    0 +0.0000000000e+00 +0.0000000000e+00 +4.9092652411e+02 4.9092652411e+02 0.0000000000e+00 0.0000e+00 -1.0000e+00
       -2 -1    0    0    0  501 -0.0000000000e+00 -0.0000000000e+00 -3.3274255532e+02 3.3274255532e+02 0.0000000000e+00 0.0000e+00 1.0000e+00
      -13  1    1    2    0    0 +1.3262091636e+02 +2.8233643423e+02 -1.8278460659e+02 3.6154167389e+02 0.0000000000e+00 0.0000e+00 1.0000e+00
       13  1    1    2    0    0 -1.3262091636e+02 -2.8233643423e+02 +3.4096857539e+02 4.6212740554e+02 0.0000000000e+00 0.0000e+00 -1.0000e+00
<mgrwt>
<rscale>  0 0.80833693E+03</rscale>
<asrwt>0</asrwt>
<pdfrwt beam="1">  1        2 0.75527157E-01 0.80833693E+03</pdfrwt>
<pdfrwt beam="2">  1       -2 0.51191163E-01 0.80833693E+03</pdfrwt>
<totfact> 0.27746760E+02</totfact>
</mgrwt>
<rwgt>
<wgt id='morphing_basis_vector_1'> +2.1706248e-04 </wgt>
<wgt id='morphing_basis_vector_2'> +1.3197241e-04 </wgt>
<wgt id='morphing_basis_vector_3'> +1.9559011e-04 </wgt>
<wgt id='morphing_basis_vector_4'> +1.0768525e-04 </wgt>
<wgt id='morphing_basis_vector_5'> +1.6971546e-04 </wgt>
</rwgt>
</event>
<event>
 4      1 +2.9741700e-06 7.87058900e+02 7.81860800e-03 8.91861800e-02
        2 -1    0    0  501    0 +0.0000000000e+00 +0.0000000000e+00 +4.1774452405e+02 4.1774452405e+02 0.0000000000e+00 0.0000e+00 -1.0000e+00
       -2 -1    0    0    0  501 -0.0000000000e+00 -0.0000000000e+00 -3.7071801005e+02 3.7071801005e+02 0.0000000000e+00 0.0000e+00 1.0000e+00
      -13  1    1    2    0    0 -1.3909908318e+02 -2.7274005913e+02 -2.2417194331e+02 3.7945850229e+02 0.0000000000e+00 0.0000e+00 1.0000e+00
       13  1    1    2    0    0 +1.3909908318e+02 +2.7274005913e+02 +2.7119845731e+02 4.0900403181e+02 0.0000000000e+00 0.0000e+00 -1.0000e+00
<mgrwt>
<rscale>  0 0.78705888E+03</rscale>
<asrwt>0</asrwt>
<pdfrwt beam="1">  1        2 0.64268388E-01 0.78705888E+03</pdfrwt>
<pdfrwt beam="2">  1       -2 0.57033540E-01 0.78705888E+03</pdfrwt>
<totfact> 0.26882975E+02</totfact>
</mgrwt>
<rwgt>
<wgt id='morphing_basis_vector_1'> +1.9751808e-04 </wgt>
<wgt id='morphing_basis_vector_2'> +1.1953926e-04 </wgt>
<wgt id='morphing_basis_vector_3'> +1.7624389e-04 </wgt>
<wgt id='morphing_basis_vector_4'> +9.5477030e-05 </wgt>
<wgt id='morphing_basis_vector_5'> +1.5024588e-04 </wgt>
</rwgt>
</event>
<event>
 4      1 +2.9741700e-06 7.67444200e+02 7.81860800e-03 8.94407100e-02
        2 -1    0    0  501    0 +0.0000000000e+00 +0.0000000000e+00 +8.0743948504e+02 8.0743948504e+02 0.0000000000e+00 0.0000e+00 -1.0000e+00
       -2 -1    0    0    0  501 -0.0000000000e+00 -0.0000000000e+00 -1.8235750983e+02 1.8235750983e+02 0.0000000000e+00 0.0000e+00 1.0000e+00
      -13  1    1    2    0    0 -2.0813474472e+02 +2.4313929033e+02 +3.9538401183e+01 3.2249042099e+02 0.0000000000e+00 0.0000e+00 1.0000e+00
       13  1    1    2    0    0 +2.0813474472e+02 -2.4313929033e+02 +5.8554357403e+02 6.6730657388e+02 0.0000000000e+00 0.0000e+00 -1.0000e+00
<mgrwt>
<rscale>  0 0.76744421E+03</rscale>
<asrwt>0</asrwt>
<pdfrwt beam="1">  1        2 0.12422146E+00 0.76744421E+03</pdfrwt>
<pdfrwt beam="2">  1       -2 0.28055002E-01 0.76744421E+03</pdfrwt>
<totfact> 0.46488114E+02</totfact>
</mgrwt>
<rwgt>
<wgt id='morphing_basis_vector_1'> +1.8094806e-04 </wgt>
<wgt id='morphing_basis_vector_2'> +1.0951747e-04 </wgt>
<wgt id='morphing_basis_vector_3'> +1.5984246e-04 </wgt>
<wgt id='morphing_basis_vector_4'> +8.4907054e-05 </wgt>
<wgt id='morphing_basis_vector_5'> +1.3376019e-04 </wgt>
</rwgt>
</event>
<event>
 4      1 +2.9741700e-06 7.89284900e+02 7.81860800e-03 8.91577900e-02
        2 -1    0    0  501    0 +0.0000000000e+00 +0.0000000000e+00 +6.5286993897e+02 6.5286993897e+02 0.0000000000e+00 0.0000e+00 1.0000e+00
       -2 -1    0    0    0  501 -0.0000000000e+00 -0.0000000000e+00 -2.3855084476e+02 2.3855084476e+02 0.0000000000e+00 0.0000e+00 -1.0000e+00
      -13  1    1    2    0    0 -5.7993972286e+01 +2.8983746836e+02 +5.0247979241e+02 5.8297084032e+02 0.0000000000e+00 0.0000e+00 1.0000e+00
       13  1    1    2    0    0 +5.7993972286e+01 -2.8983746836e+02 -8.8160698193e+01 3.0844994341e+02 0.0000000000e+00 0.0000e+00 -1.0000e+00
<mgrwt>
<rscale>  0 0.78928493E+03</rscale>
<asrwt>0</asrwt>
<pdfrwt beam="1">  1        2 0.10044153E+00 0.78928493E+03</pdfrwt>
<pdfrwt beam="2">  1       -2 0.36700130E-01 0.78928493E+03</pdfrwt>
<totfact> 0.37417592E+02</totfact>
</mgrwt>
<rwgt>
<wgt id='morphing_basis_vector_1'> +2.5145271e-04 </wgt>
<wgt id='morphing_basis_vector_2'> +2.8000921e-04 </wgt>
<wgt id='morphing_basis_vector_3'> +2.0798395e-04 </wgt>
<wgt id='morphing_basis_vector_4'> +3.2148883e-05 </wgt>
<wgt id='morphing_basis_vector_5'> +1.4953929e-04 </wgt>
</rwgt>
</event>
<event>
 4      1 +2.9741700e-06 7.72288200e+02 7.81860800e-03 8.93771000e-02
        2 -1    0    0  501    0 +0.0000000000e+00 +0.0000000000e+00 +8.8940108134e+02 8.8940108134e+02 0.0000000000e+00 0.0000e+00 -1.0000e+00
       -2 -1    0    0    0  501 -0.0000000000e+00 -0.0000000000e+00 -1.6764908946e+02 1.6764908946e+02 0.0000000000e+00 0.0000e+00 1.0000e+00
      -13  1    1    2    0    0 -1.5907628182e+02 +1.1810134125e+02 -9.2777536371e+01 2.1877125382e+02 0.0000000000e+00 0.0000e+00 1.0000e+00
       13  1    1    2    0    0 +1.5907628182e+02 -1.1810134125e+02 +8.1452952826e+02 8.3827891698e+02 0.0000000000e+00 0.0000e+00 -1.0000e+00
<mgrwt>
<rscale>  0 0.77228824E+03</rscale>
<asrwt>0</asrwt>
<pdfrwt beam="1">  1        2 0.13683093E+00 0.77228824E+03</pdfrwt>
<pdfrwt beam="2">  1       -2 0.25792168E-01 0.77228824E+03</pdfrwt>
<totfact> 0.47371058E+02</totfact>
</mgrwt>
<rwgt>
<wgt id='morphing_basis_vector_1'> +1.8443965e-04 </wgt>
<wgt id='morphing_basis_vector_2'> +1.1040978e-04 </wgt>
<wgt id='morphing_basis_vector_3'> +1.6351639e-04 </wgt>
<wgt id='morphing_basis_vector_4'> +8.8032035e-05 </wgt>
<wgt id='morphing_basis_vector_5'> +1.3772742e-04 </wgt>
</rwgt>
</event>
<event>
 4      1 +2.9741700e-06 7.99410000e+02 7.81860800e-03 8.90299100e-02
        2 -1    0    0  501    0 +0.0000000000e+00 +0.0000000000e+00 +1.9980459754e+02 1.9980459754e+02 0.0000000000e+00 0.0000e+00 1.0000e+00
       -2 -1    0    0    0  501 -0.0000000000e+00 -0.0000000000e+00 -7.9960160248e+02 7.9960160248e+02 0.0000000000e+00 0.0000e+00 -1.0000e+00
      -13  1    1    2    0    0 +3.8366933895e+02 -4.0298498915e+01 -4.3064809942e+02 5.7817291203e+02 0.0000000000e+00 0.0000e+00 -1.0000e+00
       13  1    1    2    0    0 -3.8366933895e+02 +4.0298498915e+01 -1.6914890552e+02 4.2123328798e+02 0.0000000000e+00 0.0000e+00 1.0000e+00
<mgrwt>
<rscale>  0 0.79940997E+03</rscale>
<asrwt>0</asrwt>
<pdfrwt beam="1">  1        2 0.30739168E-01 0.79940997E+03</pdfrwt>
<pdfrwt beam="2">  1       -2 0.12301563E+00 0.79940997E+03</pdfrwt>
<totfact> 0.10671229E+02</totfact>
</mgrwt>
<rwgt>
<wgt id='morphing_basis_vector_1'> +2.1095811e-04 </wgt>
<wgt id='morphing_basis_vector_2'> +1.3359445e-04 </wgt>
<wgt id='morphing_basis_vector_3'> +1.8863845e-04 </wgt>
<wgt id='morphing_basis_vector_4'> +9.9568409e-05 </wgt>
<wgt id='morphing_basis_vector_5'> +1.6121729e-04 </wgt>
</rwgt>
</event>
<event>
 4      1 +2.9741700e-06 8.13411300e+02 7.81860800e-03 8.88563300e-02
        2 -1    0    0  501    0 +0.0000000000e+00 +0.0000000000e+00 +6.9160920417e+02 6.9160920417e+02 0.0000000000e+00 0.0000e+00 -1.0000e+00
       -2 -1    0    0    0  501 -0.0000000000e+00 -0.0000000000e+00 -2.3916611717e+02 2.3916611717e+02 0.0000000000e+00 0.0000e+00 1.0000e+00
      -13  1    1    2    0    0 -3.7464424231e+02 -9.6649217968e+01 +8.2796745992e+01 3.9566991391e+02 0.0000000000e+00 0.0000e+00 1.0000e+00
       13  1    1    2    0    0 +3.7464424231e+02 +9.6649217968e+01 +3.6964634101e+02 5.3510540742e+02 0.0000000000e+00 0.0000e+00 -1.0000e+00
<mgrwt>
<rscale>  0 0.81341131E+03</rscale>
<asrwt>0</asrwt>
<pdfrwt beam="1">  1        2 0.10640142E+00 0.81341131E+03</pdfrwt>
<pdfrwt beam="2">  1       -2 0.36794788E-01 0.81341131E+03</pdfrwt>
<totfact> 0.34696020E+02</totfact>
</mgrwt>
<rwgt>
<wgt id='morphing_basis_vector_1'> +2.2386442e-04 </wgt>
<wgt id='morphing_basis_vector_2'> +1.4097133e-04 </wgt>
<wgt id='morphing_basis_vector_3'> +2.0163715e-04 </wgt>
<wgt id='morphing_basis_vector_4'> +1.0828023e-04 </wgt>
<wgt id='morphing_basis_vector_5'> +1.7450411e-04 </wgt>
</rwgt>
</event>
<event>
 4      1 +2.9741700e-06 8.41139400e+02 7.81860800e-03 8.85232500e-02
        2 -1    0    0  501    0 +0.0000000000e+00 +0.0000000000e+00 +6.1145422610e+02 6.1145422610e+02 0.0000000000e+00 0.0000e+00 1.0000e+00
       -2 -1    0    0    0  501 -0.0000000000e+00 -0.0000000000e+00 -2.8927574125e+02 2.8927574125e+02 0.0000000000e+00 0.0000e+00 -1.0000e+00
      -13  1    1    2    0    0 +2.4394859945e+02 +1.3886441205e+02 -1.7428299883e+02 3.3040703350e+02 0.0000000000e+00 0.0000e+00 -1.0000e+00
       13  1    1    2    0    0 -2.4394859945e+02 -1.3886441205e+02 +4.9646148368e+02 5.7032293386e+02 0.0000000000e+00 0.0000e+00 1.0000e+00
<mgrwt>
<rscale>  0 0.84113940E+03</rscale>
<asrwt>0</asrwt>
<pdfrwt beam="1">  1        2 0.94069881E-01 0.84113940E+03</pdfrwt>
<pdfrwt beam="2">  1       -2 0.44503960E-01 0.84113940E+03</pdfrwt>
<totfact> 0.28163352E+02</totfact>
</mgrwt>
<rwgt>
<wgt id='morphing_basis_vector_1'> +2.4988200e-04 </wgt>
<wgt id='morphing_basis_vector_2'> +1.5236266e-04 </wgt>
<wgt id='morphing_basis_vector_3'> +2.2837643e-04 </wgt>
<wgt id='morphing_basis_vector_4'> +1.2899764e-04 </wgt>
<wgt id='morphing_basis_vector_5'> +2.0321387e-04 </wgt>
</rwgt>
</event>
<event>
 4      1 +2.9741700e-06 8.31751300e+02 7.81860800e-03 8.86344900e-02
        2 -1    0    0  501    0 +0.0000000000e+00 +0.0000000000e+00 +7.4829655231e+02 7.4829655231e+02 0.0000000000e+00 0.0000e+00 1.0000e+00
       -2 -1    0    0    0  501 -0.0000000000e+00 -0.0000000000e+00 -2.3112836974e+02 2.3112836974e+02 0.0000000000e+00 0.0000e+00 -1.0000e+00
      -13  1    1    2    0    0 -1.6654689579e+02 +1.6940237627e+02 +6.6053525206e+02 7.0195573421e+02 0.0000000000e+00 0.0000e+00 1.0000e+00
       13  1    1    2    0    0 +1.6654689579e+02 -1.6940237627e+02 -1.4336706949e+02 2.7746918783e+02 0.0000000000e+00 0.0000e+00 -1.0000e+00
<mgrwt>
<rscale>  0 0.83175131E+03</rscale>
<asrwt>0</asrwt>
<pdfrwt beam="1">  1        2 0.11512254E+00 0.83175131E+03</pdfrwt>
<pdfrwt beam="2">  1       -2 0.35558211E-01 0.83175131E+03</pdfrwt>
<totfact> 0.33474553E+02</totfact>
</mgrwt>
<rwgt>
<wgt id='morphing_basis_vector_1'> +3.2013333e-04 </wgt>
<wgt id='morphing_basis_vector_2'> +3.9082454e-04 </wgt>
<wgt id='morphing_basis_vector_3'> +2.7157354e-04 </wgt>
<wgt id='morphing_basis_vector_4'> +1.7160534e-05 </wgt>
<wgt id='morphing_basis_vector_5'> +1.8828731e-04 </wgt>
</rwgt>
</event>
<event>
 4      1 +2.9741700e-06 7.82768200e+02 7.81860800e-03 8.92411800e-02
        2 -1    0    0  501    0 +0.0000000000e+00 +0.0000000000e+00 +4.9517288049e+02 4.9517288049e+02 0.0000000000e+00 0.0000e+00 -1.0000e+00
       -2 -1    0    0    0  501 -0.0000000000e+00 -0.0000000000e+00 -3.0934958701e+02 3.0934958701e+02 0.0000000000e+00 0.0000e+00 1.0000e+00
      -13  1    1    2    0    0 -3.5844030263e+02 -6.6648233586e+00 -6.8479934650e+01 3.6498407070e+02 0.0000000000e+00 0.0000e+00 1.0000e+00
       13  1    1    2    0    0 +3.5844030263e+02 +6.6648233586e+00 +2.5430322813e+02 4.3953839679e+02 0.0000000000e+00 0.0000e+00 -1.0000e+00
<mgrwt>
<rscale>  0 0.78276823E+03</rscale>
<asrwt>0</asrwt>
<pdfrwt beam="1">  1        2 0.76180443E-01 0.78276823E+03</pdfrwt>
<pdfrwt beam="2">  1       -2 0.47592244E-01 0.78276823E+03</pdfrwt>
<totfact> 0.31709648E+02</totfact>
</mgrwt>
<rwgt>
<wgt id='morphing_basis_vector_1'> +1.9470220e-04 </wgt>
<wgt id='morphing_basis_vector_2'> +1.2006677e-04 </wgt>
<wgt id='morphing_basis_vector_3'> +1.7305898e-04 </wgt>
<wgt id='morphing_basis_vector_4'> +9.1971598e-05 </wgt>
<wgt id='morphing_basis_vector_5'> +1.4647651e-04 </wgt>
</rwgt>
</event>
<event>
 4      1 +2.9741700e-06 8.38395600e+02 7.81860800e-03 8.85556000e-02
        2 -1    0    0  501    0 +0.0000000000e+00 +0.0000000000e+00 +1.0412800760e+03 1.0412800760e+03 0.0000000000e+00 0.0000e+00 -1.0000e+00
       -2 -1    0    0    0  501 -0.0000000000e+00 -0.0000000000e+00 -1.6876037248e+02 1.6876037248e+02 0.0000000000e+00 0.0000e+00 1.0000e+00
      -13  1    1    2    0    0 +5.4186718319e+01 +3.4796658498e+02 +1.0806059507e+02 3.6836671527e+02 0.0000000000e+00 0.0000e+00 1.0000e+00
       13  1    1    2    0    0 -5.4186718319e+01 -3.4796658498e+02 +7.6445910849e+02 8.4167373326e+02 0.0000000000e+00 0.0000e+00 -1.0000e+00
<mgrwt>
<rscale>  0 0.83839564E+03</rscale>
<asrwt>0</asrwt>
<pdfrwt beam="1">  1        2 0.16019693E+00 0.83839564E+03</pdfrwt>
<pdfrwt beam="2">  1       -2 0.25963135E-01 0.83839564E+03</pdfrwt>
<totfact> 0.37450247E+02</totfact>
</mgrwt>
<rwgt>
<wgt id='morphing_basis_vector_1'> +2.4761031e-04 </wgt>
<wgt id='morphing_basis_vector_2'> +1.5244175e-04 </wgt>
<wgt id='morphing_basis_vector_3'> +2.2589904e-04 </wgt>
<wgt id='morphing_basis_vector_4'> +1.2629095e-04 </wgt>
<wgt id='morphing_basis_vector_5'> +2.0020485e-04 </wgt>
</rwgt>
</event>
<event>
 4      1 +2.9741700e-06 8.43332900e+02 7.81860800e-03 8.84974800e-02
        2 -1    0    0  501    0 +0.0000000000e+00 +0.0000000000e+00 +1.8074420167e+03 1.8074420167e+03 0.0000000000e+00 0.0000e+00 -1.0000e+00
       -2 -1    0    0    0  501 -0.0000000000e+00 -0.0000000000e+00 -9.8372498667e+01 9.8372498667e+01 0.0000000000e+00 0.0000e+00 1.0000e+00
      -13  1    1    2    0    0 -3.6956298951e+02 -1.9877391349e+02 +7.6095592494e+02 8.6898894792e+02 0.0000000000e+00 0.0000e+00 1.0000e+00
       13  1    1    2    0    0 +3.6956298951e+02 +1.9877391349e+02 +9.4811359305e+02 1.0368255674e+03 0.0000000000e+00 0.0000e+00 -1.0000e+00
<mgrwt>
<rscale>  0 0.84333288E+03</rscale>
<asrwt>0</asrwt>
<pdfrwt beam="1">  1        2 0.27806798E+00 0.84333288E+03</pdfrwt>
<pdfrwt beam="2">  1       -2 0.15134232E-01 0.84333288E+03</pdfrwt>
<totfact> 0.34012736E+02</totfact>
</mgrwt>
<rwgt>
<wgt id='morphing_basis_vector_1'> +2.5821449e-04 </wgt>
<wgt id='morphing_basis_vector_2'> +1.7215485e-04 </wgt>
<wgt id='morphing_basis_vector_3'> +2.3482022e-04 </wgt>
<wgt id='morphing_basis_vector_4'> +1.2249340e-04 </wgt>
<wgt id='morphing_basis_vector_5'> +2.0522902e-04 </wgt>
</rwgt>
</event>
<event>
 4      1 +2.9741700e-06 7.62800900e+02 7.81860800e-03 8.95021500e-02
        2 -1    0    0  501    0 +0.0000000000e+00 +0.0000000000e+00 +7.2126549452e+02 7.2126549452e+02 0.0000000000e+00 0.0000e+00 1.0000e+00
       -2 -1    0    0    0  501 -0.0000000000e+00 -0.0000000000e+00 -2.0168206663e+02 2.0168206663e+02 0.0000000000e+00 0.0000e+00 -1.0000e+00
      -13  1    1    2    0    0 +1.9485111995e+02 -1.1522701073e+02 -1.1160852951e+02 2.5238994989e+02 0.0000000000e+00 0.0000e+00 -1.0000e+00
       13  1    1    2    0    0 -1.9485111995e+02 +1.1522701073e+02 +6.3119195739e+02 6.7055761127e+02 0.0000000000e+00 0.0000e+00 1.0000e+00
<mgrwt>
<rscale>  0 0.76280093E+03</rscale>
<asrwt>0</asrwt>
<pdfrwt beam="1">  1        2 0.11096392E+00 0.76280093E+03</pdfrwt>
<pdfrwt beam="2">  1       -2 0.31028011E-01 0.76280093E+03</pdfrwt>
<totfact> 0.44887933E+02</totfact>
</mgrwt>
<rwgt>
<wgt id='morphing_basis_vector_1'> +1.7665227e-04 </wgt>
<wgt id='morphing_basis_vector_2'> +1.0559346e-04 </wgt>
<wgt id='morphing_basis_vector_3'> +1.5585879e-04 </wgt>
<wgt id='morphing_basis_vector_4'> +8.3176993e-05 </wgt>
<wgt id='morphing_basis_vector_5'> +1.3008042e-04 </wgt>
</rwgt>
</event>
<event>
 4      1 +2.9741700e-06 7.55932800e+02 7.81860800e-03 8.95938800e-02
        2 -1    0    0  501    0 +0.0000000000e+00 +0.0000000000e+00 +3.9374943283e+02 3.9374943283e+02 0.0000000000e+00 0.0000e+00 -1.0000e+00
       -2 -1    0    0    0  501 -0.0000000000e+00 -0.0000000000e+00 -3.6281601558e+02 3.6281601558e+02 0.0000000000e+00 0.0000e+00 1.0000e+00
      -13  1    1    2    0    0 +2.1228434141e+01 +3.7718633840e+02 +2.7241760750e+01 3.7876416650e+02 0.0000000000e+00 0.0000e+00 1.0000e+00
       13  1    1    2    0    0 -2.1228434141e+01 -3.7718633840e+02 +3.6916565011e+00 3.7780128192e+02 0.0000000000e+00 0.0000e+00 -1.0000e+00
<mgrwt>
<rscale>  0 0.75593280E+03</rscale>
<asrwt>0</asrwt>
<pdfrwt beam="1">  1        2 0.60576836E-01 0.75593280E+03</pdfrwt>
<pdfrwt beam="2">  1       -2 0.55817848E-01 0.75593280E+03</pdfrwt>
<totfact> 0.30056462E+02</totfact>
</mgrwt>
<rwgt>
<wgt id='morphing_basis_vector_1'> +1.7776760e-04 </wgt>
<wgt id='morphing_basis_vector_2'> +1.2244862e-04 </wgt>
<wgt id='morphing_basis_vector_3'> +1.5375596e-04 </wgt>
<wgt id='morphing_basis_vector_4'> +7.2032293e-05 </wgt>
<wgt id='morphing_basis_vector_5'> +1.2445554e-04 </wgt>
</rwgt>
</event>
<event>
 4      1 +2.9741700e-06 8.34504300e+02 7.81860800e-03 8.86017100e-02
        2 -1    0    0  501    0 +0.0000000000e+00 +0.0000000000e+00 +8.5059491325e+02 8.5059491325e+02 0.0000000000e+00 0.0000e+00 -1.0000e+00
       -2 -1    0    0    0  501 -0.0000000000e+00 -0.0000000000e+00 -2.0467949674e+02 2.0467949674e+02 0.0000000000e+00 0.0000e+00 1.0000e+00
      -13  1    1    2    0    0 -3.8282087204e+02 -4.8994787498e+01 +1.2242731939e+02 4.0489598393e+02 0.0000000000e+00 0.0000e+00 1.0000e+00
       13  1    1    2    0    0 +3.8282087204e+02 +4.8994787498e+01 +5.2348809712e+02 6.5037842607e+02 0.0000000000e+00 0.0000e+00 -1.0000e+00
<mgrwt>
<rscale>  0 0.83450426E+03</rscale>
<asrwt>0</asrwt>
<pdfrwt beam="1">  1        2 0.13086075E+00 0.83450426E+03</pdfrwt>
<pdfrwt beam="2">  1       -2 0.31489154E-01 0.83450426E+03</pdfrwt>
<totfact> 0.35334019E+02</totfact>
</mgrwt>
<rwgt>
<wgt id='morphing_basis_vector_1'> +2.4456942e-04 </wgt>
<wgt id='morphing_basis_vector_2'> +1.5299996e-04 </wgt>
<wgt id='morphing_basis_vector_3'> +2.2251283e-04 </wgt>
<wgt id='morphing_basis_vector_4'> +1.2231628e-04 </wgt>
<wgt id='morphing_basis_vector_5'> +1.9598407e-04 </wgt>
</rwgt>
</event>
<event>
 4      1 +2.9741700e-06 7.71559100e+02 7.81860800e-03 8.93866400e-02
        2 -1    0    0  501    0 +0.0000000000e+00 +0.0000000000e+00 +1.2506970928e+03 1.2506970928e+03 0.0000000000e+00 0.0000e+00 1.0000e+00
       -2 -1    0    0    0  501 -0.0000000000e+00 -0.0000000000e+00 -1.1899434013e+02 1.1899434013e+02 0.0000000000e+00 0.0000e+00 -1.0000e+00
      -13  1    1    2    0    0 -1.3785258484e+02 -1.5761549499e+02 +1.1410351024e+03 1.1600892570e+03 0.0000000000e+00 0.0000e+00 1.0000e+00
       13  1    1    2    0    0 +1.3785258484e+02 +1.5761549499e+02 -9.3323496632e+00 2.0960217594e+02 0.0000000000e+00 0.0000e+00 -1.0000e+00
<mgrwt>
<rscale>  0 0.77155914E+03</rscale>
<asrwt>0</asrwt>
<pdfrwt beam="1">  1        2 0.19241493E+00 0.77155914E+03</pdfrwt>
<pdfrwt beam="2">  1       -2 0.18306822E-01 0.77155914E+03</pdfrwt>
<totfact> 0.50978274E+02</totfact>
</mgrwt>
<rwgt>
<wgt id='morphing_basis_vector_1'> +2.4628441e-04 </wgt>
<wgt id='morphing_basis_vector_2'> +3.0163059e-04 </wgt>
<wgt id='morphing_basis_vector_3'> +1.9620921e-04 </wgt>
<wgt id='morphing_basis_vector_4'> +1.2191653e-05 </wgt>
<wgt id='morphing_basis_vector_5'> +1.3420140e-04 </wgt>
</rwgt>
</event>
<event>
 4      1 +2.9741700e-06 8.39974700e+02 7.81860800e-03 8.85369700e-02
        2 -1    0    0  501    0 +0.0000000000e+00 +0.0000000000e+00 +5.0791229066e+02 5.0791229066e+02 0.0000000000e+00 0.0000e+00 -1.0000e+00
       -2 -1    0    0    0  501 -0.0000000000e+00 -0.0000000000e+00 -3.4728311886e+02 3.4728311886e+02 0.0000000000e+00 0.0000e+00 1.0000e+00
      -13  1    1    2    0    0 -2.5851888619e+02 +2.7406731398e+02 -1.0864061099e+02 3.9210673224e+02 0.0000000000e+00 0.0000e+00 1.0000e+00
       13  1    1    2    0    0 +2.5851888619e+02 -2.7406731398e+02 +2.6926978279e+02 4.6308867729e+02 0.0000000000e+00 0.0000e+00 -1.0000e+00
<mgrwt>
<rscale>  0 0.83997468E+03</rscale>
<asrwt>0</asrwt>
<pdfrwt beam="1">  1        2 0.78140353E-01 0.83997468E+03</pdfrwt>
<pdfrwt beam="2">  1       -2 0.53428172E-01 0.83997468E+03</pdfrwt>
<totfact> 0.24484232E+02</totfact>
</mgrwt>
<rwgt>
<wgt id='morphing_basis_vector_1'> +2.4986994e-04 </wgt>
<wgt id='morphing_basis_vector_2'> +1.5531263e-04 </wgt>
<wgt id='morphing_basis_vector_3'> +2.2797006e-04 </wgt>
<wgt id='morphing_basis_vector_4'> +1.2657332e-04 </wgt>
<wgt id='morphing_basis_vector_5'> +2.0187245e-04 </wgt>
</rwgt>
</event>
<event>
 4      1 +2.9741700e-06 8.15389900e+02 7.81860800e-03 8.88321000e-02
        2 -1    0    0  501    0 +0.0000000000e+00 +0.0000000000e+00 +4.7908423641e+02 4.7908423641e+02 0.0000000000e+00 0.0000e+00 -1.0000e+00
       -2 -1    0    0    0  501 -0.0000000000e+00 -0.0000000000e+00 -3.4694352255e+02 3.4694352255e+02 0.0000000000e+00 0.0000e+00 1.0000e+00
      -13  1    1    2    0    0 +1.2625532296e+02 +1.9791226186e+02 +4.0374394940e+02 4.6703195463e+02 0.0000000000e+00 0.0000e+00 -1.0000e+00
       13  1    1    2    0    0 -1.2625532296e+02 -1.9791226186e+02 -2.7160323554e+02 3.5899580433e+02 0.0000000000e+00 0.0000e+00 1.0000e+00
<mgrwt>
<rscale>  0 0.81538990E+03</rscale>
<asrwt>0</asrwt>
<pdfrwt beam="1">  1        2 0.73705267E-01 0.81538990E+03</pdfrwt>
<pdfrwt beam="2">  1       -2 0.53375927E-01 0.81538990E+03</pdfrwt>
<totfact> 0.26257083E+02</totfact>
</mgrwt>
<rwgt>
<wgt id='morphing_basis_vector_1'> +2.9794179e-04 </wgt>
<wgt id='morphing_basis_vector_2'> +3.6292940e-04 </wgt>
<wgt id='morphing_basis_vector_3'> +2.4894929e-04 </wgt>
<wgt id='morphing_basis_vector_4'> +1.6421145e-05 </wgt>
<wgt id='morphing_basis_vector_5'> +1.7229508e-04 </wgt>
</rwgt>
</event>
<event>
 4      1 +2.9741700e-06 8.74698900e+02 7.81860800e-03 8.81377900e-02
        2 -1    0    0  501    0 +0.0000000000e+00 +0.0000000000e+00 +1.3482606194e+03 1.3482606194e+03 0.0000000000e+00 0.0000e+00 1.0000e+00
       -2 -1    0    0    0  501 -0.0000000000e+00 -0.0000000000e+00 -1.4186763186e+02 1.4186763186e+02 0.0000000000e+00 0.0000e+00 -1.0000e+00
      -13  1    1    2    0    0 +4.1478073655e+02 -1.1411407651e+02 +4.6895339696e+02 6.3638225179e+02 0.0000000000e+00 0.0000e+00 -1.0000e+00
       13  1    1    2    0    0 -4.1478073655e+02 +1.1411407651e+02 +7.3743959061e+02 8.5374599951e+02 0.0000000000e+00 0.0000e+00 1.0000e+00
<mgrwt>
<rscale>  0 0.87469890E+03</rscale>
<asrwt>0</asrwt>
<pdfrwt beam="1">  1        2 0.20742470E+00 0.87469890E+03</pdfrwt>
<pdfrwt beam="2">  1       -2 0.21825790E-01 0.87469890E+03</pdfrwt>
<totfact> 0.33268762E+02</totfact>
</mgrwt>
<rwgt>
<wgt id='morphing_basis_vector_1'> +2.9256890e-04 </wgt>
<wgt id='morphing_basis_vector_2'> +1.9162833e-04 </wgt>
<wgt id='morphing_basis_vector_3'> +2.6993852e-04 </wgt>
<wgt id='morphing_basis_vector_4'> +1.4659354e-04 </wgt>
<wgt id='morphing_basis_vector_5'> +2.4181282e-04 </wgt>
</rwgt>
</event>
<event>
 4      1 +2.9741700e-06 8.08385400e+02 7.81860800e-03 8.89182100e-02
        2 -1    0    0  501    0 +0.0000000000e+00 +0.0000000000e+00 +1.3861252746e+03 1.3861252746e+03 0.0000000000e+00 0.0000e+00 -1.0000e+00
       -2 -1    0    0    0  501 -0.0000000000e+00 -0.0000000000e+00 -1.1786216911e+02 1.1786216911e+02 0.0000000000e+00 0.0000e+00 1.0000e+00
      -13  1    1    2    0    0 -1.6344660462e+02 +3.2742082823e+02 +9.5342289129e+02 1.0212415977e+03 0.0000000000e+00 0.0000e+00 1.0000e+00
       13  1    1    2    0    0 +1.6344660462e+02 -3.2742082823e+02 +3.1484021419e+02 4.8274584596e+02 0.0000000000e+00 0.0000e+00 -1.0000e+00
<mgrwt>
<rscale>  0 0.80838538E+03</rscale>
<asrwt>0</asrwt>
<pdfrwt beam="1">  1        2 0.21325003E+00 0.80838538E+03</pdfrwt>
<pdfrwt beam="2">  1       -2 0.18132642E-01 0.80838538E+03</pdfrwt>
<totfact> 0.43330877E+02</totfact>
</mgrwt>
<rwgt>
<wgt id='morphing_basis_vector_1'> +2.4797323e-04 </wgt>
<wgt id='morphing_basis_vector_2'> +2.2646533e-04 </wgt>
<wgt id='morphing_basis_vector_3'> +2.1460284e-04 </wgt>
<wgt id='morphing_basis_vector_4'> +6.8285280e-05 </wgt>
<wgt id='morphing_basis_vector_5'> +1.6803854e-04 </wgt>
</rwgt>
</event>
<event>
 4      1 +2.9741700e-06 8.52111200e+02 7.81860800e-03 8.83951700e-02
        2 -1    0    0  501    0 +0.0000000000e+00 +0.0000000000e+00 +2.0082900822e+03 2.0082900822e+03 0.0000000000e+00 0.0000e+00 -1.0000e+00
       -2 -1    0    0    0  501 -0.0000000000e+00 -0.0000000000e+00 -9.0387031568e+01 9.0387031568e+01 0.0000000000e+00 0.0000e+00 1.0000e+00
      -13  1    1    2    0    0 +3.0999100522e+02 -1.1527834602e+01 +2.3964525741e+02 3.9199128011e+02 0.0000000000e+00 0.0000e+00 1.0000e+00
       13  1    1    2    0    0 -3.0999100522e+02 +1.1527834602e+01 +1.6782577932e+03 1.7066858336e+03 0.0000000000e+00 0.0000e+00 -1.0000e+00
<mgrwt>
<rscale>  0 0.85211121E+03</rscale>
<asrwt>0</asrwt>
<pdfrwt beam="1">  1        2 0.30896767E+00 0.85211121E+03</pdfrwt>
<pdfrwt beam="2">  1       -2 0.13905699E-01 0.85211121E+03</pdfrwt>
<totfact> 0.30193944E+02</totfact>
</mgrwt>
<rwgt>
<wgt id='morphing_basis_vector_1'> +2.6190888e-04 </wgt>
<wgt id='morphing_basis_vector_2'> +1.6039762e-04 </wgt>
<wgt id='morphing_basis_vector_3'> +2.4037874e-04 </wgt>
<wgt id='morphing_basis_vector_4'> +1.3646244e-04 </wgt>
<wgt id='morphing_basis_vector_5'> +2.1539709e-04 </wgt>
</rwgt>
</event>
<event>
 4      1 +2.9741700e-06 8.23127300e+02 7.81860800e-03 8.87380400e-02
        2 -1    0    0  501    0 +0.0000000000e+00 +0.0000000000e+00 +6.1315279386e+02 6.1315279386e+02 0.0000000000e+00 0.0000e+00 -1.0000e+00
       -2 -1    0    0    0  501 -0.0000000000e+00 -0.0000000000e+00 -2.7625191795e+02 2.7625191795e+02 0.0000000000e+00 0.0000e+00 1.0000e+00
      -13  1    1    2    0    0 -2.9444663948e+02 -1.2099147384e+02 -1.1341155373e+02 3.3793481733e+02 0.0000000000e+00 0.0000e+00 1.0000e+00
       13  1    1    2    0    0 +2.9444663948e+02 +1.2099147384e+02 +4.5031242964e+02 5.5146989449e+02 0.0000000000e+00 0.0000e+00 -1.0000e+00
<mgrwt>
<rscale>  0 0.82312729E+03</rscale>
<asrwt>0</asrwt>
<pdfrwt beam="1">  1        2 0.94331199E-01 0.82312729E+03</pdfrwt>
<pdfrwt beam="2">  1       -2 0.42500295E-01 0.82312729E+03</pdfrwt>
<totfact> 0.30660265E+02</totfact>
</mgrwt>
<rwgt>
<wgt id='morphing_basis_vector_1'> +2.3153669e-04 </wgt>
<wgt id='morphing_basis_vector_2'> +1.4125689e-04 </wgt>
<wgt id='morphing_basis_vector_3'> +2.0997674e-04 </wgt>
<wgt id='morphing_basis_vector_4'> +1.1678765e-04 </wgt>
<wgt id='morphing_basis_vector_5'> +1.8427454e-04 </wgt>
</rwgt>
</event>
<event>
 4      1 +2.9741700e-06 7.74256900e+02 7.81860800e-03 8.93514000e-02
        2 -1    0    0  501    0 +0.0000000000e+00 +0.0000000000e+00 +5.6453925599e+02 5.6453925599e+02 0.0000000000e+00 0.0000e+00 1.0000e+00
       -2 -1    0    0    0  501 -0.0000000000e+00 -0.0000000000e+00 -2.6547037297e+02 2.6547037297e+02 0.0000000000e+00 0.0000e+00 -1.0000e+00
      -13  1    1    2    0    0 -7.7987164927e+00 +1.2445786635e+02 -2.4335008428e+02 2.7344075043e+02 0.0000000000e+00 0.0000e+00 -1.0000e+00
       13  1    1    2    0    0 +7.7987164927e+00 -1.2445786635e+02 +5.4241896730e+02 5.5656887854e+02 0.0000000000e+00 0.0000e+00 1.0000e+00
<mgrwt>
<rscale>  0 0.77425693E+03</rscale>
<asrwt>0</asrwt>
<pdfrwt beam="1">  1        2 0.86852193E-01 0.77425693E+03</pdfrwt>
<pdfrwt beam="2">  1       -2 0.40841596E-01 0.77425693E+03</pdfrwt>
<totfact> 0.36481817E+02</totfact>
</mgrwt>
<rwgt>
<wgt id='morphing_basis_vector_1'> +1.8606098e-04 </wgt>
<wgt id='morphing_basis_vector_2'> +1.1134506e-04 </wgt>
<wgt id='morphing_basis_vector_3'> +1.6512564e-04 </wgt>
<wgt id='morphing_basis_vector_4'> +8.9098622e-05 </wgt>
<wgt id='morphing_basis_vector_5'> +1.3935502e-04 </wgt>
</rwgt>
</event>
<event>
 4      1 +2.9741700e-06 7.57205500e+02 7.81860800e-03 8.95768000e-02
        2 -1    0    0  501    0 +0.0000000000e+00 +0.0000000000e+00 +1.2972755868e+03 1.2972755868e+03 0.0000000000e+00 0.0000e+00 1.0000e+00
       -2 -1    0    0    0  501 -0.0000000000e+00 -0.0000000000e+00 -1.1049314011e+02 1.1049314011e+02 0.0000000000e+00 0.0000e+00 -1.0000e+00
      -13  1    1    2    0    0 +1.8679704055e+02 -8.1219114348e+01 +5.7747875966e-02 2.0369016233e+02 0.0000000000e+00 0.0000e+00 -1.0000e+00
       13  1    1    2    0    0 -1.8679704055e+02 +8.1219114348e+01 +1.1867246988e+03 1.2040785645e+03 0.0000000000e+00 0.0000e+00 1.0000e+00
<mgrwt>
<rscale>  0 0.75720553E+03</rscale>
<asrwt>0</asrwt>
<pdfrwt beam="1">  1        2 0.19958085E+00 0.75720553E+03</pdfrwt>
<pdfrwt beam="2">  1       -2 0.16998946E-01 0.75720553E+03</pdfrwt>
<totfact> 0.54216165E+02</totfact>
</mgrwt>
<rwgt>
<wgt id='morphing_basis_vector_1'> +1.7212906e-04 </wgt>
<wgt id='morphing_basis_vector_2'> +1.0266859e-04 </wgt>
<wgt id='morphing_basis_vector_3'> +1.5144609e-04 </wgt>
<wgt id='morphing_basis_vector_4'> +8.0469430e-05 </wgt>
<wgt id='morphing_basis_vector_5'> +1.2571808e-04 </wgt>
</rwgt>
</event>
<event>
 4      1 +2.9741700e-06 8.38077500e+02 7.81860800e-03 8.85593600e-02
        2 -1    0    0  501    0 +0.0000000000e+00 +0.0000000000e+00 +2.9070635147e+02 2.9070635147e+02 0.0000000000e+00 0.0000e+00 -1.0000e+00
       -2 -1    0    0    0  501 -0.0000000000e+00 -0.0000000000e+00 -6.0402355873e+02 6.0402355873e+02 0.0000000000e+00 0.0000e+00 1.0000e+00
      -13  1    1    2    0    0 +2.7834383659e+02 +5.3969632366e+01 -4.8607007361e+02 5.6271851670e+02 0.0000000000e+00 0.0000e+00 1.0000e+00
       13  1    1    2    0    0 -2.7834383659e+02 -5.3969632366e+01 +1.7275286635e+02 3.3201139350e+02 0.0000000000e+00 0.0000e+00 -1.0000e+00
<mgrwt>
<rscale>  0 0.83807753E+03</rscale>
<asrwt>0</asrwt>
<pdfrwt beam="1">  1        2 0.44724055E-01 0.83807753E+03</pdfrwt>
<pdfrwt beam="2">  1       -2 0.92926700E-01 0.83807753E+03</pdfrwt>
<totfact> 0.13914355E+02</totfact>
</mgrwt>
<rwgt>
<wgt id='morphing_basis_vector_1'> +2.4665582e-04 </wgt>
<wgt id='morphing_basis_vector_2'> +1.5033563e-04 </wgt>
<wgt id='morphing_basis_vector_3'> +2.2514595e-04 </wgt>
<wgt id='morphing_basis_vector_4'> +1.2689908e-04 </wgt>
<wgt id='morphing_basis_vector_5'> +1.9990139e-04 </wgt>
</rwgt>
</event>
<event>
 4      1 +2.9741700e-06 8.56401200e+02 7.81860800e-03 8.83456500e-02
        2 -1    0    0  501    0 +0.0000000000e+00 +0.0000000000e+00 +6.4113138506e+02 6.4113138506e+02 0.0000000000e+00 0.0000e+00 -1.0000e+00
       -2 -1    0    0    0  501 -0.0000000000e+00 -0.0000000000e+00 -2.8598780658e+02 2.8598780658e+02 0.0000000000e+00 0.0000e+00 1.0000e+00
      -13  1    1    2    0    0 -3.8293433722e+02 +1.1660288773e+02 +1.2960392228e+01 4.0050332310e+02 0.0000000000e+00 0.0000e+00 1.0000e+00
       13  1    1    2    0    0 +3.8293433722e+02 -1.1660288773e+02 +3.4218318625e+02 5.2661586854e+02 0.0000000000e+00 0.0000e+00 -1.0000e+00
<mgrwt>
<rscale>  0 0.85640121E+03</rscale>
<asrwt>0</asrwt>
<pdfrwt beam="1">  1        2 0.98635598E-01 0.85640121E+03</pdfrwt>
<pdfrwt beam="2">  1       -2 0.43998124E-01 0.85640121E+03</pdfrwt>
<totfact> 0.27184296E+02</totfact>
</mgrwt>
<rwgt>
<wgt id='morphing_basis_vector_1'> +2.6862343e-04 </wgt>
<wgt id='morphing_basis_vector_2'> +1.6939780e-04 </wgt>
<wgt id='morphing_basis_vector_3'> +2.4654245e-04 </wgt>
<wgt id='morphing_basis_vector_4'> +1.3689632e-04 </wgt>
<wgt id='morphing_basis_vector_5'> +2.2017539e-04 </wgt>
</rwgt>
</event>
<event>
 4      1 +2.9741700e-06 7.62861300e+02 7.81860800e-03 8.95013400e-02
        2 -1    0    0  501    0 +0.0000000000e+00 +0.0000000000e+00 +1.2305739785e+03 1.2305739785e+03 0.0000000000e+00 0.0000e+00 -1.0000e+00
       -2 -1    0    0    0  501 -0.0000000000e+00 -0.0000000000e+00 -1.1822884862e+02 1.1822884862e+02 0.0000000000e+00 0.0000e+00 1.0000e+00
      -13  1    1    2    0    0 +2.3902359757e+02 -1.6704870372e+02 +1.2145470946e+02 3.1589364676e+02 0.0000000000e+00 0.0000e+00 1.0000e+00
       13  1    1    2    0    0 -2.3902359757e+02 +1.6704870372e+02 +9.9089042043e+02 1.0329091804e+03 0.0000000000e+00 0.0000e+00 -1.0000e+00
<mgrwt>
<rscale>  0 0.76286131E+03</rscale>
<asrwt>0</asrwt>
<pdfrwt beam="1">  1        2 0.18931906E+00 0.76286131E+03</pdfrwt>
<pdfrwt beam="2">  1       -2 0.18189054E-01 0.76286131E+03</pdfrwt>
<totfact> 0.52933751E+02</totfact>
</mgrwt>
<rwgt>
<wgt id='morphing_basis_vector_1'> +1.7693939e-04 </wgt>
<wgt id='morphing_basis_vector_2'> +1.0635537e-04 </wgt>
<wgt id='morphing_basis_vector_3'> +1.5602883e-04 </wgt>
<wgt id='morphing_basis_vector_4'> +8.2923362e-05 </wgt>
<wgt id='morphing_basis_vector_5'> +1.3011746e-04 </wgt>
</rwgt>
</event>
<event>
 4      1 +2.9741700e-06 7.54482000e+02 7.81860800e-03 8.96133900e-02
        2 -1    0    0  501    0 +0.0000000000e+00 +0.0000000000e+00 +9.9243260376e+02 9.9243260376e+02 0.0000000000e+00 0.0000e+00 1.0000e+00
       -2 -1    0    0    0  501 -0.0000000000e+00 -0.0000000000e+00 -1.4339589440e+02 1.4339589440e+02 0.0000000000e+00 0.0000e+00 -1.0000e+00
      -13  1    1    2    0    0 -1.7766752162e+02 -5.5760715736e+01 -6.9385227696e+01 1.9871918750e+02 0.0000000000e+00 0.0000e+00 -1.0000e+00
       13  1    1    2    0    0 +1.7766752162e+02 +5.5760715736e+01 +9.1842193706e+02 9.3710931066e+02 0.0000000000e+00 0.0000e+00 1.0000e+00
<mgrwt>
<rscale>  0 0.75448197E+03</rscale>
<asrwt>0</asrwt>
<pdfrwt beam="1">  1        2 0.15268193E+00 0.75448197E+03</pdfrwt>
<pdfrwt beam="2">  1       -2 0.22060907E-01 0.75448197E+03</pdfrwt>
<totfact> 0.53181488E+02</totfact>
</mgrwt>
<rwgt>
<wgt id='morphing_basis_vector_1'> +1.6995910e-04 </wgt>
<wgt id='morphing_basis_vector_2'> +1.0126337e-04 </wgt>
<wgt id='morphing_basis_vector_3'> +1.4933276e-04 </wgt>
<wgt id='morphing_basis_vector_4'> +7.9176582e-05 </wgt>
<wgt id='morphing_basis_vector_5'> +1.2363309e-04 </wgt>
</rwgt>
</event>
<event>
 4      1 +2.9741700e-06 8.21741000e+02 7.81860800e-03 8.87548200e-02
        2 -1    0    0  501    0 +0.0000000000e+00 +0.0000000000e+00 +1.0110788607e+03 1.0110788607e+03 0.0000000000e+00 0.0000e+00 -1.0000e+00
       -2 -1    0    0    0  501 -0.0000000000e+00 -0.0000000000e+00 -1.6696478205e+02 1.6696478205e+02 0.0000000000e+00 0.0000e+00 1.0000e+00
      -13  1    1    2    0    0 -1.9713794727e+02 +2.0985948125e+01 -9.3859431845e+01 2.1934760819e+02 0.0000000000e+00 0.0000e+00 1.0000e+00
       13  1    1    2    0    0 +1.9713794727e+02 -2.0985948125e+01 +9.3797351050e+02 9.5869603456e+02 0.0000000000e+00 0.0000e+00 -1.0000e+00
<mgrwt>
<rscale>  0 0.82174099E+03</rscale>
<asrwt>0</asrwt>
<pdfrwt beam="1">  1        2 0.15555059E+00 0.82174099E+03</pdfrwt>
<pdfrwt beam="2">  1       -2 0.25686890E-01 0.82174099E+03</pdfrwt>
<totfact> 0.39842937E+02</totfact>
</mgrwt>
<rwgt>
<wgt id='morphing_basis_vector_1'> +2.2974068e-04 </wgt>
<wgt id='morphing_basis_vector_2'> +1.3911749e-04 </wgt>
<wgt id='morphing_basis_vector_3'> +2.0833292e-04 </wgt>
<wgt id='morphing_basis_vector_4'> +1.1644252e-04 </wgt>
<wgt id='morphing_basis_vector_5'> +1.8289711e-04 </wgt>
</rwgt>
</event>
<event>
 4      1 +2.9741700e-06 7.68489800e+02 7.81860800e-03 8.94269400e-02
        2 -1    0    0  501    0 +0.0000000000e+00 +0.0000000000e+00 +2.1574237242e+03 2.1574237242e+03 0.0000000000e+00 0.0000e+00 1.0000e+00
       -2 -1    0    0    0  501 -0.0000000000e+00 -0.0000000000e+00 -6.8435392157e+01 6.8435392157e+01 0.0000000000e+00 0.0000e+00 -1.0000e+00
      -13  1    1    2    0    0 -3.9117168626e+01 -3.7504113354e+02 +8.3050998743e+02 9.1210352699e+02 0.0000000000e+00 0.0000e+00 -1.0000e+00
       13  1    1    2    0    0 +3.9117168626e+01 +3.7504113354e+02 +1.2584783446e+03 1.3137555894e+03 0.0000000000e+00 0.0000e+00 1.0000e+00
<mgrwt>
<rscale>  0 0.76848979E+03</rscale>
<asrwt>0</asrwt>
<pdfrwt beam="1">  1        2 0.33191129E+00 0.76848979E+03</pdfrwt>
<pdfrwt beam="2">  1       -2 0.10528524E-01 0.76848979E+03</pdfrwt>
<totfact> 0.39103363E+02</totfact>
</mgrwt>
<rwgt>
<wgt id='morphing_basis_vector_1'> +1.8430877e-04 </wgt>
<wgt id='morphing_basis_vector_2'> +1.1772394e-04 </wgt>
<wgt id='morphing_basis_vector_3'> +1.6200437e-04 </wgt>
<wgt id='morphing_basis_vector_4'> +8.2435089e-05 </wgt>
<wgt id='morphing_basis_vector_5'> +1.3448903e-04 </wgt>
</rwgt>
</event>
<event>
 4      1 +2.9741700e-06 7.53577000e+02 7.81860800e-03 8.96255800e-02
        2 -1    0    0  501    0 +0.0000000000e+00 +0.0000000000e+00 +4.3395758350e+02 4.3395758350e+02 0.0000000000e+00 0.0000e+00 1.0000e+00
       -2 -1    0    0    0  501 -0.0000000000e+00 -0.0000000000e+00 -3.2715076495e+02 3.2715076495e+02 0.0000000000e+00 0.0000e+00 -1.0000e+00
      -13  1    1    2    0    0 +3.0319606216e+02 -1.0843444852e+02 -1.4421421848e+02 3.5282236685e+02 0.0000000000e+00 0.0000e+00 -1.0000e+00
       13  1    1    2    0    0 -3.0319606216e+02 +1.0843444852e+02 +2.5102103704e+02 4.0828598160e+02 0.0000000000e+00 0.0000e+00 1.0000e+00
<mgrwt>
<rscale>  0 0.75357695E+03</rscale>
<asrwt>0</asrwt>
<pdfrwt beam="1">  1        2 0.66762705E-01 0.75357695E+03</pdfrwt>
<pdfrwt beam="2">  1       -2 0.50330887E-01 0.75357695E+03</pdfrwt>
<totfact> 0.33074481E+02</totfact>
</mgrwt>
<rwgt>
<wgt id='morphing_basis_vector_1'> +1.6986510e-04 </wgt>
<wgt id='morphing_basis_vector_2'> +1.0271110e-04 </wgt>
<wgt id='morphing_basis_vector_3'> +1.4894060e-04 </wgt>
<wgt id='morphing_basis_vector_4'> +7.8021136e-05 </wgt>
<wgt id='morphing_basis_vector_5'> +1.2291950e-04 </wgt>
</rwgt>
</event>
<event>
 4      1 +2.9741700e-06 8.90146800e+02 7.81860800e-03 8.79664200e-02
        2 -1    0    0  501    0 +0.0000000000e+00 +0.0000000000e+00 +8.3943883837e+02 8.3943883837e+02 0.0000000000e+00 0.0000e+00 1.0000e+00
       -2 -1    0    0    0  501 -0.0000000000e+00 -0.0000000000e+00 -2.3597947579e+02 2.3597947579e+02 0.0000000000e+00 0.0000e+00 -1.0000e+00
      -13  1    1    2    0    0 +2.4454389491e+02 -2.9439309756e+02 +2.7237259292e+01 3.8368070152e+02 0.0000000000e+00 0.0000e+00 -1.0000e+00
       13  1    1    2    0    0 -2.4454389491e+02 +2.9439309756e+02 +5.7622210329e+02 6.9173761264e+02 0.0000000000e+00 0.0000e+00 1.0000e+00
<mgrwt>
<rscale>  0 0.89014681E+03</rscale>
<asrwt>0</asrwt>
<pdfrwt beam="1">  1        2 0.12914444E+00 0.89014681E+03</pdfrwt>
<pdfrwt beam="2">  1       -2 0.36304535E-01 0.89014681E+03</pdfrwt>
<totfact> 0.27740300E+02</totfact>
</mgrwt>
<rwgt>
<wgt id='morphing_basis_vector_1'> +3.0742935e-04 </wgt>
<wgt id='morphing_basis_vector_2'> +1.9171815e-04 </wgt>
<wgt id='morphing_basis_vector_3'> +2.8601304e-04 </wgt>
<wgt id='morphing_basis_vector_4'> +1.6434378e-04 </wgt>
<wgt id='morphing_basis_vector_5'> +2.6171557e-04 </wgt>
</rwgt>
</event>
<event>
 4      1 +2.9741700e-06 8.38136800e+02 7.81860800e-03 8.85586600e-02
        2 -1    0    0  501    0 +0.0000000000e+00 +0.0000000000e+00 +4.5588636050e+02 4.5588636050e+02 0.0000000000e+00 0.0000e+00 1.0000e+00
       -2 -1    0    0    0  501 -0.0000000000e+00 -0.0000000000e+00 -3.8522390467e+02 3.8522390467e+02 0.0000000000e+00 0.0000e+00 -1.0000e+00
      -13  1    1    2    0    0 -3.1417800729e+01 -8.5528155470e+01 -3.7516294293e+02 3.8606913543e+02 0.0000000000e+00 0.0000e+00 -1.0000e+00
       13  1    1    2    0    0 +3.1417800729e+01 +8.5528155470e+01 +4.4582539876e+02 4.5504112974e+02 0.0000000000e+00 0.0000e+00 1.0000e+00
<mgrwt>
<rscale>  0 0.83813680E+03</rscale>
<asrwt>0</asrwt>
<pdfrwt beam="1">  1        2 0.70136363E-01 0.83813680E+03</pdfrwt>
<pdfrwt beam="2">  1       -2 0.59265217E-01 0.83813680E+03</pdfrwt>
<totfact> 0.22470329E+02</totfact>
</mgrwt>
<rwgt>
<wgt id='morphing_basis_vector_1'> +2.4649798e-04 </wgt>
<wgt id='morphing_basis_vector_2'> +1.4970264e-04 </wgt>
<wgt id='morphing_basis_vector_3'> +2.2505977e-04 </wgt>
<wgt id='morphing_basis_vector_4'> +1.2723171e-04 </wgt>
<wgt id='morphing_basis_vector_5'> +1.9997891e-04 </wgt>
</rwgt>
</event>
<event>
 4      1 +2.9741700e-06 8.46162800e+02 7.81860800e-03 8.84643600e-02
        2 -1    0    0  501    0 +0.0000000000e+00 +0.0000000000e+00 +1.0801763844e+03 1.0801763844e+03 0.0000000000e+00 0.0000e+00 1.0000e+00
       -2 -1    0    0    0  501 -0.0000000000e+00 -0.0000000000e+00 -1.6571170938e+02 1.6571170938e+02 0.0000000000e+00 0.0000e+00 -1.0000e+00
      -13  1    1    2    0    0 -8.7130115763e+01 +3.3960981049e+02 +1.0857743100e+02 3.6703615486e+02 0.0000000000e+00 0.0000e+00 -1.0000e+00
       13  1    1    2    0    0 +8.7130115763e+01 -3.3960981049e+02 +8.0588724400e+02 8.7885193889e+02 0.0000000000e+00 0.0000e+00 1.0000e+00
<mgrwt>
<rscale>  0 0.84616281E+03</rscale>
<asrwt>0</asrwt>
<pdfrwt beam="1">  1        2 0.16618098E+00 0.84616281E+03</pdfrwt>
<pdfrwt beam="2">  1       -2 0.25494110E-01 0.84616281E+03</pdfrwt>
<totfact> 0.36590696E+02</totfact>
</mgrwt>
<rwgt>
<wgt id='morphing_basis_vector_1'> +2.5584806e-04 </wgt>
<wgt id='morphing_basis_vector_2'> +1.5757221e-04 </wgt>
<wgt id='morphing_basis_vector_3'> +2.3416771e-04 </wgt>
<wgt id='morphing_basis_vector_4'> +1.3168790e-04 </wgt>
<wgt id='morphing_basis_vector_5'> +2.0869536e-04 </wgt>
</rwgt>
</event>
<event>
 4      1 +2.9741700e-06 7.98449500e+02 7.81860800e-03 8.90419500e-02
        2 -1    0    0  501    0 +0.0000000000e+00 +0.0000000000e+00 +1.7609130792e+03 1.7609130792e+03 0.0000000000e+00 0.0000e+00 1.0000e+00
       -2 -1    0    0    0  501 -0.0000000000e+00 -0.0000000000e+00 -9.0510091430e+01 9.0510091430e+01 0.0000000000e+00 0.0000e+00 -1.0000e+00
      -13  1    1    2    0    0 +1.0760883594e+02 -3.8153857402e+02 +7.2572547503e+02 8.2693942351e+02 0.0000000000e+00 0.0000e+00 -1.0000e+00
       13  1    1    2    0    0 -1.0760883594e+02 +3.8153857402e+02 +9.4467751269e+02 1.0244837471e+03 0.0000000000e+00 0.0000e+00 1.0000e+00
<mgrwt>
<rscale>  0 0.79844951E+03</rscale>
<asrwt>0</asrwt>
<pdfrwt beam="1">  1        2 0.27090968E+00 0.79844951E+03</pdfrwt>
<pdfrwt beam="2">  1       -2 0.13924631E-01 0.79844951E+03</pdfrwt>
<totfact> 0.41401084E+02</totfact>
</mgrwt>
<rwgt>
<wgt id='morphing_basis_vector_1'> +2.1210109e-04 </wgt>
<wgt id='morphing_basis_vector_2'> +1.3924457e-04 </wgt>
<wgt id='morphing_basis_vector_3'> +1.8896042e-04 </wgt>
<wgt id='morphing_basis_vector_4'> +9.6463334e-05 </wgt>
<wgt id='morphing_basis_vector_5'> +1.6022617e-04 </wgt>
</rwgt>
</event>
<event>
 4      1 +2.9741700e-06 7.97413600e+02 7.81860800e-03 8.90549600e-02
        2 -1    0    0  501    0 +0.0000000000e+00 +0.0000000000e+00 +1.8632155747e+03 1.8632155747e+03 0.0000000000e+00 0.0000e+00 -1.0000e+00
       -2 -1    0    0    0  501 -0.0000000000e+00 -0.0000000000e+00 -8.5318693177e+01 8.5318693177e+01 0.0000000000e+00 0.0000e+00 1.0000e+00
      -13  1    1    2    0    0 +3.9416967214e+02 -4.5960481610e+01 +7.9478316291e+02 8.8834811440e+02 0.0000000000e+00 0.0000e+00 1.0000e+00
       13  1    1    2    0    0 -3.9416967214e+02 +4.5960481610e+01 +9.8311371859e+02 1.0601861535e+03 0.0000000000e+00 0.0000e+00 -1.0000e+00
<mgrwt>
<rscale>  0 0.79741361E+03</rscale>
<asrwt>0</asrwt>
<pdfrwt beam="1">  1        2 0.28664852E+00 0.79741361E+03</pdfrwt>
<pdfrwt beam="2">  1       -2 0.13125954E-01 0.79741361E+03</pdfrwt>
<totfact> 0.40005466E+02</totfact>
</mgrwt>
<rwgt>
<wgt id='morphing_basis_vector_1'> +2.1152700e-04 </wgt>
<wgt id='morphing_basis_vector_2'> +1.3979754e-04 </wgt>
<wgt id='morphing_basis_vector_3'> +1.8823175e-04 </wgt>
<wgt id='morphing_basis_vector_4'> +9.5401315e-05 </wgt>
<wgt id='morphing_basis_vector_5'> +1.5925854e-04 </wgt>
</rwgt>
</event>
<event>
 4      1 +2.9741700e-06 7.73692300e+02 7.81860800e-03 8.93587600e-02
        2 -1    0    0  501    0 +0.0000000000e+00 +0.0000000000e+00 +1.0959628460e+03 1.0959628460e+03 0.0000000000e+00 0.0000e+00 -1.0000e+00
       -2 -1    0    0    0  501 -0.0000000000e+00 -0.0000000000e+00 -1.3654653198e+02 1.3654653198e+02 0.0000000000e+00 0.0000e+00 1.0000e+00
      -13  1    1    2    0    0 +3.7567131899e+02 +1.1723137219e+01 +3.3384820537e+02 5.0271363229e+02 0.0000000000e+00 0.0000e+00 1.0000e+00
       13  1    1    2    0    0 -3.7567131899e+02 -1.1723137219e+01 +6.2556810865e+02 7.2979574568e+02 0.0000000000e+00 0.0000e+00 -1.0000e+00
<mgrwt>
<rscale>  0 0.77369225E+03</rscale>
<asrwt>0</asrwt>
<pdfrwt beam="1">  1        2 0.16860966E+00 0.77369225E+03</pdfrwt>
<pdfrwt beam="2">  1       -2 0.21007160E-01 0.77369225E+03</pdfrwt>
<totfact> 0.49904962E+02</totfact>
</mgrwt>
<rwgt>
<wgt id='morphing_basis_vector_1'> +1.8821595e-04 </wgt>
<wgt id='morphing_basis_vector_2'> +1.1911640e-04 </wgt>
<wgt id='morphing_basis_vector_3'> +1.6607307e-04 </wgt>
<wgt id='morphing_basis_vector_4'> +8.5613623e-05 </wgt>
<wgt id='morphing_basis_vector_5'> +1.3876250e-04 </wgt>
</rwgt>
</event>
<event>
 4      1 +2.9741700e-06 7.84858200e+02 7.81860800e-03 8.92143400e-02
        2 -1    0    0  501    0 +0.0000000000e+00 +0.0000000000e+00 +2.0407454665e+03 2.0407454665e+03 0.0000000000e+00 0.0000e+00 1.0000e+00
       -2 -1    0    0    0  501 -0.0000000000e+00 -0.0000000000e+00 -7.5462922427e+01 7.5462922427e+01 0.0000000000e+00 0.0000e+00 -1.0000e+00
      -13  1    1    2    0    0 +2.7191344809e+02 -9.9222724306e+01 +2.6815626880e+02 3.9457554001e+02 0.0000000000e+00 0.0000e+00 -1.0000e+00
       13  1    1    2    0    0 -2.7191344809e+02 +9.9222724306e+01 +1.6971262753e+03 1.7216328489e+03 0.0000000000e+00 0.0000e+00 1.0000e+00
<mgrwt>
<rscale>  0 0.78485825E+03</rscale>
<asrwt>0</asrwt>
<pdfrwt beam="1">  1        2 0.31396080E+00 0.78485825E+03</pdfrwt>
<pdfrwt beam="2">  1       -2 0.11609682E-01 0.78485825E+03</pdfrwt>
<totfact> 0.38867409E+02</totfact>
</mgrwt>
<rwgt>
<wgt id='morphing_basis_vector_1'> +1.9546692e-04 </wgt>
<wgt id='morphing_basis_vector_2'> +1.1796632e-04 </wgt>
<wgt id='morphing_basis_vector_3'> +1.7426715e-04 </wgt>
<wgt id='morphing_basis_vector_4'> +9.4412158e-05 </wgt>
<wgt id='morphing_basis_vector_5'> +1.4833409e-04 </wgt>
</rwgt>
</event>
<event>
 4      1 +2.9741700e-06 8.01380000e+02 7.81860800e-03 8.90052600e-02
        2 -1    0    0  501    0 +0.0000000000e+00 +0.0000000000e+00 +1.0071389383e+03 1.0071389383e+03 0.0000000000e+00 0.0000e+00 -1.0000e+00
       -2 -1    0    0    0  501 -0.0000000000e+00 -0.0000000000e+00 -1.5941441002e+02 1.5941441002e+02 0.0000000000e+00 0.0000e+00 1.0000e+00
      -13  1    1    2    0    0 +1.9623878066e+02 +2.9345929311e+02 +1.4795625818e+02 3.8277809509e+02 0.0000000000e+00 0.0000e+00 1.0000e+00
       13  1    1    2    0    0 -1.9623878066e+02 -2.9345929311e+02 +6.9976827014e+02 7.8377525327e+02 0.0000000000e+00 0.0000e+00 -1.0000e+00
<mgrwt>
<rscale>  0 0.80137996E+03</rscale>
<asrwt>0</asrwt>
<pdfrwt beam="1">  1        2 0.15494445E+00 0.80137996E+03</pdfrwt>
<pdfrwt beam="2">  1       -2 0.24525294E-01 0.80137996E+03</pdfrwt>
<totfact> 0.43422765E+02</totfact>
</mgrwt>
<rwgt>
<wgt id='morphing_basis_vector_1'> +2.1113626e-04 </wgt>
<wgt id='morphing_basis_vector_2'> +1.2970956e-04 </wgt>
<wgt id='morphing_basis_vector_3'> +1.8946872e-04 </wgt>
<wgt id='morphing_basis_vector_4'> +1.0278743e-04 </wgt>
<wgt id='morphing_basis_vector_5'> +1.6312779e-04 </wgt>
</rwgt>
</event>
<event>
 4      1 +2.9741700e-06 8.07535600e+02 7.81860800e-03 8.89287200e-02
        2 -1    0    0  501    0 +0.0000000000e+00 +0.0000000000e+00 +2.9712300820e+02 2.9712300820e+02 0.0000000000e+00 0.0000e+00 -1.0000e+00
       -2 -1    0    0    0  501 -0.0000000000e+00 -0.0000000000e+00 -5.4869009853e+02 5.4869009853e+02 0.0000000000e+00 0.0000e+00 1.0000e+00
      -13  1    1    2    0    0 +3.7995120793e+02 +1.0054906886e+02 -2.2266336059e+02 4.5172116156e+02 0.0000000000e+00 0.0000e+00 1.0000e+00
       13  1    1    2    0    0 -3.7995120793e+02 -1.0054906886e+02 -2.8903729750e+01 3.9409194517e+02 0.0000000000e+00 0.0000e+00 -1.0000e+00
<mgrwt>
<rscale>  0 0.80753564E+03</rscale>
<asrwt>0</asrwt>
<pdfrwt beam="1">  1        2 0.45711232E-01 0.80753564E+03</pdfrwt>
<pdfrwt beam="2">  1       -2 0.84413862E-01 0.80753564E+03</pdfrwt>
<totfact> 0.17001122E+02</totfact>
</mgrwt>
<rwgt>
<wgt id='morphing_basis_vector_1'> +2.1906124e-04 </wgt>
<wgt id='morphing_basis_vector_2'> +1.3993776e-04 </wgt>
<wgt id='morphing_basis_vector_3'> +1.9652530e-04 </wgt>
<wgt id='morphing_basis_vector_4'> +1.0368288e-04 </wgt>
<wgt id='morphing_basis_vector_5'> +1.6879750e-04 </wgt>
</rwgt>
</event>
<event>
 4      1 +2.9741700e-06 8.17583600e+02 7.81860800e-03 8.88053200e-02
        2 -1    0    0  501    0 +0.0000000000e+00 +0.0000000000e+00 +2.7611000366e+02 2.7611000366e+02 0.0000000000e+00 0.0000e+00 1.0000e+00
       -2 -1    0    0    0  501 -0.0000000000e+00 -0.0000000000e+00 -6.0523252852e+02 6.0523252852e+02 0.0000000000e+00 0.0000e+00 -1.0000e+00
      -13  1    1    2    0    0 -3.4841906400e+02 -1.5764461494e+02 -3.2026599578e+02 4.9881657634e+02 0.0000000000e+00 0.0000e+00 -1.0000e+00
       13  1    1    2    0    0 +3.4841906400e+02 +1.5764461494e+02 -8.8565290726e+00 3.8252595583e+02 0.0000000000e+00 0.0000e+00 1.0000e+00
<mgrwt>
<rscale>  0 0.81758365E+03</rscale>
<asrwt>0</asrwt>
<pdfrwt beam="1">  1        2 0.42478462E-01 0.81758365E+03</pdfrwt>
<pdfrwt beam="2">  1       -2 0.93112697E-01 0.81758365E+03</pdfrwt>
<totfact> 0.14695111E+02</totfact>
</mgrwt>
<rwgt>
<wgt id='morphing_basis_vector_1'> +2.2755011e-04 </wgt>
<wgt id='morphing_basis_vector_2'> +1.4238161e-04 </wgt>
<wgt id='morphing_basis_vector_3'> +2.0545870e-04 </wgt>
<wgt id='morphing_basis_vector_4'> +1.1134099e-04 </wgt>
<wgt id='morphing_basis_vector_5'> +1.7862798e-04 </wgt>
</rwgt>
</event>
<event>
 4      1 +2.9741700e-06 8.13160000e+02 7.81860800e-03 8.88594200e-02
        2 -1    0    0  501    0 +0.0000000000e+00 +0.0000000000e+00 +2.0405548215e+03 2.0405548215e+03 0.0000000000e+00 0.0000e+00 -1.0000e+00
       -2 -1    0    0    0  501 -0.0000000000e+00 -0.0000000000e+00 -8.1010949885e+01 8.1010949885e+01 0.0000000000e+00 0.0000e+00 1.0000e+00
      -13  1    1    2    0    0 -3.0554828454e+02 +1.4516125811e+02 +3.9128628825e+02 5.1723931058e+02 0.0000000000e+00 0.0000e+00 1.0000e+00
       13  1    1    2    0    0 +3.0554828454e+02 -1.4516125811e+02 +1.5682575834e+03 1.6043264608e+03 0.0000000000e+00 0.0000e+00 -1.0000e+00
<mgrwt>
<rscale>  0 0.81315997E+03</rscale>
<asrwt>0</asrwt>
<pdfrwt beam="1">  1        2 0.31393147E+00 0.81315997E+03</pdfrwt>
<pdfrwt beam="2">  1       -2 0.12463225E-01 0.81315997E+03</pdfrwt>
<totfact> 0.34649448E+02</totfact>
</mgrwt>
<rwgt>
<wgt id='morphing_basis_vector_1'> +2.2197670e-04 </wgt>
<wgt id='morphing_basis_vector_2'> +1.3578551e-04 </wgt>
<wgt id='morphing_basis_vector_3'> +2.0036733e-04 </wgt>
<wgt id='morphing_basis_vector_4'> +1.1024179e-04 </wgt>
<wgt id='morphing_basis_vector_5'> +1.7435285e-04 </wgt>
</rwgt>
</event>
<event>
 4      1 +2.9741700e-06 7.84443300e+02 7.81860800e-03 8.92196600e-02
        2 -1    0    0  501    0 +0.0000000000e+00 +0.0000000000e+00 +1.1122238978e+03 1.1122238978e+03 0.0000000000e+00 0.0000e+00 -1.0000e+00
       -2 -1    0    0    0  501 -0.0000000000e+00 -0.0000000000e+00 -1.3831552354e+02 1.3831552354e+02 0.0000000000e+00 0.0000e+00 1.0000e+00
      -13  1    1    2    0    0 +2.8506091818e+02 -3.8736329436e+01 +6.1941204627e+01 2.9427358550e+02 0.0000000000e+00 0.0000e+00 1.0000e+00
       13  1    1    2    0    0 -2.8506091818e+02 +3.8736329436e+01 +9.1196716962e+02 9.5626583582e+02 0.0000000000e+00 0.0000e+00 -1.0000e+00
<mgrwt>
<rscale>  0 0.78444332E+03</rscale>
<asrwt>0</asrwt>
<pdfrwt beam="1">  1        2 0.17111136E+00 0.78444332E+03</pdfrwt>
<pdfrwt beam="2">  1       -2 0.21279312E-01 0.78444332E+03</pdfrwt>
<totfact> 0.47738560E+02</totfact>
</mgrwt>
<rwgt>
<wgt id='morphing_basis_vector_1'> +1.9509347e-04 </wgt>
<wgt id='morphing_basis_vector_2'> +1.1770647e-04 </wgt>
<wgt id='morphing_basis_vector_3'> +1.7390289e-04 </wgt>
<wgt id='morphing_basis_vector_4'> +9.4198182e-05 </wgt>
<wgt id='morphing_basis_vector_5'> +1.4797500e-04 </wgt>
</rwgt>
</event>
<event>
 4      1 +2.9741700e-06 7.95653500e+02 7.81860800e-03 8.90771200e-02
        2 -1    0    0  501    0 +0.0000000000e+00 +0.0000000000e+00 +4.9156416732e+02 4.9156416732e+02 0.0000000000e+00 0.0000e+00 -1.0000e+00
       -2 -1    0    0    0  501 -0.0000000000e+00 -0.0000000000e+00 -3.2196432857e+02 3.2196432857e+02 0.0000000000e+00 0.0000e+00 1.0000e+00
      -13  1    1    2    0    0 -2.6070329022e+02 +2.4586225119e+02 -9.1858011330e+01 3.6993559755e+02 0.0000000000e+00 0.0000e+00 1.0000e+00
       13  1    1    2    0    0 +2.6070329022e+02 -2.4586225119e+02 +2.6145785008e+02 4.4359289834e+02 0.0000000000e+00 0.0000e+00 -1.0000e+00
<mgrwt>
<rscale>  0 0.79565351E+03</rscale>
<asrwt>0</asrwt>
<pdfrwt beam="1">  1        2 0.75625256E-01 0.79565351E+03</pdfrwt>
<pdfrwt beam="2">  1       -2 0.49532974E-01 0.79565351E+03</pdfrwt>
<totfact> 0.29569702E+02</totfact>
</mgrwt>
<rwgt>
<wgt id='morphing_basis_vector_1'> +2.0605401e-04 </wgt>
<wgt id='morphing_basis_vector_2'> +1.2694236e-04 </wgt>
<wgt id='morphing_basis_vector_3'> +1.8435204e-04 </wgt>
<wgt id='morphing_basis_vector_4'> +9.9257350e-05 </wgt>
<wgt id='morphing_basis_vector_5'> +1.5786207e-04 </wgt>
</rwgt>
</event>
<event>
 4      1 +2.9741700e-06 7.78456800e+02 7.81860800e-03 8.92968200e-02
        2 -1    0    0  501    0 +0.0000000000e+00 +0.0000000000e+00 +1.1656520292e+03 1.1656520292e+03 0.0000000000e+00 0.0000e+00 -1.0000e+00
       -2 -1    0    0    0  501 -0.0000000000e+00 -0.0000000000e+00 -1.2996910370e+02 1.2996910370e+02 0.0000000000e+00 0.0000e+00 1.0000e+00
      -13  1    1    2    0    0 -8.6827782911e+01 -2.3710280753e+02 +2.4841223212e+01 2.5372010483e+02 0.0000000000e+00 0.0000e+00 1.0000e+00
       13  1    1    2    0    0 +8.6827782911e+01 +2.3710280753e+02 +1.0108417023e+03 1.0419010281e+03 0.0000000000e+00 0.0000e+00 -1.0000e+00
<mgrwt>
<rscale>  0 0.77845681E+03</rscale>
<asrwt>0</asrwt>
<pdfrwt beam="1">  1        2 0.17933107E+00 0.77845681E+03</pdfrwt>
<pdfrwt beam="2">  1       -2 0.19995247E-01 0.77845681E+03</pdfrwt>
<totfact> 0.49291994E+02</totfact>
</mgrwt>
<rwgt>
<wgt id='morphing_basis_vector_1'> +1.8976593e-04 </wgt>
<wgt id='morphing_basis_vector_2'> +1.1400123e-04 </wgt>
<wgt id='morphing_basis_vector_3'> +1.6871280e-04 </wgt>
<wgt id='morphing_basis_vector_4'> +9.1150817e-05 </wgt>
<wgt id='morphing_basis_vector_5'> +1.4286323e-04 </wgt>
</rwgt>
</event>
<event>
 4      1 +2.9741700e-06 7.50737400e+02 7.81860800e-03 8.96639600e-02
        2 -1    0    0  501    0 +0.0000000000e+00 +0.0000000000e+00 +2.1601969624e+02 2.1601969624e+02 0.0000000000e+00 0.0000e+00 -1.0000e+00
       -2 -1    0    0    0  501 -0.0000000000e+00 -0.0000000000e+00 -6.5226301657e+02 6.5226301657e+02 0.0000000000e+00 0.0000e+00 1.0000e+00
      -13  1    1    2    0    0 +2.5553210158e+02 -2.2852359902e+02 -3.9497515286e+02 5.2299623480e+02 0.0000000000e+00 0.0000e+00 1.0000e+00
       13  1    1    2    0    0 -2.5553210158e+02 +2.2852359902e+02 -4.1268167481e+01 3.4528647801e+02 0.0000000000e+00 0.0000e+00 -1.0000e+00
<mgrwt>
<rscale>  0 0.75073739E+03</rscale>
<asrwt>0</asrwt>
<pdfrwt beam="1">  1        2 0.33233800E-01 0.75073739E+03</pdfrwt>
<pdfrwt beam="2">  1       -2 0.10034815E+00 0.75073739E+03</pdfrwt>
<totfact> 0.16328247E+02</totfact>
</mgrwt>
<rwgt>
<wgt id='morphing_basis_vector_1'> +1.6812557e-04 </wgt>
<wgt id='morphing_basis_vector_2'> +1.0278043e-04 </wgt>
<wgt id='morphing_basis_vector_3'> +1.4700313e-04 </wgt>
<wgt id='morphing_basis_vector_4'> +7.6124006e-05 </wgt>
<wgt id='morphing_basis_vector_5'> +1.2076075e-04 </wgt>
</rwgt>
</event>
<event>
 4      1 +2.9741700e-06 8.06085200e+02 7.81860800e-03 8.89466900e-02
        2 -1    0    0  501    0 +0.0000000000e+00 +0.0000000000e+00 +7.5761811816e+02 7.5761811816e+02 0.0000000000e+00 0.0000e+00 -1.0000e+00
       -2 -1    0    0    0  501 -0.0000000000e+00 -0.0000000000e+00 -2.1441320076e+02 2.1441320076e+02 0.0000000000e+00 0.0000e+00 1.0000e+00
      -13  1    1    2    0    0 -1.2615205268e+02 +2.0797022118e+02 -1.1592449674e+02 2.6945211493e+02 0.0000000000e+00 0.0000e+00 1.0000e+00
       13  1    1    2    0    0 +1.2615205268e+02 -2.0797022118e+02 +6.5912941414e+02 7.0257920399e+02 0.0000000000e+00 0.0000e+00 -1.0000e+00
<mgrwt>
<rscale>  0 0.80608517E+03</rscale>
<asrwt>0</asrwt>
<pdfrwt beam="1">  1        2 0.11655663E+00 0.80608517E+03</pdfrwt>
<pdfrwt beam="2">  1       -2 0.32986647E-01 0.80608517E+03</pdfrwt>
<totfact> 0.37786946E+02</totfact>
</mgrwt>
<rwgt>
<wgt id='morphing_basis_vector_1'> +2.1461743e-04 </wgt>
<wgt id='morphing_basis_vector_2'> +1.2966809e-04 </wgt>
<wgt id='morphing_basis_vector_3'> +1.9328173e-04 </wgt>
<wgt id='morphing_basis_vector_4'> +1.0673457e-04 </wgt>
<wgt id='morphing_basis_vector_5'> +1.6759085e-04 </wgt>
</rwgt>
</event>
<event>
 4      1 +2.9741700e-06 8.00655600e+02 7.81860800e-03 8.90143100e-02
        2 -1    0    0  501    0 +0.0000000000e+00 +0.0000000000e+00 +8.3743332019e+01 8.3743332019e+01 0.0000000000e+00 0.0000e+00 -1.0000e+00
       -2 -1    0    0    0  501 -0.0000000000e+00 -0.0000000000e+00 -1.9137325874e+03 1.9137325874e+03 0.0000000000e+00 0.0000e+00 1.0000e+00
      -13  1    1    2    0    0 +2.3762739071e+02 +2.4864109783e+02 -1.4261132484e+03 1.4669997169e+03 0.0000000000e+00 0.0000e+00 1.0000e+00
       13  1    1    2    0    0 -2.3762739071e+02 -2.4864109783e+02 -4.0387600701e+02 5.3047620247e+02 0.0000000000e+00 0.0000e+00 -1.0000e+00
<mgrwt>
<rscale>  0 0.80065559E+03</rscale>
<asrwt>0</asrwt>
<pdfrwt beam="1">  1        2 0.12883590E-01 0.80065559E+03</pdfrwt>
<pdfrwt beam="2">  1       -2 0.29442039E+00 0.80065559E+03</pdfrwt>
<totfact> 0.16201724E+01</totfact>
</mgrwt>
<rwgt>
<wgt id='morphing_basis_vector_1'> +2.1027213e-04 </wgt>
<wgt id='morphing_basis_vector_2'> +1.2869592e-04 </wgt>
<wgt id='morphing_basis_vector_3'> +1.8868672e-04 </wgt>
<wgt id='morphing_basis_vector_4'> +1.0260860e-04 </wgt>
<wgt id='morphing_basis_vector_5'> +1.6246646e-04 </wgt>
</rwgt>
</event>
<event>
 4      1 +2.9741700e-06 8.22838000e+02 7.81860800e-03 8.87415400e-02
        2 -1    0    0  501    0 +0.0000000000e+00 +0.0000000000e+00 +2.1001200874e+02 2.1001200874e+02 0.0000000000e+00 0.0000e+00 1.0000e+00
       -2 -1    0    0    0  501 -0.0000000000e+00 -0.0000000000e+00 -8.0598060683e+02 8.0598060683e+02 0.0000000000e+00 0.0000e+00 -1.0000e+00
      -13  1    1    2    0    0 +3.0279341241e+02 +2.2832018099e+02 -1.0099883879e+02 3.9244709336e+02 0.0000000000e+00 0.0000e+00 1.0000e+00
       13  1    1    2    0    0 -3.0279341241e+02 -2.2832018099e+02 -4.9496975930e+02 6.2354552221e+02 0.0000000000e+00 0.0000e+00 -1.0000e+00
<mgrwt>
<rscale>  0 0.82283803E+03</rscale>
<asrwt>0</asrwt>
<pdfrwt beam="1">  1        2 0.32309540E-01 0.82283803E+03</pdfrwt>
<pdfrwt beam="2">  1       -2 0.12399702E+00 0.82283803E+03</pdfrwt>
<totfact> 0.98545682E+01</totfact>
</mgrwt>
<rwgt>
<wgt id='morphing_basis_vector_1'> +2.6067084e-04 </wgt>
<wgt id='morphing_basis_vector_2'> +2.3104378e-04 </wgt>
<wgt id='morphing_basis_vector_3'> +2.2864561e-04 </wgt>
<wgt id='morphing_basis_vector_4'> +7.8271567e-05 </wgt>
<wgt id='morphing_basis_vector_5'> +1.8224104e-04 </wgt>
</rwgt>
</event>
<event>
 4      1 +2.9741700e-06 7.87314900e+02 7.81860800e-03 8.91829100e-02
        2 -1    0    0  501    0 +0.0000000000e+00 +0.0000000000e+00 +1.1230518821e+03 1.1230518821e+03 0.0000000000e+00 0.0000e+00 -1.0000e+00
       -2 -1    0    0    0  501 -0.0000000000e+00 -0.0000000000e+00 -1.3798667372e+02 1.3798667372e+02 0.0000000000e+00 0.0000e+00 1.0000e+00
      -13  1    1    2    0    0 -1.4624207293e+01 -3.9338565355e+02 +4.9290399081e+02 6.3080938802e+02 0.0000000000e+00 0.0000e+00 1.0000e+00
       13  1    1    2    0    0 +1.4624207293e+01 +3.9338565355e+02 +4.9216121755e+02 6.3022916778e+02 0.0000000000e+00 0.0000e+00 -1.0000e+00
<mgrwt>
<rscale>  0 0.78731491E+03</rscale>
<asrwt>0</asrwt>
<pdfrwt beam="1">  1        2 0.17277721E+00 0.78731491E+03</pdfrwt>
<pdfrwt beam="2">  1       -2 0.21228720E-01 0.78731491E+03</pdfrwt>
<totfact> 0.47220282E+02</totfact>
</mgrwt>
<rwgt>
<wgt id='morphing_basis_vector_1'> +2.0429521e-04 </wgt>
<wgt id='morphing_basis_vector_2'> +1.3975859e-04 </wgt>
<wgt id='morphing_basis_vector_3'> +1.8019442e-04 </wgt>
<wgt id='morphing_basis_vector_4'> +8.7503162e-05 </wgt>
<wgt id='morphing_basis_vector_5'> +1.5013738e-04 </wgt>
</rwgt>
</event>
<event>
 4      1 +2.9741700e-06 8.05339000e+02 7.81860800e-03 8.89559500e-02
        2 -1    0    0  501    0 +0.0000000000e+00 +0.0000000000e+00 +2.7291840370e+03 2.7291840370e+03 0.0000000000e+00 0.0000e+00 -1.0000e+00
       -2 -1    0    0    0  501 -0.0000000000e+00 -0.0000000000e+00 -5.9410698589e+01 5.9410698589e+01 0.0000000000e+00 0.0000e+00 1.0000e+00
      -13  1    1    2    0    0 +4.0142844344e+02 -7.4450364697e+00 +1.4411904796e+03 1.4960715966e+03 0.0000000000e+00 0.0000e+00 1.0000e+00
       13  1    1    2    0    0 -4.0142844344e+02 +7.4450364697e+00 +1.2285828589e+03 1.2925231390e+03 0.0000000000e+00 0.0000e+00 -1.0000e+00
<mgrwt>
<rscale>  0 0.80533901E+03</rscale>
<asrwt>0</asrwt>
<pdfrwt beam="1">  1        2 0.41987437E+00 0.80533901E+03</pdfrwt>
<pdfrwt beam="2">  1       -2 0.91401096E-02 0.80533901E+03</pdfrwt>
<totfact> 0.22639757E+02</totfact>
</mgrwt>
<rwgt>
<wgt id='morphing_basis_vector_1'> +2.2368313e-04 </wgt>
<wgt id='morphing_basis_vector_2'> +1.5912763e-04 </wgt>
<wgt id='morphing_basis_vector_3'> +1.9852459e-04 </wgt>
<wgt id='morphing_basis_vector_4'> +9.3863911e-05 </wgt>
<wgt id='morphing_basis_vector_5'> +1.6634691e-04 </wgt>
</rwgt>
</event>
<event>
 4      1 +2.9741700e-06 8.04582800e+02 7.81860800e-03 8.89653400e-02
        2 -1    0    0  501    0 +0.0000000000e+00 +0.0000000000e+00 +9.7637053627e+02 9.7637053627e+02 0.0000000000e+00 0.0000e+00 -1.0000e+00
       -2 -1    0    0    0  501 -0.0000000000e+00 -0.0000000000e+00 -1.6575506933e+02 1.6575506933e+02 0.0000000000e+00 0.0000e+00 1.0000e+00
      -13  1    1    2    0    0 +3.5388214665e+02 -1.3609768258e+02 +2.1441872189e+02 4.3558069427e+02 0.0000000000e+00 0.0000e+00 1.0000e+00
       13  1    1    2    0    0 -3.5388214665e+02 +1.3609768258e+02 +5.9619674505e+02 7.0654491133e+02 0.0000000000e+00 0.0000e+00 -1.0000e+00
<mgrwt>
<rscale>  0 0.80458279E+03</rscale>
<asrwt>0</asrwt>
<pdfrwt beam="1">  1        2 0.15021085E+00 0.80458279E+03</pdfrwt>
<pdfrwt beam="2">  1       -2 0.25500780E-01 0.80458279E+03</pdfrwt>
<totfact> 0.42434178E+02</totfact>
</mgrwt>
<rwgt>
<wgt id='morphing_basis_vector_1'> +2.1510926e-04 </wgt>
<wgt id='morphing_basis_vector_2'> +1.3460824e-04 </wgt>
<wgt id='morphing_basis_vector_3'> +1.9303510e-04 </wgt>
<wgt id='morphing_basis_vector_4'> +1.0341950e-04 </wgt>
<wgt id='morphing_basis_vector_5'> +1.6606783e-04 </wgt>
</rwgt>
</event>
<event>
 4      1 +2.9741700e-06 7.66785900e+02 7.81860800e-03 8.94493900e-02
        2 -1    0    0  501    0 +0.0000000000e+00 +0.0000000000e+00 +2.9683388592e+02 2.9683388592e+02 0.0000000000e+00 0.0000e+00 -1.0000e+00
       -2 -1    0    0    0  501 -0.0000000000e+00 -0.0000000000e+00 -4.9519327010e+02 4.9519327010e+02 0.0000000000e+00 0.0000e+00 1.0000e+00
      -13  1    1    2    0    0 +2.2628556034e+02 +7.1298639714e+01 -4.1026047701e+02 4.7392226139e+02 0.0000000000e+00 0.0000e+00 1.0000e+00
       13  1    1    2    0    0 -2.2628556034e+02 -7.1298639714e+01 +2.1190109283e+02 3.1810489463e+02 0.0000000000e+00 0.0000e+00 -1.0000e+00
<mgrwt>
<rscale>  0 0.76678587E+03</rscale>
<asrwt>0</asrwt>
<pdfrwt beam="1">  1        2 0.45666752E-01 0.76678587E+03</pdfrwt>
<pdfrwt beam="2">  1       -2 0.76183580E-01 0.76678587E+03</pdfrwt>
<totfact> 0.21500737E+02</totfact>
</mgrwt>
<rwgt>
<wgt id='morphing_basis_vector_1'> +1.7992739e-04 </wgt>
<wgt id='morphing_basis_vector_2'> +1.0770735e-04 </wgt>
<wgt id='morphing_basis_vector_3'> +1.5906008e-04 </wgt>
<wgt id='morphing_basis_vector_4'> +8.5148250e-05 </wgt>
<wgt id='morphing_basis_vector_5'> +1.3325261e-04 </wgt>
</rwgt>
</event>
<event>
 4      1 +2.9741700e-06 7.84881100e+02 7.81860800e-03 8.92140500e-02
        2 -1    0    0  501    0 +0.0000000000e+00 +0.0000000000e+00 +2.4696141669e+02 2.4696141669e+02 0.0000000000e+00 0.0000e+00 -1.0000e+00
       -2 -1    0    0    0  501 -0.0000000000e+00 -0.0000000000e+00 -6.2361798510e+02 6.2361798510e+02 0.0000000000e+00 0.0000e+00 1.0000e+00
      -13  1    1    2    0    0 +3.5536385467e+02 -1.1819750537e+02 -3.1841774279e+02 4.9157296346e+02 0.0000000000e+00 0.0000e+00 1.0000e+00
       13  1    1    2    0    0 -3.5536385467e+02 +1.1819750537e+02 -5.8238825620e+01 3.7900643833e+02 0.0000000000e+00 0.0000e+00 -1.0000e+00
<mgrwt>
<rscale>  0 0.78488109E+03</rscale>
<asrwt>0</asrwt>
<pdfrwt beam="1">  1        2 0.37994064E-01 0.78488109E+03</pdfrwt>
<pdfrwt beam="2">  1       -2 0.95941228E-01 0.78488109E+03</pdfrwt>
<totfact> 0.15572067E+02</totfact>
</mgrwt>
<rwgt>
<wgt id='morphing_basis_vector_1'> +1.9734725e-04 </wgt>
<wgt id='morphing_basis_vector_2'> +1.2368120e-04 </wgt>
<wgt id='morphing_basis_vector_3'> +1.7533519e-04 </wgt>
<wgt id='morphing_basis_vector_4'> +9.2128741e-05 </wgt>
<wgt id='morphing_basis_vector_5'> +1.4826052e-04 </wgt>
</rwgt>
</event>
<event>
 4      1 +2.9741700e-06 7.96659200e+02 7.81860800e-03 8.90644500e-02
        2 -1    0    0  501    0 +0.0000000000e+00 +0.0000000000e+00 +4.0594351222e+02 4.0594351222e+02 0.0000000000e+00 0.0000e+00 -1.0000e+00
       -2 -1    0    0    0  501 -0.0000000000e+00 -0.0000000000e+00 -3.9085853138e+02 3.9085853138e+02 0.0000000000e+00 0.0000e+00 1.0000e+00
      -13  1    1    2    0    0 +2.5986887948e+02 +1.2560017640e+02 -2.6702310448e+02 3.9320297196e+02 0.0000000000e+00 0.0000e+00 1.0000e+00
       13  1    1    2    0    0 -2.5986887948e+02 -1.2560017640e+02 +2.8210808532e+02 4.0359907164e+02 0.0000000000e+00 0.0000e+00 -1.0000e+00
<mgrwt>
<rscale>  0 0.79665924E+03</rscale>
<asrwt>0</asrwt>
<pdfrwt beam="1">  1        2 0.62452848E-01 0.79665924E+03</pdfrwt>
<pdfrwt beam="2">  1       -2 0.60132082E-01 0.79665924E+03</pdfrwt>
<totfact> 0.24921823E+02</totfact>
</mgrwt>
<rwgt>
<wgt id='morphing_basis_vector_1'> +2.0602220e-04 </wgt>
<wgt id='morphing_basis_vector_2'> +1.2461516e-04 </wgt>
<wgt id='morphing_basis_vector_3'> +1.8470251e-04 </wgt>
<wgt id='morphing_basis_vector_4'> +1.0102316e-04 </wgt>
<wgt id='morphing_basis_vector_5'> +1.5882654e-04 </wgt>
</rwgt>
</event>
<event>
 4      1 +2.9741700e-06 8.20530100e+02 7.81860800e-03 8.87695000e-02
        2 -1    0    0  501    0 +0.0000000000e+00 +0.0000000000e+00 +1.6327579395e+03 1.6327579395e+03 0.0000000000e+00 0.0000e+00 1.0000e+00
       -2 -1    0    0    0  501 -0.0000000000e+00 -0.0000000000e+00 -1.0308778342e+02 1.0308778342e+02 0.0000000000e+00 0.0000e+00 -1.0000e+00
      -13  1    1    2    0    0 +3.3936302411e+01 -3.1355196614e+02 +1.3199352993e+03 1.3570908969e+03 0.0000000000e+00 0.0000e+00 1.0000e+00
       13  1    1    2    0    0 -3.3936302411e+01 +3.1355196614e+02 +2.0973485678e+02 3.7875482603e+02 0.0000000000e+00 0.0000e+00 -1.0000e+00
<mgrwt>
<rscale>  0 0.82053006E+03</rscale>
<asrwt>0</asrwt>
<pdfrwt beam="1">  1        2 0.25119351E+00 0.82053006E+03</pdfrwt>
<pdfrwt beam="2">  1       -2 0.15859660E-01 0.82053006E+03</pdfrwt>
<totfact> 0.39378274E+02</totfact>
</mgrwt>
<rwgt>
<wgt id='morphing_basis_vector_1'> +2.8592840e-04 </wgt>
<wgt id='morphing_basis_vector_2'> +3.1386865e-04 </wgt>
<wgt id='morphing_basis_vector_3'> +2.4384314e-04 </wgt>
<wgt id='morphing_basis_vector_4'> +4.1136477e-05 </wgt>
<wgt id='morphing_basis_vector_5'> +1.7831426e-04 </wgt>
</rwgt>
</event>
<event>
 4      1 +2.9741700e-06 8.09270300e+02 7.81860800e-03 8.89072800e-02
        2 -1    0    0  501    0 +0.0000000000e+00 +0.0000000000e+00 +1.8071394930e+02 1.8071394930e+02 0.0000000000e+00 0.0000e+00 1.0000e+00
       -2 -1    0    0    0  501 -0.0000000000e+00 -0.0000000000e+00 -9.0601533402e+02 9.0601533402e+02 0.0000000000e+00 0.0000e+00 -1.0000e+00
      -13  1    1    2    0    0 +2.4400245641e+02 -1.6921502108e+02 +6.4713354389e+00 2.9700639770e+02 0.0000000000e+00 0.0000e+00 1.0000e+00
       13  1    1    2    0    0 -2.4400245641e+02 +1.6921502108e+02 -7.3177272016e+02 7.8972288561e+02 0.0000000000e+00 0.0000e+00 -1.0000e+00
<mgrwt>
<rscale>  0 0.80927031E+03</rscale>
<asrwt>0</asrwt>
<pdfrwt beam="1">  1        2 0.27802146E-01 0.80927031E+03</pdfrwt>
<pdfrwt beam="2">  1       -2 0.13938698E+00 0.80927031E+03</pdfrwt>
<totfact> 0.85689340E+01</totfact>
</mgrwt>
<rwgt>
<wgt id='morphing_basis_vector_1'> +2.7669752e-04 </wgt>
<wgt id='morphing_basis_vector_2'> +3.1232164e-04 </wgt>
<wgt id='morphing_basis_vector_3'> +2.3268298e-04 </wgt>
<wgt id='morphing_basis_vector_4'> +3.3107895e-05 </wgt>
<wgt id='morphing_basis_vector_5'> +1.6731704e-04 </wgt>
</rwgt>
</event>
<event>
 4      1 +2.9741700e-06 8.60365100e+02 7.81860800e-03 8.83001600e-02
        2 -1    0    0  501    0 +0.0000000000e+00 +0.0000000000e+00 +6.0834983847e+02 6.0834983847e+02 0.0000000000e+00 0.0000e+00 -1.0000e+00
       -2 -1    0    0    0  501 -0.0000000000e+00 -0.0000000000e+00 -3.0419507494e+02 3.0419507494e+02 0.0000000000e+00 0.0000e+00 1.0000e+00
      -13  1    1    2    0    0 +3.0954983220e+02 +1.1128843283e+02 -1.4195535905e+02 3.5827020231e+02 0.0000000000e+00 0.0000e+00 1.0000e+00
       13  1    1    2    0    0 -3.0954983220e+02 -1.1128843283e+02 +4.4611012258e+02 5.5427471111e+02 0.0000000000e+00 0.0000e+00 -1.0000e+00
<mgrwt>
<rscale>  0 0.86036510E+03</rscale>
<asrwt>0</asrwt>
<pdfrwt beam="1">  1        2 0.93592283E-01 0.86036510E+03</pdfrwt>
<pdfrwt beam="2">  1       -2 0.46799242E-01 0.86036510E+03</pdfrwt>
<totfact> 0.25703824E+02</totfact>
</mgrwt>
<rwgt>
<wgt id='morphing_basis_vector_1'> +2.7127101e-04 </wgt>
<wgt id='morphing_basis_vector_2'> +1.6671842e-04 </wgt>
<wgt id='morphing_basis_vector_3'> +2.4973841e-04 </wgt>
<wgt id='morphing_basis_vector_4'> +1.4225120e-04 </wgt>
<wgt id='morphing_basis_vector_5'> +2.2490204e-04 </wgt>
</rwgt>
</event>
<event>
 4      1 +2.9741700e-06 8.57910400e+02 7.81860800e-03 8.83283000e-02
        2 -1    0    0  501    0 +0.0000000000e+00 +0.0000000000e+00 +8.6740208669e+02 8.6740208669e+02 0.0000000000e+00 0.0000e+00 -1.0000e+00
       -2 -1    0    0    0  501 -0.0000000000e+00 -0.0000000000e+00 -2.1213062545e+02 2.1213062545e+02 0.0000000000e+00 0.0000e+00 1.0000e+00
      -13  1    1    2    0    0 -3.4974288763e+02 +1.4318582665e+02 +7.2284159192e+01 3.8476911008e+02 0.0000000000e+00 0.0000e+00 1.0000e+00
       13  1    1    2    0    0 +3.4974288763e+02 -1.4318582665e+02 +5.8298730205e+02 6.9476360206e+02 0.0000000000e+00 0.0000e+00 -1.0000e+00
<mgrwt>
<rscale>  0 0.85791036E+03</rscale>
<asrwt>0</asrwt>
<pdfrwt beam="1">  1        2 0.13344647E+00 0.85791036E+03</pdfrwt>
<pdfrwt beam="2">  1       -2 0.32635481E-01 0.85791036E+03</pdfrwt>
<totfact> 0.32266347E+02</totfact>
</mgrwt>
<rwgt>
<wgt id='morphing_basis_vector_1'> +2.6933349e-04 </wgt>
<wgt id='morphing_basis_vector_2'> +1.6748449e-04 </wgt>
<wgt id='morphing_basis_vector_3'> +2.4754783e-04 </wgt>
<wgt id='morphing_basis_vector_4'> +1.3932330e-04 </wgt>
<wgt id='morphing_basis_vector_5'> +2.2198591e-04 </wgt>
</rwgt>
</event>
<event>
 4      1 +2.9741700e-06 8.33342700e+02 7.81860800e-03 8.86155200e-02
        2 -1    0    0  501    0 +0.0000000000e+00 +0.0000000000e+00 +9.5201794673e+02 9.5201794673e+02 0.0000000000e+00 0.0000e+00 1.0000e+00
       -2 -1    0    0    0  501 -0.0000000000e+00 -0.0000000000e+00 -1.8236525388e+02 1.8236525388e+02 0.0000000000e+00 0.0000e+00 -1.0000e+00
      -13  1    1    2    0    0 +1.5280451895e+02 +1.6959400714e+02 -8.9667768922e+01 2.4525834757e+02 0.0000000000e+00 0.0000e+00 -1.0000e+00
       13  1    1    2    0    0 -1.5280451895e+02 -1.6959400714e+02 +8.5932046178e+02 8.8912485304e+02 0.0000000000e+00 0.0000e+00 1.0000e+00
<mgrwt>
<rscale>  0 0.83334265E+03</rscale>
<asrwt>0</asrwt>
<pdfrwt beam="1">  1        2 0.14646430E+00 0.83334265E+03</pdfrwt>
<pdfrwt beam="2">  1       -2 0.28056193E-01 0.83334265E+03</pdfrwt>
<totfact> 0.37201368E+02</totfact>
</mgrwt>
<rwgt>
<wgt id='morphing_basis_vector_1'> +2.4156446e-04 </wgt>
<wgt id='morphing_basis_vector_2'> +1.4673376e-04 </wgt>
<wgt id='morphing_basis_vector_3'> +2.2010801e-04 </wgt>
<wgt id='morphing_basis_vector_4'> +1.2392298e-04 </wgt>
<wgt id='morphing_basis_vector_5'> +1.9486624e-04 </wgt>
</rwgt>
</event>
<event>
 4      1 +2.9741700e-06 7.78183200e+02 7.81860800e-03 8.93003700e-02
        2 -1    0    0  501    0 +0.0000000000e+00 +0.0000000000e+00 +6.5193080819e+02 6.5193080819e+02 0.0000000000e+00 0.0000e+00 1.0000e+00
       -2 -1    0    0    0  501 -0.0000000000e+00 -0.0000000000e+00 -2.3222139029e+02 2.3222139029e+02 0.0000000000e+00 0.0000e+00 -1.0000e+00
      -13  1    1    2    0    0 +1.0885422788e+02 -9.4798766627e+01 -2.0067441481e+02 2.4719682409e+02 0.0000000000e+00 0.0000e+00 -1.0000e+00
       13  1    1    2    0    0 -1.0885422788e+02 +9.4798766627e+01 +6.2038383270e+02 6.3695537439e+02 0.0000000000e+00 0.0000e+00 1.0000e+00
<mgrwt>
<rscale>  0 0.77818321E+03</rscale>
<asrwt>0</asrwt>
<pdfrwt beam="1">  1        2 0.10029705E+00 0.77818321E+03</pdfrwt>
<pdfrwt beam="2">  1       -2 0.35726368E-01 0.77818321E+03</pdfrwt>
<totfact> 0.39385059E+02</totfact>
</mgrwt>
<rwgt>
<wgt id='morphing_basis_vector_1'> +1.8940613e-04 </wgt>
<wgt id='morphing_basis_vector_2'> +1.1346889e-04 </wgt>
<wgt id='morphing_basis_vector_3'> +1.6841326e-04 </wgt>
<wgt id='morphing_basis_vector_4'> +9.1158662e-05 </wgt>
<wgt id='morphing_basis_vector_5'> +1.4263846e-04 </wgt>
</rwgt>
</event>
<event>
 4      1 +2.9741700e-06 7.62274400e+02 7.81860800e-03 8.95091400e-02
        2 -1    0    0  501    0 +0.0000000000e+00 +0.0000000000e+00 +5.2067583378e+02 5.2067583378e+02 0.0000000000e+00 0.0000e+00 -1.0000e+00
       -2 -1    0    0    0  501 -0.0000000000e+00 -0.0000000000e+00 -2.7899425631e+02 2.7899425631e+02 0.0000000000e+00 0.0000e+00 1.0000e+00
      -13  1    1    2    0    0 +1.8286943089e+02 -2.5843321641e+01 -2.2891657806e+02 2.9412906306e+02 0.0000000000e+00 0.0000e+00 1.0000e+00
       13  1    1    2    0    0 -1.8286943089e+02 +2.5843321641e+01 +4.7059815553e+02 5.0554102703e+02 0.0000000000e+00 0.0000e+00 -1.0000e+00
<mgrwt>
<rscale>  0 0.76227440E+03</rscale>
<asrwt>0</asrwt>
<pdfrwt beam="1">  1        2 0.80103974E-01 0.76227440E+03</pdfrwt>
<pdfrwt beam="2">  1       -2 0.42922193E-01 0.76227440E+03</pdfrwt>
<totfact> 0.36503963E+02</totfact>
</mgrwt>
<rwgt>
<wgt id='morphing_basis_vector_1'> +1.7617623e-04 </wgt>
<wgt id='morphing_basis_vector_2'> +1.0517286e-04 </wgt>
<wgt id='morphing_basis_vector_3'> +1.5541562e-04 </wgt>
<wgt id='morphing_basis_vector_4'> +8.2974724e-05 </wgt>
<wgt id='morphing_basis_vector_5'> +1.2966745e-04 </wgt>
</rwgt>
</event>
<event>
 4      1 +2.9741700e-06 7.91504800e+02 7.81860800e-03 8.91295800e-02
        2 -1    0    0  501    0 +0.0000000000e+00 +0.0000000000e+00 +4.9486899396e+02 4.9486899396e+02 0.0000000000e+00 0.0000e+00 1.0000e+00
       -2 -1    0    0    0  501 -0.0000000000e+00 -0.0000000000e+00 -3.1648768741e+02 3.1648768741e+02 0.0000000000e+00 0.0000e+00 -1.0000e+00
      -13  1    1    2    0    0 +7.6328067290e+01 +3.8472556318e+02 +3.5140473710e+01 3.9379510626e+02 0.0000000000e+00 0.0000e+00 -1.0000e+00
       13  1    1    2    0    0 -7.6328067290e+01 -3.8472556318e+02 +1.4324083283e+02 4.1756157511e+02 0.0000000000e+00 0.0000e+00 1.0000e+00
<mgrwt>
<rscale>  0 0.79150475E+03</rscale>
<asrwt>0</asrwt>
<pdfrwt beam="1">  1        2 0.76133691E-01 0.79150475E+03</pdfrwt>
<pdfrwt beam="2">  1       -2 0.48690414E-01 0.79150475E+03</pdfrwt>
<totfact> 0.30347157E+02</totfact>
</mgrwt>
<rwgt>
<wgt id='morphing_basis_vector_1'> +2.0538894e-04 </wgt>
<wgt id='morphing_basis_vector_2'> +1.3402541e-04 </wgt>
<wgt id='morphing_basis_vector_3'> +1.8241813e-04 </wgt>
<wgt id='morphing_basis_vector_4'> +9.3070672e-05 </wgt>
<wgt id='morphing_basis_vector_5'> +1.5397134e-04 </wgt>
</rwgt>
</event>
<event>
 4      1 +2.9741700e-06 8.67822500e+02 7.81860800e-03 8.82152700e-02
        2 -1    0    0  501    0 +0.0000000000e+00 +0.0000000000e+00 +1.9008636084e+02 1.9008636084e+02 0.0000000000e+00 0.0000e+00 -1.0000e+00
       -2 -1    0    0    0  501 -0.0000000000e+00 -0.0000000000e+00 -9.9049165686e+02 9.9049165686e+02 0.0000000000e+00 0.0000e+00 1.0000e+00
      -13  1    1    2    0    0 -1.0867283546e+02 -4.1721185857e+02 -4.6689560046e+02 6.3550532793e+02 0.0000000000e+00 0.0000e+00 1.0000e+00
       13  1    1    2    0    0 +1.0867283546e+02 +4.1721185857e+02 -3.3350969557e+02 5.4507268977e+02 0.0000000000e+00 0.0000e+00 -1.0000e+00
<mgrwt>
<rscale>  0 0.86782246E+03</rscale>
<asrwt>0</asrwt>
<pdfrwt beam="1">  1        2 0.29244055E-01 0.86782246E+03</pdfrwt>
<pdfrwt beam="2">  1       -2 0.15238333E+00 0.86782246E+03</pdfrwt>
<totfact> 0.62637990E+01</totfact>
</mgrwt>
<rwgt>
<wgt id='morphing_basis_vector_1'> +2.8584053e-04 </wgt>
<wgt id='morphing_basis_vector_2'> +1.9054939e-04 </wgt>
<wgt id='morphing_basis_vector_3'> +2.6273159e-04 </wgt>
<wgt id='morphing_basis_vector_4'> +1.3953267e-04 </wgt>
<wgt id='morphing_basis_vector_5'> +2.3334182e-04 </wgt>
</rwgt>
</event>
<event>
 4      1 +2.9741700e-06 8.00996600e+02 7.81860800e-03 8.90100500e-02
        2 -1    0    0  501    0 +0.0000000000e+00 +0.0000000000e+00 +8.2318217453e+02 8.2318217453e+02 0.0000000000e+00 0.0000e+00 -1.0000e+00
       -2 -1    0    0    0  501 -0.0000000000e+00 -0.0000000000e+00 -1.9485225347e+02 1.9485225347e+02 0.0000000000e+00 0.0000e+00 1.0000e+00
      -13  1    1    2    0    0 +2.9859897678e+02 -1.6993325261e+02 +5.2581071031e+01 3.4756787583e+02 0.0000000000e+00 0.0000e+00 1.0000e+00
       13  1    1    2    0    0 -2.9859897678e+02 +1.6993325261e+02 +5.7574885002e+02 6.7046655217e+02 0.0000000000e+00 0.0000e+00 -1.0000e+00
<mgrwt>
<rscale>  0 0.80099663E+03</rscale>
<asrwt>0</asrwt>
<pdfrwt beam="1">  1        2 0.12664341E+00 0.80099663E+03</pdfrwt>
<pdfrwt beam="2">  1       -2 0.29977270E-01 0.80099663E+03</pdfrwt>
<totfact> 0.40304462E+02</totfact>
</mgrwt>
<rwgt>
<wgt id='morphing_basis_vector_1'> +2.1058015e-04 </wgt>
<wgt id='morphing_basis_vector_2'> +1.2887106e-04 </wgt>
<wgt id='morphing_basis_vector_3'> +1.8899555e-04 </wgt>
<wgt id='morphing_basis_vector_4'> +1.0281737e-04 </wgt>
<wgt id='morphing_basis_vector_5'> +1.6278292e-04 </wgt>
</rwgt>
</event>
<event>
 4      1 +2.9741700e-06 8.96320300e+02 7.81860800e-03 8.78989600e-02
        2 -1    0    0  501    0 +0.0000000000e+00 +0.0000000000e+00 +1.5449964328e+03 1.5449964328e+03 0.0000000000e+00 0.0000e+00 -1.0000e+00
       -2 -1    0    0    0  501 -0.0000000000e+00 -0.0000000000e+00 -1.2999870595e+02 1.2999870595e+02 0.0000000000e+00 0.0000e+00 1.0000e+00
      -13  1    1    2    0    0 +3.2643781654e+02 +1.3889866658e+02 +1.2192523458e+03 1.2698152505e+03 0.0000000000e+00 0.0000e+00 1.0000e+00
       13  1    1    2    0    0 -3.2643781654e+02 -1.3889866658e+02 +1.9574538105e+02 4.0517988826e+02 0.0000000000e+00 0.0000e+00 -1.0000e+00
<mgrwt>
<rscale>  0 0.89632034E+03</rscale>
<asrwt>0</asrwt>
<pdfrwt beam="1">  1        2 0.23769175E+00 0.89632034E+03</pdfrwt>
<pdfrwt beam="2">  1       -2 0.19999802E-01 0.89632034E+03</pdfrwt>
<totfact> 0.29879316E+02</totfact>
</mgrwt>
<rwgt>
<wgt id='morphing_basis_vector_1'> +3.8840640e-04 </wgt>
<wgt id='morphing_basis_vector_2'> +4.1958690e-04 </wgt>
<wgt id='morphing_basis_vector_3'> +3.5089877e-04 </wgt>
<wgt id='morphing_basis_vector_4'> +6.5727962e-05 </wgt>
<wgt id='morphing_basis_vector_5'> +2.6442452e-04 </wgt>
</rwgt>
</event>
<event>
 4      1 +2.9741700e-06 7.52268400e+02 7.81860800e-03 8.96432500e-02
        2 -1    0    0  501    0 +0.0000000000e+00 +0.0000000000e+00 +5.7479298357e+02 5.7479298357e+02 0.0000000000e+00 0.0000e+00 1.0000e+00
       -2 -1    0    0    0  501 -0.0000000000e+00 -0.0000000000e+00 -2.4613543752e+02 2.4613543752e+02 0.0000000000e+00 0.0000e+00 -1.0000e+00
      -13  1    1    2    0    0 -1.7668647803e+02 +3.8743209820e+01 -1.9555531916e+02 2.6638511722e+02 0.0000000000e+00 0.0000e+00 -1.0000e+00
       13  1    1    2    0    0 +1.7668647803e+02 -3.8743209820e+01 +5.2421286520e+02 5.5454330387e+02 0.0000000000e+00 0.0000e+00 1.0000e+00
<mgrwt>
<rscale>  0 0.75226836E+03</rscale>
<asrwt>0</asrwt>
<pdfrwt beam="1">  1        2 0.88429689E-01 0.75226836E+03</pdfrwt>
<pdfrwt beam="2">  1       -2 0.37866991E-01 0.75226836E+03</pdfrwt>
<totfact> 0.41137421E+02</totfact>
</mgrwt>
<rwgt>
<wgt id='morphing_basis_vector_1'> +1.6822055e-04 </wgt>
<wgt id='morphing_basis_vector_2'> +1.0016065e-04 </wgt>
<wgt id='morphing_basis_vector_3'> +1.4763649e-04 </wgt>
<wgt id='morphing_basis_vector_4'> +7.8126125e-05 </wgt>
<wgt id='morphing_basis_vector_5'> +1.2195641e-04 </wgt>
</rwgt>
</event>
<event>
 4      1 +2.9741700e-06 8.63301400e+02 7.81860800e-03 8.82666300e-02
        2 -1    0    0  501    0 +0.0000000000e+00 +0.0000000000e+00 +1.5403909616e+03 1.5403909616e+03 0.0000000000e+00 0.0000e+00 -1.0000e+00
       -2 -1    0    0    0  501 -0.0000000000e+00 -0.0000000000e+00 -1.2095780486e+02 1.2095780486e+02 0.0000000000e+00 0.0000e+00 1.0000e+00
      -13  1    1    2    0    0 -3.0830297189e+02 +2.9110599994e+02 +8.6521208833e+02 9.6352757276e+02 0.0000000000e+00 0.0000e+00 1.0000e+00
       13  1    1    2    0    0 +3.0830297189e+02 -2.9110599994e+02 +5.5422106837e+02 6.9782119365e+02 0.0000000000e+00 0.0000e+00 -1.0000e+00
<mgrwt>
<rscale>  0 0.86330136E+03</rscale>
<asrwt>0</asrwt>
<pdfrwt beam="1">  1        2 0.23698321E+00 0.86330136E+03</pdfrwt>
<pdfrwt beam="2">  1       -2 0.18608894E-01 0.86330136E+03</pdfrwt>
<totfact> 0.33959716E+02</totfact>
</mgrwt>
<rwgt>
<wgt id='morphing_basis_vector_1'> +2.9277364e-04 </wgt>
<wgt id='morphing_basis_vector_2'> +2.2425256e-04 </wgt>
<wgt id='morphing_basis_vector_3'> +2.6620414e-04 </wgt>
<wgt id='morphing_basis_vector_4'> +1.1957014e-04 </wgt>
<wgt id='morphing_basis_vector_5'> +2.2712599e-04 </wgt>
</rwgt>
</event>
<event>
 4      1 +2.9741700e-06 7.65390600e+02 7.81860800e-03 8.94678200e-02
        2 -1    0    0  501    0 +0.0000000000e+00 +0.0000000000e+00 +1.0469799374e+03 1.0469799374e+03 0.0000000000e+00 0.0000e+00 -1.0000e+00
       -2 -1    0    0    0  501 -0.0000000000e+00 -0.0000000000e+00 -1.3988395175e+02 1.3988395175e+02 0.0000000000e+00 0.0000e+00 1.0000e+00
      -13  1    1    2    0    0 +2.4526021520e+02 +2.5221434886e+01 -3.1478461982e-01 2.4655383393e+02 0.0000000000e+00 0.0000e+00 1.0000e+00
       13  1    1    2    0    0 -2.4526021520e+02 -2.5221434886e+01 +9.0741077025e+02 9.4031005520e+02 0.0000000000e+00 0.0000e+00 -1.0000e+00
<mgrwt>
<rscale>  0 0.76539060E+03</rscale>
<asrwt>0</asrwt>
<pdfrwt beam="1">  1        2 0.16107383E+00 0.76539060E+03</pdfrwt>
<pdfrwt beam="2">  1       -2 0.21520609E-01 0.76539060E+03</pdfrwt>
<totfact> 0.51309481E+02</totfact>
</mgrwt>
<rwgt>
<wgt id='morphing_basis_vector_1'> +1.7880487e-04 </wgt>
<wgt id='morphing_basis_vector_2'> +1.0705431e-04 </wgt>
<wgt id='morphing_basis_vector_3'> +1.5794882e-04 </wgt>
<wgt id='morphing_basis_vector_4'> +8.4418846e-05 </wgt>
<wgt id='morphing_basis_vector_5'> +1.3213434e-04 </wgt>
</rwgt>
</event>
<event>
 4      1 +2.9741700e-06 7.59955100e+02 7.81860800e-03 8.95400300e-02
        2 -1    0    0  501    0 +0.0000000000e+00 +0.0000000000e+00 +2.4176378614e+02 2.4176378614e+02 0.0000000000e+00 0.0000e+00 1.0000e+00
       -2 -1    0    0    0  501 -0.0000000000e+00 -0.0000000000e+00 -5.9720671049e+02 5.9720671049e+02 0.0000000000e+00 0.0000e+00 -1.0000e+00
      -13  1    1    2    0    0 +3.5986758675e+02 +5.9960796792e+01 -2.9498705558e+02 4.6916664428e+02 0.0000000000e+00 0.0000e+00 1.0000e+00
       13  1    1    2    0    0 -3.5986758675e+02 -5.9960796792e+01 -6.0455868771e+01 3.6980385235e+02 0.0000000000e+00 0.0000e+00 -1.0000e+00
<mgrwt>
<rscale>  0 0.75995514E+03</rscale>
<asrwt>0</asrwt>
<pdfrwt beam="1">  1        2 0.37194429E-01 0.75995514E+03</pdfrwt>
<pdfrwt beam="2">  1       -2 0.91877954E-01 0.75995514E+03</pdfrwt>
<totfact> 0.17687772E+02</totfact>
</mgrwt>
<rwgt>
<wgt id='morphing_basis_vector_1'> +1.7634723e-04 </wgt>
<wgt id='morphing_basis_vector_2'> +1.1025970e-04 </wgt>
<wgt id='morphing_basis_vector_3'> +1.5461703e-04 </wgt>
<wgt id='morphing_basis_vector_4'> +7.9413717e-05 </wgt>
<wgt id='morphing_basis_vector_5'> +1.2776037e-04 </wgt>
</rwgt>
</event>
<event>
 4      1 +2.9741700e-06 7.75040700e+02 7.81860800e-03 8.93411800e-02
        2 -1    0    0  501    0 +0.0000000000e+00 +0.0000000000e+00 +2.0025284563e+02 2.0025284563e+02 0.0000000000e+00 0.0000e+00 -1.0000e+00
       -2 -1    0    0    0  501 -0.0000000000e+00 -0.0000000000e+00 -7.4991200221e+02 7.4991200221e+02 0.0000000000e+00 0.0000e+00 1.0000e+00
      -13  1    1    2    0    0 -3.2638875730e+00 -1.6321545666e+02 -7.0570006880e+02 7.2433592024e+02 0.0000000000e+00 0.0000e+00 1.0000e+00
       13  1    1    2    0    0 +3.2638875730e+00 +1.6321545666e+02 +1.5604091221e+02 2.2582892759e+02 0.0000000000e+00 0.0000e+00 -1.0000e+00
<mgrwt>
<rscale>  0 0.77504068E+03</rscale>
<asrwt>0</asrwt>
<pdfrwt beam="1">  1        2 0.30808130E-01 0.77504068E+03</pdfrwt>
<pdfrwt beam="2">  1       -2 0.11537108E+00 0.77504068E+03</pdfrwt>
<totfact> 0.12583243E+02</totfact>
</mgrwt>
<rwgt>
<wgt id='morphing_basis_vector_1'> +1.8673592e-04 </wgt>
<wgt id='morphing_basis_vector_2'> +1.1180002e-04 </wgt>
<wgt id='morphing_basis_vector_3'> +1.6578384e-04 </wgt>
<wgt id='morphing_basis_vector_4'> +8.9493834e-05 </wgt>
<wgt id='morphing_basis_vector_5'> +1.4000555e-04 </wgt>
</rwgt>
</event>
<event>
 4      1 +2.9741700e-06 8.55319500e+02 7.81860800e-03 8.83581100e-02
        2 -1    0    0  501    0 +0.0000000000e+00 +0.0000000000e+00 +3.0240400206e+02 3.0240400206e+02 0.0000000000e+00 0.0000e+00 -1.0000e+00
       -2 -1    0    0    0  501 -0.0000000000e+00 -0.0000000000e+00 -6.0479640098e+02 6.0479640098e+02 0.0000000000e+00 0.0000e+00 1.0000e+00
      -13  1    1    2    0    0 -9.6525305690e+01 +2.5168005507e+02 -5.0334841470e+02 5.7098127057e+02 0.0000000000e+00 0.0000e+00 1.0000e+00
       13  1    1    2    0    0 +9.6525305690e+01 -2.5168005507e+02 +2.0095601578e+02 3.3621913247e+02 0.0000000000e+00 0.0000e+00 -1.0000e+00
<mgrwt>
<rscale>  0 0.85531948E+03</rscale>
<asrwt>0</asrwt>
<pdfrwt beam="1">  1        2 0.46523693E-01 0.85531948E+03</pdfrwt>
<pdfrwt beam="2">  1       -2 0.93045600E-01 0.85531948E+03</pdfrwt>
<totfact> 0.13256707E+02</totfact>
</mgrwt>
<rwgt>
<wgt id='morphing_basis_vector_1'> +2.6527363e-04 </wgt>
<wgt id='morphing_basis_vector_2'> +1.6208795e-04 </wgt>
<wgt id='morphing_basis_vector_3'> +2.4381166e-04 </wgt>
<wgt id='morphing_basis_vector_4'> +1.3902267e-04 </wgt>
<wgt id='morphing_basis_vector_5'> +2.1907261e-04 </wgt>
</rwgt>
</event>
<event>
 4      1 +2.9741700e-06 8.63354000e+02 7.81860800e-03 8.82660300e-02
        2 -1    0    0  501    0 +0.0000000000e+00 +0.0000000000e+00 +3.9972981380e+03 3.9972981380e+03 0.0000000000e+00 0.0000e+00 -1.0000e+00
       -2 -1    0    0    0  501 -0.0000000000e+00 -0.0000000000e+00 -4.6617743351e+01 4.6617743351e+01 0.0000000000e+00 0.0000e+00 1.0000e+00
      -13  1    1    2    0    0 -4.1649155299e+02 -2.9715837979e+00 +2.5067370053e+03 2.5411030002e+03 0.0000000000e+00 0.0000e+00 1.0000e+00
       13  1    1    2    0    0 +4.1649155299e+02 +2.9715837979e+00 +1.4439433893e+03 1.5028128811e+03 0.0000000000e+00 0.0000e+00 -1.0000e+00
<mgrwt>
<rscale>  0 0.86335397E+03</rscale>
<asrwt>0</asrwt>
<pdfrwt beam="1">  1        2 0.61496867E+00 0.86335397E+03</pdfrwt>
<pdfrwt beam="2">  1       -2 0.71719637E-02 0.86335397E+03</pdfrwt>
<totfact> 0.42323608E+01</totfact>
</mgrwt>
<rwgt>
<wgt id='morphing_basis_vector_1'> +2.9816673e-04 </wgt>
<wgt id='morphing_basis_vector_2'> +2.4055760e-04 </wgt>
<wgt id='morphing_basis_vector_3'> +2.7011544e-04 </wgt>
<wgt id='morphing_basis_vector_4'> +1.1230960e-04 </wgt>
<wgt id='morphing_basis_vector_5'> +2.2682603e-04 </wgt>
</rwgt>
</event>
<event>
 4      1 +2.9741700e-06 8.47942100e+02 7.81860800e-03 8.84436000e-02
        2 -1    0    0  501    0 +0.0000000000e+00 +0.0000000000e+00 +6.3100472713e+02 6.3100472713e+02 0.0000000000e+00 0.0000e+00 -1.0000e+00
       -2 -1    0    0    0  501 -0.0000000000e+00 -0.0000000000e+00 -2.8486544623e+02 2.8486544623e+02 0.0000000000e+00 0.0000e+00 1.0000e+00
      -13  1    1    2    0    0 -1.5658641816e+02 +2.2672290972e+02 -1.7496844264e+02 3.2639935672e+02 0.0000000000e+00 0.0000e+00 1.0000e+00
       13  1    1    2    0    0 +1.5658641816e+02 -2.2672290972e+02 +5.2110772354e+02 5.8947081665e+02 0.0000000000e+00 0.0000e+00 -1.0000e+00
<mgrwt>
<rscale>  0 0.84794208E+03</rscale>
<asrwt>0</asrwt>
<pdfrwt beam="1">  1        2 0.97077650E-01 0.84794208E+03</pdfrwt>
<pdfrwt beam="2">  1       -2 0.43825453E-01 0.84794208E+03</pdfrwt>
<totfact> 0.27925814E+02</totfact>
</mgrwt>
<rwgt>
<wgt id='morphing_basis_vector_1'> +2.5717518e-04 </wgt>
<wgt id='morphing_basis_vector_2'> +1.5696590e-04 </wgt>
<wgt id='morphing_basis_vector_3'> +2.3568477e-04 </wgt>
<wgt id='morphing_basis_vector_4'> +1.3374036e-04 </wgt>
<wgt id='morphing_basis_vector_5'> +2.1071450e-04 </wgt>
</rwgt>
</event>
<event>
 4      1 +2.9741700e-06 7.57241500e+02 7.81860800e-03 8.95763200e-02
        2 -1    0    0  501    0 +0.0000000000e+00 +0.0000000000e+00 +1.4543497598e+03 1.4543497598e+03 0.0000000000e+00 0.0000e+00 -1.0000e+00
       -2 -1    0    0    0  501 -0.0000000000e+00 -0.0000000000e+00 -9.8568922611e+01 9.8568922611e+01 0.0000000000e+00 0.0000e+00 1.0000e+00
      -13  1    1    2    0    0 +2.1469621013e+02 -1.1705918022e+02 +8.5096039910e+01 2.5891823096e+02 0.0000000000e+00 0.0000e+00 1.0000e+00
       13  1    1    2    0    0 -2.1469621013e+02 +1.1705918022e+02 +1.2706847973e+03 1.2940004515e+03 0.0000000000e+00 0.0000e+00 -1.0000e+00
<mgrwt>
<rscale>  0 0.75724154E+03</rscale>
<asrwt>0</asrwt>
<pdfrwt beam="1">  1        2 0.22374610E+00 0.75724154E+03</pdfrwt>
<pdfrwt beam="2">  1       -2 0.15164451E-01 0.75724154E+03</pdfrwt>
<totfact> 0.53326157E+02</totfact>
</mgrwt>
<rwgt>
<wgt id='morphing_basis_vector_1'> +1.7222902e-04 </wgt>
<wgt id='morphing_basis_vector_2'> +1.0290565e-04 </wgt>
<wgt id='morphing_basis_vector_3'> +1.5150968e-04 </wgt>
<wgt id='morphing_basis_vector_4'> +8.0402757e-05 </wgt>
<wgt id='morphing_basis_vector_5'> +1.2574275e-04 </wgt>
</rwgt>
</event>
<event>
 4      1 +2.9741700e-06 8.13479500e+02 7.81860800e-03 8.88555000e-02
        2 -1    0    0  501    0 +0.0000000000e+00 +0.0000000000e+00 +1.7097068266e+02 1.7097068266e+02 0.0000000000e+00 0.0000e+00 -1.0000e+00
       -2 -1    0    0    0  501 -0.0000000000e+00 -0.0000000000e+00 -9.6763495333e+02 9.6763495333e+02 0.0000000000e+00 0.0000e+00 1.0000e+00
      -13  1    1    2    0    0 -9.2364671312e+01 +3.3139714987e+02 -7.0203840013e+02 7.8180126547e+02 0.0000000000e+00 0.0000e+00 1.0000e+00
       13  1    1    2    0    0 +9.2364671312e+01 -3.3139714987e+02 -9.4625870544e+01 3.5680437052e+02 0.0000000000e+00 0.0000e+00 -1.0000e+00
<mgrwt>
<rscale>  0 0.81347946E+03</rscale>
<asrwt>0</asrwt>
<pdfrwt beam="1">  1        2 0.26303182E-01 0.81347946E+03</pdfrwt>
<pdfrwt beam="2">  1       -2 0.14886691E+00 0.81347946E+03</pdfrwt>
<totfact> 0.76046754E+01</totfact>
</mgrwt>
<rwgt>
<wgt id='morphing_basis_vector_1'> +2.2237653e-04 </wgt>
<wgt id='morphing_basis_vector_2'> +1.3625893e-04 </wgt>
<wgt id='morphing_basis_vector_3'> +2.0073163e-04 </wgt>
<wgt id='morphing_basis_vector_4'> +1.1032088e-04 </wgt>
<wgt id='morphing_basis_vector_5'> +1.7465915e-04 </wgt>
</rwgt>
</event>
<event>
 4      1 +2.9741700e-06 8.44028600e+02 7.81860800e-03 8.84893200e-02
        2 -1    0    0  501    0 +0.0000000000e+00 +0.0000000000e+00 +2.2965483823e+02 2.2965483823e+02 0.0000000000e+00 0.0000e+00 -1.0000e+00
       -2 -1    0    0    0  501 -0.0000000000e+00 -0.0000000000e+00 -7.7549453764e+02 7.7549453764e+02 0.0000000000e+00 0.0000e+00 1.0000e+00
      -13  1    1    2    0    0 -1.8752688345e+02 +2.5647364739e+02 -6.0370365955e+02 6.8220464112e+02 0.0000000000e+00 0.0000e+00 1.0000e+00
       13  1    1    2    0    0 +1.8752688345e+02 -2.5647364739e+02 +5.7863960135e+01 3.2294473475e+02 0.0000000000e+00 0.0000e+00 -1.0000e+00
<mgrwt>
<rscale>  0 0.84402861E+03</rscale>
<asrwt>0</asrwt>
<pdfrwt beam="1">  1        2 0.35331514E-01 0.84402861E+03</pdfrwt>
<pdfrwt beam="2">  1       -2 0.11930685E+00 0.84402861E+03</pdfrwt>
<totfact> 0.98237808E+01</totfact>
</mgrwt>
<rwgt>
<wgt id='morphing_basis_vector_1'> +2.5317845e-04 </wgt>
<wgt id='morphing_basis_vector_2'> +1.5497318e-04 </wgt>
<wgt id='morphing_basis_vector_3'> +2.3160919e-04 </wgt>
<wgt id='morphing_basis_vector_4'> +1.3070378e-04 </wgt>
<wgt id='morphing_basis_vector_5'> +2.0636155e-04 </wgt>
</rwgt>
</event>
<event>
 4      1 +2.9741700e-06 8.73962700e+02 7.81860800e-03 8.81460500e-02
        2 -1    0    0  501    0 +0.0000000000e+00 +0.0000000000e+00 +9.9534801515e+02 9.9534801515e+02 0.0000000000e+00 0.0000e+00 -1.0000e+00
       -2 -1    0    0    0  501 -0.0000000000e+00 -0.0000000000e+00 -1.9184514873e+02 1.9184514873e+02 0.0000000000e+00 0.0000e+00 1.0000e+00
      -13  1    1    2    0    0 -3.2356874748e+02 -1.5995974522e+02 +6.7162689704e+01 3.6714395177e+02 0.0000000000e+00 0.0000e+00 1.0000e+00
       13  1    1    2    0    0 +3.2356874748e+02 +1.5995974522e+02 +7.3634017672e+02 8.2004921211e+02 0.0000000000e+00 0.0000e+00 -1.0000e+00
<mgrwt>
<rscale>  0 0.87396267E+03</rscale>
<asrwt>0</asrwt>
<pdfrwt beam="1">  1        2 0.15313046E+00 0.87396267E+03</pdfrwt>
<pdfrwt beam="2">  1       -2 0.29514639E-01 0.87396267E+03</pdfrwt>
<totfact> 0.31902253E+02</totfact>
</mgrwt>
<rwgt>
<wgt id='morphing_basis_vector_1'> +2.8739061e-04 </wgt>
<wgt id='morphing_basis_vector_2'> +1.7794384e-04 </wgt>
<wgt id='morphing_basis_vector_3'> +2.6586383e-04 </wgt>
<wgt id='morphing_basis_vector_4'> +1.5199021e-04 </wgt>
<wgt id='morphing_basis_vector_5'> +2.4120709e-04 </wgt>
</rwgt>
</event>
<event>
 4      1 +2.9741700e-06 7.84920900e+02 7.81860800e-03 8.92135400e-02
        2 -1    0    0  501    0 +0.0000000000e+00 +0.0000000000e+00 +9.2684040158e+02 9.2684040158e+02 0.0000000000e+00 0.0000e+00 -1.0000e+00
       -2 -1    0    0    0  501 -0.0000000000e+00 -0.0000000000e+00 -1.6618308588e+02 1.6618308588e+02 0.0000000000e+00 0.0000e+00 1.0000e+00
      -13  1    1    2    0    0 -1.2119771684e+02 +1.1453972537e+02 -1.1439476591e+02 2.0222363295e+02 0.0000000000e+00 0.0000e+00 1.0000e+00
       13  1    1    2    0    0 +1.2119771684e+02 -1.1453972537e+02 +8.7505208162e+02 8.9079985451e+02 0.0000000000e+00 0.0000e+00 -1.0000e+00
<mgrwt>
<rscale>  0 0.78492088E+03</rscale>
<asrwt>0</asrwt>
<pdfrwt beam="1">  1        2 0.14259083E+00 0.78492088E+03</pdfrwt>
<pdfrwt beam="2">  1       -2 0.25566629E-01 0.78492088E+03</pdfrwt>
<totfact> 0.45453468E+02</totfact>
</mgrwt>
<rwgt>
<wgt id='morphing_basis_vector_1'> +1.9525669e-04 </wgt>
<wgt id='morphing_basis_vector_2'> +1.1718826e-04 </wgt>
<wgt id='morphing_basis_vector_3'> +1.7417191e-04 </wgt>
<wgt id='morphing_basis_vector_4'> +9.4773590e-05 </wgt>
<wgt id='morphing_basis_vector_5'> +1.4840173e-04 </wgt>
</rwgt>
</event>
<event>
 4      1 +2.9741700e-06 8.09357400e+02 7.81860800e-03 8.89062100e-02
        2 -1    0    0  501    0 +0.0000000000e+00 +0.0000000000e+00 +7.3308901033e+02 7.3308901033e+02 0.0000000000e+00 0.0000e+00 -1.0000e+00
       -2 -1    0    0    0  501 -0.0000000000e+00 -0.0000000000e+00 -2.2339012881e+02 2.2339012881e+02 0.0000000000e+00 0.0000e+00 1.0000e+00
      -13  1    1    2    0    0 -3.1803089442e+02 +1.9909068692e+02 +4.3401267187e+02 5.7371399736e+02 0.0000000000e+00 0.0000e+00 1.0000e+00
       13  1    1    2    0    0 +3.1803089442e+02 -1.9909068692e+02 +7.5686209656e+01 3.8276514177e+02 0.0000000000e+00 0.0000e+00 -1.0000e+00
<mgrwt>
<rscale>  0 0.80935740E+03</rscale>
<asrwt>0</asrwt>
<pdfrwt beam="1">  1        2 0.11278292E+00 0.80935740E+03</pdfrwt>
<pdfrwt beam="2">  1       -2 0.34367712E-01 0.80935740E+03</pdfrwt>
<totfact> 0.36566621E+02</totfact>
</mgrwt>
<rwgt>
<wgt id='morphing_basis_vector_1'> +2.4464938e-04 </wgt>
<wgt id='morphing_basis_vector_2'> +2.1403910e-04 </wgt>
<wgt id='morphing_basis_vector_3'> +2.1296543e-04 </wgt>
<wgt id='morphing_basis_vector_4'> +7.4254161e-05 </wgt>
<wgt id='morphing_basis_vector_5'> +1.6920061e-04 </wgt>
</rwgt>
</event>
<event>
 4      1 +2.9741700e-06 8.90946300e+02 7.81860800e-03 8.79576500e-02
        2 -1    0    0  501    0 +0.0000000000e+00 +0.0000000000e+00 +4.6098907836e+02 4.6098907836e+02 0.0000000000e+00 0.0000e+00 -1.0000e+00
       -2 -1    0    0    0  501 -0.0000000000e+00 -0.0000000000e+00 -4.3047945039e+02 4.3047945039e+02 0.0000000000e+00 0.0000e+00 1.0000e+00
      -13  1    1    2    0    0 -1.5373438419e+01 +3.9654778898e+02 -1.8724917448e+02 4.3880376582e+02 0.0000000000e+00 0.0000e+00 1.0000e+00
       13  1    1    2    0    0 +1.5373438419e+01 -3.9654778898e+02 +2.1775880245e+02 4.5266476293e+02 0.0000000000e+00 0.0000e+00 -1.0000e+00
<mgrwt>
<rscale>  0 0.89094629E+03</rscale>
<asrwt>0</asrwt>
<pdfrwt beam="1">  1        2 0.70921397E-01 0.89094629E+03</pdfrwt>
<pdfrwt beam="2">  1       -2 0.66227608E-01 0.89094629E+03</pdfrwt>
<totfact> 0.17580146E+02</totfact>
</mgrwt>
<rwgt>
<wgt id='morphing_basis_vector_1'> +3.0885151e-04 </wgt>
<wgt id='morphing_basis_vector_2'> +1.9365209e-04 </wgt>
<wgt id='morphing_basis_vector_3'> +2.8734971e-04 </wgt>
<wgt id='morphing_basis_vector_4'> +1.6440156e-04 </wgt>
<wgt id='morphing_basis_vector_5'> +2.6273056e-04 </wgt>
</rwgt>
</event>
<event>
 4      1 +2.9741700e-06 7.74640900e+02 7.81860800e-03 8.93463900e-02
        2 -1    0    0  501    0 +0.0000000000e+00 +0.0000000000e+00 +1.0705676545e+03 1.0705676545e+03 0.0000000000e+00 0.0000e+00 1.0000e+00
       -2 -1    0    0    0  501 -0.0000000000e+00 -0.0000000000e+00 -1.4012857996e+02 1.4012857996e+02 0.0000000000e+00 0.0000e+00 -1.0000e+00
      -13  1    1    2    0    0 +1.9692471279e+02 +2.5169726735e+02 +1.2320838022e+02 3.4250717051e+02 0.0000000000e+00 0.0000e+00 -1.0000e+00
       13  1    1    2    0    0 -1.9692471279e+02 -2.5169726735e+02 +8.0723069437e+02 8.6818906399e+02 0.0000000000e+00 0.0000e+00 1.0000e+00
<mgrwt>
<rscale>  0 0.77464089E+03</rscale>
<asrwt>0</asrwt>
<pdfrwt beam="1">  1        2 0.16470271E+00 0.77464089E+03</pdfrwt>
<pdfrwt beam="2">  1       -2 0.21558244E-01 0.77464089E+03</pdfrwt>
<totfact> 0.49485255E+02</totfact>
</mgrwt>
<rwgt>
<wgt id='morphing_basis_vector_1'> +1.8693464e-04 </wgt>
<wgt id='morphing_basis_vector_2'> +1.1323402e-04 </wgt>
<wgt id='morphing_basis_vector_3'> +1.6574130e-04 </wgt>
<wgt id='morphing_basis_vector_4'> +8.8632399e-05 </wgt>
<wgt id='morphing_basis_vector_5'> +1.3964756e-04 </wgt>
</rwgt>
</event>
<event>
 4      1 +2.9741700e-06 7.70634200e+02 7.81860800e-03 8.93987600e-02
        2 -1    0    0  501    0 +0.0000000000e+00 +0.0000000000e+00 +1.4382279465e+03 1.4382279465e+03 0.0000000000e+00 0.0000e+00 1.0000e+00
       -2 -1    0    0    0  501 -0.0000000000e+00 -0.0000000000e+00 -1.0323070380e+02 1.0323070380e+02 0.0000000000e+00 0.0000e+00 -1.0000e+00
      -13  1    1    2    0    0 -1.7748906476e+02 -2.9153187830e+02 +1.0251798771e+03 1.0805031164e+03 0.0000000000e+00 0.0000e+00 1.0000e+00
       13  1    1    2    0    0 +1.7748906476e+02 +2.9153187830e+02 +3.0981736553e+02 4.6095553382e+02 0.0000000000e+00 0.0000e+00 -1.0000e+00
<mgrwt>
<rscale>  0 0.77063424E+03</rscale>
<asrwt>0</asrwt>
<pdfrwt beam="1">  1        2 0.22126582E+00 0.77063424E+03</pdfrwt>
<pdfrwt beam="2">  1       -2 0.15881648E-01 0.77063424E+03</pdfrwt>
<totfact> 0.50465437E+02</totfact>
</mgrwt>
<rwgt>
<wgt id='morphing_basis_vector_1'> +2.1253701e-04 </wgt>
<wgt id='morphing_basis_vector_2'> +1.9998614e-04 </wgt>
<wgt id='morphing_basis_vector_3'> +1.7780922e-04 </wgt>
<wgt id='morphing_basis_vector_4'> +5.1612274e-05 </wgt>
<wgt id='morphing_basis_vector_5'> +1.3499711e-04 </wgt>
</rwgt>
</event>
<event>
 4      1 +2.9741700e-06 7.72314400e+02 7.81860800e-03 8.93767600e-02
        2 -1    0    0  501    0 +0.0000000000e+00 +0.0000000000e+00 +4.0348305968e+02 4.0348305968e+02 0.0000000000e+00 0.0000e+00 -1.0000e+00
       -2 -1    0    0    0  501 -0.0000000000e+00 -0.0000000000e+00 -3.6957531302e+02 3.6957531302e+02 0.0000000000e+00 0.0000e+00 1.0000e+00
      -13  1    1    2    0    0 +6.3826002702e+01 +1.2250016600e+02 -3.4400039597e+02 3.7069707541e+02 0.0000000000e+00 0.0000e+00 1.0000e+00
       13  1    1    2    0    0 -6.3826002702e+01 -1.2250016600e+02 +3.7790814263e+02 4.0236129729e+02 0.0000000000e+00 0.0000e+00 -1.0000e+00
<mgrwt>
<rscale>  0 0.77231439E+03</rscale>
<asrwt>0</asrwt>
<pdfrwt beam="1">  1        2 0.62074317E-01 0.77231439E+03</pdfrwt>
<pdfrwt beam="2">  1       -2 0.56857740E-01 0.77231439E+03</pdfrwt>
<totfact> 0.28151460E+02</totfact>
</mgrwt>
<rwgt>
<wgt id='morphing_basis_vector_1'> +1.8442841e-04 </wgt>
<wgt id='morphing_basis_vector_2'> +1.1032184e-04 </wgt>
<wgt id='morphing_basis_vector_3'> +1.6352019e-04 </wgt>
<wgt id='morphing_basis_vector_4'> +8.8085702e-05 </wgt>
<wgt id='morphing_basis_vector_5'> +1.3775049e-04 </wgt>
</rwgt>
</event>
<event>
 4      1 +2.9741700e-06 7.62627300e+02 7.81860800e-03 8.95044500e-02
        2 -1    0    0  501    0 +0.0000000000e+00 +0.0000000000e+00 +2.8273073075e+03 2.8273073075e+03 0.0000000000e+00 0.0000e+00 1.0000e+00
       -2 -1    0    0    0  501 -0.0000000000e+00 -0.0000000000e+00 -5.1427060580e+01 5.1427060580e+01 0.0000000000e+00 0.0000e+00 -1.0000e+00
      -13  1    1    2    0    0 -2.8892552419e+01 +3.5538317118e+02 +1.8981351730e+03 1.9313335064e+03 0.0000000000e+00 0.0000e+00 1.0000e+00
       13  1    1    2    0    0 +2.8892552419e+01 -3.5538317118e+02 +8.7774507400e+02 9.4740086177e+02 0.0000000000e+00 0.0000e+00 -1.0000e+00
<mgrwt>
<rscale>  0 0.76262731E+03</rscale>
<asrwt>0</asrwt>
<pdfrwt beam="1">  1        2 0.43497023E+00 0.76262731E+03</pdfrwt>
<pdfrwt beam="2">  1       -2 0.79118577E-02 0.76262731E+03</pdfrwt>
<totfact> 0.24795472E+02</totfact>
</mgrwt>
<rwgt>
<wgt id='morphing_basis_vector_1'> +1.9692883e-04 </wgt>
<wgt id='morphing_basis_vector_2'> +1.6817943e-04 </wgt>
<wgt id='morphing_basis_vector_3'> +1.6617491e-04 </wgt>
<wgt id='morphing_basis_vector_4'> +5.8786318e-05 </wgt>
<wgt id='morphing_basis_vector_5'> +1.2903312e-04 </wgt>
</rwgt>
</event>
<event>
 4      1 +2.9741700e-06 8.20037800e+02 7.81860800e-03 8.87754700e-02
        2 -1    0    0  501    0 +0.0000000000e+00 +0.0000000000e+00 +1.1830088154e+03 1.1830088154e+03 0.0000000000e+00 0.0000e+00 -1.0000e+00
       -2 -1    0    0    0  501 -0.0000000000e+00 -0.0000000000e+00 -1.4210840669e+02 1.4210840669e+02 0.0000000000e+00 0.0000e+00 1.0000e+00
      -13  1    1    2    0    0 +3.4396433582e+01 +2.0424973307e+02 -5.1354359289e+01 2.1339713757e+02 0.0000000000e+00 0.0000e+00 1.0000e+00
       13  1    1    2    0    0 -3.4396433582e+01 -2.0424973307e+02 +1.0922547680e+03 1.1117200846e+03 0.0000000000e+00 0.0000e+00 -1.0000e+00
<mgrwt>
<rscale>  0 0.82003780E+03</rscale>
<asrwt>0</asrwt>
<pdfrwt beam="1">  1        2 0.18200135E+00 0.82003780E+03</pdfrwt>
<pdfrwt beam="2">  1       -2 0.21862833E-01 0.82003780E+03</pdfrwt>
<totfact> 0.41373836E+02</totfact>
</mgrwt>
<rwgt>
<wgt id='morphing_basis_vector_1'> +2.2805746e-04 </wgt>
<wgt id='morphing_basis_vector_2'> +1.3806796e-04 </wgt>
<wgt id='morphing_basis_vector_3'> +2.0665453e-04 </wgt>
<wgt id='morphing_basis_vector_4'> +1.1535473e-04 </wgt>
<wgt id='morphing_basis_vector_5'> +1.8118492e-04 </wgt>
</rwgt>
</event>
<event>
 4      1 +2.9741700e-06 8.71718900e+02 7.81860800e-03 8.81712700e-02
        2 -1    0    0  501    0 +0.0000000000e+00 +0.0000000000e+00 +6.5684027049e+02 6.5684027049e+02 0.0000000000e+00 0.0000e+00 -1.0000e+00
       -2 -1    0    0    0  501 -0.0000000000e+00 -0.0000000000e+00 -2.8922319807e+02 2.8922319807e+02 0.0000000000e+00 0.0000e+00 1.0000e+00
      -13  1    1    2    0    0 +3.0330695871e+02 +8.4487398475e+01 -1.4329323745e+02 3.4592800349e+02 0.0000000000e+00 0.0000e+00 1.0000e+00
       13  1    1    2    0    0 -3.0330695871e+02 -8.4487398475e+01 +5.1091030987e+02 6.0013546507e+02 0.0000000000e+00 0.0000e+00 -1.0000e+00
<mgrwt>
<rscale>  0 0.87171886E+03</rscale>
<asrwt>0</asrwt>
<pdfrwt beam="1">  1        2 0.10105235E+00 0.87171886E+03</pdfrwt>
<pdfrwt beam="2">  1       -2 0.44495877E-01 0.87171886E+03</pdfrwt>
<totfact> 0.25825623E+02</totfact>
</mgrwt>
<rwgt>
<wgt id='morphing_basis_vector_1'> +2.8424554e-04 </wgt>
<wgt id='morphing_basis_vector_2'> +1.7472658e-04 </wgt>
<wgt id='morphing_basis_vector_3'> +2.6282827e-04 </wgt>
<wgt id='morphing_basis_vector_4'> +1.5095216e-04 </wgt>
<wgt id='morphing_basis_vector_5'> +2.3848979e-04 </wgt>
</rwgt>
</event>
<event>
 4      1 +2.9741700e-06 8.55456500e+02 7.81860800e-03 8.83565300e-02
        2 -1    0    0  501    0 +0.0000000000e+00 +0.0000000000e+00 +6.4822605030e+02 6.4822605030e+02 0.0000000000e+00 0.0000e+00 -1.0000e+00
       -2 -1    0    0    0  501 -0.0000000000e+00 -0.0000000000e+00 -2.8223402229e+02 2.8223402229e+02 0.0000000000e+00 0.0000e+00 1.0000e+00
      -13  1    1    2    0    0 +4.1168944931e+02 +1.0739151009e+02 +2.3078336433e+02 4.8402696243e+02 0.0000000000e+00 0.0000e+00 1.0000e+00
       13  1    1    2    0    0 -4.1168944931e+02 -1.0739151009e+02 +1.3520866368e+02 4.4643311016e+02 0.0000000000e+00 0.0000e+00 -1.0000e+00
<mgrwt>
<rscale>  0 0.85545648E+03</rscale>
<asrwt>0</asrwt>
<pdfrwt beam="1">  1        2 0.99727084E-01 0.85545648E+03</pdfrwt>
<pdfrwt beam="2">  1       -2 0.43420619E-01 0.85545648E+03</pdfrwt>
<totfact> 0.27511139E+02</totfact>
</mgrwt>
<rwgt>
<wgt id='morphing_basis_vector_1'> +2.7876776e-04 </wgt>
<wgt id='morphing_basis_vector_2'> +2.0289940e-04 </wgt>
<wgt id='morphing_basis_vector_3'> +2.5340145e-04 </wgt>
<wgt id='morphing_basis_vector_4'> +1.2102710e-04 </wgt>
<wgt id='morphing_basis_vector_5'> +2.1834618e-04 </wgt>
</rwgt>
</event>
<event>
 4      1 +2.9741700e-06 8.19136200e+02 7.81860800e-03 8.87864200e-02
        2 -1    0    0  501    0 +0.0000000000e+00 +0.0000000000e+00 +1.6327088837e+03 1.6327088837e+03 0.0000000000e+00 0.0000e+00 -1.0000e+00
       -2 -1    0    0    0  501 -0.0000000000e+00 -0.0000000000e+00 -1.0274093888e+02 1.0274093888e+02 0.0000000000e+00 0.0000e+00 1.0000e+00
      -13  1    1    2    0    0 -2.0846454296e+02 -2.1792416476e+02 +1.7785995060e+02 3.5011793624e+02 0.0000000000e+00 0.0000e+00 1.0000e+00
       13  1    1    2    0    0 +2.0846454296e+02 +2.1792416476e+02 +1.3521079942e+03 1.3853318863e+03 0.0000000000e+00 0.0000e+00 -1.0000e+00
<mgrwt>
<rscale>  0 0.81913624E+03</rscale>
<asrwt>0</asrwt>
<pdfrwt beam="1">  1        2 0.25118596E+00 0.81913624E+03</pdfrwt>
<pdfrwt beam="2">  1       -2 0.15806300E-01 0.81913624E+03</pdfrwt>
<totfact> 0.39600866E+02</totfact>
</mgrwt>
<rwgt>
<wgt id='morphing_basis_vector_1'> +2.2744605e-04 </wgt>
<wgt id='morphing_basis_vector_2'> +1.3835808e-04 </wgt>
<wgt id='morphing_basis_vector_3'> +2.0594580e-04 </wgt>
<wgt id='morphing_basis_vector_4'> +1.1442456e-04 </wgt>
<wgt id='morphing_basis_vector_5'> +1.8026722e-04 </wgt>
</rwgt>
</event>
<event>
 4      1 +2.9741700e-06 8.77927700e+02 7.81860800e-03 8.81016600e-02
        2 -1    0    0  501    0 +0.0000000000e+00 +0.0000000000e+00 +1.2695357078e+03 1.2695357078e+03 0.0000000000e+00 0.0000e+00 -1.0000e+00
       -2 -1    0    0    0  501 -0.0000000000e+00 -0.0000000000e+00 -1.5177933020e+02 1.5177933020e+02 0.0000000000e+00 0.0000e+00 1.0000e+00
      -13  1    1    2    0    0 -2.9998975578e+02 -3.9459533291e+00 +4.0108965552e+01 3.0268490752e+02 0.0000000000e+00 0.0000e+00 1.0000e+00
       13  1    1    2    0    0 +2.9998975578e+02 +3.9459533291e+00 +1.0776474121e+03 1.1186301305e+03 0.0000000000e+00 0.0000e+00 -1.0000e+00
<mgrwt>
<rscale>  0 0.87792774E+03</rscale>
<asrwt>0</asrwt>
<pdfrwt beam="1">  1        2 0.19531318E+00 0.87792774E+03</pdfrwt>
<pdfrwt beam="2">  1       -2 0.23350667E-01 0.87792774E+03</pdfrwt>
<totfact> 0.32888253E+02</totfact>
</mgrwt>
<rwgt>
<wgt id='morphing_basis_vector_1'> +2.9152280e-04 </wgt>
<wgt id='morphing_basis_vector_2'> +1.7917225e-04 </wgt>
<wgt id='morphing_basis_vector_3'> +2.7018703e-04 </wgt>
<wgt id='morphing_basis_vector_4'> +1.5589889e-04 </wgt>
<wgt id='morphing_basis_vector_5'> +2.4616819e-04 </wgt>
</rwgt>
</event>
<event>
 4      1 +2.9741700e-06 8.14989100e+02 7.81860800e-03 8.88370100e-02
        2 -1    0    0  501    0 +0.0000000000e+00 +0.0000000000e+00 +1.4964472308e+02 1.4964472308e+02 0.0000000000e+00 0.0000e+00 -1.0000e+00
       -2 -1    0    0    0  501 -0.0000000000e+00 -0.0000000000e+00 -1.1096402531e+03 1.1096402531e+03 0.0000000000e+00 0.0000e+00 1.0000e+00
      -13  1    1    2    0    0 -1.8265608148e+02 -3.6185003567e+02 -4.1530174768e+02 5.8032252587e+02 0.0000000000e+00 0.0000e+00 1.0000e+00
       13  1    1    2    0    0 +1.8265608148e+02 +3.6185003567e+02 -5.4469378237e+02 6.7896245034e+02 0.0000000000e+00 0.0000e+00 -1.0000e+00
<mgrwt>
<rscale>  0 0.81498910E+03</rscale>
<asrwt>0</asrwt>
<pdfrwt beam="1">  1        2 0.23022266E-01 0.81498910E+03</pdfrwt>
<pdfrwt beam="2">  1       -2 0.17071388E+00 0.81498910E+03</pdfrwt>
<totfact> 0.59481132E+01</totfact>
</mgrwt>
<rwgt>
<wgt id='morphing_basis_vector_1'> +2.3436537e-04 </wgt>
<wgt id='morphing_basis_vector_2'> +1.6938245e-04 </wgt>
<wgt id='morphing_basis_vector_3'> +2.0880187e-04 </wgt>
<wgt id='morphing_basis_vector_4'> +9.7682535e-05 </wgt>
<wgt id='morphing_basis_vector_5'> +1.7553263e-04 </wgt>
</rwgt>
</event>
<event>
 4      1 +2.9741700e-06 8.55377800e+02 7.81860800e-03 8.83574300e-02
        2 -1    0    0  501    0 +0.0000000000e+00 +0.0000000000e+00 +1.7651261738e+03 1.7651261738e+03 0.0000000000e+00 0.0000e+00 -1.0000e+00
       -2 -1    0    0    0  501 -0.0000000000e+00 -0.0000000000e+00 -1.0362874583e+02 1.0362874583e+02 0.0000000000e+00 0.0000e+00 1.0000e+00
      -13  1    1    2    0    0 +4.1019247102e+02 +7.5130861526e+01 +6.2331253966e+02 7.4994735264e+02 0.0000000000e+00 0.0000e+00 1.0000e+00
       13  1    1    2    0    0 -4.1019247102e+02 -7.5130861526e+01 +1.0381848883e+03 1.1188075670e+03 0.0000000000e+00 0.0000e+00 -1.0000e+00
<mgrwt>
<rscale>  0 0.85537784E+03</rscale>
<asrwt>0</asrwt>
<pdfrwt beam="1">  1        2 0.27155785E+00 0.85537784E+03</pdfrwt>
<pdfrwt beam="2">  1       -2 0.15942885E-01 0.85537784E+03</pdfrwt>
<totfact> 0.32945930E+02</totfact>
</mgrwt>
<rwgt>
<wgt id='morphing_basis_vector_1'> +2.6920909e-04 </wgt>
<wgt id='morphing_basis_vector_2'> +1.7394090e-04 </wgt>
<wgt id='morphing_basis_vector_3'> +2.4661396e-04 </wgt>
<wgt id='morphing_basis_vector_4'> +1.3381597e-04 </wgt>
<wgt id='morphing_basis_vector_5'> +2.1888331e-04 </wgt>
</rwgt>
</event>
<event>
 4      1 +2.9741700e-06 7.84949500e+02 7.81860800e-03 8.92131700e-02
        2 -1    0    0  501    0 +0.0000000000e+00 +0.0000000000e+00 +7.1637865519e+02 7.1637865519e+02 0.0000000000e+00 0.0000e+00 -1.0000e+00
       -2 -1    0    0    0  501 -0.0000000000e+00 -0.0000000000e+00 -2.1502098345e+02 2.1502098345e+02 0.0000000000e+00 0.0000e+00 1.0000e+00
      -13  1    1    2    0    0 -3.2750013688e+02 +1.6425016011e+02 +8.3704883375e+01 3.7582038563e+02 0.0000000000e+00 0.0000e+00 1.0000e+00
       13  1    1    2    0    0 +3.2750013688e+02 -1.6425016011e+02 +4.1765278837e+02 5.5557925302e+02 0.0000000000e+00 0.0000e+00 -1.0000e+00
<mgrwt>
<rscale>  0 0.78494953E+03</rscale>
<asrwt>0</asrwt>
<pdfrwt beam="1">  1        2 0.11021210E+00 0.78494953E+03</pdfrwt>
<pdfrwt beam="2">  1       -2 0.33080152E-01 0.78494953E+03</pdfrwt>
<totfact> 0.40345026E+02</totfact>
</mgrwt>
<rwgt>
<wgt id='morphing_basis_vector_1'> +1.9691576e-04 </wgt>
<wgt id='morphing_basis_vector_2'> +1.2221247e-04 </wgt>
<wgt id='morphing_basis_vector_3'> +1.7511766e-04 </wgt>
<wgt id='morphing_basis_vector_4'> +9.2772516e-05 </wgt>
<wgt id='morphing_basis_vector_5'> +1.4834455e-04 </wgt>
</rwgt>
</event>
<event>
 4      1 +2.9741700e-06 7.66441200e+02 7.81860800e-03 8.94539400e-02
        2 -1    0    0  501    0 +0.0000000000e+00 +0.0000000000e+00 +4.8205163091e+02 4.8205163091e+02 0.0000000000e+00 0.0000e+00 1.0000e+00
       -2 -1    0    0    0  501 -0.0000000000e+00 -0.0000000000e+00 -3.0465210119e+02 3.0465210119e+02 0.0000000000e+00 0.0000e+00 -1.0000e+00
      -13  1    1    2    0    0 -1.7700501848e+02 -9.3231198865e+01 -2.4679793735e+02 3.1769805616e+02 0.0000000000e+00 0.0000e+00 -1.0000e+00
       13  1    1    2    0    0 +1.7700501848e+02 +9.3231198865e+01 +4.2419746706e+02 4.6900567594e+02 0.0000000000e+00 0.0000e+00 1.0000e+00
<mgrwt>
<rscale>  0 0.76644124E+03</rscale>
<asrwt>0</asrwt>
<pdfrwt beam="1">  1        2 0.74161789E-01 0.76644124E+03</pdfrwt>
<pdfrwt beam="2">  1       -2 0.46869554E-01 0.76644124E+03</pdfrwt>
<totfact> 0.33699826E+02</totfact>
</mgrwt>
<rwgt>
<wgt id='morphing_basis_vector_1'> +1.7958746e-04 </wgt>
<wgt id='morphing_basis_vector_2'> +1.0735500e-04 </wgt>
<wgt id='morphing_basis_vector_3'> +1.5875267e-04 </wgt>
<wgt id='morphing_basis_vector_4'> +8.5042128e-05 </wgt>
<wgt id='morphing_basis_vector_5'> +1.3297860e-04 </wgt>
</rwgt>
</event>
<event>
 4      1 +2.9741700e-06 8.71146200e+02 7.81860800e-03 8.81777200e-02
        2 -1    0    0  501    0 +0.0000000000e+00 +0.0000000000e+00 +6.5120287604e+02 6.5120287604e+02 0.0000000000e+00 0.0000e+00 1.0000e+00
       -2 -1    0    0    0  501 -0.0000000000e+00 -0.0000000000e+00 -2.9134378436e+02 2.9134378436e+02 0.0000000000e+00 0.0000e+00 -1.0000e+00
      -13  1    1    2    0    0 +1.7437982890e+02 +3.9508343771e+02 +2.4136993879e+02 4.9473093175e+02 0.0000000000e+00 0.0000e+00 1.0000e+00
       13  1    1    2    0    0 -1.7437982890e+02 -3.9508343771e+02 +1.1848915289e+02 4.4781572865e+02 0.0000000000e+00 0.0000e+00 -1.0000e+00
<mgrwt>
<rscale>  0 0.87114617E+03</rscale>
<asrwt>0</asrwt>
<pdfrwt beam="1">  1        2 0.10018506E+00 0.87114617E+03</pdfrwt>
<pdfrwt beam="2">  1       -2 0.44822121E-01 0.87114617E+03</pdfrwt>
<totfact> 0.25734274E+02</totfact>
</mgrwt>
<rwgt>
<wgt id='morphing_basis_vector_1'> +2.9909337e-04 </wgt>
<wgt id='morphing_basis_vector_2'> +2.2161404e-04 </wgt>
<wgt id='morphing_basis_vector_3'> +2.7356934e-04 </wgt>
<wgt id='morphing_basis_vector_4'> +1.2908990e-04 </wgt>
<wgt id='morphing_basis_vector_5'> +2.3671269e-04 </wgt>
</rwgt>
</event>
<event>
 4      1 +2.9741700e-06 8.28025700e+02 7.81860800e-03 8.86790600e-02
        2 -1    0    0  501    0 +0.0000000000e+00 +0.0000000000e+00 +6.8168644557e+02 6.8168644557e+02 0.0000000000e+00 0.0000e+00 -1.0000e+00
       -2 -1    0    0    0  501 -0.0000000000e+00 -0.0000000000e+00 -2.5144495997e+02 2.5144495997e+02 0.0000000000e+00 0.0000e+00 1.0000e+00
      -13  1    1    2    0    0 -3.5593716832e+02 +2.0749291384e+02 +2.6106383938e+02 4.8774881375e+02 0.0000000000e+00 0.0000e+00 1.0000e+00
       13  1    1    2    0    0 +3.5593716832e+02 -2.0749291384e+02 +1.6917764621e+02 4.4538259179e+02 0.0000000000e+00 0.0000e+00 -1.0000e+00
<mgrwt>
<rscale>  0 0.82802565E+03</rscale>
<asrwt>0</asrwt>
<pdfrwt beam="1">  1        2 0.10487484E+00 0.82802565E+03</pdfrwt>
<pdfrwt beam="2">  1       -2 0.38683840E-01 0.82802565E+03</pdfrwt>
<totfact> 0.32181736E+02</totfact>
</mgrwt>
<rwgt>
<wgt id='morphing_basis_vector_1'> +2.4784116e-04 </wgt>
<wgt id='morphing_basis_vector_2'> +1.7913071e-04 </wgt>
<wgt id='morphing_basis_vector_3'> +2.2234463e-04 </wgt>
<wgt id='morphing_basis_vector_4'> +1.0503752e-04 </wgt>
<wgt id='morphing_basis_vector_5'> +1.8860405e-04 </wgt>
</rwgt>
</event>
<event>
 4      1 +2.9741700e-06 7.70282000e+02 7.81860800e-03 8.94033900e-02
        2 -1    0    0  501    0 +0.0000000000e+00 +0.0000000000e+00 +1.7434784670e+03 1.7434784670e+03 0.0000000000e+00 0.0000e+00 -1.0000e+00
       -2 -1    0    0    0  501 -0.0000000000e+00 -0.0000000000e+00 -8.5079111157e+01 8.5079111157e+01 0.0000000000e+00 0.0000e+00 1.0000e+00
      -13  1    1    2    0    0 +2.4250951738e+02 +2.9774631591e+02 +8.9921360953e+02 9.7777750548e+02 0.0000000000e+00 0.0000e+00 1.0000e+00
       13  1    1    2    0    0 -2.4250951738e+02 -2.9774631591e+02 +7.5918574627e+02 8.5078007264e+02 0.0000000000e+00 0.0000e+00 -1.0000e+00
<mgrwt>
<rscale>  0 0.77028202E+03</rscale>
<asrwt>0</asrwt>
<pdfrwt beam="1">  1        2 0.26822743E+00 0.77028202E+03</pdfrwt>
<pdfrwt beam="2">  1       -2 0.13089095E-01 0.77028202E+03</pdfrwt>
<totfact> 0.46837731E+02</totfact>
</mgrwt>
<rwgt>
<wgt id='morphing_basis_vector_1'> +1.9113760e-04 </wgt>
<wgt id='morphing_basis_vector_2'> +1.3504749e-04 </wgt>
<wgt id='morphing_basis_vector_3'> +1.6630880e-04 </wgt>
<wgt id='morphing_basis_vector_4'> +7.6900395e-05 </wgt>
<wgt id='morphing_basis_vector_5'> +1.3569475e-04 </wgt>
</rwgt>
</event>
<event>
 4      1 +2.9741700e-06 7.52734200e+02 7.81860800e-03 8.96369600e-02
        2 -1    0    0  501    0 +0.0000000000e+00 +0.0000000000e+00 +6.9289767921e+02 6.9289767921e+02 0.0000000000e+00 0.0000e+00 -1.0000e+00
       -2 -1    0    0    0  501 -0.0000000000e+00 -0.0000000000e+00 -2.0443448799e+02 2.0443448799e+02 0.0000000000e+00 0.0000e+00 1.0000e+00
      -13  1    1    2    0    0 +2.8788625684e+02 +8.8373298769e+00 -4.4579803959e+01 2.9145146113e+02 0.0000000000e+00 0.0000e+00 1.0000e+00
       13  1    1    2    0    0 -2.8788625684e+02 -8.8373298769e+00 +5.3304299518e+02 6.0588070607e+02 0.0000000000e+00 0.0000e+00 -1.0000e+00
<mgrwt>
<rscale>  0 0.75273417E+03</rscale>
<asrwt>0</asrwt>
<pdfrwt beam="1">  1        2 0.10659964E+00 0.75273417E+03</pdfrwt>
<pdfrwt beam="2">  1       -2 0.31451460E-01 0.75273417E+03</pdfrwt>
<totfact> 0.46050305E+02</totfact>
</mgrwt>
<rwgt>
<wgt id='morphing_basis_vector_1'> +1.6886135e-04 </wgt>
<wgt id='morphing_basis_vector_2'> +1.0124009e-04 </wgt>
<wgt id='morphing_basis_vector_3'> +1.4812697e-04 </wgt>
<wgt id='morphing_basis_vector_4'> +7.8023246e-05 </wgt>
<wgt id='morphing_basis_vector_5'> +1.2229627e-04 </wgt>
</rwgt>
</event>
<event>
 4      1 +2.9741700e-06 8.01013700e+02 7.81860800e-03 8.90098300e-02
        2 -1    0    0  501    0 +0.0000000000e+00 +0.0000000000e+00 +9.5660238734e+02 9.5660238734e+02 0.0000000000e+00 0.0000e+00 -1.0000e+00
       -2 -1    0    0    0  501 -0.0000000000e+00 -0.0000000000e+00 -1.6768278822e+02 1.6768278822e+02 0.0000000000e+00 0.0000e+00 1.0000e+00
      -13  1    1    2    0    0 -2.0398534591e+02 -2.4369729985e+02 +5.2356988783e+01 3.2208640079e+02 0.0000000000e+00 0.0000e+00 1.0000e+00
       13  1    1    2    0    0 +2.0398534591e+02 +2.4369729985e+02 +7.3656261034e+02 8.0219877478e+02 0.0000000000e+00 0.0000e+00 -1.0000e+00
<mgrwt>
<rscale>  0 0.80101375E+03</rscale>
<asrwt>0</asrwt>
<pdfrwt beam="1">  1        2 0.14716960E+00 0.80101375E+03</pdfrwt>
<pdfrwt beam="2">  1       -2 0.25797353E-01 0.80101375E+03</pdfrwt>
<totfact> 0.42813004E+02</totfact>
</mgrwt>
<rwgt>
<wgt id='morphing_basis_vector_1'> +2.1024374e-04 </wgt>
<wgt id='morphing_basis_vector_2'> +1.2780240e-04 </wgt>
<wgt id='morphing_basis_vector_3'> +1.8880032e-04 </wgt>
<wgt id='morphing_basis_vector_4'> +1.0327269e-04 </wgt>
<wgt id='morphing_basis_vector_5'> +1.6281784e-04 </wgt>
</rwgt>
</event>
<event>
 4      1 +2.9741700e-06 8.28710300e+02 7.81860800e-03 8.86708500e-02
        2 -1    0    0  501    0 +0.0000000000e+00 +0.0000000000e+00 +2.4801761199e+03 2.4801761199e+03 0.0000000000e+00 0.0000e+00 -1.0000e+00
       -2 -1    0    0    0  501 -0.0000000000e+00 -0.0000000000e+00 -6.9224994140e+01 6.9224994140e+01 0.0000000000e+00 0.0000e+00 1.0000e+00
      -13  1    1    2    0    0 +3.9739388721e+01 +3.6039575589e+02 +5.8847138283e+02 6.9120394117e+02 0.0000000000e+00 0.0000e+00 1.0000e+00
       13  1    1    2    0    0 -3.9739388721e+01 -3.6039575589e+02 +1.8224797429e+03 1.8581971729e+03 0.0000000000e+00 0.0000e+00 -1.0000e+00
<mgrwt>
<rscale>  0 0.82871027E+03</rscale>
<asrwt>0</asrwt>
<pdfrwt beam="1">  1        2 0.38156549E+00 0.82871027E+03</pdfrwt>
<pdfrwt beam="2">  1       -2 0.10650001E-01 0.82871027E+03</pdfrwt>
<totfact> 0.24987308E+02</totfact>
</mgrwt>
<rwgt>
<wgt id='morphing_basis_vector_1'> +2.3783116e-04 </wgt>
<wgt id='morphing_basis_vector_2'> +1.4684407e-04 </wgt>
<wgt id='morphing_basis_vector_3'> +2.1603144e-04 </wgt>
<wgt id='morphing_basis_vector_4'> +1.1952585e-04 </wgt>
<wgt id='morphing_basis_vector_5'> +1.8995839e-04 </wgt>
</rwgt>
</event>
<event>
 4      1 +2.9741700e-06 7.61678800e+02 7.81860800e-03 8.95170600e-02
        2 -1    0    0  501    0 +0.0000000000e+00 +0.0000000000e+00 +1.8979781469e+03 1.8979781469e+03 0.0000000000e+00 0.0000e+00 -1.0000e+00
       -2 -1    0    0    0  501 -0.0000000000e+00 -0.0000000000e+00 -7.6417451295e+01 7.6417451295e+01 0.0000000000e+00 0.0000e+00 1.0000e+00
      -13  1    1    2    0    0 +3.4324858081e+02 -1.1671979466e+02 +1.2130264809e+03 1.2660475275e+03 0.0000000000e+00 0.0000e+00 1.0000e+00
       13  1    1    2    0    0 -3.4324858081e+02 +1.1671979466e+02 +6.0853421471e+02 7.0834807063e+02 0.0000000000e+00 0.0000e+00 -1.0000e+00
<mgrwt>
<rscale>  0 0.76167881E+03</rscale>
<asrwt>0</asrwt>
<pdfrwt beam="1">  1        2 0.29199660E+00 0.76167881E+03</pdfrwt>
<pdfrwt beam="2">  1       -2 0.11756532E-01 0.76167881E+03</pdfrwt>
<totfact> 0.45761638E+02</totfact>
</mgrwt>
<rwgt>
<wgt id='morphing_basis_vector_1'> +1.9318121e-04 </wgt>
<wgt id='morphing_basis_vector_2'> +1.5855090e-04 </wgt>
<wgt id='morphing_basis_vector_3'> +1.6385779e-04 </wgt>
<wgt id='morphing_basis_vector_4'> +6.1897976e-05 </wgt>
<wgt id='morphing_basis_vector_5'> +1.2842362e-04 </wgt>
</rwgt>
</event>
<event>
 4      1 +2.9741700e-06 7.53221000e+02 7.81860800e-03 8.96303900e-02
        2 -1    0    0  501    0 +0.0000000000e+00 +0.0000000000e+00 +7.1903502617e+02 7.1903502617e+02 0.0000000000e+00 0.0000e+00 -1.0000e+00
       -2 -1    0    0    0  501 -0.0000000000e+00 -0.0000000000e+00 -1.9725806180e+02 1.9725806180e+02 0.0000000000e+00 0.0000e+00 1.0000e+00
      -13  1    1    2    0    0 -1.8582147750e+02 -6.4461616992e+01 -1.2981542216e+02 2.3566282141e+02 0.0000000000e+00 0.0000e+00 1.0000e+00
       13  1    1    2    0    0 +1.8582147750e+02 +6.4461616992e+01 +6.5159238653e+02 6.8063026655e+02 0.0000000000e+00 0.0000e+00 -1.0000e+00
<mgrwt>
<rscale>  0 0.75322097E+03</rscale>
<asrwt>0</asrwt>
<pdfrwt beam="1">  1        2 0.11062077E+00 0.75322097E+03</pdfrwt>
<pdfrwt beam="2">  1       -2 0.30347394E-01 0.75322097E+03</pdfrwt>
<totfact> 0.46882406E+02</totfact>
</mgrwt>
<rwgt>
<wgt id='morphing_basis_vector_1'> +1.6897853e-04 </wgt>
<wgt id='morphing_basis_vector_2'> +1.0066946e-04 </wgt>
<wgt id='morphing_basis_vector_3'> +1.4837027e-04 </wgt>
<wgt id='morphing_basis_vector_4'> +7.8563426e-05 </wgt>
<wgt id='morphing_basis_vector_5'> +1.2267546e-04 </wgt>
</rwgt>
</event>
<event>
 4      1 +2.9741700e-06 8.95237000e+02 7.81860800e-03 8.79107500e-02
        2 -1    0    0  501    0 +0.0000000000e+00 +0.0000000000e+00 +1.6203874973e+03 1.6203874973e+03 0.0000000000e+00 0.0000e+00 -1.0000e+00
       -2 -1    0    0    0  501 -0.0000000000e+00 -0.0000000000e+00 -1.2365086558e+02 1.2365086558e+02 0.0000000000e+00 0.0000e+00 1.0000e+00
      -13  1    1    2    0    0 -1.8477979397e+02 +4.0651891950e+02 +6.8797274147e+02 8.2018759877e+02 0.0000000000e+00 0.0000e+00 1.0000e+00
       13  1    1    2    0    0 +1.8477979397e+02 -4.0651891950e+02 +8.0876389025e+02 9.2385076411e+02 0.0000000000e+00 0.0000e+00 -1.0000e+00
<mgrwt>
<rscale>  0 0.89523699E+03</rscale>
<asrwt>0</asrwt>
<pdfrwt beam="1">  1        2 0.24929037E+00 0.89523699E+03</pdfrwt>
<pdfrwt beam="2">  1       -2 0.19023211E-01 0.89523699E+03</pdfrwt>
<totfact> 0.29513164E+02</totfact>
</mgrwt>
<rwgt>
<wgt id='morphing_basis_vector_1'> +3.2118326e-04 </wgt>
<wgt id='morphing_basis_vector_2'> +2.1823398e-04 </wgt>
<wgt id='morphing_basis_vector_3'> +2.9820706e-04 </wgt>
<wgt id='morphing_basis_vector_4'> +1.5813744e-04 </wgt>
<wgt id='morphing_basis_vector_5'> +2.6788196e-04 </wgt>
</rwgt>
</event>
<event>
 4      1 +2.9741700e-06 8.07741600e+02 7.81860800e-03 8.89261700e-02
        2 -1    0    0  501    0 +0.0000000000e+00 +0.0000000000e+00 +1.2901692459e+03 1.2901692459e+03 0.0000000000e+00 0.0000e+00 1.0000e+00
       -2 -1    0    0    0  501 -0.0000000000e+00 -0.0000000000e+00 -1.2642653813e+02 1.2642653813e+02 0.0000000000e+00 0.0000e+00 -1.0000e+00
      -13  1    1    2    0    0 +4.0643201668e+01 +3.2768308355e+02 +1.7401605213e+02 3.7324209233e+02 0.0000000000e+00 0.0000e+00 -1.0000e+00
       13  1    1    2    0    0 -4.0643201668e+01 -3.2768308355e+02 +9.8972665567e+02 1.0433536917e+03 0.0000000000e+00 0.0000e+00 1.0000e+00
<mgrwt>
<rscale>  0 0.80774162E+03</rscale>
<asrwt>0</asrwt>
<pdfrwt beam="1">  1        2 0.19848757E+00 0.80774162E+03</pdfrwt>
<pdfrwt beam="2">  1       -2 0.19450238E-01 0.80774162E+03</pdfrwt>
<totfact> 0.43693910E+02</totfact>
</mgrwt>
<rwgt>
<wgt id='morphing_basis_vector_1'> +2.1668578e-04 </wgt>
<wgt id='morphing_basis_vector_2'> +1.3219258e-04 </wgt>
<wgt id='morphing_basis_vector_3'> +1.9514419e-04 </wgt>
<wgt id='morphing_basis_vector_4'> +1.0708668e-04 </wgt>
<wgt id='morphing_basis_vector_5'> +1.6913679e-04 </wgt>
</rwgt>
</event>
<event>
 4      1 +2.9741700e-06 8.40625800e+02 7.81860800e-03 8.85293000e-02
        2 -1    0    0  501    0 +0.0000000000e+00 +0.0000000000e+00 +8.0417285908e+02 8.0417285908e+02 0.0000000000e+00 0.0000e+00 1.0000e+00
       -2 -1    0    0    0  501 -0.0000000000e+00 -0.0000000000e+00 -2.1968277390e+02 2.1968277390e+02 0.0000000000e+00 0.0000e+00 -1.0000e+00
      -13  1    1    2    0    0 -1.4184895600e+02 -3.1622376692e+02 +2.6237139490e+00 3.4659123036e+02 0.0000000000e+00 0.0000e+00 -1.0000e+00
       13  1    1    2    0    0 +1.4184895600e+02 +3.1622376692e+02 +5.8186637123e+02 6.7726440262e+02 0.0000000000e+00 0.0000e+00 1.0000e+00
<mgrwt>
<rscale>  0 0.84062578E+03</rscale>
<asrwt>0</asrwt>
<pdfrwt beam="1">  1        2 0.12371890E+00 0.84062578E+03</pdfrwt>
<pdfrwt beam="2">  1       -2 0.33797350E-01 0.84062578E+03</pdfrwt>
<totfact> 0.33481271E+02</totfact>
</mgrwt>
<rwgt>
<wgt id='morphing_basis_vector_1'> +2.4987104e-04 </wgt>
<wgt id='morphing_basis_vector_2'> +1.5364766e-04 </wgt>
<wgt id='morphing_basis_vector_3'> +2.2819384e-04 </wgt>
<wgt id='morphing_basis_vector_4'> +1.2793427e-04 </wgt>
<wgt id='morphing_basis_vector_5'> +2.0262187e-04 </wgt>
</rwgt>
</event>
<event>
 4      1 +2.9741700e-06 8.61844200e+02 7.81860800e-03 8.82832500e-02
        2 -1    0    0  501    0 +0.0000000000e+00 +0.0000000000e+00 +3.5269622561e+02 3.5269622561e+02 0.0000000000e+00 0.0000e+00 -1.0000e+00
       -2 -1    0    0    0  501 -0.0000000000e+00 -0.0000000000e+00 -5.2649802232e+02 5.2649802232e+02 0.0000000000e+00 0.0000e+00 1.0000e+00
      -13  1    1    2    0    0 -1.7882457694e+02 -2.6722534936e+02 -3.7956703057e+02 4.9745225636e+02 0.0000000000e+00 0.0000e+00 1.0000e+00
       13  1    1    2    0    0 +1.7882457694e+02 +2.6722534936e+02 +2.0576523386e+02 3.8174199157e+02 0.0000000000e+00 0.0000e+00 -1.0000e+00
<mgrwt>
<rscale>  0 0.86184422E+03</rscale>
<asrwt>0</asrwt>
<pdfrwt beam="1">  1        2 0.54260958E-01 0.86184422E+03</pdfrwt>
<pdfrwt beam="2">  1       -2 0.80999696E-01 0.86184422E+03</pdfrwt>
<totfact> 0.15359226E+02</totfact>
</mgrwt>
<rwgt>
<wgt id='morphing_basis_vector_1'> +2.7288476e-04 </wgt>
<wgt id='morphing_basis_vector_2'> +1.6759299e-04 </wgt>
<wgt id='morphing_basis_vector_3'> +2.5137941e-04 </wgt>
<wgt id='morphing_basis_vector_4'> +1.4343148e-04 </wgt>
<wgt id='morphing_basis_vector_5'> +2.2664298e-04 </wgt>
</rwgt>
</event>
<event>
 4      1 +2.9741700e-06 7.51906000e+02 7.81860800e-03 8.96481500e-02
        2 -1    0    0  501    0 +0.0000000000e+00 +0.0000000000e+00 +1.8763619871e+03 1.8763619871e+03 0.0000000000e+00 0.0000e+00 -1.0000e+00
       -2 -1    0    0    0  501 -0.0000000000e+00 -0.0000000000e+00 -7.5326976115e+01 7.5326976115e+01 0.0000000000e+00 0.0000e+00 1.0000e+00
      -13  1    1    2    0    0 -1.7543003547e+01 -3.2639408112e+02 +4.1839716546e+02 5.3093977175e+02 0.0000000000e+00 0.0000e+00 1.0000e+00
       13  1    1    2    0    0 +1.7543003547e+01 +3.2639408112e+02 +1.3826378455e+03 1.4207491915e+03 0.0000000000e+00 0.0000e+00 -1.0000e+00
<mgrwt>
<rscale>  0 0.75190604E+03</rscale>
<asrwt>0</asrwt>
<pdfrwt beam="1">  1        2 0.28867104E+00 0.75190604E+03</pdfrwt>
<pdfrwt beam="2">  1       -2 0.11588767E-01 0.75190604E+03</pdfrwt>
<totfact> 0.48148474E+02</totfact>
</mgrwt>
<rwgt>
<wgt id='morphing_basis_vector_1'> +1.6864610e-04 </wgt>
<wgt id='morphing_basis_vector_2'> +1.0215832e-04 </wgt>
<wgt id='morphing_basis_vector_3'> +1.4770476e-04 </wgt>
<wgt id='morphing_basis_vector_4'> +7.7127088e-05 </wgt>
<wgt id='morphing_basis_vector_5'> +1.2165391e-04 </wgt>
</rwgt>
</event>
<event>
 4      1 +2.9741700e-06 8.04793600e+02 7.81860800e-03 8.89627200e-02
        2 -1    0    0  501    0 +0.0000000000e+00 +0.0000000000e+00 +7.6537299075e+02 7.6537299075e+02 0.0000000000e+00 0.0000e+00 1.0000e+00
       -2 -1    0    0    0  501 -0.0000000000e+00 -0.0000000000e+00 -2.1156112953e+02 2.1156112953e+02 0.0000000000e+00 0.0000e+00 -1.0000e+00
      -13  1    1    2    0    0 +2.5012701561e+02 +2.8689330359e+02 +1.1839217788e+02 3.9860757565e+02 0.0000000000e+00 0.0000e+00 -1.0000e+00
       13  1    1    2    0    0 -2.5012701561e+02 -2.8689330359e+02 +4.3541968334e+02 5.7832654463e+02 0.0000000000e+00 0.0000e+00 1.0000e+00
<mgrwt>
<rscale>  0 0.80479357E+03</rscale>
<asrwt>0</asrwt>
<pdfrwt beam="1">  1        2 0.11774969E+00 0.80479357E+03</pdfrwt>
<pdfrwt beam="2">  1       -2 0.32547867E-01 0.80479357E+03</pdfrwt>
<totfact> 0.38213502E+02</totfact>
</mgrwt>
<rwgt>
<wgt id='morphing_basis_vector_1'> +2.1539705e-04 </wgt>
<wgt id='morphing_basis_vector_2'> +1.3500838e-04 </wgt>
<wgt id='morphing_basis_vector_3'> +1.9328679e-04 </wgt>
<wgt id='morphing_basis_vector_4'> +1.0342960e-04 </wgt>
<wgt id='morphing_basis_vector_5'> +1.6626126e-04 </wgt>
</rwgt>
</event>
<event>
 4      1 +2.9741700e-06 8.41064100e+02 7.81860800e-03 8.85241400e-02
        2 -1    0    0  501    0 +0.0000000000e+00 +0.0000000000e+00 +8.7321119998e+02 8.7321119998e+02 0.0000000000e+00 0.0000e+00 -1.0000e+00
       -2 -1    0    0    0  501 -0.0000000000e+00 -0.0000000000e+00 -2.0252511112e+02 2.0252511112e+02 0.0000000000e+00 0.0000e+00 1.0000e+00
      -13  1    1    2    0    0 +3.3144790720e+01 -2.2809377399e+02 -1.1454033033e+02 2.5738071830e+02 0.0000000000e+00 0.0000e+00 1.0000e+00
       13  1    1    2    0    0 -3.3144790720e+01 +2.2809377399e+02 +7.8522641919e+02 8.1835559280e+02 0.0000000000e+00 0.0000e+00 -1.0000e+00
<mgrwt>
<rscale>  0 0.84106408E+03</rscale>
<asrwt>0</asrwt>
<pdfrwt beam="1">  1        2 0.13434018E+00 0.84106408E+03</pdfrwt>
<pdfrwt beam="2">  1       -2 0.31157710E-01 0.84106408E+03</pdfrwt>
<totfact> 0.34766899E+02</totfact>
</mgrwt>
<rwgt>
<wgt id='morphing_basis_vector_1'> +2.4967062e-04 </wgt>
<wgt id='morphing_basis_vector_2'> +1.5191054e-04 </wgt>
<wgt id='morphing_basis_vector_3'> +2.2820701e-04 </wgt>
<wgt id='morphing_basis_vector_4'> +1.2912119e-04 </wgt>
<wgt id='morphing_basis_vector_5'> +2.0314022e-04 </wgt>
</rwgt>
</event>
<event>
 4      1 +2.9741700e-06 7.57298000e+02 7.81860800e-03 8.95755600e-02
        2 -1    0    0  501    0 +0.0000000000e+00 +0.0000000000e+00 +5.1934504140e+02 5.1934504140e+02 0.0000000000e+00 0.0000e+00 -1.0000e+00
       -2 -1    0    0    0  501 -0.0000000000e+00 -0.0000000000e+00 -2.7606900390e+02 2.7606900390e+02 0.0000000000e+00 0.0000e+00 1.0000e+00
      -13  1    1    2    0    0 -1.9508026158e-02 -3.5451458349e+02 -1.8077715711e+01 3.5497520208e+02 0.0000000000e+00 0.0000e+00 1.0000e+00
       13  1    1    2    0    0 +1.9508026158e-02 +3.5451458349e+02 +2.6135375322e+02 4.4043884321e+02 0.0000000000e+00 0.0000e+00 -1.0000e+00
<mgrwt>
<rscale>  0 0.75729801E+03</rscale>
<asrwt>0</asrwt>
<pdfrwt beam="1">  1        2 0.79899237E-01 0.75729801E+03</pdfrwt>
<pdfrwt beam="2">  1       -2 0.42472155E-01 0.75729801E+03</pdfrwt>
<totfact> 0.37354194E+02</totfact>
</mgrwt>
<rwgt>
<wgt id='morphing_basis_vector_1'> +1.7365390e-04 </wgt>
<wgt id='morphing_basis_vector_2'> +1.0717155e-04 </wgt>
<wgt id='morphing_basis_vector_3'> +1.5224249e-04 </wgt>
<wgt id='morphing_basis_vector_4'> +7.8802415e-05 </wgt>
<wgt id='morphing_basis_vector_5'> +1.2572664e-04 </wgt>
</rwgt>
</event>
<event>
 4      1 +2.9741700e-06 7.51929100e+02 7.81860800e-03 8.96478300e-02
        2 -1    0    0  501    0 +0.0000000000e+00 +0.0000000000e+00 +4.2849124510e+02 4.2849124510e+02 0.0000000000e+00 0.0000e+00 1.0000e+00
       -2 -1    0    0    0  501 -0.0000000000e+00 -0.0000000000e+00 -3.2987688709e+02 3.2987688709e+02 0.0000000000e+00 0.0000e+00 -1.0000e+00
      -13  1    1    2    0    0 -1.0780078509e+02 +2.4710139582e+02 +3.1359935579e+02 4.1355128464e+02 0.0000000000e+00 0.0000e+00 1.0000e+00
       13  1    1    2    0    0 +1.0780078509e+02 -2.4710139582e+02 -2.1498499778e+02 3.4481684755e+02 0.0000000000e+00 0.0000e+00 -1.0000e+00
<mgrwt>
<rscale>  0 0.75192914E+03</rscale>
<asrwt>0</asrwt>
<pdfrwt beam="1">  1        2 0.65921730E-01 0.75192914E+03</pdfrwt>
<pdfrwt beam="2">  1       -2 0.50750290E-01 0.75192914E+03</pdfrwt>
<totfact> 0.33012437E+02</totfact>
</mgrwt>
<rwgt>
<wgt id='morphing_basis_vector_1'> +2.1494649e-04 </wgt>
<wgt id='morphing_basis_vector_2'> +2.4434238e-04 </wgt>
<wgt id='morphing_basis_vector_3'> +1.7022040e-04 </wgt>
<wgt id='morphing_basis_vector_4'> +2.3063736e-05 </wgt>
<wgt id='morphing_basis_vector_5'> +1.1973733e-04 </wgt>
</rwgt>
</event>
<event>
 4      1 +2.9741700e-06 8.72339500e+02 7.81860800e-03 8.81642900e-02
        2 -1    0    0  501    0 +0.0000000000e+00 +0.0000000000e+00 +1.1517514265e+03 1.1517514265e+03 0.0000000000e+00 0.0000e+00 -1.0000e+00
       -2 -1    0    0    0  501 -0.0000000000e+00 -0.0000000000e+00 -1.6517805748e+02 1.6517805748e+02 0.0000000000e+00 0.0000e+00 1.0000e+00
      -13  1    1    2    0    0 -8.7149895692e+01 -2.4013768923e+02 -4.0419430921e+01 2.5864057011e+02 0.0000000000e+00 0.0000e+00 1.0000e+00
       13  1    1    2    0    0 +8.7149895692e+01 +2.4013768923e+02 +1.0269928000e+03 1.0582889139e+03 0.0000000000e+00 0.0000e+00 -1.0000e+00
<mgrwt>
<rscale>  0 0.87233953E+03</rscale>
<asrwt>0</asrwt>
<pdfrwt beam="1">  1        2 0.17719252E+00 0.87233953E+03</pdfrwt>
<pdfrwt beam="2">  1       -2 0.25412010E-01 0.87233953E+03</pdfrwt>
<totfact> 0.33313509E+02</totfact>
</mgrwt>
<rwgt>
<wgt id='morphing_basis_vector_1'> +2.8472856e-04 </wgt>
<wgt id='morphing_basis_vector_2'> +1.7444146e-04 </wgt>
<wgt id='morphing_basis_vector_3'> +2.6338142e-04 </wgt>
<wgt id='morphing_basis_vector_4'> +1.5177037e-04 </wgt>
<wgt id='morphing_basis_vector_5'> +2.3926603e-04 </wgt>
</rwgt>
</event>
<event>
 4      1 +2.9741700e-06 7.66428400e+02 7.81860800e-03 8.94541100e-02
        2 -1    0    0  501    0 +0.0000000000e+00 +0.0000000000e+00 +1.4068893379e+03 1.4068893379e+03 0.0000000000e+00 0.0000e+00 1.0000e+00
       -2 -1    0    0    0  501 -0.0000000000e+00 -0.0000000000e+00 -1.0438142313e+02 1.0438142313e+02 0.0000000000e+00 0.0000e+00 -1.0000e+00
      -13  1    1    2    0    0 +3.1046093306e+02 +1.0601081665e+02 +2.6070690004e+02 4.1903743500e+02 0.0000000000e+00 0.0000e+00 -1.0000e+00
       13  1    1    2    0    0 -3.1046093306e+02 -1.0601081665e+02 +1.0418010147e+03 1.0922333260e+03 0.0000000000e+00 0.0000e+00 1.0000e+00
<mgrwt>
<rscale>  0 0.76642837E+03</rscale>
<asrwt>0</asrwt>
<pdfrwt beam="1">  1        2 0.21644450E+00 0.76642837E+03</pdfrwt>
<pdfrwt beam="2">  1       -2 0.16058681E-01 0.76642837E+03</pdfrwt>
<totfact> 0.51607640E+02</totfact>
</mgrwt>
<rwgt>
<wgt id='morphing_basis_vector_1'> +1.8023181e-04 </wgt>
<wgt id='morphing_basis_vector_2'> +1.0935824e-04 </wgt>
<wgt id='morphing_basis_vector_3'> +1.5908354e-04 </wgt>
<wgt id='morphing_basis_vector_4'> +8.4251000e-05 </wgt>
<wgt id='morphing_basis_vector_5'> +1.3293844e-04 </wgt>
</rwgt>
</event>
<event>
 4      1 +2.9741700e-06 8.26028900e+02 7.81860800e-03 8.87030500e-02
        2 -1    0    0  501    0 +0.0000000000e+00 +0.0000000000e+00 +3.6089676019e+02 3.6089676019e+02 0.0000000000e+00 0.0000e+00 1.0000e+00
       -2 -1    0    0    0  501 -0.0000000000e+00 -0.0000000000e+00 -4.7265851905e+02 4.7265851905e+02 0.0000000000e+00 0.0000e+00 -1.0000e+00
      -13  1    1    2    0    0 +3.0233167154e+02 -1.6312237162e+02 -2.8724614951e+02 4.4779872504e+02 0.0000000000e+00 0.0000e+00 -1.0000e+00
       13  1    1    2    0    0 -3.0233167154e+02 +1.6312237162e+02 +1.7548439066e+02 3.8575655420e+02 0.0000000000e+00 0.0000e+00 1.0000e+00
<mgrwt>
<rscale>  0 0.82602888E+03</rscale>
<asrwt>0</asrwt>
<pdfrwt beam="1">  1        2 0.55522579E-01 0.82602888E+03</pdfrwt>
<pdfrwt beam="2">  1       -2 0.72716695E-01 0.82602888E+03</pdfrwt>
<totfact> 0.19057724E+02</totfact>
</mgrwt>
<rwgt>
<wgt id='morphing_basis_vector_1'> +2.3474614e-04 </wgt>
<wgt id='morphing_basis_vector_2'> +1.4400324e-04 </wgt>
<wgt id='morphing_basis_vector_3'> +2.1307587e-04 </wgt>
<wgt id='morphing_basis_vector_4'> +1.1826605e-04 </wgt>
<wgt id='morphing_basis_vector_5'> +1.8721592e-04 </wgt>
</rwgt>
</event>
<event>
 4      1 +2.9741700e-06 7.97047500e+02 7.81860800e-03 8.90595600e-02
        2 -1    0    0  501    0 +0.0000000000e+00 +0.0000000000e+00 +2.4359583186e+03 2.4359583186e+03 0.0000000000e+00 0.0000e+00 -1.0000e+00
       -2 -1    0    0    0  501 -0.0000000000e+00 -0.0000000000e+00 -6.5198648916e+01 6.5198648916e+01 0.0000000000e+00 0.0000e+00 1.0000e+00
      -13  1    1    2    0    0 -1.8708936440e+02 -3.3302858543e+02 +8.2882034787e+02 9.1260815141e+02 0.0000000000e+00 0.0000e+00 1.0000e+00
       13  1    1    2    0    0 +1.8708936440e+02 +3.3302858543e+02 +1.5419393218e+03 1.5885488161e+03 0.0000000000e+00 0.0000e+00 -1.0000e+00
<mgrwt>
<rscale>  0 0.79704753E+03</rscale>
<asrwt>0</asrwt>
<pdfrwt beam="1">  1        2 0.37476275E+00 0.79704753E+03</pdfrwt>
<pdfrwt beam="2">  1       -2 0.10030563E-01 0.79704753E+03</pdfrwt>
<totfact> 0.29224531E+02</totfact>
</mgrwt>
<rwgt>
<wgt id='morphing_basis_vector_1'> +2.0851043e-04 </wgt>
<wgt id='morphing_basis_vector_2'> +1.3137328e-04 </wgt>
<wgt id='morphing_basis_vector_3'> +1.8631323e-04 </wgt>
<wgt id='morphing_basis_vector_4'> +9.8564592e-05 </wgt>
<wgt id='morphing_basis_vector_5'> +1.5906719e-04 </wgt>
</rwgt>
</event>
<event>
 4      1 +2.9741700e-06 7.62793600e+02 7.81860800e-03 8.95022400e-02
        2 -1    0    0  501    0 +0.0000000000e+00 +0.0000000000e+00 +6.0733738602e+02 6.0733738602e+02 0.0000000000e+00 0.0000e+00 -1.0000e+00
       -2 -1    0    0    0  501 -0.0000000000e+00 -0.0000000000e+00 -2.3951026046e+02 2.3951026046e+02 0.0000000000e+00 0.0000e+00 1.0000e+00
      -13  1    1    2    0    0 -2.0883987399e+02 -3.1330956658e+02 +2.5132114607e+02 4.5270221552e+02 0.0000000000e+00 0.0000e+00 1.0000e+00
       13  1    1    2    0    0 +2.0883987399e+02 +3.1330956658e+02 +1.1650597950e+02 3.9414543095e+02 0.0000000000e+00 0.0000e+00 -1.0000e+00
<mgrwt>
<rscale>  0 0.76279364E+03</rscale>
<asrwt>0</asrwt>
<pdfrwt beam="1">  1        2 0.93436520E-01 0.76279364E+03</pdfrwt>
<pdfrwt beam="2">  1       -2 0.36847733E-01 0.76279364E+03</pdfrwt>
<totfact> 0.40525221E+02</totfact>
</mgrwt>
<rwgt>
<wgt id='morphing_basis_vector_1'> +1.8738479e-04 </wgt>
<wgt id='morphing_basis_vector_2'> +1.3855295e-04 </wgt>
<wgt id='morphing_basis_vector_3'> +1.6135552e-04 </wgt>
<wgt id='morphing_basis_vector_4'> +7.0386858e-05 </wgt>
<wgt id='morphing_basis_vector_5'> +1.2959544e-04 </wgt>
</rwgt>
</event>
<event>
 4      1 +2.9741700e-06 7.82374300e+02 7.81860800e-03 8.92462500e-02
        2 -1    0    0  501    0 +0.0000000000e+00 +0.0000000000e+00 +8.4419963656e+02 8.4419963656e+02 0.0000000000e+00 0.0000e+00 1.0000e+00
       -2 -1    0    0    0  501 -0.0000000000e+00 -0.0000000000e+00 -1.8126918724e+02 1.8126918724e+02 0.0000000000e+00 0.0000e+00 -1.0000e+00
      -13  1    1    2    0    0 +1.6212686353e+01 -3.9077771053e+02 +3.4138792061e+02 5.1914909476e+02 0.0000000000e+00 0.0000e+00 1.0000e+00
       13  1    1    2    0    0 -1.6212686353e+01 +3.9077771053e+02 +3.2154252871e+02 5.0631972904e+02 0.0000000000e+00 0.0000e+00 -1.0000e+00
<mgrwt>
<rscale>  0 0.78237429E+03</rscale>
<asrwt>0</asrwt>
<pdfrwt beam="1">  1        2 0.12987686E+00 0.78237429E+03</pdfrwt>
<pdfrwt beam="2">  1       -2 0.27887568E-01 0.78237429E+03</pdfrwt>
<totfact> 0.44308766E+02</totfact>
</mgrwt>
<rwgt>
<wgt id='morphing_basis_vector_1'> +2.0027971e-04 </wgt>
<wgt id='morphing_basis_vector_2'> +1.3800010e-04 </wgt>
<wgt id='morphing_basis_vector_3'> +1.7602276e-04 </wgt>
<wgt id='morphing_basis_vector_4'> +8.4481596e-05 </wgt>
<wgt id='morphing_basis_vector_5'> +1.4584467e-04 </wgt>
</rwgt>
</event>
<event>
 4      1 +2.9741700e-06 7.70285600e+02 7.81860800e-03 8.94033400e-02
        2 -1    0    0  501    0 +0.0000000000e+00 +0.0000000000e+00 +5.8432466128e+02 5.8432466128e+02 0.0000000000e+00 0.0000e+00 -1.0000e+00
       -2 -1    0    0    0  501 -0.0000000000e+00 -0.0000000000e+00 -2.5385713486e+02 2.5385713486e+02 0.0000000000e+00 0.0000e+00 1.0000e+00
      -13  1    1    2    0    0 -1.0632047897e+02 +2.3565670292e+02 -1.4540587212e+02 2.9661590235e+02 0.0000000000e+00 0.0000e+00 1.0000e+00
       13  1    1    2    0    0 +1.0632047897e+02 -2.3565670292e+02 +4.7587339853e+02 5.4156589379e+02 0.0000000000e+00 0.0000e+00 -1.0000e+00
<mgrwt>
<rscale>  0 0.77028562E+03</rscale>
<asrwt>0</asrwt>
<pdfrwt beam="1">  1        2 0.89896101E-01 0.77028562E+03</pdfrwt>
<pdfrwt beam="2">  1       -2 0.39054944E-01 0.77028562E+03</pdfrwt>
<totfact> 0.38090583E+02</totfact>
</mgrwt>
<rwgt>
<wgt id='morphing_basis_vector_1'> +1.8288018e-04 </wgt>
<wgt id='morphing_basis_vector_2'> +1.0970528e-04 </wgt>
<wgt id='morphing_basis_vector_3'> +1.6193300e-04 </wgt>
<wgt id='morphing_basis_vector_4'> +8.6862229e-05 </wgt>
<wgt id='morphing_basis_vector_5'> +1.3608218e-04 </wgt>
</rwgt>
</event>
<event>
 4      1 +2.9741700e-06 7.61605900e+02 7.81860800e-03 8.95180300e-02
        2 -1    0    0  501    0 +0.0000000000e+00 +0.0000000000e+00 +3.6401430339e+02 3.6401430339e+02 0.0000000000e+00 0.0000e+00 1.0000e+00
       -2 -1    0    0    0  501 -0.0000000000e+00 -0.0000000000e+00 -3.9836588291e+02 3.9836588291e+02 0.0000000000e+00 0.0000e+00 -1.0000e+00
      -13  1    1    2    0    0 -3.3973768723e+02 +1.0588419099e+01 -1.8903921311e+02 3.8893397233e+02 0.0000000000e+00 0.0000e+00 -1.0000e+00
       13  1    1    2    0    0 +3.3973768723e+02 -1.0588419099e+01 +1.5468763358e+02 3.7344621396e+02 0.0000000000e+00 0.0000e+00 1.0000e+00
<mgrwt>
<rscale>  0 0.76160588E+03</rscale>
<asrwt>0</asrwt>
<pdfrwt beam="1">  1        2 0.56002201E-01 0.76160588E+03</pdfrwt>
<pdfrwt beam="2">  1       -2 0.61287058E-01 0.76160588E+03</pdfrwt>
<totfact> 0.27153306E+02</totfact>
</mgrwt>
<rwgt>
<wgt id='morphing_basis_vector_1'> +1.7656557e-04 </wgt>
<wgt id='morphing_basis_vector_2'> +1.0768672e-04 </wgt>
<wgt id='morphing_basis_vector_3'> +1.5536015e-04 </wgt>
<wgt id='morphing_basis_vector_4'> +8.1539111e-05 </wgt>
<wgt id='morphing_basis_vector_5'> +1.2910046e-04 </wgt>
</rwgt>
</event>
<event>
 4      1 +2.9741700e-06 8.80239100e+02 7.81860800e-03 8.80759000e-02
        2 -1    0    0  501    0 +0.0000000000e+00 +0.0000000000e+00 +5.0742710638e+02 5.0742710638e+02 0.0000000000e+00 0.0000e+00 -1.0000e+00
       -2 -1    0    0    0  501 -0.0000000000e+00 -0.0000000000e+00 -3.8173995979e+02 3.8173995979e+02 0.0000000000e+00 0.0000e+00 1.0000e+00
      -13  1    1    2    0    0 -8.4837001504e+01 +2.8215782397e+02 -2.6742033659e+02 3.9789947333e+02 0.0000000000e+00 0.0000e+00 1.0000e+00
       13  1    1    2    0    0 +8.4837001504e+01 -2.8215782397e+02 +3.9310748317e+02 4.9126759285e+02 0.0000000000e+00 0.0000e+00 -1.0000e+00
<mgrwt>
<rscale>  0 0.88023907E+03</rscale>
<asrwt>0</asrwt>
<pdfrwt beam="1">  1        2 0.78065708E-01 0.88023907E+03</pdfrwt>
<pdfrwt beam="2">  1       -2 0.58729225E-01 0.88023907E+03</pdfrwt>
<totfact> 0.20215485E+02</totfact>
</mgrwt>
<rwgt>
<wgt id='morphing_basis_vector_1'> +2.9427640e-04 </wgt>
<wgt id='morphing_basis_vector_2'> +1.8087348e-04 </wgt>
<wgt id='morphing_basis_vector_3'> +2.7297144e-04 </wgt>
<wgt id='morphing_basis_vector_4'> +1.5775947e-04 </wgt>
<wgt id='morphing_basis_vector_5'> +2.4907125e-04 </wgt>
</rwgt>
</event>
<event>
 4      1 +2.9741700e-06 8.22320000e+02 7.81860800e-03 8.87478100e-02
        2 -1    0    0  501    0 +0.0000000000e+00 +0.0000000000e+00 +5.1451672948e+02 5.1451672948e+02 0.0000000000e+00 0.0000e+00 -1.0000e+00
       -2 -1    0    0    0  501 -0.0000000000e+00 -0.0000000000e+00 -3.2856568180e+02 3.2856568180e+02 0.0000000000e+00 0.0000e+00 1.0000e+00
      -13  1    1    2    0    0 -1.3614732580e+02 +1.8244429453e+00 -3.0478012681e+02 3.3381184613e+02 0.0000000000e+00 0.0000e+00 1.0000e+00
       13  1    1    2    0    0 +1.3614732580e+02 -1.8244429453e+00 +4.9073117449e+02 5.0927056516e+02 0.0000000000e+00 0.0000e+00 -1.0000e+00
<mgrwt>
<rscale>  0 0.82231999E+03</rscale>
<asrwt>0</asrwt>
<pdfrwt beam="1">  1        2 0.79156420E-01 0.82231999E+03</pdfrwt>
<pdfrwt beam="2">  1       -2 0.50548567E-01 0.82231999E+03</pdfrwt>
<totfact> 0.26938924E+02</totfact>
</mgrwt>
<rwgt>
<wgt id='morphing_basis_vector_1'> +2.3028648e-04 </wgt>
<wgt id='morphing_basis_vector_2'> +1.3938815e-04 </wgt>
<wgt id='morphing_basis_vector_3'> +2.0888743e-04 </wgt>
<wgt id='morphing_basis_vector_4'> +1.1685128e-04 </wgt>
<wgt id='morphing_basis_vector_5'> +1.8348351e-04 </wgt>
</rwgt>
</event>
<event>
 4      1 +2.9741700e-06 8.06424000e+02 7.81860800e-03 8.89424900e-02
        2 -1    0    0  501    0 +0.0000000000e+00 +0.0000000000e+00 +4.0487573250e+02 4.0487573250e+02 0.0000000000e+00 0.0000e+00 1.0000e+00
       -2 -1    0    0    0  501 -0.0000000000e+00 -0.0000000000e+00 -4.0155512660e+02 4.0155512660e+02 0.0000000000e+00 0.0000e+00 -1.0000e+00
      -13  1    1    2    0    0 +1.4074141754e+02 -2.1057202488e+02 +3.1540043536e+02 4.0450730389e+02 0.0000000000e+00 0.0000e+00 1.0000e+00
       13  1    1    2    0    0 -1.4074141754e+02 +2.1057202488e+02 -3.1207982946e+02 4.0192355521e+02 0.0000000000e+00 0.0000e+00 -1.0000e+00
<mgrwt>
<rscale>  0 0.80642402E+03</rscale>
<asrwt>0</asrwt>
<pdfrwt beam="1">  1        2 0.62288575E-01 0.80642402E+03</pdfrwt>
<pdfrwt beam="2">  1       -2 0.61777711E-01 0.80642402E+03</pdfrwt>
<totfact> 0.23636583E+02</totfact>
</mgrwt>
<rwgt>
<wgt id='morphing_basis_vector_1'> +2.8321569e-04 </wgt>
<wgt id='morphing_basis_vector_2'> +3.3886778e-04 </wgt>
<wgt id='morphing_basis_vector_3'> +2.3527541e-04 </wgt>
<wgt id='morphing_basis_vector_4'> +1.9951964e-05 </wgt>
<wgt id='morphing_basis_vector_5'> +1.6413118e-04 </wgt>
</rwgt>
</event>
<event>
 4      1 +2.9741700e-06 7.99792400e+02 7.81860800e-03 8.90251100e-02
        2 -1    0    0  501    0 +0.0000000000e+00 +0.0000000000e+00 +6.4530490713e+02 6.4530490713e+02 0.0000000000e+00 0.0000e+00 -1.0000e+00
       -2 -1    0    0    0  501 -0.0000000000e+00 -0.0000000000e+00 -2.4781616048e+02 2.4781616048e+02 0.0000000000e+00 0.0000e+00 1.0000e+00
      -13  1    1    2    0    0 -2.8129865241e+02 +1.5385884521e+02 -6.8131962162e+01 3.2778566223e+02 0.0000000000e+00 0.0000e+00 1.0000e+00
       13  1    1    2    0    0 +2.8129865241e+02 -1.5385884521e+02 +4.6562070881e+02 5.6533540537e+02 0.0000000000e+00 0.0000e+00 -1.0000e+00
<mgrwt>
<rscale>  0 0.79979243E+03</rscale>
<asrwt>0</asrwt>
<pdfrwt beam="1">  1        2 0.99277677E-01 0.79979243E+03</pdfrwt>
<pdfrwt beam="2">  1       -2 0.38125563E-01 0.79979243E+03</pdfrwt>
<totfact> 0.35363516E+02</totfact>
</mgrwt>
<rwgt>
<wgt id='morphing_basis_vector_1'> +2.0914379e-04 </wgt>
<wgt id='morphing_basis_vector_2'> +1.2718062e-04 </wgt>
<wgt id='morphing_basis_vector_3'> +1.8769787e-04 </wgt>
<wgt id='morphing_basis_vector_4'> +1.0252374e-04 </wgt>
<wgt id='morphing_basis_vector_5'> +1.6168636e-04 </wgt>
</rwgt>
</event>
<event>
 4      1 +2.9741700e-06 8.42784400e+02 7.81860800e-03 8.85039200e-02
        2 -1    0    0  501    0 +0.0000000000e+00 +0.0000000000e+00 +1.0322098729e+03 1.0322098729e+03 0.0000000000e+00 0.0000e+00 -1.0000e+00
       -2 -1    0    0    0  501 -0.0000000000e+00 -0.0000000000e+00 -1.7203029741e+02 1.7203029741e+02 0.0000000000e+00 0.0000e+00 1.0000e+00
      -13  1    1    2    0    0 -3.8460498049e+02 +1.7033723492e+02 +3.9406587271e+02 5.7638847720e+02 0.0000000000e+00 0.0000e+00 1.0000e+00
       13  1    1    2    0    0 +3.8460498049e+02 -1.7033723492e+02 +4.6611370281e+02 6.2785169313e+02 0.0000000000e+00 0.0000e+00 -1.0000e+00
<mgrwt>
<rscale>  0 0.84278436E+03</rscale>
<asrwt>0</asrwt>
<pdfrwt beam="1">  1        2 0.15880152E+00 0.84278436E+03</pdfrwt>
<pdfrwt beam="2">  1       -2 0.26466200E-01 0.84278436E+03</pdfrwt>
<totfact> 0.36685089E+02</totfact>
</mgrwt>
<rwgt>
<wgt id='morphing_basis_vector_1'> +2.5856577e-04 </wgt>
<wgt id='morphing_basis_vector_2'> +1.7464617e-04 </wgt>
<wgt id='morphing_basis_vector_3'> +2.3486778e-04 </wgt>
<wgt id='morphing_basis_vector_4'> +1.2086735e-04 </wgt>
<wgt id='morphing_basis_vector_5'> +2.0456888e-04 </wgt>
</rwgt>
</event>
<event>
 4      1 +2.9741700e-06 7.71647200e+02 7.81860800e-03 8.93854900e-02
        2 -1    0    0  501    0 +0.0000000000e+00 +0.0000000000e+00 +4.2209647873e+02 4.2209647873e+02 0.0000000000e+00 0.0000e+00 1.0000e+00
       -2 -1    0    0    0  501 -0.0000000000e+00 -0.0000000000e+00 -3.5266781389e+02 3.5266781389e+02 0.0000000000e+00 0.0000e+00 -1.0000e+00
      -13  1    1    2    0    0 -9.4354861993e+01 -2.4597847459e+02 -2.4829589267e+02 3.6202085611e+02 0.0000000000e+00 0.0000e+00 -1.0000e+00
       13  1    1    2    0    0 +9.4354861993e+01 +2.4597847459e+02 +3.1772455750e+02 4.1274343652e+02 0.0000000000e+00 0.0000e+00 1.0000e+00
<mgrwt>
<rscale>  0 0.77164718E+03</rscale>
<asrwt>0</asrwt>
<pdfrwt beam="1">  1        2 0.64937920E-01 0.77164718E+03</pdfrwt>
<pdfrwt beam="2">  1       -2 0.54256587E-01 0.77164718E+03</pdfrwt>
<totfact> 0.29393785E+02</totfact>
</mgrwt>
<rwgt>
<wgt id='morphing_basis_vector_1'> +1.8403337e-04 </wgt>
<wgt id='morphing_basis_vector_2'> +1.1047245e-04 </wgt>
<wgt id='morphing_basis_vector_3'> +1.6305850e-04 </wgt>
<wgt id='morphing_basis_vector_4'> +8.7542643e-05 </wgt>
<wgt id='morphing_basis_vector_5'> +1.3719480e-04 </wgt>
</rwgt>
</event>
<event>
 4      1 +2.9741700e-06 8.30903100e+02 7.81860800e-03 8.86446100e-02
        2 -1    0    0  501    0 +0.0000000000e+00 +0.0000000000e+00 +5.1111542627e+02 5.1111542627e+02 0.0000000000e+00 0.0000e+00 -1.0000e+00
       -2 -1    0    0    0  501 -0.0000000000e+00 -0.0000000000e+00 -3.3769281966e+02 3.3769281966e+02 0.0000000000e+00 0.0000e+00 1.0000e+00
      -13  1    1    2    0    0 +3.3425856476e+02 +2.3410124924e+02 +7.1364654448e+00 4.0814594467e+02 0.0000000000e+00 0.0000e+00 1.0000e+00
       13  1    1    2    0    0 -3.3425856476e+02 -2.3410124924e+02 +1.6628614117e+02 4.4066230127e+02 0.0000000000e+00 0.0000e+00 -1.0000e+00
<mgrwt>
<rscale>  0 0.83090315E+03</rscale>
<asrwt>0</asrwt>
<pdfrwt beam="1">  1        2 0.78633143E-01 0.83090315E+03</pdfrwt>
<pdfrwt beam="2">  1       -2 0.51952741E-01 0.83090315E+03</pdfrwt>
<totfact> 0.25708246E+02</totfact>
</mgrwt>
<rwgt>
<wgt id='morphing_basis_vector_1'> +2.4313540e-04 </wgt>
<wgt id='morphing_basis_vector_2'> +1.5762354e-04 </wgt>
<wgt id='morphing_basis_vector_3'> +2.2029560e-04 </wgt>
<wgt id='morphing_basis_vector_4'> +1.1693014e-04 </wgt>
<wgt id='morphing_basis_vector_5'> +1.9205428e-04 </wgt>
</rwgt>
</event>
<event>
 4      1 +2.9741700e-06 8.11658800e+02 7.81860800e-03 8.88778600e-02
        2 -1    0    0  501    0 +0.0000000000e+00 +0.0000000000e+00 +7.8292994778e+02 7.8292994778e+02 0.0000000000e+00 0.0000e+00 1.0000e+00
       -2 -1    0    0    0  501 -0.0000000000e+00 -0.0000000000e+00 -2.1036046693e+02 2.1036046693e+02 0.0000000000e+00 0.0000e+00 -1.0000e+00
      -13  1    1    2    0    0 -3.4689797384e+02 +1.6346568152e+02 +1.2375576363e+02 4.0295746962e+02 0.0000000000e+00 0.0000e+00 -1.0000e+00
       13  1    1    2    0    0 +3.4689797384e+02 -1.6346568152e+02 +4.4881371722e+02 5.9033294509e+02 0.0000000000e+00 0.0000e+00 1.0000e+00
<mgrwt>
<rscale>  0 0.81165882E+03</rscale>
<asrwt>0</asrwt>
<pdfrwt beam="1">  1        2 0.12045076E+00 0.81165882E+03</pdfrwt>
<pdfrwt beam="2">  1       -2 0.32363149E-01 0.81165882E+03</pdfrwt>
<totfact> 0.37500594E+02</totfact>
</mgrwt>
<rwgt>
<wgt id='morphing_basis_vector_1'> +2.2196953e-04 </wgt>
<wgt id='morphing_basis_vector_2'> +1.3927675e-04 </wgt>
<wgt id='morphing_basis_vector_3'> +1.9982213e-04 </wgt>
<wgt id='morphing_basis_vector_4'> +1.0747632e-04 </wgt>
<wgt id='morphing_basis_vector_5'> +1.7281321e-04 </wgt>
</rwgt>
</event>
<event>
 4      1 +2.9741700e-06 7.54799600e+02 7.81860800e-03 8.96091100e-02
        2 -1    0    0  501    0 +0.0000000000e+00 +0.0000000000e+00 +2.0338536654e+03 2.0338536654e+03 0.0000000000e+00 0.0000e+00 -1.0000e+00
       -2 -1    0    0    0  501 -0.0000000000e+00 -0.0000000000e+00 -7.0029920329e+01 7.0029920329e+01 0.0000000000e+00 0.0000e+00 1.0000e+00
      -13  1    1    2    0    0 +3.0315102599e+02 -2.0975580791e+02 +7.5662703328e+02 8.4165462692e+02 0.0000000000e+00 0.0000e+00 1.0000e+00
       13  1    1    2    0    0 -3.0315102599e+02 +2.0975580791e+02 +1.2071967117e+03 1.2622289588e+03 0.0000000000e+00 0.0000e+00 -1.0000e+00
<mgrwt>
<rscale>  0 0.75479960E+03</rscale>
<asrwt>0</asrwt>
<pdfrwt beam="1">  1        2 0.31290052E+00 0.75479960E+03</pdfrwt>
<pdfrwt beam="2">  1       -2 0.10773835E-01 0.75479960E+03</pdfrwt>
<totfact> 0.44232013E+02</totfact>
</mgrwt>
<rwgt>
<wgt id='morphing_basis_vector_1'> +1.7281940e-04 </wgt>
<wgt id='morphing_basis_vector_2'> +1.0943739e-04 </wgt>
<wgt id='morphing_basis_vector_3'> +1.5086430e-04 </wgt>
<wgt id='morphing_basis_vector_4'> +7.6263523e-05 </wgt>
<wgt id='morphing_basis_vector_5'> +1.2376400e-04 </wgt>
</rwgt>
</event>
<event>
 4      1 +2.9741700e-06 8.48053100e+02 7.81860800e-03 8.84423100e-02
        2 -1    0    0  501    0 +0.0000000000e+00 +0.0000000000e+00 +2.8245778869e+03 2.8245778869e+03 0.0000000000e+00 0.0000e+00 -1.0000e+00
       -2 -1    0    0    0  501 -0.0000000000e+00 -0.0000000000e+00 -6.3654997125e+01 6.3654997125e+01 0.0000000000e+00 0.0000e+00 1.0000e+00
      -13  1    1    2    0    0 +1.4802119383e+02 +3.9349108736e+02 +1.5686406828e+03 1.6240009548e+03 0.0000000000e+00 0.0000e+00 1.0000e+00
       13  1    1    2    0    0 -1.4802119383e+02 -3.9349108736e+02 +1.1922822070e+03 1.2642319292e+03 0.0000000000e+00 0.0000e+00 -1.0000e+00
<mgrwt>
<rscale>  0 0.84805306E+03</rscale>
<asrwt>0</asrwt>
<pdfrwt beam="1">  1        2 0.43455035E+00 0.84805306E+03</pdfrwt>
<pdfrwt beam="2">  1       -2 0.97930786E-02 0.84805306E+03</pdfrwt>
<totfact> 0.17679798E+02</totfact>
</mgrwt>
<rwgt>
<wgt id='morphing_basis_vector_1'> +2.7150263e-04 </wgt>
<wgt id='morphing_basis_vector_2'> +2.0041679e-04 </wgt>
<wgt id='morphing_basis_vector_3'> +2.4565799e-04 </wgt>
<wgt id='morphing_basis_vector_4'> +1.1471683e-04 </wgt>
<wgt id='morphing_basis_vector_5'> +2.0991954e-04 </wgt>
</rwgt>
</event>
<event>
 4      1 +2.9741700e-06 8.25307400e+02 7.81860800e-03 8.87117400e-02
        2 -1    0    0  501    0 +0.0000000000e+00 +0.0000000000e+00 +4.8269107262e+02 4.8269107262e+02 0.0000000000e+00 0.0000e+00 1.0000e+00
       -2 -1    0    0    0  501 -0.0000000000e+00 -0.0000000000e+00 -3.5277856621e+02 3.5277856621e+02 0.0000000000e+00 0.0000e+00 -1.0000e+00
      -13  1    1    2    0    0 +1.4026750414e+02 -3.8648541905e+02 +1.0056195703e+02 4.2327137755e+02 0.0000000000e+00 0.0000e+00 -1.0000e+00
       13  1    1    2    0    0 -1.4026750414e+02 +3.8648541905e+02 +2.9350549378e+01 4.1219826128e+02 0.0000000000e+00 0.0000e+00 1.0000e+00
<mgrwt>
<rscale>  0 0.82530737E+03</rscale>
<asrwt>0</asrwt>
<pdfrwt beam="1">  1        2 0.74260165E-01 0.82530737E+03</pdfrwt>
<pdfrwt beam="2">  1       -2 0.54273626E-01 0.82530737E+03</pdfrwt>
<totfact> 0.25170035E+02</totfact>
</mgrwt>
<rwgt>
<wgt id='morphing_basis_vector_1'> +2.4441915e-04 </wgt>
<wgt id='morphing_basis_vector_2'> +1.7534015e-04 </wgt>
<wgt id='morphing_basis_vector_3'> +2.1910225e-04 </wgt>
<wgt id='morphing_basis_vector_4'> +1.0420769e-04 </wgt>
<wgt id='morphing_basis_vector_5'> +1.8585603e-04 </wgt>
</rwgt>
</event>
<event>
 4      1 +2.9741700e-06 8.59765100e+02 7.81860800e-03 8.83070300e-02
        2 -1    0    0  501    0 +0.0000000000e+00 +0.0000000000e+00 +1.0206828839e+03 1.0206828839e+03 0.0000000000e+00 0.0000e+00 -1.0000e+00
       -2 -1    0    0    0  501 -0.0000000000e+00 -0.0000000000e+00 -1.8105427104e+02 1.8105427104e+02 0.0000000000e+00 0.0000e+00 1.0000e+00
      -13  1    1    2    0    0 -9.7263476117e+01 +4.1030314497e+02 +3.0295248355e+02 5.1921966628e+02 0.0000000000e+00 0.0000e+00 1.0000e+00
       13  1    1    2    0    0 +9.7263476117e+01 -4.1030314497e+02 +5.3667612928e+02 6.8251748864e+02 0.0000000000e+00 0.0000e+00 -1.0000e+00
<mgrwt>
<rscale>  0 0.85976507E+03</rscale>
<asrwt>0</asrwt>
<pdfrwt beam="1">  1        2 0.15702813E+00 0.85976507E+03</pdfrwt>
<pdfrwt beam="2">  1       -2 0.27854504E-01 0.85976507E+03</pdfrwt>
<totfact> 0.34086654E+02</totfact>
</mgrwt>
<rwgt>
<wgt id='morphing_basis_vector_1'> +2.7468783e-04 </wgt>
<wgt id='morphing_basis_vector_2'> +1.7877972e-04 </wgt>
<wgt id='morphing_basis_vector_3'> +2.5198546e-04 </wgt>
<wgt id='morphing_basis_vector_4'> +1.3622805e-04 </wgt>
<wgt id='morphing_basis_vector_5'> +2.2392535e-04 </wgt>
</rwgt>
</event>
<event>
 4      1 +2.9741700e-06 7.84875300e+02 7.81860800e-03 8.92141200e-02
        2 -1    0    0  501    0 +0.0000000000e+00 +0.0000000000e+00 +6.0347325239e+02 6.0347325239e+02 0.0000000000e+00 0.0000e+00 -1.0000e+00
       -2 -1    0    0    0  501 -0.0000000000e+00 -0.0000000000e+00 -2.5520156693e+02 2.5520156693e+02 0.0000000000e+00 0.0000e+00 1.0000e+00
      -13  1    1    2    0    0 +1.8123916703e+02 -2.9820886614e+02 -2.2275241170e+01 3.4967463431e+02 0.0000000000e+00 0.0000e+00 1.0000e+00
       13  1    1    2    0    0 -1.8123916703e+02 +2.9820886614e+02 +3.7054692663e+02 5.0900018501e+02 0.0000000000e+00 0.0000e+00 -1.0000e+00
<mgrwt>
<rscale>  0 0.78487533E+03</rscale>
<asrwt>0</asrwt>
<pdfrwt beam="1">  1        2 0.92842039E-01 0.78487533E+03</pdfrwt>
<pdfrwt beam="2">  1       -2 0.39261780E-01 0.78487533E+03</pdfrwt>
<totfact> 0.36294240E+02</totfact>
</mgrwt>
<rwgt>
<wgt id='morphing_basis_vector_1'> +1.9623389e-04 </wgt>
<wgt id='morphing_basis_vector_2'> +1.2028080e-04 </wgt>
<wgt id='morphing_basis_vector_3'> +1.7470567e-04 </wgt>
<wgt id='morphing_basis_vector_4'> +9.3493419e-05 </wgt>
<wgt id='morphing_basis_vector_5'> +1.4831115e-04 </wgt>
</rwgt>
</event>
<event>
 4      1 +2.9741700e-06 8.65242600e+02 7.81860800e-03 8.82445300e-02
        2 -1    0    0  501    0 +0.0000000000e+00 +0.0000000000e+00 +7.0317923806e+02 7.0317923806e+02 0.0000000000e+00 0.0000e+00 1.0000e+00
       -2 -1    0    0    0  501 -0.0000000000e+00 -0.0000000000e+00 -2.6616427128e+02 2.6616427128e+02 0.0000000000e+00 0.0000e+00 -1.0000e+00
      -13  1    1    2    0    0 -4.1011308473e+02 -1.3252205223e+00 +3.7279670822e+02 5.5423089425e+02 0.0000000000e+00 0.0000e+00 -1.0000e+00
       13  1    1    2    0    0 +4.1011308473e+02 +1.3252205223e+00 +6.4218258553e+01 4.1511261509e+02 0.0000000000e+00 0.0000e+00 1.0000e+00
<mgrwt>
<rscale>  0 0.86524260E+03</rscale>
<asrwt>0</asrwt>
<pdfrwt beam="1">  1        2 0.10818142E+00 0.86524260E+03</pdfrwt>
<pdfrwt beam="2">  1       -2 0.40948350E-01 0.86524260E+03</pdfrwt>
<totfact> 0.27822291E+02</totfact>
</mgrwt>
<rwgt>
<wgt id='morphing_basis_vector_1'> +3.0526593e-04 </wgt>
<wgt id='morphing_basis_vector_2'> +2.5698047e-04 </wgt>
<wgt id='morphing_basis_vector_3'> +2.7595188e-04 </wgt>
<wgt id='morphing_basis_vector_4'> +1.0688652e-04 </wgt>
<wgt id='morphing_basis_vector_5'> +2.2872416e-04 </wgt>
</rwgt>
</event>
<event>
 4      1 +2.9741700e-06 8.98756900e+02 7.81860800e-03 8.78724800e-02
        2 -1    0    0  501    0 +0.0000000000e+00 +0.0000000000e+00 +4.1199008405e+02 4.1199008405e+02 0.0000000000e+00 0.0000e+00 -1.0000e+00
       -2 -1    0    0    0  501 -0.0000000000e+00 -0.0000000000e+00 -4.9015985194e+02 4.9015985194e+02 0.0000000000e+00 0.0000e+00 1.0000e+00
      -13  1    1    2    0    0 -2.1452894331e+02 -1.2648186851e+02 -4.1455675961e+02 4.8360897171e+02 0.0000000000e+00 0.0000e+00 1.0000e+00
       13  1    1    2    0    0 +2.1452894331e+02 +1.2648186851e+02 +3.3638699172e+02 4.1854096428e+02 0.0000000000e+00 0.0000e+00 -1.0000e+00
<mgrwt>
<rscale>  0 0.89875692E+03</rscale>
<asrwt>0</asrwt>
<pdfrwt beam="1">  1        2 0.63383090E-01 0.89875692E+03</pdfrwt>
<pdfrwt beam="2">  1       -2 0.75409208E-01 0.89875692E+03</pdfrwt>
<totfact> 0.15093655E+02</totfact>
</mgrwt>
<rwgt>
<wgt id='morphing_basis_vector_1'> +3.1715977e-04 </wgt>
<wgt id='morphing_basis_vector_2'> +1.9522050e-04 </wgt>
<wgt id='morphing_basis_vector_3'> +2.9613357e-04 </wgt>
<wgt id='morphing_basis_vector_4'> +1.7313915e-04 </wgt>
<wgt id='morphing_basis_vector_5'> +2.7322823e-04 </wgt>
</rwgt>
</event>
<event>
 4      1 +2.9741700e-06 8.62786300e+02 7.81860800e-03 8.82725000e-02
        2 -1    0    0  501    0 +0.0000000000e+00 +0.0000000000e+00 +3.1961277028e+02 3.1961277028e+02 0.0000000000e+00 0.0000e+00 1.0000e+00
       -2 -1    0    0    0  501 -0.0000000000e+00 -0.0000000000e+00 -5.8226726004e+02 5.8226726004e+02 0.0000000000e+00 0.0000e+00 -1.0000e+00
      -13  1    1    2    0    0 -3.7840968402e+02 -1.1339751873e+02 -3.1252269349e+02 5.0370955934e+02 0.0000000000e+00 0.0000e+00 -1.0000e+00
       13  1    1    2    0    0 +3.7840968402e+02 +1.1339751873e+02 +4.9868203740e+01 3.9817047098e+02 0.0000000000e+00 0.0000e+00 1.0000e+00
<mgrwt>
<rscale>  0 0.86278631E+03</rscale>
<asrwt>0</asrwt>
<pdfrwt beam="1">  1        2 0.49171196E-01 0.86278631E+03</pdfrwt>
<pdfrwt beam="2">  1       -2 0.89579577E-01 0.86278631E+03</pdfrwt>
<totfact> 0.13608827E+02</totfact>
</mgrwt>
<rwgt>
<wgt id='morphing_basis_vector_1'> +2.7544540e-04 </wgt>
<wgt id='morphing_basis_vector_2'> +1.7281560e-04 </wgt>
<wgt id='morphing_basis_vector_3'> +2.5353063e-04 </wgt>
<wgt id='morphing_basis_vector_4'> +1.4209596e-04 </wgt>
<wgt id='morphing_basis_vector_5'> +2.2765328e-04 </wgt>
</rwgt>
</event>
<event>
 4      1 +2.9741700e-06 7.88655100e+02 7.81860800e-03 8.91658100e-02
        2 -1    0    0  501    0 +0.0000000000e+00 +0.0000000000e+00 +1.8567145906e+03 1.8567145906e+03 0.0000000000e+00 0.0000e+00 1.0000e+00
       -2 -1    0    0    0  501 -0.0000000000e+00 -0.0000000000e+00 -8.3746969277e+01 8.3746969277e+01 0.0000000000e+00 0.0000e+00 -1.0000e+00
      -13  1    1    2    0    0 +1.5156189223e+02 -3.6374516626e+02 +9.2236506301e+02 1.0030148865e+03 0.0000000000e+00 0.0000e+00 -1.0000e+00
       13  1    1    2    0    0 -1.5156189223e+02 +3.6374516626e+02 +8.5060255832e+02 9.3744667335e+02 0.0000000000e+00 0.0000e+00 1.0000e+00
<mgrwt>
<rscale>  0 0.78865511E+03</rscale>
<asrwt>0</asrwt>
<pdfrwt beam="1">  1        2 0.28564837E+00 0.78865511E+03</pdfrwt>
<pdfrwt beam="2">  1       -2 0.12884150E-01 0.78865511E+03</pdfrwt>
<totfact> 0.41582681E+02</totfact>
</mgrwt>
<rwgt>
<wgt id='morphing_basis_vector_1'> +2.0650211e-04 </wgt>
<wgt id='morphing_basis_vector_2'> +1.4362941e-04 </wgt>
<wgt id='morphing_basis_vector_3'> +1.8197026e-04 </wgt>
<wgt id='morphing_basis_vector_4'> +8.6962484e-05 </wgt>
<wgt id='morphing_basis_vector_5'> +1.5126087e-04 </wgt>
</rwgt>
</event>
<event>
 4      1 +2.9741700e-06 7.95497200e+02 7.81860800e-03 8.90790900e-02
        2 -1    0    0  501    0 +0.0000000000e+00 +0.0000000000e+00 +8.6745477028e+02 8.6745477028e+02 0.0000000000e+00 0.0000e+00 1.0000e+00
       -2 -1    0    0    0  501 -0.0000000000e+00 -0.0000000000e+00 -1.8237716690e+02 1.8237716690e+02 0.0000000000e+00 0.0000e+00 -1.0000e+00
      -13  1    1    2    0    0 -2.6725030238e+02 -5.9237089235e+01 -3.8291166693e+01 2.7640182762e+02 0.0000000000e+00 0.0000e+00 -1.0000e+00
       13  1    1    2    0    0 +2.6725030238e+02 +5.9237089235e+01 +7.2336877007e+02 7.7343010956e+02 0.0000000000e+00 0.0000e+00 1.0000e+00
<mgrwt>
<rscale>  0 0.79549719E+03</rscale>
<asrwt>0</asrwt>
<pdfrwt beam="1">  1        2 0.13345458E+00 0.79549719E+03</pdfrwt>
<pdfrwt beam="2">  1       -2 0.28058026E-01 0.79549719E+03</pdfrwt>
<totfact> 0.42274752E+02</totfact>
</mgrwt>
<rwgt>
<wgt id='morphing_basis_vector_1'> +2.0489287e-04 </wgt>
<wgt id='morphing_basis_vector_2'> +1.2373156e-04 </wgt>
<wgt id='morphing_basis_vector_3'> +1.8361289e-04 </wgt>
<wgt id='morphing_basis_vector_4'> +1.0044614e-04 </wgt>
<wgt id='morphing_basis_vector_5'> +1.5777411e-04 </wgt>
</rwgt>
</event>
<event>
 4      1 +2.9741700e-06 7.81272900e+02 7.81860800e-03 8.92604300e-02
        2 -1    0    0  501    0 +0.0000000000e+00 +0.0000000000e+00 +9.4708591497e+02 9.4708591497e+02 0.0000000000e+00 0.0000e+00 1.0000e+00
       -2 -1    0    0    0  501 -0.0000000000e+00 -0.0000000000e+00 -1.6112249766e+02 1.6112249766e+02 0.0000000000e+00 0.0000e+00 -1.0000e+00
      -13  1    1    2    0    0 +2.1668948366e+02 -3.4249738624e+01 -6.5490867839e+01 2.2894634894e+02 0.0000000000e+00 0.0000e+00 -1.0000e+00
       13  1    1    2    0    0 -2.1668948366e+02 +3.4249738624e+01 +8.5145428515e+02 8.7926206368e+02 0.0000000000e+00 0.0000e+00 1.0000e+00
<mgrwt>
<rscale>  0 0.78127293E+03</rscale>
<asrwt>0</asrwt>
<pdfrwt beam="1">  1        2 0.14570552E+00 0.78127293E+03</pdfrwt>
<pdfrwt beam="2">  1       -2 0.24788077E-01 0.78127293E+03</pdfrwt>
<totfact> 0.46534787E+02</totfact>
</mgrwt>
<rwgt>
<wgt id='morphing_basis_vector_1'> +1.9212421e-04 </wgt>
<wgt id='morphing_basis_vector_2'> +1.1532379e-04 </wgt>
<wgt id='morphing_basis_vector_3'> +1.7106475e-04 </wgt>
<wgt id='morphing_basis_vector_4'> +9.2739288e-05 </wgt>
<wgt id='morphing_basis_vector_5'> +1.4525843e-04 </wgt>
</rwgt>
</event>
<event>
 4      1 +2.9741700e-06 8.20981000e+02 7.81860800e-03 8.87640300e-02
        2 -1    0    0  501    0 +0.0000000000e+00 +0.0000000000e+00 +2.2804894213e+02 2.2804894213e+02 0.0000000000e+00 0.0000e+00 -1.0000e+00
       -2 -1    0    0    0  501 -0.0000000000e+00 -0.0000000000e+00 -7.3888721538e+02 7.3888721538e+02 0.0000000000e+00 0.0000e+00 1.0000e+00
      -13  1    1    2    0    0 +7.0279368370e+01 -2.9408412271e+02 -5.8240525524e+02 6.5621684083e+02 0.0000000000e+00 0.0000e+00 1.0000e+00
       13  1    1    2    0    0 -7.0279368370e+01 +2.9408412271e+02 +7.1566981991e+01 3.1071931668e+02 0.0000000000e+00 0.0000e+00 -1.0000e+00
<mgrwt>
<rscale>  0 0.82098099E+03</rscale>
<asrwt>0</asrwt>
<pdfrwt beam="1">  1        2 0.35084453E-01 0.82098099E+03</pdfrwt>
<pdfrwt beam="2">  1       -2 0.11367495E+00 0.82098099E+03</pdfrwt>
<totfact> 0.11225875E+02</totfact>
</mgrwt>
<rwgt>
<wgt id='morphing_basis_vector_1'> +2.2927702e-04 </wgt>
<wgt id='morphing_basis_vector_2'> +1.3953105e-04 </wgt>
<wgt id='morphing_basis_vector_3'> +2.0776759e-04 </wgt>
<wgt id='morphing_basis_vector_4'> +1.1558113e-04 </wgt>
<wgt id='morphing_basis_vector_5'> +1.8211472e-04 </wgt>
</rwgt>
</event>
<event>
 4      1 +2.9741700e-06 7.59212500e+02 7.81860800e-03 8.95499400e-02
        2 -1    0    0  501    0 +0.0000000000e+00 +0.0000000000e+00 +2.6111514942e+02 2.6111514942e+02 0.0000000000e+00 0.0000e+00 -1.0000e+00
       -2 -1    0    0    0  501 -0.0000000000e+00 -0.0000000000e+00 -5.5186731400e+02 5.5186731400e+02 0.0000000000e+00 0.0000e+00 1.0000e+00
      -13  1    1    2    0    0 +1.1883417917e+02 -1.3783743811e+01 -5.3115399639e+02 5.4445947656e+02 0.0000000000e+00 0.0000e+00 1.0000e+00
       13  1    1    2    0    0 -1.1883417917e+02 +1.3783743811e+01 +2.4040183181e+02 2.6852298686e+02 0.0000000000e+00 0.0000e+00 -1.0000e+00
<mgrwt>
<rscale>  0 0.75921253E+03</rscale>
<asrwt>0</asrwt>
<pdfrwt beam="1">  1        2 0.40171562E-01 0.75921253E+03</pdfrwt>
<pdfrwt beam="2">  1       -2 0.84902663E-01 0.75921253E+03</pdfrwt>
<totfact> 0.19461765E+02</totfact>
</mgrwt>
<rwgt>
<wgt id='morphing_basis_vector_1'> +1.7368594e-04 </wgt>
<wgt id='morphing_basis_vector_2'> +1.0354163e-04 </wgt>
<wgt id='morphing_basis_vector_3'> +1.5298993e-04 </wgt>
<wgt id='morphing_basis_vector_4'> +8.1498188e-05 </wgt>
<wgt id='morphing_basis_vector_5'> +1.2727297e-04 </wgt>
</rwgt>
</event>
<event>
 4      1 +2.9741700e-06 8.45894900e+02 7.81860800e-03 8.84674900e-02
        2 -1    0    0  501    0 +0.0000000000e+00 +0.0000000000e+00 +4.6236727804e+02 4.6236727804e+02 0.0000000000e+00 0.0000e+00 1.0000e+00
       -2 -1    0    0    0  501 -0.0000000000e+00 -0.0000000000e+00 -3.8688846493e+02 3.8688846493e+02 0.0000000000e+00 0.0000e+00 -1.0000e+00
      -13  1    1    2    0    0 -1.9300831628e+02 +7.4832273380e+01 -3.3255178366e+02 3.9171771482e+02 0.0000000000e+00 0.0000e+00 -1.0000e+00
       13  1    1    2    0    0 +1.9300831628e+02 -7.4832273380e+01 +4.0803059677e+02 4.5753802814e+02 0.0000000000e+00 0.0000e+00 1.0000e+00
<mgrwt>
<rscale>  0 0.84589495E+03</rscale>
<asrwt>0</asrwt>
<pdfrwt beam="1">  1        2 0.71133427E-01 0.84589495E+03</pdfrwt>
<pdfrwt beam="2">  1       -2 0.59521303E-01 0.84589495E+03</pdfrwt>
<totfact> 0.21910922E+02</totfact>
</mgrwt>
<rwgt>
<wgt id='morphing_basis_vector_1'> +2.5481639e-04 </wgt>
<wgt id='morphing_basis_vector_2'> +1.5512110e-04 </wgt>
<wgt id='morphing_basis_vector_3'> +2.3336584e-04 </wgt>
<wgt id='morphing_basis_vector_4'> +1.3249687e-04 </wgt>
<wgt id='morphing_basis_vector_5'> +2.0844608e-04 </wgt>
</rwgt>
</event>
<event>
 4      1 +2.9741700e-06 7.96050300e+02 7.81860800e-03 8.90721200e-02
        2 -1    0    0  501    0 +0.0000000000e+00 +0.0000000000e+00 +1.3656999701e+03 1.3656999701e+03 0.0000000000e+00 0.0000e+00 -1.0000e+00
       -2 -1    0    0    0  501 -0.0000000000e+00 -0.0000000000e+00 -1.1600205822e+02 1.1600205822e+02 0.0000000000e+00 0.0000e+00 1.0000e+00
      -13  1    1    2    0    0 +3.4665704544e+02 +1.9557629337e+02 +6.2797118013e+02 7.4348436215e+02 0.0000000000e+00 0.0000e+00 1.0000e+00
       13  1    1    2    0    0 -3.4665704544e+02 -1.9557629337e+02 +6.2172673173e+02 7.3821766616e+02 0.0000000000e+00 0.0000e+00 -1.0000e+00
<mgrwt>
<rscale>  0 0.79605027E+03</rscale>
<asrwt>0</asrwt>
<pdfrwt beam="1">  1        2 0.21010768E+00 0.79605027E+03</pdfrwt>
<pdfrwt beam="2">  1       -2 0.17846471E-01 0.79605027E+03</pdfrwt>
<totfact> 0.45702028E+02</totfact>
</mgrwt>
<rwgt>
<wgt id='morphing_basis_vector_1'> +2.1252252e-04 </wgt>
<wgt id='morphing_basis_vector_2'> +1.4587660e-04 </wgt>
<wgt id='morphing_basis_vector_3'> +1.8830250e-04 </wgt>
<wgt id='morphing_basis_vector_4'> +9.1818451e-05 </wgt>
<wgt id='morphing_basis_vector_5'> +1.5789910e-04 </wgt>
</rwgt>
</event>
<event>
 4      1 +2.9741700e-06 7.79045500e+02 7.81860800e-03 8.92892000e-02
        2 -1    0    0  501    0 +0.0000000000e+00 +0.0000000000e+00 +2.3458588776e+03 2.3458588776e+03 0.0000000000e+00 0.0000e+00 -1.0000e+00
       -2 -1    0    0    0  501 -0.0000000000e+00 -0.0000000000e+00 -6.4679076339e+01 6.4679076339e+01 0.0000000000e+00 0.0000e+00 1.0000e+00
      -13  1    1    2    0    0 -7.3797841814e+01 +3.2699782110e+02 +5.2676123285e+02 6.2438056736e+02 0.0000000000e+00 0.0000e+00 1.0000e+00
       13  1    1    2    0    0 +7.3797841814e+01 -3.2699782110e+02 +1.7544185685e+03 1.7861573866e+03 0.0000000000e+00 0.0000e+00 -1.0000e+00
<mgrwt>
<rscale>  0 0.77904553E+03</rscale>
<asrwt>0</asrwt>
<pdfrwt beam="1">  1        2 0.36090130E+00 0.77904553E+03</pdfrwt>
<pdfrwt beam="2">  1       -2 0.99506289E-02 0.77904553E+03</pdfrwt>
<totfact> 0.33407205E+02</totfact>
</mgrwt>
<rwgt>
<wgt id='morphing_basis_vector_1'> +1.9090792e-04 </wgt>
<wgt id='morphing_basis_vector_2'> +1.1627252e-04 </wgt>
<wgt id='morphing_basis_vector_3'> +1.6956067e-04 </wgt>
<wgt id='morphing_basis_vector_4'> +9.0685258e-05 </wgt>
<wgt id='morphing_basis_vector_5'> +1.4332986e-04 </wgt>
</rwgt>
</event>
<event>
 4      1 +2.9741700e-06 7.62731800e+02 7.81860800e-03 8.95030600e-02
        2 -1    0    0  501    0 +0.0000000000e+00 +0.0000000000e+00 +1.3758705509e+02 1.3758705509e+02 0.0000000000e+00 0.0000e+00 1.0000e+00
       -2 -1    0    0    0  501 -0.0000000000e+00 -0.0000000000e+00 -1.0570757030e+03 1.0570757030e+03 0.0000000000e+00 0.0000e+00 -1.0000e+00
      -13  1    1    2    0    0 +7.2223668301e+01 +2.1510461876e+02 +2.0354220401e+01 2.2781692116e+02 0.0000000000e+00 0.0000e+00 1.0000e+00
       13  1    1    2    0    0 -7.2223668301e+01 -2.1510461876e+02 -9.3984286827e+02 9.6684583689e+02 0.0000000000e+00 0.0000e+00 -1.0000e+00
<mgrwt>
<rscale>  0 0.76273176E+03</rscale>
<asrwt>0</asrwt>
<pdfrwt beam="1">  1        2 0.21167239E-01 0.76273176E+03</pdfrwt>
<pdfrwt beam="2">  1       -2 0.16262703E+00 0.76273176E+03</pdfrwt>
<totfact> 0.76298137E+01</totfact>
</mgrwt>
<rwgt>
<wgt id='morphing_basis_vector_1'> +2.3435289e-04 </wgt>
<wgt id='morphing_basis_vector_2'> +2.8285160e-04 </wgt>
<wgt id='morphing_basis_vector_3'> +1.8539064e-04 </wgt>
<wgt id='morphing_basis_vector_4'> +1.4377571e-05 </wgt>
<wgt id='morphing_basis_vector_5'> +1.2744922e-04 </wgt>
</rwgt>
</event>
<event>
 4      1 +2.9741700e-06 7.51603500e+02 7.81860800e-03 8.96522400e-02
        2 -1    0    0  501    0 +0.0000000000e+00 +0.0000000000e+00 +2.1176241314e+03 2.1176241314e+03 0.0000000000e+00 0.0000e+00 1.0000e+00
       -2 -1    0    0    0  501 -0.0000000000e+00 -0.0000000000e+00 -6.6691235271e+01 6.6691235271e+01 0.0000000000e+00 0.0000e+00 -1.0000e+00
      -13  1    1    2    0    0 -2.1919169848e+02 +3.0451934251e+02 +9.6382070211e+02 1.0342762573e+03 0.0000000000e+00 0.0000e+00 -1.0000e+00
       13  1    1    2    0    0 +2.1919169848e+02 -3.0451934251e+02 +1.0871121940e+03 1.1500391093e+03 0.0000000000e+00 0.0000e+00 1.0000e+00
<mgrwt>
<rscale>  0 0.75160354E+03</rscale>
<asrwt>0</asrwt>
<pdfrwt beam="1">  1        2 0.32578828E+00 0.75160354E+03</pdfrwt>
<pdfrwt beam="2">  1       -2 0.10260192E-01 0.75160354E+03</pdfrwt>
<totfact> 0.42923540E+02</totfact>
</mgrwt>
<rwgt>
<wgt id='morphing_basis_vector_1'> +1.7244554e-04 </wgt>
<wgt id='morphing_basis_vector_2'> +1.1440574e-04 </wgt>
<wgt id='morphing_basis_vector_3'> +1.4943241e-04 </wgt>
<wgt id='morphing_basis_vector_4'> +7.2272702e-05 </wgt>
<wgt id='morphing_basis_vector_5'> +1.2125819e-04 </wgt>
</rwgt>
</event>
<event>
 4      1 +2.9741700e-06 8.43655600e+02 7.81860800e-03 8.84937000e-02
        2 -1    0    0  501    0 +0.0000000000e+00 +0.0000000000e+00 +2.1547333012e+03 2.1547333012e+03 0.0000000000e+00 0.0000e+00 -1.0000e+00
       -2 -1    0    0    0  501 -0.0000000000e+00 -0.0000000000e+00 -8.2580370686e+01 8.2580370686e+01 0.0000000000e+00 0.0000e+00 1.0000e+00
      -13  1    1    2    0    0 +1.6952712727e+02 -2.7885351981e+02 +3.2726252089e+02 4.6216824855e+02 0.0000000000e+00 0.0000e+00 1.0000e+00
       13  1    1    2    0    0 -1.6952712727e+02 +2.7885351981e+02 +1.7448904096e+03 1.7751454233e+03 0.0000000000e+00 0.0000e+00 -1.0000e+00
<mgrwt>
<rscale>  0 0.84365556E+03</rscale>
<asrwt>0</asrwt>
<pdfrwt beam="1">  1        2 0.33149739E+00 0.84365556E+03</pdfrwt>
<pdfrwt beam="2">  1       -2 0.12704674E-01 0.84365556E+03</pdfrwt>
<totfact> 0.28944996E+02</totfact>
</mgrwt>
<rwgt>
<wgt id='morphing_basis_vector_1'> +2.5285381e-04 </wgt>
<wgt id='morphing_basis_vector_2'> +1.5494852e-04 </wgt>
<wgt id='morphing_basis_vector_3'> +2.3126021e-04 </wgt>
<wgt id='morphing_basis_vector_4'> +1.3034505e-04 </wgt>
<wgt id='morphing_basis_vector_5'> +2.0594662e-04 </wgt>
</rwgt>
</event>
<event>
 4      1 +2.9741700e-06 8.41730200e+02 7.81860800e-03 8.85163000e-02
        2 -1    0    0  501    0 +0.0000000000e+00 +0.0000000000e+00 +5.7454972393e+02 5.7454972393e+02 0.0000000000e+00 0.0000e+00 -1.0000e+00
       -2 -1    0    0    0  501 -0.0000000000e+00 -0.0000000000e+00 -3.0828910088e+02 3.0828910088e+02 0.0000000000e+00 0.0000e+00 1.0000e+00
      -13  1    1    2    0    0 +6.5409689502e+00 +3.6952076131e+02 +3.4430665473e+02 5.0510934440e+02 0.0000000000e+00 0.0000e+00 -1.0000e+00
       13  1    1    2    0    0 -6.5409689502e+00 -3.6952076131e+02 -7.8046031672e+01 3.7772948041e+02 0.0000000000e+00 0.0000e+00 1.0000e+00
<mgrwt>
<rscale>  0 0.84173017E+03</rscale>
<asrwt>0</asrwt>
<pdfrwt beam="1">  1        2 0.88392265E-01 0.84173017E+03</pdfrwt>
<pdfrwt beam="2">  1       -2 0.47429093E-01 0.84173017E+03</pdfrwt>
<totfact> 0.26815373E+02</totfact>
</mgrwt>
<rwgt>
<wgt id='morphing_basis_vector_1'> +2.9257820e-04 </wgt>
<wgt id='morphing_basis_vector_2'> +2.8124697e-04 </wgt>
<wgt id='morphing_basis_vector_3'> +2.5767318e-04 </wgt>
<wgt id='morphing_basis_vector_4'> +7.3270300e-05 </wgt>
<wgt id='morphing_basis_vector_5'> +2.0119343e-04 </wgt>
</rwgt>
</event>
<event>
 4      1 +2.9741700e-06 7.96798100e+02 7.81860800e-03 8.90627000e-02
        2 -1    0    0  501    0 +0.0000000000e+00 +0.0000000000e+00 +3.4093761356e+02 3.4093761356e+02 0.0000000000e+00 0.0000e+00 1.0000e+00
       -2 -1    0    0    0  501 -0.0000000000e+00 -0.0000000000e+00 -4.6554495633e+02 4.6554495633e+02 0.0000000000e+00 0.0000e+00 -1.0000e+00
      -13  1    1    2    0    0 +1.9339985777e+02 -3.4533539221e+02 -1.6345309275e+01 3.9614038829e+02 0.0000000000e+00 0.0000e+00 -1.0000e+00
       13  1    1    2    0    0 -1.9339985777e+02 +3.4533539221e+02 -1.0826203349e+02 4.1034218160e+02 0.0000000000e+00 0.0000e+00 1.0000e+00
<mgrwt>
<rscale>  0 0.79679806E+03</rscale>
<asrwt>0</asrwt>
<pdfrwt beam="1">  1        2 0.52451941E-01 0.79679806E+03</pdfrwt>
<pdfrwt beam="2">  1       -2 0.71622301E-01 0.79679806E+03</pdfrwt>
<totfact> 0.21027109E+02</totfact>
</mgrwt>
<rwgt>
<wgt id='morphing_basis_vector_1'> +2.1671715e-04 </wgt>
<wgt id='morphing_basis_vector_2'> +1.5706382e-04 </wgt>
<wgt id='morphing_basis_vector_3'> +1.9106096e-04 </wgt>
<wgt id='morphing_basis_vector_4'> +8.7824257e-05 </wgt>
<wgt id='morphing_basis_vector_5'> +1.5839197e-04 </wgt>
</rwgt>
</event>
<event>
 4      1 +2.9741700e-06 8.92003900e+02 7.81860800e-03 8.79460700e-02
        2 -1    0    0  501    0 +0.0000000000e+00 +0.0000000000e+00 +3.2178592922e+02 3.2178592922e+02 0.0000000000e+00 0.0000e+00 -1.0000e+00
       -2 -1    0    0    0  501 -0.0000000000e+00 -0.0000000000e+00 -6.1816790531e+02 6.1816790531e+02 0.0000000000e+00 0.0000e+00 1.0000e+00
      -13  1    1    2    0    0 +3.4504682772e+02 +2.0406080708e+02 -3.5419841998e+02 5.3493424551e+02 0.0000000000e+00 0.0000e+00 1.0000e+00
       13  1    1    2    0    0 -3.4504682772e+02 -2.0406080708e+02 +5.7816443896e+01 4.0501958901e+02 0.0000000000e+00 0.0000e+00 -1.0000e+00
<mgrwt>
<rscale>  0 0.89200389E+03</rscale>
<asrwt>0</asrwt>
<pdfrwt beam="1">  1        2 0.49505528E-01 0.89200389E+03</pdfrwt>
<pdfrwt beam="2">  1       -2 0.95102753E-01 0.89200389E+03</pdfrwt>
<totfact> 0.11716574E+02</totfact>
</mgrwt>
<rwgt>
<wgt id='morphing_basis_vector_1'> +3.1031974e-04 </wgt>
<wgt id='morphing_basis_vector_2'> +1.9494318e-04 </wgt>
<wgt id='morphing_basis_vector_3'> +2.8880209e-04 </wgt>
<wgt id='morphing_basis_vector_4'> +1.6506765e-04 </wgt>
<wgt id='morphing_basis_vector_5'> +2.6410837e-04 </wgt>
</rwgt>
</event>
<event>
 4      1 +2.9741700e-06 8.35518200e+02 7.81860800e-03 8.85896700e-02
        2 -1    0    0  501    0 +0.0000000000e+00 +0.0000000000e+00 +1.7401466701e+03 1.7401466701e+03 0.0000000000e+00 0.0000e+00 -1.0000e+00
       -2 -1    0    0    0  501 -0.0000000000e+00 -0.0000000000e+00 -1.0029193811e+02 1.0029193811e+02 0.0000000000e+00 0.0000e+00 1.0000e+00
      -13  1    1    2    0    0 -4.0670419190e+02 -5.6621767535e+01 +6.5061105522e+02 7.6935626951e+02 0.0000000000e+00 0.0000e+00 1.0000e+00
       13  1    1    2    0    0 +4.0670419190e+02 +5.6621767535e+01 +9.8924367680e+02 1.0710823387e+03 0.0000000000e+00 0.0000e+00 -1.0000e+00
<mgrwt>
<rscale>  0 0.83551824E+03</rscale>
<asrwt>0</asrwt>
<pdfrwt beam="1">  1        2 0.26771485E+00 0.83551824E+03</pdfrwt>
<pdfrwt beam="2">  1       -2 0.15429530E-01 0.83551824E+03</pdfrwt>
<totfact> 0.35911965E+02</totfact>
</mgrwt>
<rwgt>
<wgt id='morphing_basis_vector_1'> +2.4805894e-04 </wgt>
<wgt id='morphing_basis_vector_2'> +1.6110736e-04 </wgt>
<wgt id='morphing_basis_vector_3'> +2.2520029e-04 </wgt>
<wgt id='morphing_basis_vector_4'> +1.1976875e-04 </wgt>
<wgt id='morphing_basis_vector_5'> +1.9691019e-04 </wgt>
</rwgt>
</event>
<event>
 4      1 +2.9741700e-06 7.68015100e+02 7.81860800e-03 8.94331800e-02
        2 -1    0    0  501    0 +0.0000000000e+00 +0.0000000000e+00 +9.8606789777e+02 9.8606789777e+02 0.0000000000e+00 0.0000e+00 -1.0000e+00
       -2 -1    0    0    0  501 -0.0000000000e+00 -0.0000000000e+00 -1.4954529192e+02 1.4954529192e+02 0.0000000000e+00 0.0000e+00 1.0000e+00
      -13  1    1    2    0    0 -3.5406136077e+02 +2.1613239918e+01 +6.3575237355e+02 7.2801624968e+02 0.0000000000e+00 0.0000e+00 -1.0000e+00
       13  1    1    2    0    0 +3.5406136077e+02 -2.1613239918e+01 +2.0077023230e+02 4.0759694001e+02 0.0000000000e+00 0.0000e+00 1.0000e+00
<mgrwt>
<rscale>  0 0.76801513E+03</rscale>
<asrwt>0</asrwt>
<pdfrwt beam="1">  1        2 0.15170275E+00 0.76801513E+03</pdfrwt>
<pdfrwt beam="2">  1       -2 0.23006969E-01 0.76801513E+03</pdfrwt>
<totfact> 0.49964868E+02</totfact>
</mgrwt>
<rwgt>
<wgt id='morphing_basis_vector_1'> +2.0379882e-04 </wgt>
<wgt id='morphing_basis_vector_2'> +1.7848818e-04 </wgt>
<wgt id='morphing_basis_vector_3'> +1.7204974e-04 </wgt>
<wgt id='morphing_basis_vector_4'> +5.8313040e-05 </wgt>
<wgt id='morphing_basis_vector_5'> +1.3319177e-04 </wgt>
</rwgt>
</event>
<event>
 4      1 +2.9741700e-06 8.72845200e+02 7.81860800e-03 8.81586000e-02
        2 -1    0    0  501    0 +0.0000000000e+00 +0.0000000000e+00 +4.6295433640e+02 4.6295433640e+02 0.0000000000e+00 0.0000e+00 -1.0000e+00
       -2 -1    0    0    0  501 -0.0000000000e+00 -0.0000000000e+00 -4.1141141871e+02 4.1141141871e+02 0.0000000000e+00 0.0000e+00 1.0000e+00
      -13  1    1    2    0    0 -2.0131721520e+02 +2.7848465905e+02 -2.4373694163e+02 4.2129564818e+02 0.0000000000e+00 0.0000e+00 1.0000e+00
       13  1    1    2    0    0 +2.0131721520e+02 -2.7848465905e+02 +2.9527985932e+02 4.5307010692e+02 0.0000000000e+00 0.0000e+00 -1.0000e+00
<mgrwt>
<rscale>  0 0.87284523E+03</rscale>
<asrwt>0</asrwt>
<pdfrwt beam="1">  1        2 0.71223744E-01 0.87284523E+03</pdfrwt>
<pdfrwt beam="2">  1       -2 0.63294064E-01 0.87284523E+03</pdfrwt>
<totfact> 0.19251593E+02</totfact>
</mgrwt>
<rwgt>
<wgt id='morphing_basis_vector_1'> +2.8582845e-04 </wgt>
<wgt id='morphing_basis_vector_2'> +1.7635990e-04 </wgt>
<wgt id='morphing_basis_vector_3'> +2.6435385e-04 </wgt>
<wgt id='morphing_basis_vector_4'> +1.5146288e-04 </wgt>
<wgt id='morphing_basis_vector_5'> +2.3985059e-04 </wgt>
</rwgt>
</event>
<event>
 4      1 +2.9741700e-06 8.84175800e+02 7.81860800e-03 8.80322200e-02
        2 -1    0    0  501    0 +0.0000000000e+00 +0.0000000000e+00 +5.1828206346e+02 5.1828206346e+02 0.0000000000e+00 0.0000e+00 -1.0000e+00
       -2 -1    0    0    0  501 -0.0000000000e+00 -0.0000000000e+00 -3.7709527579e+02 3.7709527579e+02 0.0000000000e+00 0.0000e+00 1.0000e+00
      -13  1    1    2    0    0 -8.3824225753e+01 +2.7857810157e+02 -2.6650437911e+02 3.9453370399e+02 0.0000000000e+00 0.0000e+00 1.0000e+00
       13  1    1    2    0    0 +8.3824225753e+01 -2.7857810157e+02 +4.0769116678e+02 5.0084363525e+02 0.0000000000e+00 0.0000e+00 -1.0000e+00
<mgrwt>
<rscale>  0 0.88417581E+03</rscale>
<asrwt>0</asrwt>
<pdfrwt beam="1">  1        2 0.79735703E-01 0.88417581E+03</pdfrwt>
<pdfrwt beam="2">  1       -2 0.58014657E-01 0.88417581E+03</pdfrwt>
<totfact> 0.20223713E+02</totfact>
</mgrwt>
<rwgt>
<wgt id='morphing_basis_vector_1'> +2.9904185e-04 </wgt>
<wgt id='morphing_basis_vector_2'> +1.8388803e-04 </wgt>
<wgt id='morphing_basis_vector_3'> +2.7778557e-04 </wgt>
<wgt id='morphing_basis_vector_4'> +1.6092549e-04 </wgt>
<wgt id='morphing_basis_vector_5'> +2.5407081e-04 </wgt>
</rwgt>
</event>
<event>
 4      1 +2.9741700e-06 8.36652200e+02 7.81860800e-03 8.85762200e-02
        2 -1    0    0  501    0 +0.0000000000e+00 +0.0000000000e+00 +8.4135949971e+02 8.4135949971e+02 0.0000000000e+00 0.0000e+00 1.0000e+00
       -2 -1    0    0    0  501 -0.0000000000e+00 -0.0000000000e+00 -2.0799283069e+02 2.0799283069e+02 0.0000000000e+00 0.0000e+00 -1.0000e+00
      -13  1    1    2    0    0 +1.5360584024e+02 -8.1693064632e+01 +7.9383119575e+02 8.1267242989e+02 0.0000000000e+00 0.0000e+00 1.0000e+00
       13  1    1    2    0    0 -1.5360584024e+02 +8.1693064632e+01 -1.6046452673e+02 2.3667990050e+02 0.0000000000e+00 0.0000e+00 -1.0000e+00
<mgrwt>
<rscale>  0 0.83665224E+03</rscale>
<asrwt>0</asrwt>
<pdfrwt beam="1">  1        2 0.12943992E+00 0.83665224E+03</pdfrwt>
<pdfrwt beam="2">  1       -2 0.31998897E-01 0.83665224E+03</pdfrwt>
<totfact> 0.34829572E+02</totfact>
</mgrwt>
<rwgt>
<wgt id='morphing_basis_vector_1'> +3.3252384e-04 </wgt>
<wgt id='morphing_basis_vector_2'> +4.1629463e-04 </wgt>
<wgt id='morphing_basis_vector_3'> +2.8232974e-04 </wgt>
<wgt id='morphing_basis_vector_4'> +1.0092838e-05 </wgt>
<wgt id='morphing_basis_vector_5'> +1.9293733e-04 </wgt>
</rwgt>
</event>
<event>
 4      1 +2.9741700e-06 7.72463400e+02 7.81860800e-03 8.93748100e-02
        2 -1    0    0  501    0 +0.0000000000e+00 +0.0000000000e+00 +2.1817100195e+03 2.1817100195e+03 0.0000000000e+00 0.0000e+00 -1.0000e+00
       -2 -1    0    0    0  501 -0.0000000000e+00 -0.0000000000e+00 -6.8375229313e+01 6.8375229313e+01 0.0000000000e+00 0.0000e+00 1.0000e+00
      -13  1    1    2    0    0 +1.4377380998e+02 +2.7283138156e+02 +3.7935751668e+02 4.8889671369e+02 0.0000000000e+00 0.0000e+00 1.0000e+00
       13  1    1    2    0    0 -1.4377380998e+02 -2.7283138156e+02 +1.7339772735e+03 1.7611885352e+03 0.0000000000e+00 0.0000e+00 -1.0000e+00
<mgrwt>
<rscale>  0 0.77246339E+03</rscale>
<asrwt>0</asrwt>
<pdfrwt beam="1">  1        2 0.33564764E+00 0.77246339E+03</pdfrwt>
<pdfrwt beam="2">  1       -2 0.10519268E-01 0.77246339E+03</pdfrwt>
<totfact> 0.37936990E+02</totfact>
</mgrwt>
<rwgt>
<wgt id='morphing_basis_vector_1'> +1.8498415e-04 </wgt>
<wgt id='morphing_basis_vector_2'> +1.1172195e-04 </wgt>
<wgt id='morphing_basis_vector_3'> +1.6387352e-04 </wgt>
<wgt id='morphing_basis_vector_4'> +8.7641677e-05 </wgt>
<wgt id='morphing_basis_vector_5'> +1.3785280e-04 </wgt>
</rwgt>
</event>
<event>
 4      1 +2.9741700e-06 8.08409600e+02 7.81860800e-03 8.89179100e-02
        2 -1    0    0  501    0 +0.0000000000e+00 +0.0000000000e+00 +3.5547059846e+02 3.5547059846e+02 0.0000000000e+00 0.0000e+00 1.0000e+00
       -2 -1    0    0    0  501 -0.0000000000e+00 -0.0000000000e+00 -4.5962039382e+02 4.5962039382e+02 0.0000000000e+00 0.0000e+00 -1.0000e+00
      -13  1    1    2    0    0 +1.6809382115e+02 +7.9162312531e+00 -4.2262193730e+02 4.5489284596e+02 0.0000000000e+00 0.0000e+00 -1.0000e+00
       13  1    1    2    0    0 -1.6809382115e+02 -7.9162312531e+00 +3.1847214193e+02 3.6019814632e+02 0.0000000000e+00 0.0000e+00 1.0000e+00
<mgrwt>
<rscale>  0 0.80840964E+03</rscale>
<asrwt>0</asrwt>
<pdfrwt beam="1">  1        2 0.54687784E-01 0.80840964E+03</pdfrwt>
<pdfrwt beam="2">  1       -2 0.70710830E-01 0.80840964E+03</pdfrwt>
<totfact> 0.20610671E+02</totfact>
</mgrwt>
<rwgt>
<wgt id='morphing_basis_vector_1'> +2.1673464e-04 </wgt>
<wgt id='morphing_basis_vector_2'> +1.3080114e-04 </wgt>
<wgt id='morphing_basis_vector_3'> +1.9541482e-04 </wgt>
<wgt id='morphing_basis_vector_4'> +1.0823616e-04 </wgt>
<wgt id='morphing_basis_vector_5'> +1.6980712e-04 </wgt>
</rwgt>
</event>
<event>
 4      1 +2.9741700e-06 7.82055500e+02 7.81860800e-03 8.92503500e-02
        2 -1    0    0  501    0 +0.0000000000e+00 +0.0000000000e+00 +6.5574790886e+02 6.5574790886e+02 0.0000000000e+00 0.0000e+00 1.0000e+00
       -2 -1    0    0    0  501 -0.0000000000e+00 -0.0000000000e+00 -2.3317300133e+02 2.3317300133e+02 0.0000000000e+00 0.0000e+00 -1.0000e+00
      -13  1    1    2    0    0 +2.5875759572e+02 -2.9243395634e+02 +1.8772852276e+02 4.3326101881e+02 0.0000000000e+00 0.0000e+00 -1.0000e+00
       13  1    1    2    0    0 -2.5875759572e+02 +2.9243395634e+02 +2.3484638478e+02 4.5565989138e+02 0.0000000000e+00 0.0000e+00 1.0000e+00
<mgrwt>
<rscale>  0 0.78205552E+03</rscale>
<asrwt>0</asrwt>
<pdfrwt beam="1">  1        2 0.10088429E+00 0.78205552E+03</pdfrwt>
<pdfrwt beam="2">  1       -2 0.35872770E-01 0.78205552E+03</pdfrwt>
<totfact> 0.38813604E+02</totfact>
</mgrwt>
<rwgt>
<wgt id='morphing_basis_vector_1'> +1.9831232e-04 </wgt>
<wgt id='morphing_basis_vector_2'> +1.3264317e-04 </wgt>
<wgt id='morphing_basis_vector_3'> +1.7480287e-04 </wgt>
<wgt id='morphing_basis_vector_4'> +8.6391029e-05 </wgt>
<wgt id='morphing_basis_vector_5'> +1.4565547e-04 </wgt>
</rwgt>
</event>
<event>
 4      1 +2.9741700e-06 7.84972500e+02 7.81860800e-03 8.92128700e-02
        2 -1    0    0  501    0 +0.0000000000e+00 +0.0000000000e+00 +3.6499291427e+02 3.6499291427e+02 0.0000000000e+00 0.0000e+00 -1.0000e+00
       -2 -1    0    0    0  501 -0.0000000000e+00 -0.0000000000e+00 -4.2205058568e+02 4.2205058568e+02 0.0000000000e+00 0.0000e+00 1.0000e+00
      -13  1    1    2    0    0 -3.9182123587e+02 -2.1175661501e+01 -1.9951517740e+01 3.9289992693e+02 0.0000000000e+00 0.0000e+00 1.0000e+00
       13  1    1    2    0    0 +3.9182123587e+02 +2.1175661501e+01 -3.7106153673e+01 3.9414357303e+02 0.0000000000e+00 0.0000e+00 -1.0000e+00
<mgrwt>
<rscale>  0 0.78497254E+03</rscale>
<asrwt>0</asrwt>
<pdfrwt beam="1">  1        2 0.56152756E-01 0.78497254E+03</pdfrwt>
<pdfrwt beam="2">  1       -2 0.64930859E-01 0.78497254E+03</pdfrwt>
<totfact> 0.23993116E+02</totfact>
</mgrwt>
<rwgt>
<wgt id='morphing_basis_vector_1'> +2.0270180e-04 </wgt>
<wgt id='morphing_basis_vector_2'> +1.3989868e-04 </wgt>
<wgt id='morphing_basis_vector_3'> +1.7838788e-04 </wgt>
<wgt id='morphing_basis_vector_4'> +8.5668125e-05 </wgt>
<wgt id='morphing_basis_vector_5'> +1.4807494e-04 </wgt>
</rwgt>
</event>
<event>
 4      1 +2.9741700e-06 8.11903200e+02 7.81860800e-03 8.88748500e-02
        2 -1    0    0  501    0 +0.0000000000e+00 +0.0000000000e+00 +4.7040974061e+02 4.7040974061e+02 0.0000000000e+00 0.0000e+00 -1.0000e+00
       -2 -1    0    0    0  501 -0.0000000000e+00 -0.0000000000e+00 -3.5032585736e+02 3.5032585736e+02 0.0000000000e+00 0.0000e+00 1.0000e+00
      -13  1    1    2    0    0 +2.1061232847e+02 -2.0289622651e+02 -2.2457428475e+02 3.6872488526e+02 0.0000000000e+00 0.0000e+00 1.0000e+00
       13  1    1    2    0    0 -2.1061232847e+02 +2.0289622651e+02 +3.4465816799e+02 4.5201071271e+02 0.0000000000e+00 0.0000e+00 -1.0000e+00
<mgrwt>
<rscale>  0 0.81190319E+03</rscale>
<asrwt>0</asrwt>
<pdfrwt beam="1">  1        2 0.72370730E-01 0.81190319E+03</pdfrwt>
<pdfrwt beam="2">  1       -2 0.53896286E-01 0.81190319E+03</pdfrwt>
<totfact> 0.26299807E+02</totfact>
</mgrwt>
<rwgt>
<wgt id='morphing_basis_vector_1'> +2.2034159e-04 </wgt>
<wgt id='morphing_basis_vector_2'> +1.3372467e-04 </wgt>
<wgt id='morphing_basis_vector_3'> +1.9889816e-04 </wgt>
<wgt id='morphing_basis_vector_4'> +1.1001629e-04 </wgt>
<wgt id='morphing_basis_vector_5'> +1.7315543e-04 </wgt>
</rwgt>
</event>
<event>
 4      1 +2.9741700e-06 8.46939900e+02 7.81860800e-03 8.84552800e-02
        2 -1    0    0  501    0 +0.0000000000e+00 +0.0000000000e+00 +7.7200110621e+02 7.7200110621e+02 0.0000000000e+00 0.0000e+00 -1.0000e+00
       -2 -1    0    0    0  501 -0.0000000000e+00 -0.0000000000e+00 -2.3228825813e+02 2.3228825813e+02 0.0000000000e+00 0.0000e+00 1.0000e+00
      -13  1    1    2    0    0 +2.4385928416e+01 -3.7415728729e+02 +5.0324379884e+02 6.2756885695e+02 0.0000000000e+00 0.0000e+00 1.0000e+00
       13  1    1    2    0    0 -2.4385928416e+01 +3.7415728729e+02 +3.6469049233e+01 3.7672050739e+02 0.0000000000e+00 0.0000e+00 -1.0000e+00
<mgrwt>
<rscale>  0 0.84693989E+03</rscale>
<asrwt>0</asrwt>
<pdfrwt beam="1">  1        2 0.11876940E+00 0.84693989E+03</pdfrwt>
<pdfrwt beam="2">  1       -2 0.35736655E-01 0.84693989E+03</pdfrwt>
<totfact> 0.31871513E+02</totfact>
</mgrwt>
<rwgt>
<wgt id='morphing_basis_vector_1'> +2.9751457e-04 </wgt>
<wgt id='morphing_basis_vector_2'> +2.8275913e-04 </wgt>
<wgt id='morphing_basis_vector_3'> +2.6323739e-04 </wgt>
<wgt id='morphing_basis_vector_4'> +7.7411553e-05 </wgt>
<wgt id='morphing_basis_vector_5'> +2.0692753e-04 </wgt>
</rwgt>
</event>
<event>
 4      1 +2.9741700e-06 7.97458000e+02 7.81860800e-03 8.90544000e-02
        2 -1    0    0  501    0 +0.0000000000e+00 +0.0000000000e+00 +1.8505542363e+03 1.8505542363e+03 0.0000000000e+00 0.0000e+00 -1.0000e+00
       -2 -1    0    0    0  501 -0.0000000000e+00 -0.0000000000e+00 -8.5912008960e+01 8.5912008960e+01 0.0000000000e+00 0.0000e+00 1.0000e+00
      -13  1    1    2    0    0 +1.4989859240e+02 +3.2429384989e+02 +4.5237685364e+02 5.7643812052e+02 0.0000000000e+00 0.0000e+00 1.0000e+00
       13  1    1    2    0    0 -1.4989859240e+02 -3.2429384989e+02 +1.3122653737e+03 1.3600281247e+03 0.0000000000e+00 0.0000e+00 -1.0000e+00
<mgrwt>
<rscale>  0 0.79745804E+03</rscale>
<asrwt>0</asrwt>
<pdfrwt beam="1">  1        2 0.28470062E+00 0.79745804E+03</pdfrwt>
<pdfrwt beam="2">  1       -2 0.13217234E-01 0.79745804E+03</pdfrwt>
<totfact> 0.40201801E+02</totfact>
</mgrwt>
<rwgt>
<wgt id='morphing_basis_vector_1'> +2.0765607e-04 </wgt>
<wgt id='morphing_basis_vector_2'> +1.2784299e-04 </wgt>
<wgt id='morphing_basis_vector_3'> +1.8595990e-04 </wgt>
<wgt id='morphing_basis_vector_4'> +1.0034608e-04 </wgt>
<wgt id='morphing_basis_vector_5'> +1.5950739e-04 </wgt>
</rwgt>
</event>
<event>
 4      1 +2.9741700e-06 8.31431400e+02 7.81860800e-03 8.86383000e-02
        2 -1    0    0  501    0 +0.0000000000e+00 +0.0000000000e+00 +5.6991461621e+02 5.6991461621e+02 0.0000000000e+00 0.0000e+00 -1.0000e+00
       -2 -1    0    0    0  501 -0.0000000000e+00 -0.0000000000e+00 -3.0323762904e+02 3.0323762904e+02 0.0000000000e+00 0.0000e+00 1.0000e+00
      -13  1    1    2    0    0 +2.8866035688e+01 +2.4646158207e+02 -2.1692903418e+02 3.2959788428e+02 0.0000000000e+00 0.0000e+00 1.0000e+00
       13  1    1    2    0    0 -2.8866035688e+01 -2.4646158207e+02 +4.8360602134e+02 5.4355436097e+02 0.0000000000e+00 0.0000e+00 -1.0000e+00
<mgrwt>
<rscale>  0 0.83143143E+03</rscale>
<asrwt>0</asrwt>
<pdfrwt beam="1">  1        2 0.87679172E-01 0.83143143E+03</pdfrwt>
<pdfrwt beam="2">  1       -2 0.46651943E-01 0.83143143E+03</pdfrwt>
<totfact> 0.27961336E+02</totfact>
</mgrwt>
<rwgt>
<wgt id='morphing_basis_vector_1'> +2.3962852e-04 </wgt>
<wgt id='morphing_basis_vector_2'> +1.4559127e-04 </wgt>
<wgt id='morphing_basis_vector_3'> +2.1816303e-04 </wgt>
<wgt id='morphing_basis_vector_4'> +1.2260959e-04 </wgt>
<wgt id='morphing_basis_vector_5'> +1.9285406e-04 </wgt>
</rwgt>
</event>
<event>
 4      1 +2.9741700e-06 8.11747400e+02 7.81860800e-03 8.88767700e-02
        2 -1    0    0  501    0 +0.0000000000e+00 +0.0000000000e+00 +8.8213744200e+02 8.8213744200e+02 0.0000000000e+00 0.0000e+00 1.0000e+00
       -2 -1    0    0    0  501 -0.0000000000e+00 -0.0000000000e+00 -1.8674353862e+02 1.8674353862e+02 0.0000000000e+00 0.0000e+00 -1.0000e+00
      -13  1    1    2    0    0 -3.3756927564e+02 -1.5213580624e+01 +6.4374671068e+02 7.2704490673e+02 0.0000000000e+00 0.0000e+00 1.0000e+00
       13  1    1    2    0    0 +3.3756927564e+02 +1.5213580624e+01 +5.1647192698e+01 3.4183607388e+02 0.0000000000e+00 0.0000e+00 -1.0000e+00
<mgrwt>
<rscale>  0 0.81174742E+03</rscale>
<asrwt>0</asrwt>
<pdfrwt beam="1">  1        2 0.13571345E+00 0.81174742E+03</pdfrwt>
<pdfrwt beam="2">  1       -2 0.28729776E-01 0.81174742E+03</pdfrwt>
<totfact> 0.39638101E+02</totfact>
</mgrwt>
<rwgt>
<wgt id='morphing_basis_vector_1'> +2.6521186e-04 </wgt>
<wgt id='morphing_basis_vector_2'> +2.7138821e-04 </wgt>
<wgt id='morphing_basis_vector_3'> +2.2673152e-04 </wgt>
<wgt id='morphing_basis_vector_4'> +5.2139855e-05 </wgt>
<wgt id='morphing_basis_vector_5'> +1.7045574e-04 </wgt>
</rwgt>
</event>
<event>
 4      1 +2.9741700e-06 8.55392300e+02 7.81860800e-03 8.83572700e-02
        2 -1    0    0  501    0 +0.0000000000e+00 +0.0000000000e+00 +1.1139071822e+02 1.1139071822e+02 0.0000000000e+00 0.0000e+00 1.0000e+00
       -2 -1    0    0    0  501 -0.0000000000e+00 -0.0000000000e+00 -1.6421834062e+03 1.6421834062e+03 0.0000000000e+00 0.0000e+00 -1.0000e+00
      -13  1    1    2    0    0 +9.3570597776e+01 -2.9790630630e+02 -1.3645517915e+03 1.3998232802e+03 0.0000000000e+00 0.0000e+00 -1.0000e+00
       13  1    1    2    0    0 -9.3570597776e+01 +2.9790630630e+02 -1.6624089642e+02 3.5375084416e+02 0.0000000000e+00 0.0000e+00 1.0000e+00
<mgrwt>
<rscale>  0 0.85539228E+03</rscale>
<asrwt>0</asrwt>
<pdfrwt beam="1">  1        2 0.17137036E-01 0.85539228E+03</pdfrwt>
<pdfrwt beam="2">  1       -2 0.25264356E+00 0.85539228E+03</pdfrwt>
<totfact> 0.21761163E+01</totfact>
</mgrwt>
<rwgt>
<wgt id='morphing_basis_vector_1'> +2.6555658e-04 </wgt>
<wgt id='morphing_basis_vector_2'> +1.6275573e-04 </wgt>
<wgt id='morphing_basis_vector_3'> +2.4403580e-04 </wgt>
<wgt id='morphing_basis_vector_4'> +1.3880153e-04 </wgt>
<wgt id='morphing_basis_vector_5'> +2.1914288e-04 </wgt>
</rwgt>
</event>
<event>
 4      1 +2.9741700e-06 7.88887000e+02 7.81860800e-03 8.91628600e-02
        2 -1    0    0  501    0 +0.0000000000e+00 +0.0000000000e+00 +5.2782931489e+02 5.2782931489e+02 0.0000000000e+00 0.0000e+00 -1.0000e+00
       -2 -1    0    0    0  501 -0.0000000000e+00 -0.0000000000e+00 -2.9476515657e+02 2.9476515657e+02 0.0000000000e+00 0.0000e+00 1.0000e+00
      -13  1    1    2    0    0 +8.1869478874e+01 -3.3067107080e+02 -9.0810153393e+01 3.5255134746e+02 0.0000000000e+00 0.0000e+00 1.0000e+00
       13  1    1    2    0    0 -8.1869478874e+01 +3.3067107080e+02 +3.2387431172e+02 4.7004312401e+02 0.0000000000e+00 0.0000e+00 -1.0000e+00
<mgrwt>
<rscale>  0 0.78888704E+03</rscale>
<asrwt>0</asrwt>
<pdfrwt beam="1">  1        2 0.81204510E-01 0.78888704E+03</pdfrwt>
<pdfrwt beam="2">  1       -2 0.45348486E-01 0.78888704E+03</pdfrwt>
<totfact> 0.32331948E+02</totfact>
</mgrwt>
<rwgt>
<wgt id='morphing_basis_vector_1'> +1.9957258e-04 </wgt>
<wgt id='morphing_basis_vector_2'> +1.2189255e-04 </wgt>
<wgt id='morphing_basis_vector_3'> +1.7809317e-04 </wgt>
<wgt id='morphing_basis_vector_4'> +9.5948381e-05 </wgt>
<wgt id='morphing_basis_vector_5'> +1.5183013e-04 </wgt>
</rwgt>
</event>
<event>
 4      1 +2.9741700e-06 7.72198000e+02 7.81860800e-03 8.93782800e-02
        2 -1    0    0  501    0 +0.0000000000e+00 +0.0000000000e+00 +1.7149169149e+02 1.7149169149e+02 0.0000000000e+00 0.0000e+00 1.0000e+00
       -2 -1    0    0    0  501 -0.0000000000e+00 -0.0000000000e+00 -8.6926922183e+02 8.6926922183e+02 0.0000000000e+00 0.0000e+00 -1.0000e+00
      -13  1    1    2    0    0 +1.3989809707e+02 +2.1938990230e+02 -7.3334940733e+02 7.7814186369e+02 0.0000000000e+00 0.0000e+00 -1.0000e+00
       13  1    1    2    0    0 -1.3989809707e+02 -2.1938990230e+02 +3.5571876990e+01 2.6261904962e+02 0.0000000000e+00 0.0000e+00 1.0000e+00
<mgrwt>
<rscale>  0 0.77219803E+03</rscale>
<asrwt>0</asrwt>
<pdfrwt beam="1">  1        2 0.26383337E-01 0.77219803E+03</pdfrwt>
<pdfrwt beam="2">  1       -2 0.13373373E+00 0.77219803E+03</pdfrwt>
<totfact> 0.10228283E+02</totfact>
</mgrwt>
<rwgt>
<wgt id='morphing_basis_vector_1'> +1.8448343e-04 </wgt>
<wgt id='morphing_basis_vector_2'> +1.1072848e-04 </wgt>
<wgt id='morphing_basis_vector_3'> +1.6350590e-04 </wgt>
<wgt id='morphing_basis_vector_4'> +8.7840895e-05 </wgt>
<wgt id='morphing_basis_vector_5'> +1.3764763e-04 </wgt>
</rwgt>
</event>
<event>
 4      1 +2.9741700e-06 7.69568800e+02 7.81860800e-03 8.94127500e-02
        2 -1    0    0  501    0 +0.0000000000e+00 +0.0000000000e+00 +5.4846488358e+02 5.4846488358e+02 0.0000000000e+00 0.0000e+00 -1.0000e+00
       -2 -1    0    0    0  501 -0.0000000000e+00 -0.0000000000e+00 -2.6995173512e+02 2.6995173512e+02 0.0000000000e+00 0.0000e+00 1.0000e+00
      -13  1    1    2    0    0 +1.3825827544e+02 -3.5888882567e+02 +1.5195193817e+02 4.1352863436e+02 0.0000000000e+00 0.0000e+00 1.0000e+00
       13  1    1    2    0    0 -1.3825827544e+02 +3.5888882567e+02 +1.2656121029e+02 4.0488798435e+02 0.0000000000e+00 0.0000e+00 -1.0000e+00
<mgrwt>
<rscale>  0 0.76956883E+03</rscale>
<asrwt>0</asrwt>
<pdfrwt beam="1">  1        2 0.84379213E-01 0.76956883E+03</pdfrwt>
<pdfrwt beam="2">  1       -2 0.41531036E-01 0.76956883E+03</pdfrwt>
<totfact> 0.36568246E+02</totfact>
</mgrwt>
<rwgt>
<wgt id='morphing_basis_vector_1'> +1.8926577e-04 </wgt>
<wgt id='morphing_basis_vector_2'> +1.3075156e-04 </wgt>
<wgt id='morphing_basis_vector_3'> +1.6503678e-04 </wgt>
<wgt id='morphing_basis_vector_4'> +7.8086805e-05 </wgt>
<wgt id='morphing_basis_vector_5'> +1.3517493e-04 </wgt>
</rwgt>
</event>
<event>
 4      1 +2.9741700e-06 7.83531000e+02 7.81860800e-03 8.92313700e-02
        2 -1    0    0  501    0 +0.0000000000e+00 +0.0000000000e+00 +1.5252397019e+03 1.5252397019e+03 0.0000000000e+00 0.0000e+00 -1.0000e+00
       -2 -1    0    0    0  501 -0.0000000000e+00 -0.0000000000e+00 -1.0062695009e+02 1.0062695009e+02 0.0000000000e+00 0.0000e+00 1.0000e+00
      -13  1    1    2    0    0 +3.3032360247e+02 +2.7147484641e+01 +2.7887624966e+02 4.3315428071e+02 0.0000000000e+00 0.0000e+00 1.0000e+00
       13  1    1    2    0    0 -3.3032360247e+02 -2.7147484641e+01 +1.1457365022e+03 1.1927123713e+03 0.0000000000e+00 0.0000e+00 -1.0000e+00
<mgrwt>
<rscale>  0 0.78353103E+03</rscale>
<asrwt>0</asrwt>
<pdfrwt beam="1">  1        2 0.23465224E+00 0.78353103E+03</pdfrwt>
<pdfrwt beam="2">  1       -2 0.15481070E-01 0.78353103E+03</pdfrwt>
<totfact> 0.47046319E+02</totfact>
</mgrwt>
<rwgt>
<wgt id='morphing_basis_vector_1'> +1.9471366e-04 </wgt>
<wgt id='morphing_basis_vector_2'> +1.1848336e-04 </wgt>
<wgt id='morphing_basis_vector_3'> +1.7335030e-04 </wgt>
<wgt id='morphing_basis_vector_4'> +9.3187893e-05 </wgt>
<wgt id='morphing_basis_vector_5'> +1.4716578e-04 </wgt>
</rwgt>
</event>
<event>
 4      1 +2.9741700e-06 8.01916700e+02 7.81860800e-03 8.89985600e-02
        2 -1    0    0  501    0 +0.0000000000e+00 +0.0000000000e+00 +8.8878891196e+02 8.8878891196e+02 0.0000000000e+00 0.0000e+00 1.0000e+00
       -2 -1    0    0    0  501 -0.0000000000e+00 -0.0000000000e+00 -1.8088387625e+02 1.8088387625e+02 0.0000000000e+00 0.0000e+00 -1.0000e+00
      -13  1    1    2    0    0 +6.4278727627e+00 +1.6010200290e+02 -1.3632177410e+02 2.1037489150e+02 0.0000000000e+00 0.0000e+00 -1.0000e+00
       13  1    1    2    0    0 -6.4278727627e+00 -1.6010200290e+02 +8.4422680981e+02 8.5929789671e+02 0.0000000000e+00 0.0000e+00 1.0000e+00
<mgrwt>
<rscale>  0 0.80191666E+03</rscale>
<asrwt>0</asrwt>
<pdfrwt beam="1">  1        2 0.13673675E+00 0.80191666E+03</pdfrwt>
<pdfrwt beam="2">  1       -2 0.27828289E-01 0.80191666E+03</pdfrwt>
<totfact> 0.41510687E+02</totfact>
</mgrwt>
<rwgt>
<wgt id='morphing_basis_vector_1'> +2.1061787e-04 </wgt>
<wgt id='morphing_basis_vector_2'> +1.2691036e-04 </wgt>
<wgt id='morphing_basis_vector_3'> +1.8935290e-04 </wgt>
<wgt id='morphing_basis_vector_4'> +1.0438845e-04 </wgt>
<wgt id='morphing_basis_vector_5'> +1.6368202e-04 </wgt>
</rwgt>
</event>
<event>
 4      1 +2.9741700e-06 8.14342300e+02 7.81860800e-03 8.88449200e-02
        2 -1    0    0  501    0 +0.0000000000e+00 +0.0000000000e+00 +1.8227457853e+03 1.8227457853e+03 0.0000000000e+00 0.0000e+00 1.0000e+00
       -2 -1    0    0    0  501 -0.0000000000e+00 -0.0000000000e+00 -9.0955274373e+01 9.0955274373e+01 0.0000000000e+00 0.0000e+00 -1.0000e+00
      -13  1    1    2    0    0 +3.8377432111e+02 -8.3805462787e+01 +6.1408074367e+02 7.2897273261e+02 0.0000000000e+00 0.0000e+00 -1.0000e+00
       13  1    1    2    0    0 -3.8377432111e+02 +8.3805462787e+01 +1.1177097673e+03 1.1847283271e+03 0.0000000000e+00 0.0000e+00 1.0000e+00
<mgrwt>
<rscale>  0 0.81434229E+03</rscale>
<asrwt>0</asrwt>
<pdfrwt beam="1">  1        2 0.28042240E+00 0.81434229E+03</pdfrwt>
<pdfrwt beam="2">  1       -2 0.13993121E-01 0.81434229E+03</pdfrwt>
<totfact> 0.37944320E+02</totfact>
</mgrwt>
<rwgt>
<wgt id='morphing_basis_vector_1'> +2.2526979e-04 </wgt>
<wgt id='morphing_basis_vector_2'> +1.4308151e-04 </wgt>
<wgt id='morphing_basis_vector_3'> +2.0285373e-04 </wgt>
<wgt id='morphing_basis_vector_4'> +1.0820162e-04 </wgt>
<wgt id='morphing_basis_vector_5'> +1.7538463e-04 </wgt>
</rwgt>
</event>
<event>
 4      1 +2.9741700e-06 7.54975600e+02 7.81860800e-03 8.96067500e-02
        2 -1    0    0  501    0 +0.0000000000e+00 +0.0000000000e+00 +2.7224310034e+03 2.7224310034e+03 0.0000000000e+00 0.0000e+00 1.0000e+00
       -2 -1    0    0    0  501 -0.0000000000e+00 -0.0000000000e+00 -5.2341837761e+01 5.2341837761e+01 0.0000000000e+00 0.0000e+00 -1.0000e+00
      -13  1    1    2    0    0 -2.9173659236e+01 -3.7635280367e+02 +1.3272422875e+03 1.3798784819e+03 0.0000000000e+00 0.0000e+00 -1.0000e+00
       13  1    1    2    0    0 +2.9173659236e+01 +3.7635280367e+02 +1.3428468782e+03 1.3948943592e+03 0.0000000000e+00 0.0000e+00 1.0000e+00
<mgrwt>
<rscale>  0 0.75497561E+03</rscale>
<asrwt>0</asrwt>
<pdfrwt beam="1">  1        2 0.41883543E+00 0.75497561E+03</pdfrwt>
<pdfrwt beam="2">  1       -2 0.80525926E-02 0.75497561E+03</pdfrwt>
<totfact> 0.27985514E+02</totfact>
</mgrwt>
<rwgt>
<wgt id='morphing_basis_vector_1'> +1.7615580e-04 </wgt>
<wgt id='morphing_basis_vector_2'> +1.1934547e-04 </wgt>
<wgt id='morphing_basis_vector_3'> +1.5257922e-04 </wgt>
<wgt id='morphing_basis_vector_4'> +7.2590664e-05 </wgt>
<wgt id='morphing_basis_vector_5'> +1.2376191e-04 </wgt>
</rwgt>
</event>
<event>
 4      1 +2.9741700e-06 8.75109600e+02 7.81860800e-03 8.81331800e-02
        2 -1    0    0  501    0 +0.0000000000e+00 +0.0000000000e+00 +5.7065861130e+02 5.7065861130e+02 0.0000000000e+00 0.0000e+00 -1.0000e+00
       -2 -1    0    0    0  501 -0.0000000000e+00 -0.0000000000e+00 -3.3549689729e+02 3.3549689729e+02 0.0000000000e+00 0.0000e+00 1.0000e+00
      -13  1    1    2    0    0 +1.2585927033e+02 +1.8589711935e+02 -2.7131733450e+02 3.5215251087e+02 0.0000000000e+00 0.0000e+00 1.0000e+00
       13  1    1    2    0    0 -1.2585927033e+02 -1.8589711935e+02 +5.0647904850e+02 5.5400299772e+02 0.0000000000e+00 0.0000e+00 -1.0000e+00
<mgrwt>
<rscale>  0 0.87510958E+03</rscale>
<asrwt>0</asrwt>
<pdfrwt beam="1">  1        2 0.87793632E-01 0.87510958E+03</pdfrwt>
<pdfrwt beam="2">  1       -2 0.51614907E-01 0.87510958E+03</pdfrwt>
<totfact> 0.22874715E+02</totfact>
</mgrwt>
<rwgt>
<wgt id='morphing_basis_vector_1'> +2.8794788e-04 </wgt>
<wgt id='morphing_basis_vector_2'> +1.7636912e-04 </wgt>
<wgt id='morphing_basis_vector_3'> +2.6663932e-04 </wgt>
<wgt id='morphing_basis_vector_4'> +1.5399132e-04 </wgt>
<wgt id='morphing_basis_vector_5'> +2.4267901e-04 </wgt>
</rwgt>
</event>
<event>
 4      1 +2.9741700e-06 7.77496400e+02 7.81860800e-03 8.93092700e-02
        2 -1    0    0  501    0 +0.0000000000e+00 +0.0000000000e+00 +2.4973508190e+02 2.4973508190e+02 0.0000000000e+00 0.0000e+00 -1.0000e+00
       -2 -1    0    0    0  501 -0.0000000000e+00 -0.0000000000e+00 -6.0514192514e+02 6.0514192514e+02 0.0000000000e+00 0.0000e+00 1.0000e+00
      -13  1    1    2    0    0 -1.9968856889e+02 -3.0867869663e+02 -3.1664055863e+02 4.8520027377e+02 0.0000000000e+00 0.0000e+00 1.0000e+00
       13  1    1    2    0    0 +1.9968856889e+02 +3.0867869663e+02 -3.8766284610e+01 3.6967673327e+02 0.0000000000e+00 0.0000e+00 -1.0000e+00
<mgrwt>
<rscale>  0 0.77749641E+03</rscale>
<asrwt>0</asrwt>
<pdfrwt beam="1">  1        2 0.38420782E-01 0.77749641E+03</pdfrwt>
<pdfrwt beam="2">  1       -2 0.93098756E-01 0.77749641E+03</pdfrwt>
<totfact> 0.16511074E+02</totfact>
</mgrwt>
<rwgt>
<wgt id='morphing_basis_vector_1'> +1.9065954e-04 </wgt>
<wgt id='morphing_basis_vector_2'> +1.1874372e-04 </wgt>
<wgt id='morphing_basis_vector_3'> +1.6884169e-04 </wgt>
<wgt id='morphing_basis_vector_4'> +8.8548832e-05 </wgt>
<wgt id='morphing_basis_vector_5'> +1.4197106e-04 </wgt>
</rwgt>
</event>
<event>
 4      1 +2.9741700e-06 7.58815800e+02 7.81860800e-03 8.95552500e-02
        2 -1    0    0  501    0 +0.0000000000e+00 +0.0000000000e+00 +2.5544121717e+03 2.5544121717e+03 0.0000000000e+00 0.0000e+00 -1.0000e+00
       -2 -1    0    0    0  501 -0.0000000000e+00 -0.0000000000e+00 -5.6353610287e+01 5.6353610287e+01 0.0000000000e+00 0.0000e+00 1.0000e+00
      -13  1    1    2    0    0 -1.9625135878e+02 -2.6288692185e+02 +5.9327421781e+02 6.7793689015e+02 0.0000000000e+00 0.0000e+00 1.0000e+00
       13  1    1    2    0    0 +1.9625135878e+02 +2.6288692185e+02 +1.9047843436e+03 1.9328288919e+03 0.0000000000e+00 0.0000e+00 -1.0000e+00
<mgrwt>
<rscale>  0 0.75881578E+03</rscale>
<asrwt>0</asrwt>
<pdfrwt beam="1">  1        2 0.39298640E+00 0.75881578E+03</pdfrwt>
<pdfrwt beam="2">  1       -2 0.86697882E-02 0.75881578E+03</pdfrwt>
<totfact> 0.31423514E+02</totfact>
</mgrwt>
<rwgt>
<wgt id='morphing_basis_vector_1'> +1.7409236e-04 </wgt>
<wgt id='morphing_basis_vector_2'> +1.0556416e-04 </wgt>
<wgt id='morphing_basis_vector_3'> +1.5304340e-04 </wgt>
<wgt id='morphing_basis_vector_4'> +8.0448409e-05 </wgt>
<wgt id='morphing_basis_vector_5'> +1.2693333e-04 </wgt>
</rwgt>
</event>
<event>
 4      1 +2.9741700e-06 7.55768200e+02 7.81860800e-03 8.95960900e-02
        2 -1    0    0  501    0 +0.0000000000e+00 +0.0000000000e+00 +5.4086140179e+02 5.4086140179e+02 0.0000000000e+00 0.0000e+00 -1.0000e+00
       -2 -1    0    0    0  501 -0.0000000000e+00 -0.0000000000e+00 -2.6401660949e+02 2.6401660949e+02 0.0000000000e+00 0.0000e+00 1.0000e+00
      -13  1    1    2    0    0 +3.2162622069e+02 +1.9829531850e+02 +1.4444064778e+02 4.0450903563e+02 0.0000000000e+00 0.0000e+00 1.0000e+00
       13  1    1    2    0    0 -3.2162622069e+02 -1.9829531850e+02 +1.3240414452e+02 4.0036897565e+02 0.0000000000e+00 0.0000e+00 -1.0000e+00
<mgrwt>
<rscale>  0 0.75576820E+03</rscale>
<asrwt>0</asrwt>
<pdfrwt beam="1">  1        2 0.83209446E-01 0.75576820E+03</pdfrwt>
<pdfrwt beam="2">  1       -2 0.40617940E-01 0.75576820E+03</pdfrwt>
<totfact> 0.38762371E+02</totfact>
</mgrwt>
<rwgt>
<wgt id='morphing_basis_vector_1'> +1.7725541e-04 </wgt>
<wgt id='morphing_basis_vector_2'> +1.2119369e-04 </wgt>
<wgt id='morphing_basis_vector_3'> +1.5343676e-04 </wgt>
<wgt id='morphing_basis_vector_4'> +7.2404663e-05 </wgt>
<wgt id='morphing_basis_vector_5'> +1.2434612e-04 </wgt>
</rwgt>
</event>
<event>
 4      1 +2.9741700e-06 7.51177400e+02 7.81860800e-03 8.96580000e-02
        2 -1    0    0  501    0 +0.0000000000e+00 +0.0000000000e+00 +2.2426449484e+03 2.2426449484e+03 0.0000000000e+00 0.0000e+00 -1.0000e+00
       -2 -1    0    0    0  501 -0.0000000000e+00 -0.0000000000e+00 -6.2902012551e+01 6.2902012551e+01 0.0000000000e+00 0.0000e+00 1.0000e+00
      -13  1    1    2    0    0 +1.4477080322e+02 +3.1791157954e+02 +6.6635443638e+02 7.5236599654e+02 0.0000000000e+00 0.0000e+00 1.0000e+00
       13  1    1    2    0    0 -1.4477080322e+02 -3.1791157954e+02 +1.5133884995e+03 1.5531809644e+03 0.0000000000e+00 0.0000e+00 -1.0000e+00
<mgrwt>
<rscale>  0 0.75117742E+03</rscale>
<asrwt>0</asrwt>
<pdfrwt beam="1">  1        2 0.34502224E+00 0.75117742E+03</pdfrwt>
<pdfrwt beam="2">  1       -2 0.96772344E-02 0.75117742E+03</pdfrwt>
<totfact> 0.40050716E+02</totfact>
</mgrwt>
<rwgt>
<wgt id='morphing_basis_vector_1'> +1.6869788e-04 </wgt>
<wgt id='morphing_basis_vector_2'> +1.0370331e-04 </wgt>
<wgt id='morphing_basis_vector_3'> +1.4744955e-04 </wgt>
<wgt id='morphing_basis_vector_4'> +7.6061528e-05 </wgt>
<wgt id='morphing_basis_vector_5'> +1.2108082e-04 </wgt>
</rwgt>
</event>
<event>
 4      1 +2.9741700e-06 8.73685300e+02 7.81860800e-03 8.81491600e-02
        2 -1    0    0  501    0 +0.0000000000e+00 +0.0000000000e+00 +1.5590697064e+03 1.5590697064e+03 0.0000000000e+00 0.0000e+00 -1.0000e+00
       -2 -1    0    0    0  501 -0.0000000000e+00 -0.0000000000e+00 -1.2240088276e+02 1.2240088276e+02 0.0000000000e+00 0.0000e+00 1.0000e+00
      -13  1    1    2    0    0 -3.9693575601e+02 +1.8191017651e+02 +6.9235613297e+02 8.1853913869e+02 0.0000000000e+00 0.0000e+00 1.0000e+00
       13  1    1    2    0    0 +3.9693575601e+02 -1.8191017651e+02 +7.4431269067e+02 8.6293145047e+02 0.0000000000e+00 0.0000e+00 -1.0000e+00
<mgrwt>
<rscale>  0 0.87368532E+03</rscale>
<asrwt>0</asrwt>
<pdfrwt beam="1">  1        2 0.23985686E+00 0.87368532E+03</pdfrwt>
<pdfrwt beam="2">  1       -2 0.18830906E-01 0.87368532E+03</pdfrwt>
<totfact> 0.32494142E+02</totfact>
</mgrwt>
<rwgt>
<wgt id='morphing_basis_vector_1'> +2.9525816e-04 </wgt>
<wgt id='morphing_basis_vector_2'> +2.0271698e-04 </wgt>
<wgt id='morphing_basis_vector_3'> +2.7159927e-04 </wgt>
<wgt id='morphing_basis_vector_4'> +1.4043186e-04 </wgt>
<wgt id='morphing_basis_vector_5'> +2.4029207e-04 </wgt>
</rwgt>
</event>
<event>
 4      1 +2.9741700e-06 7.98518500e+02 7.81860800e-03 8.90410800e-02
        2 -1    0    0  501    0 +0.0000000000e+00 +0.0000000000e+00 +2.0333721124e+03 2.0333721124e+03 0.0000000000e+00 0.0000e+00 1.0000e+00
       -2 -1    0    0    0  501 -0.0000000000e+00 -0.0000000000e+00 -7.8395865715e+01 7.8395865715e+01 0.0000000000e+00 0.0000e+00 -1.0000e+00
      -13  1    1    2    0    0 +1.9494128570e+02 +3.1907554338e+02 +1.3477015963e+03 1.3986103460e+03 0.0000000000e+00 0.0000e+00 -1.0000e+00
       13  1    1    2    0    0 -1.9494128570e+02 -3.1907554338e+02 +6.0727465040e+02 7.1315763214e+02 0.0000000000e+00 0.0000e+00 1.0000e+00
<mgrwt>
<rscale>  0 0.79851855E+03</rscale>
<asrwt>0</asrwt>
<pdfrwt beam="1">  1        2 0.31282644E+00 0.79851855E+03</pdfrwt>
<pdfrwt beam="2">  1       -2 0.12060904E-01 0.79851855E+03</pdfrwt>
<totfact> 0.36889230E+02</totfact>
</mgrwt>
<rwgt>
<wgt id='morphing_basis_vector_1'> +2.3135655e-04 </wgt>
<wgt id='morphing_basis_vector_2'> +1.9806029e-04 </wgt>
<wgt id='morphing_basis_vector_3'> +2.0041449e-04 </wgt>
<wgt id='morphing_basis_vector_4'> +7.2327768e-05 </wgt>
<wgt id='morphing_basis_vector_5'> +1.5926264e-04 </wgt>
</rwgt>
</event>
<event>
 4      1 +2.9741700e-06 8.11185300e+02 7.81860800e-03 8.88836800e-02
        2 -1    0    0  501    0 +0.0000000000e+00 +0.0000000000e+00 +3.3094639940e+02 3.3094639940e+02 0.0000000000e+00 0.0000e+00 1.0000e+00
       -2 -1    0    0    0  501 -0.0000000000e+00 -0.0000000000e+00 -4.9707562064e+02 4.9707562064e+02 0.0000000000e+00 0.0000e+00 -1.0000e+00
      -13  1    1    2    0    0 +2.6677451562e+02 +2.8113441303e+02 +3.9000817759e+01 3.8952055679e+02 0.0000000000e+00 0.0000e+00 1.0000e+00
       13  1    1    2    0    0 -2.6677451562e+02 -2.8113441303e+02 -2.0513003900e+02 4.3850146326e+02 0.0000000000e+00 0.0000e+00 -1.0000e+00
<mgrwt>
<rscale>  0 0.81118527E+03</rscale>
<asrwt>0</asrwt>
<pdfrwt beam="1">  1        2 0.50914831E-01 0.81118527E+03</pdfrwt>
<pdfrwt beam="2">  1       -2 0.76473172E-01 0.81118527E+03</pdfrwt>
<totfact> 0.18826144E+02</totfact>
</mgrwt>
<rwgt>
<wgt id='morphing_basis_vector_1'> +2.4056945e-04 </wgt>
<wgt id='morphing_basis_vector_2'> +1.9729788e-04 </wgt>
<wgt id='morphing_basis_vector_3'> +2.1118938e-04 </wgt>
<wgt id='morphing_basis_vector_4'> +8.2752092e-05 </wgt>
<wgt id='morphing_basis_vector_5'> +1.7127894e-04 </wgt>
</rwgt>
</event>
<event>
 4      1 +2.9741700e-06 8.00749000e+02 7.81860800e-03 8.90131400e-02
        2 -1    0    0  501    0 +0.0000000000e+00 +0.0000000000e+00 +1.4675350515e+03 1.4675350515e+03 0.0000000000e+00 0.0000e+00 1.0000e+00
       -2 -1    0    0    0  501 -0.0000000000e+00 -0.0000000000e+00 -1.0923060753e+02 1.0923060753e+02 0.0000000000e+00 0.0000e+00 -1.0000e+00
      -13  1    1    2    0    0 +3.9155167071e+00 +3.0158294502e+02 +1.6066501219e+02 3.4173213215e+02 0.0000000000e+00 0.0000e+00 -1.0000e+00
       13  1    1    2    0    0 -3.9155167071e+00 -3.0158294502e+02 +1.1976394317e+03 1.2350335268e+03 0.0000000000e+00 0.0000e+00 1.0000e+00
<mgrwt>
<rscale>  0 0.80074901E+03</rscale>
<asrwt>0</asrwt>
<pdfrwt beam="1">  1        2 0.22577461E+00 0.80074901E+03</pdfrwt>
<pdfrwt beam="2">  1       -2 0.16804710E-01 0.80074901E+03</pdfrwt>
<totfact> 0.44251311E+02</totfact>
</mgrwt>
<rwgt>
<wgt id='morphing_basis_vector_1'> +2.0986389e-04 </wgt>
<wgt id='morphing_basis_vector_2'> +1.2723554e-04 </wgt>
<wgt id='morphing_basis_vector_3'> +1.8847656e-04 </wgt>
<wgt id='morphing_basis_vector_4'> +1.0328824e-04 </wgt>
<wgt id='morphing_basis_vector_5'> +1.6257972e-04 </wgt>
</rwgt>
</event>
<event>
 4      1 +2.9741700e-06 7.80343000e+02 7.81860800e-03 8.92724300e-02
        2 -1    0    0  501    0 +0.0000000000e+00 +0.0000000000e+00 +7.8969292573e+02 7.8969292573e+02 0.0000000000e+00 0.0000e+00 1.0000e+00
       -2 -1    0    0    0  501 -0.0000000000e+00 -0.0000000000e+00 -1.9277595927e+02 1.9277595927e+02 0.0000000000e+00 0.0000e+00 -1.0000e+00
      -13  1    1    2    0    0 +5.6640642220e+01 +3.8453194549e+02 +3.4135459255e+02 5.1729675942e+02 0.0000000000e+00 0.0000e+00 -1.0000e+00
       13  1    1    2    0    0 -5.6640642220e+01 -3.8453194549e+02 +2.5556237392e+02 4.6517212558e+02 0.0000000000e+00 0.0000e+00 1.0000e+00
<mgrwt>
<rscale>  0 0.78034303E+03</rscale>
<asrwt>0</asrwt>
<pdfrwt beam="1">  1        2 0.12149122E+00 0.78034303E+03</pdfrwt>
<pdfrwt beam="2">  1       -2 0.29657840E-01 0.78034303E+03</pdfrwt>
<totfact> 0.43366056E+02</totfact>
</mgrwt>
<rwgt>
<wgt id='morphing_basis_vector_1'> +2.0041240e-04 </wgt>
<wgt id='morphing_basis_vector_2'> +1.4269367e-04 </wgt>
<wgt id='morphing_basis_vector_3'> +1.7530319e-04 </wgt>
<wgt id='morphing_basis_vector_4'> +8.1098482e-05 </wgt>
<wgt id='morphing_basis_vector_5'> +1.4401926e-04 </wgt>
</rwgt>
</event>
<event>
 4      1 +2.9741700e-06 8.75432900e+02 7.81860800e-03 8.81295600e-02
        2 -1    0    0  501    0 +0.0000000000e+00 +0.0000000000e+00 +9.1800264908e+01 9.1800264908e+01 0.0000000000e+00 0.0000e+00 1.0000e+00
       -2 -1    0    0    0  501 -0.0000000000e+00 -0.0000000000e+00 -2.0870929048e+03 2.0870929048e+03 0.0000000000e+00 0.0000e+00 -1.0000e+00
      -13  1    1    2    0    0 +4.2209180044e+02 +9.4050081601e+01 -1.1662478450e+03 1.2438412044e+03 0.0000000000e+00 0.0000e+00 -1.0000e+00
       13  1    1    2    0    0 -4.2209180044e+02 -9.4050081601e+01 -8.2904479491e+02 9.3505196530e+02 0.0000000000e+00 0.0000e+00 1.0000e+00
<mgrwt>
<rscale>  0 0.87543288E+03</rscale>
<asrwt>0</asrwt>
<pdfrwt beam="1">  1        2 0.14123117E-01 0.87543288E+03</pdfrwt>
<pdfrwt beam="2">  1       -2 0.32109124E+00 0.87543288E+03</pdfrwt>
<totfact> 0.95141864E+00</totfact>
</mgrwt>
<rwgt>
<wgt id='morphing_basis_vector_1'> +2.9399791e-04 </wgt>
<wgt id='morphing_basis_vector_2'> +1.9388518e-04 </wgt>
<wgt id='morphing_basis_vector_3'> +2.7123760e-04 </wgt>
<wgt id='morphing_basis_vector_4'> +1.4638577e-04 </wgt>
<wgt id='morphing_basis_vector_5'> +2.4268064e-04 </wgt>
</rwgt>
</event>
<event>
 4      1 +2.9741700e-06 7.71650700e+02 7.81860800e-03 8.93854500e-02
        2 -1    0    0  501    0 +0.0000000000e+00 +0.0000000000e+00 +6.2248309436e+02 6.2248309436e+02 0.0000000000e+00 0.0000e+00 -1.0000e+00
       -2 -1    0    0    0  501 -0.0000000000e+00 -0.0000000000e+00 -2.3914097620e+02 2.3914097620e+02 0.0000000000e+00 0.0000e+00 1.0000e+00
      -13  1    1    2    0    0 +3.3175254710e+02 +7.7133366382e+00 -2.8108794691e+01 3.3303055777e+02 0.0000000000e+00 0.0000e+00 1.0000e+00
       13  1    1    2    0    0 -3.3175254710e+02 -7.7133366382e+00 +4.1145091285e+02 5.2859351278e+02 0.0000000000e+00 0.0000e+00 -1.0000e+00
<mgrwt>
<rscale>  0 0.77165074E+03</rscale>
<asrwt>0</asrwt>
<pdfrwt beam="1">  1        2 0.95766630E-01 0.77165074E+03</pdfrwt>
<pdfrwt beam="2">  1       -2 0.36790919E-01 0.77165074E+03</pdfrwt>
<totfact> 0.39458252E+02</totfact>
</mgrwt>
<rwgt>
<wgt id='morphing_basis_vector_1'> +1.8460619e-04 </wgt>
<wgt id='morphing_basis_vector_2'> +1.1222254e-04 </wgt>
<wgt id='morphing_basis_vector_3'> +1.6336532e-04 </wgt>
<wgt id='morphing_basis_vector_4'> +8.6855840e-05 </wgt>
<wgt id='morphing_basis_vector_5'> +1.3717099e-04 </wgt>
</rwgt>
</event>
<event>
 4      1 +2.9741700e-06 8.20506000e+02 7.81860800e-03 8.87697900e-02
        2 -1    0    0  501    0 +0.0000000000e+00 +0.0000000000e+00 +3.9113458648e+03 3.9113458648e+03 0.0000000000e+00 0.0000e+00 -1.0000e+00
       -2 -1    0    0    0  501 -0.0000000000e+00 -0.0000000000e+00 -4.3030587132e+01 4.3030587132e+01 0.0000000000e+00 0.0000e+00 1.0000e+00
      -13  1    1    2    0    0 +3.4731721320e+02 -2.1603241900e+02 +1.7811258126e+03 1.8274869119e+03 0.0000000000e+00 0.0000e+00 1.0000e+00
       13  1    1    2    0    0 -3.4731721320e+02 +2.1603241900e+02 +2.0871894650e+03 2.1268895400e+03 0.0000000000e+00 0.0000e+00 -1.0000e+00
<mgrwt>
<rscale>  0 0.82050596E+03</rscale>
<asrwt>0</asrwt>
<pdfrwt beam="1">  1        2 0.60174524E+00 0.82050596E+03</pdfrwt>
<pdfrwt beam="2">  1       -2 0.66200934E-02 0.82050596E+03</pdfrwt>
<totfact> 0.56668495E+01</totfact>
</mgrwt>
<rwgt>
<wgt id='morphing_basis_vector_1'> +2.3453683e-04 </wgt>
<wgt id='morphing_basis_vector_2'> +1.5675924e-04 </wgt>
<wgt id='morphing_basis_vector_3'> +2.1096354e-04 </wgt>
<wgt id='morphing_basis_vector_4'> +1.0783755e-04 </wgt>
<wgt id='morphing_basis_vector_5'> +1.8130164e-04 </wgt>
</rwgt>
</event>
<event>
 4      1 +2.9741700e-06 7.68427100e+02 7.81860800e-03 8.94277600e-02
        2 -1    0    0  501    0 +0.0000000000e+00 +0.0000000000e+00 +1.1286011455e+03 1.1286011455e+03 0.0000000000e+00 0.0000e+00 -1.0000e+00
       -2 -1    0    0    0  501 -0.0000000000e+00 -0.0000000000e+00 -1.3079912909e+02 1.3079912909e+02 0.0000000000e+00 0.0000e+00 1.0000e+00
      -13  1    1    2    0    0 +4.0574164763e+01 -1.7214531344e+02 -6.0116266343e+01 1.8679999268e+02 0.0000000000e+00 0.0000e+00 1.0000e+00
       13  1    1    2    0    0 -4.0574164763e+01 +1.7214531344e+02 +1.0579182828e+03 1.0726002820e+03 0.0000000000e+00 0.0000e+00 -1.0000e+00
<mgrwt>
<rscale>  0 0.76842709E+03</rscale>
<asrwt>0</asrwt>
<pdfrwt beam="1">  1        2 0.17363094E+00 0.76842709E+03</pdfrwt>
<pdfrwt beam="2">  1       -2 0.20122944E-01 0.76842709E+03</pdfrwt>
<totfact> 0.51301448E+02</totfact>
</mgrwt>
<rwgt>
<wgt id='morphing_basis_vector_1'> +1.8120582e-04 </wgt>
<wgt id='morphing_basis_vector_2'> +1.0832904e-04 </wgt>
<wgt id='morphing_basis_vector_3'> +1.6034892e-04 </wgt>
<wgt id='morphing_basis_vector_4'> +8.6071110e-05 </wgt>
<wgt id='morphing_basis_vector_5'> +1.3457893e-04 </wgt>
</rwgt>
</event>
<event>
 4      1 +2.9741700e-06 7.97483300e+02 7.81860800e-03 8.90540900e-02
        2 -1    0    0  501    0 +0.0000000000e+00 +0.0000000000e+00 +1.0335151454e+03 1.0335151454e+03 0.0000000000e+00 0.0000e+00 1.0000e+00
       -2 -1    0    0    0  501 -0.0000000000e+00 -0.0000000000e+00 -1.5383895363e+02 1.5383895363e+02 0.0000000000e+00 0.0000e+00 -1.0000e+00
      -13  1    1    2    0    0 +2.6675291990e+02 +2.6720535148e+02 +2.4894189737e+02 4.5224759634e+02 0.0000000000e+00 0.0000e+00 -1.0000e+00
       13  1    1    2    0    0 -2.6675291990e+02 -2.6720535148e+02 +6.3073429437e+02 7.3510650265e+02 0.0000000000e+00 0.0000e+00 1.0000e+00
<mgrwt>
<rscale>  0 0.79748326E+03</rscale>
<asrwt>0</asrwt>
<pdfrwt beam="1">  1        2 0.15900233E+00 0.79748326E+03</pdfrwt>
<pdfrwt beam="2">  1       -2 0.23667532E-01 0.79748326E+03</pdfrwt>
<totfact> 0.44459721E+02</totfact>
</mgrwt>
<rwgt>
<wgt id='morphing_basis_vector_1'> +2.0856704e-04 </wgt>
<wgt id='morphing_basis_vector_2'> +1.3057689e-04 </wgt>
<wgt id='morphing_basis_vector_3'> +1.8650780e-04 </wgt>
<wgt id='morphing_basis_vector_4'> +9.9243845e-05 </wgt>
<wgt id='morphing_basis_vector_5'> +1.5948315e-04 </wgt>
</rwgt>
</event>
<event>
 4      1 +2.9741700e-06 8.63471900e+02 7.81860800e-03 8.82646800e-02
        2 -1    0    0  501    0 +0.0000000000e+00 +0.0000000000e+00 +1.6880177797e+03 1.6880177797e+03 0.0000000000e+00 0.0000e+00 1.0000e+00
       -2 -1    0    0    0  501 -0.0000000000e+00 -0.0000000000e+00 -1.1042295368e+02 1.1042295368e+02 0.0000000000e+00 0.0000e+00 -1.0000e+00
      -13  1    1    2    0    0 -2.5010961919e+02 -2.4943863320e+02 +2.7176957932e+02 4.4568279929e+02 0.0000000000e+00 0.0000e+00 -1.0000e+00
       13  1    1    2    0    0 +2.5010961919e+02 +2.4943863320e+02 +1.3058252467e+03 1.3527579341e+03 0.0000000000e+00 0.0000e+00 1.0000e+00
<mgrwt>
<rscale>  0 0.86347185E+03</rscale>
<asrwt>0</asrwt>
<pdfrwt beam="1">  1        2 0.25969502E+00 0.86347185E+03</pdfrwt>
<pdfrwt beam="2">  1       -2 0.16988148E-01 0.86347185E+03</pdfrwt>
<totfact> 0.32722346E+02</totfact>
</mgrwt>
<rwgt>
<wgt id='morphing_basis_vector_1'> +2.7509098e-04 </wgt>
<wgt id='morphing_basis_vector_2'> +1.6984611e-04 </wgt>
<wgt id='morphing_basis_vector_3'> +2.5349880e-04 </wgt>
<wgt id='morphing_basis_vector_4'> +1.4416126e-04 </wgt>
<wgt id='morphing_basis_vector_5'> +2.2854134e-04 </wgt>
</rwgt>
</event>
<event>
 4      1 +2.9741700e-06 7.61564700e+02 7.81860800e-03 8.95185800e-02
        2 -1    0    0  501    0 +0.0000000000e+00 +0.0000000000e+00 +1.3899901807e+03 1.3899901807e+03 0.0000000000e+00 0.0000e+00 -1.0000e+00
       -2 -1    0    0    0  501 -0.0000000000e+00 -0.0000000000e+00 -1.0431381902e+02 1.0431381902e+02 0.0000000000e+00 0.0000e+00 1.0000e+00
      -13  1    1    2    0    0 -3.1011659650e+02 -1.0159402830e+02 +2.5782890602e+02 4.1589589417e+02 0.0000000000e+00 0.0000e+00 1.0000e+00
       13  1    1    2    0    0 +3.1011659650e+02 +1.0159402830e+02 +1.0278474557e+03 1.0784081056e+03 0.0000000000e+00 0.0000e+00 -1.0000e+00
<mgrwt>
<rscale>  0 0.76156466E+03</rscale>
<asrwt>0</asrwt>
<pdfrwt beam="1">  1        2 0.21384463E+00 0.76156466E+03</pdfrwt>
<pdfrwt beam="2">  1       -2 0.16048281E-01 0.76156466E+03</pdfrwt>
<totfact> 0.52810250E+02</totfact>
</mgrwt>
<rwgt>
<wgt id='morphing_basis_vector_1'> +1.7626071e-04 </wgt>
<wgt id='morphing_basis_vector_2'> +1.0683201e-04 </wgt>
<wgt id='morphing_basis_vector_3'> +1.5518910e-04 </wgt>
<wgt id='morphing_basis_vector_4'> +8.1841539e-05 </wgt>
<wgt id='morphing_basis_vector_5'> +1.2908013e-04 </wgt>
</rwgt>
</event>
<event>
 4      1 +2.9741700e-06 7.82230400e+02 7.81860800e-03 8.92481000e-02
        2 -1    0    0  501    0 +0.0000000000e+00 +0.0000000000e+00 +4.1297391588e+02 4.1297391588e+02 0.0000000000e+00 0.0000e+00 -1.0000e+00
       -2 -1    0    0    0  501 -0.0000000000e+00 -0.0000000000e+00 -3.7041345585e+02 3.7041345585e+02 0.0000000000e+00 0.0000e+00 1.0000e+00
      -13  1    1    2    0    0 +2.4309804321e+02 +1.8462361194e+02 -2.2359842115e+02 3.7838973379e+02 0.0000000000e+00 0.0000e+00 1.0000e+00
       13  1    1    2    0    0 -2.4309804321e+02 -1.8462361194e+02 +2.6615888118e+02 4.0499763793e+02 0.0000000000e+00 0.0000e+00 -1.0000e+00
<mgrwt>
<rscale>  0 0.78223039E+03</rscale>
<asrwt>0</asrwt>
<pdfrwt beam="1">  1        2 0.63534449E-01 0.78223039E+03</pdfrwt>
<pdfrwt beam="2">  1       -2 0.56986685E-01 0.78223039E+03</pdfrwt>
<totfact> 0.27285039E+02</totfact>
</mgrwt>
<rwgt>
<wgt id='morphing_basis_vector_1'> +1.9328486e-04 </wgt>
<wgt id='morphing_basis_vector_2'> +1.1686035e-04 </wgt>
<wgt id='morphing_basis_vector_3'> +1.7206706e-04 </wgt>
<wgt id='morphing_basis_vector_4'> +9.2849342e-05 </wgt>
<wgt id='morphing_basis_vector_5'> +1.4606180e-04 </wgt>
</rwgt>
</event>
<event>
 4      1 +2.9741700e-06 8.07401200e+02 7.81860800e-03 8.89303800e-02
        2 -1    0    0  501    0 +0.0000000000e+00 +0.0000000000e+00 +8.7824336898e+02 8.7824336898e+02 0.0000000000e+00 0.0000e+00 1.0000e+00
       -2 -1    0    0    0  501 -0.0000000000e+00 -0.0000000000e+00 -1.8556837278e+02 1.8556837278e+02 0.0000000000e+00 0.0000e+00 -1.0000e+00
      -13  1    1    2    0    0 -1.6231595467e+02 -2.1752861484e+02 -4.7414743849e+01 2.7552372920e+02 0.0000000000e+00 0.0000e+00 -1.0000e+00
       13  1    1    2    0    0 +1.6231595467e+02 +2.1752861484e+02 +7.4008974005e+02 7.8828801256e+02 0.0000000000e+00 0.0000e+00 1.0000e+00
<mgrwt>
<rscale>  0 0.80740125E+03</rscale>
<asrwt>0</asrwt>
<pdfrwt beam="1">  1        2 0.13511436E+00 0.80740125E+03</pdfrwt>
<pdfrwt beam="2">  1       -2 0.28548981E-01 0.80740125E+03</pdfrwt>
<totfact> 0.40323564E+02</totfact>
</mgrwt>
<rwgt>
<wgt id='morphing_basis_vector_1'> +2.1594401e-04 </wgt>
<wgt id='morphing_basis_vector_2'> +1.3070610e-04 </wgt>
<wgt id='morphing_basis_vector_3'> +1.9456687e-04 </wgt>
<wgt id='morphing_basis_vector_4'> +1.0741718e-04 </wgt>
<wgt id='morphing_basis_vector_5'> +1.6883586e-04 </wgt>
</rwgt>
</event>
<event>
 4      1 +2.9741700e-06 7.99287900e+02 7.81860800e-03 8.90314400e-02
        2 -1    0    0  501    0 +0.0000000000e+00 +0.0000000000e+00 +1.0999920333e+03 1.0999920333e+03 0.0000000000e+00 0.0000e+00 1.0000e+00
       -2 -1    0    0    0  501 -0.0000000000e+00 -0.0000000000e+00 -1.4519677503e+02 1.4519677503e+02 0.0000000000e+00 0.0000e+00 -1.0000e+00
      -13  1    1    2    0    0 -1.5023864866e+02 +3.2237109626e+02 +1.9345200872e+02 4.0486844151e+02 0.0000000000e+00 0.0000e+00 -1.0000e+00
       13  1    1    2    0    0 +1.5023864866e+02 -3.2237109626e+02 +7.6134324950e+02 8.4032036678e+02 0.0000000000e+00 0.0000e+00 1.0000e+00
<mgrwt>
<rscale>  0 0.79928792E+03</rscale>
<asrwt>0</asrwt>
<pdfrwt beam="1">  1        2 0.16922954E+00 0.79928792E+03</pdfrwt>
<pdfrwt beam="2">  1       -2 0.22337966E-01 0.79928792E+03</pdfrwt>
<totfact> 0.44703883E+02</totfact>
</mgrwt>
<rwgt>
<wgt id='morphing_basis_vector_1'> +2.0928055e-04 </wgt>
<wgt id='morphing_basis_vector_2'> +1.2873068e-04 </wgt>
<wgt id='morphing_basis_vector_3'> +1.8759488e-04 </wgt>
<wgt id='morphing_basis_vector_4'> +1.0147175e-04 </wgt>
<wgt id='morphing_basis_vector_5'> +1.6118895e-04 </wgt>
</rwgt>
</event>
<event>
 4      1 +2.9741700e-06 7.65866000e+02 7.81860800e-03 8.94615400e-02
        2 -1    0    0  501    0 +0.0000000000e+00 +0.0000000000e+00 +5.0624936454e+02 5.0624936454e+02 0.0000000000e+00 0.0000e+00 -1.0000e+00
       -2 -1    0    0    0  501 -0.0000000000e+00 -0.0000000000e+00 -2.8965503974e+02 2.8965503974e+02 0.0000000000e+00 0.0000e+00 1.0000e+00
      -13  1    1    2    0    0 +5.6266637244e+01 +3.7760134712e+02 +7.7312185021e+01 3.8952007107e+02 0.0000000000e+00 0.0000e+00 1.0000e+00
       13  1    1    2    0    0 -5.6266637244e+01 -3.7760134712e+02 +1.3928213978e+02 4.0638433320e+02 0.0000000000e+00 0.0000e+00 -1.0000e+00
<mgrwt>
<rscale>  0 0.76586599E+03</rscale>
<asrwt>0</asrwt>
<pdfrwt beam="1">  1        2 0.77884518E-01 0.76586599E+03</pdfrwt>
<pdfrwt beam="2">  1       -2 0.44562314E-01 0.76586599E+03</pdfrwt>
<totfact> 0.35104821E+02</totfact>
</mgrwt>
<rwgt>
<wgt id='morphing_basis_vector_1'> +1.8378596e-04 </wgt>
<wgt id='morphing_basis_vector_2'> +1.2139167e-04 </wgt>
<wgt id='morphing_basis_vector_3'> +1.6071707e-04 </wgt>
<wgt id='morphing_basis_vector_4'> +7.9161889e-05 </wgt>
<wgt id='morphing_basis_vector_5'> +1.3230571e-04 </wgt>
</rwgt>
</event>
<event>
 4      1 +2.9741700e-06 7.96716600e+02 7.81860800e-03 8.90637300e-02
        2 -1    0    0  501    0 +0.0000000000e+00 +0.0000000000e+00 +1.2711350337e+03 1.2711350337e+03 0.0000000000e+00 0.0000e+00 1.0000e+00
       -2 -1    0    0    0  501 -0.0000000000e+00 -0.0000000000e+00 -1.2484066823e+02 1.2484066823e+02 0.0000000000e+00 0.0000e+00 -1.0000e+00
      -13  1    1    2    0    0 -2.8328200009e+02 -2.0280287467e+02 +2.3469587130e+02 4.2007124343e+02 0.0000000000e+00 0.0000e+00 -1.0000e+00
       13  1    1    2    0    0 +2.8328200009e+02 +2.0280287467e+02 +9.1159849413e+02 9.7590445847e+02 0.0000000000e+00 0.0000e+00 1.0000e+00
<mgrwt>
<rscale>  0 0.79671663E+03</rscale>
<asrwt>0</asrwt>
<pdfrwt beam="1">  1        2 0.19555923E+00 0.79671663E+03</pdfrwt>
<pdfrwt beam="2">  1       -2 0.19206258E-01 0.79671663E+03</pdfrwt>
<totfact> 0.45775962E+02</totfact>
</mgrwt>
<rwgt>
<wgt id='morphing_basis_vector_1'> +2.0675622e-04 </wgt>
<wgt id='morphing_basis_vector_2'> +1.2673589e-04 </wgt>
<wgt id='morphing_basis_vector_3'> +1.8515628e-04 </wgt>
<wgt id='morphing_basis_vector_4'> +1.0019978e-04 </wgt>
<wgt id='morphing_basis_vector_5'> +1.5884266e-04 </wgt>
</rwgt>
</event>
<event>
 4      1 +2.9741700e-06 8.24737900e+02 7.81860800e-03 8.87186000e-02
        2 -1    0    0  501    0 +0.0000000000e+00 +0.0000000000e+00 +2.2208243800e+03 2.2208243800e+03 0.0000000000e+00 0.0000e+00 -1.0000e+00
       -2 -1    0    0    0  501 -0.0000000000e+00 -0.0000000000e+00 -7.6569841747e+01 7.6569841747e+01 0.0000000000e+00 0.0000e+00 1.0000e+00
      -13  1    1    2    0    0 -2.7204317717e+02 +2.8930070223e+02 +7.6261426787e+02 8.5981562448e+02 0.0000000000e+00 0.0000e+00 1.0000e+00
       13  1    1    2    0    0 +2.7204317717e+02 -2.8930070223e+02 +1.3816402704e+03 1.4375785973e+03 0.0000000000e+00 0.0000e+00 -1.0000e+00
<mgrwt>
<rscale>  0 0.82473795E+03</rscale>
<asrwt>0</asrwt>
<pdfrwt beam="1">  1        2 0.34166524E+00 0.82473795E+03</pdfrwt>
<pdfrwt beam="2">  1       -2 0.11779977E-01 0.82473795E+03</pdfrwt>
<totfact> 0.30019790E+02</totfact>
</mgrwt>
<rwgt>
<wgt id='morphing_basis_vector_1'> +2.3560896e-04 </wgt>
<wgt id='morphing_basis_vector_2'> +1.4979359e-04 </wgt>
<wgt id='morphing_basis_vector_3'> +2.1317981e-04 </wgt>
<wgt id='morphing_basis_vector_4'> +1.1460969e-04 </wgt>
<wgt id='morphing_basis_vector_5'> +1.8576645e-04 </wgt>
</rwgt>
</event>
<event>
 4      1 +2.9741700e-06 8.50234500e+02 7.81860800e-03 8.84169400e-02
        2 -1    0    0  501    0 +0.0000000000e+00 +0.0000000000e+00 +1.0383027715e+03 1.0383027715e+03 0.0000000000e+00 0.0000e+00 1.0000e+00
       -2 -1    0    0    0  501 -0.0000000000e+00 -0.0000000000e+00 -1.7405780103e+02 1.7405780103e+02 0.0000000000e+00 0.0000e+00 -1.0000e+00
      -13  1    1    2    0    0 -1.3521674927e+02 +1.6459154315e+02 -9.2471602653e+01 2.3221744693e+02 0.0000000000e+00 0.0000e+00 -1.0000e+00
       13  1    1    2    0    0 +1.3521674927e+02 -1.6459154315e+02 +9.5671657314e+02 9.8014312561e+02 0.0000000000e+00 0.0000e+00 1.0000e+00
<mgrwt>
<rscale>  0 0.85023455E+03</rscale>
<asrwt>0</asrwt>
<pdfrwt beam="1">  1        2 0.15973888E+00 0.85023455E+03</pdfrwt>
<pdfrwt beam="2">  1       -2 0.26778124E-01 0.85023455E+03</pdfrwt>
<totfact> 0.35627033E+02</totfact>
</mgrwt>
<rwgt>
<wgt id='morphing_basis_vector_1'> +2.5954381e-04 </wgt>
<wgt id='morphing_basis_vector_2'> +1.5815627e-04 </wgt>
<wgt id='morphing_basis_vector_3'> +2.3809919e-04 </wgt>
<wgt id='morphing_basis_vector_4'> +1.3553697e-04 </wgt>
<wgt id='morphing_basis_vector_5'> +2.1329485e-04 </wgt>
</rwgt>
</event>
<event>
 4      1 +2.9741700e-06 8.03028600e+02 7.81860800e-03 8.89846900e-02
        2 -1    0    0  501    0 +0.0000000000e+00 +0.0000000000e+00 +1.1042819325e+03 1.1042819325e+03 0.0000000000e+00 0.0000e+00 -1.0000e+00
       -2 -1    0    0    0  501 -0.0000000000e+00 -0.0000000000e+00 -1.4598965422e+02 1.4598965422e+02 0.0000000000e+00 0.0000e+00 1.0000e+00
      -13  1    1    2    0    0 -2.0419135596e+02 -9.0086350175e+01 -4.0519360796e+01 2.2682918448e+02 0.0000000000e+00 0.0000e+00 1.0000e+00
       13  1    1    2    0    0 +2.0419135596e+02 +9.0086350175e+01 +9.9881163912e+02 1.0234424023e+03 0.0000000000e+00 0.0000e+00 -1.0000e+00
<mgrwt>
<rscale>  0 0.80302861E+03</rscale>
<asrwt>0</asrwt>
<pdfrwt beam="1">  1        2 0.16988952E+00 0.80302861E+03</pdfrwt>
<pdfrwt beam="2">  1       -2 0.22459948E-01 0.80302861E+03</pdfrwt>
<totfact> 0.44026500E+02</totfact>
</mgrwt>
<rwgt>
<wgt id='morphing_basis_vector_1'> +2.1170950e-04 </wgt>
<wgt id='morphing_basis_vector_2'> +1.2773494e-04 </wgt>
<wgt id='morphing_basis_vector_3'> +1.9041314e-04 </wgt>
<wgt id='morphing_basis_vector_4'> +1.0497199e-04 </wgt>
<wgt id='morphing_basis_vector_5'> +1.6471656e-04 </wgt>
</rwgt>
</event>
<event>
 4      1 +2.9741700e-06 7.97614200e+02 7.81860800e-03 8.90524400e-02
        2 -1    0    0  501    0 +0.0000000000e+00 +0.0000000000e+00 +1.4139192649e+03 1.4139192649e+03 0.0000000000e+00 0.0000e+00 -1.0000e+00
       -2 -1    0    0    0  501 -0.0000000000e+00 -0.0000000000e+00 -1.1248668411e+02 1.1248668411e+02 0.0000000000e+00 0.0000e+00 1.0000e+00
      -13  1    1    2    0    0 +2.4208779793e+02 -2.1735713306e+01 +4.5642959992e+01 2.4730997339e+02 0.0000000000e+00 0.0000e+00 1.0000e+00
       13  1    1    2    0    0 -2.4208779793e+02 +2.1735713306e+01 +1.2557896208e+03 1.2790959756e+03 0.0000000000e+00 0.0000e+00 -1.0000e+00
<mgrwt>
<rscale>  0 0.79761417E+03</rscale>
<asrwt>0</asrwt>
<pdfrwt beam="1">  1        2 0.21752603E+00 0.79761417E+03</pdfrwt>
<pdfrwt beam="2">  1       -2 0.17305645E-01 0.79761417E+03</pdfrwt>
<totfact> 0.45176219E+02</totfact>
</mgrwt>
<rwgt>
<wgt id='morphing_basis_vector_1'> +2.0673371e-04 </wgt>
<wgt id='morphing_basis_vector_2'> +1.2467034e-04 </wgt>
<wgt id='morphing_basis_vector_3'> +1.8547161e-04 </wgt>
<wgt id='morphing_basis_vector_4'> +1.0177593e-04 </wgt>
<wgt id='morphing_basis_vector_5'> +1.5970688e-04 </wgt>
</rwgt>
</event>
<event>
 4      1 +2.9741700e-06 8.74046100e+02 7.81860800e-03 8.81451100e-02
        2 -1    0    0  501    0 +0.0000000000e+00 +0.0000000000e+00 +2.1379094376e+02 2.1379094376e+02 0.0000000000e+00 0.0000e+00 1.0000e+00
       -2 -1    0    0    0  501 -0.0000000000e+00 -0.0000000000e+00 -8.9334530392e+02 8.9334530392e+02 0.0000000000e+00 0.0000e+00 -1.0000e+00
      -13  1    1    2    0    0 +1.6435845926e+02 -3.0812777102e+02 -6.9688396892e+00 3.4929212864e+02 0.0000000000e+00 0.0000e+00 1.0000e+00
       13  1    1    2    0    0 -1.6435845926e+02 +3.0812777102e+02 -6.7258552047e+02 7.5784411904e+02 0.0000000000e+00 0.0000e+00 -1.0000e+00
<mgrwt>
<rscale>  0 0.87404608E+03</rscale>
<asrwt>0</asrwt>
<pdfrwt beam="1">  1        2 0.32890915E-01 0.87404608E+03</pdfrwt>
<pdfrwt beam="2">  1       -2 0.13743774E+00 0.87404608E+03</pdfrwt>
<totfact> 0.73026324E+01</totfact>
</mgrwt>
<rwgt>
<wgt id='morphing_basis_vector_1'> +3.5302195e-04 </wgt>
<wgt id='morphing_basis_vector_2'> +3.7777103e-04 </wgt>
<wgt id='morphing_basis_vector_3'> +3.1451139e-04 </wgt>
<wgt id='morphing_basis_vector_4'> +6.1312115e-05 </wgt>
<wgt id='morphing_basis_vector_5'> +2.3671853e-04 </wgt>
</rwgt>
</event>
<event>
 4      1 +2.9741700e-06 8.17123000e+02 7.81860800e-03 8.88109400e-02
        2 -1    0    0  501    0 +0.0000000000e+00 +0.0000000000e+00 +3.5684060606e+02 3.5684060606e+02 0.0000000000e+00 0.0000e+00 1.0000e+00
       -2 -1    0    0    0  501 -0.0000000000e+00 -0.0000000000e+00 -4.6777886569e+02 4.6777886569e+02 0.0000000000e+00 0.0000e+00 -1.0000e+00
      -13  1    1    2    0    0 +1.2272872831e+02 -3.0617865616e+02 -2.9875084577e+02 4.4503907479e+02 0.0000000000e+00 0.0000e+00 -1.0000e+00
       13  1    1    2    0    0 -1.2272872831e+02 +3.0617865616e+02 +1.8781258615e+02 3.7958039696e+02 0.0000000000e+00 0.0000e+00 1.0000e+00
<mgrwt>
<rscale>  0 0.81712299E+03</rscale>
<asrwt>0</asrwt>
<pdfrwt beam="1">  1        2 0.54898555E-01 0.81712299E+03</pdfrwt>
<pdfrwt beam="2">  1       -2 0.71965979E-01 0.81712299E+03</pdfrwt>
<totfact> 0.19749787E+02</totfact>
</mgrwt>
<rwgt>
<wgt id='morphing_basis_vector_1'> +2.2571595e-04 </wgt>
<wgt id='morphing_basis_vector_2'> +1.3786694e-04 </wgt>
<wgt id='morphing_basis_vector_3'> +2.0413292e-04 </wgt>
<wgt id='morphing_basis_vector_4'> +1.1284223e-04 </wgt>
<wgt id='morphing_basis_vector_5'> +1.7825166e-04 </wgt>
</rwgt>
</event>
<event>
 4      1 +2.9741700e-06 7.50512200e+02 7.81860800e-03 8.96670100e-02
        2 -1    0    0  501    0 +0.0000000000e+00 +0.0000000000e+00 +4.7411537987e+02 4.7411537987e+02 0.0000000000e+00 0.0000e+00 -1.0000e+00
       -2 -1    0    0    0  501 -0.0000000000e+00 -0.0000000000e+00 -2.9701026766e+02 2.9701026766e+02 0.0000000000e+00 0.0000e+00 1.0000e+00
      -13  1    1    2    0    0 +7.7071687861e+01 +2.0672959078e+02 -2.2333024443e+02 3.1393242402e+02 0.0000000000e+00 0.0000e+00 1.0000e+00
       13  1    1    2    0    0 -7.7071687861e+01 -2.0672959078e+02 +4.0043535664e+02 4.5719322350e+02 0.0000000000e+00 0.0000e+00 -1.0000e+00
<mgrwt>
<rscale>  0 0.75051219E+03</rscale>
<asrwt>0</asrwt>
<pdfrwt beam="1">  1        2 0.72940828E-01 0.75051219E+03</pdfrwt>
<pdfrwt beam="2">  1       -2 0.45693887E-01 0.75051219E+03</pdfrwt>
<totfact> 0.36083708E+02</totfact>
</mgrwt>
<rwgt>
<wgt id='morphing_basis_vector_1'> +1.6689819e-04 </wgt>
<wgt id='morphing_basis_vector_2'> +9.9436752e-05 </wgt>
<wgt id='morphing_basis_vector_3'> +1.4632399e-04 </wgt>
<wgt id='morphing_basis_vector_4'> +7.7245242e-05 </wgt>
<wgt id='morphing_basis_vector_5'> +1.2063587e-04 </wgt>
</rwgt>
</event>
<event>
 4      1 +2.9741700e-06 7.63159600e+02 7.81860800e-03 8.94973800e-02
        2 -1    0    0  501    0 +0.0000000000e+00 +0.0000000000e+00 +1.1061506512e+03 1.1061506512e+03 0.0000000000e+00 0.0000e+00 1.0000e+00
       -2 -1    0    0    0  501 -0.0000000000e+00 -0.0000000000e+00 -1.3163047382e+02 1.3163047382e+02 0.0000000000e+00 0.0000e+00 -1.0000e+00
      -13  1    1    2    0    0 -1.8970914588e+02 -4.7496073751e+01 +1.0186888953e+03 1.0372909440e+03 0.0000000000e+00 0.0000e+00 1.0000e+00
       13  1    1    2    0    0 +1.8970914588e+02 +4.7496073751e+01 -4.4168717915e+01 2.0049018104e+02 0.0000000000e+00 0.0000e+00 -1.0000e+00
<mgrwt>
<rscale>  0 0.76315958E+03</rscale>
<asrwt>0</asrwt>
<pdfrwt beam="1">  1        2 0.17017702E+00 0.76315958E+03</pdfrwt>
<pdfrwt beam="2">  1       -2 0.20250843E-01 0.76315958E+03</pdfrwt>
<totfact> 0.52352090E+02</totfact>
</mgrwt>
<rwgt>
<wgt id='morphing_basis_vector_1'> +2.3794317e-04 </wgt>
<wgt id='morphing_basis_vector_2'> +2.9302045e-04 </wgt>
<wgt id='morphing_basis_vector_3'> +1.8745431e-04 </wgt>
<wgt id='morphing_basis_vector_4'> +1.0675910e-05 </wgt>
<wgt id='morphing_basis_vector_5'> +1.2763574e-04 </wgt>
</rwgt>
</event>
<event>
 4      1 +2.9741700e-06 8.44238200e+02 7.81860800e-03 8.84868700e-02
        2 -1    0    0  501    0 +0.0000000000e+00 +0.0000000000e+00 +2.6463844795e+03 2.6463844795e+03 0.0000000000e+00 0.0000e+00 -1.0000e+00
       -2 -1    0    0    0  501 -0.0000000000e+00 -0.0000000000e+00 -6.7331312205e+01 6.7331312205e+01 0.0000000000e+00 0.0000e+00 1.0000e+00
      -13  1    1    2    0    0 +3.7861474526e+02 +1.6175450496e+02 +1.5888435295e+03 1.6413218473e+03 0.0000000000e+00 0.0000e+00 1.0000e+00
       13  1    1    2    0    0 -3.7861474526e+02 -1.6175450496e+02 +9.9020963777e+02 1.0723939444e+03 0.0000000000e+00 0.0000e+00 -1.0000e+00
<mgrwt>
<rscale>  0 0.84423821E+03</rscale>
<asrwt>0</asrwt>
<pdfrwt beam="1">  1        2 0.40713599E+00 0.84423821E+03</pdfrwt>
<pdfrwt beam="2">  1       -2 0.10358665E-01 0.84423821E+03</pdfrwt>
<totfact> 0.20780417E+02</totfact>
</mgrwt>
<rwgt>
<wgt id='morphing_basis_vector_1'> +2.7221013e-04 </wgt>
<wgt id='morphing_basis_vector_2'> +2.1254745e-04 </wgt>
<wgt id='morphing_basis_vector_3'> +2.4474089e-04 </wgt>
<wgt id='morphing_basis_vector_4'> +1.0567802e-04 </wgt>
<wgt id='morphing_basis_vector_5'> +2.0539114e-04 </wgt>
</rwgt>
</event>
<event>
 4      1 +2.9741700e-06 7.56087700e+02 7.81860800e-03 8.95918000e-02
        2 -1    0    0  501    0 +0.0000000000e+00 +0.0000000000e+00 +2.5864880732e+02 2.5864880732e+02 0.0000000000e+00 0.0000e+00 -1.0000e+00
       -2 -1    0    0    0  501 -0.0000000000e+00 -0.0000000000e+00 -5.5255298048e+02 5.5255298048e+02 0.0000000000e+00 0.0000e+00 1.0000e+00
      -13  1    1    2    0    0 -1.0669637572e+02 +3.2853332454e+02 -3.1176933107e+02 4.6531535298e+02 0.0000000000e+00 0.0000e+00 1.0000e+00
       13  1    1    2    0    0 +1.0669637572e+02 -3.2853332454e+02 +1.7865157909e+01 3.4588643482e+02 0.0000000000e+00 0.0000e+00 -1.0000e+00
<mgrwt>
<rscale>  0 0.75608774E+03</rscale>
<asrwt>0</asrwt>
<pdfrwt beam="1">  1        2 0.39792124E-01 0.75608774E+03</pdfrwt>
<pdfrwt beam="2">  1       -2 0.85008150E-01 0.75608774E+03</pdfrwt>
<totfact> 0.19619760E+02</totfact>
</mgrwt>
<rwgt>
<wgt id='morphing_basis_vector_1'> +1.7235348e-04 </wgt>
<wgt id='morphing_basis_vector_2'> +1.0552224e-04 </wgt>
<wgt id='morphing_basis_vector_3'> +1.5113061e-04 </wgt>
<wgt id='morphing_basis_vector_4'> +7.8621571e-05 </wgt>
<wgt id='morphing_basis_vector_5'> +1.2481143e-04 </wgt>
</rwgt>
</event>
<event>
 4      1 +2.9741700e-06 8.21398800e+02 7.81860800e-03 8.87589600e-02
        2 -1    0    0  501    0 +0.0000000000e+00 +0.0000000000e+00 +4.6595840113e+02 4.6595840113e+02 0.0000000000e+00 0.0000e+00 1.0000e+00
       -2 -1    0    0    0  501 -0.0000000000e+00 -0.0000000000e+00 -3.6199366031e+02 3.6199366031e+02 0.0000000000e+00 0.0000e+00 -1.0000e+00
      -13  1    1    2    0    0 -1.9688679275e+02 -6.6538567051e+01 -3.0507844936e+02 3.6914042089e+02 0.0000000000e+00 0.0000e+00 -1.0000e+00
       13  1    1    2    0    0 +1.9688679275e+02 +6.6538567051e+01 +4.0904319019e+02 4.5881164055e+02 0.0000000000e+00 0.0000e+00 1.0000e+00
<mgrwt>
<rscale>  0 0.82139878E+03</rscale>
<asrwt>0</asrwt>
<pdfrwt beam="1">  1        2 0.71685908E-01 0.82139878E+03</pdfrwt>
<pdfrwt beam="2">  1       -2 0.55691332E-01 0.82139878E+03</pdfrwt>
<totfact> 0.24885517E+02</totfact>
</mgrwt>
<rwgt>
<wgt id='morphing_basis_vector_1'> +2.2940945e-04 </wgt>
<wgt id='morphing_basis_vector_2'> +1.3892978e-04 </wgt>
<wgt id='morphing_basis_vector_3'> +2.0799983e-04 </wgt>
<wgt id='morphing_basis_vector_4'> +1.1621330e-04 </wgt>
<wgt id='morphing_basis_vector_5'> +1.8255171e-04 </wgt>
</rwgt>
</event>
<event>
 4      1 +2.9741700e-06 7.66007900e+02 7.81860800e-03 8.94596600e-02
        2 -1    0    0  501    0 +0.0000000000e+00 +0.0000000000e+00 +2.9131302969e+03 2.9131302969e+03 0.0000000000e+00 0.0000e+00 1.0000e+00
       -2 -1    0    0    0  501 -0.0000000000e+00 -0.0000000000e+00 -5.0355460827e+01 5.0355460827e+01 0.0000000000e+00 0.0000e+00 -1.0000e+00
      -13  1    1    2    0    0 +3.6220992540e+02 +1.2422316225e+02 +1.4002940889e+03 1.4517062235e+03 0.0000000000e+00 0.0000e+00 -1.0000e+00
       13  1    1    2    0    0 -3.6220992540e+02 -1.2422316225e+02 +1.4624807472e+03 1.5117795342e+03 0.0000000000e+00 0.0000e+00 1.0000e+00
<mgrwt>
<rscale>  0 0.76600788E+03</rscale>
<asrwt>0</asrwt>
<pdfrwt beam="1">  1        2 0.44817376E+00 0.76600788E+03</pdfrwt>
<pdfrwt beam="2">  1       -2 0.77469962E-02 0.76600788E+03</pdfrwt>
<totfact> 0.22647117E+02</totfact>
</mgrwt>
<rwgt>
<wgt id='morphing_basis_vector_1'> +1.8500653e-04 </wgt>
<wgt id='morphing_basis_vector_2'> +1.2485369e-04 </wgt>
<wgt id='morphing_basis_vector_3'> +1.6140697e-04 </wgt>
<wgt id='morphing_basis_vector_4'> +7.7910013e-05 </wgt>
<wgt id='morphing_basis_vector_5'> +1.3236889e-04 </wgt>
</rwgt>
</event>
<event>
 4      1 +2.9741700e-06 7.53964900e+02 7.81860800e-03 8.96203600e-02
        2 -1    0    0  501    0 +0.0000000000e+00 +0.0000000000e+00 +5.2285148219e+02 5.2285148219e+02 0.0000000000e+00 0.0000e+00 1.0000e+00
       -2 -1    0    0    0  501 -0.0000000000e+00 -0.0000000000e+00 -2.7180903736e+02 2.7180903736e+02 0.0000000000e+00 0.0000e+00 -1.0000e+00
      -13  1    1    2    0    0 -2.8623770921e+02 -8.3918666078e+01 +3.6848804577e+02 4.7408628810e+02 0.0000000000e+00 0.0000e+00 1.0000e+00
       13  1    1    2    0    0 +2.8623770921e+02 +8.3918666078e+01 -1.1744560094e+02 3.2057423145e+02 0.0000000000e+00 0.0000e+00 -1.0000e+00
<mgrwt>
<rscale>  0 0.75396487E+03</rscale>
<asrwt>0</asrwt>
<pdfrwt beam="1">  1        2 0.80438689E-01 0.75396487E+03</pdfrwt>
<pdfrwt beam="2">  1       -2 0.41816775E-01 0.75396487E+03</pdfrwt>
<totfact> 0.38171917E+02</totfact>
</mgrwt>
<rwgt>
<wgt id='morphing_basis_vector_1'> +2.0941812e-04 </wgt>
<wgt id='morphing_basis_vector_2'> +2.2345215e-04 </wgt>
<wgt id='morphing_basis_vector_3'> +1.6851334e-04 </wgt>
<wgt id='morphing_basis_vector_4'> +3.2182993e-05 </wgt>
<wgt id='morphing_basis_vector_5'> +1.2155267e-04 </wgt>
</rwgt>
</event>
<event>
 4      1 +2.9741700e-06 8.27752800e+02 7.81860800e-03 8.86823300e-02
        2 -1    0    0  501    0 +0.0000000000e+00 +0.0000000000e+00 +1.9750577331e+03 1.9750577331e+03 0.0000000000e+00 0.0000e+00 -1.0000e+00
       -2 -1    0    0    0  501 -0.0000000000e+00 -0.0000000000e+00 -8.6728439739e+01 8.6728439739e+01 0.0000000000e+00 0.0000e+00 1.0000e+00
      -13  1    1    2    0    0 +3.1979151681e+02 +1.2307715622e+02 +3.6599800815e+02 5.0136727314e+02 0.0000000000e+00 0.0000e+00 1.0000e+00
       13  1    1    2    0    0 -3.1979151681e+02 -1.2307715622e+02 +1.5223312852e+03 1.5604188997e+03 0.0000000000e+00 0.0000e+00 -1.0000e+00
<mgrwt>
<rscale>  0 0.82775280E+03</rscale>
<asrwt>0</asrwt>
<pdfrwt beam="1">  1        2 0.30385500E+00 0.82775280E+03</pdfrwt>
<pdfrwt beam="2">  1       -2 0.13342838E-01 0.82775280E+03</pdfrwt>
<totfact> 0.33731357E+02</totfact>
</mgrwt>
<rwgt>
<wgt id='morphing_basis_vector_1'> +2.3647539e-04 </wgt>
<wgt id='morphing_basis_vector_2'> +1.4505949e-04 </wgt>
<wgt id='morphing_basis_vector_3'> +2.1480819e-04 </wgt>
<wgt id='morphing_basis_vector_4'> +1.1940383e-04 </wgt>
<wgt id='morphing_basis_vector_5'> +1.8899095e-04 </wgt>
</rwgt>
</event>
<event>
 4      1 +2.9741700e-06 8.92592900e+02 7.81860800e-03 8.79396200e-02
        2 -1    0    0  501    0 +0.0000000000e+00 +0.0000000000e+00 +3.9741915509e+02 3.9741915509e+02 0.0000000000e+00 0.0000e+00 -1.0000e+00
       -2 -1    0    0    0  501 -0.0000000000e+00 -0.0000000000e+00 -5.0118502708e+02 5.0118502708e+02 0.0000000000e+00 0.0000e+00 1.0000e+00
      -13  1    1    2    0    0 +2.1378801777e+02 +1.5104655346e+02 -4.1578672522e+02 4.9132370055e+02 0.0000000000e+00 0.0000e+00 1.0000e+00
       13  1    1    2    0    0 -2.1378801777e+02 -1.5104655346e+02 +3.1202085324e+02 4.0728048162e+02 0.0000000000e+00 0.0000e+00 -1.0000e+00
<mgrwt>
<rscale>  0 0.89259292E+03</rscale>
<asrwt>0</asrwt>
<pdfrwt beam="1">  1        2 0.61141409E-01 0.89259292E+03</pdfrwt>
<pdfrwt beam="2">  1       -2 0.77105388E-01 0.89259292E+03</pdfrwt>
<totfact> 0.14968567E+02</totfact>
</mgrwt>
<rwgt>
<wgt id='morphing_basis_vector_1'> +3.0937356e-04 </wgt>
<wgt id='morphing_basis_vector_2'> +1.9028642e-04 </wgt>
<wgt id='morphing_basis_vector_3'> +2.8824892e-04 </wgt>
<wgt id='morphing_basis_vector_4'> +1.6793270e-04 </wgt>
<wgt id='morphing_basis_vector_5'> +2.6500818e-04 </wgt>
</rwgt>
</event>
<event>
 4      1 +2.9741700e-06 7.78386500e+02 7.81860800e-03 8.92977300e-02
        2 -1    0    0  501    0 +0.0000000000e+00 +0.0000000000e+00 +3.5354412794e+02 3.5354412794e+02 0.0000000000e+00 0.0000e+00 -1.0000e+00
       -2 -1    0    0    0  501 -0.0000000000e+00 -0.0000000000e+00 -4.2843704937e+02 4.2843704937e+02 0.0000000000e+00 0.0000e+00 1.0000e+00
      -13  1    1    2    0    0 +2.2595433329e+02 +1.1422411088e+02 -3.3439377431e+02 4.1943021415e+02 0.0000000000e+00 0.0000e+00 1.0000e+00
       13  1    1    2    0    0 -2.2595433329e+02 -1.1422411088e+02 +2.5950085289e+02 3.6255096316e+02 0.0000000000e+00 0.0000e+00 -1.0000e+00
<mgrwt>
<rscale>  0 0.77838654E+03</rscale>
<asrwt>0</asrwt>
<pdfrwt beam="1">  1        2 0.54391404E-01 0.77838654E+03</pdfrwt>
<pdfrwt beam="2">  1       -2 0.65913392E-01 0.77838654E+03</pdfrwt>
<totfact> 0.24108338E+02</totfact>
</mgrwt>
<rwgt>
<wgt id='morphing_basis_vector_1'> +1.8970764e-04 </wgt>
<wgt id='morphing_basis_vector_2'> +1.1396916e-04 </wgt>
<wgt id='morphing_basis_vector_3'> +1.6865457e-04 </wgt>
<wgt id='morphing_basis_vector_4'> +9.1111133e-05 </wgt>
<wgt id='morphing_basis_vector_5'> +1.4280383e-04 </wgt>
</rwgt>
</event>
<event>
 4      1 +2.9741700e-06 7.85000000e+02 7.81860800e-03 8.92125200e-02
        2 -1    0    0  501    0 +0.0000000000e+00 +0.0000000000e+00 +1.8893953245e+02 1.8893953245e+02 0.0000000000e+00 0.0000e+00 1.0000e+00
       -2 -1    0    0    0  501 -0.0000000000e+00 -0.0000000000e+00 -8.1537333041e+02 8.1537333041e+02 0.0000000000e+00 0.0000e+00 -1.0000e+00
      -13  1    1    2    0    0 -7.6814740358e+01 +1.8422327571e+02 -7.4559705495e+02 7.7185081978e+02 0.0000000000e+00 0.0000e+00 -1.0000e+00
       13  1    1    2    0    0 +7.6814740358e+01 -1.8422327571e+02 +1.1916325699e+02 2.3246204307e+02 0.0000000000e+00 0.0000e+00 1.0000e+00
<mgrwt>
<rscale>  0 0.78500001E+03</rscale>
<asrwt>0</asrwt>
<pdfrwt beam="1">  1        2 0.29067620E-01 0.78500001E+03</pdfrwt>
<pdfrwt beam="2">  1       -2 0.12544205E+00 0.78500001E+03</pdfrwt>
<totfact> 0.10825498E+02</totfact>
</mgrwt>
<rwgt>
<wgt id='morphing_basis_vector_1'> +1.9534966e-04 </wgt>
<wgt id='morphing_basis_vector_2'> +1.1730429e-04 </wgt>
<wgt id='morphing_basis_vector_3'> +1.7425364e-04 </wgt>
<wgt id='morphing_basis_vector_4'> +9.4787743e-05 </wgt>
<wgt id='morphing_basis_vector_5'> +1.4846922e-04 </wgt>
</rwgt>
</event>
<event>
 4      1 +2.9741700e-06 7.60933900e+02 7.81860800e-03 8.95269800e-02
        2 -1    0    0  501    0 +0.0000000000e+00 +0.0000000000e+00 +4.6182547842e+02 4.6182547842e+02 0.0000000000e+00 0.0000e+00 -1.0000e+00
       -2 -1    0    0    0  501 -0.0000000000e+00 -0.0000000000e+00 -3.1344116452e+02 3.1344116452e+02 0.0000000000e+00 0.0000e+00 1.0000e+00
      -13  1    1    2    0    0 -3.2211832281e+02 -1.0667379201e+02 -1.0114115601e+02 3.5407491471e+02 0.0000000000e+00 0.0000e+00 1.0000e+00
       13  1    1    2    0    0 +3.2211832281e+02 +1.0667379201e+02 +2.4952546990e+02 4.2119172822e+02 0.0000000000e+00 0.0000e+00 -1.0000e+00
<mgrwt>
<rscale>  0 0.76093394E+03</rscale>
<asrwt>0</asrwt>
<pdfrwt beam="1">  1        2 0.71050074E-01 0.76093394E+03</pdfrwt>
<pdfrwt beam="2">  1       -2 0.48221718E-01 0.76093394E+03</pdfrwt>
<totfact> 0.33496259E+02</totfact>
</mgrwt>
<rwgt>
<wgt id='morphing_basis_vector_1'> +1.7601379e-04 </wgt>
<wgt id='morphing_basis_vector_2'> +1.0731513e-04 </wgt>
<wgt id='morphing_basis_vector_3'> +1.5482305e-04 </wgt>
<wgt id='morphing_basis_vector_4'> +8.1220665e-05 </wgt>
<wgt id='morphing_basis_vector_5'> +1.2857413e-04 </wgt>
</rwgt>
</event>
<event>
 4      1 +2.9741700e-06 8.46496700e+02 7.81860800e-03 8.84604600e-02
        2 -1    0    0  501    0 +0.0000000000e+00 +0.0000000000e+00 +9.5111880178e+02 9.5111880178e+02 0.0000000000e+00 0.0000e+00 1.0000e+00
       -2 -1    0    0    0  501 -0.0000000000e+00 -0.0000000000e+00 -1.8834574097e+02 1.8834574097e+02 0.0000000000e+00 0.0000e+00 -1.0000e+00
      -13  1    1    2    0    0 +2.8105914208e+01 +4.1051907923e+02 +2.4797153356e+02 4.8042245814e+02 0.0000000000e+00 0.0000e+00 1.0000e+00
       13  1    1    2    0    0 -2.8105914208e+01 -4.1051907923e+02 +5.1480152725e+02 6.5904208461e+02 0.0000000000e+00 0.0000e+00 -1.0000e+00
<mgrwt>
<rscale>  0 0.84649672E+03</rscale>
<asrwt>0</asrwt>
<pdfrwt beam="1">  1        2 0.14632597E+00 0.84649672E+03</pdfrwt>
<pdfrwt beam="2">  1       -2 0.28976268E-01 0.84649672E+03</pdfrwt>
<totfact> 0.35179701E+02</totfact>
</mgrwt>
<rwgt>
<wgt id='morphing_basis_vector_1'> +2.5911691e-04 </wgt>
<wgt id='morphing_basis_vector_2'> +1.6668088e-04 </wgt>
<wgt id='morphing_basis_vector_3'> +2.3653773e-04 </wgt>
<wgt id='morphing_basis_vector_4'> +1.2801834e-04 </wgt>
<wgt id='morphing_basis_vector_5'> +2.0887884e-04 </wgt>
</rwgt>
</event>
<event>
 4      1 +2.9741700e-06 8.77299500e+02 7.81860800e-03 8.81086800e-02
        2 -1    0    0  501    0 +0.0000000000e+00 +0.0000000000e+00 +4.3887190261e+02 4.3887190261e+02 0.0000000000e+00 0.0000e+00 1.0000e+00
       -2 -1    0    0    0  501 -0.0000000000e+00 -0.0000000000e+00 -4.3842766870e+02 4.3842766870e+02 0.0000000000e+00 0.0000e+00 -1.0000e+00
      -13  1    1    2    0    0 +1.2377895598e+02 +3.5320921957e+02 -2.2854767085e+02 4.3853394461e+02 0.0000000000e+00 0.0000e+00 -1.0000e+00
       13  1    1    2    0    0 -1.2377895598e+02 -3.5320921957e+02 +2.2899190475e+02 4.3876562670e+02 0.0000000000e+00 0.0000e+00 1.0000e+00
<mgrwt>
<rscale>  0 0.87729946E+03</rscale>
<asrwt>0</asrwt>
<pdfrwt beam="1">  1        2 0.67518754E-01 0.87729946E+03</pdfrwt>
<pdfrwt beam="2">  1       -2 0.67450410E-01 0.87729946E+03</pdfrwt>
<totfact> 0.17896795E+02</totfact>
</mgrwt>
<rwgt>
<wgt id='morphing_basis_vector_1'> +2.9160839e-04 </wgt>
<wgt id='morphing_basis_vector_2'> +1.8124348e-04 </wgt>
<wgt id='morphing_basis_vector_3'> +2.7005393e-04 </wgt>
<wgt id='morphing_basis_vector_4'> +1.5424177e-04 </wgt>
<wgt id='morphing_basis_vector_5'> +2.4532458e-04 </wgt>
</rwgt>
</event>
<event>
 4      1 +2.9741700e-06 7.63142700e+02 7.81860800e-03 8.94976100e-02
        2 -1    0    0  501    0 +0.0000000000e+00 +0.0000000000e+00 +7.3049435539e+02 7.3049435539e+02 0.0000000000e+00 0.0000e+00 1.0000e+00
       -2 -1    0    0    0  501 -0.0000000000e+00 -0.0000000000e+00 -1.9931253551e+02 1.9931253551e+02 0.0000000000e+00 0.0000e+00 -1.0000e+00
      -13  1    1    2    0    0 -3.5574089079e+02 +2.4922315420e+01 +4.3096929251e+02 5.5938111719e+02 0.0000000000e+00 0.0000e+00 -1.0000e+00
       13  1    1    2    0    0 +3.5574089079e+02 -2.4922315420e+01 +1.0021252737e+02 3.7042577371e+02 0.0000000000e+00 0.0000e+00 1.0000e+00
<mgrwt>
<rscale>  0 0.76314267E+03</rscale>
<asrwt>0</asrwt>
<pdfrwt beam="1">  1        2 0.11238375E+00 0.76314267E+03</pdfrwt>
<pdfrwt beam="2">  1       -2 0.30663467E-01 0.76314267E+03</pdfrwt>
<totfact> 0.45121416E+02</totfact>
</mgrwt>
<rwgt>
<wgt id='morphing_basis_vector_1'> +1.9747783e-04 </wgt>
<wgt id='morphing_basis_vector_2'> +1.6884268e-04 </wgt>
<wgt id='morphing_basis_vector_3'> +1.6667678e-04 </wgt>
<wgt id='morphing_basis_vector_4'> +5.8864924e-05 </wgt>
<wgt id='morphing_basis_vector_5'> +1.2943153e-04 </wgt>
</rwgt>
</event>
<event>
 4      1 +2.9741700e-06 7.50886700e+02 7.81860800e-03 8.96619400e-02
        2 -1    0    0  501    0 +0.0000000000e+00 +0.0000000000e+00 +3.5726150225e+02 3.5726150225e+02 0.0000000000e+00 0.0000e+00 -1.0000e+00
       -2 -1    0    0    0  501 -0.0000000000e+00 -0.0000000000e+00 -3.9455054139e+02 3.9455054139e+02 0.0000000000e+00 0.0000e+00 1.0000e+00
      -13  1    1    2    0    0 -1.9478975461e+02 -2.6363201416e+02 -2.0193521293e+02 3.8499703585e+02 0.0000000000e+00 0.0000e+00 1.0000e+00
       13  1    1    2    0    0 +1.9478975461e+02 +2.6363201416e+02 +1.6464617379e+02 3.6681500778e+02 0.0000000000e+00 0.0000e+00 -1.0000e+00
<mgrwt>
<rscale>  0 0.75088673E+03</rscale>
<asrwt>0</asrwt>
<pdfrwt beam="1">  1        2 0.54963308E-01 0.75088673E+03</pdfrwt>
<pdfrwt beam="2">  1       -2 0.60700084E-01 0.75088673E+03</pdfrwt>
<totfact> 0.28299197E+02</totfact>
</mgrwt>
<rwgt>
<wgt id='morphing_basis_vector_1'> +1.6787454e-04 </wgt>
<wgt id='morphing_basis_vector_2'> +1.0172593e-04 </wgt>
<wgt id='morphing_basis_vector_3'> +1.4693924e-04 </wgt>
<wgt id='morphing_basis_vector_4'> +7.6621976e-05 </wgt>
<wgt id='morphing_basis_vector_5'> +1.2088778e-04 </wgt>
</rwgt>
</event>
<event>
 4      1 +2.9741700e-06 7.54351000e+02 7.81860800e-03 8.96151500e-02
        2 -1    0    0  501    0 +0.0000000000e+00 +0.0000000000e+00 +1.4620551696e+02 1.4620551696e+02 0.0000000000e+00 0.0000e+00 -1.0000e+00
       -2 -1    0    0    0  501 -0.0000000000e+00 -0.0000000000e+00 -9.7302306333e+02 9.7302306333e+02 0.0000000000e+00 0.0000e+00 1.0000e+00
      -13  1    1    2    0    0 -2.1881320311e+02 -4.2080855986e+01 -8.6492919130e+02 8.9316992910e+02 0.0000000000e+00 0.0000e+00 1.0000e+00
       13  1    1    2    0    0 +2.1881320311e+02 +4.2080855986e+01 +3.8111644931e+01 2.2605865119e+02 0.0000000000e+00 0.0000e+00 -1.0000e+00
<mgrwt>
<rscale>  0 0.75435095E+03</rscale>
<asrwt>0</asrwt>
<pdfrwt beam="1">  1        2 0.22493157E-01 0.75435095E+03</pdfrwt>
<pdfrwt beam="2">  1       -2 0.14969585E+00 0.75435095E+03</pdfrwt>
<totfact> 0.90353266E+01</totfact>
</mgrwt>
<rwgt>
<wgt id='morphing_basis_vector_1'> +1.6989914e-04 </wgt>
<wgt id='morphing_basis_vector_2'> +1.0133092e-04 </wgt>
<wgt id='morphing_basis_vector_3'> +1.4925327e-04 </wgt>
<wgt id='morphing_basis_vector_4'> +7.9063280e-05 </wgt>
<wgt id='morphing_basis_vector_5'> +1.2353156e-04 </wgt>
</rwgt>
</event>
<event>
 4      1 +2.9741700e-06 8.78116300e+02 7.81860800e-03 8.80995600e-02
        2 -1    0    0  501    0 +0.0000000000e+00 +0.0000000000e+00 +4.2563336774e+02 4.2563336774e+02 0.0000000000e+00 0.0000e+00 -1.0000e+00
       -2 -1    0    0    0  501 -0.0000000000e+00 -0.0000000000e+00 -4.5290635091e+02 4.5290635091e+02 0.0000000000e+00 0.0000e+00 1.0000e+00
      -13  1    1    2    0    0 -4.0921637585e+02 +1.4998762452e+02 -6.6744341259e+01 4.4091851500e+02 0.0000000000e+00 0.0000e+00 1.0000e+00
       13  1    1    2    0    0 +4.0921637585e+02 -1.4998762452e+02 +3.9471358093e+01 4.3762120365e+02 0.0000000000e+00 0.0000e+00 -1.0000e+00
<mgrwt>
<rscale>  0 0.87811629E+03</rscale>
<asrwt>0</asrwt>
<pdfrwt beam="1">  1        2 0.65482057E-01 0.87811629E+03</pdfrwt>
<pdfrwt beam="2">  1       -2 0.69677900E-01 0.87811629E+03</pdfrwt>
<totfact> 0.17289540E+02</totfact>
</mgrwt>
<rwgt>
<wgt id='morphing_basis_vector_1'> +2.9807261e-04 </wgt>
<wgt id='morphing_basis_vector_2'> +1.9858938e-04 </wgt>
<wgt id='morphing_basis_vector_3'> +2.7514477e-04 </wgt>
<wgt id='morphing_basis_vector_4'> +1.4725241e-04 </wgt>
<wgt id='morphing_basis_vector_5'> +2.4595574e-04 </wgt>
</rwgt>
</event>
<event>
 4      1 +2.9741700e-06 8.24517200e+02 7.81860800e-03 8.87212600e-02
        2 -1    0    0  501    0 +0.0000000000e+00 +0.0000000000e+00 +9.5838403887e+02 9.5838403887e+02 0.0000000000e+00 0.0000e+00 1.0000e+00
       -2 -1    0    0    0  501 -0.0000000000e+00 -0.0000000000e+00 -1.7733719364e+02 1.7733719364e+02 0.0000000000e+00 0.0000e+00 -1.0000e+00
      -13  1    1    2    0    0 -3.3433818768e+02 -5.0655609917e+01 +6.5701700903e+01 3.4447747104e+02 0.0000000000e+00 0.0000e+00 -1.0000e+00
       13  1    1    2    0    0 +3.3433818768e+02 +5.0655609917e+01 +7.1534514433e+02 7.9124376147e+02 0.0000000000e+00 0.0000e+00 1.0000e+00
<mgrwt>
<rscale>  0 0.82451716E+03</rscale>
<asrwt>0</asrwt>
<pdfrwt beam="1">  1        2 0.14744370E+00 0.82451716E+03</pdfrwt>
<pdfrwt beam="2">  1       -2 0.27282646E-01 0.82451716E+03</pdfrwt>
<totfact> 0.38714870E+02</totfact>
</mgrwt>
<rwgt>
<wgt id='morphing_basis_vector_1'> +2.3314807e-04 </wgt>
<wgt id='morphing_basis_vector_2'> +1.4280737e-04 </wgt>
<wgt id='morphing_basis_vector_3'> +2.1150727e-04 </wgt>
<wgt id='morphing_basis_vector_4'> +1.1739216e-04 </wgt>
<wgt id='morphing_basis_vector_5'> +1.8567465e-04 </wgt>
</rwgt>
</event>
<event>
 4      1 +2.9741700e-06 7.99563400e+02 7.81860800e-03 8.90279800e-02
        2 -1    0    0  501    0 +0.0000000000e+00 +0.0000000000e+00 +5.4270750791e+02 5.4270750791e+02 0.0000000000e+00 0.0000e+00 1.0000e+00
       -2 -1    0    0    0  501 -0.0000000000e+00 -0.0000000000e+00 -2.9449638394e+02 2.9449638394e+02 0.0000000000e+00 0.0000e+00 -1.0000e+00
      -13  1    1    2    0    0 -1.0650070508e+02 +3.8532636100e+02 +1.2679431632e+02 4.1939909790e+02 0.0000000000e+00 0.0000e+00 -1.0000e+00
       13  1    1    2    0    0 +1.0650070508e+02 -3.8532636100e+02 +1.2141680765e+02 4.1780479395e+02 0.0000000000e+00 0.0000e+00 1.0000e+00
<mgrwt>
<rscale>  0 0.79956338E+03</rscale>
<asrwt>0</asrwt>
<pdfrwt beam="1">  1        2 0.83493463E-01 0.79956338E+03</pdfrwt>
<pdfrwt beam="2">  1       -2 0.45307136E-01 0.79956338E+03</pdfrwt>
<totfact> 0.31351123E+02</totfact>
</mgrwt>
<rwgt>
<wgt id='morphing_basis_vector_1'> +2.1592456e-04 </wgt>
<wgt id='morphing_basis_vector_2'> +1.4845925e-04 </wgt>
<wgt id='morphing_basis_vector_3'> +1.9165393e-04 </wgt>
<wgt id='morphing_basis_vector_4'> +9.3569848e-05 </wgt>
<wgt id='morphing_basis_vector_5'> +1.6109924e-04 </wgt>
</rwgt>
</event>
<event>
 4      1 +2.9741700e-06 7.95859800e+02 7.81860800e-03 8.90745200e-02
        2 -1    0    0  501    0 +0.0000000000e+00 +0.0000000000e+00 +4.9682301657e+02 4.9682301657e+02 0.0000000000e+00 0.0000e+00 -1.0000e+00
       -2 -1    0    0    0  501 -0.0000000000e+00 -0.0000000000e+00 -3.1872157889e+02 3.1872157889e+02 0.0000000000e+00 0.0000e+00 1.0000e+00
      -13  1    1    2    0    0 -1.2294336368e+02 +1.6761367309e+02 -2.5866312673e+02 3.3183735053e+02 0.0000000000e+00 0.0000e+00 1.0000e+00
       13  1    1    2    0    0 +1.2294336368e+02 -1.6761367309e+02 +4.3676456441e+02 4.8370724493e+02 0.0000000000e+00 0.0000e+00 -1.0000e+00
<mgrwt>
<rscale>  0 0.79585983E+03</rscale>
<asrwt>0</asrwt>
<pdfrwt beam="1">  1        2 0.76434310E-01 0.79585983E+03</pdfrwt>
<pdfrwt beam="2">  1       -2 0.49034089E-01 0.79585983E+03</pdfrwt>
<totfact> 0.29794407E+02</totfact>
</mgrwt>
<rwgt>
<wgt id='morphing_basis_vector_1'> +2.0507260e-04 </wgt>
<wgt id='morphing_basis_vector_2'> +1.2347943e-04 </wgt>
<wgt id='morphing_basis_vector_3'> +1.8385117e-04 </wgt>
<wgt id='morphing_basis_vector_4'> +1.0084201e-04 </wgt>
<wgt id='morphing_basis_vector_5'> +1.5811111e-04 </wgt>
</rwgt>
</event>
<event>
 4      1 +2.9741700e-06 7.92499500e+02 7.81860800e-03 8.91169700e-02
        2 -1    0    0  501    0 +0.0000000000e+00 +0.0000000000e+00 +2.5782278858e+03 2.5782278858e+03 0.0000000000e+00 0.0000e+00 1.0000e+00
       -2 -1    0    0    0  501 -0.0000000000e+00 -0.0000000000e+00 -6.0899913125e+01 6.0899913125e+01 0.0000000000e+00 0.0000e+00 -1.0000e+00
      -13  1    1    2    0    0 -1.8587840193e+02 +3.3290896336e+02 +8.9946180957e+02 9.7693945824e+02 0.0000000000e+00 0.0000e+00 -1.0000e+00
       13  1    1    2    0    0 +1.8587840193e+02 -3.3290896336e+02 +1.6178661631e+03 1.6621883407e+03 0.0000000000e+00 0.0000e+00 1.0000e+00
<mgrwt>
<rscale>  0 0.79249947E+03</rscale>
<asrwt>0</asrwt>
<pdfrwt beam="1">  1        2 0.39665036E+00 0.79249947E+03</pdfrwt>
<pdfrwt beam="2">  1       -2 0.93692194E-02 0.79249947E+03</pdfrwt>
<totfact> 0.26861591E+02</totfact>
</mgrwt>
<rwgt>
<wgt id='morphing_basis_vector_1'> +2.0446132e-04 </wgt>
<wgt id='morphing_basis_vector_2'> +1.2900808e-04 </wgt>
<wgt id='morphing_basis_vector_3'> +1.8225362e-04 </wgt>
<wgt id='morphing_basis_vector_4'> +9.5897022e-05 </wgt>
<wgt id='morphing_basis_vector_5'> +1.5495412e-04 </wgt>
</rwgt>
</event>
<event>
 4      1 +2.9741700e-06 8.31014900e+02 7.81860800e-03 8.86432800e-02
        2 -1    0    0  501    0 +0.0000000000e+00 +0.0000000000e+00 +1.8135643223e+02 1.8135643223e+02 0.0000000000e+00 0.0000e+00 1.0000e+00
       -2 -1    0    0    0  501 -0.0000000000e+00 -0.0000000000e+00 -9.5197314542e+02 9.5197314542e+02 0.0000000000e+00 0.0000e+00 -1.0000e+00
      -13  1    1    2    0    0 -7.6472881701e+01 -3.1401646455e+02 -7.4144293911e+02 8.0882141020e+02 0.0000000000e+00 0.0000e+00 -1.0000e+00
       13  1    1    2    0    0 +7.6472881701e+01 +3.1401646455e+02 -2.9173774084e+01 3.2450816744e+02 0.0000000000e+00 0.0000e+00 1.0000e+00
<mgrwt>
<rscale>  0 0.83101493E+03</rscale>
<asrwt>0</asrwt>
<pdfrwt beam="1">  1        2 0.27900990E-01 0.83101493E+03</pdfrwt>
<pdfrwt beam="2">  1       -2 0.14645740E+00 0.83101493E+03</pdfrwt>
<totfact> 0.74245341E+01</totfact>
</mgrwt>
<rwgt>
<wgt id='morphing_basis_vector_1'> +2.3957115e-04 </wgt>
<wgt id='morphing_basis_vector_2'> +1.4645237e-04 </wgt>
<wgt id='morphing_basis_vector_3'> +2.1798063e-04 </wgt>
<wgt id='morphing_basis_vector_4'> +1.2184691e-04 </wgt>
<wgt id='morphing_basis_vector_5'> +1.9239543e-04 </wgt>
</rwgt>
</event>
<event>
 4      1 +2.9741700e-06 7.70883800e+02 7.81860800e-03 8.93954900e-02
        2 -1    0    0  501    0 +0.0000000000e+00 +0.0000000000e+00 +1.6408570706e+03 1.6408570706e+03 0.0000000000e+00 0.0000e+00 1.0000e+00
       -2 -1    0    0    0  501 -0.0000000000e+00 -0.0000000000e+00 -9.0541368585e+01 9.0541368585e+01 0.0000000000e+00 0.0000e+00 -1.0000e+00
      -13  1    1    2    0    0 +3.0357716664e+02 -2.2836267916e+02 +6.2861941380e+02 7.3448687990e+02 0.0000000000e+00 0.0000e+00 -1.0000e+00
       13  1    1    2    0    0 -3.0357716664e+02 +2.2836267916e+02 +9.2169628826e+02 9.9691155934e+02 0.0000000000e+00 0.0000e+00 1.0000e+00
<mgrwt>
<rscale>  0 0.77088377E+03</rscale>
<asrwt>0</asrwt>
<pdfrwt beam="1">  1        2 0.25243953E+00 0.77088377E+03</pdfrwt>
<pdfrwt beam="2">  1       -2 0.13929442E-01 0.77088377E+03</pdfrwt>
<totfact> 0.48238334E+02</totfact>
</mgrwt>
<rwgt>
<wgt id='morphing_basis_vector_1'> +1.8662790e-04 </wgt>
<wgt id='morphing_basis_vector_2'> +1.1998774e-04 </wgt>
<wgt id='morphing_basis_vector_3'> +1.6414969e-04 </wgt>
<wgt id='morphing_basis_vector_4'> +8.3247986e-05 </wgt>
<wgt id='morphing_basis_vector_5'> +1.3641877e-04 </wgt>
</rwgt>
</event>
<event>
 4      1 +2.9741700e-06 8.05798100e+02 7.81860800e-03 8.89502500e-02
        2 -1    0    0  501    0 +0.0000000000e+00 +0.0000000000e+00 +2.2606210607e+03 2.2606210607e+03 0.0000000000e+00 0.0000e+00 -1.0000e+00
       -2 -1    0    0    0  501 -0.0000000000e+00 -0.0000000000e+00 -7.1806659054e+01 7.1806659054e+01 0.0000000000e+00 0.0000e+00 1.0000e+00
      -13  1    1    2    0    0 +3.5055262408e+02 -1.2216464940e+02 +6.4118681706e+02 7.4089937116e+02 0.0000000000e+00 0.0000e+00 1.0000e+00
       13  1    1    2    0    0 -3.5055262408e+02 +1.2216464940e+02 +1.5476275846e+03 1.5915283486e+03 0.0000000000e+00 0.0000e+00 -1.0000e+00
<mgrwt>
<rscale>  0 0.80579810E+03</rscale>
<asrwt>0</asrwt>
<pdfrwt beam="1">  1        2 0.34778780E+00 0.80579810E+03</pdfrwt>
<pdfrwt beam="2">  1       -2 0.11047180E-01 0.80579810E+03</pdfrwt>
<totfact> 0.31609746E+02</totfact>
</mgrwt>
<rwgt>
<wgt id='morphing_basis_vector_1'> +2.1582564e-04 </wgt>
<wgt id='morphing_basis_vector_2'> +1.3402408e-04 </wgt>
<wgt id='morphing_basis_vector_3'> +1.9391392e-04 </wgt>
<wgt id='morphing_basis_vector_4'> +1.0468094e-04 </wgt>
<wgt id='morphing_basis_vector_5'> +1.6723749e-04 </wgt>
</rwgt>
</event>
<event>
 4      1 +2.9741700e-06 8.48204500e+02 7.81860800e-03 8.84405400e-02
        2 -1    0    0  501    0 +0.0000000000e+00 +0.0000000000e+00 +9.4275657367e+02 9.4275657367e+02 0.0000000000e+00 0.0000e+00 1.0000e+00
       -2 -1    0    0    0  501 -0.0000000000e+00 -0.0000000000e+00 -1.9078384341e+02 1.9078384341e+02 0.0000000000e+00 0.0000e+00 -1.0000e+00
      -13  1    1    2    0    0 +8.4194114773e+00 -2.3754558552e+02 -9.3400067339e+01 2.5538669556e+02 0.0000000000e+00 0.0000e+00 -1.0000e+00
       13  1    1    2    0    0 -8.4194114773e+00 +2.3754558552e+02 +8.4537279761e+02 8.7815372152e+02 0.0000000000e+00 0.0000e+00 1.0000e+00
<mgrwt>
<rscale>  0 0.84820451E+03</rscale>
<asrwt>0</asrwt>
<pdfrwt beam="1">  1        2 0.14503947E+00 0.84820451E+03</pdfrwt>
<pdfrwt beam="2">  1       -2 0.29351361E-01 0.84820451E+03</pdfrwt>
<totfact> 0.34813664E+02</totfact>
</mgrwt>
<rwgt>
<wgt id='morphing_basis_vector_1'> +2.5736291e-04 </wgt>
<wgt id='morphing_basis_vector_2'> +1.5684978e-04 </wgt>
<wgt id='morphing_basis_vector_3'> +2.3590298e-04 </wgt>
<wgt id='morphing_basis_vector_4'> +1.3405615e-04 </wgt>
<wgt id='morphing_basis_vector_5'> +2.1101407e-04 </wgt>
</rwgt>
</event>
<event>
 4      1 +2.9741700e-06 8.09820200e+02 7.81860800e-03 8.89005000e-02
        2 -1    0    0  501    0 +0.0000000000e+00 +0.0000000000e+00 +7.8341544365e+02 7.8341544365e+02 0.0000000000e+00 0.0000e+00 -1.0000e+00
       -2 -1    0    0    0  501 -0.0000000000e+00 -0.0000000000e+00 -2.0927873312e+02 2.0927873312e+02 0.0000000000e+00 0.0000e+00 1.0000e+00
      -13  1    1    2    0    0 +3.1305541536e+02 +6.6683325786e+01 +5.9106647233e+02 6.7216808444e+02 0.0000000000e+00 0.0000e+00 1.0000e+00
       13  1    1    2    0    0 -3.1305541536e+02 -6.6683325786e+01 -1.6929761803e+01 3.2052609232e+02 0.0000000000e+00 0.0000e+00 -1.0000e+00
<mgrwt>
<rscale>  0 0.80982021E+03</rscale>
<asrwt>0</asrwt>
<pdfrwt beam="1">  1        2 0.12052545E+00 0.80982021E+03</pdfrwt>
<pdfrwt beam="2">  1       -2 0.32196728E-01 0.80982021E+03</pdfrwt>
<totfact> 0.37820861E+02</totfact>
</mgrwt>
<rwgt>
<wgt id='morphing_basis_vector_1'> +2.6969615e-04 </wgt>
<wgt id='morphing_basis_vector_2'> +2.8961439e-04 </wgt>
<wgt id='morphing_basis_vector_3'> +2.2862456e-04 </wgt>
<wgt id='morphing_basis_vector_4'> +4.3016926e-05 </wgt>
<wgt id='morphing_basis_vector_5'> +1.6826028e-04 </wgt>
</rwgt>
</event>
<event>
 4      1 +2.9741700e-06 8.11559000e+02 7.81860800e-03 8.88790800e-02
        2 -1    0    0  501    0 +0.0000000000e+00 +0.0000000000e+00 +1.9679455608e+02 1.9679455608e+02 0.0000000000e+00 0.0000e+00 1.0000e+00
       -2 -1    0    0    0  501 -0.0000000000e+00 -0.0000000000e+00 -8.3669494094e+02 8.3669494094e+02 0.0000000000e+00 0.0000e+00 -1.0000e+00
      -13  1    1    2    0    0 +1.3795871698e+01 -1.8001274930e+02 -7.8273069013e+02 8.0328217287e+02 0.0000000000e+00 0.0000e+00 -1.0000e+00
       13  1    1    2    0    0 -1.3795871698e+01 +1.8001274930e+02 +1.4283030527e+02 2.3020732415e+02 0.0000000000e+00 0.0000e+00 1.0000e+00
<mgrwt>
<rscale>  0 0.81155902E+03</rscale>
<asrwt>0</asrwt>
<pdfrwt beam="1">  1        2 0.30276085E-01 0.81155902E+03</pdfrwt>
<pdfrwt beam="2">  1       -2 0.12872230E+00 0.81155902E+03</pdfrwt>
<totfact> 0.96310620E+01</totfact>
</mgrwt>
<rwgt>
<wgt id='morphing_basis_vector_1'> +2.1975621e-04 </wgt>
<wgt id='morphing_basis_vector_2'> +1.3273703e-04 </wgt>
<wgt id='morphing_basis_vector_3'> +1.9841115e-04 </wgt>
<wgt id='morphing_basis_vector_4'> +1.1013262e-04 </wgt>
<wgt id='morphing_basis_vector_5'> +1.7283639e-04 </wgt>
</rwgt>
</event>
<event>
 4      1 +2.9741700e-06 7.76769800e+02 7.81860800e-03 8.93187000e-02
        2 -1    0    0  501    0 +0.0000000000e+00 +0.0000000000e+00 +1.2433178864e+03 1.2433178864e+03 0.0000000000e+00 0.0000e+00 1.0000e+00
       -2 -1    0    0    0  501 -0.0000000000e+00 -0.0000000000e+00 -1.2132281339e+02 1.2132281339e+02 0.0000000000e+00 0.0000e+00 -1.0000e+00
      -13  1    1    2    0    0 -3.0915192506e+02 +2.0429817187e+02 +7.6534892530e+02 8.5033618838e+02 0.0000000000e+00 0.0000e+00 -1.0000e+00
       13  1    1    2    0    0 +3.0915192506e+02 -2.0429817187e+02 +3.5664614772e+02 5.1430451144e+02 0.0000000000e+00 0.0000e+00 1.0000e+00
<mgrwt>
<rscale>  0 0.77676978E+03</rscale>
<asrwt>0</asrwt>
<pdfrwt beam="1">  1        2 0.19127967E+00 0.77676978E+03</pdfrwt>
<pdfrwt beam="2">  1       -2 0.18665049E-01 0.77676978E+03</pdfrwt>
<totfact> 0.49839866E+02</totfact>
</mgrwt>
<rwgt>
<wgt id='morphing_basis_vector_1'> +2.0658594e-04 </wgt>
<wgt id='morphing_basis_vector_2'> +1.6909795e-04 </wgt>
<wgt id='morphing_basis_vector_3'> +1.7724814e-04 </wgt>
<wgt id='morphing_basis_vector_4'> +6.8005444e-05 </wgt>
<wgt id='morphing_basis_vector_5'> +1.4056406e-04 </wgt>
</rwgt>
</event>
<event>
 4      1 +2.9741700e-06 8.03337400e+02 7.81860800e-03 8.89808400e-02
        2 -1    0    0  501    0 +0.0000000000e+00 +0.0000000000e+00 +2.6385986655e+02 2.6385986655e+02 0.0000000000e+00 0.0000e+00 -1.0000e+00
       -2 -1    0    0    0  501 -0.0000000000e+00 -0.0000000000e+00 -6.1145234182e+02 6.1145234182e+02 0.0000000000e+00 0.0000e+00 1.0000e+00
      -13  1    1    2    0    0 -2.4485368600e+02 +2.3029968513e+02 -4.1337447099e+02 5.3279426215e+02 0.0000000000e+00 0.0000e+00 1.0000e+00
       13  1    1    2    0    0 +2.4485368600e+02 -2.3029968513e+02 +6.5781995719e+01 3.4251794622e+02 0.0000000000e+00 0.0000e+00 -1.0000e+00
<mgrwt>
<rscale>  0 0.80333737E+03</rscale>
<asrwt>0</asrwt>
<pdfrwt beam="1">  1        2 0.40593827E-01 0.80333737E+03</pdfrwt>
<pdfrwt beam="2">  1       -2 0.94069589E-01 0.80333737E+03</pdfrwt>
<totfact> 0.15114393E+02</totfact>
</mgrwt>
<rwgt>
<wgt id='morphing_basis_vector_1'> +2.1262812e-04 </wgt>
<wgt id='morphing_basis_vector_2'> +1.2984660e-04 </wgt>
<wgt id='morphing_basis_vector_3'> +1.9107958e-04 </wgt>
<wgt id='morphing_basis_vector_4'> +1.0435469e-04 </wgt>
<wgt id='morphing_basis_vector_5'> +1.6497107e-04 </wgt>
</rwgt>
</event>
<event>
 4      1 +2.9741700e-06 7.79644700e+02 7.81860800e-03 8.92814500e-02
        2 -1    0    0  501    0 +0.0000000000e+00 +0.0000000000e+00 +6.3587287440e+02 6.3587287440e+02 0.0000000000e+00 0.0000e+00 1.0000e+00
       -2 -1    0    0    0  501 -0.0000000000e+00 -0.0000000000e+00 -2.3898088305e+02 2.3898088305e+02 0.0000000000e+00 0.0000e+00 -1.0000e+00
      -13  1    1    2    0    0 -5.6635270172e+01 -1.1015163397e+02 -2.1631385561e+02 2.4926415792e+02 0.0000000000e+00 0.0000e+00 -1.0000e+00
       13  1    1    2    0    0 +5.6635270172e+01 +1.1015163397e+02 +6.1320584696e+02 6.2558959953e+02 0.0000000000e+00 0.0000e+00 1.0000e+00
<mgrwt>
<rscale>  0 0.77964469E+03</rscale>
<asrwt>0</asrwt>
<pdfrwt beam="1">  1        2 0.97826596E-01 0.77964469E+03</pdfrwt>
<pdfrwt beam="2">  1       -2 0.36766290E-01 0.77964469E+03</pdfrwt>
<totfact> 0.38506340E+02</totfact>
</mgrwt>
<rwgt>
<wgt id='morphing_basis_vector_1'> +1.9065667e-04 </wgt>
<wgt id='morphing_basis_vector_2'> +1.1424724e-04 </wgt>
<wgt id='morphing_basis_vector_3'> +1.6964611e-04 </wgt>
<wgt id='morphing_basis_vector_4'> +9.1942301e-05 </wgt>
<wgt id='morphing_basis_vector_5'> +1.4387502e-04 </wgt>
</rwgt>
</event>
<event>
 4      1 +2.9741700e-06 7.65888300e+02 7.81860800e-03 8.94612400e-02
        2 -1    0    0  501    0 +0.0000000000e+00 +0.0000000000e+00 +1.9927594142e+03 1.9927594142e+03 0.0000000000e+00 0.0000e+00 1.0000e+00
       -2 -1    0    0    0  501 -0.0000000000e+00 -0.0000000000e+00 -7.3589531479e+01 7.3589531479e+01 0.0000000000e+00 0.0000e+00 -1.0000e+00
      -13  1    1    2    0    0 +3.3516187009e+02 +1.2998480362e+02 +1.3156433041e+03 1.3638719998e+03 0.0000000000e+00 0.0000e+00 -1.0000e+00
       13  1    1    2    0    0 -3.3516187009e+02 -1.2998480362e+02 +6.0352657868e+02 7.0247694589e+02 0.0000000000e+00 0.0000e+00 1.0000e+00
<mgrwt>
<rscale>  0 0.76588833E+03</rscale>
<asrwt>0</asrwt>
<pdfrwt beam="1">  1        2 0.30657833E+00 0.76588833E+03</pdfrwt>
<pdfrwt beam="2">  1       -2 0.11321468E-01 0.76588833E+03</pdfrwt>
<totfact> 0.43061229E+02</totfact>
</mgrwt>
<rwgt>
<wgt id='morphing_basis_vector_1'> +1.9927325e-04 </wgt>
<wgt id='morphing_basis_vector_2'> +1.6887781e-04 </wgt>
<wgt id='morphing_basis_vector_3'> +1.6877546e-04 </wgt>
<wgt id='morphing_basis_vector_4'> +6.0656996e-05 </wgt>
<wgt id='morphing_basis_vector_5'> +1.3162088e-04 </wgt>
</rwgt>
</event>
<event>
 4      1 +2.9741700e-06 7.92119300e+02 7.81860800e-03 8.91217900e-02
        2 -1    0    0  501    0 +0.0000000000e+00 +0.0000000000e+00 +1.6248270953e+03 1.6248270953e+03 0.0000000000e+00 0.0000e+00 -1.0000e+00
       -2 -1    0    0    0  501 -0.0000000000e+00 -0.0000000000e+00 -9.6541491585e+01 9.6541491585e+01 0.0000000000e+00 0.0000e+00 1.0000e+00
      -13  1    1    2    0    0 -2.0456727503e+02 -2.6077757100e+02 +2.9296933545e+02 4.4236155243e+02 0.0000000000e+00 0.0000e+00 1.0000e+00
       13  1    1    2    0    0 +2.0456727503e+02 +2.6077757100e+02 +1.2353162682e+03 1.2790070344e+03 0.0000000000e+00 0.0000e+00 -1.0000e+00
<mgrwt>
<rscale>  0 0.79211926E+03</rscale>
<asrwt>0</asrwt>
<pdfrwt beam="1">  1        2 0.24997338E+00 0.79211926E+03</pdfrwt>
<pdfrwt beam="2">  1       -2 0.14852538E-01 0.79211926E+03</pdfrwt>
<totfact> 0.44323787E+02</totfact>
</mgrwt>
<rwgt>
<wgt id='morphing_basis_vector_1'> +2.0229910e-04 </wgt>
<wgt id='morphing_basis_vector_2'> +1.2321580e-04 </wgt>
<wgt id='morphing_basis_vector_3'> +1.8085862e-04 </wgt>
<wgt id='morphing_basis_vector_4'> +9.7955599e-05 </wgt>
<wgt id='morphing_basis_vector_5'> +1.5470870e-04 </wgt>
</rwgt>
</event>
<event>
 4      1 +2.9741700e-06 8.33946200e+02 7.81860800e-03 8.86083400e-02
        2 -1    0    0  501    0 +0.0000000000e+00 +0.0000000000e+00 +5.2399055452e+02 5.2399055452e+02 0.0000000000e+00 0.0000e+00 -1.0000e+00
       -2 -1    0    0    0  501 -0.0000000000e+00 -0.0000000000e+00 -3.3181236938e+02 3.3181236938e+02 0.0000000000e+00 0.0000e+00 1.0000e+00
      -13  1    1    2    0    0 +1.2628820829e+02 -3.5420659719e+02 -8.8786703487e+01 3.8638595182e+02 0.0000000000e+00 0.0000e+00 1.0000e+00
       13  1    1    2    0    0 -1.2628820829e+02 +3.5420659719e+02 +2.8096488862e+02 4.6941697209e+02 0.0000000000e+00 0.0000e+00 -1.0000e+00
<mgrwt>
<rscale>  0 0.83394616E+03</rscale>
<asrwt>0</asrwt>
<pdfrwt beam="1">  1        2 0.80613932E-01 0.83394616E+03</pdfrwt>
<pdfrwt beam="2">  1       -2 0.51048056E-01 0.83394616E+03</pdfrwt>
<totfact> 0.25860680E+02</totfact>
</mgrwt>
<rwgt>
<wgt id='morphing_basis_vector_1'> +2.4357947e-04 </wgt>
<wgt id='morphing_basis_vector_2'> +1.5137748e-04 </wgt>
<wgt id='morphing_basis_vector_3'> +2.2165856e-04 </wgt>
<wgt id='morphing_basis_vector_4'> +1.2248818e-04 </wgt>
<wgt id='morphing_basis_vector_5'> +1.9541842e-04 </wgt>
</rwgt>
</event>
<event>
 4      1 +2.9741700e-06 7.57458600e+02 7.81860800e-03 8.95734100e-02
        2 -1    0    0  501    0 +0.0000000000e+00 +0.0000000000e+00 +3.1372985160e+02 3.1372985160e+02 0.0000000000e+00 0.0000e+00 1.0000e+00
       -2 -1    0    0    0  501 -0.0000000000e+00 -0.0000000000e+00 -4.5719547548e+02 4.5719547548e+02 0.0000000000e+00 0.0000e+00 -1.0000e+00
      -13  1    1    2    0    0 +2.8902361917e+02 -1.0624762949e+02 -2.9613553133e+02 4.2722296769e+02 0.0000000000e+00 0.0000e+00 -1.0000e+00
       13  1    1    2    0    0 -2.8902361917e+02 +1.0624762949e+02 +1.5266990745e+02 3.4370235939e+02 0.0000000000e+00 0.0000e+00 1.0000e+00
<mgrwt>
<rscale>  0 0.75745856E+03</rscale>
<asrwt>0</asrwt>
<pdfrwt beam="1">  1        2 0.48266131E-01 0.75745856E+03</pdfrwt>
<pdfrwt beam="2">  1       -2 0.70337766E-01 0.75745856E+03</pdfrwt>
<totfact> 0.24047219E+02</totfact>
</mgrwt>
<rwgt>
<wgt id='morphing_basis_vector_1'> +1.7274379e-04 </wgt>
<wgt id='morphing_basis_vector_2'> +1.0406512e-04 </wgt>
<wgt id='morphing_basis_vector_3'> +1.5184945e-04 </wgt>
<wgt id='morphing_basis_vector_4'> +8.0104197e-05 </wgt>
<wgt id='morphing_basis_vector_5'> +1.2589524e-04 </wgt>
</rwgt>
</event>
<event>
 4      1 +2.9741700e-06 8.80800200e+02 7.81860800e-03 8.80696600e-02
        2 -1    0    0  501    0 +0.0000000000e+00 +0.0000000000e+00 +6.8187423111e+02 6.8187423111e+02 0.0000000000e+00 0.0000e+00 -1.0000e+00
       -2 -1    0    0    0  501 -0.0000000000e+00 -0.0000000000e+00 -2.8443991645e+02 2.8443991645e+02 0.0000000000e+00 0.0000e+00 1.0000e+00
      -13  1    1    2    0    0 +8.8846401209e+01 -2.1089763552e+02 -2.1408603000e+02 3.1337569133e+02 0.0000000000e+00 0.0000e+00 1.0000e+00
       13  1    1    2    0    0 -8.8846401209e+01 +2.1089763552e+02 +6.1152034466e+02 6.5293845622e+02 0.0000000000e+00 0.0000e+00 -1.0000e+00
<mgrwt>
<rscale>  0 0.88080020E+03</rscale>
<asrwt>0</asrwt>
<pdfrwt beam="1">  1        2 0.10490373E+00 0.88080020E+03</pdfrwt>
<pdfrwt beam="2">  1       -2 0.43759988E-01 0.88080020E+03</pdfrwt>
<totfact> 0.25467054E+02</totfact>
</mgrwt>
<rwgt>
<wgt id='morphing_basis_vector_1'> +2.9477519e-04 </wgt>
<wgt id='morphing_basis_vector_2'> +1.8076197e-04 </wgt>
<wgt id='morphing_basis_vector_3'> +2.7352067e-04 </wgt>
<wgt id='morphing_basis_vector_4'> +1.5845457e-04 </wgt>
<wgt id='morphing_basis_vector_5'> +2.4979211e-04 </wgt>
</rwgt>
</event>
<event>
 4      1 +2.9741700e-06 8.32251800e+02 7.81860800e-03 8.86285200e-02
        2 -1    0    0  501    0 +0.0000000000e+00 +0.0000000000e+00 +1.3244701221e+03 1.3244701221e+03 0.0000000000e+00 0.0000e+00 -1.0000e+00
       -2 -1    0    0    0  501 -0.0000000000e+00 -0.0000000000e+00 -1.3073965438e+02 1.3073965438e+02 0.0000000000e+00 0.0000e+00 1.0000e+00
      -13  1    1    2    0    0 +1.9957427084e+02 +3.2778115079e+02 +3.1551959636e+02 4.9681283003e+02 0.0000000000e+00 0.0000e+00 1.0000e+00
       13  1    1    2    0    0 -1.9957427084e+02 -3.2778115079e+02 +8.7821087134e+02 9.5839694643e+02 0.0000000000e+00 0.0000e+00 -1.0000e+00
<mgrwt>
<rscale>  0 0.83225180E+03</rscale>
<asrwt>0</asrwt>
<pdfrwt beam="1">  1        2 0.20376462E+00 0.83225180E+03</pdfrwt>
<pdfrwt beam="2">  1       -2 0.20113794E-01 0.83225180E+03</pdfrwt>
<totfact> 0.39452264E+02</totfact>
</mgrwt>
<rwgt>
<wgt id='morphing_basis_vector_1'> +2.4216156e-04 </wgt>
<wgt id='morphing_basis_vector_2'> +1.5128687e-04 </wgt>
<wgt id='morphing_basis_vector_3'> +2.2012586e-04 </wgt>
<wgt id='morphing_basis_vector_4'> +1.2092562e-04 </wgt>
<wgt id='morphing_basis_vector_5'> +1.9361157e-04 </wgt>
</rwgt>
</event>
<event>
 4      1 +2.9741700e-06 8.78151800e+02 7.81860800e-03 8.80991600e-02
        2 -1    0    0  501    0 +0.0000000000e+00 +0.0000000000e+00 +1.7966413624e+03 1.7966413624e+03 0.0000000000e+00 0.0000e+00 -1.0000e+00
       -2 -1    0    0    0  501 -0.0000000000e+00 -0.0000000000e+00 -1.0730447380e+02 1.0730447380e+02 0.0000000000e+00 0.0000e+00 1.0000e+00
      -13  1    1    2    0    0 -2.3596866115e+02 +2.8550533062e+02 +3.3346280540e+02 4.9838935125e+02 0.0000000000e+00 0.0000e+00 1.0000e+00
       13  1    1    2    0    0 +2.3596866115e+02 -2.8550533062e+02 +1.3558740832e+03 1.4055564850e+03 0.0000000000e+00 0.0000e+00 -1.0000e+00
<mgrwt>
<rscale>  0 0.87815182E+03</rscale>
<asrwt>0</asrwt>
<pdfrwt beam="1">  1        2 0.27640634E+00 0.87815182E+03</pdfrwt>
<pdfrwt beam="2">  1       -2 0.16508382E-01 0.87815182E+03</pdfrwt>
<totfact> 0.29857397E+02</totfact>
</mgrwt>
<rwgt>
<wgt id='morphing_basis_vector_1'> +2.9254210e-04 </wgt>
<wgt id='morphing_basis_vector_2'> +1.8163213e-04 </wgt>
<wgt id='morphing_basis_vector_3'> +2.7101944e-04 </wgt>
<wgt id='morphing_basis_vector_4'> +1.5503101e-04 </wgt>
<wgt id='morphing_basis_vector_5'> +2.4639517e-04 </wgt>
</rwgt>
</event>
<event>
 4      1 +2.9741700e-06 7.93654000e+02 7.81860800e-03 8.91023600e-02
        2 -1    0    0  501    0 +0.0000000000e+00 +0.0000000000e+00 +7.1922097583e+02 7.1922097583e+02 0.0000000000e+00 0.0000e+00 -1.0000e+00
       -2 -1    0    0    0  501 -0.0000000000e+00 -0.0000000000e+00 -2.1894753867e+02 2.1894753867e+02 0.0000000000e+00 0.0000e+00 1.0000e+00
      -13  1    1    2    0    0 +7.9347082313e+01 +3.1551051447e+02 -1.8456933199e+01 3.2585810193e+02 0.0000000000e+00 0.0000e+00 1.0000e+00
       13  1    1    2    0    0 -7.9347082313e+01 -3.1551051447e+02 +5.1873037036e+02 6.1231041257e+02 0.0000000000e+00 0.0000e+00 -1.0000e+00
<mgrwt>
<rscale>  0 0.79365399E+03</rscale>
<asrwt>0</asrwt>
<pdfrwt beam="1">  1        2 0.11064938E+00 0.79365399E+03</pdfrwt>
<pdfrwt beam="2">  1       -2 0.33684237E-01 0.79365399E+03</pdfrwt>
<totfact> 0.38849990E+02</totfact>
</mgrwt>
<rwgt>
<wgt id='morphing_basis_vector_1'> +2.0359791e-04 </wgt>
<wgt id='morphing_basis_vector_2'> +1.2382947e-04 </wgt>
<wgt id='morphing_basis_vector_3'> +1.8217885e-04 </wgt>
<wgt id='morphing_basis_vector_4'> +9.8927008e-05 </wgt>
<wgt id='morphing_basis_vector_5'> +1.5608954e-04 </wgt>
</rwgt>
</event>
<event>
 4      1 +2.9741700e-06 7.92699500e+02 7.81860800e-03 8.91144300e-02
        2 -1    0    0  501    0 +0.0000000000e+00 +0.0000000000e+00 +3.2237628880e+02 3.2237628880e+02 0.0000000000e+00 0.0000e+00 1.0000e+00
       -2 -1    0    0    0  501 -0.0000000000e+00 -0.0000000000e+00 -4.8729742185e+02 4.8729742185e+02 0.0000000000e+00 0.0000e+00 -1.0000e+00
      -13  1    1    2    0    0 +2.6413358926e+02 +1.2812211520e+02 -3.5445447588e+02 4.6023885631e+02 0.0000000000e+00 0.0000e+00 -1.0000e+00
       13  1    1    2    0    0 -2.6413358926e+02 -1.2812211520e+02 +1.8953334283e+02 3.4943485434e+02 0.0000000000e+00 0.0000e+00 1.0000e+00
<mgrwt>
<rscale>  0 0.79269953E+03</rscale>
<asrwt>0</asrwt>
<pdfrwt beam="1">  1        2 0.49596352E-01 0.79269953E+03</pdfrwt>
<pdfrwt beam="2">  1       -2 0.74968834E-01 0.79269953E+03</pdfrwt>
<totfact> 0.20278812E+02</totfact>
</mgrwt>
<rwgt>
<wgt id='morphing_basis_vector_1'> +2.0245867e-04 </wgt>
<wgt id='morphing_basis_vector_2'> +1.2243431e-04 </wgt>
<wgt id='morphing_basis_vector_3'> +1.8116489e-04 </wgt>
<wgt id='morphing_basis_vector_4'> +9.8735082e-05 </wgt>
<wgt id='morphing_basis_vector_5'> +1.5524697e-04 </wgt>
</rwgt>
</event>
<event>
 4      1 +2.9741700e-06 7.99072100e+02 7.81860800e-03 8.90341400e-02
        2 -1    0    0  501    0 +0.0000000000e+00 +0.0000000000e+00 +8.5874147891e+02 8.5874147891e+02 0.0000000000e+00 0.0000e+00 1.0000e+00
       -2 -1    0    0    0  501 -0.0000000000e+00 -0.0000000000e+00 -1.8588719061e+02 1.8588719061e+02 0.0000000000e+00 0.0000e+00 -1.0000e+00
      -13  1    1    2    0    0 -1.3736135787e+01 -1.9910542723e+02 -1.1605314787e+02 2.3086789667e+02 0.0000000000e+00 0.0000e+00 -1.0000e+00
       13  1    1    2    0    0 +1.3736135787e+01 +1.9910542723e+02 +7.8890743617e+02 8.1376077285e+02 0.0000000000e+00 0.0000e+00 1.0000e+00
<mgrwt>
<rscale>  0 0.79907206E+03</rscale>
<asrwt>0</asrwt>
<pdfrwt beam="1">  1        2 0.13211407E+00 0.79907206E+03</pdfrwt>
<pdfrwt beam="2">  1       -2 0.28598030E-01 0.79907206E+03</pdfrwt>
<totfact> 0.41430721E+02</totfact>
</mgrwt>
<rwgt>
<wgt id='morphing_basis_vector_1'> +2.0800857e-04 </wgt>
<wgt id='morphing_basis_vector_2'> +1.2531885e-04 </wgt>
<wgt id='morphing_basis_vector_3'> +1.8675930e-04 </wgt>
<wgt id='morphing_basis_vector_4'> +1.0269977e-04 </wgt>
<wgt id='morphing_basis_vector_5'> +1.6104784e-04 </wgt>
</rwgt>
</event>
<event>
 4      1 +2.9741700e-06 8.13851600e+02 7.81860800e-03 8.88509400e-02
        2 -1    0    0  501    0 +0.0000000000e+00 +0.0000000000e+00 +1.6540377539e+03 1.6540377539e+03 0.0000000000e+00 0.0000e+00 -1.0000e+00
       -2 -1    0    0    0  501 -0.0000000000e+00 -0.0000000000e+00 -1.0011173838e+02 1.0011173838e+02 0.0000000000e+00 0.0000e+00 1.0000e+00
      -13  1    1    2    0    0 -2.2004070390e+02 -1.7525095788e+02 +1.4320501564e+02 3.1565564484e+02 0.0000000000e+00 0.0000e+00 1.0000e+00
       13  1    1    2    0    0 +2.2004070390e+02 +1.7525095788e+02 +1.4107209999e+03 1.4384938474e+03 0.0000000000e+00 0.0000e+00 -1.0000e+00
<mgrwt>
<rscale>  0 0.81385157E+03</rscale>
<asrwt>0</asrwt>
<pdfrwt beam="1">  1        2 0.25446733E+00 0.81385157E+03</pdfrwt>
<pdfrwt beam="2">  1       -2 0.15401807E-01 0.81385157E+03</pdfrwt>
<totfact> 0.40218841E+02</totfact>
</mgrwt>
<rwgt>
<wgt id='morphing_basis_vector_1'> +2.2216913e-04 </wgt>
<wgt id='morphing_basis_vector_2'> +1.3474997e-04 </wgt>
<wgt id='morphing_basis_vector_3'> +2.0073497e-04 </wgt>
<wgt id='morphing_basis_vector_4'> +1.1128011e-04 </wgt>
<wgt id='morphing_basis_vector_5'> +1.7505484e-04 </wgt>
</rwgt>
</event>
<event>
 4      1 +2.9741700e-06 8.05758000e+02 7.81860800e-03 8.89507500e-02
        2 -1    0    0  501    0 +0.0000000000e+00 +0.0000000000e+00 +2.2271976848e+02 2.2271976848e+02 0.0000000000e+00 0.0000e+00 -1.0000e+00
       -2 -1    0    0    0  501 -0.0000000000e+00 -0.0000000000e+00 -7.2877004918e+02 7.2877004918e+02 0.0000000000e+00 0.0000e+00 1.0000e+00
      -13  1    1    2    0    0 -1.4085004061e+02 +3.2737573974e+02 -4.7488251370e+02 5.9373985105e+02 0.0000000000e+00 0.0000e+00 1.0000e+00
       13  1    1    2    0    0 +1.4085004061e+02 -3.2737573974e+02 -3.1167766997e+01 3.5774996661e+02 0.0000000000e+00 0.0000e+00 -1.0000e+00
<mgrwt>
<rscale>  0 0.80575802E+03</rscale>
<asrwt>0</asrwt>
<pdfrwt beam="1">  1        2 0.34264579E-01 0.80575802E+03</pdfrwt>
<pdfrwt beam="2">  1       -2 0.11211847E+00 0.80575802E+03</pdfrwt>
<totfact> 0.11953656E+02</totfact>
</mgrwt>
<rwgt>
<wgt id='morphing_basis_vector_1'> +2.1529259e-04 </wgt>
<wgt id='morphing_basis_vector_2'> +1.3248413e-04 </wgt>
<wgt id='morphing_basis_vector_3'> +1.9357471e-04 </wgt>
<wgt id='morphing_basis_vector_4'> +1.0528754e-04 </wgt>
<wgt id='morphing_basis_vector_5'> +1.6722695e-04 </wgt>
</rwgt>
</event>
<event>
 4      1 +2.9741700e-06 7.61172100e+02 7.81860800e-03 8.95238100e-02
        2 -1    0    0  501    0 +0.0000000000e+00 +0.0000000000e+00 +1.3026397316e+03 1.3026397316e+03 0.0000000000e+00 0.0000e+00 1.0000e+00
       -2 -1    0    0    0  501 -0.0000000000e+00 -0.0000000000e+00 -1.1119401513e+02 1.1119401513e+02 0.0000000000e+00 0.0000e+00 -1.0000e+00
      -13  1    1    2    0    0 -2.4830501714e+02 +1.4916334097e+02 +1.0542542270e+03 1.0933238583e+03 0.0000000000e+00 0.0000e+00 1.0000e+00
       13  1    1    2    0    0 +2.4830501714e+02 -1.4916334097e+02 +1.3719148944e+02 3.2050988846e+02 0.0000000000e+00 0.0000e+00 -1.0000e+00
<mgrwt>
<rscale>  0 0.76117210E+03</rscale>
<asrwt>0</asrwt>
<pdfrwt beam="1">  1        2 0.20040610E+00 0.76117210E+03</pdfrwt>
<pdfrwt beam="2">  1       -2 0.17106772E-01 0.76117210E+03</pdfrwt>
<totfact> 0.53272150E+02</totfact>
</mgrwt>
<rwgt>
<wgt id='morphing_basis_vector_1'> +2.1997593e-04 </wgt>
<wgt id='morphing_basis_vector_2'> +2.4180953e-04 </wgt>
<wgt id='morphing_basis_vector_3'> +1.7727028e-04 </wgt>
<wgt id='morphing_basis_vector_4'> +2.9363539e-05 </wgt>
<wgt id='morphing_basis_vector_5'> +1.2682568e-04 </wgt>
</rwgt>
</event>
<event>
 4      1 +2.9741700e-06 7.81843400e+02 7.81860800e-03 8.92530800e-02
        2 -1    0    0  501    0 +0.0000000000e+00 +0.0000000000e+00 +1.5156305649e+02 1.5156305649e+02 0.0000000000e+00 0.0000e+00 1.0000e+00
       -2 -1    0    0    0  501 -0.0000000000e+00 -0.0000000000e+00 -1.0082916083e+03 1.0082916083e+03 0.0000000000e+00 0.0000e+00 -1.0000e+00
      -13  1    1    2    0    0 -2.1104338731e+02 -1.4697288061e+02 +8.3946808387e+00 2.5731461215e+02 0.0000000000e+00 0.0000e+00 1.0000e+00
       13  1    1    2    0    0 +2.1104338731e+02 +1.4697288061e+02 -8.6512323267e+02 9.0254005267e+02 0.0000000000e+00 0.0000e+00 -1.0000e+00
<mgrwt>
<rscale>  0 0.78184336E+03</rscale>
<asrwt>0</asrwt>
<pdfrwt beam="1">  1        2 0.23317394E-01 0.78184336E+03</pdfrwt>
<pdfrwt beam="2">  1       -2 0.15512178E+00 0.78184336E+03</pdfrwt>
<totfact> 0.78031695E+01</totfact>
</mgrwt>
<rwgt>
<wgt id='morphing_basis_vector_1'> +2.5171211e-04 </wgt>
<wgt id='morphing_basis_vector_2'> +2.9680558e-04 </wgt>
<wgt id='morphing_basis_vector_3'> +2.0444667e-04 </wgt>
<wgt id='morphing_basis_vector_4'> +2.0460209e-05 </wgt>
<wgt id='morphing_basis_vector_5'> +1.4282435e-04 </wgt>
</rwgt>
</event>
<event>
 4      1 +2.9741700e-06 8.75540800e+02 7.81860800e-03 8.81283500e-02
        2 -1    0    0  501    0 +0.0000000000e+00 +0.0000000000e+00 +5.5854159715e+02 5.5854159715e+02 0.0000000000e+00 0.0000e+00 1.0000e+00
       -2 -1    0    0    0  501 -0.0000000000e+00 -0.0000000000e+00 -3.4311308570e+02 3.4311308570e+02 0.0000000000e+00 0.0000e+00 -1.0000e+00
      -13  1    1    2    0    0 +8.9875775182e+00 +4.2754650617e+02 +1.1294054972e+01 4.2779007371e+02 0.0000000000e+00 0.0000e+00 1.0000e+00
       13  1    1    2    0    0 -8.9875775182e+00 -4.2754650617e+02 +2.0413445648e+02 4.7386460915e+02 0.0000000000e+00 0.0000e+00 -1.0000e+00
<mgrwt>
<rscale>  0 0.87554082E+03</rscale>
<asrwt>0</asrwt>
<pdfrwt beam="1">  1        2 0.85929477E-01 0.87554082E+03</pdfrwt>
<pdfrwt beam="2">  1       -2 0.52786628E-01 0.87554082E+03</pdfrwt>
<totfact> 0.22433830E+02</totfact>
</mgrwt>
<rwgt>
<wgt id='morphing_basis_vector_1'> +2.9293720e-04 </wgt>
<wgt id='morphing_basis_vector_2'> +1.9034301e-04 </wgt>
<wgt id='morphing_basis_vector_3'> +2.7048400e-04 </wgt>
<wgt id='morphing_basis_vector_4'> +1.4811805e-04 </wgt>
<wgt id='morphing_basis_vector_5'> +2.4289789e-04 </wgt>
</rwgt>
</event>
<event>
 4      1 +2.9741700e-06 8.07743900e+02 7.81860800e-03 8.89261400e-02
        2 -1    0    0  501    0 +0.0000000000e+00 +0.0000000000e+00 +9.6035688764e+02 9.6035688764e+02 0.0000000000e+00 0.0000e+00 1.0000e+00
       -2 -1    0    0    0  501 -0.0000000000e+00 -0.0000000000e+00 -1.6984578061e+02 1.6984578061e+02 0.0000000000e+00 0.0000e+00 -1.0000e+00
      -13  1    1    2    0    0 -1.4799435593e+02 +1.7362074894e+02 +8.6156405018e+02 8.9125703723e+02 0.0000000000e+00 0.0000e+00 1.0000e+00
       13  1    1    2    0    0 +1.4799435593e+02 -1.7362074894e+02 -7.1052943158e+01 2.3894563101e+02 0.0000000000e+00 0.0000e+00 -1.0000e+00
<mgrwt>
<rscale>  0 0.80774393E+03</rscale>
<asrwt>0</asrwt>
<pdfrwt beam="1">  1        2 0.14774721E+00 0.80774393E+03</pdfrwt>
<pdfrwt beam="2">  1       -2 0.26130121E-01 0.80774393E+03</pdfrwt>
<totfact> 0.41635450E+02</totfact>
</mgrwt>
<rwgt>
<wgt id='morphing_basis_vector_1'> +2.8866325e-04 </wgt>
<wgt id='morphing_basis_vector_2'> +3.5248901e-04 </wgt>
<wgt id='morphing_basis_vector_3'> +2.3927955e-04 </wgt>
<wgt id='morphing_basis_vector_4'> +1.5223252e-05 </wgt>
<wgt id='morphing_basis_vector_5'> +1.6513128e-04 </wgt>
</rwgt>
</event>
<event>
 4      1 +2.9741700e-06 8.67728100e+02 7.81860800e-03 8.82163400e-02
        2 -1    0    0  501    0 +0.0000000000e+00 +0.0000000000e+00 +6.9626018599e+02 6.9626018599e+02 0.0000000000e+00 0.0000e+00 -1.0000e+00
       -2 -1    0    0    0  501 -0.0000000000e+00 -0.0000000000e+00 -2.7035586281e+02 2.7035586281e+02 0.0000000000e+00 0.0000e+00 1.0000e+00
      -13  1    1    2    0    0 +2.1859527280e+02 -4.9460835024e+01 -2.0087793834e+02 3.0096879174e+02 0.0000000000e+00 0.0000e+00 1.0000e+00
       13  1    1    2    0    0 -2.1859527280e+02 +4.9460835024e+01 +6.2678226151e+02 6.6564725707e+02 0.0000000000e+00 0.0000e+00 -1.0000e+00
<mgrwt>
<rscale>  0 0.86772812E+03</rscale>
<asrwt>0</asrwt>
<pdfrwt beam="1">  1        2 0.10711695E+00 0.86772812E+03</pdfrwt>
<pdfrwt beam="2">  1       -2 0.41593210E-01 0.86772812E+03</pdfrwt>
<totfact> 0.27345009E+02</totfact>
</mgrwt>
<rwgt>
<wgt id='morphing_basis_vector_1'> +2.7928293e-04 </wgt>
<wgt id='morphing_basis_vector_2'> +1.7081611e-04 </wgt>
<wgt id='morphing_basis_vector_3'> +2.5791570e-04 </wgt>
<wgt id='morphing_basis_vector_4'> +1.4832964e-04 </wgt>
<wgt id='morphing_basis_vector_5'> +2.3367190e-04 </wgt>
</rwgt>
</event>
<event>
 4      1 +2.9741700e-06 8.00290600e+02 7.81860800e-03 8.90188800e-02
        2 -1    0    0  501    0 +0.0000000000e+00 +0.0000000000e+00 +5.3359732857e+02 5.3359732857e+02 0.0000000000e+00 0.0000e+00 -1.0000e+00
       -2 -1    0    0    0  501 -0.0000000000e+00 -0.0000000000e+00 -3.0006945983e+02 3.0006945983e+02 0.0000000000e+00 0.0000e+00 1.0000e+00
      -13  1    1    2    0    0 +1.7934342753e+02 -1.8920375270e+02 -1.9946543479e+02 3.2825079545e+02 0.0000000000e+00 0.0000e+00 1.0000e+00
       13  1    1    2    0    0 -1.7934342753e+02 +1.8920375270e+02 +4.3299330353e+02 5.0541599296e+02 0.0000000000e+00 0.0000e+00 -1.0000e+00
<mgrwt>
<rscale>  0 0.80029060E+03</rscale>
<asrwt>0</asrwt>
<pdfrwt beam="1">  1        2 0.82091896E-01 0.80029060E+03</pdfrwt>
<pdfrwt beam="2">  1       -2 0.46164532E-01 0.80029060E+03</pdfrwt>
<totfact> 0.30840261E+02</totfact>
</mgrwt>
<rwgt>
<wgt id='morphing_basis_vector_1'> +2.0924580e-04 </wgt>
<wgt id='morphing_basis_vector_2'> +1.2637410e-04 </wgt>
<wgt id='morphing_basis_vector_3'> +1.8794024e-04 </wgt>
<wgt id='morphing_basis_vector_4'> +1.0326585e-04 </wgt>
<wgt id='morphing_basis_vector_5'> +1.6216586e-04 </wgt>
</rwgt>
</event>
<event>
 4      1 +2.9741700e-06 7.86928300e+02 7.81860800e-03 8.91878500e-02
        2 -1    0    0  501    0 +0.0000000000e+00 +0.0000000000e+00 +1.9838135999e+02 1.9838135999e+02 0.0000000000e+00 0.0000e+00 -1.0000e+00
       -2 -1    0    0    0  501 -0.0000000000e+00 -0.0000000000e+00 -7.8038599718e+02 7.8038599718e+02 0.0000000000e+00 0.0000e+00 1.0000e+00
      -13  1    1    2    0    0 +1.3650917155e+02 -5.0470311258e+00 -7.4994580794e+02 7.6228534112e+02 0.0000000000e+00 0.0000e+00 1.0000e+00
       13  1    1    2    0    0 -1.3650917155e+02 +5.0470311258e+00 +1.6794117075e+02 2.1648201605e+02 0.0000000000e+00 0.0000e+00 -1.0000e+00
<mgrwt>
<rscale>  0 0.78692830E+03</rscale>
<asrwt>0</asrwt>
<pdfrwt beam="1">  1        2 0.30520209E-01 0.78692830E+03</pdfrwt>
<pdfrwt beam="2">  1       -2 0.12005938E+00 0.78692830E+03</pdfrwt>
<totfact> 0.11472873E+02</totfact>
</mgrwt>
<rwgt>
<wgt id='morphing_basis_vector_1'> +1.9701334e-04 </wgt>
<wgt id='morphing_basis_vector_2'> +1.1827306e-04 </wgt>
<wgt id='morphing_basis_vector_3'> +1.7590878e-04 </wgt>
<wgt id='morphing_basis_vector_4'> +9.5887229e-05 </wgt>
<wgt id='morphing_basis_vector_5'> +1.5015134e-04 </wgt>
</rwgt>
</event>
<event>
 4      1 +2.9741700e-06 8.83318700e+02 7.81860800e-03 8.80417100e-02
        2 -1    0    0  501    0 +0.0000000000e+00 +0.0000000000e+00 +1.3512414989e+03 1.3512414989e+03 0.0000000000e+00 0.0000e+00 1.0000e+00
       -2 -1    0    0    0  501 -0.0000000000e+00 -0.0000000000e+00 -1.4435834296e+02 1.4435834296e+02 0.0000000000e+00 0.0000e+00 -1.0000e+00
      -13  1    1    2    0    0 -4.0726543391e+02 +1.5672675370e+02 +7.1870803092e+02 8.4081486827e+02 0.0000000000e+00 0.0000e+00 1.0000e+00
       13  1    1    2    0    0 +4.0726543391e+02 -1.5672675370e+02 +4.8817512506e+02 6.5478497364e+02 0.0000000000e+00 0.0000e+00 -1.0000e+00
<mgrwt>
<rscale>  0 0.88331871E+03</rscale>
<asrwt>0</asrwt>
<pdfrwt beam="1">  1        2 0.20788330E+00 0.88331871E+03</pdfrwt>
<pdfrwt beam="2">  1       -2 0.22208977E-01 0.88331871E+03</pdfrwt>
<totfact> 0.32164701E+02</totfact>
</mgrwt>
<rwgt>
<wgt id='morphing_basis_vector_1'> +3.1590558e-04 </wgt>
<wgt id='morphing_basis_vector_2'> +2.3778309e-04 </wgt>
<wgt id='morphing_basis_vector_3'> +2.9028574e-04 </wgt>
<wgt id='morphing_basis_vector_4'> +1.3519288e-04 </wgt>
<wgt id='morphing_basis_vector_5'> +2.5168864e-04 </wgt>
</rwgt>
</event>
<event>
 4      1 +2.9741700e-06 8.18981200e+02 7.81860800e-03 8.87883100e-02
        2 -1    0    0  501    0 +0.0000000000e+00 +0.0000000000e+00 +1.3812152647e+03 1.3812152647e+03 0.0000000000e+00 0.0000e+00 -1.0000e+00
       -2 -1    0    0    0  501 -0.0000000000e+00 -0.0000000000e+00 -1.2140217573e+02 1.2140217573e+02 0.0000000000e+00 0.0000e+00 1.0000e+00
      -13  1    1    2    0    0 -3.8543181094e+02 -1.2993660491e+02 +5.4304490882e+02 6.7848284811e+02 0.0000000000e+00 0.0000e+00 1.0000e+00
       13  1    1    2    0    0 +3.8543181094e+02 +1.2993660491e+02 +7.1676818013e+02 8.2413459230e+02 0.0000000000e+00 0.0000e+00 -1.0000e+00
<mgrwt>
<rscale>  0 0.81898117E+03</rscale>
<asrwt>0</asrwt>
<pdfrwt beam="1">  1        2 0.21249465E+00 0.81898117E+03</pdfrwt>
<pdfrwt beam="2">  1       -2 0.18677259E-01 0.81898117E+03</pdfrwt>
<totfact> 0.41498278E+02</totfact>
</mgrwt>
<rwgt>
<wgt id='morphing_basis_vector_1'> +2.3217990e-04 </wgt>
<wgt id='morphing_basis_vector_2'> +1.5320760e-04 </wgt>
<wgt id='morphing_basis_vector_3'> +2.0890375e-04 </wgt>
<wgt id='morphing_basis_vector_4'> +1.0799329e-04 </wgt>
<wgt id='morphing_basis_vector_5'> +1.7982773e-04 </wgt>
</rwgt>
</event>
<event>
 4      1 +2.9741700e-06 7.56367900e+02 7.81860800e-03 8.95880400e-02
        2 -1    0    0  501    0 +0.0000000000e+00 +0.0000000000e+00 +8.5901686294e+02 8.5901686294e+02 0.0000000000e+00 0.0000e+00 1.0000e+00
       -2 -1    0    0    0  501 -0.0000000000e+00 -0.0000000000e+00 -1.6649628641e+02 1.6649628641e+02 0.0000000000e+00 0.0000e+00 -1.0000e+00
      -13  1    1    2    0    0 +9.0144647733e+01 +1.3455214897e+02 -1.1709712334e+02 1.9985513404e+02 0.0000000000e+00 0.0000e+00 -1.0000e+00
       13  1    1    2    0    0 -9.0144647733e+01 -1.3455214897e+02 +8.0961769987e+02 8.2565801531e+02 0.0000000000e+00 0.0000e+00 1.0000e+00
<mgrwt>
<rscale>  0 0.75636795E+03</rscale>
<asrwt>0</asrwt>
<pdfrwt beam="1">  1        2 0.13215644E+00 0.75636795E+03</pdfrwt>
<pdfrwt beam="2">  1       -2 0.25614814E-01 0.75636795E+03</pdfrwt>
<totfact> 0.50230996E+02</totfact>
</mgrwt>
<rwgt>
<wgt id='morphing_basis_vector_1'> +1.7143314e-04 </wgt>
<wgt id='morphing_basis_vector_2'> +1.0215411e-04 </wgt>
<wgt id='morphing_basis_vector_3'> +1.5078066e-04 </wgt>
<wgt id='morphing_basis_vector_4'> +8.0101179e-05 </wgt>
<wgt id='morphing_basis_vector_5'> +1.2507535e-04 </wgt>
</rwgt>
</event>
<event>
 4      1 +2.9741700e-06 8.07226800e+02 7.81860800e-03 8.89325400e-02
        2 -1    0    0  501    0 +0.0000000000e+00 +0.0000000000e+00 +3.8624694367e+02 3.8624694367e+02 0.0000000000e+00 0.0000e+00 -1.0000e+00
       -2 -1    0    0    0  501 -0.0000000000e+00 -0.0000000000e+00 -4.2176071176e+02 4.2176071176e+02 0.0000000000e+00 0.0000e+00 1.0000e+00
      -13  1    1    2    0    0 +5.7326153397e+01 -4.1905653836e+01 -4.1545898538e+02 4.2148373660e+02 0.0000000000e+00 0.0000e+00 1.0000e+00
       13  1    1    2    0    0 -5.7326153397e+01 +4.1905653836e+01 +3.7994521729e+02 3.8652391883e+02 0.0000000000e+00 0.0000e+00 -1.0000e+00
<mgrwt>
<rscale>  0 0.80722682E+03</rscale>
<asrwt>0</asrwt>
<pdfrwt beam="1">  1        2 0.59422607E-01 0.80722682E+03</pdfrwt>
<pdfrwt beam="2">  1       -2 0.64886263E-01 0.80722682E+03</pdfrwt>
<totfact> 0.22514293E+02</totfact>
</mgrwt>
<rwgt>
<wgt id='morphing_basis_vector_1'> +2.1559223e-04 </wgt>
<wgt id='morphing_basis_vector_2'> +1.3003073e-04 </wgt>
<wgt id='morphing_basis_vector_3'> +1.9428867e-04 </wgt>
<wgt id='morphing_basis_vector_4'> +1.0755050e-04 </wgt>
<wgt id='morphing_basis_vector_5'> +1.6868023e-04 </wgt>
</rwgt>
</event>
<event>
 4      1 +2.9741700e-06 7.71434700e+02 7.81860800e-03 8.93882700e-02
        2 -1    0    0  501    0 +0.0000000000e+00 +0.0000000000e+00 +3.7537343923e+02 3.7537343923e+02 0.0000000000e+00 0.0000e+00 -1.0000e+00
       -2 -1    0    0    0  501 -0.0000000000e+00 -0.0000000000e+00 -3.9634626448e+02 3.9634626448e+02 0.0000000000e+00 0.0000e+00 1.0000e+00
      -13  1    1    2    0    0 +3.2332125984e+02 -1.4587620689e+02 -1.6207245039e+02 3.8997946610e+02 0.0000000000e+00 0.0000e+00 1.0000e+00
       13  1    1    2    0    0 -3.2332125984e+02 +1.4587620689e+02 +1.4109962513e+02 3.8174023762e+02 0.0000000000e+00 0.0000e+00 -1.0000e+00
<mgrwt>
<rscale>  0 0.77143466E+03</rscale>
<asrwt>0</asrwt>
<pdfrwt beam="1">  1        2 0.57749760E-01 0.77143466E+03</pdfrwt>
<pdfrwt beam="2">  1       -2 0.60976348E-01 0.77143466E+03</pdfrwt>
<totfact> 0.26490718E+02</totfact>
</mgrwt>
<rwgt>
<wgt id='morphing_basis_vector_1'> +1.8501044e-04 </wgt>
<wgt id='morphing_basis_vector_2'> +1.1390335e-04 </wgt>
<wgt id='morphing_basis_vector_3'> +1.6349909e-04 </wgt>
<wgt id='morphing_basis_vector_4'> +8.6037968e-05 </wgt>
<wgt id='morphing_basis_vector_5'> +1.3696650e-04 </wgt>
</rwgt>
</event>
<event>
 4      1 +2.9741700e-06 7.97300800e+02 7.81860800e-03 8.90563800e-02
        2 -1    0    0  501    0 +0.0000000000e+00 +0.0000000000e+00 +1.8091614814e+03 1.8091614814e+03 0.0000000000e+00 0.0000e+00 1.0000e+00
       -2 -1    0    0    0  501 -0.0000000000e+00 -0.0000000000e+00 -8.7842991835e+01 8.7842991835e+01 0.0000000000e+00 0.0000e+00 -1.0000e+00
      -13  1    1    2    0    0 -3.0310280050e+02 -2.0557344343e+02 +4.8604181590e+02 6.0857899661e+02 0.0000000000e+00 0.0000e+00 -1.0000e+00
       13  1    1    2    0    0 +3.0310280050e+02 +2.0557344343e+02 +1.2352766737e+03 1.2884254766e+03 0.0000000000e+00 0.0000e+00 1.0000e+00
<mgrwt>
<rscale>  0 0.79730084E+03</rscale>
<asrwt>0</asrwt>
<pdfrwt beam="1">  1        2 0.27833251E+00 0.79730084E+03</pdfrwt>
<pdfrwt beam="2">  1       -2 0.13514308E-01 0.79730084E+03</pdfrwt>
<totfact> 0.40876601E+02</totfact>
</mgrwt>
<rwgt>
<wgt id='morphing_basis_vector_1'> +2.0782048e-04 </wgt>
<wgt id='morphing_basis_vector_2'> +1.2869654e-04 </wgt>
<wgt id='morphing_basis_vector_3'> +1.8599927e-04 </wgt>
<wgt id='morphing_basis_vector_4'> +9.9868176e-05 </wgt>
<wgt id='morphing_basis_vector_5'> +1.5934737e-04 </wgt>
</rwgt>
</event>
<event>
 4      1 +2.9741700e-06 8.11946300e+02 7.81860800e-03 8.88743200e-02
        2 -1    0    0  501    0 +0.0000000000e+00 +0.0000000000e+00 +9.1551024624e+02 9.1551024624e+02 0.0000000000e+00 0.0000e+00 -1.0000e+00
       -2 -1    0    0    0  501 -0.0000000000e+00 -0.0000000000e+00 -1.8002440648e+02 1.8002440648e+02 0.0000000000e+00 0.0000e+00 1.0000e+00
      -13  1    1    2    0    0 +2.8440290905e+02 +1.5352529661e+02 +3.6252937129e+01 3.2522193473e+02 0.0000000000e+00 0.0000e+00 1.0000e+00
       13  1    1    2    0    0 -2.8440290905e+02 -1.5352529661e+02 +6.9923290263e+02 7.7031271799e+02 0.0000000000e+00 0.0000e+00 -1.0000e+00
<mgrwt>
<rscale>  0 0.81194628E+03</rscale>
<asrwt>0</asrwt>
<pdfrwt beam="1">  1        2 0.14084773E+00 0.81194628E+03</pdfrwt>
<pdfrwt beam="2">  1       -2 0.27696063E-01 0.81194628E+03</pdfrwt>
<totfact> 0.40194100E+02</totfact>
</mgrwt>
<rwgt>
<wgt id='morphing_basis_vector_1'> +2.2061910e-04 </wgt>
<wgt id='morphing_basis_vector_2'> +1.3447313e-04 </wgt>
<wgt id='morphing_basis_vector_3'> +1.9908619e-04 </wgt>
<wgt id='morphing_basis_vector_4'> +1.0973959e-04 </wgt>
<wgt id='morphing_basis_vector_5'> +1.7318384e-04 </wgt>
</rwgt>
</event>
<event>
 4      1 +2.9741700e-06 8.52583800e+02 7.81860800e-03 8.83897000e-02
        2 -1    0    0  501    0 +0.0000000000e+00 +0.0000000000e+00 +8.0675300181e+02 8.0675300181e+02 0.0000000000e+00 0.0000e+00 -1.0000e+00
       -2 -1    0    0    0  501 -0.0000000000e+00 -0.0000000000e+00 -2.2525456789e+02 2.2525456789e+02 0.0000000000e+00 0.0000e+00 1.0000e+00
      -13  1    1    2    0    0 -1.0251650277e+02 -2.6006702985e+02 -9.8819775826e+01 2.9649593834e+02 0.0000000000e+00 0.0000e+00 1.0000e+00
       13  1    1    2    0    0 +1.0251650277e+02 +2.6006702985e+02 +6.8031820974e+02 7.3551163136e+02 0.0000000000e+00 0.0000e+00 -1.0000e+00
<mgrwt>
<rscale>  0 0.85258383E+03</rscale>
<asrwt>0</asrwt>
<pdfrwt beam="1">  1        2 0.12411585E+00 0.85258383E+03</pdfrwt>
<pdfrwt beam="2">  1       -2 0.34654549E-01 0.85258383E+03</pdfrwt>
<totfact> 0.31850534E+02</totfact>
</mgrwt>
<rwgt>
<wgt id='morphing_basis_vector_1'> +2.6227468e-04 </wgt>
<wgt id='morphing_basis_vector_2'> +1.6025582e-04 </wgt>
<wgt id='morphing_basis_vector_3'> +2.4079257e-04 </wgt>
<wgt id='morphing_basis_vector_4'> +1.3701010e-04 </wgt>
<wgt id='morphing_basis_vector_5'> +2.1594410e-04 </wgt>
</rwgt>
</event>
<event>
 4      1 +2.9741700e-06 7.68896800e+02 7.81860800e-03 8.94215800e-02
        2 -1    0    0  501    0 +0.0000000000e+00 +0.0000000000e+00 +1.1642521166e+03 1.1642521166e+03 0.0000000000e+00 0.0000e+00 1.0000e+00
       -2 -1    0    0    0  501 -0.0000000000e+00 -0.0000000000e+00 -1.2694893899e+02 1.2694893899e+02 0.0000000000e+00 0.0000e+00 -1.0000e+00
      -13  1    1    2    0    0 -2.5567382393e+02 +1.2274197561e+02 +8.2792812126e+01 2.9544770528e+02 0.0000000000e+00 0.0000e+00 -1.0000e+00
       13  1    1    2    0    0 +2.5567382393e+02 -1.2274197561e+02 +9.5451036547e+02 9.9575335029e+02 0.0000000000e+00 0.0000e+00 1.0000e+00
<mgrwt>
<rscale>  0 0.76889680E+03</rscale>
<asrwt>0</asrwt>
<pdfrwt beam="1">  1        2 0.17911570E+00 0.76889680E+03</pdfrwt>
<pdfrwt beam="2">  1       -2 0.19530607E-01 0.76889680E+03</pdfrwt>
<totfact> 0.51382531E+02</totfact>
</mgrwt>
<rwgt>
<wgt id='morphing_basis_vector_1'> +1.8183383e-04 </wgt>
<wgt id='morphing_basis_vector_2'> +1.0930774e-04 </wgt>
<wgt id='morphing_basis_vector_3'> +1.6085656e-04 </wgt>
<wgt id='morphing_basis_vector_4'> +8.6022835e-05 </wgt>
<wgt id='morphing_basis_vector_5'> +1.3494821e-04 </wgt>
</rwgt>
</event>
<event>
 4      1 +2.9741700e-06 8.29974400e+02 7.81860800e-03 8.86557100e-02
        2 -1    0    0  501    0 +0.0000000000e+00 +0.0000000000e+00 +8.6579746071e+02 8.6579746071e+02 0.0000000000e+00 0.0000e+00 1.0000e+00
       -2 -1    0    0    0  501 -0.0000000000e+00 -0.0000000000e+00 -1.9890839093e+02 1.9890839093e+02 0.0000000000e+00 0.0000e+00 -1.0000e+00
      -13  1    1    2    0    0 -4.2302286613e+01 +2.7602335654e+02 -6.0353339804e+01 2.8569372138e+02 0.0000000000e+00 0.0000e+00 -1.0000e+00
       13  1    1    2    0    0 +4.2302286613e+01 -2.7602335654e+02 +7.2724240958e+02 7.7901213026e+02 0.0000000000e+00 0.0000e+00 1.0000e+00
<mgrwt>
<rscale>  0 0.82997441E+03</rscale>
<asrwt>0</asrwt>
<pdfrwt beam="1">  1        2 0.13319961E+00 0.82997441E+03</pdfrwt>
<pdfrwt beam="2">  1       -2 0.30601291E-01 0.82997441E+03</pdfrwt>
<totfact> 0.36323909E+02</totfact>
</mgrwt>
<rwgt>
<wgt id='morphing_basis_vector_1'> +2.3822747e-04 </wgt>
<wgt id='morphing_basis_vector_2'> +1.4492878e-04 </wgt>
<wgt id='morphing_basis_vector_3'> +2.1673284e-04 </wgt>
<wgt id='morphing_basis_vector_4'> +1.2152755e-04 </wgt>
<wgt id='morphing_basis_vector_5'> +1.9132614e-04 </wgt>
</rwgt>
</event>
<event>
 4      1 +2.9741700e-06 8.05149300e+02 7.81860800e-03 8.89583000e-02
        2 -1    0    0  501    0 +0.0000000000e+00 +0.0000000000e+00 +1.0079683662e+03 1.0079683662e+03 0.0000000000e+00 0.0000e+00 1.0000e+00
       -2 -1    0    0    0  501 -0.0000000000e+00 -0.0000000000e+00 -1.6078517047e+02 1.6078517047e+02 0.0000000000e+00 0.0000e+00 -1.0000e+00
      -13  1    1    2    0    0 +1.3377210266e+02 -2.9689134559e+02 +7.9998155557e+01 3.3531947666e+02 0.0000000000e+00 0.0000e+00 -1.0000e+00
       13  1    1    2    0    0 -1.3377210266e+02 +2.9689134559e+02 +7.6718504017e+02 8.3343406001e+02 0.0000000000e+00 0.0000e+00 1.0000e+00
<mgrwt>
<rscale>  0 0.80514934E+03</rscale>
<asrwt>0</asrwt>
<pdfrwt beam="1">  1        2 0.15507205E+00 0.80514934E+03</pdfrwt>
<pdfrwt beam="2">  1       -2 0.24736181E-01 0.80514934E+03</pdfrwt>
<totfact> 0.42732935E+02</totfact>
</mgrwt>
<rwgt>
<wgt id='morphing_basis_vector_1'> +2.1418524e-04 </wgt>
<wgt id='morphing_basis_vector_2'> +1.3048639e-04 </wgt>
<wgt id='morphing_basis_vector_3'> +1.9268033e-04 </wgt>
<wgt id='morphing_basis_vector_4'> +1.0560587e-04 </wgt>
<wgt id='morphing_basis_vector_5'> +1.6668161e-04 </wgt>
</rwgt>
</event>
<event>
 4      1 +2.9741700e-06 8.42513900e+02 7.81860800e-03 8.85070900e-02
        2 -1    0    0  501    0 +0.0000000000e+00 +0.0000000000e+00 +3.1002096543e+02 3.1002096543e+02 0.0000000000e+00 0.0000e+00 -1.0000e+00
       -2 -1    0    0    0  501 -0.0000000000e+00 -0.0000000000e+00 -5.7240458615e+02 5.7240458615e+02 0.0000000000e+00 0.0000e+00 1.0000e+00
      -13  1    1    2    0    0 +3.6509143238e+01 +2.5496476973e+02 -4.8032583055e+02 5.4502555430e+02 0.0000000000e+00 0.0000e+00 1.0000e+00
       13  1    1    2    0    0 -3.6509143238e+01 -2.5496476973e+02 +2.1794220983e+02 3.3739999728e+02 0.0000000000e+00 0.0000e+00 -1.0000e+00
<mgrwt>
<rscale>  0 0.84251391E+03</rscale>
<asrwt>0</asrwt>
<pdfrwt beam="1">  1        2 0.47695534E-01 0.84251391E+03</pdfrwt>
<pdfrwt beam="2">  1       -2 0.88062243E-01 0.84251391E+03</pdfrwt>
<totfact> 0.14670923E+02</totfact>
</mgrwt>
<rwgt>
<wgt id='morphing_basis_vector_1'> +2.5127129e-04 </wgt>
<wgt id='morphing_basis_vector_2'> +1.5306685e-04 </wgt>
<wgt id='morphing_basis_vector_3'> +2.2979044e-04 </wgt>
<wgt id='morphing_basis_vector_4'> +1.3004090e-04 </wgt>
<wgt id='morphing_basis_vector_5'> +2.0471811e-04 </wgt>
</rwgt>
</event>
<event>
 4      1 +2.9741700e-06 7.89460400e+02 7.81860800e-03 8.91555500e-02
        2 -1    0    0  501    0 +0.0000000000e+00 +0.0000000000e+00 +3.5961979259e+02 3.5961979259e+02 0.0000000000e+00 0.0000e+00 -1.0000e+00
       -2 -1    0    0    0  501 -0.0000000000e+00 -0.0000000000e+00 -4.3326850683e+02 4.3326850683e+02 0.0000000000e+00 0.0000e+00 1.0000e+00
      -13  1    1    2    0    0 -8.7664395506e+01 -3.7919651308e+02 -1.0296536399e+02 4.0258776429e+02 0.0000000000e+00 0.0000e+00 -1.0000e+00
       13  1    1    2    0    0 +8.7664395506e+01 +3.7919651308e+02 +2.9316649748e+01 3.9030053514e+02 0.0000000000e+00 0.0000e+00 1.0000e+00
<mgrwt>
<rscale>  0 0.78946040E+03</rscale>
<asrwt>0</asrwt>
<pdfrwt beam="1">  1        2 0.55326122E-01 0.78946040E+03</pdfrwt>
<pdfrwt beam="2">  1       -2 0.66656693E-01 0.78946040E+03</pdfrwt>
<totfact> 0.23086592E+02</totfact>
</mgrwt>
<rwgt>
<wgt id='morphing_basis_vector_1'> +2.0299975e-04 </wgt>
<wgt id='morphing_basis_vector_2'> +1.3115282e-04 </wgt>
<wgt id='morphing_basis_vector_3'> +1.8027143e-04 </wgt>
<wgt id='morphing_basis_vector_4'> +9.2641323e-05 </wgt>
<wgt id='morphing_basis_vector_5'> +1.5218674e-04 </wgt>
</rwgt>
</event>
<event>
 4      1 +2.9741700e-06 7.70751500e+02 7.81860800e-03 8.93972300e-02
        2 -1    0    0  501    0 +0.0000000000e+00 +0.0000000000e+00 +1.9758365967e+03 1.9758365967e+03 0.0000000000e+00 0.0000e+00 1.0000e+00
       -2 -1    0    0    0  501 -0.0000000000e+00 -0.0000000000e+00 -7.5165368407e+01 7.5165368407e+01 0.0000000000e+00 0.0000e+00 -1.0000e+00
      -13  1    1    2    0    0 +8.5576375947e+00 -3.1260962692e+02 +3.5106056283e+02 4.7015054055e+02 0.0000000000e+00 0.0000e+00 -1.0000e+00
       13  1    1    2    0    0 -8.5576375947e+00 +3.1260962692e+02 +1.5496106655e+03 1.5808514246e+03 0.0000000000e+00 0.0000e+00 1.0000e+00
<mgrwt>
<rscale>  0 0.77075154E+03</rscale>
<asrwt>0</asrwt>
<pdfrwt beam="1">  1        2 0.30397482E+00 0.77075154E+03</pdfrwt>
<pdfrwt beam="2">  1       -2 0.11563904E-01 0.77075154E+03</pdfrwt>
<totfact> 0.42529709E+02</totfact>
</mgrwt>
<rwgt>
<wgt id='morphing_basis_vector_1'> +1.8359774e-04 </wgt>
<wgt id='morphing_basis_vector_2'> +1.1096011e-04 </wgt>
<wgt id='morphing_basis_vector_3'> +1.6248934e-04 </wgt>
<wgt id='morphing_basis_vector_4'> +8.6704176e-05 </wgt>
<wgt id='morphing_basis_vector_5'> +1.3644708e-04 </wgt>
</rwgt>
</event>
<event>
 4      1 +2.9741700e-06 7.66264100e+02 7.81860800e-03 8.94562800e-02
        2 -1    0    0  501    0 +0.0000000000e+00 +0.0000000000e+00 +1.0271182411e+03 1.0271182411e+03 0.0000000000e+00 0.0000e+00 -1.0000e+00
       -2 -1    0    0    0  501 -0.0000000000e+00 -0.0000000000e+00 -1.4291456877e+02 1.4291456877e+02 0.0000000000e+00 0.0000e+00 1.0000e+00
      -13  1    1    2    0    0 +1.4881140624e+02 -1.6510466532e+02 -3.4403024599e+01 2.2491765879e+02 0.0000000000e+00 0.0000e+00 1.0000e+00
       13  1    1    2    0    0 -1.4881140624e+02 +1.6510466532e+02 +9.1860669696e+02 9.4511515110e+02 0.0000000000e+00 0.0000e+00 -1.0000e+00
<mgrwt>
<rscale>  0 0.76626408E+03</rscale>
<asrwt>0</asrwt>
<pdfrwt beam="1">  1        2 0.15801819E+00 0.76626408E+03</pdfrwt>
<pdfrwt beam="2">  1       -2 0.21986857E-01 0.76626408E+03</pdfrwt>
<totfact> 0.50889659E+02</totfact>
</mgrwt>
<rwgt>
<wgt id='morphing_basis_vector_1'> +1.7947073e-04 </wgt>
<wgt id='morphing_basis_vector_2'> +1.0735158e-04 </wgt>
<wgt id='morphing_basis_vector_3'> +1.5862496e-04 </wgt>
<wgt id='morphing_basis_vector_4'> +8.4918328e-05 </wgt>
<wgt id='morphing_basis_vector_5'> +1.3283527e-04 </wgt>
</rwgt>
</event>
<event>
 4      1 +2.9741700e-06 8.80247400e+02 7.81860800e-03 8.80758100e-02
        2 -1    0    0  501    0 +0.0000000000e+00 +0.0000000000e+00 +6.8704125290e+02 6.8704125290e+02 0.0000000000e+00 0.0000e+00 -1.0000e+00
       -2 -1    0    0    0  501 -0.0000000000e+00 -0.0000000000e+00 -2.8194647381e+02 2.8194647381e+02 0.0000000000e+00 0.0000e+00 1.0000e+00
      -13  1    1    2    0    0 +2.9917651558e+02 -2.0123617377e+02 -7.5298924935e+01 3.6833749905e+02 0.0000000000e+00 0.0000e+00 1.0000e+00
       13  1    1    2    0    0 -2.9917651558e+02 +2.0123617377e+02 +4.8039370403e+02 6.0065022765e+02 0.0000000000e+00 0.0000e+00 -1.0000e+00
<mgrwt>
<rscale>  0 0.88024737E+03</rscale>
<asrwt>0</asrwt>
<pdfrwt beam="1">  1        2 0.10569865E+00 0.88024737E+03</pdfrwt>
<pdfrwt beam="2">  1       -2 0.43376381E-01 0.88024737E+03</pdfrwt>
<totfact> 0.25660156E+02</totfact>
</mgrwt>
<rwgt>
<wgt id='morphing_basis_vector_1'> +2.9487735e-04 </wgt>
<wgt id='morphing_basis_vector_2'> +1.8268058e-04 </wgt>
<wgt id='morphing_basis_vector_3'> +2.7342572e-04 </wgt>
<wgt id='morphing_basis_vector_4'> +1.5694239e-04 </wgt>
<wgt id='morphing_basis_vector_5'> +2.4903958e-04 </wgt>
</rwgt>
</event>
<event>
 4      1 +2.9741700e-06 8.17400600e+02 7.81860800e-03 8.88075500e-02
        2 -1    0    0  501    0 +0.0000000000e+00 +0.0000000000e+00 +2.3985900514e+02 2.3985900514e+02 0.0000000000e+00 0.0000e+00 1.0000e+00
       -2 -1    0    0    0  501 -0.0000000000e+00 -0.0000000000e+00 -6.9639216507e+02 6.9639216507e+02 0.0000000000e+00 0.0000e+00 -1.0000e+00
      -13  1    1    2    0    0 +1.6493649760e+02 +2.4480091857e+02 -5.5204116583e+02 6.2600398301e+02 0.0000000000e+00 0.0000e+00 -1.0000e+00
       13  1    1    2    0    0 -1.6493649760e+02 -2.4480091857e+02 +9.5508005902e+01 3.1024718720e+02 0.0000000000e+00 0.0000e+00 1.0000e+00
<mgrwt>
<rscale>  0 0.81740059E+03</rscale>
<asrwt>0</asrwt>
<pdfrwt beam="1">  1        2 0.36901386E-01 0.81740059E+03</pdfrwt>
<pdfrwt beam="2">  1       -2 0.10713726E+00 0.81740059E+03</pdfrwt>
<totfact> 0.12296080E+02</totfact>
</mgrwt>
<rwgt>
<wgt id='morphing_basis_vector_1'> +2.2569979e-04 </wgt>
<wgt id='morphing_basis_vector_2'> +1.3715744e-04 </wgt>
<wgt id='morphing_basis_vector_3'> +2.0422137e-04 </wgt>
<wgt id='morphing_basis_vector_4'> +1.1338811e-04 </wgt>
<wgt id='morphing_basis_vector_5'> +1.7854332e-04 </wgt>
</rwgt>
</event>
<event>
 4      1 +2.9741700e-06 8.43961000e+02 7.81860800e-03 8.84901200e-02
        2 -1    0    0  501    0 +0.0000000000e+00 +0.0000000000e+00 +2.5831249647e+02 2.5831249647e+02 0.0000000000e+00 0.0000e+00 1.0000e+00
       -2 -1    0    0    0  501 -0.0000000000e+00 -0.0000000000e+00 -6.8934931718e+02 6.8934931718e+02 0.0000000000e+00 0.0000e+00 -1.0000e+00
      -13  1    1    2    0    0 -2.6996515457e+01 +3.3152053506e+02 -5.0710450643e+02 6.0645664103e+02 0.0000000000e+00 0.0000e+00 -1.0000e+00
       13  1    1    2    0    0 +2.6996515457e+01 -3.3152053506e+02 +7.6067685722e+01 3.4120517262e+02 0.0000000000e+00 0.0000e+00 1.0000e+00
<mgrwt>
<rscale>  0 0.84396100E+03</rscale>
<asrwt>0</asrwt>
<pdfrwt beam="1">  1        2 0.39740385E-01 0.84396100E+03</pdfrwt>
<pdfrwt beam="2">  1       -2 0.10605374E+00 0.84396100E+03</pdfrwt>
<totfact> 0.11569423E+02</totfact>
</mgrwt>
<rwgt>
<wgt id='morphing_basis_vector_1'> +2.5324463e-04 </wgt>
<wgt id='morphing_basis_vector_2'> +1.5535056e-04 </wgt>
<wgt id='morphing_basis_vector_3'> +2.3163167e-04 </wgt>
<wgt id='morphing_basis_vector_4'> +1.3047142e-04 </wgt>
<wgt id='morphing_basis_vector_5'> +2.0627833e-04 </wgt>
</rwgt>
</event>
<event>
 4      1 +2.9741700e-06 8.13071000e+02 7.81860800e-03 8.88605100e-02
        2 -1    0    0  501    0 +0.0000000000e+00 +0.0000000000e+00 +1.2810648755e+03 1.2810648755e+03 0.0000000000e+00 0.0000e+00 -1.0000e+00
       -2 -1    0    0    0  501 -0.0000000000e+00 -0.0000000000e+00 -1.2901073049e+02 1.2901073049e+02 0.0000000000e+00 0.0000e+00 1.0000e+00
      -13  1    1    2    0    0 +3.1276984237e+02 +1.8182162177e+02 +2.5443057143e+02 4.4228835856e+02 0.0000000000e+00 0.0000e+00 1.0000e+00
       13  1    1    2    0    0 -3.1276984237e+02 -1.8182162177e+02 +8.9762357361e+02 9.6778724745e+02 0.0000000000e+00 0.0000e+00 -1.0000e+00
<mgrwt>
<rscale>  0 0.81307101E+03</rscale>
<asrwt>0</asrwt>
<pdfrwt beam="1">  1        2 0.19708690E+00 0.81307101E+03</pdfrwt>
<pdfrwt beam="2">  1       -2 0.19847806E-01 0.81307101E+03</pdfrwt>
<totfact> 0.42739642E+02</totfact>
</mgrwt>
<rwgt>
<wgt id='morphing_basis_vector_1'> +2.2237472e-04 </wgt>
<wgt id='morphing_basis_vector_2'> +1.3721198e-04 </wgt>
<wgt id='morphing_basis_vector_3'> +2.0058393e-04 </wgt>
<wgt id='morphing_basis_vector_4'> +1.0956496e-04 </wgt>
<wgt id='morphing_basis_vector_5'> +1.7423864e-04 </wgt>
</rwgt>
</event>
<event>
 4      1 +2.9741700e-06 8.22221000e+02 7.81860800e-03 8.87490000e-02
        2 -1    0    0  501    0 +0.0000000000e+00 +0.0000000000e+00 +1.2989863960e+03 1.2989863960e+03 0.0000000000e+00 0.0000e+00 -1.0000e+00
       -2 -1    0    0    0  501 -0.0000000000e+00 -0.0000000000e+00 -1.3011056102e+02 1.3011056102e+02 0.0000000000e+00 0.0000e+00 1.0000e+00
      -13  1    1    2    0    0 +3.3691144781e+01 +2.4418648401e+02 +1.2582148746e+01 2.4682066907e+02 0.0000000000e+00 0.0000e+00 1.0000e+00
       13  1    1    2    0    0 -3.3691144781e+01 -2.4418648401e+02 +1.1562936862e+03 1.1822762879e+03 0.0000000000e+00 0.0000e+00 -1.0000e+00
<mgrwt>
<rscale>  0 0.82222101E+03</rscale>
<asrwt>0</asrwt>
<pdfrwt beam="1">  1        2 0.19984405E+00 0.82222101E+03</pdfrwt>
<pdfrwt beam="2">  1       -2 0.20017010E-01 0.82222101E+03</pdfrwt>
<totfact> 0.41139750E+02</totfact>
</mgrwt>
<rwgt>
<wgt id='morphing_basis_vector_1'> +2.3029053e-04 </wgt>
<wgt id='morphing_basis_vector_2'> +1.3963975e-04 </wgt>
<wgt id='morphing_basis_vector_3'> +2.0885522e-04 </wgt>
<wgt id='morphing_basis_vector_4'> +1.1665453e-04 </wgt>
<wgt id='morphing_basis_vector_5'> +1.8337743e-04 </wgt>
</rwgt>
</event>
<event>
 4      1 +2.9741700e-06 8.04487800e+02 7.81860800e-03 8.89665300e-02
        2 -1    0    0  501    0 +0.0000000000e+00 +0.0000000000e+00 +7.5932610917e+02 7.5932610917e+02 0.0000000000e+00 0.0000e+00 1.0000e+00
       -2 -1    0    0    0  501 -0.0000000000e+00 -0.0000000000e+00 -2.1308387326e+02 2.1308387326e+02 0.0000000000e+00 0.0000e+00 -1.0000e+00
      -13  1    1    2    0    0 +3.2629085993e+02 +4.7520110673e+01 -5.3499757717e+00 3.2977645221e+02 0.0000000000e+00 0.0000e+00 -1.0000e+00
       13  1    1    2    0    0 -3.2629085993e+02 -4.7520110673e+01 +5.5159221168e+02 6.4263353023e+02 0.0000000000e+00 0.0000e+00 1.0000e+00
<mgrwt>
<rscale>  0 0.80448778E+03</rscale>
<asrwt>0</asrwt>
<pdfrwt beam="1">  1        2 0.11681940E+00 0.80448778E+03</pdfrwt>
<pdfrwt beam="2">  1       -2 0.32782135E-01 0.80448778E+03</pdfrwt>
<totfact> 0.38105116E+02</totfact>
</mgrwt>
<rwgt>
<wgt id='morphing_basis_vector_1'> +2.1361440e-04 </wgt>
<wgt id='morphing_basis_vector_2'> +1.3024859e-04 </wgt>
<wgt id='morphing_basis_vector_3'> +1.9209404e-04 </wgt>
<wgt id='morphing_basis_vector_4'> +1.0514944e-04 </wgt>
<wgt id='morphing_basis_vector_5'> +1.6605567e-04 </wgt>
</rwgt>
</event>
<event>
 4      1 +2.9741700e-06 7.71483700e+02 7.81860800e-03 8.93876300e-02
        2 -1    0    0  501    0 +0.0000000000e+00 +0.0000000000e+00 +8.7119127896e+02 8.7119127896e+02 0.0000000000e+00 0.0000e+00 -1.0000e+00
       -2 -1    0    0    0  501 -0.0000000000e+00 -0.0000000000e+00 -1.7079690189e+02 1.7079690189e+02 0.0000000000e+00 0.0000e+00 1.0000e+00
      -13  1    1    2    0    0 -7.5112119014e+01 -3.0387155179e+02 +4.5729896737e+01 3.1633996565e+02 0.0000000000e+00 0.0000e+00 1.0000e+00
       13  1    1    2    0    0 +7.5112119014e+01 +3.0387155179e+02 +6.5466448033e+02 7.2564821520e+02 0.0000000000e+00 0.0000e+00 -1.0000e+00
<mgrwt>
<rscale>  0 0.77148369E+03</rscale>
<asrwt>0</asrwt>
<pdfrwt beam="1">  1        2 0.13402942E+00 0.77148369E+03</pdfrwt>
<pdfrwt beam="2">  1       -2 0.26276447E-01 0.77148369E+03</pdfrwt>
<totfact> 0.47156020E+02</totfact>
</mgrwt>
<rwgt>
<wgt id='morphing_basis_vector_1'> +1.8421102e-04 </wgt>
<wgt id='morphing_basis_vector_2'> +1.1135086e-04 </wgt>
<wgt id='morphing_basis_vector_3'> +1.6309165e-04 </wgt>
<wgt id='morphing_basis_vector_4'> +8.7078464e-05 </wgt>
<wgt id='morphing_basis_vector_5'> +1.3704603e-04 </wgt>
</rwgt>
</event>
<event>
 4      1 +2.9741700e-06 7.98185300e+02 7.81860800e-03 8.90452700e-02
        2 -1    0    0  501    0 +0.0000000000e+00 +0.0000000000e+00 +2.5444716813e+02 2.5444716813e+02 0.0000000000e+00 0.0000e+00 -1.0000e+00
       -2 -1    0    0    0  501 -0.0000000000e+00 -0.0000000000e+00 -6.2596466540e+02 6.2596466540e+02 0.0000000000e+00 0.0000e+00 1.0000e+00
      -13  1    1    2    0    0 -6.7111997620e+01 +3.6298661427e+02 -1.8435655166e+01 3.6959866848e+02 0.0000000000e+00 0.0000e+00 1.0000e+00
       13  1    1    2    0    0 +6.7111997620e+01 -3.6298661427e+02 -3.5308184211e+02 5.1081316505e+02 0.0000000000e+00 0.0000e+00 -1.0000e+00
<mgrwt>
<rscale>  0 0.79818528E+03</rscale>
<asrwt>0</asrwt>
<pdfrwt beam="1">  1        2 0.39145719E-01 0.79818528E+03</pdfrwt>
<pdfrwt beam="2">  1       -2 0.96302255E-01 0.79818528E+03</pdfrwt>
<totfact> 0.14906735E+02</totfact>
</mgrwt>
<rwgt>
<wgt id='morphing_basis_vector_1'> +2.3328944e-04 </wgt>
<wgt id='morphing_basis_vector_2'> +2.0472575e-04 </wgt>
<wgt id='morphing_basis_vector_3'> +2.0142151e-04 </wgt>
<wgt id='morphing_basis_vector_4'> +6.9330683e-05 </wgt>
<wgt id='morphing_basis_vector_5'> +1.5883917e-04 </wgt>
</rwgt>
</event>
<event>
 4      1 +2.9741700e-06 7.86060400e+02 7.81860800e-03 8.91989400e-02
        2 -1    0    0  501    0 +0.0000000000e+00 +0.0000000000e+00 +1.3463165103e+03 1.3463165103e+03 0.0000000000e+00 0.0000e+00 -1.0000e+00
       -2 -1    0    0    0  501 -0.0000000000e+00 -0.0000000000e+00 -1.1473731954e+02 1.1473731954e+02 0.0000000000e+00 0.0000e+00 1.0000e+00
      -13  1    1    2    0    0 -2.7090834044e+02 +4.8052604102e+01 +9.4117951753e+01 2.9078956399e+02 0.0000000000e+00 0.0000e+00 1.0000e+00
       13  1    1    2    0    0 +2.7090834044e+02 -4.8052604102e+01 +1.1374612390e+03 1.1702642659e+03 0.0000000000e+00 0.0000e+00 -1.0000e+00
<mgrwt>
<rscale>  0 0.78606042E+03</rscale>
<asrwt>0</asrwt>
<pdfrwt beam="1">  1        2 0.20712561E+00 0.78606042E+03</pdfrwt>
<pdfrwt beam="2">  1       -2 0.17651896E-01 0.78606042E+03</pdfrwt>
<totfact> 0.47742047E+02</totfact>
</mgrwt>
<rwgt>
<wgt id='morphing_basis_vector_1'> +1.9645135e-04 </wgt>
<wgt id='morphing_basis_vector_2'> +1.1841297e-04 </wgt>
<wgt id='morphing_basis_vector_3'> +1.7526892e-04 </wgt>
<wgt id='morphing_basis_vector_4'> +9.5158584e-05 </wgt>
<wgt id='morphing_basis_vector_5'> +1.4938308e-04 </wgt>
</rwgt>
</event>
<event>
 4      1 +2.9741700e-06 7.69392400e+02 7.81860800e-03 8.94150700e-02
        2 -1    0    0  501    0 +0.0000000000e+00 +0.0000000000e+00 +2.2004437216e+03 2.2004437216e+03 0.0000000000e+00 0.0000e+00 -1.0000e+00
       -2 -1    0    0    0  501 -0.0000000000e+00 -0.0000000000e+00 -6.7255142351e+01 6.7255142351e+01 0.0000000000e+00 0.0000e+00 1.0000e+00
      -13  1    1    2    0    0 +3.0197586945e+02 +7.5960797873e+01 +4.0077331914e+02 5.0752213930e+02 0.0000000000e+00 0.0000e+00 1.0000e+00
       13  1    1    2    0    0 -3.0197586945e+02 -7.5960797873e+01 +1.7324152601e+03 1.7601767247e+03 0.0000000000e+00 0.0000e+00 -1.0000e+00
<mgrwt>
<rscale>  0 0.76939237E+03</rscale>
<asrwt>0</asrwt>
<pdfrwt beam="1">  1        2 0.33852975E+00 0.76939237E+03</pdfrwt>
<pdfrwt beam="2">  1       -2 0.10346947E-01 0.76939237E+03</pdfrwt>
<totfact> 0.38013887E+02</totfact>
</mgrwt>
<rwgt>
<wgt id='morphing_basis_vector_1'> +1.8245512e-04 </wgt>
<wgt id='morphing_basis_vector_2'> +1.1021188e-04 </wgt>
<wgt id='morphing_basis_vector_3'> +1.6137130e-04 </wgt>
<wgt id='morphing_basis_vector_4'> +8.6022516e-05 </wgt>
<wgt id='morphing_basis_vector_5'> +1.3534055e-04 </wgt>
</rwgt>
</event>
<event>
 4      1 +2.9741700e-06 8.43546400e+02 7.81860800e-03 8.84949800e-02
        2 -1    0    0  501    0 +0.0000000000e+00 +0.0000000000e+00 +4.1664120579e+02 4.1664120579e+02 0.0000000000e+00 0.0000e+00 -1.0000e+00
       -2 -1    0    0    0  501 -0.0000000000e+00 -0.0000000000e+00 -4.2696844494e+02 4.2696844494e+02 0.0000000000e+00 0.0000e+00 1.0000e+00
      -13  1    1    2    0    0 +1.7442374395e+02 -2.4913432756e+02 -2.9742017164e+02 4.2538255033e+02 0.0000000000e+00 0.0000e+00 1.0000e+00
       13  1    1    2    0    0 -1.7442374395e+02 +2.4913432756e+02 +2.8709293250e+02 4.1822710040e+02 0.0000000000e+00 0.0000e+00 -1.0000e+00
<mgrwt>
<rscale>  0 0.84354644E+03</rscale>
<asrwt>0</asrwt>
<pdfrwt beam="1">  1        2 0.64098647E-01 0.84354644E+03</pdfrwt>
<pdfrwt beam="2">  1       -2 0.65687453E-01 0.84354644E+03</pdfrwt>
<totfact> 0.20106430E+02</totfact>
</mgrwt>
<rwgt>
<wgt id='morphing_basis_vector_1'> +2.5256659e-04 </wgt>
<wgt id='morphing_basis_vector_2'> +1.5435393e-04 </wgt>
<wgt id='morphing_basis_vector_3'> +2.3102645e-04 </wgt>
<wgt id='morphing_basis_vector_4'> +1.3049744e-04 </wgt>
<wgt id='morphing_basis_vector_5'> +2.0583761e-04 </wgt>
</rwgt>
</event>
<event>
 4      1 +2.9741700e-06 8.57817600e+02 7.81860800e-03 8.83293600e-02
        2 -1    0    0  501    0 +0.0000000000e+00 +0.0000000000e+00 +1.1307428270e+03 1.1307428270e+03 0.0000000000e+00 0.0000e+00 1.0000e+00
       -2 -1    0    0    0  501 -0.0000000000e+00 -0.0000000000e+00 -1.6269195413e+02 1.6269195413e+02 0.0000000000e+00 0.0000e+00 -1.0000e+00
      -13  1    1    2    0    0 -1.3444203589e+02 -4.0726645852e+02 +4.7693212266e+02 6.4140851169e+02 0.0000000000e+00 0.0000e+00 -1.0000e+00
       13  1    1    2    0    0 +1.3444203589e+02 +4.0726645852e+02 +4.9111875022e+02 6.5202626946e+02 0.0000000000e+00 0.0000e+00 1.0000e+00
<mgrwt>
<rscale>  0 0.85781760E+03</rscale>
<asrwt>0</asrwt>
<pdfrwt beam="1">  1        2 0.17396043E+00 0.85781760E+03</pdfrwt>
<pdfrwt beam="2">  1       -2 0.25029532E-01 0.85781760E+03</pdfrwt>
<totfact> 0.35211529E+02</totfact>
</mgrwt>
<rwgt>
<wgt id='morphing_basis_vector_1'> +2.7701460e-04 </wgt>
<wgt id='morphing_basis_vector_2'> +1.9117275e-04 </wgt>
<wgt id='morphing_basis_vector_3'> +2.5298352e-04 </wgt>
<wgt id='morphing_basis_vector_4'> +1.2866820e-04 </wgt>
<wgt id='morphing_basis_vector_5'> +2.2135875e-04 </wgt>
</rwgt>
</event>
<event>
 4      1 +2.9741700e-06 8.54531400e+02 7.81860800e-03 8.83672000e-02
        2 -1    0    0  501    0 +0.0000000000e+00 +0.0000000000e+00 +4.8969439201e+02 4.8969439201e+02 0.0000000000e+00 0.0000e+00 -1.0000e+00
       -2 -1    0    0    0  501 -0.0000000000e+00 -0.0000000000e+00 -3.7279571286e+02 3.7279571286e+02 0.0000000000e+00 0.0000e+00 1.0000e+00
      -13  1    1    2    0    0 +1.6003144291e+02 -3.7372160245e+02 -7.4220967379e+01 4.1326341582e+02 0.0000000000e+00 0.0000e+00 1.0000e+00
       13  1    1    2    0    0 -1.6003144291e+02 +3.7372160245e+02 +1.9111964653e+02 4.4922668904e+02 0.0000000000e+00 0.0000e+00 -1.0000e+00
<mgrwt>
<rscale>  0 0.85453138E+03</rscale>
<asrwt>0</asrwt>
<pdfrwt beam="1">  1        2 0.75337599E-01 0.85453138E+03</pdfrwt>
<pdfrwt beam="2">  1       -2 0.57353187E-01 0.85453138E+03</pdfrwt>
<totfact> 0.22124475E+02</totfact>
</mgrwt>
<rwgt>
<wgt id='morphing_basis_vector_1'> +2.6704897e-04 </wgt>
<wgt id='morphing_basis_vector_2'> +1.6962149e-04 </wgt>
<wgt id='morphing_basis_vector_3'> +2.4480321e-04 </wgt>
<wgt id='morphing_basis_vector_4'> +1.3486125e-04 </wgt>
<wgt id='morphing_basis_vector_5'> +2.1799348e-04 </wgt>
</rwgt>
</event>
<event>
 4      1 +2.9741700e-06 8.30258300e+02 7.81860800e-03 8.86523200e-02
        2 -1    0    0  501    0 +0.0000000000e+00 +0.0000000000e+00 +4.6471141929e+02 4.6471141929e+02 0.0000000000e+00 0.0000e+00 1.0000e+00
       -2 -1    0    0    0  501 -0.0000000000e+00 -0.0000000000e+00 -3.7083708517e+02 3.7083708517e+02 0.0000000000e+00 0.0000e+00 -1.0000e+00
      -13  1    1    2    0    0 -3.0045246640e+02 +2.7762235698e+02 +1.1800133764e+02 4.2575835089e+02 0.0000000000e+00 0.0000e+00 1.0000e+00
       13  1    1    2    0    0 +3.0045246640e+02 -2.7762235698e+02 -2.4127003516e+01 4.0979015357e+02 0.0000000000e+00 0.0000e+00 -1.0000e+00
<mgrwt>
<rscale>  0 0.83025834E+03</rscale>
<asrwt>0</asrwt>
<pdfrwt beam="1">  1        2 0.71494064E-01 0.83025834E+03</pdfrwt>
<pdfrwt beam="2">  1       -2 0.57051860E-01 0.83025834E+03</pdfrwt>
<totfact> 0.23764808E+02</totfact>
</mgrwt>
<rwgt>
<wgt id='morphing_basis_vector_1'> +2.5357270e-04 </wgt>
<wgt id='morphing_basis_vector_2'> +1.9112557e-04 </wgt>
<wgt id='morphing_basis_vector_3'> +2.2694577e-04 </wgt>
<wgt id='morphing_basis_vector_4'> +1.0191186e-04 </wgt>
<wgt id='morphing_basis_vector_5'> +1.9070661e-04 </wgt>
</rwgt>
</event>
<event>
 4      1 +2.9741700e-06 8.97225000e+02 7.81860800e-03 8.78891200e-02
        2 -1    0    0  501    0 +0.0000000000e+00 +0.0000000000e+00 +5.8029623989e+02 5.8029623989e+02 0.0000000000e+00 0.0000e+00 -1.0000e+00
       -2 -1    0    0    0  501 -0.0000000000e+00 -0.0000000000e+00 -3.4681111204e+02 3.4681111204e+02 0.0000000000e+00 0.0000e+00 1.0000e+00
      -13  1    1    2    0    0 +2.8014220264e+02 +2.4638176477e+02 -1.4069266049e+02 3.9872051920e+02 0.0000000000e+00 0.0000e+00 1.0000e+00
       13  1    1    2    0    0 -2.8014220264e+02 -2.4638176477e+02 +3.7417778834e+02 5.2838683273e+02 0.0000000000e+00 0.0000e+00 -1.0000e+00
<mgrwt>
<rscale>  0 0.89722502E+03</rscale>
<asrwt>0</asrwt>
<pdfrwt beam="1">  1        2 0.89276345E-01 0.89722502E+03</pdfrwt>
<pdfrwt beam="2">  1       -2 0.53355556E-01 0.89722502E+03</pdfrwt>
<totfact> 0.20978839E+02</totfact>
</mgrwt>
<rwgt>
<wgt id='morphing_basis_vector_1'> +3.1610274e-04 </wgt>
<wgt id='morphing_basis_vector_2'> +1.9670081e-04 </wgt>
<wgt id='morphing_basis_vector_3'> +2.9485512e-04 </wgt>
<wgt id='morphing_basis_vector_4'> +1.7056920e-04 </wgt>
<wgt id='morphing_basis_vector_5'> +2.7110178e-04 </wgt>
</rwgt>
</event>
<event>
 4      1 +2.9741700e-06 8.68287900e+02 7.81860800e-03 8.82100000e-02
        2 -1    0    0  501    0 +0.0000000000e+00 +0.0000000000e+00 +7.5622304372e+02 7.5622304372e+02 0.0000000000e+00 0.0000e+00 1.0000e+00
       -2 -1    0    0    0  501 -0.0000000000e+00 -0.0000000000e+00 -2.4923989791e+02 2.4923989791e+02 0.0000000000e+00 0.0000e+00 -1.0000e+00
      -13  1    1    2    0    0 -1.1297546285e+02 +3.0921902042e+02 -7.4242478902e+01 3.3747859705e+02 0.0000000000e+00 0.0000e+00 -1.0000e+00
       13  1    1    2    0    0 +1.1297546285e+02 -3.0921902042e+02 +5.8122562471e+02 6.6798434458e+02 0.0000000000e+00 0.0000e+00 1.0000e+00
<mgrwt>
<rscale>  0 0.86828787E+03</rscale>
<asrwt>0</asrwt>
<pdfrwt beam="1">  1        2 0.11634201E+00 0.86828787E+03</pdfrwt>
<pdfrwt beam="2">  1       -2 0.38344600E-01 0.86828787E+03</pdfrwt>
<totfact> 0.28716774E+02</totfact>
</mgrwt>
<rwgt>
<wgt id='morphing_basis_vector_1'> +2.8035224e-04 </wgt>
<wgt id='morphing_basis_vector_2'> +1.7251140e-04 </wgt>
<wgt id='morphing_basis_vector_3'> +2.5887596e-04 </wgt>
<wgt id='morphing_basis_vector_4'> +1.4817641e-04 </wgt>
<wgt id='morphing_basis_vector_5'> +2.3431741e-04 </wgt>
</rwgt>
</event>
<event>
 4      1 +2.9741700e-06 7.59672600e+02 7.81860800e-03 8.95438000e-02
        2 -1    0    0  501    0 +0.0000000000e+00 +0.0000000000e+00 +1.7363009645e+03 1.7363009645e+03 0.0000000000e+00 0.0000e+00 1.0000e+00
       -2 -1    0    0    0  501 -0.0000000000e+00 -0.0000000000e+00 -8.3093657249e+01 8.3093657249e+01 0.0000000000e+00 0.0000e+00 -1.0000e+00
      -13  1    1    2    0    0 -2.0522255927e+02 -1.9256457705e+02 +1.4375712493e+03 1.4648578470e+03 0.0000000000e+00 0.0000e+00 1.0000e+00
       13  1    1    2    0    0 +2.0522255927e+02 +1.9256457705e+02 +2.1563605802e+02 3.5453677480e+02 0.0000000000e+00 0.0000e+00 -1.0000e+00
<mgrwt>
<rscale>  0 0.75967255E+03</rscale>
<asrwt>0</asrwt>
<pdfrwt beam="1">  1        2 0.26712320E+00 0.75967255E+03</pdfrwt>
<pdfrwt beam="2">  1       -2 0.12783641E-01 0.75967255E+03</pdfrwt>
<totfact> 0.49120339E+02</totfact>
</mgrwt>
<rwgt>
<wgt id='morphing_basis_vector_1'> +2.2055002e-04 </wgt>
<wgt id='morphing_basis_vector_2'> +2.4652802e-04 </wgt>
<wgt id='morphing_basis_vector_3'> +1.7682788e-04 </wgt>
<wgt id='morphing_basis_vector_4'> +2.6655495e-05 </wgt>
<wgt id='morphing_basis_vector_5'> +1.2559351e-04 </wgt>
</rwgt>
</event>
<event>
 4      1 +2.9741700e-06 7.92760200e+02 7.81860800e-03 8.91136700e-02
        2 -1    0    0  501    0 +0.0000000000e+00 +0.0000000000e+00 +1.5627367483e+03 1.5627367483e+03 0.0000000000e+00 0.0000e+00 -1.0000e+00
       -2 -1    0    0    0  501 -0.0000000000e+00 -0.0000000000e+00 -1.0053977010e+02 1.0053977010e+02 0.0000000000e+00 0.0000e+00 1.0000e+00
      -13  1    1    2    0    0 +1.9646287482e+02 -1.3430677069e+02 +6.6032005657e+01 2.4697407882e+02 0.0000000000e+00 0.0000e+00 1.0000e+00
       13  1    1    2    0    0 -1.9646287482e+02 +1.3430677069e+02 +1.3961649725e+03 1.4163024396e+03 0.0000000000e+00 0.0000e+00 -1.0000e+00
<mgrwt>
<rscale>  0 0.79276022E+03</rscale>
<asrwt>0</asrwt>
<pdfrwt beam="1">  1        2 0.24042102E+00 0.79276022E+03</pdfrwt>
<pdfrwt beam="2">  1       -2 0.15467658E-01 0.79276022E+03</pdfrwt>
<totfact> 0.44896538E+02</totfact>
</mgrwt>
<rwgt>
<wgt id='morphing_basis_vector_1'> +2.0230898e-04 </wgt>
<wgt id='morphing_basis_vector_2'> +1.2184270e-04 </wgt>
<wgt id='morphing_basis_vector_3'> +1.8110024e-04 </wgt>
<wgt id='morphing_basis_vector_4'> +9.9024594e-05 </wgt>
<wgt id='morphing_basis_vector_5'> +1.5531203e-04 </wgt>
</rwgt>
</event>
<event>
 4      1 +2.9741700e-06 8.83988300e+02 7.81860800e-03 8.80343000e-02
        2 -1    0    0  501    0 +0.0000000000e+00 +0.0000000000e+00 +3.1677379176e+02 3.1677379176e+02 0.0000000000e+00 0.0000e+00 -1.0000e+00
       -2 -1    0    0    0  501 -0.0000000000e+00 -0.0000000000e+00 -6.1671399983e+02 6.1671399983e+02 0.0000000000e+00 0.0000e+00 1.0000e+00
      -13  1    1    2    0    0 -1.1960084207e+01 -2.5170687774e+02 -5.3342803882e+02 5.8995327655e+02 0.0000000000e+00 0.0000e+00 1.0000e+00
       13  1    1    2    0    0 +1.1960084207e+01 +2.5170687774e+02 +2.3348783075e+02 3.4353451504e+02 0.0000000000e+00 0.0000e+00 -1.0000e+00
<mgrwt>
<rscale>  0 0.88398831E+03</rscale>
<asrwt>0</asrwt>
<pdfrwt beam="1">  1        2 0.48734430E-01 0.88398831E+03</pdfrwt>
<pdfrwt beam="2">  1       -2 0.94879076E-01 0.88398831E+03</pdfrwt>
<totfact> 0.11997472E+02</totfact>
</mgrwt>
<rwgt>
<wgt id='morphing_basis_vector_1'> +2.9869251e-04 </wgt>
<wgt id='morphing_basis_vector_2'> +1.8337490e-04 </wgt>
<wgt id='morphing_basis_vector_3'> +2.7746309e-04 </wgt>
<wgt id='morphing_basis_vector_4'> +1.6094298e-04 </wgt>
<wgt id='morphing_basis_vector_5'> +2.5383976e-04 </wgt>
</rwgt>
</event>
<event>
 4      1 +2.9741700e-06 8.87379100e+02 7.81860800e-03 8.79968500e-02
        2 -1    0    0  501    0 +0.0000000000e+00 +0.0000000000e+00 +8.0234508377e+02 8.0234508377e+02 0.0000000000e+00 0.0000e+00 -1.0000e+00
       -2 -1    0    0    0  501 -0.0000000000e+00 -0.0000000000e+00 -2.4535629270e+02 2.4535629270e+02 0.0000000000e+00 0.0000e+00 1.0000e+00
      -13  1    1    2    0    0 -1.5672422836e+02 +3.4678750718e+02 +9.1662381440e+00 3.8066793773e+02 0.0000000000e+00 0.0000e+00 1.0000e+00
       13  1    1    2    0    0 +1.5672422836e+02 -3.4678750718e+02 +5.4782255292e+02 6.6703343873e+02 0.0000000000e+00 0.0000e+00 -1.0000e+00
<mgrwt>
<rscale>  0 0.88737910E+03</rscale>
<asrwt>0</asrwt>
<pdfrwt beam="1">  1        2 0.12343770E+00 0.88737910E+03</pdfrwt>
<pdfrwt beam="2">  1       -2 0.37747122E-01 0.88737910E+03</pdfrwt>
<totfact> 0.27391904E+02</totfact>
</mgrwt>
<rwgt>
<wgt id='morphing_basis_vector_1'> +3.0395735e-04 </wgt>
<wgt id='morphing_basis_vector_2'> +1.8939676e-04 </wgt>
<wgt id='morphing_basis_vector_3'> +2.8250911e-04 </wgt>
<wgt id='morphing_basis_vector_4'> +1.6214015e-04 </wgt>
<wgt id='morphing_basis_vector_5'> +2.5812000e-04 </wgt>
</rwgt>
</event>
<event>
 4      1 +2.9741700e-06 8.15318600e+02 7.81860800e-03 8.88329800e-02
        2 -1    0    0  501    0 +0.0000000000e+00 +0.0000000000e+00 +5.2498189791e+02 5.2498189791e+02 0.0000000000e+00 0.0000e+00 -1.0000e+00
       -2 -1    0    0    0  501 -0.0000000000e+00 -0.0000000000e+00 -3.1655584440e+02 3.1655584440e+02 0.0000000000e+00 0.0000e+00 1.0000e+00
      -13  1    1    2    0    0 -2.6891735768e+02 +1.4311204196e+02 -1.7540182496e+02 3.5151586311e+02 0.0000000000e+00 0.0000e+00 1.0000e+00
       13  1    1    2    0    0 +2.6891735768e+02 -1.4311204196e+02 +3.8382787847e+02 4.9002187921e+02 0.0000000000e+00 0.0000e+00 -1.0000e+00
<mgrwt>
<rscale>  0 0.81531856E+03</rscale>
<asrwt>0</asrwt>
<pdfrwt beam="1">  1        2 0.80766446E-01 0.81531856E+03</pdfrwt>
<pdfrwt beam="2">  1       -2 0.48700899E-01 0.81531856E+03</pdfrwt>
<totfact> 0.28317842E+02</totfact>
</mgrwt>
<rwgt>
<wgt id='morphing_basis_vector_1'> +2.2372412e-04 </wgt>
<wgt id='morphing_basis_vector_2'> +1.3604970e-04 </wgt>
<wgt id='morphing_basis_vector_3'> +2.0223385e-04 </wgt>
<wgt id='morphing_basis_vector_4'> +1.1201793e-04 </wgt>
<wgt id='morphing_basis_vector_5'> +1.7648501e-04 </wgt>
</rwgt>
</event>
<event>
 4      1 +2.9741700e-06 8.81646000e+02 7.81860800e-03 8.80602600e-02
        2 -1    0    0  501    0 +0.0000000000e+00 +0.0000000000e+00 +2.7336766668e+03 2.7336766668e+03 0.0000000000e+00 0.0000e+00 1.0000e+00
       -2 -1    0    0    0  501 -0.0000000000e+00 -0.0000000000e+00 -7.1085558811e+01 7.1085558811e+01 0.0000000000e+00 0.0000e+00 -1.0000e+00
      -13  1    1    2    0    0 +3.7575384704e+02 +9.2631604679e+01 +2.0027894190e+03 2.0398374995e+03 0.0000000000e+00 0.0000e+00 1.0000e+00
       13  1    1    2    0    0 -3.7575384704e+02 -9.2631604679e+01 +6.5980168906e+02 7.6492472612e+02 0.0000000000e+00 0.0000e+00 -1.0000e+00
<mgrwt>
<rscale>  0 0.88164604E+03</rscale>
<asrwt>0</asrwt>
<pdfrwt beam="1">  1        2 0.42056556E+00 0.88164604E+03</pdfrwt>
<pdfrwt beam="2">  1       -2 0.10936242E-01 0.88164604E+03</pdfrwt>
<totfact> 0.16831427E+02</totfact>
</mgrwt>
<rwgt>
<wgt id='morphing_basis_vector_1'> +3.4586707e-04 </wgt>
<wgt id='morphing_basis_vector_2'> +3.3397276e-04 </wgt>
<wgt id='morphing_basis_vector_3'> +3.1230745e-04 </wgt>
<wgt id='morphing_basis_vector_4'> +8.9237469e-05 </wgt>
<wgt id='morphing_basis_vector_5'> +2.4727867e-04 </wgt>
</rwgt>
</event>
<event>
 4      1 +2.9741700e-06 7.77936900e+02 7.81860800e-03 8.93035600e-02
        2 -1    0    0  501    0 +0.0000000000e+00 +0.0000000000e+00 +4.6840181339e+02 4.6840181339e+02 0.0000000000e+00 0.0000e+00 1.0000e+00
       -2 -1    0    0    0  501 -0.0000000000e+00 -0.0000000000e+00 -3.2300568517e+02 3.2300568517e+02 0.0000000000e+00 0.0000e+00 -1.0000e+00
      -13  1    1    2    0    0 +1.5328031246e+02 -3.5275648782e+02 +1.3689758269e+01 3.8486283709e+02 0.0000000000e+00 0.0000e+00 -1.0000e+00
       13  1    1    2    0    0 -1.5328031246e+02 +3.5275648782e+02 +1.3170636994e+02 4.0654466147e+02 0.0000000000e+00 0.0000e+00 1.0000e+00
<mgrwt>
<rscale>  0 0.77793688E+03</rscale>
<asrwt>0</asrwt>
<pdfrwt beam="1">  1        2 0.72061817E-01 0.77793688E+03</pdfrwt>
<pdfrwt beam="2">  1       -2 0.49693182E-01 0.77793688E+03</pdfrwt>
<totfact> 0.31068346E+02</totfact>
</mgrwt>
<rwgt>
<wgt id='morphing_basis_vector_1'> +1.9299079e-04 </wgt>
<wgt id='morphing_basis_vector_2'> +1.2497523e-04 </wgt>
<wgt id='morphing_basis_vector_3'> +1.7028484e-04 </wgt>
<wgt id='morphing_basis_vector_4'> +8.6394443e-05 </wgt>
<wgt id='morphing_basis_vector_5'> +1.4224684e-04 </wgt>
</rwgt>
</event>
<event>
 4      1 +2.9741700e-06 8.33171100e+02 7.81860800e-03 8.86175600e-02
        2 -1    0    0  501    0 +0.0000000000e+00 +0.0000000000e+00 +7.8794205313e+02 7.8794205313e+02 0.0000000000e+00 0.0000e+00 -1.0000e+00
       -2 -1    0    0    0  501 -0.0000000000e+00 -0.0000000000e+00 -2.2024911200e+02 2.2024911200e+02 0.0000000000e+00 0.0000e+00 1.0000e+00
      -13  1    1    2    0    0 -1.8083730000e+02 +1.6230307358e+02 -1.2561189130e+02 2.7353750018e+02 0.0000000000e+00 0.0000e+00 1.0000e+00
       13  1    1    2    0    0 +1.8083730000e+02 -1.6230307358e+02 +6.9330483243e+02 7.3465366496e+02 0.0000000000e+00 0.0000e+00 -1.0000e+00
<mgrwt>
<rscale>  0 0.83317114E+03</rscale>
<asrwt>0</asrwt>
<pdfrwt beam="1">  1        2 0.12122185E+00 0.83317114E+03</pdfrwt>
<pdfrwt beam="2">  1       -2 0.33884479E-01 0.83317114E+03</pdfrwt>
<totfact> 0.34220024E+02</totfact>
</mgrwt>
<rwgt>
<wgt id='morphing_basis_vector_1'> +2.4141324e-04 </wgt>
<wgt id='morphing_basis_vector_2'> +1.4670125e-04 </wgt>
<wgt id='morphing_basis_vector_3'> +2.1994823e-04 </wgt>
<wgt id='morphing_basis_vector_4'> +1.2377432e-04 </wgt>
<wgt id='morphing_basis_vector_5'> +1.9468364e-04 </wgt>
</rwgt>
</event>
<event>
 4      1 +2.9741700e-06 7.74869000e+02 7.81860800e-03 8.93434200e-02
        2 -1    0    0  501    0 +0.0000000000e+00 +0.0000000000e+00 +8.9550645470e+02 8.9550645470e+02 0.0000000000e+00 0.0000e+00 1.0000e+00
       -2 -1    0    0    0  501 -0.0000000000e+00 -0.0000000000e+00 -1.6762080012e+02 1.6762080012e+02 0.0000000000e+00 0.0000e+00 -1.0000e+00
      -13  1    1    2    0    0 -7.5545483049e+01 +3.7942263822e+02 +3.9261912857e+02 5.5119727732e+02 0.0000000000e+00 0.0000e+00 1.0000e+00
       13  1    1    2    0    0 +7.5545483049e+01 -3.7942263822e+02 +3.3526652601e+02 5.1192997750e+02 0.0000000000e+00 0.0000e+00 -1.0000e+00
<mgrwt>
<rscale>  0 0.77486904E+03</rscale>
<asrwt>0</asrwt>
<pdfrwt beam="1">  1        2 0.13777022E+00 0.77486904E+03</pdfrwt>
<pdfrwt beam="2">  1       -2 0.25787816E-01 0.77486904E+03</pdfrwt>
<totfact> 0.46945946E+02</totfact>
</mgrwt>
<rwgt>
<wgt id='morphing_basis_vector_1'> +1.9451205e-04 </wgt>
<wgt id='morphing_basis_vector_2'> +1.3600514e-04 </wgt>
<wgt id='morphing_basis_vector_3'> +1.6992434e-04 </wgt>
<wgt id='morphing_basis_vector_4'> +7.9781035e-05 </wgt>
<wgt id='morphing_basis_vector_5'> +1.3948487e-04 </wgt>
</rwgt>
</event>
<event>
 4      1 +2.9741700e-06 8.77509600e+02 7.81860800e-03 8.81063300e-02
        2 -1    0    0  501    0 +0.0000000000e+00 +0.0000000000e+00 +9.0375814520e+02 9.0375814520e+02 0.0000000000e+00 0.0000e+00 -1.0000e+00
       -2 -1    0    0    0  501 -0.0000000000e+00 -0.0000000000e+00 -2.1300583661e+02 2.1300583661e+02 0.0000000000e+00 0.0000e+00 1.0000e+00
      -13  1    1    2    0    0 +3.3389712757e+01 +3.9299556448e+02 +1.0075750283e+02 4.0707795445e+02 0.0000000000e+00 0.0000e+00 1.0000e+00
       13  1    1    2    0    0 -3.3389712757e+01 -3.9299556448e+02 +5.8999480576e+02 7.0968602737e+02 0.0000000000e+00 0.0000e+00 -1.0000e+00
<mgrwt>
<rscale>  0 0.87750957E+03</rscale>
<asrwt>0</asrwt>
<pdfrwt beam="1">  1        2 0.13903971E+00 0.87750957E+03</pdfrwt>
<pdfrwt beam="2">  1       -2 0.32770129E-01 0.87750957E+03</pdfrwt>
<totfact> 0.30284649E+02</totfact>
</mgrwt>
<rwgt>
<wgt id='morphing_basis_vector_1'> +2.9245840e-04 </wgt>
<wgt id='morphing_basis_vector_2'> +1.8322900e-04 </wgt>
<wgt id='morphing_basis_vector_3'> +2.7075482e-04 </wgt>
<wgt id='morphing_basis_vector_4'> +1.5357426e-04 </wgt>
<wgt id='morphing_basis_vector_5'> +2.4554430e-04 </wgt>
</rwgt>
</event>
<event>
 4      1 +2.9741700e-06 8.67256000e+02 7.81860800e-03 8.82216900e-02
        2 -1    0    0  501    0 +0.0000000000e+00 +0.0000000000e+00 +5.1845883433e+02 5.1845883433e+02 0.0000000000e+00 0.0000e+00 1.0000e+00
       -2 -1    0    0    0  501 -0.0000000000e+00 -0.0000000000e+00 -3.6267724515e+02 3.6267724515e+02 0.0000000000e+00 0.0000e+00 -1.0000e+00
      -13  1    1    2    0    0 -3.1009872382e+02 -3.0232611230e+02 +5.5842672867e+01 4.3667001363e+02 0.0000000000e+00 0.0000e+00 -1.0000e+00
       13  1    1    2    0    0 +3.1009872382e+02 +3.0232611230e+02 +9.9938916308e+01 4.4446606584e+02 0.0000000000e+00 0.0000e+00 1.0000e+00
<mgrwt>
<rscale>  0 0.86725595E+03</rscale>
<asrwt>0</asrwt>
<pdfrwt beam="1">  1        2 0.79762898E-01 0.86725595E+03</pdfrwt>
<pdfrwt beam="2">  1       -2 0.55796499E-01 0.86725595E+03</pdfrwt>
<totfact> 0.21894200E+02</totfact>
</mgrwt>
<rwgt>
<wgt id='morphing_basis_vector_1'> +2.8689188e-04 </wgt>
<wgt id='morphing_basis_vector_2'> +1.9533824e-04 </wgt>
<wgt id='morphing_basis_vector_3'> +2.6330922e-04 </wgt>
<wgt id='morphing_basis_vector_4'> +1.3676222e-04 </wgt>
<wgt id='morphing_basis_vector_5'> +2.3254388e-04 </wgt>
</rwgt>
</event>
<event>
 4      1 +2.9741700e-06 7.73259100e+02 7.81860800e-03 8.93644200e-02
        2 -1    0    0  501    0 +0.0000000000e+00 +0.0000000000e+00 +2.7859497478e+02 2.7859497478e+02 0.0000000000e+00 0.0000e+00 -1.0000e+00
       -2 -1    0    0    0  501 -0.0000000000e+00 -0.0000000000e+00 -5.3655814278e+02 5.3655814278e+02 0.0000000000e+00 0.0000e+00 1.0000e+00
      -13  1    1    2    0    0 -1.5649534640e+02 +1.8575448293e+02 -4.4608941931e+02 5.0792843137e+02 0.0000000000e+00 0.0000e+00 1.0000e+00
       13  1    1    2    0    0 +1.5649534640e+02 -1.8575448293e+02 +1.8812625131e+02 3.0722468619e+02 0.0000000000e+00 0.0000e+00 -1.0000e+00
<mgrwt>
<rscale>  0 0.77325908E+03</rscale>
<asrwt>0</asrwt>
<pdfrwt beam="1">  1        2 0.42860765E-01 0.77325908E+03</pdfrwt>
<pdfrwt beam="2">  1       -2 0.82547407E-01 0.77325908E+03</pdfrwt>
<totfact> 0.19274021E+02</totfact>
</mgrwt>
<rwgt>
<wgt id='morphing_basis_vector_1'> +1.8532585e-04 </wgt>
<wgt id='morphing_basis_vector_2'> +1.1114031e-04 </wgt>
<wgt id='morphing_basis_vector_3'> +1.6435579e-04 </wgt>
<wgt id='morphing_basis_vector_4'> +8.8450151e-05 </wgt>
<wgt id='morphing_basis_vector_5'> +1.3852418e-04 </wgt>
</rwgt>
</event>
<event>
 4      1 +2.9741700e-06 7.81155000e+02 7.81860800e-03 8.92619500e-02
        2 -1    0    0  501    0 +0.0000000000e+00 +0.0000000000e+00 +1.8309075261e+03 1.8309075261e+03 0.0000000000e+00 0.0000e+00 -1.0000e+00
       -2 -1    0    0    0  501 -0.0000000000e+00 -0.0000000000e+00 -8.3319763883e+01 8.3319763883e+01 0.0000000000e+00 0.0000e+00 1.0000e+00
      -13  1    1    2    0    0 +1.5958338875e+01 -2.7413882763e+02 +1.9316963931e+02 3.3573989180e+02 0.0000000000e+00 0.0000e+00 1.0000e+00
       13  1    1    2    0    0 -1.5958338875e+01 +2.7413882763e+02 +1.5544181229e+03 1.5784873982e+03 0.0000000000e+00 0.0000e+00 -1.0000e+00
<mgrwt>
<rscale>  0 0.78115500E+03</rscale>
<asrwt>0</asrwt>
<pdfrwt beam="1">  1        2 0.28167805E+00 0.78115500E+03</pdfrwt>
<pdfrwt beam="2">  1       -2 0.12818427E-01 0.78115500E+03</pdfrwt>
<totfact> 0.43338326E+02</totfact>
</mgrwt>
<rwgt>
<wgt id='morphing_basis_vector_1'> +1.9216750e-04 </wgt>
<wgt id='morphing_basis_vector_2'> +1.1570507e-04 </wgt>
<wgt id='morphing_basis_vector_3'> +1.7104488e-04 </wgt>
<wgt id='morphing_basis_vector_4'> +9.2497509e-05 </wgt>
<wgt id='morphing_basis_vector_5'> +1.4515053e-04 </wgt>
</rwgt>
</event>
<event>
 4      1 +2.9741700e-06 7.83019700e+02 7.81860800e-03 8.92379400e-02
        2 -1    0    0  501    0 +0.0000000000e+00 +0.0000000000e+00 +3.3297729668e+02 3.3297729668e+02 0.0000000000e+00 0.0000e+00 -1.0000e+00
       -2 -1    0    0    0  501 -0.0000000000e+00 -0.0000000000e+00 -4.6033159300e+02 4.6033159300e+02 0.0000000000e+00 0.0000e+00 1.0000e+00
      -13  1    1    2    0    0 -9.9713261033e+01 -1.4076637931e+02 -4.1975248041e+02 4.5381720195e+02 0.0000000000e+00 0.0000e+00 1.0000e+00
       13  1    1    2    0    0 +9.9713261033e+01 +1.4076637931e+02 +2.9239818410e+02 3.3949168773e+02 0.0000000000e+00 0.0000e+00 -1.0000e+00
<mgrwt>
<rscale>  0 0.78301972E+03</rscale>
<asrwt>0</asrwt>
<pdfrwt beam="1">  1        2 0.51227277E-01 0.78301972E+03</pdfrwt>
<pdfrwt beam="2">  1       -2 0.70820245E-01 0.78301972E+03</pdfrwt>
<totfact> 0.22137498E+02</totfact>
</mgrwt>
<rwgt>
<wgt id='morphing_basis_vector_1'> +1.9359728e-04 </wgt>
<wgt id='morphing_basis_vector_2'> +1.1614639e-04 </wgt>
<wgt id='morphing_basis_vector_3'> +1.7253507e-04 </wgt>
<wgt id='morphing_basis_vector_4'> +9.3736341e-05 </wgt>
<wgt id='morphing_basis_vector_5'> +1.4675863e-04 </wgt>
</rwgt>
</event>
<event>
 4      1 +2.9741700e-06 7.77509900e+02 7.81860800e-03 8.93090900e-02
        2 -1    0    0  501    0 +0.0000000000e+00 +0.0000000000e+00 +2.0993463044e+02 2.0993463044e+02 0.0000000000e+00 0.0000e+00 -1.0000e+00
       -2 -1    0    0    0  501 -0.0000000000e+00 -0.0000000000e+00 -7.1989273349e+02 7.1989273349e+02 0.0000000000e+00 0.0000e+00 1.0000e+00
      -13  1    1    2    0    0 +3.5774186917e+02 +1.4601930000e+02 -3.0613152465e+02 4.9296794147e+02 0.0000000000e+00 0.0000e+00 1.0000e+00
       13  1    1    2    0    0 -3.5774186917e+02 -1.4601930000e+02 -2.0382657840e+02 4.3685942246e+02 0.0000000000e+00 0.0000e+00 -1.0000e+00
<mgrwt>
<rscale>  0 0.77750991E+03</rscale>
<asrwt>0</asrwt>
<pdfrwt beam="1">  1        2 0.32297636E-01 0.77750991E+03</pdfrwt>
<pdfrwt beam="2">  1       -2 0.11075273E+00 0.77750991E+03</pdfrwt>
<totfact> 0.13213703E+02</totfact>
</mgrwt>
<rwgt>
<wgt id='morphing_basis_vector_1'> +1.9323095e-04 </wgt>
<wgt id='morphing_basis_vector_2'> +1.2660135e-04 </wgt>
<wgt id='morphing_basis_vector_3'> +1.7025284e-04 </wgt>
<wgt id='morphing_basis_vector_4'> +8.5432993e-05 </wgt>
<wgt id='morphing_basis_vector_5'> +1.4185859e-04 </wgt>
</rwgt>
</event>
<event>
 4      1 +2.9741700e-06 8.43001200e+02 7.81860800e-03 8.85013700e-02
        2 -1    0    0  501    0 +0.0000000000e+00 +0.0000000000e+00 +9.4239844057e+02 9.4239844057e+02 0.0000000000e+00 0.0000e+00 1.0000e+00
       -2 -1    0    0    0  501 -0.0000000000e+00 -0.0000000000e+00 -1.8852189504e+02 1.8852189504e+02 0.0000000000e+00 0.0000e+00 -1.0000e+00
      -13  1    1    2    0    0 +3.1892150973e+02 +2.0830947337e+02 +6.1900728295e+02 7.2682445089e+02 0.0000000000e+00 0.0000e+00 1.0000e+00
       13  1    1    2    0    0 -3.1892150973e+02 -2.0830947337e+02 +1.3486926257e+02 4.0409588472e+02 0.0000000000e+00 0.0000e+00 -1.0000e+00
<mgrwt>
<rscale>  0 0.84300116E+03</rscale>
<asrwt>0</asrwt>
<pdfrwt beam="1">  1        2 0.14498437E+00 0.84300116E+03</pdfrwt>
<pdfrwt beam="2">  1       -2 0.29003369E-01 0.84300116E+03</pdfrwt>
<totfact> 0.35579716E+02</totfact>
</mgrwt>
<rwgt>
<wgt id='morphing_basis_vector_1'> +2.8846321e-04 </wgt>
<wgt id='morphing_basis_vector_2'> +2.6539196e-04 </wgt>
<wgt id='morphing_basis_vector_3'> +2.5539110e-04 </wgt>
<wgt id='morphing_basis_vector_4'> +8.1369271e-05 </wgt>
<wgt id='morphing_basis_vector_5'> +2.0291931e-04 </wgt>
</rwgt>
</event>
<event>
 4      1 +2.9741700e-06 8.72525300e+02 7.81860800e-03 8.81622000e-02
        2 -1    0    0  501    0 +0.0000000000e+00 +0.0000000000e+00 +1.0171763222e+03 1.0171763222e+03 0.0000000000e+00 0.0000e+00 -1.0000e+00
       -2 -1    0    0    0  501 -0.0000000000e+00 -0.0000000000e+00 -1.8711120193e+02 1.8711120193e+02 0.0000000000e+00 0.0000e+00 1.0000e+00
      -13  1    1    2    0    0 -3.1550705532e+02 +2.4276480265e+02 +1.6872535386e+02 4.3237448629e+02 0.0000000000e+00 0.0000e+00 1.0000e+00
       13  1    1    2    0    0 +3.1550705532e+02 -2.4276480265e+02 +6.6133976645e+02 7.7191303788e+02 0.0000000000e+00 0.0000e+00 -1.0000e+00
<mgrwt>
<rscale>  0 0.87252526E+03</rscale>
<asrwt>0</asrwt>
<pdfrwt beam="1">  1        2 0.15648866E+00 0.87252526E+03</pdfrwt>
<pdfrwt beam="2">  1       -2 0.28786339E-01 0.87252526E+03</pdfrwt>
<totfact> 0.32317037E+02</totfact>
</mgrwt>
<rwgt>
<wgt id='morphing_basis_vector_1'> +2.8675430e-04 </wgt>
<wgt id='morphing_basis_vector_2'> +1.8009043e-04 </wgt>
<wgt id='morphing_basis_vector_3'> +2.6493553e-04 </wgt>
<wgt id='morphing_basis_vector_4'> +1.4941532e-04 </wgt>
<wgt id='morphing_basis_vector_5'> +2.3936747e-04 </wgt>
</rwgt>
</event>
<event>
 4      1 +2.9741700e-06 7.89117100e+02 7.81860800e-03 8.91599300e-02
        2 -1    0    0  501    0 +0.0000000000e+00 +0.0000000000e+00 +1.1079629617e+03 1.1079629617e+03 0.0000000000e+00 0.0000e+00 -1.0000e+00
       -2 -1    0    0    0  501 -0.0000000000e+00 -0.0000000000e+00 -1.4050690387e+02 1.4050690387e+02 0.0000000000e+00 0.0000e+00 1.0000e+00
      -13  1    1    2    0    0 -2.7643620611e+01 +2.6862571300e+02 +2.8606707462e+01 2.7155531141e+02 0.0000000000e+00 0.0000e+00 1.0000e+00
       13  1    1    2    0    0 +2.7643620611e+01 -2.6862571300e+02 +9.3884935040e+02 9.7691455419e+02 0.0000000000e+00 0.0000e+00 -1.0000e+00
<mgrwt>
<rscale>  0 0.78911709E+03</rscale>
<asrwt>0</asrwt>
<pdfrwt beam="1">  1        2 0.17045584E+00 0.78911709E+03</pdfrwt>
<pdfrwt beam="2">  1       -2 0.21616447E-01 0.78911709E+03</pdfrwt>
<totfact> 0.46755808E+02</totfact>
</mgrwt>
<rwgt>
<wgt id='morphing_basis_vector_1'> +1.9913638e-04 </wgt>
<wgt id='morphing_basis_vector_2'> +1.2005799e-04 </wgt>
<wgt id='morphing_basis_vector_3'> +1.7792845e-04 </wgt>
<wgt id='morphing_basis_vector_4'> +9.6871911e-05 </wgt>
<wgt id='morphing_basis_vector_5'> +1.5206596e-04 </wgt>
</rwgt>
</event>
<event>
 4      1 +2.9741700e-06 7.73270000e+02 7.81860800e-03 8.93642700e-02
        2 -1    0    0  501    0 +0.0000000000e+00 +0.0000000000e+00 +3.4110395412e+02 3.4110395412e+02 0.0000000000e+00 0.0000e+00 -1.0000e+00
       -2 -1    0    0    0  501 -0.0000000000e+00 -0.0000000000e+00 -4.3824353892e+02 4.3824353892e+02 0.0000000000e+00 0.0000e+00 1.0000e+00
      -13  1    1    2    0    0 +1.2058172799e+02 -2.7235422985e+02 -2.9702265201e+02 4.2064145712e+02 0.0000000000e+00 0.0000e+00 1.0000e+00
       13  1    1    2    0    0 -1.2058172799e+02 +2.7235422985e+02 +1.9988306721e+02 3.5870603591e+02 0.0000000000e+00 0.0000e+00 -1.0000e+00
<mgrwt>
<rscale>  0 0.77326995E+03</rscale>
<asrwt>0</asrwt>
<pdfrwt beam="1">  1        2 0.52477531E-01 0.77326995E+03</pdfrwt>
<pdfrwt beam="2">  1       -2 0.67422083E-01 0.77326995E+03</pdfrwt>
<totfact> 0.23936605E+02</totfact>
</mgrwt>
<rwgt>
<wgt id='morphing_basis_vector_1'> +1.8557341e-04 </wgt>
<wgt id='morphing_basis_vector_2'> +1.1187739e-04 </wgt>
<wgt id='morphing_basis_vector_3'> +1.6449281e-04 </wgt>
<wgt id='morphing_basis_vector_4'> +8.8166934e-05 </wgt>
<wgt id='morphing_basis_vector_5'> +1.3852187e-04 </wgt>
</rwgt>
</event>
<event>
 4      1 +2.9741700e-06 7.60685100e+02 7.81860800e-03 8.95303000e-02
        2 -1    0    0  501    0 +0.0000000000e+00 +0.0000000000e+00 +2.2048624701e+03 2.2048624701e+03 0.0000000000e+00 0.0000e+00 -1.0000e+00
       -2 -1    0    0    0  501 -0.0000000000e+00 -0.0000000000e+00 -6.5609736365e+01 6.5609736365e+01 0.0000000000e+00 0.0000e+00 1.0000e+00
      -13  1    1    2    0    0 -1.7583998754e+02 +3.1988076698e+02 +1.3885509814e+03 1.4357288164e+03 0.0000000000e+00 0.0000e+00 1.0000e+00
       13  1    1    2    0    0 +1.7583998754e+02 -3.1988076698e+02 +7.5070175239e+02 8.3474339012e+02 0.0000000000e+00 0.0000e+00 -1.0000e+00
<mgrwt>
<rscale>  0 0.76068507E+03</rscale>
<asrwt>0</asrwt>
<pdfrwt beam="1">  1        2 0.33920955E+00 0.76068507E+03</pdfrwt>
<pdfrwt beam="2">  1       -2 0.10093807E-01 0.76068507E+03</pdfrwt>
<totfact> 0.39329927E+02</totfact>
</mgrwt>
<rwgt>
<wgt id='morphing_basis_vector_1'> +1.9093531e-04 </wgt>
<wgt id='morphing_basis_vector_2'> +1.5361431e-04 </wgt>
<wgt id='morphing_basis_vector_3'> +1.6229874e-04 </wgt>
<wgt id='morphing_basis_vector_4'> +6.3157447e-05 </wgt>
<wgt id='morphing_basis_vector_5'> +1.2771283e-04 </wgt>
</rwgt>
</event>
<event>
 4      1 +2.9741700e-06 7.83824000e+02 7.81860800e-03 8.92276100e-02
        2 -1    0    0  501    0 +0.0000000000e+00 +0.0000000000e+00 +6.2022236564e+02 6.2022236564e+02 0.0000000000e+00 0.0000e+00 -1.0000e+00
       -2 -1    0    0    0  501 -0.0000000000e+00 -0.0000000000e+00 -2.4764506238e+02 2.4764506238e+02 0.0000000000e+00 0.0000e+00 1.0000e+00
      -13  1    1    2    0    0 -2.3711571071e+02 +2.5163787403e+02 +3.9059900917e+02 5.2164457812e+02 0.0000000000e+00 0.0000e+00 1.0000e+00
       13  1    1    2    0    0 +2.3711571071e+02 -2.5163787403e+02 -1.8021705905e+01 3.4622284991e+02 0.0000000000e+00 0.0000e+00 -1.0000e+00
<mgrwt>
<rscale>  0 0.78382398E+03</rscale>
<asrwt>0</asrwt>
<pdfrwt beam="1">  1        2 0.95418825E-01 0.78382398E+03</pdfrwt>
<pdfrwt beam="2">  1       -2 0.38099241E-01 0.78382398E+03</pdfrwt>
<totfact> 0.37147007E+02</totfact>
</mgrwt>
<rwgt>
<wgt id='morphing_basis_vector_1'> +2.2625812e-04 </wgt>
<wgt id='morphing_basis_vector_2'> +2.1455771e-04 </wgt>
<wgt id='morphing_basis_vector_3'> +1.9115970e-04 </wgt>
<wgt id='morphing_basis_vector_4'> +5.4795195e-05 </wgt>
<wgt id='morphing_basis_vector_5'> +1.4585610e-04 </wgt>
</rwgt>
</event>
<event>
 4      1 +2.9741700e-06 8.51217100e+02 7.81860800e-03 8.84055300e-02
        2 -1    0    0  501    0 +0.0000000000e+00 +0.0000000000e+00 +7.6086815243e+02 7.6086815243e+02 0.0000000000e+00 0.0000e+00 -1.0000e+00
       -2 -1    0    0    0  501 -0.0000000000e+00 -0.0000000000e+00 -2.3807360360e+02 2.3807360360e+02 0.0000000000e+00 0.0000e+00 1.0000e+00
      -13  1    1    2    0    0 -2.0145293876e+02 -1.0992682935e+02 -1.5924206141e+02 2.7932996342e+02 0.0000000000e+00 0.0000e+00 1.0000e+00
       13  1    1    2    0    0 +2.0145293876e+02 +1.0992682935e+02 +6.8203661024e+02 7.1961179260e+02 0.0000000000e+00 0.0000e+00 -1.0000e+00
<mgrwt>
<rscale>  0 0.85121706E+03</rscale>
<asrwt>0</asrwt>
<pdfrwt beam="1">  1        2 0.11705664E+00 0.85121706E+03</pdfrwt>
<pdfrwt beam="2">  1       -2 0.36626709E-01 0.85121706E+03</pdfrwt>
<totfact> 0.31029098E+02</totfact>
</mgrwt>
<rwgt>
<wgt id='morphing_basis_vector_1'> +2.6064408e-04 </wgt>
<wgt id='morphing_basis_vector_2'> +1.5891244e-04 </wgt>
<wgt id='morphing_basis_vector_3'> +2.3919529e-04 </wgt>
<wgt id='morphing_basis_vector_4'> +1.3620457e-04 </wgt>
<wgt id='morphing_basis_vector_5'> +2.1440251e-04 </wgt>
</rwgt>
</event>
<event>
 4      1 +2.9741700e-06 8.96653100e+02 7.81860800e-03 8.78953300e-02
        2 -1    0    0  501    0 +0.0000000000e+00 +0.0000000000e+00 +6.0775093203e+02 6.0775093203e+02 0.0000000000e+00 0.0000e+00 1.0000e+00
       -2 -1    0    0    0  501 -0.0000000000e+00 -0.0000000000e+00 -3.3072216836e+02 3.3072216836e+02 0.0000000000e+00 0.0000e+00 -1.0000e+00
      -13  1    1    2    0    0 +1.0828835368e+02 -3.0459387661e+02 +4.6363541208e+02 5.6520933515e+02 0.0000000000e+00 0.0000e+00 1.0000e+00
       13  1    1    2    0    0 -1.0828835368e+02 +3.0459387661e+02 -1.8660664841e+02 3.7326376524e+02 0.0000000000e+00 0.0000e+00 -1.0000e+00
<mgrwt>
<rscale>  0 0.89665312E+03</rscale>
<asrwt>0</asrwt>
<pdfrwt beam="1">  1        2 0.93500143E-01 0.89665312E+03</pdfrwt>
<pdfrwt beam="2">  1       -2 0.50880334E-01 0.89665312E+03</pdfrwt>
<totfact> 0.21825994E+02</totfact>
</mgrwt>
<rwgt>
<wgt id='morphing_basis_vector_1'> +4.0240432e-04 </wgt>
<wgt id='morphing_basis_vector_2'> +4.6118126e-04 </wgt>
<wgt id='morphing_basis_vector_3'> +3.6194803e-04 </wgt>
<wgt id='morphing_basis_vector_4'> +4.6731627e-05 </wgt>
<wgt id='morphing_basis_vector_5'> +2.6385365e-04 </wgt>
</rwgt>
</event>
<event>
 4      1 +2.9741700e-06 8.65829500e+02 7.81860800e-03 8.82378700e-02
        2 -1    0    0  501    0 +0.0000000000e+00 +0.0000000000e+00 +7.6835853198e+02 7.6835853198e+02 0.0000000000e+00 0.0000e+00 1.0000e+00
       -2 -1    0    0    0  501 -0.0000000000e+00 -0.0000000000e+00 -2.4391632476e+02 2.4391632476e+02 0.0000000000e+00 0.0000e+00 -1.0000e+00
      -13  1    1    2    0    0 +3.7193676533e+02 +1.5751629120e+02 +8.0094762621e+01 4.1178090096e+02 0.0000000000e+00 0.0000e+00 -1.0000e+00
       13  1    1    2    0    0 -3.7193676533e+02 -1.5751629120e+02 +4.4434744460e+02 6.0049395577e+02 0.0000000000e+00 0.0000e+00 1.0000e+00
<mgrwt>
<rscale>  0 0.86582952E+03</rscale>
<asrwt>0</asrwt>
<pdfrwt beam="1">  1        2 0.11820900E+00 0.86582952E+03</pdfrwt>
<pdfrwt beam="2">  1       -2 0.37525589E-01 0.86582952E+03</pdfrwt>
<totfact> 0.29293068E+02</totfact>
</mgrwt>
<rwgt>
<wgt id='morphing_basis_vector_1'> +2.7937299e-04 </wgt>
<wgt id='morphing_basis_vector_2'> +1.7638068e-04 </wgt>
<wgt id='morphing_basis_vector_3'> +2.5736728e-04 </wgt>
<wgt id='morphing_basis_vector_4'> +1.4376170e-04 </wgt>
<wgt id='morphing_basis_vector_5'> +2.3123853e-04 </wgt>
</rwgt>
</event>
<event>
 4      1 +2.9741700e-06 8.45244700e+02 7.81860800e-03 8.84750900e-02
        2 -1    0    0  501    0 +0.0000000000e+00 +0.0000000000e+00 +4.7450050002e+02 4.7450050002e+02 0.0000000000e+00 0.0000e+00 -1.0000e+00
       -2 -1    0    0    0  501 -0.0000000000e+00 -0.0000000000e+00 -3.7641614085e+02 3.7641614085e+02 0.0000000000e+00 0.0000e+00 1.0000e+00
      -13  1    1    2    0    0 -8.7249254358e+01 +3.9260710589e+02 +1.7974744979e+02 4.4052459373e+02 0.0000000000e+00 0.0000e+00 1.0000e+00
       13  1    1    2    0    0 +8.7249254358e+01 -3.9260710589e+02 -8.1663090617e+01 4.1039204713e+02 0.0000000000e+00 0.0000e+00 -1.0000e+00
<mgrwt>
<rscale>  0 0.84524469E+03</rscale>
<asrwt>0</asrwt>
<pdfrwt beam="1">  1        2 0.73000077E-01 0.84524469E+03</pdfrwt>
<pdfrwt beam="2">  1       -2 0.57910176E-01 0.84524469E+03</pdfrwt>
<totfact> 0.22499577E+02</totfact>
</mgrwt>
<rwgt>
<wgt id='morphing_basis_vector_1'> +2.7969024e-04 </wgt>
<wgt id='morphing_basis_vector_2'> +2.3276930e-04 </wgt>
<wgt id='morphing_basis_vector_3'> +2.5026395e-04 </wgt>
<wgt id='morphing_basis_vector_4'> +9.7772714e-05 </wgt>
<wgt id='morphing_basis_vector_5'> +2.0608746e-04 </wgt>
</rwgt>
</event>
<event>
 4      1 +2.9741700e-06 7.87771000e+02 7.81860800e-03 8.91770800e-02
        2 -1    0    0  501    0 +0.0000000000e+00 +0.0000000000e+00 +3.9573002460e+02 3.9573002460e+02 0.0000000000e+00 0.0000e+00 -1.0000e+00
       -2 -1    0    0    0  501 -0.0000000000e+00 -0.0000000000e+00 -3.9204958232e+02 3.9204958232e+02 0.0000000000e+00 0.0000e+00 1.0000e+00
      -13  1    1    2    0    0 +1.4791235077e+02 +3.0497697128e+02 +2.0248331978e+02 3.9482719171e+02 0.0000000000e+00 0.0000e+00 1.0000e+00
       13  1    1    2    0    0 -1.4791235077e+02 -3.0497697128e+02 -1.9880287750e+02 3.9295241521e+02 0.0000000000e+00 0.0000e+00 -1.0000e+00
<mgrwt>
<rscale>  0 0.78777101E+03</rscale>
<asrwt>0</asrwt>
<pdfrwt beam="1">  1        2 0.60881542E-01 0.78777101E+03</pdfrwt>
<pdfrwt beam="2">  1       -2 0.60315320E-01 0.78777101E+03</pdfrwt>
<totfact> 0.25500618E+02</totfact>
</mgrwt>
<rwgt>
<wgt id='morphing_basis_vector_1'> +2.3396263e-04 </wgt>
<wgt id='morphing_basis_vector_2'> +2.2969556e-04 </wgt>
<wgt id='morphing_basis_vector_3'> +1.9727873e-04 </wgt>
<wgt id='morphing_basis_vector_4'> +5.1473056e-05 </wgt>
<wgt id='morphing_basis_vector_5'> +1.4904699e-04 </wgt>
</rwgt>
</event>
<event>
 4      1 +2.9741700e-06 7.69868000e+02 7.81860800e-03 8.94088200e-02
        2 -1    0    0  501    0 +0.0000000000e+00 +0.0000000000e+00 +5.1594646266e+02 5.1594646266e+02 0.0000000000e+00 0.0000e+00 1.0000e+00
       -2 -1    0    0    0  501 -0.0000000000e+00 -0.0000000000e+00 -2.8718904069e+02 2.8718904069e+02 0.0000000000e+00 0.0000e+00 -1.0000e+00
      -13  1    1    2    0    0 +3.1599744728e+02 -1.4270576810e+02 -6.0043238262e+01 3.5188707478e+02 0.0000000000e+00 0.0000e+00 -1.0000e+00
       13  1    1    2    0    0 -3.1599744728e+02 +1.4270576810e+02 +2.8880066023e+02 4.5124842857e+02 0.0000000000e+00 0.0000e+00 1.0000e+00
<mgrwt>
<rscale>  0 0.76986796E+03</rscale>
<asrwt>0</asrwt>
<pdfrwt beam="1">  1        2 0.79376379E-01 0.76986796E+03</pdfrwt>
<pdfrwt beam="2">  1       -2 0.44182929E-01 0.76986796E+03</pdfrwt>
<totfact> 0.34907834E+02</totfact>
</mgrwt>
<rwgt>
<wgt id='morphing_basis_vector_1'> +1.8345869e-04 </wgt>
<wgt id='morphing_basis_vector_2'> +1.1232764e-04 </wgt>
<wgt id='morphing_basis_vector_3'> +1.6208163e-04 </wgt>
<wgt id='morphing_basis_vector_4'> +8.5532351e-05 </wgt>
<wgt id='morphing_basis_vector_5'> +1.3569894e-04 </wgt>
</rwgt>
</event>
<event>
 4      1 +2.9741700e-06 7.65436000e+02 7.81860800e-03 8.94672200e-02
        2 -1    0    0  501    0 +0.0000000000e+00 +0.0000000000e+00 +3.2438961711e+02 3.2438961711e+02 0.0000000000e+00 0.0000e+00 -1.0000e+00
       -2 -1    0    0    0  501 -0.0000000000e+00 -0.0000000000e+00 -4.5153441037e+02 4.5153441037e+02 0.0000000000e+00 0.0000e+00 1.0000e+00
      -13  1    1    2    0    0 -2.6193928818e+02 -2.0004118383e+02 -2.6077432951e+02 4.2027600080e+02 0.0000000000e+00 0.0000e+00 1.0000e+00
       13  1    1    2    0    0 +2.6193928818e+02 +2.0004118383e+02 +1.3362953624e+02 3.5564802668e+02 0.0000000000e+00 0.0000e+00 -1.0000e+00
<mgrwt>
<rscale>  0 0.76543602E+03</rscale>
<asrwt>0</asrwt>
<pdfrwt beam="1">  1        2 0.49906095E-01 0.76543602E+03</pdfrwt>
<pdfrwt beam="2">  1       -2 0.69466833E-01 0.76543602E+03</pdfrwt>
<totfact> 0.23778066E+02</totfact>
</mgrwt>
<rwgt>
<wgt id='morphing_basis_vector_1'> +1.7944738e-04 </wgt>
<wgt id='morphing_basis_vector_2'> +1.0893557e-04 </wgt>
<wgt id='morphing_basis_vector_3'> +1.5829926e-04 </wgt>
<wgt id='morphing_basis_vector_4'> +8.3717641e-05 </wgt>
<wgt id='morphing_basis_vector_5'> +1.3214318e-04 </wgt>
</rwgt>
</event>
<event>
 4      1 +2.9741700e-06 8.60336500e+02 7.81860800e-03 8.83004800e-02
        2 -1    0    0  501    0 +0.0000000000e+00 +0.0000000000e+00 +3.4614998672e+02 3.4614998672e+02 0.0000000000e+00 0.0000e+00 -1.0000e+00
       -2 -1    0    0    0  501 -0.0000000000e+00 -0.0000000000e+00 -5.3457960357e+02 5.3457960357e+02 0.0000000000e+00 0.0000e+00 1.0000e+00
      -13  1    1    2    0    0 -2.2767059275e+02 +3.0697530845e+02 -2.9632041200e+02 4.8360472016e+02 0.0000000000e+00 0.0000e+00 1.0000e+00
       13  1    1    2    0    0 +2.2767059275e+02 -3.0697530845e+02 +1.0789079514e+02 3.9712487013e+02 0.0000000000e+00 0.0000e+00 -1.0000e+00
<mgrwt>
<rscale>  0 0.86033650E+03</rscale>
<asrwt>0</asrwt>
<pdfrwt beam="1">  1        2 0.53253844E-01 0.86033650E+03</pdfrwt>
<pdfrwt beam="2">  1       -2 0.82243016E-01 0.86033650E+03</pdfrwt>
<totfact> 0.15154035E+02</totfact>
</mgrwt>
<rwgt>
<wgt id='morphing_basis_vector_1'> +2.7218294e-04 </wgt>
<wgt id='morphing_basis_vector_2'> +1.6957860e-04 </wgt>
<wgt id='morphing_basis_vector_3'> +2.5038225e-04 </wgt>
<wgt id='morphing_basis_vector_4'> +1.4094225e-04 </wgt>
<wgt id='morphing_basis_vector_5'> +2.2480504e-04 </wgt>
</rwgt>
</event>
<event>
 4      1 +2.9741700e-06 7.68686200e+02 7.81860800e-03 8.94243500e-02
        2 -1    0    0  501    0 +0.0000000000e+00 +0.0000000000e+00 +1.4732979852e+03 1.4732979852e+03 0.0000000000e+00 0.0000e+00 -1.0000e+00
       -2 -1    0    0    0  501 -0.0000000000e+00 -0.0000000000e+00 -1.0026460093e+02 1.0026460093e+02 0.0000000000e+00 0.0000e+00 1.0000e+00
      -13  1    1    2    0    0 -1.7855331027e+02 -1.4139627663e+02 +5.2762788589e+01 2.3379072589e+02 0.0000000000e+00 0.0000e+00 1.0000e+00
       13  1    1    2    0    0 +1.7855331027e+02 +1.4139627663e+02 +1.3202705957e+03 1.3397718602e+03 0.0000000000e+00 0.0000e+00 -1.0000e+00
<mgrwt>
<rscale>  0 0.76868624E+03</rscale>
<asrwt>0</asrwt>
<pdfrwt beam="1">  1        2 0.22666121E+00 0.76868624E+03</pdfrwt>
<pdfrwt beam="2">  1       -2 0.15425324E-01 0.76868624E+03</pdfrwt>
<totfact> 0.50600904E+02</totfact>
</mgrwt>
<rwgt>
<wgt id='morphing_basis_vector_1'> +1.8147707e-04 </wgt>
<wgt id='morphing_basis_vector_2'> +1.0863835e-04 </wgt>
<wgt id='morphing_basis_vector_3'> +1.6058929e-04 </wgt>
<wgt id='morphing_basis_vector_4'> +8.6134857e-05 </wgt>
<wgt id='morphing_basis_vector_5'> +1.3478606e-04 </wgt>
</rwgt>
</event>
<event>
 4      1 +2.9741700e-06 8.20764500e+02 7.81860800e-03 8.87666500e-02
        2 -1    0    0  501    0 +0.0000000000e+00 +0.0000000000e+00 +1.6990506814e+03 1.6990506814e+03 0.0000000000e+00 0.0000e+00 -1.0000e+00
       -2 -1    0    0    0  501 -0.0000000000e+00 -0.0000000000e+00 -9.9122164191e+01 9.9122164191e+01 0.0000000000e+00 0.0000e+00 1.0000e+00
      -13  1    1    2    0    0 -2.2539206798e+02 -2.7825104459e+02 +3.6076359658e+02 5.0830660111e+02 0.0000000000e+00 0.0000e+00 1.0000e+00
       13  1    1    2    0    0 +2.2539206798e+02 +2.7825104459e+02 +1.2391649207e+03 1.2898662445e+03 0.0000000000e+00 0.0000e+00 -1.0000e+00
<mgrwt>
<rscale>  0 0.82076447E+03</rscale>
<asrwt>0</asrwt>
<pdfrwt beam="1">  1        2 0.26139239E+00 0.82076447E+03</pdfrwt>
<pdfrwt beam="2">  1       -2 0.15249565E-01 0.82076447E+03</pdfrwt>
<totfact> 0.38592857E+02</totfact>
</mgrwt>
<rwgt>
<wgt id='morphing_basis_vector_1'> +2.2977119e-04 </wgt>
<wgt id='morphing_basis_vector_2'> +1.4156324e-04 </wgt>
<wgt id='morphing_basis_vector_3'> +2.0800738e-04 </wgt>
<wgt id='morphing_basis_vector_4'> +1.1452296e-04 </wgt>
<wgt id='morphing_basis_vector_5'> +1.8185553e-04 </wgt>
</rwgt>
</event>
<event>
 4      1 +2.9741700e-06 7.53679500e+02 7.81860800e-03 8.96242000e-02
        2 -1    0    0  501    0 +0.0000000000e+00 +0.0000000000e+00 +2.3631302070e+02 2.3631302070e+02 0.0000000000e+00 0.0000e+00 1.0000e+00
       -2 -1    0    0    0  501 -0.0000000000e+00 -0.0000000000e+00 -6.0093259001e+02 6.0093259001e+02 0.0000000000e+00 0.0000e+00 -1.0000e+00
      -13  1    1    2    0    0 -2.0587266908e+02 -2.2736982369e+02 -4.2550724406e+02 5.2453503920e+02 0.0000000000e+00 0.0000e+00 -1.0000e+00
       13  1    1    2    0    0 +2.0587266908e+02 +2.2736982369e+02 +6.0887674751e+01 3.1271057151e+02 0.0000000000e+00 0.0000e+00 1.0000e+00
<mgrwt>
<rscale>  0 0.75367950E+03</rscale>
<asrwt>0</asrwt>
<pdfrwt beam="1">  1        2 0.36355850E-01 0.75367950E+03</pdfrwt>
<pdfrwt beam="2">  1       -2 0.92451166E-01 0.75367950E+03</pdfrwt>
<totfact> 0.17897200E+02</totfact>
</mgrwt>
<rwgt>
<wgt id='morphing_basis_vector_1'> +1.6975371e-04 </wgt>
<wgt id='morphing_basis_vector_2'> +1.0217249e-04 </wgt>
<wgt id='morphing_basis_vector_3'> +1.4892525e-04 </wgt>
<wgt id='morphing_basis_vector_4'> +7.8294745e-05 </wgt>
<wgt id='morphing_basis_vector_5'> +1.2300535e-04 </wgt>
</rwgt>
</event>
<event>
 4      1 +2.9741700e-06 8.59534800e+02 7.81860800e-03 8.83096600e-02
        2 -1    0    0  501    0 +0.0000000000e+00 +0.0000000000e+00 +9.1431101339e+02 9.1431101339e+02 0.0000000000e+00 0.0000e+00 1.0000e+00
       -2 -1    0    0    0  501 -0.0000000000e+00 -0.0000000000e+00 -2.0201005203e+02 2.0201005203e+02 0.0000000000e+00 0.0000e+00 -1.0000e+00
      -13  1    1    2    0    0 +2.5810439035e+02 -1.2865181663e+02 -5.7682089079e+01 2.9410268554e+02 0.0000000000e+00 0.0000e+00 -1.0000e+00
       13  1    1    2    0    0 -2.5810439035e+02 +1.2865181663e+02 +7.6998305044e+02 8.2221837987e+02 0.0000000000e+00 0.0000e+00 1.0000e+00
<mgrwt>
<rscale>  0 0.85953479E+03</rscale>
<asrwt>0</asrwt>
<pdfrwt beam="1">  1        2 0.14066323E+00 0.85953479E+03</pdfrwt>
<pdfrwt beam="2">  1       -2 0.31078470E-01 0.85953479E+03</pdfrwt>
<totfact> 0.32797833E+02</totfact>
</mgrwt>
<rwgt>
<wgt id='morphing_basis_vector_1'> +2.7007077e-04 </wgt>
<wgt id='morphing_basis_vector_2'> +1.6532097e-04 </wgt>
<wgt id='morphing_basis_vector_3'> +2.4860793e-04 </wgt>
<wgt id='morphing_basis_vector_4'> +1.4199737e-04 </wgt>
<wgt id='morphing_basis_vector_5'> +2.2394901e-04 </wgt>
</rwgt>
</event>
<event>
 4      1 +2.9741700e-06 7.63326400e+02 7.81860800e-03 8.94951700e-02
        2 -1    0    0  501    0 +0.0000000000e+00 +0.0000000000e+00 +6.6558279763e+02 6.6558279763e+02 0.0000000000e+00 0.0000e+00 1.0000e+00
       -2 -1    0    0    0  501 -0.0000000000e+00 -0.0000000000e+00 -2.1885602416e+02 2.1885602416e+02 0.0000000000e+00 0.0000e+00 -1.0000e+00
      -13  1    1    2    0    0 -8.8058560613e+01 -1.7896530717e+02 +6.0039042547e+02 6.3265437189e+02 0.0000000000e+00 0.0000e+00 1.0000e+00
       13  1    1    2    0    0 +8.8058560613e+01 +1.7896530717e+02 -1.5366365200e+02 2.5178444991e+02 0.0000000000e+00 0.0000e+00 -1.0000e+00
<mgrwt>
<rscale>  0 0.76332642E+03</rscale>
<asrwt>0</asrwt>
<pdfrwt beam="1">  1        2 0.10239735E+00 0.76332642E+03</pdfrwt>
<pdfrwt beam="2">  1       -2 0.33670158E-01 0.76332642E+03</pdfrwt>
<totfact> 0.42786993E+02</totfact>
</mgrwt>
<rwgt>
<wgt id='morphing_basis_vector_1'> +2.3782710e-04 </wgt>
<wgt id='morphing_basis_vector_2'> +2.9233152e-04 </wgt>
<wgt id='morphing_basis_vector_3'> +1.8748210e-04 </wgt>
<wgt id='morphing_basis_vector_4'> +1.1038137e-05 </wgt>
<wgt id='morphing_basis_vector_5'> +1.2777633e-04 </wgt>
</rwgt>
</event>
<event>
 4      1 +2.9741700e-06 8.01764400e+02 7.81860800e-03 8.90004600e-02
        2 -1    0    0  501    0 +0.0000000000e+00 +0.0000000000e+00 +1.6285293138e+03 1.6285293138e+03 0.0000000000e+00 0.0000e+00 1.0000e+00
       -2 -1    0    0    0  501 -0.0000000000e+00 -0.0000000000e+00 -9.8682000732e+01 9.8682000732e+01 0.0000000000e+00 0.0000e+00 -1.0000e+00
      -13  1    1    2    0    0 +2.1473851217e+02 -2.8425101649e+02 +3.6889498953e+02 5.1283016905e+02 0.0000000000e+00 0.0000e+00 -1.0000e+00
       13  1    1    2    0    0 -2.1473851217e+02 +2.8425101649e+02 +1.1609523235e+03 1.2143811455e+03 0.0000000000e+00 0.0000e+00 1.0000e+00
<mgrwt>
<rscale>  0 0.80176438E+03</rscale>
<asrwt>0</asrwt>
<pdfrwt beam="1">  1        2 0.25054295E+00 0.80176438E+03</pdfrwt>
<pdfrwt beam="2">  1       -2 0.15181847E-01 0.80176438E+03</pdfrwt>
<totfact> 0.42551306E+02</totfact>
</mgrwt>
<rwgt>
<wgt id='morphing_basis_vector_1'> +2.1157368e-04 </wgt>
<wgt id='morphing_basis_vector_2'> +1.3018102e-04 </wgt>
<wgt id='morphing_basis_vector_3'> +1.8987158e-04 </wgt>
<wgt id='morphing_basis_vector_4'> +1.0291030e-04 </wgt>
<wgt id='morphing_basis_vector_5'> +1.6348073e-04 </wgt>
</rwgt>
</event>
<event>
 4      1 +2.9741700e-06 7.82223100e+02 7.81860800e-03 8.92481900e-02
        2 -1    0    0  501    0 +0.0000000000e+00 +0.0000000000e+00 +4.1337476382e+02 4.1337476382e+02 0.0000000000e+00 0.0000e+00 -1.0000e+00
       -2 -1    0    0    0  501 -0.0000000000e+00 -0.0000000000e+00 -3.7004737840e+02 3.7004737840e+02 0.0000000000e+00 0.0000e+00 1.0000e+00
      -13  1    1    2    0    0 -2.2822190740e+02 -1.9108228211e+02 -2.3243877244e+02 3.7765786168e+02 0.0000000000e+00 0.0000e+00 1.0000e+00
       13  1    1    2    0    0 +2.2822190740e+02 +1.9108228211e+02 +2.7576615785e+02 4.0576428055e+02 0.0000000000e+00 0.0000e+00 -1.0000e+00
<mgrwt>
<rscale>  0 0.78222311E+03</rscale>
<asrwt>0</asrwt>
<pdfrwt beam="1">  1        2 0.63596118E-01 0.78222311E+03</pdfrwt>
<pdfrwt beam="2">  1       -2 0.56930366E-01 0.78222311E+03</pdfrwt>
<totfact> 0.27309713E+02</totfact>
</mgrwt>
<rwgt>
<wgt id='morphing_basis_vector_1'> +1.9322075e-04 </wgt>
<wgt id='morphing_basis_vector_2'> +1.1667920e-04 </wgt>
<wgt id='morphing_basis_vector_3'> +1.7202860e-04 </wgt>
<wgt id='morphing_basis_vector_4'> +9.2916438e-05 </wgt>
<wgt id='morphing_basis_vector_5'> +1.4605841e-04 </wgt>
</rwgt>
</event>
<event>
 4      1 +2.9741700e-06 7.84655500e+02 7.81860800e-03 8.92169400e-02
        2 -1    0    0  501    0 +0.0000000000e+00 +0.0000000000e+00 +1.4230594320e+02 1.4230594320e+02 0.0000000000e+00 0.0000e+00 1.0000e+00
       -2 -1    0    0    0  501 -0.0000000000e+00 -0.0000000000e+00 -1.0816208388e+03 1.0816208388e+03 0.0000000000e+00 0.0000e+00 -1.0000e+00
      -13  1    1    2    0    0 +6.5642369525e+01 -2.0927409785e+02 -9.7706053687e+02 1.0013749854e+03 0.0000000000e+00 0.0000e+00 -1.0000e+00
       13  1    1    2    0    0 -6.5642369525e+01 +2.0927409785e+02 +3.7745641314e+01 2.2255179654e+02 0.0000000000e+00 0.0000e+00 1.0000e+00
<mgrwt>
<rscale>  0 0.78465553E+03</rscale>
<asrwt>0</asrwt>
<pdfrwt beam="1">  1        2 0.21893222E-01 0.78465553E+03</pdfrwt>
<pdfrwt beam="2">  1       -2 0.16640321E+00 0.78465553E+03</pdfrwt>
<totfact> 0.68351060E+01</totfact>
</mgrwt>
<rwgt>
<wgt id='morphing_basis_vector_1'> +1.9507128e-04 </wgt>
<wgt id='morphing_basis_vector_2'> +1.1718607e-04 </wgt>
<wgt id='morphing_basis_vector_3'> +1.7396913e-04 </wgt>
<wgt id='morphing_basis_vector_4'> +9.4570492e-05 </wgt>
<wgt id='morphing_basis_vector_5'> +1.4816926e-04 </wgt>
</rwgt>
</event>
<event>
 4      1 +2.9741700e-06 8.68748100e+02 7.81860800e-03 8.82048000e-02
        2 -1    0    0  501    0 +0.0000000000e+00 +0.0000000000e+00 +1.9175316430e+03 1.9175316430e+03 0.0000000000e+00 0.0000e+00 -1.0000e+00
       -2 -1    0    0    0  501 -0.0000000000e+00 -0.0000000000e+00 -9.8397755459e+01 9.8397755459e+01 0.0000000000e+00 0.0000e+00 1.0000e+00
      -13  1    1    2    0    0 -1.8741723683e+02 -2.0660432830e+02 +1.3690601486e+02 3.1073111534e+02 0.0000000000e+00 0.0000e+00 1.0000e+00
       13  1    1    2    0    0 +1.8741723683e+02 +2.0660432830e+02 +1.6822278727e+03 1.7051982832e+03 0.0000000000e+00 0.0000e+00 -1.0000e+00
<mgrwt>
<rscale>  0 0.86874809E+03</rscale>
<asrwt>0</asrwt>
<pdfrwt beam="1">  1        2 0.29500484E+00 0.86874809E+03</pdfrwt>
<pdfrwt beam="2">  1       -2 0.15138118E-01 0.86874809E+03</pdfrwt>
<totfact> 0.29511821E+02</totfact>
</mgrwt>
<rwgt>
<wgt id='morphing_basis_vector_1'> +2.8059408e-04 </wgt>
<wgt id='morphing_basis_vector_2'> +1.7195965e-04 </wgt>
<wgt id='morphing_basis_vector_3'> +2.5920022e-04 </wgt>
<wgt id='morphing_basis_vector_4'> +1.4892922e-04 </wgt>
<wgt id='morphing_basis_vector_5'> +2.3489315e-04 </wgt>
</rwgt>
</event>
<event>
 4      1 +2.9741700e-06 7.52274200e+02 7.81860800e-03 8.96431700e-02
        2 -1    0    0  501    0 +0.0000000000e+00 +0.0000000000e+00 +4.3763218566e+02 4.3763218566e+02 0.0000000000e+00 0.0000e+00 -1.0000e+00
       -2 -1    0    0    0  501 -0.0000000000e+00 -0.0000000000e+00 -3.2328312360e+02 3.2328312360e+02 0.0000000000e+00 0.0000e+00 1.0000e+00
      -13  1    1    2    0    0 -2.4922297179e+02 +4.3895221660e+01 +3.3865189206e+02 4.2275759503e+02 0.0000000000e+00 0.0000e+00 1.0000e+00
       13  1    1    2    0    0 +2.4922297179e+02 -4.3895221660e+01 -2.2430283000e+02 3.3815771424e+02 0.0000000000e+00 0.0000e+00 -1.0000e+00
<mgrwt>
<rscale>  0 0.75227415E+03</rscale>
<asrwt>0</asrwt>
<pdfrwt beam="1">  1        2 0.67328028E-01 0.75227415E+03</pdfrwt>
<pdfrwt beam="2">  1       -2 0.49735865E-01 0.75227415E+03</pdfrwt>
<totfact> 0.33533130E+02</totfact>
</mgrwt>
<rwgt>
<wgt id='morphing_basis_vector_1'> +2.1877562e-04 </wgt>
<wgt id='morphing_basis_vector_2'> +2.5544384e-04 </wgt>
<wgt id='morphing_basis_vector_3'> +1.7225655e-04 </wgt>
<wgt id='morphing_basis_vector_4'> +1.9031445e-05 </wgt>
<wgt id='morphing_basis_vector_5'> +1.1984385e-04 </wgt>
</rwgt>
</event>
<event>
 4      1 +2.9741700e-06 7.60503100e+02 7.81860800e-03 8.95327200e-02
        2 -1    0    0  501    0 +0.0000000000e+00 +0.0000000000e+00 +4.2737452330e+02 4.2737452330e+02 0.0000000000e+00 0.0000e+00 -1.0000e+00
       -2 -1    0    0    0  501 -0.0000000000e+00 -0.0000000000e+00 -3.3832445930e+02 3.3832445930e+02 0.0000000000e+00 0.0000e+00 1.0000e+00
      -13  1    1    2    0    0 -2.4869524600e+02 -1.5879857231e+02 -1.9695718721e+02 3.5476533870e+02 0.0000000000e+00 0.0000e+00 1.0000e+00
       13  1    1    2    0    0 +2.4869524600e+02 +1.5879857231e+02 +2.8600725121e+02 4.1093364391e+02 0.0000000000e+00 0.0000e+00 -1.0000e+00
<mgrwt>
<rscale>  0 0.76050313E+03</rscale>
<asrwt>0</asrwt>
<pdfrwt beam="1">  1        2 0.65749927E-01 0.76050313E+03</pdfrwt>
<pdfrwt beam="2">  1       -2 0.52049917E-01 0.76050313E+03</pdfrwt>
<totfact> 0.31490692E+02</totfact>
</mgrwt>
<rwgt>
<wgt id='morphing_basis_vector_1'> +1.7506198e-04 </wgt>
<wgt id='morphing_basis_vector_2'> +1.0523920e-04 </wgt>
<wgt id='morphing_basis_vector_3'> +1.5417593e-04 </wgt>
<wgt id='morphing_basis_vector_4'> +8.1727116e-05 </wgt>
<wgt id='morphing_basis_vector_5'> +1.2826385e-04 </wgt>
</rwgt>
</event>
<event>
 4      1 +2.9741700e-06 7.89405200e+02 7.81860800e-03 8.91562600e-02
        2 -1    0    0  501    0 +0.0000000000e+00 +0.0000000000e+00 +6.0640492533e+02 6.0640492533e+02 0.0000000000e+00 0.0000e+00 1.0000e+00
       -2 -1    0    0    0  501 -0.0000000000e+00 -0.0000000000e+00 -2.5690779821e+02 2.5690779821e+02 0.0000000000e+00 0.0000e+00 -1.0000e+00
      -13  1    1    2    0    0 -8.6636152180e+01 +1.1258609808e+02 -2.2797952575e+02 2.6861890571e+02 0.0000000000e+00 0.0000e+00 -1.0000e+00
       13  1    1    2    0    0 +8.6636152180e+01 -1.1258609808e+02 +5.7747665287e+02 5.9469381783e+02 0.0000000000e+00 0.0000e+00 1.0000e+00
<mgrwt>
<rscale>  0 0.78940523E+03</rscale>
<asrwt>0</asrwt>
<pdfrwt beam="1">  1        2 0.93293065E-01 0.78940523E+03</pdfrwt>
<pdfrwt beam="2">  1       -2 0.39524277E-01 0.78940523E+03</pdfrwt>
<totfact> 0.35637020E+02</totfact>
</mgrwt>
<rwgt>
<wgt id='morphing_basis_vector_1'> +1.9921296e-04 </wgt>
<wgt id='morphing_basis_vector_2'> +1.1966852e-04 </wgt>
<wgt id='morphing_basis_vector_3'> +1.7807862e-04 </wgt>
<wgt id='morphing_basis_vector_4'> +9.7255781e-05 </wgt>
<wgt id='morphing_basis_vector_5'> +1.5232977e-04 </wgt>
</rwgt>
</event>
<event>
 4      1 +2.9741700e-06 7.74962400e+02 7.81860800e-03 8.93422000e-02
        2 -1    0    0  501    0 +0.0000000000e+00 +0.0000000000e+00 +1.0330044491e+03 1.0330044491e+03 0.0000000000e+00 0.0000e+00 1.0000e+00
       -2 -1    0    0    0  501 -0.0000000000e+00 -0.0000000000e+00 -1.4534464929e+02 1.4534464929e+02 0.0000000000e+00 0.0000e+00 -1.0000e+00
      -13  1    1    2    0    0 -3.0364626102e+02 -1.1789705343e+01 +7.8265947034e+01 3.1379229986e+02 0.0000000000e+00 0.0000e+00 -1.0000e+00
       13  1    1    2    0    0 +3.0364626102e+02 +1.1789705343e+01 +8.0939385277e+02 8.6455679853e+02 0.0000000000e+00 0.0000e+00 1.0000e+00
<mgrwt>
<rscale>  0 0.77496237E+03</rscale>
<asrwt>0</asrwt>
<pdfrwt beam="1">  1        2 0.15892376E+00 0.77496237E+03</pdfrwt>
<pdfrwt beam="2">  1       -2 0.22360716E-01 0.77496237E+03</pdfrwt>
<totfact> 0.49036349E+02</totfact>
</mgrwt>
<rwgt>
<wgt id='morphing_basis_vector_1'> +1.8704748e-04 </wgt>
<wgt id='morphing_basis_vector_2'> +1.1291721e-04 </wgt>
<wgt id='morphing_basis_vector_3'> +1.6592305e-04 </wgt>
<wgt id='morphing_basis_vector_4'> +8.8993719e-05 </wgt>
<wgt id='morphing_basis_vector_5'> +1.3992236e-04 </wgt>
</rwgt>
</event>
<event>
 4      1 +2.9741700e-06 8.66717700e+02 7.81860800e-03 8.82277900e-02
        2 -1    0    0  501    0 +0.0000000000e+00 +0.0000000000e+00 +4.3102349408e+02 4.3102349408e+02 0.0000000000e+00 0.0000e+00 -1.0000e+00
       -2 -1    0    0    0  501 -0.0000000000e+00 -0.0000000000e+00 -4.3570687738e+02 4.3570687738e+02 0.0000000000e+00 0.0000e+00 1.0000e+00
      -13  1    1    2    0    0 +2.5453590798e+02 +3.8372581110e+01 -3.5097110239e+02 4.3524900706e+02 0.0000000000e+00 0.0000e+00 1.0000e+00
       13  1    1    2    0    0 -2.5453590798e+02 -3.8372581110e+01 +3.4628771909e+02 4.3148136440e+02 0.0000000000e+00 0.0000e+00 -1.0000e+00
<mgrwt>
<rscale>  0 0.86671772E+03</rscale>
<asrwt>0</asrwt>
<pdfrwt beam="1">  1        2 0.66311306E-01 0.86671772E+03</pdfrwt>
<pdfrwt beam="2">  1       -2 0.67031828E-01 0.86671772E+03</pdfrwt>
<totfact> 0.18518972E+02</totfact>
</mgrwt>
<rwgt>
<wgt id='morphing_basis_vector_1'> +2.7817502e-04 </wgt>
<wgt id='morphing_basis_vector_2'> +1.7025640e-04 </wgt>
<wgt id='morphing_basis_vector_3'> +2.5678397e-04 </wgt>
<wgt id='morphing_basis_vector_4'> +1.4748118e-04 </wgt>
<wgt id='morphing_basis_vector_5'> +2.3245383e-04 </wgt>
</rwgt>
</event>
<event>
 4      1 +2.9741700e-06 7.56765200e+02 7.81860800e-03 8.95827100e-02
        2 -1    0    0  501    0 +0.0000000000e+00 +0.0000000000e+00 +3.8373953914e+02 3.8373953914e+02 0.0000000000e+00 0.0000e+00 -1.0000e+00
       -2 -1    0    0    0  501 -0.0000000000e+00 -0.0000000000e+00 -3.7310046920e+02 3.7310046920e+02 0.0000000000e+00 0.0000e+00 1.0000e+00
      -13  1    1    2    0    0 +1.5932411236e+02 -2.3174950496e+02 -2.4784851518e+02 3.7486116404e+02 0.0000000000e+00 0.0000e+00 1.0000e+00
       13  1    1    2    0    0 -1.5932411236e+02 +2.3174950496e+02 +2.5848758512e+02 3.8197884430e+02 0.0000000000e+00 0.0000e+00 -1.0000e+00
<mgrwt>
<rscale>  0 0.75676523E+03</rscale>
<asrwt>0</asrwt>
<pdfrwt beam="1">  1        2 0.59036852E-01 0.75676523E+03</pdfrwt>
<pdfrwt beam="2">  1       -2 0.57400072E-01 0.75676523E+03</pdfrwt>
<totfact> 0.29246250E+02</totfact>
</mgrwt>
<rwgt>
<wgt id='morphing_basis_vector_1'> +1.7199156e-04 </wgt>
<wgt id='morphing_basis_vector_2'> +1.0309992e-04 </wgt>
<wgt id='morphing_basis_vector_3'> +1.5120982e-04 </wgt>
<wgt id='morphing_basis_vector_4'> +8.0006316e-05 </wgt>
<wgt id='morphing_basis_vector_5'> +1.2537008e-04 </wgt>
</rwgt>
</event>
<event>
 4      1 +2.9741700e-06 8.72521500e+02 7.81860800e-03 8.81622400e-02
        2 -1    0    0  501    0 +0.0000000000e+00 +0.0000000000e+00 +7.7067159650e+02 7.7067159650e+02 0.0000000000e+00 0.0000e+00 1.0000e+00
       -2 -1    0    0    0  501 -0.0000000000e+00 -0.0000000000e+00 -2.4695791549e+02 2.4695791549e+02 0.0000000000e+00 0.0000e+00 -1.0000e+00
      -13  1    1    2    0    0 +1.1913434776e+02 +3.6815699839e+02 +2.6878520906e+01 3.8788532219e+02 0.0000000000e+00 0.0000e+00 1.0000e+00
       13  1    1    2    0    0 -1.1913434776e+02 -3.6815699839e+02 +4.9683516010e+02 6.2974418981e+02 0.0000000000e+00 0.0000e+00 -1.0000e+00
<mgrwt>
<rscale>  0 0.87252152E+03</rscale>
<asrwt>0</asrwt>
<pdfrwt beam="1">  1        2 0.11856486E+00 0.87252152E+03</pdfrwt>
<pdfrwt beam="2">  1       -2 0.37993526E-01 0.87252152E+03</pdfrwt>
<totfact> 0.28513669E+02</totfact>
</mgrwt>
<rwgt>
<wgt id='morphing_basis_vector_1'> +2.8631367e-04 </wgt>
<wgt id='morphing_basis_vector_2'> +1.7875777e-04 </wgt>
<wgt id='morphing_basis_vector_3'> +2.6460909e-04 </wgt>
<wgt id='morphing_basis_vector_4'> +1.5001548e-04 </wgt>
<wgt id='morphing_basis_vector_5'> +2.3939331e-04 </wgt>
</rwgt>
</event>
<event>
 4      1 +2.9741700e-06 7.97796300e+02 7.81860800e-03 8.90501500e-02
        2 -1    0    0  501    0 +0.0000000000e+00 +0.0000000000e+00 +2.4479818866e+03 2.4479818866e+03 0.0000000000e+00 0.0000e+00 -1.0000e+00
       -2 -1    0    0    0  501 -0.0000000000e+00 -0.0000000000e+00 -6.5000370652e+01 6.5000370652e+01 0.0000000000e+00 0.0000e+00 1.0000e+00
      -13  1    1    2    0    0 +1.1435650126e+02 +3.1229363637e+02 +4.9768891115e+02 5.9858080238e+02 0.0000000000e+00 0.0000e+00 1.0000e+00
       13  1    1    2    0    0 -1.1435650126e+02 -3.1229363637e+02 +1.8852926048e+03 1.9144014548e+03 0.0000000000e+00 0.0000e+00 -1.0000e+00
<mgrwt>
<rscale>  0 0.79779629E+03</rscale>
<asrwt>0</asrwt>
<pdfrwt beam="1">  1        2 0.37661253E+00 0.79779629E+03</pdfrwt>
<pdfrwt beam="2">  1       -2 0.10000059E-01 0.79779629E+03</pdfrwt>
<totfact> 0.28895238E+02</totfact>
</mgrwt>
<rwgt>
<wgt id='morphing_basis_vector_1'> +2.0745773e-04 </wgt>
<wgt id='morphing_basis_vector_2'> +1.2648193e-04 </wgt>
<wgt id='morphing_basis_vector_3'> +1.8596663e-04 </wgt>
<wgt id='morphing_basis_vector_4'> +1.0117993e-04 </wgt>
<wgt id='morphing_basis_vector_5'> +1.5984381e-04 </wgt>
</rwgt>
</event>
<event>
 4      1 +2.9741700e-06 7.74665500e+02 7.81860800e-03 8.93460700e-02
        2 -1    0    0  501    0 +0.0000000000e+00 +0.0000000000e+00 +1.0113811713e+03 1.0113811713e+03 0.0000000000e+00 0.0000e+00 1.0000e+00
       -2 -1    0    0    0  501 -0.0000000000e+00 -0.0000000000e+00 -1.4833839256e+02 1.4833839256e+02 0.0000000000e+00 0.0000e+00 -1.0000e+00
      -13  1    1    2    0    0 -2.7360078600e+02 +2.8232895167e+01 +2.3254649954e+01 2.7603489855e+02 0.0000000000e+00 0.0000e+00 -1.0000e+00
       13  1    1    2    0    0 +2.7360078600e+02 -2.8232895167e+01 +8.3978812881e+02 8.8368466534e+02 0.0000000000e+00 0.0000e+00 1.0000e+00
<mgrwt>
<rscale>  0 0.77466549E+03</rscale>
<asrwt>0</asrwt>
<pdfrwt beam="1">  1        2 0.15559710E+00 0.77466549E+03</pdfrwt>
<pdfrwt beam="2">  1       -2 0.22821292E-01 0.77466549E+03</pdfrwt>
<totfact> 0.48844945E+02</totfact>
</mgrwt>
<rwgt>
<wgt id='morphing_basis_vector_1'> +1.8661851e-04 </wgt>
<wgt id='morphing_basis_vector_2'> +1.1221366e-04 </wgt>
<wgt id='morphing_basis_vector_3'> +1.6557976e-04 </wgt>
<wgt id='morphing_basis_vector_4'> +8.9054422e-05 </wgt>
<wgt id='morphing_basis_vector_5'> +1.3968406e-04 </wgt>
</rwgt>
</event>
<event>
 4      1 +2.9741700e-06 7.65351400e+02 7.81860800e-03 8.94683400e-02
        2 -1    0    0  501    0 +0.0000000000e+00 +0.0000000000e+00 +1.1765381921e+03 1.1765381921e+03 0.0000000000e+00 0.0000e+00 1.0000e+00
       -2 -1    0    0    0  501 -0.0000000000e+00 -0.0000000000e+00 -1.2446744853e+02 1.2446744853e+02 0.0000000000e+00 0.0000e+00 -1.0000e+00
      -13  1    1    2    0    0 -1.9391711902e+02 -2.6158322152e+01 -3.2996743219e+01 1.9843611549e+02 0.0000000000e+00 0.0000e+00 -1.0000e+00
       13  1    1    2    0    0 +1.9391711902e+02 +2.6158322152e+01 +1.0850674868e+03 1.1025695252e+03 0.0000000000e+00 0.0000e+00 1.0000e+00
<mgrwt>
<rscale>  0 0.76535144E+03</rscale>
<asrwt>0</asrwt>
<pdfrwt beam="1">  1        2 0.18100587E+00 0.76535144E+03</pdfrwt>
<pdfrwt beam="2">  1       -2 0.19148839E-01 0.76535144E+03</pdfrwt>
<totfact> 0.52236368E+02</totfact>
</mgrwt>
<rwgt>
<wgt id='morphing_basis_vector_1'> +1.7868961e-04 </wgt>
<wgt id='morphing_basis_vector_2'> +1.0677872e-04 </wgt>
<wgt id='morphing_basis_vector_3'> +1.5787425e-04 </wgt>
<wgt id='morphing_basis_vector_4'> +8.4498704e-05 </wgt>
<wgt id='morphing_basis_vector_5'> +1.3210685e-04 </wgt>
</rwgt>
</event>
<event>
 4      1 +2.9741700e-06 8.99540500e+02 7.81860800e-03 8.78639900e-02
        2 -1    0    0  501    0 +0.0000000000e+00 +0.0000000000e+00 +7.2064240140e+02 7.2064240140e+02 0.0000000000e+00 0.0000e+00 -1.0000e+00
       -2 -1    0    0    0  501 -0.0000000000e+00 -0.0000000000e+00 -2.8071244514e+02 2.8071244514e+02 0.0000000000e+00 0.0000e+00 1.0000e+00
      -13  1    1    2    0    0 -2.4125143468e+02 +3.0103927869e+02 -3.7434518942e+01 3.8759288597e+02 0.0000000000e+00 0.0000e+00 1.0000e+00
       13  1    1    2    0    0 +2.4125143468e+02 -3.0103927869e+02 +4.7736447520e+02 6.1376196056e+02 0.0000000000e+00 0.0000e+00 -1.0000e+00
<mgrwt>
<rscale>  0 0.89954053E+03</rscale>
<asrwt>0</asrwt>
<pdfrwt beam="1">  1        2 0.11086806E+00 0.89954053E+03</pdfrwt>
<pdfrwt beam="2">  1       -2 0.43186530E-01 0.89954053E+03</pdfrwt>
<totfact> 0.24375293E+02</totfact>
</mgrwt>
<rwgt>
<wgt id='morphing_basis_vector_1'> +3.1933412e-04 </wgt>
<wgt id='morphing_basis_vector_2'> +1.9942740e-04 </wgt>
<wgt id='morphing_basis_vector_3'> +2.9806787e-04 </wgt>
<wgt id='morphing_basis_vector_4'> +1.7214100e-04 </wgt>
<wgt id='morphing_basis_vector_5'> +2.7419825e-04 </wgt>
</rwgt>
</event>
<event>
 4      1 +2.9741700e-06 7.63172400e+02 7.81860800e-03 8.94972100e-02
        2 -1    0    0  501    0 +0.0000000000e+00 +0.0000000000e+00 +5.1971214975e+02 5.1971214975e+02 0.0000000000e+00 0.0000e+00 1.0000e+00
       -2 -1    0    0    0  501 -0.0000000000e+00 -0.0000000000e+00 -2.8017049290e+02 2.8017049290e+02 0.0000000000e+00 0.0000e+00 -1.0000e+00
      -13  1    1    2    0    0 +1.4494832002e+02 +3.1859196522e+02 -3.9517103700e+01 3.5223920461e+02 0.0000000000e+00 0.0000e+00 -1.0000e+00
       13  1    1    2    0    0 -1.4494832002e+02 -3.1859196522e+02 +2.7905876055e+02 4.4764343804e+02 0.0000000000e+00 0.0000e+00 1.0000e+00
<mgrwt>
<rscale>  0 0.76317235E+03</rscale>
<asrwt>0</asrwt>
<pdfrwt beam="1">  1        2 0.79955715E-01 0.76317235E+03</pdfrwt>
<pdfrwt beam="2">  1       -2 0.43103153E-01 0.76317235E+03</pdfrwt>
<totfact> 0.36290663E+02</totfact>
</mgrwt>
<rwgt>
<wgt id='morphing_basis_vector_1'> +1.7811869e-04 </wgt>
<wgt id='morphing_basis_vector_2'> +1.0935949e-04 </wgt>
<wgt id='morphing_basis_vector_3'> +1.5675211e-04 </wgt>
<wgt id='morphing_basis_vector_4'> +8.1973428e-05 </wgt>
<wgt id='morphing_basis_vector_5'> +1.3032176e-04 </wgt>
</rwgt>
</event>
<event>
 4      1 +2.9741700e-06 8.28385100e+02 7.81860800e-03 8.86747500e-02
        2 -1    0    0  501    0 +0.0000000000e+00 +0.0000000000e+00 +9.2746794680e+02 9.2746794680e+02 0.0000000000e+00 0.0000e+00 -1.0000e+00
       -2 -1    0    0    0  501 -0.0000000000e+00 -0.0000000000e+00 -1.8497184158e+02 1.8497184158e+02 0.0000000000e+00 0.0000e+00 1.0000e+00
      -13  1    1    2    0    0 +3.0096137086e+02 -2.2144211476e+02 +1.3124367217e+02 3.9602936561e+02 0.0000000000e+00 0.0000e+00 1.0000e+00
       13  1    1    2    0    0 -3.0096137086e+02 +2.2144211476e+02 +6.1125243306e+02 7.1641042277e+02 0.0000000000e+00 0.0000e+00 -1.0000e+00
<mgrwt>
<rscale>  0 0.82838507E+03</rscale>
<asrwt>0</asrwt>
<pdfrwt beam="1">  1        2 0.14268737E+00 0.82838507E+03</pdfrwt>
<pdfrwt beam="2">  1       -2 0.28457207E-01 0.82838507E+03</pdfrwt>
<totfact> 0.37631491E+02</totfact>
</mgrwt>
<rwgt>
<wgt id='morphing_basis_vector_1'> +2.3782836e-04 </wgt>
<wgt id='morphing_basis_vector_2'> +1.4763782e-04 </wgt>
<wgt id='morphing_basis_vector_3'> +2.1591562e-04 </wgt>
<wgt id='morphing_basis_vector_4'> +1.1888324e-04 </wgt>
<wgt id='morphing_basis_vector_5'> +1.8960174e-04 </wgt>
</rwgt>
</event>
<event>
 4      1 +2.9741700e-06 8.77428400e+02 7.81860800e-03 8.81072400e-02
        2 -1    0    0  501    0 +0.0000000000e+00 +0.0000000000e+00 +7.5304136260e+02 7.5304136260e+02 0.0000000000e+00 0.0000e+00 -1.0000e+00
       -2 -1    0    0    0  501 -0.0000000000e+00 -0.0000000000e+00 -2.5559040902e+02 2.5559040902e+02 0.0000000000e+00 0.0000e+00 1.0000e+00
      -13  1    1    2    0    0 +1.8389660592e+02 +2.2038262463e+02 -1.3267606089e+02 3.1621100557e+02 0.0000000000e+00 0.0000e+00 1.0000e+00
       13  1    1    2    0    0 -1.8389660592e+02 -2.2038262463e+02 +6.3012701446e+02 6.9242076605e+02 0.0000000000e+00 0.0000e+00 -1.0000e+00
<mgrwt>
<rscale>  0 0.87742840E+03</rscale>
<asrwt>0</asrwt>
<pdfrwt beam="1">  1        2 0.11585252E+00 0.87742840E+03</pdfrwt>
<pdfrwt beam="2">  1       -2 0.39321602E-01 0.87742840E+03</pdfrwt>
<totfact> 0.27541897E+02</totfact>
</mgrwt>
<rwgt>
<wgt id='morphing_basis_vector_1'> +2.9086624e-04 </wgt>
<wgt id='morphing_basis_vector_2'> +1.7861033e-04 </wgt>
<wgt id='morphing_basis_vector_3'> +2.6954027e-04 </wgt>
<wgt id='morphing_basis_vector_4'> +1.5558845e-04 </wgt>
<wgt id='morphing_basis_vector_5'> +2.4554880e-04 </wgt>
</rwgt>
</event>
<event>
 4      1 +2.9741700e-06 7.63524500e+02 7.81860800e-03 8.94925400e-02
        2 -1    0    0  501    0 +0.0000000000e+00 +0.0000000000e+00 +9.2943663801e+02 9.2943663801e+02 0.0000000000e+00 0.0000e+00 1.0000e+00
       -2 -1    0    0    0  501 -0.0000000000e+00 -0.0000000000e+00 -1.5680726104e+02 1.5680726104e+02 0.0000000000e+00 0.0000e+00 -1.0000e+00
      -13  1    1    2    0    0 +2.7211202111e+02 -1.3107048736e+02 +7.1849530675e+02 7.7939715839e+02 0.0000000000e+00 0.0000e+00 1.0000e+00
       13  1    1    2    0    0 -2.7211202111e+02 +1.3107048736e+02 +5.4134070225e+01 3.0684674065e+02 0.0000000000e+00 0.0000e+00 -1.0000e+00
<mgrwt>
<rscale>  0 0.76352449E+03</rscale>
<asrwt>0</asrwt>
<pdfrwt beam="1">  1        2 0.14299025E+00 0.76352449E+03</pdfrwt>
<pdfrwt beam="2">  1       -2 0.24124195E-01 0.76352449E+03</pdfrwt>
<totfact> 0.50062189E+02</totfact>
</mgrwt>
<rwgt>
<wgt id='morphing_basis_vector_1'> +2.1889590e-04 </wgt>
<wgt id='morphing_basis_vector_2'> +2.3382707e-04 </wgt>
<wgt id='morphing_basis_vector_3'> +1.7785215e-04 </wgt>
<wgt id='morphing_basis_vector_4'> +3.3874190e-05 </wgt>
<wgt id='morphing_basis_vector_5'> +1.2878565e-04 </wgt>
</rwgt>
</event>
<event>
 4      1 +2.9741700e-06 8.31011500e+02 7.81860800e-03 8.86433200e-02
        2 -1    0    0  501    0 +0.0000000000e+00 +0.0000000000e+00 +7.2575571904e+02 7.2575571904e+02 0.0000000000e+00 0.0000e+00 1.0000e+00
       -2 -1    0    0    0  501 -0.0000000000e+00 -0.0000000000e+00 -2.3788313238e+02 2.3788313238e+02 0.0000000000e+00 0.0000e+00 -1.0000e+00
      -13  1    1    2    0    0 +4.0273441736e+02 -8.3028381687e+01 +1.7478382179e+02 4.4680880413e+02 0.0000000000e+00 0.0000e+00 -1.0000e+00
       13  1    1    2    0    0 -4.0273441736e+02 +8.3028381687e+01 +3.1308876487e+02 5.1683004728e+02 0.0000000000e+00 0.0000e+00 1.0000e+00
<mgrwt>
<rscale>  0 0.83101154E+03</rscale>
<asrwt>0</asrwt>
<pdfrwt beam="1">  1        2 0.11165473E+00 0.83101154E+03</pdfrwt>
<pdfrwt beam="2">  1       -2 0.36597405E-01 0.83101154E+03</pdfrwt>
<totfact> 0.32995706E+02</totfact>
</mgrwt>
<rwgt>
<wgt id='morphing_basis_vector_1'> +2.4402777e-04 </wgt>
<wgt id='morphing_basis_vector_2'> +1.6008126e-04 </wgt>
<wgt id='morphing_basis_vector_3'> +2.2092354e-04 </wgt>
<wgt id='morphing_basis_vector_4'> +1.1597242e-04 </wgt>
<wgt id='morphing_basis_vector_5'> +1.9211991e-04 </wgt>
</rwgt>
</event>
<event>
 4      1 +2.9741700e-06 7.52034100e+02 7.81860800e-03 8.96464100e-02
        2 -1    0    0  501    0 +0.0000000000e+00 +0.0000000000e+00 +1.5840766703e+03 1.5840766703e+03 0.0000000000e+00 0.0000e+00 1.0000e+00
       -2 -1    0    0    0  501 -0.0000000000e+00 -0.0000000000e+00 -8.9256300749e+01 8.9256300749e+01 0.0000000000e+00 0.0000e+00 -1.0000e+00
      -13  1    1    2    0    0 +3.2735607479e+02 +3.4178561202e+01 +1.1519743286e+03 1.1980713783e+03 0.0000000000e+00 0.0000e+00 -1.0000e+00
       13  1    1    2    0    0 -3.2735607479e+02 -3.4178561202e+01 +3.4284604094e+02 4.7526159274e+02 0.0000000000e+00 0.0000e+00 1.0000e+00
<mgrwt>
<rscale>  0 0.75203410E+03</rscale>
<asrwt>0</asrwt>
<pdfrwt beam="1">  1        2 0.24370408E+00 0.75203410E+03</pdfrwt>
<pdfrwt beam="2">  1       -2 0.13731740E-01 0.75203410E+03</pdfrwt>
<totfact> 0.53095190E+02</totfact>
</mgrwt>
<rwgt>
<wgt id='morphing_basis_vector_1'> +1.9658642e-04 </wgt>
<wgt id='morphing_basis_vector_2'> +1.8774235e-04 </wgt>
<wgt id='morphing_basis_vector_3'> +1.6134299e-04 </wgt>
<wgt id='morphing_basis_vector_4'> +4.4653888e-05 </wgt>
<wgt id='morphing_basis_vector_5'> +1.2058618e-04 </wgt>
</rwgt>
</event>
<event>
 4      1 +2.9741700e-06 7.52575700e+02 7.81860800e-03 8.96391000e-02
        2 -1    0    0  501    0 +0.0000000000e+00 +0.0000000000e+00 +4.3251044332e+02 4.3251044332e+02 0.0000000000e+00 0.0000e+00 -1.0000e+00
       -2 -1    0    0    0  501 -0.0000000000e+00 -0.0000000000e+00 -3.2737372586e+02 3.2737372586e+02 0.0000000000e+00 0.0000e+00 1.0000e+00
      -13  1    1    2    0    0 +1.1387895471e+02 -8.1368204943e+01 +4.0525018162e+02 4.2873874423e+02 0.0000000000e+00 0.0000e+00 -1.0000e+00
       13  1    1    2    0    0 -1.1387895471e+02 +8.1368204943e+01 -3.0011346416e+02 3.3114542496e+02 0.0000000000e+00 0.0000e+00 1.0000e+00
<mgrwt>
<rscale>  0 0.75257572E+03</rscale>
<asrwt>0</asrwt>
<pdfrwt beam="1">  1        2 0.66540068E-01 0.75257572E+03</pdfrwt>
<pdfrwt beam="2">  1       -2 0.50365189E-01 0.75257572E+03</pdfrwt>
<totfact> 0.33156667E+02</totfact>
</mgrwt>
<rwgt>
<wgt id='morphing_basis_vector_1'> +2.2894475e-04 </wgt>
<wgt id='morphing_basis_vector_2'> +2.8610215e-04 </wgt>
<wgt id='morphing_basis_vector_3'> +1.7736849e-04 </wgt>
<wgt id='morphing_basis_vector_4'> +7.5233250e-06 </wgt>
<wgt id='morphing_basis_vector_5'> +1.1965052e-04 </wgt>
</rwgt>
</event>
<event>
 4      1 +2.9741700e-06 7.67851200e+02 7.81860800e-03 8.94353400e-02
        2 -1    0    0  501    0 +0.0000000000e+00 +0.0000000000e+00 +6.2984371614e+02 6.2984371614e+02 0.0000000000e+00 0.0000e+00 -1.0000e+00
       -2 -1    0    0    0  501 -0.0000000000e+00 -0.0000000000e+00 -2.3402452495e+02 2.3402452495e+02 0.0000000000e+00 0.0000e+00 1.0000e+00
      -13  1    1    2    0    0 -1.0237605148e+02 +2.9923652232e+02 -4.6967091038e+01 3.1973310721e+02 0.0000000000e+00 0.0000e+00 1.0000e+00
       13  1    1    2    0    0 +1.0237605148e+02 -2.9923652232e+02 +4.4278628223e+02 5.4413513389e+02 0.0000000000e+00 0.0000e+00 -1.0000e+00
<mgrwt>
<rscale>  0 0.76785123E+03</rscale>
<asrwt>0</asrwt>
<pdfrwt beam="1">  1        2 0.96899033E-01 0.76785123E+03</pdfrwt>
<pdfrwt beam="2">  1       -2 0.36003773E-01 0.76785123E+03</pdfrwt>
<totfact> 0.40484213E+02</totfact>
</mgrwt>
<rwgt>
<wgt id='morphing_basis_vector_1'> +1.8123600e-04 </wgt>
<wgt id='morphing_basis_vector_2'> +1.0958216e-04 </wgt>
<wgt id='morphing_basis_vector_3'> +1.6014733e-04 </wgt>
<wgt id='morphing_basis_vector_4'> +8.5170561e-05 </wgt>
<wgt id='morphing_basis_vector_5'> +1.3409046e-04 </wgt>
</rwgt>
</event>
<event>
 4      1 +2.9741700e-06 8.53808000e+02 7.81860800e-03 8.83755500e-02
        2 -1    0    0  501    0 +0.0000000000e+00 +0.0000000000e+00 +1.7864804389e+02 1.7864804389e+02 0.0000000000e+00 0.0000e+00 1.0000e+00
       -2 -1    0    0    0  501 -0.0000000000e+00 -0.0000000000e+00 -1.0201457479e+03 1.0201457479e+03 0.0000000000e+00 0.0000e+00 -1.0000e+00
      -13  1    1    2    0    0 +4.6729239262e+01 +4.2293434505e+02 -4.6918286857e+02 6.3339533167e+02 0.0000000000e+00 0.0000e+00 -1.0000e+00
       13  1    1    2    0    0 -4.6729239262e+01 -4.2293434505e+02 -3.7231483544e+02 5.6539846012e+02 0.0000000000e+00 0.0000e+00 1.0000e+00
<mgrwt>
<rscale>  0 0.85380804E+03</rscale>
<asrwt>0</asrwt>
<pdfrwt beam="1">  1        2 0.27484315E-01 0.85380804E+03</pdfrwt>
<pdfrwt beam="2">  1       -2 0.15694550E+00 0.85380804E+03</pdfrwt>
<totfact> 0.61872470E+01</totfact>
</mgrwt>
<rwgt>
<wgt id='morphing_basis_vector_1'> +2.7035481e-04 </wgt>
<wgt id='morphing_basis_vector_2'> +1.8164824e-04 </wgt>
<wgt id='morphing_basis_vector_3'> +2.4688780e-04 </wgt>
<wgt id='morphing_basis_vector_4'> +1.2878246e-04 </wgt>
<wgt id='morphing_basis_vector_5'> +2.1689582e-04 </wgt>
</rwgt>
</event>
<event>
 4      1 +2.9741700e-06 8.67633900e+02 7.81860800e-03 8.82174100e-02
        2 -1    0    0  501    0 +0.0000000000e+00 +0.0000000000e+00 +1.8623517534e+03 1.8623517534e+03 0.0000000000e+00 0.0000e+00 -1.0000e+00
       -2 -1    0    0    0  501 -0.0000000000e+00 -0.0000000000e+00 -1.0105348300e+02 1.0105348300e+02 0.0000000000e+00 0.0000e+00 1.0000e+00
      -13  1    1    2    0    0 +1.3662676761e+02 -2.7256392116e+02 +1.8228610178e+02 3.5522695231e+02 0.0000000000e+00 0.0000e+00 1.0000e+00
       13  1    1    2    0    0 -1.3662676761e+02 +2.7256392116e+02 +1.5790121686e+03 1.6081782841e+03 0.0000000000e+00 0.0000e+00 -1.0000e+00
<mgrwt>
<rscale>  0 0.86763387E+03</rscale>
<asrwt>0</asrwt>
<pdfrwt beam="1">  1        2 0.28651563E+00 0.86763387E+03</pdfrwt>
<pdfrwt beam="2">  1       -2 0.15546691E-01 0.86763387E+03</pdfrwt>
<totfact> 0.30317609E+02</totfact>
</mgrwt>
<rwgt>
<wgt id='morphing_basis_vector_1'> +2.7941835e-04 </wgt>
<wgt id='morphing_basis_vector_2'> +1.7149240e-04 </wgt>
<wgt id='morphing_basis_vector_3'> +2.5798425e-04 </wgt>
<wgt id='morphing_basis_vector_4'> +1.4792182e-04 </wgt>
<wgt id='morphing_basis_vector_5'> +2.3354165e-04 </wgt>
</rwgt>
</event>
<event>
 4      1 +2.9741700e-06 7.51922500e+02 7.81860800e-03 8.96479200e-02
        2 -1    0    0  501    0 +0.0000000000e+00 +0.0000000000e+00 +3.4398938126e+02 3.4398938126e+02 0.0000000000e+00 0.0000e+00 -1.0000e+00
       -2 -1    0    0    0  501 -0.0000000000e+00 -0.0000000000e+00 -4.1090470672e+02 4.1090470672e+02 0.0000000000e+00 0.0000e+00 1.0000e+00
      -13  1    1    2    0    0 +1.6810740068e+02 -2.7279781919e+02 -2.3087687332e+02 3.9494667862e+02 0.0000000000e+00 0.0000e+00 1.0000e+00
       13  1    1    2    0    0 -1.6810740068e+02 +2.7279781919e+02 +1.6396154786e+02 3.5994740935e+02 0.0000000000e+00 0.0000e+00 -1.0000e+00
<mgrwt>
<rscale>  0 0.75192248E+03</rscale>
<asrwt>0</asrwt>
<pdfrwt beam="1">  1        2 0.52921443E-01 0.75192248E+03</pdfrwt>
<pdfrwt beam="2">  1       -2 0.63216109E-01 0.75192248E+03</pdfrwt>
<totfact> 0.27158467E+02</totfact>
</mgrwt>
<rwgt>
<wgt id='morphing_basis_vector_1'> +1.6855347e-04 </wgt>
<wgt id='morphing_basis_vector_2'> +1.0184245e-04 </wgt>
<wgt id='morphing_basis_vector_3'> +1.4766605e-04 </wgt>
<wgt id='morphing_basis_vector_4'> +7.7258047e-05 </wgt>
<wgt id='morphing_basis_vector_5'> +1.2167069e-04 </wgt>
</rwgt>
</event>
<event>
 4      1 +2.9741700e-06 7.79405700e+02 7.81860800e-03 8.92845400e-02
        2 -1    0    0  501    0 +0.0000000000e+00 +0.0000000000e+00 +2.2093586510e+02 2.2093586510e+02 0.0000000000e+00 0.0000e+00 1.0000e+00
       -2 -1    0    0    0  501 -0.0000000000e+00 -0.0000000000e+00 -6.8738645179e+02 6.8738645179e+02 0.0000000000e+00 0.0000e+00 -1.0000e+00
      -13  1    1    2    0    0 -9.9470006654e+01 +1.8998115619e+02 -6.1244056453e+02 6.4889950456e+02 0.0000000000e+00 0.0000e+00 -1.0000e+00
       13  1    1    2    0    0 +9.9470006654e+01 -1.8998115619e+02 +1.4598997784e+02 2.5942281234e+02 0.0000000000e+00 0.0000e+00 1.0000e+00
<mgrwt>
<rscale>  0 0.77940572E+03</rscale>
<asrwt>0</asrwt>
<pdfrwt beam="1">  1        2 0.33990134E-01 0.77940572E+03</pdfrwt>
<pdfrwt beam="2">  1       -2 0.10575176E+00 0.77940572E+03</pdfrwt>
<totfact> 0.13978485E+02</totfact>
</mgrwt>
<rwgt>
<wgt id='morphing_basis_vector_1'> +1.9050550e-04 </wgt>
<wgt id='morphing_basis_vector_2'> +1.1428447e-04 </wgt>
<wgt id='morphing_basis_vector_3'> +1.6947367e-04 </wgt>
<wgt id='morphing_basis_vector_4'> +9.1748074e-05 </wgt>
<wgt id='morphing_basis_vector_5'> +1.4366968e-04 </wgt>
</rwgt>
</event>
<event>
 4      1 +2.9741700e-06 8.04362700e+02 7.81860800e-03 8.89680800e-02
        2 -1    0    0  501    0 +0.0000000000e+00 +0.0000000000e+00 +1.1615814688e+03 1.1615814688e+03 0.0000000000e+00 0.0000e+00 -1.0000e+00
       -2 -1    0    0    0  501 -0.0000000000e+00 -0.0000000000e+00 -1.3924967707e+02 1.3924967707e+02 0.0000000000e+00 0.0000e+00 1.0000e+00
      -13  1    1    2    0    0 +2.6982471399e+02 -2.8228722958e+02 +3.5555618800e+02 5.2812087545e+02 0.0000000000e+00 0.0000e+00 1.0000e+00
       13  1    1    2    0    0 -2.6982471399e+02 +2.8228722958e+02 +6.6677560372e+02 7.7271027040e+02 0.0000000000e+00 0.0000e+00 -1.0000e+00
<mgrwt>
<rscale>  0 0.80436272E+03</rscale>
<asrwt>0</asrwt>
<pdfrwt beam="1">  1        2 0.17870484E+00 0.80436272E+03</pdfrwt>
<pdfrwt beam="2">  1       -2 0.21423028E-01 0.80436272E+03</pdfrwt>
<totfact> 0.44100353E+02</totfact>
</mgrwt>
<rwgt>
<wgt id='morphing_basis_vector_1'> +2.1589390e-04 </wgt>
<wgt id='morphing_basis_vector_2'> +1.3751204e-04 </wgt>
<wgt id='morphing_basis_vector_3'> +1.9343009e-04 </wgt>
<wgt id='morphing_basis_vector_4'> +1.0203082e-04 </wgt>
<wgt id='morphing_basis_vector_5'> +1.6580650e-04 </wgt>
</rwgt>
</event>
<event>
 4      1 +2.9741700e-06 7.96158600e+02 7.81860800e-03 8.90707500e-02
        2 -1    0    0  501    0 +0.0000000000e+00 +0.0000000000e+00 +5.2818415314e+02 5.2818415314e+02 0.0000000000e+00 0.0000e+00 -1.0000e+00
       -2 -1    0    0    0  501 -0.0000000000e+00 -0.0000000000e+00 -3.0002252357e+02 3.0002252357e+02 0.0000000000e+00 0.0000e+00 1.0000e+00
      -13  1    1    2    0    0 +1.9282373166e+02 -5.2013988773e+01 -2.4413612200e+02 3.1541859899e+02 0.0000000000e+00 0.0000e+00 1.0000e+00
       13  1    1    2    0    0 -1.9282373166e+02 +5.2013988773e+01 +4.7229775157e+02 5.1278807773e+02 0.0000000000e+00 0.0000e+00 -1.0000e+00
<mgrwt>
<rscale>  0 0.79615863E+03</rscale>
<asrwt>0</asrwt>
<pdfrwt beam="1">  1        2 0.81259100E-01 0.79615863E+03</pdfrwt>
<pdfrwt beam="2">  1       -2 0.46157311E-01 0.79615863E+03</pdfrwt>
<totfact> 0.31220031E+02</totfact>
</mgrwt>
<rwgt>
<wgt id='morphing_basis_vector_1'> +2.0533657e-04 </wgt>
<wgt id='morphing_basis_vector_2'> +1.2362587e-04 </wgt>
<wgt id='morphing_basis_vector_3'> +1.8411565e-04 </wgt>
<wgt id='morphing_basis_vector_4'> +1.0102353e-04 </wgt>
<wgt id='morphing_basis_vector_5'> +1.5838306e-04 </wgt>
</rwgt>
</event>
<event>
 4      1 +2.9741700e-06 7.69907400e+02 7.81860800e-03 8.94083000e-02
        2 -1    0    0  501    0 +0.0000000000e+00 +0.0000000000e+00 +7.2598288197e+02 7.2598288197e+02 0.0000000000e+00 0.0000e+00 -1.0000e+00
       -2 -1    0    0    0  501 -0.0000000000e+00 -0.0000000000e+00 -2.0412236553e+02 2.0412236553e+02 0.0000000000e+00 0.0000e+00 1.0000e+00
      -13  1    1    2    0    0 +3.5998588748e+02 -1.0069939630e+02 +3.7204114300e+02 5.2739436827e+02 0.0000000000e+00 0.0000e+00 1.0000e+00
       13  1    1    2    0    0 -3.5998588748e+02 +1.0069939630e+02 +1.4981937344e+02 4.0271087924e+02 0.0000000000e+00 0.0000e+00 -1.0000e+00
<mgrwt>
<rscale>  0 0.76990738E+03</rscale>
<asrwt>0</asrwt>
<pdfrwt beam="1">  1        2 0.11168967E+00 0.76990738E+03</pdfrwt>
<pdfrwt beam="2">  1       -2 0.31403441E-01 0.76990738E+03</pdfrwt>
<totfact> 0.43574174E+02</totfact>
</mgrwt>
<rwgt>
<wgt id='morphing_basis_vector_1'> +1.9703294e-04 </wgt>
<wgt id='morphing_basis_vector_2'> +1.5389638e-04 </wgt>
<wgt id='morphing_basis_vector_3'> +1.6928022e-04 </wgt>
<wgt id='morphing_basis_vector_4'> +6.9234939e-05 </wgt>
<wgt id='morphing_basis_vector_5'> +1.3510199e-04 </wgt>
</rwgt>
</event>
<event>
 4      1 +2.9741700e-06 8.68439300e+02 7.81860800e-03 8.82082900e-02
        2 -1    0    0  501    0 +0.0000000000e+00 +0.0000000000e+00 +1.7334728617e+03 1.7334728617e+03 0.0000000000e+00 0.0000e+00 1.0000e+00
       -2 -1    0    0    0  501 -0.0000000000e+00 -0.0000000000e+00 -1.0876818752e+02 1.0876818752e+02 0.0000000000e+00 0.0000e+00 -1.0000e+00
      -13  1    1    2    0    0 +3.2755507456e+02 +2.2743928590e+02 +4.4784403263e+02 5.9965426140e+02 0.0000000000e+00 0.0000e+00 -1.0000e+00
       13  1    1    2    0    0 -3.2755507456e+02 -2.2743928590e+02 +1.1768606415e+03 1.2425867878e+03 0.0000000000e+00 0.0000e+00 1.0000e+00
<mgrwt>
<rscale>  0 0.86843929E+03</rscale>
<asrwt>0</asrwt>
<pdfrwt beam="1">  1        2 0.26668811E+00 0.86843929E+03</pdfrwt>
<pdfrwt beam="2">  1       -2 0.16733569E-01 0.86843929E+03</pdfrwt>
<totfact> 0.31655910E+02</totfact>
</mgrwt>
<rwgt>
<wgt id='morphing_basis_vector_1'> +2.8206131e-04 </wgt>
<wgt id='morphing_basis_vector_2'> +1.7729890e-04 </wgt>
<wgt id='morphing_basis_vector_3'> +2.6017365e-04 </wgt>
<wgt id='morphing_basis_vector_4'> +1.4618126e-04 </wgt>
<wgt id='morphing_basis_vector_5'> +2.3439441e-04 </wgt>
</rwgt>
</event>
<event>
 4      1 +2.9741700e-06 8.03237600e+02 7.81860800e-03 8.89820800e-02
        2 -1    0    0  501    0 +0.0000000000e+00 +0.0000000000e+00 +2.1029381630e+02 2.1029381630e+02 0.0000000000e+00 0.0000e+00 1.0000e+00
       -2 -1    0    0    0  501 -0.0000000000e+00 -0.0000000000e+00 -7.6701090435e+02 7.6701090435e+02 0.0000000000e+00 0.0000e+00 -1.0000e+00
      -13  1    1    2    0    0 +1.5880429980e+02 -3.6634722087e+02 -3.3095292063e+02 5.1861250231e+02 0.0000000000e+00 0.0000e+00 -1.0000e+00
       13  1    1    2    0    0 -1.5880429980e+02 +3.6634722087e+02 -2.2576416742e+02 4.5869221834e+02 0.0000000000e+00 0.0000e+00 1.0000e+00
<mgrwt>
<rscale>  0 0.80323757E+03</rscale>
<asrwt>0</asrwt>
<pdfrwt beam="1">  1        2 0.32352895E-01 0.80323757E+03</pdfrwt>
<pdfrwt beam="2">  1       -2 0.11800168E+00 0.80323757E+03</pdfrwt>
<totfact> 0.11207617E+02</totfact>
</mgrwt>
<rwgt>
<wgt id='morphing_basis_vector_1'> +2.1684369e-04 </wgt>
<wgt id='morphing_basis_vector_2'> +1.4297951e-04 </wgt>
<wgt id='morphing_basis_vector_3'> +1.9358793e-04 </wgt>
<wgt id='morphing_basis_vector_4'> +9.8831344e-05 </wgt>
<wgt id='morphing_basis_vector_5'> +1.6464229e-04 </wgt>
</rwgt>
</event>
<event>
 4      1 +2.9741700e-06 8.98308300e+02 7.81860800e-03 8.78773500e-02
        2 -1    0    0  501    0 +0.0000000000e+00 +0.0000000000e+00 +1.5732198478e+03 1.5732198478e+03 0.0000000000e+00 0.0000e+00 1.0000e+00
       -2 -1    0    0    0  501 -0.0000000000e+00 -0.0000000000e+00 -1.2823348666e+02 1.2823348666e+02 0.0000000000e+00 0.0000e+00 -1.0000e+00
      -13  1    1    2    0    0 +1.7139083822e+02 -2.4872904506e+02 +9.2881434179e+01 3.1601885719e+02 0.0000000000e+00 0.0000e+00 -1.0000e+00
       13  1    1    2    0    0 -1.7139083822e+02 +2.4872904506e+02 +1.3521049270e+03 1.3854344773e+03 0.0000000000e+00 0.0000e+00 1.0000e+00
<mgrwt>
<rscale>  0 0.89830834E+03</rscale>
<asrwt>0</asrwt>
<pdfrwt beam="1">  1        2 0.24203381E+00 0.89830834E+03</pdfrwt>
<pdfrwt beam="2">  1       -2 0.19728230E-01 0.89830834E+03</pdfrwt>
<totfact> 0.29486774E+02</totfact>
</mgrwt>
<rwgt>
<wgt id='morphing_basis_vector_1'> +3.1675863e-04 </wgt>
<wgt id='morphing_basis_vector_2'> +1.9537737e-04 </wgt>
<wgt id='morphing_basis_vector_3'> +2.9568774e-04 </wgt>
<wgt id='morphing_basis_vector_4'> +1.7251414e-04 </wgt>
<wgt id='morphing_basis_vector_5'> +2.7261110e-04 </wgt>
</rwgt>
</event>
<event>
 4      1 +2.9741700e-06 7.61852900e+02 7.81860800e-03 8.95147500e-02
        2 -1    0    0  501    0 +0.0000000000e+00 +0.0000000000e+00 +6.9582210300e+02 6.9582210300e+02 0.0000000000e+00 0.0000e+00 -1.0000e+00
       -2 -1    0    0    0  501 -0.0000000000e+00 -0.0000000000e+00 -2.0853743510e+02 2.0853743510e+02 0.0000000000e+00 0.0000e+00 1.0000e+00
      -13  1    1    2    0    0 -1.3106937004e+02 -1.0598129305e+01 -1.8074097408e+02 2.2351465236e+02 0.0000000000e+00 0.0000e+00 1.0000e+00
       13  1    1    2    0    0 +1.3106937004e+02 +1.0598129305e+01 +6.6802564198e+02 6.8084488574e+02 0.0000000000e+00 0.0000e+00 -1.0000e+00
<mgrwt>
<rscale>  0 0.76185289E+03</rscale>
<asrwt>0</asrwt>
<pdfrwt beam="1">  1        2 0.10704955E+00 0.76185289E+03</pdfrwt>
<pdfrwt beam="2">  1       -2 0.32082683E-01 0.76185289E+03</pdfrwt>
<totfact> 0.44206587E+02</totfact>
</mgrwt>
<rwgt>
<wgt id='morphing_basis_vector_1'> +1.7581174e-04 </wgt>
<wgt id='morphing_basis_vector_2'> +1.0488570e-04 </wgt>
<wgt id='morphing_basis_vector_3'> +1.5506971e-04 </wgt>
<wgt id='morphing_basis_vector_4'> +8.2794111e-05 </wgt>
<wgt id='morphing_basis_vector_5'> +1.2933680e-04 </wgt>
</rwgt>
</event>
<event>
 4      1 +2.9741700e-06 7.85947200e+02 7.81860800e-03 8.92003900e-02
        2 -1    0    0  501    0 +0.0000000000e+00 +0.0000000000e+00 +1.8302539800e+03 1.8302539800e+03 0.0000000000e+00 0.0000e+00 -1.0000e+00
       -2 -1    0    0    0  501 -0.0000000000e+00 -0.0000000000e+00 -8.4375307566e+01 8.4375307566e+01 0.0000000000e+00 0.0000e+00 1.0000e+00
      -13  1    1    2    0    0 -2.8114789078e+02 +2.2619320482e+02 +4.9381204977e+02 6.1160268385e+02 0.0000000000e+00 0.0000e+00 1.0000e+00
       13  1    1    2    0    0 +2.8114789078e+02 -2.2619320482e+02 +1.2520666227e+03 1.3030266038e+03 0.0000000000e+00 0.0000e+00 -1.0000e+00
<mgrwt>
<rscale>  0 0.78594718E+03</rscale>
<asrwt>0</asrwt>
<pdfrwt beam="1">  1        2 0.28157751E+00 0.78594718E+03</pdfrwt>
<pdfrwt beam="2">  1       -2 0.12980818E-01 0.78594718E+03</pdfrwt>
<totfact> 0.42493780E+02</totfact>
</mgrwt>
<rwgt>
<wgt id='morphing_basis_vector_1'> +1.9753917e-04 </wgt>
<wgt id='morphing_basis_vector_2'> +1.2198974e-04 </wgt>
<wgt id='morphing_basis_vector_3'> +1.7584253e-04 </wgt>
<wgt id='morphing_basis_vector_4'> +9.3628517e-05 </wgt>
<wgt id='morphing_basis_vector_5'> +1.4922445e-04 </wgt>
</rwgt>
</event>
<event>
 4      1 +2.9741700e-06 7.73823200e+02 7.81860800e-03 8.93570500e-02
        2 -1    0    0  501    0 +0.0000000000e+00 +0.0000000000e+00 +1.2775286402e+03 1.2775286402e+03 0.0000000000e+00 0.0000e+00 1.0000e+00
       -2 -1    0    0    0  501 -0.0000000000e+00 -0.0000000000e+00 -1.1717982764e+02 1.1717982764e+02 0.0000000000e+00 0.0000e+00 -1.0000e+00
      -13  1    1    2    0    0 +3.5813963471e+01 +3.5143555339e+02 +2.9570389534e+02 4.6068468814e+02 0.0000000000e+00 0.0000e+00 -1.0000e+00
       13  1    1    2    0    0 -3.5813963471e+01 -3.5143555339e+02 +8.6464491724e+02 9.3402377972e+02 0.0000000000e+00 0.0000e+00 1.0000e+00
<mgrwt>
<rscale>  0 0.77382320E+03</rscale>
<asrwt>0</asrwt>
<pdfrwt beam="1">  1        2 0.19654286E+00 0.77382320E+03</pdfrwt>
<pdfrwt beam="2">  1       -2 0.18027667E-01 0.77382320E+03</pdfrwt>
<totfact> 0.50470912E+02</totfact>
</mgrwt>
<rwgt>
<wgt id='morphing_basis_vector_1'> +1.8694038e-04 </wgt>
<wgt id='morphing_basis_vector_2'> +1.1493458e-04 </wgt>
<wgt id='morphing_basis_vector_3'> +1.6543629e-04 </wgt>
<wgt id='morphing_basis_vector_4'> +8.7361987e-05 </wgt>
<wgt id='morphing_basis_vector_5'> +1.3893654e-04 </wgt>
</rwgt>
</event>
<event>
 4      1 +2.9741700e-06 7.53348600e+02 7.81860800e-03 8.96286600e-02
        2 -1    0    0  501    0 +0.0000000000e+00 +0.0000000000e+00 +1.2018683962e+02 1.2018683962e+02 0.0000000000e+00 0.0000e+00 1.0000e+00
       -2 -1    0    0    0  501 -0.0000000000e+00 -0.0000000000e+00 -1.1805246111e+03 1.1805246111e+03 0.0000000000e+00 0.0000e+00 -1.0000e+00
      -13  1    1    2    0    0 -3.4432792613e+02 +1.4210867832e+02 -6.2671698212e+02 7.2906156999e+02 0.0000000000e+00 0.0000e+00 -1.0000e+00
       13  1    1    2    0    0 +3.4432792613e+02 -1.4210867832e+02 -4.3362078936e+02 5.7164988072e+02 0.0000000000e+00 0.0000e+00 1.0000e+00
<mgrwt>
<rscale>  0 0.75334858E+03</rscale>
<asrwt>0</asrwt>
<pdfrwt beam="1">  1        2 0.18490283E-01 0.75334858E+03</pdfrwt>
<pdfrwt beam="2">  1       -2 0.18161917E+00 0.75334858E+03</pdfrwt>
<totfact> 0.64104500E+01</totfact>
</mgrwt>
<rwgt>
<wgt id='morphing_basis_vector_1'> +1.7243573e-04 </wgt>
<wgt id='morphing_basis_vector_2'> +1.1104426e-04 </wgt>
<wgt id='morphing_basis_vector_3'> +1.5011158e-04 </wgt>
<wgt id='morphing_basis_vector_4'> +7.4691847e-05 </wgt>
<wgt id='morphing_basis_vector_5'> +1.2263055e-04 </wgt>
</rwgt>
</event>
<event>
 4      1 +2.9741700e-06 8.58016900e+02 7.81860800e-03 8.83270700e-02
        2 -1    0    0  501    0 +0.0000000000e+00 +0.0000000000e+00 +1.0333606446e+03 1.0333606446e+03 0.0000000000e+00 0.0000e+00 -1.0000e+00
       -2 -1    0    0    0  501 -0.0000000000e+00 -0.0000000000e+00 -1.7810651915e+02 1.7810651915e+02 0.0000000000e+00 0.0000e+00 1.0000e+00
      -13  1    1    2    0    0 +3.9499341414e+02 -1.6725308128e+02 +4.1716755891e+02 5.9834953215e+02 0.0000000000e+00 0.0000e+00 1.0000e+00
       13  1    1    2    0    0 -3.9499341414e+02 +1.6725308128e+02 +4.3808656658e+02 6.1311763164e+02 0.0000000000e+00 0.0000e+00 -1.0000e+00
<mgrwt>
<rscale>  0 0.85801694E+03</rscale>
<asrwt>0</asrwt>
<pdfrwt beam="1">  1        2 0.15897856E+00 0.85801694E+03</pdfrwt>
<pdfrwt beam="2">  1       -2 0.27401004E-01 0.85801694E+03</pdfrwt>
<totfact> 0.34456656E+02</totfact>
</mgrwt>
<rwgt>
<wgt id='morphing_basis_vector_1'> +2.7704007e-04 </wgt>
<wgt id='morphing_basis_vector_2'> +1.9071002e-04 </wgt>
<wgt id='morphing_basis_vector_3'> +2.5307034e-04 </wgt>
<wgt id='morphing_basis_vector_4'> +1.2908078e-04 </wgt>
<wgt id='morphing_basis_vector_5'> +2.2160287e-04 </wgt>
</rwgt>
</event>
<event>
 4      1 +2.9741700e-06 8.18392400e+02 7.81860800e-03 8.87954700e-02
        2 -1    0    0  501    0 +0.0000000000e+00 +0.0000000000e+00 +5.2574039632e+02 5.2574039632e+02 0.0000000000e+00 0.0000e+00 1.0000e+00
       -2 -1    0    0    0  501 -0.0000000000e+00 -0.0000000000e+00 -3.1848712773e+02 3.1848712773e+02 0.0000000000e+00 0.0000e+00 -1.0000e+00
      -13  1    1    2    0    0 +1.7489868659e+02 +3.6847339037e+02 +1.3751735525e+02 4.3043374982e+02 0.0000000000e+00 0.0000e+00 -1.0000e+00
       13  1    1    2    0    0 -1.7489868659e+02 -3.6847339037e+02 +6.9735913329e+01 4.1379377423e+02 0.0000000000e+00 0.0000e+00 1.0000e+00
<mgrwt>
<rscale>  0 0.81839245E+03</rscale>
<asrwt>0</asrwt>
<pdfrwt beam="1">  1        2 0.80883138E-01 0.81839245E+03</pdfrwt>
<pdfrwt beam="2">  1       -2 0.48998020E-01 0.81839245E+03</pdfrwt>
<totfact> 0.27934119E+02</totfact>
</mgrwt>
<rwgt>
<wgt id='morphing_basis_vector_1'> +2.3700445e-04 </wgt>
<wgt id='morphing_basis_vector_2'> +1.6937116e-04 </wgt>
<wgt id='morphing_basis_vector_3'> +2.1175369e-04 </wgt>
<wgt id='morphing_basis_vector_4'> +1.0062970e-04 </wgt>
<wgt id='morphing_basis_vector_5'> +1.7892769e-04 </wgt>
</rwgt>
</event>
<event>
 4      1 +2.9741700e-06 8.76795200e+02 7.81860800e-03 8.81143100e-02
        2 -1    0    0  501    0 +0.0000000000e+00 +0.0000000000e+00 +2.7018159177e+02 2.7018159177e+02 0.0000000000e+00 0.0000e+00 1.0000e+00
       -2 -1    0    0    0  501 -0.0000000000e+00 -0.0000000000e+00 -7.1134555371e+02 7.1134555371e+02 0.0000000000e+00 0.0000e+00 -1.0000e+00
      -13  1    1    2    0    0 -2.1763607244e+02 -4.7726604395e+01 -6.4323745727e+02 6.8073321883e+02 0.0000000000e+00 0.0000e+00 -1.0000e+00
       13  1    1    2    0    0 +2.1763607244e+02 +4.7726604395e+01 +2.0207349533e+02 3.0079392665e+02 0.0000000000e+00 0.0000e+00 1.0000e+00
<mgrwt>
<rscale>  0 0.87679524E+03</rscale>
<asrwt>0</asrwt>
<pdfrwt beam="1">  1        2 0.41566399E-01 0.87679524E+03</pdfrwt>
<pdfrwt beam="2">  1       -2 0.10943778E+00 0.87679524E+03</pdfrwt>
<totfact> 0.10148189E+02</totfact>
</mgrwt>
<rwgt>
<wgt id='morphing_basis_vector_1'> +2.8995326e-04 </wgt>
<wgt id='morphing_basis_vector_2'> +1.7764934e-04 </wgt>
<wgt id='morphing_basis_vector_3'> +2.6866079e-04 </wgt>
<wgt id='morphing_basis_vector_4'> +1.5530934e-04 </wgt>
<wgt id='morphing_basis_vector_5'> +2.4477082e-04 </wgt>
</rwgt>
</event>
<event>
 4      1 +2.9741700e-06 8.99065800e+02 7.81860800e-03 8.78691400e-02
        2 -1    0    0  501    0 +0.0000000000e+00 +0.0000000000e+00 +1.4887126334e+03 1.4887126334e+03 0.0000000000e+00 0.0000e+00 1.0000e+00
       -2 -1    0    0    0  501 -0.0000000000e+00 -0.0000000000e+00 -1.3574131253e+02 1.3574131253e+02 0.0000000000e+00 0.0000e+00 -1.0000e+00
      -13  1    1    2    0    0 +3.8528842225e+02 -4.5833276601e+01 +2.6632478252e+02 4.7061316105e+02 0.0000000000e+00 0.0000e+00 -1.0000e+00
       13  1    1    2    0    0 -3.8528842225e+02 +4.5833276601e+01 +1.0866465383e+03 1.1538407849e+03 0.0000000000e+00 0.0000e+00 1.0000e+00
<mgrwt>
<rscale>  0 0.89906575E+03</rscale>
<asrwt>0</asrwt>
<pdfrwt beam="1">  1        2 0.22903270E+00 0.89906575E+03</pdfrwt>
<pdfrwt beam="2">  1       -2 0.20883280E-01 0.89906575E+03</pdfrwt>
<totfact> 0.29857995E+02</totfact>
</mgrwt>
<rwgt>
<wgt id='morphing_basis_vector_1'> +3.1878622e-04 </wgt>
<wgt id='morphing_basis_vector_2'> +1.9922156e-04 </wgt>
<wgt id='morphing_basis_vector_3'> +2.9749828e-04 </wgt>
<wgt id='morphing_basis_vector_4'> +1.7165213e-04 </wgt>
<wgt id='morphing_basis_vector_5'> +2.7355253e-04 </wgt>
</rwgt>
</event>
<event>
 4      1 +2.9741700e-06 7.65486100e+02 7.81860800e-03 8.94665600e-02
        2 -1    0    0  501    0 +0.0000000000e+00 +0.0000000000e+00 +9.7937144896e+02 9.7937144896e+02 0.0000000000e+00 0.0000e+00 -1.0000e+00
       -2 -1    0    0    0  501 -0.0000000000e+00 -0.0000000000e+00 -1.4957780887e+02 1.4957780887e+02 0.0000000000e+00 0.0000e+00 1.0000e+00
      -13  1    1    2    0    0 +1.7536934651e+02 +2.2111862622e+02 +3.3594387290e+01 2.8421195860e+02 0.0000000000e+00 0.0000e+00 1.0000e+00
       13  1    1    2    0    0 -1.7536934651e+02 -2.2111862622e+02 +7.9619925280e+02 8.4473729923e+02 0.0000000000e+00 0.0000e+00 -1.0000e+00
<mgrwt>
<rscale>  0 0.76548608E+03</rscale>
<asrwt>0</asrwt>
<pdfrwt beam="1">  1        2 0.15067253E+00 0.76548608E+03</pdfrwt>
<pdfrwt beam="2">  1       -2 0.23011971E-01 0.76548608E+03</pdfrwt>
<totfact> 0.50434467E+02</totfact>
</mgrwt>
<rwgt>
<wgt id='morphing_basis_vector_1'> +1.7901917e-04 </wgt>
<wgt id='morphing_basis_vector_2'> +1.0752138e-04 </wgt>
<wgt id='morphing_basis_vector_3'> +1.5809610e-04 </wgt>
<wgt id='morphing_basis_vector_4'> +8.4303958e-05 </wgt>
<wgt id='morphing_basis_vector_5'> +1.3220442e-04 </wgt>
</rwgt>
</event>
<event>
 4      1 +2.9741700e-06 8.06975800e+02 7.81860800e-03 8.89356500e-02
        2 -1    0    0  501    0 +0.0000000000e+00 +0.0000000000e+00 +2.3872910060e+03 2.3872910060e+03 0.0000000000e+00 0.0000e+00 -1.0000e+00
       -2 -1    0    0    0  501 -0.0000000000e+00 -0.0000000000e+00 -6.8195493368e+01 6.8195493368e+01 0.0000000000e+00 0.0000e+00 1.0000e+00
      -13  1    1    2    0    0 +1.8309444554e+02 +3.3830964343e+02 +7.8905333851e+02 8.7782809356e+02 0.0000000000e+00 0.0000e+00 1.0000e+00
       13  1    1    2    0    0 -1.8309444554e+02 -3.3830964343e+02 +1.5300421741e+03 1.5776584058e+03 0.0000000000e+00 0.0000e+00 -1.0000e+00
<mgrwt>
<rscale>  0 0.80697581E+03</rscale>
<asrwt>0</asrwt>
<pdfrwt beam="1">  1        2 0.36727548E+00 0.80697581E+03</pdfrwt>
<pdfrwt beam="2">  1       -2 0.10491616E-01 0.80697581E+03</pdfrwt>
<totfact> 0.29021188E+02</totfact>
</mgrwt>
<rwgt>
<wgt id='morphing_basis_vector_1'> +2.1769624e-04 </wgt>
<wgt id='morphing_basis_vector_2'> +1.3704795e-04 </wgt>
<wgt id='morphing_basis_vector_3'> +1.9548494e-04 </wgt>
<wgt id='morphing_basis_vector_4'> +1.0441454e-04 </wgt>
<wgt id='morphing_basis_vector_5'> +1.6831158e-04 </wgt>
</rwgt>
</event>
<event>
 4      1 +2.9741700e-06 7.67021700e+02 7.81860800e-03 8.94462800e-02
        2 -1    0    0  501    0 +0.0000000000e+00 +0.0000000000e+00 +5.9092649668e+02 5.9092649668e+02 0.0000000000e+00 0.0000e+00 1.0000e+00
       -2 -1    0    0    0  501 -0.0000000000e+00 -0.0000000000e+00 -2.4889823243e+02 2.4889823243e+02 0.0000000000e+00 0.0000e+00 -1.0000e+00
      -13  1    1    2    0    0 +1.0394068738e+02 +3.6902970895e+02 +1.6040033263e+02 4.1558977284e+02 0.0000000000e+00 0.0000e+00 -1.0000e+00
       13  1    1    2    0    0 -1.0394068738e+02 -3.6902970895e+02 +1.8162793163e+02 4.2423495627e+02 0.0000000000e+00 0.0000e+00 1.0000e+00
<mgrwt>
<rscale>  0 0.76702167E+03</rscale>
<asrwt>0</asrwt>
<pdfrwt beam="1">  1        2 0.90911768E-01 0.76702167E+03</pdfrwt>
<pdfrwt beam="2">  1       -2 0.38292036E-01 0.76702167E+03</pdfrwt>
<totfact> 0.38992565E+02</totfact>
</mgrwt>
<rwgt>
<wgt id='morphing_basis_vector_1'> +1.8577662e-04 </wgt>
<wgt id='morphing_basis_vector_2'> +1.2518425e-04 </wgt>
<wgt id='morphing_basis_vector_3'> +1.6220493e-04 </wgt>
<wgt id='morphing_basis_vector_4'> +7.8485473e-05 </wgt>
<wgt id='morphing_basis_vector_5'> +1.3318357e-04 </wgt>
</rwgt>
</event>
<event>
 4      1 +2.9741700e-06 8.73253600e+02 7.81860800e-03 8.81540100e-02
        2 -1    0    0  501    0 +0.0000000000e+00 +0.0000000000e+00 +3.1067762429e+02 3.1067762429e+02 0.0000000000e+00 0.0000e+00 -1.0000e+00
       -2 -1    0    0    0  501 -0.0000000000e+00 -0.0000000000e+00 -6.1363602617e+02 6.1363602617e+02 0.0000000000e+00 0.0000e+00 1.0000e+00
      -13  1    1    2    0    0 -1.2828890171e+02 +3.7237186100e+02 -3.5097820455e+02 5.2754577548e+02 0.0000000000e+00 0.0000e+00 1.0000e+00
       13  1    1    2    0    0 +1.2828890171e+02 -3.7237186100e+02 +4.8019802670e+01 3.9676787498e+02 0.0000000000e+00 0.0000e+00 -1.0000e+00
<mgrwt>
<rscale>  0 0.87325365E+03</rscale>
<asrwt>0</asrwt>
<pdfrwt beam="1">  1        2 0.47796558E-01 0.87325365E+03</pdfrwt>
<pdfrwt beam="2">  1       -2 0.94405541E-01 0.87325365E+03</pdfrwt>
<totfact> 0.12415847E+02</totfact>
</mgrwt>
<rwgt>
<wgt id='morphing_basis_vector_1'> +2.8742126e-04 </wgt>
<wgt id='morphing_basis_vector_2'> +1.8005521e-04 </wgt>
<wgt id='morphing_basis_vector_3'> +2.6566103e-04 </wgt>
<wgt id='morphing_basis_vector_4'> +1.5024078e-04 </wgt>
<wgt id='morphing_basis_vector_5'> +2.4027426e-04 </wgt>
</rwgt>
</event>
<event>
 4      1 +2.9741700e-06 8.87915300e+02 7.81860800e-03 8.79909500e-02
        2 -1    0    0  501    0 +0.0000000000e+00 +0.0000000000e+00 +5.5366387627e+02 5.5366387627e+02 0.0000000000e+00 0.0000e+00 1.0000e+00
       -2 -1    0    0    0  501 -0.0000000000e+00 -0.0000000000e+00 -3.5598924647e+02 3.5598924647e+02 0.0000000000e+00 0.0000e+00 -1.0000e+00
      -13  1    1    2    0    0 +2.9982472178e+02 -4.1581223710e+01 -2.3388204539e+02 3.8252408174e+02 0.0000000000e+00 0.0000e+00 -1.0000e+00
       13  1    1    2    0    0 -2.9982472178e+02 +4.1581223710e+01 +4.3155667519e+02 5.2712904099e+02 0.0000000000e+00 0.0000e+00 1.0000e+00
<mgrwt>
<rscale>  0 0.88791528E+03</rscale>
<asrwt>0</asrwt>
<pdfrwt beam="1">  1        2 0.85179057E-01 0.88791528E+03</pdfrwt>
<pdfrwt beam="2">  1       -2 0.54767577E-01 0.88791528E+03</pdfrwt>
<totfact> 0.21044002E+02</totfact>
</mgrwt>
<rwgt>
<wgt id='morphing_basis_vector_1'> +3.0369475e-04 </wgt>
<wgt id='morphing_basis_vector_2'> +1.8700350e-04 </wgt>
<wgt id='morphing_basis_vector_3'> +2.8247195e-04 </wgt>
<wgt id='morphing_basis_vector_4'> +1.6387600e-04 </wgt>
<wgt id='morphing_basis_vector_5'> +2.5888166e-04 </wgt>
</rwgt>
</event>
<event>
 4      1 +2.9741700e-06 7.99137700e+02 7.81860800e-03 8.90333200e-02
        2 -1    0    0  501    0 +0.0000000000e+00 +0.0000000000e+00 +1.7328947934e+02 1.7328947934e+02 0.0000000000e+00 0.0000e+00 -1.0000e+00
       -2 -1    0    0    0  501 -0.0000000000e+00 -0.0000000000e+00 -9.2132113742e+02 9.2132113742e+02 0.0000000000e+00 0.0000e+00 1.0000e+00
      -13  1    1    2    0    0 +2.8391623288e+02 -2.0086418658e+02 -6.4347677849e+02 7.3144870853e+02 0.0000000000e+00 0.0000e+00 1.0000e+00
       13  1    1    2    0    0 -2.8391623288e+02 +2.0086418658e+02 -1.0455487959e+02 3.6316190823e+02 0.0000000000e+00 0.0000e+00 -1.0000e+00
<mgrwt>
<rscale>  0 0.79913769E+03</rscale>
<asrwt>0</asrwt>
<pdfrwt beam="1">  1        2 0.26659920E-01 0.79913769E+03</pdfrwt>
<pdfrwt beam="2">  1       -2 0.14174171E+00 0.79913769E+03</pdfrwt>
<totfact> 0.85971182E+01</totfact>
</mgrwt>
<rwgt>
<wgt id='morphing_basis_vector_1'> +2.0895337e-04 </wgt>
<wgt id='morphing_basis_vector_2'> +1.2806527e-04 </wgt>
<wgt id='morphing_basis_vector_3'> +1.8734519e-04 </wgt>
<wgt id='morphing_basis_vector_4'> +1.0162285e-04 </wgt>
<wgt id='morphing_basis_vector_5'> +1.6106079e-04 </wgt>
</rwgt>
</event>
<event>
 4      1 +2.9741700e-06 8.67148200e+02 7.81860800e-03 8.82229100e-02
        2 -1    0    0  501    0 +0.0000000000e+00 +0.0000000000e+00 +1.1667613234e+03 1.1667613234e+03 0.0000000000e+00 0.0000e+00 1.0000e+00
       -2 -1    0    0    0  501 -0.0000000000e+00 -0.0000000000e+00 -1.6111820347e+02 1.6111820347e+02 0.0000000000e+00 0.0000e+00 -1.0000e+00
      -13  1    1    2    0    0 +1.8511936793e+02 -2.1954564486e+02 +5.3976969933e+00 2.8722570514e+02 0.0000000000e+00 0.0000e+00 -1.0000e+00
       13  1    1    2    0    0 -1.8511936793e+02 +2.1954564486e+02 +1.0002454229e+03 1.0406538217e+03 0.0000000000e+00 0.0000e+00 1.0000e+00
<mgrwt>
<rscale>  0 0.86714817E+03</rscale>
<asrwt>0</asrwt>
<pdfrwt beam="1">  1        2 0.17950174E+00 0.86714817E+03</pdfrwt>
<pdfrwt beam="2">  1       -2 0.24787417E-01 0.86714817E+03</pdfrwt>
<totfact> 0.34080261E+02</totfact>
</mgrwt>
<rwgt>
<wgt id='morphing_basis_vector_1'> +2.7876926e-04 </wgt>
<wgt id='morphing_basis_vector_2'> +1.7086874e-04 </wgt>
<wgt id='morphing_basis_vector_3'> +2.5735504e-04 </wgt>
<wgt id='morphing_basis_vector_4'> +1.4767363e-04 </wgt>
<wgt id='morphing_basis_vector_5'> +2.3296377e-04 </wgt>
</rwgt>
</event>
<event>
 4      1 +2.9741700e-06 8.06562700e+02 7.81860800e-03 8.89407700e-02
        2 -1    0    0  501    0 +0.0000000000e+00 +0.0000000000e+00 +3.2250625025e+02 3.2250625025e+02 0.0000000000e+00 0.0000e+00 1.0000e+00
       -2 -1    0    0    0  501 -0.0000000000e+00 -0.0000000000e+00 -5.0428741956e+02 5.0428741956e+02 0.0000000000e+00 0.0000e+00 -1.0000e+00
      -13  1    1    2    0    0 +1.4221376761e+01 +1.7989051725e+02 -4.6059325638e+02 4.9468069860e+02 0.0000000000e+00 0.0000e+00 -1.0000e+00
       13  1    1    2    0    0 -1.4221376761e+01 -1.7989051725e+02 +2.7881208706e+02 3.3211297121e+02 0.0000000000e+00 0.0000e+00 1.0000e+00
<mgrwt>
<rscale>  0 0.80656269E+03</rscale>
<asrwt>0</asrwt>
<pdfrwt beam="1">  1        2 0.49616346E-01 0.80656269E+03</pdfrwt>
<pdfrwt beam="2">  1       -2 0.77582680E-01 0.80656269E+03</pdfrwt>
<totfact> 0.18773479E+02</totfact>
</mgrwt>
<rwgt>
<wgt id='morphing_basis_vector_1'> +2.1498877e-04 </wgt>
<wgt id='morphing_basis_vector_2'> +1.2970962e-04 </wgt>
<wgt id='morphing_basis_vector_3'> +1.9368051e-04 </wgt>
<wgt id='morphing_basis_vector_4'> +1.0712113e-04 </wgt>
<wgt id='morphing_basis_vector_5'> +1.6804788e-04 </wgt>
</rwgt>
</event>
<event>
 4      1 +2.9741700e-06 8.89693100e+02 7.81860800e-03 8.79714000e-02
        2 -1    0    0  501    0 +0.0000000000e+00 +0.0000000000e+00 +4.9744325580e+02 4.9744325580e+02 0.0000000000e+00 0.0000e+00 -1.0000e+00
       -2 -1    0    0    0  501 -0.0000000000e+00 -0.0000000000e+00 -3.9781111616e+02 3.9781111616e+02 0.0000000000e+00 0.0000e+00 1.0000e+00
      -13  1    1    2    0    0 +1.1330629143e+02 -3.8443864612e+02 -1.4441136040e+02 4.2601177135e+02 0.0000000000e+00 0.0000e+00 1.0000e+00
       13  1    1    2    0    0 -1.1330629143e+02 +3.8443864612e+02 +2.4404350004e+02 4.6924260061e+02 0.0000000000e+00 0.0000e+00 -1.0000e+00
<mgrwt>
<rscale>  0 0.88969311E+03</rscale>
<asrwt>0</asrwt>
<pdfrwt beam="1">  1        2 0.76529732E-01 0.88969311E+03</pdfrwt>
<pdfrwt beam="2">  1       -2 0.61201710E-01 0.88969311E+03</pdfrwt>
<totfact> 0.18996172E+02</totfact>
</mgrwt>
<rwgt>
<wgt id='morphing_basis_vector_1'> +3.0745576e-04 </wgt>
<wgt id='morphing_basis_vector_2'> +1.9315634e-04 </wgt>
<wgt id='morphing_basis_vector_3'> +2.8589525e-04 </wgt>
<wgt id='morphing_basis_vector_4'> +1.6313982e-04 </wgt>
<wgt id='morphing_basis_vector_5'> +2.6107997e-04 </wgt>
</rwgt>
</event>
<event>
 4      1 +2.9741700e-06 7.70930700e+02 7.81860800e-03 8.93948800e-02
        2 -1    0    0  501    0 +0.0000000000e+00 +0.0000000000e+00 +8.3046813004e+02 8.3046813004e+02 0.0000000000e+00 0.0000e+00 1.0000e+00
       -2 -1    0    0    0  501 -0.0000000000e+00 -0.0000000000e+00 -1.7891541840e+02 1.7891541840e+02 0.0000000000e+00 0.0000e+00 -1.0000e+00
      -13  1    1    2    0    0 +1.5618992989e+01 +1.8854317513e+02 -1.1394566720e+02 2.2085311160e+02 0.0000000000e+00 0.0000e+00 -1.0000e+00
       13  1    1    2    0    0 -1.5618992989e+01 -1.8854317513e+02 +7.6549837883e+02 7.8853043684e+02 0.0000000000e+00 0.0000e+00 1.0000e+00
<mgrwt>
<rscale>  0 0.77093074E+03</rscale>
<asrwt>0</asrwt>
<pdfrwt beam="1">  1        2 0.12776433E+00 0.77093074E+03</pdfrwt>
<pdfrwt beam="2">  1       -2 0.27525450E-01 0.77093074E+03</pdfrwt>
<totfact> 0.46333105E+02</totfact>
</mgrwt>
<rwgt>
<wgt id='morphing_basis_vector_1'> +1.8329560e-04 </wgt>
<wgt id='morphing_basis_vector_2'> +1.0966861e-04 </wgt>
<wgt id='morphing_basis_vector_3'> +1.6239627e-04 </wgt>
<wgt id='morphing_basis_vector_4'> +8.7341377e-05 </wgt>
<wgt id='morphing_basis_vector_5'> +1.3661463e-04 </wgt>
</rwgt>
</event>
<event>
 4      1 +2.9741700e-06 7.60359100e+02 7.81860800e-03 8.95346400e-02
        2 -1    0    0  501    0 +0.0000000000e+00 +0.0000000000e+00 +1.8731981259e+03 1.8731981259e+03 0.0000000000e+00 0.0000e+00 1.0000e+00
       -2 -1    0    0    0  501 -0.0000000000e+00 -0.0000000000e+00 -7.7160274280e+01 7.7160274280e+01 0.0000000000e+00 0.0000e+00 -1.0000e+00
      -13  1    1    2    0    0 +1.7009313646e+02 -3.2882432015e+02 +6.7618484173e+02 7.7089756050e+02 0.0000000000e+00 0.0000e+00 -1.0000e+00
       13  1    1    2    0    0 -1.7009313646e+02 +3.2882432015e+02 +1.1198530099e+03 1.1794608397e+03 0.0000000000e+00 0.0000e+00 1.0000e+00
<mgrwt>
<rscale>  0 0.76035908E+03</rscale>
<asrwt>0</asrwt>
<pdfrwt beam="1">  1        2 0.28818429E+00 0.76035908E+03</pdfrwt>
<pdfrwt beam="2">  1       -2 0.11870813E-01 0.76035908E+03</pdfrwt>
<totfact> 0.46503353E+02</totfact>
</mgrwt>
<rwgt>
<wgt id='morphing_basis_vector_1'> +1.7717205e-04 </wgt>
<wgt id='morphing_basis_vector_2'> +1.1200007e-04 </wgt>
<wgt id='morphing_basis_vector_3'> +1.5519005e-04 </wgt>
<wgt id='morphing_basis_vector_4'> +7.9017003e-05 </wgt>
<wgt id='morphing_basis_vector_5'> +1.2805337e-04 </wgt>
</rwgt>
</event>
<event>
 4      1 +2.9741700e-06 7.75503800e+02 7.81860800e-03 8.93351500e-02
        2 -1    0    0  501    0 +0.0000000000e+00 +0.0000000000e+00 +8.4147448536e+02 8.4147448536e+02 0.0000000000e+00 0.0000e+00 -1.0000e+00
       -2 -1    0    0    0  501 -0.0000000000e+00 -0.0000000000e+00 -1.7867629816e+02 1.7867629816e+02 0.0000000000e+00 0.0000e+00 1.0000e+00
      -13  1    1    2    0    0 -4.1885782409e+00 -3.5899131541e+02 +1.3869649819e+02 3.8487533999e+02 0.0000000000e+00 0.0000e+00 1.0000e+00
       13  1    1    2    0    0 +4.1885782409e+00 +3.5899131541e+02 +5.2410168901e+02 6.3527544353e+02 0.0000000000e+00 0.0000e+00 -1.0000e+00
<mgrwt>
<rscale>  0 0.77550383E+03</rscale>
<asrwt>0</asrwt>
<pdfrwt beam="1">  1        2 0.12945761E+00 0.77550383E+03</pdfrwt>
<pdfrwt beam="2">  1       -2 0.27488662E-01 0.77550383E+03</pdfrwt>
<totfact> 0.45640832E+02</totfact>
</mgrwt>
<rwgt>
<wgt id='morphing_basis_vector_1'> +1.8856130e-04 </wgt>
<wgt id='morphing_basis_vector_2'> +1.1644205e-04 </wgt>
<wgt id='morphing_basis_vector_3'> +1.6694673e-04 </wgt>
<wgt id='morphing_basis_vector_4'> +8.7994358e-05 </wgt>
<wgt id='morphing_basis_vector_5'> +1.4032276e-04 </wgt>
</rwgt>
</event>
<event>
 4      1 +2.9741700e-06 7.63317100e+02 7.81860800e-03 8.94952900e-02
        2 -1    0    0  501    0 +0.0000000000e+00 +0.0000000000e+00 +4.0170476937e+02 4.0170476937e+02 0.0000000000e+00 0.0000e+00 -1.0000e+00
       -2 -1    0    0    0  501 -0.0000000000e+00 -0.0000000000e+00 -3.6261265805e+02 3.6261265805e+02 0.0000000000e+00 0.0000e+00 1.0000e+00
      -13  1    1    2    0    0 +1.6484942801e+02 +1.9998929339e+02 -2.6098567797e+02 3.6781051574e+02 0.0000000000e+00 0.0000e+00 1.0000e+00
       13  1    1    2    0    0 -1.6484942801e+02 -1.9998929339e+02 +3.0007778929e+02 3.9650691168e+02 0.0000000000e+00 0.0000e+00 -1.0000e+00
<mgrwt>
<rscale>  0 0.76331706E+03</rscale>
<asrwt>0</asrwt>
<pdfrwt beam="1">  1        2 0.61800734E-01 0.76331706E+03</pdfrwt>
<pdfrwt beam="2">  1       -2 0.55786562E-01 0.76331706E+03</pdfrwt>
<totfact> 0.29409168E+02</totfact>
</mgrwt>
<rwgt>
<wgt id='morphing_basis_vector_1'> +1.7715217e-04 </wgt>
<wgt id='morphing_basis_vector_2'> +1.0610596e-04 </wgt>
<wgt id='morphing_basis_vector_3'> +1.5631084e-04 </wgt>
<wgt id='morphing_basis_vector_4'> +8.3337035e-05 </wgt>
<wgt id='morphing_basis_vector_5'> +1.3048470e-04 </wgt>
</rwgt>
</event>
<event>
 4      1 +2.9741700e-06 8.01158600e+02 7.81860800e-03 8.90080200e-02
        2 -1    0    0  501    0 +0.0000000000e+00 +0.0000000000e+00 +8.8598367188e+02 8.8598367188e+02 0.0000000000e+00 0.0000e+00 1.0000e+00
       -2 -1    0    0    0  501 -0.0000000000e+00 -0.0000000000e+00 -1.8111371602e+02 1.8111371602e+02 0.0000000000e+00 0.0000e+00 -1.0000e+00
      -13  1    1    2    0    0 -1.5330287088e+02 +3.5152035677e+02 +5.0659238873e+02 6.3537719487e+02 0.0000000000e+00 0.0000e+00 1.0000e+00
       13  1    1    2    0    0 +1.5330287088e+02 -3.5152035677e+02 +1.9827756713e+02 4.3172019303e+02 0.0000000000e+00 0.0000e+00 -1.0000e+00
<mgrwt>
<rscale>  0 0.80115865E+03</rscale>
<asrwt>0</asrwt>
<pdfrwt beam="1">  1        2 0.13630518E+00 0.80115865E+03</pdfrwt>
<pdfrwt beam="2">  1       -2 0.27863649E-01 0.80115865E+03</pdfrwt>
<totfact> 0.41596022E+02</totfact>
</mgrwt>
<rwgt>
<wgt id='morphing_basis_vector_1'> +2.2977918e-04 </wgt>
<wgt id='morphing_basis_vector_2'> +1.8729316e-04 </wgt>
<wgt id='morphing_basis_vector_3'> +2.0055839e-04 </wgt>
<wgt id='morphing_basis_vector_4'> +7.8825464e-05 </wgt>
<wgt id='morphing_basis_vector_5'> +1.6190207e-04 </wgt>
</rwgt>
</event>
<event>
 4      1 +2.9741700e-06 7.82536900e+02 7.81860800e-03 8.92441500e-02
        2 -1    0    0  501    0 +0.0000000000e+00 +0.0000000000e+00 +8.6245071039e+02 8.6245071039e+02 0.0000000000e+00 0.0000e+00 -1.0000e+00
       -2 -1    0    0    0  501 -0.0000000000e+00 -0.0000000000e+00 -1.7750694061e+02 1.7750694061e+02 0.0000000000e+00 0.0000e+00 1.0000e+00
      -13  1    1    2    0    0 +1.4679483336e+02 +1.0981475284e+02 -1.1689943505e+02 2.1742465581e+02 0.0000000000e+00 0.0000e+00 1.0000e+00
       13  1    1    2    0    0 -1.4679483336e+02 -1.0981475284e+02 +8.0184320483e+02 8.2253299519e+02 0.0000000000e+00 0.0000e+00 -1.0000e+00
<mgrwt>
<rscale>  0 0.78253687E+03</rscale>
<asrwt>0</asrwt>
<pdfrwt beam="1">  1        2 0.13268472E+00 0.78253687E+03</pdfrwt>
<pdfrwt beam="2">  1       -2 0.27308761E-01 0.78253687E+03</pdfrwt>
<totfact> 0.44681127E+02</totfact>
</mgrwt>
<rwgt>
<wgt id='morphing_basis_vector_1'> +1.9318369e-04 </wgt>
<wgt id='morphing_basis_vector_2'> +1.1590164e-04 </wgt>
<wgt id='morphing_basis_vector_3'> +1.7212463e-04 </wgt>
<wgt id='morphing_basis_vector_4'> +9.3466726e-05 </wgt>
<wgt id='morphing_basis_vector_5'> +1.4634310e-04 </wgt>
</rwgt>
</event>
<event>
 4      1 +2.9741700e-06 8.55583000e+02 7.81860800e-03 8.83550700e-02
        2 -1    0    0  501    0 +0.0000000000e+00 +0.0000000000e+00 +2.3810865769e+03 2.3810865769e+03 0.0000000000e+00 0.0000e+00 1.0000e+00
       -2 -1    0    0    0  501 -0.0000000000e+00 -0.0000000000e+00 -7.6858002229e+01 7.6858002229e+01 0.0000000000e+00 0.0000e+00 -1.0000e+00
      -13  1    1    2    0    0 -4.2201358899e+02 -2.7373361395e+01 +1.3374237965e+03 1.4026928322e+03 0.0000000000e+00 0.0000e+00 -1.0000e+00
       13  1    1    2    0    0 +4.2201358899e+02 +2.7373361395e+01 +9.6680477822e+02 1.0552517469e+03 0.0000000000e+00 0.0000e+00 1.0000e+00
<mgrwt>
<rscale>  0 0.85558298E+03</rscale>
<asrwt>0</asrwt>
<pdfrwt beam="1">  1        2 0.36632096E+00 0.85558298E+03</pdfrwt>
<pdfrwt beam="2">  1       -2 0.11824310E-01 0.85558298E+03</pdfrwt>
<totfact> 0.24111267E+02</totfact>
</mgrwt>
<rwgt>
<wgt id='morphing_basis_vector_1'> +2.8135314e-04 </wgt>
<wgt id='morphing_basis_vector_2'> +2.1044857e-04 </wgt>
<wgt id='morphing_basis_vector_3'> +2.5527558e-04 </wgt>
<wgt id='morphing_basis_vector_4'> +1.1780019e-04 </wgt>
<wgt id='morphing_basis_vector_5'> +2.1832925e-04 </wgt>
</rwgt>
</event>
<event>
 4      1 +2.9741700e-06 7.96116400e+02 7.81860800e-03 8.90712800e-02
        2 -1    0    0  501    0 +0.0000000000e+00 +0.0000000000e+00 +7.8082588591e+02 7.8082588591e+02 0.0000000000e+00 0.0000e+00 -1.0000e+00
       -2 -1    0    0    0  501 -0.0000000000e+00 -0.0000000000e+00 -2.0292661047e+02 2.0292661047e+02 0.0000000000e+00 0.0000e+00 1.0000e+00
      -13  1    1    2    0    0 +2.3505962227e+02 -1.1690670302e+02 -8.0788201622e+01 2.7467605785e+02 0.0000000000e+00 0.0000e+00 1.0000e+00
       13  1    1    2    0    0 -2.3505962227e+02 +1.1690670302e+02 +6.5868747706e+02 7.0907643853e+02 0.0000000000e+00 0.0000e+00 -1.0000e+00
<mgrwt>
<rscale>  0 0.79611645E+03</rscale>
<asrwt>0</asrwt>
<pdfrwt beam="1">  1        2 0.12012706E+00 0.79611645E+03</pdfrwt>
<pdfrwt beam="2">  1       -2 0.31219479E-01 0.79611645E+03</pdfrwt>
<totfact> 0.40147705E+02</totfact>
</mgrwt>
<rwgt>
<wgt id='morphing_basis_vector_1'> +2.0541645e-04 </wgt>
<wgt id='morphing_basis_vector_2'> +1.2396404e-04 </wgt>
<wgt id='morphing_basis_vector_3'> +1.8414722e-04 </wgt>
<wgt id='morphing_basis_vector_4'> +1.0085083e-04 </wgt>
<wgt id='morphing_basis_vector_5'> +1.5833844e-04 </wgt>
</rwgt>
</event>
<event>
 4      1 +2.9741700e-06 7.51489900e+02 7.81860800e-03 8.96537700e-02
        2 -1    0    0  501    0 +0.0000000000e+00 +0.0000000000e+00 +3.3870727700e+02 3.3870727700e+02 0.0000000000e+00 0.0000e+00 -1.0000e+00
       -2 -1    0    0    0  501 -0.0000000000e+00 -0.0000000000e+00 -4.1683271390e+02 4.1683271390e+02 0.0000000000e+00 0.0000e+00 1.0000e+00
      -13  1    1    2    0    0 +3.7447707071e+02 +7.5982240226e+00 -6.9114680113e+01 3.8087747178e+02 0.0000000000e+00 0.0000e+00 1.0000e+00
       13  1    1    2    0    0 -3.7447707071e+02 -7.5982240226e+00 -9.0107567962e+00 3.7466251912e+02 0.0000000000e+00 0.0000e+00 -1.0000e+00
<mgrwt>
<rscale>  0 0.75148992E+03</rscale>
<asrwt>0</asrwt>
<pdfrwt beam="1">  1        2 0.52108812E-01 0.75148992E+03</pdfrwt>
<pdfrwt beam="2">  1       -2 0.64128109E-01 0.75148992E+03</pdfrwt>
<totfact> 0.26825853E+02</totfact>
</mgrwt>
<rwgt>
<wgt id='morphing_basis_vector_1'> +1.7196197e-04 </wgt>
<wgt id='morphing_basis_vector_2'> +1.1313642e-04 </wgt>
<wgt id='morphing_basis_vector_3'> +1.4915310e-04 </wgt>
<wgt id='morphing_basis_vector_4'> +7.2681407e-05 </wgt>
<wgt id='morphing_basis_vector_5'> +1.2118942e-04 </wgt>
</rwgt>
</event>
<event>
 4      1 +2.9741700e-06 8.90803100e+02 7.81860800e-03 8.79592200e-02
        2 -1    0    0  501    0 +0.0000000000e+00 +0.0000000000e+00 +1.7004712243e+02 1.7004712243e+02 0.0000000000e+00 0.0000e+00 1.0000e+00
       -2 -1    0    0    0  501 -0.0000000000e+00 -0.0000000000e+00 -1.1666326517e+03 1.1666326517e+03 0.0000000000e+00 0.0000e+00 -1.0000e+00
      -13  1    1    2    0    0 -3.4416357548e+02 +1.9817243094e+02 -8.0087132542e+02 8.9393274856e+02 0.0000000000e+00 0.0000e+00 -1.0000e+00
       13  1    1    2    0    0 +3.4416357548e+02 -1.9817243094e+02 -1.9571420389e+02 4.4274702560e+02 0.0000000000e+00 0.0000e+00 1.0000e+00
<mgrwt>
<rscale>  0 0.89080307E+03</rscale>
<asrwt>0</asrwt>
<pdfrwt beam="1">  1        2 0.26161096E-01 0.89080307E+03</pdfrwt>
<pdfrwt beam="2">  1       -2 0.17948194E+00 0.89080307E+03</pdfrwt>
<totfact> 0.43584253E+01</totfact>
</mgrwt>
<rwgt>
<wgt id='morphing_basis_vector_1'> +3.0868482e-04 </wgt>
<wgt id='morphing_basis_vector_2'> +1.9357436e-04 </wgt>
<wgt id='morphing_basis_vector_3'> +2.8717790e-04 </wgt>
<wgt id='morphing_basis_vector_4'> +1.6426673e-04 </wgt>
<wgt id='morphing_basis_vector_5'> +2.6254203e-04 </wgt>
</rwgt>
</event>
<event>
 4      1 +2.9741700e-06 8.16535000e+02 7.81860800e-03 8.88181100e-02
        2 -1    0    0  501    0 +0.0000000000e+00 +0.0000000000e+00 +6.4617337874e+02 6.4617337874e+02 0.0000000000e+00 0.0000e+00 -1.0000e+00
       -2 -1    0    0    0  501 -0.0000000000e+00 -0.0000000000e+00 -2.5795300471e+02 2.5795300471e+02 0.0000000000e+00 0.0000e+00 1.0000e+00
      -13  1    1    2    0    0 -1.4313284109e+02 -3.4712711192e+02 +1.6607464441e+01 3.7584577942e+02 0.0000000000e+00 0.0000e+00 1.0000e+00
       13  1    1    2    0    0 +1.4313284109e+02 +3.4712711192e+02 +3.7161290958e+02 5.2828060403e+02 0.0000000000e+00 0.0000e+00 -1.0000e+00
<mgrwt>
<rscale>  0 0.81653503E+03</rscale>
<asrwt>0</asrwt>
<pdfrwt beam="1">  1        2 0.99411289E-01 0.81653503E+03</pdfrwt>
<pdfrwt beam="2">  1       -2 0.39685078E-01 0.81653503E+03</pdfrwt>
<totfact> 0.32756667E+02</totfact>
</mgrwt>
<rwgt>
<wgt id='morphing_basis_vector_1'> +2.2619306e-04 </wgt>
<wgt id='morphing_basis_vector_2'> +1.4072251e-04 </wgt>
<wgt id='morphing_basis_vector_3'> +2.0422452e-04 </wgt>
<wgt id='morphing_basis_vector_4'> +1.1111656e-04 </wgt>
<wgt id='morphing_basis_vector_5'> +1.7760956e-04 </wgt>
</rwgt>
</event>
<event>
 4      1 +2.9741700e-06 7.64102000e+02 7.81860800e-03 8.94848800e-02
        2 -1    0    0  501    0 +0.0000000000e+00 +0.0000000000e+00 +1.0748093699e+03 1.0748093699e+03 0.0000000000e+00 0.0000e+00 -1.0000e+00
       -2 -1    0    0    0  501 -0.0000000000e+00 -0.0000000000e+00 -1.3580357313e+02 1.3580357313e+02 0.0000000000e+00 0.0000e+00 1.0000e+00
      -13  1    1    2    0    0 -2.2418199470e+02 +1.0659899447e+02 +9.3776672220e+00 2.4841266677e+02 0.0000000000e+00 0.0000e+00 1.0000e+00
       13  1    1    2    0    0 +2.2418199470e+02 -1.0659899447e+02 +9.2962812953e+02 9.6220027623e+02 0.0000000000e+00 0.0000e+00 -1.0000e+00
<mgrwt>
<rscale>  0 0.76410196E+03</rscale>
<asrwt>0</asrwt>
<pdfrwt beam="1">  1        2 0.16535528E+00 0.76410196E+03</pdfrwt>
<pdfrwt beam="2">  1       -2 0.20892858E-01 0.76410196E+03</pdfrwt>
<totfact> 0.51876829E+02</totfact>
</mgrwt>
<rwgt>
<wgt id='morphing_basis_vector_1'> +1.7775739e-04 </wgt>
<wgt id='morphing_basis_vector_2'> +1.0640595e-04 </wgt>
<wgt id='morphing_basis_vector_3'> +1.5691960e-04 </wgt>
<wgt id='morphing_basis_vector_4'> +8.3767957e-05 </wgt>
<wgt id='morphing_basis_vector_5'> +1.3110825e-04 </wgt>
</rwgt>
</event>
<event>
 4      1 +2.9741700e-06 8.02443200e+02 7.81860800e-03 8.89919900e-02
        2 -1    0    0  501    0 +0.0000000000e+00 +0.0000000000e+00 +1.9464072585e+02 1.9464072585e+02 0.0000000000e+00 0.0000e+00 -1.0000e+00
       -2 -1    0    0    0  501 -0.0000000000e+00 -0.0000000000e+00 -8.2705600924e+02 8.2705600924e+02 0.0000000000e+00 0.0000e+00 1.0000e+00
      -13  1    1    2    0    0 -3.4415844094e+02 -1.7330102897e+02 -4.5856221801e+02 5.9896376092e+02 0.0000000000e+00 0.0000e+00 1.0000e+00
       13  1    1    2    0    0 +3.4415844094e+02 +1.7330102897e+02 -1.7385306537e+02 4.2273297417e+02 0.0000000000e+00 0.0000e+00 -1.0000e+00
<mgrwt>
<rscale>  0 0.80244322E+03</rscale>
<asrwt>0</asrwt>
<pdfrwt beam="1">  1        2 0.29944727E-01 0.80244322E+03</pdfrwt>
<pdfrwt beam="2">  1       -2 0.12723939E+00 0.80244322E+03</pdfrwt>
<totfact> 0.10063696E+02</totfact>
</mgrwt>
<rwgt>
<wgt id='morphing_basis_vector_1'> +2.1362366e-04 </wgt>
<wgt id='morphing_basis_vector_2'> +1.3492226e-04 </wgt>
<wgt id='morphing_basis_vector_3'> +1.9135283e-04 </wgt>
<wgt id='morphing_basis_vector_4'> +1.0151095e-04 </wgt>
<wgt id='morphing_basis_vector_5'> +1.6403583e-04 </wgt>
</rwgt>
</event>
<event>
 4      1 +2.9741700e-06 7.74731800e+02 7.81860800e-03 8.93452100e-02
        2 -1    0    0  501    0 +0.0000000000e+00 +0.0000000000e+00 +1.3447870840e+03 1.3447870840e+03 0.0000000000e+00 0.0000e+00 1.0000e+00
       -2 -1    0    0    0  501 -0.0000000000e+00 -0.0000000000e+00 -1.1158074472e+02 1.1158074472e+02 0.0000000000e+00 0.0000e+00 -1.0000e+00
      -13  1    1    2    0    0 +2.1160155833e+02 -1.7573614449e+02 +1.1293328361e+03 1.1623472229e+03 0.0000000000e+00 0.0000e+00 1.0000e+00
       13  1    1    2    0    0 -2.1160155833e+02 +1.7573614449e+02 +1.0387350317e+02 2.9402060578e+02 0.0000000000e+00 0.0000e+00 -1.0000e+00
<mgrwt>
<rscale>  0 0.77473181E+03</rscale>
<asrwt>0</asrwt>
<pdfrwt beam="1">  1        2 0.20689031E+00 0.77473181E+03</pdfrwt>
<pdfrwt beam="2">  1       -2 0.17166269E-01 0.77473181E+03</pdfrwt>
<totfact> 0.50110747E+02</totfact>
</mgrwt>
<rwgt>
<wgt id='morphing_basis_vector_1'> +2.3940135e-04 </wgt>
<wgt id='morphing_basis_vector_2'> +2.7397458e-04 </wgt>
<wgt id='morphing_basis_vector_3'> +1.9412928e-04 </wgt>
<wgt id='morphing_basis_vector_4'> +2.5051107e-05 </wgt>
<wgt id='morphing_basis_vector_5'> +1.3722557e-04 </wgt>
</rwgt>
</event>
</LesHouchesEvents>
