<LesHouchesEvents version="3.0">
<header>
<!--
#*********************************************************************
#                                                                    *
#                        MadGraph5_aMC@NLO                           *
#                                                                    *
#                           Going Beyond                             *
#                                                                    *
#                   http://madgraph.hep.uiuc.edu                     *
#                   http://madgraph.phys.ucl.ac.be                   *
#                   http://amcatnlo.cern.ch                          *
#                                                                    *
#                     The MadGraph5_aMC@NLO team                     *
#                                                                    *
#....................................................................*
#                                                                    *
# This file contains all the information necessary to reproduce      *
# the events generated:                                              *
#                                                                    *
# 1. software version                                                *
# 2. proc_card          : code generation info including model       *
# 3. param_card         : model primary parameters in the LH format  *
# 4. run_card           : running parameters (collider and cuts)     *
# 5. pythia_card        : present only if pythia has been run        *
# 6. pgs_card           : present only if pgs has been run           *
# 7. delphes_cards      : present only if delphes has been run       *
#                                                                    *
#                                                                    *
#*********************************************************************
-->
<MGVersion>
2.6.4
</MGVersion>
<MG5ProcCard>
<![CDATA[
#************************************************************
#*                     MadGraph5_aMC@NLO                    *
#*                                                          *
#*                *                       *                 *
#*                  *        * *        *                   *
#*                    * * * * 5 * * * *                     *
#*                  *        * *        *                   *
#*                *                       *                 *
#*                                                          *
#*                                                          *
#*         VERSION 2.6.4                 2018-11-09         *
#*                                                          *
#*    The MadGraph5_aMC@NLO Development Team - Find us at   *
#*    https://server06.fynu.ucl.ac.be/projects/madgraph     *
#*                                                          *
#************************************************************
#*                                                          *
#*               Command File for MadGraph5_aMC@NLO         *
#*                                                          *
#*     run as ./bin/mg5_aMC  filename                       *
#*                                                          *
#************************************************************
set default_unset_couplings 99
set group_subprocesses Auto
set ignore_six_quark_processes False
set loop_optimized_output True
set loop_color_flows False
set gauge unitary
set complex_mass_scheme False
set max_npoint_for_channel 0
import model SM4fLL_UFO
define p = g u c d s u~ c~ d~ s~
define j = g u c d s u~ c~ d~ s~
define l+ = e+ mu+
define l- = e- mu-
define vl = ve vm vt
define vl~ = ve~ vm~ vt~
generate u u~ > mu+ mu- NP=2 QED=99 QCD=0
output /Users/dpappadopulo/Projects/~Physics/madminer/examples/example\
4_systematics_DY/data/mg_processes/DY_sys/
]]>
</MG5ProcCard>
<MGProcCard>
#*********************************************************************
#                        MadGraph/MadEvent                           *
#                   http://madgraph.hep.uiuc.edu                     *
#                                                                    *
#                          proc_card.dat                             *
#*********************************************************************
#                                                                    *
#            This Files is generated by MADGRAPH 5                   *
#                                                                    *
# WARNING: This Files is generated for MADEVENT (compatibility issue)*
#          This files is NOT a valid MG4 proc_card.dat               *
#          Running this in MG4 will NEVER reproduce the result of MG5*
#                                                                    *
#*********************************************************************
#*********************************************************************
# Process(es) requested : mg2 input                                  *
#*********************************************************************
# Begin PROCESS # This is TAG. Do not modify this line
u u~ > mu+ mu-           #Process
# Be carefull the coupling are here in MG5 convention
NP=2
QED=99
QCD=0
          
end_coup           # End the couplings input

done               # this tells MG there are no more procs
# End PROCESS  # This is TAG. Do not modify this line
#*********************************************************************
# Model information                                                  *
#*********************************************************************
# Begin MODEL  # This is TAG. Do not modify this line
SM4fLL_UFO
# End   MODEL  # This is TAG. Do not modify this line
#*********************************************************************
# Start multiparticle definitions                                    *
#*********************************************************************
# Begin MULTIPARTICLES # This is TAG. Do not modify this line

# End  MULTIPARTICLES # This is TAG. Do not modify this line
</MGProcCard>
<MGRunCard>
<![CDATA[
#*********************************************************************
#                       MadGraph5_aMC@NLO                            *
#                                                                    *
#                     run_card.dat MadEvent                          *
#                                                                    *
#  This file is used to set the parameters of the run.               *
#                                                                    *
#  Some notation/conventions:                                        *
#                                                                    *
#   Lines starting with a '# ' are info or comments                  *
#                                                                    *
#   mind the format:   value    = variable     ! comment             *
#*********************************************************************
#
#*******************                                                 
# Running parameters
#*******************                                                 
#                                                                    
#*********************************************************************
# Tag name for the run (one word)                                    *
#*********************************************************************
  tag_1     = run_tag ! name of the run 
#*********************************************************************
# Run to generate the grid pack                                      *
#*********************************************************************
  False     = gridpack  !True = setting up the grid pack
#*********************************************************************
# Number of events and rnd seed                                      *
# Warning: Do not generate more than 1M events in a single run       *
# If you want to run Pythia, avoid more than 50k events in a run.    *
#*********************************************************************
  1000 = nevents ! Number of unweighted events requested
 21 = iseed   ! rnd seed (0=assigned automatically=default))
#*********************************************************************
# Collider type and energy                                           *
# lpp: 0=No PDF, 1=proton, -1=antiproton, 2=photon from proton,      *
#                                         3=photon from electron     *
#*********************************************************************
     1        = lpp1    ! beam 1 type 
     1        = lpp2    ! beam 2 type
     6500.0     = ebeam1  ! beam 1 total energy in GeV
     6500.0     = ebeam2  ! beam 2 total energy in GeV
#*********************************************************************
# Beam polarization from -100 (left-handed) to 100 (right-handed)    *
#*********************************************************************
     0.0     = polbeam1 ! beam polarization for beam 1
     0.0     = polbeam2 ! beam polarization for beam 2
#*********************************************************************
# PDF CHOICE: this automatically fixes also alpha_s and its evol.    *
#*********************************************************************
     lhapdf    = pdlabel     ! PDF set
     90900   = lhaid     ! if pdlabel=lhapdf, this is the lhapdf number
#*********************************************************************
# Renormalization and factorization scales                           *
#*********************************************************************
 False = fixed_ren_scale  ! if .true. use fixed ren scale
 False        = fixed_fac_scale  ! if .true. use fixed fac scale
 91.188  = scale            ! fixed ren scale
 91.188  = dsqrt_q2fact1    ! fixed fact scale for pdf1
 91.188  = dsqrt_q2fact2    ! fixed fact scale for pdf2
 -1 = dynamical_scale_choice ! Choose one of the preselected dynamical choices
 1.0  = scalefact        ! scale factor for event-by-event scales
#*********************************************************************
# Type and output format
#*********************************************************************
  False     = gridpack  !True = setting up the grid pack
  -1.0 = time_of_flight ! threshold (in mm) below which the invariant livetime is not written (-1 means not written)
  3.0 = lhe_version       ! Change the way clustering information pass to shower.        
  True = clusinfo         ! include clustering tag in output
  sum =  event_norm       ! average/sum. Normalization of the weight in the LHEF
#*********************************************************************
# Matching - Warning! ickkw > 1 is still beta
#*********************************************************************
 0 = ickkw            ! 0 no matching, 1 MLM, 2 CKKW matching
 1 = highestmult      ! for ickkw=2, highest mult group
 1 = ktscheme         ! for ickkw=1, 1 Durham kT, 2 Pythia pTE
 1.0 = alpsfact         ! scale factor for QCD emission vx
 False = chcluster        ! cluster only according to channel diag
 True = pdfwgt           ! for ickkw=1, perform pdf reweighting
 4 = asrwgtflavor     ! highest quark flavor for a_s reweight    
#*********************************************************************
#**********************************************************
#
#**********************************************************
# Automatic ptj and mjj cuts if xqcut > 0
# (turn off for VBF and single top processes)
#**********************************************************
   False  = auto_ptj_mjj  ! Automatic setting of ptj and mjj
#**********************************************************
#                                                                    
#**********************************
# BW cutoff (M+/-bwcutoff*Gamma)
#**********************************
  15.0  = bwcutoff      ! (M+/-bwcutoff*Gamma)
#**********************************************************
# Apply pt/E/eta/dr/mij/kt_durham cuts on decay products or not
# (note that etmiss/ptll/ptheavy/ht/sorted cuts always apply)
#*************************************************************
   False  = cut_decays    ! Cut decay products 
#*************************************************************
# Number of helicities to sum per event (0 = all helicities)
# 0 gives more stable result, but longer run time (needed for
# long decay chains e.g.).
# Use >=2 if most helicities contribute, e.g. pure QCD.
#*************************************************************
   0  = nhel          ! Number of helicities used per event
#*******************                                                 
# Standard Cuts
#*******************                                                 
#                                                                    
#*********************************************************************
# Minimum and maximum pt's (for max, -1 means no cut)                *
#*********************************************************************
 15.0  = ptj       ! minimum pt for the jets
 0.0  = ptb       ! minimum pt for the b 
 0.0 = pta       ! minimum pt for the photons
 25.0  = ptl       ! minimum pt for the charged leptons
 0.0  = misset    ! minimum missing Et (sum of neutrino's momenta)
 0.0  = ptheavy   ! minimum pt for one heavy final state
 -1.0  = ptjmax    ! maximum pt for the jets
 -1.0  = ptbmax    ! maximum pt for the b
 -1.0 = ptamax       ! maximum pt for the photons
 -1.0  = ptlmax    ! maximum pt for the charged leptons
 -1.0  = missetmax ! maximum missing Et (sum of neutrino's momenta)
#*********************************************************************
# Minimum and maximum E's (in the center of mass frame)              *
#*********************************************************************
  0.0  = ej     ! minimum E for the jets 
  0.0  = eb     ! minimum E for the b 
  0.0  = ea     ! minimum E for the photons 
  0.0  = el     ! minimum E for the charged leptons 
  -1.0   = ejmax ! maximum E for the jets
 -1.0   = ebmax ! maximum E for the b
 -1.0   = eamax ! maximum E for the photons
 -1.0   = elmax ! maximum E for the charged leptons
#*********************************************************************
# Maximum and minimum absolute rapidity (for max, -1 means no cut)   *
#*********************************************************************
 2.5 = etaj    ! max rap for the jets
  -1.0  = etab    ! max rap for the b
 3.0  = etaa    ! max rap for the photons
 2.5  = etal    ! max rap for the charged leptons
 0.0  = etajmin ! min rap for the jets
 0.0  = etabmin ! min rap for the b
 0.0  = etaamin ! min rap for the photons
 0.0  = etalmin ! main rap for the charged leptons
#*********************************************************************
# Minimum and maximum DeltaR distance                                *
#*********************************************************************
 0.0 = drjj    ! min distance between jets
 0.0 = drbb    ! min distance between b's
 0.0 = drll    ! min distance between leptons
 0.0 = draa    ! min distance between gammas
 0.0 = drbj    ! min distance between b and jet
 0.0 = draj    ! min distance between gamma and jet
 0.0 = drjl    ! min distance between jet and lepton
 0.0 = drab    ! min distance between gamma and b
 0.0 = drbl    ! min distance between b and lepton
 0.0 = dral    ! min distance between gamma and lepton
 -1.0  = drjjmax ! max distance between jets
 -1.0  = drbbmax ! max distance between b's
 -1.0  = drllmax ! max distance between leptons
 -1.0  = draamax ! max distance between gammas
 -1.0  = drbjmax ! max distance between b and jet
 -1.0  = drajmax ! max distance between gamma and jet
 -1.0  = drjlmax ! max distance between jet and lepton
 -1.0  = drabmax ! max distance between gamma and b
 -1.0  = drblmax ! max distance between b and lepton
 -1.0  = dralmax ! maxdistance between gamma and lepton
#*********************************************************************
# Minimum and maximum invariant mass for pairs                       *
# WARNING: for four lepton final state mmll cut require to have      *
#          different lepton masses for each flavor!                  *           
#*********************************************************************
 0.0   = mmjj    ! min invariant mass of a jet pair 
 0.0   = mmbb    ! min invariant mass of a b pair 
 0.0   = mmaa    ! min invariant mass of gamma gamma pair
 300   = mmll    ! min invariant mass of l+l- (same flavour) lepton pair
 -1.0  = mmjjmax ! max invariant mass of a jet pair
 -1.0  = mmbbmax ! max invariant mass of a b pair
 -1.0  = mmaamax ! max invariant mass of gamma gamma pair
 360  = mmllmax ! max invariant mass of l+l- (same flavour) lepton pair
#*********************************************************************
# Minimum and maximum invariant mass for all letpons                 *
#*********************************************************************
 0.0   = mmnl    ! min invariant mass for all letpons (l+- and vl) 
 -1.0  = mmnlmax ! max invariant mass for all letpons (l+- and vl) 
#*********************************************************************
# Minimum and maximum pt for 4-momenta sum of leptons                *
#*********************************************************************
 0.0   = ptllmin  ! Minimum pt for 4-momenta sum of leptons(l and vl)
 -1.0  = ptllmax  ! Maximum pt for 4-momenta sum of leptons(l and vl)
#*********************************************************************
# Inclusive cuts                                                     *
#*********************************************************************
 0.0  = xptj ! minimum pt for at least one jet  
 0.0  = xptb ! minimum pt for at least one b 
 0.0  = xpta ! minimum pt for at least one photon 
 0.0  = xptl ! minimum pt for at least one charged lepton 
#*********************************************************************
# Control the pt's of the jets sorted by pt                          *
#*********************************************************************
 0.0   = ptj1min ! minimum pt for the leading jet in pt
 0.0   = ptj2min ! minimum pt for the second jet in pt
 0.0   = ptj3min ! minimum pt for the third jet in pt
 0.0   = ptj4min ! minimum pt for the fourth jet in pt
 -1.0  = ptj1max ! maximum pt for the leading jet in pt 
 -1.0  = ptj2max ! maximum pt for the second jet in pt
 -1.0  = ptj3max ! maximum pt for the third jet in pt
 -1.0  = ptj4max ! maximum pt for the fourth jet in pt
 0   = cutuse  ! reject event if fails any (0) / all (1) jet pt cuts
#*********************************************************************
# Control the pt's of leptons sorted by pt                           *
#*********************************************************************
 0.0   = ptl1min ! minimum pt for the leading lepton in pt
 0.0   = ptl2min ! minimum pt for the second lepton in pt
 0.0   = ptl3min ! minimum pt for the third lepton in pt
 0.0   = ptl4min ! minimum pt for the fourth lepton in pt
 -1.0  = ptl1max ! maximum pt for the leading lepton in pt 
 -1.0  = ptl2max ! maximum pt for the second lepton in pt
 -1.0  = ptl3max ! maximum pt for the third lepton in pt
 -1.0  = ptl4max ! maximum pt for the fourth lepton in pt
#*********************************************************************
# Control the Ht(k)=Sum of k leading jets                            *
#*********************************************************************
 0.0   = htjmin ! minimum jet HT=Sum(jet pt)
 -1.0  = htjmax ! maximum jet HT=Sum(jet pt)
 0.0   = ihtmin  !inclusive Ht for all partons (including b)
 -1.0  = ihtmax  !inclusive Ht for all partons (including b)
 0.0   = ht2min ! minimum Ht for the two leading jets
 0.0   = ht3min ! minimum Ht for the three leading jets
 0.0   = ht4min ! minimum Ht for the four leading jets
 -1.0  = ht2max ! maximum Ht for the two leading jets
 -1.0  = ht3max ! maximum Ht for the three leading jets
 -1.0  = ht4max ! maximum Ht for the four leading jets
#***********************************************************************
# Photon-isolation cuts, according to hep-ph/9801442                   *
# When ptgmin=0, all the other parameters are ignored                  *
# When ptgmin>0, pta and draj are not going to be used                 *
#***********************************************************************
 0.0 = ptgmin ! Min photon transverse momentum
 0.4 = R0gamma ! Radius of isolation code
 1.0 = xn ! n parameter of eq.(3.4) in hep-ph/9801442
 1.0 = epsgamma ! epsilon_gamma parameter of eq.(3.4) in hep-ph/9801442
 True = isoEM ! isolate photons from EM energy (photons and leptons)
#*********************************************************************
# WBF cuts                                                           *
#*********************************************************************
 0.0   = xetamin ! minimum rapidity for two jets in the WBF case  
 0.0   = deltaeta ! minimum rapidity for two jets in the WBF case 
#*********************************************************************
# KT DURHAM CUT                                                      *
#*********************************************************************
 -1.0    =  ktdurham        
 0.4  =  dparameter 
#*********************************************************************
# maximal pdg code for quark to be considered as a light jet         *
# (otherwise b cuts are applied)                                     *
#*********************************************************************
 4 = maxjetflavor    ! Maximum jet pdg code
#*********************************************************************
# Jet measure cuts                                                   *
#*********************************************************************
 0.0   = xqcut   ! minimum kt jet measure between partons
#*********************************************************************
#
#*********************************************************************
# Store info for systematics studies                                 *
# WARNING: If use_syst is T, matched Pythia output is                *
#          meaningful ONLY if plotted taking matchscale              *
#          reweighting into account!                                 *
#*********************************************************************
#    False  = use_syst      ! Enable systematics studies # Commented out by MadMiner
#
#**************************************
# Parameter of the systematics study
#  will be used by SysCalc (if installed)
#**************************************                                  
#
0.5 1 2 = sys_scalefact  # factorization/renormalization scale factor
None = sys_alpsfact  # \alpha_s emission scale factors
30 50 = sys_matchscale # variation of merging scale
# PDF sets and number of members (0 or none for all members).
NNPDF23_lo_as_0130_qed = sys_pdf # matching scales
# MSTW2008nlo68cl.LHgrid 1  = sys_pdf


#*********************************************************************
# MadMiner systematics setup                                         *
#*********************************************************************
True = use_syst
systematics = systematics_program
['--pdf=90900'] = systematics_arguments
]]>
</MGRunCard>
<slha>
######################################################################
## PARAM_CARD AUTOMATICALY GENERATED BY MG5 FOLLOWING UFO MODEL   ####
######################################################################
##                                                                  ##
##  Width set on Auto will be computed following the information    ##
##        present in the decay.py files of the model.               ##
##        See  arXiv:1402.1178 for more details.                    ##
##                                                                  ##
######################################################################

###################################
## INFORMATION FOR CKMBLOCK
###################################
Block ckmblock 
    1 2.277360e-01 # cabi 

###################################
## INFORMATION FOR MASS
###################################
Block mass 
    5 4.700000e+00 # MB 
    6 1.720000e+02 # MT 
   15 1.777000e+00 # MTA 
   23 9.118760e+01 # MZ 
   25 1.250000e+02 # MH 
## Dependent parameters, given by model restrictions.
## Those values should be edited following the 
## analytical expression. MG5 ignores those values 
## but they are important for interfacing the output of MG5
## to external program such as Pythia.
  1 0.000000 # d : 0.0 
  2 0.000000 # u : 0.0 
  3 0.000000 # s : 0.0 
  4 0.000000 # c : 0.0 
  11 0.000000 # e- : 0.0 
  12 0.000000 # ve : 0.0 
  13 0.000000 # mu- : 0.0 
  14 0.000000 # vm : 0.0 
  16 0.000000 # vt : 0.0 
  21 0.000000 # g : 0.0 
  22 0.000000 # a : 0.0 
  24 79.824360 # w+ : cmath.sqrt(MZ__exp__2/2. + cmath.sqrt(MZ__exp__4/4. - (aEW*cmath.pi*MZ__exp__2)/(Gf*sqrt__2))) 

###################################
## INFORMATION FOR OBLIQUE
###################################
Block oblique 
    1    0.0    # MadMiner
    2    0.0    # MadMiner

###################################
## INFORMATION FOR SMINPUTS
###################################
Block sminputs 
    1 1.279000e+02 # aEWM1 
    2 1.166370e-05 # Gf 
    3 1.184000e-01 # aS 

###################################
## INFORMATION FOR YUKAWA
###################################
Block yukawa 
    5 4.700000e+00 # ymb 
    6 1.720000e+02 # ymt 
   15 1.777000e+00 # ymtau 

###################################
## INFORMATION FOR DECAY
###################################
DECAY   6 1.508336e+00 # WT 
DECAY  23 2.495200e+00 # WZ 
DECAY  24 2.085000e+00 # WW 
DECAY  25 4.070000e-03 # WH 
## Dependent parameters, given by model restrictions.
## Those values should be edited following the 
## analytical expression. MG5 ignores those values 
## but they are important for interfacing the output of MG5
## to external program such as Pythia.
DECAY  1 0.000000 # d : 0.0 
DECAY  2 0.000000 # u : 0.0 
DECAY  3 0.000000 # s : 0.0 
DECAY  4 0.000000 # c : 0.0 
DECAY  5 0.000000 # b : 0.0 
DECAY  11 0.000000 # e- : 0.0 
DECAY  12 0.000000 # ve : 0.0 
DECAY  13 0.000000 # mu- : 0.0 
DECAY  14 0.000000 # vm : 0.0 
DECAY  15 0.000000 # ta- : 0.0 
DECAY  16 0.000000 # vt : 0.0 
DECAY  21 0.000000 # g : 0.0 
DECAY  22 0.000000 # a : 0.0
</slha>
<initrwgt>
<weightgroup name='mg_reweighting' weight_name_strategy='includeIdInWeightName'>
<weight id='morphing_basis_vector_1'>set param_card oblique 1 -0.06391685 # orig: 0.0
set param_card oblique 2 -0.08653588 # orig: 0.0
</weight>
<weight id='morphing_basis_vector_2'>set param_card oblique 1 0.0342439 # orig: 0.0
set param_card oblique 2 -0.09831893 # orig: 0.0
</weight>
<weight id='morphing_basis_vector_3'>set param_card oblique 1 -0.08145691 # orig: 0.0
set param_card oblique 2 0.09700122 # orig: 0.0
</weight>
<weight id='morphing_basis_vector_4'>set param_card oblique 1 0.09132942 # orig: 0.0
set param_card oblique 2 -0.005442744 # orig: 0.0
</weight>
<weight id='morphing_basis_vector_5'>set param_card oblique 1 0.08535809 # orig: 0.0
set param_card oblique 2 0.08156918 # orig: 0.0
</weight>
</weightgroup>
</initrwgt>
<MGGenerationInfo>
#  Number of Events        :       1000
#  Integrated weight (pb)  :       0.055534
</MGGenerationInfo>
</header>
<init>
2212 2212 6.500000e+03 6.500000e+03 0 0 90900 90900 -3 1
5.553400e-02 3.784332e-04 5.553400e-05 1
<generator name='MadGraph5_aMC@NLO' version='2.6.4'>please cite 1405.0301 </generator>
</init>
<event>
 4      1 +5.5534000e-05 3.57881700e+02 7.81860800e-03 9.78970800e-02
        2 -1    0    0  501    0 +0.0000000000e+00 +0.0000000000e+00 +2.7739523190e+02 2.7739523190e+02 0.0000000000e+00 0.0000e+00 1.0000e+00
       -2 -1    0    0    0  501 -0.0000000000e+00 -0.0000000000e+00 -1.1543035763e+02 1.1543035763e+02 0.0000000000e+00 0.0000e+00 -1.0000e+00
      -13  1    1    2    0    0 +2.6321563168e+00 -6.5518726921e+01 +2.6373287687e+02 2.7176214263e+02 0.0000000000e+00 0.0000e+00 1.0000e+00
       13  1    1    2    0    0 -2.6321563168e+00 +6.5518726921e+01 -1.0176800260e+02 1.2106344691e+02 0.0000000000e+00 0.0000e+00 -1.0000e+00
<mgrwt>
<rscale>  0 0.35788172E+03</rscale>
<asrwt>0</asrwt>
<pdfrwt beam="1">  1        2 0.42676190E-01 0.35788172E+03</pdfrwt>
<pdfrwt beam="2">  1       -2 0.17758517E-01 0.35788172E+03</pdfrwt>
<totfact> 0.34227266E+03</totfact>
</mgrwt>
<rwgt>
<wgt id='morphing_basis_vector_1'> +4.4770654e-04 </wgt>
<wgt id='morphing_basis_vector_2'> +5.2733825e-04 </wgt>
<wgt id='morphing_basis_vector_3'> +6.5525271e-05 </wgt>
<wgt id='morphing_basis_vector_4'> +6.8716675e-05 </wgt>
<wgt id='morphing_basis_vector_5'> +3.0440939e-05 </wgt>
</rwgt>
</event>
<event>
 4      1 +5.5534000e-05 3.06961800e+02 7.81860800e-03 9.98003500e-02
        2 -1    0    0  501    0 +0.0000000000e+00 +0.0000000000e+00 +7.6669417845e+02 7.6669417845e+02 0.0000000000e+00 0.0000e+00 -1.0000e+00
       -2 -1    0    0    0  501 -0.0000000000e+00 -0.0000000000e+00 -3.0724620804e+01 3.0724620804e+01 0.0000000000e+00 0.0000e+00 1.0000e+00
      -13  1    1    2    0    0 +5.8718269674e+01 +1.0054643985e+02 +1.0822035328e+02 1.5896246923e+02 0.0000000000e+00 0.0000e+00 1.0000e+00
       13  1    1    2    0    0 -5.8718269674e+01 -1.0054643985e+02 +6.2774920437e+02 6.3845633002e+02 0.0000000000e+00 0.0000e+00 -1.0000e+00
<mgrwt>
<rscale>  0 0.30696181E+03</rscale>
<asrwt>0</asrwt>
<pdfrwt beam="1">  1        2 0.11795294E+00 0.30696181E+03</pdfrwt>
<pdfrwt beam="2">  1       -2 0.47268653E-02 0.30696181E+03</pdfrwt>
<totfact> 0.83649607E+03</totfact>
</mgrwt>
<rwgt>
<wgt id='morphing_basis_vector_1'> +2.3380421e-04 </wgt>
<wgt id='morphing_basis_vector_2'> +1.3025034e-04 </wgt>
<wgt id='morphing_basis_vector_3'> +1.3721067e-04 </wgt>
<wgt id='morphing_basis_vector_4'> +2.3449808e-05 </wgt>
<wgt id='morphing_basis_vector_5'> +2.1805837e-06 </wgt>
</rwgt>
</event>
<event>
 4      1 +5.5534000e-05 3.13171200e+02 7.81860800e-03 9.95476200e-02
        2 -1    0    0  501    0 +0.0000000000e+00 +0.0000000000e+00 +2.2302101136e+02 2.2302101136e+02 0.0000000000e+00 0.0000e+00 -1.0000e+00
       -2 -1    0    0    0  501 -0.0000000000e+00 -0.0000000000e+00 -1.0994052615e+02 1.0994052615e+02 0.0000000000e+00 0.0000e+00 1.0000e+00
      -13  1    1    2    0    0 -3.5314283515e+01 +8.8083373329e+01 +1.8896339584e+02 2.1145435499e+02 0.0000000000e+00 0.0000e+00 1.0000e+00
       13  1    1    2    0    0 +3.5314283515e+01 -8.8083373329e+01 -7.5882910637e+01 1.2150718252e+02 0.0000000000e+00 0.0000e+00 -1.0000e+00
<mgrwt>
<rscale>  0 0.31317118E+03</rscale>
<asrwt>0</asrwt>
<pdfrwt beam="1">  1        2 0.34310925E-01 0.31317118E+03</pdfrwt>
<pdfrwt beam="2">  1       -2 0.16913927E-01 0.31317118E+03</pdfrwt>
<totfact> 0.47029926E+03</totfact>
</mgrwt>
<rwgt>
<wgt id='morphing_basis_vector_1'> +3.1955163e-04 </wgt>
<wgt id='morphing_basis_vector_2'> +3.5371062e-04 </wgt>
<wgt id='morphing_basis_vector_3'> +3.7167024e-05 </wgt>
<wgt id='morphing_basis_vector_4'> +6.0659519e-05 </wgt>
<wgt id='morphing_basis_vector_5'> +6.9176459e-06 </wgt>
</rwgt>
</event>
<event>
 4      1 +5.5534000e-05 3.20893600e+02 7.81860800e-03 9.92418800e-02
        2 -1    0    0  501    0 +0.0000000000e+00 +0.0000000000e+00 +7.0668195887e+02 7.0668195887e+02 0.0000000000e+00 0.0000e+00 1.0000e+00
       -2 -1    0    0    0  501 -0.0000000000e+00 -0.0000000000e+00 -3.6428238335e+01 3.6428238335e+01 0.0000000000e+00 0.0000e+00 -1.0000e+00
      -13  1    1    2    0    0 +3.4096352698e+01 +1.5408131104e+02 +2.6802727193e+02 3.1103413025e+02 0.0000000000e+00 0.0000e+00 -1.0000e+00
       13  1    1    2    0    0 -3.4096352698e+01 -1.5408131104e+02 +4.0222644861e+02 4.3207606696e+02 0.0000000000e+00 0.0000e+00 1.0000e+00
<mgrwt>
<rscale>  0 0.32089362E+03</rscale>
<asrwt>0</asrwt>
<pdfrwt beam="1">  1        2 0.10872029E+00 0.32089362E+03</pdfrwt>
<pdfrwt beam="2">  1       -2 0.56043449E-02 0.32089362E+03</pdfrwt>
<totfact> 0.71631631E+03</totfact>
</mgrwt>
<rwgt>
<wgt id='morphing_basis_vector_1'> +2.6093356e-04 </wgt>
<wgt id='morphing_basis_vector_2'> +1.5196335e-04 </wgt>
<wgt id='morphing_basis_vector_3'> +1.4752897e-04 </wgt>
<wgt id='morphing_basis_vector_4'> +2.7196972e-05 </wgt>
<wgt id='morphing_basis_vector_5'> +5.6236103e-06 </wgt>
</rwgt>
</event>
<event>
 4      1 +5.5534000e-05 3.07385200e+02 7.81860800e-03 9.97829200e-02
        2 -1    0    0  501    0 +0.0000000000e+00 +0.0000000000e+00 +3.4016505609e+02 3.4016505609e+02 0.0000000000e+00 0.0000e+00 1.0000e+00
       -2 -1    0    0    0  501 -0.0000000000e+00 -0.0000000000e+00 -6.9441028097e+01 6.9441028097e+01 0.0000000000e+00 0.0000e+00 -1.0000e+00
      -13  1    1    2    0    0 +8.4759595779e-01 -1.4042585873e+02 +5.2130739912e+01 1.4979237051e+02 0.0000000000e+00 0.0000e+00 -1.0000e+00
       13  1    1    2    0    0 -8.4759595779e-01 +1.4042585873e+02 +2.1859328808e+02 2.5981371368e+02 0.0000000000e+00 0.0000e+00 1.0000e+00
<mgrwt>
<rscale>  0 0.30738517E+03</rscale>
<asrwt>0</asrwt>
<pdfrwt beam="1">  1        2 0.52333085E-01 0.30738517E+03</pdfrwt>
<pdfrwt beam="2">  1       -2 0.10683235E-01 0.30738517E+03</pdfrwt>
<totfact> 0.60759014E+03</totfact>
</mgrwt>
<rwgt>
<wgt id='morphing_basis_vector_1'> +2.3544926e-04 </wgt>
<wgt id='morphing_basis_vector_2'> +1.3333944e-04 </wgt>
<wgt id='morphing_basis_vector_3'> +1.3626382e-04 </wgt>
<wgt id='morphing_basis_vector_4'> +2.3986690e-05 </wgt>
<wgt id='morphing_basis_vector_5'> +2.2967011e-06 </wgt>
</rwgt>
</event>
<event>
 4      1 +5.5534000e-05 3.04451900e+02 7.81860800e-03 9.99043200e-02
        2 -1    0    0  501    0 +0.0000000000e+00 +0.0000000000e+00 +2.2681248845e+02 2.2681248845e+02 0.0000000000e+00 0.0000e+00 -1.0000e+00
       -2 -1    0    0    0  501 -0.0000000000e+00 -0.0000000000e+00 -1.0216691702e+02 1.0216691702e+02 0.0000000000e+00 0.0000e+00 1.0000e+00
      -13  1    1    2    0    0 -8.2242287286e+01 +1.1133619579e+02 -6.1306059209e+00 1.3855369588e+02 0.0000000000e+00 0.0000e+00 1.0000e+00
       13  1    1    2    0    0 +8.2242287286e+01 -1.1133619579e+02 +1.3077617735e+02 1.9042570959e+02 0.0000000000e+00 0.0000e+00 -1.0000e+00
<mgrwt>
<rscale>  0 0.30445185E+03</rscale>
<asrwt>0</asrwt>
<pdfrwt beam="1">  1        2 0.34894229E-01 0.30445185E+03</pdfrwt>
<pdfrwt beam="2">  1       -2 0.15717987E-01 0.30445185E+03</pdfrwt>
<totfact> 0.51840506E+03</totfact>
</mgrwt>
<rwgt>
<wgt id='morphing_basis_vector_1'> +2.3063677e-04 </wgt>
<wgt id='morphing_basis_vector_2'> +1.3077906e-04 </wgt>
<wgt id='morphing_basis_vector_3'> +1.3343763e-04 </wgt>
<wgt id='morphing_basis_vector_4'> +2.3609532e-05 </wgt>
<wgt id='morphing_basis_vector_5'> +1.7938656e-06 </wgt>
</rwgt>
</event>
<event>
 4      1 +5.5534000e-05 3.40117100e+02 7.81860800e-03 9.85198000e-02
        2 -1    0    0  501    0 +0.0000000000e+00 +0.0000000000e+00 +1.2169016926e+03 1.2169016926e+03 0.0000000000e+00 0.0000e+00 -1.0000e+00
       -2 -1    0    0    0  501 -0.0000000000e+00 -0.0000000000e+00 -2.3765202688e+01 2.3765202688e+01 0.0000000000e+00 0.0000e+00 1.0000e+00
      -13  1    1    2    0    0 -1.5683554978e+02 +5.8577638418e+01 +4.8767251216e+02 5.1560955045e+02 0.0000000000e+00 0.0000e+00 1.0000e+00
       13  1    1    2    0    0 +1.5683554978e+02 -5.8577638418e+01 +7.0546397777e+02 7.2505734486e+02 0.0000000000e+00 0.0000e+00 -1.0000e+00
<mgrwt>
<rscale>  0 0.34011713E+03</rscale>
<asrwt>0</asrwt>
<pdfrwt beam="1">  1        2 0.18721560E+00 0.34011713E+03</pdfrwt>
<pdfrwt beam="2">  1       -2 0.36561860E-02 0.34011713E+03</pdfrwt>
<totfact> 0.65407420E+03</totfact>
</mgrwt>
<rwgt>
<wgt id='morphing_basis_vector_1'> +2.9808510e-04 </wgt>
<wgt id='morphing_basis_vector_2'> +1.7257501e-04 </wgt>
<wgt id='morphing_basis_vector_3'> +1.7107973e-04 </wgt>
<wgt id='morphing_basis_vector_4'> +3.1994473e-05 </wgt>
<wgt id='morphing_basis_vector_5'> +1.3067639e-05 </wgt>
</rwgt>
</event>
<event>
 4      1 +5.5534000e-05 3.55474800e+02 7.81860800e-03 9.79791400e-02
        2 -1    0    0  501    0 +0.0000000000e+00 +0.0000000000e+00 +2.5499716132e+02 2.5499716132e+02 0.0000000000e+00 0.0000e+00 -1.0000e+00
       -2 -1    0    0    0  501 -0.0000000000e+00 -0.0000000000e+00 -1.2388599867e+02 1.2388599867e+02 0.0000000000e+00 0.0000e+00 1.0000e+00
      -13  1    1    2    0    0 -1.2974269692e+02 -2.2759932955e+01 -6.1631296315e+01 1.4542901580e+02 0.0000000000e+00 0.0000e+00 1.0000e+00
       13  1    1    2    0    0 +1.2974269692e+02 +2.2759932955e+01 +1.9274245897e+02 2.3345414419e+02 0.0000000000e+00 0.0000e+00 -1.0000e+00
<mgrwt>
<rscale>  0 0.35547477E+03</rscale>
<asrwt>0</asrwt>
<pdfrwt beam="1">  1        2 0.39230332E-01 0.35547477E+03</pdfrwt>
<pdfrwt beam="2">  1       -2 0.19059384E-01 0.35547477E+03</pdfrwt>
<totfact> 0.33501950E+03</totfact>
</mgrwt>
<rwgt>
<wgt id='morphing_basis_vector_1'> +3.2649524e-04 </wgt>
<wgt id='morphing_basis_vector_2'> +1.7714875e-04 </wgt>
<wgt id='morphing_basis_vector_3'> +1.9865843e-04 </wgt>
<wgt id='morphing_basis_vector_4'> +3.6106147e-05 </wgt>
<wgt id='morphing_basis_vector_5'> +2.1426186e-05 </wgt>
</rwgt>
</event>
<event>
 4      1 +5.5534000e-05 3.23651300e+02 7.81860800e-03 9.91349600e-02
        2 -1    0    0  501    0 +0.0000000000e+00 +0.0000000000e+00 +1.2004821995e+02 1.2004821995e+02 0.0000000000e+00 0.0000e+00 -1.0000e+00
       -2 -1    0    0    0  501 -0.0000000000e+00 -0.0000000000e+00 -2.1814187900e+02 2.1814187900e+02 0.0000000000e+00 0.0000e+00 1.0000e+00
      -13  1    1    2    0    0 +4.0567038589e+01 -6.2777592943e+01 -1.9902425758e+02 2.1259672128e+02 0.0000000000e+00 0.0000e+00 1.0000e+00
       13  1    1    2    0    0 -4.0567038589e+01 +6.2777592943e+01 +1.0093059853e+02 1.2559337767e+02 0.0000000000e+00 0.0000e+00 -1.0000e+00
<mgrwt>
<rscale>  0 0.32365132E+03</rscale>
<asrwt>0</asrwt>
<pdfrwt beam="1">  1        2 0.18468957E-01 0.32365132E+03</pdfrwt>
<pdfrwt beam="2">  1       -2 0.33560289E-01 0.32365132E+03</pdfrwt>
<totfact> 0.30462500E+03</totfact>
</mgrwt>
<rwgt>
<wgt id='morphing_basis_vector_1'> +2.6214280e-04 </wgt>
<wgt id='morphing_basis_vector_2'> +1.4350956e-04 </wgt>
<wgt id='morphing_basis_vector_3'> +1.5588545e-04 </wgt>
<wgt id='morphing_basis_vector_4'> +2.6085497e-05 </wgt>
<wgt id='morphing_basis_vector_5'> +6.2768851e-06 </wgt>
</rwgt>
</event>
<event>
 4      1 +5.5534000e-05 3.33634700e+02 7.81860800e-03 9.87573800e-02
        2 -1    0    0  501    0 +0.0000000000e+00 +0.0000000000e+00 +6.4172332059e+01 6.4172332059e+01 0.0000000000e+00 0.0000e+00 -1.0000e+00
       -2 -1    0    0    0  501 -0.0000000000e+00 -0.0000000000e+00 -4.3364519797e+02 4.3364519797e+02 0.0000000000e+00 0.0000e+00 1.0000e+00
      -13  1    1    2    0    0 -8.0583342680e+01 +1.4593290557e+02 -1.9392657973e+02 2.5572955710e+02 0.0000000000e+00 0.0000e+00 1.0000e+00
       13  1    1    2    0    0 +8.0583342680e+01 -1.4593290557e+02 -1.7554628618e+02 2.4208797293e+02 0.0000000000e+00 0.0000e+00 -1.0000e+00
<mgrwt>
<rscale>  0 0.33363467E+03</rscale>
<asrwt>0</asrwt>
<pdfrwt beam="1">  1        2 0.98726665E-02 0.33363467E+03</pdfrwt>
<pdfrwt beam="2">  1       -2 0.66714645E-01 0.33363467E+03</pdfrwt>
<totfact> 0.17738703E+03</totfact>
</mgrwt>
<rwgt>
<wgt id='morphing_basis_vector_1'> +2.8804832e-04 </wgt>
<wgt id='morphing_basis_vector_2'> +1.7416421e-04 </wgt>
<wgt id='morphing_basis_vector_3'> +1.5872729e-04 </wgt>
<wgt id='morphing_basis_vector_4'> +3.1310067e-05 </wgt>
<wgt id='morphing_basis_vector_5'> +1.0330675e-05 </wgt>
</rwgt>
</event>
<event>
 4      1 +5.5534000e-05 3.06300500e+02 7.81860800e-03 9.98276400e-02
        2 -1    0    0  501    0 +0.0000000000e+00 +0.0000000000e+00 +3.4005313686e+02 3.4005313686e+02 0.0000000000e+00 0.0000e+00 -1.0000e+00
       -2 -1    0    0    0  501 -0.0000000000e+00 -0.0000000000e+00 -6.8974531803e+01 6.8974531803e+01 0.0000000000e+00 0.0000e+00 1.0000e+00
      -13  1    1    2    0    0 -5.9364507039e+01 -1.3203479233e+02 +6.8801351982e+01 1.6028398896e+02 0.0000000000e+00 0.0000e+00 1.0000e+00
       13  1    1    2    0    0 +5.9364507039e+01 +1.3203479233e+02 +2.0227725307e+02 2.4874367970e+02 0.0000000000e+00 0.0000e+00 -1.0000e+00
<mgrwt>
<rscale>  0 0.30630054E+03</rscale>
<asrwt>0</asrwt>
<pdfrwt beam="1">  1        2 0.52315866E-01 0.30630054E+03</pdfrwt>
<pdfrwt beam="2">  1       -2 0.10611467E-01 0.30630054E+03</pdfrwt>
<totfact> 0.61408888E+03</totfact>
</mgrwt>
<rwgt>
<wgt id='morphing_basis_vector_1'> +2.3423561e-04 </wgt>
<wgt id='morphing_basis_vector_2'> +1.3404297e-04 </wgt>
<wgt id='morphing_basis_vector_3'> +1.3437713e-04 </wgt>
<wgt id='morphing_basis_vector_4'> +2.4137167e-05 </wgt>
<wgt id='morphing_basis_vector_5'> +2.1266955e-06 </wgt>
</rwgt>
</event>
<event>
 4      1 +5.5534000e-05 3.48648600e+02 7.81860800e-03 9.82157300e-02
        2 -1    0    0  501    0 +0.0000000000e+00 +0.0000000000e+00 +1.6598189829e+03 1.6598189829e+03 0.0000000000e+00 0.0000e+00 1.0000e+00
       -2 -1    0    0    0  501 -0.0000000000e+00 -0.0000000000e+00 -1.8308597132e+01 1.8308597132e+01 0.0000000000e+00 0.0000e+00 -1.0000e+00
      -13  1    1    2    0    0 +1.0623545286e+01 -1.7399894813e+02 +8.1747863218e+02 8.3585872474e+02 0.0000000000e+00 0.0000e+00 -1.0000e+00
       13  1    1    2    0    0 -1.0623545286e+01 +1.7399894813e+02 +8.2403175364e+02 8.4226885533e+02 0.0000000000e+00 0.0000e+00 1.0000e+00
<mgrwt>
<rscale>  0 0.34864857E+03</rscale>
<asrwt>0</asrwt>
<pdfrwt beam="1">  1        2 0.25535665E+00 0.34864857E+03</pdfrwt>
<pdfrwt beam="2">  1       -2 0.28167085E-02 0.34864857E+03</pdfrwt>
<totfact> 0.55353705E+03</totfact>
</mgrwt>
<rwgt>
<wgt id='morphing_basis_vector_1'> +3.2047206e-04 </wgt>
<wgt id='morphing_basis_vector_2'> +1.9576483e-04 </wgt>
<wgt id='morphing_basis_vector_3'> +1.7751098e-04 </wgt>
<wgt id='morphing_basis_vector_4'> +3.6225395e-05 </wgt>
<wgt id='morphing_basis_vector_5'> +1.7831379e-05 </wgt>
</rwgt>
</event>
<event>
 4      1 +5.5534000e-05 3.19010600e+02 7.81860800e-03 9.93155600e-02
        2 -1    0    0  501    0 +0.0000000000e+00 +0.0000000000e+00 +6.5101877814e+02 6.5101877814e+02 0.0000000000e+00 0.0000e+00 -1.0000e+00
       -2 -1    0    0    0  501 -0.0000000000e+00 -0.0000000000e+00 -3.9080186430e+01 3.9080186430e+01 0.0000000000e+00 0.0000e+00 1.0000e+00
      -13  1    1    2    0    0 -9.5812387369e+00 -1.5904054628e+02 +2.8974641824e+02 3.3066400224e+02 0.0000000000e+00 0.0000e+00 1.0000e+00
       13  1    1    2    0    0 +9.5812387369e+00 +1.5904054628e+02 +3.2219217347e+02 3.5943496233e+02 0.0000000000e+00 0.0000e+00 -1.0000e+00
<mgrwt>
<rscale>  0 0.31901057E+03</rscale>
<asrwt>0</asrwt>
<pdfrwt beam="1">  1        2 0.10015673E+00 0.31901057E+03</pdfrwt>
<pdfrwt beam="2">  1       -2 0.60123369E-02 0.31901057E+03</pdfrwt>
<totfact> 0.70952900E+03</totfact>
</mgrwt>
<rwgt>
<wgt id='morphing_basis_vector_1'> +2.6003591e-04 </wgt>
<wgt id='morphing_basis_vector_2'> +1.5737494e-04 </wgt>
<wgt id='morphing_basis_vector_3'> +1.4198162e-04 </wgt>
<wgt id='morphing_basis_vector_4'> +2.7977092e-05 </wgt>
<wgt id='morphing_basis_vector_5'> +5.2033153e-06 </wgt>
</rwgt>
</event>
<event>
 4      1 +5.5534000e-05 3.24010000e+02 7.81860800e-03 9.91211400e-02
        2 -1    0    0  501    0 +0.0000000000e+00 +0.0000000000e+00 +6.6082481982e+01 6.6082481982e+01 0.0000000000e+00 0.0000e+00 -1.0000e+00
       -2 -1    0    0    0  501 -0.0000000000e+00 -0.0000000000e+00 -3.9716446298e+02 3.9716446298e+02 0.0000000000e+00 0.0000e+00 1.0000e+00
      -13  1    1    2    0    0 +4.1658369861e+01 +1.4917561361e+02 -9.7620060077e+01 1.8308047303e+02 0.0000000000e+00 0.0000e+00 1.0000e+00
       13  1    1    2    0    0 -4.1658369861e+01 -1.4917561361e+02 -2.3346192092e+02 2.8016647193e+02 0.0000000000e+00 0.0000e+00 -1.0000e+00
<mgrwt>
<rscale>  0 0.32400996E+03</rscale>
<asrwt>0</asrwt>
<pdfrwt beam="1">  1        2 0.10166536E-01 0.32400996E+03</pdfrwt>
<pdfrwt beam="2">  1       -2 0.61102226E-01 0.32400996E+03</pdfrwt>
<totfact> 0.20446913E+03</totfact>
</mgrwt>
<rwgt>
<wgt id='morphing_basis_vector_1'> +2.8434657e-04 </wgt>
<wgt id='morphing_basis_vector_2'> +2.0688067e-04 </wgt>
<wgt id='morphing_basis_vector_3'> +1.2700192e-04 </wgt>
<wgt id='morphing_basis_vector_4'> +3.5511238e-05 </wgt>
<wgt id='morphing_basis_vector_5'> +7.5249517e-06 </wgt>
</rwgt>
</event>
<event>
 4      1 +5.5534000e-05 3.55228800e+02 7.81860800e-03 9.79875600e-02
        2 -1    0    0  501    0 +0.0000000000e+00 +0.0000000000e+00 +3.8552502883e+02 3.8552502883e+02 0.0000000000e+00 0.0000e+00 -1.0000e+00
       -2 -1    0    0    0  501 -0.0000000000e+00 -0.0000000000e+00 -8.1828350167e+01 8.1828350167e+01 0.0000000000e+00 0.0000e+00 1.0000e+00
      -13  1    1    2    0    0 +1.0636530298e+02 +3.5191822015e+01 -2.9475525765e+01 1.1584838641e+02 0.0000000000e+00 0.0000e+00 1.0000e+00
       13  1    1    2    0    0 -1.0636530298e+02 -3.5191822015e+01 +3.3317220443e+02 3.5150499259e+02 0.0000000000e+00 0.0000e+00 -1.0000e+00
<mgrwt>
<rscale>  0 0.35522881E+03</rscale>
<asrwt>0</asrwt>
<pdfrwt beam="1">  1        2 0.59311542E-01 0.35522881E+03</pdfrwt>
<pdfrwt beam="2">  1       -2 0.12588977E-01 0.35522881E+03</pdfrwt>
<totfact> 0.41175363E+03</totfact>
</mgrwt>
<rwgt>
<wgt id='morphing_basis_vector_1'> +3.2570566e-04 </wgt>
<wgt id='morphing_basis_vector_2'> +1.7613532e-04 </wgt>
<wgt id='morphing_basis_vector_3'> +1.9856947e-04 </wgt>
<wgt id='morphing_basis_vector_4'> +3.5934046e-05 </wgt>
<wgt id='morphing_basis_vector_5'> +2.1252230e-05 </wgt>
</rwgt>
</event>
<event>
 4      1 +5.5534000e-05 3.37298800e+02 7.81860800e-03 9.86223800e-02
        2 -1    0    0  501    0 +0.0000000000e+00 +0.0000000000e+00 +6.3983885103e+02 6.3983885103e+02 0.0000000000e+00 0.0000e+00 1.0000e+00
       -2 -1    0    0    0  501 -0.0000000000e+00 -0.0000000000e+00 -4.4452793183e+01 4.4452793183e+01 0.0000000000e+00 0.0000e+00 -1.0000e+00
      -13  1    1    2    0    0 +8.1591474463e+01 +6.3923008549e+01 +2.7792019125e+01 1.0731130441e+02 0.0000000000e+00 0.0000e+00 -1.0000e+00
       13  1    1    2    0    0 -8.1591474463e+01 -6.3923008549e+01 +5.6759403872e+02 5.7698033980e+02 0.0000000000e+00 0.0000e+00 1.0000e+00
<mgrwt>
<rscale>  0 0.33729882E+03</rscale>
<asrwt>0</asrwt>
<pdfrwt beam="1">  1        2 0.98436739E-01 0.33729882E+03</pdfrwt>
<pdfrwt beam="2">  1       -2 0.68388917E-02 0.33729882E+03</pdfrwt>
<totfact> 0.59688468E+03</totfact>
</mgrwt>
<rwgt>
<wgt id='morphing_basis_vector_1'> +2.8809434e-04 </wgt>
<wgt id='morphing_basis_vector_2'> +1.5678590e-04 </wgt>
<wgt id='morphing_basis_vector_3'> +1.7286054e-04 </wgt>
<wgt id='morphing_basis_vector_4'> +2.9573723e-05 </wgt>
<wgt id='morphing_basis_vector_5'> +1.1502116e-05 </wgt>
</rwgt>
</event>
<event>
 4      1 +5.5534000e-05 3.10643000e+02 7.81860800e-03 9.96497700e-02
        2 -1    0    0  501    0 +0.0000000000e+00 +0.0000000000e+00 +6.3284398349e+02 6.3284398349e+02 0.0000000000e+00 0.0000e+00 1.0000e+00
       -2 -1    0    0    0  501 -0.0000000000e+00 -0.0000000000e+00 -3.8121189059e+01 3.8121189059e+01 0.0000000000e+00 0.0000e+00 -1.0000e+00
      -13  1    1    2    0    0 -3.7017942696e+01 -1.3148163813e+02 +1.3765820263e+02 1.9392660983e+02 0.0000000000e+00 0.0000e+00 -1.0000e+00
       13  1    1    2    0    0 +3.7017942696e+01 +1.3148163813e+02 +4.5706459180e+02 4.7703856272e+02 0.0000000000e+00 0.0000e+00 1.0000e+00
<mgrwt>
<rscale>  0 0.31064298E+03</rscale>
<asrwt>0</asrwt>
<pdfrwt beam="1">  1        2 0.97360605E-01 0.31064298E+03</pdfrwt>
<pdfrwt beam="2">  1       -2 0.58647988E-02 0.31064298E+03</pdfrwt>
<totfact> 0.76044034E+03</totfact>
</mgrwt>
<rwgt>
<wgt id='morphing_basis_vector_1'> +2.4046152e-04 </wgt>
<wgt id='morphing_basis_vector_2'> +1.3497127e-04 </wgt>
<wgt id='morphing_basis_vector_3'> +1.4013227e-04 </wgt>
<wgt id='morphing_basis_vector_4'> +2.4234898e-05 </wgt>
<wgt id='morphing_basis_vector_5'> +2.9152748e-06 </wgt>
</rwgt>
</event>
<event>
 4      1 +5.5534000e-05 3.37555800e+02 7.81860800e-03 9.86129800e-02
        2 -1    0    0  501    0 +0.0000000000e+00 +0.0000000000e+00 +8.1490597461e+02 8.1490597461e+02 0.0000000000e+00 0.0000e+00 -1.0000e+00
       -2 -1    0    0    0  501 -0.0000000000e+00 -0.0000000000e+00 -3.4956163629e+01 3.4956163629e+01 0.0000000000e+00 0.0000e+00 1.0000e+00
      -13  1    1    2    0    0 -8.7213146080e+01 +1.4182678562e+02 +4.5961162262e+02 4.8883925130e+02 0.0000000000e+00 0.0000e+00 1.0000e+00
       13  1    1    2    0    0 +8.7213146080e+01 -1.4182678562e+02 +3.2033818836e+02 3.6102288693e+02 0.0000000000e+00 0.0000e+00 -1.0000e+00
<mgrwt>
<rscale>  0 0.33755584E+03</rscale>
<asrwt>0</asrwt>
<pdfrwt beam="1">  1        2 0.12537014E+00 0.33755584E+03</pdfrwt>
<pdfrwt beam="2">  1       -2 0.53778719E-02 0.33755584E+03</pdfrwt>
<totfact> 0.64158800E+03</totfact>
</mgrwt>
<rwgt>
<wgt id='morphing_basis_vector_1'> +3.0387566e-04 </wgt>
<wgt id='morphing_basis_vector_2'> +2.0222657e-04 </wgt>
<wgt id='morphing_basis_vector_3'> +1.5348594e-04 </wgt>
<wgt id='morphing_basis_vector_4'> +3.5315001e-05 </wgt>
<wgt id='morphing_basis_vector_5'> +1.2513300e-05 </wgt>
</rwgt>
</event>
<event>
 4      1 +5.5534000e-05 3.29260300e+02 7.81860800e-03 9.89210300e-02
        2 -1    0    0  501    0 +0.0000000000e+00 +0.0000000000e+00 +3.7389895757e+02 3.7389895757e+02 0.0000000000e+00 0.0000e+00 -1.0000e+00
       -2 -1    0    0    0  501 -0.0000000000e+00 -0.0000000000e+00 -7.2487728337e+01 7.2487728337e+01 0.0000000000e+00 0.0000e+00 1.0000e+00
      -13  1    1    2    0    0 +1.0379072048e+02 +5.2744950817e+01 -7.0984390020e+00 1.1664017889e+02 0.0000000000e+00 0.0000e+00 1.0000e+00
       13  1    1    2    0    0 -1.0379072048e+02 -5.2744950817e+01 +3.0850966824e+02 3.2974650702e+02 0.0000000000e+00 0.0000e+00 -1.0000e+00
<mgrwt>
<rscale>  0 0.32926030E+03</rscale>
<asrwt>0</asrwt>
<pdfrwt beam="1">  1        2 0.57522915E-01 0.32926030E+03</pdfrwt>
<pdfrwt beam="2">  1       -2 0.11151958E-01 0.32926030E+03</pdfrwt>
<totfact> 0.51358469E+03</totfact>
</mgrwt>
<rwgt>
<wgt id='morphing_basis_vector_1'> +2.7271908e-04 </wgt>
<wgt id='morphing_basis_vector_2'> +1.4934682e-04 </wgt>
<wgt id='morphing_basis_vector_3'> +1.6236451e-04 </wgt>
<wgt id='morphing_basis_vector_4'> +2.7461112e-05 </wgt>
<wgt id='morphing_basis_vector_5'> +8.2194928e-06 </wgt>
</rwgt>
</event>
<event>
 4      1 +5.5534000e-05 3.39761200e+02 7.81860800e-03 9.85326900e-02
        2 -1    0    0  501    0 +0.0000000000e+00 +0.0000000000e+00 +5.7326375331e+01 5.7326375331e+01 0.0000000000e+00 0.0000e+00 1.0000e+00
       -2 -1    0    0    0  501 -0.0000000000e+00 -0.0000000000e+00 -5.0342318592e+02 5.0342318592e+02 0.0000000000e+00 0.0000e+00 -1.0000e+00
      -13  1    1    2    0    0 -1.1435428311e+02 +3.3155203460e+01 -4.2303749219e+02 4.3947342284e+02 0.0000000000e+00 0.0000e+00 -1.0000e+00
       13  1    1    2    0    0 +1.1435428311e+02 -3.3155203460e+01 -2.3059318399e+01 1.2127613841e+02 0.0000000000e+00 0.0000e+00 1.0000e+00
<mgrwt>
<rscale>  0 0.33976125E+03</rscale>
<asrwt>0</asrwt>
<pdfrwt beam="1">  1        2 0.88194425E-02 0.33976125E+03</pdfrwt>
<pdfrwt beam="2">  1       -2 0.77449720E-01 0.33976125E+03</pdfrwt>
<totfact> 0.14903287E+03</totfact>
</mgrwt>
<rwgt>
<wgt id='morphing_basis_vector_1'> +2.9314124e-04 </wgt>
<wgt id='morphing_basis_vector_2'> +1.5967938e-04 </wgt>
<wgt id='morphing_basis_vector_3'> +1.7599663e-04 </wgt>
<wgt id='morphing_basis_vector_4'> +3.0367006e-05 </wgt>
<wgt id='morphing_basis_vector_5'> +1.2646518e-05 </wgt>
</rwgt>
</event>
<event>
 4      1 +5.5534000e-05 3.09484800e+02 7.81860800e-03 9.96969100e-02
        2 -1    0    0  501    0 +0.0000000000e+00 +0.0000000000e+00 +7.6543425703e+02 7.6543425703e+02 0.0000000000e+00 0.0000e+00 -1.0000e+00
       -2 -1    0    0    0  501 -0.0000000000e+00 -0.0000000000e+00 -3.1283174057e+01 3.1283174057e+01 0.0000000000e+00 0.0000e+00 1.0000e+00
      -13  1    1    2    0    0 -5.7188520116e+01 -1.2127254112e+02 +1.6820662933e+02 2.1510701107e+02 0.0000000000e+00 0.0000e+00 1.0000e+00
       13  1    1    2    0    0 +5.7188520116e+01 +1.2127254112e+02 +5.6594445364e+02 5.8161042001e+02 0.0000000000e+00 0.0000e+00 -1.0000e+00
<mgrwt>
<rscale>  0 0.30948482E+03</rscale>
<asrwt>0</asrwt>
<pdfrwt beam="1">  1        2 0.11775910E+00 0.30948482E+03</pdfrwt>
<pdfrwt beam="2">  1       -2 0.48127966E-02 0.30948482E+03</pdfrwt>
<totfact> 0.81618791E+03</totfact>
</mgrwt>
<rwgt>
<wgt id='morphing_basis_vector_1'> +2.3842949e-04 </wgt>
<wgt id='morphing_basis_vector_2'> +1.3370150e-04 </wgt>
<wgt id='morphing_basis_vector_3'> +1.3908455e-04 </wgt>
<wgt id='morphing_basis_vector_4'> +2.4021668e-05 </wgt>
<wgt id='morphing_basis_vector_5'> +2.6755337e-06 </wgt>
</rwgt>
</event>
<event>
 4      1 +5.5534000e-05 3.02004000e+02 7.81860800e-03 1.00006700e-01
        2 -1    0    0  501    0 +0.0000000000e+00 +0.0000000000e+00 +5.8848125519e+02 5.8848125519e+02 0.0000000000e+00 0.0000e+00 -1.0000e+00
       -2 -1    0    0    0  501 -0.0000000000e+00 -0.0000000000e+00 -3.8746521040e+01 3.8746521040e+01 0.0000000000e+00 0.0000e+00 1.0000e+00
      -13  1    1    2    0    0 +1.3683384631e+02 -2.3104828397e+00 +1.4232427360e+02 1.9744629316e+02 0.0000000000e+00 0.0000e+00 1.0000e+00
       13  1    1    2    0    0 -1.3683384631e+02 +2.3104828397e+00 +4.0741046055e+02 4.2978148308e+02 0.0000000000e+00 0.0000e+00 -1.0000e+00
<mgrwt>
<rscale>  0 0.30200398E+03</rscale>
<asrwt>0</asrwt>
<pdfrwt beam="1">  1        2 0.90535571E-01 0.30200398E+03</pdfrwt>
<pdfrwt beam="2">  1       -2 0.59610037E-02 0.30200398E+03</pdfrwt>
<totfact> 0.80563177E+03</totfact>
</mgrwt>
<rwgt>
<wgt id='morphing_basis_vector_1'> +2.2670474e-04 </wgt>
<wgt id='morphing_basis_vector_2'> +1.2872256e-04 </wgt>
<wgt id='morphing_basis_vector_3'> +1.3112382e-04 </wgt>
<wgt id='morphing_basis_vector_4'> +2.3331881e-05 </wgt>
<wgt id='morphing_basis_vector_5'> +1.4255236e-06 </wgt>
</rwgt>
</event>
<event>
 4      1 +5.5534000e-05 3.08271100e+02 7.81860800e-03 9.97465400e-02
        2 -1    0    0  501    0 +0.0000000000e+00 +0.0000000000e+00 +2.1298144600e+02 2.1298144600e+02 0.0000000000e+00 0.0000e+00 -1.0000e+00
       -2 -1    0    0    0  501 -0.0000000000e+00 -0.0000000000e+00 -1.1154850076e+02 1.1154850076e+02 0.0000000000e+00 0.0000e+00 1.0000e+00
      -13  1    1    2    0    0 -1.3388459503e+02 -5.2391819922e+01 -7.7820286853e+00 1.4398106664e+02 0.0000000000e+00 0.0000e+00 1.0000e+00
       13  1    1    2    0    0 +1.3388459503e+02 +5.2391819922e+01 +1.0921497393e+02 1.8054888012e+02 0.0000000000e+00 0.0000e+00 -1.0000e+00
<mgrwt>
<rscale>  0 0.30827106E+03</rscale>
<asrwt>0</asrwt>
<pdfrwt beam="1">  1        2 0.32766376E-01 0.30827106E+03</pdfrwt>
<pdfrwt beam="2">  1       -2 0.17161308E-01 0.30827106E+03</pdfrwt>
<totfact> 0.48351667E+03</totfact>
</mgrwt>
<rwgt>
<wgt id='morphing_basis_vector_1'> +2.3720794e-04 </wgt>
<wgt id='morphing_basis_vector_2'> +1.3494974e-04 </wgt>
<wgt id='morphing_basis_vector_3'> +1.3672266e-04 </wgt>
<wgt id='morphing_basis_vector_4'> +2.4252671e-05 </wgt>
<wgt id='morphing_basis_vector_5'> +2.4740891e-06 </wgt>
</rwgt>
</event>
<event>
 4      1 +5.5534000e-05 3.38192600e+02 7.81860800e-03 9.85897300e-02
        2 -1    0    0  501    0 +0.0000000000e+00 +0.0000000000e+00 +1.7654773198e+02 1.7654773198e+02 0.0000000000e+00 0.0000e+00 1.0000e+00
       -2 -1    0    0    0  501 -0.0000000000e+00 -0.0000000000e+00 -1.6195932016e+02 1.6195932016e+02 0.0000000000e+00 0.0000e+00 -1.0000e+00
      -13  1    1    2    0    0 +7.4216117320e+00 +1.6490621431e+02 +4.3994511358e+01 1.7083517457e+02 0.0000000000e+00 0.0000e+00 -1.0000e+00
       13  1    1    2    0    0 -7.4216117320e+00 -1.6490621431e+02 -2.9406099547e+01 1.6767187758e+02 0.0000000000e+00 0.0000e+00 1.0000e+00
<mgrwt>
<rscale>  0 0.33819255E+03</rscale>
<asrwt>0</asrwt>
<pdfrwt beam="1">  1        2 0.27161189E-01 0.33819255E+03</pdfrwt>
<pdfrwt beam="2">  1       -2 0.24916819E-01 0.33819255E+03</pdfrwt>
<totfact> 0.32509371E+03</totfact>
</mgrwt>
<rwgt>
<wgt id='morphing_basis_vector_1'> +3.0833701e-04 </wgt>
<wgt id='morphing_basis_vector_2'> +2.1235167e-04 </wgt>
<wgt id='morphing_basis_vector_3'> +1.5027118e-04 </wgt>
<wgt id='morphing_basis_vector_4'> +3.6634964e-05 </wgt>
<wgt id='morphing_basis_vector_5'> +1.2994623e-05 </wgt>
</rwgt>
</event>
<event>
 4      1 +5.5534000e-05 3.10706700e+02 7.81860800e-03 9.96471800e-02
        2 -1    0    0  501    0 +0.0000000000e+00 +0.0000000000e+00 +1.2244495854e+02 1.2244495854e+02 0.0000000000e+00 0.0000e+00 -1.0000e+00
       -2 -1    0    0    0  501 -0.0000000000e+00 -0.0000000000e+00 -1.9710627564e+02 1.9710627564e+02 0.0000000000e+00 0.0000e+00 1.0000e+00
      -13  1    1    2    0    0 +1.3981984530e+02 +5.1327310589e+01 -8.2753319749e+01 1.7038836193e+02 0.0000000000e+00 0.0000e+00 1.0000e+00
       13  1    1    2    0    0 -1.3981984530e+02 -5.1327310589e+01 +8.0920026537e+00 1.4916287225e+02 0.0000000000e+00 0.0000e+00 -1.0000e+00
<mgrwt>
<rscale>  0 0.31070674E+03</rscale>
<asrwt>0</asrwt>
<pdfrwt beam="1">  1        2 0.18837686E-01 0.31070674E+03</pdfrwt>
<pdfrwt beam="2">  1       -2 0.30324042E-01 0.31070674E+03</pdfrwt>
<totfact> 0.35484150E+03</totfact>
</mgrwt>
<rwgt>
<wgt id='morphing_basis_vector_1'> +2.4190118e-04 </wgt>
<wgt id='morphing_basis_vector_2'> +1.3887344e-04 </wgt>
<wgt id='morphing_basis_vector_3'> +1.3830180e-04 </wgt>
<wgt id='morphing_basis_vector_4'> +2.4900263e-05 </wgt>
<wgt id='morphing_basis_vector_5'> +2.9877641e-06 </wgt>
</rwgt>
</event>
<event>
 4      1 +5.5534000e-05 3.14315900e+02 7.81860800e-03 9.95017000e-02
        2 -1    0    0  501    0 +0.0000000000e+00 +0.0000000000e+00 +2.0508079864e+02 2.0508079864e+02 0.0000000000e+00 0.0000e+00 1.0000e+00
       -2 -1    0    0    0  501 -0.0000000000e+00 -0.0000000000e+00 -1.2043359602e+02 1.2043359602e+02 0.0000000000e+00 0.0000e+00 -1.0000e+00
      -13  1    1    2    0    0 +4.5485470011e+01 -1.1446639833e+02 -5.8761000858e+01 1.3647102092e+02 0.0000000000e+00 0.0000e+00 -1.0000e+00
       13  1    1    2    0    0 -4.5485470011e+01 +1.1446639833e+02 +1.4340820348e+02 1.8904337374e+02 0.0000000000e+00 0.0000e+00 1.0000e+00
<mgrwt>
<rscale>  0 0.31431588E+03</rscale>
<asrwt>0</asrwt>
<pdfrwt beam="1">  1        2 0.31550892E-01 0.31431588E+03</pdfrwt>
<pdfrwt beam="2">  1       -2 0.18528246E-01 0.31431588E+03</pdfrwt>
<totfact> 0.44609748E+03</totfact>
</mgrwt>
<rwgt>
<wgt id='morphing_basis_vector_1'> +2.4612892e-04 </wgt>
<wgt id='morphing_basis_vector_2'> +1.3652387e-04 </wgt>
<wgt id='morphing_basis_vector_3'> +1.4478160e-04 </wgt>
<wgt id='morphing_basis_vector_4'> +2.4531706e-05 </wgt>
<wgt id='morphing_basis_vector_5'> +3.7080611e-06 </wgt>
</rwgt>
</event>
<event>
 4      1 +5.5534000e-05 3.32477100e+02 7.81860800e-03 9.88004200e-02
        2 -1    0    0  501    0 +0.0000000000e+00 +0.0000000000e+00 +1.2337447928e+02 1.2337447928e+02 0.0000000000e+00 0.0000e+00 1.0000e+00
       -2 -1    0    0    0  501 -0.0000000000e+00 -0.0000000000e+00 -2.2399490576e+02 2.2399490576e+02 0.0000000000e+00 0.0000e+00 -1.0000e+00
      -13  1    1    2    0    0 +6.6251482700e+01 -1.1199193012e+01 -2.0917553722e+02 2.1970226730e+02 0.0000000000e+00 0.0000e+00 -1.0000e+00
       13  1    1    2    0    0 -6.6251482700e+01 +1.1199193012e+01 +1.0855511074e+02 1.2766711774e+02 0.0000000000e+00 0.0000e+00 1.0000e+00
<mgrwt>
<rscale>  0 0.33247710E+03</rscale>
<asrwt>0</asrwt>
<pdfrwt beam="1">  1        2 0.18980689E-01 0.33247710E+03</pdfrwt>
<pdfrwt beam="2">  1       -2 0.34460754E-01 0.33247710E+03</pdfrwt>
<totfact> 0.28162168E+03</totfact>
</mgrwt>
<rwgt>
<wgt id='morphing_basis_vector_1'> +2.7858749e-04 </wgt>
<wgt id='morphing_basis_vector_2'> +1.5171208e-04 </wgt>
<wgt id='morphing_basis_vector_3'> +1.6672715e-04 </wgt>
<wgt id='morphing_basis_vector_4'> +2.8183289e-05 </wgt>
<wgt id='morphing_basis_vector_5'> +9.4468634e-06 </wgt>
</rwgt>
</event>
<event>
 4      1 +5.5534000e-05 3.14188000e+02 7.81860800e-03 9.95068200e-02
        2 -1    0    0  501    0 +0.0000000000e+00 +0.0000000000e+00 +9.1839564576e+01 9.1839564576e+01 0.0000000000e+00 0.0000e+00 1.0000e+00
       -2 -1    0    0    0  501 -0.0000000000e+00 -0.0000000000e+00 -2.6871346567e+02 2.6871346567e+02 0.0000000000e+00 0.0000e+00 -1.0000e+00
      -13  1    1    2    0    0 +7.7178519572e+01 -7.3256538976e+01 -2.2105704577e+02 2.4533499928e+02 0.0000000000e+00 0.0000e+00 -1.0000e+00
       13  1    1    2    0    0 -7.7178519572e+01 +7.3256538976e+01 +4.4183144678e+01 1.1521803097e+02 0.0000000000e+00 0.0000e+00 1.0000e+00
<mgrwt>
<rscale>  0 0.31418802E+03</rscale>
<asrwt>0</asrwt>
<pdfrwt beam="1">  1        2 0.14129164E-01 0.31418802E+03</pdfrwt>
<pdfrwt beam="2">  1       -2 0.41340532E-01 0.31418802E+03</pdfrwt>
<totfact> 0.28853359E+03</totfact>
</mgrwt>
<rwgt>
<wgt id='morphing_basis_vector_1'> +2.4566955e-04 </wgt>
<wgt id='morphing_basis_vector_2'> +1.3571650e-04 </wgt>
<wgt id='morphing_basis_vector_3'> +1.4498291e-04 </wgt>
<wgt id='morphing_basis_vector_4'> +2.4396028e-05 </wgt>
<wgt id='morphing_basis_vector_5'> +3.6664865e-06 </wgt>
</rwgt>
</event>
<event>
 4      1 +5.5534000e-05 3.55332300e+02 7.81860800e-03 9.79840200e-02
        2 -1    0    0  501    0 +0.0000000000e+00 +0.0000000000e+00 +3.8092997422e+01 3.8092997422e+01 0.0000000000e+00 0.0000e+00 1.0000e+00
       -2 -1    0    0    0  501 -0.0000000000e+00 -0.0000000000e+00 -8.2863664997e+02 8.2863664997e+02 0.0000000000e+00 0.0000e+00 -1.0000e+00
      -13  1    1    2    0    0 -8.8222102328e+01 -1.4142683693e+02 -2.4529390690e+02 2.9657004283e+02 0.0000000000e+00 0.0000e+00 1.0000e+00
       13  1    1    2    0    0 +8.8222102328e+01 +1.4142683693e+02 -5.4524974564e+02 5.7015960456e+02 0.0000000000e+00 0.0000e+00 -1.0000e+00
<mgrwt>
<rscale>  0 0.35533226E+03</rscale>
<asrwt>0</asrwt>
<pdfrwt beam="1">  1        2 0.58604618E-02 0.35533226E+03</pdfrwt>
<pdfrwt beam="2">  1       -2 0.12748255E+00 0.35533226E+03</pdfrwt>
<totfact> 0.77138951E+02</totfact>
</mgrwt>
<rwgt>
<wgt id='morphing_basis_vector_1'> +3.5849723e-04 </wgt>
<wgt id='morphing_basis_vector_2'> +2.7376713e-04 </wgt>
<wgt id='morphing_basis_vector_3'> +1.5978803e-04 </wgt>
<wgt id='morphing_basis_vector_4'> +4.5263975e-05 </wgt>
<wgt id='morphing_basis_vector_5'> +2.3391160e-05 </wgt>
</rwgt>
</event>
<event>
 4      1 +5.5534000e-05 3.14175400e+02 7.81860800e-03 9.95073300e-02
        2 -1    0    0  501    0 +0.0000000000e+00 +0.0000000000e+00 +2.9869532583e+02 2.9869532583e+02 0.0000000000e+00 0.0000e+00 1.0000e+00
       -2 -1    0    0    0  501 -0.0000000000e+00 -0.0000000000e+00 -8.2614450976e+01 8.2614450976e+01 0.0000000000e+00 0.0000e+00 -1.0000e+00
      -13  1    1    2    0    0 -7.5378665042e+01 -3.8251270339e+01 -5.2659093603e+01 9.9589572573e+01 0.0000000000e+00 0.0000e+00 -1.0000e+00
       13  1    1    2    0    0 +7.5378665042e+01 +3.8251270339e+01 +2.6873996846e+02 2.8172020423e+02 0.0000000000e+00 0.0000e+00 1.0000e+00
<mgrwt>
<rscale>  0 0.31417543E+03</rscale>
<asrwt>0</asrwt>
<pdfrwt beam="1">  1        2 0.45953127E-01 0.31417543E+03</pdfrwt>
<pdfrwt beam="2">  1       -2 0.12709916E-01 0.31417543E+03</pdfrwt>
<totfact> 0.53507362E+03</totfact>
</mgrwt>
<rwgt>
<wgt id='morphing_basis_vector_1'> +2.4552541e-04 </wgt>
<wgt id='morphing_basis_vector_2'> +1.3535040e-04 </wgt>
<wgt id='morphing_basis_vector_3'> +1.4514192e-04 </wgt>
<wgt id='morphing_basis_vector_4'> +2.4335435e-05 </wgt>
<wgt id='morphing_basis_vector_5'> +3.6577753e-06 </wgt>
</rwgt>
</event>
<event>
 4      1 +5.5534000e-05 3.08919900e+02 7.81860800e-03 9.97199800e-02
        2 -1    0    0  501    0 +0.0000000000e+00 +0.0000000000e+00 +2.0809628047e+02 2.0809628047e+02 0.0000000000e+00 0.0000e+00 -1.0000e+00
       -2 -1    0    0    0  501 -0.0000000000e+00 -0.0000000000e+00 -1.1464822928e+02 1.1464822928e+02 0.0000000000e+00 0.0000e+00 1.0000e+00
      -13  1    1    2    0    0 -1.6785783958e+01 -8.1406273557e+01 -8.9290937829e+01 1.2199022705e+02 0.0000000000e+00 0.0000e+00 1.0000e+00
       13  1    1    2    0    0 +1.6785783958e+01 +8.1406273557e+01 +1.8273898902e+02 2.0075428270e+02 0.0000000000e+00 0.0000e+00 -1.0000e+00
<mgrwt>
<rscale>  0 0.30891986E+03</rscale>
<asrwt>0</asrwt>
<pdfrwt beam="1">  1        2 0.32014812E-01 0.30891986E+03</pdfrwt>
<pdfrwt beam="2">  1       -2 0.17638189E-01 0.30891986E+03</pdfrwt>
<totfact> 0.47489429E+03</totfact>
</mgrwt>
<rwgt>
<wgt id='morphing_basis_vector_1'> +2.3673244e-04 </wgt>
<wgt id='morphing_basis_vector_2'> +1.3103637e-04 </wgt>
<wgt id='morphing_basis_vector_3'> +1.3959625e-04 </wgt>
<wgt id='morphing_basis_vector_4'> +2.3564207e-05 </wgt>
<wgt id='morphing_basis_vector_5'> +2.5318763e-06 </wgt>
</rwgt>
</event>
<event>
 4      1 +5.5534000e-05 3.33133800e+02 7.81860800e-03 9.87759800e-02
        2 -1    0    0  501    0 +0.0000000000e+00 +0.0000000000e+00 +6.6286253481e+02 6.6286253481e+02 0.0000000000e+00 0.0000e+00 1.0000e+00
       -2 -1    0    0    0  501 -0.0000000000e+00 -0.0000000000e+00 -4.1855638099e+01 4.1855638099e+01 0.0000000000e+00 0.0000e+00 -1.0000e+00
      -13  1    1    2    0    0 -1.7778147253e+01 -1.1348725547e+02 +5.6566488507e+02 5.7721069106e+02 0.0000000000e+00 0.0000e+00 1.0000e+00
       13  1    1    2    0    0 +1.7778147253e+01 +1.1348725547e+02 +5.5342011641e+01 1.2750748185e+02 0.0000000000e+00 0.0000e+00 -1.0000e+00
<mgrwt>
<rscale>  0 0.33313381E+03</rscale>
<asrwt>0</asrwt>
<pdfrwt beam="1">  1        2 0.10197884E+00 0.33313381E+03</pdfrwt>
<pdfrwt beam="2">  1       -2 0.64393294E-02 0.33313381E+03</pdfrwt>
<totfact> 0.62725475E+03</totfact>
</mgrwt>
<rwgt>
<wgt id='morphing_basis_vector_1'> +3.5749381e-04 </wgt>
<wgt id='morphing_basis_vector_2'> +3.8125650e-04 </wgt>
<wgt id='morphing_basis_vector_3'> +6.5552356e-05 </wgt>
<wgt id='morphing_basis_vector_4'> +5.8776120e-05 </wgt>
<wgt id='morphing_basis_vector_5'> +1.4129400e-05 </wgt>
</rwgt>
</event>
<event>
 4      1 +5.5534000e-05 3.28364300e+02 7.81860800e-03 9.89548900e-02
        2 -1    0    0  501    0 +0.0000000000e+00 +0.0000000000e+00 +7.5328286447e+02 7.5328286447e+02 0.0000000000e+00 0.0000e+00 -1.0000e+00
       -2 -1    0    0    0  501 -0.0000000000e+00 -0.0000000000e+00 -3.5784398339e+01 3.5784398339e+01 0.0000000000e+00 0.0000e+00 1.0000e+00
      -13  1    1    2    0    0 +1.8635066260e+01 -1.5753480874e+02 +2.5704445171e+02 3.0205352476e+02 0.0000000000e+00 0.0000e+00 1.0000e+00
       13  1    1    2    0    0 -1.8635066260e+01 +1.5753480874e+02 +4.6045401442e+02 4.8701373806e+02 0.0000000000e+00 0.0000e+00 -1.0000e+00
<mgrwt>
<rscale>  0 0.32836427E+03</rscale>
<asrwt>0</asrwt>
<pdfrwt beam="1">  1        2 0.11588966E+00 0.32836427E+03</pdfrwt>
<pdfrwt beam="2">  1       -2 0.55052926E-02 0.32836427E+03</pdfrwt>
<totfact> 0.68189394E+03</totfact>
</mgrwt>
<rwgt>
<wgt id='morphing_basis_vector_1'> +2.7371469e-04 </wgt>
<wgt id='morphing_basis_vector_2'> +1.5635824e-04 </wgt>
<wgt id='morphing_basis_vector_3'> +1.5767883e-04 </wgt>
<wgt id='morphing_basis_vector_4'> +2.8351600e-05 </wgt>
<wgt id='morphing_basis_vector_5'> +8.0378520e-06 </wgt>
</rwgt>
</event>
<event>
 4      1 +5.5534000e-05 3.16750900e+02 7.81860800e-03 9.94047200e-02
        2 -1    0    0  501    0 +0.0000000000e+00 +0.0000000000e+00 +1.0690061703e+03 1.0690061703e+03 0.0000000000e+00 0.0000e+00 -1.0000e+00
       -2 -1    0    0    0  501 -0.0000000000e+00 -0.0000000000e+00 -2.3463649257e+01 2.3463649257e+01 0.0000000000e+00 0.0000e+00 1.0000e+00
      -13  1    1    2    0    0 -1.2692265699e+02 +4.8522361272e+01 +8.0337143460e+02 8.1478183727e+02 0.0000000000e+00 0.0000e+00 1.0000e+00
       13  1    1    2    0    0 +1.2692265699e+02 -4.8522361272e+01 +2.4217108640e+02 2.7768798225e+02 0.0000000000e+00 0.0000e+00 -1.0000e+00
<mgrwt>
<rscale>  0 0.31675092E+03</rscale>
<asrwt>0</asrwt>
<pdfrwt beam="1">  1        2 0.16446245E+00 0.31675092E+03</pdfrwt>
<pdfrwt beam="2">  1       -2 0.36097930E-02 0.31675092E+03</pdfrwt>
<totfact> 0.80800716E+03</totfact>
</mgrwt>
<rwgt>
<wgt id='morphing_basis_vector_1'> +2.9103569e-04 </wgt>
<wgt id='morphing_basis_vector_2'> +2.5689330e-04 </wgt>
<wgt id='morphing_basis_vector_3'> +9.0650989e-05 </wgt>
<wgt id='morphing_basis_vector_4'> +4.3919813e-05 </wgt>
<wgt id='morphing_basis_vector_5'> +6.2828468e-06 </wgt>
</rwgt>
</event>
<event>
 4      1 +5.5534000e-05 3.15183200e+02 7.81860800e-03 9.94670500e-02
        2 -1    0    0  501    0 +0.0000000000e+00 +0.0000000000e+00 +5.3116183701e+02 5.3116183701e+02 0.0000000000e+00 0.0000e+00 -1.0000e+00
       -2 -1    0    0    0  501 -0.0000000000e+00 -0.0000000000e+00 -4.6756220630e+01 4.6756220630e+01 0.0000000000e+00 0.0000e+00 1.0000e+00
      -13  1    1    2    0    0 -1.0286842035e+02 +9.6137481532e+01 +1.1240828756e+02 1.8016645185e+02 0.0000000000e+00 0.0000e+00 1.0000e+00
       13  1    1    2    0    0 +1.0286842035e+02 -9.6137481532e+01 +3.7199732883e+02 3.9775160580e+02 0.0000000000e+00 0.0000e+00 -1.0000e+00
<mgrwt>
<rscale>  0 0.31518325E+03</rscale>
<asrwt>0</asrwt>
<pdfrwt beam="1">  1        2 0.81717201E-01 0.31518325E+03</pdfrwt>
<pdfrwt beam="2">  1       -2 0.71932651E-02 0.31518325E+03</pdfrwt>
<totfact> 0.68185139E+03</totfact>
</mgrwt>
<rwgt>
<wgt id='morphing_basis_vector_1'> +2.4830141e-04 </wgt>
<wgt id='morphing_basis_vector_2'> +1.3925698e-04 </wgt>
<wgt id='morphing_basis_vector_3'> +1.4475809e-04 </wgt>
<wgt id='morphing_basis_vector_4'> +2.4998556e-05 </wgt>
<wgt id='morphing_basis_vector_5'> +3.9497636e-06 </wgt>
</rwgt>
</event>
<event>
 4      1 +5.5534000e-05 3.09544200e+02 7.81860800e-03 9.96944800e-02
        2 -1    0    0  501    0 +0.0000000000e+00 +0.0000000000e+00 +6.0536549360e+02 6.0536549360e+02 0.0000000000e+00 0.0000e+00 1.0000e+00
       -2 -1    0    0    0  501 -0.0000000000e+00 -0.0000000000e+00 -3.9570147531e+01 3.9570147531e+01 0.0000000000e+00 0.0000e+00 -1.0000e+00
      -13  1    1    2    0    0 -9.4011975480e+01 -1.2253271188e+02 +3.0392812374e+02 3.4091761676e+02 0.0000000000e+00 0.0000e+00 1.0000e+00
       13  1    1    2    0    0 +9.4011975480e+01 +1.2253271188e+02 +2.6186722233e+02 3.0401802438e+02 0.0000000000e+00 0.0000e+00 -1.0000e+00
<mgrwt>
<rscale>  0 0.30954419E+03</rscale>
<asrwt>0</asrwt>
<pdfrwt beam="1">  1        2 0.93133146E-01 0.30954419E+03</pdfrwt>
<pdfrwt beam="2">  1       -2 0.60877155E-02 0.30954419E+03</pdfrwt>
<totfact> 0.75643224E+03</totfact>
</mgrwt>
<rwgt>
<wgt id='morphing_basis_vector_1'> +2.4636948e-04 </wgt>
<wgt id='morphing_basis_vector_2'> +1.5636048e-04 </wgt>
<wgt id='morphing_basis_vector_3'> +1.2794742e-04 </wgt>
<wgt id='morphing_basis_vector_4'> +2.7928889e-05 </wgt>
<wgt id='morphing_basis_vector_5'> +3.0292137e-06 </wgt>
</rwgt>
</event>
<event>
 4      1 +5.5534000e-05 3.04359700e+02 7.81860800e-03 9.99081600e-02
        2 -1    0    0  501    0 +0.0000000000e+00 +0.0000000000e+00 +1.5550483441e+01 1.5550483441e+01 0.0000000000e+00 0.0000e+00 -1.0000e+00
       -2 -1    0    0    0  501 -0.0000000000e+00 -0.0000000000e+00 -1.4892592916e+03 1.4892592916e+03 0.0000000000e+00 0.0000e+00 1.0000e+00
      -13  1    1    2    0    0 -9.9983180436e+01 +1.1469666278e+02 -7.2401748480e+02 7.3983327792e+02 0.0000000000e+00 0.0000e+00 1.0000e+00
       13  1    1    2    0    0 +9.9983180436e+01 -1.1469666278e+02 -7.4969132337e+02 7.6497649712e+02 0.0000000000e+00 0.0000e+00 -1.0000e+00
<mgrwt>
<rscale>  0 0.30435967E+03</rscale>
<asrwt>0</asrwt>
<pdfrwt beam="1">  1        2 0.23923814E-02 0.30435967E+03</pdfrwt>
<pdfrwt beam="2">  1       -2 0.22911688E+00 0.30435967E+03</pdfrwt>
<totfact> 0.43466653E+02</totfact>
</mgrwt>
<rwgt>
<wgt id='morphing_basis_vector_1'> +2.3626386e-04 </wgt>
<wgt id='morphing_basis_vector_2'> +1.4725903e-04 </wgt>
<wgt id='morphing_basis_vector_3'> +1.2496837e-04 </wgt>
<wgt id='morphing_basis_vector_4'> +2.6595471e-05 </wgt>
<wgt id='morphing_basis_vector_5'> +2.0083113e-06 </wgt>
</rwgt>
</event>
<event>
 4      1 +5.5534000e-05 3.50247000e+02 7.81860800e-03 9.81598100e-02
        2 -1    0    0  501    0 +0.0000000000e+00 +0.0000000000e+00 +1.6338908510e+03 1.6338908510e+03 0.0000000000e+00 0.0000e+00 -1.0000e+00
       -2 -1    0    0    0  501 -0.0000000000e+00 -0.0000000000e+00 -1.8770069698e+01 1.8770069698e+01 0.0000000000e+00 0.0000e+00 1.0000e+00
      -13  1    1    2    0    0 -1.7257625385e+02 -2.9636931183e+01 +8.2033894822e+02 8.3881875339e+02 0.0000000000e+00 0.0000e+00 1.0000e+00
       13  1    1    2    0    0 +1.7257625385e+02 +2.9636931183e+01 +7.9478183310e+02 8.1384216732e+02 0.0000000000e+00 0.0000e+00 -1.0000e+00
<mgrwt>
<rscale>  0 0.35024703E+03</rscale>
<asrwt>0</asrwt>
<pdfrwt beam="1">  1        2 0.25136771E+00 0.35024703E+03</pdfrwt>
<pdfrwt beam="2">  1       -2 0.28877043E-02 0.35024703E+03</pdfrwt>
<totfact> 0.55091374E+03</totfact>
</mgrwt>
<rwgt>
<wgt id='morphing_basis_vector_1'> +3.2468828e-04 </wgt>
<wgt id='morphing_basis_vector_2'> +1.9993683e-04 </wgt>
<wgt id='morphing_basis_vector_3'> +1.7896690e-04 </wgt>
<wgt id='morphing_basis_vector_4'> +3.7002987e-05 </wgt>
<wgt id='morphing_basis_vector_5'> +1.8807972e-05 </wgt>
</rwgt>
</event>
<event>
 4      1 +5.5534000e-05 3.35956700e+02 7.81860800e-03 9.86716100e-02
        2 -1    0    0  501    0 +0.0000000000e+00 +0.0000000000e+00 +1.9538670131e+02 1.9538670131e+02 0.0000000000e+00 0.0000e+00 -1.0000e+00
       -2 -1    0    0    0  501 -0.0000000000e+00 -0.0000000000e+00 -1.4441479793e+02 1.4441479793e+02 0.0000000000e+00 0.0000e+00 1.0000e+00
      -13  1    1    2    0    0 +6.5431954173e+01 -7.1797253796e+01 -1.1312451901e+02 1.4910849433e+02 0.0000000000e+00 0.0000e+00 1.0000e+00
       13  1    1    2    0    0 -6.5431954173e+01 +7.1797253796e+01 +1.6409642239e+02 1.9069300491e+02 0.0000000000e+00 0.0000e+00 -1.0000e+00
<mgrwt>
<rscale>  0 0.33595673E+03</rscale>
<asrwt>0</asrwt>
<pdfrwt beam="1">  1        2 0.30059493E-01 0.33595673E+03</pdfrwt>
<pdfrwt beam="2">  1       -2 0.22217661E-01 0.33595673E+03</pdfrwt>
<totfact> 0.35062714E+03</totfact>
</mgrwt>
<rwgt>
<wgt id='morphing_basis_vector_1'> +2.8541513e-04 </wgt>
<wgt id='morphing_basis_vector_2'> +1.5534462e-04 </wgt>
<wgt id='morphing_basis_vector_3'> +1.7113125e-04 </wgt>
<wgt id='morphing_basis_vector_4'> +2.9171144e-05 </wgt>
<wgt id='morphing_basis_vector_5'> +1.0906594e-05 </wgt>
</rwgt>
</event>
<event>
 4      1 +5.5534000e-05 3.02086600e+02 7.81860800e-03 1.00003300e-01
        2 -1    0    0  501    0 +0.0000000000e+00 +0.0000000000e+00 +1.1164826422e+02 1.1164826422e+02 0.0000000000e+00 0.0000e+00 1.0000e+00
       -2 -1    0    0    0  501 -0.0000000000e+00 -0.0000000000e+00 -2.0433886612e+02 2.0433886612e+02 0.0000000000e+00 0.0000e+00 -1.0000e+00
      -13  1    1    2    0    0 +3.9906214390e+00 +9.0426137563e+01 +8.0137200216e+01 1.2089161374e+02 0.0000000000e+00 0.0000e+00 1.0000e+00
       13  1    1    2    0    0 -3.9906214390e+00 -9.0426137563e+01 -1.7282780212e+02 1.9509551660e+02 0.0000000000e+00 0.0000e+00 -1.0000e+00
<mgrwt>
<rscale>  0 0.30208661E+03</rscale>
<asrwt>0</asrwt>
<pdfrwt beam="1">  1        2 0.17176656E-01 0.30208661E+03</pdfrwt>
<pdfrwt beam="2">  1       -2 0.31436749E-01 0.30208661E+03</pdfrwt>
<totfact> 0.37159261E+03</totfact>
</mgrwt>
<rwgt>
<wgt id='morphing_basis_vector_1'> +2.9635286e-04 </wgt>
<wgt id='morphing_basis_vector_2'> +3.2753115e-04 </wgt>
<wgt id='morphing_basis_vector_3'> +2.9660734e-05 </wgt>
<wgt id='morphing_basis_vector_4'> +6.0050090e-05 </wgt>
<wgt id='morphing_basis_vector_5'> +4.0663091e-06 </wgt>
</rwgt>
</event>
<event>
 4      1 +5.5534000e-05 3.41473500e+02 7.81860800e-03 9.84708200e-02
        2 -1    0    0  501    0 +0.0000000000e+00 +0.0000000000e+00 +2.8720172134e+01 2.8720172134e+01 0.0000000000e+00 0.0000e+00 -1.0000e+00
       -2 -1    0    0    0  501 -0.0000000000e+00 -0.0000000000e+00 -1.0150021339e+03 1.0150021339e+03 0.0000000000e+00 0.0000e+00 1.0000e+00
      -13  1    1    2    0    0 -1.2420429256e+02 +6.8356008476e+01 -7.8394145291e+02 7.9665767540e+02 0.0000000000e+00 0.0000e+00 1.0000e+00
       13  1    1    2    0    0 +1.2420429256e+02 -6.8356008476e+01 -2.0234050886e+02 2.4706463064e+02 0.0000000000e+00 0.0000e+00 -1.0000e+00
<mgrwt>
<rscale>  0 0.34147349E+03</rscale>
<asrwt>0</asrwt>
<pdfrwt beam="1">  1        2 0.44184887E-02 0.34147349E+03</pdfrwt>
<pdfrwt beam="2">  1       -2 0.15615415E+00 0.34147349E+03</pdfrwt>
<totfact> 0.64461370E+02</totfact>
</mgrwt>
<rwgt>
<wgt id='morphing_basis_vector_1'> +2.9711023e-04 </wgt>
<wgt id='morphing_basis_vector_2'> +1.6294792e-04 </wgt>
<wgt id='morphing_basis_vector_3'> +1.7769504e-04 </wgt>
<wgt id='morphing_basis_vector_4'> +3.1085716e-05 </wgt>
<wgt id='morphing_basis_vector_5'> +1.3503930e-05 </wgt>
</rwgt>
</event>
<event>
 4      1 +5.5534000e-05 3.43309600e+02 7.81860800e-03 9.84049000e-02
        2 -1    0    0  501    0 +0.0000000000e+00 +0.0000000000e+00 +1.0349551418e+03 1.0349551418e+03 0.0000000000e+00 0.0000e+00 1.0000e+00
       -2 -1    0    0    0  501 -0.0000000000e+00 -0.0000000000e+00 -2.8470185055e+01 2.8470185055e+01 0.0000000000e+00 0.0000e+00 -1.0000e+00
      -13  1    1    2    0    0 -1.4558482099e+02 +1.5323080449e+00 +2.2158367207e+02 2.6513508217e+02 0.0000000000e+00 0.0000e+00 -1.0000e+00
       13  1    1    2    0    0 +1.4558482099e+02 -1.5323080449e+00 +7.8490128473e+02 7.9829024473e+02 0.0000000000e+00 0.0000e+00 1.0000e+00
<mgrwt>
<rscale>  0 0.34330957E+03</rscale>
<asrwt>0</asrwt>
<pdfrwt beam="1">  1        2 0.15922384E+00 0.34330957E+03</pdfrwt>
<pdfrwt beam="2">  1       -2 0.43800293E-02 0.34330957E+03</pdfrwt>
<totfact> 0.63583431E+03</totfact>
</mgrwt>
<rwgt>
<wgt id='morphing_basis_vector_1'> +3.0100617e-04 </wgt>
<wgt id='morphing_basis_vector_2'> +1.6528750e-04 </wgt>
<wgt id='morphing_basis_vector_3'> +1.8007185e-04 </wgt>
<wgt id='morphing_basis_vector_4'> +3.1730399e-05 </wgt>
<wgt id='morphing_basis_vector_5'> +1.4433545e-05 </wgt>
</rwgt>
</event>
<event>
 4      1 +5.5534000e-05 3.13191700e+02 7.81860800e-03 9.95467900e-02
        2 -1    0    0  501    0 +0.0000000000e+00 +0.0000000000e+00 +8.2138159590e+01 8.2138159590e+01 0.0000000000e+00 0.0000e+00 -1.0000e+00
       -2 -1    0    0    0  501 -0.0000000000e+00 -0.0000000000e+00 -2.9854896629e+02 2.9854896629e+02 0.0000000000e+00 0.0000e+00 1.0000e+00
      -13  1    1    2    0    0 -4.4815080969e+01 +1.4405181096e+02 -1.5924151071e+02 2.1935627289e+02 0.0000000000e+00 0.0000e+00 1.0000e+00
       13  1    1    2    0    0 +4.4815080969e+01 -1.4405181096e+02 -5.7169295995e+01 1.6133085299e+02 0.0000000000e+00 0.0000e+00 -1.0000e+00
<mgrwt>
<rscale>  0 0.31319172E+03</rscale>
<asrwt>0</asrwt>
<pdfrwt beam="1">  1        2 0.12636640E-01 0.31319172E+03</pdfrwt>
<pdfrwt beam="2">  1       -2 0.45930610E-01 0.31319172E+03</pdfrwt>
<totfact> 0.27194525E+03</totfact>
</mgrwt>
<rwgt>
<wgt id='morphing_basis_vector_1'> +2.4627916e-04 </wgt>
<wgt id='morphing_basis_vector_2'> +1.4154270e-04 </wgt>
<wgt id='morphing_basis_vector_3'> +1.4066323e-04 </wgt>
<wgt id='morphing_basis_vector_4'> +2.5347273e-05 </wgt>
<wgt id='morphing_basis_vector_5'> +3.5415633e-06 </wgt>
</rwgt>
</event>
<event>
 4      1 +5.5534000e-05 3.15155600e+02 7.81860800e-03 9.94681500e-02
        2 -1    0    0  501    0 +0.0000000000e+00 +0.0000000000e+00 +1.3373996915e+02 1.3373996915e+02 0.0000000000e+00 0.0000e+00 1.0000e+00
       -2 -1    0    0    0  501 -0.0000000000e+00 -0.0000000000e+00 -1.8566443921e+02 1.8566443921e+02 0.0000000000e+00 0.0000e+00 -1.0000e+00
      -13  1    1    2    0    0 -1.1709831138e+02 +7.9389172934e+00 -1.3252595233e+02 1.7702589917e+02 0.0000000000e+00 0.0000e+00 -1.0000e+00
       13  1    1    2    0    0 +1.1709831138e+02 -7.9389172934e+00 +8.0601482268e+01 1.4237850919e+02 0.0000000000e+00 0.0000e+00 1.0000e+00
<mgrwt>
<rscale>  0 0.31515556E+03</rscale>
<asrwt>0</asrwt>
<pdfrwt beam="1">  1        2 0.20575380E-01 0.31515556E+03</pdfrwt>
<pdfrwt beam="2">  1       -2 0.28563760E-01 0.31515556E+03</pdfrwt>
<totfact> 0.35471153E+03</totfact>
</mgrwt>
<rwgt>
<wgt id='morphing_basis_vector_1'> +2.4745199e-04 </wgt>
<wgt id='morphing_basis_vector_2'> +1.3690750e-04 </wgt>
<wgt id='morphing_basis_vector_3'> +1.4585233e-04 </wgt>
<wgt id='morphing_basis_vector_4'> +2.4614655e-05 </wgt>
<wgt id='morphing_basis_vector_5'> +3.9049546e-06 </wgt>
</rwgt>
</event>
<event>
 4      1 +5.5534000e-05 3.09682600e+02 7.81860800e-03 9.96888400e-02
        2 -1    0    0  501    0 +0.0000000000e+00 +0.0000000000e+00 +2.8282197879e+02 2.8282197879e+02 0.0000000000e+00 0.0000e+00 -1.0000e+00
       -2 -1    0    0    0  501 -0.0000000000e+00 -0.0000000000e+00 -8.4773593751e+01 8.4773593751e+01 0.0000000000e+00 0.0000e+00 1.0000e+00
      -13  1    1    2    0    0 +1.3113699818e+02 +7.7337788321e+01 +6.5496966369e+01 1.6573442129e+02 0.0000000000e+00 0.0000e+00 1.0000e+00
       13  1    1    2    0    0 -1.3113699818e+02 -7.7337788321e+01 +1.3255141867e+02 2.0186115126e+02 0.0000000000e+00 0.0000e+00 -1.0000e+00
<mgrwt>
<rscale>  0 0.30968265E+03</rscale>
<asrwt>0</asrwt>
<pdfrwt beam="1">  1        2 0.43511073E-01 0.30968265E+03</pdfrwt>
<pdfrwt beam="2">  1       -2 0.13042092E-01 0.30968265E+03</pdfrwt>
<totfact> 0.54535972E+03</totfact>
</mgrwt>
<rwgt>
<wgt id='morphing_basis_vector_1'> +2.4134888e-04 </wgt>
<wgt id='morphing_basis_vector_2'> +1.4133859e-04 </wgt>
<wgt id='morphing_basis_vector_3'> +1.3558923e-04 </wgt>
<wgt id='morphing_basis_vector_4'> +2.5335742e-05 </wgt>
<wgt id='morphing_basis_vector_5'> +2.8281611e-06 </wgt>
</rwgt>
</event>
<event>
 4      1 +5.5534000e-05 3.18986300e+02 7.81860800e-03 9.93165200e-02
        2 -1    0    0  501    0 +0.0000000000e+00 +0.0000000000e+00 +9.8852715386e+01 9.8852715386e+01 0.0000000000e+00 0.0000e+00 -1.0000e+00
       -2 -1    0    0    0  501 -0.0000000000e+00 -0.0000000000e+00 -2.5733295215e+02 2.5733295215e+02 0.0000000000e+00 0.0000e+00 1.0000e+00
      -13  1    1    2    0    0 -1.0021667840e+02 +1.0297217161e+02 -1.9478374750e+00 1.4370262637e+02 0.0000000000e+00 0.0000e+00 1.0000e+00
       13  1    1    2    0    0 +1.0021667840e+02 -1.0297217161e+02 -1.5653239929e+02 2.1248304117e+02 0.0000000000e+00 0.0000e+00 -1.0000e+00
<mgrwt>
<rscale>  0 0.31898628E+03</rscale>
<asrwt>0</asrwt>
<pdfrwt beam="1">  1        2 0.15208110E-01 0.31898628E+03</pdfrwt>
<pdfrwt beam="2">  1       -2 0.39589685E-01 0.31898628E+03</pdfrwt>
<totfact> 0.28576591E+03</totfact>
</mgrwt>
<rwgt>
<wgt id='morphing_basis_vector_1'> +2.8664567e-04 </wgt>
<wgt id='morphing_basis_vector_2'> +2.3494984e-04 </wgt>
<wgt id='morphing_basis_vector_3'> +1.0506254e-04 </wgt>
<wgt id='morphing_basis_vector_4'> +4.0134654e-05 </wgt>
<wgt id='morphing_basis_vector_5'> +6.5231932e-06 </wgt>
</rwgt>
</event>
<event>
 4      1 +5.5534000e-05 3.06281800e+02 7.81860800e-03 9.98284200e-02
        2 -1    0    0  501    0 +0.0000000000e+00 +0.0000000000e+00 +3.7223078922e+02 3.7223078922e+02 0.0000000000e+00 0.0000e+00 1.0000e+00
       -2 -1    0    0    0  501 -0.0000000000e+00 -0.0000000000e+00 -6.3004290002e+01 6.3004290002e+01 0.0000000000e+00 0.0000e+00 -1.0000e+00
      -13  1    1    2    0    0 +9.8206105395e+01 -4.1599857009e+01 -1.5521823730e+00 1.0666487946e+02 0.0000000000e+00 0.0000e+00 -1.0000e+00
       13  1    1    2    0    0 -9.8206105395e+01 +4.1599857009e+01 +3.1077868159e+02 3.2857019976e+02 0.0000000000e+00 0.0000e+00 1.0000e+00
<mgrwt>
<rscale>  0 0.30628181E+03</rscale>
<asrwt>0</asrwt>
<pdfrwt beam="1">  1        2 0.57266274E-01 0.30628181E+03</pdfrwt>
<pdfrwt beam="2">  1       -2 0.96929679E-02 0.30628181E+03</pdfrwt>
<totfact> 0.63952911E+03</totfact>
</mgrwt>
<rwgt>
<wgt id='morphing_basis_vector_1'> +2.3257623e-04 </wgt>
<wgt id='morphing_basis_vector_2'> +1.2934785e-04 </wgt>
<wgt id='morphing_basis_vector_3'> +1.3670828e-04 </wgt>
<wgt id='morphing_basis_vector_4'> +2.3302734e-05 </wgt>
<wgt id='morphing_basis_vector_5'> +2.0563679e-06 </wgt>
</rwgt>
</event>
<event>
 4      1 +5.5534000e-05 3.53693700e+02 7.81860800e-03 9.80403100e-02
        2 -1    0    0  501    0 +0.0000000000e+00 +0.0000000000e+00 +1.3021706186e+02 1.3021706186e+02 0.0000000000e+00 0.0000e+00 1.0000e+00
       -2 -1    0    0    0  501 -0.0000000000e+00 -0.0000000000e+00 -2.4017441075e+02 2.4017441075e+02 0.0000000000e+00 0.0000e+00 -1.0000e+00
      -13  1    1    2    0    0 +7.6848642644e+01 -5.0927405802e+01 -2.1301886713e+02 2.3211280079e+02 0.0000000000e+00 0.0000e+00 -1.0000e+00
       13  1    1    2    0    0 -7.6848642644e+01 +5.0927405802e+01 +1.0306151824e+02 1.3827867182e+02 0.0000000000e+00 0.0000e+00 1.0000e+00
<mgrwt>
<rscale>  0 0.35369369E+03</rscale>
<asrwt>0</asrwt>
<pdfrwt beam="1">  1        2 0.20033394E-01 0.35369369E+03</pdfrwt>
<pdfrwt beam="2">  1       -2 0.36949910E-01 0.35369369E+03</pdfrwt>
<totfact> 0.23357750E+03</totfact>
</mgrwt>
<rwgt>
<wgt id='morphing_basis_vector_1'> +3.2221645e-04 </wgt>
<wgt id='morphing_basis_vector_2'> +1.7407492e-04 </wgt>
<wgt id='morphing_basis_vector_3'> +1.9633537e-04 </wgt>
<wgt id='morphing_basis_vector_4'> +3.5272905e-05 </wgt>
<wgt id='morphing_basis_vector_5'> +2.0272667e-05 </wgt>
</rwgt>
</event>
<event>
 4      1 +5.5534000e-05 3.14956700e+02 7.81860800e-03 9.94760900e-02
        2 -1    0    0  501    0 +0.0000000000e+00 +0.0000000000e+00 +4.9657033524e+02 4.9657033524e+02 0.0000000000e+00 0.0000e+00 1.0000e+00
       -2 -1    0    0    0  501 -0.0000000000e+00 -0.0000000000e+00 -4.9941435768e+01 4.9941435768e+01 0.0000000000e+00 0.0000e+00 -1.0000e+00
      -13  1    1    2    0    0 -1.9458673793e+01 -1.2839991165e+02 +3.7787611630e+02 3.9956918871e+02 0.0000000000e+00 0.0000e+00 1.0000e+00
       13  1    1    2    0    0 +1.9458673793e+01 +1.2839991165e+02 +6.8752783165e+01 1.4694258229e+02 0.0000000000e+00 0.0000e+00 -1.0000e+00
<mgrwt>
<rscale>  0 0.31495673E+03</rscale>
<asrwt>0</asrwt>
<pdfrwt beam="1">  1        2 0.76395433E-01 0.31495673E+03</pdfrwt>
<pdfrwt beam="2">  1       -2 0.76832981E-02 0.31495673E+03</pdfrwt>
<totfact> 0.66497996E+03</totfact>
</mgrwt>
<rwgt>
<wgt id='morphing_basis_vector_1'> +2.9383231e-04 </wgt>
<wgt id='morphing_basis_vector_2'> +2.7222012e-04 </wgt>
<wgt id='morphing_basis_vector_3'> +8.0076010e-05 </wgt>
<wgt id='morphing_basis_vector_4'> +4.6727996e-05 </wgt>
<wgt id='morphing_basis_vector_5'> +6.0660014e-06 </wgt>
</rwgt>
</event>
<event>
 4      1 +5.5534000e-05 3.32892500e+02 7.81860800e-03 9.87849500e-02
        2 -1    0    0  501    0 +0.0000000000e+00 +0.0000000000e+00 +2.2477932807e+01 2.2477932807e+01 0.0000000000e+00 0.0000e+00 -1.0000e+00
       -2 -1    0    0    0  501 -0.0000000000e+00 -0.0000000000e+00 -1.2325131646e+03 1.2325131646e+03 0.0000000000e+00 0.0000e+00 1.0000e+00
      -13  1    1    2    0    0 -1.1097155949e+02 +1.0127118172e+02 -8.7513748345e+02 8.8793927394e+02 0.0000000000e+00 0.0000e+00 1.0000e+00
       13  1    1    2    0    0 +1.1097155949e+02 -1.0127118172e+02 -3.3489774831e+02 3.6705182344e+02 0.0000000000e+00 0.0000e+00 -1.0000e+00
<mgrwt>
<rscale>  0 0.33289246E+03</rscale>
<asrwt>0</asrwt>
<pdfrwt beam="1">  1        2 0.34581436E-02 0.33289246E+03</pdfrwt>
<pdfrwt beam="2">  1       -2 0.18961740E+00 0.33289246E+03</pdfrwt>
<totfact> 0.49967351E+02</totfact>
</mgrwt>
<rwgt>
<wgt id='morphing_basis_vector_1'> +2.8077511e-04 </wgt>
<wgt id='morphing_basis_vector_2'> +1.5621013e-04 </wgt>
<wgt id='morphing_basis_vector_3'> +1.6543003e-04 </wgt>
<wgt id='morphing_basis_vector_4'> +2.8839787e-05 </wgt>
<wgt id='morphing_basis_vector_5'> +9.6932469e-06 </wgt>
</rwgt>
</event>
<event>
 4      1 +5.5534000e-05 3.10863200e+02 7.81860800e-03 9.96408300e-02
        2 -1    0    0  501    0 +0.0000000000e+00 +0.0000000000e+00 +6.4235856603e+02 6.4235856603e+02 0.0000000000e+00 0.0000e+00 -1.0000e+00
       -2 -1    0    0    0  501 -0.0000000000e+00 -0.0000000000e+00 -3.7609814861e+01 3.7609814861e+01 0.0000000000e+00 0.0000e+00 1.0000e+00
      -13  1    1    2    0    0 -3.8018508468e+01 +1.5050033714e+02 +3.1976739715e+02 3.5545315689e+02 0.0000000000e+00 0.0000e+00 1.0000e+00
       13  1    1    2    0    0 +3.8018508468e+01 -1.5050033714e+02 +2.8498135402e+02 3.2451522400e+02 0.0000000000e+00 0.0000e+00 -1.0000e+00
<mgrwt>
<rscale>  0 0.31086323E+03</rscale>
<asrwt>0</asrwt>
<pdfrwt beam="1">  1        2 0.98824386E-01 0.31086323E+03</pdfrwt>
<pdfrwt beam="2">  1       -2 0.57861259E-02 0.31086323E+03</pdfrwt>
<totfact> 0.76278591E+03</totfact>
</mgrwt>
<rwgt>
<wgt id='morphing_basis_vector_1'> +2.4821679e-04 </wgt>
<wgt id='morphing_basis_vector_2'> +1.5648587e-04 </wgt>
<wgt id='morphing_basis_vector_3'> +1.2985639e-04 </wgt>
<wgt id='morphing_basis_vector_4'> +2.7898056e-05 </wgt>
<wgt id='morphing_basis_vector_5'> +3.2902254e-06 </wgt>
</rwgt>
</event>
<event>
 4      1 +5.5534000e-05 3.59107800e+02 7.81860800e-03 9.78555400e-02
        2 -1    0    0  501    0 +0.0000000000e+00 +0.0000000000e+00 +2.3009050078e+02 2.3009050078e+02 0.0000000000e+00 0.0000e+00 1.0000e+00
       -2 -1    0    0    0  501 -0.0000000000e+00 -0.0000000000e+00 -1.4011708104e+02 1.4011708104e+02 0.0000000000e+00 0.0000e+00 -1.0000e+00
      -13  1    1    2    0    0 +1.6673757584e+02 -6.5141909450e+01 +3.0601119372e+01 1.8160758814e+02 0.0000000000e+00 0.0000e+00 -1.0000e+00
       13  1    1    2    0    0 -1.6673757584e+02 +6.5141909450e+01 +5.9372300371e+01 1.8859999368e+02 0.0000000000e+00 0.0000e+00 1.0000e+00
<mgrwt>
<rscale>  0 0.35910784E+03</rscale>
<asrwt>0</asrwt>
<pdfrwt beam="1">  1        2 0.35398539E-01 0.35910784E+03</pdfrwt>
<pdfrwt beam="2">  1       -2 0.21556474E-01 0.35910784E+03</pdfrwt>
<totfact> 0.30712467E+03</totfact>
</mgrwt>
<rwgt>
<wgt id='morphing_basis_vector_1'> +3.4183447e-04 </wgt>
<wgt id='morphing_basis_vector_2'> +2.0294325e-04 </wgt>
<wgt id='morphing_basis_vector_3'> +1.9593392e-04 </wgt>
<wgt id='morphing_basis_vector_4'> +3.9585491e-05 </wgt>
<wgt id='morphing_basis_vector_5'> +2.4310443e-05 </wgt>
</rwgt>
</event>
<event>
 4      1 +5.5534000e-05 3.53565900e+02 7.81860800e-03 9.80447200e-02
        2 -1    0    0  501    0 +0.0000000000e+00 +0.0000000000e+00 +4.8387984948e+02 4.8387984948e+02 0.0000000000e+00 0.0000e+00 -1.0000e+00
       -2 -1    0    0    0  501 -0.0000000000e+00 -0.0000000000e+00 -6.4586731140e+01 6.4586731140e+01 0.0000000000e+00 0.0000e+00 1.0000e+00
      -13  1    1    2    0    0 -1.6567580115e+02 +5.7390652964e+01 +1.7461251935e+02 2.4745037896e+02 0.0000000000e+00 0.0000e+00 1.0000e+00
       13  1    1    2    0    0 +1.6567580115e+02 -5.7390652964e+01 +2.4468059899e+02 3.0101620165e+02 0.0000000000e+00 0.0000e+00 -1.0000e+00
<mgrwt>
<rscale>  0 0.35356594E+03</rscale>
<asrwt>0</asrwt>
<pdfrwt beam="1">  1        2 0.74443051E-01 0.35356594E+03</pdfrwt>
<pdfrwt beam="2">  1       -2 0.99364205E-02 0.35356594E+03</pdfrwt>
<totfact> 0.46292063E+03</totfact>
</mgrwt>
<rwgt>
<wgt id='morphing_basis_vector_1'> +3.2788843e-04 </wgt>
<wgt id='morphing_basis_vector_2'> +1.9173590e-04 </wgt>
<wgt id='morphing_basis_vector_3'> +1.8896473e-04 </wgt>
<wgt id='morphing_basis_vector_4'> +3.6970157e-05 </wgt>
<wgt id='morphing_basis_vector_5'> +2.0569562e-05 </wgt>
</rwgt>
</event>
<event>
 4      1 +5.5534000e-05 3.53953000e+02 7.81860800e-03 9.80313800e-02
        2 -1    0    0  501    0 +0.0000000000e+00 +0.0000000000e+00 +1.4319474983e+03 1.4319474983e+03 0.0000000000e+00 0.0000e+00 1.0000e+00
       -2 -1    0    0    0  501 -0.0000000000e+00 -0.0000000000e+00 -2.1872786110e+01 2.1872786110e+01 0.0000000000e+00 0.0000e+00 -1.0000e+00
      -13  1    1    2    0    0 +1.4241753973e+02 -8.5171083895e+01 +4.5238118270e+02 4.8185641390e+02 0.0000000000e+00 0.0000e+00 -1.0000e+00
       13  1    1    2    0    0 -1.4241753973e+02 +8.5171083895e+01 +9.5769352949e+02 9.7196387051e+02 0.0000000000e+00 0.0000e+00 1.0000e+00
<mgrwt>
<rscale>  0 0.35395300E+03</rscale>
<asrwt>0</asrwt>
<pdfrwt beam="1">  1        2 0.22029954E+00 0.35395300E+03</pdfrwt>
<pdfrwt beam="2">  1       -2 0.33650451E-02 0.35395300E+03</pdfrwt>
<totfact> 0.56408433E+03</totfact>
</mgrwt>
<rwgt>
<wgt id='morphing_basis_vector_1'> +3.2516306e-04 </wgt>
<wgt id='morphing_basis_vector_2'> +1.8148144e-04 </wgt>
<wgt id='morphing_basis_vector_3'> +1.9387105e-04 </wgt>
<wgt id='morphing_basis_vector_4'> +3.6072357e-05 </wgt>
<wgt id='morphing_basis_vector_5'> +2.0585735e-05 </wgt>
</rwgt>
</event>
<event>
 4      1 +5.5534000e-05 3.18507700e+02 7.81860800e-03 9.93353300e-02
        2 -1    0    0  501    0 +0.0000000000e+00 +0.0000000000e+00 +3.1803420851e+02 3.1803420851e+02 0.0000000000e+00 0.0000e+00 -1.0000e+00
       -2 -1    0    0    0  501 -0.0000000000e+00 -0.0000000000e+00 -7.9745479679e+01 7.9745479679e+01 0.0000000000e+00 0.0000e+00 1.0000e+00
      -13  1    1    2    0    0 -3.6758956608e+00 +9.5907282250e+01 -3.9567676631e+01 1.0381387206e+02 0.0000000000e+00 0.0000e+00 1.0000e+00
       13  1    1    2    0    0 +3.6758956608e+00 -9.5907282250e+01 +2.7785640546e+02 2.9396581613e+02 0.0000000000e+00 0.0000e+00 -1.0000e+00
<mgrwt>
<rscale>  0 0.31850771E+03</rscale>
<asrwt>0</asrwt>
<pdfrwt beam="1">  1        2 0.48928339E-01 0.31850771E+03</pdfrwt>
<pdfrwt beam="2">  1       -2 0.12268536E-01 0.31850771E+03</pdfrwt>
<totfact> 0.52818252E+03</totfact>
</mgrwt>
<rwgt>
<wgt id='morphing_basis_vector_1'> +2.5305074e-04 </wgt>
<wgt id='morphing_basis_vector_2'> +1.3916977e-04 </wgt>
<wgt id='morphing_basis_vector_3'> +1.4986087e-04 </wgt>
<wgt id='morphing_basis_vector_4'> +2.5100130e-05 </wgt>
<wgt id='morphing_basis_vector_5'> +4.7611760e-06 </wgt>
</rwgt>
</event>
<event>
 4      1 +5.5534000e-05 3.04545500e+02 7.81860800e-03 9.99004200e-02
        2 -1    0    0  501    0 +0.0000000000e+00 +0.0000000000e+00 +3.7267052752e+02 3.7267052752e+02 0.0000000000e+00 0.0000e+00 1.0000e+00
       -2 -1    0    0    0  501 -0.0000000000e+00 -0.0000000000e+00 -6.2218476981e+01 6.2218476981e+01 0.0000000000e+00 0.0000e+00 -1.0000e+00
      -13  1    1    2    0    0 -1.4523284569e+02 +3.2733330843e+01 +1.0955384205e+02 1.8484072799e+02 0.0000000000e+00 0.0000e+00 -1.0000e+00
       13  1    1    2    0    0 +1.4523284569e+02 -3.2733330843e+01 +2.0089820849e+02 2.5004827652e+02 0.0000000000e+00 0.0000e+00 1.0000e+00
<mgrwt>
<rscale>  0 0.30454551E+03</rscale>
<asrwt>0</asrwt>
<pdfrwt beam="1">  1        2 0.57333926E-01 0.30454551E+03</pdfrwt>
<pdfrwt beam="2">  1       -2 0.95720736E-02 0.30454551E+03</pdfrwt>
<totfact> 0.65102838E+03</totfact>
</mgrwt>
<rwgt>
<wgt id='morphing_basis_vector_1'> +2.3252138e-04 </wgt>
<wgt id='morphing_basis_vector_2'> +1.3582696e-04 </wgt>
<wgt id='morphing_basis_vector_3'> +1.3101440e-04 </wgt>
<wgt id='morphing_basis_vector_4'> +2.4518438e-05 </wgt>
<wgt id='morphing_basis_vector_5'> +1.8778673e-06 </wgt>
</rwgt>
</event>
<event>
 4      1 +5.5534000e-05 3.33669600e+02 7.81860800e-03 9.87560800e-02
        2 -1    0    0  501    0 +0.0000000000e+00 +0.0000000000e+00 +6.1195182313e+02 6.1195182313e+02 0.0000000000e+00 0.0000e+00 1.0000e+00
       -2 -1    0    0    0  501 -0.0000000000e+00 -0.0000000000e+00 -4.5483719332e+01 4.5483719332e+01 0.0000000000e+00 0.0000e+00 -1.0000e+00
      -13  1    1    2    0    0 -1.0423140904e+02 +3.7732297147e+01 +3.7568102679e+01 1.1704390294e+02 0.0000000000e+00 0.0000e+00 -1.0000e+00
       13  1    1    2    0    0 +1.0423140904e+02 -3.7732297147e+01 +5.2890000112e+02 5.4039163952e+02 0.0000000000e+00 0.0000e+00 1.0000e+00
<mgrwt>
<rscale>  0 0.33366957E+03</rscale>
<asrwt>0</asrwt>
<pdfrwt beam="1">  1        2 0.94146428E-01 0.33366957E+03</pdfrwt>
<pdfrwt beam="2">  1       -2 0.69974957E-02 0.33366957E+03</pdfrwt>
<totfact> 0.60672754E+03</totfact>
</mgrwt>
<rwgt>
<wgt id='morphing_basis_vector_1'> +2.8105525e-04 </wgt>
<wgt id='morphing_basis_vector_2'> +1.5337404e-04 </wgt>
<wgt id='morphing_basis_vector_3'> +1.6803078e-04 </wgt>
<wgt id='morphing_basis_vector_4'> +2.8570049e-05 </wgt>
<wgt id='morphing_basis_vector_5'> +9.9419461e-06 </wgt>
</rwgt>
</event>
<event>
 4      1 +5.5534000e-05 3.16044500e+02 7.81860800e-03 9.94327600e-02
        2 -1    0    0  501    0 +0.0000000000e+00 +0.0000000000e+00 +1.4101605566e+02 1.4101605566e+02 0.0000000000e+00 0.0000e+00 1.0000e+00
       -2 -1    0    0    0  501 -0.0000000000e+00 -0.0000000000e+00 -1.7707930102e+02 1.7707930102e+02 0.0000000000e+00 0.0000e+00 -1.0000e+00
      -13  1    1    2    0    0 +3.6255571207e+01 +4.2882394372e+01 -1.6669815846e+02 1.7590236561e+02 0.0000000000e+00 0.0000e+00 -1.0000e+00
       13  1    1    2    0    0 -3.6255571207e+01 -4.2882394372e+01 +1.3063491310e+02 1.4219299108e+02 0.0000000000e+00 0.0000e+00 1.0000e+00
<mgrwt>
<rscale>  0 0.31604446E+03</rscale>
<asrwt>0</asrwt>
<pdfrwt beam="1">  1        2 0.21694778E-01 0.31604446E+03</pdfrwt>
<pdfrwt beam="2">  1       -2 0.27242969E-01 0.31604446E+03</pdfrwt>
<totfact> 0.36156989E+03</totfact>
</mgrwt>
<rwgt>
<wgt id='morphing_basis_vector_1'> +2.4867918e-04 </wgt>
<wgt id='morphing_basis_vector_2'> +1.3678934e-04 </wgt>
<wgt id='morphing_basis_vector_3'> +1.4724728e-04 </wgt>
<wgt id='morphing_basis_vector_4'> +2.4621959e-05 </wgt>
<wgt id='morphing_basis_vector_5'> +4.1109933e-06 </wgt>
</rwgt>
</event>
<event>
 4      1 +5.5534000e-05 3.23223200e+02 7.81860800e-03 9.91514900e-02
        2 -1    0    0  501    0 +0.0000000000e+00 +0.0000000000e+00 +3.9698131611e+02 3.9698131611e+02 0.0000000000e+00 0.0000e+00 1.0000e+00
       -2 -1    0    0    0  501 -0.0000000000e+00 -0.0000000000e+00 -6.5792282506e+01 6.5792282506e+01 0.0000000000e+00 0.0000e+00 -1.0000e+00
      -13  1    1    2    0    0 +1.2966975512e+02 -6.2768620400e+01 +6.0732790565e+01 1.5634134754e+02 0.0000000000e+00 0.0000e+00 -1.0000e+00
       13  1    1    2    0    0 -1.2966975512e+02 +6.2768620400e+01 +2.7045624303e+02 3.0643225107e+02 0.0000000000e+00 0.0000e+00 1.0000e+00
<mgrwt>
<rscale>  0 0.32322319E+03</rscale>
<asrwt>0</asrwt>
<pdfrwt beam="1">  1        2 0.61074047E-01 0.32322319E+03</pdfrwt>
<pdfrwt beam="2">  1       -2 0.10121890E-01 0.32322319E+03</pdfrwt>
<totfact> 0.55824375E+03</totfact>
</mgrwt>
<rwgt>
<wgt id='morphing_basis_vector_1'> +2.6250216e-04 </wgt>
<wgt id='morphing_basis_vector_2'> +1.4643857e-04 </wgt>
<wgt id='morphing_basis_vector_3'> +1.5383541e-04 </wgt>
<wgt id='morphing_basis_vector_4'> +2.6490975e-05 </wgt>
<wgt id='morphing_basis_vector_5'> +6.2005786e-06 </wgt>
</rwgt>
</event>
<event>
 4      1 +5.5534000e-05 3.17437900e+02 7.81860800e-03 9.93775300e-02
        2 -1    0    0  501    0 +0.0000000000e+00 +0.0000000000e+00 +2.4461998077e+01 2.4461998077e+01 0.0000000000e+00 0.0000e+00 -1.0000e+00
       -2 -1    0    0    0  501 -0.0000000000e+00 -0.0000000000e+00 -1.0298305304e+03 1.0298305304e+03 0.0000000000e+00 0.0000e+00 1.0000e+00
      -13  1    1    2    0    0 +7.7560110075e+01 -1.3795430619e+02 -4.6272538230e+02 4.8904165538e+02 0.0000000000e+00 0.0000e+00 1.0000e+00
       13  1    1    2    0    0 -7.7560110075e+01 +1.3795430619e+02 -5.4264315003e+02 5.6525087311e+02 0.0000000000e+00 0.0000e+00 -1.0000e+00
<mgrwt>
<rscale>  0 0.31743795E+03</rscale>
<asrwt>0</asrwt>
<pdfrwt beam="1">  1        2 0.37633843E-02 0.31743795E+03</pdfrwt>
<pdfrwt beam="2">  1       -2 0.15843547E+00 0.31743795E+03</pdfrwt>
<totfact> 0.76685234E+02</totfact>
</mgrwt>
<rwgt>
<wgt id='morphing_basis_vector_1'> +2.6068243e-04 </wgt>
<wgt id='morphing_basis_vector_2'> +1.6586007e-04 </wgt>
<wgt id='morphing_basis_vector_3'> +1.3544450e-04 </wgt>
<wgt id='morphing_basis_vector_4'> +2.9306459e-05 </wgt>
<wgt id='morphing_basis_vector_5'> +4.9383177e-06 </wgt>
</rwgt>
</event>
<event>
 4      1 +5.5534000e-05 3.03707500e+02 7.81860800e-03 9.99353600e-02
        2 -1    0    0  501    0 +0.0000000000e+00 +0.0000000000e+00 +1.8267731117e+03 1.8267731117e+03 0.0000000000e+00 0.0000e+00 -1.0000e+00
       -2 -1    0    0    0  501 -0.0000000000e+00 -0.0000000000e+00 -1.2623109748e+01 1.2623109748e+01 0.0000000000e+00 0.0000e+00 1.0000e+00
      -13  1    1    2    0    0 -3.8155704308e+01 +1.4697074925e+02 +8.9607525884e+02 9.0884934308e+02 0.0000000000e+00 0.0000e+00 1.0000e+00
       13  1    1    2    0    0 +3.8155704308e+01 -1.4697074925e+02 +9.1807474309e+02 9.3054687835e+02 0.0000000000e+00 0.0000e+00 -1.0000e+00
<mgrwt>
<rscale>  0 0.30370747E+03</rscale>
<asrwt>0</asrwt>
<pdfrwt beam="1">  1        2 0.28104181E+00 0.30370747E+03</pdfrwt>
<pdfrwt beam="2">  1       -2 0.19420183E-02 0.30370747E+03</pdfrwt>
<totfact> 0.77577998E+03</totfact>
</mgrwt>
<rwgt>
<wgt id='morphing_basis_vector_1'> +2.3448740e-04 </wgt>
<wgt id='morphing_basis_vector_2'> +1.4462362e-04 </wgt>
<wgt id='morphing_basis_vector_3'> +1.2538200e-04 </wgt>
<wgt id='morphing_basis_vector_4'> +2.6157349e-05 </wgt>
<wgt id='morphing_basis_vector_5'> +1.8748406e-06 </wgt>
</rwgt>
</event>
<event>
 4      1 +5.5534000e-05 3.35914500e+02 7.81860800e-03 9.86731600e-02
        2 -1    0    0  501    0 +0.0000000000e+00 +0.0000000000e+00 +2.5079477680e+02 2.5079477680e+02 0.0000000000e+00 0.0000e+00 -1.0000e+00
       -2 -1    0    0    0  501 -0.0000000000e+00 -0.0000000000e+00 -1.1248093949e+02 1.1248093949e+02 0.0000000000e+00 0.0000e+00 1.0000e+00
      -13  1    1    2    0    0 -4.4797402184e+01 +1.6134264019e+02 +5.4999491352e+01 1.7624754987e+02 0.0000000000e+00 0.0000e+00 1.0000e+00
       13  1    1    2    0    0 +4.4797402184e+01 -1.6134264019e+02 +8.3314345959e+01 1.8702816641e+02 0.0000000000e+00 0.0000e+00 -1.0000e+00
<mgrwt>
<rscale>  0 0.33591447E+03</rscale>
<asrwt>0</asrwt>
<pdfrwt beam="1">  1        2 0.38583812E-01 0.33591447E+03</pdfrwt>
<pdfrwt beam="2">  1       -2 0.17304760E-01 0.33591447E+03</pdfrwt>
<totfact> 0.39853025E+03</totfact>
</mgrwt>
<rwgt>
<wgt id='morphing_basis_vector_1'> +2.9156920e-04 </wgt>
<wgt id='morphing_basis_vector_2'> +1.7373125e-04 </wgt>
<wgt id='morphing_basis_vector_3'> +1.6297048e-04 </wgt>
<wgt id='morphing_basis_vector_4'> +3.1521062e-05 </wgt>
<wgt id='morphing_basis_vector_5'> +1.1250006e-05 </wgt>
</rwgt>
</event>
<event>
 4      1 +5.5534000e-05 3.58559900e+02 7.81860800e-03 9.78740800e-02
        2 -1    0    0  501    0 +0.0000000000e+00 +0.0000000000e+00 +2.4413282858e+02 2.4413282858e+02 0.0000000000e+00 0.0000e+00 1.0000e+00
       -2 -1    0    0    0  501 -0.0000000000e+00 -0.0000000000e+00 -1.3165497113e+02 1.3165497113e+02 0.0000000000e+00 0.0000e+00 -1.0000e+00
      -13  1    1    2    0    0 -2.1395383309e+01 -8.5194661789e+01 -1.0755653448e+02 1.3886792622e+02 0.0000000000e+00 0.0000e+00 -1.0000e+00
       13  1    1    2    0    0 +2.1395383309e+01 +8.5194661789e+01 +2.2003439193e+02 2.3691987349e+02 0.0000000000e+00 0.0000e+00 1.0000e+00
<mgrwt>
<rscale>  0 0.35855990E+03</rscale>
<asrwt>0</asrwt>
<pdfrwt beam="1">  1        2 0.37558897E-01 0.35855990E+03</pdfrwt>
<pdfrwt beam="2">  1       -2 0.20254611E-01 0.35855990E+03</pdfrwt>
<totfact> 0.31845859E+03</totfact>
</mgrwt>
<rwgt>
<wgt id='morphing_basis_vector_1'> +3.3304301e-04 </wgt>
<wgt id='morphing_basis_vector_2'> +1.7963853e-04 </wgt>
<wgt id='morphing_basis_vector_3'> +2.0393412e-04 </wgt>
<wgt id='morphing_basis_vector_4'> +3.7329227e-05 </wgt>
<wgt id='morphing_basis_vector_5'> +2.3449564e-05 </wgt>
</rwgt>
</event>
<event>
 4      1 +5.5534000e-05 3.22215800e+02 7.81860800e-03 9.91904700e-02
        2 -1    0    0  501    0 +0.0000000000e+00 +0.0000000000e+00 +1.1202322235e+02 1.1202322235e+02 0.0000000000e+00 0.0000e+00 1.0000e+00
       -2 -1    0    0    0  501 -0.0000000000e+00 -0.0000000000e+00 -2.3169983851e+02 2.3169983851e+02 0.0000000000e+00 0.0000e+00 -1.0000e+00
      -13  1    1    2    0    0 +1.3595959859e+02 -8.6012173348e+01 -6.8931112790e+01 1.7502743992e+02 0.0000000000e+00 0.0000e+00 -1.0000e+00
       13  1    1    2    0    0 -1.3595959859e+02 +8.6012173348e+01 -5.0745503369e+01 1.6869562095e+02 0.0000000000e+00 0.0000e+00 1.0000e+00
<mgrwt>
<rscale>  0 0.32221584E+03</rscale>
<asrwt>0</asrwt>
<pdfrwt beam="1">  1        2 0.17234342E-01 0.32221584E+03</pdfrwt>
<pdfrwt beam="2">  1       -2 0.35646128E-01 0.32221584E+03</pdfrwt>
<totfact> 0.29719298E+03</totfact>
</mgrwt>
<rwgt>
<wgt id='morphing_basis_vector_1'> +2.6575394e-04 </wgt>
<wgt id='morphing_basis_vector_2'> +1.6032707e-04 </wgt>
<wgt id='morphing_basis_vector_3'> +1.4571950e-04 </wgt>
<wgt id='morphing_basis_vector_4'> +2.8525860e-05 </wgt>
<wgt id='morphing_basis_vector_5'> +6.1492389e-06 </wgt>
</rwgt>
</event>
<event>
 4      1 +5.5534000e-05 3.12739400e+02 7.81860800e-03 9.95649900e-02
        2 -1    0    0  501    0 +0.0000000000e+00 +0.0000000000e+00 +6.5919215285e+01 6.5919215285e+01 0.0000000000e+00 0.0000e+00 -1.0000e+00
       -2 -1    0    0    0  501 -0.0000000000e+00 -0.0000000000e+00 -3.7093114846e+02 3.7093114846e+02 0.0000000000e+00 0.0000e+00 1.0000e+00
      -13  1    1    2    0    0 +8.6525885003e+01 +6.1335045521e+01 -3.1300877220e+02 3.3048934636e+02 0.0000000000e+00 0.0000e+00 1.0000e+00
       13  1    1    2    0    0 -8.6525885003e+01 -6.1335045521e+01 +7.9968390238e+00 1.0636101738e+02 0.0000000000e+00 0.0000e+00 -1.0000e+00
<mgrwt>
<rscale>  0 0.31273945E+03</rscale>
<asrwt>0</asrwt>
<pdfrwt beam="1">  1        2 0.10141418E-01 0.31273945E+03</pdfrwt>
<pdfrwt beam="2">  1       -2 0.57066330E-01 0.31273945E+03</pdfrwt>
<totfact> 0.23498222E+03</totfact>
</mgrwt>
<rwgt>
<wgt id='morphing_basis_vector_1'> +2.4321476e-04 </wgt>
<wgt id='morphing_basis_vector_2'> +1.3450800e-04 </wgt>
<wgt id='morphing_basis_vector_3'> +1.4342652e-04 </wgt>
<wgt id='morphing_basis_vector_4'> +2.4169758e-05 </wgt>
<wgt id='morphing_basis_vector_5'> +3.3332711e-06 </wgt>
</rwgt>
</event>
<event>
 4      1 +5.5534000e-05 3.12495100e+02 7.81860800e-03 9.95748300e-02
        2 -1    0    0  501    0 +0.0000000000e+00 +0.0000000000e+00 +2.0681851199e+02 2.0681851199e+02 0.0000000000e+00 0.0000e+00 -1.0000e+00
       -2 -1    0    0    0  501 -0.0000000000e+00 -0.0000000000e+00 -1.1804212674e+02 1.1804212674e+02 0.0000000000e+00 0.0000e+00 1.0000e+00
      -13  1    1    2    0    0 -1.3027943679e+01 +1.1896023788e+02 +1.4882249726e+02 1.9096963425e+02 0.0000000000e+00 0.0000e+00 1.0000e+00
       13  1    1    2    0    0 +1.3027943679e+01 -1.1896023788e+02 -6.0046112004e+01 1.3389100448e+02 0.0000000000e+00 0.0000e+00 -1.0000e+00
<mgrwt>
<rscale>  0 0.31249510E+03</rscale>
<asrwt>0</asrwt>
<pdfrwt beam="1">  1        2 0.31818233E-01 0.31249510E+03</pdfrwt>
<pdfrwt beam="2">  1       -2 0.18160327E-01 0.31249510E+03</pdfrwt>
<totfact> 0.45637813E+03</totfact>
</mgrwt>
<rwgt>
<wgt id='morphing_basis_vector_1'> +2.9894927e-04 </wgt>
<wgt id='morphing_basis_vector_2'> +2.9670411e-04 </wgt>
<wgt id='morphing_basis_vector_3'> +6.3739988e-05 </wgt>
<wgt id='morphing_basis_vector_4'> +5.1344170e-05 </wgt>
<wgt id='morphing_basis_vector_5'> +5.8425695e-06 </wgt>
</rwgt>
</event>
<event>
 4      1 +5.5534000e-05 3.48033400e+02 7.81860800e-03 9.82373400e-02
        2 -1    0    0  501    0 +0.0000000000e+00 +0.0000000000e+00 +3.2013954223e+02 3.2013954223e+02 0.0000000000e+00 0.0000e+00 1.0000e+00
       -2 -1    0    0    0  501 -0.0000000000e+00 -0.0000000000e+00 -9.4589413971e+01 9.4589413971e+01 0.0000000000e+00 0.0000e+00 -1.0000e+00
      -13  1    1    2    0    0 -3.0901931695e+01 -1.6078198654e+02 +1.8303140276e+02 2.4557335151e+02 0.0000000000e+00 0.0000e+00 -1.0000e+00
       13  1    1    2    0    0 +3.0901931695e+01 +1.6078198654e+02 +4.2518725503e+01 1.6915560469e+02 0.0000000000e+00 0.0000e+00 1.0000e+00
<mgrwt>
<rscale>  0 0.34803340E+03</rscale>
<asrwt>0</asrwt>
<pdfrwt beam="1">  1        2 0.49252237E-01 0.34803340E+03</pdfrwt>
<pdfrwt beam="2">  1       -2 0.14552218E-01 0.34803340E+03</pdfrwt>
<totfact> 0.40174133E+03</totfact>
</mgrwt>
<rwgt>
<wgt id='morphing_basis_vector_1'> +3.4019269e-04 </wgt>
<wgt id='morphing_basis_vector_2'> +2.5775796e-04 </wgt>
<wgt id='morphing_basis_vector_3'> +1.5060446e-04 </wgt>
<wgt id='morphing_basis_vector_4'> +4.2770745e-05 </wgt>
<wgt id='morphing_basis_vector_5'> +1.8784853e-05 </wgt>
</rwgt>
</event>
<event>
 4      1 +5.5534000e-05 3.01554800e+02 7.81860800e-03 1.00025600e-01
        2 -1    0    0  501    0 +0.0000000000e+00 +0.0000000000e+00 +6.9703115938e+02 6.9703115938e+02 0.0000000000e+00 0.0000e+00 -1.0000e+00
       -2 -1    0    0    0  501 -0.0000000000e+00 -0.0000000000e+00 -3.2615210838e+01 3.2615210838e+01 0.0000000000e+00 0.0000e+00 1.0000e+00
      -13  1    1    2    0    0 +1.2763706907e+02 -8.0696761447e+00 +1.3897969130e+02 1.8886952022e+02 0.0000000000e+00 0.0000e+00 1.0000e+00
       13  1    1    2    0    0 -1.2763706907e+02 +8.0696761447e+00 +5.2543625725e+02 5.4077685001e+02 0.0000000000e+00 0.0000e+00 -1.0000e+00
<mgrwt>
<rscale>  0 0.30155476E+03</rscale>
<asrwt>0</asrwt>
<pdfrwt beam="1">  1        2 0.10723555E+00 0.30155476E+03</pdfrwt>
<pdfrwt beam="2">  1       -2 0.50177252E-02 0.30155476E+03</pdfrwt>
<totfact> 0.85730580E+03</totfact>
</mgrwt>
<rwgt>
<wgt id='morphing_basis_vector_1'> +2.2552036e-04 </wgt>
<wgt id='morphing_basis_vector_2'> +1.2700727e-04 </wgt>
<wgt id='morphing_basis_vector_3'> +1.3139257e-04 </wgt>
<wgt id='morphing_basis_vector_4'> +2.3034831e-05 </wgt>
<wgt id='morphing_basis_vector_5'> +1.3452955e-06 </wgt>
</rwgt>
</event>
<event>
 4      1 +5.5534000e-05 3.21681700e+02 7.81860800e-03 9.92112100e-02
        2 -1    0    0  501    0 +0.0000000000e+00 +0.0000000000e+00 +3.1825193799e+02 3.1825193799e+02 0.0000000000e+00 0.0000e+00 -1.0000e+00
       -2 -1    0    0    0  501 -0.0000000000e+00 -0.0000000000e+00 -8.1287113663e+01 8.1287113663e+01 0.0000000000e+00 0.0000e+00 1.0000e+00
      -13  1    1    2    0    0 -2.2504100348e+01 +1.1471439380e+02 -1.8726763044e+01 1.1839137777e+02 0.0000000000e+00 0.0000e+00 1.0000e+00
       13  1    1    2    0    0 +2.2504100348e+01 -1.1471439380e+02 +2.5569158737e+02 2.8114767388e+02 0.0000000000e+00 0.0000e+00 -1.0000e+00
<mgrwt>
<rscale>  0 0.32168172E+03</rscale>
<asrwt>0</asrwt>
<pdfrwt beam="1">  1        2 0.48961836E-01 0.32168172E+03</pdfrwt>
<pdfrwt beam="2">  1       -2 0.12505710E-01 0.32168172E+03</pdfrwt>
<totfact> 0.51237214E+03</totfact>
</mgrwt>
<rwgt>
<wgt id='morphing_basis_vector_1'> +2.5884993e-04 </wgt>
<wgt id='morphing_basis_vector_2'> +1.4248377e-04 </wgt>
<wgt id='morphing_basis_vector_3'> +1.5323746e-04 </wgt>
<wgt id='morphing_basis_vector_4'> +2.5790344e-05 </wgt>
<wgt id='morphing_basis_vector_5'> +5.6803427e-06 </wgt>
</rwgt>
</event>
<event>
 4      1 +5.5534000e-05 3.40981800e+02 7.81860800e-03 9.84885400e-02
        2 -1    0    0  501    0 +0.0000000000e+00 +0.0000000000e+00 +1.0218743342e+03 1.0218743342e+03 0.0000000000e+00 0.0000e+00 -1.0000e+00
       -2 -1    0    0    0  501 -0.0000000000e+00 -0.0000000000e+00 -2.8444938164e+01 2.8444938164e+01 0.0000000000e+00 0.0000e+00 1.0000e+00
      -13  1    1    2    0    0 +1.3138697671e+02 -1.0647473600e+02 +4.3009621135e+02 4.6214949753e+02 0.0000000000e+00 0.0000e+00 1.0000e+00
       13  1    1    2    0    0 -1.3138697671e+02 +1.0647473600e+02 +5.6333318473e+02 5.8816977487e+02 0.0000000000e+00 0.0000e+00 -1.0000e+00
<mgrwt>
<rscale>  0 0.34098183E+03</rscale>
<asrwt>0</asrwt>
<pdfrwt beam="1">  1        2 0.15721141E+00 0.34098183E+03</pdfrwt>
<pdfrwt beam="2">  1       -2 0.43761451E-02 0.34098183E+03</pdfrwt>
<totfact> 0.64805306E+03</totfact>
</mgrwt>
<rwgt>
<wgt id='morphing_basis_vector_1'> +3.0080915e-04 </wgt>
<wgt id='morphing_basis_vector_2'> +1.7636975e-04 </wgt>
<wgt id='morphing_basis_vector_3'> +1.7103819e-04 </wgt>
<wgt id='morphing_basis_vector_4'> +3.2595734e-05 </wgt>
<wgt id='morphing_basis_vector_5'> +1.3544337e-05 </wgt>
</rwgt>
</event>
<event>
 4      1 +5.5534000e-05 3.53330500e+02 7.81860800e-03 9.80528400e-02
        2 -1    0    0  501    0 +0.0000000000e+00 +0.0000000000e+00 +7.7394056669e+01 7.7394056669e+01 0.0000000000e+00 0.0000e+00 -1.0000e+00
       -2 -1    0    0    0  501 -0.0000000000e+00 -0.0000000000e+00 -4.0326877069e+02 4.0326877069e+02 0.0000000000e+00 0.0000e+00 1.0000e+00
      -13  1    1    2    0    0 -1.2797842949e+02 +8.7962033606e+01 -2.7752288578e+02 3.1801690191e+02 0.0000000000e+00 0.0000e+00 1.0000e+00
       13  1    1    2    0    0 +1.2797842949e+02 -8.7962033606e+01 -4.8351828240e+01 1.6264592545e+02 0.0000000000e+00 0.0000e+00 -1.0000e+00
<mgrwt>
<rscale>  0 0.35333047E+03</rscale>
<asrwt>0</asrwt>
<pdfrwt beam="1">  1        2 0.11906778E-01 0.35333047E+03</pdfrwt>
<pdfrwt beam="2">  1       -2 0.62041350E-01 0.35333047E+03</pdfrwt>
<totfact> 0.16300289E+03</totfact>
</mgrwt>
<rwgt>
<wgt id='morphing_basis_vector_1'> +3.2266910e-04 </wgt>
<wgt id='morphing_basis_vector_2'> +1.7739934e-04 </wgt>
<wgt id='morphing_basis_vector_3'> +1.9427451e-04 </wgt>
<wgt id='morphing_basis_vector_4'> +3.5494404e-05 </wgt>
<wgt id='morphing_basis_vector_5'> +2.0125369e-05 </wgt>
</rwgt>
</event>
<event>
 4      1 +5.5534000e-05 3.17933200e+02 7.81860800e-03 9.93579700e-02
        2 -1    0    0  501    0 +0.0000000000e+00 +0.0000000000e+00 +4.9480447021e+02 4.9480447021e+02 0.0000000000e+00 0.0000e+00 -1.0000e+00
       -2 -1    0    0    0  501 -0.0000000000e+00 -0.0000000000e+00 -5.1071436624e+01 5.1071436624e+01 0.0000000000e+00 0.0000e+00 1.0000e+00
      -13  1    1    2    0    0 -7.6445705925e+01 +4.4822978658e+01 -4.7277271446e+00 8.8743432287e+01 0.0000000000e+00 0.0000e+00 1.0000e+00
       13  1    1    2    0    0 +7.6445705925e+01 -4.4822978658e+01 +4.4846076073e+02 4.5713247455e+02 0.0000000000e+00 0.0000e+00 -1.0000e+00
<mgrwt>
<rscale>  0 0.31793317E+03</rscale>
<asrwt>0</asrwt>
<pdfrwt beam="1">  1        2 0.76123761E-01 0.31793317E+03</pdfrwt>
<pdfrwt beam="2">  1       -2 0.78571444E-02 0.31793317E+03</pdfrwt>
<totfact> 0.64547068E+03</totfact>
</mgrwt>
<rwgt>
<wgt id='morphing_basis_vector_1'> +2.5201391e-04 </wgt>
<wgt id='morphing_basis_vector_2'> +1.3857887e-04 </wgt>
<wgt id='morphing_basis_vector_3'> +1.4926077e-04 </wgt>
<wgt id='morphing_basis_vector_4'> +2.4980779e-05 </wgt>
<wgt id='morphing_basis_vector_5'> +4.6042947e-06 </wgt>
</rwgt>
</event>
<event>
 4      1 +5.5534000e-05 3.02587200e+02 7.81860800e-03 9.99822400e-02
        2 -1    0    0  501    0 +0.0000000000e+00 +0.0000000000e+00 +1.2622632445e+03 1.2622632445e+03 0.0000000000e+00 0.0000e+00 -1.0000e+00
       -2 -1    0    0    0  501 -0.0000000000e+00 -0.0000000000e+00 -1.8133895294e+01 1.8133895294e+01 0.0000000000e+00 0.0000e+00 1.0000e+00
      -13  1    1    2    0    0 -4.8052587646e+01 -1.4257022529e+02 +6.8956061432e+02 7.0578265857e+02 0.0000000000e+00 0.0000e+00 1.0000e+00
       13  1    1    2    0    0 +4.8052587646e+01 +1.4257022529e+02 +5.5456873487e+02 5.7461448120e+02 0.0000000000e+00 0.0000e+00 -1.0000e+00
<mgrwt>
<rscale>  0 0.30258717E+03</rscale>
<asrwt>0</asrwt>
<pdfrwt beam="1">  1        2 0.19419428E+00 0.30258717E+03</pdfrwt>
<pdfrwt beam="2">  1       -2 0.27898310E-02 0.30258717E+03</pdfrwt>
<totfact> 0.91743205E+03</totfact>
</mgrwt>
<rwgt>
<wgt id='morphing_basis_vector_1'> +2.3593736e-04 </wgt>
<wgt id='morphing_basis_vector_2'> +1.5295665e-04 </wgt>
<wgt id='morphing_basis_vector_3'> +1.1956161e-04 </wgt>
<wgt id='morphing_basis_vector_4'> +2.7762573e-05 </wgt>
<wgt id='morphing_basis_vector_5'> +1.8265559e-06 </wgt>
</rwgt>
</event>
<event>
 4      1 +5.5534000e-05 3.20567000e+02 7.81860800e-03 9.92546200e-02
        2 -1    0    0  501    0 +0.0000000000e+00 +0.0000000000e+00 +3.8870615411e+02 3.8870615411e+02 0.0000000000e+00 0.0000e+00 1.0000e+00
       -2 -1    0    0    0  501 -0.0000000000e+00 -0.0000000000e+00 -6.6093126374e+01 6.6093126374e+01 0.0000000000e+00 0.0000e+00 -1.0000e+00
      -13  1    1    2    0    0 +1.4385779901e+02 +4.8840509190e+01 +8.8821248994e+01 1.7598203302e+02 0.0000000000e+00 0.0000e+00 1.0000e+00
       13  1    1    2    0    0 -1.4385779901e+02 -4.8840509190e+01 +2.3379177874e+02 2.7881724746e+02 0.0000000000e+00 0.0000e+00 -1.0000e+00
<mgrwt>
<rscale>  0 0.32056703E+03</rscale>
<asrwt>0</asrwt>
<pdfrwt beam="1">  1        2 0.59800946E-01 0.32056703E+03</pdfrwt>
<pdfrwt beam="2">  1       -2 0.10168173E-01 0.32056703E+03</pdfrwt>
<totfact> 0.56717154E+03</totfact>
</mgrwt>
<rwgt>
<wgt id='morphing_basis_vector_1'> +2.5870405e-04 </wgt>
<wgt id='morphing_basis_vector_2'> +1.4686372e-04 </wgt>
<wgt id='morphing_basis_vector_3'> +1.4941800e-04 </wgt>
<wgt id='morphing_basis_vector_4'> +2.6397599e-05 </wgt>
<wgt id='morphing_basis_vector_5'> +5.4438908e-06 </wgt>
</rwgt>
</event>
<event>
 4      1 +5.5534000e-05 3.57970800e+02 7.81860800e-03 9.78940500e-02
        2 -1    0    0  501    0 +0.0000000000e+00 +0.0000000000e+00 +4.2200751827e+02 4.2200751827e+02 0.0000000000e+00 0.0000e+00 1.0000e+00
       -2 -1    0    0    0  501 -0.0000000000e+00 -0.0000000000e+00 -7.5912814957e+01 7.5912814957e+01 0.0000000000e+00 0.0000e+00 -1.0000e+00
      -13  1    1    2    0    0 -4.0549548780e+01 +1.1940545955e+02 -3.6301369953e+00 1.2615509332e+02 0.0000000000e+00 0.0000e+00 -1.0000e+00
       13  1    1    2    0    0 +4.0549548780e+01 -1.1940545955e+02 +3.4972484031e+02 3.7176523991e+02 0.0000000000e+00 0.0000e+00 1.0000e+00
<mgrwt>
<rscale>  0 0.35797083E+03</rscale>
<asrwt>0</asrwt>
<pdfrwt beam="1">  1        2 0.64924232E-01 0.35797083E+03</pdfrwt>
<pdfrwt beam="2">  1       -2 0.11678895E-01 0.35797083E+03</pdfrwt>
<totfact> 0.41918433E+03</totfact>
</mgrwt>
<rwgt>
<wgt id='morphing_basis_vector_1'> +3.3197750e-04 </wgt>
<wgt id='morphing_basis_vector_2'> +1.7974192e-04 </wgt>
<wgt id='morphing_basis_vector_3'> +2.0268798e-04 </wgt>
<wgt id='morphing_basis_vector_4'> +3.7142495e-05 </wgt>
<wgt id='morphing_basis_vector_5'> +2.3067161e-05 </wgt>
</rwgt>
</event>
<event>
 4      1 +5.5534000e-05 3.55653500e+02 7.81860800e-03 9.79730200e-02
        2 -1    0    0  501    0 +0.0000000000e+00 +0.0000000000e+00 +6.8880681809e+01 6.8880681809e+01 0.0000000000e+00 0.0000e+00 -1.0000e+00
       -2 -1    0    0    0  501 -0.0000000000e+00 -0.0000000000e+00 -4.5908882991e+02 4.5908882991e+02 0.0000000000e+00 0.0000e+00 1.0000e+00
      -13  1    1    2    0    0 -8.9104453108e+01 +3.6086515494e+01 -4.1718781811e+02 4.2812091253e+02 0.0000000000e+00 0.0000e+00 1.0000e+00
       13  1    1    2    0    0 +8.9104453108e+01 -3.6086515494e+01 +2.6979670018e+01 9.9848599182e+01 0.0000000000e+00 0.0000e+00 -1.0000e+00
<mgrwt>
<rscale>  0 0.35565349E+03</rscale>
<asrwt>0</asrwt>
<pdfrwt beam="1">  1        2 0.10597028E-01 0.35565349E+03</pdfrwt>
<pdfrwt beam="2">  1       -2 0.70629049E-01 0.35565349E+03</pdfrwt>
<totfact> 0.14412750E+03</totfact>
</mgrwt>
<rwgt>
<wgt id='morphing_basis_vector_1'> +3.2655694e-04 </wgt>
<wgt id='morphing_basis_vector_2'> +1.7635035e-04 </wgt>
<wgt id='morphing_basis_vector_3'> +1.9933605e-04 </wgt>
<wgt id='morphing_basis_vector_4'> +3.6085732e-05 </wgt>
<wgt id='morphing_basis_vector_5'> +2.1520387e-05 </wgt>
</rwgt>
</event>
<event>
 4      1 +5.5534000e-05 3.05089500e+02 7.81860800e-03 9.98778100e-02
        2 -1    0    0  501    0 +0.0000000000e+00 +0.0000000000e+00 +1.9215514955e+02 1.9215514955e+02 0.0000000000e+00 0.0000e+00 -1.0000e+00
       -2 -1    0    0    0  501 -0.0000000000e+00 -0.0000000000e+00 -1.2109952264e+02 1.2109952264e+02 0.0000000000e+00 0.0000e+00 1.0000e+00
      -13  1    1    2    0    0 +1.8471187860e+01 +5.3381363163e+01 -1.0996545811e+02 1.2362506498e+02 0.0000000000e+00 0.0000e+00 1.0000e+00
       13  1    1    2    0    0 -1.8471187860e+01 -5.3381363163e+01 +1.8102108501e+02 1.8962960721e+02 0.0000000000e+00 0.0000e+00 -1.0000e+00
<mgrwt>
<rscale>  0 0.30508947E+03</rscale>
<asrwt>0</asrwt>
<pdfrwt beam="1">  1        2 0.29562331E-01 0.30508947E+03</pdfrwt>
<pdfrwt beam="2">  1       -2 0.18630696E-01 0.30508947E+03</pdfrwt>
<totfact> 0.47535378E+03</totfact>
</mgrwt>
<rwgt>
<wgt id='morphing_basis_vector_1'> +2.3047356e-04 </wgt>
<wgt id='morphing_basis_vector_2'> +1.2788408e-04 </wgt>
<wgt id='morphing_basis_vector_3'> +1.3578418e-04 </wgt>
<wgt id='morphing_basis_vector_4'> +2.3068418e-05 </wgt>
<wgt id='morphing_basis_vector_5'> +1.8491202e-06 </wgt>
</rwgt>
</event>
<event>
 4      1 +5.5534000e-05 3.21034500e+02 7.81860800e-03 9.92363900e-02
        2 -1    0    0  501    0 +0.0000000000e+00 +0.0000000000e+00 +4.3561733282e+02 4.3561733282e+02 0.0000000000e+00 0.0000e+00 -1.0000e+00
       -2 -1    0    0    0  501 -0.0000000000e+00 -0.0000000000e+00 -5.9147762258e+01 5.9147762258e+01 0.0000000000e+00 0.0000e+00 1.0000e+00
      -13  1    1    2    0    0 -1.0745043285e+01 +9.4392653762e+01 -1.1167319054e+01 9.5656353967e+01 0.0000000000e+00 0.0000e+00 1.0000e+00
       13  1    1    2    0    0 +1.0745043285e+01 -9.4392653762e+01 +3.8763688961e+02 3.9910874111e+02 0.0000000000e+00 0.0000e+00 -1.0000e+00
<mgrwt>
<rscale>  0 0.32103452E+03</rscale>
<asrwt>0</asrwt>
<pdfrwt beam="1">  1        2 0.67018049E-01 0.32103452E+03</pdfrwt>
<pdfrwt beam="2">  1       -2 0.90996560E-02 0.32103452E+03</pdfrwt>
<totfact> 0.59380786E+03</totfact>
</mgrwt>
<rwgt>
<wgt id='morphing_basis_vector_1'> +2.5750669e-04 </wgt>
<wgt id='morphing_basis_vector_2'> +1.4136097e-04 </wgt>
<wgt id='morphing_basis_vector_3'> +1.5274784e-04 </wgt>
<wgt id='morphing_basis_vector_4'> +2.5577850e-05 </wgt>
<wgt id='morphing_basis_vector_5'> +5.4779540e-06 </wgt>
</rwgt>
</event>
<event>
 4      1 +5.5534000e-05 3.59433400e+02 7.81860800e-03 9.78445400e-02
        2 -1    0    0  501    0 +0.0000000000e+00 +0.0000000000e+00 +5.6567562558e+02 5.6567562558e+02 0.0000000000e+00 0.0000e+00 1.0000e+00
       -2 -1    0    0    0  501 -0.0000000000e+00 -0.0000000000e+00 -5.7096482059e+01 5.7096482059e+01 0.0000000000e+00 0.0000e+00 -1.0000e+00
      -13  1    1    2    0    0 -6.2882922092e+01 +1.4899637236e+02 +3.9009998735e+02 4.2229395093e+02 0.0000000000e+00 0.0000e+00 1.0000e+00
       13  1    1    2    0    0 +6.2882922092e+01 -1.4899637236e+02 +1.1847915617e+02 2.0047815670e+02 0.0000000000e+00 0.0000e+00 -1.0000e+00
<mgrwt>
<rscale>  0 0.35943338E+03</rscale>
<asrwt>0</asrwt>
<pdfrwt beam="1">  1        2 0.87027015E-01 0.35943338E+03</pdfrwt>
<pdfrwt beam="2">  1       -2 0.87840746E-02 0.35943338E+03</pdfrwt>
<totfact> 0.47003403E+03</totfact>
</mgrwt>
<rwgt>
<wgt id='morphing_basis_vector_1'> +3.7989483e-04 </wgt>
<wgt id='morphing_basis_vector_2'> +3.1536630e-04 </wgt>
<wgt id='morphing_basis_vector_3'> +1.5267540e-04 </wgt>
<wgt id='morphing_basis_vector_4'> +4.9610956e-05 </wgt>
<wgt id='morphing_basis_vector_5'> +2.6938461e-05 </wgt>
</rwgt>
</event>
<event>
 4      1 +5.5534000e-05 3.07169400e+02 7.81860800e-03 9.97918000e-02
        2 -1    0    0  501    0 +0.0000000000e+00 +0.0000000000e+00 +4.1353771052e+01 4.1353771052e+01 0.0000000000e+00 0.0000e+00 -1.0000e+00
       -2 -1    0    0    0  501 -0.0000000000e+00 -0.0000000000e+00 -5.7040183196e+02 5.7040183196e+02 0.0000000000e+00 0.0000e+00 1.0000e+00
      -13  1    1    2    0    0 -1.5034769660e+02 +5.1771491600e+00 -3.2613579294e+02 3.5915983654e+02 0.0000000000e+00 0.0000e+00 1.0000e+00
       13  1    1    2    0    0 +1.5034769660e+02 -5.1771491600e+00 -2.0291226797e+02 2.5259576647e+02 0.0000000000e+00 0.0000e+00 -1.0000e+00
<mgrwt>
<rscale>  0 0.30716944E+03</rscale>
<asrwt>0</asrwt>
<pdfrwt beam="1">  1        2 0.63621189E-02 0.30716944E+03</pdfrwt>
<pdfrwt beam="2">  1       -2 0.87754125E-01 0.30716944E+03</pdfrwt>
<totfact> 0.17143878E+03</totfact>
</mgrwt>
<rwgt>
<wgt id='morphing_basis_vector_1'> +2.3691684e-04 </wgt>
<wgt id='morphing_basis_vector_2'> +1.3839658e-04 </wgt>
<wgt id='morphing_basis_vector_3'> +1.3342800e-04 </wgt>
<wgt id='morphing_basis_vector_4'> +2.4883089e-05 </wgt>
<wgt id='morphing_basis_vector_5'> +2.3337868e-06 </wgt>
</rwgt>
</event>
<event>
 4      1 +5.5534000e-05 3.19273100e+02 7.81860800e-03 9.93052600e-02
        2 -1    0    0  501    0 +0.0000000000e+00 +0.0000000000e+00 +5.4614837253e+02 5.4614837253e+02 0.0000000000e+00 0.0000e+00 -1.0000e+00
       -2 -1    0    0    0  501 -0.0000000000e+00 -0.0000000000e+00 -4.6660997267e+01 4.6660997267e+01 0.0000000000e+00 0.0000e+00 1.0000e+00
      -13  1    1    2    0    0 +3.6493533454e+01 -8.4545438708e+01 +7.6241726275e+00 9.2400417741e+01 0.0000000000e+00 0.0000e+00 1.0000e+00
       13  1    1    2    0    0 -3.6493533454e+01 +8.4545438708e+01 +4.9186320264e+02 5.0040895206e+02 0.0000000000e+00 0.0000e+00 -1.0000e+00
<mgrwt>
<rscale>  0 0.31927310E+03</rscale>
<asrwt>0</asrwt>
<pdfrwt beam="1">  1        2 0.84022822E-01 0.31927310E+03</pdfrwt>
<pdfrwt beam="2">  1       -2 0.71786153E-02 0.31927310E+03</pdfrwt>
<totfact> 0.66323668E+03</totfact>
</mgrwt>
<rwgt>
<wgt id='morphing_basis_vector_1'> +2.5437555e-04 </wgt>
<wgt id='morphing_basis_vector_2'> +1.3977905e-04 </wgt>
<wgt id='morphing_basis_vector_3'> +1.5075207e-04 </wgt>
<wgt id='morphing_basis_vector_4'> +2.5233308e-05 </wgt>
<wgt id='morphing_basis_vector_5'> +4.9715393e-06 </wgt>
</rwgt>
</event>
<event>
 4      1 +5.5534000e-05 3.14529600e+02 7.81860800e-03 9.94931500e-02
        2 -1    0    0  501    0 +0.0000000000e+00 +0.0000000000e+00 +1.2766017559e+02 1.2766017559e+02 0.0000000000e+00 0.0000e+00 -1.0000e+00
       -2 -1    0    0    0  501 -0.0000000000e+00 -0.0000000000e+00 -1.9373474374e+02 1.9373474374e+02 0.0000000000e+00 0.0000e+00 1.0000e+00
      -13  1    1    2    0    0 -1.6700901623e+01 -1.5131581139e+02 +7.2804625126e+00 1.5240866126e+02 0.0000000000e+00 0.0000e+00 1.0000e+00
       13  1    1    2    0    0 +1.6700901623e+01 +1.5131581139e+02 -7.3355030660e+01 1.6898625807e+02 0.0000000000e+00 0.0000e+00 -1.0000e+00
<mgrwt>
<rscale>  0 0.31452956E+03</rscale>
<asrwt>0</asrwt>
<pdfrwt beam="1">  1        2 0.19640027E-01 0.31452956E+03</pdfrwt>
<pdfrwt beam="2">  1       -2 0.29805345E-01 0.31452956E+03</pdfrwt>
<totfact> 0.34815559E+03</totfact>
</mgrwt>
<rwgt>
<wgt id='morphing_basis_vector_1'> +2.6340609e-04 </wgt>
<wgt id='morphing_basis_vector_2'> +1.8572572e-04 </wgt>
<wgt id='morphing_basis_vector_3'> +1.2124752e-04 </wgt>
<wgt id='morphing_basis_vector_4'> +3.2614093e-05 </wgt>
<wgt id='morphing_basis_vector_5'> +4.5540909e-06 </wgt>
</rwgt>
</event>
<event>
 4      1 +5.5534000e-05 3.55424900e+02 7.81860800e-03 9.79808400e-02
        2 -1    0    0  501    0 +0.0000000000e+00 +0.0000000000e+00 +2.0486435675e+02 2.0486435675e+02 0.0000000000e+00 0.0000e+00 -1.0000e+00
       -2 -1    0    0    0  501 -0.0000000000e+00 -0.0000000000e+00 -1.5415913304e+02 1.5415913304e+02 0.0000000000e+00 0.0000e+00 1.0000e+00
      -13  1    1    2    0    0 -5.6704566518e+01 -1.8959891994e+01 -1.4369420022e+02 1.5563710530e+02 0.0000000000e+00 0.0000e+00 1.0000e+00
       13  1    1    2    0    0 +5.6704566518e+01 +1.8959891994e+01 +1.9439942394e+02 2.0338638449e+02 0.0000000000e+00 0.0000e+00 -1.0000e+00
<mgrwt>
<rscale>  0 0.35542488E+03</rscale>
<asrwt>0</asrwt>
<pdfrwt beam="1">  1        2 0.31517593E-01 0.35542488E+03</pdfrwt>
<pdfrwt beam="2">  1       -2 0.23716790E-01 0.35542488E+03</pdfrwt>
<totfact> 0.29855025E+03</totfact>
</mgrwt>
<rwgt>
<wgt id='morphing_basis_vector_1'> +3.2597905e-04 </wgt>
<wgt id='morphing_basis_vector_2'> +1.7587705e-04 </wgt>
<wgt id='morphing_basis_vector_3'> +1.9906580e-04 </wgt>
<wgt id='morphing_basis_vector_4'> +3.5969889e-05 </wgt>
<wgt id='morphing_basis_vector_5'> +2.1368182e-05 </wgt>
</rwgt>
</event>
<event>
 4      1 +5.5534000e-05 3.09721600e+02 7.81860800e-03 9.96872500e-02
        2 -1    0    0  501    0 +0.0000000000e+00 +0.0000000000e+00 +6.3700760377e+01 6.3700760377e+01 0.0000000000e+00 0.0000e+00 -1.0000e+00
       -2 -1    0    0    0  501 -0.0000000000e+00 -0.0000000000e+00 -3.7647683080e+02 3.7647683080e+02 0.0000000000e+00 0.0000e+00 1.0000e+00
      -13  1    1    2    0    0 -1.2261906427e+02 +2.1704477603e+00 -2.9077801886e+02 3.1558200522e+02 0.0000000000e+00 0.0000e+00 1.0000e+00
       13  1    1    2    0    0 +1.2261906427e+02 -2.1704477603e+00 -2.1998051561e+01 1.2459558596e+02 0.0000000000e+00 0.0000e+00 -1.0000e+00
<mgrwt>
<rscale>  0 0.30972155E+03</rscale>
<asrwt>0</asrwt>
<pdfrwt beam="1">  1        2 0.98001169E-02 0.30972155E+03</pdfrwt>
<pdfrwt beam="2">  1       -2 0.57919513E-01 0.30972155E+03</pdfrwt>
<totfact> 0.23816574E+03</totfact>
</mgrwt>
<rwgt>
<wgt id='morphing_basis_vector_1'> +2.3843250e-04 </wgt>
<wgt id='morphing_basis_vector_2'> +1.3277459e-04 </wgt>
<wgt id='morphing_basis_vector_3'> +1.3988436e-04 </wgt>
<wgt id='morphing_basis_vector_4'> +2.3860665e-05 </wgt>
<wgt id='morphing_basis_vector_5'> +2.7056676e-06 </wgt>
</rwgt>
</event>
<event>
 4      1 +5.5534000e-05 3.20294700e+02 7.81860800e-03 9.92652600e-02
        2 -1    0    0  501    0 +0.0000000000e+00 +0.0000000000e+00 +3.5419140008e+02 3.5419140008e+02 0.0000000000e+00 0.0000e+00 -1.0000e+00
       -2 -1    0    0    0  501 -0.0000000000e+00 -0.0000000000e+00 -7.2410486311e+01 7.2410486311e+01 0.0000000000e+00 0.0000e+00 1.0000e+00
      -13  1    1    2    0    0 +8.0025181826e+01 +1.0985440047e+02 +2.8069804779e+01 1.3878016057e+02 0.0000000000e+00 0.0000e+00 1.0000e+00
       13  1    1    2    0    0 -8.0025181826e+01 -1.0985440047e+02 +2.5371110899e+02 2.8782172582e+02 0.0000000000e+00 0.0000e+00 -1.0000e+00
<mgrwt>
<rscale>  0 0.32029469E+03</rscale>
<asrwt>0</asrwt>
<pdfrwt beam="1">  1        2 0.54490984E-01 0.32029469E+03</pdfrwt>
<pdfrwt beam="2">  1       -2 0.11140075E-01 0.32029469E+03</pdfrwt>
<totfact> 0.54554932E+03</totfact>
</mgrwt>
<rwgt>
<wgt id='morphing_basis_vector_1'> +2.5686307e-04 </wgt>
<wgt id='morphing_basis_vector_2'> +1.4266427e-04 </wgt>
<wgt id='morphing_basis_vector_3'> +1.5097431e-04 </wgt>
<wgt id='morphing_basis_vector_4'> +2.5735547e-05 </wgt>
<wgt id='morphing_basis_vector_5'> +5.2960823e-06 </wgt>
</rwgt>
</event>
<event>
 4      1 +5.5534000e-05 3.31468000e+02 7.81860800e-03 9.88380900e-02
        2 -1    0    0  501    0 +0.0000000000e+00 +0.0000000000e+00 +3.1599781789e+02 3.1599781789e+02 0.0000000000e+00 0.0000e+00 -1.0000e+00
       -2 -1    0    0    0  501 -0.0000000000e+00 -0.0000000000e+00 -8.6923890668e+01 8.6923890668e+01 0.0000000000e+00 0.0000e+00 1.0000e+00
      -13  1    1    2    0    0 +9.4984994074e-01 -1.6527130678e+02 +1.2953593822e+02 2.0998825289e+02 0.0000000000e+00 0.0000e+00 -1.0000e+00
       13  1    1    2    0    0 -9.4984994074e-01 +1.6527130678e+02 +9.9537988995e+01 1.9293345566e+02 0.0000000000e+00 0.0000e+00 1.0000e+00
<mgrwt>
<rscale>  0 0.33146801E+03</rscale>
<asrwt>0</asrwt>
<pdfrwt beam="1">  1        2 0.48615048E-01 0.33146801E+03</pdfrwt>
<pdfrwt beam="2">  1       -2 0.13372906E-01 0.33146801E+03</pdfrwt>
<totfact> 0.46516415E+03</totfact>
</mgrwt>
<rwgt>
<wgt id='morphing_basis_vector_1'> +2.8733590e-04 </wgt>
<wgt id='morphing_basis_vector_2'> +1.8217932e-04 </wgt>
<wgt id='morphing_basis_vector_3'> +1.5132587e-04 </wgt>
<wgt id='morphing_basis_vector_4'> +3.2185374e-05 </wgt>
<wgt id='morphing_basis_vector_5'> +9.6468255e-06 </wgt>
</rwgt>
</event>
<event>
 4      1 +5.5534000e-05 3.42121900e+02 7.81860800e-03 9.84474900e-02
        2 -1    0    0  501    0 +0.0000000000e+00 +0.0000000000e+00 +6.6117569613e+02 6.6117569613e+02 0.0000000000e+00 0.0000e+00 -1.0000e+00
       -2 -1    0    0    0  501 -0.0000000000e+00 -0.0000000000e+00 -4.4257297233e+01 4.4257297233e+01 0.0000000000e+00 0.0000e+00 1.0000e+00
      -13  1    1    2    0    0 +8.7284376433e+01 -1.2885543020e+02 +1.6208268042e+02 2.2470665222e+02 0.0000000000e+00 0.0000e+00 1.0000e+00
       13  1    1    2    0    0 -8.7284376433e+01 +1.2885543020e+02 +4.5483571847e+02 4.8072634114e+02 0.0000000000e+00 0.0000e+00 -1.0000e+00
<mgrwt>
<rscale>  0 0.34212190E+03</rscale>
<asrwt>0</asrwt>
<pdfrwt beam="1">  1        2 0.10171933E+00 0.34212190E+03</pdfrwt>
<pdfrwt beam="2">  1       -2 0.68088154E-02 0.34212190E+03</pdfrwt>
<totfact> 0.57857910E+03</totfact>
</mgrwt>
<rwgt>
<wgt id='morphing_basis_vector_1'> +2.9928861e-04 </wgt>
<wgt id='morphing_basis_vector_2'> +1.6616814e-04 </wgt>
<wgt id='morphing_basis_vector_3'> +1.7750640e-04 </wgt>
<wgt id='morphing_basis_vector_4'> +3.1593136e-05 </wgt>
<wgt id='morphing_basis_vector_5'> +1.3876797e-05 </wgt>
</rwgt>
</event>
<event>
 4      1 +5.5534000e-05 3.45271100e+02 7.81860800e-03 9.83349700e-02
        2 -1    0    0  501    0 +0.0000000000e+00 +0.0000000000e+00 +2.4613913940e+02 2.4613913940e+02 0.0000000000e+00 0.0000e+00 -1.0000e+00
       -2 -1    0    0    0  501 -0.0000000000e+00 -0.0000000000e+00 -1.2108206921e+02 1.2108206921e+02 0.0000000000e+00 0.0000e+00 1.0000e+00
      -13  1    1    2    0    0 +1.5681262359e+02 +5.3358565999e+01 +1.1425912313e+02 2.0122744023e+02 0.0000000000e+00 0.0000e+00 -1.0000e+00
       13  1    1    2    0    0 -1.5681262359e+02 -5.3358565999e+01 +1.0797947062e+01 1.6599376839e+02 0.0000000000e+00 0.0000e+00 1.0000e+00
<mgrwt>
<rscale>  0 0.34527112E+03</rscale>
<asrwt>0</asrwt>
<pdfrwt beam="1">  1        2 0.37867560E-01 0.34527112E+03</pdfrwt>
<pdfrwt beam="2">  1       -2 0.18628011E-01 0.34527112E+03</pdfrwt>
<totfact> 0.36148727E+03</totfact>
</mgrwt>
<rwgt>
<wgt id='morphing_basis_vector_1'> +3.2864762e-04 </wgt>
<wgt id='morphing_basis_vector_2'> +2.3752766e-04 </wgt>
<wgt id='morphing_basis_vector_3'> +1.5336301e-04 </wgt>
<wgt id='morphing_basis_vector_4'> +4.0269532e-05 </wgt>
<wgt id='morphing_basis_vector_5'> +1.6899770e-05 </wgt>
</rwgt>
</event>
<event>
 4      1 +5.5534000e-05 3.02901900e+02 7.81860800e-03 9.99690500e-02
        2 -1    0    0  501    0 +0.0000000000e+00 +0.0000000000e+00 +4.0144060551e+02 4.0144060551e+02 0.0000000000e+00 0.0000e+00 1.0000e+00
       -2 -1    0    0    0  501 -0.0000000000e+00 -0.0000000000e+00 -5.7137712290e+01 5.7137712290e+01 0.0000000000e+00 0.0000e+00 -1.0000e+00
      -13  1    1    2    0    0 -7.8512937793e+01 -6.7456234738e+01 +3.3952865397e+02 3.5495680282e+02 0.0000000000e+00 0.0000e+00 1.0000e+00
       13  1    1    2    0    0 +7.8512937793e+01 +6.7456234738e+01 +4.7742392539e+00 1.0362151498e+02 0.0000000000e+00 0.0000e+00 -1.0000e+00
<mgrwt>
<rscale>  0 0.30290195E+03</rscale>
<asrwt>0</asrwt>
<pdfrwt beam="1">  1        2 0.61760091E-01 0.30290195E+03</pdfrwt>
<pdfrwt beam="2">  1       -2 0.87904175E-02 0.30290195E+03</pdfrwt>
<totfact> 0.68351938E+03</totfact>
</mgrwt>
<rwgt>
<wgt id='morphing_basis_vector_1'> +2.9029445e-04 </wgt>
<wgt id='morphing_basis_vector_2'> +3.0733815e-04 </wgt>
<wgt id='morphing_basis_vector_3'> +4.1394195e-05 </wgt>
<wgt id='morphing_basis_vector_4'> +5.6047326e-05 </wgt>
<wgt id='morphing_basis_vector_5'> +3.9478456e-06 </wgt>
</rwgt>
</event>
<event>
 4      1 +5.5534000e-05 3.29691200e+02 7.81860800e-03 9.89047900e-02
        2 -1    0    0  501    0 +0.0000000000e+00 +0.0000000000e+00 +1.2150432935e+02 1.2150432935e+02 0.0000000000e+00 0.0000e+00 -1.0000e+00
       -2 -1    0    0    0  501 -0.0000000000e+00 -0.0000000000e+00 -2.2364700737e+02 2.2364700737e+02 0.0000000000e+00 0.0000e+00 1.0000e+00
      -13  1    1    2    0    0 -1.0568671827e+02 -1.2603171510e+02 -6.2558762163e+01 1.7597520949e+02 0.0000000000e+00 0.0000e+00 1.0000e+00
       13  1    1    2    0    0 +1.0568671827e+02 +1.2603171510e+02 -3.9583915855e+01 1.6917612723e+02 0.0000000000e+00 0.0000e+00 -1.0000e+00
<mgrwt>
<rscale>  0 0.32969125E+03</rscale>
<asrwt>0</asrwt>
<pdfrwt beam="1">  1        2 0.18692974E-01 0.32969125E+03</pdfrwt>
<pdfrwt beam="2">  1       -2 0.34407231E-01 0.32969125E+03</pdfrwt>
<totfact> 0.28749628E+03</totfact>
</mgrwt>
<rwgt>
<wgt id='morphing_basis_vector_1'> +2.7956062e-04 </wgt>
<wgt id='morphing_basis_vector_2'> +1.6748264e-04 </wgt>
<wgt id='morphing_basis_vector_3'> +1.5487089e-04 </wgt>
<wgt id='morphing_basis_vector_4'> +3.0025973e-05 </wgt>
<wgt id='morphing_basis_vector_5'> +8.7139605e-06 </wgt>
</rwgt>
</event>
<event>
 4      1 +5.5534000e-05 3.16586100e+02 7.81860800e-03 9.94112500e-02
        2 -1    0    0  501    0 +0.0000000000e+00 +0.0000000000e+00 +1.6186330696e+03 1.6186330696e+03 0.0000000000e+00 0.0000e+00 -1.0000e+00
       -2 -1    0    0    0  501 -0.0000000000e+00 -0.0000000000e+00 -1.5480152872e+01 1.5480152872e+01 0.0000000000e+00 0.0000e+00 1.0000e+00
      -13  1    1    2    0    0 -6.2247813668e+01 -1.4424653073e+02 +9.0150985215e+02 9.1509664268e+02 0.0000000000e+00 0.0000e+00 1.0000e+00
       13  1    1    2    0    0 +6.2247813668e+01 +1.4424653073e+02 +7.0164306455e+02 7.1901657975e+02 0.0000000000e+00 0.0000e+00 -1.0000e+00
<mgrwt>
<rscale>  0 0.31658609E+03</rscale>
<asrwt>0</asrwt>
<pdfrwt beam="1">  1        2 0.24902034E+00 0.31658609E+03</pdfrwt>
<pdfrwt beam="2">  1       -2 0.23815633E-02 0.31658609E+03</pdfrwt>
<totfact> 0.74385626E+03</totfact>
</mgrwt>
<rwgt>
<wgt id='morphing_basis_vector_1'> +2.6086021e-04 </wgt>
<wgt id='morphing_basis_vector_2'> +1.6991499e-04 </wgt>
<wgt id='morphing_basis_vector_3'> +1.3215025e-04 </wgt>
<wgt id='morphing_basis_vector_4'> +2.9965605e-05 </wgt>
<wgt id='morphing_basis_vector_5'> +4.7919288e-06 </wgt>
</rwgt>
</event>
<event>
 4      1 +5.5534000e-05 3.29891200e+02 7.81860800e-03 9.88972600e-02
        2 -1    0    0  501    0 +0.0000000000e+00 +0.0000000000e+00 +5.8860962976e+02 5.8860962976e+02 0.0000000000e+00 0.0000e+00 -1.0000e+00
       -2 -1    0    0    0  501 -0.0000000000e+00 -0.0000000000e+00 -4.6222573114e+01 4.6222573114e+01 0.0000000000e+00 0.0000e+00 1.0000e+00
      -13  1    1    2    0    0 +1.3542450615e+02 -9.3845956885e+01 +2.8612334788e+02 3.3017181996e+02 0.0000000000e+00 0.0000e+00 1.0000e+00
       13  1    1    2    0    0 -1.3542450615e+02 +9.3845956885e+01 +2.5626370876e+02 3.0466038292e+02 0.0000000000e+00 0.0000e+00 -1.0000e+00
<mgrwt>
<rscale>  0 0.32989120E+03</rscale>
<asrwt>0</asrwt>
<pdfrwt beam="1">  1        2 0.90555322E-01 0.32989120E+03</pdfrwt>
<pdfrwt beam="2">  1       -2 0.71111655E-02 0.32989120E+03</pdfrwt>
<totfact> 0.61881605E+03</totfact>
</mgrwt>
<rwgt>
<wgt id='morphing_basis_vector_1'> +2.8321932e-04 </wgt>
<wgt id='morphing_basis_vector_2'> +1.7732404e-04 </wgt>
<wgt id='morphing_basis_vector_3'> +1.5076026e-04 </wgt>
<wgt id='morphing_basis_vector_4'> +3.1404975e-05 </wgt>
<wgt id='morphing_basis_vector_5'> +8.9716164e-06 </wgt>
</rwgt>
</event>
<event>
 4      1 +5.5534000e-05 3.00189200e+02 7.81860800e-03 1.00083300e-01
        2 -1    0    0  501    0 +0.0000000000e+00 +0.0000000000e+00 +2.8257013245e+02 2.8257013245e+02 0.0000000000e+00 0.0000e+00 -1.0000e+00
       -2 -1    0    0    0  501 -0.0000000000e+00 -0.0000000000e+00 -7.9726722107e+01 7.9726722107e+01 0.0000000000e+00 0.0000e+00 1.0000e+00
      -13  1    1    2    0    0 -1.7378384455e+01 +1.4589479080e+02 +1.3844589568e+02 2.0187759722e+02 0.0000000000e+00 0.0000e+00 1.0000e+00
       13  1    1    2    0    0 +1.7378384455e+01 -1.4589479080e+02 +6.4397514661e+01 1.6041925733e+02 0.0000000000e+00 0.0000e+00 -1.0000e+00
<mgrwt>
<rscale>  0 0.30018921E+03</rscale>
<asrwt>0</asrwt>
<pdfrwt beam="1">  1        2 0.43472328E-01 0.30018921E+03</pdfrwt>
<pdfrwt beam="2">  1       -2 0.12265650E-01 0.30018921E+03</pdfrwt>
<totfact> 0.60030341E+03</totfact>
</mgrwt>
<rwgt>
<wgt id='morphing_basis_vector_1'> +2.3587710e-04 </wgt>
<wgt id='morphing_basis_vector_2'> +1.6158279e-04 </wgt>
<wgt id='morphing_basis_vector_3'> +1.1175352e-04 </wgt>
<wgt id='morphing_basis_vector_4'> +2.9596392e-05 </wgt>
<wgt id='morphing_basis_vector_5'> +1.6178470e-06 </wgt>
</rwgt>
</event>
<event>
 4      1 +5.5534000e-05 3.26498200e+02 7.81860800e-03 9.90257900e-02
        2 -1    0    0  501    0 +0.0000000000e+00 +0.0000000000e+00 +7.7670367970e+02 7.7670367970e+02 0.0000000000e+00 0.0000e+00 -1.0000e+00
       -2 -1    0    0    0  501 -0.0000000000e+00 -0.0000000000e+00 -3.4312021046e+01 3.4312021046e+01 0.0000000000e+00 0.0000e+00 1.0000e+00
      -13  1    1    2    0    0 -4.4500936831e+00 -1.4377851641e+02 +1.7945868216e+02 2.2999452976e+02 0.0000000000e+00 0.0000e+00 1.0000e+00
       13  1    1    2    0    0 +4.4500936831e+00 +1.4377851641e+02 +5.6293297648e+02 5.8102117098e+02 0.0000000000e+00 0.0000e+00 -1.0000e+00
<mgrwt>
<rscale>  0 0.32649823E+03</rscale>
<asrwt>0</asrwt>
<pdfrwt beam="1">  1        2 0.11949286E+00 0.32649823E+03</pdfrwt>
<pdfrwt beam="2">  1       -2 0.52787731E-02 0.32649823E+03</pdfrwt>
<totfact> 0.69951457E+03</totfact>
</mgrwt>
<rwgt>
<wgt id='morphing_basis_vector_1'> +2.6840154e-04 </wgt>
<wgt id='morphing_basis_vector_2'> +1.4919276e-04 </wgt>
<wgt id='morphing_basis_vector_3'> +1.5786643e-04 </wgt>
<wgt id='morphing_basis_vector_4'> +2.7158347e-05 </wgt>
<wgt id='morphing_basis_vector_5'> +7.2768037e-06 </wgt>
</rwgt>
</event>
<event>
 4      1 +5.5534000e-05 3.13594100e+02 7.81860800e-03 9.95306300e-02
        2 -1    0    0  501    0 +0.0000000000e+00 +0.0000000000e+00 +1.1477418702e+02 1.1477418702e+02 0.0000000000e+00 0.0000e+00 -1.0000e+00
       -2 -1    0    0    0  501 -0.0000000000e+00 -0.0000000000e+00 -2.1420596490e+02 2.1420596490e+02 0.0000000000e+00 0.0000e+00 1.0000e+00
      -13  1    1    2    0    0 -1.3227500550e+02 +7.6759334236e+01 -1.3426127655e+01 1.5352176841e+02 0.0000000000e+00 0.0000e+00 1.0000e+00
       13  1    1    2    0    0 +1.3227500550e+02 -7.6759334236e+01 -8.6005650216e+01 1.7545838351e+02 0.0000000000e+00 0.0000e+00 -1.0000e+00
<mgrwt>
<rscale>  0 0.31359410E+03</rscale>
<asrwt>0</asrwt>
<pdfrwt beam="1">  1        2 0.17657567E-01 0.31359410E+03</pdfrwt>
<pdfrwt beam="2">  1       -2 0.32954764E-01 0.31359410E+03</pdfrwt>
<totfact> 0.33149448E+03</totfact>
</mgrwt>
<rwgt>
<wgt id='morphing_basis_vector_1'> +2.5998290e-04 </wgt>
<wgt id='morphing_basis_vector_2'> +1.7958976e-04 </wgt>
<wgt id='morphing_basis_vector_3'> +1.2274410e-04 </wgt>
<wgt id='morphing_basis_vector_4'> +3.1655533e-05 </wgt>
<wgt id='morphing_basis_vector_5'> +4.2387272e-06 </wgt>
</rwgt>
</event>
<event>
 4      1 +5.5534000e-05 3.09887200e+02 7.81860800e-03 9.96805100e-02
        2 -1    0    0  501    0 +0.0000000000e+00 +0.0000000000e+00 +1.1091527919e+02 1.1091527919e+02 0.0000000000e+00 0.0000e+00 1.0000e+00
       -2 -1    0    0    0  501 -0.0000000000e+00 -0.0000000000e+00 -2.1644910900e+02 2.1644910900e+02 0.0000000000e+00 0.0000e+00 -1.0000e+00
      -13  1    1    2    0    0 -1.1720958833e+02 +7.0795636207e+01 +2.3830393617e+01 1.3898919872e+02 0.0000000000e+00 0.0000e+00 -1.0000e+00
       13  1    1    2    0    0 +1.1720958833e+02 -7.0795636207e+01 -1.2936422343e+02 1.8837518946e+02 0.0000000000e+00 0.0000e+00 1.0000e+00
<mgrwt>
<rscale>  0 0.30988716E+03</rscale>
<asrwt>0</asrwt>
<pdfrwt beam="1">  1        2 0.17063889E-01 0.30988716E+03</pdfrwt>
<pdfrwt beam="2">  1       -2 0.33299863E-01 0.30988716E+03</pdfrwt>
<totfact> 0.33890401E+03</totfact>
</mgrwt>
<rwgt>
<wgt id='morphing_basis_vector_1'> +2.7230085e-04 </wgt>
<wgt id='morphing_basis_vector_2'> +2.2980823e-04 </wgt>
<wgt id='morphing_basis_vector_3'> +9.2133683e-05 </wgt>
<wgt id='morphing_basis_vector_4'> +4.0538825e-05 </wgt>
<wgt id='morphing_basis_vector_5'> +4.2118187e-06 </wgt>
</rwgt>
</event>
<event>
 4      1 +5.5534000e-05 3.36546300e+02 7.81860800e-03 9.86499500e-02
        2 -1    0    0  501    0 +0.0000000000e+00 +0.0000000000e+00 +1.8730451597e+03 1.8730451597e+03 0.0000000000e+00 0.0000e+00 -1.0000e+00
       -2 -1    0    0    0  501 -0.0000000000e+00 -0.0000000000e+00 -1.5117552121e+01 1.5117552121e+01 0.0000000000e+00 0.0000e+00 1.0000e+00
      -13  1    1    2    0    0 -1.5801639472e+02 -5.7486028933e+01 +9.6533782563e+02 9.7987292141e+02 0.0000000000e+00 0.0000e+00 1.0000e+00
       13  1    1    2    0    0 +1.5801639472e+02 +5.7486028933e+01 +8.9258978196e+02 9.0828979042e+02 0.0000000000e+00 0.0000e+00 -1.0000e+00
<mgrwt>
<rscale>  0 0.33654633E+03</rscale>
<asrwt>0</asrwt>
<pdfrwt beam="1">  1        2 0.28816061E+00 0.33654633E+03</pdfrwt>
<pdfrwt beam="2">  1       -2 0.23257787E-02 0.33654633E+03</pdfrwt>
<totfact> 0.56399288E+03</totfact>
</mgrwt>
<rwgt>
<wgt id='morphing_basis_vector_1'> +2.9626345e-04 </wgt>
<wgt id='morphing_basis_vector_2'> +1.8457447e-04 </wgt>
<wgt id='morphing_basis_vector_3'> +1.5934812e-04 </wgt>
<wgt id='morphing_basis_vector_4'> +3.2981503e-05 </wgt>
<wgt id='morphing_basis_vector_5'> +1.1729531e-05 </wgt>
</rwgt>
</event>
<event>
 4      1 +5.5534000e-05 3.33730400e+02 7.81860800e-03 9.87538300e-02
        2 -1    0    0  501    0 +0.0000000000e+00 +0.0000000000e+00 +1.0010772105e+03 1.0010772105e+03 0.0000000000e+00 0.0000e+00 -1.0000e+00
       -2 -1    0    0    0  501 -0.0000000000e+00 -0.0000000000e+00 -2.7814030299e+01 2.7814030299e+01 0.0000000000e+00 0.0000e+00 1.0000e+00
      -13  1    1    2    0    0 -1.4772072725e+02 +2.4272887087e+01 +2.5937850566e+02 2.9947920714e+02 0.0000000000e+00 0.0000e+00 1.0000e+00
       13  1    1    2    0    0 +1.4772072725e+02 -2.4272887087e+01 +7.1388467450e+02 7.2941203362e+02 0.0000000000e+00 0.0000e+00 -1.0000e+00
<mgrwt>
<rscale>  0 0.33373038E+03</rscale>
<asrwt>0</asrwt>
<pdfrwt beam="1">  1        2 0.15401185E+00 0.33373038E+03</pdfrwt>
<pdfrwt beam="2">  1       -2 0.42790824E-02 0.33373038E+03</pdfrwt>
<totfact> 0.68918347E+03</totfact>
</mgrwt>
<rwgt>
<wgt id='morphing_basis_vector_1'> +2.8232508e-04 </wgt>
<wgt id='morphing_basis_vector_2'> +1.5683200e-04 </wgt>
<wgt id='morphing_basis_vector_3'> +1.6659882e-04 </wgt>
<wgt id='morphing_basis_vector_4'> +2.9034745e-05 </wgt>
<wgt id='morphing_basis_vector_5'> +1.0032907e-05 </wgt>
</rwgt>
</event>
<event>
 4      1 +5.5534000e-05 3.42390600e+02 7.81860800e-03 9.84378400e-02
        2 -1    0    0  501    0 +0.0000000000e+00 +0.0000000000e+00 +1.1979947207e+03 1.1979947207e+03 0.0000000000e+00 0.0000e+00 -1.0000e+00
       -2 -1    0    0    0  501 -0.0000000000e+00 -0.0000000000e+00 -2.4464074360e+01 2.4464074360e+01 0.0000000000e+00 0.0000e+00 1.0000e+00
      -13  1    1    2    0    0 -5.5000479366e+01 -1.4101835707e+02 +3.0121210561e+02 3.3710526892e+02 0.0000000000e+00 0.0000e+00 1.0000e+00
       13  1    1    2    0    0 +5.5000479366e+01 +1.4101835707e+02 +8.7231854070e+02 8.8535352612e+02 0.0000000000e+00 0.0000e+00 -1.0000e+00
<mgrwt>
<rscale>  0 0.34239061E+03</rscale>
<asrwt>0</asrwt>
<pdfrwt beam="1">  1        2 0.18430683E+00 0.34239061E+03</pdfrwt>
<pdfrwt beam="2">  1       -2 0.37637047E-02 0.34239061E+03</pdfrwt>
<totfact> 0.64207908E+03</totfact>
</mgrwt>
<rwgt>
<wgt id='morphing_basis_vector_1'> +2.9947164e-04 </wgt>
<wgt id='morphing_basis_vector_2'> +1.6536270e-04 </wgt>
<wgt id='morphing_basis_vector_3'> +1.7834427e-04 </wgt>
<wgt id='morphing_basis_vector_4'> +3.1551699e-05 </wgt>
<wgt id='morphing_basis_vector_5'> +1.3989212e-05 </wgt>
</rwgt>
</event>
<event>
 4      1 +5.5534000e-05 3.56479200e+02 7.81860800e-03 9.79448100e-02
        2 -1    0    0  501    0 +0.0000000000e+00 +0.0000000000e+00 +5.7742556969e+02 5.7742556969e+02 0.0000000000e+00 0.0000e+00 1.0000e+00
       -2 -1    0    0    0  501 -0.0000000000e+00 -0.0000000000e+00 -5.5018961030e+01 5.5018961030e+01 0.0000000000e+00 0.0000e+00 -1.0000e+00
      -13  1    1    2    0    0 +1.4087782462e+01 +1.6703880270e+02 +3.6866602308e+02 4.0498773290e+02 0.0000000000e+00 0.0000e+00 -1.0000e+00
       13  1    1    2    0    0 -1.4087782462e+01 -1.6703880270e+02 +1.5374058558e+02 2.2745679782e+02 0.0000000000e+00 0.0000e+00 1.0000e+00
<mgrwt>
<rscale>  0 0.35647920E+03</rscale>
<asrwt>0</asrwt>
<pdfrwt beam="1">  1        2 0.88834699E-01 0.35647920E+03</pdfrwt>
<pdfrwt beam="2">  1       -2 0.84644559E-02 0.35647920E+03</pdfrwt>
<totfact> 0.48595380E+03</totfact>
</mgrwt>
<rwgt>
<wgt id='morphing_basis_vector_1'> +3.6066646e-04 </wgt>
<wgt id='morphing_basis_vector_2'> +2.7400832e-04 </wgt>
<wgt id='morphing_basis_vector_3'> +1.6223161e-04 </wgt>
<wgt id='morphing_basis_vector_4'> +4.5457051e-05 </wgt>
<wgt id='morphing_basis_vector_5'> +2.4119986e-05 </wgt>
</rwgt>
</event>
<event>
 4      1 +5.5534000e-05 3.53825800e+02 7.81860800e-03 9.80357600e-02
        2 -1    0    0  501    0 +0.0000000000e+00 +0.0000000000e+00 +1.2251459363e+02 1.2251459363e+02 0.0000000000e+00 0.0000e+00 1.0000e+00
       -2 -1    0    0    0  501 -0.0000000000e+00 -0.0000000000e+00 -2.5546489304e+02 2.5546489304e+02 0.0000000000e+00 0.0000e+00 -1.0000e+00
      -13  1    1    2    0    0 +2.3199841187e+01 -1.1099296209e+02 -2.1154098476e+02 2.4001512139e+02 0.0000000000e+00 0.0000e+00 -1.0000e+00
       13  1    1    2    0    0 -2.3199841187e+01 +1.1099296209e+02 +7.8590685343e+01 1.3796436528e+02 0.0000000000e+00 0.0000e+00 1.0000e+00
<mgrwt>
<rscale>  0 0.35382582E+03</rscale>
<asrwt>0</asrwt>
<pdfrwt beam="1">  1        2 0.18848399E-01 0.35382582E+03</pdfrwt>
<pdfrwt beam="2">  1       -2 0.39302291E-01 0.35382582E+03</pdfrwt>
<totfact> 0.22449633E+03</totfact>
</mgrwt>
<rwgt>
<wgt id='morphing_basis_vector_1'> +3.2262369e-04 </wgt>
<wgt id='morphing_basis_vector_2'> +1.7457516e-04 </wgt>
<wgt id='morphing_basis_vector_3'> +1.9639615e-04 </wgt>
<wgt id='morphing_basis_vector_4'> +3.5360857e-05 </wgt>
<wgt id='morphing_basis_vector_5'> +2.0362769e-05 </wgt>
</rwgt>
</event>
<event>
 4      1 +5.5534000e-05 3.19054200e+02 7.81860800e-03 9.93138500e-02
        2 -1    0    0  501    0 +0.0000000000e+00 +0.0000000000e+00 +3.9191170319e+02 3.9191170319e+02 0.0000000000e+00 0.0000e+00 1.0000e+00
       -2 -1    0    0    0  501 -0.0000000000e+00 -0.0000000000e+00 -6.4935296193e+01 6.4935296193e+01 0.0000000000e+00 0.0000e+00 -1.0000e+00
      -13  1    1    2    0    0 +5.4656935732e+01 -1.4623513609e+02 +1.1650147995e+02 1.9479396931e+02 0.0000000000e+00 0.0000e+00 -1.0000e+00
       13  1    1    2    0    0 -5.4656935732e+01 +1.4623513609e+02 +2.1047492705e+02 2.6205303007e+02 0.0000000000e+00 0.0000e+00 1.0000e+00
<mgrwt>
<rscale>  0 0.31905424E+03</rscale>
<asrwt>0</asrwt>
<pdfrwt beam="1">  1        2 0.60294107E-01 0.31905424E+03</pdfrwt>
<pdfrwt beam="2">  1       -2 0.99900458E-02 0.31905424E+03</pdfrwt>
<totfact> 0.57756400E+03</totfact>
</mgrwt>
<rwgt>
<wgt id='morphing_basis_vector_1'> +2.5726972e-04 </wgt>
<wgt id='morphing_basis_vector_2'> +1.4913612e-04 </wgt>
<wgt id='morphing_basis_vector_3'> +1.4596645e-04 </wgt>
<wgt id='morphing_basis_vector_4'> +2.6687669e-05 </wgt>
<wgt id='morphing_basis_vector_5'> +5.0739565e-06 </wgt>
</rwgt>
</event>
<event>
 4      1 +5.5534000e-05 3.38266300e+02 7.81860800e-03 9.85870400e-02
        2 -1    0    0  501    0 +0.0000000000e+00 +0.0000000000e+00 +1.9471908302e+02 1.9471908302e+02 0.0000000000e+00 0.0000e+00 -1.0000e+00
       -2 -1    0    0    0  501 -0.0000000000e+00 -0.0000000000e+00 -1.4690916968e+02 1.4690916968e+02 0.0000000000e+00 0.0000e+00 1.0000e+00
      -13  1    1    2    0    0 +4.3484517822e+01 +1.0496364384e+02 -1.0263094505e+02 1.5310578272e+02 0.0000000000e+00 0.0000e+00 1.0000e+00
       13  1    1    2    0    0 -4.3484517822e+01 -1.0496364384e+02 +1.5044085838e+02 1.8852246999e+02 0.0000000000e+00 0.0000e+00 -1.0000e+00
<mgrwt>
<rscale>  0 0.33826628E+03</rscale>
<asrwt>0</asrwt>
<pdfrwt beam="1">  1        2 0.29956782E-01 0.33826628E+03</pdfrwt>
<pdfrwt beam="2">  1       -2 0.22601411E-01 0.33826628E+03</pdfrwt>
<totfact> 0.34220419E+03</totfact>
</mgrwt>
<rwgt>
<wgt id='morphing_basis_vector_1'> +2.9009283e-04 </wgt>
<wgt id='morphing_basis_vector_2'> +1.5799051e-04 </wgt>
<wgt id='morphing_basis_vector_3'> +1.7405193e-04 </wgt>
<wgt id='morphing_basis_vector_4'> +2.9890257e-05 </wgt>
<wgt id='morphing_basis_vector_5'> +1.1945809e-05 </wgt>
</rwgt>
</event>
<event>
 4      1 +5.5534000e-05 3.25648500e+02 7.81860800e-03 9.90582500e-02
        2 -1    0    0  501    0 +0.0000000000e+00 +0.0000000000e+00 +2.2709462034e+02 2.2709462034e+02 0.0000000000e+00 0.0000e+00 -1.0000e+00
       -2 -1    0    0    0  501 -0.0000000000e+00 -0.0000000000e+00 -1.1674311646e+02 1.1674311646e+02 0.0000000000e+00 0.0000e+00 1.0000e+00
      -13  1    1    2    0    0 +8.5153230120e+01 -8.0098117843e+01 -6.4490236630e+01 1.3351318925e+02 0.0000000000e+00 0.0000e+00 1.0000e+00
       13  1    1    2    0    0 -8.5153230120e+01 +8.0098117843e+01 +1.7484174051e+02 2.1032454756e+02 0.0000000000e+00 0.0000e+00 -1.0000e+00
<mgrwt>
<rscale>  0 0.32564848E+03</rscale>
<asrwt>0</asrwt>
<pdfrwt beam="1">  1        2 0.34937634E-01 0.32564848E+03</pdfrwt>
<pdfrwt beam="2">  1       -2 0.17960480E-01 0.32564848E+03</pdfrwt>
<totfact> 0.41892651E+03</totfact>
</mgrwt>
<rwgt>
<wgt id='morphing_basis_vector_1'> +2.6602654e-04 </wgt>
<wgt id='morphing_basis_vector_2'> +1.4603349e-04 </wgt>
<wgt id='morphing_basis_vector_3'> +1.5793443e-04 </wgt>
<wgt id='morphing_basis_vector_4'> +2.6624287e-05 </wgt>
<wgt id='morphing_basis_vector_5'> +6.9437066e-06 </wgt>
</rwgt>
</event>
<event>
 4      1 +5.5534000e-05 3.02269000e+02 7.81860800e-03 9.99956000e-02
        2 -1    0    0  501    0 +0.0000000000e+00 +0.0000000000e+00 +8.9553646865e+02 8.9553646865e+02 0.0000000000e+00 0.0000e+00 -1.0000e+00
       -2 -1    0    0    0  501 -0.0000000000e+00 -0.0000000000e+00 -2.5506094521e+01 2.5506094521e+01 0.0000000000e+00 0.0000e+00 1.0000e+00
      -13  1    1    2    0    0 +1.0788595454e+02 +8.5375140031e+01 +2.4439885768e+02 2.8046228866e+02 0.0000000000e+00 0.0000e+00 1.0000e+00
       13  1    1    2    0    0 -1.0788595454e+02 -8.5375140031e+01 +6.2563151644e+02 6.4058027451e+02 0.0000000000e+00 0.0000e+00 -1.0000e+00
<mgrwt>
<rscale>  0 0.30226900E+03</rscale>
<asrwt>0</asrwt>
<pdfrwt beam="1">  1        2 0.13777482E+00 0.30226900E+03</pdfrwt>
<pdfrwt beam="2">  1       -2 0.39240152E-02 0.30226900E+03</pdfrwt>
<totfact> 0.90739053E+03</totfact>
</mgrwt>
<rwgt>
<wgt id='morphing_basis_vector_1'> +2.2717167e-04 </wgt>
<wgt id='morphing_basis_vector_2'> +1.2907005e-04 </wgt>
<wgt id='morphing_basis_vector_3'> +1.3130690e-04 </wgt>
<wgt id='morphing_basis_vector_4'> +2.3383987e-05 </wgt>
<wgt id='morphing_basis_vector_5'> +1.4648912e-06 </wgt>
</rwgt>
</event>
<event>
 4      1 +5.5534000e-05 3.36544900e+02 7.81860800e-03 9.86500000e-02
        2 -1    0    0  501    0 +0.0000000000e+00 +0.0000000000e+00 +5.7033337494e+01 5.7033337494e+01 0.0000000000e+00 0.0000e+00 -1.0000e+00
       -2 -1    0    0    0  501 -0.0000000000e+00 -0.0000000000e+00 -4.9647477397e+02 4.9647477397e+02 0.0000000000e+00 0.0000e+00 1.0000e+00
      -13  1    1    2    0    0 +1.5446350924e+02 +6.4172216980e+01 -1.8945844573e+02 2.5272821722e+02 0.0000000000e+00 0.0000e+00 1.0000e+00
       13  1    1    2    0    0 -1.5446350924e+02 -6.4172216980e+01 -2.4998299075e+02 3.0077989425e+02 0.0000000000e+00 0.0000e+00 -1.0000e+00
<mgrwt>
<rscale>  0 0.33654488E+03</rscale>
<asrwt>0</asrwt>
<pdfrwt beam="1">  1        2 0.87743601E-02 0.33654488E+03</pdfrwt>
<pdfrwt beam="2">  1       -2 0.76380730E-01 0.33654488E+03</pdfrwt>
<totfact> 0.15461974E+03</totfact>
</mgrwt>
<rwgt>
<wgt id='morphing_basis_vector_1'> +2.9908729e-04 </wgt>
<wgt id='morphing_basis_vector_2'> +1.9292921e-04 </wgt>
<wgt id='morphing_basis_vector_3'> +1.5568195e-04 </wgt>
<wgt id='morphing_basis_vector_4'> +3.4043244e-05 </wgt>
<wgt id='morphing_basis_vector_5'> +1.1893547e-05 </wgt>
</rwgt>
</event>
<event>
 4      1 +5.5534000e-05 3.47795400e+02 7.81860800e-03 9.82457200e-02
        2 -1    0    0  501    0 +0.0000000000e+00 +0.0000000000e+00 +1.9254746034e+02 1.9254746034e+02 0.0000000000e+00 0.0000e+00 1.0000e+00
       -2 -1    0    0    0  501 -0.0000000000e+00 -0.0000000000e+00 -1.5705428965e+02 1.5705428965e+02 0.0000000000e+00 0.0000e+00 -1.0000e+00
      -13  1    1    2    0    0 +3.7231554744e+01 -7.9091850481e+01 -1.3336281601e+02 1.5945955655e+02 0.0000000000e+00 0.0000e+00 -1.0000e+00
       13  1    1    2    0    0 -3.7231554744e+01 +7.9091850481e+01 +1.6885598670e+02 1.9014219344e+02 0.0000000000e+00 0.0000e+00 1.0000e+00
<mgrwt>
<rscale>  0 0.34779537E+03</rscale>
<asrwt>0</asrwt>
<pdfrwt beam="1">  1        2 0.29622686E-01 0.34779537E+03</pdfrwt>
<pdfrwt beam="2">  1       -2 0.24162199E-01 0.34779537E+03</pdfrwt>
<totfact> 0.31029869E+03</totfact>
</mgrwt>
<rwgt>
<wgt id='morphing_basis_vector_1'> +3.0949611e-04 </wgt>
<wgt id='morphing_basis_vector_2'> +1.6750220e-04 </wgt>
<wgt id='morphing_basis_vector_3'> +1.8756119e-04 </wgt>
<wgt id='morphing_basis_vector_4'> +3.2999063e-05 </wgt>
<wgt id='morphing_basis_vector_5'> +1.6780917e-05 </wgt>
</rwgt>
</event>
<event>
 4      1 +5.5534000e-05 3.02307900e+02 7.81860800e-03 9.99939700e-02
        2 -1    0    0  501    0 +0.0000000000e+00 +0.0000000000e+00 +2.1659820581e+02 2.1659820581e+02 0.0000000000e+00 0.0000e+00 1.0000e+00
       -2 -1    0    0    0  501 -0.0000000000e+00 -0.0000000000e+00 -1.0548342147e+02 1.0548342147e+02 0.0000000000e+00 0.0000e+00 -1.0000e+00
      -13  1    1    2    0    0 -6.7073083084e+01 +1.3124830533e+01 +1.9919596431e+02 2.1059461496e+02 0.0000000000e+00 0.0000e+00 1.0000e+00
       13  1    1    2    0    0 +6.7073083084e+01 -1.3124830533e+01 -8.8081179970e+01 1.1148701232e+02 0.0000000000e+00 0.0000e+00 -1.0000e+00
<mgrwt>
<rscale>  0 0.30230792E+03</rscale>
<asrwt>0</asrwt>
<pdfrwt beam="1">  1        2 0.33322801E-01 0.30230792E+03</pdfrwt>
<pdfrwt beam="2">  1       -2 0.16228219E-01 0.30230792E+03</pdfrwt>
<totfact> 0.51857194E+03</totfact>
</mgrwt>
<rwgt>
<wgt id='morphing_basis_vector_1'> +3.0391065e-04 </wgt>
<wgt id='morphing_basis_vector_2'> +3.4837103e-04 </wgt>
<wgt id='morphing_basis_vector_3'> +1.9416053e-05 </wgt>
<wgt id='morphing_basis_vector_4'> +6.3810170e-05 </wgt>
<wgt id='morphing_basis_vector_5'> +4.3844489e-06 </wgt>
</rwgt>
</event>
<event>
 4      1 +5.5534000e-05 3.07755400e+02 7.81860800e-03 9.97677000e-02
        2 -1    0    0  501    0 +0.0000000000e+00 +0.0000000000e+00 +4.0481111231e+02 4.0481111231e+02 0.0000000000e+00 0.0000e+00 1.0000e+00
       -2 -1    0    0    0  501 -0.0000000000e+00 -0.0000000000e+00 -5.8492320097e+01 5.8492320097e+01 0.0000000000e+00 0.0000e+00 -1.0000e+00
      -13  1    1    2    0    0 +2.0101661582e+01 -9.6270730992e+01 -5.0047099582e+00 9.8474248237e+01 0.0000000000e+00 0.0000e+00 -1.0000e+00
       13  1    1    2    0    0 -2.0101661582e+01 +9.6270730992e+01 +3.5132350217e+02 3.6482918417e+02 0.0000000000e+00 0.0000e+00 1.0000e+00
<mgrwt>
<rscale>  0 0.30775536E+03</rscale>
<asrwt>0</asrwt>
<pdfrwt beam="1">  1        2 0.62278631E-01 0.30775536E+03</pdfrwt>
<pdfrwt beam="2">  1       -2 0.89988187E-02 0.30775536E+03</pdfrwt>
<totfact> 0.65379391E+03</totfact>
</mgrwt>
<rwgt>
<wgt id='morphing_basis_vector_1'> +2.3489686e-04 </wgt>
<wgt id='morphing_basis_vector_2'> +1.3031012e-04 </wgt>
<wgt id='morphing_basis_vector_3'> +1.3830149e-04 </wgt>
<wgt id='morphing_basis_vector_4'> +2.3448390e-05 </wgt>
<wgt id='morphing_basis_vector_5'> +2.3156305e-06 </wgt>
</rwgt>
</event>
<event>
 4      1 +5.5534000e-05 3.06133000e+02 7.81860800e-03 9.98345700e-02
        2 -1    0    0  501    0 +0.0000000000e+00 +0.0000000000e+00 +9.2228990469e+01 9.2228990469e+01 0.0000000000e+00 0.0000e+00 1.0000e+00
       -2 -1    0    0    0  501 -0.0000000000e+00 -0.0000000000e+00 -2.5403466342e+02 2.5403466342e+02 0.0000000000e+00 0.0000e+00 -1.0000e+00
      -13  1    1    2    0    0 -8.3342172036e+01 -8.5491490626e+01 -1.8924347680e+02 2.2375836547e+02 0.0000000000e+00 0.0000e+00 -1.0000e+00
       13  1    1    2    0    0 +8.3342172036e+01 +8.5491490626e+01 +2.7437803849e+01 1.2250528841e+02 0.0000000000e+00 0.0000e+00 1.0000e+00
<mgrwt>
<rscale>  0 0.30613305E+03</rscale>
<asrwt>0</asrwt>
<pdfrwt beam="1">  1        2 0.14189076E-01 0.30613305E+03</pdfrwt>
<pdfrwt beam="2">  1       -2 0.39082256E-01 0.30613305E+03</pdfrwt>
<totfact> 0.31782250E+03</totfact>
</mgrwt>
<rwgt>
<wgt id='morphing_basis_vector_1'> +2.3252198e-04 </wgt>
<wgt id='morphing_basis_vector_2'> +1.2976481e-04 </wgt>
<wgt id='morphing_basis_vector_3'> +1.3629060e-04 </wgt>
<wgt id='morphing_basis_vector_4'> +2.3380094e-05 </wgt>
<wgt id='morphing_basis_vector_5'> +2.0384679e-06 </wgt>
</rwgt>
</event>
<event>
 4      1 +5.5534000e-05 3.12136100e+02 7.81860800e-03 9.95893200e-02
        2 -1    0    0  501    0 +0.0000000000e+00 +0.0000000000e+00 +1.8153479187e+02 1.8153479187e+02 0.0000000000e+00 0.0000e+00 1.0000e+00
       -2 -1    0    0    0  501 -0.0000000000e+00 -0.0000000000e+00 -1.3417391854e+02 1.3417391854e+02 0.0000000000e+00 0.0000e+00 -1.0000e+00
      -13  1    1    2    0    0 -1.3574900893e+02 -6.0599113687e+01 -2.4373224659e+01 1.5064561090e+02 0.0000000000e+00 0.0000e+00 -1.0000e+00
       13  1    1    2    0    0 +1.3574900893e+02 +6.0599113687e+01 +7.1734097993e+01 1.6506309951e+02 0.0000000000e+00 0.0000e+00 1.0000e+00
<mgrwt>
<rscale>  0 0.31213609E+03</rscale>
<asrwt>0</asrwt>
<pdfrwt beam="1">  1        2 0.27928430E-01 0.31213609E+03</pdfrwt>
<pdfrwt beam="2">  1       -2 0.20642141E-01 0.31213609E+03</pdfrwt>
<totfact> 0.42931761E+03</totfact>
</mgrwt>
<rwgt>
<wgt id='morphing_basis_vector_1'> +2.4412808e-04 </wgt>
<wgt id='morphing_basis_vector_2'> +1.3958561e-04 </wgt>
<wgt id='morphing_basis_vector_3'> +1.4005264e-04 </wgt>
<wgt id='morphing_basis_vector_4'> +2.5016530e-05 </wgt>
<wgt id='morphing_basis_vector_5'> +3.2872074e-06 </wgt>
</rwgt>
</event>
<event>
 4      1 +5.5534000e-05 3.18345200e+02 7.81860800e-03 9.93417300e-02
        2 -1    0    0  501    0 +0.0000000000e+00 +0.0000000000e+00 +8.9463648273e+01 8.9463648273e+01 0.0000000000e+00 0.0000e+00 -1.0000e+00
       -2 -1    0    0    0  501 -0.0000000000e+00 -0.0000000000e+00 -2.8319788436e+02 2.8319788436e+02 0.0000000000e+00 0.0000e+00 1.0000e+00
      -13  1    1    2    0    0 +7.0764575045e+01 +3.2846748378e+01 -2.5928156611e+02 2.7076459237e+02 0.0000000000e+00 0.0000e+00 1.0000e+00
       13  1    1    2    0    0 -7.0764575045e+01 -3.2846748378e+01 +6.5547330024e+01 1.0189694026e+02 0.0000000000e+00 0.0000e+00 -1.0000e+00
<mgrwt>
<rscale>  0 0.31834520E+03</rscale>
<asrwt>0</asrwt>
<pdfrwt beam="1">  1        2 0.13763639E-01 0.31834520E+03</pdfrwt>
<pdfrwt beam="2">  1       -2 0.43568904E-01 0.31834520E+03</pdfrwt>
<totfact> 0.27043401E+03</totfact>
</mgrwt>
<rwgt>
<wgt id='morphing_basis_vector_1'> +2.5270288e-04 </wgt>
<wgt id='morphing_basis_vector_2'> +1.3884470e-04 </wgt>
<wgt id='morphing_basis_vector_3'> +1.4976595e-04 </wgt>
<wgt id='morphing_basis_vector_4'> +2.5041320e-05 </wgt>
<wgt id='morphing_basis_vector_5'> +4.7138312e-06 </wgt>
</rwgt>
</event>
<event>
 4      1 +5.5534000e-05 3.41166800e+02 7.81860800e-03 9.84818700e-02
        2 -1    0    0  501    0 +0.0000000000e+00 +0.0000000000e+00 +3.5440032299e+02 3.5440032299e+02 0.0000000000e+00 0.0000e+00 1.0000e+00
       -2 -1    0    0    0  501 -0.0000000000e+00 -0.0000000000e+00 -8.2106849458e+01 8.2106849458e+01 0.0000000000e+00 0.0000e+00 -1.0000e+00
      -13  1    1    2    0    0 +9.7363251257e+01 +1.4004369113e+02 +1.3949681710e+02 2.2034336863e+02 0.0000000000e+00 0.0000e+00 -1.0000e+00
       13  1    1    2    0    0 -9.7363251257e+01 -1.4004369113e+02 +1.3279665644e+02 2.1616380382e+02 0.0000000000e+00 0.0000e+00 1.0000e+00
<mgrwt>
<rscale>  0 0.34116679E+03</rscale>
<asrwt>0</asrwt>
<pdfrwt beam="1">  1        2 0.54523126E-01 0.34116679E+03</pdfrwt>
<pdfrwt beam="2">  1       -2 0.12631823E-01 0.34116679E+03</pdfrwt>
<totfact> 0.44896069E+03</totfact>
</mgrwt>
<rwgt>
<wgt id='morphing_basis_vector_1'> +3.0504189e-04 </wgt>
<wgt id='morphing_basis_vector_2'> +1.8800683e-04 </wgt>
<wgt id='morphing_basis_vector_3'> +1.6639000e-04 </wgt>
<wgt id='morphing_basis_vector_4'> +3.4014855e-05 </wgt>
<wgt id='morphing_basis_vector_5'> +1.3865949e-05 </wgt>
</rwgt>
</event>
<event>
 4      1 +5.5534000e-05 3.16296600e+02 7.81860800e-03 9.94227400e-02
        2 -1    0    0  501    0 +0.0000000000e+00 +0.0000000000e+00 +1.2825998485e+02 1.2825998485e+02 0.0000000000e+00 0.0000e+00 -1.0000e+00
       -2 -1    0    0    0  501 -0.0000000000e+00 -0.0000000000e+00 -1.9500147001e+02 1.9500147001e+02 0.0000000000e+00 0.0000e+00 1.0000e+00
      -13  1    1    2    0    0 +1.5260883308e+02 -1.6423908684e+01 -7.2310708687e+01 1.6967038428e+02 0.0000000000e+00 0.0000e+00 1.0000e+00
       13  1    1    2    0    0 -1.5260883308e+02 +1.6423908684e+01 +5.5692235252e+00 1.5359107058e+02 0.0000000000e+00 0.0000e+00 -1.0000e+00
<mgrwt>
<rscale>  0 0.31629661E+03</rscale>
<asrwt>0</asrwt>
<pdfrwt beam="1">  1        2 0.19732305E-01 0.31629661E+03</pdfrwt>
<pdfrwt beam="2">  1       -2 0.30000226E-01 0.31629661E+03</pdfrwt>
<totfact> 0.34241541E+03</totfact>
</mgrwt>
<rwgt>
<wgt id='morphing_basis_vector_1'> +2.5195231e-04 </wgt>
<wgt id='morphing_basis_vector_2'> +1.4524520e-04 </wgt>
<wgt id='morphing_basis_vector_3'> +1.4356020e-04 </wgt>
<wgt id='morphing_basis_vector_4'> +2.5993825e-05 </wgt>
<wgt id='morphing_basis_vector_5'> +4.3113338e-06 </wgt>
</rwgt>
</event>
<event>
 4      1 +5.5534000e-05 3.30444200e+02 7.81860800e-03 9.88764700e-02
        2 -1    0    0  501    0 +0.0000000000e+00 +0.0000000000e+00 +2.1744837320e+02 2.1744837320e+02 0.0000000000e+00 0.0000e+00 -1.0000e+00
       -2 -1    0    0    0  501 -0.0000000000e+00 -0.0000000000e+00 -1.2553944181e+02 1.2553944181e+02 0.0000000000e+00 0.0000e+00 1.0000e+00
      -13  1    1    2    0    0 -1.5472786586e+02 +2.9169945702e+01 -6.0135290372e+00 1.5756827326e+02 0.0000000000e+00 0.0000e+00 1.0000e+00
       13  1    1    2    0    0 +1.5472786586e+02 -2.9169945702e+01 +9.7922460429e+01 1.8541954175e+02 0.0000000000e+00 0.0000e+00 -1.0000e+00
<mgrwt>
<rscale>  0 0.33044423E+03</rscale>
<asrwt>0</asrwt>
<pdfrwt beam="1">  1        2 0.33453596E-01 0.33044423E+03</pdfrwt>
<pdfrwt beam="2">  1       -2 0.19313760E-01 0.33044423E+03</pdfrwt>
<totfact> 0.39103862E+03</totfact>
</mgrwt>
<rwgt>
<wgt id='morphing_basis_vector_1'> +2.7715791e-04 </wgt>
<wgt id='morphing_basis_vector_2'> +1.5695636e-04 </wgt>
<wgt id='morphing_basis_vector_3'> +1.6091264e-04 </wgt>
<wgt id='morphing_basis_vector_4'> +2.8646103e-05 </wgt>
<wgt id='morphing_basis_vector_5'> +8.7875738e-06 </wgt>
</rwgt>
</event>
<event>
 4      1 +5.5534000e-05 3.01645000e+02 7.81860800e-03 1.00021800e-01
        2 -1    0    0  501    0 +0.0000000000e+00 +0.0000000000e+00 +1.8160078188e+01 1.8160078188e+01 0.0000000000e+00 0.0000e+00 1.0000e+00
       -2 -1    0    0    0  501 -0.0000000000e+00 -0.0000000000e+00 -1.2526060264e+03 1.2526060264e+03 0.0000000000e+00 0.0000e+00 -1.0000e+00
      -13  1    1    2    0    0 -1.4142736705e+02 -1.1550707500e+01 -4.0190444181e+02 4.2621860511e+02 0.0000000000e+00 0.0000e+00 -1.0000e+00
       13  1    1    2    0    0 +1.4142736705e+02 +1.1550707500e+01 -8.3254150636e+02 8.4454749944e+02 0.0000000000e+00 0.0000e+00 1.0000e+00
<mgrwt>
<rscale>  0 0.30164498E+03</rscale>
<asrwt>0</asrwt>
<pdfrwt beam="1">  1        2 0.27938571E-02 0.30164498E+03</pdfrwt>
<pdfrwt beam="2">  1       -2 0.19270869E+00 0.30164498E+03</pdfrwt>
<totfact> 0.63375083E+02</totfact>
</mgrwt>
<rwgt>
<wgt id='morphing_basis_vector_1'> +2.4605389e-04 </wgt>
<wgt id='morphing_basis_vector_2'> +1.8534443e-04 </wgt>
<wgt id='morphing_basis_vector_3'> +1.0165497e-04 </wgt>
<wgt id='morphing_basis_vector_4'> +3.3848206e-05 </wgt>
<wgt id='morphing_basis_vector_5'> +2.1213588e-06 </wgt>
</rwgt>
</event>
<event>
 4      1 +5.5534000e-05 3.52558600e+02 7.81860800e-03 9.80795000e-02
        2 -1    0    0  501    0 +0.0000000000e+00 +0.0000000000e+00 +1.1681048592e+02 1.1681048592e+02 0.0000000000e+00 0.0000e+00 -1.0000e+00
       -2 -1    0    0    0  501 -0.0000000000e+00 -0.0000000000e+00 -2.6602396929e+02 2.6602396929e+02 0.0000000000e+00 0.0000e+00 1.0000e+00
      -13  1    1    2    0    0 +9.7256057528e+01 +1.0549607247e+02 -1.8580278938e+02 2.3475697769e+02 0.0000000000e+00 0.0000e+00 1.0000e+00
       13  1    1    2    0    0 -9.7256057528e+01 -1.0549607247e+02 +3.6589306013e+01 1.4807747752e+02 0.0000000000e+00 0.0000e+00 -1.0000e+00
<mgrwt>
<rscale>  0 0.35255859E+03</rscale>
<asrwt>0</asrwt>
<pdfrwt beam="1">  1        2 0.17970844E-01 0.35255859E+03</pdfrwt>
<pdfrwt beam="2">  1       -2 0.40926764E-01 0.35255859E+03</pdfrwt>
<totfact> 0.22060318E+03</totfact>
</mgrwt>
<rwgt>
<wgt id='morphing_basis_vector_1'> +3.2040355e-04 </wgt>
<wgt id='morphing_basis_vector_2'> +1.7479567e-04 </wgt>
<wgt id='morphing_basis_vector_3'> +1.9379979e-04 </wgt>
<wgt id='morphing_basis_vector_4'> +3.5016924e-05 </wgt>
<wgt id='morphing_basis_vector_5'> +1.9612752e-05 </wgt>
</rwgt>
</event>
<event>
 4      1 +5.5534000e-05 3.19203900e+02 7.81860800e-03 9.93079700e-02
        2 -1    0    0  501    0 +0.0000000000e+00 +0.0000000000e+00 +3.3027283693e+02 3.3027283693e+02 0.0000000000e+00 0.0000e+00 -1.0000e+00
       -2 -1    0    0    0  501 -0.0000000000e+00 -0.0000000000e+00 -7.7126500632e+01 7.7126500632e+01 0.0000000000e+00 0.0000e+00 1.0000e+00
      -13  1    1    2    0    0 -1.0126662284e+02 +1.1110438346e+02 +5.8155081632e+01 1.6118661993e+02 0.0000000000e+00 0.0000e+00 1.0000e+00
       13  1    1    2    0    0 +1.0126662284e+02 -1.1110438346e+02 +1.9499125467e+02 2.4621271763e+02 0.0000000000e+00 0.0000e+00 -1.0000e+00
<mgrwt>
<rscale>  0 0.31920394E+03</rscale>
<asrwt>0</asrwt>
<pdfrwt beam="1">  1        2 0.50811205E-01 0.31920394E+03</pdfrwt>
<pdfrwt beam="2">  1       -2 0.11865616E-01 0.31920394E+03</pdfrwt>
<totfact> 0.53391220E+03</totfact>
</mgrwt>
<rwgt>
<wgt id='morphing_basis_vector_1'> +2.5611950e-04 </wgt>
<wgt id='morphing_basis_vector_2'> +1.4515170e-04 </wgt>
<wgt id='morphing_basis_vector_3'> +1.4809327e-04 </wgt>
<wgt id='morphing_basis_vector_4'> +2.6069848e-05 </wgt>
<wgt id='morphing_basis_vector_5'> +5.0453432e-06 </wgt>
</rwgt>
</event>
<event>
 4      1 +5.5534000e-05 3.36623700e+02 7.81860800e-03 9.86471100e-02
        2 -1    0    0  501    0 +0.0000000000e+00 +0.0000000000e+00 +5.9614072263e+02 5.9614072263e+02 0.0000000000e+00 0.0000e+00 -1.0000e+00
       -2 -1    0    0    0  501 -0.0000000000e+00 -0.0000000000e+00 -4.7520454512e+01 4.7520454512e+01 0.0000000000e+00 0.0000e+00 1.0000e+00
      -13  1    1    2    0    0 +8.2703412827e+01 +1.4068949308e+02 +1.9557650575e+02 2.5472251090e+02 0.0000000000e+00 0.0000e+00 1.0000e+00
       13  1    1    2    0    0 -8.2703412827e+01 -1.4068949308e+02 +3.5304376236e+02 3.8893866624e+02 0.0000000000e+00 0.0000e+00 -1.0000e+00
<mgrwt>
<rscale>  0 0.33662370E+03</rscale>
<asrwt>0</asrwt>
<pdfrwt beam="1">  1        2 0.91713952E-01 0.33662370E+03</pdfrwt>
<pdfrwt beam="2">  1       -2 0.73108396E-02 0.33662370E+03</pdfrwt>
<totfact> 0.58512869E+03</totfact>
</mgrwt>
<rwgt>
<wgt id='morphing_basis_vector_1'> +2.8993941e-04 </wgt>
<wgt id='morphing_basis_vector_2'> +1.6550665e-04 </wgt>
<wgt id='morphing_basis_vector_3'> +1.6784686e-04 </wgt>
<wgt id='morphing_basis_vector_4'> +3.0569377e-05 </wgt>
<wgt id='morphing_basis_vector_5'> +1.1386531e-05 </wgt>
</rwgt>
</event>
<event>
 4      1 +5.5534000e-05 3.29568200e+02 7.81860800e-03 9.89094200e-02
        2 -1    0    0  501    0 +0.0000000000e+00 +0.0000000000e+00 +9.4621544430e+02 9.4621544430e+02 0.0000000000e+00 0.0000e+00 -1.0000e+00
       -2 -1    0    0    0  501 -0.0000000000e+00 -0.0000000000e+00 -2.8697267669e+01 2.8697267669e+01 0.0000000000e+00 0.0000e+00 1.0000e+00
      -13  1    1    2    0    0 -1.2332435768e+02 +9.6076752519e+01 +6.1287164819e+02 6.3249608435e+02 0.0000000000e+00 0.0000e+00 1.0000e+00
       13  1    1    2    0    0 +1.2332435768e+02 -9.6076752519e+01 +3.0464652844e+02 3.4241662761e+02 0.0000000000e+00 0.0000e+00 -1.0000e+00
<mgrwt>
<rscale>  0 0.32956819E+03</rscale>
<asrwt>0</asrwt>
<pdfrwt beam="1">  1        2 0.14557158E+00 0.32956819E+03</pdfrwt>
<pdfrwt beam="2">  1       -2 0.44149650E-02 0.32956819E+03</pdfrwt>
<totfact> 0.70995775E+03</totfact>
</mgrwt>
<rwgt>
<wgt id='morphing_basis_vector_1'> +2.9738509e-04 </wgt>
<wgt id='morphing_basis_vector_2'> +2.2044064e-04 </wgt>
<wgt id='morphing_basis_vector_3'> +1.3066260e-04 </wgt>
<wgt id='morphing_basis_vector_4'> +3.7372036e-05 </wgt>
<wgt id='morphing_basis_vector_5'> +9.6665111e-06 </wgt>
</rwgt>
</event>
<event>
 4      1 +5.5534000e-05 3.14644600e+02 7.81860800e-03 9.94885500e-02
        2 -1    0    0  501    0 +0.0000000000e+00 +0.0000000000e+00 +5.4693326300e+01 5.4693326300e+01 0.0000000000e+00 0.0000e+00 1.0000e+00
       -2 -1    0    0    0  501 -0.0000000000e+00 -0.0000000000e+00 -4.5252891053e+02 4.5252891053e+02 0.0000000000e+00 0.0000e+00 -1.0000e+00
      -13  1    1    2    0    0 -1.4076089103e+02 -6.7465028473e+01 -2.3055473541e+02 2.7842529434e+02 0.0000000000e+00 0.0000e+00 -1.0000e+00
       13  1    1    2    0    0 +1.4076089103e+02 +6.7465028473e+01 -1.6728084883e+02 2.2879694249e+02 0.0000000000e+00 0.0000e+00 1.0000e+00
<mgrwt>
<rscale>  0 0.31464463E+03</rscale>
<asrwt>0</asrwt>
<pdfrwt beam="1">  1        2 0.84143580E-02 0.31464463E+03</pdfrwt>
<pdfrwt beam="2">  1       -2 0.69619831E-01 0.31464463E+03</pdfrwt>
<totfact> 0.19858121E+03</totfact>
</mgrwt>
<rwgt>
<wgt id='morphing_basis_vector_1'> +2.5072619e-04 </wgt>
<wgt id='morphing_basis_vector_2'> +1.4850155e-04 </wgt>
<wgt id='morphing_basis_vector_3'> +1.3946872e-04 </wgt>
<wgt id='morphing_basis_vector_4'> +2.6503221e-05 </wgt>
<wgt id='morphing_basis_vector_5'> +3.9765905e-06 </wgt>
</rwgt>
</event>
<event>
 4      1 +5.5534000e-05 3.25510200e+02 7.81860800e-03 9.90635400e-02
        2 -1    0    0  501    0 +0.0000000000e+00 +0.0000000000e+00 +4.9208089757e+02 4.9208089757e+02 0.0000000000e+00 0.0000e+00 1.0000e+00
       -2 -1    0    0    0  501 -0.0000000000e+00 -0.0000000000e+00 -5.3831047822e+01 5.3831047822e+01 0.0000000000e+00 0.0000e+00 -1.0000e+00
      -13  1    1    2    0    0 -8.2100174902e+00 -1.5695297462e+02 +1.4821747711e+02 2.1603254651e+02 0.0000000000e+00 0.0000e+00 -1.0000e+00
       13  1    1    2    0    0 +8.2100174902e+00 +1.5695297462e+02 +2.9003237264e+02 3.2987939889e+02 0.0000000000e+00 0.0000e+00 1.0000e+00
<mgrwt>
<rscale>  0 0.32551025E+03</rscale>
<asrwt>0</asrwt>
<pdfrwt beam="1">  1        2 0.75704750E-01 0.32551025E+03</pdfrwt>
<pdfrwt beam="2">  1       -2 0.82817000E-02 0.32551025E+03</pdfrwt>
<totfact> 0.59978677E+03</totfact>
</mgrwt>
<rwgt>
<wgt id='morphing_basis_vector_1'> +2.6834144e-04 </wgt>
<wgt id='morphing_basis_vector_2'> +1.5343033e-04 </wgt>
<wgt id='morphing_basis_vector_3'> +1.5429495e-04 </wgt>
<wgt id='morphing_basis_vector_4'> +2.7690179e-05 </wgt>
<wgt id='morphing_basis_vector_5'> +7.0343051e-06 </wgt>
</rwgt>
</event>
<event>
 4      1 +5.5534000e-05 3.38390900e+02 7.81860800e-03 9.85825000e-02
        2 -1    0    0  501    0 +0.0000000000e+00 +0.0000000000e+00 +3.0353329517e+02 3.0353329517e+02 0.0000000000e+00 0.0000e+00 -1.0000e+00
       -2 -1    0    0    0  501 -0.0000000000e+00 -0.0000000000e+00 -9.4312865192e+01 9.4312865192e+01 0.0000000000e+00 0.0000e+00 1.0000e+00
      -13  1    1    2    0    0 -5.9453229133e+01 -1.5840446948e+02 +1.0538327011e+02 1.9932961653e+02 0.0000000000e+00 0.0000e+00 1.0000e+00
       13  1    1    2    0    0 +5.9453229133e+01 +1.5840446948e+02 +1.0383715987e+02 1.9851654384e+02 0.0000000000e+00 0.0000e+00 -1.0000e+00
<mgrwt>
<rscale>  0 0.33839087E+03</rscale>
<asrwt>0</asrwt>
<pdfrwt beam="1">  1        2 0.46697430E-01 0.33839087E+03</pdfrwt>
<pdfrwt beam="2">  1       -2 0.14509672E-01 0.33839087E+03</pdfrwt>
<totfact> 0.42760645E+03</totfact>
</mgrwt>
<rwgt>
<wgt id='morphing_basis_vector_1'> +2.9888477e-04 </wgt>
<wgt id='morphing_basis_vector_2'> +1.8340903e-04 </wgt>
<wgt id='morphing_basis_vector_3'> +1.6322624e-04 </wgt>
<wgt id='morphing_basis_vector_4'> +3.3063302e-05 </wgt>
<wgt id='morphing_basis_vector_5'> +1.2506606e-05 </wgt>
</rwgt>
</event>
<event>
 4      1 +5.5534000e-05 3.13035800e+02 7.81860800e-03 9.95530600e-02
        2 -1    0    0  501    0 +0.0000000000e+00 +0.0000000000e+00 +3.7532870563e+02 3.7532870563e+02 0.0000000000e+00 0.0000e+00 1.0000e+00
       -2 -1    0    0    0  501 -0.0000000000e+00 -0.0000000000e+00 -6.5270381814e+01 6.5270381814e+01 0.0000000000e+00 0.0000e+00 -1.0000e+00
      -13  1    1    2    0    0 +2.9008998959e+01 -1.2443756222e+02 +2.7795014043e+01 1.3076234825e+02 0.0000000000e+00 0.0000e+00 -1.0000e+00
       13  1    1    2    0    0 -2.9008998959e+01 +1.2443756222e+02 +2.8226330977e+02 3.0983673920e+02 0.0000000000e+00 0.0000e+00 1.0000e+00
<mgrwt>
<rscale>  0 0.31303577E+03</rscale>
<asrwt>0</asrwt>
<pdfrwt beam="1">  1        2 0.57742876E-01 0.31303577E+03</pdfrwt>
<pdfrwt beam="2">  1       -2 0.10041597E-01 0.31303577E+03</pdfrwt>
<totfact> 0.60053304E+03</totfact>
</mgrwt>
<rwgt>
<wgt id='morphing_basis_vector_1'> +2.4408203e-04 </wgt>
<wgt id='morphing_basis_vector_2'> +1.3581630e-04 </wgt>
<wgt id='morphing_basis_vector_3'> +1.4322489e-04 </wgt>
<wgt id='morphing_basis_vector_4'> +2.4392181e-05 </wgt>
<wgt id='morphing_basis_vector_5'> +3.4169113e-06 </wgt>
</rwgt>
</event>
<event>
 4      1 +5.5534000e-05 3.05622800e+02 7.81860800e-03 9.98556900e-02
        2 -1    0    0  501    0 +0.0000000000e+00 +0.0000000000e+00 +4.1680193486e+02 4.1680193486e+02 0.0000000000e+00 0.0000e+00 -1.0000e+00
       -2 -1    0    0    0  501 -0.0000000000e+00 -0.0000000000e+00 -5.6024972527e+01 5.6024972527e+01 0.0000000000e+00 0.0000e+00 1.0000e+00
      -13  1    1    2    0    0 -1.8381522023e+01 +8.8691909215e+01 -1.0018302805e+01 9.1129037651e+01 0.0000000000e+00 0.0000e+00 1.0000e+00
       13  1    1    2    0    0 +1.8381522023e+01 -8.8691909215e+01 +3.7079526514e+02 3.8169786974e+02 0.0000000000e+00 0.0000e+00 -1.0000e+00
<mgrwt>
<rscale>  0 0.30562275E+03</rscale>
<asrwt>0</asrwt>
<pdfrwt beam="1">  1        2 0.64123373E-01 0.30562275E+03</pdfrwt>
<pdfrwt beam="2">  1       -2 0.86192268E-02 0.30562275E+03</pdfrwt>
<totfact> 0.67616850E+03</totfact>
</mgrwt>
<rwgt>
<wgt id='morphing_basis_vector_1'> +2.3140297e-04 </wgt>
<wgt id='morphing_basis_vector_2'> +1.2851129e-04 </wgt>
<wgt id='morphing_basis_vector_3'> +1.3620877e-04 </wgt>
<wgt id='morphing_basis_vector_4'> +2.3167899e-05 </wgt>
<wgt id='morphing_basis_vector_5'> +1.9400375e-06 </wgt>
</rwgt>
</event>
<event>
 4      1 +5.5534000e-05 3.05854900e+02 7.81860800e-03 9.98460700e-02
        2 -1    0    0  501    0 +0.0000000000e+00 +0.0000000000e+00 +1.3138016406e+03 1.3138016406e+03 0.0000000000e+00 0.0000e+00 -1.0000e+00
       -2 -1    0    0    0  501 -0.0000000000e+00 -0.0000000000e+00 -1.7800869693e+01 1.7800869693e+01 0.0000000000e+00 0.0000e+00 1.0000e+00
      -13  1    1    2    0    0 -1.0417961900e+02 -1.1188109525e+02 +6.3056417775e+02 6.4883122209e+02 0.0000000000e+00 0.0000e+00 1.0000e+00
       13  1    1    2    0    0 +1.0417961900e+02 +1.1188109525e+02 +6.6543659318e+02 6.8277128824e+02 0.0000000000e+00 0.0000e+00 -1.0000e+00
<mgrwt>
<rscale>  0 0.30585494E+03</rscale>
<asrwt>0</asrwt>
<pdfrwt beam="1">  1        2 0.20212325E+00 0.30585494E+03</pdfrwt>
<pdfrwt beam="2">  1       -2 0.27385964E-02 0.30585494E+03</pdfrwt>
<totfact> 0.88350718E+03</totfact>
</mgrwt>
<rwgt>
<wgt id='morphing_basis_vector_1'> +2.3770722e-04 </wgt>
<wgt id='morphing_basis_vector_2'> +1.4572282e-04 </wgt>
<wgt id='morphing_basis_vector_3'> +1.2787440e-04 </wgt>
<wgt id='morphing_basis_vector_4'> +2.6235583e-05 </wgt>
<wgt id='morphing_basis_vector_5'> +2.2212545e-06 </wgt>
</rwgt>
</event>
<event>
 4      1 +5.5534000e-05 3.41895400e+02 7.81860800e-03 9.84556300e-02
        2 -1    0    0  501    0 +0.0000000000e+00 +0.0000000000e+00 +1.1927071894e+03 1.1927071894e+03 0.0000000000e+00 0.0000e+00 -1.0000e+00
       -2 -1    0    0    0  501 -0.0000000000e+00 -0.0000000000e+00 -2.4501497382e+01 2.4501497382e+01 0.0000000000e+00 0.0000e+00 1.0000e+00
      -13  1    1    2    0    0 +7.9479257713e+01 +1.4005070276e+02 +3.7983542207e+02 4.1256041935e+02 0.0000000000e+00 0.0000e+00 1.0000e+00
       13  1    1    2    0    0 -7.9479257713e+01 -1.4005070276e+02 +7.8837026995e+02 8.0464826743e+02 0.0000000000e+00 0.0000e+00 -1.0000e+00
<mgrwt>
<rscale>  0 0.34189538E+03</rscale>
<asrwt>0</asrwt>
<pdfrwt beam="1">  1        2 0.18349337E+00 0.34189538E+03</pdfrwt>
<pdfrwt beam="2">  1       -2 0.37694621E-02 0.34189538E+03</pdfrwt>
<totfact> 0.64500676E+03</totfact>
</mgrwt>
<rwgt>
<wgt id='morphing_basis_vector_1'> +2.9953696e-04 </wgt>
<wgt id='morphing_basis_vector_2'> +1.6804022e-04 </wgt>
<wgt id='morphing_basis_vector_3'> +1.7629016e-04 </wgt>
<wgt id='morphing_basis_vector_4'> +3.1769970e-05 </wgt>
<wgt id='morphing_basis_vector_5'> +1.3806737e-05 </wgt>
</rwgt>
</event>
<event>
 4      1 +5.5534000e-05 3.22899700e+02 7.81860800e-03 9.91639900e-02
        2 -1    0    0  501    0 +0.0000000000e+00 +0.0000000000e+00 +2.3083147133e+02 2.3083147133e+02 0.0000000000e+00 0.0000e+00 -1.0000e+00
       -2 -1    0    0    0  501 -0.0000000000e+00 -0.0000000000e+00 -1.1292242498e+02 1.1292242498e+02 0.0000000000e+00 0.0000e+00 1.0000e+00
      -13  1    1    2    0    0 -4.4155908704e+00 +1.1559203250e+02 -6.0947316093e+01 1.3075010806e+02 0.0000000000e+00 0.0000e+00 1.0000e+00
       13  1    1    2    0    0 +4.4155908704e+00 -1.1559203250e+02 +1.7885636245e+02 2.1300378825e+02 0.0000000000e+00 0.0000e+00 -1.0000e+00
<mgrwt>
<rscale>  0 0.32289967E+03</rscale>
<asrwt>0</asrwt>
<pdfrwt beam="1">  1        2 0.35512534E-01 0.32289967E+03</pdfrwt>
<pdfrwt beam="2">  1       -2 0.17372681E-01 0.32289967E+03</pdfrwt>
<totfact> 0.43392744E+03</totfact>
</mgrwt>
<rwgt>
<wgt id='morphing_basis_vector_1'> +2.6101714e-04 </wgt>
<wgt id='morphing_basis_vector_2'> +1.4351371e-04 </wgt>
<wgt id='morphing_basis_vector_3'> +1.5468449e-04 </wgt>
<wgt id='morphing_basis_vector_4'> +2.6029572e-05 </wgt>
<wgt id='morphing_basis_vector_5'> +6.0522707e-06 </wgt>
</rwgt>
</event>
<event>
 4      1 +5.5534000e-05 3.21154500e+02 7.81860800e-03 9.92317200e-02
        2 -1    0    0  501    0 +0.0000000000e+00 +0.0000000000e+00 +1.0301017393e+03 1.0301017393e+03 0.0000000000e+00 0.0000e+00 -1.0000e+00
       -2 -1    0    0    0  501 -0.0000000000e+00 -0.0000000000e+00 -2.5031566479e+01 2.5031566479e+01 0.0000000000e+00 0.0000e+00 1.0000e+00
      -13  1    1    2    0    0 +1.3844353561e+02 -3.3859014647e+01 +2.5950116684e+02 2.9606401507e+02 0.0000000000e+00 0.0000e+00 1.0000e+00
       13  1    1    2    0    0 -1.3844353561e+02 +3.3859014647e+01 +7.4556900601e+02 7.5906929074e+02 0.0000000000e+00 0.0000e+00 -1.0000e+00
<mgrwt>
<rscale>  0 0.32115454E+03</rscale>
<asrwt>0</asrwt>
<pdfrwt beam="1">  1        2 0.15847716E+00 0.32115454E+03</pdfrwt>
<pdfrwt beam="2">  1       -2 0.38510110E-02 0.32115454E+03</pdfrwt>
<totfact> 0.77400113E+03</totfact>
</mgrwt>
<rwgt>
<wgt id='morphing_basis_vector_1'> +2.5872864e-04 </wgt>
<wgt id='morphing_basis_vector_2'> +1.4440822e-04 </wgt>
<wgt id='morphing_basis_vector_3'> +1.5150133e-04 </wgt>
<wgt id='morphing_basis_vector_4'> +2.6051830e-05 </wgt>
<wgt id='morphing_basis_vector_5'> +5.5648572e-06 </wgt>
</rwgt>
</event>
<event>
 4      1 +5.5534000e-05 3.38462000e+02 7.81860800e-03 9.85799100e-02
        2 -1    0    0  501    0 +0.0000000000e+00 +0.0000000000e+00 +1.1111823599e+03 1.1111823599e+03 0.0000000000e+00 0.0000e+00 1.0000e+00
       -2 -1    0    0    0  501 -0.0000000000e+00 -0.0000000000e+00 -2.5773571462e+01 2.5773571462e+01 0.0000000000e+00 0.0000e+00 -1.0000e+00
      -13  1    1    2    0    0 +3.6278277530e+00 +1.6102149606e+02 +7.1718977068e+02 7.3505254948e+02 0.0000000000e+00 0.0000e+00 -1.0000e+00
       13  1    1    2    0    0 -3.6278277530e+00 -1.6102149606e+02 +3.6821901772e+02 4.0190338184e+02 0.0000000000e+00 0.0000e+00 1.0000e+00
<mgrwt>
<rscale>  0 0.33846204E+03</rscale>
<asrwt>0</asrwt>
<pdfrwt beam="1">  1        2 0.17095110E+00 0.33846204E+03</pdfrwt>
<pdfrwt beam="2">  1       -2 0.39651657E-02 0.33846204E+03</pdfrwt>
<totfact> 0.66551733E+03</totfact>
</mgrwt>
<rwgt>
<wgt id='morphing_basis_vector_1'> +3.1556955e-04 </wgt>
<wgt id='morphing_basis_vector_2'> +2.3245800e-04 </wgt>
<wgt id='morphing_basis_vector_3'> +1.4204611e-04 </wgt>
<wgt id='morphing_basis_vector_4'> +3.9147578e-05 </wgt>
<wgt id='morphing_basis_vector_5'> +1.3515036e-05 </wgt>
</rwgt>
</event>
<event>
 4      1 +5.5534000e-05 3.27554300e+02 7.81860800e-03 9.89856100e-02
        2 -1    0    0  501    0 +0.0000000000e+00 +0.0000000000e+00 +5.7395137881e+02 5.7395137881e+02 0.0000000000e+00 0.0000e+00 -1.0000e+00
       -2 -1    0    0    0  501 -0.0000000000e+00 -0.0000000000e+00 -4.6733845388e+01 4.6733845388e+01 0.0000000000e+00 0.0000e+00 1.0000e+00
      -13  1    1    2    0    0 -1.4633523080e+02 -7.3100777049e+01 +2.4830433606e+02 2.9734284368e+02 0.0000000000e+00 0.0000e+00 1.0000e+00
       13  1    1    2    0    0 +1.4633523080e+02 +7.3100777049e+01 +2.7891319736e+02 3.2334238052e+02 0.0000000000e+00 0.0000e+00 -1.0000e+00
<mgrwt>
<rscale>  0 0.32755430E+03</rscale>
<asrwt>0</asrwt>
<pdfrwt beam="1">  1        2 0.88300207E-01 0.32755430E+03</pdfrwt>
<pdfrwt beam="2">  1       -2 0.71898228E-02 0.32755430E+03</pdfrwt>
<totfact> 0.62613779E+03</totfact>
</mgrwt>
<rwgt>
<wgt id='morphing_basis_vector_1'> +2.7586712e-04 </wgt>
<wgt id='morphing_basis_vector_2'> +1.6634143e-04 </wgt>
<wgt id='morphing_basis_vector_3'> +1.5176026e-04 </wgt>
<wgt id='morphing_basis_vector_4'> +2.9699158e-05 </wgt>
<wgt id='morphing_basis_vector_5'> +7.9458231e-06 </wgt>
</rwgt>
</event>
<event>
 4      1 +5.5534000e-05 3.48469300e+02 7.81860800e-03 9.82220200e-02
        2 -1    0    0  501    0 +0.0000000000e+00 +0.0000000000e+00 +3.1602018751e+02 3.1602018751e+02 0.0000000000e+00 0.0000e+00 -1.0000e+00
       -2 -1    0    0    0  501 -0.0000000000e+00 -0.0000000000e+00 -9.6062586435e+01 9.6062586435e+01 0.0000000000e+00 0.0000e+00 1.0000e+00
      -13  1    1    2    0    0 +1.0813661340e+02 -8.4247310415e+01 -1.7202247262e+01 1.3815590390e+02 0.0000000000e+00 0.0000e+00 1.0000e+00
       13  1    1    2    0    0 -1.0813661340e+02 +8.4247310415e+01 +2.3715984833e+02 2.7392687004e+02 0.0000000000e+00 0.0000e+00 -1.0000e+00
<mgrwt>
<rscale>  0 0.34846932E+03</rscale>
<asrwt>0</asrwt>
<pdfrwt beam="1">  1        2 0.48618490E-01 0.34846932E+03</pdfrwt>
<pdfrwt beam="2">  1       -2 0.14778860E-01 0.34846932E+03</pdfrwt>
<totfact> 0.39763819E+03</totfact>
</mgrwt>
<rwgt>
<wgt id='morphing_basis_vector_1'> +3.1143929e-04 </wgt>
<wgt id='morphing_basis_vector_2'> +1.6976959e-04 </wgt>
<wgt id='morphing_basis_vector_3'> +1.8790889e-04 </wgt>
<wgt id='morphing_basis_vector_4'> +3.3410184e-05 </wgt>
<wgt id='morphing_basis_vector_5'> +1.7192218e-05 </wgt>
</rwgt>
</event>
<event>
 4      1 +5.5534000e-05 3.05101200e+02 7.81860800e-03 9.98773200e-02
        2 -1    0    0  501    0 +0.0000000000e+00 +0.0000000000e+00 +3.8995074314e+02 3.8995074314e+02 0.0000000000e+00 0.0000e+00 1.0000e+00
       -2 -1    0    0    0  501 -0.0000000000e+00 -0.0000000000e+00 -5.9678513175e+01 5.9678513175e+01 0.0000000000e+00 0.0000e+00 -1.0000e+00
      -13  1    1    2    0    0 -4.5385324690e+01 -1.4041144973e+02 +1.0812680161e+02 1.8293880982e+02 0.0000000000e+00 0.0000e+00 -1.0000e+00
       13  1    1    2    0    0 +4.5385324690e+01 +1.4041144973e+02 +2.2214542835e+02 2.6669044649e+02 0.0000000000e+00 0.0000e+00 1.0000e+00
<mgrwt>
<rscale>  0 0.30510117E+03</rscale>
<asrwt>0</asrwt>
<pdfrwt beam="1">  1        2 0.59992421E-01 0.30510117E+03</pdfrwt>
<pdfrwt beam="2">  1       -2 0.91813099E-02 0.30510117E+03</pdfrwt>
<totfact> 0.66036538E+03</totfact>
</mgrwt>
<rwgt>
<wgt id='morphing_basis_vector_1'> +2.3294378e-04 </wgt>
<wgt id='morphing_basis_vector_2'> +1.3492652e-04 </wgt>
<wgt id='morphing_basis_vector_3'> +1.3224671e-04 </wgt>
<wgt id='morphing_basis_vector_4'> +2.4334182e-05 </wgt>
<wgt id='morphing_basis_vector_5'> +1.9497125e-06 </wgt>
</rwgt>
</event>
<event>
 4      1 +5.5534000e-05 3.11281500e+02 7.81860800e-03 9.96238700e-02
        2 -1    0    0  501    0 +0.0000000000e+00 +0.0000000000e+00 +5.7085219628e+02 5.7085219628e+02 0.0000000000e+00 0.0000e+00 1.0000e+00
       -2 -1    0    0    0  501 -0.0000000000e+00 -0.0000000000e+00 -4.2434882768e+01 4.2434882768e+01 0.0000000000e+00 0.0000e+00 -1.0000e+00
      -13  1    1    2    0    0 +1.3178633648e+02 -3.8964385376e+01 +1.2026011947e+02 1.8261532834e+02 0.0000000000e+00 0.0000e+00 -1.0000e+00
       13  1    1    2    0    0 -1.3178633648e+02 +3.8964385376e+01 +4.0815719404e+02 4.3067175071e+02 0.0000000000e+00 0.0000e+00 1.0000e+00
<mgrwt>
<rscale>  0 0.31128152E+03</rscale>
<asrwt>0</asrwt>
<pdfrwt beam="1">  1        2 0.87823409E-01 0.31128152E+03</pdfrwt>
<pdfrwt beam="2">  1       -2 0.65284439E-02 0.31128152E+03</pdfrwt>
<totfact> 0.72788693E+03</totfact>
</mgrwt>
<rwgt>
<wgt id='morphing_basis_vector_1'> +2.4156252e-04 </wgt>
<wgt id='morphing_basis_vector_2'> +1.3560120e-04 </wgt>
<wgt id='morphing_basis_vector_3'> +1.4075253e-04 </wgt>
<wgt id='morphing_basis_vector_4'> +2.4342313e-05 </wgt>
<wgt id='morphing_basis_vector_5'> +3.0510170e-06 </wgt>
</rwgt>
</event>
<event>
 4      1 +5.5534000e-05 3.00484800e+02 7.81860800e-03 1.00070800e-01
        2 -1    0    0  501    0 +0.0000000000e+00 +0.0000000000e+00 +1.0301648843e+03 1.0301648843e+03 0.0000000000e+00 0.0000e+00 1.0000e+00
       -2 -1    0    0    0  501 -0.0000000000e+00 -0.0000000000e+00 -2.1911816634e+01 2.1911816634e+01 0.0000000000e+00 0.0000e+00 -1.0000e+00
      -13  1    1    2    0    0 +6.6626651905e+01 +1.2149238419e+02 +7.0747956300e+02 7.2092082937e+02 0.0000000000e+00 0.0000e+00 -1.0000e+00
       13  1    1    2    0    0 -6.6626651905e+01 -1.2149238419e+02 +3.0077350468e+02 3.3115587158e+02 0.0000000000e+00 0.0000e+00 1.0000e+00
<mgrwt>
<rscale>  0 0.30048484E+03</rscale>
<asrwt>0</asrwt>
<pdfrwt beam="1">  1        2 0.15848687E+00 0.30048484E+03</pdfrwt>
<pdfrwt beam="2">  1       -2 0.33710495E-02 0.30048484E+03</pdfrwt>
<totfact> 0.94065187E+03</totfact>
</mgrwt>
<rwgt>
<wgt id='morphing_basis_vector_1'> +2.4760661e-04 </wgt>
<wgt id='morphing_basis_vector_2'> +1.9397772e-04 </wgt>
<wgt id='morphing_basis_vector_3'> +9.5511303e-05 </wgt>
<wgt id='morphing_basis_vector_4'> +3.5632255e-05 </wgt>
<wgt id='morphing_basis_vector_5'> +2.0697344e-06 </wgt>
</rwgt>
</event>
<event>
 4      1 +5.5534000e-05 3.48406100e+02 7.81860800e-03 9.82242400e-02
        2 -1    0    0  501    0 +0.0000000000e+00 +0.0000000000e+00 +9.4621434329e+01 9.4621434329e+01 0.0000000000e+00 0.0000e+00 -1.0000e+00
       -2 -1    0    0    0  501 -0.0000000000e+00 -0.0000000000e+00 -3.2071707507e+02 3.2071707507e+02 0.0000000000e+00 0.0000e+00 1.0000e+00
      -13  1    1    2    0    0 +1.7600081112e+01 -9.9741065581e+01 -2.8201095400e+02 2.9964682744e+02 0.0000000000e+00 0.0000e+00 1.0000e+00
       13  1    1    2    0    0 -1.7600081112e+01 +9.9741065581e+01 +5.5915313257e+01 1.1569168196e+02 0.0000000000e+00 0.0000e+00 -1.0000e+00
<mgrwt>
<rscale>  0 0.34840614E+03</rscale>
<asrwt>0</asrwt>
<pdfrwt beam="1">  1        2 0.14557144E-01 0.34840614E+03</pdfrwt>
<pdfrwt beam="2">  1       -2 0.49341088E-01 0.34840614E+03</pdfrwt>
<totfact> 0.20005023E+03</totfact>
</mgrwt>
<rwgt>
<wgt id='morphing_basis_vector_1'> +3.1084427e-04 </wgt>
<wgt id='morphing_basis_vector_2'> +1.6832666e-04 </wgt>
<wgt id='morphing_basis_vector_3'> +1.8838484e-04 </wgt>
<wgt id='morphing_basis_vector_4'> +3.3240052e-05 </wgt>
<wgt id='morphing_basis_vector_5'> +1.7127840e-05 </wgt>
</rwgt>
</event>
<event>
 4      1 +5.5534000e-05 3.19972300e+02 7.81860800e-03 9.92778700e-02
        2 -1    0    0  501    0 +0.0000000000e+00 +0.0000000000e+00 +1.0369611820e+03 1.0369611820e+03 0.0000000000e+00 0.0000e+00 -1.0000e+00
       -2 -1    0    0    0  501 -0.0000000000e+00 -0.0000000000e+00 -2.4683239908e+01 2.4683239908e+01 0.0000000000e+00 0.0000e+00 1.0000e+00
      -13  1    1    2    0    0 -1.3757351486e+02 -6.6939158152e+01 +6.6134697242e+02 6.7881303819e+02 0.0000000000e+00 0.0000e+00 1.0000e+00
       13  1    1    2    0    0 +1.3757351486e+02 +6.6939158152e+01 +3.5093096965e+02 3.8283138370e+02 0.0000000000e+00 0.0000e+00 -1.0000e+00
<mgrwt>
<rscale>  0 0.31997226E+03</rscale>
<asrwt>0</asrwt>
<pdfrwt beam="1">  1        2 0.15953246E+00 0.31997226E+03</pdfrwt>
<pdfrwt beam="2">  1       -2 0.37974223E-02 0.31997226E+03</pdfrwt>
<totfact> 0.78285854E+03</totfact>
</mgrwt>
<rwgt>
<wgt id='morphing_basis_vector_1'> +2.7637300e-04 </wgt>
<wgt id='morphing_basis_vector_2'> +2.0089972e-04 </wgt>
<wgt id='morphing_basis_vector_3'> +1.2290528e-04 </wgt>
<wgt id='morphing_basis_vector_4'> +3.4749269e-05 </wgt>
<wgt id='morphing_basis_vector_5'> +6.2145688e-06 </wgt>
</rwgt>
</event>
<event>
 4      1 +5.5534000e-05 3.36274100e+02 7.81860800e-03 9.86599400e-02
        2 -1    0    0  501    0 +0.0000000000e+00 +0.0000000000e+00 +9.1340166946e+02 9.1340166946e+02 0.0000000000e+00 0.0000e+00 -1.0000e+00
       -2 -1    0    0    0  501 -0.0000000000e+00 -0.0000000000e+00 -3.0950319881e+01 3.0950319881e+01 0.0000000000e+00 0.0000e+00 1.0000e+00
      -13  1    1    2    0    0 -1.1586953654e+02 -7.7712866545e+01 +1.7771029411e+02 2.2593359148e+02 0.0000000000e+00 0.0000e+00 1.0000e+00
       13  1    1    2    0    0 +1.1586953654e+02 +7.7712866545e+01 +7.0474105547e+02 7.1841839787e+02 0.0000000000e+00 0.0000e+00 -1.0000e+00
<mgrwt>
<rscale>  0 0.33627414E+03</rscale>
<asrwt>0</asrwt>
<pdfrwt beam="1">  1        2 0.14052331E+00 0.33627414E+03</pdfrwt>
<pdfrwt beam="2">  1       -2 0.47615884E-02 0.33627414E+03</pdfrwt>
<totfact> 0.66497830E+03</totfact>
</mgrwt>
<rwgt>
<wgt id='morphing_basis_vector_1'> +2.8668276e-04 </wgt>
<wgt id='morphing_basis_vector_2'> +1.5756409e-04 </wgt>
<wgt id='morphing_basis_vector_3'> +1.7071295e-04 </wgt>
<wgt id='morphing_basis_vector_4'> +2.9505162e-05 </wgt>
<wgt id='morphing_basis_vector_5'> +1.1082787e-05 </wgt>
</rwgt>
</event>
<event>
 4      1 +5.5534000e-05 3.36507600e+02 7.81860800e-03 9.86513700e-02
        2 -1    0    0  501    0 +0.0000000000e+00 +0.0000000000e+00 +1.3901854686e+03 1.3901854686e+03 0.0000000000e+00 0.0000e+00 1.0000e+00
       -2 -1    0    0    0  501 -0.0000000000e+00 -0.0000000000e+00 -2.0363712715e+01 2.0363712715e+01 0.0000000000e+00 0.0000e+00 -1.0000e+00
      -13  1    1    2    0    0 -2.4137613204e+01 +1.5487878298e+02 +4.2858814264e+02 4.5635277780e+02 0.0000000000e+00 0.0000e+00 -1.0000e+00
       13  1    1    2    0    0 +2.4137613204e+01 -1.5487878298e+02 +9.4123361320e+02 9.5419640347e+02 0.0000000000e+00 0.0000e+00 1.0000e+00
<mgrwt>
<rscale>  0 0.33650758E+03</rscale>
<asrwt>0</asrwt>
<pdfrwt beam="1">  1        2 0.21387461E+00 0.33650758E+03</pdfrwt>
<pdfrwt beam="2">  1       -2 0.31328800E-02 0.33650758E+03</pdfrwt>
<totfact> 0.66006101E+03</totfact>
</mgrwt>
<rwgt>
<wgt id='morphing_basis_vector_1'> +2.8838494e-04 </wgt>
<wgt id='morphing_basis_vector_2'> +1.6147100e-04 </wgt>
<wgt id='morphing_basis_vector_3'> +1.6941030e-04 </wgt>
<wgt id='morphing_basis_vector_4'> +3.0039103e-05 </wgt>
<wgt id='morphing_basis_vector_5'> +1.1257904e-05 </wgt>
</rwgt>
</event>
<event>
 4      1 +5.5534000e-05 3.51583900e+02 7.81860800e-03 9.81132800e-02
        2 -1    0    0  501    0 +0.0000000000e+00 +0.0000000000e+00 +1.3407278448e+02 1.3407278448e+02 0.0000000000e+00 0.0000e+00 -1.0000e+00
       -2 -1    0    0    0  501 -0.0000000000e+00 -0.0000000000e+00 -2.3049282599e+02 2.3049282599e+02 0.0000000000e+00 0.0000e+00 1.0000e+00
      -13  1    1    2    0    0 -5.2210056173e+01 +5.9684961080e+01 -2.1089345901e+02 2.2530919999e+02 0.0000000000e+00 0.0000e+00 1.0000e+00
       13  1    1    2    0    0 +5.2210056173e+01 -5.9684961080e+01 +1.1447341751e+02 1.3925641048e+02 0.0000000000e+00 0.0000e+00 -1.0000e+00
<mgrwt>
<rscale>  0 0.35158393E+03</rscale>
<asrwt>0</asrwt>
<pdfrwt beam="1">  1        2 0.20626583E-01 0.35158393E+03</pdfrwt>
<pdfrwt beam="2">  1       -2 0.35460434E-01 0.35158393E+03</pdfrwt>
<totfact> 0.24293975E+03</totfact>
</mgrwt>
<rwgt>
<wgt id='morphing_basis_vector_1'> +3.1758445e-04 </wgt>
<wgt id='morphing_basis_vector_2'> +1.7160714e-04 </wgt>
<wgt id='morphing_basis_vector_3'> +1.9318147e-04 </wgt>
<wgt id='morphing_basis_vector_4'> +3.4422948e-05 </wgt>
<wgt id='morphing_basis_vector_5'> +1.8977260e-05 </wgt>
</rwgt>
</event>
<event>
 4      1 +5.5534000e-05 3.45588000e+02 7.81860800e-03 9.83237200e-02
        2 -1    0    0  501    0 +0.0000000000e+00 +0.0000000000e+00 +1.2370765208e+03 1.2370765208e+03 0.0000000000e+00 0.0000e+00 -1.0000e+00
       -2 -1    0    0    0  501 -0.0000000000e+00 -0.0000000000e+00 -2.4135746932e+01 2.4135746932e+01 0.0000000000e+00 0.0000e+00 1.0000e+00
      -13  1    1    2    0    0 -1.6381181166e+02 -5.3197099197e+01 +5.5570147047e+02 5.8178034109e+02 0.0000000000e+00 0.0000e+00 1.0000e+00
       13  1    1    2    0    0 +1.6381181166e+02 +5.3197099197e+01 +6.5723930345e+02 6.7943192668e+02 0.0000000000e+00 0.0000e+00 -1.0000e+00
<mgrwt>
<rscale>  0 0.34558800E+03</rscale>
<asrwt>0</asrwt>
<pdfrwt beam="1">  1        2 0.19031942E+00 0.34558800E+03</pdfrwt>
<pdfrwt beam="2">  1       -2 0.37131928E-02 0.34558800E+03</pdfrwt>
<totfact> 0.62303520E+03</totfact>
</mgrwt>
<rwgt>
<wgt id='morphing_basis_vector_1'> +3.1157685e-04 </wgt>
<wgt id='morphing_basis_vector_2'> +1.8511691e-04 </wgt>
<wgt id='morphing_basis_vector_3'> +1.7599506e-04 </wgt>
<wgt id='morphing_basis_vector_4'> +3.4445528e-05 </wgt>
<wgt id='morphing_basis_vector_5'> +1.5984620e-05 </wgt>
</rwgt>
</event>
<event>
 4      1 +5.5534000e-05 3.23652100e+02 7.81860800e-03 9.91349300e-02
        2 -1    0    0  501    0 +0.0000000000e+00 +0.0000000000e+00 +4.4739038517e+01 4.4739038517e+01 0.0000000000e+00 0.0000e+00 -1.0000e+00
       -2 -1    0    0    0  501 -0.0000000000e+00 -0.0000000000e+00 -5.8534279116e+02 5.8534279116e+02 0.0000000000e+00 0.0000e+00 1.0000e+00
      -13  1    1    2    0    0 -2.7408478760e+01 +1.3573410961e+02 -4.3332947966e+02 4.5491692776e+02 0.0000000000e+00 0.0000e+00 1.0000e+00
       13  1    1    2    0    0 +2.7408478760e+01 -1.3573410961e+02 -1.0727427298e+02 1.7516490191e+02 0.0000000000e+00 0.0000e+00 -1.0000e+00
<mgrwt>
<rscale>  0 0.32365212E+03</rscale>
<asrwt>0</asrwt>
<pdfrwt beam="1">  1        2 0.68829297E-02 0.32365212E+03</pdfrwt>
<pdfrwt beam="2">  1       -2 0.90052728E-01 0.32365212E+03</pdfrwt>
<totfact> 0.14600199E+03</totfact>
</mgrwt>
<rwgt>
<wgt id='morphing_basis_vector_1'> +2.6295130e-04 </wgt>
<wgt id='morphing_basis_vector_2'> +1.4587028e-04 </wgt>
<wgt id='morphing_basis_vector_3'> +1.5478758e-04 </wgt>
<wgt id='morphing_basis_vector_4'> +2.6437050e-05 </wgt>
<wgt id='morphing_basis_vector_5'> +6.3194236e-06 </wgt>
</rwgt>
</event>
<event>
 4      1 +5.5534000e-05 3.17537500e+02 7.81860800e-03 9.93735900e-02
        2 -1    0    0  501    0 +0.0000000000e+00 +0.0000000000e+00 +7.4158357644e+02 7.4158357644e+02 0.0000000000e+00 0.0000e+00 1.0000e+00
       -2 -1    0    0    0  501 -0.0000000000e+00 -0.0000000000e+00 -3.3991466507e+01 3.3991466507e+01 0.0000000000e+00 0.0000e+00 -1.0000e+00
      -13  1    1    2    0    0 +1.4888035829e+01 -1.5086049462e+02 +2.3853407012e+02 2.8262881144e+02 0.0000000000e+00 0.0000e+00 -1.0000e+00
       13  1    1    2    0    0 -1.4888035829e+01 +1.5086049462e+02 +4.6905803981e+02 4.9294623151e+02 0.0000000000e+00 0.0000e+00 1.0000e+00
<mgrwt>
<rscale>  0 0.31753748E+03</rscale>
<asrwt>0</asrwt>
<pdfrwt beam="1">  1        2 0.11408977E+00 0.31753748E+03</pdfrwt>
<pdfrwt beam="2">  1       -2 0.52294570E-02 0.31753748E+03</pdfrwt>
<totfact> 0.74982228E+03</totfact>
</mgrwt>
<rwgt>
<wgt id='morphing_basis_vector_1'> +2.5352773e-04 </wgt>
<wgt id='morphing_basis_vector_2'> +1.4464402e-04 </wgt>
<wgt id='morphing_basis_vector_3'> +1.4575349e-04 </wgt>
<wgt id='morphing_basis_vector_4'> +2.5929364e-05 </wgt>
<wgt id='morphing_basis_vector_5'> +4.6067756e-06 </wgt>
</rwgt>
</event>
<event>
 4      1 +5.5534000e-05 3.49589800e+02 7.81860800e-03 9.81827600e-02
        2 -1    0    0  501    0 +0.0000000000e+00 +0.0000000000e+00 +6.9699410047e+02 6.9699410047e+02 0.0000000000e+00 0.0000e+00 1.0000e+00
       -2 -1    0    0    0  501 -0.0000000000e+00 -0.0000000000e+00 -4.3835735708e+01 4.3835735708e+01 0.0000000000e+00 0.0000e+00 -1.0000e+00
      -13  1    1    2    0    0 +9.9921200360e+01 +1.1340995892e+02 +1.4053862368e+02 2.0639081813e+02 0.0000000000e+00 0.0000e+00 -1.0000e+00
       13  1    1    2    0    0 -9.9921200360e+01 -1.1340995892e+02 +5.1261974108e+02 5.3443901805e+02 0.0000000000e+00 0.0000e+00 1.0000e+00
<mgrwt>
<rscale>  0 0.34958975E+03</rscale>
<asrwt>0</asrwt>
<pdfrwt beam="1">  1        2 0.10722985E+00 0.34958975E+03</pdfrwt>
<pdfrwt beam="2">  1       -2 0.67439598E-02 0.34958975E+03</pdfrwt>
<totfact> 0.55197877E+03</totfact>
</mgrwt>
<rwgt>
<wgt id='morphing_basis_vector_1'> +3.1437745e-04 </wgt>
<wgt id='morphing_basis_vector_2'> +1.7263787e-04 </wgt>
<wgt id='morphing_basis_vector_3'> +1.8888275e-04 </wgt>
<wgt id='morphing_basis_vector_4'> +3.3997410e-05 </wgt>
<wgt id='morphing_basis_vector_5'> +1.7868372e-05 </wgt>
</rwgt>
</event>
<event>
 4      1 +5.5534000e-05 3.58316300e+02 7.81860800e-03 9.78823300e-02
        2 -1    0    0  501    0 +0.0000000000e+00 +0.0000000000e+00 +1.1113990069e+02 1.1113990069e+02 0.0000000000e+00 0.0000e+00 1.0000e+00
       -2 -1    0    0    0  501 -0.0000000000e+00 -0.0000000000e+00 -2.8880395589e+02 2.8880395589e+02 0.0000000000e+00 0.0000e+00 -1.0000e+00
      -13  1    1    2    0    0 +7.9485664894e+00 -1.7804831096e+02 -6.8455718796e+01 1.9092031369e+02 0.0000000000e+00 0.0000e+00 -1.0000e+00
       13  1    1    2    0    0 -7.9485664894e+00 +1.7804831096e+02 -1.0920833641e+02 2.0902354289e+02 0.0000000000e+00 0.0000e+00 1.0000e+00
<mgrwt>
<rscale>  0 0.35831630E+03</rscale>
<asrwt>0</asrwt>
<pdfrwt beam="1">  1        2 0.17098447E-01 0.35831630E+03</pdfrwt>
<pdfrwt beam="2">  1       -2 0.44431377E-01 0.35831630E+03</pdfrwt>
<totfact> 0.20106243E+03</totfact>
</mgrwt>
<rwgt>
<wgt id='morphing_basis_vector_1'> +3.4698949e-04 </wgt>
<wgt id='morphing_basis_vector_2'> +2.2284399e-04 </wgt>
<wgt id='morphing_basis_vector_3'> +1.8644749e-04 </wgt>
<wgt id='morphing_basis_vector_4'> +4.1144157e-05 </wgt>
<wgt id='morphing_basis_vector_5'> +2.4214628e-05 </wgt>
</rwgt>
</event>
<event>
 4      1 +5.5534000e-05 3.21039800e+02 7.81860800e-03 9.92361900e-02
        2 -1    0    0  501    0 +0.0000000000e+00 +0.0000000000e+00 +1.6119365048e+02 1.6119365048e+02 0.0000000000e+00 0.0000e+00 -1.0000e+00
       -2 -1    0    0    0  501 -0.0000000000e+00 -0.0000000000e+00 -1.5984892311e+02 1.5984892311e+02 0.0000000000e+00 0.0000e+00 1.0000e+00
      -13  1    1    2    0    0 +7.5996039024e+01 -8.1599091338e+01 -1.1479648800e+02 1.6003763092e+02 0.0000000000e+00 0.0000e+00 1.0000e+00
       13  1    1    2    0    0 -7.5996039024e+01 +8.1599091338e+01 +1.1614121538e+02 1.6100494267e+02 0.0000000000e+00 0.0000e+00 -1.0000e+00
<mgrwt>
<rscale>  0 0.32103976E+03</rscale>
<asrwt>0</asrwt>
<pdfrwt beam="1">  1        2 0.24799023E-01 0.32103976E+03</pdfrwt>
<pdfrwt beam="2">  1       -2 0.24592142E-01 0.32103976E+03</pdfrwt>
<totfact> 0.36840322E+03</totfact>
</mgrwt>
<rwgt>
<wgt id='morphing_basis_vector_1'> +2.5763917e-04 </wgt>
<wgt id='morphing_basis_vector_2'> +1.4172486e-04 </wgt>
<wgt id='morphing_basis_vector_3'> +1.5258463e-04 </wgt>
<wgt id='morphing_basis_vector_4'> +2.5633953e-05 </wgt>
<wgt id='morphing_basis_vector_5'> +5.4857757e-06 </wgt>
</rwgt>
</event>
<event>
 4      1 +5.5534000e-05 3.00447300e+02 7.81860800e-03 1.00072400e-01
        2 -1    0    0  501    0 +0.0000000000e+00 +0.0000000000e+00 +1.8833753513e+02 1.8833753513e+02 0.0000000000e+00 0.0000e+00 -1.0000e+00
       -2 -1    0    0    0  501 -0.0000000000e+00 -0.0000000000e+00 -1.1982289556e+02 1.1982289556e+02 0.0000000000e+00 0.0000e+00 1.0000e+00
      -13  1    1    2    0    0 +1.3555486613e+02 +3.6054882067e+01 -2.0901265925e+01 1.4181656874e+02 0.0000000000e+00 0.0000e+00 1.0000e+00
       13  1    1    2    0    0 -1.3555486613e+02 -3.6054882067e+01 +8.9415905491e+01 1.6634386195e+02 0.0000000000e+00 0.0000e+00 -1.0000e+00
<mgrwt>
<rscale>  0 0.30044733E+03</rscale>
<asrwt>0</asrwt>
<pdfrwt beam="1">  1        2 0.28975005E-01 0.30044733E+03</pdfrwt>
<pdfrwt beam="2">  1       -2 0.18434292E-01 0.30044733E+03</pdfrwt>
<totfact> 0.49442990E+03</totfact>
</mgrwt>
<rwgt>
<wgt id='morphing_basis_vector_1'> +2.2465199e-04 </wgt>
<wgt id='morphing_basis_vector_2'> +1.2861744e-04 </wgt>
<wgt id='morphing_basis_vector_3'> +1.2907365e-04 </wgt>
<wgt id='morphing_basis_vector_4'> +2.3391062e-05 </wgt>
<wgt id='morphing_basis_vector_5'> +1.2299008e-06 </wgt>
</rwgt>
</event>
<event>
 4      1 +5.5534000e-05 3.01987200e+02 7.81860800e-03 1.00007400e-01
        2 -1    0    0  501    0 +0.0000000000e+00 +0.0000000000e+00 +2.6260470028e+02 2.6260470028e+02 0.0000000000e+00 0.0000e+00 -1.0000e+00
       -2 -1    0    0    0  501 -0.0000000000e+00 -0.0000000000e+00 -8.6818983299e+01 8.6818983299e+01 0.0000000000e+00 0.0000e+00 1.0000e+00
      -13  1    1    2    0    0 -2.3703284472e+01 +1.3556891218e+02 +1.6020549190e+01 1.3855480374e+02 0.0000000000e+00 0.0000e+00 1.0000e+00
       13  1    1    2    0    0 +2.3703284472e+01 -1.3556891218e+02 +1.5976516780e+02 2.1086887984e+02 0.0000000000e+00 0.0000e+00 -1.0000e+00
<mgrwt>
<rscale>  0 0.30198724E+03</rscale>
<asrwt>0</asrwt>
<pdfrwt beam="1">  1        2 0.40400723E-01 0.30198724E+03</pdfrwt>
<pdfrwt beam="2">  1       -2 0.13356767E-01 0.30198724E+03</pdfrwt>
<totfact> 0.56957822E+03</totfact>
</mgrwt>
<rwgt>
<wgt id='morphing_basis_vector_1'> +2.2674077e-04 </wgt>
<wgt id='morphing_basis_vector_2'> +1.2888787e-04 </wgt>
<wgt id='morphing_basis_vector_3'> +1.3101658e-04 </wgt>
<wgt id='morphing_basis_vector_4'> +2.3363213e-05 </wgt>
<wgt id='morphing_basis_vector_5'> +1.4255267e-06 </wgt>
</rwgt>
</event>
<event>
 4      1 +5.5534000e-05 3.45867100e+02 7.81860800e-03 9.83138200e-02
        2 -1    0    0  501    0 +0.0000000000e+00 +0.0000000000e+00 +1.2936760481e+03 1.2936760481e+03 0.0000000000e+00 0.0000e+00 1.0000e+00
       -2 -1    0    0    0  501 -0.0000000000e+00 -0.0000000000e+00 -2.3117075068e+01 2.3117075068e+01 0.0000000000e+00 0.0000e+00 -1.0000e+00
      -13  1    1    2    0    0 -1.5280992886e+02 +3.9606152314e+01 +3.6643224338e+02 3.9898886030e+02 0.0000000000e+00 0.0000e+00 -1.0000e+00
       13  1    1    2    0    0 +1.5280992886e+02 -3.9606152314e+01 +9.0412672963e+02 9.1780426284e+02 0.0000000000e+00 0.0000e+00 1.0000e+00
<mgrwt>
<rscale>  0 0.34586706E+03</rscale>
<asrwt>0</asrwt>
<pdfrwt beam="1">  1        2 0.19902703E+00 0.34586706E+03</pdfrwt>
<pdfrwt beam="2">  1       -2 0.35564741E-02 0.34586706E+03</pdfrwt>
<totfact> 0.61799317E+03</totfact>
</mgrwt>
<rwgt>
<wgt id='morphing_basis_vector_1'> +3.0712480e-04 </wgt>
<wgt id='morphing_basis_vector_2'> +1.7043371e-04 </wgt>
<wgt id='morphing_basis_vector_3'> +1.8268252e-04 </wgt>
<wgt id='morphing_basis_vector_4'> +3.2866568e-05 </wgt>
<wgt id='morphing_basis_vector_5'> +1.5826054e-05 </wgt>
</rwgt>
</event>
<event>
 4      1 +5.5534000e-05 3.17275800e+02 7.81860800e-03 9.93839400e-02
        2 -1    0    0  501    0 +0.0000000000e+00 +0.0000000000e+00 +2.4839816943e+02 2.4839816943e+02 0.0000000000e+00 0.0000e+00 1.0000e+00
       -2 -1    0    0    0  501 -0.0000000000e+00 -0.0000000000e+00 -1.0131307589e+02 1.0131307589e+02 0.0000000000e+00 0.0000e+00 -1.0000e+00
      -13  1    1    2    0    0 -1.1298645255e+02 -3.6261484671e+01 +1.8959208613e+02 2.2366491198e+02 0.0000000000e+00 0.0000e+00 1.0000e+00
       13  1    1    2    0    0 +1.1298645255e+02 +3.6261484671e+01 -4.2506992587e+01 1.2604633334e+02 0.0000000000e+00 0.0000e+00 -1.0000e+00
<mgrwt>
<rscale>  0 0.31727580E+03</rscale>
<asrwt>0</asrwt>
<pdfrwt beam="1">  1        2 0.38215103E-01 0.31727580E+03</pdfrwt>
<pdfrwt beam="2">  1       -2 0.15586627E-01 0.31727580E+03</pdfrwt>
<totfact> 0.47542323E+03</totfact>
</mgrwt>
<rwgt>
<wgt id='morphing_basis_vector_1'> +3.1199945e-04 </wgt>
<wgt id='morphing_basis_vector_2'> +3.1569115e-04 </wgt>
<wgt id='morphing_basis_vector_3'> +6.3415495e-05 </wgt>
<wgt id='morphing_basis_vector_4'> +5.3218939e-05 </wgt>
<wgt id='morphing_basis_vector_5'> +7.4101115e-06 </wgt>
</rwgt>
</event>
<event>
 4      1 +5.5534000e-05 3.59927900e+02 7.81860800e-03 9.78278600e-02
        2 -1    0    0  501    0 +0.0000000000e+00 +0.0000000000e+00 +9.4938341031e+01 9.4938341031e+01 0.0000000000e+00 0.0000e+00 1.0000e+00
       -2 -1    0    0    0  501 -0.0000000000e+00 -0.0000000000e+00 -3.4113748519e+02 3.4113748519e+02 0.0000000000e+00 0.0000e+00 -1.0000e+00
      -13  1    1    2    0    0 -1.7399477703e+02 +1.7918577406e+01 -1.7438423340e+02 2.4699214301e+02 0.0000000000e+00 0.0000e+00 -1.0000e+00
       13  1    1    2    0    0 +1.7399477703e+02 -1.7918577406e+01 -7.1814910757e+01 1.8908368321e+02 0.0000000000e+00 0.0000e+00 1.0000e+00
<mgrwt>
<rscale>  0 0.35992792E+03</rscale>
<asrwt>0</asrwt>
<pdfrwt beam="1">  1        2 0.14605899E-01 0.35992792E+03</pdfrwt>
<pdfrwt beam="2">  1       -2 0.52482690E-01 0.35992792E+03</pdfrwt>
<totfact> 0.17691463E+03</totfact>
</mgrwt>
<rwgt>
<wgt id='morphing_basis_vector_1'> +3.4022879e-04 </wgt>
<wgt id='morphing_basis_vector_2'> +1.9349859e-04 </wgt>
<wgt id='morphing_basis_vector_3'> +2.0134533e-04 </wgt>
<wgt id='morphing_basis_vector_4'> +3.9011140e-05 </wgt>
<wgt id='morphing_basis_vector_5'> +2.4655774e-05 </wgt>
</rwgt>
</event>
<event>
 4      1 +5.5534000e-05 3.30562300e+02 7.81860800e-03 9.88720300e-02
        2 -1    0    0  501    0 +0.0000000000e+00 +0.0000000000e+00 +1.3386911022e+02 1.3386911022e+02 0.0000000000e+00 0.0000e+00 1.0000e+00
       -2 -1    0    0    0  501 -0.0000000000e+00 -0.0000000000e+00 -2.0406389677e+02 2.0406389677e+02 0.0000000000e+00 0.0000e+00 -1.0000e+00
      -13  1    1    2    0    0 +7.9795964662e+01 -1.4132627158e+02 -6.7056928903e+01 1.7560507604e+02 0.0000000000e+00 0.0000e+00 -1.0000e+00
       13  1    1    2    0    0 -7.9795964662e+01 +1.4132627158e+02 -3.1378576482e+00 1.6232793095e+02 0.0000000000e+00 0.0000e+00 1.0000e+00
<mgrwt>
<rscale>  0 0.33056226E+03</rscale>
<asrwt>0</asrwt>
<pdfrwt beam="1">  1        2 0.20595248E-01 0.33056226E+03</pdfrwt>
<pdfrwt beam="2">  1       -2 0.31394445E-01 0.33056226E+03</pdfrwt>
<totfact> 0.30126955E+03</totfact>
</mgrwt>
<rwgt>
<wgt id='morphing_basis_vector_1'> +2.7886275e-04 </wgt>
<wgt id='morphing_basis_vector_2'> +1.6142715e-04 </wgt>
<wgt id='morphing_basis_vector_3'> +1.5909636e-04 </wgt>
<wgt id='morphing_basis_vector_4'> +2.9272630e-05 </wgt>
<wgt id='morphing_basis_vector_5'> +8.9154202e-06 </wgt>
</rwgt>
</event>
<event>
 4      1 +5.5534000e-05 3.19039200e+02 7.81860800e-03 9.93144400e-02
        2 -1    0    0  501    0 +0.0000000000e+00 +0.0000000000e+00 +6.8361934476e+02 6.8361934476e+02 0.0000000000e+00 0.0000e+00 1.0000e+00
       -2 -1    0    0    0  501 -0.0000000000e+00 -0.0000000000e+00 -3.7223204467e+01 3.7223204467e+01 0.0000000000e+00 0.0000e+00 -1.0000e+00
      -13  1    1    2    0    0 -2.1608151888e+00 +1.4934641958e+02 +1.9664086253e+02 2.4693450747e+02 0.0000000000e+00 0.0000e+00 -1.0000e+00
       13  1    1    2    0    0 +2.1608151888e+00 -1.4934641958e+02 +4.4975527776e+02 4.7390804176e+02 0.0000000000e+00 0.0000e+00 1.0000e+00
<mgrwt>
<rscale>  0 0.31903920E+03</rscale>
<asrwt>0</asrwt>
<pdfrwt beam="1">  1        2 0.10517220E+00 0.31903920E+03</pdfrwt>
<pdfrwt beam="2">  1       -2 0.57266473E-02 0.31903920E+03</pdfrwt>
<totfact> 0.72106182E+03</totfact>
</mgrwt>
<rwgt>
<wgt id='morphing_basis_vector_1'> +2.5569972e-04 </wgt>
<wgt id='morphing_basis_vector_2'> +1.4462872e-04 </wgt>
<wgt id='morphing_basis_vector_3'> +1.4808531e-04 </wgt>
<wgt id='morphing_basis_vector_4'> +2.5981126e-05 </wgt>
<wgt id='morphing_basis_vector_5'> +4.9928707e-06 </wgt>
</rwgt>
</event>
<event>
 4      1 +5.5534000e-05 3.32397100e+02 7.81860800e-03 9.88034000e-02
        2 -1    0    0  501    0 +0.0000000000e+00 +0.0000000000e+00 +9.0630914939e+02 9.0630914939e+02 0.0000000000e+00 0.0000e+00 -1.0000e+00
       -2 -1    0    0    0  501 -0.0000000000e+00 -0.0000000000e+00 -3.0477413580e+01 3.0477413580e+01 0.0000000000e+00 0.0000e+00 1.0000e+00
      -13  1    1    2    0    0 +4.4928677702e+01 +1.2858955348e+02 +1.6954117691e+02 2.1748119462e+02 0.0000000000e+00 0.0000e+00 1.0000e+00
       13  1    1    2    0    0 -4.4928677702e+01 -1.2858955348e+02 +7.0629055890e+02 7.1930536835e+02 0.0000000000e+00 0.0000e+00 -1.0000e+00
<mgrwt>
<rscale>  0 0.33239710E+03</rscale>
<asrwt>0</asrwt>
<pdfrwt beam="1">  1        2 0.13943216E+00 0.33239710E+03</pdfrwt>
<pdfrwt beam="2">  1       -2 0.46888335E-02 0.33239710E+03</pdfrwt>
<totfact> 0.68724905E+03</totfact>
</mgrwt>
<rwgt>
<wgt id='morphing_basis_vector_1'> +2.7907305e-04 </wgt>
<wgt id='morphing_basis_vector_2'> +1.5351757e-04 </wgt>
<wgt id='morphing_basis_vector_3'> +1.6578326e-04 </wgt>
<wgt id='morphing_basis_vector_4'> +2.8414655e-05 </wgt>
<wgt id='morphing_basis_vector_5'> +9.4509563e-06 </wgt>
</rwgt>
</event>
<event>
 4      1 +5.5534000e-05 3.05442800e+02 7.81860800e-03 9.98631500e-02
        2 -1    0    0  501    0 +0.0000000000e+00 +0.0000000000e+00 +3.4841072102e+02 3.4841072102e+02 0.0000000000e+00 0.0000e+00 -1.0000e+00
       -2 -1    0    0    0  501 -0.0000000000e+00 -0.0000000000e+00 -6.6943465677e+01 6.6943465677e+01 0.0000000000e+00 0.0000e+00 1.0000e+00
      -13  1    1    2    0    0 +8.1840846390e+01 +1.2573473104e+02 +1.0187269485e+02 1.8134274919e+02 0.0000000000e+00 0.0000e+00 1.0000e+00
       13  1    1    2    0    0 -8.1840846390e+01 -1.2573473104e+02 +1.7959456049e+02 2.3401143751e+02 0.0000000000e+00 0.0000e+00 -1.0000e+00
<mgrwt>
<rscale>  0 0.30544277E+03</rscale>
<asrwt>0</asrwt>
<pdfrwt beam="1">  1        2 0.53601648E-01 0.30544277E+03</pdfrwt>
<pdfrwt beam="2">  1       -2 0.10298995E-01 0.30544277E+03</pdfrwt>
<totfact> 0.62613802E+03</totfact>
</mgrwt>
<rwgt>
<wgt id='morphing_basis_vector_1'> +2.3426359e-04 </wgt>
<wgt id='morphing_basis_vector_2'> +1.3741104e-04 </wgt>
<wgt id='morphing_basis_vector_3'> +1.3147383e-04 </wgt>
<wgt id='morphing_basis_vector_4'> +2.4767154e-05 </wgt>
<wgt id='morphing_basis_vector_5'> +2.0377485e-06 </wgt>
</rwgt>
</event>
<event>
 4      1 +5.5534000e-05 3.05609900e+02 7.81860800e-03 9.98562200e-02
        2 -1    0    0  501    0 +0.0000000000e+00 +0.0000000000e+00 +4.4350165748e+02 4.4350165748e+02 0.0000000000e+00 0.0000e+00 -1.0000e+00
       -2 -1    0    0    0  501 -0.0000000000e+00 -0.0000000000e+00 -5.2647715237e+01 5.2647715237e+01 0.0000000000e+00 0.0000e+00 1.0000e+00
      -13  1    1    2    0    0 -1.2161141087e+02 -7.9332446077e+01 +1.1813914130e+02 1.8718928645e+02 0.0000000000e+00 0.0000e+00 1.0000e+00
       13  1    1    2    0    0 +1.2161141087e+02 +7.9332446077e+01 +2.7271480094e+02 3.0896008627e+02 0.0000000000e+00 0.0000e+00 -1.0000e+00
<mgrwt>
<rscale>  0 0.30560988E+03</rscale>
<asrwt>0</asrwt>
<pdfrwt beam="1">  1        2 0.68231022E-01 0.30560988E+03</pdfrwt>
<pdfrwt beam="2">  1       -2 0.80996488E-02 0.30560988E+03</pdfrwt>
<totfact> 0.69446434E+03</totfact>
</mgrwt>
<rwgt>
<wgt id='morphing_basis_vector_1'> +2.3323273e-04 </wgt>
<wgt id='morphing_basis_vector_2'> +1.3381332e-04 </wgt>
<wgt id='morphing_basis_vector_3'> +1.3352105e-04 </wgt>
<wgt id='morphing_basis_vector_4'> +2.4116947e-05 </wgt>
<wgt id='morphing_basis_vector_5'> +2.0131163e-06 </wgt>
</rwgt>
</event>
<event>
 4      1 +5.5534000e-05 3.58494200e+02 7.81860800e-03 9.78763000e-02
        2 -1    0    0  501    0 +0.0000000000e+00 +0.0000000000e+00 +1.1558124505e+02 1.1558124505e+02 0.0000000000e+00 0.0000e+00 1.0000e+00
       -2 -1    0    0    0  501 -0.0000000000e+00 -0.0000000000e+00 -2.7798220835e+02 2.7798220835e+02 0.0000000000e+00 0.0000e+00 -1.0000e+00
      -13  1    1    2    0    0 +5.7955204147e+01 +1.6960322456e+02 -8.3768139156e+01 1.9784125102e+02 0.0000000000e+00 0.0000e+00 -1.0000e+00
       13  1    1    2    0    0 -5.7955204147e+01 -1.6960322456e+02 -7.8632824143e+01 1.9572220237e+02 0.0000000000e+00 0.0000e+00 1.0000e+00
<mgrwt>
<rscale>  0 0.35849424E+03</rscale>
<asrwt>0</asrwt>
<pdfrwt beam="1">  1        2 0.17781730E-01 0.35849424E+03</pdfrwt>
<pdfrwt beam="2">  1       -2 0.42766493E-01 0.35849424E+03</pdfrwt>
<totfact> 0.20603009E+03</totfact>
</mgrwt>
<rwgt>
<wgt id='morphing_basis_vector_1'> +3.4246633e-04 </wgt>
<wgt id='morphing_basis_vector_2'> +2.0827986e-04 </wgt>
<wgt id='morphing_basis_vector_3'> +1.9254877e-04 </wgt>
<wgt id='morphing_basis_vector_4'> +3.9881575e-05 </wgt>
<wgt id='morphing_basis_vector_5'> +2.4019649e-05 </wgt>
</rwgt>
</event>
<event>
 4      1 +5.5534000e-05 3.04218900e+02 7.81860800e-03 9.99140200e-02
        2 -1    0    0  501    0 +0.0000000000e+00 +0.0000000000e+00 +1.3186256251e+03 1.3186256251e+03 0.0000000000e+00 0.0000e+00 -1.0000e+00
       -2 -1    0    0    0  501 -0.0000000000e+00 -0.0000000000e+00 -1.7546519530e+01 1.7546519530e+01 0.0000000000e+00 0.0000e+00 1.0000e+00
      -13  1    1    2    0    0 +1.2516815572e+02 -8.3447501169e+01 +7.4941028402e+02 7.6436007644e+02 0.0000000000e+00 0.0000e+00 1.0000e+00
       13  1    1    2    0    0 -1.2516815572e+02 +8.3447501169e+01 +5.5166882152e+02 5.7181206816e+02 0.0000000000e+00 0.0000e+00 -1.0000e+00
<mgrwt>
<rscale>  0 0.30421894E+03</rscale>
<asrwt>0</asrwt>
<pdfrwt beam="1">  1        2 0.20286540E+00 0.30421894E+03</pdfrwt>
<pdfrwt beam="2">  1       -2 0.26994656E-02 0.30421894E+03</pdfrwt>
<totfact> 0.89675543E+03</totfact>
</mgrwt>
<rwgt>
<wgt id='morphing_basis_vector_1'> +2.4021324e-04 </wgt>
<wgt id='morphing_basis_vector_2'> +1.5910887e-04 </wgt>
<wgt id='morphing_basis_vector_3'> +1.1876724e-04 </wgt>
<wgt id='morphing_basis_vector_4'> +2.8751709e-05 </wgt>
<wgt id='morphing_basis_vector_5'> +2.1505807e-06 </wgt>
</rwgt>
</event>
<event>
 4      1 +5.5534000e-05 3.07936700e+02 7.81860800e-03 9.97602600e-02
        2 -1    0    0  501    0 +0.0000000000e+00 +0.0000000000e+00 +1.0106017861e+03 1.0106017861e+03 0.0000000000e+00 0.0000e+00 1.0000e+00
       -2 -1    0    0    0  501 -0.0000000000e+00 -0.0000000000e+00 -2.3457555784e+01 2.3457555784e+01 0.0000000000e+00 0.0000e+00 -1.0000e+00
      -13  1    1    2    0    0 -1.5055192821e+02 +1.8360472567e+00 +3.8543566752e+02 4.1379935712e+02 0.0000000000e+00 0.0000e+00 -1.0000e+00
       13  1    1    2    0    0 +1.5055192821e+02 -1.8360472567e+00 +6.0170856284e+02 6.2025998481e+02 0.0000000000e+00 0.0000e+00 1.0000e+00
<mgrwt>
<rscale>  0 0.30793667E+03</rscale>
<asrwt>0</asrwt>
<pdfrwt beam="1">  1        2 0.15547716E+00 0.30793667E+03</pdfrwt>
<pdfrwt beam="2">  1       -2 0.36088555E-02 0.30793667E+03</pdfrwt>
<totfact> 0.87416499E+03</totfact>
</mgrwt>
<rwgt>
<wgt id='morphing_basis_vector_1'> +2.3809082e-04 </wgt>
<wgt id='morphing_basis_vector_2'> +1.3879580e-04 </wgt>
<wgt id='morphing_basis_vector_3'> +1.3432691e-04 </wgt>
<wgt id='morphing_basis_vector_4'> +2.4932146e-05 </wgt>
<wgt id='morphing_basis_vector_5'> +2.4720158e-06 </wgt>
</rwgt>
</event>
<event>
 4      1 +5.5534000e-05 3.13890700e+02 7.81860800e-03 9.95187300e-02
        2 -1    0    0  501    0 +0.0000000000e+00 +0.0000000000e+00 +2.8726117563e+02 2.8726117563e+02 0.0000000000e+00 0.0000e+00 -1.0000e+00
       -2 -1    0    0    0  501 -0.0000000000e+00 -0.0000000000e+00 -8.5747212699e+01 8.5747212699e+01 0.0000000000e+00 0.0000e+00 1.0000e+00
      -13  1    1    2    0    0 +4.6549633131e+01 +2.8244902898e+01 -7.4163856306e+01 9.2005002400e+01 0.0000000000e+00 0.0000e+00 1.0000e+00
       13  1    1    2    0    0 -4.6549633131e+01 -2.8244902898e+01 +2.7567781924e+02 2.8100338593e+02 0.0000000000e+00 0.0000e+00 -1.0000e+00
<mgrwt>
<rscale>  0 0.31389071E+03</rscale>
<asrwt>0</asrwt>
<pdfrwt beam="1">  1        2 0.44194027E-01 0.31389071E+03</pdfrwt>
<pdfrwt beam="2">  1       -2 0.13191879E-01 0.31389071E+03</pdfrwt>
<totfact> 0.52679967E+03</totfact>
</mgrwt>
<rwgt>
<wgt id='morphing_basis_vector_1'> +2.4499308e-04 </wgt>
<wgt id='morphing_basis_vector_2'> +1.3497281e-04 </wgt>
<wgt id='morphing_basis_vector_3'> +1.4490218e-04 </wgt>
<wgt id='morphing_basis_vector_4'> +2.4266977e-05 </wgt>
<wgt id='morphing_basis_vector_5'> +3.5887192e-06 </wgt>
</rwgt>
</event>
<event>
 4      1 +5.5534000e-05 3.52396200e+02 7.81860800e-03 9.80851200e-02
        2 -1    0    0  501    0 +0.0000000000e+00 +0.0000000000e+00 +1.3986008739e+02 1.3986008739e+02 0.0000000000e+00 0.0000e+00 -1.0000e+00
       -2 -1    0    0    0  501 -0.0000000000e+00 -0.0000000000e+00 -2.2197732629e+02 2.2197732629e+02 0.0000000000e+00 0.0000e+00 1.0000e+00
      -13  1    1    2    0    0 -1.4812979104e+02 -5.4037560720e+01 -1.2179914288e+02 1.9924237543e+02 0.0000000000e+00 0.0000e+00 1.0000e+00
       13  1    1    2    0    0 +1.4812979104e+02 +5.4037560720e+01 +3.9681903983e+01 1.6259503825e+02 0.0000000000e+00 0.0000e+00 -1.0000e+00
<mgrwt>
<rscale>  0 0.35239619E+03</rscale>
<asrwt>0</asrwt>
<pdfrwt beam="1">  1        2 0.21516937E-01 0.35239619E+03</pdfrwt>
<pdfrwt beam="2">  1       -2 0.34150358E-01 0.35239619E+03</pdfrwt>
<totfact> 0.24722866E+03</totfact>
</mgrwt>
<rwgt>
<wgt id='morphing_basis_vector_1'> +3.2083598e-04 </wgt>
<wgt id='morphing_basis_vector_2'> +1.7696309e-04 </wgt>
<wgt id='morphing_basis_vector_3'> +1.9260101e-04 </wgt>
<wgt id='morphing_basis_vector_4'> +3.5188463e-05 </wgt>
<wgt id='morphing_basis_vector_5'> +1.9563012e-05 </wgt>
</rwgt>
</event>
<event>
 4      1 +5.5534000e-05 3.05295400e+02 7.81860800e-03 9.98692600e-02
        2 -1    0    0  501    0 +0.0000000000e+00 +0.0000000000e+00 +5.0649691532e+01 5.0649691532e+01 0.0000000000e+00 0.0000e+00 -1.0000e+00
       -2 -1    0    0    0  501 -0.0000000000e+00 -0.0000000000e+00 -4.6004865853e+02 4.6004865853e+02 0.0000000000e+00 0.0000e+00 1.0000e+00
      -13  1    1    2    0    0 -1.4926980340e+02 +2.0171180668e+01 -2.4611513126e+02 2.8854983724e+02 0.0000000000e+00 0.0000e+00 1.0000e+00
       13  1    1    2    0    0 +1.4926980340e+02 -2.0171180668e+01 -1.6328383574e+02 2.2214851283e+02 0.0000000000e+00 0.0000e+00 -1.0000e+00
<mgrwt>
<rscale>  0 0.30529542E+03</rscale>
<asrwt>0</asrwt>
<pdfrwt beam="1">  1        2 0.77922600E-02 0.30529542E+03</pdfrwt>
<pdfrwt beam="2">  1       -2 0.70776719E-01 0.30529542E+03</pdfrwt>
<totfact> 0.21150235E+03</totfact>
</mgrwt>
<rwgt>
<wgt id='morphing_basis_vector_1'> +2.3435786e-04 </wgt>
<wgt id='morphing_basis_vector_2'> +1.3824369e-04 </wgt>
<wgt id='morphing_basis_vector_3'> +1.3084647e-04 </wgt>
<wgt id='morphing_basis_vector_4'> +2.4922392e-05 </wgt>
<wgt id='morphing_basis_vector_5'> +2.0264332e-06 </wgt>
</rwgt>
</event>
<event>
 4      1 +5.5534000e-05 3.00881900e+02 7.81860800e-03 1.00054000e-01
        2 -1    0    0  501    0 +0.0000000000e+00 +0.0000000000e+00 +5.8262516823e+02 5.8262516823e+02 0.0000000000e+00 0.0000e+00 1.0000e+00
       -2 -1    0    0    0  501 -0.0000000000e+00 -0.0000000000e+00 -3.8845698069e+01 3.8845698069e+01 0.0000000000e+00 0.0000e+00 -1.0000e+00
      -13  1    1    2    0    0 -9.3526399861e+01 -7.3700947783e+01 +4.6179720669e+02 4.7690216741e+02 0.0000000000e+00 0.0000e+00 1.0000e+00
       13  1    1    2    0    0 +9.3526399861e+01 +7.3700947783e+01 +8.1982263477e+01 1.4456869889e+02 0.0000000000e+00 0.0000e+00 -1.0000e+00
<mgrwt>
<rscale>  0 0.30088191E+03</rscale>
<asrwt>0</asrwt>
<pdfrwt beam="1">  1        2 0.89634635E-01 0.30088191E+03</pdfrwt>
<pdfrwt beam="2">  1       -2 0.59762617E-02 0.30088191E+03</pdfrwt>
<totfact> 0.81159332E+03</totfact>
</mgrwt>
<rwgt>
<wgt id='morphing_basis_vector_1'> +2.7159025e-04 </wgt>
<wgt id='morphing_basis_vector_2'> +2.6101411e-04 </wgt>
<wgt id='morphing_basis_vector_3'> +6.1681094e-05 </wgt>
<wgt id='morphing_basis_vector_4'> +4.8082611e-05 </wgt>
<wgt id='morphing_basis_vector_5'> +2.9894605e-06 </wgt>
</rwgt>
</event>
<event>
 4      1 +5.5534000e-05 3.35048200e+02 7.81860800e-03 9.87050800e-02
        2 -1    0    0  501    0 +0.0000000000e+00 +0.0000000000e+00 +5.1303328760e+02 5.1303328760e+02 0.0000000000e+00 0.0000e+00 -1.0000e+00
       -2 -1    0    0    0  501 -0.0000000000e+00 -0.0000000000e+00 -5.4702750575e+01 5.4702750575e+01 0.0000000000e+00 0.0000e+00 1.0000e+00
      -13  1    1    2    0    0 -1.1571556240e+01 +1.5377707584e+02 +1.1826942228e+02 1.9434234283e+02 0.0000000000e+00 0.0000e+00 1.0000e+00
       13  1    1    2    0    0 +1.1571556240e+01 -1.5377707584e+02 +3.4006111475e+02 3.7339369535e+02 0.0000000000e+00 0.0000e+00 -1.0000e+00
<mgrwt>
<rscale>  0 0.33504825E+03</rscale>
<asrwt>0</asrwt>
<pdfrwt beam="1">  1        2 0.78928195E-01 0.33504825E+03</pdfrwt>
<pdfrwt beam="2">  1       -2 0.84158081E-02 0.33504825E+03</pdfrwt>
<totfact> 0.55917612E+03</totfact>
</mgrwt>
<rwgt>
<wgt id='morphing_basis_vector_1'> +2.8527268e-04 </wgt>
<wgt id='morphing_basis_vector_2'> +1.5927328e-04 </wgt>
<wgt id='morphing_basis_vector_3'> +1.6781015e-04 </wgt>
<wgt id='morphing_basis_vector_4'> +2.9539599e-05 </wgt>
<wgt id='morphing_basis_vector_5'> +1.0609353e-05 </wgt>
</rwgt>
</event>
<event>
 4      1 +5.5534000e-05 3.05529400e+02 7.81860800e-03 9.98595600e-02
        2 -1    0    0  501    0 +0.0000000000e+00 +0.0000000000e+00 +6.5169267924e+01 6.5169267924e+01 0.0000000000e+00 0.0000e+00 -1.0000e+00
       -2 -1    0    0    0  501 -0.0000000000e+00 -0.0000000000e+00 -3.5809901334e+02 3.5809901334e+02 0.0000000000e+00 0.0000e+00 1.0000e+00
      -13  1    1    2    0    0 +4.0567036688e+01 -1.2557489798e+02 -2.5307742817e+02 2.8541710550e+02 0.0000000000e+00 0.0000e+00 1.0000e+00
       13  1    1    2    0    0 -4.0567036688e+01 +1.2557489798e+02 -3.9852317248e+01 1.3785117576e+02 0.0000000000e+00 0.0000e+00 -1.0000e+00
<mgrwt>
<rscale>  0 0.30552938E+03</rscale>
<asrwt>0</asrwt>
<pdfrwt beam="1">  1        2 0.10026041E-01 0.30552938E+03</pdfrwt>
<pdfrwt beam="2">  1       -2 0.55092156E-01 0.30552938E+03</pdfrwt>
<totfact> 0.25541283E+03</totfact>
</mgrwt>
<rwgt>
<wgt id='morphing_basis_vector_1'> +2.3194428e-04 </wgt>
<wgt id='morphing_basis_vector_2'> +1.3042287e-04 </wgt>
<wgt id='morphing_basis_vector_3'> +1.3511593e-04 </wgt>
<wgt id='morphing_basis_vector_4'> +2.3512407e-05 </wgt>
<wgt id='morphing_basis_vector_5'> +1.9525424e-06 </wgt>
</rwgt>
</event>
<event>
 4      1 +5.5534000e-05 3.50158900e+02 7.81860800e-03 9.81628800e-02
        2 -1    0    0  501    0 +0.0000000000e+00 +0.0000000000e+00 +3.3768490768e+02 3.3768490768e+02 0.0000000000e+00 0.0000e+00 1.0000e+00
       -2 -1    0    0    0  501 -0.0000000000e+00 -0.0000000000e+00 -9.0773419805e+01 9.0773419805e+01 0.0000000000e+00 0.0000e+00 -1.0000e+00
      -13  1    1    2    0    0 -1.6327699013e+02 -6.2434265144e+01 +1.1150431896e+02 2.0734180987e+02 0.0000000000e+00 0.0000e+00 1.0000e+00
       13  1    1    2    0    0 +1.6327699013e+02 +6.2434265144e+01 +1.3540716891e+02 2.2111651762e+02 0.0000000000e+00 0.0000e+00 -1.0000e+00
<mgrwt>
<rscale>  0 0.35015890E+03</rscale>
<asrwt>0</asrwt>
<pdfrwt beam="1">  1        2 0.51951524E-01 0.35015890E+03</pdfrwt>
<pdfrwt beam="2">  1       -2 0.13965142E-01 0.35015890E+03</pdfrwt>
<totfact> 0.40445097E+03</totfact>
</mgrwt>
<rwgt>
<wgt id='morphing_basis_vector_1'> +3.2217813e-04 </wgt>
<wgt id='morphing_basis_vector_2'> +1.9291003e-04 </wgt>
<wgt id='morphing_basis_vector_3'> +1.8167234e-04 </wgt>
<wgt id='morphing_basis_vector_4'> +3.6253143e-05 </wgt>
<wgt id='morphing_basis_vector_5'> +1.8611093e-05 </wgt>
</rwgt>
</event>
<event>
 4      1 +5.5534000e-05 3.46494300e+02 7.81860800e-03 9.82916200e-02
        2 -1    0    0  501    0 +0.0000000000e+00 +0.0000000000e+00 +8.2586089275e+02 8.2586089275e+02 0.0000000000e+00 0.0000e+00 -1.0000e+00
       -2 -1    0    0    0  501 -0.0000000000e+00 -0.0000000000e+00 -3.6343371552e+01 3.6343371552e+01 0.0000000000e+00 0.0000e+00 1.0000e+00
      -13  1    1    2    0    0 +1.0303830173e+02 +9.5637330407e+01 +6.4670101719e+02 6.6180480221e+02 0.0000000000e+00 0.0000e+00 1.0000e+00
       13  1    1    2    0    0 -1.0303830173e+02 -9.5637330407e+01 +1.4281650400e+02 2.0039946209e+02 0.0000000000e+00 0.0000e+00 -1.0000e+00
<mgrwt>
<rscale>  0 0.34649427E+03</rscale>
<asrwt>0</asrwt>
<pdfrwt beam="1">  1        2 0.12705551E+00 0.34649427E+03</pdfrwt>
<pdfrwt beam="2">  1       -2 0.55912885E-02 0.34649427E+03</pdfrwt>
<totfact> 0.59545745E+03</totfact>
</mgrwt>
<rwgt>
<wgt id='morphing_basis_vector_1'> +3.6913605e-04 </wgt>
<wgt id='morphing_basis_vector_2'> +3.5184646e-04 </wgt>
<wgt id='morphing_basis_vector_3'> +1.0809383e-04 </wgt>
<wgt id='morphing_basis_vector_4'> +5.3004638e-05 </wgt>
<wgt id='morphing_basis_vector_5'> +1.9901033e-05 </wgt>
</rwgt>
</event>
<event>
 4      1 +5.5534000e-05 3.18882300e+02 7.81860800e-03 9.93206100e-02
        2 -1    0    0  501    0 +0.0000000000e+00 +0.0000000000e+00 +2.4540329887e+02 2.4540329887e+02 0.0000000000e+00 0.0000e+00 -1.0000e+00
       -2 -1    0    0    0  501 -0.0000000000e+00 -0.0000000000e+00 -1.0359059588e+02 1.0359059588e+02 0.0000000000e+00 0.0000e+00 1.0000e+00
      -13  1    1    2    0    0 +1.4700625660e+02 -3.6966935181e+00 +3.4681480222e+00 1.4709362009e+02 0.0000000000e+00 0.0000e+00 1.0000e+00
       13  1    1    2    0    0 -1.4700625660e+02 +3.6966935181e+00 +1.3834455496e+02 2.0190027466e+02 0.0000000000e+00 0.0000e+00 -1.0000e+00
<mgrwt>
<rscale>  0 0.31888226E+03</rscale>
<asrwt>0</asrwt>
<pdfrwt beam="1">  1        2 0.37754354E-01 0.31888226E+03</pdfrwt>
<pdfrwt beam="2">  1       -2 0.15937015E-01 0.31888226E+03</pdfrwt>
<totfact> 0.46519767E+03</totfact>
</mgrwt>
<rwgt>
<wgt id='morphing_basis_vector_1'> +2.5515239e-04 </wgt>
<wgt id='morphing_basis_vector_2'> +1.4370077e-04 </wgt>
<wgt id='morphing_basis_vector_3'> +1.4828271e-04 </wgt>
<wgt id='morphing_basis_vector_4'> +2.5829097e-05 </wgt>
<wgt id='morphing_basis_vector_5'> +4.9357813e-06 </wgt>
</rwgt>
</event>
<event>
 4      1 +5.5534000e-05 3.22042500e+02 7.81860800e-03 9.91972000e-02
        2 -1    0    0  501    0 +0.0000000000e+00 +0.0000000000e+00 +2.5363601611e+02 2.5363601611e+02 0.0000000000e+00 0.0000e+00 -1.0000e+00
       -2 -1    0    0    0  501 -0.0000000000e+00 -0.0000000000e+00 -1.0222458416e+02 1.0222458416e+02 0.0000000000e+00 0.0000e+00 1.0000e+00
      -13  1    1    2    0    0 -1.5943878319e+02 +2.0613346071e+01 +8.5724255248e+01 1.8219298439e+02 0.0000000000e+00 0.0000e+00 1.0000e+00
       13  1    1    2    0    0 +1.5943878319e+02 -2.0613346071e+01 +6.5687176707e+01 1.7366761588e+02 0.0000000000e+00 0.0000e+00 -1.0000e+00
<mgrwt>
<rscale>  0 0.32204246E+03</rscale>
<asrwt>0</asrwt>
<pdfrwt beam="1">  1        2 0.39020925E-01 0.32204246E+03</pdfrwt>
<pdfrwt beam="2">  1       -2 0.15726859E-01 0.32204246E+03</pdfrwt>
<totfact> 0.45814440E+03</totfact>
</mgrwt>
<rwgt>
<wgt id='morphing_basis_vector_1'> +2.6850307e-04 </wgt>
<wgt id='morphing_basis_vector_2'> +1.6910486e-04 </wgt>
<wgt id='morphing_basis_vector_3'> +1.4132212e-04 </wgt>
<wgt id='morphing_basis_vector_4'> +2.9849929e-05 </wgt>
<wgt id='morphing_basis_vector_5'> +6.2534940e-06 </wgt>
</rwgt>
</event>
<event>
 4      1 +5.5534000e-05 3.50115300e+02 7.81860800e-03 9.81644000e-02
        2 -1    0    0  501    0 +0.0000000000e+00 +0.0000000000e+00 +6.1032393479e+02 6.1032393479e+02 0.0000000000e+00 0.0000e+00 1.0000e+00
       -2 -1    0    0    0  501 -0.0000000000e+00 -0.0000000000e+00 -5.0211336330e+01 5.0211336330e+01 0.0000000000e+00 0.0000e+00 -1.0000e+00
      -13  1    1    2    0    0 +1.1864631777e+02 +1.1608759803e+01 +3.8204377498e+01 1.2518500902e+02 0.0000000000e+00 0.0000e+00 -1.0000e+00
       13  1    1    2    0    0 -1.1864631777e+02 -1.1608759803e+01 +5.2190822096e+02 5.3535026210e+02 0.0000000000e+00 0.0000e+00 1.0000e+00
<mgrwt>
<rscale>  0 0.35011530E+03</rscale>
<asrwt>0</asrwt>
<pdfrwt beam="1">  1        2 0.93895985E-01 0.35011530E+03</pdfrwt>
<pdfrwt beam="2">  1       -2 0.77248214E-02 0.35011530E+03</pdfrwt>
<totfact> 0.52430919E+03</totfact>
</mgrwt>
<rwgt>
<wgt id='morphing_basis_vector_1'> +3.1463100e-04 </wgt>
<wgt id='morphing_basis_vector_2'> +1.7061352e-04 </wgt>
<wgt id='morphing_basis_vector_3'> +1.9073106e-04 </wgt>
<wgt id='morphing_basis_vector_4'> +3.3922627e-05 </wgt>
<wgt id='morphing_basis_vector_5'> +1.8119773e-05 </wgt>
</rwgt>
</event>
<event>
 4      1 +5.5534000e-05 3.28105300e+02 7.81860800e-03 9.89647000e-02
        2 -1    0    0  501    0 +0.0000000000e+00 +0.0000000000e+00 +2.2371750298e+02 2.2371750298e+02 0.0000000000e+00 0.0000e+00 1.0000e+00
       -2 -1    0    0    0  501 -0.0000000000e+00 -0.0000000000e+00 -1.2030024274e+02 1.2030024274e+02 0.0000000000e+00 0.0000e+00 -1.0000e+00
      -13  1    1    2    0    0 +1.0869957104e+02 -1.1882556563e+02 +1.8916309660e+01 1.6215097460e+02 0.0000000000e+00 0.0000e+00 -1.0000e+00
       13  1    1    2    0    0 -1.0869957104e+02 +1.1882556563e+02 +8.4500950572e+01 1.8186677112e+02 0.0000000000e+00 0.0000e+00 1.0000e+00
<mgrwt>
<rscale>  0 0.32810529E+03</rscale>
<asrwt>0</asrwt>
<pdfrwt beam="1">  1        2 0.34418077E-01 0.32810529E+03</pdfrwt>
<pdfrwt beam="2">  1       -2 0.18507730E-01 0.32810529E+03</pdfrwt>
<totfact> 0.40589172E+03</totfact>
</mgrwt>
<rwgt>
<wgt id='morphing_basis_vector_1'> +2.7414344e-04 </wgt>
<wgt id='morphing_basis_vector_2'> +1.5879220e-04 </wgt>
<wgt id='morphing_basis_vector_3'> +1.5613523e-04 </wgt>
<wgt id='morphing_basis_vector_4'> +2.8671747e-05 </wgt>
<wgt id='morphing_basis_vector_5'> +7.9939388e-06 </wgt>
</rwgt>
</event>
<event>
 4      1 +5.5534000e-05 3.23556000e+02 7.81860800e-03 9.91386400e-02
        2 -1    0    0  501    0 +0.0000000000e+00 +0.0000000000e+00 +1.2860729193e+03 1.2860729193e+03 0.0000000000e+00 0.0000e+00 -1.0000e+00
       -2 -1    0    0    0  501 -0.0000000000e+00 -0.0000000000e+00 -2.0350416214e+01 2.0350416214e+01 0.0000000000e+00 0.0000e+00 1.0000e+00
      -13  1    1    2    0    0 -1.4591751576e+02 +5.2099717237e+01 +4.4495319842e+02 4.7115777690e+02 0.0000000000e+00 0.0000e+00 1.0000e+00
       13  1    1    2    0    0 +1.4591751576e+02 -5.2099717237e+01 +8.2076930470e+02 8.3526555866e+02 0.0000000000e+00 0.0000e+00 -1.0000e+00
<mgrwt>
<rscale>  0 0.32355599E+03</rscale>
<asrwt>0</asrwt>
<pdfrwt beam="1">  1        2 0.19785731E+00 0.32355599E+03</pdfrwt>
<pdfrwt beam="2">  1       -2 0.31308343E-02 0.32355599E+03</pdfrwt>
<totfact> 0.75252504E+03</totfact>
</mgrwt>
<rwgt>
<wgt id='morphing_basis_vector_1'> +2.6442647e-04 </wgt>
<wgt id='morphing_basis_vector_2'> +1.5060584e-04 </wgt>
<wgt id='morphing_basis_vector_3'> +1.5242762e-04 </wgt>
<wgt id='morphing_basis_vector_4'> +2.7135806e-05 </wgt>
<wgt id='morphing_basis_vector_5'> +6.3751487e-06 </wgt>
</rwgt>
</event>
<event>
 4      1 +5.5534000e-05 3.32032400e+02 7.81860800e-03 9.88170000e-02
        2 -1    0    0  501    0 +0.0000000000e+00 +0.0000000000e+00 +5.2712402655e+02 5.2712402655e+02 0.0000000000e+00 0.0000e+00 1.0000e+00
       -2 -1    0    0    0  501 -0.0000000000e+00 -0.0000000000e+00 -5.2286319589e+01 5.2286319589e+01 0.0000000000e+00 0.0000e+00 -1.0000e+00
      -13  1    1    2    0    0 -1.2271522174e+02 -5.1363508602e+01 +6.4104147903e+01 1.4767050295e+02 0.0000000000e+00 0.0000e+00 -1.0000e+00
       13  1    1    2    0    0 +1.2271522174e+02 +5.1363508602e+01 +4.1073355906e+02 4.3173984319e+02 0.0000000000e+00 0.0000e+00 1.0000e+00
<mgrwt>
<rscale>  0 0.33203238E+03</rscale>
<asrwt>0</asrwt>
<pdfrwt beam="1">  1        2 0.81096000E-01 0.33203238E+03</pdfrwt>
<pdfrwt beam="2">  1       -2 0.80440495E-02 0.33203238E+03</pdfrwt>
<totfact> 0.58113270E+03</totfact>
</mgrwt>
<rwgt>
<wgt id='morphing_basis_vector_1'> +2.7827972e-04 </wgt>
<wgt id='morphing_basis_vector_2'> +1.5288625e-04 </wgt>
<wgt id='morphing_basis_vector_3'> +1.6544326e-04 </wgt>
<wgt id='morphing_basis_vector_4'> +2.8282134e-05 </wgt>
<wgt id='morphing_basis_vector_5'> +9.3001242e-06 </wgt>
</rwgt>
</event>
<event>
 4      1 +5.5534000e-05 3.01537000e+02 7.81860800e-03 1.00026400e-01
        2 -1    0    0  501    0 +0.0000000000e+00 +0.0000000000e+00 +5.3277563119e+02 5.3277563119e+02 0.0000000000e+00 0.0000e+00 -1.0000e+00
       -2 -1    0    0    0  501 -0.0000000000e+00 -0.0000000000e+00 -4.2665493675e+01 4.2665493675e+01 0.0000000000e+00 0.0000e+00 1.0000e+00
      -13  1    1    2    0    0 -1.2972565463e+02 -7.1955814061e+01 +2.9643040194e+02 3.3147755255e+02 0.0000000000e+00 0.0000e+00 1.0000e+00
       13  1    1    2    0    0 +1.2972565463e+02 +7.1955814061e+01 +1.9367973557e+02 2.4396357232e+02 0.0000000000e+00 0.0000e+00 -1.0000e+00
<mgrwt>
<rscale>  0 0.30153697E+03</rscale>
<asrwt>0</asrwt>
<pdfrwt beam="1">  1        2 0.81965477E-01 0.30153697E+03</pdfrwt>
<pdfrwt beam="2">  1       -2 0.65639225E-02 0.30153697E+03</pdfrwt>
<totfact> 0.77928025E+03</totfact>
</mgrwt>
<rwgt>
<wgt id='morphing_basis_vector_1'> +2.3697510e-04 </wgt>
<wgt id='morphing_basis_vector_2'> +1.5979956e-04 </wgt>
<wgt id='morphing_basis_vector_3'> +1.1457657e-04 </wgt>
<wgt id='morphing_basis_vector_4'> +2.9122115e-05 </wgt>
<wgt id='morphing_basis_vector_5'> +1.7718610e-06 </wgt>
</rwgt>
</event>
<event>
 4      1 +5.5534000e-05 3.13285100e+02 7.81860800e-03 9.95430400e-02
        2 -1    0    0  501    0 +0.0000000000e+00 +0.0000000000e+00 +7.2241015203e+01 7.2241015203e+01 0.0000000000e+00 0.0000e+00 -1.0000e+00
       -2 -1    0    0    0  501 -0.0000000000e+00 -0.0000000000e+00 -3.3965306837e+02 3.3965306837e+02 0.0000000000e+00 0.0000e+00 1.0000e+00
      -13  1    1    2    0    0 -4.2070016578e+01 +1.2408110070e+02 -2.4658302125e+02 2.7922964065e+02 0.0000000000e+00 0.0000e+00 1.0000e+00
       13  1    1    2    0    0 +4.2070016578e+01 -1.2408110070e+02 -2.0829031913e+01 1.3266444292e+02 0.0000000000e+00 0.0000e+00 -1.0000e+00
<mgrwt>
<rscale>  0 0.31328506E+03</rscale>
<asrwt>0</asrwt>
<pdfrwt beam="1">  1        2 0.11114002E-01 0.31328506E+03</pdfrwt>
<pdfrwt beam="2">  1       -2 0.52254318E-01 0.31328506E+03</pdfrwt>
<totfact> 0.24914428E+03</totfact>
</mgrwt>
<rwgt>
<wgt id='morphing_basis_vector_1'> +2.4460674e-04 </wgt>
<wgt id='morphing_basis_vector_2'> +1.3632250e-04 </wgt>
<wgt id='morphing_basis_vector_3'> +1.4334694e-04 </wgt>
<wgt id='morphing_basis_vector_4'> +2.4479947e-05 </wgt>
<wgt id='morphing_basis_vector_5'> +3.4784514e-06 </wgt>
</rwgt>
</event>
<event>
 4      1 +5.5534000e-05 3.08256600e+02 7.81860800e-03 9.97471400e-02
        2 -1    0    0  501    0 +0.0000000000e+00 +0.0000000000e+00 +1.0342896119e+03 1.0342896119e+03 0.0000000000e+00 0.0000e+00 -1.0000e+00
       -2 -1    0    0    0  501 -0.0000000000e+00 -0.0000000000e+00 -2.2967965199e+01 2.2967965199e+01 0.0000000000e+00 0.0000e+00 1.0000e+00
      -13  1    1    2    0    0 -1.4489304302e+02 +2.4676591807e+01 +3.4653153974e+02 3.7641338464e+02 0.0000000000e+00 0.0000e+00 1.0000e+00
       13  1    1    2    0    0 +1.4489304302e+02 -2.4676591807e+01 +6.6479010693e+02 6.8084419244e+02 0.0000000000e+00 0.0000e+00 -1.0000e+00
<mgrwt>
<rscale>  0 0.30825657E+03</rscale>
<asrwt>0</asrwt>
<pdfrwt beam="1">  1        2 0.15912144E+00 0.30825657E+03</pdfrwt>
<pdfrwt beam="2">  1       -2 0.35335339E-02 0.30825657E+03</pdfrwt>
<totfact> 0.87324900E+03</totfact>
</mgrwt>
<rwgt>
<wgt id='morphing_basis_vector_1'> +2.3766021e-04 </wgt>
<wgt id='morphing_basis_vector_2'> +1.3630857e-04 </wgt>
<wgt id='morphing_basis_vector_3'> +1.3602525e-04 </wgt>
<wgt id='morphing_basis_vector_4'> +2.4490142e-05 </wgt>
<wgt id='morphing_basis_vector_5'> +2.4916591e-06 </wgt>
</rwgt>
</event>
<event>
 4      1 +5.5534000e-05 3.17601600e+02 7.81860800e-03 9.93710600e-02
        2 -1    0    0  501    0 +0.0000000000e+00 +0.0000000000e+00 +2.7766173637e+02 2.7766173637e+02 0.0000000000e+00 0.0000e+00 1.0000e+00
       -2 -1    0    0    0  501 -0.0000000000e+00 -0.0000000000e+00 -9.0821635422e+01 9.0821635422e+01 0.0000000000e+00 0.0000e+00 -1.0000e+00
      -13  1    1    2    0    0 +1.3126399947e+01 +1.2116160937e+02 -2.4700433690e+01 1.2434849973e+02 0.0000000000e+00 0.0000e+00 -1.0000e+00
       13  1    1    2    0    0 -1.3126399947e+01 -1.2116160937e+02 +2.1154053464e+02 2.4413487206e+02 0.0000000000e+00 0.0000e+00 1.0000e+00
<mgrwt>
<rscale>  0 0.31760159E+03</rscale>
<asrwt>0</asrwt>
<pdfrwt beam="1">  1        2 0.42717190E-01 0.31760159E+03</pdfrwt>
<pdfrwt beam="2">  1       -2 0.13972559E-01 0.31760159E+03</pdfrwt>
<totfact> 0.49971042E+03</totfact>
</mgrwt>
<rwgt>
<wgt id='morphing_basis_vector_1'> +2.5174586e-04 </wgt>
<wgt id='morphing_basis_vector_2'> +1.3919431e-04 </wgt>
<wgt id='morphing_basis_vector_3'> +1.4845906e-04 </wgt>
<wgt id='morphing_basis_vector_4'> +2.5064594e-05 </wgt>
<wgt id='morphing_basis_vector_5'> +4.5311478e-06 </wgt>
</rwgt>
</event>
<event>
 4      1 +5.5534000e-05 3.42518700e+02 7.81860800e-03 9.84332400e-02
        2 -1    0    0  501    0 +0.0000000000e+00 +0.0000000000e+00 +5.9517470478e+02 5.9517470478e+02 0.0000000000e+00 0.0000e+00 1.0000e+00
       -2 -1    0    0    0  501 -0.0000000000e+00 -0.0000000000e+00 -4.9279245324e+01 4.9279245324e+01 0.0000000000e+00 0.0000e+00 -1.0000e+00
      -13  1    1    2    0    0 -1.7237593397e+01 +1.6285962711e+02 +3.6719955591e+02 4.0206455530e+02 0.0000000000e+00 0.0000e+00 1.0000e+00
       13  1    1    2    0    0 +1.7237593397e+01 -1.6285962711e+02 +1.7869590355e+02 2.4238939480e+02 0.0000000000e+00 0.0000e+00 -1.0000e+00
<mgrwt>
<rscale>  0 0.34251867E+03</rscale>
<asrwt>0</asrwt>
<pdfrwt beam="1">  1        2 0.91565334E-01 0.34251867E+03</pdfrwt>
<pdfrwt beam="2">  1       -2 0.75814228E-02 0.34251867E+03</pdfrwt>
<totfact> 0.55495608E+03</totfact>
</mgrwt>
<rwgt>
<wgt id='morphing_basis_vector_1'> +3.2333660e-04 </wgt>
<wgt id='morphing_basis_vector_2'> +2.3558315e-04 </wgt>
<wgt id='morphing_basis_vector_3'> +1.4866667e-04 </wgt>
<wgt id='morphing_basis_vector_4'> +3.9791014e-05 </wgt>
<wgt id='morphing_basis_vector_5'> +1.5477832e-05 </wgt>
</rwgt>
</event>
<event>
 4      1 +5.5534000e-05 3.24562100e+02 7.81860800e-03 9.90999000e-02
        2 -1    0    0  501    0 +0.0000000000e+00 +0.0000000000e+00 +1.3799042472e+03 1.3799042472e+03 0.0000000000e+00 0.0000e+00 -1.0000e+00
       -2 -1    0    0    0  501 -0.0000000000e+00 -0.0000000000e+00 -1.9084762252e+01 1.9084762252e+01 0.0000000000e+00 0.0000e+00 1.0000e+00
      -13  1    1    2    0    0 +1.3971627848e+02 -8.1620651194e+01 +7.3365226135e+02 7.5128437343e+02 0.0000000000e+00 0.0000e+00 1.0000e+00
       13  1    1    2    0    0 -1.3971627848e+02 +8.1620651194e+01 +6.2716722363e+02 6.4770463606e+02 0.0000000000e+00 0.0000e+00 -1.0000e+00
<mgrwt>
<rscale>  0 0.32456213E+03</rscale>
<asrwt>0</asrwt>
<pdfrwt beam="1">  1        2 0.21229288E+00 0.32456213E+03</pdfrwt>
<pdfrwt beam="2">  1       -2 0.29361184E-02 0.32456213E+03</pdfrwt>
<totfact> 0.73519709E+03</totfact>
</mgrwt>
<rwgt>
<wgt id='morphing_basis_vector_1'> +2.7394866e-04 </wgt>
<wgt id='morphing_basis_vector_2'> +1.7404191e-04 </wgt>
<wgt id='morphing_basis_vector_3'> +1.4318871e-04 </wgt>
<wgt id='morphing_basis_vector_4'> +3.0659074e-05 </wgt>
<wgt id='morphing_basis_vector_5'> +7.1072704e-06 </wgt>
</rwgt>
</event>
<event>
 4      1 +5.5534000e-05 3.07801600e+02 7.81860800e-03 9.97658100e-02
        2 -1    0    0  501    0 +0.0000000000e+00 +0.0000000000e+00 +9.4138223827e+02 9.4138223827e+02 0.0000000000e+00 0.0000e+00 -1.0000e+00
       -2 -1    0    0    0  501 -0.0000000000e+00 -0.0000000000e+00 -2.5160293213e+01 2.5160293213e+01 0.0000000000e+00 0.0000e+00 1.0000e+00
      -13  1    1    2    0    0 -1.3938499649e+02 +2.3904130019e+01 +2.6746833365e+02 3.0255395252e+02 0.0000000000e+00 0.0000e+00 1.0000e+00
       13  1    1    2    0    0 +1.3938499649e+02 -2.3904130019e+01 +6.4875361141e+02 6.6398857896e+02 0.0000000000e+00 0.0000e+00 -1.0000e+00
<mgrwt>
<rscale>  0 0.30780158E+03</rscale>
<asrwt>0</asrwt>
<pdfrwt beam="1">  1        2 0.14482801E+00 0.30780158E+03</pdfrwt>
<pdfrwt beam="2">  1       -2 0.38708151E-02 0.30780158E+03</pdfrwt>
<totfact> 0.86760155E+03</totfact>
</mgrwt>
<rwgt>
<wgt id='morphing_basis_vector_1'> +2.3620582e-04 </wgt>
<wgt id='morphing_basis_vector_2'> +1.3389686e-04 </wgt>
<wgt id='morphing_basis_vector_3'> +1.3657736e-04 </wgt>
<wgt id='morphing_basis_vector_4'> +2.4076688e-05 </wgt>
<wgt id='morphing_basis_vector_5'> +2.3763380e-06 </wgt>
</rwgt>
</event>
<event>
 4      1 +5.5534000e-05 3.11316000e+02 7.81860800e-03 9.96224700e-02
        2 -1    0    0  501    0 +0.0000000000e+00 +0.0000000000e+00 +6.3439841287e+02 6.3439841287e+02 0.0000000000e+00 0.0000e+00 -1.0000e+00
       -2 -1    0    0    0  501 -0.0000000000e+00 -0.0000000000e+00 -3.8192746726e+01 3.8192746726e+01 0.0000000000e+00 0.0000e+00 1.0000e+00
      -13  1    1    2    0    0 -5.2852396246e+01 -1.3627038193e+02 +1.8243303707e+02 2.3376228480e+02 0.0000000000e+00 0.0000e+00 1.0000e+00
       13  1    1    2    0    0 +5.2852396246e+01 +1.3627038193e+02 +4.1377262908e+02 4.3882887480e+02 0.0000000000e+00 0.0000e+00 -1.0000e+00
<mgrwt>
<rscale>  0 0.31131603E+03</rscale>
<asrwt>0</asrwt>
<pdfrwt beam="1">  1        2 0.97599748E-01 0.31131603E+03</pdfrwt>
<pdfrwt beam="2">  1       -2 0.58758077E-02 0.31131603E+03</pdfrwt>
<totfact> 0.75621126E+03</totfact>
</mgrwt>
<rwgt>
<wgt id='morphing_basis_vector_1'> +2.4240851e-04 </wgt>
<wgt id='morphing_basis_vector_2'> +1.3790696e-04 </wgt>
<wgt id='morphing_basis_vector_3'> +1.3966953e-04 </wgt>
<wgt id='morphing_basis_vector_4'> +2.4733255e-05 </wgt>
<wgt id='morphing_basis_vector_5'> +3.0937197e-06 </wgt>
</rwgt>
</event>
<event>
 4      1 +5.5534000e-05 3.00823900e+02 7.81860800e-03 1.00056500e-01
        2 -1    0    0  501    0 +0.0000000000e+00 +0.0000000000e+00 +5.3370823089e+01 5.3370823089e+01 0.0000000000e+00 0.0000e+00 -1.0000e+00
       -2 -1    0    0    0  501 -0.0000000000e+00 -0.0000000000e+00 -4.2389748966e+02 4.2389748966e+02 0.0000000000e+00 0.0000e+00 1.0000e+00
      -13  1    1    2    0    0 +4.8020741741e+01 -1.2283594988e+02 -2.9998977615e+02 3.2770188894e+02 0.0000000000e+00 0.0000e+00 1.0000e+00
       13  1    1    2    0    0 -4.8020741741e+01 +1.2283594988e+02 -7.0536890421e+01 1.4956642381e+02 0.0000000000e+00 0.0000e+00 -1.0000e+00
<mgrwt>
<rscale>  0 0.30082392E+03</rscale>
<asrwt>0</asrwt>
<pdfrwt beam="1">  1        2 0.82108962E-02 0.30082392E+03</pdfrwt>
<pdfrwt beam="2">  1       -2 0.65214995E-01 0.30082392E+03</pdfrwt>
<totfact> 0.23442653E+03</totfact>
</mgrwt>
<rwgt>
<wgt id='morphing_basis_vector_1'> +2.2456857e-04 </wgt>
<wgt id='morphing_basis_vector_2'> +1.2699285e-04 </wgt>
<wgt id='morphing_basis_vector_3'> +1.3041491e-04 </wgt>
<wgt id='morphing_basis_vector_4'> +2.3067292e-05 </wgt>
<wgt id='morphing_basis_vector_5'> +1.2544363e-06 </wgt>
</rwgt>
</event>
<event>
 4      1 +5.5534000e-05 3.19137000e+02 7.81860800e-03 9.93106000e-02
        2 -1    0    0  501    0 +0.0000000000e+00 +0.0000000000e+00 +1.0578609423e+02 1.0578609423e+02 0.0000000000e+00 0.0000e+00 1.0000e+00
       -2 -1    0    0    0  501 -0.0000000000e+00 -0.0000000000e+00 -2.4069433035e+02 2.4069433035e+02 0.0000000000e+00 0.0000e+00 -1.0000e+00
      -13  1    1    2    0    0 +7.8151599049e+01 -1.1904323655e+02 -1.4561659471e+02 2.0367414480e+02 0.0000000000e+00 0.0000e+00 -1.0000e+00
       13  1    1    2    0    0 -7.8151599049e+01 +1.1904323655e+02 +1.0708358598e+01 1.4280627978e+02 0.0000000000e+00 0.0000e+00 1.0000e+00
<mgrwt>
<rscale>  0 0.31913704E+03</rscale>
<asrwt>0</asrwt>
<pdfrwt beam="1">  1        2 0.16274784E-01 0.31913704E+03</pdfrwt>
<pdfrwt beam="2">  1       -2 0.37029896E-01 0.31913704E+03</pdfrwt>
<totfact> 0.29723575E+03</totfact>
</mgrwt>
<rwgt>
<wgt id='morphing_basis_vector_1'> +2.5519103e-04 </wgt>
<wgt id='morphing_basis_vector_2'> +1.4273219e-04 </wgt>
<wgt id='morphing_basis_vector_3'> +1.4913859e-04 </wgt>
<wgt id='morphing_basis_vector_4'> +2.5688470e-05 </wgt>
<wgt id='morphing_basis_vector_5'> +4.9862071e-06 </wgt>
</rwgt>
</event>
<event>
 4      1 +5.5534000e-05 3.29696500e+02 7.81860800e-03 9.89045900e-02
        2 -1    0    0  501    0 +0.0000000000e+00 +0.0000000000e+00 +3.6655464348e+02 3.6655464348e+02 0.0000000000e+00 0.0000e+00 1.0000e+00
       -2 -1    0    0    0  501 -0.0000000000e+00 -0.0000000000e+00 -7.4136159074e+01 7.4136159074e+01 0.0000000000e+00 0.0000e+00 -1.0000e+00
      -13  1    1    2    0    0 -2.7735217615e+01 -1.2637100626e+02 +9.6603177275e+00 1.2973895042e+02 0.0000000000e+00 0.0000e+00 -1.0000e+00
       13  1    1    2    0    0 +2.7735217615e+01 +1.2637100626e+02 +2.8275816668e+02 3.1095185213e+02 0.0000000000e+00 0.0000e+00 1.0000e+00
<mgrwt>
<rscale>  0 0.32969655E+03</rscale>
<asrwt>0</asrwt>
<pdfrwt beam="1">  1        2 0.56393021E-01 0.32969655E+03</pdfrwt>
<pdfrwt beam="2">  1       -2 0.11405563E-01 0.32969655E+03</pdfrwt>
<totfact> 0.50692231E+03</totfact>
</mgrwt>
<rwgt>
<wgt id='morphing_basis_vector_1'> +2.7376445e-04 </wgt>
<wgt id='morphing_basis_vector_2'> +1.5041874e-04 </wgt>
<wgt id='morphing_basis_vector_3'> +1.6260783e-04 </wgt>
<wgt id='morphing_basis_vector_4'> +2.7659738e-05 </wgt>
<wgt id='morphing_basis_vector_5'> +8.3944118e-06 </wgt>
</rwgt>
</event>
<event>
 4      1 +5.5534000e-05 3.33577600e+02 7.81860800e-03 9.87595000e-02
        2 -1    0    0  501    0 +0.0000000000e+00 +0.0000000000e+00 +5.3063560950e+02 5.3063560950e+02 0.0000000000e+00 0.0000e+00 1.0000e+00
       -2 -1    0    0    0  501 -0.0000000000e+00 -0.0000000000e+00 -5.2424864742e+01 5.2424864742e+01 0.0000000000e+00 0.0000e+00 -1.0000e+00
      -13  1    1    2    0    0 +9.2545420527e+01 +1.3719416933e+02 +2.7541819705e+02 3.2131305330e+02 0.0000000000e+00 0.0000e+00 1.0000e+00
       13  1    1    2    0    0 -9.2545420527e+01 -1.3719416933e+02 +2.0279254771e+02 2.6174742094e+02 0.0000000000e+00 0.0000e+00 -1.0000e+00
<mgrwt>
<rscale>  0 0.33357758E+03</rscale>
<asrwt>0</asrwt>
<pdfrwt beam="1">  1        2 0.81636244E-01 0.33357758E+03</pdfrwt>
<pdfrwt beam="2">  1       -2 0.80653642E-02 0.33357758E+03</pdfrwt>
<totfact> 0.57457859E+03</totfact>
</mgrwt>
<rwgt>
<wgt id='morphing_basis_vector_1'> +2.9368871e-04 </wgt>
<wgt id='morphing_basis_vector_2'> +1.9106792e-04 </wgt>
<wgt id='morphing_basis_vector_3'> +1.5110901e-04 </wgt>
<wgt id='morphing_basis_vector_4'> +3.3537446e-05 </wgt>
<wgt id='morphing_basis_vector_5'> +1.0635180e-05 </wgt>
</rwgt>
</event>
<event>
 4      1 +5.5534000e-05 3.26009100e+02 7.81860800e-03 9.90444600e-02
        2 -1    0    0  501    0 +0.0000000000e+00 +0.0000000000e+00 +2.2762611225e+02 2.2762611225e+02 0.0000000000e+00 0.0000e+00 1.0000e+00
       -2 -1    0    0    0  501 -0.0000000000e+00 -0.0000000000e+00 -1.1672865966e+02 1.1672865966e+02 0.0000000000e+00 0.0000e+00 -1.0000e+00
      -13  1    1    2    0    0 -1.4935613349e+02 -6.4526015840e+01 +4.4905570260e+01 1.6878202384e+02 0.0000000000e+00 0.0000e+00 -1.0000e+00
       13  1    1    2    0    0 +1.4935613349e+02 +6.4526015840e+01 +6.5991882329e+01 1.7557274807e+02 0.0000000000e+00 0.0000e+00 1.0000e+00
<mgrwt>
<rscale>  0 0.32600915E+03</rscale>
<asrwt>0</asrwt>
<pdfrwt beam="1">  1        2 0.35019402E-01 0.32600915E+03</pdfrwt>
<pdfrwt beam="2">  1       -2 0.17958255E-01 0.32600915E+03</pdfrwt>
<totfact> 0.41793082E+03</totfact>
</mgrwt>
<rwgt>
<wgt id='morphing_basis_vector_1'> +2.7264427e-04 </wgt>
<wgt id='morphing_basis_vector_2'> +1.6381527e-04 </wgt>
<wgt id='morphing_basis_vector_3'> +1.5033005e-04 </wgt>
<wgt id='morphing_basis_vector_4'> +2.9233994e-05 </wgt>
<wgt id='morphing_basis_vector_5'> +7.3849826e-06 </wgt>
</rwgt>
</event>
<event>
 4      1 +5.5534000e-05 3.59551400e+02 7.81860800e-03 9.78405600e-02
        2 -1    0    0  501    0 +0.0000000000e+00 +0.0000000000e+00 +5.5919985151e+01 5.5919985151e+01 0.0000000000e+00 0.0000e+00 -1.0000e+00
       -2 -1    0    0    0  501 -0.0000000000e+00 -0.0000000000e+00 -5.7795634110e+02 5.7795634110e+02 0.0000000000e+00 0.0000e+00 1.0000e+00
      -13  1    1    2    0    0 -1.1843191683e+02 -5.1671069510e+01 -4.8137665726e+02 4.9841699861e+02 0.0000000000e+00 0.0000e+00 1.0000e+00
       13  1    1    2    0    0 +1.1843191683e+02 +5.1671069510e+01 -4.0659698692e+01 1.3545932764e+02 0.0000000000e+00 0.0000e+00 -1.0000e+00
<mgrwt>
<rscale>  0 0.35955144E+03</rscale>
<asrwt>0</asrwt>
<pdfrwt beam="1">  1        2 0.86030745E-02 0.35955144E+03</pdfrwt>
<pdfrwt beam="2">  1       -2 0.88916362E-01 0.35955144E+03</pdfrwt>
<totfact> 0.11288856E+03</totfact>
</mgrwt>
<rwgt>
<wgt id='morphing_basis_vector_1'> +3.3559902e-04 </wgt>
<wgt id='morphing_basis_vector_2'> +1.8172623e-04 </wgt>
<wgt id='morphing_basis_vector_3'> +2.0515656e-04 </wgt>
<wgt id='morphing_basis_vector_4'> +3.7851602e-05 </wgt>
<wgt id='morphing_basis_vector_5'> +2.4150774e-05 </wgt>
</rwgt>
</event>
<event>
 4      1 +5.5534000e-05 3.11101800e+02 7.81860800e-03 9.96311500e-02
        2 -1    0    0  501    0 +0.0000000000e+00 +0.0000000000e+00 +7.8011878584e+01 7.8011878584e+01 0.0000000000e+00 0.0000e+00 -1.0000e+00
       -2 -1    0    0    0  501 -0.0000000000e+00 -0.0000000000e+00 -3.1015893763e+02 3.1015893763e+02 0.0000000000e+00 0.0000e+00 1.0000e+00
      -13  1    1    2    0    0 -1.4717423478e+02 +4.2303587693e+01 -8.1988989471e+01 1.7370101700e+02 0.0000000000e+00 0.0000e+00 1.0000e+00
       13  1    1    2    0    0 +1.4717423478e+02 -4.2303587693e+01 -1.5015806957e+02 2.1446979921e+02 0.0000000000e+00 0.0000e+00 -1.0000e+00
<mgrwt>
<rscale>  0 0.31110179E+03</rscale>
<asrwt>0</asrwt>
<pdfrwt beam="1">  1        2 0.12001828E-01 0.31110179E+03</pdfrwt>
<pdfrwt beam="2">  1       -2 0.47716760E-01 0.31110179E+03</pdfrwt>
<totfact> 0.26957974E+03</totfact>
</mgrwt>
<rwgt>
<wgt id='morphing_basis_vector_1'> +2.5327988e-04 </wgt>
<wgt id='morphing_basis_vector_2'> +1.7016151e-04 </wgt>
<wgt id='morphing_basis_vector_3'> +1.2348611e-04 </wgt>
<wgt id='morphing_basis_vector_4'> +3.0212923e-05 </wgt>
<wgt id='morphing_basis_vector_5'> +3.5501601e-06 </wgt>
</rwgt>
</event>
<event>
 4      1 +5.5534000e-05 3.22657400e+02 7.81860800e-03 9.91733700e-02
        2 -1    0    0  501    0 +0.0000000000e+00 +0.0000000000e+00 +5.4536956762e+02 5.4536956762e+02 0.0000000000e+00 0.0000e+00 -1.0000e+00
       -2 -1    0    0    0  501 -0.0000000000e+00 -0.0000000000e+00 -4.7723497289e+01 4.7723497289e+01 0.0000000000e+00 0.0000e+00 1.0000e+00
      -13  1    1    2    0    0 -1.2930037405e+01 -1.6073943271e+02 +2.4008611257e+02 2.8921565059e+02 0.0000000000e+00 0.0000e+00 1.0000e+00
       13  1    1    2    0    0 +1.2930037405e+01 +1.6073943271e+02 +2.5755995776e+02 3.0387741433e+02 0.0000000000e+00 0.0000e+00 -1.0000e+00
<mgrwt>
<rscale>  0 0.32265736E+03</rscale>
<asrwt>0</asrwt>
<pdfrwt beam="1">  1        2 0.83903006E-01 0.32265736E+03</pdfrwt>
<pdfrwt beam="2">  1       -2 0.73420769E-02 0.32265736E+03</pdfrwt>
<totfact> 0.64220827E+03</totfact>
</mgrwt>
<rwgt>
<wgt id='morphing_basis_vector_1'> +2.6714040e-04 </wgt>
<wgt id='morphing_basis_vector_2'> +1.6246115e-04 </wgt>
<wgt id='morphing_basis_vector_3'> +1.4543763e-04 </wgt>
<wgt id='morphing_basis_vector_4'> +2.8865079e-05 </wgt>
<wgt id='morphing_basis_vector_5'> +6.3171945e-06 </wgt>
</rwgt>
</event>
<event>
 4      1 +5.5534000e-05 3.23284400e+02 7.81860800e-03 9.91491200e-02
        2 -1    0    0  501    0 +0.0000000000e+00 +0.0000000000e+00 +1.3286901446e+03 1.3286901446e+03 0.0000000000e+00 0.0000e+00 -1.0000e+00
       -2 -1    0    0    0  501 -0.0000000000e+00 -0.0000000000e+00 -1.9664633565e+01 1.9664633565e+01 0.0000000000e+00 0.0000e+00 1.0000e+00
      -13  1    1    2    0    0 -1.3903222887e+02 -7.4037904306e+01 +5.0317344725e+02 5.2725239683e+02 0.0000000000e+00 0.0000e+00 1.0000e+00
       13  1    1    2    0    0 +1.3903222887e+02 +7.4037904306e+01 +8.0585206380e+02 8.2110238136e+02 0.0000000000e+00 0.0000e+00 -1.0000e+00
<mgrwt>
<rscale>  0 0.32328442E+03</rscale>
<asrwt>0</asrwt>
<pdfrwt beam="1">  1        2 0.20441380E+00 0.32328442E+03</pdfrwt>
<pdfrwt beam="2">  1       -2 0.30253293E-02 0.32328442E+03</pdfrwt>
<totfact> 0.75005161E+03</totfact>
</mgrwt>
<rwgt>
<wgt id='morphing_basis_vector_1'> +2.6467398e-04 </wgt>
<wgt id='morphing_basis_vector_2'> +1.5251910e-04 </wgt>
<wgt id='morphing_basis_vector_3'> +1.5109769e-04 </wgt>
<wgt id='morphing_basis_vector_4'> +2.7404369e-05 </wgt>
<wgt id='morphing_basis_vector_5'> +6.3274761e-06 </wgt>
</rwgt>
</event>
<event>
 4      1 +5.5534000e-05 3.27900500e+02 7.81860800e-03 9.89724700e-02
        2 -1    0    0  501    0 +0.0000000000e+00 +0.0000000000e+00 +7.3417662489e+02 7.3417662489e+02 0.0000000000e+00 0.0000e+00 -1.0000e+00
       -2 -1    0    0    0  501 -0.0000000000e+00 -0.0000000000e+00 -3.6612021491e+01 3.6612021491e+01 0.0000000000e+00 0.0000e+00 1.0000e+00
      -13  1    1    2    0    0 -1.2434627822e+02 -5.8540621780e+01 +1.3865363821e+02 1.9522764326e+02 0.0000000000e+00 0.0000e+00 1.0000e+00
       13  1    1    2    0    0 +1.2434627822e+02 +5.8540621780e+01 +5.5891096519e+02 5.7556100312e+02 0.0000000000e+00 0.0000e+00 -1.0000e+00
<mgrwt>
<rscale>  0 0.32790054E+03</rscale>
<asrwt>0</asrwt>
<pdfrwt beam="1">  1        2 0.11295024E+00 0.32790054E+03</pdfrwt>
<pdfrwt beam="2">  1       -2 0.56326192E-02 0.32790054E+03</pdfrwt>
<totfact> 0.67961538E+03</totfact>
</mgrwt>
<rwgt>
<wgt id='morphing_basis_vector_1'> +2.7066181e-04 </wgt>
<wgt id='morphing_basis_vector_2'> +1.4949970e-04 </wgt>
<wgt id='morphing_basis_vector_3'> +1.6003569e-04 </wgt>
<wgt id='morphing_basis_vector_4'> +2.7336995e-05 </wgt>
<wgt id='morphing_basis_vector_5'> +7.7511046e-06 </wgt>
</rwgt>
</event>
<event>
 4      1 +5.5534000e-05 3.28103900e+02 7.81860800e-03 9.89647600e-02
        2 -1    0    0  501    0 +0.0000000000e+00 +0.0000000000e+00 +7.4172610450e+02 7.4172610450e+02 0.0000000000e+00 0.0000e+00 -1.0000e+00
       -2 -1    0    0    0  501 -0.0000000000e+00 -0.0000000000e+00 -3.6284336877e+01 3.6284336877e+01 0.0000000000e+00 0.0000e+00 1.0000e+00
      -13  1    1    2    0    0 -1.2018531761e+02 +3.1121766727e+01 +9.8434965759e+01 1.5843773988e+02 0.0000000000e+00 0.0000e+00 1.0000e+00
       13  1    1    2    0    0 +1.2018531761e+02 -3.1121766727e+01 +6.0700680186e+02 6.1957270150e+02 0.0000000000e+00 0.0000e+00 -1.0000e+00
<mgrwt>
<rscale>  0 0.32810389E+03</rscale>
<asrwt>0</asrwt>
<pdfrwt beam="1">  1        2 0.11411170E+00 0.32810389E+03</pdfrwt>
<pdfrwt beam="2">  1       -2 0.55822062E-02 0.32810389E+03</pdfrwt>
<totfact> 0.68042778E+03</totfact>
</mgrwt>
<rwgt>
<wgt id='morphing_basis_vector_1'> +2.7067590e-04 </wgt>
<wgt id='morphing_basis_vector_2'> +1.4861852e-04 </wgt>
<wgt id='morphing_basis_vector_3'> +1.6077440e-04 </wgt>
<wgt id='morphing_basis_vector_4'> +2.7233207e-05 </wgt>
<wgt id='morphing_basis_vector_5'> +7.8041232e-06 </wgt>
</rwgt>
</event>
<event>
 4      1 +5.5534000e-05 3.14679800e+02 7.81860800e-03 9.94871500e-02
        2 -1    0    0  501    0 +0.0000000000e+00 +0.0000000000e+00 +9.5296986559e+01 9.5296986559e+01 0.0000000000e+00 0.0000e+00 1.0000e+00
       -2 -1    0    0    0  501 -0.0000000000e+00 -0.0000000000e+00 -2.5977577204e+02 2.5977577204e+02 0.0000000000e+00 0.0000e+00 -1.0000e+00
      -13  1    1    2    0    0 +7.8906536233e+01 +1.3047876548e+02 -1.2601196467e+02 1.9781295444e+02 0.0000000000e+00 0.0000e+00 -1.0000e+00
       13  1    1    2    0    0 -7.8906536233e+01 -1.3047876548e+02 -3.8466820812e+01 1.5725980417e+02 0.0000000000e+00 0.0000e+00 1.0000e+00
<mgrwt>
<rscale>  0 0.31467983E+03</rscale>
<asrwt>0</asrwt>
<pdfrwt beam="1">  1        2 0.14661075E-01 0.31467983E+03</pdfrwt>
<pdfrwt beam="2">  1       -2 0.39965503E-01 0.31467983E+03</pdfrwt>
<totfact> 0.29350808E+03</totfact>
</mgrwt>
<rwgt>
<wgt id='morphing_basis_vector_1'> +2.4907414e-04 </wgt>
<wgt id='morphing_basis_vector_2'> +1.4356811e-04 </wgt>
<wgt id='morphing_basis_vector_3'> +1.4191241e-04 </wgt>
<wgt id='morphing_basis_vector_4'> +2.5694645e-05 </wgt>
<wgt id='morphing_basis_vector_5'> +3.9044726e-06 </wgt>
</rwgt>
</event>
<event>
 4      1 +5.5534000e-05 3.21677100e+02 7.81860800e-03 9.92113900e-02
        2 -1    0    0  501    0 +0.0000000000e+00 +0.0000000000e+00 +1.2922067865e+02 1.2922067865e+02 0.0000000000e+00 0.0000e+00 -1.0000e+00
       -2 -1    0    0    0  501 -0.0000000000e+00 -0.0000000000e+00 -2.0019267601e+02 2.0019267601e+02 0.0000000000e+00 0.0000e+00 1.0000e+00
      -13  1    1    2    0    0 -3.4347921327e+00 -3.5247432816e+01 -1.9615042891e+02 1.9932177522e+02 0.0000000000e+00 0.0000e+00 1.0000e+00
       13  1    1    2    0    0 +3.4347921327e+00 +3.5247432816e+01 +1.2517843155e+02 1.3009157944e+02 0.0000000000e+00 0.0000e+00 -1.0000e+00
<mgrwt>
<rscale>  0 0.32167706E+03</rscale>
<asrwt>0</asrwt>
<pdfrwt beam="1">  1        2 0.19880105E-01 0.32167706E+03</pdfrwt>
<pdfrwt beam="2">  1       -2 0.30798873E-01 0.32167706E+03</pdfrwt>
<totfact> 0.32445918E+03</totfact>
</mgrwt>
<rwgt>
<wgt id='morphing_basis_vector_1'> +2.5856046e-04 </wgt>
<wgt id='morphing_basis_vector_2'> +1.4165900e-04 </wgt>
<wgt id='morphing_basis_vector_3'> +1.5361756e-04 </wgt>
<wgt id='morphing_basis_vector_4'> +2.5664502e-05 </wgt>
<wgt id='morphing_basis_vector_5'> +5.6645156e-06 </wgt>
</rwgt>
</event>
<event>
 4      1 +5.5534000e-05 3.18779400e+02 7.81860800e-03 9.93246500e-02
        2 -1    0    0  501    0 +0.0000000000e+00 +0.0000000000e+00 +7.7195164417e+01 7.7195164417e+01 0.0000000000e+00 0.0000e+00 1.0000e+00
       -2 -1    0    0    0  501 -0.0000000000e+00 -0.0000000000e+00 -3.2910189709e+02 3.2910189709e+02 0.0000000000e+00 0.0000e+00 -1.0000e+00
      -13  1    1    2    0    0 -7.4675000993e+01 -1.3366899232e+02 -1.8239864846e+02 2.3814496056e+02 0.0000000000e+00 0.0000e+00 -1.0000e+00
       13  1    1    2    0    0 +7.4675000993e+01 +1.3366899232e+02 -6.9508084219e+01 1.6815210095e+02 0.0000000000e+00 0.0000e+00 1.0000e+00
<mgrwt>
<rscale>  0 0.31877939E+03</rscale>
<asrwt>0</asrwt>
<pdfrwt beam="1">  1        2 0.11876179E-01 0.31877939E+03</pdfrwt>
<pdfrwt beam="2">  1       -2 0.50631060E-01 0.31877939E+03</pdfrwt>
<totfact> 0.24399038E+03</totfact>
</mgrwt>
<rwgt>
<wgt id='morphing_basis_vector_1'> +2.5591814e-04 </wgt>
<wgt id='morphing_basis_vector_2'> +1.4636555e-04 </wgt>
<wgt id='morphing_basis_vector_3'> +1.4685509e-04 </wgt>
<wgt id='morphing_basis_vector_4'> +2.6243383e-05 </wgt>
<wgt id='morphing_basis_vector_5'> +4.9543339e-06 </wgt>
</rwgt>
</event>
<event>
 4      1 +5.5534000e-05 3.20050200e+02 7.81860800e-03 9.92748200e-02
        2 -1    0    0  501    0 +0.0000000000e+00 +0.0000000000e+00 +1.3901625768e+02 1.3901625768e+02 0.0000000000e+00 0.0000e+00 -1.0000e+00
       -2 -1    0    0    0  501 -0.0000000000e+00 -0.0000000000e+00 -1.8420890821e+02 1.8420890821e+02 0.0000000000e+00 0.0000e+00 1.0000e+00
      -13  1    1    2    0    0 -1.1528260850e+02 +3.0504731542e+01 -1.3036675799e+02 1.7668081406e+02 0.0000000000e+00 0.0000e+00 1.0000e+00
       13  1    1    2    0    0 +1.1528260850e+02 -3.0504731542e+01 +8.5174107467e+01 1.4654435182e+02 0.0000000000e+00 0.0000e+00 -1.0000e+00
<mgrwt>
<rscale>  0 0.32005020E+03</rscale>
<asrwt>0</asrwt>
<pdfrwt beam="1">  1        2 0.21387117E-01 0.32005020E+03</pdfrwt>
<pdfrwt beam="2">  1       -2 0.28339832E-01 0.32005020E+03</pdfrwt>
<totfact> 0.34379221E+03</totfact>
</mgrwt>
<rwgt>
<wgt id='morphing_basis_vector_1'> +2.5598804e-04 </wgt>
<wgt id='morphing_basis_vector_2'> +1.4116078e-04 </wgt>
<wgt id='morphing_basis_vector_3'> +1.5130376e-04 </wgt>
<wgt id='morphing_basis_vector_4'> +2.5489578e-05 </wgt>
<wgt id='morphing_basis_vector_5'> +5.2034650e-06 </wgt>
</rwgt>
</event>
<event>
 4      1 +5.5534000e-05 3.38949600e+02 7.81860800e-03 9.85621600e-02
        2 -1    0    0  501    0 +0.0000000000e+00 +0.0000000000e+00 +7.0029228822e+02 7.0029228822e+02 0.0000000000e+00 0.0000e+00 -1.0000e+00
       -2 -1    0    0    0  501 -0.0000000000e+00 -0.0000000000e+00 -4.1013882642e+01 4.1013882642e+01 0.0000000000e+00 0.0000e+00 1.0000e+00
      -13  1    1    2    0    0 +1.5323269404e+02 -1.2968961186e+01 +1.7386132733e+02 2.3211250207e+02 0.0000000000e+00 0.0000e+00 1.0000e+00
       13  1    1    2    0    0 -1.5323269404e+02 +1.2968961186e+01 +4.8541707825e+02 5.0919366879e+02 0.0000000000e+00 0.0000e+00 -1.0000e+00
<mgrwt>
<rscale>  0 0.33894959E+03</rscale>
<asrwt>0</asrwt>
<pdfrwt beam="1">  1        2 0.10773727E+00 0.33894959E+03</pdfrwt>
<pdfrwt beam="2">  1       -2 0.63098286E-02 0.33894959E+03</pdfrwt>
<totfact> 0.60659312E+03</totfact>
</mgrwt>
<rwgt>
<wgt id='morphing_basis_vector_1'> +2.9280016e-04 </wgt>
<wgt id='morphing_basis_vector_2'> +1.6266226e-04 </wgt>
<wgt id='morphing_basis_vector_3'> +1.7324612e-04 </wgt>
<wgt id='morphing_basis_vector_4'> +3.0586521e-05 </wgt>
<wgt id='morphing_basis_vector_5'> +1.2341159e-05 </wgt>
</rwgt>
</event>
<event>
 4      1 +5.5534000e-05 3.17799900e+02 7.81860800e-03 9.93632300e-02
        2 -1    0    0  501    0 +0.0000000000e+00 +0.0000000000e+00 +4.1503519679e+01 4.1503519679e+01 0.0000000000e+00 0.0000e+00 1.0000e+00
       -2 -1    0    0    0  501 -0.0000000000e+00 -0.0000000000e+00 -6.0836264214e+02 6.0836264214e+02 0.0000000000e+00 0.0000e+00 -1.0000e+00
      -13  1    1    2    0    0 -1.3517843810e+02 +5.4878417383e+01 -4.1218205412e+02 4.3724009030e+02 0.0000000000e+00 0.0000e+00 -1.0000e+00
       13  1    1    2    0    0 +1.3517843810e+02 -5.4878417383e+01 -1.5467706834e+02 2.1262607152e+02 0.0000000000e+00 0.0000e+00 1.0000e+00
<mgrwt>
<rscale>  0 0.31779988E+03</rscale>
<asrwt>0</asrwt>
<pdfrwt beam="1">  1        2 0.63851574E-02 0.31779988E+03</pdfrwt>
<pdfrwt beam="2">  1       -2 0.93594245E-01 0.31779988E+03</pdfrwt>
<totfact> 0.14727578E+03</totfact>
</mgrwt>
<rwgt>
<wgt id='morphing_basis_vector_1'> +2.5317695e-04 </wgt>
<wgt id='morphing_basis_vector_2'> +1.4252221e-04 </wgt>
<wgt id='morphing_basis_vector_3'> +1.4717210e-04 </wgt>
<wgt id='morphing_basis_vector_4'> +2.5600888e-05 </wgt>
<wgt id='morphing_basis_vector_5'> +4.6371537e-06 </wgt>
</rwgt>
</event>
<event>
 4      1 +5.5534000e-05 3.43803800e+02 7.81860800e-03 9.83872300e-02
        2 -1    0    0  501    0 +0.0000000000e+00 +0.0000000000e+00 +1.9860611545e+02 1.9860611545e+02 0.0000000000e+00 0.0000e+00 -1.0000e+00
       -2 -1    0    0    0  501 -0.0000000000e+00 -0.0000000000e+00 -1.4878825400e+02 1.4878825400e+02 0.0000000000e+00 0.0000e+00 1.0000e+00
      -13  1    1    2    0    0 +1.0259676438e+02 +3.1551090097e+01 -1.1076431988e+02 1.5424105131e+02 0.0000000000e+00 0.0000e+00 1.0000e+00
       13  1    1    2    0    0 -1.0259676438e+02 -3.1551090097e+01 +1.6058218134e+02 1.9315331815e+02 0.0000000000e+00 0.0000e+00 -1.0000e+00
<mgrwt>
<rscale>  0 0.34380376E+03</rscale>
<asrwt>0</asrwt>
<pdfrwt beam="1">  1        2 0.30554787E-01 0.34380376E+03</pdfrwt>
<pdfrwt beam="2">  1       -2 0.22890501E-01 0.34380376E+03</pdfrwt>
<totfact> 0.32777334E+03</totfact>
</mgrwt>
<rwgt>
<wgt id='morphing_basis_vector_1'> +3.0125447e-04 </wgt>
<wgt id='morphing_basis_vector_2'> +1.6352102e-04 </wgt>
<wgt id='morphing_basis_vector_3'> +1.8173521e-04 </wgt>
<wgt id='morphing_basis_vector_4'> +3.1631715e-05 </wgt>
<wgt id='morphing_basis_vector_5'> +1.4640776e-05 </wgt>
</rwgt>
</event>
<event>
 4      1 +5.5534000e-05 3.08421900e+02 7.81860800e-03 9.97403600e-02
        2 -1    0    0  501    0 +0.0000000000e+00 +0.0000000000e+00 +9.2680727451e+02 9.2680727451e+02 0.0000000000e+00 0.0000e+00 1.0000e+00
       -2 -1    0    0    0  501 -0.0000000000e+00 -0.0000000000e+00 -2.5659075141e+01 2.5659075141e+01 0.0000000000e+00 0.0000e+00 -1.0000e+00
      -13  1    1    2    0    0 +1.2210436397e+02 +9.4187134301e+01 +4.5233607076e+02 4.7790021226e+02 0.0000000000e+00 0.0000e+00 -1.0000e+00
       13  1    1    2    0    0 -1.2210436397e+02 -9.4187134301e+01 +4.4881212861e+02 4.7456613739e+02 0.0000000000e+00 0.0000e+00 1.0000e+00
<mgrwt>
<rscale>  0 0.30842190E+03</rscale>
<asrwt>0</asrwt>
<pdfrwt beam="1">  1        2 0.14258571E+00 0.30842190E+03</pdfrwt>
<pdfrwt beam="2">  1       -2 0.39475507E-02 0.30842190E+03</pdfrwt>
<totfact> 0.86037872E+03</totfact>
</mgrwt>
<rwgt>
<wgt id='morphing_basis_vector_1'> +2.4272253e-04 </wgt>
<wgt id='morphing_basis_vector_2'> +1.5024049e-04 </wgt>
<wgt id='morphing_basis_vector_3'> +1.2932928e-04 </wgt>
<wgt id='morphing_basis_vector_4'> +2.6915509e-05 </wgt>
<wgt id='morphing_basis_vector_5'> +2.7280333e-06 </wgt>
</rwgt>
</event>
<event>
 4      1 +5.5534000e-05 3.08497500e+02 7.81860800e-03 9.97372600e-02
        2 -1    0    0  501    0 +0.0000000000e+00 +0.0000000000e+00 +5.5273367637e+02 5.5273367637e+02 0.0000000000e+00 0.0000e+00 1.0000e+00
       -2 -1    0    0    0  501 -0.0000000000e+00 -0.0000000000e+00 -4.3045472493e+01 4.3045472493e+01 0.0000000000e+00 0.0000e+00 -1.0000e+00
      -13  1    1    2    0    0 +1.0166942912e+02 -5.6098213287e+01 +5.8760232069e+01 1.3014010614e+02 0.0000000000e+00 0.0000e+00 -1.0000e+00
       13  1    1    2    0    0 -1.0166942912e+02 +5.6098213287e+01 +4.5092797181e+02 4.6563904273e+02 0.0000000000e+00 0.0000e+00 1.0000e+00
<mgrwt>
<rscale>  0 0.30849753E+03</rscale>
<asrwt>0</asrwt>
<pdfrwt beam="1">  1        2 0.85035945E-01 0.30849753E+03</pdfrwt>
<pdfrwt beam="2">  1       -2 0.66223808E-02 0.30849753E+03</pdfrwt>
<totfact> 0.73847672E+03</totfact>
</mgrwt>
<rwgt>
<wgt id='morphing_basis_vector_1'> +2.3629729e-04 </wgt>
<wgt id='morphing_basis_vector_2'> +1.3144099e-04 </wgt>
<wgt id='morphing_basis_vector_3'> +1.3879247e-04 </wgt>
<wgt id='morphing_basis_vector_4'> +2.3637859e-05 </wgt>
<wgt id='morphing_basis_vector_5'> +2.4621700e-06 </wgt>
</rwgt>
</event>
<event>
 4      1 +5.5534000e-05 3.01180000e+02 7.81860800e-03 1.00041400e-01
        2 -1    0    0  501    0 +0.0000000000e+00 +0.0000000000e+00 +2.5660092042e+02 2.5660092042e+02 0.0000000000e+00 0.0000e+00 1.0000e+00
       -2 -1    0    0    0  501 -0.0000000000e+00 -0.0000000000e+00 -8.8375934971e+01 8.8375934971e+01 0.0000000000e+00 0.0000e+00 -1.0000e+00
      -13  1    1    2    0    0 -3.4472231696e+01 +8.3572679695e+01 -5.3836014787e+01 1.0521902888e+02 0.0000000000e+00 0.0000e+00 -1.0000e+00
       13  1    1    2    0    0 +3.4472231696e+01 -8.3572679695e+01 +2.2206100023e+02 2.3975782651e+02 0.0000000000e+00 0.0000e+00 1.0000e+00
<mgrwt>
<rscale>  0 0.30117999E+03</rscale>
<asrwt>0</asrwt>
<pdfrwt beam="1">  1        2 0.39477064E-01 0.30117999E+03</pdfrwt>
<pdfrwt beam="2">  1       -2 0.13596298E-01 0.30117999E+03</pdfrwt>
<totfact> 0.56819169E+03</totfact>
</mgrwt>
<rwgt>
<wgt id='morphing_basis_vector_1'> +2.2436939e-04 </wgt>
<wgt id='morphing_basis_vector_2'> +1.2510850e-04 </wgt>
<wgt id='morphing_basis_vector_3'> +1.3186054e-04 </wgt>
<wgt id='morphing_basis_vector_4'> +2.2698929e-05 </wgt>
<wgt id='morphing_basis_vector_5'> +1.2736958e-06 </wgt>
</rwgt>
</event>
<event>
 4      1 +5.5534000e-05 3.25605800e+02 7.81860800e-03 9.90598900e-02
        2 -1    0    0  501    0 +0.0000000000e+00 +0.0000000000e+00 +2.5258875981e+02 2.5258875981e+02 0.0000000000e+00 0.0000e+00 -1.0000e+00
       -2 -1    0    0    0  501 -0.0000000000e+00 -0.0000000000e+00 -1.0493255946e+02 1.0493255946e+02 0.0000000000e+00 0.0000e+00 1.0000e+00
      -13  1    1    2    0    0 +2.8175167084e+01 +7.8457535681e+01 -7.9719387223e+01 1.1534559222e+02 0.0000000000e+00 0.0000e+00 1.0000e+00
       13  1    1    2    0    0 -2.8175167084e+01 -7.8457535681e+01 +2.2737558758e+02 2.4217572705e+02 0.0000000000e+00 0.0000e+00 -1.0000e+00
<mgrwt>
<rscale>  0 0.32560580E+03</rscale>
<asrwt>0</asrwt>
<pdfrwt beam="1">  1        2 0.38859809E-01 0.32560580E+03</pdfrwt>
<pdfrwt beam="2">  1       -2 0.16143471E-01 0.32560580E+03</pdfrwt>
<totfact> 0.44160273E+03</totfact>
</mgrwt>
<rwgt>
<wgt id='morphing_basis_vector_1'> +2.6572515e-04 </wgt>
<wgt id='morphing_basis_vector_2'> +1.4534093e-04 </wgt>
<wgt id='morphing_basis_vector_3'> +1.5818471e-04 </wgt>
<wgt id='morphing_basis_vector_4'> +2.6519641e-05 </wgt>
<wgt id='morphing_basis_vector_5'> +6.9174328e-06 </wgt>
</rwgt>
</event>
<event>
 4      1 +5.5534000e-05 3.59605700e+02 7.81860800e-03 9.78387200e-02
        2 -1    0    0  501    0 +0.0000000000e+00 +0.0000000000e+00 +3.4124749440e+02 3.4124749440e+02 0.0000000000e+00 0.0000e+00 1.0000e+00
       -2 -1    0    0    0  501 -0.0000000000e+00 -0.0000000000e+00 -9.4737905931e+01 9.4737905931e+01 0.0000000000e+00 0.0000e+00 -1.0000e+00
      -13  1    1    2    0    0 +1.1132285294e+02 -1.3128837751e+02 +6.0260727096e+01 1.8237535712e+02 0.0000000000e+00 0.0000e+00 -1.0000e+00
       13  1    1    2    0    0 -1.1132285294e+02 +1.3128837751e+02 +1.8624886137e+02 2.5361004321e+02 0.0000000000e+00 0.0000e+00 1.0000e+00
<mgrwt>
<rscale>  0 0.35960575E+03</rscale>
<asrwt>0</asrwt>
<pdfrwt beam="1">  1        2 0.52499614E-01 0.35960575E+03</pdfrwt>
<pdfrwt beam="2">  1       -2 0.14575063E-01 0.35960575E+03</pdfrwt>
<totfact> 0.37386105E+03</totfact>
</mgrwt>
<rwgt>
<wgt id='morphing_basis_vector_1'> +3.3865807e-04 </wgt>
<wgt id='morphing_basis_vector_2'> +1.9060336e-04 </wgt>
<wgt id='morphing_basis_vector_3'> +2.0180198e-04 </wgt>
<wgt id='morphing_basis_vector_4'> +3.8651471e-05 </wgt>
<wgt id='morphing_basis_vector_5'> +2.4377528e-05 </wgt>
</rwgt>
</event>
<event>
 4      1 +5.5534000e-05 3.50266300e+02 7.81860800e-03 9.81591300e-02
        2 -1    0    0  501    0 +0.0000000000e+00 +0.0000000000e+00 +1.1001336913e+02 1.1001336913e+02 0.0000000000e+00 0.0000e+00 -1.0000e+00
       -2 -1    0    0    0  501 -0.0000000000e+00 -0.0000000000e+00 -2.7879907919e+02 2.7879907919e+02 0.0000000000e+00 0.0000e+00 1.0000e+00
      -13  1    1    2    0    0 +1.0463906197e+01 -7.0043448541e+01 -2.6219485631e+02 2.7159109097e+02 0.0000000000e+00 0.0000e+00 1.0000e+00
       13  1    1    2    0    0 -1.0463906197e+01 +7.0043448541e+01 +9.3409146257e+01 1.1722135736e+02 0.0000000000e+00 0.0000e+00 -1.0000e+00
<mgrwt>
<rscale>  0 0.35026633E+03</rscale>
<asrwt>0</asrwt>
<pdfrwt beam="1">  1        2 0.16925134E-01 0.35026633E+03</pdfrwt>
<pdfrwt beam="2">  1       -2 0.42892166E-01 0.35026633E+03</pdfrwt>
<totfact> 0.21728858E+03</totfact>
</mgrwt>
<rwgt>
<wgt id='morphing_basis_vector_1'> +3.1472955e-04 </wgt>
<wgt id='morphing_basis_vector_2'> +1.7010644e-04 </wgt>
<wgt id='morphing_basis_vector_3'> +1.9123139e-04 </wgt>
<wgt id='morphing_basis_vector_4'> +3.3910064e-05 </wgt>
<wgt id='morphing_basis_vector_5'> +1.8194111e-05 </wgt>
</rwgt>
</event>
<event>
 4      1 +5.5534000e-05 3.19950000e+02 7.81860800e-03 9.92787400e-02
        2 -1    0    0  501    0 +0.0000000000e+00 +0.0000000000e+00 +1.1298730383e+02 1.1298730383e+02 0.0000000000e+00 0.0000e+00 -1.0000e+00
       -2 -1    0    0    0  501 -0.0000000000e+00 -0.0000000000e+00 -2.2650331738e+02 2.2650331738e+02 0.0000000000e+00 0.0000e+00 1.0000e+00
      -13  1    1    2    0    0 -2.4443879040e+01 -3.4501456706e+01 -2.2046678835e+02 2.2448487366e+02 0.0000000000e+00 0.0000e+00 1.0000e+00
       13  1    1    2    0    0 +2.4443879040e+01 +3.4501456706e+01 +1.0695077480e+02 1.1500574754e+02 0.0000000000e+00 0.0000e+00 -1.0000e+00
<mgrwt>
<rscale>  0 0.31994999E+03</rscale>
<asrwt>0</asrwt>
<pdfrwt beam="1">  1        2 0.17382662E-01 0.31994999E+03</pdfrwt>
<pdfrwt beam="2">  1       -2 0.34846664E-01 0.31994999E+03</pdfrwt>
<totfact> 0.30622624E+03</totfact>
</mgrwt>
<rwgt>
<wgt id='morphing_basis_vector_1'> +2.5549063e-04 </wgt>
<wgt id='morphing_basis_vector_2'> +1.4013990e-04 </wgt>
<wgt id='morphing_basis_vector_3'> +1.5163095e-04 </wgt>
<wgt id='morphing_basis_vector_4'> +2.5325771e-05 </wgt>
<wgt id='morphing_basis_vector_5'> +5.1586952e-06 </wgt>
</rwgt>
</event>
<event>
 4      1 +5.5534000e-05 3.08312100e+02 7.81860800e-03 9.97448600e-02
        2 -1    0    0  501    0 +0.0000000000e+00 +0.0000000000e+00 +3.7538635451e+02 3.7538635451e+02 0.0000000000e+00 0.0000e+00 -1.0000e+00
       -2 -1    0    0    0  501 -0.0000000000e+00 -0.0000000000e+00 -6.3305680577e+01 6.3305680577e+01 0.0000000000e+00 0.0000e+00 1.0000e+00
      -13  1    1    2    0    0 +2.5231231964e+01 -1.3001159266e+02 +4.3781641869e+01 1.3948642033e+02 0.0000000000e+00 0.0000e+00 1.0000e+00
       13  1    1    2    0    0 -2.5231231964e+01 +1.3001159266e+02 +2.6829903207e+02 2.9920561475e+02 0.0000000000e+00 0.0000e+00 -1.0000e+00
<mgrwt>
<rscale>  0 0.30831211E+03</rscale>
<asrwt>0</asrwt>
<pdfrwt beam="1">  1        2 0.57751746E-01 0.30831211E+03</pdfrwt>
<pdfrwt beam="2">  1       -2 0.97393357E-02 0.30831211E+03</pdfrwt>
<totfact> 0.62912295E+03</totfact>
</mgrwt>
<rwgt>
<wgt id='morphing_basis_vector_1'> +2.3644184e-04 </wgt>
<wgt id='morphing_basis_vector_2'> +1.3258336e-04 </wgt>
<wgt id='morphing_basis_vector_3'> +1.3795955e-04 </wgt>
<wgt id='morphing_basis_vector_4'> +2.3839077e-05 </wgt>
<wgt id='morphing_basis_vector_5'> +2.4462667e-06 </wgt>
</rwgt>
</event>
<event>
 4      1 +5.5534000e-05 3.00031400e+02 7.81860800e-03 1.00090000e-01
        2 -1    0    0  501    0 +0.0000000000e+00 +0.0000000000e+00 +1.3473616707e+02 1.3473616707e+02 0.0000000000e+00 0.0000e+00 -1.0000e+00
       -2 -1    0    0    0  501 -0.0000000000e+00 -0.0000000000e+00 -1.6702793169e+02 1.6702793169e+02 0.0000000000e+00 0.0000e+00 1.0000e+00
      -13  1    1    2    0    0 -3.3219308538e+01 +1.1992885717e+02 -1.0040469744e+02 1.5989858195e+02 0.0000000000e+00 0.0000e+00 1.0000e+00
       13  1    1    2    0    0 +3.3219308538e+01 -1.1992885717e+02 +6.8112932823e+01 1.4186551681e+02 0.0000000000e+00 0.0000e+00 -1.0000e+00
<mgrwt>
<rscale>  0 0.30003135E+03</rscale>
<asrwt>0</asrwt>
<pdfrwt beam="1">  1        2 0.20728641E-01 0.30003135E+03</pdfrwt>
<pdfrwt beam="2">  1       -2 0.25696605E-01 0.30003135E+03</pdfrwt>
<totfact> 0.42026230E+03</totfact>
</mgrwt>
<rwgt>
<wgt id='morphing_basis_vector_1'> +2.2304535e-04 </wgt>
<wgt id='morphing_basis_vector_2'> +1.2556134e-04 </wgt>
<wgt id='morphing_basis_vector_3'> +1.3008976e-04 </wgt>
<wgt id='morphing_basis_vector_4'> +2.2839798e-05 </wgt>
<wgt id='morphing_basis_vector_5'> +1.1421612e-06 </wgt>
</rwgt>
</event>
<event>
 4      1 +5.5534000e-05 3.14231500e+02 7.81860800e-03 9.95050800e-02
        2 -1    0    0  501    0 +0.0000000000e+00 +0.0000000000e+00 +3.1099097449e+02 3.1099097449e+02 0.0000000000e+00 0.0000e+00 1.0000e+00
       -2 -1    0    0    0  501 -0.0000000000e+00 -0.0000000000e+00 -7.9376461417e+01 7.9376461417e+01 0.0000000000e+00 0.0000e+00 -1.0000e+00
      -13  1    1    2    0    0 +2.7260203801e+01 +5.6709633891e+01 -6.3040837566e+01 8.9068785151e+01 0.0000000000e+00 0.0000e+00 -1.0000e+00
       13  1    1    2    0    0 -2.7260203801e+01 -5.6709633891e+01 +2.9465535064e+02 3.0129865076e+02 0.0000000000e+00 0.0000e+00 1.0000e+00
<mgrwt>
<rscale>  0 0.31423153E+03</rscale>
<asrwt>0</asrwt>
<pdfrwt beam="1">  1        2 0.47844765E-01 0.31423153E+03</pdfrwt>
<pdfrwt beam="2">  1       -2 0.12211763E-01 0.31423153E+03</pdfrwt>
<totfact> 0.54499157E+03</totfact>
</mgrwt>
<rwgt>
<wgt id='morphing_basis_vector_1'> +2.4557954e-04 </wgt>
<wgt id='morphing_basis_vector_2'> +1.3527750e-04 </wgt>
<wgt id='morphing_basis_vector_3'> +1.4526081e-04 </wgt>
<wgt id='morphing_basis_vector_4'> +2.4324691e-05 </wgt>
<wgt id='morphing_basis_vector_5'> +3.6690817e-06 </wgt>
</rwgt>
</event>
<event>
 4      1 +5.5534000e-05 3.08389400e+02 7.81860800e-03 9.97416900e-02
        2 -1    0    0  501    0 +0.0000000000e+00 +0.0000000000e+00 +1.0451490987e+02 1.0451490987e+02 0.0000000000e+00 0.0000e+00 1.0000e+00
       -2 -1    0    0    0  501 -0.0000000000e+00 -0.0000000000e+00 -2.2748919322e+02 2.2748919322e+02 0.0000000000e+00 0.0000e+00 -1.0000e+00
      -13  1    1    2    0    0 -6.9198529255e+01 +1.1592545583e+02 -1.4168190595e+02 1.9570618343e+02 0.0000000000e+00 0.0000e+00 -1.0000e+00
       13  1    1    2    0    0 +6.9198529255e+01 -1.1592545583e+02 +1.8707622597e+01 1.3629791966e+02 0.0000000000e+00 0.0000e+00 1.0000e+00
<mgrwt>
<rscale>  0 0.30838945E+03</rscale>
<asrwt>0</asrwt>
<pdfrwt beam="1">  1        2 0.16079217E-01 0.30838945E+03</pdfrwt>
<pdfrwt beam="2">  1       -2 0.34998337E-01 0.30838945E+03</pdfrwt>
<totfact> 0.33322771E+03</totfact>
</mgrwt>
<rwgt>
<wgt id='morphing_basis_vector_1'> +2.3669294e-04 </wgt>
<wgt id='morphing_basis_vector_2'> +1.3300377e-04 </wgt>
<wgt id='morphing_basis_vector_3'> +1.3786063e-04 </wgt>
<wgt id='morphing_basis_vector_4'> +2.3911421e-05 </wgt>
<wgt id='morphing_basis_vector_5'> +2.4661982e-06 </wgt>
</rwgt>
</event>
<event>
 4      1 +5.5534000e-05 3.06163800e+02 7.81860800e-03 9.98332900e-02
        2 -1    0    0  501    0 +0.0000000000e+00 +0.0000000000e+00 +1.8044690067e+02 1.8044690067e+02 0.0000000000e+00 0.0000e+00 -1.0000e+00
       -2 -1    0    0    0  501 -0.0000000000e+00 -0.0000000000e+00 -1.2986685909e+02 1.2986685909e+02 0.0000000000e+00 0.0000e+00 1.0000e+00
      -13  1    1    2    0    0 +4.8602130998e+01 +5.7142454912e+01 -1.0996026921e+02 1.3311156259e+02 0.0000000000e+00 0.0000e+00 1.0000e+00
       13  1    1    2    0    0 -4.8602130998e+01 -5.7142454912e+01 +1.6054031079e+02 1.7720219716e+02 0.0000000000e+00 0.0000e+00 -1.0000e+00
<mgrwt>
<rscale>  0 0.30616383E+03</rscale>
<asrwt>0</asrwt>
<pdfrwt beam="1">  1        2 0.27761062E-01 0.30616383E+03</pdfrwt>
<pdfrwt beam="2">  1       -2 0.19979517E-01 0.30616383E+03</pdfrwt>
<totfact> 0.45568181E+03</totfact>
</mgrwt>
<rwgt>
<wgt id='morphing_basis_vector_1'> +2.3222481e-04 </wgt>
<wgt id='morphing_basis_vector_2'> +1.2879273e-04 </wgt>
<wgt id='morphing_basis_vector_3'> +1.3682204e-04 </wgt>
<wgt id='morphing_basis_vector_4'> +2.3206360e-05 </wgt>
<wgt id='morphing_basis_vector_5'> +2.0294921e-06 </wgt>
</rwgt>
</event>
<event>
 4      1 +5.5534000e-05 3.40654800e+02 7.81860800e-03 9.85003500e-02
        2 -1    0    0  501    0 +0.0000000000e+00 +0.0000000000e+00 +3.5337095421e+02 3.5337095421e+02 0.0000000000e+00 0.0000e+00 1.0000e+00
       -2 -1    0    0    0  501 -0.0000000000e+00 -0.0000000000e+00 -8.2099053325e+01 8.2099053325e+01 0.0000000000e+00 0.0000e+00 -1.0000e+00
      -13  1    1    2    0    0 +5.9704531440e+01 +9.4700654660e+01 +2.9973406464e+02 3.1995836382e+02 0.0000000000e+00 0.0000e+00 1.0000e+00
       13  1    1    2    0    0 -5.9704531440e+01 -9.4700654660e+01 -2.8462163764e+01 1.1551164371e+02 0.0000000000e+00 0.0000e+00 -1.0000e+00
<mgrwt>
<rscale>  0 0.34065479E+03</rscale>
<asrwt>0</asrwt>
<pdfrwt beam="1">  1        2 0.54364761E-01 0.34065479E+03</pdfrwt>
<pdfrwt beam="2">  1       -2 0.12630624E-01 0.34065479E+03</pdfrwt>
<totfact> 0.45044837E+03</totfact>
</mgrwt>
<rwgt>
<wgt id='morphing_basis_vector_1'> +3.8090689e-04 </wgt>
<wgt id='morphing_basis_vector_2'> +4.1551113e-04 </wgt>
<wgt id='morphing_basis_vector_3'> +6.7630052e-05 </wgt>
<wgt id='morphing_basis_vector_4'> +6.1269862e-05 </wgt>
<wgt id='morphing_basis_vector_5'> +1.8208960e-05 </wgt>
</rwgt>
</event>
<event>
 4      1 +5.5534000e-05 3.34523600e+02 7.81860800e-03 9.87244500e-02
        2 -1    0    0  501    0 +0.0000000000e+00 +0.0000000000e+00 +7.3302928146e+02 7.3302928146e+02 0.0000000000e+00 0.0000e+00 -1.0000e+00
       -2 -1    0    0    0  501 -0.0000000000e+00 -0.0000000000e+00 -3.8165613541e+01 3.8165613541e+01 0.0000000000e+00 0.0000e+00 1.0000e+00
      -13  1    1    2    0    0 -6.2294812750e+01 -1.4710390560e+02 +2.3317586143e+02 2.8265028762e+02 0.0000000000e+00 0.0000e+00 1.0000e+00
       13  1    1    2    0    0 +6.2294812750e+01 +1.4710390560e+02 +4.6168780649e+02 4.8854460738e+02 0.0000000000e+00 0.0000e+00 -1.0000e+00
<mgrwt>
<rscale>  0 0.33452362E+03</rscale>
<asrwt>0</asrwt>
<pdfrwt beam="1">  1        2 0.11277372E+00 0.33452362E+03</pdfrwt>
<pdfrwt beam="2">  1       -2 0.58716334E-02 0.33452362E+03</pdfrwt>
<totfact> 0.63998313E+03</totfact>
</mgrwt>
<rwgt>
<wgt id='morphing_basis_vector_1'> +2.8514102e-04 </wgt>
<wgt id='morphing_basis_vector_2'> +1.6138200e-04 </wgt>
<wgt id='morphing_basis_vector_3'> +1.6596024e-04 </wgt>
<wgt id='morphing_basis_vector_4'> +2.9740242e-05 </wgt>
<wgt id='morphing_basis_vector_5'> +1.0437783e-05 </wgt>
</rwgt>
</event>
<event>
 4      1 +5.5534000e-05 3.17518100e+02 7.81860800e-03 9.93743600e-02
        2 -1    0    0  501    0 +0.0000000000e+00 +0.0000000000e+00 +1.8256515800e+02 1.8256515800e+02 0.0000000000e+00 0.0000e+00 -1.0000e+00
       -2 -1    0    0    0  501 -0.0000000000e+00 -0.0000000000e+00 -1.3805721714e+02 1.3805721714e+02 0.0000000000e+00 0.0000e+00 1.0000e+00
      -13  1    1    2    0    0 -3.9840966607e+01 -8.8685595045e+01 -1.0448004071e+02 1.4271831100e+02 0.0000000000e+00 0.0000e+00 1.0000e+00
       13  1    1    2    0    0 +3.9840966607e+01 +8.8685595045e+01 +1.4898798156e+02 1.7790406414e+02 0.0000000000e+00 0.0000e+00 -1.0000e+00
<mgrwt>
<rscale>  0 0.31751811E+03</rscale>
<asrwt>0</asrwt>
<pdfrwt beam="1">  1        2 0.28086947E-01 0.31751811E+03</pdfrwt>
<pdfrwt beam="2">  1       -2 0.21239572E-01 0.31751811E+03</pdfrwt>
<totfact> 0.40726176E+03</totfact>
</mgrwt>
<rwgt>
<wgt id='morphing_basis_vector_1'> +2.5133066e-04 </wgt>
<wgt id='morphing_basis_vector_2'> +1.3833783e-04 </wgt>
<wgt id='morphing_basis_vector_3'> +1.4874122e-04 </wgt>
<wgt id='morphing_basis_vector_4'> +2.4924925e-05 </wgt>
<wgt id='morphing_basis_vector_5'> +4.4958492e-06 </wgt>
</rwgt>
</event>
<event>
 4      1 +5.5534000e-05 3.26019600e+02 7.81860800e-03 9.90440600e-02
        2 -1    0    0  501    0 +0.0000000000e+00 +0.0000000000e+00 +4.5813984207e+02 4.5813984207e+02 0.0000000000e+00 0.0000e+00 -1.0000e+00
       -2 -1    0    0    0  501 -0.0000000000e+00 -0.0000000000e+00 -5.8000194629e+01 5.8000194629e+01 0.0000000000e+00 0.0000e+00 1.0000e+00
      -13  1    1    2    0    0 -1.2282577982e+02 -1.0109038423e+02 +1.4372275662e+02 2.1438672707e+02 0.0000000000e+00 0.0000e+00 1.0000e+00
       13  1    1    2    0    0 +1.2282577982e+02 +1.0109038423e+02 +2.5641689082e+02 3.0175330963e+02 0.0000000000e+00 0.0000e+00 -1.0000e+00
<mgrwt>
<rscale>  0 0.32601963E+03</rscale>
<asrwt>0</asrwt>
<pdfrwt beam="1">  1        2 0.70483050E-01 0.32601963E+03</pdfrwt>
<pdfrwt beam="2">  1       -2 0.89231072E-02 0.32601963E+03</pdfrwt>
<totfact> 0.57914231E+03</totfact>
</mgrwt>
<rwgt>
<wgt id='morphing_basis_vector_1'> +2.6981761e-04 </wgt>
<wgt id='morphing_basis_vector_2'> +1.5548512e-04 </wgt>
<wgt id='morphing_basis_vector_3'> +1.5418449e-04 </wgt>
<wgt id='morphing_basis_vector_4'> +2.8027583e-05 </wgt>
<wgt id='morphing_basis_vector_5'> +7.2359912e-06 </wgt>
</rwgt>
</event>
<event>
 4      1 +5.5534000e-05 3.52854900e+02 7.81860800e-03 9.80692600e-02
        2 -1    0    0  501    0 +0.0000000000e+00 +0.0000000000e+00 +1.4959032964e+02 1.4959032964e+02 0.0000000000e+00 0.0000e+00 -1.0000e+00
       -2 -1    0    0    0  501 -0.0000000000e+00 -0.0000000000e+00 -2.0807922977e+02 2.0807922977e+02 0.0000000000e+00 0.0000e+00 1.0000e+00
      -13  1    1    2    0    0 -4.0251927685e+01 +5.7171510588e+01 -1.9343566213e+02 2.0568460002e+02 0.0000000000e+00 0.0000e+00 1.0000e+00
       13  1    1    2    0    0 +4.0251927685e+01 -5.7171510588e+01 +1.3494676199e+02 1.5198495938e+02 0.0000000000e+00 0.0000e+00 -1.0000e+00
<mgrwt>
<rscale>  0 0.35285487E+03</rscale>
<asrwt>0</asrwt>
<pdfrwt beam="1">  1        2 0.23013897E-01 0.35285487E+03</pdfrwt>
<pdfrwt beam="2">  1       -2 0.32012189E-01 0.35285487E+03</pdfrwt>
<totfact> 0.25619484E+03</totfact>
</mgrwt>
<rwgt>
<wgt id='morphing_basis_vector_1'> +3.2033334e-04 </wgt>
<wgt id='morphing_basis_vector_2'> +1.7298697e-04 </wgt>
<wgt id='morphing_basis_vector_3'> +1.9511605e-04 </wgt>
<wgt id='morphing_basis_vector_4'> +3.4921071e-05 </wgt>
<wgt id='morphing_basis_vector_5'> +1.9749433e-05 </wgt>
</rwgt>
</event>
<event>
 4      1 +5.5534000e-05 3.59487100e+02 7.81860800e-03 9.78427300e-02
        2 -1    0    0  501    0 +0.0000000000e+00 +0.0000000000e+00 +1.4684443496e+02 1.4684443496e+02 0.0000000000e+00 0.0000e+00 1.0000e+00
       -2 -1    0    0    0  501 -0.0000000000e+00 -0.0000000000e+00 -2.2001341012e+02 2.2001341012e+02 0.0000000000e+00 0.0000e+00 -1.0000e+00
      -13  1    1    2    0    0 +8.5573784348e+01 +1.5783853317e+02 -4.5235912118e+01 1.8515442978e+02 0.0000000000e+00 0.0000e+00 -1.0000e+00
       13  1    1    2    0    0 -8.5573784348e+01 -1.5783853317e+02 -2.7933063048e+01 1.8170341530e+02 0.0000000000e+00 0.0000e+00 1.0000e+00
<mgrwt>
<rscale>  0 0.35948711E+03</rscale>
<asrwt>0</asrwt>
<pdfrwt beam="1">  1        2 0.22591452E-01 0.35948711E+03</pdfrwt>
<pdfrwt beam="2">  1       -2 0.33848217E-01 0.35948711E+03</pdfrwt>
<totfact> 0.23737007E+03</totfact>
</mgrwt>
<rwgt>
<wgt id='morphing_basis_vector_1'> +3.4364228e-04 </wgt>
<wgt id='morphing_basis_vector_2'> +2.0623573e-04 </wgt>
<wgt id='morphing_basis_vector_3'> +1.9544612e-04 </wgt>
<wgt id='morphing_basis_vector_4'> +3.9991396e-05 </wgt>
<wgt id='morphing_basis_vector_5'> +2.4633593e-05 </wgt>
</rwgt>
</event>
<event>
 4      1 +5.5534000e-05 3.12199300e+02 7.81860800e-03 9.95867700e-02
        2 -1    0    0  501    0 +0.0000000000e+00 +0.0000000000e+00 +1.2564666636e+02 1.2564666636e+02 0.0000000000e+00 0.0000e+00 -1.0000e+00
       -2 -1    0    0    0  501 -0.0000000000e+00 -0.0000000000e+00 -1.9393349050e+02 1.9393349050e+02 0.0000000000e+00 0.0000e+00 1.0000e+00
      -13  1    1    2    0    0 +5.2934422701e+01 +3.7938221015e+01 -1.7936252884e+02 1.9082001591e+02 0.0000000000e+00 0.0000e+00 1.0000e+00
       13  1    1    2    0    0 -5.2934422701e+01 -3.7938221015e+01 +1.1107570470e+02 1.2876014094e+02 0.0000000000e+00 0.0000e+00 -1.0000e+00
<mgrwt>
<rscale>  0 0.31219927E+03</rscale>
<asrwt>0</asrwt>
<pdfrwt beam="1">  1        2 0.19330257E-01 0.31219927E+03</pdfrwt>
<pdfrwt beam="2">  1       -2 0.29835921E-01 0.31219927E+03</pdfrwt>
<totfact> 0.35403650E+03</totfact>
</mgrwt>
<rwgt>
<wgt id='morphing_basis_vector_1'> +2.4214512e-04 </wgt>
<wgt id='morphing_basis_vector_2'> +1.3359745e-04 </wgt>
<wgt id='morphing_basis_vector_3'> +1.4307843e-04 </wgt>
<wgt id='morphing_basis_vector_4'> +2.4010299e-05 </wgt>
<wgt id='morphing_basis_vector_5'> +3.2061742e-06 </wgt>
</rwgt>
</event>
<event>
 4      1 +5.5534000e-05 3.17516400e+02 7.81860800e-03 9.93744200e-02
        2 -1    0    0  501    0 +0.0000000000e+00 +0.0000000000e+00 +1.8676359244e+02 1.8676359244e+02 0.0000000000e+00 0.0000e+00 1.0000e+00
       -2 -1    0    0    0  501 -0.0000000000e+00 -0.0000000000e+00 -1.3495227051e+02 1.3495227051e+02 0.0000000000e+00 0.0000e+00 -1.0000e+00
      -13  1    1    2    0    0 +1.2958446302e+02 +8.7415340909e+01 -2.2210945283e+00 1.5632820649e+02 0.0000000000e+00 0.0000e+00 -1.0000e+00
       13  1    1    2    0    0 -1.2958446302e+02 -8.7415340909e+01 +5.4032416455e+01 1.6538765646e+02 0.0000000000e+00 0.0000e+00 1.0000e+00
<mgrwt>
<rscale>  0 0.31751643E+03</rscale>
<asrwt>0</asrwt>
<pdfrwt beam="1">  1        2 0.28732860E-01 0.31751643E+03</pdfrwt>
<pdfrwt beam="2">  1       -2 0.20761888E-01 0.31751643E+03</pdfrwt>
<totfact> 0.41197405E+03</totfact>
</mgrwt>
<rwgt>
<wgt id='morphing_basis_vector_1'> +2.5497219e-04 </wgt>
<wgt id='morphing_basis_vector_2'> +1.4893170e-04 </wgt>
<wgt id='morphing_basis_vector_3'> +1.4366934e-04 </wgt>
<wgt id='morphing_basis_vector_4'> +2.6611264e-05 </wgt>
<wgt id='morphing_basis_vector_5'> +4.6736023e-06 </wgt>
</rwgt>
</event>
<event>
 4      1 +5.5534000e-05 3.51252500e+02 7.81860800e-03 9.81247900e-02
        2 -1    0    0  501    0 +0.0000000000e+00 +0.0000000000e+00 +5.0300964052e+02 5.0300964052e+02 0.0000000000e+00 0.0000e+00 -1.0000e+00
       -2 -1    0    0    0  501 -0.0000000000e+00 -0.0000000000e+00 -6.1320070465e+01 6.1320070465e+01 0.0000000000e+00 0.0000e+00 1.0000e+00
      -13  1    1    2    0    0 -1.0556606486e+00 +1.7240999968e+02 +2.7457092667e+02 3.2421523126e+02 0.0000000000e+00 0.0000e+00 1.0000e+00
       13  1    1    2    0    0 +1.0556606486e+00 -1.7240999968e+02 +1.6711864339e+02 2.4011447973e+02 0.0000000000e+00 0.0000e+00 -1.0000e+00
<mgrwt>
<rscale>  0 0.35125254E+03</rscale>
<asrwt>0</asrwt>
<pdfrwt beam="1">  1        2 0.77386096E-01 0.35125254E+03</pdfrwt>
<pdfrwt beam="2">  1       -2 0.94338573E-02 0.35125254E+03</pdfrwt>
<totfact> 0.48031488E+03</totfact>
</mgrwt>
<rwgt>
<wgt id='morphing_basis_vector_1'> +3.3562074e-04 </wgt>
<wgt id='morphing_basis_vector_2'> +2.2725508e-04 </wgt>
<wgt id='morphing_basis_vector_3'> +1.6984130e-04 </wgt>
<wgt id='morphing_basis_vector_4'> +4.0016007e-05 </wgt>
<wgt id='morphing_basis_vector_5'> +1.9955586e-05 </wgt>
</rwgt>
</event>
<event>
 4      1 +5.5534000e-05 3.43104800e+02 7.81860800e-03 9.84122300e-02
        2 -1    0    0  501    0 +0.0000000000e+00 +0.0000000000e+00 +6.1921111419e+02 6.1921111419e+02 0.0000000000e+00 0.0000e+00 -1.0000e+00
       -2 -1    0    0    0  501 -0.0000000000e+00 -0.0000000000e+00 -4.7528575587e+01 4.7528575587e+01 0.0000000000e+00 0.0000e+00 1.0000e+00
      -13  1    1    2    0    0 -1.0551087421e+02 +1.0537128245e+02 +1.2101289373e+02 1.9204106902e+02 0.0000000000e+00 0.0000e+00 1.0000e+00
       13  1    1    2    0    0 +1.0551087421e+02 -1.0537128245e+02 +4.5066964487e+02 4.7469862076e+02 0.0000000000e+00 0.0000e+00 -1.0000e+00
<mgrwt>
<rscale>  0 0.34310478E+03</rscale>
<asrwt>0</asrwt>
<pdfrwt beam="1">  1        2 0.95263243E-01 0.34310478E+03</pdfrwt>
<pdfrwt beam="2">  1       -2 0.73120890E-02 0.34310478E+03</pdfrwt>
<totfact> 0.56032312E+03</totfact>
</mgrwt>
<rwgt>
<wgt id='morphing_basis_vector_1'> +3.0077517e-04 </wgt>
<wgt id='morphing_basis_vector_2'> +1.6563625e-04 </wgt>
<wgt id='morphing_basis_vector_3'> +1.7954507e-04 </wgt>
<wgt id='morphing_basis_vector_4'> +3.1728380e-05 </wgt>
<wgt id='morphing_basis_vector_5'> +1.4340549e-05 </wgt>
</rwgt>
</event>
<event>
 4      1 +5.5534000e-05 3.44412600e+02 7.81860800e-03 9.83655100e-02
        2 -1    0    0  501    0 +0.0000000000e+00 +0.0000000000e+00 +5.4510731999e+02 5.4510731999e+02 0.0000000000e+00 0.0000e+00 -1.0000e+00
       -2 -1    0    0    0  501 -0.0000000000e+00 -0.0000000000e+00 -5.4402163988e+01 5.4402163988e+01 0.0000000000e+00 0.0000e+00 1.0000e+00
      -13  1    1    2    0    0 -4.7193480098e+01 +1.6443269628e+02 +2.1099109164e+02 2.7162948463e+02 0.0000000000e+00 0.0000e+00 1.0000e+00
       13  1    1    2    0    0 +4.7193480098e+01 -1.6443269628e+02 +2.7971406436e+02 3.2787999934e+02 0.0000000000e+00 0.0000e+00 -1.0000e+00
<mgrwt>
<rscale>  0 0.34441265E+03</rscale>
<asrwt>0</asrwt>
<pdfrwt beam="1">  1        2 0.83862661E-01 0.34441265E+03</pdfrwt>
<pdfrwt beam="2">  1       -2 0.83695641E-02 0.34441265E+03</pdfrwt>
<totfact> 0.52725287E+03</totfact>
</mgrwt>
<rwgt>
<wgt id='morphing_basis_vector_1'> +3.0825589e-04 </wgt>
<wgt id='morphing_basis_vector_2'> +1.8124026e-04 </wgt>
<wgt id='morphing_basis_vector_3'> +1.7538651e-04 </wgt>
<wgt id='morphing_basis_vector_4'> +3.3780590e-05 </wgt>
<wgt id='morphing_basis_vector_5'> +1.5307023e-05 </wgt>
</rwgt>
</event>
<event>
 4      1 +5.5534000e-05 3.25660500e+02 7.81860800e-03 9.90577900e-02
        2 -1    0    0  501    0 +0.0000000000e+00 +0.0000000000e+00 +5.4628090500e+02 5.4628090500e+02 0.0000000000e+00 0.0000e+00 1.0000e+00
       -2 -1    0    0    0  501 -0.0000000000e+00 -0.0000000000e+00 -4.8534895865e+01 4.8534895865e+01 0.0000000000e+00 0.0000e+00 -1.0000e+00
      -13  1    1    2    0    0 -4.5081032572e+01 -1.5569415069e+02 +2.2053479374e+02 2.7369428804e+02 0.0000000000e+00 0.0000e+00 -1.0000e+00
       13  1    1    2    0    0 +4.5081032572e+01 +1.5569415069e+02 +2.7721121539e+02 3.2112151282e+02 0.0000000000e+00 0.0000e+00 1.0000e+00
<mgrwt>
<rscale>  0 0.32566048E+03</rscale>
<asrwt>0</asrwt>
<pdfrwt beam="1">  1        2 0.84043212E-01 0.32566048E+03</pdfrwt>
<pdfrwt beam="2">  1       -2 0.74669075E-02 0.32566048E+03</pdfrwt>
<totfact> 0.62498044E+03</totfact>
</mgrwt>
<rwgt>
<wgt id='morphing_basis_vector_1'> +2.7123661e-04 </wgt>
<wgt id='morphing_basis_vector_2'> +1.6124304e-04 </wgt>
<wgt id='morphing_basis_vector_3'> +1.5093669e-04 </wgt>
<wgt id='morphing_basis_vector_4'> +2.8838479e-05 </wgt>
<wgt id='morphing_basis_vector_5'> +7.2249680e-06 </wgt>
</rwgt>
</event>
<event>
 4      1 +5.5534000e-05 3.37582800e+02 7.81860800e-03 9.86119900e-02
        2 -1    0    0  501    0 +0.0000000000e+00 +0.0000000000e+00 +4.9992575446e+02 4.9992575446e+02 0.0000000000e+00 0.0000e+00 -1.0000e+00
       -2 -1    0    0    0  501 -0.0000000000e+00 -0.0000000000e+00 -5.6989550782e+01 5.6989550782e+01 0.0000000000e+00 0.0000e+00 1.0000e+00
      -13  1    1    2    0    0 +3.3886148049e+01 -9.5300207882e+01 -1.4579779305e+00 1.0115595065e+02 0.0000000000e+00 0.0000e+00 1.0000e+00
       13  1    1    2    0    0 -3.3886148049e+01 +9.5300207882e+01 +4.4439418161e+02 4.5575935460e+02 0.0000000000e+00 0.0000e+00 -1.0000e+00
<mgrwt>
<rscale>  0 0.33758284E+03</rscale>
<asrwt>0</asrwt>
<pdfrwt beam="1">  1        2 0.76911652E-01 0.33758284E+03</pdfrwt>
<pdfrwt beam="2">  1       -2 0.87676235E-02 0.33758284E+03</pdfrwt>
<totfact> 0.54066884E+03</totfact>
</mgrwt>
<rwgt>
<wgt id='morphing_basis_vector_1'> +2.8864159e-04 </wgt>
<wgt id='morphing_basis_vector_2'> +1.5702567e-04 </wgt>
<wgt id='morphing_basis_vector_3'> +1.7325845e-04 </wgt>
<wgt id='morphing_basis_vector_4'> +2.9651928e-05 </wgt>
<wgt id='morphing_basis_vector_5'> +1.1629143e-05 </wgt>
</rwgt>
</event>
<event>
 4      1 +5.5534000e-05 3.49472500e+02 7.81860800e-03 9.81868700e-02
        2 -1    0    0  501    0 +0.0000000000e+00 +0.0000000000e+00 +8.6467369525e+02 8.6467369525e+02 0.0000000000e+00 0.0000e+00 1.0000e+00
       -2 -1    0    0    0  501 -0.0000000000e+00 -0.0000000000e+00 -3.5311295643e+01 3.5311295643e+01 0.0000000000e+00 0.0000e+00 -1.0000e+00
      -13  1    1    2    0    0 +1.2233605614e+02 +1.2134228605e+02 +4.8943884104e+02 5.1888384070e+02 0.0000000000e+00 0.0000e+00 -1.0000e+00
       13  1    1    2    0    0 -1.2233605614e+02 -1.2134228605e+02 +3.3992355857e+02 3.8110115020e+02 0.0000000000e+00 0.0000e+00 1.0000e+00
<mgrwt>
<rscale>  0 0.34947245E+03</rscale>
<asrwt>0</asrwt>
<pdfrwt beam="1">  1        2 0.13302671E+00 0.34947245E+03</pdfrwt>
<pdfrwt beam="2">  1       -2 0.54325077E-02 0.34947245E+03</pdfrwt>
<totfact> 0.58666253E+03</totfact>
</mgrwt>
<rwgt>
<wgt id='morphing_basis_vector_1'> +3.3004135e-04 </wgt>
<wgt id='morphing_basis_vector_2'> +2.1999201e-04 </wgt>
<wgt id='morphing_basis_vector_3'> +1.6916985e-04 </wgt>
<wgt id='morphing_basis_vector_4'> +3.8947693e-05 </wgt>
<wgt id='morphing_basis_vector_5'> +1.8792386e-05 </wgt>
</rwgt>
</event>
<event>
 4      1 +5.5534000e-05 3.03284100e+02 7.81860800e-03 9.99530500e-02
        2 -1    0    0  501    0 +0.0000000000e+00 +0.0000000000e+00 +1.0407528444e+03 1.0407528444e+03 0.0000000000e+00 0.0000e+00 1.0000e+00
       -2 -1    0    0    0  501 -0.0000000000e+00 -0.0000000000e+00 -2.2094888816e+01 2.2094888816e+01 0.0000000000e+00 0.0000e+00 -1.0000e+00
      -13  1    1    2    0    0 -5.7182841185e+00 +1.3574406090e+02 +2.7329964407e+02 3.0520787062e+02 0.0000000000e+00 0.0000e+00 -1.0000e+00
       13  1    1    2    0    0 +5.7182841185e+00 -1.3574406090e+02 +7.4535831156e+02 7.5763986263e+02 0.0000000000e+00 0.0000e+00 1.0000e+00
<mgrwt>
<rscale>  0 0.30328415E+03</rscale>
<asrwt>0</asrwt>
<pdfrwt beam="1">  1        2 0.16011578E+00 0.30328415E+03</pdfrwt>
<pdfrwt beam="2">  1       -2 0.33992145E-02 0.30328415E+03</pdfrwt>
<totfact> 0.91620380E+03</totfact>
</mgrwt>
<rwgt>
<wgt id='morphing_basis_vector_1'> +2.2862043e-04 </wgt>
<wgt id='morphing_basis_vector_2'> +1.2941348e-04 </wgt>
<wgt id='morphing_basis_vector_3'> +1.3251983e-04 </wgt>
<wgt id='morphing_basis_vector_4'> +2.3404263e-05 </wgt>
<wgt id='morphing_basis_vector_5'> +1.6073218e-06 </wgt>
</rwgt>
</event>
<event>
 4      1 +5.5534000e-05 3.30854200e+02 7.81860800e-03 9.88610800e-02
        2 -1    0    0  501    0 +0.0000000000e+00 +0.0000000000e+00 +2.3227277992e+02 2.3227277992e+02 0.0000000000e+00 0.0000e+00 -1.0000e+00
       -2 -1    0    0    0  501 -0.0000000000e+00 -0.0000000000e+00 -1.1781888878e+02 1.1781888878e+02 0.0000000000e+00 0.0000e+00 1.0000e+00
      -13  1    1    2    0    0 -1.3104626315e+01 -1.0378388538e+02 -7.8377929657e+01 1.3071314376e+02 0.0000000000e+00 0.0000e+00 1.0000e+00
       13  1    1    2    0    0 +1.3104626315e+01 +1.0378388538e+02 +1.9283182080e+02 2.1937852495e+02 0.0000000000e+00 0.0000e+00 -1.0000e+00
<mgrwt>
<rscale>  0 0.33085417E+03</rscale>
<asrwt>0</asrwt>
<pdfrwt beam="1">  1        2 0.35734274E-01 0.33085417E+03</pdfrwt>
<pdfrwt beam="2">  1       -2 0.18125983E-01 0.33085417E+03</pdfrwt>
<totfact> 0.40267755E+03</totfact>
</mgrwt>
<rwgt>
<wgt id='morphing_basis_vector_1'> +2.7561508e-04 </wgt>
<wgt id='morphing_basis_vector_2'> +1.5052197e-04 </wgt>
<wgt id='morphing_basis_vector_3'> +1.6450731e-04 </wgt>
<wgt id='morphing_basis_vector_4'> +2.7811885e-05 </wgt>
<wgt id='morphing_basis_vector_5'> +8.8155420e-06 </wgt>
</rwgt>
</event>
<event>
 4      1 +5.5534000e-05 3.45352000e+02 7.81860800e-03 9.83321000e-02
        2 -1    0    0  501    0 +0.0000000000e+00 +0.0000000000e+00 +5.8707551274e+01 5.8707551274e+01 0.0000000000e+00 0.0000e+00 1.0000e+00
       -2 -1    0    0    0  501 -0.0000000000e+00 -0.0000000000e+00 -5.0789047585e+02 5.0789047585e+02 0.0000000000e+00 0.0000e+00 -1.0000e+00
      -13  1    1    2    0    0 +5.1177056922e+01 +1.4274947855e+02 -3.6008581519e+02 3.9071511243e+02 0.0000000000e+00 0.0000e+00 -1.0000e+00
       13  1    1    2    0    0 -5.1177056922e+01 -1.4274947855e+02 -8.9097109394e+01 1.7588291470e+02 0.0000000000e+00 0.0000e+00 1.0000e+00
<mgrwt>
<rscale>  0 0.34535203E+03</rscale>
<asrwt>0</asrwt>
<pdfrwt beam="1">  1        2 0.90319312E-02 0.34535203E+03</pdfrwt>
<pdfrwt beam="2">  1       -2 0.78136994E-01 0.34535203E+03</pdfrwt>
<totfact> 0.14183311E+03</totfact>
</mgrwt>
<rwgt>
<wgt id='morphing_basis_vector_1'> +3.0554049e-04 </wgt>
<wgt id='morphing_basis_vector_2'> +1.6836534e-04 </wgt>
<wgt id='morphing_basis_vector_3'> +1.8258016e-04 </wgt>
<wgt id='morphing_basis_vector_4'> +3.2520636e-05 </wgt>
<wgt id='morphing_basis_vector_5'> +1.5518785e-05 </wgt>
</rwgt>
</event>
<event>
 4      1 +5.5534000e-05 3.36940300e+02 7.81860800e-03 9.86355100e-02
        2 -1    0    0  501    0 +0.0000000000e+00 +0.0000000000e+00 +1.1992682115e+02 1.1992682115e+02 0.0000000000e+00 0.0000e+00 -1.0000e+00
       -2 -1    0    0    0  501 -0.0000000000e+00 -0.0000000000e+00 -2.3666255413e+02 2.3666255413e+02 0.0000000000e+00 0.0000e+00 1.0000e+00
      -13  1    1    2    0    0 +1.2559968277e+02 +3.5145245894e+01 -1.7122487439e+02 2.1524039173e+02 0.0000000000e+00 0.0000e+00 1.0000e+00
       13  1    1    2    0    0 -1.2559968277e+02 -3.5145245894e+01 +5.4489141406e+01 1.4134898355e+02 0.0000000000e+00 0.0000e+00 -1.0000e+00
<mgrwt>
<rscale>  0 0.33694028E+03</rscale>
<asrwt>0</asrwt>
<pdfrwt beam="1">  1        2 0.18450280E-01 0.33694028E+03</pdfrwt>
<pdfrwt beam="2">  1       -2 0.36409623E-01 0.33694028E+03</pdfrwt>
<totfact> 0.26412313E+03</totfact>
</mgrwt>
<rwgt>
<wgt id='morphing_basis_vector_1'> +2.8772377e-04 </wgt>
<wgt id='morphing_basis_vector_2'> +1.5742684e-04 </wgt>
<wgt id='morphing_basis_vector_3'> +1.7194686e-04 </wgt>
<wgt id='morphing_basis_vector_4'> +2.9594987e-05 </wgt>
<wgt id='morphing_basis_vector_5'> +1.1361535e-05 </wgt>
</rwgt>
</event>
<event>
 4      1 +5.5534000e-05 3.28646100e+02 7.81860800e-03 9.89442300e-02
        2 -1    0    0  501    0 +0.0000000000e+00 +0.0000000000e+00 +4.3432557934e+02 4.3432557934e+02 0.0000000000e+00 0.0000e+00 1.0000e+00
       -2 -1    0    0    0  501 -0.0000000000e+00 -0.0000000000e+00 -6.2170082101e+01 6.2170082101e+01 0.0000000000e+00 0.0000e+00 -1.0000e+00
      -13  1    1    2    0    0 -1.6206071222e+02 +2.3073755785e+01 +2.0775998482e+02 2.6450006416e+02 0.0000000000e+00 0.0000e+00 -1.0000e+00
       13  1    1    2    0    0 +1.6206071222e+02 -2.3073755785e+01 +1.6439551242e+02 2.3199559727e+02 0.0000000000e+00 0.0000e+00 1.0000e+00
<mgrwt>
<rscale>  0 0.32864605E+03</rscale>
<asrwt>0</asrwt>
<pdfrwt beam="1">  1        2 0.66819318E-01 0.32864605E+03</pdfrwt>
<pdfrwt beam="2">  1       -2 0.95646283E-02 0.32864605E+03</pdfrwt>
<totfact> 0.55220981E+03</totfact>
</mgrwt>
<rwgt>
<wgt id='morphing_basis_vector_1'> +2.8226170e-04 </wgt>
<wgt id='morphing_basis_vector_2'> +1.8018080e-04 </wgt>
<wgt id='morphing_basis_vector_3'> +1.4730954e-04 </wgt>
<wgt id='morphing_basis_vector_4'> +3.1724671e-05 </wgt>
<wgt id='morphing_basis_vector_5'> +8.5808142e-06 </wgt>
</rwgt>
</event>
<event>
 4      1 +5.5534000e-05 3.17319400e+02 7.81860800e-03 9.93822100e-02
        2 -1    0    0  501    0 +0.0000000000e+00 +0.0000000000e+00 +6.1913796270e+02 6.1913796270e+02 0.0000000000e+00 0.0000e+00 1.0000e+00
       -2 -1    0    0    0  501 -0.0000000000e+00 -0.0000000000e+00 -4.0657976187e+01 4.0657976187e+01 0.0000000000e+00 0.0000e+00 -1.0000e+00
      -13  1    1    2    0    0 +1.2847508553e+02 -9.3062763294e+01 +2.8399170229e+02 3.2529649934e+02 0.0000000000e+00 0.0000e+00 -1.0000e+00
       13  1    1    2    0    0 -1.2847508553e+02 +9.3062763294e+01 +2.9448828423e+02 3.3449943955e+02 0.0000000000e+00 0.0000e+00 1.0000e+00
<mgrwt>
<rscale>  0 0.31731938E+03</rscale>
<asrwt>0</asrwt>
<pdfrwt beam="1">  1        2 0.95251987E-01 0.31731938E+03</pdfrwt>
<pdfrwt beam="2">  1       -2 0.62550737E-02 0.31731938E+03</pdfrwt>
<totfact> 0.70824951E+03</totfact>
</mgrwt>
<rwgt>
<wgt id='morphing_basis_vector_1'> +2.5774450e-04 </wgt>
<wgt id='morphing_basis_vector_2'> +1.5781461e-04 </wgt>
<wgt id='morphing_basis_vector_3'> +1.3910994e-04 </wgt>
<wgt id='morphing_basis_vector_4'> +2.8023786e-05 </wgt>
<wgt id='morphing_basis_vector_5'> +4.7731991e-06 </wgt>
</rwgt>
</event>
<event>
 4      1 +5.5534000e-05 3.02857000e+02 7.81860800e-03 9.99709300e-02
        2 -1    0    0  501    0 +0.0000000000e+00 +0.0000000000e+00 +5.8583320104e+02 5.8583320104e+02 0.0000000000e+00 0.0000e+00 -1.0000e+00
       -2 -1    0    0    0  501 -0.0000000000e+00 -0.0000000000e+00 -3.9141846053e+01 3.9141846053e+01 0.0000000000e+00 0.0000e+00 1.0000e+00
      -13  1    1    2    0    0 -8.1341021628e+01 -7.0388866588e+01 +5.3404119302e+01 1.2009560482e+02 0.0000000000e+00 0.0000e+00 1.0000e+00
       13  1    1    2    0    0 +8.1341021628e+01 +7.0388866588e+01 +4.9328723568e+02 5.0487944227e+02 0.0000000000e+00 0.0000e+00 -1.0000e+00
<mgrwt>
<rscale>  0 0.30285702E+03</rscale>
<asrwt>0</asrwt>
<pdfrwt beam="1">  1        2 0.90128179E-01 0.30285702E+03</pdfrwt>
<pdfrwt beam="2">  1       -2 0.60218229E-02 0.30285702E+03</pdfrwt>
<totfact> 0.79758464E+03</totfact>
</mgrwt>
<rwgt>
<wgt id='morphing_basis_vector_1'> +2.2712640e-04 </wgt>
<wgt id='morphing_basis_vector_2'> +1.2674129e-04 </wgt>
<wgt id='morphing_basis_vector_3'> +1.3329551e-04 </wgt>
<wgt id='morphing_basis_vector_4'> +2.2931393e-05 </wgt>
<wgt id='morphing_basis_vector_5'> +1.5125163e-06 </wgt>
</rwgt>
</event>
<event>
 4      1 +5.5534000e-05 3.13695300e+02 7.81860800e-03 9.95265700e-02
        2 -1    0    0  501    0 +0.0000000000e+00 +0.0000000000e+00 +3.0109561186e+02 3.0109561186e+02 0.0000000000e+00 0.0000e+00 -1.0000e+00
       -2 -1    0    0    0  501 -0.0000000000e+00 -0.0000000000e+00 -8.1705555430e+01 8.1705555430e+01 0.0000000000e+00 0.0000e+00 1.0000e+00
      -13  1    1    2    0    0 +3.9481770902e+01 +1.0619950108e+02 -2.2660929991e+01 1.1554506485e+02 0.0000000000e+00 0.0000e+00 1.0000e+00
       13  1    1    2    0    0 -3.9481770902e+01 -1.0619950108e+02 +2.4205098642e+02 2.6725610244e+02 0.0000000000e+00 0.0000e+00 -1.0000e+00
<mgrwt>
<rscale>  0 0.31369529E+03</rscale>
<asrwt>0</asrwt>
<pdfrwt beam="1">  1        2 0.46322401E-01 0.31369529E+03</pdfrwt>
<pdfrwt beam="2">  1       -2 0.12570086E-01 0.31369529E+03</pdfrwt>
<totfact> 0.53964388E+03</totfact>
</mgrwt>
<rwgt>
<wgt id='morphing_basis_vector_1'> +2.4490850e-04 </wgt>
<wgt id='morphing_basis_vector_2'> +1.3552566e-04 </wgt>
<wgt id='morphing_basis_vector_3'> +1.4434325e-04 </wgt>
<wgt id='morphing_basis_vector_4'> +2.4354550e-05 </wgt>
<wgt id='morphing_basis_vector_5'> +3.5547459e-06 </wgt>
</rwgt>
</event>
<event>
 4      1 +5.5534000e-05 3.41841700e+02 7.81860800e-03 9.84575600e-02
        2 -1    0    0  501    0 +0.0000000000e+00 +0.0000000000e+00 +9.7044644600e+02 9.7044644600e+02 0.0000000000e+00 0.0000e+00 1.0000e+00
       -2 -1    0    0    0  501 -0.0000000000e+00 -0.0000000000e+00 -3.0103598420e+01 3.0103598420e+01 0.0000000000e+00 0.0000e+00 -1.0000e+00
      -13  1    1    2    0    0 +4.4270799240e+01 -1.6506778554e+02 +4.6262206817e+02 4.9317994226e+02 0.0000000000e+00 0.0000e+00 -1.0000e+00
       13  1    1    2    0    0 -4.4270799240e+01 +1.6506778554e+02 +4.7772077941e+02 5.0737010216e+02 0.0000000000e+00 0.0000e+00 1.0000e+00
<mgrwt>
<rscale>  0 0.34184166E+03</rscale>
<asrwt>0</asrwt>
<pdfrwt beam="1">  1        2 0.14929943E+00 0.34184166E+03</pdfrwt>
<pdfrwt beam="2">  1       -2 0.46313236E-02 0.34184166E+03</pdfrwt>
<totfact> 0.63942416E+03</totfact>
</mgrwt>
<rwgt>
<wgt id='morphing_basis_vector_1'> +3.0547340e-04 </wgt>
<wgt id='morphing_basis_vector_2'> +1.8592804e-04 </wgt>
<wgt id='morphing_basis_vector_3'> +1.6854593e-04 </wgt>
<wgt id='morphing_basis_vector_4'> +3.3872630e-05 </wgt>
<wgt id='morphing_basis_vector_5'> +1.4143567e-05 </wgt>
</rwgt>
</event>
<event>
 4      1 +5.5534000e-05 3.15804500e+02 7.81860800e-03 9.94423000e-02
        2 -1    0    0  501    0 +0.0000000000e+00 +0.0000000000e+00 +5.0093861323e+02 5.0093861323e+02 0.0000000000e+00 0.0000e+00 1.0000e+00
       -2 -1    0    0    0  501 -0.0000000000e+00 -0.0000000000e+00 -4.9772795630e+01 4.9772795630e+01 0.0000000000e+00 0.0000e+00 -1.0000e+00
      -13  1    1    2    0    0 +7.8689575733e+01 -1.0850931943e+02 +8.0029535619e+01 1.5611229389e+02 0.0000000000e+00 0.0000e+00 -1.0000e+00
       13  1    1    2    0    0 -7.8689575733e+01 +1.0850931943e+02 +3.7113628198e+02 3.9459911497e+02 0.0000000000e+00 0.0000e+00 1.0000e+00
<mgrwt>
<rscale>  0 0.31580447E+03</rscale>
<asrwt>0</asrwt>
<pdfrwt beam="1">  1        2 0.77067476E-01 0.31580447E+03</pdfrwt>
<pdfrwt beam="2">  1       -2 0.76573535E-02 0.31580447E+03</pdfrwt>
<totfact> 0.66199898E+03</totfact>
</mgrwt>
<rwgt>
<wgt id='morphing_basis_vector_1'> +2.4899535e-04 </wgt>
<wgt id='morphing_basis_vector_2'> +1.3870264e-04 </wgt>
<wgt id='morphing_basis_vector_3'> +1.4596289e-04 </wgt>
<wgt id='morphing_basis_vector_4'> +2.4924277e-05 </wgt>
<wgt id='morphing_basis_vector_5'> +4.0857528e-06 </wgt>
</rwgt>
</event>
<event>
 4      1 +5.5534000e-05 3.32165000e+02 7.81860800e-03 9.88120600e-02
        2 -1    0    0  501    0 +0.0000000000e+00 +0.0000000000e+00 +9.6992825009e+01 9.6992825009e+01 0.0000000000e+00 0.0000e+00 -1.0000e+00
       -2 -1    0    0    0  501 -0.0000000000e+00 -0.0000000000e+00 -2.8438589951e+02 2.8438589951e+02 0.0000000000e+00 0.0000e+00 1.0000e+00
      -13  1    1    2    0    0 -1.1458446310e+01 -1.4976785346e+02 -1.7505962148e+02 2.3066767653e+02 0.0000000000e+00 0.0000e+00 1.0000e+00
       13  1    1    2    0    0 +1.1458446310e+01 +1.4976785346e+02 -1.2333453017e+01 1.5071104799e+02 0.0000000000e+00 0.0000e+00 -1.0000e+00
<mgrwt>
<rscale>  0 0.33216497E+03</rscale>
<asrwt>0</asrwt>
<pdfrwt beam="1">  1        2 0.14921973E-01 0.33216497E+03</pdfrwt>
<pdfrwt beam="2">  1       -2 0.43751676E-01 0.33216497E+03</pdfrwt>
<totfact> 0.24346619E+03</totfact>
</mgrwt>
<rwgt>
<wgt id='morphing_basis_vector_1'> +2.7939666e-04 </wgt>
<wgt id='morphing_basis_vector_2'> +1.5555694e-04 </wgt>
<wgt id='morphing_basis_vector_3'> +1.6447369e-04 </wgt>
<wgt id='morphing_basis_vector_4'> +2.8658661e-05 </wgt>
<wgt id='morphing_basis_vector_5'> +9.4016080e-06 </wgt>
</rwgt>
</event>
<event>
 4      1 +5.5534000e-05 3.05173100e+02 7.81860800e-03 9.98743400e-02
        2 -1    0    0  501    0 +0.0000000000e+00 +0.0000000000e+00 +1.2029797756e+03 1.2029797756e+03 0.0000000000e+00 0.0000e+00 -1.0000e+00
       -2 -1    0    0    0  501 -0.0000000000e+00 -0.0000000000e+00 -1.9354149339e+01 1.9354149339e+01 0.0000000000e+00 0.0000e+00 1.0000e+00
      -13  1    1    2    0    0 +1.4126479596e+02 -3.1770045254e+01 +3.9898917674e+02 4.2444957475e+02 0.0000000000e+00 0.0000e+00 1.0000e+00
       13  1    1    2    0    0 -1.4126479596e+02 +3.1770045254e+01 +7.8463644956e+02 7.9788435022e+02 0.0000000000e+00 0.0000e+00 -1.0000e+00
<mgrwt>
<rscale>  0 0.30517307E+03</rscale>
<asrwt>0</asrwt>
<pdfrwt beam="1">  1        2 0.18507375E+00 0.30517307E+03</pdfrwt>
<pdfrwt beam="2">  1       -2 0.29775624E-02 0.30517307E+03</pdfrwt>
<totfact> 0.89959508E+03</totfact>
</mgrwt>
<rwgt>
<wgt id='morphing_basis_vector_1'> +2.3249185e-04 </wgt>
<wgt id='morphing_basis_vector_2'> +1.3335581e-04 </wgt>
<wgt id='morphing_basis_vector_3'> +1.3313981e-04 </wgt>
<wgt id='morphing_basis_vector_4'> +2.4049344e-05 </wgt>
<wgt id='morphing_basis_vector_5'> +1.9387206e-06 </wgt>
</rwgt>
</event>
<event>
 4      1 +5.5534000e-05 3.01947200e+02 7.81860800e-03 1.00009100e-01
        2 -1    0    0  501    0 +0.0000000000e+00 +0.0000000000e+00 +9.2285511116e+02 9.2285511116e+02 0.0000000000e+00 0.0000e+00 -1.0000e+00
       -2 -1    0    0    0  501 -0.0000000000e+00 -0.0000000000e+00 -2.4698376925e+01 2.4698376925e+01 0.0000000000e+00 0.0000e+00 1.0000e+00
      -13  1    1    2    0    0 +1.4486952591e+02 -1.3094923184e+01 +5.7594503718e+02 5.9402974876e+02 0.0000000000e+00 0.0000e+00 1.0000e+00
       13  1    1    2    0    0 -1.4486952591e+02 +1.3094923184e+01 +3.2221169705e+02 3.5352373933e+02 0.0000000000e+00 0.0000e+00 -1.0000e+00
<mgrwt>
<rscale>  0 0.30194717E+03</rscale>
<asrwt>0</asrwt>
<pdfrwt beam="1">  1        2 0.14197768E+00 0.30194717E+03</pdfrwt>
<pdfrwt beam="2">  1       -2 0.37997510E-02 0.30194717E+03</pdfrwt>
<totfact> 0.91499136E+03</totfact>
</mgrwt>
<rwgt>
<wgt id='morphing_basis_vector_1'> +2.4207068e-04 </wgt>
<wgt id='morphing_basis_vector_2'> +1.7285617e-04 </wgt>
<wgt id='morphing_basis_vector_3'> +1.0848499e-04 </wgt>
<wgt id='morphing_basis_vector_4'> +3.1496475e-05 </wgt>
<wgt id='morphing_basis_vector_5'> +2.0002781e-06 </wgt>
</rwgt>
</event>
<event>
 4      1 +5.5534000e-05 3.00716500e+02 7.81860800e-03 1.00061000e-01
        2 -1    0    0  501    0 +0.0000000000e+00 +0.0000000000e+00 +1.3210149172e+02 1.3210149172e+02 0.0000000000e+00 0.0000e+00 1.0000e+00
       -2 -1    0    0    0  501 -0.0000000000e+00 -0.0000000000e+00 -1.7113814563e+02 1.7113814563e+02 0.0000000000e+00 0.0000e+00 -1.0000e+00
      -13  1    1    2    0    0 +7.5736567864e-01 -3.7014518703e+01 +1.2743344800e+02 1.3270241847e+02 0.0000000000e+00 0.0000e+00 1.0000e+00
       13  1    1    2    0    0 -7.5736567864e-01 +3.7014518703e+01 -1.6647010191e+02 1.7053721889e+02 0.0000000000e+00 0.0000e+00 -1.0000e+00
<mgrwt>
<rscale>  0 0.30071651E+03</rscale>
<asrwt>0</asrwt>
<pdfrwt beam="1">  1        2 0.20323306E-01 0.30071651E+03</pdfrwt>
<pdfrwt beam="2">  1       -2 0.26328945E-01 0.30071651E+03</pdfrwt>
<totfact> 0.41282297E+03</totfact>
</mgrwt>
<rwgt>
<wgt id='morphing_basis_vector_1'> +3.0327167e-04 </wgt>
<wgt id='morphing_basis_vector_2'> +3.5202158e-04 </wgt>
<wgt id='morphing_basis_vector_3'> +1.4654144e-05 </wgt>
<wgt id='morphing_basis_vector_4'> +6.5140206e-05 </wgt>
<wgt id='morphing_basis_vector_5'> +4.1322432e-06 </wgt>
</rwgt>
</event>
<event>
 4      1 +5.5534000e-05 3.47169300e+02 7.81860800e-03 9.82677700e-02
        2 -1    0    0  501    0 +0.0000000000e+00 +0.0000000000e+00 +6.2156618809e+02 6.2156618809e+02 0.0000000000e+00 0.0000e+00 1.0000e+00
       -2 -1    0    0    0  501 -0.0000000000e+00 -0.0000000000e+00 -4.8476959094e+01 4.8476959094e+01 0.0000000000e+00 0.0000e+00 -1.0000e+00
      -13  1    1    2    0    0 +1.1813502378e+02 +1.2189653066e+02 +3.5658567994e+02 3.9492783539e+02 0.0000000000e+00 0.0000e+00 -1.0000e+00
       13  1    1    2    0    0 -1.1813502378e+02 -1.2189653066e+02 +2.1650354906e+02 2.7511531179e+02 0.0000000000e+00 0.0000e+00 1.0000e+00
<mgrwt>
<rscale>  0 0.34716935E+03</rscale>
<asrwt>0</asrwt>
<pdfrwt beam="1">  1        2 0.95625561E-01 0.34716935E+03</pdfrwt>
<pdfrwt beam="2">  1       -2 0.74579942E-02 0.34716935E+03</pdfrwt>
<totfact> 0.54152717E+03</totfact>
</mgrwt>
<rwgt>
<wgt id='morphing_basis_vector_1'> +3.2753658e-04 </wgt>
<wgt id='morphing_basis_vector_2'> +2.2450465e-04 </wgt>
<wgt id='morphing_basis_vector_3'> +1.6264210e-04 </wgt>
<wgt id='morphing_basis_vector_4'> +3.9063908e-05 </wgt>
<wgt id='morphing_basis_vector_5'> +1.7628001e-05 </wgt>
</rwgt>
</event>
<event>
 4      1 +5.5534000e-05 3.44768900e+02 7.81860800e-03 9.83528300e-02
        2 -1    0    0  501    0 +0.0000000000e+00 +0.0000000000e+00 +6.0773354628e+02 6.0773354628e+02 0.0000000000e+00 0.0000e+00 1.0000e+00
       -2 -1    0    0    0  501 -0.0000000000e+00 -0.0000000000e+00 -4.8897083533e+01 4.8897083533e+01 0.0000000000e+00 0.0000e+00 -1.0000e+00
      -13  1    1    2    0    0 -8.1434921847e+01 +1.2102878411e+02 +1.0448128274e+02 1.7943230345e+02 0.0000000000e+00 0.0000e+00 -1.0000e+00
       13  1    1    2    0    0 +8.1434921847e+01 -1.2102878411e+02 +4.5435518001e+02 4.7719832636e+02 0.0000000000e+00 0.0000e+00 1.0000e+00
<mgrwt>
<rscale>  0 0.34476890E+03</rscale>
<asrwt>0</asrwt>
<pdfrwt beam="1">  1        2 0.93497464E-01 0.34476890E+03</pdfrwt>
<pdfrwt beam="2">  1       -2 0.75226286E-02 0.34476890E+03</pdfrwt>
<totfact> 0.54838760E+03</totfact>
</mgrwt>
<rwgt>
<wgt id='morphing_basis_vector_1'> +3.0401507e-04 </wgt>
<wgt id='morphing_basis_vector_2'> +1.6681296e-04 </wgt>
<wgt id='morphing_basis_vector_3'> +1.8214052e-04 </wgt>
<wgt id='morphing_basis_vector_4'> +3.2216968e-05 </wgt>
<wgt id='morphing_basis_vector_5'> +1.5190626e-05 </wgt>
</rwgt>
</event>
<event>
 4      1 +5.5534000e-05 3.31785000e+02 7.81860800e-03 9.88262400e-02
        2 -1    0    0  501    0 +0.0000000000e+00 +0.0000000000e+00 +9.7304886232e+02 9.7304886232e+02 0.0000000000e+00 0.0000e+00 1.0000e+00
       -2 -1    0    0    0  501 -0.0000000000e+00 -0.0000000000e+00 -2.8282563265e+01 2.8282563265e+01 0.0000000000e+00 0.0000e+00 -1.0000e+00
      -13  1    1    2    0    0 -1.3158195038e+02 -8.9560687689e+00 +7.7608429756e+02 7.8721080896e+02 0.0000000000e+00 0.0000e+00 1.0000e+00
       13  1    1    2    0    0 +1.3158195038e+02 +8.9560687689e+00 +1.6868200150e+02 2.1412061662e+02 0.0000000000e+00 0.0000e+00 -1.0000e+00
<mgrwt>
<rscale>  0 0.33178497E+03</rscale>
<asrwt>0</asrwt>
<pdfrwt beam="1">  1        2 0.14969980E+00 0.33178497E+03</pdfrwt>
<pdfrwt beam="2">  1       -2 0.43511643E-02 0.33178497E+03</pdfrwt>
<totfact> 0.69879616E+03</totfact>
</mgrwt>
<rwgt>
<wgt id='morphing_basis_vector_1'> +3.3659284e-04 </wgt>
<wgt id='morphing_basis_vector_2'> +3.2576955e-04 </wgt>
<wgt id='morphing_basis_vector_3'> +8.7485634e-05 </wgt>
<wgt id='morphing_basis_vector_4'> +5.1617917e-05 </wgt>
<wgt id='morphing_basis_vector_5'> +1.2512566e-05 </wgt>
</rwgt>
</event>
<event>
 4      1 +5.5534000e-05 3.27958500e+02 7.81860800e-03 9.89702700e-02
        2 -1    0    0  501    0 +0.0000000000e+00 +0.0000000000e+00 +5.5154606936e+02 5.5154606936e+02 0.0000000000e+00 0.0000e+00 -1.0000e+00
       -2 -1    0    0    0  501 -0.0000000000e+00 -0.0000000000e+00 -4.8752391109e+01 4.8752391109e+01 0.0000000000e+00 0.0000e+00 1.0000e+00
      -13  1    1    2    0    0 -6.7728820152e+01 +1.2847585401e+02 +1.1204562738e+02 1.8343244195e+02 0.0000000000e+00 0.0000e+00 1.0000e+00
       13  1    1    2    0    0 +6.7728820152e+01 -1.2847585401e+02 +3.9074805087e+02 4.1686601852e+02 0.0000000000e+00 0.0000e+00 -1.0000e+00
<mgrwt>
<rscale>  0 0.32795847E+03</rscale>
<asrwt>0</asrwt>
<pdfrwt beam="1">  1        2 0.84853237E-01 0.32795847E+03</pdfrwt>
<pdfrwt beam="2">  1       -2 0.75003682E-02 0.32795847E+03</pdfrwt>
<totfact> 0.61421897E+03</totfact>
</mgrwt>
<rwgt>
<wgt id='morphing_basis_vector_1'> +2.7117088e-04 </wgt>
<wgt id='morphing_basis_vector_2'> +1.5073138e-04 </wgt>
<wgt id='morphing_basis_vector_3'> +1.5956927e-04 </wgt>
<wgt id='morphing_basis_vector_4'> +2.7517331e-05 </wgt>
<wgt id='morphing_basis_vector_5'> +7.7937397e-06 </wgt>
</rwgt>
</event>
<event>
 4      1 +5.5534000e-05 3.05602000e+02 7.81860800e-03 9.98565500e-02
        2 -1    0    0  501    0 +0.0000000000e+00 +0.0000000000e+00 +1.4912398542e+02 1.4912398542e+02 0.0000000000e+00 0.0000e+00 1.0000e+00
       -2 -1    0    0    0  501 -0.0000000000e+00 -0.0000000000e+00 -1.5656865514e+02 1.5656865514e+02 0.0000000000e+00 0.0000e+00 -1.0000e+00
      -13  1    1    2    0    0 +1.2629409416e+01 -1.0325321452e+02 +1.0823679989e+02 1.5011972936e+02 0.0000000000e+00 0.0000e+00 1.0000e+00
       13  1    1    2    0    0 -1.2629409416e+01 +1.0325321452e+02 -1.1568146961e+02 1.5557291121e+02 0.0000000000e+00 0.0000e+00 -1.0000e+00
<mgrwt>
<rscale>  0 0.30560198E+03</rscale>
<asrwt>0</asrwt>
<pdfrwt beam="1">  1        2 0.22942152E-01 0.30560198E+03</pdfrwt>
<pdfrwt beam="2">  1       -2 0.24087485E-01 0.30560198E+03</pdfrwt>
<totfact> 0.41658231E+03</totfact>
</mgrwt>
<rwgt>
<wgt id='morphing_basis_vector_1'> +2.9612857e-04 </wgt>
<wgt id='morphing_basis_vector_2'> +3.1439570e-04 </wgt>
<wgt id='morphing_basis_vector_3'> +4.2576229e-05 </wgt>
<wgt id='morphing_basis_vector_4'> +5.6433064e-05 </wgt>
<wgt id='morphing_basis_vector_5'> +4.5688824e-06 </wgt>
</rwgt>
</event>
<event>
 4      1 +5.5534000e-05 3.35991800e+02 7.81860800e-03 9.86703200e-02
        2 -1    0    0  501    0 +0.0000000000e+00 +0.0000000000e+00 +4.0551505913e+02 4.0551505913e+02 0.0000000000e+00 0.0000e+00 1.0000e+00
       -2 -1    0    0    0  501 -0.0000000000e+00 -0.0000000000e+00 -6.9596974959e+01 6.9596974959e+01 0.0000000000e+00 0.0000e+00 -1.0000e+00
      -13  1    1    2    0    0 -6.2717319451e+01 +1.3827511648e+02 +6.6292749397e+01 1.6567497886e+02 0.0000000000e+00 0.0000e+00 -1.0000e+00
       13  1    1    2    0    0 +6.2717319451e+01 -1.3827511648e+02 +2.6962533477e+02 3.0943705523e+02 0.0000000000e+00 0.0000e+00 1.0000e+00
<mgrwt>
<rscale>  0 0.33599179E+03</rscale>
<asrwt>0</asrwt>
<pdfrwt beam="1">  1        2 0.62386931E-01 0.33599179E+03</pdfrwt>
<pdfrwt beam="2">  1       -2 0.10707227E-01 0.33599179E+03</pdfrwt>
<totfact> 0.50050584E+03</totfact>
</mgrwt>
<rwgt>
<wgt id='morphing_basis_vector_1'> +2.8684975e-04 </wgt>
<wgt id='morphing_basis_vector_2'> +1.5941528e-04 </wgt>
<wgt id='morphing_basis_vector_3'> +1.6940295e-04 </wgt>
<wgt id='morphing_basis_vector_4'> +2.9697929e-05 </wgt>
<wgt id='morphing_basis_vector_5'> +1.1001143e-05 </wgt>
</rwgt>
</event>
<event>
 4      1 +5.5534000e-05 3.38431200e+02 7.81860800e-03 9.85810300e-02
        2 -1    0    0  501    0 +0.0000000000e+00 +0.0000000000e+00 +1.9603431750e+02 1.9603431750e+02 0.0000000000e+00 0.0000e+00 -1.0000e+00
       -2 -1    0    0    0  501 -0.0000000000e+00 -0.0000000000e+00 -1.4606584907e+02 1.4606584907e+02 0.0000000000e+00 0.0000e+00 1.0000e+00
      -13  1    1    2    0    0 +6.6159117370e+01 +4.1983904827e+01 -1.2662252870e+02 1.4890581536e+02 0.0000000000e+00 0.0000e+00 1.0000e+00
       13  1    1    2    0    0 -6.6159117370e+01 -4.1983904827e+01 +1.7659099712e+02 1.9319435121e+02 0.0000000000e+00 0.0000e+00 -1.0000e+00
<mgrwt>
<rscale>  0 0.33843120E+03</rscale>
<asrwt>0</asrwt>
<pdfrwt beam="1">  1        2 0.30159126E-01 0.33843120E+03</pdfrwt>
<pdfrwt beam="2">  1       -2 0.22471669E-01 0.33843120E+03</pdfrwt>
<totfact> 0.34286485E+03</totfact>
</mgrwt>
<rwgt>
<wgt id='morphing_basis_vector_1'> +2.9024740e-04 </wgt>
<wgt id='morphing_basis_vector_2'> +1.5764212e-04 </wgt>
<wgt id='morphing_basis_vector_3'> +1.7449713e-04 </wgt>
<wgt id='morphing_basis_vector_4'> +2.9876039e-05 </wgt>
<wgt id='morphing_basis_vector_5'> +1.2011355e-05 </wgt>
</rwgt>
</event>
<event>
 4      1 +5.5534000e-05 3.09937400e+02 7.81860800e-03 9.96784600e-02
        2 -1    0    0  501    0 +0.0000000000e+00 +0.0000000000e+00 +7.5426211786e+02 7.5426211786e+02 0.0000000000e+00 0.0000e+00 -1.0000e+00
       -2 -1    0    0    0  501 -0.0000000000e+00 -0.0000000000e+00 -3.1839456437e+01 3.1839456437e+01 0.0000000000e+00 0.0000e+00 1.0000e+00
      -13  1    1    2    0    0 +2.9376988763e+01 +1.5032309195e+02 +4.2097695864e+02 4.4797504299e+02 0.0000000000e+00 0.0000e+00 1.0000e+00
       13  1    1    2    0    0 -2.9376988763e+01 -1.5032309195e+02 +3.0144570278e+02 3.3812653130e+02 0.0000000000e+00 0.0000e+00 -1.0000e+00
<mgrwt>
<rscale>  0 0.30993739E+03</rscale>
<asrwt>0</asrwt>
<pdfrwt beam="1">  1        2 0.11604031E+00 0.30993739E+03</pdfrwt>
<pdfrwt beam="2">  1       -2 0.48983785E-02 0.30993739E+03</pdfrwt>
<totfact> 0.80937096E+03</totfact>
</mgrwt>
<rwgt>
<wgt id='morphing_basis_vector_1'> +2.5020071e-04 </wgt>
<wgt id='morphing_basis_vector_2'> +1.6586576e-04 </wgt>
<wgt id='morphing_basis_vector_3'> +1.2383318e-04 </wgt>
<wgt id='morphing_basis_vector_4'> +2.9545163e-05 </wgt>
<wgt id='morphing_basis_vector_5'> +3.2496850e-06 </wgt>
</rwgt>
</event>
<event>
 4      1 +5.5534000e-05 3.08742400e+02 7.81860800e-03 9.97272400e-02
        2 -1    0    0  501    0 +0.0000000000e+00 +0.0000000000e+00 +3.6955014184e+02 3.6955014184e+02 0.0000000000e+00 0.0000e+00 1.0000e+00
       -2 -1    0    0    0  501 -0.0000000000e+00 -0.0000000000e+00 -6.4485090777e+01 6.4485090777e+01 0.0000000000e+00 0.0000e+00 -1.0000e+00
      -13  1    1    2    0    0 +8.6379116908e+01 +9.3140334311e+01 +2.9220691786e+01 1.3034693146e+02 0.0000000000e+00 0.0000e+00 -1.0000e+00
       13  1    1    2    0    0 -8.6379116908e+01 -9.3140334311e+01 +2.7584435928e+02 3.0368830116e+02 0.0000000000e+00 0.0000e+00 1.0000e+00
<mgrwt>
<rscale>  0 0.30874245E+03</rscale>
<asrwt>0</asrwt>
<pdfrwt beam="1">  1        2 0.56853867E-01 0.30874245E+03</pdfrwt>
<pdfrwt beam="2">  1       -2 0.99207834E-02 0.30874245E+03</pdfrwt>
<totfact> 0.62211497E+03</totfact>
</mgrwt>
<rwgt>
<wgt id='morphing_basis_vector_1'> +2.3694311e-04 </wgt>
<wgt id='morphing_basis_vector_2'> +1.3234048e-04 </wgt>
<wgt id='morphing_basis_vector_3'> +1.3869484e-04 </wgt>
<wgt id='morphing_basis_vector_4'> +2.3792025e-05 </wgt>
<wgt id='morphing_basis_vector_5'> +2.5193763e-06 </wgt>
</rwgt>
</event>
<event>
 4      1 +5.5534000e-05 3.20581900e+02 7.81860800e-03 9.92540400e-02
        2 -1    0    0  501    0 +0.0000000000e+00 +0.0000000000e+00 +8.4352026577e+02 8.4352026577e+02 0.0000000000e+00 0.0000e+00 -1.0000e+00
       -2 -1    0    0    0  501 -0.0000000000e+00 -0.0000000000e+00 -3.0459476407e+01 3.0459476407e+01 0.0000000000e+00 0.0000e+00 1.0000e+00
      -13  1    1    2    0    0 +1.1737641803e+02 -1.5078051864e+01 +1.1178711574e+02 1.6279106365e+02 0.0000000000e+00 0.0000e+00 1.0000e+00
       13  1    1    2    0    0 -1.1737641803e+02 +1.5078051864e+01 +7.0127367361e+02 7.1118867852e+02 0.0000000000e+00 0.0000e+00 -1.0000e+00
<mgrwt>
<rscale>  0 0.32058188E+03</rscale>
<asrwt>0</asrwt>
<pdfrwt beam="1">  1        2 0.12977233E+00 0.32058188E+03</pdfrwt>
<pdfrwt beam="2">  1       -2 0.46860739E-02 0.32058188E+03</pdfrwt>
<totfact> 0.75365146E+03</totfact>
</mgrwt>
<rwgt>
<wgt id='morphing_basis_vector_1'> +2.5691438e-04 </wgt>
<wgt id='morphing_basis_vector_2'> +1.4158154e-04 </wgt>
<wgt id='morphing_basis_vector_3'> +1.5193490e-04 </wgt>
<wgt id='morphing_basis_vector_4'> +2.5584603e-05 </wgt>
<wgt id='morphing_basis_vector_5'> +5.3561486e-06 </wgt>
</rwgt>
</event>
<event>
 4      1 +5.5534000e-05 3.30325600e+02 7.81860800e-03 9.88809200e-02
        2 -1    0    0  501    0 +0.0000000000e+00 +0.0000000000e+00 +5.2352208801e+02 5.2352208801e+02 0.0000000000e+00 0.0000e+00 -1.0000e+00
       -2 -1    0    0    0  501 -0.0000000000e+00 -0.0000000000e+00 -5.2106221493e+01 5.2106221493e+01 0.0000000000e+00 0.0000e+00 1.0000e+00
      -13  1    1    2    0    0 +5.7330894436e+01 -1.5480164987e+02 +2.4499059440e+02 2.9541627173e+02 0.0000000000e+00 0.0000e+00 1.0000e+00
       13  1    1    2    0    0 -5.7330894436e+01 +1.5480164987e+02 +2.2642527211e+02 2.8021203777e+02 0.0000000000e+00 0.0000e+00 -1.0000e+00
<mgrwt>
<rscale>  0 0.33032564E+03</rscale>
<asrwt>0</asrwt>
<pdfrwt beam="1">  1        2 0.80541856E-01 0.33032564E+03</pdfrwt>
<pdfrwt beam="2">  1       -2 0.80163422E-02 0.33032564E+03</pdfrwt>
<totfact> 0.58861050E+03</totfact>
</mgrwt>
<rwgt>
<wgt id='morphing_basis_vector_1'> +2.8357264e-04 </wgt>
<wgt id='morphing_basis_vector_2'> +1.7637122e-04 </wgt>
<wgt id='morphing_basis_vector_3'> +1.5194464e-04 </wgt>
<wgt id='morphing_basis_vector_4'> +3.1305279e-05 </wgt>
<wgt id='morphing_basis_vector_5'> +9.1118439e-06 </wgt>
</rwgt>
</event>
<event>
 4      1 +5.5534000e-05 3.12816300e+02 7.81860800e-03 9.95619000e-02
        2 -1    0    0  501    0 +0.0000000000e+00 +0.0000000000e+00 +1.5982895650e+03 1.5982895650e+03 0.0000000000e+00 0.0000e+00 1.0000e+00
       -2 -1    0    0    0  501 -0.0000000000e+00 -0.0000000000e+00 -1.5306051761e+01 1.5306051761e+01 0.0000000000e+00 0.0000e+00 -1.0000e+00
      -13  1    1    2    0    0 -1.2858206089e+02 -8.8959097294e+01 +8.1240377846e+02 8.2731310073e+02 0.0000000000e+00 0.0000e+00 -1.0000e+00
       13  1    1    2    0    0 +1.2858206089e+02 +8.8959097294e+01 +7.7057973476e+02 7.8628251602e+02 0.0000000000e+00 0.0000e+00 1.0000e+00
<mgrwt>
<rscale>  0 0.31281626E+03</rscale>
<asrwt>0</asrwt>
<pdfrwt beam="1">  1        2 0.24589057E+00 0.31281626E+03</pdfrwt>
<pdfrwt beam="2">  1       -2 0.23547785E-02 0.31281626E+03</pdfrwt>
<totfact> 0.77518794E+03</totfact>
</mgrwt>
<rwgt>
<wgt id='morphing_basis_vector_1'> +2.5088339e-04 </wgt>
<wgt id='morphing_basis_vector_2'> +1.5638517e-04 </wgt>
<wgt id='morphing_basis_vector_3'> +1.3285472e-04 </wgt>
<wgt id='morphing_basis_vector_4'> +2.7824894e-05 </wgt>
<wgt id='morphing_basis_vector_5'> +3.6963938e-06 </wgt>
</rwgt>
</event>
<event>
 4      1 +5.5534000e-05 3.37118700e+02 7.81860800e-03 9.86289700e-02
        2 -1    0    0  501    0 +0.0000000000e+00 +0.0000000000e+00 +4.0476212089e+02 4.0476212089e+02 0.0000000000e+00 0.0000e+00 -1.0000e+00
       -2 -1    0    0    0  501 -0.0000000000e+00 -0.0000000000e+00 -7.0194943803e+01 7.0194943803e+01 0.0000000000e+00 0.0000e+00 1.0000e+00
      -13  1    1    2    0    0 +5.9746144979e+01 -1.3178085772e+02 +4.5463346158e+01 1.5166645029e+02 0.0000000000e+00 0.0000e+00 1.0000e+00
       13  1    1    2    0    0 -5.9746144979e+01 +1.3178085772e+02 +2.8910383093e+02 3.2329061440e+02 0.0000000000e+00 0.0000e+00 -1.0000e+00
<mgrwt>
<rscale>  0 0.33711870E+03</rscale>
<asrwt>0</asrwt>
<pdfrwt beam="1">  1        2 0.62271094E-01 0.33711870E+03</pdfrwt>
<pdfrwt beam="2">  1       -2 0.10799222E-01 0.33711870E+03</pdfrwt>
<totfact> 0.49498134E+03</totfact>
</mgrwt>
<rwgt>
<wgt id='morphing_basis_vector_1'> +2.8856491e-04 </wgt>
<wgt id='morphing_basis_vector_2'> +1.5905073e-04 </wgt>
<wgt id='morphing_basis_vector_3'> +1.7155189e-04 </wgt>
<wgt id='morphing_basis_vector_4'> +2.9829216e-05 </wgt>
<wgt id='morphing_basis_vector_5'> +1.1469752e-05 </wgt>
</rwgt>
</event>
<event>
 4      1 +5.5534000e-05 3.09218800e+02 7.81860800e-03 9.97077600e-02
        2 -1    0    0  501    0 +0.0000000000e+00 +0.0000000000e+00 +1.3169529690e+02 1.3169529690e+02 0.0000000000e+00 0.0000e+00 -1.0000e+00
       -2 -1    0    0    0  501 -0.0000000000e+00 -0.0000000000e+00 -1.8151042839e+02 1.8151042839e+02 0.0000000000e+00 0.0000e+00 1.0000e+00
      -13  1    1    2    0    0 +5.6268357498e+01 +4.3931374458e+01 -1.6381797928e+02 1.7869645787e+02 0.0000000000e+00 0.0000e+00 1.0000e+00
       13  1    1    2    0    0 -5.6268357498e+01 -4.3931374458e+01 +1.1400284780e+02 1.3450926743e+02 0.0000000000e+00 0.0000e+00 -1.0000e+00
<mgrwt>
<rscale>  0 0.30921882E+03</rscale>
<asrwt>0</asrwt>
<pdfrwt beam="1">  1        2 0.20260815E-01 0.30921882E+03</pdfrwt>
<pdfrwt beam="2">  1       -2 0.27924681E-01 0.30921882E+03</pdfrwt>
<totfact> 0.37522512E+03</totfact>
</mgrwt>
<rwgt>
<wgt id='morphing_basis_vector_1'> +2.3719711e-04 </wgt>
<wgt id='morphing_basis_vector_2'> +1.3119827e-04 </wgt>
<wgt id='morphing_basis_vector_3'> +1.3994348e-04 </wgt>
<wgt id='morphing_basis_vector_4'> +2.3590677e-05 </wgt>
<wgt id='morphing_basis_vector_5'> +2.5887260e-06 </wgt>
</rwgt>
</event>
<event>
 4      1 +5.5534000e-05 3.02202500e+02 7.81860800e-03 9.99984000e-02
        2 -1    0    0  501    0 +0.0000000000e+00 +0.0000000000e+00 +1.7012853991e+02 1.7012853991e+02 0.0000000000e+00 0.0000e+00 -1.0000e+00
       -2 -1    0    0    0  501 -0.0000000000e+00 -0.0000000000e+00 -1.3420197588e+02 1.3420197588e+02 0.0000000000e+00 0.0000e+00 1.0000e+00
      -13  1    1    2    0    0 +3.3342877863e+01 +1.4313811361e+02 -1.7373970396e+01 1.4799365500e+02 0.0000000000e+00 0.0000e+00 1.0000e+00
       13  1    1    2    0    0 -3.3342877863e+01 -1.4313811361e+02 +5.3300534429e+01 1.5633686079e+02 0.0000000000e+00 0.0000e+00 -1.0000e+00
<mgrwt>
<rscale>  0 0.30220249E+03</rscale>
<asrwt>0</asrwt>
<pdfrwt beam="1">  1        2 0.26173622E-01 0.30220249E+03</pdfrwt>
<pdfrwt beam="2">  1       -2 0.20646458E-01 0.30220249E+03</pdfrwt>
<totfact> 0.46166219E+03</totfact>
</mgrwt>
<rwgt>
<wgt id='morphing_basis_vector_1'> +2.2850692e-04 </wgt>
<wgt id='morphing_basis_vector_2'> +1.3313593e-04 </wgt>
<wgt id='morphing_basis_vector_3'> +1.2913996e-04 </wgt>
<wgt id='morphing_basis_vector_4'> +2.4137231e-05 </wgt>
<wgt id='morphing_basis_vector_5'> +1.5100325e-06 </wgt>
</rwgt>
</event>
<event>
 4      1 +5.5534000e-05 3.28568000e+02 7.81860800e-03 9.89471800e-02
        2 -1    0    0  501    0 +0.0000000000e+00 +0.0000000000e+00 +2.9433158802e+02 2.9433158802e+02 0.0000000000e+00 0.0000e+00 -1.0000e+00
       -2 -1    0    0    0  501 -0.0000000000e+00 -0.0000000000e+00 -9.1696688416e+01 9.1696688416e+01 0.0000000000e+00 0.0000e+00 1.0000e+00
      -13  1    1    2    0    0 -2.6226227584e+01 -1.2041305991e+02 -2.6318708408e+01 1.2601505633e+02 0.0000000000e+00 0.0000e+00 1.0000e+00
       13  1    1    2    0    0 +2.6226227584e+01 +1.2041305991e+02 +2.2895360801e+02 2.6001322011e+02 0.0000000000e+00 0.0000e+00 -1.0000e+00
<mgrwt>
<rscale>  0 0.32856800E+03</rscale>
<asrwt>0</asrwt>
<pdfrwt beam="1">  1        2 0.45281782E-01 0.32856800E+03</pdfrwt>
<pdfrwt beam="2">  1       -2 0.14107183E-01 0.32856800E+03</pdfrwt>
<totfact> 0.46207482E+03</totfact>
</mgrwt>
<rwgt>
<wgt id='morphing_basis_vector_1'> +2.7152444e-04 </wgt>
<wgt id='morphing_basis_vector_2'> +1.4899928e-04 </wgt>
<wgt id='morphing_basis_vector_3'> +1.6137022e-04 </wgt>
<wgt id='morphing_basis_vector_4'> +2.7336153e-05 </wgt>
<wgt id='morphing_basis_vector_5'> +7.9710001e-06 </wgt>
</rwgt>
</event>
<event>
 4      1 +5.5534000e-05 3.22651300e+02 7.81860800e-03 9.91736000e-02
        2 -1    0    0  501    0 +0.0000000000e+00 +0.0000000000e+00 +3.5019421552e+02 3.5019421552e+02 0.0000000000e+00 0.0000e+00 -1.0000e+00
       -2 -1    0    0    0  501 -0.0000000000e+00 -0.0000000000e+00 -7.4318663905e+01 7.4318663905e+01 0.0000000000e+00 0.0000e+00 1.0000e+00
      -13  1    1    2    0    0 -9.2263723602e+01 -1.2641985655e+02 +8.6450425330e+01 1.7879667465e+02 0.0000000000e+00 0.0000e+00 1.0000e+00
       13  1    1    2    0    0 +9.2263723602e+01 +1.2641985655e+02 +1.8942512629e+02 2.4571620478e+02 0.0000000000e+00 0.0000e+00 -1.0000e+00
<mgrwt>
<rscale>  0 0.32265131E+03</rscale>
<asrwt>0</asrwt>
<pdfrwt beam="1">  1        2 0.53876032E-01 0.32265131E+03</pdfrwt>
<pdfrwt beam="2">  1       -2 0.11433641E-01 0.32265131E+03</pdfrwt>
<totfact> 0.53063301E+03</totfact>
</mgrwt>
<rwgt>
<wgt id='morphing_basis_vector_1'> +2.6328665e-04 </wgt>
<wgt id='morphing_basis_vector_2'> +1.5122860e-04 </wgt>
<wgt id='morphing_basis_vector_3'> +1.5068127e-04 </wgt>
<wgt id='morphing_basis_vector_4'> +2.7173508e-05 </wgt>
<wgt id='morphing_basis_vector_5'> +6.1160270e-06 </wgt>
</rwgt>
</event>
<event>
 4      1 +5.5534000e-05 3.25287200e+02 7.81860800e-03 9.90720900e-02
        2 -1    0    0  501    0 +0.0000000000e+00 +0.0000000000e+00 +5.7075215965e+01 5.7075215965e+01 0.0000000000e+00 0.0000e+00 1.0000e+00
       -2 -1    0    0    0  501 -0.0000000000e+00 -0.0000000000e+00 -4.6347497454e+02 4.6347497454e+02 0.0000000000e+00 0.0000e+00 -1.0000e+00
      -13  1    1    2    0    0 +5.3470261867e+01 -1.4163406668e+02 -2.9832776712e+02 3.3454257484e+02 0.0000000000e+00 0.0000e+00 -1.0000e+00
       13  1    1    2    0    0 -5.3470261867e+01 +1.4163406668e+02 -1.0807199146e+02 1.8600761566e+02 0.0000000000e+00 0.0000e+00 1.0000e+00
<mgrwt>
<rscale>  0 0.32528716E+03</rscale>
<asrwt>0</asrwt>
<pdfrwt beam="1">  1        2 0.87808025E-02 0.32528716E+03</pdfrwt>
<pdfrwt beam="2">  1       -2 0.71303842E-01 0.32528716E+03</pdfrwt>
<totfact> 0.17895579E+03</totfact>
</mgrwt>
<rwgt>
<wgt id='morphing_basis_vector_1'> +2.6688559e-04 </wgt>
<wgt id='morphing_basis_vector_2'> +1.5015838e-04 </wgt>
<wgt id='morphing_basis_vector_3'> +1.5544180e-04 </wgt>
<wgt id='morphing_basis_vector_4'> +2.7195297e-05 </wgt>
<wgt id='morphing_basis_vector_5'> +6.9036670e-06 </wgt>
</rwgt>
</event>
<event>
 4      1 +5.5534000e-05 3.33294700e+02 7.81860800e-03 9.87700000e-02
        2 -1    0    0  501    0 +0.0000000000e+00 +0.0000000000e+00 +5.4437713088e+02 5.4437713088e+02 0.0000000000e+00 0.0000e+00 -1.0000e+00
       -2 -1    0    0    0  501 -0.0000000000e+00 -0.0000000000e+00 -5.1014904536e+01 5.1014904536e+01 0.0000000000e+00 0.0000e+00 1.0000e+00
      -13  1    1    2    0    0 +1.4990831132e+02 -6.8250687980e+01 +2.0146447861e+02 2.6022796612e+02 0.0000000000e+00 0.0000e+00 1.0000e+00
       13  1    1    2    0    0 -1.4990831132e+02 +6.8250687980e+01 +2.9189774774e+02 3.3516406929e+02 0.0000000000e+00 0.0000e+00 -1.0000e+00
<mgrwt>
<rscale>  0 0.33329475E+03</rscale>
<asrwt>0</asrwt>
<pdfrwt beam="1">  1        2 0.83750324E-01 0.33329475E+03</pdfrwt>
<pdfrwt beam="2">  1       -2 0.78484472E-02 0.33329475E+03</pdfrwt>
<totfact> 0.58201607E+03</totfact>
</mgrwt>
<rwgt>
<wgt id='morphing_basis_vector_1'> +2.8481170e-04 </wgt>
<wgt id='morphing_basis_vector_2'> +1.6621931e-04 </wgt>
<wgt id='morphing_basis_vector_3'> +1.6166567e-04 </wgt>
<wgt id='morphing_basis_vector_4'> +3.0220575e-05 </wgt>
<wgt id='morphing_basis_vector_5'> +1.0043052e-05 </wgt>
</rwgt>
</event>
<event>
 4      1 +5.5534000e-05 3.36062400e+02 7.81860800e-03 9.86677200e-02
        2 -1    0    0  501    0 +0.0000000000e+00 +0.0000000000e+00 +1.2016260008e+03 1.2016260008e+03 0.0000000000e+00 0.0000e+00 1.0000e+00
       -2 -1    0    0    0  501 -0.0000000000e+00 -0.0000000000e+00 -2.3496893562e+01 2.3496893562e+01 0.0000000000e+00 0.0000e+00 -1.0000e+00
      -13  1    1    2    0    0 +1.5828214586e+02 +4.9831016666e+01 +4.9274337101e+02 5.1993499362e+02 0.0000000000e+00 0.0000e+00 -1.0000e+00
       13  1    1    2    0    0 -1.5828214586e+02 -4.9831016666e+01 +6.8538573623e+02 7.0518790074e+02 0.0000000000e+00 0.0000e+00 1.0000e+00
<mgrwt>
<rscale>  0 0.33606236E+03</rscale>
<asrwt>0</asrwt>
<pdfrwt beam="1">  1        2 0.18486549E+00 0.33606236E+03</pdfrwt>
<pdfrwt beam="2">  1       -2 0.36149076E-02 0.33606236E+03</pdfrwt>
<totfact> 0.67826934E+03</totfact>
</mgrwt>
<rwgt>
<wgt id='morphing_basis_vector_1'> +2.9020270e-04 </wgt>
<wgt id='morphing_basis_vector_2'> +1.6898441e-04 </wgt>
<wgt id='morphing_basis_vector_3'> +1.6532142e-04 </wgt>
<wgt id='morphing_basis_vector_4'> +3.0932791e-05 </wgt>
<wgt id='morphing_basis_vector_5'> +1.1218615e-05 </wgt>
</rwgt>
</event>
<event>
 4      1 +5.5534000e-05 3.07745100e+02 7.81860800e-03 9.97681300e-02
        2 -1    0    0  501    0 +0.0000000000e+00 +0.0000000000e+00 +5.2018042078e+02 5.2018042078e+02 0.0000000000e+00 0.0000e+00 1.0000e+00
       -2 -1    0    0    0  501 -0.0000000000e+00 -0.0000000000e+00 -4.5516439509e+01 4.5516439509e+01 0.0000000000e+00 0.0000e+00 -1.0000e+00
      -13  1    1    2    0    0 +7.4193810389e+01 -5.2618390828e+01 +4.6547130889e+02 4.7427519011e+02 0.0000000000e+00 0.0000e+00 1.0000e+00
       13  1    1    2    0    0 -7.4193810389e+01 +5.2618390828e+01 +9.1926723833e+00 9.1421670182e+01 0.0000000000e+00 0.0000e+00 -1.0000e+00
<mgrwt>
<rscale>  0 0.30774509E+03</rscale>
<asrwt>0</asrwt>
<pdfrwt beam="1">  1        2 0.80027753E-01 0.30774509E+03</pdfrwt>
<pdfrwt beam="2">  1       -2 0.70025295E-02 0.30774509E+03</pdfrwt>
<totfact> 0.72634658E+03</totfact>
</mgrwt>
<rwgt>
<wgt id='morphing_basis_vector_1'> +3.0884669e-04 </wgt>
<wgt id='morphing_basis_vector_2'> +3.4314836e-04 </wgt>
<wgt id='morphing_basis_vector_3'> +3.2067473e-05 </wgt>
<wgt id='morphing_basis_vector_4'> +6.0785718e-05 </wgt>
<wgt id='morphing_basis_vector_5'> +5.4411173e-06 </wgt>
</rwgt>
</event>
<event>
 4      1 +5.5534000e-05 3.25230400e+02 7.81860800e-03 9.90742600e-02
        2 -1    0    0  501    0 +0.0000000000e+00 +0.0000000000e+00 +1.5477396920e+03 1.5477396920e+03 0.0000000000e+00 0.0000e+00 1.0000e+00
       -2 -1    0    0    0  501 -0.0000000000e+00 -0.0000000000e+00 -1.7085367388e+01 1.7085367388e+01 0.0000000000e+00 0.0000e+00 -1.0000e+00
      -13  1    1    2    0    0 -7.0551167493e+01 +1.4651324592e+02 +7.6378455082e+02 7.8090360387e+02 0.0000000000e+00 0.0000e+00 -1.0000e+00
       13  1    1    2    0    0 +7.0551167493e+01 -1.4651324592e+02 +7.6686977376e+02 7.8392145548e+02 0.0000000000e+00 0.0000e+00 1.0000e+00
<mgrwt>
<rscale>  0 0.32523039E+03</rscale>
<asrwt>0</asrwt>
<pdfrwt beam="1">  1        2 0.23811369E+00 0.32523039E+03</pdfrwt>
<pdfrwt beam="2">  1       -2 0.26285193E-02 0.32523039E+03</pdfrwt>
<totfact> 0.70266269E+03</totfact>
</mgrwt>
<rwgt>
<wgt id='morphing_basis_vector_1'> +2.7269833e-04 </wgt>
<wgt id='morphing_basis_vector_2'> +1.6743267e-04 </wgt>
<wgt id='morphing_basis_vector_3'> +1.4736384e-04 </wgt>
<wgt id='morphing_basis_vector_4'> +2.9716866e-05 </wgt>
<wgt id='morphing_basis_vector_5'> +7.1995724e-06 </wgt>
</rwgt>
</event>
<event>
 4      1 +5.5534000e-05 3.19282100e+02 7.81860800e-03 9.93049000e-02
        2 -1    0    0  501    0 +0.0000000000e+00 +0.0000000000e+00 +2.4749937449e+02 2.4749937449e+02 0.0000000000e+00 0.0000e+00 -1.0000e+00
       -2 -1    0    0    0  501 -0.0000000000e+00 -0.0000000000e+00 -1.0297104758e+02 1.0297104758e+02 0.0000000000e+00 0.0000e+00 1.0000e+00
      -13  1    1    2    0    0 +1.2730006276e+01 -1.5748627301e+02 +9.7326220449e+01 1.8557039751e+02 0.0000000000e+00 0.0000e+00 1.0000e+00
       13  1    1    2    0    0 -1.2730006276e+01 +1.5748627301e+02 +4.7202106470e+01 1.6490002456e+02 0.0000000000e+00 0.0000e+00 -1.0000e+00
<mgrwt>
<rscale>  0 0.31928213E+03</rscale>
<asrwt>0</asrwt>
<pdfrwt beam="1">  1        2 0.38076827E-01 0.31928213E+03</pdfrwt>
<pdfrwt beam="2">  1       -2 0.15841700E-01 0.31928213E+03</pdfrwt>
<totfact> 0.46525751E+03</totfact>
</mgrwt>
<rwgt>
<wgt id='morphing_basis_vector_1'> +2.6668701e-04 </wgt>
<wgt id='morphing_basis_vector_2'> +1.7559469e-04 </wgt>
<wgt id='morphing_basis_vector_3'> +1.3376089e-04 </wgt>
<wgt id='morphing_basis_vector_4'> +3.0829278e-05 </wgt>
<wgt id='morphing_basis_vector_5'> +5.5882483e-06 </wgt>
</rwgt>
</event>
<event>
 4      1 +5.5534000e-05 3.24577100e+02 7.81860800e-03 9.90993300e-02
        2 -1    0    0  501    0 +0.0000000000e+00 +0.0000000000e+00 +5.2371257689e+02 5.2371257689e+02 0.0000000000e+00 0.0000e+00 1.0000e+00
       -2 -1    0    0    0  501 -0.0000000000e+00 -0.0000000000e+00 -5.0290120681e+01 5.0290120681e+01 0.0000000000e+00 0.0000e+00 -1.0000e+00
      -13  1    1    2    0    0 -1.2593105408e+02 +3.6264055437e+01 +6.7419694500e+01 1.4737410663e+02 0.0000000000e+00 0.0000e+00 -1.0000e+00
       13  1    1    2    0    0 +1.2593105408e+02 -3.6264055437e+01 +4.0600276171e+02 4.2662859094e+02 0.0000000000e+00 0.0000e+00 1.0000e+00
<mgrwt>
<rscale>  0 0.32457707E+03</rscale>
<asrwt>0</asrwt>
<pdfrwt beam="1">  1        2 0.80571162E-01 0.32457707E+03</pdfrwt>
<pdfrwt beam="2">  1       -2 0.77369420E-02 0.32457707E+03</pdfrwt>
<totfact> 0.62072443E+03</totfact>
</mgrwt>
<rwgt>
<wgt id='morphing_basis_vector_1'> +2.6435185e-04 </wgt>
<wgt id='morphing_basis_vector_2'> +1.4588937e-04 </wgt>
<wgt id='morphing_basis_vector_3'> +1.5626660e-04 </wgt>
<wgt id='morphing_basis_vector_4'> +2.6511755e-05 </wgt>
<wgt id='morphing_basis_vector_5'> +6.6033199e-06 </wgt>
</rwgt>
</event>
<event>
 4      1 +5.5534000e-05 3.46529100e+02 7.81860800e-03 9.82903900e-02
        2 -1    0    0  501    0 +0.0000000000e+00 +0.0000000000e+00 +6.4324010840e+01 6.4324010840e+01 0.0000000000e+00 0.0000e+00 1.0000e+00
       -2 -1    0    0    0  501 -0.0000000000e+00 -0.0000000000e+00 -4.6670914448e+02 4.6670914448e+02 0.0000000000e+00 0.0000e+00 -1.0000e+00
      -13  1    1    2    0    0 -4.9652243849e+01 +1.5748892272e+02 -1.2079453225e+02 2.0459576027e+02 0.0000000000e+00 0.0000e+00 -1.0000e+00
       13  1    1    2    0    0 +4.9652243849e+01 -1.5748892272e+02 -2.8159060139e+02 3.2643739505e+02 0.0000000000e+00 0.0000e+00 1.0000e+00
<mgrwt>
<rscale>  0 0.34652910E+03</rscale>
<asrwt>0</asrwt>
<pdfrwt beam="1">  1        2 0.98960017E-02 0.34652910E+03</pdfrwt>
<pdfrwt beam="2">  1       -2 0.71801407E-01 0.34652910E+03</pdfrwt>
<totfact> 0.15167124E+03</totfact>
</mgrwt>
<rwgt>
<wgt id='morphing_basis_vector_1'> +3.3332042e-04 </wgt>
<wgt id='morphing_basis_vector_2'> +2.4502124e-04 </wgt>
<wgt id='morphing_basis_vector_3'> +1.5278573e-04 </wgt>
<wgt id='morphing_basis_vector_4'> +4.1233614e-05 </wgt>
<wgt id='morphing_basis_vector_5'> +1.7711939e-05 </wgt>
</rwgt>
</event>
<event>
 4      1 +5.5534000e-05 3.30000600e+02 7.81860800e-03 9.88931400e-02
        2 -1    0    0  501    0 +0.0000000000e+00 +0.0000000000e+00 +1.0079098081e+03 1.0079098081e+03 0.0000000000e+00 0.0000e+00 -1.0000e+00
       -2 -1    0    0    0  501 -0.0000000000e+00 -0.0000000000e+00 -2.7011449934e+01 2.7011449934e+01 0.0000000000e+00 0.0000e+00 1.0000e+00
      -13  1    1    2    0    0 +1.5322176509e+01 +1.3981070302e+02 +7.6101653222e+02 7.7390436365e+02 0.0000000000e+00 0.0000e+00 1.0000e+00
       13  1    1    2    0    0 -1.5322176509e+01 -1.3981070302e+02 +2.1988182597e+02 2.6101689440e+02 0.0000000000e+00 0.0000e+00 -1.0000e+00
<mgrwt>
<rscale>  0 0.33000064E+03</rscale>
<asrwt>0</asrwt>
<pdfrwt beam="1">  1        2 0.15506302E+00 0.33000064E+03</pdfrwt>
<pdfrwt beam="2">  1       -2 0.41556085E-02 0.33000064E+03</pdfrwt>
<totfact> 0.71297269E+03</totfact>
</mgrwt>
<rwgt>
<wgt id='morphing_basis_vector_1'> +3.2055642e-04 </wgt>
<wgt id='morphing_basis_vector_2'> +2.8661512e-04 </wgt>
<wgt id='morphing_basis_vector_3'> +1.0152433e-04 </wgt>
<wgt id='morphing_basis_vector_4'> +4.6514777e-05 </wgt>
<wgt id='morphing_basis_vector_5'> +1.1074795e-05 </wgt>
</rwgt>
</event>
<event>
 4      1 +5.5534000e-05 3.13318800e+02 7.81860800e-03 9.95416900e-02
        2 -1    0    0  501    0 +0.0000000000e+00 +0.0000000000e+00 +7.9308471731e+02 7.9308471731e+02 0.0000000000e+00 0.0000e+00 -1.0000e+00
       -2 -1    0    0    0  501 -0.0000000000e+00 -0.0000000000e+00 -3.0945202455e+01 3.0945202455e+01 0.0000000000e+00 0.0000e+00 1.0000e+00
      -13  1    1    2    0    0 -1.2238611593e+02 +8.3037009852e+01 +2.4520612691e+02 2.8635563737e+02 0.0000000000e+00 0.0000e+00 1.0000e+00
       13  1    1    2    0    0 +1.2238611593e+02 -8.3037009852e+01 +5.1693338794e+02 5.3767428239e+02 0.0000000000e+00 0.0000e+00 -1.0000e+00
<mgrwt>
<rscale>  0 0.31331880E+03</rscale>
<asrwt>0</asrwt>
<pdfrwt beam="1">  1        2 0.12201302E+00 0.31331880E+03</pdfrwt>
<pdfrwt beam="2">  1       -2 0.47608010E-02 0.31331880E+03</pdfrwt>
<totfact> 0.79454122E+03</totfact>
</mgrwt>
<rwgt>
<wgt id='morphing_basis_vector_1'> +2.4592093e-04 </wgt>
<wgt id='morphing_basis_vector_2'> +1.3998982e-04 </wgt>
<wgt id='morphing_basis_vector_3'> +1.4160967e-04 </wgt>
<wgt id='morphing_basis_vector_4'> +2.5089912e-05 </wgt>
<wgt id='morphing_basis_vector_5'> +3.5442751e-06 </wgt>
</rwgt>
</event>
<event>
 4      1 +5.5534000e-05 3.35578400e+02 7.81860800e-03 9.86855300e-02
        2 -1    0    0  501    0 +0.0000000000e+00 +0.0000000000e+00 +6.7745205047e+02 6.7745205047e+02 0.0000000000e+00 0.0000e+00 -1.0000e+00
       -2 -1    0    0    0  501 -0.0000000000e+00 -0.0000000000e+00 -4.1557509129e+01 4.1557509129e+01 0.0000000000e+00 0.0000e+00 1.0000e+00
      -13  1    1    2    0    0 +9.8588242050e+01 -1.3549720575e+02 +3.3638924212e+02 3.7581492314e+02 0.0000000000e+00 0.0000e+00 1.0000e+00
       13  1    1    2    0    0 -9.8588242050e+01 +1.3549720575e+02 +2.9950529921e+02 3.4319463646e+02 0.0000000000e+00 0.0000e+00 -1.0000e+00
<mgrwt>
<rscale>  0 0.33557842E+03</rscale>
<asrwt>0</asrwt>
<pdfrwt beam="1">  1        2 0.10422338E+00 0.33557842E+03</pdfrwt>
<pdfrwt beam="2">  1       -2 0.63934635E-02 0.33557842E+03</pdfrwt>
<totfact> 0.61822153E+03</totfact>
</mgrwt>
<rwgt>
<wgt id='morphing_basis_vector_1'> +2.9474721e-04 </wgt>
<wgt id='morphing_basis_vector_2'> +1.8472606e-04 </wgt>
<wgt id='morphing_basis_vector_3'> +1.5752649e-04 </wgt>
<wgt id='morphing_basis_vector_4'> +3.2894199e-05 </wgt>
<wgt id='morphing_basis_vector_5'> +1.1325600e-05 </wgt>
</rwgt>
</event>
<event>
 4      1 +5.5534000e-05 3.20034900e+02 7.81860800e-03 9.92754200e-02
        2 -1    0    0  501    0 +0.0000000000e+00 +0.0000000000e+00 +1.1948206808e+03 1.1948206808e+03 0.0000000000e+00 0.0000e+00 -1.0000e+00
       -2 -1    0    0    0  501 -0.0000000000e+00 -0.0000000000e+00 -2.1430477072e+01 2.1430477072e+01 0.0000000000e+00 0.0000e+00 1.0000e+00
      -13  1    1    2    0    0 +5.3717646434e+01 -1.3589472583e+02 +3.3886501602e+02 3.6902907898e+02 0.0000000000e+00 0.0000e+00 1.0000e+00
       13  1    1    2    0    0 -5.3717646434e+01 +1.3589472583e+02 +8.3452518770e+02 8.4722207888e+02 0.0000000000e+00 0.0000e+00 -1.0000e+00
<mgrwt>
<rscale>  0 0.32003486E+03</rscale>
<asrwt>0</asrwt>
<pdfrwt beam="1">  1        2 0.18381851E+00 0.32003486E+03</pdfrwt>
<pdfrwt beam="2">  1       -2 0.32969974E-02 0.32003486E+03</pdfrwt>
<totfact> 0.78330241E+03</totfact>
</mgrwt>
<rwgt>
<wgt id='morphing_basis_vector_1'> +2.5705240e-04 </wgt>
<wgt id='morphing_basis_vector_2'> +1.4432838e-04 </wgt>
<wgt id='morphing_basis_vector_3'> +1.4978090e-04 </wgt>
<wgt id='morphing_basis_vector_4'> +2.5979617e-05 </wgt>
<wgt id='morphing_basis_vector_5'> +5.2540724e-06 </wgt>
</rwgt>
</event>
<event>
 4      1 +5.5534000e-05 3.01546700e+02 7.81860800e-03 1.00026000e-01
        2 -1    0    0  501    0 +0.0000000000e+00 +0.0000000000e+00 +3.3383420786e+02 3.3383420786e+02 0.0000000000e+00 0.0000e+00 1.0000e+00
       -2 -1    0    0    0  501 -0.0000000000e+00 -0.0000000000e+00 -6.8095485524e+01 6.8095485524e+01 0.0000000000e+00 0.0000e+00 -1.0000e+00
      -13  1    1    2    0    0 +1.0855394979e+02 +3.5186539503e-01 -6.5981974238e+00 1.0875486212e+02 0.0000000000e+00 0.0000e+00 -1.0000e+00
       13  1    1    2    0    0 -1.0855394979e+02 -3.5186539503e-01 +2.7233691976e+02 2.9317483127e+02 0.0000000000e+00 0.0000e+00 1.0000e+00
<mgrwt>
<rscale>  0 0.30154670E+03</rscale>
<asrwt>0</asrwt>
<pdfrwt beam="1">  1        2 0.51359108E-01 0.30154670E+03</pdfrwt>
<pdfrwt beam="2">  1       -2 0.10476229E-01 0.30154670E+03</pdfrwt>
<totfact> 0.63878359E+03</totfact>
</mgrwt>
<rwgt>
<wgt id='morphing_basis_vector_1'> +2.2508249e-04 </wgt>
<wgt id='morphing_basis_vector_2'> +1.2578618e-04 </wgt>
<wgt id='morphing_basis_vector_3'> +1.3200693e-04 </wgt>
<wgt id='morphing_basis_vector_4'> +2.2808578e-05 </wgt>
<wgt id='morphing_basis_vector_5'> +1.3283037e-06 </wgt>
</rwgt>
</event>
<event>
 4      1 +5.5534000e-05 3.33153200e+02 7.81860800e-03 9.87752600e-02
        2 -1    0    0  501    0 +0.0000000000e+00 +0.0000000000e+00 +2.8566785298e+02 2.8566785298e+02 0.0000000000e+00 0.0000e+00 1.0000e+00
       -2 -1    0    0    0  501 -0.0000000000e+00 -0.0000000000e+00 -9.7132937104e+01 9.7132937104e+01 0.0000000000e+00 0.0000e+00 -1.0000e+00
      -13  1    1    2    0    0 -1.6795106812e+01 +1.6401086384e+02 +6.6928461536e+01 1.7793554460e+02 0.0000000000e+00 0.0000e+00 -1.0000e+00
       13  1    1    2    0    0 +1.6795106812e+01 -1.6401086384e+02 +1.2160645434e+02 2.0486524548e+02 0.0000000000e+00 0.0000e+00 1.0000e+00
<mgrwt>
<rscale>  0 0.33315316E+03</rscale>
<asrwt>0</asrwt>
<pdfrwt beam="1">  1        2 0.43948900E-01 0.33315316E+03</pdfrwt>
<pdfrwt beam="2">  1       -2 0.14943529E-01 0.33315316E+03</pdfrwt>
<totfact> 0.43606951E+03</totfact>
</mgrwt>
<rwgt>
<wgt id='morphing_basis_vector_1'> +2.8470080e-04 </wgt>
<wgt id='morphing_basis_vector_2'> +1.6655793e-04 </wgt>
<wgt id='morphing_basis_vector_3'> +1.6126774e-04 </wgt>
<wgt id='morphing_basis_vector_4'> +3.0248979e-05 </wgt>
<wgt id='morphing_basis_vector_5'> +9.9941663e-06 </wgt>
</rwgt>
</event>
<event>
 4      1 +5.5534000e-05 3.10015900e+02 7.81860800e-03 9.96752600e-02
        2 -1    0    0  501    0 +0.0000000000e+00 +0.0000000000e+00 +1.4571003379e+02 1.4571003379e+02 0.0000000000e+00 0.0000e+00 -1.0000e+00
       -2 -1    0    0    0  501 -0.0000000000e+00 -0.0000000000e+00 -1.6489921404e+02 1.6489921404e+02 0.0000000000e+00 0.0000e+00 1.0000e+00
      -13  1    1    2    0    0 -5.4843085569e+01 +5.7845510364e+01 -1.4279112015e+02 1.6353339444e+02 0.0000000000e+00 0.0000e+00 1.0000e+00
       13  1    1    2    0    0 +5.4843085569e+01 -5.7845510364e+01 +1.2360193990e+02 1.4707585339e+02 0.0000000000e+00 0.0000e+00 -1.0000e+00
<mgrwt>
<rscale>  0 0.31001594E+03</rscale>
<asrwt>0</asrwt>
<pdfrwt beam="1">  1        2 0.22416928E-01 0.31001594E+03</pdfrwt>
<pdfrwt beam="2">  1       -2 0.25369110E-01 0.31001594E+03</pdfrwt>
<totfact> 0.39246877E+03</totfact>
</mgrwt>
<rwgt>
<wgt id='morphing_basis_vector_1'> +2.3853049e-04 </wgt>
<wgt id='morphing_basis_vector_2'> +1.3189107e-04 </wgt>
<wgt id='morphing_basis_vector_3'> +1.4074537e-04 </wgt>
<wgt id='morphing_basis_vector_4'> +2.3708184e-05 </wgt>
<wgt id='morphing_basis_vector_5'> +2.7476863e-06 </wgt>
</rwgt>
</event>
<event>
 4      1 +5.5534000e-05 3.23068600e+02 7.81860800e-03 9.91574600e-02
        2 -1    0    0  501    0 +0.0000000000e+00 +0.0000000000e+00 +2.5998698188e+02 2.5998698188e+02 0.0000000000e+00 0.0000e+00 -1.0000e+00
       -2 -1    0    0    0  501 -0.0000000000e+00 -0.0000000000e+00 -1.0036400180e+02 1.0036400180e+02 0.0000000000e+00 0.0000e+00 1.0000e+00
      -13  1    1    2    0    0 +1.0883705807e+02 +1.1866711551e+02 +6.5442963459e+01 1.7381073321e+02 0.0000000000e+00 0.0000e+00 1.0000e+00
       13  1    1    2    0    0 -1.0883705807e+02 -1.1866711551e+02 +9.4180016621e+01 1.8654025047e+02 0.0000000000e+00 0.0000e+00 -1.0000e+00
<mgrwt>
<rscale>  0 0.32306862E+03</rscale>
<asrwt>0</asrwt>
<pdfrwt beam="1">  1        2 0.39997997E-01 0.32306862E+03</pdfrwt>
<pdfrwt beam="2">  1       -2 0.15440616E-01 0.32306862E+03</pdfrwt>
<totfact> 0.45899163E+03</totfact>
</mgrwt>
<rwgt>
<wgt id='morphing_basis_vector_1'> +2.6672988e-04 </wgt>
<wgt id='morphing_basis_vector_2'> +1.5947112e-04 </wgt>
<wgt id='morphing_basis_vector_3'> +1.4750419e-04 </wgt>
<wgt id='morphing_basis_vector_4'> +2.8433488e-05 </wgt>
<wgt id='morphing_basis_vector_5'> +6.3867091e-06 </wgt>
</rwgt>
</event>
<event>
 4      1 +5.5534000e-05 3.16309300e+02 7.81860800e-03 9.94222400e-02
        2 -1    0    0  501    0 +0.0000000000e+00 +0.0000000000e+00 +1.4300236205e+02 1.4300236205e+02 0.0000000000e+00 0.0000e+00 -1.0000e+00
       -2 -1    0    0    0  501 -0.0000000000e+00 -0.0000000000e+00 -1.7491242068e+02 1.7491242068e+02 0.0000000000e+00 0.0000e+00 1.0000e+00
      -13  1    1    2    0    0 -1.0911170271e+02 -1.1089279744e+02 +1.2655456447e+01 1.5608567125e+02 0.0000000000e+00 0.0000e+00 1.0000e+00
       13  1    1    2    0    0 +1.0911170271e+02 +1.1089279744e+02 -4.4565515077e+01 1.6182911149e+02 0.0000000000e+00 0.0000e+00 -1.0000e+00
<mgrwt>
<rscale>  0 0.31630927E+03</rscale>
<asrwt>0</asrwt>
<pdfrwt beam="1">  1        2 0.22000363E-01 0.31630927E+03</pdfrwt>
<pdfrwt beam="2">  1       -2 0.26909603E-01 0.31630927E+03</pdfrwt>
<totfact> 0.36327215E+03</totfact>
</mgrwt>
<rwgt>
<wgt id='morphing_basis_vector_1'> +2.6288498e-04 </wgt>
<wgt id='morphing_basis_vector_2'> +1.7693837e-04 </wgt>
<wgt id='morphing_basis_vector_3'> +1.2833341e-04 </wgt>
<wgt id='morphing_basis_vector_4'> +3.1103180e-05 </wgt>
<wgt id='morphing_basis_vector_5'> +4.8399203e-06 </wgt>
</rwgt>
</event>
<event>
 4      1 +5.5534000e-05 3.53290800e+02 7.81860800e-03 9.80542100e-02
        2 -1    0    0  501    0 +0.0000000000e+00 +0.0000000000e+00 +6.8866960306e+02 6.8866960306e+02 0.0000000000e+00 0.0000e+00 -1.0000e+00
       -2 -1    0    0    0  501 -0.0000000000e+00 -0.0000000000e+00 -4.5309956017e+01 4.5309956017e+01 0.0000000000e+00 0.0000e+00 1.0000e+00
      -13  1    1    2    0    0 +4.4121415576e+00 +1.5025746538e+02 +1.2893933085e+02 1.9804576222e+02 0.0000000000e+00 0.0000e+00 1.0000e+00
       13  1    1    2    0    0 -4.4121415576e+00 -1.5025746538e+02 +5.1442031619e+02 5.3593379685e+02 0.0000000000e+00 0.0000e+00 -1.0000e+00
<mgrwt>
<rscale>  0 0.35329076E+03</rscale>
<asrwt>0</asrwt>
<pdfrwt beam="1">  1        2 0.10594916E+00 0.35329076E+03</pdfrwt>
<pdfrwt beam="2">  1       -2 0.69707630E-02 0.35329076E+03</pdfrwt>
<totfact> 0.53261572E+03</totfact>
</mgrwt>
<rwgt>
<wgt id='morphing_basis_vector_1'> +3.2228470e-04 </wgt>
<wgt id='morphing_basis_vector_2'> +1.7646477e-04 </wgt>
<wgt id='morphing_basis_vector_3'> +1.9457281e-04 </wgt>
<wgt id='morphing_basis_vector_4'> +3.5390837e-05 </wgt>
<wgt id='morphing_basis_vector_5'> +2.0081903e-05 </wgt>
</rwgt>
</event>
<event>
 4      1 +5.5534000e-05 3.54371700e+02 7.81860800e-03 9.80169800e-02
        2 -1    0    0  501    0 +0.0000000000e+00 +0.0000000000e+00 +2.0656184705e+02 2.0656184705e+02 0.0000000000e+00 0.0000e+00 1.0000e+00
       -2 -1    0    0    0  501 -0.0000000000e+00 -0.0000000000e+00 -1.5198755185e+02 1.5198755185e+02 0.0000000000e+00 0.0000e+00 -1.0000e+00
      -13  1    1    2    0    0 -3.3220868849e+01 +6.2952872675e+01 -1.3688520484e+02 1.5428625865e+02 0.0000000000e+00 0.0000e+00 -1.0000e+00
       13  1    1    2    0    0 +3.3220868849e+01 -6.2952872675e+01 +1.9145950004e+02 2.0426314024e+02 0.0000000000e+00 0.0000e+00 1.0000e+00
<mgrwt>
<rscale>  0 0.35437172E+03</rscale>
<asrwt>0</asrwt>
<pdfrwt beam="1">  1        2 0.31778746E-01 0.35437172E+03</pdfrwt>
<pdfrwt beam="2">  1       -2 0.23382700E-01 0.35437172E+03</pdfrwt>
<totfact> 0.30285248E+03</totfact>
</mgrwt>
<rwgt>
<wgt id='morphing_basis_vector_1'> +3.2366160e-04 </wgt>
<wgt id='morphing_basis_vector_2'> +1.7470718e-04 </wgt>
<wgt id='morphing_basis_vector_3'> +1.9742872e-04 </wgt>
<wgt id='morphing_basis_vector_4'> +3.5536348e-05 </wgt>
<wgt id='morphing_basis_vector_5'> +2.0696149e-05 </wgt>
</rwgt>
</event>
<event>
 4      1 +5.5534000e-05 3.57422000e+02 7.81860800e-03 9.79126900e-02
        2 -1    0    0  501    0 +0.0000000000e+00 +0.0000000000e+00 +5.3659708480e+01 5.3659708480e+01 0.0000000000e+00 0.0000e+00 -1.0000e+00
       -2 -1    0    0    0  501 -0.0000000000e+00 -0.0000000000e+00 -5.9518819055e+02 5.9518819055e+02 0.0000000000e+00 0.0000e+00 1.0000e+00
      -13  1    1    2    0    0 -1.5888091153e+02 +4.6249624589e+00 -4.1905876225e+02 4.4819056275e+02 0.0000000000e+00 0.0000e+00 1.0000e+00
       13  1    1    2    0    0 +1.5888091153e+02 -4.6249624589e+00 -1.2246971983e+02 2.0065733628e+02 0.0000000000e+00 0.0000e+00 -1.0000e+00
<mgrwt>
<rscale>  0 0.35742202E+03</rscale>
<asrwt>0</asrwt>
<pdfrwt beam="1">  1        2 0.82553397E-02 0.35742202E+03</pdfrwt>
<pdfrwt beam="2">  1       -2 0.91567415E-01 0.35742202E+03</pdfrwt>
<totfact> 0.11124002E+03</totfact>
</mgrwt>
<rwgt>
<wgt id='morphing_basis_vector_1'> +3.3192675e-04 </wgt>
<wgt id='morphing_basis_vector_2'> +1.8265166e-04 </wgt>
<wgt id='morphing_basis_vector_3'> +2.0041896e-04 </wgt>
<wgt id='morphing_basis_vector_4'> +3.7230003e-05 </wgt>
<wgt id='morphing_basis_vector_5'> +2.2774555e-05 </wgt>
</rwgt>
</event>
<event>
 4      1 +5.5534000e-05 3.35186300e+02 7.81860800e-03 9.86999800e-02
        2 -1    0    0  501    0 +0.0000000000e+00 +0.0000000000e+00 +7.4768971741e+02 7.4768971741e+02 0.0000000000e+00 0.0000e+00 -1.0000e+00
       -2 -1    0    0    0  501 -0.0000000000e+00 -0.0000000000e+00 -3.7565664976e+01 3.7565664976e+01 0.0000000000e+00 0.0000e+00 1.0000e+00
      -13  1    1    2    0    0 -1.3659244978e+02 +5.2643371909e-01 +1.2756625959e+02 1.8689816761e+02 0.0000000000e+00 0.0000e+00 1.0000e+00
       13  1    1    2    0    0 +1.3659244978e+02 -5.2643371909e-01 +5.8255779284e+02 5.9835721477e+02 0.0000000000e+00 0.0000e+00 -1.0000e+00
<mgrwt>
<rscale>  0 0.33518629E+03</rscale>
<asrwt>0</asrwt>
<pdfrwt beam="1">  1        2 0.11502918E+00 0.33518629E+03</pdfrwt>
<pdfrwt beam="2">  1       -2 0.57793336E-02 0.33518629E+03</pdfrwt>
<totfact> 0.63998219E+03</totfact>
</mgrwt>
<rwgt>
<wgt id='morphing_basis_vector_1'> +2.8445900e-04 </wgt>
<wgt id='morphing_basis_vector_2'> +1.5621164e-04 </wgt>
<wgt id='morphing_basis_vector_3'> +1.6940296e-04 </wgt>
<wgt id='morphing_basis_vector_4'> +2.9163430e-05 </wgt>
<wgt id='morphing_basis_vector_5'> +1.0605884e-05 </wgt>
</rwgt>
</event>
<event>
 4      1 +5.5534000e-05 3.03930100e+02 7.81860800e-03 9.99260600e-02
        2 -1    0    0  501    0 +0.0000000000e+00 +0.0000000000e+00 +1.4506987489e+02 1.4506987489e+02 0.0000000000e+00 0.0000e+00 -1.0000e+00
       -2 -1    0    0    0  501 -0.0000000000e+00 -0.0000000000e+00 -1.5918794420e+02 1.5918794420e+02 0.0000000000e+00 0.0000e+00 1.0000e+00
      -13  1    1    2    0    0 -1.1540832244e+01 -4.4833391315e+01 -1.5195678057e+02 1.5885240617e+02 0.0000000000e+00 0.0000e+00 1.0000e+00
       13  1    1    2    0    0 +1.1540832244e+01 +4.4833391315e+01 +1.3783871126e+02 1.4540541292e+02 0.0000000000e+00 0.0000e+00 -1.0000e+00
<mgrwt>
<rscale>  0 0.30393009E+03</rscale>
<asrwt>0</asrwt>
<pdfrwt beam="1">  1        2 0.22318442E-01 0.30393009E+03</pdfrwt>
<pdfrwt beam="2">  1       -2 0.24490453E-01 0.30393009E+03</pdfrwt>
<totfact> 0.41825261E+03</totfact>
</mgrwt>
<rwgt>
<wgt id='morphing_basis_vector_1'> +2.2861826e-04 </wgt>
<wgt id='morphing_basis_vector_2'> +1.2697090e-04 </wgt>
<wgt id='morphing_basis_vector_3'> +1.3464671e-04 </wgt>
<wgt id='morphing_basis_vector_4'> +2.2936352e-05 </wgt>
<wgt id='morphing_basis_vector_5'> +1.6653142e-06 </wgt>
</rwgt>
</event>
<event>
 4      1 +5.5534000e-05 3.06722600e+02 7.81860800e-03 9.98102200e-02
        2 -1    0    0  501    0 +0.0000000000e+00 +0.0000000000e+00 +2.2162181059e+02 2.2162181059e+02 0.0000000000e+00 0.0000e+00 -1.0000e+00
       -2 -1    0    0    0  501 -0.0000000000e+00 -0.0000000000e+00 -1.0612535698e+02 1.0612535698e+02 0.0000000000e+00 0.0000e+00 1.0000e+00
      -13  1    1    2    0    0 -3.7993868015e+01 +9.1527579001e+00 -1.0071529455e+02 1.0803183577e+02 0.0000000000e+00 0.0000e+00 1.0000e+00
       13  1    1    2    0    0 +3.7993868015e+01 -9.1527579001e+00 +2.1621174816e+02 2.1971533180e+02 0.0000000000e+00 0.0000e+00 -1.0000e+00
<mgrwt>
<rscale>  0 0.30672264E+03</rscale>
<asrwt>0</asrwt>
<pdfrwt beam="1">  1        2 0.34095663E-01 0.30672264E+03</pdfrwt>
<pdfrwt beam="2">  1       -2 0.16326978E-01 0.30672264E+03</pdfrwt>
<totfact> 0.50082641E+03</totfact>
</mgrwt>
<rwgt>
<wgt id='morphing_basis_vector_1'> +2.3309619e-04 </wgt>
<wgt id='morphing_basis_vector_2'> +1.2914055e-04 </wgt>
<wgt id='morphing_basis_vector_3'> +1.3743032e-04 </wgt>
<wgt id='morphing_basis_vector_4'> +2.3257635e-05 </wgt>
<wgt id='morphing_basis_vector_5'> +2.1250291e-06 </wgt>
</rwgt>
</event>
<event>
 4      1 +5.5534000e-05 3.03305400e+02 7.81860800e-03 9.99521600e-02
        2 -1    0    0  501    0 +0.0000000000e+00 +0.0000000000e+00 +3.7046991056e+02 3.7046991056e+02 0.0000000000e+00 0.0000e+00 -1.0000e+00
       -2 -1    0    0    0  501 -0.0000000000e+00 -0.0000000000e+00 -6.2079383171e+01 6.2079383171e+01 0.0000000000e+00 0.0000e+00 1.0000e+00
      -13  1    1    2    0    0 +5.8886964852e+01 -5.9538326327e+01 -2.6117353843e+01 8.7718886809e+01 0.0000000000e+00 0.0000e+00 1.0000e+00
       13  1    1    2    0    0 -5.8886964852e+01 +5.9538326327e+01 +3.3450788123e+02 3.4483040692e+02 0.0000000000e+00 0.0000e+00 -1.0000e+00
<mgrwt>
<rscale>  0 0.30330541E+03</rscale>
<asrwt>0</asrwt>
<pdfrwt beam="1">  1        2 0.56995369E-01 0.30330541E+03</pdfrwt>
<pdfrwt beam="2">  1       -2 0.95506746E-02 0.30330541E+03</pdfrwt>
<totfact> 0.65744336E+03</totfact>
</mgrwt>
<rwgt>
<wgt id='morphing_basis_vector_1'> +2.2768128e-04 </wgt>
<wgt id='morphing_basis_vector_2'> +1.2664470e-04 </wgt>
<wgt id='morphing_basis_vector_3'> +1.3395658e-04 </wgt>
<wgt id='morphing_basis_vector_4'> +2.2897520e-05 </wgt>
<wgt id='morphing_basis_vector_5'> +1.5727442e-06 </wgt>
</rwgt>
</event>
<event>
 4      1 +5.5534000e-05 3.11952500e+02 7.81860800e-03 9.95967300e-02
        2 -1    0    0  501    0 +0.0000000000e+00 +0.0000000000e+00 +7.8155816822e+02 7.8155816822e+02 0.0000000000e+00 0.0000e+00 -1.0000e+00
       -2 -1    0    0    0  501 -0.0000000000e+00 -0.0000000000e+00 -3.1128314657e+01 3.1128314657e+01 0.0000000000e+00 0.0000e+00 1.0000e+00
      -13  1    1    2    0    0 -1.4866485211e+02 +1.1388336929e+01 +2.5589809047e+02 2.9616678608e+02 0.0000000000e+00 0.0000e+00 1.0000e+00
       13  1    1    2    0    0 +1.4866485211e+02 -1.1388336929e+01 +4.9453176309e+02 5.1651969680e+02 0.0000000000e+00 0.0000e+00 -1.0000e+00
<mgrwt>
<rscale>  0 0.31195249E+03</rscale>
<asrwt>0</asrwt>
<pdfrwt beam="1">  1        2 0.12023970E+00 0.31195249E+03</pdfrwt>
<pdfrwt beam="2">  1       -2 0.47889721E-02 0.31195249E+03</pdfrwt>
<totfact> 0.80178263E+03</totfact>
</mgrwt>
<rwgt>
<wgt id='morphing_basis_vector_1'> +2.4391616e-04 </wgt>
<wgt id='morphing_basis_vector_2'> +1.3971146e-04 </wgt>
<wgt id='morphing_basis_vector_3'> +1.3971987e-04 </wgt>
<wgt id='morphing_basis_vector_4'> +2.5037622e-05 </wgt>
<wgt id='morphing_basis_vector_5'> +3.2512457e-06 </wgt>
</rwgt>
</event>
<event>
 4      1 +5.5534000e-05 3.05762600e+02 7.81860800e-03 9.98498900e-02
        2 -1    0    0  501    0 +0.0000000000e+00 +0.0000000000e+00 +6.8141821450e+02 6.8141821450e+02 0.0000000000e+00 0.0000e+00 -1.0000e+00
       -2 -1    0    0    0  501 -0.0000000000e+00 -0.0000000000e+00 -3.4300078705e+01 3.4300078705e+01 0.0000000000e+00 0.0000e+00 1.0000e+00
      -13  1    1    2    0    0 -8.6345234483e+01 +4.8294356967e+01 +5.0733428637e+01 1.1118329557e+02 0.0000000000e+00 0.0000e+00 1.0000e+00
       13  1    1    2    0    0 +8.6345234483e+01 -4.8294356967e+01 +5.9638470716e+02 6.0453499764e+02 0.0000000000e+00 0.0000e+00 -1.0000e+00
<mgrwt>
<rscale>  0 0.30576264E+03</rscale>
<asrwt>0</asrwt>
<pdfrwt beam="1">  1        2 0.10483356E+00 0.30576264E+03</pdfrwt>
<pdfrwt beam="2">  1       -2 0.52769357E-02 0.30576264E+03</pdfrwt>
<totfact> 0.81706904E+03</totfact>
</mgrwt>
<rwgt>
<wgt id='morphing_basis_vector_1'> +2.3167513e-04 </wgt>
<wgt id='morphing_basis_vector_2'> +1.2875612e-04 </wgt>
<wgt id='morphing_basis_vector_3'> +1.3628041e-04 </wgt>
<wgt id='morphing_basis_vector_4'> +2.3208459e-05 </wgt>
<wgt id='morphing_basis_vector_5'> +1.9653968e-06 </wgt>
</rwgt>
</event>
<event>
 4      1 +5.5534000e-05 3.09968300e+02 7.81860800e-03 9.96772000e-02
        2 -1    0    0  501    0 +0.0000000000e+00 +0.0000000000e+00 +9.1430598310e+02 9.1430598310e+02 0.0000000000e+00 0.0000e+00 -1.0000e+00
       -2 -1    0    0    0  501 -0.0000000000e+00 -0.0000000000e+00 -2.6271392378e+01 2.6271392378e+01 0.0000000000e+00 0.0000e+00 1.0000e+00
      -13  1    1    2    0    0 -1.3638856696e+02 +6.1635959875e+01 +3.2191177546e+02 3.5500425903e+02 0.0000000000e+00 0.0000e+00 1.0000e+00
       13  1    1    2    0    0 +1.3638856696e+02 -6.1635959875e+01 +5.6612281526e+02 5.8557311645e+02 0.0000000000e+00 0.0000e+00 -1.0000e+00
<mgrwt>
<rscale>  0 0.30996833E+03</rscale>
<asrwt>0</asrwt>
<pdfrwt beam="1">  1        2 0.14066243E+00 0.30996833E+03</pdfrwt>
<pdfrwt beam="2">  1       -2 0.40417534E-02 0.30996833E+03</pdfrwt>
<totfact> 0.84589800E+03</totfact>
</mgrwt>
<rwgt>
<wgt id='morphing_basis_vector_1'> +2.4090797e-04 </wgt>
<wgt id='morphing_basis_vector_2'> +1.3893804e-04 </wgt>
<wgt id='morphing_basis_vector_3'> +1.3719282e-04 </wgt>
<wgt id='morphing_basis_vector_4'> +2.4918531e-05 </wgt>
<wgt id='morphing_basis_vector_5'> +2.8459345e-06 </wgt>
</rwgt>
</event>
<event>
 4      1 +5.5534000e-05 3.30253800e+02 7.81860800e-03 9.88836200e-02
        2 -1    0    0  501    0 +0.0000000000e+00 +0.0000000000e+00 +8.9125399071e+01 8.9125399071e+01 0.0000000000e+00 0.0000e+00 1.0000e+00
       -2 -1    0    0    0  501 -0.0000000000e+00 -0.0000000000e+00 -3.0593846223e+02 3.0593846223e+02 0.0000000000e+00 0.0000e+00 -1.0000e+00
      -13  1    1    2    0    0 +3.9621720899e+01 -6.2542007986e+01 -2.8497100801e+02 2.9443141635e+02 0.0000000000e+00 0.0000e+00 -1.0000e+00
       13  1    1    2    0    0 -3.9621720899e+01 +6.2542007986e+01 +6.8157944850e+01 1.0063244495e+02 0.0000000000e+00 0.0000e+00 1.0000e+00
<mgrwt>
<rscale>  0 0.33025377E+03</rscale>
<asrwt>0</asrwt>
<pdfrwt beam="1">  1        2 0.13711600E-01 0.33025377E+03</pdfrwt>
<pdfrwt beam="2">  1       -2 0.47067455E-01 0.33025377E+03</pdfrwt>
<totfact> 0.23520362E+03</totfact>
</mgrwt>
<rwgt>
<wgt id='morphing_basis_vector_1'> +2.7436255e-04 </wgt>
<wgt id='morphing_basis_vector_2'> +1.4961259e-04 </wgt>
<wgt id='morphing_basis_vector_3'> +1.6390694e-04 </wgt>
<wgt id='morphing_basis_vector_4'> +2.7613751e-05 </wgt>
<wgt id='morphing_basis_vector_5'> +8.5793981e-06 </wgt>
</rwgt>
</event>
<event>
 4      1 +5.5534000e-05 3.54427100e+02 7.81860800e-03 9.80150700e-02
        2 -1    0    0  501    0 +0.0000000000e+00 +0.0000000000e+00 +1.9486234574e+02 1.9486234574e+02 0.0000000000e+00 0.0000e+00 -1.0000e+00
       -2 -1    0    0    0  501 -0.0000000000e+00 -0.0000000000e+00 -1.6116324670e+02 1.6116324670e+02 0.0000000000e+00 0.0000e+00 1.0000e+00
      -13  1    1    2    0    0 +1.5336544521e+00 -1.1760433025e+02 -1.1630588383e+02 1.6540915695e+02 0.0000000000e+00 0.0000e+00 1.0000e+00
       13  1    1    2    0    0 -1.5336544521e+00 +1.1760433025e+02 +1.5000498288e+02 1.9061643549e+02 0.0000000000e+00 0.0000e+00 -1.0000e+00
<mgrwt>
<rscale>  0 0.35442713E+03</rscale>
<asrwt>0</asrwt>
<pdfrwt beam="1">  1        2 0.29978822E-01 0.35442713E+03</pdfrwt>
<pdfrwt beam="2">  1       -2 0.24794346E-01 0.35442713E+03</pdfrwt>
<totfact> 0.29325153E+03</totfact>
</mgrwt>
<rwgt>
<wgt id='morphing_basis_vector_1'> +3.2398483e-04 </wgt>
<wgt id='morphing_basis_vector_2'> +1.7537212e-04 </wgt>
<wgt id='morphing_basis_vector_3'> +1.9727232e-04 </wgt>
<wgt id='morphing_basis_vector_4'> +3.5617367e-05 </wgt>
<wgt id='morphing_basis_vector_5'> +2.0743988e-05 </wgt>
</rwgt>
</event>
<event>
 4      1 +5.5534000e-05 3.28560700e+02 7.81860800e-03 9.89474600e-02
        2 -1    0    0  501    0 +0.0000000000e+00 +0.0000000000e+00 +3.2744909278e+02 3.2744909278e+02 0.0000000000e+00 0.0000e+00 -1.0000e+00
       -2 -1    0    0    0  501 -0.0000000000e+00 -0.0000000000e+00 -8.2419010564e+01 8.2419010564e+01 0.0000000000e+00 0.0000e+00 1.0000e+00
      -13  1    1    2    0    0 -2.2559289925e+01 +1.6256243571e+02 +1.1347085886e+02 1.9952719834e+02 0.0000000000e+00 0.0000e+00 1.0000e+00
       13  1    1    2    0    0 +2.2559289925e+01 -1.6256243571e+02 +1.3155922335e+02 2.1034090500e+02 0.0000000000e+00 0.0000e+00 -1.0000e+00
<mgrwt>
<rscale>  0 0.32856068E+03</rscale>
<asrwt>0</asrwt>
<pdfrwt beam="1">  1        2 0.50376783E-01 0.32856068E+03</pdfrwt>
<pdfrwt beam="2">  1       -2 0.12679848E-01 0.32856068E+03</pdfrwt>
<totfact> 0.48627421E+03</totfact>
</mgrwt>
<rwgt>
<wgt id='morphing_basis_vector_1'> +2.7792682e-04 </wgt>
<wgt id='morphing_basis_vector_2'> +1.6783616e-04 </wgt>
<wgt id='morphing_basis_vector_3'> +1.5278226e-04 </wgt>
<wgt id='morphing_basis_vector_4'> +2.9984109e-05 </wgt>
<wgt id='morphing_basis_vector_5'> +8.3202755e-06 </wgt>
</rwgt>
</event>
<event>
 4      1 +5.5534000e-05 3.25286100e+02 7.81860800e-03 9.90721300e-02
        2 -1    0    0  501    0 +0.0000000000e+00 +0.0000000000e+00 +6.6673621117e+02 6.6673621117e+02 0.0000000000e+00 0.0000e+00 -1.0000e+00
       -2 -1    0    0    0  501 -0.0000000000e+00 -0.0000000000e+00 -3.9675001604e+01 3.9675001604e+01 0.0000000000e+00 0.0000e+00 1.0000e+00
      -13  1    1    2    0    0 -1.0879603164e+02 +1.2033250054e+02 +3.3888172158e+02 3.7570907416e+02 0.0000000000e+00 0.0000e+00 1.0000e+00
       13  1    1    2    0    0 +1.0879603164e+02 -1.2033250054e+02 +2.8817948799e+02 3.3070213861e+02 0.0000000000e+00 0.0000e+00 -1.0000e+00
<mgrwt>
<rscale>  0 0.32528609E+03</rscale>
<asrwt>0</asrwt>
<pdfrwt beam="1">  1        2 0.10257479E+00 0.32528609E+03</pdfrwt>
<pdfrwt beam="2">  1       -2 0.61038469E-02 0.32528609E+03</pdfrwt>
<totfact> 0.67494010E+03</totfact>
</mgrwt>
<rwgt>
<wgt id='morphing_basis_vector_1'> +2.7517229e-04 </wgt>
<wgt id='morphing_basis_vector_2'> +1.7443114e-04 </wgt>
<wgt id='morphing_basis_vector_3'> +1.4422223e-04 </wgt>
<wgt id='morphing_basis_vector_4'> +3.0742419e-05 </wgt>
<wgt id='morphing_basis_vector_5'> +7.3446333e-06 </wgt>
</rwgt>
</event>
<event>
 4      1 +5.5534000e-05 3.19873500e+02 7.81860800e-03 9.92817300e-02
        2 -1    0    0  501    0 +0.0000000000e+00 +0.0000000000e+00 +2.1333798514e+02 2.1333798514e+02 0.0000000000e+00 0.0000e+00 1.0000e+00
       -2 -1    0    0    0  501 -0.0000000000e+00 -0.0000000000e+00 -1.1990249723e+02 1.1990249723e+02 0.0000000000e+00 0.0000e+00 -1.0000e+00
      -13  1    1    2    0    0 -3.3080071544e+01 -1.4086171887e+02 +1.1770813557e+02 1.8652485131e+02 0.0000000000e+00 0.0000e+00 -1.0000e+00
       13  1    1    2    0    0 +3.3080071544e+01 +1.4086171887e+02 -2.4272647661e+01 1.4671563107e+02 0.0000000000e+00 0.0000e+00 1.0000e+00
<mgrwt>
<rscale>  0 0.31987346E+03</rscale>
<asrwt>0</asrwt>
<pdfrwt beam="1">  1        2 0.32821228E-01 0.31987346E+03</pdfrwt>
<pdfrwt beam="2">  1       -2 0.18446538E-01 0.31987346E+03</pdfrwt>
<totfact> 0.43005974E+03</totfact>
</mgrwt>
<rwgt>
<wgt id='morphing_basis_vector_1'> +2.8761933e-04 </wgt>
<wgt id='morphing_basis_vector_2'> +2.3408717e-04 </wgt>
<wgt id='morphing_basis_vector_3'> +1.0702305e-04 </wgt>
<wgt id='morphing_basis_vector_4'> +3.9905844e-05 </wgt>
<wgt id='morphing_basis_vector_5'> +6.7596479e-06 </wgt>
</rwgt>
</event>
<event>
 4      1 +5.5534000e-05 3.39210000e+02 7.81860800e-03 9.85527000e-02
        2 -1    0    0  501    0 +0.0000000000e+00 +0.0000000000e+00 +6.5252016615e+02 6.5252016615e+02 0.0000000000e+00 0.0000e+00 -1.0000e+00
       -2 -1    0    0    0  501 -0.0000000000e+00 -0.0000000000e+00 -4.4084235384e+01 4.4084235384e+01 0.0000000000e+00 0.0000e+00 1.0000e+00
      -13  1    1    2    0    0 +7.6457188824e+01 -1.5049411295e+02 +3.3806656495e+02 3.7786661945e+02 0.0000000000e+00 0.0000e+00 1.0000e+00
       13  1    1    2    0    0 -7.6457188824e+01 +1.5049411295e+02 +2.7036936581e+02 3.1873778208e+02 0.0000000000e+00 0.0000e+00 -1.0000e+00
<mgrwt>
<rscale>  0 0.33920998E+03</rscale>
<asrwt>0</asrwt>
<pdfrwt beam="1">  1        2 0.10038771E+00 0.33920998E+03</pdfrwt>
<pdfrwt beam="2">  1       -2 0.67821905E-02 0.33920998E+03</pdfrwt>
<totfact> 0.59091760E+03</totfact>
</mgrwt>
<rwgt>
<wgt id='morphing_basis_vector_1'> +3.0410323e-04 </wgt>
<wgt id='morphing_basis_vector_2'> +1.9486565e-04 </wgt>
<wgt id='morphing_basis_vector_3'> +1.5977332e-04 </wgt>
<wgt id='morphing_basis_vector_4'> +3.4579461e-05 </wgt>
<wgt id='morphing_basis_vector_5'> +1.3101536e-05 </wgt>
</rwgt>
</event>
<event>
 4      1 +5.5534000e-05 3.52572900e+02 7.81860800e-03 9.80790100e-02
        2 -1    0    0  501    0 +0.0000000000e+00 +0.0000000000e+00 +4.9408608097e+01 4.9408608097e+01 0.0000000000e+00 0.0000e+00 -1.0000e+00
       -2 -1    0    0    0  501 -0.0000000000e+00 -0.0000000000e+00 -6.2897761387e+02 6.2897761387e+02 0.0000000000e+00 0.0000e+00 1.0000e+00
      -13  1    1    2    0    0 -1.5998478401e+02 +2.1203666653e+00 -4.3218471764e+02 4.6085058016e+02 0.0000000000e+00 0.0000e+00 1.0000e+00
       13  1    1    2    0    0 +1.5998478401e+02 -2.1203666653e+00 -1.4738428813e+02 2.1753564181e+02 0.0000000000e+00 0.0000e+00 -1.0000e+00
<mgrwt>
<rscale>  0 0.35257288E+03</rscale>
<asrwt>0</asrwt>
<pdfrwt beam="1">  1        2 0.76013243E-02 0.35257288E+03</pdfrwt>
<pdfrwt beam="2">  1       -2 0.96765788E-01 0.35257288E+03</pdfrwt>
<totfact> 0.10881346E+03</totfact>
</mgrwt>
<rwgt>
<wgt id='morphing_basis_vector_1'> +3.2143172e-04 </wgt>
<wgt id='morphing_basis_vector_2'> +1.7779242e-04 </wgt>
<wgt id='morphing_basis_vector_3'> +1.9261411e-04 </wgt>
<wgt id='morphing_basis_vector_4'> +3.5320367e-05 </wgt>
<wgt id='morphing_basis_vector_5'> +1.9684377e-05 </wgt>
</rwgt>
</event>
<event>
 4      1 +5.5534000e-05 3.14454400e+02 7.81860800e-03 9.94961600e-02
        2 -1    0    0  501    0 +0.0000000000e+00 +0.0000000000e+00 +2.2654156379e+02 2.2654156379e+02 0.0000000000e+00 0.0000e+00 -1.0000e+00
       -2 -1    0    0    0  501 -0.0000000000e+00 -0.0000000000e+00 -1.0912075879e+02 1.0912075879e+02 0.0000000000e+00 0.0000e+00 1.0000e+00
      -13  1    1    2    0    0 +4.2700929428e+01 +1.2158612554e+02 -3.7441519681e+01 1.3419546451e+02 0.0000000000e+00 0.0000e+00 1.0000e+00
       13  1    1    2    0    0 -4.2700929428e+01 -1.2158612554e+02 +1.5486232468e+02 2.0146685808e+02 0.0000000000e+00 0.0000e+00 -1.0000e+00
<mgrwt>
<rscale>  0 0.31445437E+03</rscale>
<asrwt>0</asrwt>
<pdfrwt beam="1">  1        2 0.34852548E-01 0.31445437E+03</pdfrwt>
<pdfrwt beam="2">  1       -2 0.16787809E-01 0.31445437E+03</pdfrwt>
<totfact> 0.46778684E+03</totfact>
</mgrwt>
<rwgt>
<wgt id='morphing_basis_vector_1'> +2.4651157e-04 </wgt>
<wgt id='morphing_basis_vector_2'> +1.3706503e-04 </wgt>
<wgt id='morphing_basis_vector_3'> +1.4472587e-04 </wgt>
<wgt id='morphing_basis_vector_4'> +2.4623638e-05 </wgt>
<wgt id='morphing_basis_vector_5'> +3.7478843e-06 </wgt>
</rwgt>
</event>
<event>
 4      1 +5.5534000e-05 3.13808700e+02 7.81860800e-03 9.95220200e-02
        2 -1    0    0  501    0 +0.0000000000e+00 +0.0000000000e+00 +7.1046469923e+02 7.1046469923e+02 0.0000000000e+00 0.0000e+00 1.0000e+00
       -2 -1    0    0    0  501 -0.0000000000e+00 -0.0000000000e+00 -3.4651924061e+01 3.4651924061e+01 0.0000000000e+00 0.0000e+00 -1.0000e+00
      -13  1    1    2    0    0 +9.0035372943e+01 -7.7866623091e+01 +5.8062595268e+02 5.9270235050e+02 0.0000000000e+00 0.0000e+00 1.0000e+00
       13  1    1    2    0    0 -9.0035372943e+01 +7.7866623091e+01 +9.5186822491e+01 1.5241427278e+02 0.0000000000e+00 0.0000e+00 -1.0000e+00
<mgrwt>
<rscale>  0 0.31380866E+03</rscale>
<asrwt>0</asrwt>
<pdfrwt beam="1">  1        2 0.10930225E+00 0.31380866E+03</pdfrwt>
<pdfrwt beam="2">  1       -2 0.53310658E-02 0.31380866E+03</pdfrwt>
<totfact> 0.76665008E+03</totfact>
</mgrwt>
<rwgt>
<wgt id='morphing_basis_vector_1'> +3.0287127e-04 </wgt>
<wgt id='morphing_basis_vector_2'> +3.0294517e-04 </wgt>
<wgt id='morphing_basis_vector_3'> +6.3092431e-05 </wgt>
<wgt id='morphing_basis_vector_4'> +5.2043708e-05 </wgt>
<wgt id='morphing_basis_vector_5'> +6.2698266e-06 </wgt>
</rwgt>
</event>
<event>
 4      1 +5.5534000e-05 3.49740400e+02 7.81860800e-03 9.81775000e-02
        2 -1    0    0  501    0 +0.0000000000e+00 +0.0000000000e+00 +7.9144176678e+01 7.9144176678e+01 0.0000000000e+00 0.0000e+00 1.0000e+00
       -2 -1    0    0    0  501 -0.0000000000e+00 -0.0000000000e+00 -3.8637831402e+02 3.8637831402e+02 0.0000000000e+00 0.0000e+00 -1.0000e+00
      -13  1    1    2    0    0 +1.2271929183e+02 +2.1032508979e+01 -3.1705588267e+02 3.4062710367e+02 0.0000000000e+00 0.0000e+00 -1.0000e+00
       13  1    1    2    0    0 -1.2271929183e+02 -2.1032508979e+01 +9.8217453197e+00 1.2489538703e+02 0.0000000000e+00 0.0000e+00 1.0000e+00
<mgrwt>
<rscale>  0 0.34974044E+03</rscale>
<asrwt>0</asrwt>
<pdfrwt beam="1">  1        2 0.12176027E-01 0.34974044E+03</pdfrwt>
<pdfrwt beam="2">  1       -2 0.59442816E-01 0.34974044E+03</pdfrwt>
<totfact> 0.17283043E+03</totfact>
</mgrwt>
<rwgt>
<wgt id='morphing_basis_vector_1'> +3.1389584e-04 </wgt>
<wgt id='morphing_basis_vector_2'> +1.7040442e-04 </wgt>
<wgt id='morphing_basis_vector_3'> +1.9009214e-04 </wgt>
<wgt id='morphing_basis_vector_4'> +3.3802222e-05 </wgt>
<wgt id='morphing_basis_vector_5'> +1.7905604e-05 </wgt>
</rwgt>
</event>
<event>
 4      1 +5.5534000e-05 3.03018400e+02 7.81860800e-03 9.99641700e-02
        2 -1    0    0  501    0 +0.0000000000e+00 +0.0000000000e+00 +1.0719549739e+03 1.0719549739e+03 0.0000000000e+00 0.0000e+00 1.0000e+00
       -2 -1    0    0    0  501 -0.0000000000e+00 -0.0000000000e+00 -2.1414186821e+01 2.1414186821e+01 0.0000000000e+00 0.0000e+00 -1.0000e+00
      -13  1    1    2    0    0 -2.5655054321e+01 -1.4777008437e+02 +6.0273161708e+02 6.2111156958e+02 0.0000000000e+00 0.0000e+00 1.0000e+00
       13  1    1    2    0    0 +2.5655054321e+01 +1.4777008437e+02 +4.4780917002e+02 4.7225759115e+02 0.0000000000e+00 0.0000e+00 -1.0000e+00
<mgrwt>
<rscale>  0 0.30301844E+03</rscale>
<asrwt>0</asrwt>
<pdfrwt beam="1">  1        2 0.16491611E+00 0.30301844E+03</pdfrwt>
<pdfrwt beam="2">  1       -2 0.32944911E-02 0.30301844E+03</pdfrwt>
<totfact> 0.92005133E+03</totfact>
</mgrwt>
<rwgt>
<wgt id='morphing_basis_vector_1'> +2.3795647e-04 </wgt>
<wgt id='morphing_basis_vector_2'> +1.5713163e-04 </wgt>
<wgt id='morphing_basis_vector_3'> +1.1804781e-04 </wgt>
<wgt id='morphing_basis_vector_4'> +2.8492564e-05 </wgt>
<wgt id='morphing_basis_vector_5'> +1.9442456e-06 </wgt>
</rwgt>
</event>
<event>
 4      1 +5.5534000e-05 3.55417100e+02 7.81860800e-03 9.79811100e-02
        2 -1    0    0  501    0 +0.0000000000e+00 +0.0000000000e+00 +3.3415938435e+02 3.3415938435e+02 0.0000000000e+00 0.0000e+00 -1.0000e+00
       -2 -1    0    0    0  501 -0.0000000000e+00 -0.0000000000e+00 -9.4506780038e+01 9.4506780038e+01 0.0000000000e+00 0.0000e+00 1.0000e+00
      -13  1    1    2    0    0 -2.3184409166e+01 +1.5651176502e+02 +2.2237942161e+01 1.5977476487e+02 0.0000000000e+00 0.0000e+00 1.0000e+00
       13  1    1    2    0    0 +2.3184409166e+01 -1.5651176502e+02 +2.1741466215e+02 2.6889139952e+02 0.0000000000e+00 0.0000e+00 -1.0000e+00
<mgrwt>
<rscale>  0 0.35541709E+03</rscale>
<asrwt>0</asrwt>
<pdfrwt beam="1">  1        2 0.51409136E-01 0.35541709E+03</pdfrwt>
<pdfrwt beam="2">  1       -2 0.14539505E-01 0.35541709E+03</pdfrwt>
<totfact> 0.38397572E+03</totfact>
</mgrwt>
<rwgt>
<wgt id='morphing_basis_vector_1'> +3.2744201e-04 </wgt>
<wgt id='morphing_basis_vector_2'> +1.8030119e-04 </wgt>
<wgt id='morphing_basis_vector_3'> +1.9728419e-04 </wgt>
<wgt id='morphing_basis_vector_4'> +3.6388182e-05 </wgt>
<wgt id='morphing_basis_vector_5'> +2.1457393e-05 </wgt>
</rwgt>
</event>
<event>
 4      1 +5.5534000e-05 3.47212000e+02 7.81860800e-03 9.82662700e-02
        2 -1    0    0  501    0 +0.0000000000e+00 +0.0000000000e+00 +8.2733630645e+02 8.2733630645e+02 0.0000000000e+00 0.0000e+00 1.0000e+00
       -2 -1    0    0    0  501 -0.0000000000e+00 -0.0000000000e+00 -3.6429003599e+01 3.6429003599e+01 0.0000000000e+00 0.0000e+00 -1.0000e+00
      -13  1    1    2    0    0 -1.4480314327e+02 +8.6926320306e+01 +2.9548262824e+02 3.4034411858e+02 0.0000000000e+00 0.0000e+00 -1.0000e+00
       13  1    1    2    0    0 +1.4480314327e+02 -8.6926320306e+01 +4.9542467462e+02 5.2342119147e+02 0.0000000000e+00 0.0000e+00 1.0000e+00
<mgrwt>
<rscale>  0 0.34721197E+03</rscale>
<asrwt>0</asrwt>
<pdfrwt beam="1">  1        2 0.12728249E+00 0.34721197E+03</pdfrwt>
<pdfrwt beam="2">  1       -2 0.56044627E-02 0.34721197E+03</pdfrwt>
<totfact> 0.59204697E+03</totfact>
</mgrwt>
<rwgt>
<wgt id='morphing_basis_vector_1'> +3.1200860e-04 </wgt>
<wgt id='morphing_basis_vector_2'> +1.7802514e-04 </wgt>
<wgt id='morphing_basis_vector_3'> +1.8207282e-04 </wgt>
<wgt id='morphing_basis_vector_4'> +3.4003555e-05 </wgt>
<wgt id='morphing_basis_vector_5'> +1.6687668e-05 </wgt>
</rwgt>
</event>
<event>
 4      1 +5.5534000e-05 3.06554400e+02 7.81860800e-03 9.98171600e-02
        2 -1    0    0  501    0 +0.0000000000e+00 +0.0000000000e+00 +5.4418423477e+02 5.4418423477e+02 0.0000000000e+00 0.0000e+00 -1.0000e+00
       -2 -1    0    0    0  501 -0.0000000000e+00 -0.0000000000e+00 -4.3172684651e+01 4.3172684651e+01 0.0000000000e+00 0.0000e+00 1.0000e+00
      -13  1    1    2    0    0 +7.0332664103e+01 +7.1546047826e+01 +2.8478515643e+01 1.0429068248e+02 0.0000000000e+00 0.0000e+00 1.0000e+00
       13  1    1    2    0    0 -7.0332664103e+01 -7.1546047826e+01 +4.7253303447e+02 4.8306623694e+02 0.0000000000e+00 0.0000e+00 -1.0000e+00
<mgrwt>
<rscale>  0 0.30655436E+03</rscale>
<asrwt>0</asrwt>
<pdfrwt beam="1">  1        2 0.83720646E-01 0.30655436E+03</pdfrwt>
<pdfrwt beam="2">  1       -2 0.66419519E-02 0.30655436E+03</pdfrwt>
<totfact> 0.74799932E+03</totfact>
</mgrwt>
<rwgt>
<wgt id='morphing_basis_vector_1'> +2.3296141e-04 </wgt>
<wgt id='morphing_basis_vector_2'> +1.2940338e-04 </wgt>
<wgt id='morphing_basis_vector_3'> +1.3706240e-04 </wgt>
<wgt id='morphing_basis_vector_4'> +2.3307254e-05 </wgt>
<wgt id='morphing_basis_vector_5'> +2.1013023e-06 </wgt>
</rwgt>
</event>
<event>
 4      1 +5.5534000e-05 3.01204400e+02 7.81860800e-03 1.00040400e-01
        2 -1    0    0  501    0 +0.0000000000e+00 +0.0000000000e+00 +7.7668225253e+02 7.7668225253e+02 0.0000000000e+00 0.0000e+00 -1.0000e+00
       -2 -1    0    0    0  501 -0.0000000000e+00 -0.0000000000e+00 -2.9202455010e+01 2.9202455010e+01 0.0000000000e+00 0.0000e+00 1.0000e+00
      -13  1    1    2    0    0 +1.7038135975e+00 +1.5032642755e+02 +3.9768422884e+02 4.2515136560e+02 0.0000000000e+00 0.0000e+00 1.0000e+00
       13  1    1    2    0    0 -1.7038135975e+00 -1.5032642755e+02 +3.4979556868e+02 3.8073334194e+02 0.0000000000e+00 0.0000e+00 -1.0000e+00
<mgrwt>
<rscale>  0 0.30120444E+03</rscale>
<asrwt>0</asrwt>
<pdfrwt beam="1">  1        2 0.11948956E+00 0.30120444E+03</pdfrwt>
<pdfrwt beam="2">  1       -2 0.44926860E-02 0.30120444E+03</pdfrwt>
<totfact> 0.88754489E+03</totfact>
</mgrwt>
<rwgt>
<wgt id='morphing_basis_vector_1'> +2.3223786e-04 </wgt>
<wgt id='morphing_basis_vector_2'> +1.4748928e-04 </wgt>
<wgt id='morphing_basis_vector_3'> +1.2041731e-04 </wgt>
<wgt id='morphing_basis_vector_4'> +2.6863975e-05 </wgt>
<wgt id='morphing_basis_vector_5'> +1.5673068e-06 </wgt>
</rwgt>
</event>
<event>
 4      1 +5.5534000e-05 3.41034800e+02 7.81860800e-03 9.84866300e-02
        2 -1    0    0  501    0 +0.0000000000e+00 +0.0000000000e+00 +1.7239360113e+02 1.7239360113e+02 0.0000000000e+00 0.0000e+00 1.0000e+00
       -2 -1    0    0    0  501 -0.0000000000e+00 -0.0000000000e+00 -1.6866162584e+02 1.6866162584e+02 0.0000000000e+00 0.0000e+00 -1.0000e+00
      -13  1    1    2    0    0 -6.3050051807e+01 -3.3671042213e+00 +1.6027224741e+02 1.7226096398e+02 0.0000000000e+00 0.0000e+00 1.0000e+00
       13  1    1    2    0    0 +6.3050051807e+01 +3.3671042213e+00 -1.5654027211e+02 1.6879426299e+02 0.0000000000e+00 0.0000e+00 -1.0000e+00
<mgrwt>
<rscale>  0 0.34103481E+03</rscale>
<asrwt>0</asrwt>
<pdfrwt beam="1">  1        2 0.26522093E-01 0.34103481E+03</pdfrwt>
<pdfrwt beam="2">  1       -2 0.25947942E-01 0.34103481E+03</pdfrwt>
<totfact> 0.31205013E+03</totfact>
</mgrwt>
<rwgt>
<wgt id='morphing_basis_vector_1'> +3.9901627e-04 </wgt>
<wgt id='morphing_basis_vector_2'> +4.6740797e-04 </wgt>
<wgt id='morphing_basis_vector_3'> +4.6253275e-05 </wgt>
<wgt id='morphing_basis_vector_4'> +6.7380096e-05 </wgt>
<wgt id='morphing_basis_vector_5'> +1.9442316e-05 </wgt>
</rwgt>
</event>
<event>
 4      1 +5.5534000e-05 3.17863100e+02 7.81860800e-03 9.93607400e-02
        2 -1    0    0  501    0 +0.0000000000e+00 +0.0000000000e+00 +9.8297192776e+01 9.8297192776e+01 0.0000000000e+00 0.0000e+00 -1.0000e+00
       -2 -1    0    0    0  501 -0.0000000000e+00 -0.0000000000e+00 -2.5696803946e+02 2.5696803946e+02 0.0000000000e+00 0.0000e+00 1.0000e+00
      -13  1    1    2    0    0 +1.4327930226e+01 -1.5100516565e+02 -1.3236738627e+02 2.0131809304e+02 0.0000000000e+00 0.0000e+00 1.0000e+00
       13  1    1    2    0    0 -1.4327930226e+01 +1.5100516565e+02 -2.6303460419e+01 1.5394713920e+02 0.0000000000e+00 0.0000e+00 -1.0000e+00
<mgrwt>
<rscale>  0 0.31786310E+03</rscale>
<asrwt>0</asrwt>
<pdfrwt beam="1">  1        2 0.15122645E-01 0.31786310E+03</pdfrwt>
<pdfrwt beam="2">  1       -2 0.39533544E-01 0.31786310E+03</pdfrwt>
<totfact> 0.28843526E+03</totfact>
</mgrwt>
<rwgt>
<wgt id='morphing_basis_vector_1'> +2.5408832e-04 </wgt>
<wgt id='morphing_basis_vector_2'> +1.4490684e-04 </wgt>
<wgt id='morphing_basis_vector_3'> +1.4613006e-04 </wgt>
<wgt id='morphing_basis_vector_4'> +2.5981401e-05 </wgt>
<wgt id='morphing_basis_vector_5'> +4.6934204e-06 </wgt>
</rwgt>
</event>
<event>
 4      1 +5.5534000e-05 3.02217100e+02 7.81860800e-03 9.99977800e-02
        2 -1    0    0  501    0 +0.0000000000e+00 +0.0000000000e+00 +3.7138684163e+02 3.7138684163e+02 0.0000000000e+00 0.0000e+00 -1.0000e+00
       -2 -1    0    0    0  501 -0.0000000000e+00 -0.0000000000e+00 -6.1482490395e+01 6.1482490395e+01 0.0000000000e+00 0.0000e+00 1.0000e+00
      -13  1    1    2    0    0 -1.3311390915e+02 -7.1160811419e+01 +1.6514215519e+02 2.2372998304e+02 0.0000000000e+00 0.0000e+00 -1.0000e+00
       13  1    1    2    0    0 +1.3311390915e+02 +7.1160811419e+01 +1.4476219605e+02 2.0913934899e+02 0.0000000000e+00 0.0000e+00 1.0000e+00
<mgrwt>
<rscale>  0 0.30221706E+03</rscale>
<asrwt>0</asrwt>
<pdfrwt beam="1">  1        2 0.57136436E-01 0.30221706E+03</pdfrwt>
<pdfrwt beam="2">  1       -2 0.94588449E-02 0.30221706E+03</pdfrwt>
<totfact> 0.66538364E+03</totfact>
</mgrwt>
<rwgt>
<wgt id='morphing_basis_vector_1'> +2.3354125e-04 </wgt>
<wgt id='morphing_basis_vector_2'> +1.4747651e-04 </wgt>
<wgt id='morphing_basis_vector_3'> +1.2183694e-04 </wgt>
<wgt id='morphing_basis_vector_4'> +2.6782274e-05 </wgt>
<wgt id='morphing_basis_vector_5'> +1.7021911e-06 </wgt>
</rwgt>
</event>
<event>
 4      1 +5.5534000e-05 3.40640100e+02 7.81860800e-03 9.85008800e-02
        2 -1    0    0  501    0 +0.0000000000e+00 +0.0000000000e+00 +4.2938866038e+01 4.2938866038e+01 0.0000000000e+00 0.0000e+00 -1.0000e+00
       -2 -1    0    0    0  501 -0.0000000000e+00 -0.0000000000e+00 -6.7558658898e+02 6.7558658898e+02 0.0000000000e+00 0.0000e+00 1.0000e+00
      -13  1    1    2    0    0 -1.6240493540e+02 -1.2815649693e+01 -4.2114162498e+02 4.5155273470e+02 0.0000000000e+00 0.0000e+00 1.0000e+00
       13  1    1    2    0    0 +1.6240493540e+02 +1.2815649693e+01 -2.1150609796e+02 2.6697272032e+02 0.0000000000e+00 0.0000e+00 -1.0000e+00
<mgrwt>
<rscale>  0 0.34064012E+03</rscale>
<asrwt>0</asrwt>
<pdfrwt beam="1">  1        2 0.66059799E-02 0.34064012E+03</pdfrwt>
<pdfrwt beam="2">  1       -2 0.10393639E+00 0.34064012E+03</pdfrwt>
<totfact> 0.11010548E+03</totfact>
</mgrwt>
<rwgt>
<wgt id='morphing_basis_vector_1'> +2.9745147e-04 </wgt>
<wgt id='morphing_basis_vector_2'> +1.6810797e-04 </wgt>
<wgt id='morphing_basis_vector_3'> +1.7395920e-04 </wgt>
<wgt id='morphing_basis_vector_4'> +3.1546122e-05 </wgt>
<wgt id='morphing_basis_vector_5'> +1.3218790e-05 </wgt>
</rwgt>
</event>
<event>
 4      1 +5.5534000e-05 3.31909300e+02 7.81860800e-03 9.88216000e-02
        2 -1    0    0  501    0 +0.0000000000e+00 +0.0000000000e+00 +1.2294783049e+02 1.2294783049e+02 0.0000000000e+00 0.0000e+00 1.0000e+00
       -2 -1    0    0    0  501 -0.0000000000e+00 -0.0000000000e+00 -2.2400519611e+02 2.2400519611e+02 0.0000000000e+00 0.0000e+00 -1.0000e+00
      -13  1    1    2    0    0 +3.2835542271e+01 +1.5663721105e+02 -4.6347130835e+00 1.6010892944e+02 0.0000000000e+00 0.0000e+00 -1.0000e+00
       13  1    1    2    0    0 -3.2835542271e+01 -1.5663721105e+02 -9.6422652528e+01 1.8684409716e+02 0.0000000000e+00 0.0000e+00 1.0000e+00
<mgrwt>
<rscale>  0 0.33190934E+03</rscale>
<asrwt>0</asrwt>
<pdfrwt beam="1">  1        2 0.18915051E-01 0.33190934E+03</pdfrwt>
<pdfrwt beam="2">  1       -2 0.34462337E-01 0.33190934E+03</pdfrwt>
<totfact> 0.28274464E+03</totfact>
</mgrwt>
<rwgt>
<wgt id='morphing_basis_vector_1'> +2.9832574e-04 </wgt>
<wgt id='morphing_basis_vector_2'> +2.1250111e-04 </wgt>
<wgt id='morphing_basis_vector_3'> +1.3851260e-04 </wgt>
<wgt id='morphing_basis_vector_4'> +3.6311485e-05 </wgt>
<wgt id='morphing_basis_vector_5'> +1.0394526e-05 </wgt>
</rwgt>
</event>
<event>
 4      1 +5.5534000e-05 3.02619300e+02 7.81860800e-03 9.99809000e-02
        2 -1    0    0  501    0 +0.0000000000e+00 +0.0000000000e+00 +4.3610599265e+02 4.3610599265e+02 0.0000000000e+00 0.0000e+00 -1.0000e+00
       -2 -1    0    0    0  501 -0.0000000000e+00 -0.0000000000e+00 -5.2497809355e+01 5.2497809355e+01 0.0000000000e+00 0.0000e+00 1.0000e+00
      -13  1    1    2    0    0 +8.4425969894e+01 +1.1043812768e+02 +9.5329786273e+01 1.6855886980e+02 0.0000000000e+00 0.0000e+00 1.0000e+00
       13  1    1    2    0    0 -8.4425969894e+01 -1.1043812768e+02 +2.8827839702e+02 3.2004493220e+02 0.0000000000e+00 0.0000e+00 -1.0000e+00
<mgrwt>
<rscale>  0 0.30261929E+03</rscale>
<asrwt>0</asrwt>
<pdfrwt beam="1">  1        2 0.67093227E-01 0.30261929E+03</pdfrwt>
<pdfrwt beam="2">  1       -2 0.80765863E-02 0.30261929E+03</pdfrwt>
<totfact> 0.71024900E+03</totfact>
</mgrwt>
<rwgt>
<wgt id='morphing_basis_vector_1'> +2.2783746e-04 </wgt>
<wgt id='morphing_basis_vector_2'> +1.2966603e-04 </wgt>
<wgt id='morphing_basis_vector_3'> +1.3148077e-04 </wgt>
<wgt id='morphing_basis_vector_4'> +2.3478180e-05 </wgt>
<wgt id='morphing_basis_vector_5'> +1.5195845e-06 </wgt>
</rwgt>
</event>
<event>
 4      1 +5.5534000e-05 3.07552100e+02 7.81860800e-03 9.97760600e-02
        2 -1    0    0  501    0 +0.0000000000e+00 +0.0000000000e+00 +8.6581929894e+01 8.6581929894e+01 0.0000000000e+00 0.0000e+00 1.0000e+00
       -2 -1    0    0    0  501 -0.0000000000e+00 -0.0000000000e+00 -2.7311782024e+02 2.7311782024e+02 0.0000000000e+00 0.0000e+00 -1.0000e+00
      -13  1    1    2    0    0 +1.0488111971e+02 -8.1073733359e+01 -2.1169674115e+00 1.3258009302e+02 0.0000000000e+00 0.0000e+00 1.0000e+00
       13  1    1    2    0    0 -1.0488111971e+02 +8.1073733359e+01 -1.8441892294e+02 2.2711965712e+02 0.0000000000e+00 0.0000e+00 -1.0000e+00
<mgrwt>
<rscale>  0 0.30755206E+03</rscale>
<asrwt>0</asrwt>
<pdfrwt beam="1">  1        2 0.13320297E-01 0.30755206E+03</pdfrwt>
<pdfrwt beam="2">  1       -2 0.42018126E-01 0.30755206E+03</pdfrwt>
<totfact> 0.30074811E+03</totfact>
</mgrwt>
<rwgt>
<wgt id='morphing_basis_vector_1'> +2.7202236e-04 </wgt>
<wgt id='morphing_basis_vector_2'> +2.3791120e-04 </wgt>
<wgt id='morphing_basis_vector_3'> +8.4270594e-05 </wgt>
<wgt id='morphing_basis_vector_4'> +4.2361271e-05 </wgt>
<wgt id='morphing_basis_vector_5'> +3.8567475e-06 </wgt>
</rwgt>
</event>
<event>
 4      1 +5.5534000e-05 3.37778400e+02 7.81860800e-03 9.86048500e-02
        2 -1    0    0  501    0 +0.0000000000e+00 +0.0000000000e+00 +7.3157041653e+02 7.3157041653e+02 0.0000000000e+00 0.0000e+00 1.0000e+00
       -2 -1    0    0    0  501 -0.0000000000e+00 -0.0000000000e+00 -3.8989496988e+01 3.8989496988e+01 0.0000000000e+00 0.0000e+00 -1.0000e+00
      -13  1    1    2    0    0 +5.6127910206e+01 +1.1515800632e+02 +9.5229119294e+01 1.5962548006e+02 0.0000000000e+00 0.0000e+00 -1.0000e+00
       13  1    1    2    0    0 -5.6127910206e+01 -1.1515800632e+02 +5.9735180024e+02 6.1093443345e+02 0.0000000000e+00 0.0000e+00 1.0000e+00
<mgrwt>
<rscale>  0 0.33777840E+03</rscale>
<asrwt>0</asrwt>
<pdfrwt beam="1">  1        2 0.11254928E+00 0.33777840E+03</pdfrwt>
<pdfrwt beam="2">  1       -2 0.59983847E-02 0.33777840E+03</pdfrwt>
<totfact> 0.62136176E+03</totfact>
</mgrwt>
<rwgt>
<wgt id='morphing_basis_vector_1'> +2.8932999e-04 </wgt>
<wgt id='morphing_basis_vector_2'> +1.5811136e-04 </wgt>
<wgt id='morphing_basis_vector_3'> +1.7313179e-04 </wgt>
<wgt id='morphing_basis_vector_4'> +2.9821140e-05 </wgt>
<wgt id='morphing_basis_vector_5'> +1.1735339e-05 </wgt>
</rwgt>
</event>
<event>
 4      1 +5.5534000e-05 3.40726100e+02 7.81860800e-03 9.84977800e-02
        2 -1    0    0  501    0 +0.0000000000e+00 +0.0000000000e+00 +3.7398480394e+02 3.7398480394e+02 0.0000000000e+00 0.0000e+00 -1.0000e+00
       -2 -1    0    0    0  501 -0.0000000000e+00 -0.0000000000e+00 -7.7606265079e+01 7.7606265079e+01 0.0000000000e+00 0.0000e+00 1.0000e+00
      -13  1    1    2    0    0 +2.7936590712e+01 +1.0365825281e+02 -2.7132217537e+01 1.1073230651e+02 0.0000000000e+00 0.0000e+00 1.0000e+00
       13  1    1    2    0    0 -2.7936590712e+01 -1.0365825281e+02 +3.2351075640e+02 3.4085876252e+02 0.0000000000e+00 0.0000e+00 -1.0000e+00
<mgrwt>
<rscale>  0 0.34072607E+03</rscale>
<asrwt>0</asrwt>
<pdfrwt beam="1">  1        2 0.57536123E-01 0.34072607E+03</pdfrwt>
<pdfrwt beam="2">  1       -2 0.11939426E-01 0.34072607E+03</pdfrwt>
<totfact> 0.46214666E+03</totfact>
</mgrwt>
<rwgt>
<wgt id='morphing_basis_vector_1'> +2.9497231e-04 </wgt>
<wgt id='morphing_basis_vector_2'> +1.6032943e-04 </wgt>
<wgt id='morphing_basis_vector_3'> +1.7745905e-04 </wgt>
<wgt id='morphing_basis_vector_4'> +3.0628027e-05 </wgt>
<wgt id='morphing_basis_vector_5'> +1.3101906e-05 </wgt>
</rwgt>
</event>
<event>
 4      1 +5.5534000e-05 3.07810100e+02 7.81860800e-03 9.97654500e-02
        2 -1    0    0  501    0 +0.0000000000e+00 +0.0000000000e+00 +3.4609861947e+02 3.4609861947e+02 0.0000000000e+00 0.0000e+00 -1.0000e+00
       -2 -1    0    0    0  501 -0.0000000000e+00 -0.0000000000e+00 -6.8439356519e+01 6.8439356519e+01 0.0000000000e+00 0.0000e+00 1.0000e+00
      -13  1    1    2    0    0 -1.0069351957e+02 -1.0716713812e+02 +1.9999541842e+02 2.4823808686e+02 0.0000000000e+00 0.0000e+00 1.0000e+00
       13  1    1    2    0    0 +1.0069351957e+02 +1.0716713812e+02 +7.7663844524e+01 1.6629988913e+02 0.0000000000e+00 0.0000e+00 -1.0000e+00
<mgrwt>
<rscale>  0 0.30781012E+03</rscale>
<asrwt>0</asrwt>
<pdfrwt beam="1">  1        2 0.53245941E-01 0.30781012E+03</pdfrwt>
<pdfrwt beam="2">  1       -2 0.10529132E-01 0.30781012E+03</pdfrwt>
<totfact> 0.60974078E+03</totfact>
</mgrwt>
<rwgt>
<wgt id='morphing_basis_vector_1'> +2.5395114e-04 </wgt>
<wgt id='morphing_basis_vector_2'> +1.8493127e-04 </wgt>
<wgt id='morphing_basis_vector_3'> +1.1112715e-04 </wgt>
<wgt id='morphing_basis_vector_4'> +3.3023784e-05 </wgt>
<wgt id='morphing_basis_vector_5'> +3.1284763e-06 </wgt>
</rwgt>
</event>
<event>
 4      1 +5.5534000e-05 3.21912200e+02 7.81860800e-03 9.92022500e-02
        2 -1    0    0  501    0 +0.0000000000e+00 +0.0000000000e+00 +3.2719588865e+02 3.2719588865e+02 0.0000000000e+00 0.0000e+00 -1.0000e+00
       -2 -1    0    0    0  501 -0.0000000000e+00 -0.0000000000e+00 -7.9178456263e+01 7.9178456263e+01 0.0000000000e+00 0.0000e+00 1.0000e+00
      -13  1    1    2    0    0 -7.8568787699e+01 +2.4371149341e+01 -5.0637109127e+01 9.6597743977e+01 0.0000000000e+00 0.0000e+00 1.0000e+00
       13  1    1    2    0    0 +7.8568787699e+01 -2.4371149341e+01 +2.9865454152e+02 3.0977660094e+02 0.0000000000e+00 0.0000e+00 -1.0000e+00
<mgrwt>
<rscale>  0 0.32191220E+03</rscale>
<asrwt>0</asrwt>
<pdfrwt beam="1">  1        2 0.50337828E-01 0.32191220E+03</pdfrwt>
<pdfrwt beam="2">  1       -2 0.12181301E-01 0.32191220E+03</pdfrwt>
<totfact> 0.51790656E+03</totfact>
</mgrwt>
<rwgt>
<wgt id='morphing_basis_vector_1'> +2.5902698e-04 </wgt>
<wgt id='morphing_basis_vector_2'> +1.4200138e-04 </wgt>
<wgt id='morphing_basis_vector_3'> +1.5382757e-04 </wgt>
<wgt id='morphing_basis_vector_4'> +2.5732250e-05 </wgt>
<wgt id='morphing_basis_vector_5'> +5.7377872e-06 </wgt>
</rwgt>
</event>
<event>
 4      1 +5.5534000e-05 3.59158600e+02 7.81860800e-03 9.78538300e-02
        2 -1    0    0  501    0 +0.0000000000e+00 +0.0000000000e+00 +1.7983414800e+02 1.7983414800e+02 0.0000000000e+00 0.0000e+00 1.0000e+00
       -2 -1    0    0    0  501 -0.0000000000e+00 -0.0000000000e+00 -1.7932480807e+02 1.7932480807e+02 0.0000000000e+00 0.0000e+00 -1.0000e+00
      -13  1    1    2    0    0 -1.6575644480e+02 +6.5349202863e+01 +2.2682504827e+01 1.7961128398e+02 0.0000000000e+00 0.0000e+00 -1.0000e+00
       13  1    1    2    0    0 +1.6575644480e+02 -6.5349202863e+01 -2.2173164899e+01 1.7954767208e+02 0.0000000000e+00 0.0000e+00 1.0000e+00
<mgrwt>
<rscale>  0 0.35915859E+03</rscale>
<asrwt>0</asrwt>
<pdfrwt beam="1">  1        2 0.27666792E-01 0.35915859E+03</pdfrwt>
<pdfrwt beam="2">  1       -2 0.27588432E-01 0.35915859E+03</pdfrwt>
<totfact> 0.26816333E+03</totfact>
</mgrwt>
<rwgt>
<wgt id='morphing_basis_vector_1'> +3.5022975e-04 </wgt>
<wgt id='morphing_basis_vector_2'> +2.2785605e-04 </wgt>
<wgt id='morphing_basis_vector_3'> +1.8628869e-04 </wgt>
<wgt id='morphing_basis_vector_4'> +4.1812119e-05 </wgt>
<wgt id='morphing_basis_vector_5'> +2.4878206e-05 </wgt>
</rwgt>
</event>
<event>
 4      1 +5.5534000e-05 3.20963000e+02 7.81860800e-03 9.92391800e-02
        2 -1    0    0  501    0 +0.0000000000e+00 +0.0000000000e+00 +1.0403196054e+03 1.0403196054e+03 0.0000000000e+00 0.0000e+00 -1.0000e+00
       -2 -1    0    0    0  501 -0.0000000000e+00 -0.0000000000e+00 -2.4756152154e+01 2.4756152154e+01 0.0000000000e+00 0.0000e+00 1.0000e+00
      -13  1    1    2    0    0 -1.1219344914e+02 +8.4060036694e+01 +2.4859023723e+02 2.8539545519e+02 0.0000000000e+00 0.0000e+00 1.0000e+00
       13  1    1    2    0    0 +1.1219344914e+02 -8.4060036694e+01 +7.6697321600e+02 7.7968030235e+02 0.0000000000e+00 0.0000e+00 -1.0000e+00
<mgrwt>
<rscale>  0 0.32096299E+03</rscale>
<asrwt>0</asrwt>
<pdfrwt beam="1">  1        2 0.16004914E+00 0.32096299E+03</pdfrwt>
<pdfrwt beam="2">  1       -2 0.38086396E-02 0.32096299E+03</pdfrwt>
<totfact> 0.77596067E+03</totfact>
</mgrwt>
<rwgt>
<wgt id='morphing_basis_vector_1'> +2.5824885e-04 </wgt>
<wgt id='morphing_basis_vector_2'> +1.4383407e-04 </wgt>
<wgt id='morphing_basis_vector_3'> +1.5147023e-04 </wgt>
<wgt id='morphing_basis_vector_4'> +2.5952848e-05 </wgt>
<wgt id='morphing_basis_vector_5'> +5.5011572e-06 </wgt>
</rwgt>
</event>
<event>
 4      1 +5.5534000e-05 3.09698600e+02 7.81860800e-03 9.96881900e-02
        2 -1    0    0  501    0 +0.0000000000e+00 +0.0000000000e+00 +3.6044290598e+01 3.6044290598e+01 0.0000000000e+00 0.0000e+00 -1.0000e+00
       -2 -1    0    0    0  501 -0.0000000000e+00 -0.0000000000e+00 -6.6524576760e+02 6.6524576760e+02 0.0000000000e+00 0.0000e+00 1.0000e+00
      -13  1    1    2    0    0 +1.4638614141e+02 -9.0968228603e+00 -4.2706454609e+02 4.5154820463e+02 0.0000000000e+00 0.0000e+00 1.0000e+00
       13  1    1    2    0    0 -1.4638614141e+02 +9.0968228603e+00 -2.0213693092e+02 2.4974185357e+02 0.0000000000e+00 0.0000e+00 -1.0000e+00
<mgrwt>
<rscale>  0 0.30969864E+03</rscale>
<asrwt>0</asrwt>
<pdfrwt beam="1">  1        2 0.55452752E-02 0.30969864E+03</pdfrwt>
<pdfrwt beam="2">  1       -2 0.10234551E+00 0.30969864E+03</pdfrwt>
<totfact> 0.14355653E+03</totfact>
</mgrwt>
<rwgt>
<wgt id='morphing_basis_vector_1'> +2.3988518e-04 </wgt>
<wgt id='morphing_basis_vector_2'> +1.3705446e-04 </wgt>
<wgt id='morphing_basis_vector_3'> +1.3773301e-04 </wgt>
<wgt id='morphing_basis_vector_4'> +2.4597734e-05 </wgt>
<wgt id='morphing_basis_vector_5'> +2.7662485e-06 </wgt>
</rwgt>
</event>
<event>
 4      1 +5.5534000e-05 3.59703800e+02 7.81860800e-03 9.78354200e-02
        2 -1    0    0  501    0 +0.0000000000e+00 +0.0000000000e+00 +4.6552673300e+02 4.6552673300e+02 0.0000000000e+00 0.0000e+00 -1.0000e+00
       -2 -1    0    0    0  501 -0.0000000000e+00 -0.0000000000e+00 -6.9484105665e+01 6.9484105665e+01 0.0000000000e+00 0.0000e+00 1.0000e+00
      -13  1    1    2    0    0 -1.0040117962e+02 +3.9053894406e+00 -2.3845775760e+01 1.0326795223e+02 0.0000000000e+00 0.0000e+00 1.0000e+00
       13  1    1    2    0    0 +1.0040117962e+02 -3.9053894406e+00 +4.1988840309e+02 4.3174288644e+02 0.0000000000e+00 0.0000e+00 -1.0000e+00
<mgrwt>
<rscale>  0 0.35970382E+03</rscale>
<asrwt>0</asrwt>
<pdfrwt beam="1">  1        2 0.71619495E-01 0.35970382E+03</pdfrwt>
<pdfrwt beam="2">  1       -2 0.10689863E-01 0.35970382E+03</pdfrwt>
<totfact> 0.43164656E+03</totfact>
</mgrwt>
<rwgt>
<wgt id='morphing_basis_vector_1'> +3.3568426e-04 </wgt>
<wgt id='morphing_basis_vector_2'> +1.8112083e-04 </wgt>
<wgt id='morphing_basis_vector_3'> +2.0570770e-04 </wgt>
<wgt id='morphing_basis_vector_4'> +3.7850832e-05 </wgt>
<wgt id='morphing_basis_vector_5'> +2.4239678e-05 </wgt>
</rwgt>
</event>
<event>
 4      1 +5.5534000e-05 3.06538600e+02 7.81860800e-03 9.98178100e-02
        2 -1    0    0  501    0 +0.0000000000e+00 +0.0000000000e+00 +9.5887353948e+02 9.5887353948e+02 0.0000000000e+00 0.0000e+00 -1.0000e+00
       -2 -1    0    0    0  501 -0.0000000000e+00 -0.0000000000e+00 -2.4499036142e+01 2.4499036142e+01 0.0000000000e+00 0.0000e+00 1.0000e+00
      -13  1    1    2    0    0 -1.1210282468e+02 +8.9825539914e+01 +2.9575310687e+02 3.2879411666e+02 0.0000000000e+00 0.0000e+00 1.0000e+00
       13  1    1    2    0    0 +1.1210282468e+02 -8.9825539914e+01 +6.3862139647e+02 6.5457845897e+02 0.0000000000e+00 0.0000e+00 -1.0000e+00
<mgrwt>
<rscale>  0 0.30653859E+03</rscale>
<asrwt>0</asrwt>
<pdfrwt beam="1">  1        2 0.14751898E+00 0.30653859E+03</pdfrwt>
<pdfrwt beam="2">  1       -2 0.37690832E-02 0.30653859E+03</pdfrwt>
<totfact> 0.88046692E+03</totfact>
</mgrwt>
<rwgt>
<wgt id='morphing_basis_vector_1'> +2.3445213e-04 </wgt>
<wgt id='morphing_basis_vector_2'> +1.3374816e-04 </wgt>
<wgt id='morphing_basis_vector_3'> +1.3486096e-04 </wgt>
<wgt id='morphing_basis_vector_4'> +2.4078373e-05 </wgt>
<wgt id='morphing_basis_vector_5'> +2.1612814e-06 </wgt>
</rwgt>
</event>
<event>
 4      1 +5.5534000e-05 3.52663400e+02 7.81860800e-03 9.80758800e-02
        2 -1    0    0  501    0 +0.0000000000e+00 +0.0000000000e+00 +6.1924370179e+02 6.1924370179e+02 0.0000000000e+00 0.0000e+00 -1.0000e+00
       -2 -1    0    0    0  501 -0.0000000000e+00 -0.0000000000e+00 -5.0211026264e+01 5.0211026264e+01 0.0000000000e+00 0.0000e+00 1.0000e+00
      -13  1    1    2    0    0 +4.7530985670e+01 +1.5995637201e+02 +1.7633710686e+02 2.4277563881e+02 0.0000000000e+00 0.0000e+00 1.0000e+00
       13  1    1    2    0    0 -4.7530985670e+01 -1.5995637201e+02 +3.9269556867e+02 4.2667908924e+02 0.0000000000e+00 0.0000e+00 -1.0000e+00
<mgrwt>
<rscale>  0 0.35266336E+03</rscale>
<asrwt>0</asrwt>
<pdfrwt beam="1">  1        2 0.95268256E-01 0.35266336E+03</pdfrwt>
<pdfrwt beam="2">  1       -2 0.77247737E-02 0.35266336E+03</pdfrwt>
<totfact> 0.51571874E+03</totfact>
</mgrwt>
<rwgt>
<wgt id='morphing_basis_vector_1'> +3.2258983e-04 </wgt>
<wgt id='morphing_basis_vector_2'> +1.8076711e-04 </wgt>
<wgt id='morphing_basis_vector_3'> +1.9158878e-04 </wgt>
<wgt id='morphing_basis_vector_4'> +3.5642230e-05 </wgt>
<wgt id='morphing_basis_vector_5'> +1.9800472e-05 </wgt>
</rwgt>
</event>
<event>
 4      1 +5.5534000e-05 3.50390000e+02 7.81860800e-03 9.81548200e-02
        2 -1    0    0  501    0 +0.0000000000e+00 +0.0000000000e+00 +4.0107731158e+01 4.0107731158e+01 0.0000000000e+00 0.0000e+00 1.0000e+00
       -2 -1    0    0    0  501 -0.0000000000e+00 -0.0000000000e+00 -7.6527110287e+02 7.6527110287e+02 0.0000000000e+00 0.0000e+00 -1.0000e+00
      -13  1    1    2    0    0 -1.7458727724e+02 +3.2390226614e+00 -3.9525619851e+02 4.3210955914e+02 0.0000000000e+00 0.0000e+00 -1.0000e+00
       13  1    1    2    0    0 +1.7458727724e+02 -3.2390226614e+00 -3.2990717321e+02 3.7326927489e+02 0.0000000000e+00 0.0000e+00 1.0000e+00
<mgrwt>
<rscale>  0 0.35039000E+03</rscale>
<asrwt>0</asrwt>
<pdfrwt beam="1">  1        2 0.61704203E-02 0.35039000E+03</pdfrwt>
<pdfrwt beam="2">  1       -2 0.11773401E+00 0.35039000E+03</pdfrwt>
<totfact> 0.88461287E+02</totfact>
</mgrwt>
<rwgt>
<wgt id='morphing_basis_vector_1'> +3.2198795e-04 </wgt>
<wgt id='morphing_basis_vector_2'> +1.9111887e-04 </wgt>
<wgt id='morphing_basis_vector_3'> +1.8286444e-04 </wgt>
<wgt id='morphing_basis_vector_4'> +3.6120337e-05 </wgt>
<wgt id='morphing_basis_vector_5'> +1.8704117e-05 </wgt>
</rwgt>
</event>
<event>
 4      1 +5.5534000e-05 3.09437400e+02 7.81860800e-03 9.96988400e-02
        2 -1    0    0  501    0 +0.0000000000e+00 +0.0000000000e+00 +1.3847498630e+03 1.3847498630e+03 0.0000000000e+00 0.0000e+00 -1.0000e+00
       -2 -1    0    0    0  501 -0.0000000000e+00 -0.0000000000e+00 -1.7286788392e+01 1.7286788392e+01 0.0000000000e+00 0.0000e+00 1.0000e+00
      -13  1    1    2    0    0 -4.5774182328e+01 +1.4747941730e+02 +7.2729053720e+02 7.4350318076e+02 0.0000000000e+00 0.0000e+00 1.0000e+00
       13  1    1    2    0    0 +4.5774182328e+01 -1.4747941730e+02 +6.4017253738e+02 6.5853347061e+02 0.0000000000e+00 0.0000e+00 -1.0000e+00
<mgrwt>
<rscale>  0 0.30943741E+03</rscale>
<asrwt>0</asrwt>
<pdfrwt beam="1">  1        2 0.21303835E+00 0.30943741E+03</pdfrwt>
<pdfrwt beam="2">  1       -2 0.26595070E-02 0.30943741E+03</pdfrwt>
<totfact> 0.84416437E+03</totfact>
</mgrwt>
<rwgt>
<wgt id='morphing_basis_vector_1'> +2.4609002e-04 </wgt>
<wgt id='morphing_basis_vector_2'> +1.5597373e-04 </wgt>
<wgt id='morphing_basis_vector_3'> +1.2798025e-04 </wgt>
<wgt id='morphing_basis_vector_4'> +2.7866849e-05 </wgt>
<wgt id='morphing_basis_vector_5'> +3.0029689e-06 </wgt>
</rwgt>
</event>
<event>
 4      1 +5.5534000e-05 3.02885300e+02 7.81860800e-03 9.99697500e-02
        2 -1    0    0  501    0 +0.0000000000e+00 +0.0000000000e+00 +2.4193568025e+02 2.4193568025e+02 0.0000000000e+00 0.0000e+00 1.0000e+00
       -2 -1    0    0    0  501 -0.0000000000e+00 -0.0000000000e+00 -9.4797403583e+01 9.4797403583e+01 0.0000000000e+00 0.0000e+00 -1.0000e+00
      -13  1    1    2    0    0 +7.6514297657e+01 +3.9067450995e+01 +2.1222270389e+02 2.2895235207e+02 0.0000000000e+00 0.0000e+00 1.0000e+00
       13  1    1    2    0    0 -7.6514297657e+01 -3.9067450995e+01 -6.5084427219e+01 1.0778073176e+02 0.0000000000e+00 0.0000e+00 -1.0000e+00
<mgrwt>
<rscale>  0 0.30288529E+03</rscale>
<asrwt>0</asrwt>
<pdfrwt beam="1">  1        2 0.37220874E-01 0.30288529E+03</pdfrwt>
<pdfrwt beam="2">  1       -2 0.14584216E-01 0.30288529E+03</pdfrwt>
<totfact> 0.54316853E+03</totfact>
</mgrwt>
<rwgt>
<wgt id='morphing_basis_vector_1'> +3.0015382e-04 </wgt>
<wgt id='morphing_basis_vector_2'> +3.3561070e-04 </wgt>
<wgt id='morphing_basis_vector_3'> +2.6967405e-05 </wgt>
<wgt id='morphing_basis_vector_4'> +6.1238219e-05 </wgt>
<wgt id='morphing_basis_vector_5'> +4.3249371e-06 </wgt>
</rwgt>
</event>
<event>
 4      1 +5.5534000e-05 3.55454500e+02 7.81860800e-03 9.79798300e-02
        2 -1    0    0  501    0 +0.0000000000e+00 +0.0000000000e+00 +2.6462545991e+02 2.6462545991e+02 0.0000000000e+00 0.0000e+00 -1.0000e+00
       -2 -1    0    0    0  501 -0.0000000000e+00 -0.0000000000e+00 -1.1936486602e+02 1.1936486602e+02 0.0000000000e+00 0.0000e+00 1.0000e+00
      -13  1    1    2    0    0 -2.0018043498e+01 -5.0651763618e+01 -1.1012755056e+02 1.2285927159e+02 0.0000000000e+00 0.0000e+00 1.0000e+00
       13  1    1    2    0    0 +2.0018043498e+01 +5.0651763618e+01 +2.5538814444e+02 2.6113105434e+02 0.0000000000e+00 0.0000e+00 -1.0000e+00
<mgrwt>
<rscale>  0 0.35545454E+03</rscale>
<asrwt>0</asrwt>
<pdfrwt beam="1">  1        2 0.40711609E-01 0.35545454E+03</pdfrwt>
<pdfrwt beam="2">  1       -2 0.18363826E-01 0.35545454E+03</pdfrwt>
<totfact> 0.34151765E+03</totfact>
</mgrwt>
<rwgt>
<wgt id='morphing_basis_vector_1'> +3.2604168e-04 </wgt>
<wgt id='morphing_basis_vector_2'> +1.7590158e-04 </wgt>
<wgt id='morphing_basis_vector_3'> +1.9911552e-04 </wgt>
<wgt id='morphing_basis_vector_4'> +3.5981404e-05 </wgt>
<wgt id='morphing_basis_vector_5'> +2.1387110e-05 </wgt>
</rwgt>
</event>
<event>
 4      1 +5.5534000e-05 3.46425500e+02 7.81860800e-03 9.82940500e-02
        2 -1    0    0  501    0 +0.0000000000e+00 +0.0000000000e+00 +4.2629581869e+01 4.2629581869e+01 0.0000000000e+00 0.0000e+00 -1.0000e+00
       -2 -1    0    0    0  501 -0.0000000000e+00 -0.0000000000e+00 -7.0379882206e+02 7.0379882206e+02 0.0000000000e+00 0.0000e+00 1.0000e+00
      -13  1    1    2    0    0 -7.8865892989e+01 +1.0167122753e+02 -5.8043003794e+02 5.9452156944e+02 0.0000000000e+00 0.0000e+00 1.0000e+00
       13  1    1    2    0    0 +7.8865892989e+01 -1.0167122753e+02 -8.0739202247e+01 1.5190683449e+02 0.0000000000e+00 0.0000e+00 -1.0000e+00
<mgrwt>
<rscale>  0 0.34642546E+03</rscale>
<asrwt>0</asrwt>
<pdfrwt beam="1">  1        2 0.65583980E-02 0.34642546E+03</pdfrwt>
<pdfrwt beam="2">  1       -2 0.10827673E+00 0.34642546E+03</pdfrwt>
<totfact> 0.10063007E+03</totfact>
</mgrwt>
<rwgt>
<wgt id='morphing_basis_vector_1'> +3.0694996e-04 </wgt>
<wgt id='morphing_basis_vector_2'> +1.6703299e-04 </wgt>
<wgt id='morphing_basis_vector_3'> +1.8515976e-04 </wgt>
<wgt id='morphing_basis_vector_4'> +3.2617722e-05 </wgt>
<wgt id='morphing_basis_vector_5'> +1.6045923e-05 </wgt>
</rwgt>
</event>
<event>
 4      1 +5.5534000e-05 3.11640700e+02 7.81860800e-03 9.96093300e-02
        2 -1    0    0  501    0 +0.0000000000e+00 +0.0000000000e+00 +1.0984227383e+02 1.0984227383e+02 0.0000000000e+00 0.0000e+00 -1.0000e+00
       -2 -1    0    0    0  501 -0.0000000000e+00 -0.0000000000e+00 -2.2104404187e+02 2.2104404187e+02 0.0000000000e+00 0.0000e+00 1.0000e+00
      -13  1    1    2    0    0 +1.0395607517e+01 -8.1789554538e+01 -1.9598724886e+02 2.1262314456e+02 0.0000000000e+00 0.0000e+00 1.0000e+00
       13  1    1    2    0    0 -1.0395607517e+01 +8.1789554538e+01 +8.4785480828e+01 1.1826317113e+02 0.0000000000e+00 0.0000e+00 -1.0000e+00
<mgrwt>
<rscale>  0 0.31164069E+03</rscale>
<asrwt>0</asrwt>
<pdfrwt beam="1">  1        2 0.16898811E-01 0.31164069E+03</pdfrwt>
<pdfrwt beam="2">  1       -2 0.34006776E-01 0.31164069E+03</pdfrwt>
<totfact> 0.33045748E+03</totfact>
</mgrwt>
<rwgt>
<wgt id='morphing_basis_vector_1'> +2.4124193e-04 </wgt>
<wgt id='morphing_basis_vector_2'> +1.3323489e-04 </wgt>
<wgt id='morphing_basis_vector_3'> +1.4243938e-04 </wgt>
<wgt id='morphing_basis_vector_4'> +2.3943625e-05 </wgt>
<wgt id='morphing_basis_vector_5'> +3.0863840e-06 </wgt>
</rwgt>
</event>
<event>
 4      1 +5.5534000e-05 3.10745900e+02 7.81860800e-03 9.96455900e-02
        2 -1    0    0  501    0 +0.0000000000e+00 +0.0000000000e+00 +1.0950146899e+02 1.0950146899e+02 0.0000000000e+00 0.0000e+00 -1.0000e+00
       -2 -1    0    0    0  501 -0.0000000000e+00 -0.0000000000e+00 -2.2046050664e+02 2.2046050664e+02 0.0000000000e+00 0.0000e+00 1.0000e+00
      -13  1    1    2    0    0 -7.4239879675e+01 +1.3116058014e+02 -9.5578401361e+01 1.7846537010e+02 0.0000000000e+00 0.0000e+00 1.0000e+00
       13  1    1    2    0    0 +7.4239879675e+01 -1.3116058014e+02 -1.5380636283e+01 1.5149660554e+02 0.0000000000e+00 0.0000e+00 -1.0000e+00
<mgrwt>
<rscale>  0 0.31074587E+03</rscale>
<asrwt>0</asrwt>
<pdfrwt beam="1">  1        2 0.16846380E-01 0.31074587E+03</pdfrwt>
<pdfrwt beam="2">  1       -2 0.33917000E-01 0.31074587E+03</pdfrwt>
<totfact> 0.33321036E+03</totfact>
</mgrwt>
<rwgt>
<wgt id='morphing_basis_vector_1'> +2.4239332e-04 </wgt>
<wgt id='morphing_basis_vector_2'> +1.4013850e-04 </wgt>
<wgt id='morphing_basis_vector_3'> +1.3773566e-04 </wgt>
<wgt id='morphing_basis_vector_4'> +2.5115631e-05 </wgt>
<wgt id='morphing_basis_vector_5'> +3.0149271e-06 </wgt>
</rwgt>
</event>
<event>
 4      1 +5.5534000e-05 3.15725300e+02 7.81860800e-03 9.94454500e-02
        2 -1    0    0  501    0 +0.0000000000e+00 +0.0000000000e+00 +1.0093336665e+02 1.0093336665e+02 0.0000000000e+00 0.0000e+00 -1.0000e+00
       -2 -1    0    0    0  501 -0.0000000000e+00 -0.0000000000e+00 -2.4690165797e+02 2.4690165797e+02 0.0000000000e+00 0.0000e+00 1.0000e+00
      -13  1    1    2    0    0 -5.0448359321e+01 -8.4400662642e+01 -2.0904363922e+02 2.3101461406e+02 0.0000000000e+00 0.0000e+00 1.0000e+00
       13  1    1    2    0    0 +5.0448359321e+01 +8.4400662642e+01 +6.3075347895e+01 1.1682041057e+02 0.0000000000e+00 0.0000e+00 -1.0000e+00
<mgrwt>
<rscale>  0 0.31572530E+03</rscale>
<asrwt>0</asrwt>
<pdfrwt beam="1">  1        2 0.15528210E-01 0.31572530E+03</pdfrwt>
<pdfrwt beam="2">  1       -2 0.37984870E-01 0.31572530E+03</pdfrwt>
<totfact> 0.30030911E+03</totfact>
</mgrwt>
<rwgt>
<wgt id='morphing_basis_vector_1'> +2.4823738e-04 </wgt>
<wgt id='morphing_basis_vector_2'> +1.3683093e-04 </wgt>
<wgt id='morphing_basis_vector_3'> +1.4674598e-04 </wgt>
<wgt id='morphing_basis_vector_4'> +2.4618517e-05 </wgt>
<wgt id='morphing_basis_vector_5'> +4.0362776e-06 </wgt>
</rwgt>
</event>
<event>
 4      1 +5.5534000e-05 3.00710200e+02 7.81860800e-03 1.00061300e-01
        2 -1    0    0  501    0 +0.0000000000e+00 +0.0000000000e+00 +5.5311575391e+01 5.5311575391e+01 0.0000000000e+00 0.0000e+00 -1.0000e+00
       -2 -1    0    0    0  501 -0.0000000000e+00 -0.0000000000e+00 -4.0871471999e+02 4.0871471999e+02 0.0000000000e+00 0.0000e+00 1.0000e+00
      -13  1    1    2    0    0 +7.6115534394e+01 +1.3631989367e+00 -3.7677715300e+02 3.8439101955e+02 0.0000000000e+00 0.0000e+00 1.0000e+00
       13  1    1    2    0    0 -7.6115534394e+01 -1.3631989367e+00 +2.3374008404e+01 7.9635275829e+01 0.0000000000e+00 0.0000e+00 -1.0000e+00
<mgrwt>
<rscale>  0 0.30071019E+03</rscale>
<asrwt>0</asrwt>
<pdfrwt beam="1">  1        2 0.85094729E-02 0.30071019E+03</pdfrwt>
<pdfrwt beam="2">  1       -2 0.62879190E-01 0.30071019E+03</pdfrwt>
<totfact> 0.24129392E+03</totfact>
</mgrwt>
<rwgt>
<wgt id='morphing_basis_vector_1'> +2.2358974e-04 </wgt>
<wgt id='morphing_basis_vector_2'> +1.2461837e-04 </wgt>
<wgt id='morphing_basis_vector_3'> +1.3148207e-04 </wgt>
<wgt id='morphing_basis_vector_4'> +2.2629132e-05 </wgt>
<wgt id='morphing_basis_vector_5'> +1.2101594e-06 </wgt>
</rwgt>
</event>
<event>
 4      1 +5.5534000e-05 3.49941400e+02 7.81860800e-03 9.81704700e-02
        2 -1    0    0  501    0 +0.0000000000e+00 +0.0000000000e+00 +1.0456831621e+03 1.0456831621e+03 0.0000000000e+00 0.0000e+00 -1.0000e+00
       -2 -1    0    0    0  501 -0.0000000000e+00 -0.0000000000e+00 -2.9277272563e+01 2.9277272563e+01 0.0000000000e+00 0.0000e+00 1.0000e+00
      -13  1    1    2    0    0 -1.2530464306e+02 -1.1290144768e+02 +3.6521396327e+02 4.0228003856e+02 0.0000000000e+00 0.0000e+00 1.0000e+00
       13  1    1    2    0    0 +1.2530464306e+02 +1.1290144768e+02 +6.5119192625e+02 6.7268039608e+02 0.0000000000e+00 0.0000e+00 -1.0000e+00
<mgrwt>
<rscale>  0 0.34994143E+03</rscale>
<asrwt>0</asrwt>
<pdfrwt beam="1">  1        2 0.16087430E+00 0.34994143E+03</pdfrwt>
<pdfrwt beam="2">  1       -2 0.45041966E-02 0.34994143E+03</pdfrwt>
<totfact> 0.60123887E+03</totfact>
</mgrwt>
<rwgt>
<wgt id='morphing_basis_vector_1'> +3.1737618e-04 </wgt>
<wgt id='morphing_basis_vector_2'> +1.7972782e-04 </wgt>
<wgt id='morphing_basis_vector_3'> +1.8665304e-04 </wgt>
<wgt id='morphing_basis_vector_4'> +3.4828066e-05 </wgt>
<wgt id='morphing_basis_vector_5'> +1.8212964e-05 </wgt>
</rwgt>
</event>
<event>
 4      1 +5.5534000e-05 3.33413500e+02 7.81860800e-03 9.87655900e-02
        2 -1    0    0  501    0 +0.0000000000e+00 +0.0000000000e+00 +7.0910271655e+02 7.0910271655e+02 0.0000000000e+00 0.0000e+00 -1.0000e+00
       -2 -1    0    0    0  501 -0.0000000000e+00 -0.0000000000e+00 -3.9191972713e+01 3.9191972713e+01 0.0000000000e+00 0.0000e+00 1.0000e+00
      -13  1    1    2    0    0 -1.1442622704e+02 +6.3349544747e+01 +5.6694513888e+02 5.8183615972e+02 0.0000000000e+00 0.0000e+00 1.0000e+00
       13  1    1    2    0    0 +1.1442622704e+02 -6.3349544747e+01 +1.0296560495e+02 1.6645852954e+02 0.0000000000e+00 0.0000e+00 -1.0000e+00
<mgrwt>
<rscale>  0 0.33341346E+03</rscale>
<asrwt>0</asrwt>
<pdfrwt beam="1">  1        2 0.10909272E+00 0.33341346E+03</pdfrwt>
<pdfrwt beam="2">  1       -2 0.60295348E-02 0.33341346E+03</pdfrwt>
<totfact> 0.63978351E+03</totfact>
</mgrwt>
<rwgt>
<wgt id='morphing_basis_vector_1'> +3.4247529e-04 </wgt>
<wgt id='morphing_basis_vector_2'> +3.3570233e-04 </wgt>
<wgt id='morphing_basis_vector_3'> +8.6441434e-05 </wgt>
<wgt id='morphing_basis_vector_4'> +5.2675452e-05 </wgt>
<wgt id='morphing_basis_vector_5'> +1.3365954e-05 </wgt>
</rwgt>
</event>
<event>
 4      1 +5.5534000e-05 3.43796400e+02 7.81860800e-03 9.83875000e-02
        2 -1    0    0  501    0 +0.0000000000e+00 +0.0000000000e+00 +8.3074093042e+02 8.3074093042e+02 0.0000000000e+00 0.0000e+00 1.0000e+00
       -2 -1    0    0    0  501 -0.0000000000e+00 -0.0000000000e+00 -3.5569434369e+01 3.5569434369e+01 0.0000000000e+00 0.0000e+00 -1.0000e+00
      -13  1    1    2    0    0 +1.6299288353e+02 +5.2817937246e+01 +3.6261805129e+02 4.0105893045e+02 0.0000000000e+00 0.0000e+00 -1.0000e+00
       13  1    1    2    0    0 -1.6299288353e+02 -5.2817937246e+01 +4.3255344477e+02 4.6525143434e+02 0.0000000000e+00 0.0000e+00 1.0000e+00
<mgrwt>
<rscale>  0 0.34379636E+03</rscale>
<asrwt>0</asrwt>
<pdfrwt beam="1">  1        2 0.12780628E+00 0.34379636E+03</pdfrwt>
<pdfrwt beam="2">  1       -2 0.54722213E-02 0.34379636E+03</pdfrwt>
<totfact> 0.61037741E+03</totfact>
</mgrwt>
<rwgt>
<wgt id='morphing_basis_vector_1'> +3.0776079e-04 </wgt>
<wgt id='morphing_basis_vector_2'> +1.8289596e-04 </wgt>
<wgt id='morphing_basis_vector_3'> +1.7351964e-04 </wgt>
<wgt id='morphing_basis_vector_4'> +3.3854390e-05 </wgt>
<wgt id='morphing_basis_vector_5'> +1.5033093e-05 </wgt>
</rwgt>
</event>
<event>
 4      1 +5.5534000e-05 3.41474300e+02 7.81860800e-03 9.84707900e-02
        2 -1    0    0  501    0 +0.0000000000e+00 +0.0000000000e+00 +5.8114982850e+02 5.8114982850e+02 0.0000000000e+00 0.0000e+00 1.0000e+00
       -2 -1    0    0    0  501 -0.0000000000e+00 -0.0000000000e+00 -5.0161193731e+01 5.0161193731e+01 0.0000000000e+00 0.0000e+00 -1.0000e+00
      -13  1    1    2    0    0 -1.1278300480e+02 -7.2810004970e+01 +7.0451321981e+01 1.5160703073e+02 0.0000000000e+00 0.0000e+00 -1.0000e+00
       13  1    1    2    0    0 +1.1278300480e+02 +7.2810004970e+01 +4.6053731279e+02 4.7970399151e+02 0.0000000000e+00 0.0000e+00 1.0000e+00
<mgrwt>
<rscale>  0 0.34147427E+03</rscale>
<asrwt>0</asrwt>
<pdfrwt beam="1">  1        2 0.89407661E-01 0.34147427E+03</pdfrwt>
<pdfrwt beam="2">  1       -2 0.77171071E-02 0.34147427E+03</pdfrwt>
<totfact> 0.55501999E+03</totfact>
</mgrwt>
<rwgt>
<wgt id='morphing_basis_vector_1'> +2.9687293e-04 </wgt>
<wgt id='morphing_basis_vector_2'> +1.6223994e-04 </wgt>
<wgt id='morphing_basis_vector_3'> +1.7799960e-04 </wgt>
<wgt id='morphing_basis_vector_4'> +3.1001802e-05 </wgt>
<wgt id='morphing_basis_vector_5'> +1.3489980e-05 </wgt>
</rwgt>
</event>
<event>
 4      1 +5.5534000e-05 3.58196500e+02 7.81860800e-03 9.78864000e-02
        2 -1    0    0  501    0 +0.0000000000e+00 +0.0000000000e+00 +4.6618766906e+01 4.6618766906e+01 0.0000000000e+00 0.0000e+00 1.0000e+00
       -2 -1    0    0    0  501 -0.0000000000e+00 -0.0000000000e+00 -6.8805299628e+02 6.8805299628e+02 0.0000000000e+00 0.0000e+00 -1.0000e+00
      -13  1    1    2    0    0 -1.1935743051e+02 +1.2717891022e+02 -4.0416936063e+02 4.4019716434e+02 0.0000000000e+00 0.0000e+00 -1.0000e+00
       13  1    1    2    0    0 +1.1935743051e+02 -1.2717891022e+02 -2.3726486874e+02 2.9447459884e+02 0.0000000000e+00 0.0000e+00 1.0000e+00
<mgrwt>
<rscale>  0 0.35819649E+03</rscale>
<asrwt>0</asrwt>
<pdfrwt beam="1">  1        2 0.71721184E-02 0.35819649E+03</pdfrwt>
<pdfrwt beam="2">  1       -2 0.10585430E+00 0.35819649E+03</pdfrwt>
<totfact> 0.94678953E+02</totfact>
</mgrwt>
<rwgt>
<wgt id='morphing_basis_vector_1'> +3.3638137e-04 </wgt>
<wgt id='morphing_basis_vector_2'> +1.9168994e-04 </wgt>
<wgt id='morphing_basis_vector_3'> +1.9844862e-04 </wgt>
<wgt id='morphing_basis_vector_4'> +3.8297103e-05 </wgt>
<wgt id='morphing_basis_vector_5'> +2.3469654e-05 </wgt>
</rwgt>
</event>
<event>
 4      1 +5.5534000e-05 3.52995100e+02 7.81860800e-03 9.80644100e-02
        2 -1    0    0  501    0 +0.0000000000e+00 +0.0000000000e+00 +2.9101955905e+02 2.9101955905e+02 0.0000000000e+00 0.0000e+00 1.0000e+00
       -2 -1    0    0    0  501 -0.0000000000e+00 -0.0000000000e+00 -1.0704225259e+02 1.0704225259e+02 0.0000000000e+00 0.0000e+00 -1.0000e+00
      -13  1    1    2    0    0 -5.0903967916e+01 +1.4983640887e+02 +1.8012902910e+02 2.3976786794e+02 0.0000000000e+00 0.0000e+00 1.0000e+00
       13  1    1    2    0    0 +5.0903967916e+01 -1.4983640887e+02 +3.8482773657e+00 1.5829394370e+02 0.0000000000e+00 0.0000e+00 -1.0000e+00
<mgrwt>
<rscale>  0 0.35299512E+03</rscale>
<asrwt>0</asrwt>
<pdfrwt beam="1">  1        2 0.44772240E-01 0.35299512E+03</pdfrwt>
<pdfrwt beam="2">  1       -2 0.16468039E-01 0.35299512E+03</pdfrwt>
<totfact> 0.36644954E+03</totfact>
</mgrwt>
<rwgt>
<wgt id='morphing_basis_vector_1'> +3.6433716e-04 </wgt>
<wgt id='morphing_basis_vector_2'> +3.0381586e-04 </wgt>
<wgt id='morphing_basis_vector_3'> +1.4251359e-04 </wgt>
<wgt id='morphing_basis_vector_4'> +4.7939362e-05 </wgt>
<wgt id='morphing_basis_vector_5'> +2.2595558e-05 </wgt>
</rwgt>
</event>
<event>
 4      1 +5.5534000e-05 3.07840600e+02 7.81860800e-03 9.97642000e-02
        2 -1    0    0  501    0 +0.0000000000e+00 +0.0000000000e+00 +6.9337137164e+02 6.9337137164e+02 0.0000000000e+00 0.0000e+00 1.0000e+00
       -2 -1    0    0    0  501 -0.0000000000e+00 -0.0000000000e+00 -3.4168505623e+01 3.4168505623e+01 0.0000000000e+00 0.0000e+00 -1.0000e+00
      -13  1    1    2    0    0 +1.1463966470e+02 +8.0498345196e+01 +4.8036167863e+02 5.0036944211e+02 0.0000000000e+00 0.0000e+00 -1.0000e+00
       13  1    1    2    0    0 -1.1463966470e+02 -8.0498345196e+01 +1.7884118738e+02 2.2717043515e+02 0.0000000000e+00 0.0000e+00 1.0000e+00
<mgrwt>
<rscale>  0 0.30784063E+03</rscale>
<asrwt>0</asrwt>
<pdfrwt beam="1">  1        2 0.10667251E+00 0.30784063E+03</pdfrwt>
<pdfrwt beam="2">  1       -2 0.52566937E-02 0.30784063E+03</pdfrwt>
<totfact> 0.80533006E+03</totfact>
</mgrwt>
<rwgt>
<wgt id='morphing_basis_vector_1'> +2.6322052e-04 </wgt>
<wgt id='morphing_basis_vector_2'> +2.1149056e-04 </wgt>
<wgt id='morphing_basis_vector_3'> +9.7924477e-05 </wgt>
<wgt id='morphing_basis_vector_4'> +3.7675649e-05 </wgt>
<wgt id='morphing_basis_vector_5'> +3.5249998e-06 </wgt>
</rwgt>
</event>
<event>
 4      1 +5.5534000e-05 3.39308200e+02 7.81860800e-03 9.85491300e-02
        2 -1    0    0  501    0 +0.0000000000e+00 +0.0000000000e+00 +3.8159822327e+02 3.8159822327e+02 0.0000000000e+00 0.0000e+00 -1.0000e+00
       -2 -1    0    0    0  501 -0.0000000000e+00 -0.0000000000e+00 -7.5426215524e+01 7.5426215524e+01 0.0000000000e+00 0.0000e+00 1.0000e+00
      -13  1    1    2    0    0 +2.9664853675e+01 -1.2944346107e+02 +1.0878640198e+01 1.3324397911e+02 0.0000000000e+00 0.0000e+00 1.0000e+00
       13  1    1    2    0    0 -2.9664853675e+01 +1.2944346107e+02 +2.9529336755e+02 3.2378045969e+02 0.0000000000e+00 0.0000e+00 -1.0000e+00
<mgrwt>
<rscale>  0 0.33930818E+03</rscale>
<asrwt>0</asrwt>
<pdfrwt beam="1">  1        2 0.58707418E-01 0.33930818E+03</pdfrwt>
<pdfrwt beam="2">  1       -2 0.11604033E-01 0.33930818E+03</pdfrwt>
<totfact> 0.47246876E+03</totfact>
</mgrwt>
<rwgt>
<wgt id='morphing_basis_vector_1'> +2.9247749e-04 </wgt>
<wgt id='morphing_basis_vector_2'> +1.5994517e-04 </wgt>
<wgt id='morphing_basis_vector_3'> +1.7506715e-04 </wgt>
<wgt id='morphing_basis_vector_4'> +3.0316505e-05 </wgt>
<wgt id='morphing_basis_vector_5'> +1.2447332e-05 </wgt>
</rwgt>
</event>
<event>
 4      1 +5.5534000e-05 3.44881300e+02 7.81860800e-03 9.83488300e-02
        2 -1    0    0  501    0 +0.0000000000e+00 +0.0000000000e+00 +1.2548505988e+02 1.2548505988e+02 0.0000000000e+00 0.0000e+00 -1.0000e+00
       -2 -1    0    0    0  501 -0.0000000000e+00 -0.0000000000e+00 -2.3696667017e+02 2.3696667017e+02 0.0000000000e+00 0.0000e+00 1.0000e+00
      -13  1    1    2    0    0 +9.8707261006e+01 +1.4128790664e+02 -6.1533498615e+01 1.8300756102e+02 0.0000000000e+00 0.0000e+00 1.0000e+00
       13  1    1    2    0    0 -9.8707261006e+01 -1.4128790664e+02 -4.9948111673e+01 1.7944416903e+02 0.0000000000e+00 0.0000e+00 -1.0000e+00
<mgrwt>
<rscale>  0 0.34488129E+03</rscale>
<asrwt>0</asrwt>
<pdfrwt beam="1">  1        2 0.19305394E-01 0.34488129E+03</pdfrwt>
<pdfrwt beam="2">  1       -2 0.36456411E-01 0.34488129E+03</pdfrwt>
<totfact> 0.24986274E+03</totfact>
</mgrwt>
<rwgt>
<wgt id='morphing_basis_vector_1'> +3.1140855e-04 </wgt>
<wgt id='morphing_basis_vector_2'> +1.8822925e-04 </wgt>
<wgt id='morphing_basis_vector_3'> +1.7333315e-04 </wgt>
<wgt id='morphing_basis_vector_4'> +3.4660881e-05 </wgt>
<wgt id='morphing_basis_vector_5'> +1.5687165e-05 </wgt>
</rwgt>
</event>
<event>
 4      1 +5.5534000e-05 3.22234100e+02 7.81860800e-03 9.91897600e-02
        2 -1    0    0  501    0 +0.0000000000e+00 +0.0000000000e+00 +2.1889338233e+02 2.1889338233e+02 0.0000000000e+00 0.0000e+00 1.0000e+00
       -2 -1    0    0    0  501 -0.0000000000e+00 -0.0000000000e+00 -1.1859063077e+02 1.1859063077e+02 0.0000000000e+00 0.0000e+00 -1.0000e+00
      -13  1    1    2    0    0 -7.6187708360e+01 +1.0894195234e+02 -4.5182801421e+01 1.4040798207e+02 0.0000000000e+00 0.0000e+00 -1.0000e+00
       13  1    1    2    0    0 +7.6187708360e+01 -1.0894195234e+02 +1.4548555298e+02 1.9707603104e+02 0.0000000000e+00 0.0000e+00 1.0000e+00
<mgrwt>
<rscale>  0 0.32223410E+03</rscale>
<asrwt>0</asrwt>
<pdfrwt beam="1">  1        2 0.33675905E-01 0.32223410E+03</pdfrwt>
<pdfrwt beam="2">  1       -2 0.18244712E-01 0.32223410E+03</pdfrwt>
<totfact> 0.42544783E+03</totfact>
</mgrwt>
<rwgt>
<wgt id='morphing_basis_vector_1'> +2.6019085e-04 </wgt>
<wgt id='morphing_basis_vector_2'> +1.4400148e-04 </wgt>
<wgt id='morphing_basis_vector_3'> +1.5339896e-04 </wgt>
<wgt id='morphing_basis_vector_4'> +2.6056899e-05 </wgt>
<wgt id='morphing_basis_vector_5'> +5.8659788e-06 </wgt>
</rwgt>
</event>
<event>
 4      1 +5.5534000e-05 3.56047900e+02 7.81860800e-03 9.79595300e-02
        2 -1    0    0  501    0 +0.0000000000e+00 +0.0000000000e+00 +1.4195690125e+02 1.4195690125e+02 0.0000000000e+00 0.0000e+00 1.0000e+00
       -2 -1    0    0    0  501 -0.0000000000e+00 -0.0000000000e+00 -2.2325461623e+02 2.2325461623e+02 0.0000000000e+00 0.0000e+00 -1.0000e+00
      -13  1    1    2    0    0 -3.5151349021e+01 -1.3011542127e+02 +7.8649653442e+01 1.5604937737e+02 0.0000000000e+00 0.0000e+00 1.0000e+00
       13  1    1    2    0    0 +3.5151349021e+01 +1.3011542127e+02 -1.5994736842e+02 2.0916214011e+02 0.0000000000e+00 0.0000e+00 -1.0000e+00
<mgrwt>
<rscale>  0 0.35604794E+03</rscale>
<asrwt>0</asrwt>
<pdfrwt beam="1">  1        2 0.21839523E-01 0.35604794E+03</pdfrwt>
<pdfrwt beam="2">  1       -2 0.34346864E-01 0.35604794E+03</pdfrwt>
<totfact> 0.24055897E+03</totfact>
</mgrwt>
<rwgt>
<wgt id='morphing_basis_vector_1'> +4.0639676e-04 </wgt>
<wgt id='morphing_basis_vector_2'> +4.1337302e-04 </wgt>
<wgt id='morphing_basis_vector_3'> +1.0582634e-04 </wgt>
<wgt id='morphing_basis_vector_4'> +5.8495158e-05 </wgt>
<wgt id='morphing_basis_vector_5'> +2.6813245e-05 </wgt>
</rwgt>
</event>
<event>
 4      1 +5.5534000e-05 3.10785500e+02 7.81860800e-03 9.96439800e-02
        2 -1    0    0  501    0 +0.0000000000e+00 +0.0000000000e+00 +4.6678477482e+02 4.6678477482e+02 0.0000000000e+00 0.0000e+00 -1.0000e+00
       -2 -1    0    0    0  501 -0.0000000000e+00 -0.0000000000e+00 -5.1730272860e+01 5.1730272860e+01 0.0000000000e+00 0.0000e+00 1.0000e+00
      -13  1    1    2    0    0 -1.2439231433e+02 +7.2437395761e+01 +3.0518619934e+02 3.3743034902e+02 0.0000000000e+00 0.0000e+00 1.0000e+00
       13  1    1    2    0    0 +1.2439231433e+02 -7.2437395761e+01 +1.0986830262e+02 1.8108469867e+02 0.0000000000e+00 0.0000e+00 -1.0000e+00
<mgrwt>
<rscale>  0 0.31078548E+03</rscale>
<asrwt>0</asrwt>
<pdfrwt beam="1">  1        2 0.71813040E-01 0.31078548E+03</pdfrwt>
<pdfrwt beam="2">  1       -2 0.79585038E-02 0.31078548E+03</pdfrwt>
<totfact> 0.67465538E+03</totfact>
</mgrwt>
<rwgt>
<wgt id='morphing_basis_vector_1'> +2.6540956e-04 </wgt>
<wgt id='morphing_basis_vector_2'> +2.0643279e-04 </wgt>
<wgt id='morphing_basis_vector_3'> +1.0513213e-04 </wgt>
<wgt id='morphing_basis_vector_4'> +3.6411660e-05 </wgt>
<wgt id='morphing_basis_vector_5'> +4.0441210e-06 </wgt>
</rwgt>
</event>
<event>
 4      1 +5.5534000e-05 3.51227400e+02 7.81860800e-03 9.81256700e-02
        2 -1    0    0  501    0 +0.0000000000e+00 +0.0000000000e+00 +8.1936097256e+01 8.1936097256e+01 0.0000000000e+00 0.0000e+00 1.0000e+00
       -2 -1    0    0    0  501 -0.0000000000e+00 -0.0000000000e+00 -3.7639305655e+02 3.7639305655e+02 0.0000000000e+00 0.0000e+00 -1.0000e+00
      -13  1    1    2    0    0 +6.1131339243e+01 +5.5442192277e+01 -3.4951158659e+02 3.5912285709e+02 0.0000000000e+00 0.0000e+00 -1.0000e+00
       13  1    1    2    0    0 -6.1131339243e+01 -5.5442192277e+01 +5.5054627296e+01 9.9206296719e+01 0.0000000000e+00 0.0000e+00 1.0000e+00
<mgrwt>
<rscale>  0 0.35122744E+03</rscale>
<asrwt>0</asrwt>
<pdfrwt beam="1">  1        2 0.12605554E-01 0.35122744E+03</pdfrwt>
<pdfrwt beam="2">  1       -2 0.57906623E-01 0.35122744E+03</pdfrwt>
<totfact> 0.17450040E+03</totfact>
</mgrwt>
<rwgt>
<wgt id='morphing_basis_vector_1'> +3.1681998e-04 </wgt>
<wgt id='morphing_basis_vector_2'> +1.7123040e-04 </wgt>
<wgt id='morphing_basis_vector_3'> +1.9263918e-04 </wgt>
<wgt id='morphing_basis_vector_4'> +3.4286126e-05 </wgt>
<wgt id='morphing_basis_vector_5'> +1.8764097e-05 </wgt>
</rwgt>
</event>
<event>
 4      1 +5.5534000e-05 3.41401200e+02 7.81860800e-03 9.84734200e-02
        2 -1    0    0  501    0 +0.0000000000e+00 +0.0000000000e+00 +1.0157104187e+02 1.0157104187e+02 0.0000000000e+00 0.0000e+00 -1.0000e+00
       -2 -1    0    0    0  501 -0.0000000000e+00 -0.0000000000e+00 -2.8688000247e+02 2.8688000247e+02 0.0000000000e+00 0.0000e+00 1.0000e+00
      -13  1    1    2    0    0 +8.2287234768e+01 +3.4871435370e+01 -2.5813304215e+02 2.7316638420e+02 0.0000000000e+00 0.0000e+00 1.0000e+00
       13  1    1    2    0    0 -8.2287234768e+01 -3.4871435370e+01 +7.2824081549e+01 1.1528466014e+02 0.0000000000e+00 0.0000e+00 -1.0000e+00
<mgrwt>
<rscale>  0 0.34140123E+03</rscale>
<asrwt>0</asrwt>
<pdfrwt beam="1">  1        2 0.15626314E-01 0.34140123E+03</pdfrwt>
<pdfrwt beam="2">  1       -2 0.44135385E-01 0.34140123E+03</pdfrwt>
<totfact> 0.22667171E+03</totfact>
</mgrwt>
<rwgt>
<wgt id='morphing_basis_vector_1'> +2.9625059e-04 </wgt>
<wgt id='morphing_basis_vector_2'> +1.6075810e-04 </wgt>
<wgt id='morphing_basis_vector_3'> +1.7850114e-04 </wgt>
<wgt id='morphing_basis_vector_4'> +3.0811332e-05 </wgt>
<wgt id='morphing_basis_vector_5'> +1.3425652e-05 </wgt>
</rwgt>
</event>
<event>
 4      1 +5.5534000e-05 3.37212600e+02 7.81860800e-03 9.86255300e-02
        2 -1    0    0  501    0 +0.0000000000e+00 +0.0000000000e+00 +7.1430821532e+02 7.1430821532e+02 0.0000000000e+00 0.0000e+00 -1.0000e+00
       -2 -1    0    0    0  501 -0.0000000000e+00 -0.0000000000e+00 -3.9798066248e+01 3.9798066248e+01 0.0000000000e+00 0.0000e+00 1.0000e+00
      -13  1    1    2    0    0 -8.0204194832e+01 -9.8657691330e+01 +8.9621235373e+01 1.5555712377e+02 0.0000000000e+00 0.0000e+00 1.0000e+00
       13  1    1    2    0    0 +8.0204194832e+01 +9.8657691330e+01 +5.8488891370e+02 5.9854915779e+02 0.0000000000e+00 0.0000e+00 -1.0000e+00
<mgrwt>
<rscale>  0 0.33721261E+03</rscale>
<asrwt>0</asrwt>
<pdfrwt beam="1">  1        2 0.10989356E+00 0.33721261E+03</pdfrwt>
<pdfrwt beam="2">  1       -2 0.61227799E-02 0.33721261E+03</pdfrwt>
<totfact> 0.61990132E+03</totfact>
</mgrwt>
<rwgt>
<wgt id='morphing_basis_vector_1'> +2.8819266e-04 </wgt>
<wgt id='morphing_basis_vector_2'> +1.5749480e-04 </wgt>
<wgt id='morphing_basis_vector_3'> +1.7239831e-04 </wgt>
<wgt id='morphing_basis_vector_4'> +2.9648547e-05 </wgt>
<wgt id='morphing_basis_vector_5'> +1.1479176e-05 </wgt>
</rwgt>
</event>
<event>
 4      1 +5.5534000e-05 3.03741400e+02 7.81860800e-03 9.99339400e-02
        2 -1    0    0  501    0 +0.0000000000e+00 +0.0000000000e+00 +7.6223412468e+02 7.6223412468e+02 0.0000000000e+00 0.0000e+00 1.0000e+00
       -2 -1    0    0    0  501 -0.0000000000e+00 -0.0000000000e+00 -3.0259340683e+01 3.0259340683e+01 0.0000000000e+00 0.0000e+00 -1.0000e+00
      -13  1    1    2    0    0 +4.6783236499e+01 +1.4150174072e+02 +2.8977253426e+02 3.2585201466e+02 0.0000000000e+00 0.0000e+00 -1.0000e+00
       13  1    1    2    0    0 -4.6783236499e+01 -1.4150174072e+02 +4.4220224974e+02 4.6664145071e+02 0.0000000000e+00 0.0000e+00 1.0000e+00
<mgrwt>
<rscale>  0 0.30374135E+03</rscale>
<asrwt>0</asrwt>
<pdfrwt beam="1">  1        2 0.11726677E+00 0.30374135E+03</pdfrwt>
<pdfrwt beam="2">  1       -2 0.46552838E-02 0.30374135E+03</pdfrwt>
<totfact> 0.86150973E+03</totfact>
</mgrwt>
<rwgt>
<wgt id='morphing_basis_vector_1'> +2.3143586e-04 </wgt>
<wgt id='morphing_basis_vector_2'> +1.3575527e-04 </wgt>
<wgt id='morphing_basis_vector_3'> +1.2993002e-04 </wgt>
<wgt id='morphing_basis_vector_4'> +2.4541177e-05 </wgt>
<wgt id='morphing_basis_vector_5'> +1.7585227e-06 </wgt>
</rwgt>
</event>
<event>
 4      1 +5.5534000e-05 3.29299000e+02 7.81860800e-03 9.89195700e-02
        2 -1    0    0  501    0 +0.0000000000e+00 +0.0000000000e+00 +1.1915781851e+02 1.1915781851e+02 0.0000000000e+00 0.0000e+00 1.0000e+00
       -2 -1    0    0    0  501 -0.0000000000e+00 -0.0000000000e+00 -2.2750887557e+02 2.2750887557e+02 0.0000000000e+00 0.0000e+00 -1.0000e+00
      -13  1    1    2    0    0 -3.0386510879e+01 -1.6144731063e+02 -6.5750282082e+01 1.7695104901e+02 0.0000000000e+00 0.0000e+00 -1.0000e+00
       13  1    1    2    0    0 +3.0386510879e+01 +1.6144731063e+02 -4.2600774982e+01 1.6971564507e+02 0.0000000000e+00 0.0000e+00 1.0000e+00
<mgrwt>
<rscale>  0 0.32929902E+03</rscale>
<asrwt>0</asrwt>
<pdfrwt beam="1">  1        2 0.18331972E-01 0.32929902E+03</pdfrwt>
<pdfrwt beam="2">  1       -2 0.35001365E-01 0.32929902E+03</pdfrwt>
<totfact> 0.28541093E+03</totfact>
</mgrwt>
<rwgt>
<wgt id='morphing_basis_vector_1'> +2.7879769e-04 </wgt>
<wgt id='morphing_basis_vector_2'> +1.6703339e-04 </wgt>
<wgt id='morphing_basis_vector_3'> +1.5440446e-04 </wgt>
<wgt id='morphing_basis_vector_4'> +2.9930416e-05 </wgt>
<wgt id='morphing_basis_vector_5'> +8.5653495e-06 </wgt>
</rwgt>
</event>
<event>
 4      1 +5.5534000e-05 3.51536400e+02 7.81860800e-03 9.81149300e-02
        2 -1    0    0  501    0 +0.0000000000e+00 +0.0000000000e+00 +5.3308847758e+02 5.3308847758e+02 0.0000000000e+00 0.0000e+00 -1.0000e+00
       -2 -1    0    0    0  501 -0.0000000000e+00 -0.0000000000e+00 -5.7953705330e+01 5.7953705330e+01 0.0000000000e+00 0.0000e+00 1.0000e+00
      -13  1    1    2    0    0 +5.0808578289e+01 +9.0991243820e+01 -4.0524858992e-01 1.0421651647e+02 0.0000000000e+00 0.0000e+00 1.0000e+00
       13  1    1    2    0    0 -5.0808578289e+01 -9.0991243820e+01 +4.7554002084e+02 4.8682566644e+02 0.0000000000e+00 0.0000e+00 -1.0000e+00
<mgrwt>
<rscale>  0 0.35153636E+03</rscale>
<asrwt>0</asrwt>
<pdfrwt beam="1">  1        2 0.82013609E-01 0.35153636E+03</pdfrwt>
<pdfrwt beam="2">  1       -2 0.89159550E-02 0.35153636E+03</pdfrwt>
<totfact> 0.49094674E+03</totfact>
</mgrwt>
<rwgt>
<wgt id='morphing_basis_vector_1'> +3.1756918e-04 </wgt>
<wgt id='morphing_basis_vector_2'> +1.7181628e-04 </wgt>
<wgt id='morphing_basis_vector_3'> +1.9300336e-04 </wgt>
<wgt id='morphing_basis_vector_4'> +3.4431016e-05 </wgt>
<wgt id='morphing_basis_vector_5'> +1.8954188e-05 </wgt>
</rwgt>
</event>
<event>
 4      1 +5.5534000e-05 3.28342000e+02 7.81860800e-03 9.89557400e-02
        2 -1    0    0  501    0 +0.0000000000e+00 +0.0000000000e+00 +1.1713772674e+02 1.1713772674e+02 0.0000000000e+00 0.0000e+00 -1.0000e+00
       -2 -1    0    0    0  501 -0.0000000000e+00 -0.0000000000e+00 -2.3008916886e+02 2.3008916886e+02 0.0000000000e+00 0.0000e+00 1.0000e+00
      -13  1    1    2    0    0 -1.5720203234e+02 +4.4710437640e+01 -7.2879832929e+01 1.7894963608e+02 0.0000000000e+00 0.0000e+00 1.0000e+00
       13  1    1    2    0    0 +1.5720203234e+02 -4.4710437640e+01 -4.0071609194e+01 1.6827725952e+02 0.0000000000e+00 0.0000e+00 -1.0000e+00
<mgrwt>
<rscale>  0 0.32834203E+03</rscale>
<asrwt>0</asrwt>
<pdfrwt beam="1">  1        2 0.18021189E-01 0.32834203E+03</pdfrwt>
<pdfrwt beam="2">  1       -2 0.35398333E-01 0.32834203E+03</pdfrwt>
<totfact> 0.28546048E+03</totfact>
</mgrwt>
<rwgt>
<wgt id='morphing_basis_vector_1'> +2.7633855e-04 </wgt>
<wgt id='morphing_basis_vector_2'> +1.6416403e-04 </wgt>
<wgt id='morphing_basis_vector_3'> +1.5408429e-04 </wgt>
<wgt id='morphing_basis_vector_4'> +2.9450012e-05 </wgt>
<wgt id='morphing_basis_vector_5'> +8.1757045e-06 </wgt>
</rwgt>
</event>
<event>
 4      1 +5.5534000e-05 3.10048500e+02 7.81860800e-03 9.96739300e-02
        2 -1    0    0  501    0 +0.0000000000e+00 +0.0000000000e+00 +4.0495324890e+02 4.0495324890e+02 0.0000000000e+00 0.0000e+00 -1.0000e+00
       -2 -1    0    0    0  501 -0.0000000000e+00 -0.0000000000e+00 -5.9346417630e+01 5.9346417630e+01 0.0000000000e+00 0.0000e+00 1.0000e+00
      -13  1    1    2    0    0 -6.7777400302e+01 -1.2295387561e+02 +2.7124202965e+02 3.0542375508e+02 0.0000000000e+00 0.0000e+00 1.0000e+00
       13  1    1    2    0    0 +6.7777400302e+01 +1.2295387561e+02 +7.4364801621e+01 1.5887591145e+02 0.0000000000e+00 0.0000e+00 -1.0000e+00
<mgrwt>
<rscale>  0 0.31004854E+03</rscale>
<asrwt>0</asrwt>
<pdfrwt beam="1">  1        2 0.62300498E-01 0.31004854E+03</pdfrwt>
<pdfrwt beam="2">  1       -2 0.91302184E-02 0.31004854E+03</pdfrwt>
<totfact> 0.63934928E+03</totfact>
</mgrwt>
<rwgt>
<wgt id='morphing_basis_vector_1'> +2.6823908e-04 </wgt>
<wgt id='morphing_basis_vector_2'> +2.1746767e-04 </wgt>
<wgt id='morphing_basis_vector_3'> +9.8498338e-05 </wgt>
<wgt id='morphing_basis_vector_4'> +3.8394699e-05 </wgt>
<wgt id='morphing_basis_vector_5'> +4.0579186e-06 </wgt>
</rwgt>
</event>
<event>
 4      1 +5.5534000e-05 3.01974000e+02 7.81860800e-03 1.00008000e-01
        2 -1    0    0  501    0 +0.0000000000e+00 +0.0000000000e+00 +7.4501768359e+02 7.4501768359e+02 0.0000000000e+00 0.0000e+00 1.0000e+00
       -2 -1    0    0    0  501 -0.0000000000e+00 -0.0000000000e+00 -3.0599380119e+01 3.0599380119e+01 0.0000000000e+00 0.0000e+00 -1.0000e+00
      -13  1    1    2    0    0 -1.0731668553e+02 -4.3472930815e+01 +6.0610507269e+02 6.1706573868e+02 0.0000000000e+00 0.0000e+00 1.0000e+00
       13  1    1    2    0    0 +1.0731668553e+02 +4.3472930815e+01 +1.0831323078e+02 1.5855132503e+02 0.0000000000e+00 0.0000e+00 -1.0000e+00
<mgrwt>
<rscale>  0 0.30197403E+03</rscale>
<asrwt>0</asrwt>
<pdfrwt beam="1">  1        2 0.11461809E+00 0.30197403E+03</pdfrwt>
<pdfrwt beam="2">  1       -2 0.47075975E-02 0.30197403E+03</pdfrwt>
<totfact> 0.87085322E+03</totfact>
</mgrwt>
<rwgt>
<wgt id='morphing_basis_vector_1'> +2.7751335e-04 </wgt>
<wgt id='morphing_basis_vector_2'> +2.7407067e-04 </wgt>
<wgt id='morphing_basis_vector_3'> +5.6787558e-05 </wgt>
<wgt id='morphing_basis_vector_4'> +5.0207247e-05 </wgt>
<wgt id='morphing_basis_vector_5'> +3.3399060e-06 </wgt>
</rwgt>
</event>
<event>
 4      1 +5.5534000e-05 3.58486000e+02 7.81860800e-03 9.78765800e-02
        2 -1    0    0  501    0 +0.0000000000e+00 +0.0000000000e+00 +8.1070180403e+02 8.1070180403e+02 0.0000000000e+00 0.0000e+00 1.0000e+00
       -2 -1    0    0    0  501 -0.0000000000e+00 -0.0000000000e+00 -3.9629936483e+01 3.9629936483e+01 0.0000000000e+00 0.0000e+00 -1.0000e+00
      -13  1    1    2    0    0 -9.3114665896e+01 +1.1316597464e+02 +1.4073388771e+02 2.0318195287e+02 0.0000000000e+00 0.0000e+00 -1.0000e+00
       13  1    1    2    0    0 +9.3114665896e+01 -1.1316597464e+02 +6.3033797984e+02 6.4714978765e+02 0.0000000000e+00 0.0000e+00 1.0000e+00
<mgrwt>
<rscale>  0 0.35848604E+03</rscale>
<asrwt>0</asrwt>
<pdfrwt beam="1">  1        2 0.12472334E+00 0.35848604E+03</pdfrwt>
<pdfrwt beam="2">  1       -2 0.60969139E-02 0.35848604E+03</pdfrwt>
<totfact> 0.53529957E+03</totfact>
</mgrwt>
<rwgt>
<wgt id='morphing_basis_vector_1'> +3.3361866e-04 </wgt>
<wgt id='morphing_basis_vector_2'> +1.8178008e-04 </wgt>
<wgt id='morphing_basis_vector_3'> +2.0294150e-04 </wgt>
<wgt id='morphing_basis_vector_4'> +3.7496957e-05 </wgt>
<wgt id='morphing_basis_vector_5'> +2.3446969e-05 </wgt>
</rwgt>
</event>
<event>
 4      1 +5.5534000e-05 3.13504100e+02 7.81860800e-03 9.95342400e-02
        2 -1    0    0  501    0 +0.0000000000e+00 +0.0000000000e+00 +7.7479000221e+02 7.7479000221e+02 0.0000000000e+00 0.0000e+00 -1.0000e+00
       -2 -1    0    0    0  501 -0.0000000000e+00 -0.0000000000e+00 -3.1713375564e+01 3.1713375564e+01 0.0000000000e+00 0.0000e+00 1.0000e+00
      -13  1    1    2    0    0 -8.6943675478e+01 +1.2877296668e+02 +4.2485437033e+02 4.5237475133e+02 0.0000000000e+00 0.0000e+00 1.0000e+00
       13  1    1    2    0    0 +8.6943675478e+01 -1.2877296668e+02 +3.1822225631e+02 3.5412862644e+02 0.0000000000e+00 0.0000e+00 -1.0000e+00
<mgrwt>
<rscale>  0 0.31350411E+03</rscale>
<asrwt>0</asrwt>
<pdfrwt beam="1">  1        2 0.11919845E+00 0.31350411E+03</pdfrwt>
<pdfrwt beam="2">  1       -2 0.48789814E-02 0.31350411E+03</pdfrwt>
<totfact> 0.78829864E+03</totfact>
</mgrwt>
<rwgt>
<wgt id='morphing_basis_vector_1'> +2.5569776e-04 </wgt>
<wgt id='morphing_basis_vector_2'> +1.6754483e-04 </wgt>
<wgt id='morphing_basis_vector_3'> +1.2846772e-04 </wgt>
<wgt id='morphing_basis_vector_4'> +2.9662510e-05 </wgt>
<wgt id='morphing_basis_vector_5'> +4.0255445e-06 </wgt>
</rwgt>
</event>
<event>
 4      1 +5.5534000e-05 3.26704000e+02 7.81860800e-03 9.90179500e-02
        2 -1    0    0  501    0 +0.0000000000e+00 +0.0000000000e+00 +1.0754881075e+03 1.0754881075e+03 0.0000000000e+00 0.0000e+00 1.0000e+00
       -2 -1    0    0    0  501 -0.0000000000e+00 -0.0000000000e+00 -2.4810941454e+01 2.4810941454e+01 0.0000000000e+00 0.0000e+00 -1.0000e+00
      -13  1    1    2    0    0 -1.1669910660e+02 +9.8731531347e+01 +7.1931418033e+02 7.3537710515e+02 0.0000000000e+00 0.0000e+00 1.0000e+00
       13  1    1    2    0    0 +1.1669910660e+02 -9.8731531347e+01 +3.3136298571e+02 3.6492194380e+02 0.0000000000e+00 0.0000e+00 -1.0000e+00
<mgrwt>
<rscale>  0 0.32670398E+03</rscale>
<asrwt>0</asrwt>
<pdfrwt beam="1">  1        2 0.16545967E+00 0.32670398E+03</pdfrwt>
<pdfrwt beam="2">  1       -2 0.38170688E-02 0.32670398E+03</pdfrwt>
<totfact> 0.73795385E+03</totfact>
</mgrwt>
<rwgt>
<wgt id='morphing_basis_vector_1'> +2.9455265e-04 </wgt>
<wgt id='morphing_basis_vector_2'> +2.2495012e-04 </wgt>
<wgt id='morphing_basis_vector_3'> +1.2341828e-04 </wgt>
<wgt id='morphing_basis_vector_4'> +3.8067228e-05 </wgt>
<wgt id='morphing_basis_vector_5'> +8.7384874e-06 </wgt>
</rwgt>
</event>
<event>
 4      1 +5.5534000e-05 3.24447900e+02 7.81860800e-03 9.91042900e-02
        2 -1    0    0  501    0 +0.0000000000e+00 +0.0000000000e+00 +1.1098426238e+03 1.1098426238e+03 0.0000000000e+00 0.0000e+00 -1.0000e+00
       -2 -1    0    0    0  501 -0.0000000000e+00 -0.0000000000e+00 -2.3712018014e+01 2.3712018014e+01 0.0000000000e+00 0.0000e+00 1.0000e+00
      -13  1    1    2    0    0 -1.5745716133e+02 -3.4590445338e+01 +6.0627807322e+02 6.2734548586e+02 0.0000000000e+00 0.0000e+00 1.0000e+00
       13  1    1    2    0    0 +1.5745716133e+02 +3.4590445338e+01 +4.7985253259e+02 5.0620915598e+02 0.0000000000e+00 0.0000e+00 -1.0000e+00
<mgrwt>
<rscale>  0 0.32444789E+03</rscale>
<asrwt>0</asrwt>
<pdfrwt beam="1">  1        2 0.17074498E+00 0.32444789E+03</pdfrwt>
<pdfrwt beam="2">  1       -2 0.36480037E-02 0.32444789E+03</pdfrwt>
<totfact> 0.75385374E+03</totfact>
</mgrwt>
<rwgt>
<wgt id='morphing_basis_vector_1'> +2.7510190e-04 </wgt>
<wgt id='morphing_basis_vector_2'> +1.7791892e-04 </wgt>
<wgt id='morphing_basis_vector_3'> +1.4119909e-04 </wgt>
<wgt id='morphing_basis_vector_4'> +3.1227328e-05 </wgt>
<wgt id='morphing_basis_vector_5'> +7.1413104e-06 </wgt>
</rwgt>
</event>
<event>
 4      1 +5.5534000e-05 3.13713700e+02 7.81860800e-03 9.95258300e-02
        2 -1    0    0  501    0 +0.0000000000e+00 +0.0000000000e+00 +1.7867716910e+02 1.7867716910e+02 0.0000000000e+00 0.0000e+00 -1.0000e+00
       -2 -1    0    0    0  501 -0.0000000000e+00 -0.0000000000e+00 -1.3770122543e+02 1.3770122543e+02 0.0000000000e+00 0.0000e+00 1.0000e+00
      -13  1    1    2    0    0 -1.2825678659e+02 -6.2879784076e+01 +8.5848933498e+01 1.6665446269e+02 0.0000000000e+00 0.0000e+00 1.0000e+00
       13  1    1    2    0    0 +1.2825678659e+02 +6.2879784076e+01 -4.4872989820e+01 1.4972393184e+02 0.0000000000e+00 0.0000e+00 -1.0000e+00
<mgrwt>
<rscale>  0 0.31371366E+03</rscale>
<asrwt>0</asrwt>
<pdfrwt beam="1">  1        2 0.27488795E-01 0.31371366E+03</pdfrwt>
<pdfrwt beam="2">  1       -2 0.21184804E-01 0.31371366E+03</pdfrwt>
<totfact> 0.41898942E+03</totfact>
</mgrwt>
<rwgt>
<wgt id='morphing_basis_vector_1'> +2.7420956e-04 </wgt>
<wgt id='morphing_basis_vector_2'> +2.2030941e-04 </wgt>
<wgt id='morphing_basis_vector_3'> +1.0312171e-04 </wgt>
<wgt id='morphing_basis_vector_4'> +3.8389414e-05 </wgt>
<wgt id='morphing_basis_vector_5'> +4.9194411e-06 </wgt>
</rwgt>
</event>
<event>
 4      1 +5.5534000e-05 3.00877300e+02 7.81860800e-03 1.00054200e-01
        2 -1    0    0  501    0 +0.0000000000e+00 +0.0000000000e+00 +6.5798854490e+02 6.5798854490e+02 0.0000000000e+00 0.0000e+00 -1.0000e+00
       -2 -1    0    0    0  501 -0.0000000000e+00 -0.0000000000e+00 -3.4395401502e+01 3.4395401502e+01 0.0000000000e+00 0.0000e+00 1.0000e+00
      -13  1    1    2    0    0 +1.0821356089e+02 -1.0154323772e+02 +3.6865928866e+02 3.9740517738e+02 0.0000000000e+00 0.0000e+00 1.0000e+00
       13  1    1    2    0    0 -1.0821356089e+02 +1.0154323772e+02 +2.5493385473e+02 2.9497876902e+02 0.0000000000e+00 0.0000e+00 -1.0000e+00
<mgrwt>
<rscale>  0 0.30087725E+03</rscale>
<asrwt>0</asrwt>
<pdfrwt beam="1">  1        2 0.10122900E+00 0.30087725E+03</pdfrwt>
<pdfrwt beam="2">  1       -2 0.52916007E-02 0.30087725E+03</pdfrwt>
<totfact> 0.84713369E+03</totfact>
</mgrwt>
<rwgt>
<wgt id='morphing_basis_vector_1'> +2.3528791e-04 </wgt>
<wgt id='morphing_basis_vector_2'> +1.5739696e-04 </wgt>
<wgt id='morphing_basis_vector_3'> +1.1487566e-04 </wgt>
<wgt id='morphing_basis_vector_4'> +2.8740494e-05 </wgt>
<wgt id='morphing_basis_vector_5'> +1.6528944e-06 </wgt>
</rwgt>
</event>
<event>
 4      1 +5.5534000e-05 3.09773500e+02 7.81860800e-03 9.96851400e-02
        2 -1    0    0  501    0 +0.0000000000e+00 +0.0000000000e+00 +3.3782134637e+01 3.3782134637e+01 0.0000000000e+00 0.0000e+00 1.0000e+00
       -2 -1    0    0    0  501 -0.0000000000e+00 -0.0000000000e+00 -7.1013565767e+02 7.1013565767e+02 0.0000000000e+00 0.0000e+00 -1.0000e+00
      -13  1    1    2    0    0 -1.2937544300e+02 -7.2846969288e+01 -4.4409341235e+02 4.6825596107e+02 0.0000000000e+00 0.0000e+00 -1.0000e+00
       13  1    1    2    0    0 +1.2937544300e+02 +7.2846969288e+01 -2.3226011069e+02 2.7566183124e+02 0.0000000000e+00 0.0000e+00 1.0000e+00
<mgrwt>
<rscale>  0 0.30977346E+03</rscale>
<asrwt>0</asrwt>
<pdfrwt beam="1">  1        2 0.51972520E-02 0.30977346E+03</pdfrwt>
<pdfrwt beam="2">  1       -2 0.10925163E+00 0.30977346E+03</pdfrwt>
<totfact> 0.13346319E+03</totfact>
</mgrwt>
<rwgt>
<wgt id='morphing_basis_vector_1'> +2.4033173e-04 </wgt>
<wgt id='morphing_basis_vector_2'> +1.3804664e-04 </wgt>
<wgt id='morphing_basis_vector_3'> +1.3735048e-04 </wgt>
<wgt id='morphing_basis_vector_4'> +2.4767663e-05 </wgt>
<wgt id='morphing_basis_vector_5'> +2.7954029e-06 </wgt>
</rwgt>
</event>
<event>
 4      1 +5.5534000e-05 3.59999500e+02 7.81860800e-03 9.78254500e-02
        2 -1    0    0  501    0 +0.0000000000e+00 +0.0000000000e+00 +5.9618475225e+02 5.9618475225e+02 0.0000000000e+00 0.0000e+00 -1.0000e+00
       -2 -1    0    0    0  501 -0.0000000000e+00 -0.0000000000e+00 -5.4345419464e+01 5.4345419464e+01 0.0000000000e+00 0.0000e+00 1.0000e+00
      -13  1    1    2    0    0 +5.9216376916e+01 +1.6964504395e+02 +2.9020418204e+02 3.4132753698e+02 0.0000000000e+00 0.0000e+00 1.0000e+00
       13  1    1    2    0    0 -5.9216376916e+01 -1.6964504395e+02 +2.5163515075e+02 3.0920263473e+02 0.0000000000e+00 0.0000e+00 -1.0000e+00
<mgrwt>
<rscale>  0 0.35999950E+03</rscale>
<asrwt>0</asrwt>
<pdfrwt beam="1">  1        2 0.91720726E-01 0.35999950E+03</pdfrwt>
<pdfrwt beam="2">  1       -2 0.83608342E-02 0.35999950E+03</pdfrwt>
<totfact> 0.47756157E+03</totfact>
</mgrwt>
<rwgt>
<wgt id='morphing_basis_vector_1'> +3.4892158e-04 </wgt>
<wgt id='morphing_basis_vector_2'> +2.1919723e-04 </wgt>
<wgt id='morphing_basis_vector_3'> +1.9148009e-04 </wgt>
<wgt id='morphing_basis_vector_4'> +4.1279062e-05 </wgt>
<wgt id='morphing_basis_vector_5'> +2.5255775e-05 </wgt>
</rwgt>
</event>
<event>
 4      1 +5.5534000e-05 3.52572300e+02 7.81860800e-03 9.80790300e-02
        2 -1    0    0  501    0 +0.0000000000e+00 +0.0000000000e+00 +6.3533087783e+02 6.3533087783e+02 0.0000000000e+00 0.0000e+00 -1.0000e+00
       -2 -1    0    0    0  501 -0.0000000000e+00 -0.0000000000e+00 -4.8914370847e+01 4.8914370847e+01 0.0000000000e+00 0.0000e+00 1.0000e+00
      -13  1    1    2    0    0 -4.2718253532e+01 +1.1076959968e+02 +4.0302493002e+01 1.2537561302e+02 0.0000000000e+00 0.0000e+00 1.0000e+00
       13  1    1    2    0    0 +4.2718253532e+01 -1.1076959968e+02 +5.4611401399e+02 5.5886963567e+02 0.0000000000e+00 0.0000e+00 -1.0000e+00
<mgrwt>
<rscale>  0 0.35257232E+03</rscale>
<asrwt>0</asrwt>
<pdfrwt beam="1">  1        2 0.97743206E-01 0.35257232E+03</pdfrwt>
<pdfrwt beam="2">  1       -2 0.75252883E-02 0.35257232E+03</pdfrwt>
<totfact> 0.52100883E+03</totfact>
</mgrwt>
<rwgt>
<wgt id='morphing_basis_vector_1'> +3.1993424e-04 </wgt>
<wgt id='morphing_basis_vector_2'> +1.7331862e-04 </wgt>
<wgt id='morphing_basis_vector_3'> +1.9442517e-04 </wgt>
<wgt id='morphing_basis_vector_4'> +3.4873220e-05 </wgt>
<wgt id='morphing_basis_vector_5'> +1.9589680e-05 </wgt>
</rwgt>
</event>
<event>
 4      1 +5.5534000e-05 3.31327500e+02 7.81860800e-03 9.88433500e-02
        2 -1    0    0  501    0 +0.0000000000e+00 +0.0000000000e+00 +4.5326893775e+01 4.5326893775e+01 0.0000000000e+00 0.0000e+00 -1.0000e+00
       -2 -1    0    0    0  501 -0.0000000000e+00 -0.0000000000e+00 -6.0547877794e+02 6.0547877794e+02 0.0000000000e+00 0.0000e+00 1.0000e+00
      -13  1    1    2    0    0 +7.3091394986e+01 +1.4222557777e+02 -1.9504454903e+02 2.5221586607e+02 0.0000000000e+00 0.0000e+00 1.0000e+00
       13  1    1    2    0    0 -7.3091394986e+01 -1.4222557777e+02 -3.6510733514e+02 3.9858980565e+02 0.0000000000e+00 0.0000e+00 -1.0000e+00
<mgrwt>
<rscale>  0 0.33132746E+03</rscale>
<asrwt>0</asrwt>
<pdfrwt beam="1">  1        2 0.69733687E-02 0.33132746E+03</pdfrwt>
<pdfrwt beam="2">  1       -2 0.93150575E-01 0.33132746E+03</pdfrwt>
<totfact> 0.13284245E+03</totfact>
</mgrwt>
<rwgt>
<wgt id='morphing_basis_vector_1'> +2.9689356e-04 </wgt>
<wgt id='morphing_basis_vector_2'> +2.1096540e-04 </wgt>
<wgt id='morphing_basis_vector_3'> +1.3814070e-04 </wgt>
<wgt id='morphing_basis_vector_4'> +3.6087984e-05 </wgt>
<wgt id='morphing_basis_vector_5'> +1.0142586e-05 </wgt>
</rwgt>
</event>
<event>
 4      1 +5.5534000e-05 3.04015200e+02 7.81860800e-03 9.99225100e-02
        2 -1    0    0  501    0 +0.0000000000e+00 +0.0000000000e+00 +9.3578939898e+02 9.3578939898e+02 0.0000000000e+00 0.0000e+00 -1.0000e+00
       -2 -1    0    0    0  501 -0.0000000000e+00 -0.0000000000e+00 -2.4691784343e+01 2.4691784343e+01 0.0000000000e+00 0.0000e+00 1.0000e+00
      -13  1    1    2    0    0 -1.1820556753e+02 +7.7643590822e+01 +2.7949710902e+02 3.1324067000e+02 0.0000000000e+00 0.0000e+00 1.0000e+00
       13  1    1    2    0    0 +1.1820556753e+02 -7.7643590822e+01 +6.3160050562e+02 6.4724051333e+02 0.0000000000e+00 0.0000e+00 -1.0000e+00
<mgrwt>
<rscale>  0 0.30401520E+03</rscale>
<asrwt>0</asrwt>
<pdfrwt beam="1">  1        2 0.14396757E+00 0.30401520E+03</pdfrwt>
<pdfrwt beam="2">  1       -2 0.37987368E-02 0.30401520E+03</pdfrwt>
<totfact> 0.89886145E+03</totfact>
</mgrwt>
<rwgt>
<wgt id='morphing_basis_vector_1'> +2.3024471e-04 </wgt>
<wgt id='morphing_basis_vector_2'> +1.3130926e-04 </wgt>
<wgt id='morphing_basis_vector_3'> +1.3256457e-04 </wgt>
<wgt id='morphing_basis_vector_4'> +2.3721368e-05 </wgt>
<wgt id='morphing_basis_vector_5'> +1.7371836e-06 </wgt>
</rwgt>
</event>
<event>
 4      1 +5.5534000e-05 3.00583500e+02 7.81860800e-03 1.00066600e-01
        2 -1    0    0  501    0 +0.0000000000e+00 +0.0000000000e+00 +8.2695139779e+02 8.2695139779e+02 0.0000000000e+00 0.0000e+00 1.0000e+00
       -2 -1    0    0    0  501 -0.0000000000e+00 -0.0000000000e+00 -2.7314314550e+01 2.7314314550e+01 0.0000000000e+00 0.0000e+00 -1.0000e+00
      -13  1    1    2    0    0 -4.6897960890e+01 +1.2964405053e+02 +2.2975686102e+02 2.6794628894e+02 0.0000000000e+00 0.0000e+00 -1.0000e+00
       13  1    1    2    0    0 +4.6897960890e+01 -1.2964405053e+02 +5.6988022223e+02 5.8631942340e+02 0.0000000000e+00 0.0000e+00 1.0000e+00
<mgrwt>
<rscale>  0 0.30058350E+03</rscale>
<asrwt>0</asrwt>
<pdfrwt beam="1">  1        2 0.12722327E+00 0.30058350E+03</pdfrwt>
<pdfrwt beam="2">  1       -2 0.42022029E-02 0.30058350E+03</pdfrwt>
<totfact> 0.90701926E+03</totfact>
</mgrwt>
<rwgt>
<wgt id='morphing_basis_vector_1'> +2.2461112e-04 </wgt>
<wgt id='morphing_basis_vector_2'> +1.2800004e-04 </wgt>
<wgt id='morphing_basis_vector_3'> +1.2957419e-04 </wgt>
<wgt id='morphing_basis_vector_4'> +2.3268055e-05 </wgt>
<wgt id='morphing_basis_vector_5'> +1.2383169e-06 </wgt>
</rwgt>
</event>
<event>
 4      1 +5.5534000e-05 3.08575700e+02 7.81860800e-03 9.97340600e-02
        2 -1    0    0  501    0 +0.0000000000e+00 +0.0000000000e+00 +1.4384966496e+02 1.4384966496e+02 0.0000000000e+00 0.0000e+00 -1.0000e+00
       -2 -1    0    0    0  501 -0.0000000000e+00 -0.0000000000e+00 -1.6548350968e+02 1.6548350968e+02 0.0000000000e+00 0.0000e+00 1.0000e+00
      -13  1    1    2    0    0 -2.1831408817e+00 +5.8203033840e+01 -1.5403954541e+02 1.6468315276e+02 0.0000000000e+00 0.0000e+00 1.0000e+00
       13  1    1    2    0    0 +2.1831408817e+00 -5.8203033840e+01 +1.3240570069e+02 1.4465002187e+02 0.0000000000e+00 0.0000e+00 -1.0000e+00
<mgrwt>
<rscale>  0 0.30857574E+03</rscale>
<asrwt>0</asrwt>
<pdfrwt beam="1">  1        2 0.22130718E-01 0.30857574E+03</pdfrwt>
<pdfrwt beam="2">  1       -2 0.25459001E-01 0.30857574E+03</pdfrwt>
<totfact> 0.39593939E+03</totfact>
</mgrwt>
<rwgt>
<wgt id='morphing_basis_vector_1'> +2.3612472e-04 </wgt>
<wgt id='morphing_basis_vector_2'> +1.3063731e-04 </wgt>
<wgt id='morphing_basis_vector_3'> +1.3930366e-04 </wgt>
<wgt id='morphing_basis_vector_4'> +2.3497247e-05 </wgt>
<wgt id='morphing_basis_vector_5'> +2.4641308e-06 </wgt>
</rwgt>
</event>
<event>
 4      1 +5.5534000e-05 3.53320400e+02 7.81860800e-03 9.80531800e-02
        2 -1    0    0  501    0 +0.0000000000e+00 +0.0000000000e+00 +3.4756374313e+02 3.4756374313e+02 0.0000000000e+00 0.0000e+00 -1.0000e+00
       -2 -1    0    0    0  501 -0.0000000000e+00 -0.0000000000e+00 -8.9793102980e+01 8.9793102980e+01 0.0000000000e+00 0.0000e+00 1.0000e+00
      -13  1    1    2    0    0 +1.1594764767e+02 +6.5597781111e+01 -1.4736494134e+01 1.3403018371e+02 0.0000000000e+00 0.0000e+00 1.0000e+00
       13  1    1    2    0    0 -1.1594764767e+02 -6.5597781111e+01 +2.7250713428e+02 3.0332666240e+02 0.0000000000e+00 0.0000e+00 -1.0000e+00
<mgrwt>
<rscale>  0 0.35332040E+03</rscale>
<asrwt>0</asrwt>
<pdfrwt beam="1">  1        2 0.53471344E-01 0.35332040E+03</pdfrwt>
<pdfrwt beam="2">  1       -2 0.13814324E-01 0.35332040E+03</pdfrwt>
<totfact> 0.39870139E+03</totfact>
</mgrwt>
<rwgt>
<wgt id='morphing_basis_vector_1'> +3.2178488e-04 </wgt>
<wgt id='morphing_basis_vector_2'> +1.7480922e-04 </wgt>
<wgt id='morphing_basis_vector_3'> +1.9529966e-04 </wgt>
<wgt id='morphing_basis_vector_4'> +3.5236027e-05 </wgt>
<wgt id='morphing_basis_vector_5'> +2.0064603e-05 </wgt>
</rwgt>
</event>
<event>
 4      1 +5.5534000e-05 3.25114500e+02 7.81860800e-03 9.90787000e-02
        2 -1    0    0  501    0 +0.0000000000e+00 +0.0000000000e+00 +1.0758680248e+02 1.0758680248e+02 0.0000000000e+00 0.0000e+00 1.0000e+00
       -2 -1    0    0    0  501 -0.0000000000e+00 -0.0000000000e+00 -2.4561430791e+02 2.4561430791e+02 0.0000000000e+00 0.0000e+00 -1.0000e+00
      -13  1    1    2    0    0 +9.5718072939e+01 +1.3138828386e+02 -6.9193611470e+01 1.7667084222e+02 0.0000000000e+00 0.0000e+00 1.0000e+00
       13  1    1    2    0    0 -9.5718072939e+01 -1.3138828386e+02 -6.8833893958e+01 1.7653026817e+02 0.0000000000e+00 0.0000e+00 -1.0000e+00
<mgrwt>
<rscale>  0 0.32511449E+03</rscale>
<asrwt>0</asrwt>
<pdfrwt beam="1">  1        2 0.16551816E-01 0.32511449E+03</pdfrwt>
<pdfrwt beam="2">  1       -2 0.37786816E-01 0.32511449E+03</pdfrwt>
<totfact> 0.28099046E+03</totfact>
</mgrwt>
<rwgt>
<wgt id='morphing_basis_vector_1'> +2.7250607e-04 </wgt>
<wgt id='morphing_basis_vector_2'> +1.6738254e-04 </wgt>
<wgt id='morphing_basis_vector_3'> +1.4719410e-04 </wgt>
<wgt id='morphing_basis_vector_4'> +2.9703774e-05 </wgt>
<wgt id='morphing_basis_vector_5'> +7.1616701e-06 </wgt>
</rwgt>
</event>
<event>
 4      1 +5.5534000e-05 3.10012300e+02 7.81860800e-03 9.96754100e-02
        2 -1    0    0  501    0 +0.0000000000e+00 +0.0000000000e+00 +4.3799631257e+02 4.3799631257e+02 0.0000000000e+00 0.0000e+00 -1.0000e+00
       -2 -1    0    0    0  501 -0.0000000000e+00 -0.0000000000e+00 -5.4856420685e+01 5.4856420685e+01 0.0000000000e+00 0.0000e+00 1.0000e+00
      -13  1    1    2    0    0 +4.6115517821e+01 -1.4477146427e+02 +1.4278941086e+02 2.0850475703e+02 0.0000000000e+00 0.0000e+00 1.0000e+00
       13  1    1    2    0    0 -4.6115517821e+01 +1.4477146427e+02 +2.4035048103e+02 2.8434797622e+02 0.0000000000e+00 0.0000e+00 -1.0000e+00
<mgrwt>
<rscale>  0 0.31001232E+03</rscale>
<asrwt>0</asrwt>
<pdfrwt beam="1">  1        2 0.67384046E-01 0.31001232E+03</pdfrwt>
<pdfrwt beam="2">  1       -2 0.84394496E-02 0.31001232E+03</pdfrwt>
<totfact> 0.66160683E+03</totfact>
</mgrwt>
<rwgt>
<wgt id='morphing_basis_vector_1'> +2.4169778e-04 </wgt>
<wgt id='morphing_basis_vector_2'> +1.4104234e-04 </wgt>
<wgt id='morphing_basis_vector_3'> +1.3621669e-04 </wgt>
<wgt id='morphing_basis_vector_4'> +2.5279259e-05 </wgt>
<wgt id='morphing_basis_vector_5'> +2.8863767e-06 </wgt>
</rwgt>
</event>
<event>
 4      1 +5.5534000e-05 3.49258100e+02 7.81860800e-03 9.81943700e-02
        2 -1    0    0  501    0 +0.0000000000e+00 +0.0000000000e+00 +1.0677111964e+03 1.0677111964e+03 0.0000000000e+00 0.0000e+00 1.0000e+00
       -2 -1    0    0    0  501 -0.0000000000e+00 -0.0000000000e+00 -2.8561376926e+01 2.8561376926e+01 0.0000000000e+00 0.0000e+00 -1.0000e+00
      -13  1    1    2    0    0 +1.0801787464e+02 -1.3265422453e+02 +4.0947749082e+02 4.4377564153e+02 0.0000000000e+00 0.0000e+00 -1.0000e+00
       13  1    1    2    0    0 -1.0801787464e+02 +1.3265422453e+02 +6.2967232868e+02 6.5249693182e+02 0.0000000000e+00 0.0000e+00 1.0000e+00
<mgrwt>
<rscale>  0 0.34925808E+03</rscale>
<asrwt>0</asrwt>
<pdfrwt beam="1">  1        2 0.16426323E+00 0.34925808E+03</pdfrwt>
<pdfrwt beam="2">  1       -2 0.43940588E-02 0.34925808E+03</pdfrwt>
<totfact> 0.60555902E+03</totfact>
</mgrwt>
<rwgt>
<wgt id='morphing_basis_vector_1'> +3.1691780e-04 </wgt>
<wgt id='morphing_basis_vector_2'> +1.8196570e-04 </wgt>
<wgt id='morphing_basis_vector_3'> +1.8439933e-04 </wgt>
<wgt id='morphing_basis_vector_4'> +3.4897440e-05 </wgt>
<wgt id='morphing_basis_vector_5'> +1.7879200e-05 </wgt>
</rwgt>
</event>
<event>
 4      1 +5.5534000e-05 3.16080300e+02 7.81860800e-03 9.94313300e-02
        2 -1    0    0  501    0 +0.0000000000e+00 +0.0000000000e+00 +1.3613487695e+03 1.3613487695e+03 0.0000000000e+00 0.0000e+00 -1.0000e+00
       -2 -1    0    0    0  501 -0.0000000000e+00 -0.0000000000e+00 -1.8347017438e+01 1.8347017438e+01 0.0000000000e+00 0.0000e+00 1.0000e+00
      -13  1    1    2    0    0 +1.5574714503e+02 -2.6366517435e+01 +6.4997325000e+02 6.6889281065e+02 0.0000000000e+00 0.0000e+00 1.0000e+00
       13  1    1    2    0    0 -1.5574714503e+02 +2.6366517435e+01 +6.9302850207e+02 7.1080297630e+02 0.0000000000e+00 0.0000e+00 -1.0000e+00
<mgrwt>
<rscale>  0 0.31608030E+03</rscale>
<asrwt>0</asrwt>
<pdfrwt beam="1">  1        2 0.20943819E+00 0.31608030E+03</pdfrwt>
<pdfrwt beam="2">  1       -2 0.28226191E-02 0.31608030E+03</pdfrwt>
<totfact> 0.79688984E+03</totfact>
</mgrwt>
<rwgt>
<wgt id='morphing_basis_vector_1'> +2.5515613e-04 </wgt>
<wgt id='morphing_basis_vector_2'> +1.5544360e-04 </wgt>
<wgt id='morphing_basis_vector_3'> +1.3831866e-04 </wgt>
<wgt id='morphing_basis_vector_4'> +2.7637439e-05 </wgt>
<wgt id='morphing_basis_vector_5'> +4.4279820e-06 </wgt>
</rwgt>
</event>
<event>
 4      1 +5.5534000e-05 3.00245500e+02 7.81860800e-03 1.00081000e-01
        2 -1    0    0  501    0 +0.0000000000e+00 +0.0000000000e+00 +4.8767515429e+02 4.8767515429e+02 0.0000000000e+00 0.0000e+00 -1.0000e+00
       -2 -1    0    0    0  501 -0.0000000000e+00 -0.0000000000e+00 -4.6212808738e+01 4.6212808738e+01 0.0000000000e+00 0.0000e+00 1.0000e+00
      -13  1    1    2    0    0 -1.4182195022e+02 +4.9164943498e+01 +2.2515213714e+02 2.7059959736e+02 0.0000000000e+00 0.0000e+00 1.0000e+00
       13  1    1    2    0    0 +1.4182195022e+02 -4.9164943498e+01 +2.1631020841e+02 2.6328836567e+02 0.0000000000e+00 0.0000e+00 -1.0000e+00
<mgrwt>
<rscale>  0 0.30024549E+03</rscale>
<asrwt>0</asrwt>
<pdfrwt beam="1">  1        2 0.75026943E-01 0.30024549E+03</pdfrwt>
<pdfrwt beam="2">  1       -2 0.71096632E-02 0.30024549E+03</pdfrwt>
<totfact> 0.76188092E+03</totfact>
</mgrwt>
<rwgt>
<wgt id='morphing_basis_vector_1'> +2.2954871e-04 </wgt>
<wgt id='morphing_basis_vector_2'> +1.4332660e-04 </wgt>
<wgt id='morphing_basis_vector_3'> +1.2123067e-04 </wgt>
<wgt id='morphing_basis_vector_4'> +2.6163350e-05 </wgt>
<wgt id='morphing_basis_vector_5'> +1.3929291e-06 </wgt>
</rwgt>
</event>
<event>
 4      1 +5.5534000e-05 3.29490400e+02 7.81860800e-03 9.89123500e-02
        2 -1    0    0  501    0 +0.0000000000e+00 +0.0000000000e+00 +2.3840612056e+02 2.3840612056e+02 0.0000000000e+00 0.0000e+00 1.0000e+00
       -2 -1    0    0    0  501 -0.0000000000e+00 -0.0000000000e+00 -1.1384346356e+02 1.1384346356e+02 0.0000000000e+00 0.0000e+00 -1.0000e+00
      -13  1    1    2    0    0 +4.2407202917e+01 -1.5491242733e+02 +2.3077532959e+01 1.6226152818e+02 0.0000000000e+00 0.0000e+00 -1.0000e+00
       13  1    1    2    0    0 -4.2407202917e+01 +1.5491242733e+02 +1.0148512404e+02 1.8998805594e+02 0.0000000000e+00 0.0000e+00 1.0000e+00
<mgrwt>
<rscale>  0 0.32949039E+03</rscale>
<asrwt>0</asrwt>
<pdfrwt beam="1">  1        2 0.36677864E-01 0.32949039E+03</pdfrwt>
<pdfrwt beam="2">  1       -2 0.17514379E-01 0.32949039E+03</pdfrwt>
<totfact> 0.41337499E+03</totfact>
</mgrwt>
<rwgt>
<wgt id='morphing_basis_vector_1'> +2.7631285e-04 </wgt>
<wgt id='morphing_basis_vector_2'> +1.5885537e-04 </wgt>
<wgt id='morphing_basis_vector_3'> +1.5843829e-04 </wgt>
<wgt id='morphing_basis_vector_4'> +2.8809373e-05 </wgt>
<wgt id='morphing_basis_vector_5'> +8.4797313e-06 </wgt>
</rwgt>
</event>
<event>
 4      1 +5.5534000e-05 3.03879100e+02 7.81860800e-03 9.99281900e-02
        2 -1    0    0  501    0 +0.0000000000e+00 +0.0000000000e+00 +6.7270097199e+02 6.7270097199e+02 0.0000000000e+00 0.0000e+00 1.0000e+00
       -2 -1    0    0    0  501 -0.0000000000e+00 -0.0000000000e+00 -3.4317806495e+01 3.4317806495e+01 0.0000000000e+00 0.0000e+00 -1.0000e+00
      -13  1    1    2    0    0 -1.4815621267e+02 +2.5427847818e+01 +2.6775309339e+02 3.0706441965e+02 0.0000000000e+00 0.0000e+00 -1.0000e+00
       13  1    1    2    0    0 +1.4815621267e+02 -2.5427847818e+01 +3.7063007211e+02 3.9995435883e+02 0.0000000000e+00 0.0000e+00 1.0000e+00
<mgrwt>
<rscale>  0 0.30387907E+03</rscale>
<asrwt>0</asrwt>
<pdfrwt beam="1">  1        2 0.10349245E+00 0.30387907E+03</pdfrwt>
<pdfrwt beam="2">  1       -2 0.52796630E-02 0.30387907E+03</pdfrwt>
<totfact> 0.82866047E+03</totfact>
</mgrwt>
<rwgt>
<wgt id='morphing_basis_vector_1'> +2.3229240e-04 </wgt>
<wgt id='morphing_basis_vector_2'> +1.3769011e-04 </wgt>
<wgt id='morphing_basis_vector_3'> +1.2914021e-04 </wgt>
<wgt id='morphing_basis_vector_4'> +2.4886496e-05 </wgt>
<wgt id='morphing_basis_vector_5'> +1.8049959e-06 </wgt>
</rwgt>
</event>
<event>
 4      1 +5.5534000e-05 3.15354600e+02 7.81860800e-03 9.94602200e-02
        2 -1    0    0  501    0 +0.0000000000e+00 +0.0000000000e+00 +7.4954025911e+02 7.4954025911e+02 0.0000000000e+00 0.0000e+00 1.0000e+00
       -2 -1    0    0    0  501 -0.0000000000e+00 -0.0000000000e+00 -3.3169836807e+01 3.3169836807e+01 0.0000000000e+00 0.0000e+00 -1.0000e+00
      -13  1    1    2    0    0 +4.5423715559e+01 -1.5091204133e+02 +3.7043782795e+02 4.0256917732e+02 0.0000000000e+00 0.0000e+00 -1.0000e+00
       13  1    1    2    0    0 -4.5423715559e+01 +1.5091204133e+02 +3.4593259436e+02 3.8014091860e+02 0.0000000000e+00 0.0000e+00 1.0000e+00
<mgrwt>
<rscale>  0 0.31535458E+03</rscale>
<asrwt>0</asrwt>
<pdfrwt beam="1">  1        2 0.11531387E+00 0.31535458E+03</pdfrwt>
<pdfrwt beam="2">  1       -2 0.51030524E-02 0.31535458E+03</pdfrwt>
<totfact> 0.76763385E+03</totfact>
</mgrwt>
<rwgt>
<wgt id='morphing_basis_vector_1'> +2.5551974e-04 </wgt>
<wgt id='morphing_basis_vector_2'> +1.5949013e-04 </wgt>
<wgt id='morphing_basis_vector_3'> +1.3524236e-04 </wgt>
<wgt id='morphing_basis_vector_4'> +2.8296501e-05 </wgt>
<wgt id='morphing_basis_vector_5'> +4.3210952e-06 </wgt>
</rwgt>
</event>
<event>
 4      1 +5.5534000e-05 3.24328900e+02 7.81860800e-03 9.91088700e-02
        2 -1    0    0  501    0 +0.0000000000e+00 +0.0000000000e+00 +1.0966932824e+03 1.0966932824e+03 0.0000000000e+00 0.0000e+00 -1.0000e+00
       -2 -1    0    0    0  501 -0.0000000000e+00 -0.0000000000e+00 -2.3978732537e+01 2.3978732537e+01 0.0000000000e+00 0.0000e+00 1.0000e+00
      -13  1    1    2    0    0 +1.5033747810e+02 +1.0261400943e+01 +3.2930498228e+02 3.6214420474e+02 0.0000000000e+00 0.0000e+00 1.0000e+00
       13  1    1    2    0    0 -1.5033747810e+02 -1.0261400943e+01 +7.4340956759e+02 7.5852781021e+02 0.0000000000e+00 0.0000e+00 -1.0000e+00
<mgrwt>
<rscale>  0 0.32432894E+03</rscale>
<asrwt>0</asrwt>
<pdfrwt beam="1">  1        2 0.16872200E+00 0.32432894E+03</pdfrwt>
<pdfrwt beam="2">  1       -2 0.36890366E-02 0.32432894E+03</pdfrwt>
<totfact> 0.75448873E+03</totfact>
</mgrwt>
<rwgt>
<wgt id='morphing_basis_vector_1'> +2.6509030e-04 </wgt>
<wgt id='morphing_basis_vector_2'> +1.4914679e-04 </wgt>
<wgt id='morphing_basis_vector_3'> +1.5435459e-04 </wgt>
<wgt id='morphing_basis_vector_4'> +2.6973117e-05 </wgt>
<wgt id='morphing_basis_vector_5'> +6.5852482e-06 </wgt>
</rwgt>
</event>
<event>
 4      1 +5.5534000e-05 3.39607100e+02 7.81860800e-03 9.85382900e-02
        2 -1    0    0  501    0 +0.0000000000e+00 +0.0000000000e+00 +9.7818470896e+02 9.7818470896e+02 0.0000000000e+00 0.0000e+00 1.0000e+00
       -2 -1    0    0    0  501 -0.0000000000e+00 -0.0000000000e+00 -2.9476273601e+01 2.9476273601e+01 0.0000000000e+00 0.0000e+00 -1.0000e+00
      -13  1    1    2    0    0 -8.6604858892e+01 +1.3261747164e+02 +2.9276526666e+02 3.3286528315e+02 0.0000000000e+00 0.0000e+00 -1.0000e+00
       13  1    1    2    0    0 +8.6604858892e+01 -1.3261747164e+02 +6.5594316870e+02 6.7479569940e+02 0.0000000000e+00 0.0000e+00 1.0000e+00
<mgrwt>
<rscale>  0 0.33960707E+03</rscale>
<asrwt>0</asrwt>
<pdfrwt beam="1">  1        2 0.15048993E+00 0.33960707E+03</pdfrwt>
<pdfrwt beam="2">  1       -2 0.45348121E-02 0.33960707E+03</pdfrwt>
<totfact> 0.65266157E+03</totfact>
</mgrwt>
<rwgt>
<wgt id='morphing_basis_vector_1'> +2.9462542e-04 </wgt>
<wgt id='morphing_basis_vector_2'> +1.6483760e-04 </wgt>
<wgt id='morphing_basis_vector_3'> +1.7349045e-04 </wgt>
<wgt id='morphing_basis_vector_4'> +3.0967378e-05 </wgt>
<wgt id='morphing_basis_vector_5'> +1.2680052e-05 </wgt>
</rwgt>
</event>
<event>
 4      1 +5.5534000e-05 3.26409200e+02 7.81860800e-03 9.90291900e-02
        2 -1    0    0  501    0 +0.0000000000e+00 +0.0000000000e+00 +1.3430014595e+02 1.3430014595e+02 0.0000000000e+00 0.0000e+00 1.0000e+00
       -2 -1    0    0    0  501 -0.0000000000e+00 -0.0000000000e+00 -1.9832993231e+02 1.9832993231e+02 0.0000000000e+00 0.0000e+00 -1.0000e+00
      -13  1    1    2    0    0 -3.7316643415e+01 +6.5317308877e+01 +1.1557932609e+02 1.3790381914e+02 0.0000000000e+00 0.0000e+00 1.0000e+00
       13  1    1    2    0    0 +3.7316643415e+01 -6.5317308877e+01 -1.7960911245e+02 1.9472625912e+02 0.0000000000e+00 0.0000e+00 -1.0000e+00
<mgrwt>
<rscale>  0 0.32640918E+03</rscale>
<asrwt>0</asrwt>
<pdfrwt beam="1">  1        2 0.20661561E-01 0.32640918E+03</pdfrwt>
<pdfrwt beam="2">  1       -2 0.30512297E-01 0.32640918E+03</pdfrwt>
<totfact> 0.31529220E+03</totfact>
</mgrwt>
<rwgt>
<wgt id='morphing_basis_vector_1'> +3.5867301e-04 </wgt>
<wgt id='morphing_basis_vector_2'> +4.1422028e-04 </wgt>
<wgt id='morphing_basis_vector_3'> +3.5862552e-05 </wgt>
<wgt id='morphing_basis_vector_4'> +6.5379474e-05 </wgt>
<wgt id='morphing_basis_vector_5'> +1.2112511e-05 </wgt>
</rwgt>
</event>
<event>
 4      1 +5.5534000e-05 3.56110400e+02 7.81860800e-03 9.79574000e-02
        2 -1    0    0  501    0 +0.0000000000e+00 +0.0000000000e+00 +5.4605033310e+02 5.4605033310e+02 0.0000000000e+00 0.0000e+00 -1.0000e+00
       -2 -1    0    0    0  501 -0.0000000000e+00 -0.0000000000e+00 -5.8059943247e+01 5.8059943247e+01 0.0000000000e+00 0.0000e+00 1.0000e+00
      -13  1    1    2    0    0 -8.8083598922e+01 -1.4022124119e+02 +3.5501547047e+02 3.9173549897e+02 0.0000000000e+00 0.0000e+00 1.0000e+00
       13  1    1    2    0    0 +8.8083598922e+01 +1.4022124119e+02 +1.3297491938e+02 2.1237477737e+02 0.0000000000e+00 0.0000e+00 -1.0000e+00
<mgrwt>
<rscale>  0 0.35611038E+03</rscale>
<asrwt>0</asrwt>
<pdfrwt beam="1">  1        2 0.84007740E-01 0.35611038E+03</pdfrwt>
<pdfrwt beam="2">  1       -2 0.89322993E-02 0.35611038E+03</pdfrwt>
<totfact> 0.47665701E+03</totfact>
</mgrwt>
<rwgt>
<wgt id='morphing_basis_vector_1'> +3.6279199e-04 </wgt>
<wgt id='morphing_basis_vector_2'> +2.8239393e-04 </wgt>
<wgt id='morphing_basis_vector_3'> +1.5807800e-04 </wgt>
<wgt id='morphing_basis_vector_4'> +4.6188414e-05 </wgt>
<wgt id='morphing_basis_vector_5'> +2.4064245e-05 </wgt>
</rwgt>
</event>
<event>
 4      1 +5.5534000e-05 3.09489500e+02 7.81860800e-03 9.96967200e-02
        2 -1    0    0  501    0 +0.0000000000e+00 +0.0000000000e+00 +4.2814214300e+02 4.2814214300e+02 0.0000000000e+00 0.0000e+00 1.0000e+00
       -2 -1    0    0    0  501 -0.0000000000e+00 -0.0000000000e+00 -5.5929867970e+01 5.5929867970e+01 0.0000000000e+00 0.0000e+00 -1.0000e+00
      -13  1    1    2    0    0 +9.9661836699e+01 -6.7399582772e+00 +1.2509726976e+00 9.9897315602e+01 0.0000000000e+00 0.0000e+00 -1.0000e+00
       13  1    1    2    0    0 -9.9661836699e+01 +6.7399582772e+00 +3.7096130233e+02 3.8417469537e+02 0.0000000000e+00 0.0000e+00 1.0000e+00
<mgrwt>
<rscale>  0 0.30948947E+03</rscale>
<asrwt>0</asrwt>
<pdfrwt beam="1">  1        2 0.65868020E-01 0.30948947E+03</pdfrwt>
<pdfrwt beam="2">  1       -2 0.86045953E-02 0.30948947E+03</pdfrwt>
<totfact> 0.65853394E+03</totfact>
</mgrwt>
<rwgt>
<wgt id='morphing_basis_vector_1'> +2.3774969e-04 </wgt>
<wgt id='morphing_basis_vector_2'> +1.3172316e-04 </wgt>
<wgt id='morphing_basis_vector_3'> +1.4007132e-04 </wgt>
<wgt id='morphing_basis_vector_4'> +2.3680287e-05 </wgt>
<wgt id='morphing_basis_vector_5'> +2.6465086e-06 </wgt>
</rwgt>
</event>
<event>
 4      1 +5.5534000e-05 3.26838300e+02 7.81860800e-03 9.90128300e-02
        2 -1    0    0  501    0 +0.0000000000e+00 +0.0000000000e+00 +3.8623230430e+02 3.8623230430e+02 0.0000000000e+00 0.0000e+00 -1.0000e+00
       -2 -1    0    0    0  501 -0.0000000000e+00 -0.0000000000e+00 -6.9144456830e+01 6.9144456830e+01 0.0000000000e+00 0.0000e+00 1.0000e+00
      -13  1    1    2    0    0 +1.5168168196e+02 -5.3335596609e+01 +1.1783242637e+02 1.9934015956e+02 0.0000000000e+00 0.0000e+00 1.0000e+00
       13  1    1    2    0    0 -1.5168168196e+02 +5.3335596609e+01 +1.9925542110e+02 2.5603660157e+02 0.0000000000e+00 0.0000e+00 -1.0000e+00
<mgrwt>
<rscale>  0 0.32683833E+03</rscale>
<asrwt>0</asrwt>
<pdfrwt beam="1">  1        2 0.59420353E-01 0.32683833E+03</pdfrwt>
<pdfrwt beam="2">  1       -2 0.10637609E-01 0.32683833E+03</pdfrwt>
<totfact> 0.53301424E+03</totfact>
</mgrwt>
<rwgt>
<wgt id='morphing_basis_vector_1'> +2.7193422e-04 </wgt>
<wgt id='morphing_basis_vector_2'> +1.5802481e-04 </wgt>
<wgt id='morphing_basis_vector_3'> +1.5437175e-04 </wgt>
<wgt id='morphing_basis_vector_4'> +2.8457278e-05 </wgt>
<wgt id='morphing_basis_vector_5'> +7.5515465e-06 </wgt>
</rwgt>
</event>
<event>
 4      1 +5.5534000e-05 3.57809900e+02 7.81860800e-03 9.78995100e-02
        2 -1    0    0  501    0 +0.0000000000e+00 +0.0000000000e+00 +6.9155901440e+02 6.9155901440e+02 0.0000000000e+00 0.0000e+00 -1.0000e+00
       -2 -1    0    0    0  501 -0.0000000000e+00 -0.0000000000e+00 -4.6282361838e+01 4.6282361838e+01 0.0000000000e+00 0.0000e+00 1.0000e+00
      -13  1    1    2    0    0 +1.3087029417e+02 +2.7916092712e+01 +7.7771428315e+01 1.5477317982e+02 0.0000000000e+00 0.0000e+00 1.0000e+00
       13  1    1    2    0    0 -1.3087029417e+02 -2.7916092712e+01 +5.6750522425e+02 5.8306819642e+02 0.0000000000e+00 0.0000e+00 -1.0000e+00
<mgrwt>
<rscale>  0 0.35780992E+03</rscale>
<asrwt>0</asrwt>
<pdfrwt beam="1">  1        2 0.10639369E+00 0.35780992E+03</pdfrwt>
<pdfrwt beam="2">  1       -2 0.71203638E-02 0.35780992E+03</pdfrwt>
<totfact> 0.51330805E+03</totfact>
</mgrwt>
<rwgt>
<wgt id='morphing_basis_vector_1'> +3.3174568e-04 </wgt>
<wgt id='morphing_basis_vector_2'> +1.7994570e-04 </wgt>
<wgt id='morphing_basis_vector_3'> +2.0227903e-04 </wgt>
<wgt id='morphing_basis_vector_4'> +3.7108145e-05 </wgt>
<wgt id='morphing_basis_vector_5'> +2.2967147e-05 </wgt>
</rwgt>
</event>
<event>
 4      1 +5.5534000e-05 3.11411700e+02 7.81860800e-03 9.96186000e-02
        2 -1    0    0  501    0 +0.0000000000e+00 +0.0000000000e+00 +5.4618090330e+01 5.4618090330e+01 0.0000000000e+00 0.0000e+00 1.0000e+00
       -2 -1    0    0    0  501 -0.0000000000e+00 -0.0000000000e+00 -4.4388801012e+02 4.4388801012e+02 0.0000000000e+00 0.0000e+00 -1.0000e+00
      -13  1    1    2    0    0 +1.1575537922e+02 +7.9534560714e+01 -3.0224907613e+02 3.3328600059e+02 0.0000000000e+00 0.0000e+00 -1.0000e+00
       13  1    1    2    0    0 -1.1575537922e+02 -7.9534560714e+01 -8.7020843659e+01 1.6522009986e+02 0.0000000000e+00 0.0000e+00 1.0000e+00
<mgrwt>
<rscale>  0 0.31141172E+03</rscale>
<asrwt>0</asrwt>
<pdfrwt beam="1">  1        2 0.84027833E-02 0.31141172E+03</pdfrwt>
<pdfrwt beam="2">  1       -2 0.68290462E-01 0.31141172E+03</pdfrwt>
<totfact> 0.20707200E+03</totfact>
</mgrwt>
<rwgt>
<wgt id='morphing_basis_vector_1'> +2.4198091e-04 </wgt>
<wgt id='morphing_basis_vector_2'> +1.3628854e-04 </wgt>
<wgt id='morphing_basis_vector_3'> +1.4060507e-04 </wgt>
<wgt id='morphing_basis_vector_4'> +2.4459043e-05 </wgt>
<wgt id='morphing_basis_vector_5'> +3.0877913e-06 </wgt>
</rwgt>
</event>
<event>
 4      1 +5.5534000e-05 3.43677000e+02 7.81860800e-03 9.83917600e-02
        2 -1    0    0  501    0 +0.0000000000e+00 +0.0000000000e+00 +4.2464246439e+01 4.2464246439e+01 0.0000000000e+00 0.0000e+00 -1.0000e+00
       -2 -1    0    0    0  501 -0.0000000000e+00 -0.0000000000e+00 -6.9537248744e+02 6.9537248744e+02 0.0000000000e+00 0.0000e+00 1.0000e+00
      -13  1    1    2    0    0 -1.5207478565e+01 -1.1418325737e+02 -6.0020900210e+02 6.1116276872e+02 0.0000000000e+00 0.0000e+00 1.0000e+00
       13  1    1    2    0    0 +1.5207478565e+01 +1.1418325737e+02 -5.2699238893e+01 1.2667396515e+02 0.0000000000e+00 0.0000e+00 -1.0000e+00
<mgrwt>
<rscale>  0 0.34367699E+03</rscale>
<asrwt>0</asrwt>
<pdfrwt beam="1">  1        2 0.65329613E-02 0.34367699E+03</pdfrwt>
<pdfrwt beam="2">  1       -2 0.10698038E+00 0.34367699E+03</pdfrwt>
<totfact> 0.10416082E+03</totfact>
</mgrwt>
<rwgt>
<wgt id='morphing_basis_vector_1'> +3.0105974e-04 </wgt>
<wgt id='morphing_basis_vector_2'> +1.6358562e-04 </wgt>
<wgt id='morphing_basis_vector_3'> +1.8147319e-04 </wgt>
<wgt id='morphing_basis_vector_4'> +3.1611845e-05 </wgt>
<wgt id='morphing_basis_vector_5'> +1.4579457e-05 </wgt>
</rwgt>
</event>
<event>
 4      1 +5.5534000e-05 3.08139200e+02 7.81860800e-03 9.97519500e-02
        2 -1    0    0  501    0 +0.0000000000e+00 +0.0000000000e+00 +9.4966999844e+01 9.4966999844e+01 0.0000000000e+00 0.0000e+00 -1.0000e+00
       -2 -1    0    0    0  501 -0.0000000000e+00 -0.0000000000e+00 -2.4995465993e+02 2.4995465993e+02 0.0000000000e+00 0.0000e+00 1.0000e+00
      -13  1    1    2    0    0 +1.2051429406e+02 +8.7158908206e+01 -1.2250687722e+02 1.9268706578e+02 0.0000000000e+00 0.0000e+00 1.0000e+00
       13  1    1    2    0    0 -1.2051429406e+02 -8.7158908206e+01 -3.2480782869e+01 1.5223459400e+02 0.0000000000e+00 0.0000e+00 -1.0000e+00
<mgrwt>
<rscale>  0 0.30813922E+03</rscale>
<asrwt>0</asrwt>
<pdfrwt beam="1">  1        2 0.14610308E-01 0.30813922E+03</pdfrwt>
<pdfrwt beam="2">  1       -2 0.38454563E-01 0.30813922E+03</pdfrwt>
<totfact> 0.31593006E+03</totfact>
</mgrwt>
<rwgt>
<wgt id='morphing_basis_vector_1'> +2.3784727e-04 </wgt>
<wgt id='morphing_basis_vector_2'> +1.3730526e-04 </wgt>
<wgt id='morphing_basis_vector_3'> +1.3536052e-04 </wgt>
<wgt id='morphing_basis_vector_4'> +2.4666632e-05 </wgt>
<wgt id='morphing_basis_vector_5'> +2.4856560e-06 </wgt>
</rwgt>
</event>
<event>
 4      1 +5.5534000e-05 3.22330000e+02 7.81860800e-03 9.91860500e-02
        2 -1    0    0  501    0 +0.0000000000e+00 +0.0000000000e+00 +6.7972766964e+01 6.7972766964e+01 0.0000000000e+00 0.0000e+00 -1.0000e+00
       -2 -1    0    0    0  501 -0.0000000000e+00 -0.0000000000e+00 -3.8212593243e+02 3.8212593243e+02 0.0000000000e+00 0.0000e+00 1.0000e+00
      -13  1    1    2    0    0 +7.9598729804e+01 -1.1129425581e+02 -2.7598964836e+02 3.0804651461e+02 0.0000000000e+00 0.0000e+00 1.0000e+00
       13  1    1    2    0    0 -7.9598729804e+01 +1.1129425581e+02 -3.8163517109e+01 1.4205218478e+02 0.0000000000e+00 0.0000e+00 -1.0000e+00
<mgrwt>
<rscale>  0 0.32233000E+03</rscale>
<asrwt>0</asrwt>
<pdfrwt beam="1">  1        2 0.10457349E-01 0.32233000E+03</pdfrwt>
<pdfrwt beam="2">  1       -2 0.58788605E-01 0.32233000E+03</pdfrwt>
<totfact> 0.21324902E+03</totfact>
</mgrwt>
<rwgt>
<wgt id='morphing_basis_vector_1'> +2.6050953e-04 </wgt>
<wgt id='morphing_basis_vector_2'> +1.4451508e-04 </wgt>
<wgt id='morphing_basis_vector_3'> +1.5331051e-04 </wgt>
<wgt id='morphing_basis_vector_4'> +2.6140920e-05 </wgt>
<wgt id='morphing_basis_vector_5'> +5.9029251e-06 </wgt>
</rwgt>
</event>
<event>
 4      1 +5.5534000e-05 3.54921100e+02 7.81860800e-03 9.79981100e-02
        2 -1    0    0  501    0 +0.0000000000e+00 +0.0000000000e+00 +5.7069358875e+01 5.7069358875e+01 0.0000000000e+00 0.0000e+00 -1.0000e+00
       -2 -1    0    0    0  501 -0.0000000000e+00 -0.0000000000e+00 -5.5182408607e+02 5.5182408607e+02 0.0000000000e+00 0.0000e+00 1.0000e+00
      -13  1    1    2    0    0 +1.7100959470e+02 +4.6774025589e+01 -2.3407133563e+02 2.9363494532e+02 0.0000000000e+00 0.0000e+00 1.0000e+00
       13  1    1    2    0    0 -1.7100959470e+02 -4.6774025589e+01 -2.6068339157e+02 3.1525849963e+02 0.0000000000e+00 0.0000e+00 -1.0000e+00
<mgrwt>
<rscale>  0 0.35492110E+03</rscale>
<asrwt>0</asrwt>
<pdfrwt beam="1">  1        2 0.87799012E-02 0.35492110E+03</pdfrwt>
<pdfrwt beam="2">  1       -2 0.84896015E-01 0.35492110E+03</pdfrwt>
<totfact> 0.12220585E+03</totfact>
</mgrwt>
<rwgt>
<wgt id='morphing_basis_vector_1'> +3.3636453e-04 </wgt>
<wgt id='morphing_basis_vector_2'> +2.0973420e-04 </wgt>
<wgt id='morphing_basis_vector_3'> +1.8450704e-04 </wgt>
<wgt id='morphing_basis_vector_4'> +3.9063298e-05 </wgt>
<wgt id='morphing_basis_vector_5'> +2.1775819e-05 </wgt>
</rwgt>
</event>
<event>
 4      1 +5.5534000e-05 3.19459700e+02 7.81860800e-03 9.92979400e-02
        2 -1    0    0  501    0 +0.0000000000e+00 +0.0000000000e+00 +7.4322595665e+02 7.4322595665e+02 0.0000000000e+00 0.0000e+00 -1.0000e+00
       -2 -1    0    0    0  501 -0.0000000000e+00 -0.0000000000e+00 -3.4328216097e+01 3.4328216097e+01 0.0000000000e+00 0.0000e+00 1.0000e+00
      -13  1    1    2    0    0 +1.3549424738e+02 +3.1840304704e+01 +1.6371027345e+02 2.1488031485e+02 0.0000000000e+00 0.0000e+00 1.0000e+00
       13  1    1    2    0    0 -1.3549424738e+02 -3.1840304704e+01 +5.4518746710e+02 5.6267385790e+02 0.0000000000e+00 0.0000e+00 -1.0000e+00
<mgrwt>
<rscale>  0 0.31945968E+03</rscale>
<asrwt>0</asrwt>
<pdfrwt beam="1">  1        2 0.11434244E+00 0.31945968E+03</pdfrwt>
<pdfrwt beam="2">  1       -2 0.52812646E-02 0.31945968E+03</pdfrwt>
<totfact> 0.73701100E+03</totfact>
</mgrwt>
<rwgt>
<wgt id='morphing_basis_vector_1'> +2.5555510e-04 </wgt>
<wgt id='morphing_basis_vector_2'> +1.4242027e-04 </wgt>
<wgt id='morphing_basis_vector_3'> +1.4978790e-04 </wgt>
<wgt id='morphing_basis_vector_4'> +2.5654882e-05 </wgt>
<wgt id='morphing_basis_vector_5'> +5.0664178e-06 </wgt>
</rwgt>
</event>
<event>
 4      1 +5.5534000e-05 3.10147600e+02 7.81860800e-03 9.96699000e-02
        2 -1    0    0  501    0 +0.0000000000e+00 +0.0000000000e+00 +7.0692356465e+02 7.0692356465e+02 0.0000000000e+00 0.0000e+00 -1.0000e+00
       -2 -1    0    0    0  501 -0.0000000000e+00 -0.0000000000e+00 -3.4017662421e+01 3.4017662421e+01 0.0000000000e+00 0.0000e+00 1.0000e+00
      -13  1    1    2    0    0 +1.3653799406e+02 -4.6935210833e+01 +2.0126136754e+02 2.4769270458e+02 0.0000000000e+00 0.0000e+00 1.0000e+00
       13  1    1    2    0    0 -1.3653799406e+02 +4.6935210833e+01 +4.7164453468e+02 4.9324852248e+02 0.0000000000e+00 0.0000e+00 -1.0000e+00
<mgrwt>
<rscale>  0 0.31014762E+03</rscale>
<asrwt>0</asrwt>
<pdfrwt beam="1">  1        2 0.10875746E+00 0.31014762E+03</pdfrwt>
<pdfrwt beam="2">  1       -2 0.52334871E-02 0.31014762E+03</pdfrwt>
<totfact> 0.79252069E+03</totfact>
</mgrwt>
<rwgt>
<wgt id='morphing_basis_vector_1'> +2.4029134e-04 </wgt>
<wgt id='morphing_basis_vector_2'> +1.3644882e-04 </wgt>
<wgt id='morphing_basis_vector_3'> +1.3868360e-04 </wgt>
<wgt id='morphing_basis_vector_4'> +2.4489649e-05 </wgt>
<wgt id='morphing_basis_vector_5'> +2.8422456e-06 </wgt>
</rwgt>
</event>
<event>
 4      1 +5.5534000e-05 3.47770000e+02 7.81860800e-03 9.82466100e-02
        2 -1    0    0  501    0 +0.0000000000e+00 +0.0000000000e+00 +6.0899190637e+02 6.0899190637e+02 0.0000000000e+00 0.0000e+00 1.0000e+00
       -2 -1    0    0    0  501 -0.0000000000e+00 -0.0000000000e+00 -4.9649245651e+01 4.9649245651e+01 0.0000000000e+00 0.0000e+00 -1.0000e+00
      -13  1    1    2    0    0 -6.1200673688e+01 -1.3192361003e+02 +4.6020497056e+02 4.8263648460e+02 0.0000000000e+00 0.0000e+00 1.0000e+00
       13  1    1    2    0    0 +6.1200673688e+01 +1.3192361003e+02 +9.9137690163e+01 1.7600466742e+02 0.0000000000e+00 0.0000e+00 -1.0000e+00
<mgrwt>
<rscale>  0 0.34776997E+03</rscale>
<asrwt>0</asrwt>
<pdfrwt beam="1">  1        2 0.93691057E-01 0.34776997E+03</pdfrwt>
<pdfrwt beam="2">  1       -2 0.76383459E-02 0.34776997E+03</pdfrwt>
<totfact> 0.53463402E+03</totfact>
</mgrwt>
<rwgt>
<wgt id='morphing_basis_vector_1'> +3.6659222e-04 </wgt>
<wgt id='morphing_basis_vector_2'> +3.3779454e-04 </wgt>
<wgt id='morphing_basis_vector_3'> +1.1683490e-04 </wgt>
<wgt id='morphing_basis_vector_4'> +5.1394335e-05 </wgt>
<wgt id='morphing_basis_vector_5'> +2.0303290e-05 </wgt>
</rwgt>
</event>
<event>
 4      1 +5.5534000e-05 3.16087300e+02 7.81860800e-03 9.94310600e-02
        2 -1    0    0  501    0 +0.0000000000e+00 +0.0000000000e+00 +5.1334107702e+02 5.1334107702e+02 0.0000000000e+00 0.0000e+00 1.0000e+00
       -2 -1    0    0    0  501 -0.0000000000e+00 -0.0000000000e+00 -4.8657311818e+01 4.8657311818e+01 0.0000000000e+00 0.0000e+00 -1.0000e+00
      -13  1    1    2    0    0 -1.2914689403e+02 +7.6683083200e+01 +1.4490224245e+02 2.0870044407e+02 0.0000000000e+00 0.0000e+00 -1.0000e+00
       13  1    1    2    0    0 +1.2914689403e+02 -7.6683083200e+01 +3.1978152275e+02 3.5329794477e+02 0.0000000000e+00 0.0000e+00 1.0000e+00
<mgrwt>
<rscale>  0 0.31608731E+03</rscale>
<asrwt>0</asrwt>
<pdfrwt beam="1">  1        2 0.78975546E-01 0.31608731E+03</pdfrwt>
<pdfrwt beam="2">  1       -2 0.74857407E-02 0.31608731E+03</pdfrwt>
<totfact> 0.66682708E+03</totfact>
</mgrwt>
<rwgt>
<wgt id='morphing_basis_vector_1'> +2.5085829e-04 </wgt>
<wgt id='morphing_basis_vector_2'> +1.4293751e-04 </wgt>
<wgt id='morphing_basis_vector_3'> +1.4435148e-04 </wgt>
<wgt id='morphing_basis_vector_4'> +2.5616776e-05 </wgt>
<wgt id='morphing_basis_vector_5'> +4.2228551e-06 </wgt>
</rwgt>
</event>
<event>
 4      1 +5.5534000e-05 3.46539400e+02 7.81860800e-03 9.82900200e-02
        2 -1    0    0  501    0 +0.0000000000e+00 +0.0000000000e+00 +1.3779657979e+02 1.3779657979e+02 0.0000000000e+00 0.0000e+00 -1.0000e+00
       -2 -1    0    0    0  501 -0.0000000000e+00 -0.0000000000e+00 -2.1787471814e+02 2.1787471814e+02 0.0000000000e+00 0.0000e+00 1.0000e+00
      -13  1    1    2    0    0 -2.3338104678e+00 +4.8503729404e+01 -2.1074801643e+02 2.1627016638e+02 0.0000000000e+00 0.0000e+00 1.0000e+00
       13  1    1    2    0    0 +2.3338104678e+00 -4.8503729404e+01 +1.3066987809e+02 1.3940113155e+02 0.0000000000e+00 0.0000e+00 -1.0000e+00
<mgrwt>
<rscale>  0 0.34653941E+03</rscale>
<asrwt>0</asrwt>
<pdfrwt beam="1">  1        2 0.21199474E-01 0.34653941E+03</pdfrwt>
<pdfrwt beam="2">  1       -2 0.33519187E-01 0.34653941E+03</pdfrwt>
<totfact> 0.25991161E+03</totfact>
</mgrwt>
<rwgt>
<wgt id='morphing_basis_vector_1'> +3.0680103e-04 </wgt>
<wgt id='morphing_basis_vector_2'> +1.6600018e-04 </wgt>
<wgt id='morphing_basis_vector_3'> +1.8580623e-04 </wgt>
<wgt id='morphing_basis_vector_4'> +3.2530778e-05 </wgt>
<wgt id='morphing_basis_vector_5'> +1.6084153e-05 </wgt>
</rwgt>
</event>
<event>
 4      1 +5.5534000e-05 3.39252300e+02 7.81860800e-03 9.85511600e-02
        2 -1    0    0  501    0 +0.0000000000e+00 +0.0000000000e+00 +8.4014468555e+02 8.4014468555e+02 0.0000000000e+00 0.0000e+00 1.0000e+00
       -2 -1    0    0    0  501 -0.0000000000e+00 -0.0000000000e+00 -3.4247702424e+01 3.4247702424e+01 0.0000000000e+00 0.0000e+00 -1.0000e+00
      -13  1    1    2    0    0 -1.3091741752e+01 -1.3410365854e+02 +6.6853236647e+02 6.8197559337e+02 0.0000000000e+00 0.0000e+00 1.0000e+00
       13  1    1    2    0    0 +1.3091741752e+01 +1.3410365854e+02 +1.3736461666e+02 1.9241679460e+02 0.0000000000e+00 0.0000e+00 -1.0000e+00
<mgrwt>
<rscale>  0 0.33925227E+03</rscale>
<asrwt>0</asrwt>
<pdfrwt beam="1">  1        2 0.12925301E+00 0.33925227E+03</pdfrwt>
<pdfrwt beam="2">  1       -2 0.52688779E-02 0.33925227E+03</pdfrwt>
<totfact> 0.63672347E+03</totfact>
</mgrwt>
<rwgt>
<wgt id='morphing_basis_vector_1'> +3.5466821e-04 </wgt>
<wgt id='morphing_basis_vector_2'> +3.4444653e-04 </wgt>
<wgt id='morphing_basis_vector_3'> +9.5110027e-05 </wgt>
<wgt id='morphing_basis_vector_4'> +5.2909953e-05 </wgt>
<wgt id='morphing_basis_vector_5'> +1.6112298e-05 </wgt>
</rwgt>
</event>
<event>
 4      1 +5.5534000e-05 3.58496900e+02 7.81860800e-03 9.78762200e-02
        2 -1    0    0  501    0 +0.0000000000e+00 +0.0000000000e+00 +2.6120086719e+02 2.6120086719e+02 0.0000000000e+00 0.0000e+00 -1.0000e+00
       -2 -1    0    0    0  501 -0.0000000000e+00 -0.0000000000e+00 -1.2300878067e+02 1.2300878067e+02 0.0000000000e+00 0.0000e+00 1.0000e+00
      -13  1    1    2    0    0 -2.9278375085e+01 +1.4596060665e+02 -3.7906224604e+01 1.5361837066e+02 0.0000000000e+00 0.0000e+00 1.0000e+00
       13  1    1    2    0    0 +2.9278375085e+01 -1.4596060665e+02 +1.7609831113e+02 2.3059127720e+02 0.0000000000e+00 0.0000e+00 -1.0000e+00
<mgrwt>
<rscale>  0 0.35849686E+03</rscale>
<asrwt>0</asrwt>
<pdfrwt beam="1">  1        2 0.40184749E-01 0.35849686E+03</pdfrwt>
<pdfrwt beam="2">  1       -2 0.18924428E-01 0.35849686E+03</pdfrwt>
<totfact> 0.33002676E+03</totfact>
</mgrwt>
<rwgt>
<wgt id='morphing_basis_vector_1'> +3.3373542e-04 </wgt>
<wgt id='morphing_basis_vector_2'> +1.8206972e-04 </wgt>
<wgt id='morphing_basis_vector_3'> +2.0284994e-04 </wgt>
<wgt id='morphing_basis_vector_4'> +3.7526578e-05 </wgt>
<wgt id='morphing_basis_vector_5'> +2.3460262e-05 </wgt>
</rwgt>
</event>
<event>
 4      1 +5.5534000e-05 3.06410000e+02 7.81860800e-03 9.98231200e-02
        2 -1    0    0  501    0 +0.0000000000e+00 +0.0000000000e+00 +1.5032281812e+02 1.5032281812e+02 0.0000000000e+00 0.0000e+00 -1.0000e+00
       -2 -1    0    0    0  501 -0.0000000000e+00 -0.0000000000e+00 -1.5614244527e+02 1.5614244527e+02 0.0000000000e+00 0.0000e+00 1.0000e+00
      -13  1    1    2    0    0 +7.5463138836e+01 +6.2373127783e+01 -1.2077282463e+02 1.5547079327e+02 0.0000000000e+00 0.0000e+00 1.0000e+00
       13  1    1    2    0    0 -7.5463138836e+01 -6.2373127783e+01 +1.1495319749e+02 1.5099447011e+02 0.0000000000e+00 0.0000e+00 -1.0000e+00
<mgrwt>
<rscale>  0 0.30641000E+03</rscale>
<asrwt>0</asrwt>
<pdfrwt beam="1">  1        2 0.23126588E-01 0.30641000E+03</pdfrwt>
<pdfrwt beam="2">  1       -2 0.24021914E-01 0.30641000E+03</pdfrwt>
<totfact> 0.41466310E+03</totfact>
</mgrwt>
<rwgt>
<wgt id='morphing_basis_vector_1'> +2.3271138e-04 </wgt>
<wgt id='morphing_basis_vector_2'> +1.2924200e-04 </wgt>
<wgt id='morphing_basis_vector_3'> +1.3694097e-04 </wgt>
<wgt id='morphing_basis_vector_4'> +2.3281366e-05 </wgt>
<wgt id='morphing_basis_vector_5'> +2.0755382e-06 </wgt>
</rwgt>
</event>
<event>
 4      1 +5.5534000e-05 3.25437500e+02 7.81860800e-03 9.90663300e-02
        2 -1    0    0  501    0 +0.0000000000e+00 +0.0000000000e+00 +7.4737969260e+01 7.4737969260e+01 0.0000000000e+00 0.0000e+00 -1.0000e+00
       -2 -1    0    0    0  501 -0.0000000000e+00 -0.0000000000e+00 -3.5426970916e+02 3.5426970916e+02 0.0000000000e+00 0.0000e+00 1.0000e+00
      -13  1    1    2    0    0 +1.4820166387e+02 +3.8220160430e+01 -6.6928774216e+01 1.6704482828e+02 0.0000000000e+00 0.0000e+00 1.0000e+00
       13  1    1    2    0    0 -1.4820166387e+02 -3.8220160430e+01 -2.1260296568e+02 2.6196285014e+02 0.0000000000e+00 0.0000e+00 -1.0000e+00
<mgrwt>
<rscale>  0 0.32543754E+03</rscale>
<asrwt>0</asrwt>
<pdfrwt beam="1">  1        2 0.11498149E-01 0.32543754E+03</pdfrwt>
<pdfrwt beam="2">  1       -2 0.54503032E-01 0.32543754E+03</pdfrwt>
<totfact> 0.22016450E+03</totfact>
</mgrwt>
<rwgt>
<wgt id='morphing_basis_vector_1'> +2.9084165e-04 </wgt>
<wgt id='morphing_basis_vector_2'> +2.1965556e-04 </wgt>
<wgt id='morphing_basis_vector_3'> +1.2359050e-04 </wgt>
<wgt id='morphing_basis_vector_4'> +3.7345901e-05 </wgt>
<wgt id='morphing_basis_vector_5'> +8.2167017e-06 </wgt>
</rwgt>
</event>
<event>
 4      1 +5.5534000e-05 3.57420900e+02 7.81860800e-03 9.79127300e-02
        2 -1    0    0  501    0 +0.0000000000e+00 +0.0000000000e+00 +5.4205451105e+01 5.4205451105e+01 0.0000000000e+00 0.0000e+00 1.0000e+00
       -2 -1    0    0    0  501 -0.0000000000e+00 -0.0000000000e+00 -5.8919208199e+02 5.8919208199e+02 0.0000000000e+00 0.0000e+00 -1.0000e+00
      -13  1    1    2    0    0 +8.0977238203e+01 -1.4179969070e+02 -1.3677796653e+02 2.1300863250e+02 0.0000000000e+00 0.0000e+00 1.0000e+00
       13  1    1    2    0    0 -8.0977238203e+01 +1.4179969070e+02 -3.9820866435e+02 4.3038890060e+02 0.0000000000e+00 0.0000e+00 -1.0000e+00
<mgrwt>
<rscale>  0 0.35742089E+03</rscale>
<asrwt>0</asrwt>
<pdfrwt beam="1">  1        2 0.83392999E-02 0.35742089E+03</pdfrwt>
<pdfrwt beam="2">  1       -2 0.90644938E-01 0.35742089E+03</pdfrwt>
<totfact> 0.11239518E+03</totfact>
</mgrwt>
<rwgt>
<wgt id='morphing_basis_vector_1'> +3.7075810e-04 </wgt>
<wgt id='morphing_basis_vector_2'> +2.9909057e-04 </wgt>
<wgt id='morphing_basis_vector_3'> +1.5441971e-04 </wgt>
<wgt id='morphing_basis_vector_4'> +4.7907096e-05 </wgt>
<wgt id='morphing_basis_vector_5'> +2.5260760e-05 </wgt>
</rwgt>
</event>
<event>
 4      1 +5.5534000e-05 3.22004200e+02 7.81860800e-03 9.91986800e-02
        2 -1    0    0  501    0 +0.0000000000e+00 +0.0000000000e+00 +5.8776014676e+01 5.8776014676e+01 0.0000000000e+00 0.0000e+00 1.0000e+00
       -2 -1    0    0    0  501 -0.0000000000e+00 -0.0000000000e+00 -4.4102473661e+02 4.4102473661e+02 0.0000000000e+00 0.0000e+00 -1.0000e+00
      -13  1    1    2    0    0 +1.1943810297e+01 +1.5097599867e+02 -2.7593047172e+02 3.1476027704e+02 0.0000000000e+00 0.0000e+00 -1.0000e+00
       13  1    1    2    0    0 -1.1943810297e+01 -1.5097599867e+02 -1.0631825021e+02 1.8504047424e+02 0.0000000000e+00 0.0000e+00 1.0000e+00
<mgrwt>
<rscale>  0 0.32200420E+03</rscale>
<asrwt>0</asrwt>
<pdfrwt beam="1">  1        2 0.90424640E-02 0.32200420E+03</pdfrwt>
<pdfrwt beam="2">  1       -2 0.67849958E-01 0.32200420E+03</pdfrwt>
<totfact> 0.19130395E+03</totfact>
</mgrwt>
<rwgt>
<wgt id='morphing_basis_vector_1'> +2.6110727e-04 </wgt>
<wgt id='morphing_basis_vector_2'> +1.4767594e-04 </wgt>
<wgt id='morphing_basis_vector_3'> +1.5131108e-04 </wgt>
<wgt id='morphing_basis_vector_4'> +2.6599099e-05 </wgt>
<wgt id='morphing_basis_vector_5'> +5.8643219e-06 </wgt>
</rwgt>
</event>
<event>
 4      1 +5.5534000e-05 3.00422100e+02 7.81860800e-03 1.00073500e-01
        2 -1    0    0  501    0 +0.0000000000e+00 +0.0000000000e+00 +5.9473861072e+02 5.9473861072e+02 0.0000000000e+00 0.0000e+00 -1.0000e+00
       -2 -1    0    0    0  501 -0.0000000000e+00 -0.0000000000e+00 -3.7938279459e+01 3.7938279459e+01 0.0000000000e+00 0.0000e+00 1.0000e+00
      -13  1    1    2    0    0 -9.7739590080e+01 -1.0243585530e+02 +1.7273998620e+02 2.2335002743e+02 0.0000000000e+00 0.0000e+00 1.0000e+00
       13  1    1    2    0    0 +9.7739590080e+01 +1.0243585530e+02 +3.8406034507e+02 4.0932686275e+02 0.0000000000e+00 0.0000e+00 -1.0000e+00
<mgrwt>
<rscale>  0 0.30042210E+03</rscale>
<asrwt>0</asrwt>
<pdfrwt beam="1">  1        2 0.91498241E-01 0.30042210E+03</pdfrwt>
<pdfrwt beam="2">  1       -2 0.58366588E-02 0.30042210E+03</pdfrwt>
<totfact> 0.82145540E+03</totfact>
</mgrwt>
<rwgt>
<wgt id='morphing_basis_vector_1'> +2.2478245e-04 </wgt>
<wgt id='morphing_basis_vector_2'> +1.2908236e-04 </wgt>
<wgt id='morphing_basis_vector_3'> +1.2880058e-04 </wgt>
<wgt id='morphing_basis_vector_4'> +2.3479591e-05 </wgt>
<wgt id='morphing_basis_vector_5'> +1.2328247e-06 </wgt>
</rwgt>
</event>
<event>
 4      1 +5.5534000e-05 3.30728200e+02 7.81860800e-03 9.88658100e-02
        2 -1    0    0  501    0 +0.0000000000e+00 +0.0000000000e+00 +2.0232018152e+02 2.0232018152e+02 0.0000000000e+00 0.0000e+00 -1.0000e+00
       -2 -1    0    0    0  501 -0.0000000000e+00 -0.0000000000e+00 -1.3515846204e+02 1.3515846204e+02 0.0000000000e+00 0.0000e+00 1.0000e+00
      -13  1    1    2    0    0 -1.1158541297e+02 -8.7271945887e+01 +1.2063086423e+02 1.8606316758e+02 0.0000000000e+00 0.0000e+00 1.0000e+00
       13  1    1    2    0    0 +1.1158541297e+02 +8.7271945887e+01 -5.3469144755e+01 1.5141547598e+02 0.0000000000e+00 0.0000e+00 -1.0000e+00
<mgrwt>
<rscale>  0 0.33072819E+03</rscale>
<asrwt>0</asrwt>
<pdfrwt beam="1">  1        2 0.31126182E-01 0.33072819E+03</pdfrwt>
<pdfrwt beam="2">  1       -2 0.20793609E-01 0.33072819E+03</pdfrwt>
<totfact> 0.37580130E+03</totfact>
</mgrwt>
<rwgt>
<wgt id='morphing_basis_vector_1'> +3.2125308e-04 </wgt>
<wgt id='morphing_basis_vector_2'> +2.8538879e-04 </wgt>
<wgt id='morphing_basis_vector_3'> +1.0350905e-04 </wgt>
<wgt id='morphing_basis_vector_4'> +4.6266576e-05 </wgt>
<wgt id='morphing_basis_vector_5'> +1.1329156e-05 </wgt>
</rwgt>
</event>
<event>
 4      1 +5.5534000e-05 3.31855800e+02 7.81860800e-03 9.88236000e-02
        2 -1    0    0  501    0 +0.0000000000e+00 +0.0000000000e+00 +6.2276033377e+02 6.2276033377e+02 0.0000000000e+00 0.0000e+00 -1.0000e+00
       -2 -1    0    0    0  501 -0.0000000000e+00 -0.0000000000e+00 -4.4209743527e+01 4.4209743527e+01 0.0000000000e+00 0.0000e+00 1.0000e+00
      -13  1    1    2    0    0 -1.2640601873e+02 -1.0723516278e+02 +2.7447711476e+02 3.2064863673e+02 0.0000000000e+00 0.0000e+00 1.0000e+00
       13  1    1    2    0    0 +1.2640601873e+02 +1.0723516278e+02 +3.0407347548e+02 3.4632144057e+02 0.0000000000e+00 0.0000e+00 -1.0000e+00
<mgrwt>
<rscale>  0 0.33185584E+03</rscale>
<asrwt>0</asrwt>
<pdfrwt beam="1">  1        2 0.95809275E-01 0.33185584E+03</pdfrwt>
<pdfrwt beam="2">  1       -2 0.68014995E-02 0.33185584E+03</pdfrwt>
<totfact> 0.62069974E+03</totfact>
</mgrwt>
<rwgt>
<wgt id='morphing_basis_vector_1'> +2.8433197e-04 </wgt>
<wgt id='morphing_basis_vector_2'> +1.7153486e-04 </wgt>
<wgt id='morphing_basis_vector_3'> +1.5678161e-04 </wgt>
<wgt id='morphing_basis_vector_4'> +3.0777762e-05 </wgt>
<wgt id='morphing_basis_vector_5'> +9.5901959e-06 </wgt>
</rwgt>
</event>
<event>
 4      1 +5.5534000e-05 3.46029000e+02 7.81860800e-03 9.83080900e-02
        2 -1    0    0  501    0 +0.0000000000e+00 +0.0000000000e+00 +4.1606549664e+02 4.1606549664e+02 0.0000000000e+00 0.0000e+00 -1.0000e+00
       -2 -1    0    0    0  501 -0.0000000000e+00 -0.0000000000e+00 -7.1945440755e+01 7.1945440755e+01 0.0000000000e+00 0.0000e+00 1.0000e+00
      -13  1    1    2    0    0 +9.2153501361e+01 +9.6493889153e+01 +1.6728508307e+01 1.3447372029e+02 0.0000000000e+00 0.0000e+00 1.0000e+00
       13  1    1    2    0    0 -9.2153501361e+01 -9.6493889153e+01 +3.2739154758e+02 3.5353721711e+02 0.0000000000e+00 0.0000e+00 -1.0000e+00
<mgrwt>
<rscale>  0 0.34602899E+03</rscale>
<asrwt>0</asrwt>
<pdfrwt beam="1">  1        2 0.64010075E-01 0.34602899E+03</pdfrwt>
<pdfrwt beam="2">  1       -2 0.11068530E-01 0.34602899E+03</pdfrwt>
<totfact> 0.46252795E+03</totfact>
</mgrwt>
<rwgt>
<wgt id='morphing_basis_vector_1'> +3.0621877e-04 </wgt>
<wgt id='morphing_basis_vector_2'> +1.6690279e-04 </wgt>
<wgt id='morphing_basis_vector_3'> +1.8446675e-04 </wgt>
<wgt id='morphing_basis_vector_4'> +3.2510935e-05 </wgt>
<wgt id='morphing_basis_vector_5'> +1.5837018e-05 </wgt>
</rwgt>
</event>
<event>
 4      1 +5.5534000e-05 3.43938000e+02 7.81860800e-03 9.83824400e-02
        2 -1    0    0  501    0 +0.0000000000e+00 +0.0000000000e+00 +4.7420864576e+01 4.7420864576e+01 0.0000000000e+00 0.0000e+00 -1.0000e+00
       -2 -1    0    0    0  501 -0.0000000000e+00 -0.0000000000e+00 -6.2363563047e+02 6.2363563047e+02 0.0000000000e+00 0.0000e+00 1.0000e+00
      -13  1    1    2    0    0 -1.2683076367e+02 -1.0657198703e+02 -3.7814813295e+02 4.1284336192e+02 0.0000000000e+00 0.0000e+00 1.0000e+00
       13  1    1    2    0    0 +1.2683076367e+02 +1.0657198703e+02 -1.9806663295e+02 2.5821313313e+02 0.0000000000e+00 0.0000e+00 -1.0000e+00
<mgrwt>
<rscale>  0 0.34393802E+03</rscale>
<asrwt>0</asrwt>
<pdfrwt beam="1">  1        2 0.72955180E-02 0.34393802E+03</pdfrwt>
<pdfrwt beam="2">  1       -2 0.95943938E-01 0.34393802E+03</pdfrwt>
<totfact> 0.11703133E+03</totfact>
</mgrwt>
<rwgt>
<wgt id='morphing_basis_vector_1'> +3.0456097e-04 </wgt>
<wgt id='morphing_basis_vector_2'> +1.7266723e-04 </wgt>
<wgt id='morphing_basis_vector_3'> +1.7811481e-04 </wgt>
<wgt id='morphing_basis_vector_4'> +3.2708589e-05 </wgt>
<wgt id='morphing_basis_vector_5'> +1.4894334e-05 </wgt>
</rwgt>
</event>
<event>
 4      1 +5.5534000e-05 3.31048100e+02 7.81860800e-03 9.88538200e-02
        2 -1    0    0  501    0 +0.0000000000e+00 +0.0000000000e+00 +4.2298841174e+02 4.2298841174e+02 0.0000000000e+00 0.0000e+00 -1.0000e+00
       -2 -1    0    0    0  501 -0.0000000000e+00 -0.0000000000e+00 -6.4772953332e+01 6.4772953332e+01 0.0000000000e+00 0.0000e+00 1.0000e+00
      -13  1    1    2    0    0 +1.5834450181e+02 +4.7559467689e+01 +1.6738302295e+02 2.3526997384e+02 0.0000000000e+00 0.0000e+00 1.0000e+00
       13  1    1    2    0    0 -1.5834450181e+02 -4.7559467689e+01 +1.9083243546e+02 2.5249139123e+02 0.0000000000e+00 0.0000e+00 -1.0000e+00
<mgrwt>
<rscale>  0 0.33104809E+03</rscale>
<asrwt>0</asrwt>
<pdfrwt beam="1">  1        2 0.65075139E-01 0.33104809E+03</pdfrwt>
<pdfrwt beam="2">  1       -2 0.99650700E-02 0.33104809E+03</pdfrwt>
<totfact> 0.53374308E+03</totfact>
</mgrwt>
<rwgt>
<wgt id='morphing_basis_vector_1'> +2.8265303e-04 </wgt>
<wgt id='morphing_basis_vector_2'> +1.7033669e-04 </wgt>
<wgt id='morphing_basis_vector_3'> +1.5591731e-04 </wgt>
<wgt id='morphing_basis_vector_4'> +3.0538991e-05 </wgt>
<wgt id='morphing_basis_vector_5'> +9.2639095e-06 </wgt>
</rwgt>
</event>
<event>
 4      1 +5.5534000e-05 3.33709300e+02 7.81860800e-03 9.87546100e-02
        2 -1    0    0  501    0 +0.0000000000e+00 +0.0000000000e+00 +6.4156951240e+02 6.4156951240e+02 0.0000000000e+00 0.0000e+00 1.0000e+00
       -2 -1    0    0    0  501 -0.0000000000e+00 -0.0000000000e+00 -4.3394333009e+01 4.3394333009e+01 0.0000000000e+00 0.0000e+00 -1.0000e+00
      -13  1    1    2    0    0 -1.0273408324e+02 +2.8363547131e+01 +3.5575668905e+01 1.1235840371e+02 0.0000000000e+00 0.0000e+00 -1.0000e+00
       13  1    1    2    0    0 +1.0273408324e+02 -2.8363547131e+01 +5.6259951049e+02 5.7260544170e+02 0.0000000000e+00 0.0000e+00 1.0000e+00
<mgrwt>
<rscale>  0 0.33370934E+03</rscale>
<asrwt>0</asrwt>
<pdfrwt beam="1">  1        2 0.98702995E-01 0.33370934E+03</pdfrwt>
<pdfrwt beam="2">  1       -2 0.66760517E-02 0.33370934E+03</pdfrwt>
<totfact> 0.61696125E+03</totfact>
</mgrwt>
<rwgt>
<wgt id='morphing_basis_vector_1'> +2.8109674e-04 </wgt>
<wgt id='morphing_basis_vector_2'> +1.5330838e-04 </wgt>
<wgt id='morphing_basis_vector_3'> +1.6812848e-04 </wgt>
<wgt id='morphing_basis_vector_4'> +2.8567069e-05 </wgt>
<wgt id='morphing_basis_vector_5'> +9.9563528e-06 </wgt>
</rwgt>
</event>
<event>
 4      1 +5.5534000e-05 3.12030600e+02 7.81860800e-03 9.95935800e-02
        2 -1    0    0  501    0 +0.0000000000e+00 +0.0000000000e+00 +1.5362751523e+02 1.5362751523e+02 0.0000000000e+00 0.0000e+00 -1.0000e+00
       -2 -1    0    0    0  501 -0.0000000000e+00 -0.0000000000e+00 -1.5844018417e+02 1.5844018417e+02 0.0000000000e+00 0.0000e+00 1.0000e+00
      -13  1    1    2    0    0 +9.4935175922e+00 -4.2612623105e+01 -1.5220668933e+02 1.5834405199e+02 0.0000000000e+00 0.0000e+00 1.0000e+00
       13  1    1    2    0    0 -9.4935175922e+00 +4.2612623105e+01 +1.4739402039e+02 1.5372364741e+02 0.0000000000e+00 0.0000e+00 -1.0000e+00
<mgrwt>
<rscale>  0 0.31203059E+03</rscale>
<asrwt>0</asrwt>
<pdfrwt beam="1">  1        2 0.23635002E-01 0.31203059E+03</pdfrwt>
<pdfrwt beam="2">  1       -2 0.24375413E-01 0.31203059E+03</pdfrwt>
<totfact> 0.39486267E+03</totfact>
</mgrwt>
<rwgt>
<wgt id='morphing_basis_vector_1'> +2.4184773e-04 </wgt>
<wgt id='morphing_basis_vector_2'> +1.3341760e-04 </wgt>
<wgt id='morphing_basis_vector_3'> +1.4291952e-04 </wgt>
<wgt id='morphing_basis_vector_4'> +2.3978168e-05 </wgt>
<wgt id='morphing_basis_vector_5'> +3.1686313e-06 </wgt>
</rwgt>
</event>
<event>
 4      1 +5.5534000e-05 3.13365000e+02 7.81860800e-03 9.95398300e-02
        2 -1    0    0  501    0 +0.0000000000e+00 +0.0000000000e+00 +2.0668861319e+02 2.0668861319e+02 0.0000000000e+00 0.0000e+00 -1.0000e+00
       -2 -1    0    0    0  501 -0.0000000000e+00 -0.0000000000e+00 -1.1877486741e+02 1.1877486741e+02 0.0000000000e+00 0.0000e+00 1.0000e+00
      -13  1    1    2    0    0 +4.3871972584e+01 +7.9047726209e+01 -8.8952992229e+01 1.2683031114e+02 0.0000000000e+00 0.0000e+00 1.0000e+00
       13  1    1    2    0    0 -4.3871972584e+01 -7.9047726209e+01 +1.7686673801e+02 1.9863316946e+02 0.0000000000e+00 0.0000e+00 -1.0000e+00
<mgrwt>
<rscale>  0 0.31336504E+03</rscale>
<asrwt>0</asrwt>
<pdfrwt beam="1">  1        2 0.31798248E-01 0.31336504E+03</pdfrwt>
<pdfrwt beam="2">  1       -2 0.18273057E-01 0.31336504E+03</pdfrwt>
<totfact> 0.45219476E+03</totfact>
</mgrwt>
<rwgt>
<wgt id='morphing_basis_vector_1'> +2.4417168e-04 </wgt>
<wgt id='morphing_basis_vector_2'> +1.3473774e-04 </wgt>
<wgt id='morphing_basis_vector_3'> +1.4423765e-04 </wgt>
<wgt id='morphing_basis_vector_4'> +2.4217878e-05 </wgt>
<wgt id='morphing_basis_vector_5'> +3.4703994e-06 </wgt>
</rwgt>
</event>
<event>
 4      1 +5.5534000e-05 3.20926100e+02 7.81860800e-03 9.92406200e-02
        2 -1    0    0  501    0 +0.0000000000e+00 +0.0000000000e+00 +7.2750565518e+02 7.2750565518e+02 0.0000000000e+00 0.0000e+00 -1.0000e+00
       -2 -1    0    0    0  501 -0.0000000000e+00 -0.0000000000e+00 -3.5392690365e+01 3.5392690365e+01 0.0000000000e+00 0.0000e+00 1.0000e+00
      -13  1    1    2    0    0 +1.3834250214e+02 +7.4812534857e+01 +2.7040322219e+02 3.1281538620e+02 0.0000000000e+00 0.0000e+00 1.0000e+00
       13  1    1    2    0    0 -1.3834250214e+02 -7.4812534857e+01 +4.2170974263e+02 4.5008295935e+02 0.0000000000e+00 0.0000e+00 -1.0000e+00
<mgrwt>
<rscale>  0 0.32092605E+03</rscale>
<asrwt>0</asrwt>
<pdfrwt beam="1">  1        2 0.11192394E+00 0.32092605E+03</pdfrwt>
<pdfrwt beam="2">  1       -2 0.54450298E-02 0.32092605E+03</pdfrwt>
<totfact> 0.72249838E+03</totfact>
</mgrwt>
<rwgt>
<wgt id='morphing_basis_vector_1'> +2.6073481e-04 </wgt>
<wgt id='morphing_basis_vector_2'> +1.5124428e-04 </wgt>
<wgt id='morphing_basis_vector_3'> +1.4791944e-04 </wgt>
<wgt id='morphing_basis_vector_4'> +2.7088011e-05 </wgt>
<wgt id='morphing_basis_vector_5'> +5.6201530e-06 </wgt>
</rwgt>
</event>
<event>
 4      1 +5.5534000e-05 3.53915300e+02 7.81860800e-03 9.80326800e-02
        2 -1    0    0  501    0 +0.0000000000e+00 +0.0000000000e+00 +4.8871435004e+02 4.8871435004e+02 0.0000000000e+00 0.0000e+00 -1.0000e+00
       -2 -1    0    0    0  501 -0.0000000000e+00 -0.0000000000e+00 -6.4074255078e+01 6.4074255078e+01 0.0000000000e+00 0.0000e+00 1.0000e+00
      -13  1    1    2    0    0 +1.2381521774e+02 +9.5315375342e+01 +8.2588417583e+01 1.7673730687e+02 0.0000000000e+00 0.0000e+00 1.0000e+00
       13  1    1    2    0    0 -1.2381521774e+02 -9.5315375342e+01 +3.4205167738e+02 3.7605129825e+02 0.0000000000e+00 0.0000e+00 -1.0000e+00
<mgrwt>
<rscale>  0 0.35391529E+03</rscale>
<asrwt>0</asrwt>
<pdfrwt beam="1">  1        2 0.75186821E-01 0.35391529E+03</pdfrwt>
<pdfrwt beam="2">  1       -2 0.98575780E-02 0.35391529E+03</pdfrwt>
<totfact> 0.46352582E+03</totfact>
</mgrwt>
<rwgt>
<wgt id='morphing_basis_vector_1'> +3.2400868e-04 </wgt>
<wgt id='morphing_basis_vector_2'> +1.7823249e-04 </wgt>
<wgt id='morphing_basis_vector_3'> +1.9510257e-04 </wgt>
<wgt id='morphing_basis_vector_4'> +3.5744405e-05 </wgt>
<wgt id='morphing_basis_vector_5'> +2.0494161e-05 </wgt>
</rwgt>
</event>
<event>
 4      1 +5.5534000e-05 3.02477400e+02 7.81860800e-03 9.99868500e-02
        2 -1    0    0  501    0 +0.0000000000e+00 +0.0000000000e+00 +2.9425675903e+02 2.9425675903e+02 0.0000000000e+00 0.0000e+00 -1.0000e+00
       -2 -1    0    0    0  501 -0.0000000000e+00 -0.0000000000e+00 -7.7731908246e+01 7.7731908246e+01 0.0000000000e+00 0.0000e+00 1.0000e+00
      -13  1    1    2    0    0 -4.4095221988e+01 -1.4224088609e+02 +7.5811346980e+01 1.6710541167e+02 0.0000000000e+00 0.0000e+00 1.0000e+00
       13  1    1    2    0    0 +4.4095221988e+01 +1.4224088609e+02 +1.4071350381e+02 2.0488325561e+02 0.0000000000e+00 0.0000e+00 -1.0000e+00
<mgrwt>
<rscale>  0 0.30247737E+03</rscale>
<asrwt>0</asrwt>
<pdfrwt beam="1">  1        2 0.45270270E-01 0.30247737E+03</pdfrwt>
<pdfrwt beam="2">  1       -2 0.11958755E-01 0.30247737E+03</pdfrwt>
<totfact> 0.59746987E+03</totfact>
</mgrwt>
<rwgt>
<wgt id='morphing_basis_vector_1'> +2.2963242e-04 </wgt>
<wgt id='morphing_basis_vector_2'> +1.3533043e-04 </wgt>
<wgt id='morphing_basis_vector_3'> +1.2839747e-04 </wgt>
<wgt id='morphing_basis_vector_4'> +2.4527117e-05 </wgt>
<wgt id='morphing_basis_vector_5'> +1.5760668e-06 </wgt>
</rwgt>
</event>
<event>
 4      1 +5.5534000e-05 3.41780300e+02 7.81860800e-03 9.84597700e-02
        2 -1    0    0  501    0 +0.0000000000e+00 +0.0000000000e+00 +6.6723704519e+02 6.6723704519e+02 0.0000000000e+00 0.0000e+00 -1.0000e+00
       -2 -1    0    0    0  501 -0.0000000000e+00 -0.0000000000e+00 -4.3767713325e+01 4.3767713325e+01 0.0000000000e+00 0.0000e+00 1.0000e+00
      -13  1    1    2    0    0 -1.2742890615e+02 -2.1250713000e+01 +7.9022687652e+01 1.5144076099e+02 0.0000000000e+00 0.0000e+00 1.0000e+00
       13  1    1    2    0    0 +1.2742890615e+02 +2.1250713000e+01 +5.4444664421e+02 5.5956399752e+02 0.0000000000e+00 0.0000e+00 -1.0000e+00
<mgrwt>
<rscale>  0 0.34178028E+03</rscale>
<asrwt>0</asrwt>
<pdfrwt beam="1">  1        2 0.10265185E+00 0.34178028E+03</pdfrwt>
<pdfrwt beam="2">  1       -2 0.67334948E-02 0.34178028E+03</pdfrwt>
<totfact> 0.58215106E+03</totfact>
</mgrwt>
<rwgt>
<wgt id='morphing_basis_vector_1'> +2.9737971e-04 </wgt>
<wgt id='morphing_basis_vector_2'> +1.6221378e-04 </wgt>
<wgt id='morphing_basis_vector_3'> +1.7856941e-04 </wgt>
<wgt id='morphing_basis_vector_4'> +3.1059280e-05 </wgt>
<wgt id='morphing_basis_vector_5'> +1.3634045e-05 </wgt>
</rwgt>
</event>
<event>
 4      1 +5.5534000e-05 3.42138800e+02 7.81860800e-03 9.84468800e-02
        2 -1    0    0  501    0 +0.0000000000e+00 +0.0000000000e+00 +1.5109879291e+02 1.5109879291e+02 0.0000000000e+00 0.0000e+00 -1.0000e+00
       -2 -1    0    0    0  501 -0.0000000000e+00 -0.0000000000e+00 -1.9367948512e+02 1.9367948512e+02 0.0000000000e+00 0.0000e+00 1.0000e+00
      -13  1    1    2    0    0 +1.3067669209e+02 +1.0767323295e+02 +3.2866040031e+00 1.6935384470e+02 0.0000000000e+00 0.0000e+00 1.0000e+00
       13  1    1    2    0    0 -1.3067669209e+02 -1.0767323295e+02 -4.5867296214e+01 1.7542443333e+02 0.0000000000e+00 0.0000e+00 -1.0000e+00
<mgrwt>
<rscale>  0 0.34213878E+03</rscale>
<asrwt>0</asrwt>
<pdfrwt beam="1">  1        2 0.23245968E-01 0.34213878E+03</pdfrwt>
<pdfrwt beam="2">  1       -2 0.29796844E-01 0.34213878E+03</pdfrwt>
<totfact> 0.28672923E+03</totfact>
</mgrwt>
<rwgt>
<wgt id='morphing_basis_vector_1'> +3.1250742e-04 </wgt>
<wgt id='morphing_basis_vector_2'> +2.0532455e-04 </wgt>
<wgt id='morphing_basis_vector_3'> +1.6082603e-04 </wgt>
<wgt id='morphing_basis_vector_4'> +3.6201799e-05 </wgt>
<wgt id='morphing_basis_vector_5'> +1.4679198e-05 </wgt>
</rwgt>
</event>
<event>
 4      1 +5.5534000e-05 3.55108000e+02 7.81860800e-03 9.79917000e-02
        2 -1    0    0  501    0 +0.0000000000e+00 +0.0000000000e+00 +9.5825433717e+02 9.5825433717e+02 0.0000000000e+00 0.0000e+00 -1.0000e+00
       -2 -1    0    0    0  501 -0.0000000000e+00 -0.0000000000e+00 -3.2898801669e+01 3.2898801669e+01 0.0000000000e+00 0.0000e+00 1.0000e+00
      -13  1    1    2    0    0 +1.2589278016e+02 -6.5877808331e+01 +1.6549705309e+02 2.1812416718e+02 0.0000000000e+00 0.0000e+00 1.0000e+00
       13  1    1    2    0    0 -1.2589278016e+02 +6.5877808331e+01 +7.5985848242e+02 7.7302897166e+02 0.0000000000e+00 0.0000e+00 -1.0000e+00
<mgrwt>
<rscale>  0 0.35510798E+03</rscale>
<asrwt>0</asrwt>
<pdfrwt beam="1">  1        2 0.14742372E+00 0.35510798E+03</pdfrwt>
<pdfrwt beam="2">  1       -2 0.50613548E-02 0.35510798E+03</pdfrwt>
<totfact> 0.57003978E+03</totfact>
</mgrwt>
<rwgt>
<wgt id='morphing_basis_vector_1'> +3.2593641e-04 </wgt>
<wgt id='morphing_basis_vector_2'> +1.7748918e-04 </wgt>
<wgt id='morphing_basis_vector_3'> +1.9778605e-04 </wgt>
<wgt id='morphing_basis_vector_4'> +3.6026473e-05 </wgt>
<wgt id='morphing_basis_vector_5'> +2.1206362e-05 </wgt>
</rwgt>
</event>
<event>
 4      1 +5.5534000e-05 3.57206700e+02 7.81860800e-03 9.79200200e-02
        2 -1    0    0  501    0 +0.0000000000e+00 +0.0000000000e+00 +1.6608824535e+02 1.6608824535e+02 0.0000000000e+00 0.0000e+00 1.0000e+00
       -2 -1    0    0    0  501 -0.0000000000e+00 -0.0000000000e+00 -1.9206149737e+02 1.9206149737e+02 0.0000000000e+00 0.0000e+00 -1.0000e+00
      -13  1    1    2    0    0 -1.5334519444e+02 +8.3817484029e+01 +2.3975829433e+01 1.7639433008e+02 0.0000000000e+00 0.0000e+00 1.0000e+00
       13  1    1    2    0    0 +1.5334519444e+02 -8.3817484029e+01 -4.9949081451e+01 1.8175541264e+02 0.0000000000e+00 0.0000e+00 -1.0000e+00
<mgrwt>
<rscale>  0 0.35720670E+03</rscale>
<asrwt>0</asrwt>
<pdfrwt beam="1">  1        2 0.25552038E-01 0.35720670E+03</pdfrwt>
<pdfrwt beam="2">  1       -2 0.29547923E-01 0.35720670E+03</pdfrwt>
<totfact> 0.26105256E+03</totfact>
</mgrwt>
<rwgt>
<wgt id='morphing_basis_vector_1'> +3.5072228e-04 </wgt>
<wgt id='morphing_basis_vector_2'> +2.4019929e-04 </wgt>
<wgt id='morphing_basis_vector_3'> +1.7722084e-04 </wgt>
<wgt id='morphing_basis_vector_4'> +4.2459565e-05 </wgt>
<wgt id='morphing_basis_vector_5'> +2.3864807e-05 </wgt>
</rwgt>
</event>
<event>
 4      1 +5.5534000e-05 3.02171200e+02 7.81860800e-03 9.99997100e-02
        2 -1    0    0  501    0 +0.0000000000e+00 +0.0000000000e+00 +6.1610158491e+01 6.1610158491e+01 0.0000000000e+00 0.0000e+00 1.0000e+00
       -2 -1    0    0    0  501 -0.0000000000e+00 -0.0000000000e+00 -3.7050479428e+02 3.7050479428e+02 0.0000000000e+00 0.0000e+00 -1.0000e+00
      -13  1    1    2    0    0 +1.7634143091e+01 -7.9517277271e+01 -3.3642097356e+02 3.4614019102e+02 0.0000000000e+00 0.0000e+00 -1.0000e+00
       13  1    1    2    0    0 -1.7634143091e+01 +7.9517277271e+01 +2.7526337772e+01 8.5974761752e+01 0.0000000000e+00 0.0000e+00 1.0000e+00
<mgrwt>
<rscale>  0 0.30217120E+03</rscale>
<asrwt>0</asrwt>
<pdfrwt beam="1">  1        2 0.94784858E-02 0.30217120E+03</pdfrwt>
<pdfrwt beam="2">  1       -2 0.57000738E-01 0.30217120E+03</pdfrwt>
<totfact> 0.25627205E+03</totfact>
</mgrwt>
<rwgt>
<wgt id='morphing_basis_vector_1'> +2.2588642e-04 </wgt>
<wgt id='morphing_basis_vector_2'> +1.2575991e-04 </wgt>
<wgt id='morphing_basis_vector_3'> +1.3286435e-04 </wgt>
<wgt id='morphing_basis_vector_4'> +2.2777453e-05 </wgt>
<wgt id='morphing_basis_vector_5'> +1.4081336e-06 </wgt>
</rwgt>
</event>
<event>
 4      1 +5.5534000e-05 3.22928200e+02 7.81860800e-03 9.91628900e-02
        2 -1    0    0  501    0 +0.0000000000e+00 +0.0000000000e+00 +5.5293798320e+02 5.5293798320e+02 0.0000000000e+00 0.0000e+00 -1.0000e+00
       -2 -1    0    0    0  501 -0.0000000000e+00 -0.0000000000e+00 -4.7149325140e+01 4.7149325140e+01 0.0000000000e+00 0.0000e+00 1.0000e+00
      -13  1    1    2    0    0 +6.1122943117e+01 -7.8311652054e+01 +1.6361304474e+01 1.0067979592e+02 0.0000000000e+00 0.0000e+00 1.0000e+00
       13  1    1    2    0    0 -6.1122943117e+01 +7.8311652054e+01 +4.8942735358e+02 4.9940751242e+02 0.0000000000e+00 0.0000e+00 -1.0000e+00
<mgrwt>
<rscale>  0 0.32292818E+03</rscale>
<asrwt>0</asrwt>
<pdfrwt beam="1">  1        2 0.85067377E-01 0.32292818E+03</pdfrwt>
<pdfrwt beam="2">  1       -2 0.72537427E-02 0.32292818E+03</pdfrwt>
<totfact> 0.64407426E+03</totfact>
</mgrwt>
<rwgt>
<wgt id='morphing_basis_vector_1'> +2.6092204e-04 </wgt>
<wgt id='morphing_basis_vector_2'> +1.4311119e-04 </wgt>
<wgt id='morphing_basis_vector_3'> +1.5491789e-04 </wgt>
<wgt id='morphing_basis_vector_4'> +2.5971216e-05 </wgt>
<wgt id='morphing_basis_vector_5'> +6.0535415e-06 </wgt>
</rwgt>
</event>
<event>
 4      1 +5.5534000e-05 3.00765600e+02 7.81860800e-03 1.00058900e-01
        2 -1    0    0  501    0 +0.0000000000e+00 +0.0000000000e+00 +2.9715103091e+02 2.9715103091e+02 0.0000000000e+00 0.0000e+00 1.0000e+00
       -2 -1    0    0    0  501 -0.0000000000e+00 -0.0000000000e+00 -7.6106014001e+01 7.6106014001e+01 0.0000000000e+00 0.0000e+00 -1.0000e+00
      -13  1    1    2    0    0 +7.6366365932e+01 -6.6685294652e+01 +2.4836119953e+02 2.6825740586e+02 0.0000000000e+00 0.0000e+00 1.0000e+00
       13  1    1    2    0    0 -7.6366365932e+01 +6.6685294652e+01 -2.7316182616e+01 1.0499963905e+02 0.0000000000e+00 0.0000e+00 -1.0000e+00
<mgrwt>
<rscale>  0 0.30076556E+03</rscale>
<asrwt>0</asrwt>
<pdfrwt beam="1">  1        2 0.45715543E-01 0.30076556E+03</pdfrwt>
<pdfrwt beam="2">  1       -2 0.11708618E-01 0.30076556E+03</pdfrwt>
<totfact> 0.61072894E+03</totfact>
</mgrwt>
<rwgt>
<wgt id='morphing_basis_vector_1'> +2.8699219e-04 </wgt>
<wgt id='morphing_basis_vector_2'> +3.0538685e-04 </wgt>
<wgt id='morphing_basis_vector_3'> +3.8698575e-05 </wgt>
<wgt id='morphing_basis_vector_4'> +5.6405454e-05 </wgt>
<wgt id='morphing_basis_vector_5'> +3.5415625e-06 </wgt>
</rwgt>
</event>
<event>
 4      1 +5.5534000e-05 3.09270300e+02 7.81860800e-03 9.97056600e-02
        2 -1    0    0  501    0 +0.0000000000e+00 +0.0000000000e+00 +2.9370513366e+02 2.9370513366e+02 0.0000000000e+00 0.0000e+00 -1.0000e+00
       -2 -1    0    0    0  501 -0.0000000000e+00 -0.0000000000e+00 -8.1415089142e+01 8.1415089142e+01 0.0000000000e+00 0.0000e+00 1.0000e+00
      -13  1    1    2    0    0 +1.4960477977e+02 +3.9099180893e+01 +1.0456656496e+02 1.8666682240e+02 0.0000000000e+00 0.0000e+00 1.0000e+00
       13  1    1    2    0    0 -1.4960477977e+02 -3.9099180893e+01 +1.0772347955e+02 1.8845340040e+02 0.0000000000e+00 0.0000e+00 -1.0000e+00
<mgrwt>
<rscale>  0 0.30927030E+03</rscale>
<asrwt>0</asrwt>
<pdfrwt beam="1">  1        2 0.45185405E-01 0.30927030E+03</pdfrwt>
<pdfrwt beam="2">  1       -2 0.12525399E-01 0.30927030E+03</pdfrwt>
<totfact> 0.55739696E+03</totfact>
</mgrwt>
<rwgt>
<wgt id='morphing_basis_vector_1'> +2.4386318e-04 </wgt>
<wgt id='morphing_basis_vector_2'> +1.5020990e-04 </wgt>
<wgt id='morphing_basis_vector_3'> +1.3059011e-04 </wgt>
<wgt id='morphing_basis_vector_4'> +2.6877686e-05 </wgt>
<wgt id='morphing_basis_vector_5'> +2.8844307e-06 </wgt>
</rwgt>
</event>
<event>
 4      1 +5.5534000e-05 3.41337200e+02 7.81860800e-03 9.84757300e-02
        2 -1    0    0  501    0 +0.0000000000e+00 +0.0000000000e+00 +4.7338463351e+02 4.7338463351e+02 0.0000000000e+00 0.0000e+00 1.0000e+00
       -2 -1    0    0    0  501 -0.0000000000e+00 -0.0000000000e+00 -6.1530873015e+01 6.1530873015e+01 0.0000000000e+00 0.0000e+00 -1.0000e+00
      -13  1    1    2    0    0 -2.5677519341e+01 +6.9568299695e+01 -3.4964558271e+01 8.1985386851e+01 0.0000000000e+00 0.0000e+00 -1.0000e+00
       13  1    1    2    0    0 +2.5677519341e+01 -6.9568299695e+01 +4.4681831877e+02 4.5293011968e+02 0.0000000000e+00 0.0000e+00 1.0000e+00
<mgrwt>
<rscale>  0 0.34133719E+03</rscale>
<asrwt>0</asrwt>
<pdfrwt beam="1">  1        2 0.72828403E-01 0.34133719E+03</pdfrwt>
<pdfrwt beam="2">  1       -2 0.94662885E-02 0.34133719E+03</pdfrwt>
<totfact> 0.51075562E+03</totfact>
</mgrwt>
<rwgt>
<wgt id='morphing_basis_vector_1'> +2.9608529e-04 </wgt>
<wgt id='morphing_basis_vector_2'> +1.6058738e-04 </wgt>
<wgt id='morphing_basis_vector_3'> +1.7845776e-04 </wgt>
<wgt id='morphing_basis_vector_4'> +3.0778334e-05 </wgt>
<wgt id='morphing_basis_vector_5'> +1.3392116e-05 </wgt>
</rwgt>
</event>
<event>
 4      1 +5.5534000e-05 3.45194200e+02 7.81860800e-03 9.83377000e-02
        2 -1    0    0  501    0 +0.0000000000e+00 +0.0000000000e+00 +1.5706648954e+03 1.5706648954e+03 0.0000000000e+00 0.0000e+00 -1.0000e+00
       -2 -1    0    0    0  501 -0.0000000000e+00 -0.0000000000e+00 -1.8966337052e+01 1.8966337052e+01 0.0000000000e+00 0.0000e+00 1.0000e+00
      -13  1    1    2    0    0 +1.5607737615e+02 -5.9337267804e+01 +5.7466138122e+02 5.9842857699e+02 0.0000000000e+00 0.0000e+00 1.0000e+00
       13  1    1    2    0    0 -1.5607737615e+02 +5.9337267804e+01 +9.7703717711e+02 9.9120265544e+02 0.0000000000e+00 0.0000e+00 -1.0000e+00
<mgrwt>
<rscale>  0 0.34519421E+03</rscale>
<asrwt>0</asrwt>
<pdfrwt beam="1">  1        2 0.24164065E+00 0.34519421E+03</pdfrwt>
<pdfrwt beam="2">  1       -2 0.29178992E-02 0.34519421E+03</pdfrwt>
<totfact> 0.58635715E+03</totfact>
</mgrwt>
<rwgt>
<wgt id='morphing_basis_vector_1'> +3.0740578e-04 </wgt>
<wgt id='morphing_basis_vector_2'> +1.7472363e-04 </wgt>
<wgt id='morphing_basis_vector_3'> +1.7961073e-04 </wgt>
<wgt id='morphing_basis_vector_4'> +3.3200531e-05 </wgt>
<wgt id='morphing_basis_vector_5'> +1.5568960e-05 </wgt>
</rwgt>
</event>
<event>
 4      1 +5.5534000e-05 3.00540800e+02 7.81860800e-03 1.00068500e-01
        2 -1    0    0  501    0 +0.0000000000e+00 +0.0000000000e+00 +3.3754667597e+02 3.3754667597e+02 0.0000000000e+00 0.0000e+00 -1.0000e+00
       -2 -1    0    0    0  501 -0.0000000000e+00 -0.0000000000e+00 -6.6898003342e+01 6.6898003342e+01 0.0000000000e+00 0.0000e+00 1.0000e+00
      -13  1    1    2    0    0 +2.9625353899e+01 -1.0791857052e+02 +3.6826290631e-01 1.1191163958e+02 0.0000000000e+00 0.0000e+00 1.0000e+00
       13  1    1    2    0    0 -2.9625353899e+01 +1.0791857052e+02 +2.7028040972e+02 2.9253303973e+02 0.0000000000e+00 0.0000e+00 -1.0000e+00
<mgrwt>
<rscale>  0 0.30054084E+03</rscale>
<asrwt>0</asrwt>
<pdfrwt beam="1">  1        2 0.51930257E-01 0.30054084E+03</pdfrwt>
<pdfrwt beam="2">  1       -2 0.10292001E-01 0.30054084E+03</pdfrwt>
<totfact> 0.64853192E+03</totfact>
</mgrwt>
<rwgt>
<wgt id='morphing_basis_vector_1'> +2.2356193e-04 </wgt>
<wgt id='morphing_basis_vector_2'> +1.2516306e-04 </wgt>
<wgt id='morphing_basis_vector_3'> +1.3097548e-04 </wgt>
<wgt id='morphing_basis_vector_4'> +2.2739173e-05 </wgt>
<wgt id='morphing_basis_vector_5'> +1.1968924e-06 </wgt>
</rwgt>
</event>
<event>
 4      1 +5.5534000e-05 3.35090800e+02 7.81860800e-03 9.87035000e-02
        2 -1    0    0  501    0 +0.0000000000e+00 +0.0000000000e+00 +3.1451353305e+02 3.1451353305e+02 0.0000000000e+00 0.0000e+00 -1.0000e+00
       -2 -1    0    0    0  501 -0.0000000000e+00 -0.0000000000e+00 -8.9253590687e+01 8.9253590687e+01 0.0000000000e+00 0.0000e+00 1.0000e+00
      -13  1    1    2    0    0 +1.1030091949e+02 -2.4281692755e+01 -3.6489723321e+01 1.1869032544e+02 0.0000000000e+00 0.0000e+00 1.0000e+00
       13  1    1    2    0    0 -1.1030091949e+02 +2.4281692755e+01 +2.6174966569e+02 2.8507679830e+02 0.0000000000e+00 0.0000e+00 -1.0000e+00
<mgrwt>
<rscale>  0 0.33509081E+03</rscale>
<asrwt>0</asrwt>
<pdfrwt beam="1">  1        2 0.48386697E-01 0.33509081E+03</pdfrwt>
<pdfrwt beam="2">  1       -2 0.13731322E-01 0.33509081E+03</pdfrwt>
<totfact> 0.44860293E+03</totfact>
</mgrwt>
<rwgt>
<wgt id='morphing_basis_vector_1'> +2.8383296e-04 </wgt>
<wgt id='morphing_basis_vector_2'> +1.5481902e-04 </wgt>
<wgt id='morphing_basis_vector_3'> +1.6985137e-04 </wgt>
<wgt id='morphing_basis_vector_4'> +2.8968632e-05 </wgt>
<wgt id='morphing_basis_vector_5'> +1.0539697e-05 </wgt>
</rwgt>
</event>
<event>
 4      1 +5.5534000e-05 3.21998600e+02 7.81860800e-03 9.91989000e-02
        2 -1    0    0  501    0 +0.0000000000e+00 +0.0000000000e+00 +2.7216986725e+02 2.7216986725e+02 0.0000000000e+00 0.0000e+00 -1.0000e+00
       -2 -1    0    0    0  501 -0.0000000000e+00 -0.0000000000e+00 -9.5237494857e+01 9.5237494857e+01 0.0000000000e+00 0.0000e+00 1.0000e+00
      -13  1    1    2    0    0 +9.0009280035e+01 -9.9438926101e+00 -6.3423564930e+01 1.1055812987e+02 0.0000000000e+00 0.0000e+00 1.0000e+00
       13  1    1    2    0    0 -9.0009280035e+01 +9.9438926101e+00 +2.4035593732e+02 2.5684923224e+02 0.0000000000e+00 0.0000e+00 -1.0000e+00
<mgrwt>
<rscale>  0 0.32199861E+03</rscale>
<asrwt>0</asrwt>
<pdfrwt beam="1">  1        2 0.41872287E-01 0.32199861E+03</pdfrwt>
<pdfrwt beam="2">  1       -2 0.14651922E-01 0.32199861E+03</pdfrwt>
<totfact> 0.47411138E+03</totfact>
</mgrwt>
<rwgt>
<wgt id='morphing_basis_vector_1'> +2.5920884e-04 </wgt>
<wgt id='morphing_basis_vector_2'> +1.4215722e-04 </wgt>
<wgt id='morphing_basis_vector_3'> +1.5389090e-04 </wgt>
<wgt id='morphing_basis_vector_4'> +2.5761737e-05 </wgt>
<wgt id='morphing_basis_vector_5'> +5.7653703e-06 </wgt>
</rwgt>
</event>
<event>
 4      1 +5.5534000e-05 3.17232100e+02 7.81860800e-03 9.93856700e-02
        2 -1    0    0  501    0 +0.0000000000e+00 +0.0000000000e+00 +1.3109149117e+03 1.3109149117e+03 0.0000000000e+00 0.0000e+00 1.0000e+00
       -2 -1    0    0    0  501 -0.0000000000e+00 -0.0000000000e+00 -1.9191978924e+01 1.9191978924e+01 0.0000000000e+00 0.0000e+00 -1.0000e+00
      -13  1    1    2    0    0 -4.4727254836e+01 -1.4588852671e+02 +4.6430270520e+02 4.8873407043e+02 0.0000000000e+00 0.0000e+00 1.0000e+00
       13  1    1    2    0    0 +4.4727254836e+01 +1.4588852671e+02 +8.2742022762e+02 8.4137282023e+02 0.0000000000e+00 0.0000e+00 -1.0000e+00
<mgrwt>
<rscale>  0 0.31723210E+03</rscale>
<asrwt>0</asrwt>
<pdfrwt beam="1">  1        2 0.20167915E+00 0.31723210E+03</pdfrwt>
<pdfrwt beam="2">  1       -2 0.29526132E-02 0.31723210E+03</pdfrwt>
<totfact> 0.79467509E+03</totfact>
</mgrwt>
<rwgt>
<wgt id='morphing_basis_vector_1'> +2.5323616e-04 </wgt>
<wgt id='morphing_basis_vector_2'> +1.4507558e-04 </wgt>
<wgt id='morphing_basis_vector_3'> +1.4507672e-04 </wgt>
<wgt id='morphing_basis_vector_4'> +2.5989253e-05 </wgt>
<wgt id='morphing_basis_vector_5'> +4.5376933e-06 </wgt>
</rwgt>
</event>
<event>
 4      1 +5.5534000e-05 3.24721300e+02 7.81860800e-03 9.90937900e-02
        2 -1    0    0  501    0 +0.0000000000e+00 +0.0000000000e+00 +1.8497073860e+03 1.8497073860e+03 0.0000000000e+00 0.0000e+00 1.0000e+00
       -2 -1    0    0    0  501 -0.0000000000e+00 -0.0000000000e+00 -1.4251432865e+01 1.4251432865e+01 0.0000000000e+00 0.0000e+00 -1.0000e+00
      -13  1    1    2    0    0 -1.4514356738e+02 -7.2220383046e+01 +9.6859962704e+02 9.8207315225e+02 0.0000000000e+00 0.0000e+00 -1.0000e+00
       13  1    1    2    0    0 +1.4514356738e+02 +7.2220383046e+01 +8.6685632611e+02 8.8188566663e+02 0.0000000000e+00 0.0000e+00 1.0000e+00
<mgrwt>
<rscale>  0 0.32472130E+03</rscale>
<asrwt>0</asrwt>
<pdfrwt beam="1">  1        2 0.28457018E+00 0.32472130E+03</pdfrwt>
<pdfrwt beam="2">  1       -2 0.21925296E-02 0.32472130E+03</pdfrwt>
<totfact> 0.63249178E+03</totfact>
</mgrwt>
<rwgt>
<wgt id='morphing_basis_vector_1'> +2.7349197e-04 </wgt>
<wgt id='morphing_basis_vector_2'> +1.7200456e-04 </wgt>
<wgt id='morphing_basis_vector_3'> +1.4439903e-04 </wgt>
<wgt id='morphing_basis_vector_4'> +3.0364867e-05 </wgt>
<wgt id='morphing_basis_vector_5'> +7.1206560e-06 </wgt>
</rwgt>
</event>
<event>
 4      1 +5.5534000e-05 3.43385200e+02 7.81860800e-03 9.84021900e-02
        2 -1    0    0  501    0 +0.0000000000e+00 +0.0000000000e+00 +1.2877701789e+03 1.2877701789e+03 0.0000000000e+00 0.0000e+00 1.0000e+00
       -2 -1    0    0    0  501 -0.0000000000e+00 -0.0000000000e+00 -2.2891002799e+01 2.2891002799e+01 0.0000000000e+00 0.0000e+00 -1.0000e+00
      -13  1    1    2    0    0 +3.0910712081e+01 +1.5699176498e+02 +3.9479564547e+02 4.2598766188e+02 0.0000000000e+00 0.0000e+00 -1.0000e+00
       13  1    1    2    0    0 -3.0910712081e+01 -1.5699176498e+02 +8.7008353061e+02 8.8467351980e+02 0.0000000000e+00 0.0000e+00 1.0000e+00
<mgrwt>
<rscale>  0 0.34338521E+03</rscale>
<asrwt>0</asrwt>
<pdfrwt beam="1">  1        2 0.19811843E+00 0.34338521E+03</pdfrwt>
<pdfrwt beam="2">  1       -2 0.35216938E-02 0.34338521E+03</pdfrwt>
<totfact> 0.63171179E+03</totfact>
</mgrwt>
<rwgt>
<wgt id='morphing_basis_vector_1'> +3.0234578e-04 </wgt>
<wgt id='morphing_basis_vector_2'> +1.6888506e-04 </wgt>
<wgt id='morphing_basis_vector_3'> +1.7868580e-04 </wgt>
<wgt id='morphing_basis_vector_4'> +3.2161698e-05 </wgt>
<wgt id='morphing_basis_vector_5'> +1.4544023e-05 </wgt>
</rwgt>
</event>
<event>
 4      1 +5.5534000e-05 3.24817300e+02 7.81860800e-03 9.90901000e-02
        2 -1    0    0  501    0 +0.0000000000e+00 +0.0000000000e+00 +2.2306519208e+02 2.2306519208e+02 0.0000000000e+00 0.0000e+00 1.0000e+00
       -2 -1    0    0    0  501 -0.0000000000e+00 -0.0000000000e+00 -1.1824603383e+02 1.1824603383e+02 0.0000000000e+00 0.0000e+00 -1.0000e+00
      -13  1    1    2    0    0 +6.9454163436e+01 +1.4678394000e+02 +4.9596239611e+01 1.6979161594e+02 0.0000000000e+00 0.0000e+00 1.0000e+00
       13  1    1    2    0    0 -6.9454163436e+01 -1.4678394000e+02 +5.5222918643e+01 1.7151960997e+02 0.0000000000e+00 0.0000e+00 -1.0000e+00
<mgrwt>
<rscale>  0 0.32481733E+03</rscale>
<asrwt>0</asrwt>
<pdfrwt beam="1">  1        2 0.34317722E-01 0.32481733E+03</pdfrwt>
<pdfrwt beam="2">  1       -2 0.18191698E-01 0.32481733E+03</pdfrwt>
<totfact> 0.41861679E+03</totfact>
</mgrwt>
<rwgt>
<wgt id='morphing_basis_vector_1'> +2.7151768e-04 </wgt>
<wgt id='morphing_basis_vector_2'> +1.6580194e-04 </wgt>
<wgt id='morphing_basis_vector_3'> +1.4743212e-04 </wgt>
<wgt id='morphing_basis_vector_4'> +2.9457246e-05 </wgt>
<wgt id='morphing_basis_vector_5'> +7.0387352e-06 </wgt>
</rwgt>
</event>
<event>
 4      1 +5.5534000e-05 3.37485200e+02 7.81860800e-03 9.86155600e-02
        2 -1    0    0  501    0 +0.0000000000e+00 +0.0000000000e+00 +4.0979954898e+02 4.0979954898e+02 0.0000000000e+00 0.0000e+00 -1.0000e+00
       -2 -1    0    0    0  501 -0.0000000000e+00 -0.0000000000e+00 -6.9482906219e+01 6.9482906219e+01 0.0000000000e+00 0.0000e+00 1.0000e+00
      -13  1    1    2    0    0 +1.5116504700e+02 -4.5951626979e+01 +8.6001017329e+01 1.7988495890e+02 0.0000000000e+00 0.0000e+00 1.0000e+00
       13  1    1    2    0    0 -1.5116504700e+02 +4.5951626979e+01 +2.5431562544e+02 2.9939749631e+02 0.0000000000e+00 0.0000e+00 -1.0000e+00
<mgrwt>
<rscale>  0 0.33748519E+03</rscale>
<asrwt>0</asrwt>
<pdfrwt beam="1">  1        2 0.63046083E-01 0.33748519E+03</pdfrwt>
<pdfrwt beam="2">  1       -2 0.10689678E-01 0.33748519E+03</pdfrwt>
<totfact> 0.49606833E+03</totfact>
</mgrwt>
<rwgt>
<wgt id='morphing_basis_vector_1'> +2.9044432e-04 </wgt>
<wgt id='morphing_basis_vector_2'> +1.6283319e-04 </wgt>
<wgt id='morphing_basis_vector_3'> +1.7055039e-04 </wgt>
<wgt id='morphing_basis_vector_4'> +3.0364223e-05 </wgt>
<wgt id='morphing_basis_vector_5'> +1.1702062e-05 </wgt>
</rwgt>
</event>
<event>
 4      1 +5.5534000e-05 3.37224200e+02 7.81860800e-03 9.86251100e-02
        2 -1    0    0  501    0 +0.0000000000e+00 +0.0000000000e+00 +7.9145791450e+01 7.9145791450e+01 0.0000000000e+00 0.0000e+00 -1.0000e+00
       -2 -1    0    0    0  501 -0.0000000000e+00 -0.0000000000e+00 -3.5921094143e+02 3.5921094143e+02 0.0000000000e+00 0.0000e+00 1.0000e+00
      -13  1    1    2    0    0 -7.0864881368e+01 +1.5235262852e+02 -1.5827191698e+02 2.3083144182e+02 0.0000000000e+00 0.0000e+00 1.0000e+00
       13  1    1    2    0    0 +7.0864881368e+01 -1.5235262852e+02 -1.2179323300e+02 2.0752529106e+02 0.0000000000e+00 0.0000e+00 -1.0000e+00
<mgrwt>
<rscale>  0 0.33722416E+03</rscale>
<asrwt>0</asrwt>
<pdfrwt beam="1">  1        2 0.12176275E-01 0.33722416E+03</pdfrwt>
<pdfrwt beam="2">  1       -2 0.55263222E-01 0.33722416E+03</pdfrwt>
<totfact> 0.19969490E+03</totfact>
</mgrwt>
<rwgt>
<wgt id='morphing_basis_vector_1'> +2.9408888e-04 </wgt>
<wgt id='morphing_basis_vector_2'> +1.7487816e-04 </wgt>
<wgt id='morphing_basis_vector_3'> +1.6482094e-04 </wgt>
<wgt id='morphing_basis_vector_4'> +3.1839919e-05 </wgt>
<wgt id='morphing_basis_vector_5'> +1.1828002e-05 </wgt>
</rwgt>
</event>
<event>
 4      1 +5.5534000e-05 3.24248500e+02 7.81860800e-03 9.91119600e-02
        2 -1    0    0  501    0 +0.0000000000e+00 +0.0000000000e+00 +3.5729903235e+02 3.5729903235e+02 0.0000000000e+00 0.0000e+00 1.0000e+00
       -2 -1    0    0    0  501 -0.0000000000e+00 -0.0000000000e+00 -7.3563795667e+01 7.3563795667e+01 0.0000000000e+00 0.0000e+00 -1.0000e+00
      -13  1    1    2    0    0 -1.3162767111e+02 +8.6099633433e+01 +1.9410302336e+02 2.4982989084e+02 0.0000000000e+00 0.0000e+00 -1.0000e+00
       13  1    1    2    0    0 +1.3162767111e+02 -8.6099633433e+01 +8.9632213323e+01 1.8103293718e+02 0.0000000000e+00 0.0000e+00 1.0000e+00
<mgrwt>
<rscale>  0 0.32424850E+03</rscale>
<asrwt>0</asrwt>
<pdfrwt beam="1">  1        2 0.54969081E-01 0.32424850E+03</pdfrwt>
<pdfrwt beam="2">  1       -2 0.11317507E-01 0.32424850E+03</pdfrwt>
<totfact> 0.52744166E+03</totfact>
</mgrwt>
<rwgt>
<wgt id='morphing_basis_vector_1'> +2.8139551e-04 </wgt>
<wgt id='morphing_basis_vector_2'> +1.9720766e-04 </wgt>
<wgt id='morphing_basis_vector_3'> +1.3190789e-04 </wgt>
<wgt id='morphing_basis_vector_4'> +3.4074788e-05 </wgt>
<wgt id='morphing_basis_vector_5'> +7.4262274e-06 </wgt>
</rwgt>
</event>
<event>
 4      1 +5.5534000e-05 3.08041900e+02 7.81860800e-03 9.97559400e-02
        2 -1    0    0  501    0 +0.0000000000e+00 +0.0000000000e+00 +6.5128429611e+02 6.5128429611e+02 0.0000000000e+00 0.0000e+00 -1.0000e+00
       -2 -1    0    0    0  501 -0.0000000000e+00 -0.0000000000e+00 -3.6424122367e+01 3.6424122367e+01 0.0000000000e+00 0.0000e+00 1.0000e+00
      -13  1    1    2    0    0 -9.2607489659e+01 -1.2235392175e+02 +2.7782676316e+02 3.1738673513e+02 0.0000000000e+00 0.0000e+00 1.0000e+00
       13  1    1    2    0    0 +9.2607489659e+01 +1.2235392175e+02 +3.3703341059e+02 3.7032168335e+02 0.0000000000e+00 0.0000e+00 -1.0000e+00
<mgrwt>
<rscale>  0 0.30804194E+03</rscale>
<asrwt>0</asrwt>
<pdfrwt beam="1">  1        2 0.10019758E+00 0.30804194E+03</pdfrwt>
<pdfrwt beam="2">  1       -2 0.56037116E-02 0.30804194E+03</pdfrwt>
<totfact> 0.78742236E+03</totfact>
</mgrwt>
<rwgt>
<wgt id='morphing_basis_vector_1'> +2.4013203e-04 </wgt>
<wgt id='morphing_basis_vector_2'> +1.4426144e-04 </wgt>
<wgt id='morphing_basis_vector_3'> +1.3175380e-04 </wgt>
<wgt id='morphing_basis_vector_4'> +2.5885646e-05 </wgt>
<wgt id='morphing_basis_vector_5'> +2.5712235e-06 </wgt>
</rwgt>
</event>
<event>
 4      1 +5.5534000e-05 3.08553000e+02 7.81860800e-03 9.97349900e-02
        2 -1    0    0  501    0 +0.0000000000e+00 +0.0000000000e+00 +4.3600698026e+02 4.3600698026e+02 0.0000000000e+00 0.0000e+00 -1.0000e+00
       -2 -1    0    0    0  501 -0.0000000000e+00 -0.0000000000e+00 -5.4589117564e+01 5.4589117564e+01 0.0000000000e+00 0.0000e+00 1.0000e+00
      -13  1    1    2    0    0 -1.2477875501e+02 -4.6019279513e+01 +6.6387137345e+01 1.4864307517e+02 0.0000000000e+00 0.0000e+00 1.0000e+00
       13  1    1    2    0    0 +1.2477875501e+02 +4.6019279513e+01 +3.1503072535e+02 3.4195302266e+02 0.0000000000e+00 0.0000e+00 -1.0000e+00
<mgrwt>
<rscale>  0 0.30855299E+03</rscale>
<asrwt>0</asrwt>
<pdfrwt beam="1">  1        2 0.67077995E-01 0.30855299E+03</pdfrwt>
<pdfrwt beam="2">  1       -2 0.83983261E-02 0.30855299E+03</pdfrwt>
<totfact> 0.66979545E+03</totfact>
</mgrwt>
<rwgt>
<wgt id='morphing_basis_vector_1'> +2.3685849e-04 </wgt>
<wgt id='morphing_basis_vector_2'> +1.3283994e-04 </wgt>
<wgt id='morphing_basis_vector_3'> +1.3817573e-04 </wgt>
<wgt id='morphing_basis_vector_4'> +2.3880885e-05 </wgt>
<wgt id='morphing_basis_vector_5'> +2.4928690e-06 </wgt>
</rwgt>
</event>
<event>
 4      1 +5.5534000e-05 3.33137600e+02 7.81860800e-03 9.87758400e-02
        2 -1    0    0  501    0 +0.0000000000e+00 +0.0000000000e+00 +2.6679904252e+01 2.6679904252e+01 0.0000000000e+00 0.0000e+00 -1.0000e+00
       -2 -1    0    0    0  501 -0.0000000000e+00 -0.0000000000e+00 -1.0399277193e+03 1.0399277193e+03 0.0000000000e+00 0.0000e+00 1.0000e+00
      -13  1    1    2    0    0 +7.3889067032e+00 -1.6053631032e+02 -6.4686685116e+02 6.6653073898e+02 0.0000000000e+00 0.0000e+00 1.0000e+00
       13  1    1    2    0    0 -7.3889067032e+00 +1.6053631032e+02 -3.6638096390e+02 4.0007688459e+02 0.0000000000e+00 0.0000e+00 -1.0000e+00
<mgrwt>
<rscale>  0 0.33313764E+03</rscale>
<asrwt>0</asrwt>
<pdfrwt beam="1">  1        2 0.41046011E-02 0.33313764E+03</pdfrwt>
<pdfrwt beam="2">  1       -2 0.15998886E+00 0.33313764E+03</pdfrwt>
<totfact> 0.66350720E+02</totfact>
</mgrwt>
<rwgt>
<wgt id='morphing_basis_vector_1'> +2.8282103e-04 </wgt>
<wgt id='morphing_basis_vector_2'> +1.6108892e-04 </wgt>
<wgt id='morphing_basis_vector_3'> +1.6367791e-04 </wgt>
<wgt id='morphing_basis_vector_4'> +2.9520488e-05 </wgt>
<wgt id='morphing_basis_vector_5'> +9.8825692e-06 </wgt>
</rwgt>
</event>
<event>
 4      1 +5.5534000e-05 3.54760300e+02 7.81860800e-03 9.80036300e-02
        2 -1    0    0  501    0 +0.0000000000e+00 +0.0000000000e+00 +6.3261763126e+02 6.3261763126e+02 0.0000000000e+00 0.0000e+00 1.0000e+00
       -2 -1    0    0    0  501 -0.0000000000e+00 -0.0000000000e+00 -4.9735771426e+01 4.9735771426e+01 0.0000000000e+00 0.0000e+00 -1.0000e+00
      -13  1    1    2    0    0 -9.0154413314e+01 +7.4686121022e+01 +3.5128313579e+01 1.2222861092e+02 0.0000000000e+00 0.0000e+00 -1.0000e+00
       13  1    1    2    0    0 +9.0154413314e+01 -7.4686121022e+01 +5.4775354625e+02 5.6012479176e+02 0.0000000000e+00 0.0000e+00 1.0000e+00
<mgrwt>
<rscale>  0 0.35476035E+03</rscale>
<asrwt>0</asrwt>
<pdfrwt beam="1">  1        2 0.97325784E-01 0.35476035E+03</pdfrwt>
<pdfrwt beam="2">  1       -2 0.76516576E-02 0.35476035E+03</pdfrwt>
<totfact> 0.51055693E+03</totfact>
</mgrwt>
<rwgt>
<wgt id='morphing_basis_vector_1'> +3.2471421e-04 </wgt>
<wgt id='morphing_basis_vector_2'> +1.7573422e-04 </wgt>
<wgt id='morphing_basis_vector_3'> +1.9779231e-04 </wgt>
<wgt id='morphing_basis_vector_4'> +3.5752757e-05 </wgt>
<wgt id='morphing_basis_vector_5'> +2.0955308e-05 </wgt>
</rwgt>
</event>
<event>
 4      1 +5.5534000e-05 3.09809900e+02 7.81860800e-03 9.96836500e-02
        2 -1    0    0  501    0 +0.0000000000e+00 +0.0000000000e+00 +9.8880575217e+02 9.8880575217e+02 0.0000000000e+00 0.0000e+00 -1.0000e+00
       -2 -1    0    0    0  501 -0.0000000000e+00 -0.0000000000e+00 -2.4267191591e+01 2.4267191591e+01 0.0000000000e+00 0.0000e+00 1.0000e+00
      -13  1    1    2    0    0 +5.4499658614e+01 -1.2904767656e+02 +2.6605384737e+02 3.0067950598e+02 0.0000000000e+00 0.0000e+00 1.0000e+00
       13  1    1    2    0    0 -5.4499658614e+01 +1.2904767656e+02 +6.9848471321e+02 7.1239343778e+02 0.0000000000e+00 0.0000e+00 -1.0000e+00
<mgrwt>
<rscale>  0 0.30980987E+03</rscale>
<asrwt>0</asrwt>
<pdfrwt beam="1">  1        2 0.15212393E+00 0.30980987E+03</pdfrwt>
<pdfrwt beam="2">  1       -2 0.37334149E-02 0.30980987E+03</pdfrwt>
<totfact> 0.85679327E+03</totfact>
</mgrwt>
<rwgt>
<wgt id='morphing_basis_vector_1'> +2.3933050e-04 </wgt>
<wgt id='morphing_basis_vector_2'> +1.3501503e-04 </wgt>
<wgt id='morphing_basis_vector_3'> +1.3890316e-04 </wgt>
<wgt id='morphing_basis_vector_4'> +2.4245749e-05 </wgt>
<wgt id='morphing_basis_vector_5'> +2.7562584e-06 </wgt>
</rwgt>
</event>
<event>
 4      1 +5.5534000e-05 3.05371300e+02 7.81860800e-03 9.98661100e-02
        2 -1    0    0  501    0 +0.0000000000e+00 +0.0000000000e+00 +1.0301617393e+02 1.0301617393e+02 0.0000000000e+00 0.0000e+00 -1.0000e+00
       -2 -1    0    0    0  501 -0.0000000000e+00 -0.0000000000e+00 -2.2630336051e+02 2.2630336051e+02 0.0000000000e+00 0.0000e+00 1.0000e+00
      -13  1    1    2    0    0 +1.2702818224e+02 +2.5026870982e+01 -1.4892531355e+02 1.9733538043e+02 0.0000000000e+00 0.0000e+00 1.0000e+00
       13  1    1    2    0    0 -1.2702818224e+02 -2.5026870982e+01 +2.5638126968e+01 1.3198415401e+02 0.0000000000e+00 0.0000e+00 -1.0000e+00
<mgrwt>
<rscale>  0 0.30537129E+03</rscale>
<asrwt>0</asrwt>
<pdfrwt beam="1">  1        2 0.15848642E-01 0.30537129E+03</pdfrwt>
<pdfrwt beam="2">  1       -2 0.34815901E-01 0.30537129E+03</pdfrwt>
<totfact> 0.34211148E+03</totfact>
</mgrwt>
<rwgt>
<wgt id='morphing_basis_vector_1'> +2.3158671e-04 </wgt>
<wgt id='morphing_basis_vector_2'> +1.3000145e-04 </wgt>
<wgt id='morphing_basis_vector_3'> +1.3510788e-04 </wgt>
<wgt id='morphing_basis_vector_4'> +2.3441176e-05 </wgt>
<wgt id='morphing_basis_vector_5'> +1.9220712e-06 </wgt>
</rwgt>
</event>
<event>
 4      1 +5.5534000e-05 3.56060100e+02 7.81860800e-03 9.79591200e-02
        2 -1    0    0  501    0 +0.0000000000e+00 +0.0000000000e+00 +4.4838003032e+02 4.4838003032e+02 0.0000000000e+00 0.0000e+00 1.0000e+00
       -2 -1    0    0    0  501 -0.0000000000e+00 -0.0000000000e+00 -7.0687125728e+01 7.0687125728e+01 0.0000000000e+00 0.0000e+00 -1.0000e+00
      -13  1    1    2    0    0 -2.0708641694e+01 -1.7331350296e+02 +2.3993793391e+02 2.9670967338e+02 0.0000000000e+00 0.0000e+00 -1.0000e+00
       13  1    1    2    0    0 +2.0708641694e+01 +1.7331350296e+02 +1.3775497069e+02 2.2235748267e+02 0.0000000000e+00 0.0000e+00 1.0000e+00
<mgrwt>
<rscale>  0 0.35606008E+03</rscale>
<asrwt>0</asrwt>
<pdfrwt beam="1">  1        2 0.68981541E-01 0.35606008E+03</pdfrwt>
<pdfrwt beam="2">  1       -2 0.10874943E-01 0.35606008E+03</pdfrwt>
<totfact> 0.43802254E+03</totfact>
</mgrwt>
<rwgt>
<wgt id='morphing_basis_vector_1'> +3.4731252e-04 </wgt>
<wgt id='morphing_basis_vector_2'> +2.3629215e-04 </wgt>
<wgt id='morphing_basis_vector_3'> +1.7630682e-04 </wgt>
<wgt id='morphing_basis_vector_4'> +4.1847829e-05 </wgt>
<wgt id='morphing_basis_vector_5'> +2.3050848e-05 </wgt>
</rwgt>
</event>
<event>
 4      1 +5.5534000e-05 3.03707000e+02 7.81860800e-03 9.99353800e-02
        2 -1    0    0  501    0 +0.0000000000e+00 +0.0000000000e+00 +1.5646421122e+02 1.5646421122e+02 0.0000000000e+00 0.0000e+00 1.0000e+00
       -2 -1    0    0    0  501 -0.0000000000e+00 -0.0000000000e+00 -1.4737862246e+02 1.4737862246e+02 0.0000000000e+00 0.0000e+00 -1.0000e+00
      -13  1    1    2    0    0 +9.8740866100e+01 +8.2575745971e+01 +8.5145378184e+01 1.5433161661e+02 0.0000000000e+00 0.0000e+00 1.0000e+00
       13  1    1    2    0    0 -9.8740866100e+01 -8.2575745971e+01 -7.6059789422e+01 1.4951121706e+02 0.0000000000e+00 0.0000e+00 -1.0000e+00
<mgrwt>
<rscale>  0 0.30370696E+03</rscale>
<asrwt>0</asrwt>
<pdfrwt beam="1">  1        2 0.24071417E-01 0.30370696E+03</pdfrwt>
<pdfrwt beam="2">  1       -2 0.22673634E-01 0.30370696E+03</pdfrwt>
<totfact> 0.43570801E+03</totfact>
</mgrwt>
<rwgt>
<wgt id='morphing_basis_vector_1'> +2.6737872e-04 </wgt>
<wgt id='morphing_basis_vector_2'> +2.3883840e-04 </wgt>
<wgt id='morphing_basis_vector_3'> +7.7564537e-05 </wgt>
<wgt id='morphing_basis_vector_4'> +4.3310291e-05 </wgt>
<wgt id='morphing_basis_vector_5'> +3.1623772e-06 </wgt>
</rwgt>
</event>
<event>
 4      1 +5.5534000e-05 3.12127300e+02 7.81860800e-03 9.95896700e-02
        2 -1    0    0  501    0 +0.0000000000e+00 +0.0000000000e+00 +3.0240714441e+01 3.0240714441e+01 0.0000000000e+00 0.0000e+00 -1.0000e+00
       -2 -1    0    0    0  501 -0.0000000000e+00 -0.0000000000e+00 -8.0539953690e+02 8.0539953690e+02 0.0000000000e+00 0.0000e+00 1.0000e+00
      -13  1    1    2    0    0 +4.5207963592e+01 -1.2132999106e+02 -1.5431908508e+02 2.0144256433e+02 0.0000000000e+00 0.0000e+00 1.0000e+00
       13  1    1    2    0    0 -4.5207963592e+01 +1.2132999106e+02 -6.2083973738e+02 6.3419768701e+02 0.0000000000e+00 0.0000e+00 -1.0000e+00
<mgrwt>
<rscale>  0 0.31212727E+03</rscale>
<asrwt>0</asrwt>
<pdfrwt beam="1">  1        2 0.46524176E-02 0.31212727E+03</pdfrwt>
<pdfrwt beam="2">  1       -2 0.12390762E+00 0.31212727E+03</pdfrwt>
<totfact> 0.11258362E+03</totfact>
</mgrwt>
<rwgt>
<wgt id='morphing_basis_vector_1'> +2.8712260e-04 </wgt>
<wgt id='morphing_basis_vector_2'> +2.6393126e-04 </wgt>
<wgt id='morphing_basis_vector_3'> +7.9128338e-05 </wgt>
<wgt id='morphing_basis_vector_4'> +4.5927860e-05 </wgt>
<wgt id='morphing_basis_vector_5'> +5.2384168e-06 </wgt>
</rwgt>
</event>
<event>
 4      1 +5.5534000e-05 3.03085100e+02 7.81860800e-03 9.99613800e-02
        2 -1    0    0  501    0 +0.0000000000e+00 +0.0000000000e+00 +1.5489003068e+02 1.5489003068e+02 0.0000000000e+00 0.0000e+00 -1.0000e+00
       -2 -1    0    0    0  501 -0.0000000000e+00 -0.0000000000e+00 -1.4826742341e+02 1.4826742341e+02 0.0000000000e+00 0.0000e+00 1.0000e+00
      -13  1    1    2    0    0 -5.0086270136e+01 -1.3130929987e+02 -5.3397723691e+01 1.5033989352e+02 0.0000000000e+00 0.0000e+00 1.0000e+00
       13  1    1    2    0    0 +5.0086270136e+01 +1.3130929987e+02 +6.0020330966e+01 1.5281756057e+02 0.0000000000e+00 0.0000e+00 -1.0000e+00
<mgrwt>
<rscale>  0 0.30308511E+03</rscale>
<asrwt>0</asrwt>
<pdfrwt beam="1">  1        2 0.23829235E-01 0.30308511E+03</pdfrwt>
<pdfrwt beam="2">  1       -2 0.22810373E-01 0.30308511E+03</pdfrwt>
<totfact> 0.43641462E+03</totfact>
</mgrwt>
<rwgt>
<wgt id='morphing_basis_vector_1'> +2.2870860e-04 </wgt>
<wgt id='morphing_basis_vector_2'> +1.3041363e-04 </wgt>
<wgt id='morphing_basis_vector_3'> +1.3173797e-04 </wgt>
<wgt id='morphing_basis_vector_4'> +2.3595314e-05 </wgt>
<wgt id='morphing_basis_vector_5'> +1.5932201e-06 </wgt>
</rwgt>
</event>
<event>
 4      1 +5.5534000e-05 3.48791100e+02 7.81860800e-03 9.82107300e-02
        2 -1    0    0  501    0 +0.0000000000e+00 +0.0000000000e+00 +1.0818206516e+02 1.0818206516e+02 0.0000000000e+00 0.0000e+00 -1.0000e+00
       -2 -1    0    0    0  501 -0.0000000000e+00 -0.0000000000e+00 -2.8113532939e+02 2.8113532939e+02 0.0000000000e+00 0.0000e+00 1.0000e+00
      -13  1    1    2    0    0 +1.7081067817e+02 +3.0059196052e+01 -1.0687446612e+02 2.0372038325e+02 0.0000000000e+00 0.0000e+00 1.0000e+00
       13  1    1    2    0    0 -1.7081067817e+02 -3.0059196052e+01 -6.6078798107e+01 1.8559701130e+02 0.0000000000e+00 0.0000e+00 -1.0000e+00
<mgrwt>
<rscale>  0 0.34879106E+03</rscale>
<asrwt>0</asrwt>
<pdfrwt beam="1">  1        2 0.16643395E-01 0.34879106E+03</pdfrwt>
<pdfrwt beam="2">  1       -2 0.43251589E-01 0.34879106E+03</pdfrwt>
<totfact> 0.21827814E+03</totfact>
</mgrwt>
<rwgt>
<wgt id='morphing_basis_vector_1'> +3.1788664e-04 </wgt>
<wgt id='morphing_basis_vector_2'> +1.8730862e-04 </wgt>
<wgt id='morphing_basis_vector_3'> +1.8128373e-04 </wgt>
<wgt id='morphing_basis_vector_4'> +3.5355949e-05 </wgt>
<wgt id='morphing_basis_vector_5'> +1.7733311e-05 </wgt>
</rwgt>
</event>
<event>
 4      1 +5.5534000e-05 3.12115100e+02 7.81860800e-03 9.95901600e-02
        2 -1    0    0  501    0 +0.0000000000e+00 +0.0000000000e+00 +4.8516910627e+02 4.8516910627e+02 0.0000000000e+00 0.0000e+00 -1.0000e+00
       -2 -1    0    0    0  501 -0.0000000000e+00 -0.0000000000e+00 -5.0196839233e+01 5.0196839233e+01 0.0000000000e+00 0.0000e+00 1.0000e+00
      -13  1    1    2    0    0 -1.0201466420e+00 -1.5419354634e+02 +1.7627413465e+02 2.3419919081e+02 0.0000000000e+00 0.0000e+00 1.0000e+00
       13  1    1    2    0    0 +1.0201466420e+00 +1.5419354634e+02 +2.5869813239e+02 3.0116675469e+02 0.0000000000e+00 0.0000e+00 -1.0000e+00
<mgrwt>
<rscale>  0 0.31211508E+03</rscale>
<asrwt>0</asrwt>
<pdfrwt beam="1">  1        2 0.74641398E-01 0.31211508E+03</pdfrwt>
<pdfrwt beam="2">  1       -2 0.77225910E-02 0.31211508E+03</pdfrwt>
<totfact> 0.67684889E+03</totfact>
</mgrwt>
<rwgt>
<wgt id='morphing_basis_vector_1'> +2.4588290e-04 </wgt>
<wgt id='morphing_basis_vector_2'> +1.4474382e-04 </wgt>
<wgt id='morphing_basis_vector_3'> +1.3749470e-04 </wgt>
<wgt id='morphing_basis_vector_4'> +2.5884072e-05 </wgt>
<wgt id='morphing_basis_vector_5'> +3.3638573e-06 </wgt>
</rwgt>
</event>
<event>
 4      1 +5.5534000e-05 3.04522200e+02 7.81860800e-03 9.99013900e-02
        2 -1    0    0  501    0 +0.0000000000e+00 +0.0000000000e+00 +2.5268730255e+02 2.5268730255e+02 0.0000000000e+00 0.0000e+00 -1.0000e+00
       -2 -1    0    0    0  501 -0.0000000000e+00 -0.0000000000e+00 -9.1747585884e+01 9.1747585884e+01 0.0000000000e+00 0.0000e+00 1.0000e+00
      -13  1    1    2    0    0 +8.5631380203e+01 -1.1552741725e+02 +2.3869814609e+01 1.4577066050e+02 0.0000000000e+00 0.0000e+00 1.0000e+00
       13  1    1    2    0    0 -8.5631380203e+01 +1.1552741725e+02 +1.3706990206e+02 1.9866422794e+02 0.0000000000e+00 0.0000e+00 -1.0000e+00
<mgrwt>
<rscale>  0 0.30452225E+03</rscale>
<asrwt>0</asrwt>
<pdfrwt beam="1">  1        2 0.38874969E-01 0.30452225E+03</pdfrwt>
<pdfrwt beam="2">  1       -2 0.14115013E-01 0.30452225E+03</pdfrwt>
<totfact> 0.54506565E+03</totfact>
</mgrwt>
<rwgt>
<wgt id='morphing_basis_vector_1'> +2.3133567e-04 </wgt>
<wgt id='morphing_basis_vector_2'> +1.3251563e-04 </wgt>
<wgt id='morphing_basis_vector_3'> +1.3265683e-04 </wgt>
<wgt id='morphing_basis_vector_4'> +2.3920975e-05 </wgt>
<wgt id='morphing_basis_vector_5'> +1.8284124e-06 </wgt>
</rwgt>
</event>
<event>
 4      1 +5.5534000e-05 3.04585300e+02 7.81860800e-03 9.98987600e-02
        2 -1    0    0  501    0 +0.0000000000e+00 +0.0000000000e+00 +7.5088587520e+02 7.5088587520e+02 0.0000000000e+00 0.0000e+00 -1.0000e+00
       -2 -1    0    0    0  501 -0.0000000000e+00 -0.0000000000e+00 -3.0887580886e+01 3.0887580886e+01 0.0000000000e+00 0.0000e+00 1.0000e+00
      -13  1    1    2    0    0 +1.1905246521e+02 -1.1685559124e+01 +1.1809016282e+02 1.6809321319e+02 0.0000000000e+00 0.0000e+00 1.0000e+00
       13  1    1    2    0    0 -1.1905246521e+02 +1.1685559124e+01 +6.0190813149e+02 6.1368024289e+02 0.0000000000e+00 0.0000e+00 -1.0000e+00
<mgrwt>
<rscale>  0 0.30458528E+03</rscale>
<asrwt>0</asrwt>
<pdfrwt beam="1">  1        2 0.11552089E+00 0.30458528E+03</pdfrwt>
<pdfrwt beam="2">  1       -2 0.47519361E-02 0.30458528E+03</pdfrwt>
<totfact> 0.85093955E+03</totfact>
</mgrwt>
<rwgt>
<wgt id='morphing_basis_vector_1'> +2.3005064e-04 </wgt>
<wgt id='morphing_basis_vector_2'> +1.2859180e-04 </wgt>
<wgt id='morphing_basis_vector_3'> +1.3472872e-04 </wgt>
<wgt id='morphing_basis_vector_4'> +2.3209940e-05 </wgt>
<wgt id='morphing_basis_vector_5'> +1.7832869e-06 </wgt>
</rwgt>
</event>
<event>
 4      1 +5.5534000e-05 3.58898400e+02 7.81860800e-03 9.78626200e-02
        2 -1    0    0  501    0 +0.0000000000e+00 +0.0000000000e+00 +5.4871872085e+01 5.4871872085e+01 0.0000000000e+00 0.0000e+00 1.0000e+00
       -2 -1    0    0    0  501 -0.0000000000e+00 -0.0000000000e+00 -5.8685840415e+02 5.8685840415e+02 0.0000000000e+00 0.0000e+00 -1.0000e+00
      -13  1    1    2    0    0 +1.6219049609e+02 +7.0430116446e+01 -3.2069318043e+02 3.6621069659e+02 0.0000000000e+00 0.0000e+00 -1.0000e+00
       13  1    1    2    0    0 -1.6219049609e+02 -7.0430116446e+01 -2.1129335164e+02 2.7551957965e+02 0.0000000000e+00 0.0000e+00 1.0000e+00
<mgrwt>
<rscale>  0 0.35889842E+03</rscale>
<asrwt>0</asrwt>
<pdfrwt beam="1">  1        2 0.84418265E-02 0.35889842E+03</pdfrwt>
<pdfrwt beam="2">  1       -2 0.90285908E-01 0.35889842E+03</pdfrwt>
<totfact> 0.11166651E+03</totfact>
</mgrwt>
<rwgt>
<wgt id='morphing_basis_vector_1'> +3.3906950e-04 </wgt>
<wgt id='morphing_basis_vector_2'> +1.9582162e-04 </wgt>
<wgt id='morphing_basis_vector_3'> +1.9828513e-04 </wgt>
<wgt id='morphing_basis_vector_4'> +3.8887132e-05 </wgt>
<wgt id='morphing_basis_vector_5'> +2.4019134e-05 </wgt>
</rwgt>
</event>
<event>
 4      1 +5.5534000e-05 3.16130100e+02 7.81860800e-03 9.94293600e-02
        2 -1    0    0  501    0 +0.0000000000e+00 +0.0000000000e+00 +1.7139901470e+02 1.7139901470e+02 0.0000000000e+00 0.0000e+00 -1.0000e+00
       -2 -1    0    0    0  501 -0.0000000000e+00 -0.0000000000e+00 -1.4576836917e+02 1.4576836917e+02 0.0000000000e+00 0.0000e+00 1.0000e+00
      -13  1    1    2    0    0 +1.0100231036e+02 -7.1933554943e+00 -1.0895568458e+02 1.4874324275e+02 0.0000000000e+00 0.0000e+00 1.0000e+00
       13  1    1    2    0    0 -1.0100231036e+02 +7.1933554943e+00 +1.3458633010e+02 1.6842414112e+02 0.0000000000e+00 0.0000e+00 -1.0000e+00
<mgrwt>
<rscale>  0 0.31613007E+03</rscale>
<asrwt>0</asrwt>
<pdfrwt beam="1">  1        2 0.26369079E-01 0.31613007E+03</pdfrwt>
<pdfrwt beam="2">  1       -2 0.22425903E-01 0.31613007E+03</pdfrwt>
<totfact> 0.40010980E+03</totfact>
</mgrwt>
<rwgt>
<wgt id='morphing_basis_vector_1'> +2.4895296e-04 </wgt>
<wgt id='morphing_basis_vector_2'> +1.3722851e-04 </wgt>
<wgt id='morphing_basis_vector_3'> +1.4716510e-04 </wgt>
<wgt id='morphing_basis_vector_4'> +2.4695742e-05 </wgt>
<wgt id='morphing_basis_vector_5'> +4.1386243e-06 </wgt>
</rwgt>
</event>
<event>
 4      1 +5.5534000e-05 3.08041900e+02 7.81860800e-03 9.97559400e-02
        2 -1    0    0  501    0 +0.0000000000e+00 +0.0000000000e+00 +2.8834599660e+02 2.8834599660e+02 0.0000000000e+00 0.0000e+00 -1.0000e+00
       -2 -1    0    0    0  501 -0.0000000000e+00 -0.0000000000e+00 -8.2270796764e+01 8.2270796764e+01 0.0000000000e+00 0.0000e+00 1.0000e+00
      -13  1    1    2    0    0 +3.9660371818e+01 +5.1123574061e+01 -6.5125956721e+01 9.1803895104e+01 0.0000000000e+00 0.0000e+00 1.0000e+00
       13  1    1    2    0    0 -3.9660371818e+01 -5.1123574061e+01 +2.7120115656e+02 2.7881289826e+02 0.0000000000e+00 0.0000e+00 -1.0000e+00
<mgrwt>
<rscale>  0 0.30804191E+03</rscale>
<asrwt>0</asrwt>
<pdfrwt beam="1">  1        2 0.44360922E-01 0.30804191E+03</pdfrwt>
<pdfrwt beam="2">  1       -2 0.12657046E-01 0.30804191E+03</pdfrwt>
<totfact> 0.55947711E+03</totfact>
</mgrwt>
<rwgt>
<wgt id='morphing_basis_vector_1'> +2.3525736e-04 </wgt>
<wgt id='morphing_basis_vector_2'> +1.3022955e-04 </wgt>
<wgt id='morphing_basis_vector_3'> +1.3874781e-04 </wgt>
<wgt id='morphing_basis_vector_4'> +2.3430971e-05 </wgt>
<wgt id='morphing_basis_vector_5'> +2.3640383e-06 </wgt>
</rwgt>
</event>
<event>
 4      1 +5.5534000e-05 3.47028000e+02 7.81860800e-03 9.82727600e-02
        2 -1    0    0  501    0 +0.0000000000e+00 +0.0000000000e+00 +5.5714081607e+02 5.5714081607e+02 0.0000000000e+00 0.0000e+00 -1.0000e+00
       -2 -1    0    0    0  501 -0.0000000000e+00 -0.0000000000e+00 -5.4038583172e+01 5.4038583172e+01 0.0000000000e+00 0.0000e+00 1.0000e+00
      -13  1    1    2    0    0 +1.1657891842e+02 +4.9508984307e+01 +4.2679704506e+01 1.3365380998e+02 0.0000000000e+00 0.0000e+00 1.0000e+00
       13  1    1    2    0    0 -1.1657891842e+02 -4.9508984307e+01 +4.6042252840e+02 4.7752558926e+02 0.0000000000e+00 0.0000e+00 -1.0000e+00
<mgrwt>
<rscale>  0 0.34702795E+03</rscale>
<asrwt>0</asrwt>
<pdfrwt beam="1">  1        2 0.85713968E-01 0.34702795E+03</pdfrwt>
<pdfrwt beam="2">  1       -2 0.83136286E-02 0.34702795E+03</pdfrwt>
<totfact> 0.51984135E+03</totfact>
</mgrwt>
<rwgt>
<wgt id='morphing_basis_vector_1'> +3.0817880e-04 </wgt>
<wgt id='morphing_basis_vector_2'> +1.6757160e-04 </wgt>
<wgt id='morphing_basis_vector_3'> +1.8607465e-04 </wgt>
<wgt id='morphing_basis_vector_4'> +3.2819800e-05 </wgt>
<wgt id='morphing_basis_vector_5'> +1.6373613e-05 </wgt>
</rwgt>
</event>
<event>
 4      1 +5.5534000e-05 3.28589900e+02 7.81860800e-03 9.89463600e-02
        2 -1    0    0  501    0 +0.0000000000e+00 +0.0000000000e+00 +5.3858622457e+02 5.3858622457e+02 0.0000000000e+00 0.0000e+00 1.0000e+00
       -2 -1    0    0    0  501 -0.0000000000e+00 -0.0000000000e+00 -5.0117922059e+01 5.0117922059e+01 0.0000000000e+00 0.0000e+00 -1.0000e+00
      -13  1    1    2    0    0 +9.7491319737e+01 -1.2700781015e+02 +3.1023930717e+02 3.4911884649e+02 0.0000000000e+00 0.0000e+00 -1.0000e+00
       13  1    1    2    0    0 -9.7491319737e+01 +1.2700781015e+02 +1.7822899535e+02 2.3958530014e+02 0.0000000000e+00 0.0000e+00 1.0000e+00
<mgrwt>
<rscale>  0 0.32858985E+03</rscale>
<asrwt>0</asrwt>
<pdfrwt beam="1">  1        2 0.82859415E-01 0.32858985E+03</pdfrwt>
<pdfrwt beam="2">  1       -2 0.77104499E-02 0.32858985E+03</pdfrwt>
<totfact> 0.60493072E+03</totfact>
</mgrwt>
<rwgt>
<wgt id='morphing_basis_vector_1'> +2.8889780e-04 </wgt>
<wgt id='morphing_basis_vector_2'> +1.9992594e-04 </wgt>
<wgt id='morphing_basis_vector_3'> +1.3822440e-04 </wgt>
<wgt id='morphing_basis_vector_4'> +3.4497041e-05 </wgt>
<wgt id='morphing_basis_vector_5'> +8.9299238e-06 </wgt>
</rwgt>
</event>
<event>
 4      1 +5.5534000e-05 3.29878700e+02 7.81860800e-03 9.88977300e-02
        2 -1    0    0  501    0 +0.0000000000e+00 +0.0000000000e+00 +4.1500797679e+02 4.1500797679e+02 0.0000000000e+00 0.0000e+00 -1.0000e+00
       -2 -1    0    0    0  501 -0.0000000000e+00 -0.0000000000e+00 -6.5552914317e+01 6.5552914317e+01 0.0000000000e+00 0.0000e+00 1.0000e+00
      -13  1    1    2    0    0 +4.5481287769e+01 -1.4048575647e+02 +6.7674589643e+01 1.6243351068e+02 0.0000000000e+00 0.0000e+00 1.0000e+00
       13  1    1    2    0    0 -4.5481287769e+01 +1.4048575647e+02 +2.8178047283e+02 3.1812738043e+02 0.0000000000e+00 0.0000e+00 -1.0000e+00
<mgrwt>
<rscale>  0 0.32987866E+03</rscale>
<asrwt>0</asrwt>
<pdfrwt beam="1">  1        2 0.63847379E-01 0.32987866E+03</pdfrwt>
<pdfrwt beam="2">  1       -2 0.10085064E-01 0.32987866E+03</pdfrwt>
<totfact> 0.53497637E+03</totfact>
</mgrwt>
<rwgt>
<wgt id='morphing_basis_vector_1'> +2.7490261e-04 </wgt>
<wgt id='morphing_basis_vector_2'> +1.5292813e-04 </wgt>
<wgt id='morphing_basis_vector_3'> +1.6177756e-04 </wgt>
<wgt id='morphing_basis_vector_4'> +2.8027990e-05 </wgt>
<wgt id='morphing_basis_vector_5'> +8.5068773e-06 </wgt>
</rwgt>
</event>
<event>
 4      1 +5.5534000e-05 3.12154400e+02 7.81860800e-03 9.95885800e-02
        2 -1    0    0  501    0 +0.0000000000e+00 +0.0000000000e+00 +6.3718820167e+02 6.3718820167e+02 0.0000000000e+00 0.0000e+00 1.0000e+00
       -2 -1    0    0    0  501 -0.0000000000e+00 -0.0000000000e+00 -3.8230614221e+01 3.8230614221e+01 0.0000000000e+00 0.0000e+00 -1.0000e+00
      -13  1    1    2    0    0 +3.1761839143e+01 +1.3365010212e+02 +1.3917360192e+02 1.9555167014e+02 0.0000000000e+00 0.0000e+00 -1.0000e+00
       13  1    1    2    0    0 -3.1761839143e+01 -1.3365010212e+02 +4.5978398553e+02 4.7986714575e+02 0.0000000000e+00 0.0000e+00 1.0000e+00
<mgrwt>
<rscale>  0 0.31215443E+03</rscale>
<asrwt>0</asrwt>
<pdfrwt beam="1">  1        2 0.98028946E-01 0.31215443E+03</pdfrwt>
<pdfrwt beam="2">  1       -2 0.58816334E-02 0.31215443E+03</pdfrwt>
<totfact> 0.75133675E+03</totfact>
</mgrwt>
<rwgt>
<wgt id='morphing_basis_vector_1'> +2.4300547e-04 </wgt>
<wgt id='morphing_basis_vector_2'> +1.3626590e-04 </wgt>
<wgt id='morphing_basis_vector_3'> +1.4170572e-04 </wgt>
<wgt id='morphing_basis_vector_4'> +2.4458423e-05 </wgt>
<wgt id='morphing_basis_vector_5'> +3.2388494e-06 </wgt>
</rwgt>
</event>
<event>
 4      1 +5.5534000e-05 3.06524100e+02 7.81860800e-03 9.98184100e-02
        2 -1    0    0  501    0 +0.0000000000e+00 +0.0000000000e+00 +5.9728189750e+01 5.9728189750e+01 0.0000000000e+00 0.0000e+00 1.0000e+00
       -2 -1    0    0    0  501 -0.0000000000e+00 -0.0000000000e+00 -3.9326922817e+02 3.9326922817e+02 0.0000000000e+00 0.0000e+00 -1.0000e+00
      -13  1    1    2    0    0 -7.7862027088e+01 -6.1791724741e+00 -3.6164867060e+02 3.6998707867e+02 0.0000000000e+00 0.0000e+00 -1.0000e+00
       13  1    1    2    0    0 +7.7862027088e+01 +6.1791724741e+00 +2.8107632186e+01 8.3010339246e+01 0.0000000000e+00 0.0000e+00 1.0000e+00
<mgrwt>
<rscale>  0 0.30652412E+03</rscale>
<asrwt>0</asrwt>
<pdfrwt beam="1">  1        2 0.91889518E-02 0.30652412E+03</pdfrwt>
<pdfrwt beam="2">  1       -2 0.60502961E-01 0.30652412E+03</pdfrwt>
<totfact> 0.23669979E+03</totfact>
</mgrwt>
<rwgt>
<wgt id='morphing_basis_vector_1'> +2.3281365e-04 </wgt>
<wgt id='morphing_basis_vector_2'> +1.2909551e-04 </wgt>
<wgt id='morphing_basis_vector_3'> +1.3717441e-04 </wgt>
<wgt id='morphing_basis_vector_4'> +2.3253197e-05 </wgt>
<wgt id='morphing_basis_vector_5'> +2.0919469e-06 </wgt>
</rwgt>
</event>
<event>
 4      1 +5.5534000e-05 3.18482200e+02 7.81860800e-03 9.93363400e-02
        2 -1    0    0  501    0 +0.0000000000e+00 +0.0000000000e+00 +7.8413903723e+02 7.8413903723e+02 0.0000000000e+00 0.0000e+00 -1.0000e+00
       -2 -1    0    0    0  501 -0.0000000000e+00 -0.0000000000e+00 -3.2338301710e+01 3.2338301710e+01 0.0000000000e+00 0.0000e+00 1.0000e+00
      -13  1    1    2    0    0 +1.5595185305e+02 +3.2047103877e+01 +3.6790463844e+02 4.0087631549e+02 0.0000000000e+00 0.0000e+00 1.0000e+00
       13  1    1    2    0    0 -1.5595185305e+02 -3.2047103877e+01 +3.8389609708e+02 4.1560102344e+02 0.0000000000e+00 0.0000e+00 -1.0000e+00
<mgrwt>
<rscale>  0 0.31848218E+03</rscale>
<asrwt>0</asrwt>
<pdfrwt beam="1">  1        2 0.12063676E+00 0.31848218E+03</pdfrwt>
<pdfrwt beam="2">  1       -2 0.49751239E-02 0.31848218E+03</pdfrwt>
<totfact> 0.75486774E+03</totfact>
</mgrwt>
<rwgt>
<wgt id='morphing_basis_vector_1'> +2.5974505e-04 </wgt>
<wgt id='morphing_basis_vector_2'> +1.5875816e-04 </wgt>
<wgt id='morphing_basis_vector_3'> +1.4048809e-04 </wgt>
<wgt id='morphing_basis_vector_4'> +2.8185497e-05 </wgt>
<wgt id='morphing_basis_vector_5'> +5.0876497e-06 </wgt>
</rwgt>
</event>
<event>
 4      1 +5.5534000e-05 3.51784300e+02 7.81860800e-03 9.81063300e-02
        2 -1    0    0  501    0 +0.0000000000e+00 +0.0000000000e+00 +2.2677510627e+02 2.2677510627e+02 0.0000000000e+00 0.0000e+00 -1.0000e+00
       -2 -1    0    0    0  501 -0.0000000000e+00 -0.0000000000e+00 -1.3642614456e+02 1.3642614456e+02 0.0000000000e+00 0.0000e+00 1.0000e+00
      -13  1    1    2    0    0 -9.4738953032e+01 -8.9849489341e+01 -7.6504777143e+01 1.5133202200e+02 0.0000000000e+00 0.0000e+00 1.0000e+00
       13  1    1    2    0    0 +9.4738953032e+01 +8.9849489341e+01 +1.6685373885e+02 2.1186922883e+02 0.0000000000e+00 0.0000e+00 -1.0000e+00
<mgrwt>
<rscale>  0 0.35178433E+03</rscale>
<asrwt>0</asrwt>
<pdfrwt beam="1">  1        2 0.34888478E-01 0.35178433E+03</pdfrwt>
<pdfrwt beam="2">  1       -2 0.20988638E-01 0.35178433E+03</pdfrwt>
<totfact> 0.32605390E+03</totfact>
</mgrwt>
<rwgt>
<wgt id='morphing_basis_vector_1'> +3.1839230e-04 </wgt>
<wgt id='morphing_basis_vector_2'> +1.7294696e-04 </wgt>
<wgt id='morphing_basis_vector_3'> +1.9302841e-04 </wgt>
<wgt id='morphing_basis_vector_4'> +3.4614432e-05 </wgt>
<wgt id='morphing_basis_vector_5'> +1.9121441e-05 </wgt>
</rwgt>
</event>
<event>
 4      1 +5.5534000e-05 3.30995500e+02 7.81860800e-03 9.88557800e-02
        2 -1    0    0  501    0 +0.0000000000e+00 +0.0000000000e+00 +4.0495785186e+02 4.0495785186e+02 0.0000000000e+00 0.0000e+00 -1.0000e+00
       -2 -1    0    0    0  501 -0.0000000000e+00 -0.0000000000e+00 -6.7635454197e+01 6.7635454197e+01 0.0000000000e+00 0.0000e+00 1.0000e+00
      -13  1    1    2    0    0 +1.1720219359e+02 +3.3850473729e+01 +8.9824109082e+00 1.2232290243e+02 0.0000000000e+00 0.0000e+00 1.0000e+00
       13  1    1    2    0    0 -1.1720219359e+02 -3.3850473729e+01 +3.2833998675e+02 3.5027040362e+02 0.0000000000e+00 0.0000e+00 -1.0000e+00
<mgrwt>
<rscale>  0 0.33099552E+03</rscale>
<asrwt>0</asrwt>
<pdfrwt beam="1">  1        2 0.62301206E-01 0.33099552E+03</pdfrwt>
<pdfrwt beam="2">  1       -2 0.10405455E-01 0.33099552E+03</pdfrwt>
<totfact> 0.52369161E+03</totfact>
</mgrwt>
<rwgt>
<wgt id='morphing_basis_vector_1'> +2.7607188e-04 </wgt>
<wgt id='morphing_basis_vector_2'> +1.5121119e-04 </wgt>
<wgt id='morphing_basis_vector_3'> +1.6443564e-04 </wgt>
<wgt id='morphing_basis_vector_4'> +2.7923549e-05 </wgt>
<wgt id='morphing_basis_vector_5'> +8.8806728e-06 </wgt>
</rwgt>
</event>
<event>
 4      1 +5.5534000e-05 3.02433300e+02 7.81860800e-03 9.99887000e-02
        2 -1    0    0  501    0 +0.0000000000e+00 +0.0000000000e+00 +3.5732314403e+02 3.5732314403e+02 0.0000000000e+00 0.0000e+00 -1.0000e+00
       -2 -1    0    0    0  501 -0.0000000000e+00 -0.0000000000e+00 -6.3993832103e+01 6.3993832103e+01 0.0000000000e+00 0.0000e+00 1.0000e+00
      -13  1    1    2    0    0 -4.8909594615e+01 +1.0424806106e+02 +1.0122806635e+01 1.1559531952e+02 0.0000000000e+00 0.0000e+00 1.0000e+00
       13  1    1    2    0    0 +4.8909594615e+01 -1.0424806106e+02 +2.8320650529e+02 3.0572165661e+02 0.0000000000e+00 0.0000e+00 -1.0000e+00
<mgrwt>
<rscale>  0 0.30243331E+03</rscale>
<asrwt>0</asrwt>
<pdfrwt beam="1">  1        2 0.54972790E-01 0.30243331E+03</pdfrwt>
<pdfrwt beam="2">  1       -2 0.98452052E-02 0.30243331E+03</pdfrwt>
<totfact> 0.65271327E+03</totfact>
</mgrwt>
<rwgt>
<wgt id='morphing_basis_vector_1'> +2.2656481e-04 </wgt>
<wgt id='morphing_basis_vector_2'> +1.2672108e-04 </wgt>
<wgt id='morphing_basis_vector_3'> +1.3272927e-04 </wgt>
<wgt id='morphing_basis_vector_4'> +2.2944134e-05 </wgt>
<wgt id='morphing_basis_vector_5'> +1.4554027e-06 </wgt>
</rwgt>
</event>
<event>
 4      1 +5.5534000e-05 3.44747100e+02 7.81860800e-03 9.83536000e-02
        2 -1    0    0  501    0 +0.0000000000e+00 +0.0000000000e+00 +5.4460415167e+02 5.4460415167e+02 0.0000000000e+00 0.0000e+00 1.0000e+00
       -2 -1    0    0    0  501 -0.0000000000e+00 -0.0000000000e+00 -5.4558222219e+01 5.4558222219e+01 0.0000000000e+00 0.0000e+00 -1.0000e+00
      -13  1    1    2    0    0 -3.3098815250e+01 -7.9900450222e+01 -1.4122250936e+01 8.7630197353e+01 0.0000000000e+00 0.0000e+00 -1.0000e+00
       13  1    1    2    0    0 +3.3098815250e+01 +7.9900450222e+01 +5.0416818039e+02 5.1153217653e+02 0.0000000000e+00 0.0000e+00 1.0000e+00
<mgrwt>
<rscale>  0 0.34474706E+03</rscale>
<asrwt>0</asrwt>
<pdfrwt beam="1">  1        2 0.83785251E-01 0.34474706E+03</pdfrwt>
<pdfrwt beam="2">  1       -2 0.83935730E-02 0.34474706E+03</pdfrwt>
<totfact> 0.52550531E+03</totfact>
</mgrwt>
<rwgt>
<wgt id='morphing_basis_vector_1'> +3.0310917e-04 </wgt>
<wgt id='morphing_basis_vector_2'> +1.6423030e-04 </wgt>
<wgt id='morphing_basis_vector_3'> +1.8318789e-04 </wgt>
<wgt id='morphing_basis_vector_4'> +3.1919853e-05 </wgt>
<wgt id='morphing_basis_vector_5'> +1.5126605e-05 </wgt>
</rwgt>
</event>
<event>
 4      1 +5.5534000e-05 3.36874900e+02 7.81860800e-03 9.86379000e-02
        2 -1    0    0  501    0 +0.0000000000e+00 +0.0000000000e+00 +1.3158130363e+03 1.3158130363e+03 0.0000000000e+00 0.0000e+00 -1.0000e+00
       -2 -1    0    0    0  501 -0.0000000000e+00 -0.0000000000e+00 -2.1561704168e+01 2.1561704168e+01 0.0000000000e+00 0.0000e+00 1.0000e+00
      -13  1    1    2    0    0 -1.5530202298e+02 +3.1326539579e+01 +4.2007046006e+02 4.4895351857e+02 0.0000000000e+00 0.0000e+00 1.0000e+00
       13  1    1    2    0    0 +1.5530202298e+02 -3.1326539579e+01 +8.7418087211e+02 8.8842122194e+02 0.0000000000e+00 0.0000e+00 -1.0000e+00
<mgrwt>
<rscale>  0 0.33687488E+03</rscale>
<asrwt>0</asrwt>
<pdfrwt beam="1">  1        2 0.20243271E+00 0.33687488E+03</pdfrwt>
<pdfrwt beam="2">  1       -2 0.33171863E-02 0.33687488E+03</pdfrwt>
<totfact> 0.66593959E+03</totfact>
</mgrwt>
<rwgt>
<wgt id='morphing_basis_vector_1'> +2.8933876e-04 </wgt>
<wgt id='morphing_basis_vector_2'> +1.6251855e-04 </wgt>
<wgt id='morphing_basis_vector_3'> +1.6960225e-04 </wgt>
<wgt id='morphing_basis_vector_4'> +3.0228597e-05 </wgt>
<wgt id='morphing_basis_vector_5'> +1.1434239e-05 </wgt>
</rwgt>
</event>
<event>
 4      1 +5.5534000e-05 3.08827200e+02 7.81860800e-03 9.97237700e-02
        2 -1    0    0  501    0 +0.0000000000e+00 +0.0000000000e+00 +3.5210907237e+02 3.5210907237e+02 0.0000000000e+00 0.0000e+00 1.0000e+00
       -2 -1    0    0    0  501 -0.0000000000e+00 -0.0000000000e+00 -6.7716405787e+01 6.7716405787e+01 0.0000000000e+00 0.0000e+00 -1.0000e+00
      -13  1    1    2    0    0 +3.9926444932e+01 -1.4903410824e+02 +1.5060655503e+02 2.1560988113e+02 0.0000000000e+00 0.0000e+00 -1.0000e+00
       13  1    1    2    0    0 -3.9926444932e+01 +1.4903410824e+02 +1.3378611155e+02 2.0421559702e+02 0.0000000000e+00 0.0000e+00 1.0000e+00
<mgrwt>
<rscale>  0 0.30882721E+03</rscale>
<asrwt>0</asrwt>
<pdfrwt beam="1">  1        2 0.54170625E-01 0.30882721E+03</pdfrwt>
<pdfrwt beam="2">  1       -2 0.10417909E-01 0.30882721E+03</pdfrwt>
<totfact> 0.60830052E+03</totfact>
</mgrwt>
<rwgt>
<wgt id='morphing_basis_vector_1'> +2.4438849e-04 </wgt>
<wgt id='morphing_basis_vector_2'> +1.5345810e-04 </wgt>
<wgt id='morphing_basis_vector_3'> +1.2832504e-04 </wgt>
<wgt id='morphing_basis_vector_4'> +2.7458083e-05 </wgt>
<wgt id='morphing_basis_vector_5'> +2.8504169e-06 </wgt>
</rwgt>
</event>
<event>
 4      1 +5.5534000e-05 3.24359900e+02 7.81860800e-03 9.91076800e-02
        2 -1    0    0  501    0 +0.0000000000e+00 +0.0000000000e+00 +1.2636781380e+03 1.2636781380e+03 0.0000000000e+00 0.0000e+00 -1.0000e+00
       -2 -1    0    0    0  501 -0.0000000000e+00 -0.0000000000e+00 -2.0814113374e+01 2.0814113374e+01 0.0000000000e+00 0.0000e+00 1.0000e+00
      -13  1    1    2    0    0 -1.1537495433e+02 +1.0382193972e+02 +4.3518324687e+02 4.6203336851e+02 0.0000000000e+00 0.0000e+00 1.0000e+00
       13  1    1    2    0    0 +1.1537495433e+02 -1.0382193972e+02 +8.0768077772e+02 8.2245888284e+02 0.0000000000e+00 0.0000e+00 -1.0000e+00
<mgrwt>
<rscale>  0 0.32435992E+03</rscale>
<asrwt>0</asrwt>
<pdfrwt beam="1">  1        2 0.19441196E+00 0.32435992E+03</pdfrwt>
<pdfrwt beam="2">  1       -2 0.32021723E-02 0.32435992E+03</pdfrwt>
<totfact> 0.74895354E+03</totfact>
</mgrwt>
<rwgt>
<wgt id='morphing_basis_vector_1'> +2.6587759e-04 </wgt>
<wgt id='morphing_basis_vector_2'> +1.5131373e-04 </wgt>
<wgt id='morphing_basis_vector_3'> +1.5339904e-04 </wgt>
<wgt id='morphing_basis_vector_4'> +2.7295464e-05 </wgt>
<wgt id='morphing_basis_vector_5'> +6.6339013e-06 </wgt>
</rwgt>
</event>
<event>
 4      1 +5.5534000e-05 3.06371900e+02 7.81860800e-03 9.98247000e-02
        2 -1    0    0  501    0 +0.0000000000e+00 +0.0000000000e+00 +1.3250390192e+02 1.3250390192e+02 0.0000000000e+00 0.0000e+00 1.0000e+00
       -2 -1    0    0    0  501 -0.0000000000e+00 -0.0000000000e+00 -1.7709613656e+02 1.7709613656e+02 0.0000000000e+00 0.0000e+00 -1.0000e+00
      -13  1    1    2    0    0 +1.0483153328e+02 +1.4610278113e+01 +8.9608313744e+01 1.3868222845e+02 0.0000000000e+00 0.0000e+00 1.0000e+00
       13  1    1    2    0    0 -1.0483153328e+02 -1.4610278113e+01 -1.3420054839e+02 1.7091781003e+02 0.0000000000e+00 0.0000e+00 -1.0000e+00
<mgrwt>
<rscale>  0 0.30637186E+03</rscale>
<asrwt>0</asrwt>
<pdfrwt beam="1">  1        2 0.20385216E-01 0.30637186E+03</pdfrwt>
<pdfrwt beam="2">  1       -2 0.27245559E-01 0.30637186E+03</pdfrwt>
<totfact> 0.38839491E+03</totfact>
</mgrwt>
<rwgt>
<wgt id='morphing_basis_vector_1'> +2.9655574e-04 </wgt>
<wgt id='morphing_basis_vector_2'> +3.1282473e-04 </wgt>
<wgt id='morphing_basis_vector_3'> +4.4739363e-05 </wgt>
<wgt id='morphing_basis_vector_4'> +5.5902493e-05 </wgt>
<wgt id='morphing_basis_vector_5'> +4.7045711e-06 </wgt>
</rwgt>
</event>
<event>
 4      1 +5.5534000e-05 3.18368200e+02 7.81860800e-03 9.93408300e-02
        2 -1    0    0  501    0 +0.0000000000e+00 +0.0000000000e+00 +1.0799783837e+03 1.0799783837e+03 0.0000000000e+00 0.0000e+00 -1.0000e+00
       -2 -1    0    0    0  501 -0.0000000000e+00 -0.0000000000e+00 -2.3463040512e+01 2.3463040512e+01 0.0000000000e+00 0.0000e+00 1.0000e+00
      -13  1    1    2    0    0 +2.5533166070e-01 +1.4121367397e+02 +2.7360719971e+02 3.0789976721e+02 0.0000000000e+00 0.0000e+00 1.0000e+00
       13  1    1    2    0    0 -2.5533166070e-01 -1.4121367397e+02 +7.8290814343e+02 7.9554165696e+02 0.0000000000e+00 0.0000e+00 -1.0000e+00
<mgrwt>
<rscale>  0 0.31836819E+03</rscale>
<asrwt>0</asrwt>
<pdfrwt beam="1">  1        2 0.16615048E+00 0.31836819E+03</pdfrwt>
<pdfrwt beam="2">  1       -2 0.36096994E-02 0.31836819E+03</pdfrwt>
<totfact> 0.79636664E+03</totfact>
</mgrwt>
<rwgt>
<wgt id='morphing_basis_vector_1'> +2.5377801e-04 </wgt>
<wgt id='morphing_basis_vector_2'> +1.4187578e-04 </wgt>
<wgt id='morphing_basis_vector_3'> +1.4835630e-04 </wgt>
<wgt id='morphing_basis_vector_4'> +2.5520573e-05 </wgt>
<wgt id='morphing_basis_vector_5'> +4.7712072e-06 </wgt>
</rwgt>
</event>
<event>
 4      1 +5.5534000e-05 3.14612200e+02 7.81860800e-03 9.94898500e-02
        2 -1    0    0  501    0 +0.0000000000e+00 +0.0000000000e+00 +1.5837831249e+03 1.5837831249e+03 0.0000000000e+00 0.0000e+00 1.0000e+00
       -2 -1    0    0    0  501 -0.0000000000e+00 -0.0000000000e+00 -1.5624114450e+01 1.5624114450e+01 0.0000000000e+00 0.0000e+00 -1.0000e+00
      -13  1    1    2    0    0 +1.5420019346e+02 -1.3153343088e+01 +9.2737419560e+02 9.4019870707e+02 0.0000000000e+00 0.0000e+00 -1.0000e+00
       13  1    1    2    0    0 -1.5420019346e+02 +1.3153343088e+01 +6.4078481486e+02 6.5920853230e+02 0.0000000000e+00 0.0000e+00 1.0000e+00
<mgrwt>
<rscale>  0 0.31461220E+03</rscale>
<asrwt>0</asrwt>
<pdfrwt beam="1">  1        2 0.24365882E+00 0.31461220E+03</pdfrwt>
<pdfrwt beam="2">  1       -2 0.24037112E-02 0.31461220E+03</pdfrwt>
<totfact> 0.76582469E+03</totfact>
</mgrwt>
<rwgt>
<wgt id='morphing_basis_vector_1'> +2.5974618e-04 </wgt>
<wgt id='morphing_basis_vector_2'> +1.7478130e-04 </wgt>
<wgt id='morphing_basis_vector_3'> +1.2668353e-04 </wgt>
<wgt id='morphing_basis_vector_4'> +3.0813942e-05 </wgt>
<wgt id='morphing_basis_vector_5'> +4.3958806e-06 </wgt>
</rwgt>
</event>
<event>
 4      1 +5.5534000e-05 3.42482100e+02 7.81860800e-03 9.84345500e-02
        2 -1    0    0  501    0 +0.0000000000e+00 +0.0000000000e+00 +1.0006908632e+03 1.0006908632e+03 0.0000000000e+00 0.0000e+00 -1.0000e+00
       -2 -1    0    0    0  501 -0.0000000000e+00 -0.0000000000e+00 -2.9303255447e+01 2.9303255447e+01 0.0000000000e+00 0.0000e+00 1.0000e+00
      -13  1    1    2    0    0 +8.7332446867e+01 +1.2704946915e+02 +2.6154421646e+02 3.0360154981e+02 0.0000000000e+00 0.0000e+00 1.0000e+00
       13  1    1    2    0    0 -8.7332446867e+01 -1.2704946915e+02 +7.0984339131e+02 7.2639256885e+02 0.0000000000e+00 0.0000e+00 -1.0000e+00
<mgrwt>
<rscale>  0 0.34248212E+03</rscale>
<asrwt>0</asrwt>
<pdfrwt beam="1">  1        2 0.15395241E+00 0.34248212E+03</pdfrwt>
<pdfrwt beam="2">  1       -2 0.45081939E-02 0.34248212E+03</pdfrwt>
<totfact> 0.63830137E+03</totfact>
</mgrwt>
<rwgt>
<wgt id='morphing_basis_vector_1'> +2.9987716e-04 </wgt>
<wgt id='morphing_basis_vector_2'> +1.6610682e-04 </wgt>
<wgt id='morphing_basis_vector_3'> +1.7819567e-04 </wgt>
<wgt id='morphing_basis_vector_4'> +3.1657094e-05 </wgt>
<wgt id='morphing_basis_vector_5'> +1.4048346e-05 </wgt>
</rwgt>
</event>
<event>
 4      1 +5.5534000e-05 3.52387300e+02 7.81860800e-03 9.80854300e-02
        2 -1    0    0  501    0 +0.0000000000e+00 +0.0000000000e+00 +7.0998795576e+02 7.0998795576e+02 0.0000000000e+00 0.0000e+00 1.0000e+00
       -2 -1    0    0    0  501 -0.0000000000e+00 -0.0000000000e+00 -4.3724961181e+01 4.3724961181e+01 0.0000000000e+00 0.0000e+00 -1.0000e+00
      -13  1    1    2    0    0 -1.0334673627e+02 +6.1621798825e+01 +5.7835529147e+01 1.3350184426e+02 0.0000000000e+00 0.0000e+00 -1.0000e+00
       13  1    1    2    0    0 +1.0334673627e+02 -6.1621798825e+01 +6.0842746543e+02 6.2021107268e+02 0.0000000000e+00 0.0000e+00 1.0000e+00
<mgrwt>
<rscale>  0 0.35238726E+03</rscale>
<asrwt>0</asrwt>
<pdfrwt beam="1">  1        2 0.10922891E+00 0.35238726E+03</pdfrwt>
<pdfrwt beam="2">  1       -2 0.67269176E-02 0.35238726E+03</pdfrwt>
<totfact> 0.54215120E+03</totfact>
</mgrwt>
<rwgt>
<wgt id='morphing_basis_vector_1'> +3.1954943e-04 </wgt>
<wgt id='morphing_basis_vector_2'> +1.7316537e-04 </wgt>
<wgt id='morphing_basis_vector_3'> +1.9412316e-04 </wgt>
<wgt id='morphing_basis_vector_4'> +3.4805359e-05 </wgt>
<wgt id='morphing_basis_vector_5'> +1.9477710e-05 </wgt>
</rwgt>
</event>
<event>
 4      1 +5.5534000e-05 3.41372000e+02 7.81860800e-03 9.84744700e-02
        2 -1    0    0  501    0 +0.0000000000e+00 +0.0000000000e+00 +7.9537901646e+02 7.9537901646e+02 0.0000000000e+00 0.0000e+00 -1.0000e+00
       -2 -1    0    0    0  501 -0.0000000000e+00 -0.0000000000e+00 -3.6628719750e+01 3.6628719750e+01 0.0000000000e+00 0.0000e+00 1.0000e+00
      -13  1    1    2    0    0 -8.5413292345e+01 +8.8747524397e+01 +9.1386239126e+01 1.5337209100e+02 0.0000000000e+00 0.0000e+00 1.0000e+00
       13  1    1    2    0    0 +8.5413292345e+01 -8.8747524397e+01 +6.6736405759e+02 6.7863564522e+02 0.0000000000e+00 0.0000e+00 -1.0000e+00
<mgrwt>
<rscale>  0 0.34137203E+03</rscale>
<asrwt>0</asrwt>
<pdfrwt beam="1">  1        2 0.12236599E+00 0.34137203E+03</pdfrwt>
<pdfrwt beam="2">  1       -2 0.56351882E-02 0.34137203E+03</pdfrwt>
<totfact> 0.61659693E+03</totfact>
</mgrwt>
<rwgt>
<wgt id='morphing_basis_vector_1'> +2.9644758e-04 </wgt>
<wgt id='morphing_basis_vector_2'> +1.6148839e-04 </wgt>
<wgt id='morphing_basis_vector_3'> +1.7813514e-04 </wgt>
<wgt id='morphing_basis_vector_4'> +3.0892385e-05 </wgt>
<wgt id='morphing_basis_vector_5'> +1.3426687e-05 </wgt>
</rwgt>
</event>
<event>
 4      1 +5.5534000e-05 3.24441500e+02 7.81860800e-03 9.91045400e-02
        2 -1    0    0  501    0 +0.0000000000e+00 +0.0000000000e+00 +5.2145152958e+02 5.2145152958e+02 0.0000000000e+00 0.0000e+00 1.0000e+00
       -2 -1    0    0    0  501 -0.0000000000e+00 -0.0000000000e+00 -5.0465999890e+01 5.0465999890e+01 0.0000000000e+00 0.0000e+00 -1.0000e+00
      -13  1    1    2    0    0 -1.5061383429e+02 -3.0932196477e+01 +1.4433417619e+02 2.1088784288e+02 0.0000000000e+00 0.0000e+00 -1.0000e+00
       13  1    1    2    0    0 +1.5061383429e+02 +3.0932196477e+01 +3.2665135351e+02 3.6102968660e+02 0.0000000000e+00 0.0000e+00 1.0000e+00
<mgrwt>
<rscale>  0 0.32444151E+03</rscale>
<asrwt>0</asrwt>
<pdfrwt beam="1">  1        2 0.80223308E-01 0.32444151E+03</pdfrwt>
<pdfrwt beam="2">  1       -2 0.77640004E-02 0.32444151E+03</pdfrwt>
<totfact> 0.62041839E+03</totfact>
</mgrwt>
<rwgt>
<wgt id='morphing_basis_vector_1'> +2.6573909e-04 </wgt>
<wgt id='morphing_basis_vector_2'> +1.5054836e-04 </wgt>
<wgt id='morphing_basis_vector_3'> +1.5388652e-04 </wgt>
<wgt id='morphing_basis_vector_4'> +2.7188299e-05 </wgt>
<wgt id='morphing_basis_vector_5'> +6.6453735e-06 </wgt>
</rwgt>
</event>
<event>
 4      1 +5.5534000e-05 3.41761900e+02 7.81860800e-03 9.84604400e-02
        2 -1    0    0  501    0 +0.0000000000e+00 +0.0000000000e+00 +3.4490576227e+01 3.4490576227e+01 0.0000000000e+00 0.0000e+00 1.0000e+00
       -2 -1    0    0    0  501 -0.0000000000e+00 -0.0000000000e+00 -8.4661652782e+02 8.4661652782e+02 0.0000000000e+00 0.0000e+00 -1.0000e+00
      -13  1    1    2    0    0 +1.5146181536e+02 +7.3151802189e+01 -3.2835788700e+02 3.6893193089e+02 0.0000000000e+00 0.0000e+00 1.0000e+00
       13  1    1    2    0    0 -1.5146181536e+02 -7.3151802189e+01 -4.8376806460e+02 5.1217517316e+02 0.0000000000e+00 0.0000e+00 -1.0000e+00
<mgrwt>
<rscale>  0 0.34176186E+03</rscale>
<asrwt>0</asrwt>
<pdfrwt beam="1">  1        2 0.53062431E-02 0.34176186E+03</pdfrwt>
<pdfrwt beam="2">  1       -2 0.13024868E+00 0.34176186E+03</pdfrwt>
<totfact> 0.83134806E+02</totfact>
</mgrwt>
<rwgt>
<wgt id='morphing_basis_vector_1'> +3.1354901e-04 </wgt>
<wgt id='morphing_basis_vector_2'> +2.1029265e-04 </wgt>
<wgt id='morphing_basis_vector_3'> +1.5797848e-04 </wgt>
<wgt id='morphing_basis_vector_4'> +3.6741125e-05 </wgt>
<wgt id='morphing_basis_vector_5'> +1.4598933e-05 </wgt>
</rwgt>
</event>
<event>
 4      1 +5.5534000e-05 3.23172500e+02 7.81860800e-03 9.91534500e-02
        2 -1    0    0  501    0 +0.0000000000e+00 +0.0000000000e+00 +1.2628996797e+02 1.2628996797e+02 0.0000000000e+00 0.0000e+00 1.0000e+00
       -2 -1    0    0    0  501 -0.0000000000e+00 -0.0000000000e+00 -2.0674730063e+02 2.0674730063e+02 0.0000000000e+00 0.0000e+00 -1.0000e+00
      -13  1    1    2    0    0 +1.2858820612e+02 -9.6701060373e+01 -2.4802147634e+01 1.6279179450e+02 0.0000000000e+00 0.0000e+00 1.0000e+00
       13  1    1    2    0    0 -1.2858820612e+02 +9.6701060373e+01 -5.5655185027e+01 1.7024547409e+02 0.0000000000e+00 0.0000e+00 -1.0000e+00
<mgrwt>
<rscale>  0 0.32317246E+03</rscale>
<asrwt>0</asrwt>
<pdfrwt beam="1">  1        2 0.19429226E-01 0.32317246E+03</pdfrwt>
<pdfrwt beam="2">  1       -2 0.31807277E-01 0.32317246E+03</pdfrwt>
<totfact> 0.31519818E+03</totfact>
</mgrwt>
<rwgt>
<wgt id='morphing_basis_vector_1'> +2.7192772e-04 </wgt>
<wgt id='morphing_basis_vector_2'> +1.7421099e-04 </wgt>
<wgt id='morphing_basis_vector_3'> +1.4079544e-04 </wgt>
<wgt id='morphing_basis_vector_4'> +3.0644921e-05 </wgt>
<wgt id='morphing_basis_vector_5'> +6.6808055e-06 </wgt>
</rwgt>
</event>
<event>
 4      1 +5.5534000e-05 3.19581900e+02 7.81860800e-03 9.92931500e-02
        2 -1    0    0  501    0 +0.0000000000e+00 +0.0000000000e+00 +8.7246817655e+01 8.7246817655e+01 0.0000000000e+00 0.0000e+00 1.0000e+00
       -2 -1    0    0    0  501 -0.0000000000e+00 -0.0000000000e+00 -2.9265420631e+02 2.9265420631e+02 0.0000000000e+00 0.0000e+00 -1.0000e+00
      -13  1    1    2    0    0 +1.0222054838e+02 +6.1397688880e+01 -2.2914956573e+02 2.5831809884e+02 0.0000000000e+00 0.0000e+00 -1.0000e+00
       13  1    1    2    0    0 -1.0222054838e+02 -6.1397688880e+01 +2.3742177073e+01 1.2158292513e+02 0.0000000000e+00 0.0000e+00 1.0000e+00
<mgrwt>
<rscale>  0 0.31958190E+03</rscale>
<asrwt>0</asrwt>
<pdfrwt beam="1">  1        2 0.13422587E-01 0.31958190E+03</pdfrwt>
<pdfrwt beam="2">  1       -2 0.45023724E-01 0.31958190E+03</pdfrwt>
<totfact> 0.26229368E+03</totfact>
</mgrwt>
<rwgt>
<wgt id='morphing_basis_vector_1'> +2.5516217e-04 </wgt>
<wgt id='morphing_basis_vector_2'> +1.4075482e-04 </wgt>
<wgt id='morphing_basis_vector_3'> +1.5076771e-04 </wgt>
<wgt id='morphing_basis_vector_4'> +2.5401491e-05 </wgt>
<wgt id='morphing_basis_vector_5'> +5.0703958e-06 </wgt>
</rwgt>
</event>
<event>
 4      1 +5.5534000e-05 3.11862200e+02 7.81860800e-03 9.96003800e-02
        2 -1    0    0  501    0 +0.0000000000e+00 +0.0000000000e+00 +3.1921048451e+02 3.1921048451e+02 0.0000000000e+00 0.0000e+00 -1.0000e+00
       -2 -1    0    0    0  501 -0.0000000000e+00 -0.0000000000e+00 -7.6170746237e+01 7.6170746237e+01 0.0000000000e+00 0.0000e+00 1.0000e+00
      -13  1    1    2    0    0 +7.8679482521e+01 +1.0470049398e+02 +1.4228231106e+01 1.3173874513e+02 0.0000000000e+00 0.0000e+00 1.0000e+00
       13  1    1    2    0    0 -7.8679482521e+01 -1.0470049398e+02 +2.2881150716e+02 2.6364248561e+02 0.0000000000e+00 0.0000e+00 -1.0000e+00
<mgrwt>
<rscale>  0 0.31186215E+03</rscale>
<asrwt>0</asrwt>
<pdfrwt beam="1">  1        2 0.49109305E-01 0.31186215E+03</pdfrwt>
<pdfrwt beam="2">  1       -2 0.11718577E-01 0.31186215E+03</pdfrwt>
<totfact> 0.56465538E+03</totfact>
</mgrwt>
<rwgt>
<wgt id='morphing_basis_vector_1'> +2.4222258e-04 </wgt>
<wgt id='morphing_basis_vector_2'> +1.3517910e-04 </wgt>
<wgt id='morphing_basis_vector_3'> +1.4180932e-04 </wgt>
<wgt id='morphing_basis_vector_4'> +2.4273464e-05 </wgt>
<wgt id='morphing_basis_vector_5'> +3.1617521e-06 </wgt>
</rwgt>
</event>
<event>
 4      1 +5.5534000e-05 3.03109400e+02 7.81860800e-03 9.99603600e-02
        2 -1    0    0  501    0 +0.0000000000e+00 +0.0000000000e+00 +1.0008266364e+03 1.0008266364e+03 0.0000000000e+00 0.0000e+00 -1.0000e+00
       -2 -1    0    0    0  501 -0.0000000000e+00 -0.0000000000e+00 -2.2949862810e+01 2.2949862810e+01 0.0000000000e+00 0.0000e+00 1.0000e+00
      -13  1    1    2    0    0 -1.4008953433e+02 -1.8838567406e+01 +3.0428434525e+02 3.3551293867e+02 0.0000000000e+00 0.0000e+00 1.0000e+00
       13  1    1    2    0    0 +1.4008953433e+02 +1.8838567406e+01 +6.7359242835e+02 6.8826356055e+02 0.0000000000e+00 0.0000e+00 -1.0000e+00
<mgrwt>
<rscale>  0 0.30310945E+03</rscale>
<asrwt>0</asrwt>
<pdfrwt beam="1">  1        2 0.15397329E+00 0.30310945E+03</pdfrwt>
<pdfrwt beam="2">  1       -2 0.35307489E-02 0.30310945E+03</pdfrwt>
<totfact> 0.91466411E+03</totfact>
</mgrwt>
<rwgt>
<wgt id='morphing_basis_vector_1'> +2.2883725e-04 </wgt>
<wgt id='morphing_basis_vector_2'> +1.3069050e-04 </wgt>
<wgt id='morphing_basis_vector_3'> +1.3163051e-04 </wgt>
<wgt id='morphing_basis_vector_4'> +2.3644969e-05 </wgt>
<wgt id='morphing_basis_vector_5'> +1.6003267e-06 </wgt>
</rwgt>
</event>
<event>
 4      1 +5.5534000e-05 3.40578700e+02 7.81860800e-03 9.85031000e-02
        2 -1    0    0  501    0 +0.0000000000e+00 +0.0000000000e+00 +2.3902712458e+02 2.3902712458e+02 0.0000000000e+00 0.0000e+00 -1.0000e+00
       -2 -1    0    0    0  501 -0.0000000000e+00 -0.0000000000e+00 -1.2131874388e+02 1.2131874388e+02 0.0000000000e+00 0.0000e+00 1.0000e+00
      -13  1    1    2    0    0 +1.7021479141e+02 -4.9263553018e+00 +5.9977068620e+01 1.8053972679e+02 0.0000000000e+00 0.0000e+00 1.0000e+00
       13  1    1    2    0    0 -1.7021479141e+02 +4.9263553018e+00 +5.7731312076e+01 1.7980614167e+02 0.0000000000e+00 0.0000e+00 -1.0000e+00
<mgrwt>
<rscale>  0 0.34057875E+03</rscale>
<asrwt>0</asrwt>
<pdfrwt beam="1">  1        2 0.36773404E-01 0.34057875E+03</pdfrwt>
<pdfrwt beam="2">  1       -2 0.18664422E-01 0.34057875E+03</pdfrwt>
<totfact> 0.37220718E+03</totfact>
</mgrwt>
<rwgt>
<wgt id='morphing_basis_vector_1'> +3.0350428e-04 </wgt>
<wgt id='morphing_basis_vector_2'> +1.8636010e-04 </wgt>
<wgt id='morphing_basis_vector_3'> +1.6599779e-04 </wgt>
<wgt id='morphing_basis_vector_4'> +3.3730182e-05 </wgt>
<wgt id='morphing_basis_vector_5'> +1.3557892e-05 </wgt>
</rwgt>
</event>
<event>
 4      1 +5.5534000e-05 3.52519200e+02 7.81860800e-03 9.80808700e-02
        2 -1    0    0  501    0 +0.0000000000e+00 +0.0000000000e+00 +2.0961323658e+02 2.0961323658e+02 0.0000000000e+00 0.0000e+00 1.0000e+00
       -2 -1    0    0    0  501 -0.0000000000e+00 -0.0000000000e+00 -1.4821320513e+02 1.4821320513e+02 0.0000000000e+00 0.0000e+00 -1.0000e+00
      -13  1    1    2    0    0 +1.2574589376e+02 +1.2251903263e+02 +1.4827900177e+01 1.7618969827e+02 0.0000000000e+00 0.0000e+00 -1.0000e+00
       13  1    1    2    0    0 -1.2574589376e+02 -1.2251903263e+02 +4.6572131279e+01 1.8163674344e+02 0.0000000000e+00 0.0000e+00 1.0000e+00
<mgrwt>
<rscale>  0 0.35251922E+03</rscale>
<asrwt>0</asrwt>
<pdfrwt beam="1">  1        2 0.32248190E-01 0.35251922E+03</pdfrwt>
<pdfrwt beam="2">  1       -2 0.22802031E-01 0.35251922E+03</pdfrwt>
<totfact> 0.31058762E+03</totfact>
</mgrwt>
<rwgt>
<wgt id='morphing_basis_vector_1'> +3.2651165e-04 </wgt>
<wgt id='morphing_basis_vector_2'> +1.9326775e-04 </wgt>
<wgt id='morphing_basis_vector_3'> +1.8623782e-04 </wgt>
<wgt id='morphing_basis_vector_4'> +3.6853100e-05 </wgt>
<wgt id='morphing_basis_vector_5'> +1.9979174e-05 </wgt>
</rwgt>
</event>
<event>
 4      1 +5.5534000e-05 3.46790700e+02 7.81860800e-03 9.82811400e-02
        2 -1    0    0  501    0 +0.0000000000e+00 +0.0000000000e+00 +2.8280297049e+02 2.8280297049e+02 0.0000000000e+00 0.0000e+00 -1.0000e+00
       -2 -1    0    0    0  501 -0.0000000000e+00 -0.0000000000e+00 -1.0631409063e+02 1.0631409063e+02 0.0000000000e+00 0.0000e+00 1.0000e+00
      -13  1    1    2    0    0 -4.6286005314e+01 -1.8290278080e+01 -9.8127683916e+01 1.1002713716e+02 0.0000000000e+00 0.0000e+00 1.0000e+00
       13  1    1    2    0    0 +4.6286005314e+01 +1.8290278080e+01 +2.7461656377e+02 2.7908992396e+02 0.0000000000e+00 0.0000e+00 -1.0000e+00
<mgrwt>
<rscale>  0 0.34679066E+03</rscale>
<asrwt>0</asrwt>
<pdfrwt beam="1">  1        2 0.43508149E-01 0.34679066E+03</pdfrwt>
<pdfrwt beam="2">  1       -2 0.16356014E-01 0.34679066E+03</pdfrwt>
<totfact> 0.38221333E+03</totfact>
</mgrwt>
<rwgt>
<wgt id='morphing_basis_vector_1'> +3.0732907e-04 </wgt>
<wgt id='morphing_basis_vector_2'> +1.6627153e-04 </wgt>
<wgt id='morphing_basis_vector_3'> +1.8616743e-04 </wgt>
<wgt id='morphing_basis_vector_4'> +3.2620558e-05 </wgt>
<wgt id='morphing_basis_vector_5'> +1.6221583e-05 </wgt>
</rwgt>
</event>
<event>
 4      1 +5.5534000e-05 3.03299900e+02 7.81860800e-03 9.99523900e-02
        2 -1    0    0  501    0 +0.0000000000e+00 +0.0000000000e+00 +6.8286024138e+02 6.8286024138e+02 0.0000000000e+00 0.0000e+00 -1.0000e+00
       -2 -1    0    0    0  501 -0.0000000000e+00 -0.0000000000e+00 -3.3678505716e+01 3.3678505716e+01 0.0000000000e+00 0.0000e+00 1.0000e+00
      -13  1    1    2    0    0 +1.1404576537e+01 -1.5086505886e+02 +3.4907211247e+02 3.8044930024e+02 0.0000000000e+00 0.0000e+00 1.0000e+00
       13  1    1    2    0    0 -1.1404576537e+01 +1.5086505886e+02 +3.0010962320e+02 3.3608944686e+02 0.0000000000e+00 0.0000e+00 -1.0000e+00
<mgrwt>
<rscale>  0 0.30329993E+03</rscale>
<asrwt>0</asrwt>
<pdfrwt beam="1">  1        2 0.10505541E+00 0.30329993E+03</pdfrwt>
<pdfrwt beam="2">  1       -2 0.51813091E-02 0.30329993E+03</pdfrwt>
<totfact> 0.83738878E+03</totfact>
</mgrwt>
<rwgt>
<wgt id='morphing_basis_vector_1'> +2.3593363e-04 </wgt>
<wgt id='morphing_basis_vector_2'> +1.5029181e-04 </wgt>
<wgt id='morphing_basis_vector_3'> +1.2192734e-04 </wgt>
<wgt id='morphing_basis_vector_4'> +2.7218697e-05 </wgt>
<wgt id='morphing_basis_vector_5'> +1.8925958e-06 </wgt>
</rwgt>
</event>
<event>
 4      1 +5.5534000e-05 3.22077300e+02 7.81860800e-03 9.91958500e-02
        2 -1    0    0  501    0 +0.0000000000e+00 +0.0000000000e+00 +9.2312899298e+02 9.2312899298e+02 0.0000000000e+00 0.0000e+00 -1.0000e+00
       -2 -1    0    0    0  501 -0.0000000000e+00 -0.0000000000e+00 -2.8092978177e+01 2.8092978177e+01 0.0000000000e+00 0.0000e+00 1.0000e+00
      -13  1    1    2    0    0 +1.9415260537e+01 -1.5561647202e+02 +3.3940577636e+02 3.7388463426e+02 0.0000000000e+00 0.0000e+00 1.0000e+00
       13  1    1    2    0    0 -1.9415260537e+01 +1.5561647202e+02 +5.5563023844e+02 5.7733733690e+02 0.0000000000e+00 0.0000e+00 -1.0000e+00
<mgrwt>
<rscale>  0 0.32207727E+03</rscale>
<asrwt>0</asrwt>
<pdfrwt beam="1">  1        2 0.14201982E+00 0.32207727E+03</pdfrwt>
<pdfrwt beam="2">  1       -2 0.43219974E-02 0.32207727E+03</pdfrwt>
<totfact> 0.75684793E+03</totfact>
</mgrwt>
<rwgt>
<wgt id='morphing_basis_vector_1'> +2.6243262e-04 </wgt>
<wgt id='morphing_basis_vector_2'> +1.5122890e-04 </wgt>
<wgt id='morphing_basis_vector_3'> +1.4976136e-04 </wgt>
<wgt id='morphing_basis_vector_4'> +2.7141812e-05 </wgt>
<wgt id='morphing_basis_vector_5'> +5.9481605e-06 </wgt>
</rwgt>
</event>
<event>
 4      1 +5.5534000e-05 3.46306900e+02 7.81860800e-03 9.82982500e-02
        2 -1    0    0  501    0 +0.0000000000e+00 +0.0000000000e+00 +6.0526981733e+02 6.0526981733e+02 0.0000000000e+00 0.0000e+00 -1.0000e+00
       -2 -1    0    0    0  501 -0.0000000000e+00 -0.0000000000e+00 -4.9535136737e+01 4.9535136737e+01 0.0000000000e+00 0.0000e+00 1.0000e+00
      -13  1    1    2    0    0 +8.0447136279e+01 +8.3939305060e+01 +3.5247660841e+01 1.2149051924e+02 0.0000000000e+00 0.0000e+00 1.0000e+00
       13  1    1    2    0    0 -8.0447136279e+01 -8.3939305060e+01 +5.2048701975e+02 5.3331443483e+02 0.0000000000e+00 0.0000e+00 -1.0000e+00
<mgrwt>
<rscale>  0 0.34630693E+03</rscale>
<asrwt>0</asrwt>
<pdfrwt beam="1">  1        2 0.93118428E-01 0.34630693E+03</pdfrwt>
<pdfrwt beam="2">  1       -2 0.76207907E-02 0.34630693E+03</pdfrwt>
<totfact> 0.54024340E+03</totfact>
</mgrwt>
<rwgt>
<wgt id='morphing_basis_vector_1'> +3.0653082e-04 </wgt>
<wgt id='morphing_basis_vector_2'> +1.6639749e-04 </wgt>
<wgt id='morphing_basis_vector_3'> +1.8520180e-04 </wgt>
<wgt id='morphing_basis_vector_4'> +3.2519712e-05 </wgt>
<wgt id='morphing_basis_vector_5'> +1.5970979e-05 </wgt>
</rwgt>
</event>
<event>
 4      1 +5.5534000e-05 3.08676000e+02 7.81860800e-03 9.97299500e-02
        2 -1    0    0  501    0 +0.0000000000e+00 +0.0000000000e+00 +3.3590974484e+01 3.3590974484e+01 0.0000000000e+00 0.0000e+00 -1.0000e+00
       -2 -1    0    0    0  501 -0.0000000000e+00 -0.0000000000e+00 -7.0912560689e+02 7.0912560689e+02 0.0000000000e+00 0.0000e+00 1.0000e+00
      -13  1    1    2    0    0 +9.3147203926e+01 -9.7780601045e+01 -5.1754890275e+02 5.3487784987e+02 0.0000000000e+00 0.0000e+00 1.0000e+00
       13  1    1    2    0    0 -9.3147203926e+01 +9.7780601045e+01 -1.5798572966e+02 2.0783873151e+02 0.0000000000e+00 0.0000e+00 -1.0000e+00
<mgrwt>
<rscale>  0 0.30867601E+03</rscale>
<asrwt>0</asrwt>
<pdfrwt beam="1">  1        2 0.51678420E-02 0.30867601E+03</pdfrwt>
<pdfrwt beam="2">  1       -2 0.10909625E+00 0.30867601E+03</pdfrwt>
<totfact> 0.13493013E+03</totfact>
</mgrwt>
<rwgt>
<wgt id='morphing_basis_vector_1'> +2.3716014e-04 </wgt>
<wgt id='morphing_basis_vector_2'> +1.3322641e-04 </wgt>
<wgt id='morphing_basis_vector_3'> +1.3815949e-04 </wgt>
<wgt id='morphing_basis_vector_4'> +2.3946719e-05 </wgt>
<wgt id='morphing_basis_vector_5'> +2.5206590e-06 </wgt>
</rwgt>
</event>
<event>
 4      1 +5.5534000e-05 3.52896000e+02 7.81860800e-03 9.80678400e-02
        2 -1    0    0  501    0 +0.0000000000e+00 +0.0000000000e+00 +2.3154300642e+02 2.3154300642e+02 0.0000000000e+00 0.0000e+00 1.0000e+00
       -2 -1    0    0    0  501 -0.0000000000e+00 -0.0000000000e+00 -1.3446270120e+02 1.3446270120e+02 0.0000000000e+00 0.0000e+00 -1.0000e+00
      -13  1    1    2    0    0 -3.8118706703e+01 -9.4292653245e+01 -1.0100275752e+02 1.4333770363e+02 0.0000000000e+00 0.0000e+00 -1.0000e+00
       13  1    1    2    0    0 +3.8118706703e+01 +9.4292653245e+01 +1.9808306274e+02 2.2266800399e+02 0.0000000000e+00 0.0000e+00 1.0000e+00
<mgrwt>
<rscale>  0 0.35289601E+03</rscale>
<asrwt>0</asrwt>
<pdfrwt beam="1">  1        2 0.35622001E-01 0.35289601E+03</pdfrwt>
<pdfrwt beam="2">  1       -2 0.20686569E-01 0.35289601E+03</pdfrwt>
<totfact> 0.32625764E+03</totfact>
</mgrwt>
<rwgt>
<wgt id='morphing_basis_vector_1'> +3.2051075e-04 </wgt>
<wgt id='morphing_basis_vector_2'> +1.7329521e-04 </wgt>
<wgt id='morphing_basis_vector_3'> +1.9507250e-04 </wgt>
<wgt id='morphing_basis_vector_4'> +3.4963557e-05 </wgt>
<wgt id='morphing_basis_vector_5'> +1.9780289e-05 </wgt>
</rwgt>
</event>
<event>
 4      1 +5.5534000e-05 3.32328100e+02 7.81860800e-03 9.88059700e-02
        2 -1    0    0  501    0 +0.0000000000e+00 +0.0000000000e+00 +6.4952510719e+01 6.4952510719e+01 0.0000000000e+00 0.0000e+00 -1.0000e+00
       -2 -1    0    0    0  501 -0.0000000000e+00 -0.0000000000e+00 -4.2508732217e+02 4.2508732217e+02 0.0000000000e+00 0.0000e+00 1.0000e+00
      -13  1    1    2    0    0 +1.5920372657e+02 -4.1358181191e+01 -2.1477968725e+02 2.7053029361e+02 0.0000000000e+00 0.0000e+00 1.0000e+00
       13  1    1    2    0    0 -1.5920372657e+02 +4.1358181191e+01 -1.4535512421e+02 2.1950953929e+02 0.0000000000e+00 0.0000e+00 -1.0000e+00
<mgrwt>
<rscale>  0 0.33232808E+03</rscale>
<asrwt>0</asrwt>
<pdfrwt beam="1">  1        2 0.99926940E-02 0.33232808E+03</pdfrwt>
<pdfrwt beam="2">  1       -2 0.65398049E-01 0.33232808E+03</pdfrwt>
<totfact> 0.18203092E+03</totfact>
</mgrwt>
<rwgt>
<wgt id='morphing_basis_vector_1'> +2.8310513e-04 </wgt>
<wgt id='morphing_basis_vector_2'> +1.6572026e-04 </wgt>
<wgt id='morphing_basis_vector_3'> +1.6020644e-04 </wgt>
<wgt id='morphing_basis_vector_4'> +3.0043740e-05 </wgt>
<wgt id='morphing_basis_vector_5'> +9.6588090e-06 </wgt>
</rwgt>
</event>
<event>
 4      1 +5.5534000e-05 3.40284000e+02 7.81860800e-03 9.85137600e-02
        2 -1    0    0  501    0 +0.0000000000e+00 +0.0000000000e+00 +1.6227355296e+02 1.6227355296e+02 0.0000000000e+00 0.0000e+00 -1.0000e+00
       -2 -1    0    0    0  501 -0.0000000000e+00 -0.0000000000e+00 -1.7839196483e+02 1.7839196483e+02 0.0000000000e+00 0.0000e+00 1.0000e+00
      -13  1    1    2    0    0 -1.0078516882e+02 +5.3132779243e+01 -1.3456367858e+02 1.7631825225e+02 0.0000000000e+00 0.0000e+00 1.0000e+00
       13  1    1    2    0    0 +1.0078516882e+02 -5.3132779243e+01 +1.1844526671e+02 1.6434726554e+02 0.0000000000e+00 0.0000e+00 -1.0000e+00
<mgrwt>
<rscale>  0 0.34028399E+03</rscale>
<asrwt>0</asrwt>
<pdfrwt beam="1">  1        2 0.24965162E-01 0.34028399E+03</pdfrwt>
<pdfrwt beam="2">  1       -2 0.27444918E-01 0.34028399E+03</pdfrwt>
<totfact> 0.30409485E+03</totfact>
</mgrwt>
<rwgt>
<wgt id='morphing_basis_vector_1'> +2.9413580e-04 </wgt>
<wgt id='morphing_basis_vector_2'> +1.6004252e-04 </wgt>
<wgt id='morphing_basis_vector_3'> +1.7678269e-04 </wgt>
<wgt id='morphing_basis_vector_4'> +3.0508966e-05 </wgt>
<wgt id='morphing_basis_vector_5'> +1.2892300e-05 </wgt>
</rwgt>
</event>
<event>
 4      1 +5.5534000e-05 3.08013700e+02 7.81860800e-03 9.97571000e-02
        2 -1    0    0  501    0 +0.0000000000e+00 +0.0000000000e+00 +4.1421670994e+02 4.1421670994e+02 0.0000000000e+00 0.0000e+00 1.0000e+00
       -2 -1    0    0    0  501 -0.0000000000e+00 -0.0000000000e+00 -5.7260131427e+01 5.7260131427e+01 0.0000000000e+00 0.0000e+00 -1.0000e+00
      -13  1    1    2    0    0 -5.2752748366e+01 +1.3398400399e+02 +9.4868690382e+01 1.7243733413e+02 0.0000000000e+00 0.0000e+00 -1.0000e+00
       13  1    1    2    0    0 +5.2752748366e+01 -1.3398400399e+02 +2.6208788813e+02 2.9903950724e+02 0.0000000000e+00 0.0000e+00 1.0000e+00
<mgrwt>
<rscale>  0 0.30801366E+03</rscale>
<asrwt>0</asrwt>
<pdfrwt beam="1">  1        2 0.63725646E-01 0.30801366E+03</pdfrwt>
<pdfrwt beam="2">  1       -2 0.88092513E-02 0.30801366E+03</pdfrwt>
<totfact> 0.65865859E+03</totfact>
</mgrwt>
<rwgt>
<wgt id='morphing_basis_vector_1'> +2.3682600e-04 </wgt>
<wgt id='morphing_basis_vector_2'> +1.3485518e-04 </wgt>
<wgt id='morphing_basis_vector_3'> +1.3640186e-04 </wgt>
<wgt id='morphing_basis_vector_4'> +2.4240674e-05 </wgt>
<wgt id='morphing_basis_vector_5'> +2.4273871e-06 </wgt>
</rwgt>
</event>
<event>
 4      1 +5.5534000e-05 3.16633300e+02 7.81860800e-03 9.94093800e-02
        2 -1    0    0  501    0 +0.0000000000e+00 +0.0000000000e+00 +6.0024075525e+02 6.0024075525e+02 0.0000000000e+00 0.0000e+00 1.0000e+00
       -2 -1    0    0    0  501 -0.0000000000e+00 -0.0000000000e+00 -4.1756851896e+01 4.1756851896e+01 0.0000000000e+00 0.0000e+00 -1.0000e+00
      -13  1    1    2    0    0 -1.3000474180e+02 +4.1662329459e+01 +4.4179199483e+02 4.6240366487e+02 0.0000000000e+00 0.0000e+00 1.0000e+00
       13  1    1    2    0    0 +1.3000474180e+02 -4.1662329459e+01 +1.1669190852e+02 1.7959394228e+02 0.0000000000e+00 0.0000e+00 -1.0000e+00
<mgrwt>
<rscale>  0 0.31663332E+03</rscale>
<asrwt>0</asrwt>
<pdfrwt beam="1">  1        2 0.92344725E-01 0.31663332E+03</pdfrwt>
<pdfrwt beam="2">  1       -2 0.64241315E-02 0.31663332E+03</pdfrwt>
<totfact> 0.70485261E+03</totfact>
</mgrwt>
<rwgt>
<wgt id='morphing_basis_vector_1'> +2.8992230e-04 </wgt>
<wgt id='morphing_basis_vector_2'> +2.5413604e-04 </wgt>
<wgt id='morphing_basis_vector_3'> +9.1767528e-05 </wgt>
<wgt id='morphing_basis_vector_4'> +4.3495992e-05 </wgt>
<wgt id='morphing_basis_vector_5'> +6.2056168e-06 </wgt>
</rwgt>
</event>
<event>
 4      1 +5.5534000e-05 3.36086400e+02 7.81860800e-03 9.86668400e-02
        2 -1    0    0  501    0 +0.0000000000e+00 +0.0000000000e+00 +3.7328439344e+02 3.7328439344e+02 0.0000000000e+00 0.0000e+00 1.0000e+00
       -2 -1    0    0    0  501 -0.0000000000e+00 -0.0000000000e+00 -7.5648788105e+01 7.5648788105e+01 0.0000000000e+00 0.0000e+00 -1.0000e+00
      -13  1    1    2    0    0 +6.1430187652e+01 +6.6110197466e+00 -5.9926081050e+01 8.6072694433e+01 0.0000000000e+00 0.0000e+00 -1.0000e+00
       13  1    1    2    0    0 -6.1430187652e+01 -6.6110197466e+00 +3.5756168638e+02 3.6286048711e+02 0.0000000000e+00 0.0000e+00 1.0000e+00
<mgrwt>
<rscale>  0 0.33608637E+03</rscale>
<asrwt>0</asrwt>
<pdfrwt beam="1">  1        2 0.57428368E-01 0.33608637E+03</pdfrwt>
<pdfrwt beam="2">  1       -2 0.11638275E-01 0.33608637E+03</pdfrwt>
<totfact> 0.48174629E+03</totfact>
</mgrwt>
<rwgt>
<wgt id='morphing_basis_vector_1'> +2.8558684e-04 </wgt>
<wgt id='morphing_basis_vector_2'> +1.5522883e-04 </wgt>
<wgt id='morphing_basis_vector_3'> +1.7140918e-04 </wgt>
<wgt id='morphing_basis_vector_4'> +2.9177019e-05 </wgt>
<wgt id='morphing_basis_vector_5'> +1.0958330e-05 </wgt>
</rwgt>
</event>
<event>
 4      1 +5.5534000e-05 3.09116100e+02 7.81860800e-03 9.97119600e-02
        2 -1    0    0  501    0 +0.0000000000e+00 +0.0000000000e+00 +9.8315867464e+01 9.8315867464e+01 0.0000000000e+00 0.0000e+00 -1.0000e+00
       -2 -1    0    0    0  501 -0.0000000000e+00 -0.0000000000e+00 -2.4297387949e+02 2.4297387949e+02 0.0000000000e+00 0.0000e+00 1.0000e+00
      -13  1    1    2    0    0 +6.1473700731e+01 +1.0458631325e+02 -1.7806114772e+02 2.1546017063e+02 0.0000000000e+00 0.0000e+00 1.0000e+00
       13  1    1    2    0    0 -6.1473700731e+01 -1.0458631325e+02 +3.3403135699e+01 1.2582957632e+02 0.0000000000e+00 0.0000e+00 -1.0000e+00
<mgrwt>
<rscale>  0 0.30911608E+03</rscale>
<asrwt>0</asrwt>
<pdfrwt beam="1">  1        2 0.15125518E-01 0.30911608E+03</pdfrwt>
<pdfrwt beam="2">  1       -2 0.37380597E-01 0.30911608E+03</pdfrwt>
<totfact> 0.31887493E+03</totfact>
</mgrwt>
<rwgt>
<wgt id='morphing_basis_vector_1'> +2.3740783e-04 </wgt>
<wgt id='morphing_basis_vector_2'> +1.3221042e-04 </wgt>
<wgt id='morphing_basis_vector_3'> +1.3929422e-04 </wgt>
<wgt id='morphing_basis_vector_4'> +2.3766431e-05 </wgt>
<wgt id='morphing_basis_vector_5'> +2.5851500e-06 </wgt>
</rwgt>
</event>
<event>
 4      1 +5.5534000e-05 3.45393900e+02 7.81860800e-03 9.83306100e-02
        2 -1    0    0  501    0 +0.0000000000e+00 +0.0000000000e+00 +3.4376262504e+02 3.4376262504e+02 0.0000000000e+00 0.0000e+00 -1.0000e+00
       -2 -1    0    0    0  501 -0.0000000000e+00 -0.0000000000e+00 -8.6758243800e+01 8.6758243800e+01 0.0000000000e+00 0.0000e+00 1.0000e+00
      -13  1    1    2    0    0 -4.6468570259e+01 +1.4839906045e+02 +3.4871033720e+01 1.5936623907e+02 0.0000000000e+00 0.0000e+00 1.0000e+00
       13  1    1    2    0    0 +4.6468570259e+01 -1.4839906045e+02 +2.2213334752e+02 2.7115462977e+02 0.0000000000e+00 0.0000e+00 -1.0000e+00
<mgrwt>
<rscale>  0 0.34539393E+03</rscale>
<asrwt>0</asrwt>
<pdfrwt beam="1">  1        2 0.52886557E-01 0.34539393E+03</pdfrwt>
<pdfrwt beam="2">  1       -2 0.13347422E-01 0.34539393E+03</pdfrwt>
<totfact> 0.42583290E+03</totfact>
</mgrwt>
<rwgt>
<wgt id='morphing_basis_vector_1'> +3.0592406e-04 </wgt>
<wgt id='morphing_basis_vector_2'> +1.6929166e-04 </wgt>
<wgt id='morphing_basis_vector_3'> +1.8226984e-04 </wgt>
<wgt id='morphing_basis_vector_4'> +3.2633790e-05 </wgt>
<wgt id='morphing_basis_vector_5'> +1.5559270e-05 </wgt>
</rwgt>
</event>
<event>
 4      1 +5.5534000e-05 3.48592000e+02 7.81860800e-03 9.82177200e-02
        2 -1    0    0  501    0 +0.0000000000e+00 +0.0000000000e+00 +4.4023781889e+01 4.4023781889e+01 0.0000000000e+00 0.0000e+00 1.0000e+00
       -2 -1    0    0    0  501 -0.0000000000e+00 -0.0000000000e+00 -6.9006106545e+02 6.9006106545e+02 0.0000000000e+00 0.0000e+00 -1.0000e+00
      -13  1    1    2    0    0 +7.8753902545e+01 -1.4854660494e+02 -4.1976956783e+02 4.5218885555e+02 0.0000000000e+00 0.0000e+00 -1.0000e+00
       13  1    1    2    0    0 -7.8753902545e+01 +1.4854660494e+02 -2.2626771573e+02 2.8189599179e+02 0.0000000000e+00 0.0000e+00 1.0000e+00
<mgrwt>
<rscale>  0 0.34859201E+03</rscale>
<asrwt>0</asrwt>
<pdfrwt beam="1">  1        2 0.67728899E-02 0.34859201E+03</pdfrwt>
<pdfrwt beam="2">  1       -2 0.10616324E+00 0.34859201E+03</pdfrwt>
<totfact> 0.10125998E+03</totfact>
</mgrwt>
<rwgt>
<wgt id='morphing_basis_vector_1'> +3.1449444e-04 </wgt>
<wgt id='morphing_basis_vector_2'> +1.7823616e-04 </wgt>
<wgt id='morphing_basis_vector_3'> +1.8464456e-04 </wgt>
<wgt id='morphing_basis_vector_4'> +3.4343996e-05 </wgt>
<wgt id='morphing_basis_vector_5'> +1.7435365e-05 </wgt>
</rwgt>
</event>
<event>
 4      1 +5.5534000e-05 3.50100700e+02 7.81860800e-03 9.81649100e-02
        2 -1    0    0  501    0 +0.0000000000e+00 +0.0000000000e+00 +3.7905716325e+02 3.7905716325e+02 0.0000000000e+00 0.0000e+00 -1.0000e+00
       -2 -1    0    0    0  501 -0.0000000000e+00 -0.0000000000e+00 -8.0839065895e+01 8.0839065895e+01 0.0000000000e+00 0.0000e+00 1.0000e+00
      -13  1    1    2    0    0 +1.6580033601e+02 -4.8823575851e+01 +1.1267831934e+02 2.0632473587e+02 0.0000000000e+00 0.0000e+00 1.0000e+00
       13  1    1    2    0    0 -1.6580033601e+02 +4.8823575851e+01 +1.8553977801e+02 2.5357149328e+02 0.0000000000e+00 0.0000e+00 -1.0000e+00
<mgrwt>
<rscale>  0 0.35010071E+03</rscale>
<asrwt>0</asrwt>
<pdfrwt beam="1">  1        2 0.58316485E-01 0.35010071E+03</pdfrwt>
<pdfrwt beam="2">  1       -2 0.12436780E-01 0.35010071E+03</pdfrwt>
<totfact> 0.42745708E+03</totfact>
</mgrwt>
<rwgt>
<wgt id='morphing_basis_vector_1'> +3.1955372e-04 </wgt>
<wgt id='morphing_basis_vector_2'> +1.8538434e-04 </wgt>
<wgt id='morphing_basis_vector_3'> +1.8464397e-04 </wgt>
<wgt id='morphing_basis_vector_4'> +3.5456478e-05 </wgt>
<wgt id='morphing_basis_vector_5'> +1.8420777e-05 </wgt>
</rwgt>
</event>
<event>
 4      1 +5.5534000e-05 3.10831400e+02 7.81860800e-03 9.96421200e-02
        2 -1    0    0  501    0 +0.0000000000e+00 +0.0000000000e+00 +3.1302789339e+02 3.1302789339e+02 0.0000000000e+00 0.0000e+00 1.0000e+00
       -2 -1    0    0    0  501 -0.0000000000e+00 -0.0000000000e+00 -7.7162581804e+01 7.7162581804e+01 0.0000000000e+00 0.0000e+00 -1.0000e+00
      -13  1    1    2    0    0 +7.7355427891e+01 -1.0760403321e+02 +1.6015907908e+01 1.3348782526e+02 0.0000000000e+00 0.0000e+00 -1.0000e+00
       13  1    1    2    0    0 -7.7355427891e+01 +1.0760403321e+02 +2.1984940368e+02 2.5670264994e+02 0.0000000000e+00 0.0000e+00 1.0000e+00
<mgrwt>
<rscale>  0 0.31083140E+03</rscale>
<asrwt>0</asrwt>
<pdfrwt beam="1">  1        2 0.48158137E-01 0.31083140E+03</pdfrwt>
<pdfrwt beam="2">  1       -2 0.11871167E-01 0.31083140E+03</pdfrwt>
<totfact> 0.56530851E+03</totfact>
</mgrwt>
<rwgt>
<wgt id='morphing_basis_vector_1'> +2.4057327e-04 </wgt>
<wgt id='morphing_basis_vector_2'> +1.3454282e-04 </wgt>
<wgt id='morphing_basis_vector_3'> +1.4061732e-04 </wgt>
<wgt id='morphing_basis_vector_4'> +2.4161814e-05 </wgt>
<wgt id='morphing_basis_vector_5'> +2.9455162e-06 </wgt>
</rwgt>
</event>
<event>
 4      1 +5.5534000e-05 3.01821800e+02 7.81860800e-03 1.00014400e-01
        2 -1    0    0  501    0 +0.0000000000e+00 +0.0000000000e+00 +5.0364621691e+01 5.0364621691e+01 0.0000000000e+00 0.0000e+00 -1.0000e+00
       -2 -1    0    0    0  501 -0.0000000000e+00 -0.0000000000e+00 -4.5218439532e+02 4.5218439532e+02 0.0000000000e+00 0.0000e+00 1.0000e+00
      -13  1    1    2    0    0 +1.2504617329e+02 -3.4152472423e+01 -3.2957392653e+02 3.5414955862e+02 0.0000000000e+00 0.0000e+00 1.0000e+00
       13  1    1    2    0    0 -1.2504617329e+02 +3.4152472423e+01 -7.2245847101e+01 1.4839945839e+02 0.0000000000e+00 0.0000e+00 -1.0000e+00
<mgrwt>
<rscale>  0 0.30182178E+03</rscale>
<asrwt>0</asrwt>
<pdfrwt beam="1">  1        2 0.77484030E-02 0.30182178E+03</pdfrwt>
<pdfrwt beam="2">  1       -2 0.69566833E-01 0.30182178E+03</pdfrwt>
<totfact> 0.22084419E+03</totfact>
</mgrwt>
<rwgt>
<wgt id='morphing_basis_vector_1'> +2.2600545e-04 </wgt>
<wgt id='morphing_basis_vector_2'> +1.2740161e-04 </wgt>
<wgt id='morphing_basis_vector_3'> +1.3155200e-04 </wgt>
<wgt id='morphing_basis_vector_4'> +2.3095798e-05 </wgt>
<wgt id='morphing_basis_vector_5'> +1.3845365e-06 </wgt>
</rwgt>
</event>
<event>
 4      1 +5.5534000e-05 3.59432200e+02 7.81860800e-03 9.78445800e-02
        2 -1    0    0  501    0 +0.0000000000e+00 +0.0000000000e+00 +4.9636967384e+02 4.9636967384e+02 0.0000000000e+00 0.0000e+00 -1.0000e+00
       -2 -1    0    0    0  501 -0.0000000000e+00 -0.0000000000e+00 -6.5068190380e+01 6.5068190380e+01 0.0000000000e+00 0.0000e+00 1.0000e+00
      -13  1    1    2    0    0 +1.4425124050e+02 -8.2159812108e+01 +1.0811862019e+02 1.9811181475e+02 0.0000000000e+00 0.0000e+00 1.0000e+00
       13  1    1    2    0    0 -1.4425124050e+02 +8.2159812108e+01 +3.2318286327e+02 3.6332604947e+02 0.0000000000e+00 0.0000e+00 -1.0000e+00
<mgrwt>
<rscale>  0 0.35943220E+03</rscale>
<asrwt>0</asrwt>
<pdfrwt beam="1">  1        2 0.76364563E-01 0.35943220E+03</pdfrwt>
<pdfrwt beam="2">  1       -2 0.10010491E-01 0.35943220E+03</pdfrwt>
<totfact> 0.44499147E+03</totfact>
</mgrwt>
<rwgt>
<wgt id='morphing_basis_vector_1'> +3.3714112e-04 </wgt>
<wgt id='morphing_basis_vector_2'> +1.8702889e-04 </wgt>
<wgt id='morphing_basis_vector_3'> +2.0283764e-04 </wgt>
<wgt id='morphing_basis_vector_4'> +3.8278974e-05 </wgt>
<wgt id='morphing_basis_vector_5'> +2.4184958e-05 </wgt>
</rwgt>
</event>
<event>
 4      1 +5.5534000e-05 3.11192400e+02 7.81860800e-03 9.96274800e-02
        2 -1    0    0  501    0 +0.0000000000e+00 +0.0000000000e+00 +6.2309687939e+02 6.2309687939e+02 0.0000000000e+00 0.0000e+00 -1.0000e+00
       -2 -1    0    0    0  501 -0.0000000000e+00 -0.0000000000e+00 -3.8854593959e+01 3.8854593959e+01 0.0000000000e+00 0.0000e+00 1.0000e+00
      -13  1    1    2    0    0 +1.1250730545e+02 -1.0265345707e+02 +2.2436729613e+02 2.7117579096e+02 0.0000000000e+00 0.0000e+00 1.0000e+00
       13  1    1    2    0    0 -1.1250730545e+02 +1.0265345707e+02 +3.5987498929e+02 3.9077568239e+02 0.0000000000e+00 0.0000e+00 -1.0000e+00
<mgrwt>
<rscale>  0 0.31119239E+03</rscale>
<asrwt>0</asrwt>
<pdfrwt beam="1">  1        2 0.95861051E-01 0.31119239E+03</pdfrwt>
<pdfrwt beam="2">  1       -2 0.59776303E-02 0.31119239E+03</pdfrwt>
<totfact> 0.75232633E+03</totfact>
</mgrwt>
<rwgt>
<wgt id='morphing_basis_vector_1'> +2.4360397e-04 </wgt>
<wgt id='morphing_basis_vector_2'> +1.4185438e-04 </wgt>
<wgt id='morphing_basis_vector_3'> +1.3754693e-04 </wgt>
<wgt id='morphing_basis_vector_4'> +2.5403467e-05 </wgt>
<wgt id='morphing_basis_vector_5'> +3.1301516e-06 </wgt>
</rwgt>
</event>
<event>
 4      1 +5.5534000e-05 3.29486700e+02 7.81860800e-03 9.89124900e-02
        2 -1    0    0  501    0 +0.0000000000e+00 +0.0000000000e+00 +2.7770431106e+02 2.7770431106e+02 0.0000000000e+00 0.0000e+00 -1.0000e+00
       -2 -1    0    0    0  501 -0.0000000000e+00 -0.0000000000e+00 -9.7731170053e+01 9.7731170053e+01 0.0000000000e+00 0.0000e+00 1.0000e+00
      -13  1    1    2    0    0 -1.1261209985e+02 +3.4505241175e+01 -4.1265032870e+01 1.2479943765e+02 0.0000000000e+00 0.0000e+00 1.0000e+00
       13  1    1    2    0    0 +1.1261209985e+02 -3.4505241175e+01 +2.2123817387e+02 2.5063604346e+02 0.0000000000e+00 0.0000e+00 -1.0000e+00
<mgrwt>
<rscale>  0 0.32948667E+03</rscale>
<asrwt>0</asrwt>
<pdfrwt beam="1">  1        2 0.42723740E-01 0.32948667E+03</pdfrwt>
<pdfrwt beam="2">  1       -2 0.15035565E-01 0.32948667E+03</pdfrwt>
<totfact> 0.44537342E+03</totfact>
</mgrwt>
<rwgt>
<wgt id='morphing_basis_vector_1'> +2.7316163e-04 </wgt>
<wgt id='morphing_basis_vector_2'> +1.4960999e-04 </wgt>
<wgt id='morphing_basis_vector_3'> +1.6262313e-04 </wgt>
<wgt id='morphing_basis_vector_4'> +2.7523435e-05 </wgt>
<wgt id='morphing_basis_vector_5'> +8.3045166e-06 </wgt>
</rwgt>
</event>
<event>
 4      1 +5.5534000e-05 3.41795800e+02 7.81860800e-03 9.84592100e-02
        2 -1    0    0  501    0 +0.0000000000e+00 +0.0000000000e+00 +4.8441495503e+02 4.8441495503e+02 0.0000000000e+00 0.0000e+00 -1.0000e+00
       -2 -1    0    0    0  501 -0.0000000000e+00 -0.0000000000e+00 -6.0291465566e+01 6.0291465566e+01 0.0000000000e+00 0.0000e+00 1.0000e+00
      -13  1    1    2    0    0 +1.0289394006e+02 +5.5971073356e+01 +1.3741189782e+01 1.1793533928e+02 0.0000000000e+00 0.0000e+00 1.0000e+00
       13  1    1    2    0    0 -1.0289394006e+02 -5.5971073356e+01 +4.1038229968e+02 4.2677108132e+02 0.0000000000e+00 0.0000e+00 -1.0000e+00
<mgrwt>
<rscale>  0 0.34179577E+03</rscale>
<asrwt>0</asrwt>
<pdfrwt beam="1">  1        2 0.74525375E-01 0.34179577E+03</pdfrwt>
<pdfrwt beam="2">  1       -2 0.92756104E-02 0.34179577E+03</pdfrwt>
<totfact> 0.51373576E+03</totfact>
</mgrwt>
<rwgt>
<wgt id='morphing_basis_vector_1'> +2.9723020e-04 </wgt>
<wgt id='morphing_basis_vector_2'> +1.6169248e-04 </wgt>
<wgt id='morphing_basis_vector_3'> +1.7882057e-04 </wgt>
<wgt id='morphing_basis_vector_4'> +3.1000755e-05 </wgt>
<wgt id='morphing_basis_vector_5'> +1.3630833e-05 </wgt>
</rwgt>
</event>
<event>
 4      1 +5.5534000e-05 3.11915800e+02 7.81860800e-03 9.95982100e-02
        2 -1    0    0  501    0 +0.0000000000e+00 +0.0000000000e+00 +1.0895718056e+03 1.0895718056e+03 0.0000000000e+00 0.0000e+00 -1.0000e+00
       -2 -1    0    0    0  501 -0.0000000000e+00 -0.0000000000e+00 -2.2323328217e+01 2.2323328217e+01 0.0000000000e+00 0.0000e+00 1.0000e+00
      -13  1    1    2    0    0 +1.4701701573e+02 +2.9090390448e+01 +3.7977759839e+02 4.0827843192e+02 0.0000000000e+00 0.0000e+00 1.0000e+00
       13  1    1    2    0    0 -1.4701701573e+02 -2.9090390448e+01 +6.8747087901e+02 7.0361670191e+02 0.0000000000e+00 0.0000e+00 -1.0000e+00
<mgrwt>
<rscale>  0 0.31191582E+03</rscale>
<asrwt>0</asrwt>
<pdfrwt beam="1">  1        2 0.16762639E+00 0.31191582E+03</pdfrwt>
<pdfrwt beam="2">  1       -2 0.34343590E-02 0.31191582E+03</pdfrwt>
<totfact> 0.84589156E+03</totfact>
</mgrwt>
<rwgt>
<wgt id='morphing_basis_vector_1'> +2.4401760e-04 </wgt>
<wgt id='morphing_basis_vector_2'> +1.4015204e-04 </wgt>
<wgt id='morphing_basis_vector_3'> +1.3944974e-04 </wgt>
<wgt id='morphing_basis_vector_4'> +2.5111884e-05 </wgt>
<wgt id='morphing_basis_vector_5'> +3.2505986e-06 </wgt>
</rwgt>
</event>
<event>
 4      1 +5.5534000e-05 3.16911400e+02 7.81860800e-03 9.93983600e-02
        2 -1    0    0  501    0 +0.0000000000e+00 +0.0000000000e+00 +4.6512595281e+02 4.6512595281e+02 0.0000000000e+00 0.0000e+00 -1.0000e+00
       -2 -1    0    0    0  501 -0.0000000000e+00 -0.0000000000e+00 -5.3981542093e+01 5.3981542093e+01 0.0000000000e+00 0.0000e+00 1.0000e+00
      -13  1    1    2    0    0 +1.0693065541e+02 +3.6387701781e+01 +2.3538163740e+01 1.1537883280e+02 0.0000000000e+00 0.0000e+00 1.0000e+00
       13  1    1    2    0    0 -1.0693065541e+02 -3.6387701781e+01 +3.8760624698e+02 4.0372866210e+02 0.0000000000e+00 0.0000e+00 -1.0000e+00
<mgrwt>
<rscale>  0 0.31691145E+03</rscale>
<asrwt>0</asrwt>
<pdfrwt beam="1">  1        2 0.71557836E-01 0.31691145E+03</pdfrwt>
<pdfrwt beam="2">  1       -2 0.83048529E-02 0.31691145E+03</pdfrwt>
<totfact> 0.63511600E+03</totfact>
</mgrwt>
<rwgt>
<wgt id='morphing_basis_vector_1'> +2.5041141e-04 </wgt>
<wgt id='morphing_basis_vector_2'> +1.3820782e-04 </wgt>
<wgt id='morphing_basis_vector_3'> +1.4787899e-04 </wgt>
<wgt id='morphing_basis_vector_4'> +2.4880534e-05 </wgt>
<wgt id='morphing_basis_vector_5'> +4.3436498e-06 </wgt>
</rwgt>
</event>
<event>
 4      1 +5.5534000e-05 3.47931500e+02 7.81860800e-03 9.82409200e-02
        2 -1    0    0  501    0 +0.0000000000e+00 +0.0000000000e+00 +3.2745409455e+02 3.2745409455e+02 0.0000000000e+00 0.0000e+00 1.0000e+00
       -2 -1    0    0    0  501 -0.0000000000e+00 -0.0000000000e+00 -9.2422391920e+01 9.2422391920e+01 0.0000000000e+00 0.0000e+00 -1.0000e+00
      -13  1    1    2    0    0 +1.3173629830e+02 +1.0424475081e+02 +6.2974375977e+01 1.7940789389e+02 0.0000000000e+00 0.0000e+00 -1.0000e+00
       13  1    1    2    0    0 -1.3173629830e+02 -1.0424475081e+02 +1.7205732665e+02 2.4046859258e+02 0.0000000000e+00 0.0000e+00 1.0000e+00
<mgrwt>
<rscale>  0 0.34793155E+03</rscale>
<asrwt>0</asrwt>
<pdfrwt beam="1">  1        2 0.50377553E-01 0.34793155E+03</pdfrwt>
<pdfrwt beam="2">  1       -2 0.14218830E-01 0.34793155E+03</pdfrwt>
<totfact> 0.40654524E+03</totfact>
</mgrwt>
<rwgt>
<wgt id='morphing_basis_vector_1'> +3.1312944e-04 </wgt>
<wgt id='morphing_basis_vector_2'> +1.7762043e-04 </wgt>
<wgt id='morphing_basis_vector_3'> +1.8362447e-04 </wgt>
<wgt id='morphing_basis_vector_4'> +3.4123403e-05 </wgt>
<wgt id='morphing_basis_vector_5'> +1.7064321e-05 </wgt>
</rwgt>
</event>
<event>
 4      1 +5.5534000e-05 3.47748800e+02 7.81860800e-03 9.82473500e-02
        2 -1    0    0  501    0 +0.0000000000e+00 +0.0000000000e+00 +8.1818285545e+02 8.1818285545e+02 0.0000000000e+00 0.0000e+00 1.0000e+00
       -2 -1    0    0    0  501 -0.0000000000e+00 -0.0000000000e+00 -3.6950553450e+01 3.6950553450e+01 0.0000000000e+00 0.0000e+00 -1.0000e+00
      -13  1    1    2    0    0 +1.3931956513e+02 +7.7701081131e+01 +5.6071646220e+02 5.8296685173e+02 0.0000000000e+00 0.0000e+00 -1.0000e+00
       13  1    1    2    0    0 -1.3931956513e+02 -7.7701081131e+01 +2.2051583980e+02 2.7216655717e+02 0.0000000000e+00 0.0000e+00 1.0000e+00
<mgrwt>
<rscale>  0 0.34774881E+03</rscale>
<asrwt>0</asrwt>
<pdfrwt beam="1">  1        2 0.12587427E+00 0.34774881E+03</pdfrwt>
<pdfrwt beam="2">  1       -2 0.56847012E-02 0.34774881E+03</pdfrwt>
<totfact> 0.58770751E+03</totfact>
</mgrwt>
<rwgt>
<wgt id='morphing_basis_vector_1'> +3.4586275e-04 </wgt>
<wgt id='morphing_basis_vector_2'> +2.7612470e-04 </wgt>
<wgt id='morphing_basis_vector_3'> +1.4238523e-04 </wgt>
<wgt id='morphing_basis_vector_4'> +4.4729058e-05 </wgt>
<wgt id='morphing_basis_vector_5'> +1.9011237e-05 </wgt>
</rwgt>
</event>
<event>
 4      1 +5.5534000e-05 3.01663700e+02 7.81860800e-03 1.00021100e-01
        2 -1    0    0  501    0 +0.0000000000e+00 +0.0000000000e+00 +1.6020852787e+02 1.6020852787e+02 0.0000000000e+00 0.0000e+00 -1.0000e+00
       -2 -1    0    0    0  501 -0.0000000000e+00 -0.0000000000e+00 -1.4200400159e+02 1.4200400159e+02 0.0000000000e+00 0.0000e+00 1.0000e+00
      -13  1    1    2    0    0 -5.2467769669e+01 +2.3254522761e+01 -1.3063845704e+02 1.4268863354e+02 0.0000000000e+00 0.0000e+00 1.0000e+00
       13  1    1    2    0    0 +5.2467769669e+01 -2.3254522761e+01 +1.4884298333e+02 1.5952389592e+02 0.0000000000e+00 0.0000e+00 -1.0000e+00
<mgrwt>
<rscale>  0 0.30166373E+03</rscale>
<asrwt>0</asrwt>
<pdfrwt beam="1">  1        2 0.24647466E-01 0.30166373E+03</pdfrwt>
<pdfrwt beam="2">  1       -2 0.21846770E-01 0.30166373E+03</pdfrwt>
<totfact> 0.45073601E+03</totfact>
</mgrwt>
<rwgt>
<wgt id='morphing_basis_vector_1'> +2.2505028e-04 </wgt>
<wgt id='morphing_basis_vector_2'> +1.2525946e-04 </wgt>
<wgt id='morphing_basis_vector_3'> +1.3243441e-04 </wgt>
<wgt id='morphing_basis_vector_4'> +2.2705820e-05 </wgt>
<wgt id='morphing_basis_vector_5'> +1.3362160e-06 </wgt>
</rwgt>
</event>
<event>
 4      1 +5.5534000e-05 3.25086200e+02 7.81860800e-03 9.90797900e-02
        2 -1    0    0  501    0 +0.0000000000e+00 +0.0000000000e+00 +1.6621489619e+02 1.6621489619e+02 0.0000000000e+00 0.0000e+00 1.0000e+00
       -2 -1    0    0    0  501 -0.0000000000e+00 -0.0000000000e+00 -1.5895239233e+02 1.5895239233e+02 0.0000000000e+00 0.0000e+00 -1.0000e+00
      -13  1    1    2    0    0 +5.8522324070e+01 -1.2658118155e+00 -1.4804361937e+02 1.5919603617e+02 0.0000000000e+00 0.0000e+00 -1.0000e+00
       13  1    1    2    0    0 -5.8522324070e+01 +1.2658118155e+00 +1.5530612324e+02 1.6597125236e+02 0.0000000000e+00 0.0000e+00 1.0000e+00
<mgrwt>
<rscale>  0 0.32508618E+03</rscale>
<asrwt>0</asrwt>
<pdfrwt beam="1">  1        2 0.25571523E-01 0.32508618E+03</pdfrwt>
<pdfrwt beam="2">  1       -2 0.24454214E-01 0.32508618E+03</pdfrwt>
<totfact> 0.35912901E+03</totfact>
</mgrwt>
<rwgt>
<wgt id='morphing_basis_vector_1'> +2.6473465e-04 </wgt>
<wgt id='morphing_basis_vector_2'> +1.4475286e-04 </wgt>
<wgt id='morphing_basis_vector_3'> +1.5761497e-04 </wgt>
<wgt id='morphing_basis_vector_4'> +2.6387671e-05 </wgt>
<wgt id='morphing_basis_vector_5'> +6.7419351e-06 </wgt>
</rwgt>
</event>
<event>
 4      1 +5.5534000e-05 3.14638700e+02 7.81860800e-03 9.94887900e-02
        2 -1    0    0  501    0 +0.0000000000e+00 +0.0000000000e+00 +2.8437472726e+02 2.8437472726e+02 0.0000000000e+00 0.0000e+00 1.0000e+00
       -2 -1    0    0    0  501 -0.0000000000e+00 -0.0000000000e+00 -8.7030869504e+01 8.7030869504e+01 0.0000000000e+00 0.0000e+00 -1.0000e+00
      -13  1    1    2    0    0 -1.2169632964e+01 -1.1597754318e+02 -2.5975478765e+01 1.1947223940e+02 0.0000000000e+00 0.0000e+00 -1.0000e+00
       13  1    1    2    0    0 +1.2169632964e+01 +1.1597754318e+02 +2.2331933652e+02 2.5193335737e+02 0.0000000000e+00 0.0000e+00 1.0000e+00
<mgrwt>
<rscale>  0 0.31463871E+03</rscale>
<asrwt>0</asrwt>
<pdfrwt beam="1">  1        2 0.43749958E-01 0.31463871E+03</pdfrwt>
<pdfrwt beam="2">  1       -2 0.13389365E-01 0.31463871E+03</pdfrwt>
<totfact> 0.52041554E+03</totfact>
</mgrwt>
<rwgt>
<wgt id='morphing_basis_vector_1'> +2.4655809e-04 </wgt>
<wgt id='morphing_basis_vector_2'> +1.3644311e-04 </wgt>
<wgt id='morphing_basis_vector_3'> +1.4530290e-04 </wgt>
<wgt id='morphing_basis_vector_4'> +2.4525708e-05 </wgt>
<wgt id='morphing_basis_vector_5'> +3.7793758e-06 </wgt>
</rwgt>
</event>
<event>
 4      1 +5.5534000e-05 3.12484800e+02 7.81860800e-03 9.95752500e-02
        2 -1    0    0  501    0 +0.0000000000e+00 +0.0000000000e+00 +1.1663201575e+02 1.1663201575e+02 0.0000000000e+00 0.0000e+00 -1.0000e+00
       -2 -1    0    0    0  501 -0.0000000000e+00 -0.0000000000e+00 -2.0930519169e+02 2.0930519169e+02 0.0000000000e+00 0.0000e+00 1.0000e+00
      -13  1    1    2    0    0 +4.9812775737e+01 -1.4344108504e+02 -7.9411758162e+00 1.5205170100e+02 0.0000000000e+00 0.0000e+00 1.0000e+00
       13  1    1    2    0    0 -4.9812775737e+01 +1.4344108504e+02 -8.4732000118e+01 1.7388550644e+02 0.0000000000e+00 0.0000e+00 -1.0000e+00
<mgrwt>
<rscale>  0 0.31248479E+03</rscale>
<asrwt>0</asrwt>
<pdfrwt beam="1">  1        2 0.17943387E-01 0.31248479E+03</pdfrwt>
<pdfrwt beam="2">  1       -2 0.32200799E-01 0.31248479E+03</pdfrwt>
<totfact> 0.33865243E+03</totfact>
</mgrwt>
<rwgt>
<wgt id='morphing_basis_vector_1'> +2.5878580e-04 </wgt>
<wgt id='morphing_basis_vector_2'> +1.8057564e-04 </wgt>
<wgt id='morphing_basis_vector_3'> +1.2052006e-04 </wgt>
<wgt id='morphing_basis_vector_4'> +3.1886354e-05 </wgt>
<wgt id='morphing_basis_vector_5'> +4.0069882e-06 </wgt>
</rwgt>
</event>
<event>
 4      1 +5.5534000e-05 3.13415100e+02 7.81860800e-03 9.95378200e-02
        2 -1    0    0  501    0 +0.0000000000e+00 +0.0000000000e+00 +1.2299790206e+02 1.2299790206e+02 0.0000000000e+00 0.0000e+00 -1.0000e+00
       -2 -1    0    0    0  501 -0.0000000000e+00 -0.0000000000e+00 -1.9965593056e+02 1.9965593056e+02 0.0000000000e+00 0.0000e+00 1.0000e+00
      -13  1    1    2    0    0 +6.7842535336e+00 -1.4189764441e+02 -1.0643261415e+02 1.7750737714e+02 0.0000000000e+00 0.0000e+00 1.0000e+00
       13  1    1    2    0    0 -6.7842535336e+00 +1.4189764441e+02 +2.9774585654e+01 1.4514645548e+02 0.0000000000e+00 0.0000e+00 -1.0000e+00
<mgrwt>
<rscale>  0 0.31341513E+03</rscale>
<asrwt>0</asrwt>
<pdfrwt beam="1">  1        2 0.18922754E-01 0.31341513E+03</pdfrwt>
<pdfrwt beam="2">  1       -2 0.30716296E-01 0.31341513E+03</pdfrwt>
<totfact> 0.34526619E+03</totfact>
</mgrwt>
<rwgt>
<wgt id='morphing_basis_vector_1'> +2.4542739e-04 </wgt>
<wgt id='morphing_basis_vector_2'> +1.3816939e-04 </wgt>
<wgt id='morphing_basis_vector_3'> +1.4264002e-04 </wgt>
<wgt id='morphing_basis_vector_4'> +2.4788530e-05 </wgt>
<wgt id='morphing_basis_vector_5'> +3.5360750e-06 </wgt>
</rwgt>
</event>
<event>
 4      1 +5.5534000e-05 3.58359900e+02 7.81860800e-03 9.78808600e-02
        2 -1    0    0  501    0 +0.0000000000e+00 +0.0000000000e+00 +3.3370422449e+01 3.3370422449e+01 0.0000000000e+00 0.0000e+00 -1.0000e+00
       -2 -1    0    0    0  501 -0.0000000000e+00 -0.0000000000e+00 -9.6209325049e+02 9.6209325049e+02 0.0000000000e+00 0.0000e+00 1.0000e+00
      -13  1    1    2    0    0 -1.3851404360e+02 +9.8697034604e+01 -6.2096348601e+02 6.4383452523e+02 0.0000000000e+00 0.0000e+00 1.0000e+00
       13  1    1    2    0    0 +1.3851404360e+02 -9.8697034604e+01 -3.0775934203e+02 3.5162914771e+02 0.0000000000e+00 0.0000e+00 -1.0000e+00
<mgrwt>
<rscale>  0 0.35835992E+03</rscale>
<asrwt>0</asrwt>
<pdfrwt beam="1">  1        2 0.51339116E-02 0.35835992E+03</pdfrwt>
<pdfrwt beam="2">  1       -2 0.14801433E+00 0.35835992E+03</pdfrwt>
<totfact> 0.61400646E+02</totfact>
</mgrwt>
<rwgt>
<wgt id='morphing_basis_vector_1'> +3.3546170e-04 </wgt>
<wgt id='morphing_basis_vector_2'> +1.8801641e-04 </wgt>
<wgt id='morphing_basis_vector_3'> +2.0023117e-04 </wgt>
<wgt id='morphing_basis_vector_4'> +3.8017175e-05 </wgt>
<wgt id='morphing_basis_vector_5'> +2.3497850e-05 </wgt>
</rwgt>
</event>
<event>
 4      1 +5.5534000e-05 3.03691200e+02 7.81860800e-03 9.99360400e-02
        2 -1    0    0  501    0 +0.0000000000e+00 +0.0000000000e+00 +1.6885517364e+02 1.6885517364e+02 0.0000000000e+00 0.0000e+00 -1.0000e+00
       -2 -1    0    0    0  501 -0.0000000000e+00 -0.0000000000e+00 -1.3654945047e+02 1.3654945047e+02 0.0000000000e+00 0.0000e+00 1.0000e+00
      -13  1    1    2    0    0 -1.0565742222e+02 -8.2304133811e+01 -5.5802358506e+01 1.4509088368e+02 0.0000000000e+00 0.0000e+00 1.0000e+00
       13  1    1    2    0    0 +1.0565742222e+02 +8.2304133811e+01 +8.8108081682e+01 1.6031374043e+02 0.0000000000e+00 0.0000e+00 -1.0000e+00
<mgrwt>
<rscale>  0 0.30369117E+03</rscale>
<asrwt>0</asrwt>
<pdfrwt beam="1">  1        2 0.25977719E-01 0.30369117E+03</pdfrwt>
<pdfrwt beam="2">  1       -2 0.21007608E-01 0.30369117E+03</pdfrwt>
<totfact> 0.45267629E+03</totfact>
</mgrwt>
<rwgt>
<wgt id='morphing_basis_vector_1'> +2.2913799e-04 </wgt>
<wgt id='morphing_basis_vector_2'> +1.2936246e-04 </wgt>
<wgt id='morphing_basis_vector_3'> +1.3310503e-04 </wgt>
<wgt id='morphing_basis_vector_4'> +2.3379485e-05 </wgt>
<wgt id='morphing_basis_vector_5'> +1.6639469e-06 </wgt>
</rwgt>
</event>
<event>
 4      1 +5.5534000e-05 3.53885700e+02 7.81860800e-03 9.80337000e-02
        2 -1    0    0  501    0 +0.0000000000e+00 +0.0000000000e+00 +7.9316394408e+02 7.9316394408e+02 0.0000000000e+00 0.0000e+00 -1.0000e+00
       -2 -1    0    0    0  501 -0.0000000000e+00 -0.0000000000e+00 -3.9473269378e+01 3.9473269378e+01 0.0000000000e+00 0.0000e+00 1.0000e+00
      -13  1    1    2    0    0 -1.4345657861e+02 -9.7092474023e+01 +4.6174465786e+02 4.9316819394e+02 0.0000000000e+00 0.0000e+00 1.0000e+00
       13  1    1    2    0    0 +1.4345657861e+02 +9.7092474023e+01 +2.9194601684e+02 3.3946901951e+02 0.0000000000e+00 0.0000e+00 -1.0000e+00
<mgrwt>
<rscale>  0 0.35388571E+03</rscale>
<asrwt>0</asrwt>
<pdfrwt beam="1">  1        2 0.12202521E+00 0.35388571E+03</pdfrwt>
<pdfrwt beam="2">  1       -2 0.60728113E-02 0.35388571E+03</pdfrwt>
<totfact> 0.55323197E+03</totfact>
</mgrwt>
<rwgt>
<wgt id='morphing_basis_vector_1'> +3.4265771e-04 </wgt>
<wgt id='morphing_basis_vector_2'> +2.3419144e-04 </wgt>
<wgt id='morphing_basis_vector_3'> +1.7252909e-04 </wgt>
<wgt id='morphing_basis_vector_4'> +4.1202311e-05 </wgt>
<wgt id='morphing_basis_vector_5'> +2.1661067e-05 </wgt>
</rwgt>
</event>
<event>
 4      1 +5.5534000e-05 3.20801700e+02 7.81860800e-03 9.92454700e-02
        2 -1    0    0  501    0 +0.0000000000e+00 +0.0000000000e+00 +5.5842538300e+02 5.5842538300e+02 0.0000000000e+00 0.0000e+00 1.0000e+00
       -2 -1    0    0    0  501 -0.0000000000e+00 -0.0000000000e+00 -4.6073183780e+01 4.6073183780e+01 0.0000000000e+00 0.0000e+00 -1.0000e+00
      -13  1    1    2    0    0 +9.1349676048e+01 -6.5202490484e+01 +4.0238082313e+01 1.1922764506e+02 0.0000000000e+00 0.0000e+00 -1.0000e+00
       13  1    1    2    0    0 -9.1349676048e+01 +6.5202490484e+01 +4.7211411691e+02 4.8527092172e+02 0.0000000000e+00 0.0000e+00 1.0000e+00
<mgrwt>
<rscale>  0 0.32080172E+03</rscale>
<asrwt>0</asrwt>
<pdfrwt beam="1">  1        2 0.85911593E-01 0.32080172E+03</pdfrwt>
<pdfrwt beam="2">  1       -2 0.70881825E-02 0.32080172E+03</pdfrwt>
<totfact> 0.65951162E+03</totfact>
</mgrwt>
<rwgt>
<wgt id='morphing_basis_vector_1'> +2.5722405e-04 </wgt>
<wgt id='morphing_basis_vector_2'> +1.4153934e-04 </wgt>
<wgt id='morphing_basis_vector_3'> +1.5229891e-04 </wgt>
<wgt id='morphing_basis_vector_4'> +2.5591068e-05 </wgt>
<wgt id='morphing_basis_vector_5'> +5.4162275e-06 </wgt>
</rwgt>
</event>
<event>
 4      1 +5.5534000e-05 3.20637400e+02 7.81860800e-03 9.92518800e-02
        2 -1    0    0  501    0 +0.0000000000e+00 +0.0000000000e+00 +3.7913071260e+02 3.7913071260e+02 0.0000000000e+00 0.0000e+00 -1.0000e+00
       -2 -1    0    0    0  501 -0.0000000000e+00 -0.0000000000e+00 -6.7792147241e+01 6.7792147241e+01 0.0000000000e+00 0.0000e+00 1.0000e+00
      -13  1    1    2    0    0 +5.9215344606e+01 +1.2046599802e+02 +3.3489327942e+01 1.3834756522e+02 0.0000000000e+00 0.0000e+00 1.0000e+00
       13  1    1    2    0    0 -5.9215344606e+01 -1.2046599802e+02 +2.7784923741e+02 3.0857529462e+02 0.0000000000e+00 0.0000e+00 -1.0000e+00
<mgrwt>
<rscale>  0 0.32063740E+03</rscale>
<asrwt>0</asrwt>
<pdfrwt beam="1">  1        2 0.58327801E-01 0.32063740E+03</pdfrwt>
<pdfrwt beam="2">  1       -2 0.10429561E-01 0.32063740E+03</pdfrwt>
<totfact> 0.56054759E+03</totfact>
</mgrwt>
<rwgt>
<wgt id='morphing_basis_vector_1'> +2.5740057e-04 </wgt>
<wgt id='morphing_basis_vector_2'> +1.4276072e-04 </wgt>
<wgt id='morphing_basis_vector_3'> +1.5146525e-04 </wgt>
<wgt id='morphing_basis_vector_4'> +2.5769384e-05 </wgt>
<wgt id='morphing_basis_vector_5'> +5.3919841e-06 </wgt>
</rwgt>
</event>
<event>
 4      1 +5.5534000e-05 3.32407400e+02 7.81860800e-03 9.88030200e-02
        2 -1    0    0  501    0 +0.0000000000e+00 +0.0000000000e+00 +5.9378881507e+01 5.9378881507e+01 0.0000000000e+00 0.0000e+00 1.0000e+00
       -2 -1    0    0    0  501 -0.0000000000e+00 -0.0000000000e+00 -4.6521023025e+02 4.6521023025e+02 0.0000000000e+00 0.0000e+00 -1.0000e+00
      -13  1    1    2    0    0 -1.4492695355e+02 +4.0972969312e-01 -3.3131623594e+02 3.6162748505e+02 0.0000000000e+00 0.0000e+00 -1.0000e+00
       13  1    1    2    0    0 +1.4492695355e+02 -4.0972969312e-01 -7.4515112806e+01 1.6296162671e+02 0.0000000000e+00 0.0000e+00 1.0000e+00
<mgrwt>
<rscale>  0 0.33240736E+03</rscale>
<asrwt>0</asrwt>
<pdfrwt beam="1">  1        2 0.91352127E-02 0.33240736E+03</pdfrwt>
<pdfrwt beam="2">  1       -2 0.71570803E-01 0.33240736E+03</pdfrwt>
<totfact> 0.16889881E+03</totfact>
</mgrwt>
<rwgt>
<wgt id='morphing_basis_vector_1'> +2.7947854e-04 </wgt>
<wgt id='morphing_basis_vector_2'> +1.5466431e-04 </wgt>
<wgt id='morphing_basis_vector_3'> +1.6528798e-04 </wgt>
<wgt id='morphing_basis_vector_4'> +2.8569796e-05 </wgt>
<wgt id='morphing_basis_vector_5'> +9.4768960e-06 </wgt>
</rwgt>
</event>
<event>
 4      1 +5.5534000e-05 3.05543300e+02 7.81860800e-03 9.98589800e-02
        2 -1    0    0  501    0 +0.0000000000e+00 +0.0000000000e+00 +1.2896935093e+02 1.2896935093e+02 0.0000000000e+00 0.0000e+00 -1.0000e+00
       -2 -1    0    0    0  501 -0.0000000000e+00 -0.0000000000e+00 -1.8096690416e+02 1.8096690416e+02 0.0000000000e+00 0.0000e+00 1.0000e+00
      -13  1    1    2    0    0 -2.3717261978e+01 -3.5044498443e+01 -1.7490356525e+02 1.7994966664e+02 0.0000000000e+00 0.0000e+00 1.0000e+00
       13  1    1    2    0    0 +2.3717261978e+01 +3.5044498443e+01 +1.2290601202e+02 1.2998658845e+02 0.0000000000e+00 0.0000e+00 -1.0000e+00
<mgrwt>
<rscale>  0 0.30554335E+03</rscale>
<asrwt>0</asrwt>
<pdfrwt beam="1">  1        2 0.19841439E-01 0.30554335E+03</pdfrwt>
<pdfrwt beam="2">  1       -2 0.27841062E-01 0.30554335E+03</pdfrwt>
<totfact> 0.38638514E+03</totfact>
</mgrwt>
<rwgt>
<wgt id='morphing_basis_vector_1'> +2.3119479e-04 </wgt>
<wgt id='morphing_basis_vector_2'> +1.2821801e-04 </wgt>
<wgt id='morphing_basis_vector_3'> +1.3624597e-04 </wgt>
<wgt id='morphing_basis_vector_4'> +2.3117252e-05 </wgt>
<wgt id='morphing_basis_vector_5'> +1.9235307e-06 </wgt>
</rwgt>
</event>
<event>
 4      1 +5.5534000e-05 3.59202700e+02 7.81860800e-03 9.78523400e-02
        2 -1    0    0  501    0 +0.0000000000e+00 +0.0000000000e+00 +1.0092377260e+02 1.0092377260e+02 0.0000000000e+00 0.0000e+00 -1.0000e+00
       -2 -1    0    0    0  501 -0.0000000000e+00 -0.0000000000e+00 -3.1961387660e+02 3.1961387660e+02 0.0000000000e+00 0.0000e+00 1.0000e+00
      -13  1    1    2    0    0 +6.2683304160e+01 +8.4659492208e+01 -2.7964924563e+02 2.9883126815e+02 0.0000000000e+00 0.0000e+00 1.0000e+00
       13  1    1    2    0    0 -6.2683304160e+01 -8.4659492208e+01 +6.0959141632e+01 1.2170638106e+02 0.0000000000e+00 0.0000e+00 -1.0000e+00
<mgrwt>
<rscale>  0 0.35920266E+03</rscale>
<asrwt>0</asrwt>
<pdfrwt beam="1">  1        2 0.15526734E-01 0.35920266E+03</pdfrwt>
<pdfrwt beam="2">  1       -2 0.49171366E-01 0.35920266E+03</pdfrwt>
<totfact> 0.18632566E+03</totfact>
</mgrwt>
<rwgt>
<wgt id='morphing_basis_vector_1'> +3.3457001e-04 </wgt>
<wgt id='morphing_basis_vector_2'> +1.8060555e-04 </wgt>
<wgt id='morphing_basis_vector_3'> +2.0487549e-04 </wgt>
<wgt id='morphing_basis_vector_4'> +3.7633193e-05 </wgt>
<wgt id='morphing_basis_vector_5'> +2.3894522e-05 </wgt>
</rwgt>
</event>
<event>
 4      1 +5.5534000e-05 3.46252600e+02 7.81860800e-03 9.83001700e-02
        2 -1    0    0  501    0 +0.0000000000e+00 +0.0000000000e+00 +1.9830801890e+01 1.9830801890e+01 0.0000000000e+00 0.0000e+00 -1.0000e+00
       -2 -1    0    0    0  501 -0.0000000000e+00 -0.0000000000e+00 -1.5114223718e+03 1.5114223718e+03 0.0000000000e+00 0.0000e+00 1.0000e+00
      -13  1    1    2    0    0 +1.7083568105e+02 +2.5417811765e+01 -6.9313023877e+02 7.1432515214e+02 0.0000000000e+00 0.0000e+00 1.0000e+00
       13  1    1    2    0    0 -1.7083568105e+02 -2.5417811765e+01 -7.9846133118e+02 8.1692802160e+02 0.0000000000e+00 0.0000e+00 -1.0000e+00
<mgrwt>
<rscale>  0 0.34625261E+03</rscale>
<asrwt>0</asrwt>
<pdfrwt beam="1">  1        2 0.30508927E-02 0.34625261E+03</pdfrwt>
<pdfrwt beam="2">  1       -2 0.23252651E+00 0.34625261E+03</pdfrwt>
<totfact> 0.29534575E+02</totfact>
</mgrwt>
<rwgt>
<wgt id='morphing_basis_vector_1'> +3.1797287e-04 </wgt>
<wgt id='morphing_basis_vector_2'> +2.0074299e-04 </wgt>
<wgt id='morphing_basis_vector_3'> +1.7073614e-04 </wgt>
<wgt id='morphing_basis_vector_4'> +3.6306732e-05 </wgt>
<wgt id='morphing_basis_vector_5'> +1.6651776e-05 </wgt>
</rwgt>
</event>
<event>
 4      1 +5.5534000e-05 3.23931400e+02 7.81860800e-03 9.91241700e-02
        2 -1    0    0  501    0 +0.0000000000e+00 +0.0000000000e+00 +1.5210838153e+02 1.5210838153e+02 0.0000000000e+00 0.0000e+00 -1.0000e+00
       -2 -1    0    0    0  501 -0.0000000000e+00 -0.0000000000e+00 -1.7246183045e+02 1.7246183045e+02 0.0000000000e+00 0.0000e+00 1.0000e+00
      -13  1    1    2    0    0 +7.7791534187e+01 +1.1776456485e+01 -1.5202808813e+02 1.7118045244e+02 0.0000000000e+00 0.0000e+00 1.0000e+00
       13  1    1    2    0    0 -7.7791534187e+01 -1.1776456485e+01 +1.3167463921e+02 1.5338975953e+02 0.0000000000e+00 0.0000e+00 -1.0000e+00
<mgrwt>
<rscale>  0 0.32393141E+03</rscale>
<asrwt>0</asrwt>
<pdfrwt beam="1">  1        2 0.23401290E-01 0.32393141E+03</pdfrwt>
<pdfrwt beam="2">  1       -2 0.26532589E-01 0.32393141E+03</pdfrwt>
<totfact> 0.34662452E+03</totfact>
</mgrwt>
<rwgt>
<wgt id='morphing_basis_vector_1'> +2.6265849e-04 </wgt>
<wgt id='morphing_basis_vector_2'> +1.4378524e-04 </wgt>
<wgt id='morphing_basis_vector_3'> +1.5620550e-04 </wgt>
<wgt id='morphing_basis_vector_4'> +2.6148598e-05 </wgt>
<wgt id='morphing_basis_vector_5'> +6.3668094e-06 </wgt>
</rwgt>
</event>
<event>
 4      1 +5.5534000e-05 3.52515100e+02 7.81860800e-03 9.80810100e-02
        2 -1    0    0  501    0 +0.0000000000e+00 +0.0000000000e+00 +2.3830916845e+02 2.3830916845e+02 0.0000000000e+00 0.0000e+00 -1.0000e+00
       -2 -1    0    0    0  501 -0.0000000000e+00 -0.0000000000e+00 -1.3036311632e+02 1.3036311632e+02 0.0000000000e+00 0.0000e+00 1.0000e+00
      -13  1    1    2    0    0 -1.0941230245e+02 -1.3803073624e+02 +4.7099917399e+01 1.8232371840e+02 0.0000000000e+00 0.0000e+00 1.0000e+00
       13  1    1    2    0    0 +1.0941230245e+02 +1.3803073624e+02 +6.0846134733e+01 1.8634856636e+02 0.0000000000e+00 0.0000e+00 -1.0000e+00
<mgrwt>
<rscale>  0 0.35251511E+03</rscale>
<asrwt>0</asrwt>
<pdfrwt beam="1">  1        2 0.36662949E-01 0.35251511E+03</pdfrwt>
<pdfrwt beam="2">  1       -2 0.20055864E-01 0.35251511E+03</pdfrwt>
<totfact> 0.33238170E+03</totfact>
</mgrwt>
<rwgt>
<wgt id='morphing_basis_vector_1'> +3.2797497e-04 </wgt>
<wgt id='morphing_basis_vector_2'> +1.9766433e-04 </wgt>
<wgt id='morphing_basis_vector_3'> +1.8444817e-04 </wgt>
<wgt id='morphing_basis_vector_4'> +3.7291777e-05 </wgt>
<wgt id='morphing_basis_vector_5'> +2.0069479e-05 </wgt>
</rwgt>
</event>
<event>
 4      1 +5.5534000e-05 3.18579000e+02 7.81860800e-03 9.93325300e-02
        2 -1    0    0  501    0 +0.0000000000e+00 +0.0000000000e+00 +7.2897578950e+01 7.2897578950e+01 0.0000000000e+00 0.0000e+00 -1.0000e+00
       -2 -1    0    0    0  501 -0.0000000000e+00 -0.0000000000e+00 -3.4806574912e+02 3.4806574912e+02 0.0000000000e+00 0.0000e+00 1.0000e+00
      -13  1    1    2    0    0 +5.3250927044e+01 +4.2000686165e+01 -3.2803417988e+02 3.3497185261e+02 0.0000000000e+00 0.0000e+00 1.0000e+00
       13  1    1    2    0    0 -5.3250927044e+01 -4.2000686165e+01 +5.2866009711e+01 8.5991475462e+01 0.0000000000e+00 0.0000e+00 -1.0000e+00
<mgrwt>
<rscale>  0 0.31857904E+03</rscale>
<asrwt>0</asrwt>
<pdfrwt beam="1">  1        2 0.11215012E-01 0.31857904E+03</pdfrwt>
<pdfrwt beam="2">  1       -2 0.53548577E-01 0.31857904E+03</pdfrwt>
<totfact> 0.23498365E+03</totfact>
</mgrwt>
<rwgt>
<wgt id='morphing_basis_vector_1'> +2.5309473e-04 </wgt>
<wgt id='morphing_basis_vector_2'> +1.3899596e-04 </wgt>
<wgt id='morphing_basis_vector_3'> +1.5005342e-04 </wgt>
<wgt id='morphing_basis_vector_4'> +2.5076128e-05 </wgt>
<wgt id='morphing_basis_vector_5'> +4.7766426e-06 </wgt>
</rwgt>
</event>
<event>
 4      1 +5.5534000e-05 3.13364300e+02 7.81860800e-03 9.95398600e-02
        2 -1    0    0  501    0 +0.0000000000e+00 +0.0000000000e+00 +2.3845986843e+02 2.3845986843e+02 0.0000000000e+00 0.0000e+00 -1.0000e+00
       -2 -1    0    0    0  501 -0.0000000000e+00 -0.0000000000e+00 -1.0294936995e+02 1.0294936995e+02 0.0000000000e+00 0.0000e+00 1.0000e+00
      -13  1    1    2    0    0 -1.2625589626e+01 -4.0410028763e+01 -9.6599588499e+01 1.0546969440e+02 0.0000000000e+00 0.0000e+00 1.0000e+00
       13  1    1    2    0    0 +1.2625589626e+01 +4.0410028763e+01 +2.3211008698e+02 2.3593954398e+02 0.0000000000e+00 0.0000e+00 -1.0000e+00
<mgrwt>
<rscale>  0 0.31336428E+03</rscale>
<asrwt>0</asrwt>
<pdfrwt beam="1">  1        2 0.36686133E-01 0.31336428E+03</pdfrwt>
<pdfrwt beam="2">  1       -2 0.15838365E-01 0.31336428E+03</pdfrwt>
<totfact> 0.48481933E+03</totfact>
</mgrwt>
<rwgt>
<wgt id='morphing_basis_vector_1'> +2.4409516e-04 </wgt>
<wgt id='morphing_basis_vector_2'> +1.3451930e-04 </wgt>
<wgt id='morphing_basis_vector_3'> +1.4434295e-04 </wgt>
<wgt id='morphing_basis_vector_4'> +2.4181580e-05 </wgt>
<wgt id='morphing_basis_vector_5'> +3.4667456e-06 </wgt>
</rwgt>
</event>
<event>
 4      1 +5.5534000e-05 3.14789500e+02 7.81860800e-03 9.94827700e-02
        2 -1    0    0  501    0 +0.0000000000e+00 +0.0000000000e+00 +2.5642873811e+02 2.5642873811e+02 0.0000000000e+00 0.0000e+00 -1.0000e+00
       -2 -1    0    0    0  501 -0.0000000000e+00 -0.0000000000e+00 -9.6608150589e+01 9.6608150589e+01 0.0000000000e+00 0.0000e+00 1.0000e+00
      -13  1    1    2    0    0 +1.1498837373e+02 -5.8892250901e+01 +1.8073622809e+02 2.2216256987e+02 0.0000000000e+00 0.0000e+00 1.0000e+00
       13  1    1    2    0    0 -1.1498837373e+02 +5.8892250901e+01 -2.0915640563e+01 1.3087431883e+02 0.0000000000e+00 0.0000e+00 -1.0000e+00
<mgrwt>
<rscale>  0 0.31478949E+03</rscale>
<asrwt>0</asrwt>
<pdfrwt beam="1">  1        2 0.39450575E-01 0.31478949E+03</pdfrwt>
<pdfrwt beam="2">  1       -2 0.14862792E-01 0.31478949E+03</pdfrwt>
<totfact> 0.49476125E+03</totfact>
</mgrwt>
<rwgt>
<wgt id='morphing_basis_vector_1'> +2.9420552e-04 </wgt>
<wgt id='morphing_basis_vector_2'> +2.7396729e-04 </wgt>
<wgt id='morphing_basis_vector_3'> +7.8931760e-05 </wgt>
<wgt id='morphing_basis_vector_4'> +4.7047698e-05 </wgt>
<wgt id='morphing_basis_vector_5'> +6.0516114e-06 </wgt>
</rwgt>
</event>
<event>
 4      1 +5.5534000e-05 3.49787200e+02 7.81860800e-03 9.81758600e-02
        2 -1    0    0  501    0 +0.0000000000e+00 +0.0000000000e+00 +2.5403209578e+02 2.5403209578e+02 0.0000000000e+00 0.0000e+00 1.0000e+00
       -2 -1    0    0    0  501 -0.0000000000e+00 -0.0000000000e+00 -1.2040905995e+02 1.2040905995e+02 0.0000000000e+00 0.0000e+00 -1.0000e+00
      -13  1    1    2    0    0 -1.1055549126e+02 -1.6153842670e+01 +2.1084736878e+02 2.3862119814e+02 0.0000000000e+00 0.0000e+00 1.0000e+00
       13  1    1    2    0    0 +1.1055549126e+02 +1.6153842670e+01 -7.7224332948e+01 1.3581995759e+02 0.0000000000e+00 0.0000e+00 -1.0000e+00
<mgrwt>
<rscale>  0 0.34978717E+03</rscale>
<asrwt>0</asrwt>
<pdfrwt beam="1">  1        2 0.39081861E-01 0.34978717E+03</pdfrwt>
<pdfrwt beam="2">  1       -2 0.18524471E-01 0.34978717E+03</pdfrwt>
<totfact> 0.35226033E+03</totfact>
</mgrwt>
<rwgt>
<wgt id='morphing_basis_vector_1'> +4.0790946e-04 </wgt>
<wgt id='morphing_basis_vector_2'> +4.5071446e-04 </wgt>
<wgt id='morphing_basis_vector_3'> +7.5018971e-05 </wgt>
<wgt id='morphing_basis_vector_4'> +6.3145073e-05 </wgt>
<wgt id='morphing_basis_vector_5'> +2.3793272e-05 </wgt>
</rwgt>
</event>
<event>
 4      1 +5.5534000e-05 3.09193500e+02 7.81860800e-03 9.97088000e-02
        2 -1    0    0  501    0 +0.0000000000e+00 +0.0000000000e+00 +2.1983992715e+02 2.1983992715e+02 0.0000000000e+00 0.0000e+00 -1.0000e+00
       -2 -1    0    0    0  501 -0.0000000000e+00 -0.0000000000e+00 -1.0871614239e+02 1.0871614239e+02 0.0000000000e+00 0.0000e+00 1.0000e+00
      -13  1    1    2    0    0 +7.2891277756e+01 -2.0679918933e+00 -8.9293277471e+01 1.1528531721e+02 0.0000000000e+00 0.0000e+00 1.0000e+00
       13  1    1    2    0    0 -7.2891277756e+01 +2.0679918933e+00 +2.0041706223e+02 2.1327075232e+02 0.0000000000e+00 0.0000e+00 -1.0000e+00
<mgrwt>
<rscale>  0 0.30919346E+03</rscale>
<asrwt>0</asrwt>
<pdfrwt beam="1">  1        2 0.33821527E-01 0.30919346E+03</pdfrwt>
<pdfrwt beam="2">  1       -2 0.16725560E-01 0.30919346E+03</pdfrwt>
<totfact> 0.48636707E+03</totfact>
</mgrwt>
<rwgt>
<wgt id='morphing_basis_vector_1'> +2.3715803e-04 </wgt>
<wgt id='morphing_basis_vector_2'> +1.3118561e-04 </wgt>
<wgt id='morphing_basis_vector_3'> +1.3991345e-04 </wgt>
<wgt id='morphing_basis_vector_4'> +2.3588601e-05 </wgt>
<wgt id='morphing_basis_vector_5'> +2.5838925e-06 </wgt>
</rwgt>
</event>
<event>
 4      1 +5.5534000e-05 3.10776600e+02 7.81860800e-03 9.96443400e-02
        2 -1    0    0  501    0 +0.0000000000e+00 +0.0000000000e+00 +1.6255813218e+02 1.6255813218e+02 0.0000000000e+00 0.0000e+00 -1.0000e+00
       -2 -1    0    0    0  501 -0.0000000000e+00 -0.0000000000e+00 -1.4853474448e+02 1.4853474448e+02 0.0000000000e+00 0.0000e+00 1.0000e+00
      -13  1    1    2    0    0 +1.5509082116e+02 +2.1321072118e+00 -2.3691778895e+00 1.5512356911e+02 0.0000000000e+00 0.0000e+00 1.0000e+00
       13  1    1    2    0    0 -1.5509082116e+02 -2.1321072118e+00 +1.6392565583e+01 1.5596930755e+02 0.0000000000e+00 0.0000e+00 -1.0000e+00
<mgrwt>
<rscale>  0 0.31077664E+03</rscale>
<asrwt>0</asrwt>
<pdfrwt beam="1">  1        2 0.25008943E-01 0.31077664E+03</pdfrwt>
<pdfrwt beam="2">  1       -2 0.22851499E-01 0.31077664E+03</pdfrwt>
<totfact> 0.41192255E+03</totfact>
</mgrwt>
<rwgt>
<wgt id='morphing_basis_vector_1'> +2.4526523e-04 </wgt>
<wgt id='morphing_basis_vector_2'> +1.4830762e-04 </wgt>
<wgt id='morphing_basis_vector_3'> +1.3375587e-04 </wgt>
<wgt id='morphing_basis_vector_4'> +2.6507473e-05 </wgt>
<wgt id='morphing_basis_vector_5'> +3.1468313e-06 </wgt>
</rwgt>
</event>
<event>
 4      1 +5.5534000e-05 3.08093300e+02 7.81860800e-03 9.97538300e-02
        2 -1    0    0  501    0 +0.0000000000e+00 +0.0000000000e+00 +1.0843936731e+02 1.0843936731e+02 0.0000000000e+00 0.0000e+00 -1.0000e+00
       -2 -1    0    0    0  501 -0.0000000000e+00 -0.0000000000e+00 -2.1883538617e+02 2.1883538617e+02 0.0000000000e+00 0.0000e+00 1.0000e+00
      -13  1    1    2    0    0 +1.2449614461e+02 -1.9763360211e+01 +3.8861316020e+01 1.3190937158e+02 0.0000000000e+00 0.0000e+00 1.0000e+00
       13  1    1    2    0    0 -1.2449614461e+02 +1.9763360211e+01 -1.4925733487e+02 1.9536538189e+02 0.0000000000e+00 0.0000e+00 -1.0000e+00
<mgrwt>
<rscale>  0 0.30809330E+03</rscale>
<asrwt>0</asrwt>
<pdfrwt beam="1">  1        2 0.16682980E-01 0.30809330E+03</pdfrwt>
<pdfrwt beam="2">  1       -2 0.33666982E-01 0.30809330E+03</pdfrwt>
<totfact> 0.34145652E+03</totfact>
</mgrwt>
<rwgt>
<wgt id='morphing_basis_vector_1'> +2.8112176e-04 </wgt>
<wgt id='morphing_basis_vector_2'> +2.6205934e-04 </wgt>
<wgt id='morphing_basis_vector_3'> +7.3125851e-05 </wgt>
<wgt id='morphing_basis_vector_4'> +4.6480970e-05 </wgt>
<wgt id='morphing_basis_vector_5'> +4.3210945e-06 </wgt>
</rwgt>
</event>
<event>
 4      1 +5.5534000e-05 3.12087900e+02 7.81860800e-03 9.95912600e-02
        2 -1    0    0  501    0 +0.0000000000e+00 +0.0000000000e+00 +2.0331387694e+02 2.0331387694e+02 0.0000000000e+00 0.0000e+00 1.0000e+00
       -2 -1    0    0    0  501 -0.0000000000e+00 -0.0000000000e+00 -1.1976417318e+02 1.1976417318e+02 0.0000000000e+00 0.0000e+00 -1.0000e+00
      -13  1    1    2    0    0 -6.4445639992e+01 +4.4335018944e+01 -9.8001708600e+01 1.2539206238e+02 0.0000000000e+00 0.0000e+00 -1.0000e+00
       13  1    1    2    0    0 +6.4445639992e+01 -4.4335018944e+01 +1.8155141236e+02 1.9768598774e+02 0.0000000000e+00 0.0000e+00 1.0000e+00
<mgrwt>
<rscale>  0 0.31208793E+03</rscale>
<asrwt>0</asrwt>
<pdfrwt beam="1">  1        2 0.31279058E-01 0.31208793E+03</pdfrwt>
<pdfrwt beam="2">  1       -2 0.18425257E-01 0.31208793E+03</pdfrwt>
<totfact> 0.45444117E+03</totfact>
</mgrwt>
<rwgt>
<wgt id='morphing_basis_vector_1'> +2.4198039e-04 </wgt>
<wgt id='morphing_basis_vector_2'> +1.3357007e-04 </wgt>
<wgt id='morphing_basis_vector_3'> +1.4292874e-04 </wgt>
<wgt id='morphing_basis_vector_4'> +2.4004446e-05 </wgt>
<wgt id='morphing_basis_vector_5'> +3.1828003e-06 </wgt>
</rwgt>
</event>
<event>
 4      1 +5.5534000e-05 3.45193700e+02 7.81860800e-03 9.83377200e-02
        2 -1    0    0  501    0 +0.0000000000e+00 +0.0000000000e+00 +3.8668663029e+02 3.8668663029e+02 0.0000000000e+00 0.0000e+00 -1.0000e+00
       -2 -1    0    0    0  501 -0.0000000000e+00 -0.0000000000e+00 -7.7038295369e+01 7.7038295369e+01 0.0000000000e+00 0.0000e+00 1.0000e+00
      -13  1    1    2    0    0 -1.0746768103e+02 +1.6349318355e+01 -2.5273770918e+01 1.1160361183e+02 0.0000000000e+00 0.0000e+00 1.0000e+00
       13  1    1    2    0    0 +1.0746768103e+02 -1.6349318355e+01 +3.3492210584e+02 3.5212131383e+02 0.0000000000e+00 0.0000e+00 -1.0000e+00
<mgrwt>
<rscale>  0 0.34519374E+03</rscale>
<asrwt>0</asrwt>
<pdfrwt beam="1">  1        2 0.59490250E-01 0.34519374E+03</pdfrwt>
<pdfrwt beam="2">  1       -2 0.11852046E-01 0.34519374E+03</pdfrwt>
<totfact> 0.45071316E+03</totfact>
</mgrwt>
<rwgt>
<wgt id='morphing_basis_vector_1'> +3.0414201e-04 </wgt>
<wgt id='morphing_basis_vector_2'> +1.6501633e-04 </wgt>
<wgt id='morphing_basis_vector_3'> +1.8369087e-04 </wgt>
<wgt id='morphing_basis_vector_4'> +3.2109038e-05 </wgt>
<wgt id='morphing_basis_vector_5'> +1.5369155e-05 </wgt>
</rwgt>
</event>
<event>
 4      1 +5.5534000e-05 3.02479100e+02 7.81860800e-03 9.99867800e-02
        2 -1    0    0  501    0 +0.0000000000e+00 +0.0000000000e+00 +6.7171172015e+02 6.7171172015e+02 0.0000000000e+00 0.0000e+00 -1.0000e+00
       -2 -1    0    0    0  501 -0.0000000000e+00 -0.0000000000e+00 -3.4052418495e+01 3.4052418495e+01 0.0000000000e+00 0.0000e+00 1.0000e+00
      -13  1    1    2    0    0 -1.2519503734e+02 -4.4550244650e+01 +1.5033481468e+02 2.0064665006e+02 0.0000000000e+00 0.0000e+00 1.0000e+00
       13  1    1    2    0    0 +1.2519503734e+02 +4.4550244650e+01 +4.8732448697e+02 5.0511748858e+02 0.0000000000e+00 0.0000e+00 -1.0000e+00
<mgrwt>
<rscale>  0 0.30247915E+03</rscale>
<asrwt>0</asrwt>
<pdfrwt beam="1">  1        2 0.10334026E+00 0.30247915E+03</pdfrwt>
<pdfrwt beam="2">  1       -2 0.52388341E-02 0.30247915E+03</pdfrwt>
<totfact> 0.83963673E+03</totfact>
</mgrwt>
<rwgt>
<wgt id='morphing_basis_vector_1'> +2.2718533e-04 </wgt>
<wgt id='morphing_basis_vector_2'> +1.2832455e-04 </wgt>
<wgt id='morphing_basis_vector_3'> +1.3197362e-04 </wgt>
<wgt id='morphing_basis_vector_4'> +2.3237453e-05 </wgt>
<wgt id='morphing_basis_vector_5'> +1.4828750e-06 </wgt>
</rwgt>
</event>
<event>
 4      1 +5.5534000e-05 3.35307700e+02 7.81860800e-03 9.86955000e-02
        2 -1    0    0  501    0 +0.0000000000e+00 +0.0000000000e+00 +1.2965031438e+03 1.2965031438e+03 0.0000000000e+00 0.0000e+00 -1.0000e+00
       -2 -1    0    0    0  501 -0.0000000000e+00 -0.0000000000e+00 -2.1679716377e+01 2.1679716377e+01 0.0000000000e+00 0.0000e+00 1.0000e+00
      -13  1    1    2    0    0 -1.6170530338e+02 -4.4233787051e+01 +6.3108814703e+02 6.5297586662e+02 0.0000000000e+00 0.0000e+00 1.0000e+00
       13  1    1    2    0    0 +1.6170530338e+02 +4.4233787051e+01 +6.4373528037e+02 6.6520699353e+02 0.0000000000e+00 0.0000e+00 -1.0000e+00
<mgrwt>
<rscale>  0 0.33530774E+03</rscale>
<asrwt>0</asrwt>
<pdfrwt beam="1">  1        2 0.19946196E+00 0.33530774E+03</pdfrwt>
<pdfrwt beam="2">  1       -2 0.33353420E-02 0.33530774E+03</pdfrwt>
<totfact> 0.67685825E+03</totfact>
</mgrwt>
<rwgt>
<wgt id='morphing_basis_vector_1'> +2.9217775e-04 </wgt>
<wgt id='morphing_basis_vector_2'> +1.7842701e-04 </wgt>
<wgt id='morphing_basis_vector_3'> +1.5981587e-04 </wgt>
<wgt id='morphing_basis_vector_4'> +3.2052018e-05 </wgt>
<wgt id='morphing_basis_vector_5'> +1.1090171e-05 </wgt>
</rwgt>
</event>
<event>
 4      1 +5.5534000e-05 3.27698900e+02 7.81860800e-03 9.89801200e-02
        2 -1    0    0  501    0 +0.0000000000e+00 +0.0000000000e+00 +5.7913725247e+02 5.7913725247e+02 0.0000000000e+00 0.0000e+00 -1.0000e+00
       -2 -1    0    0    0  501 -0.0000000000e+00 -0.0000000000e+00 -4.6356268204e+01 4.6356268204e+01 0.0000000000e+00 0.0000e+00 1.0000e+00
      -13  1    1    2    0    0 +5.4439275641e+01 -1.4438593315e+02 +1.6122386836e+02 2.2316825077e+02 0.0000000000e+00 0.0000e+00 1.0000e+00
       13  1    1    2    0    0 -5.4439275641e+01 +1.4438593315e+02 +3.7155711591e+02 4.0232526991e+02 0.0000000000e+00 0.0000e+00 -1.0000e+00
<mgrwt>
<rscale>  0 0.32769890E+03</rscale>
<asrwt>0</asrwt>
<pdfrwt beam="1">  1        2 0.89098034E-01 0.32769890E+03</pdfrwt>
<pdfrwt beam="2">  1       -2 0.71317340E-02 0.32769890E+03</pdfrwt>
<totfact> 0.62746458E+03</totfact>
</mgrwt>
<rwgt>
<wgt id='morphing_basis_vector_1'> +2.7162727e-04 </wgt>
<wgt id='morphing_basis_vector_2'> +1.5324636e-04 </wgt>
<wgt id='morphing_basis_vector_3'> +1.5798973e-04 </wgt>
<wgt id='morphing_basis_vector_4'> +2.7848986e-05 </wgt>
<wgt id='morphing_basis_vector_5'> +7.7521391e-06 </wgt>
</rwgt>
</event>
<event>
 4      1 +5.5534000e-05 3.25567500e+02 7.81860800e-03 9.90613500e-02
        2 -1    0    0  501    0 +0.0000000000e+00 +0.0000000000e+00 +9.9119854696e+02 9.9119854696e+02 0.0000000000e+00 0.0000e+00 -1.0000e+00
       -2 -1    0    0    0  501 -0.0000000000e+00 -0.0000000000e+00 -2.6733846027e+01 2.6733846027e+01 0.0000000000e+00 0.0000e+00 1.0000e+00
      -13  1    1    2    0    0 -4.6949057501e+01 -1.3405610683e+02 +2.3360458290e+02 2.7339779613e+02 0.0000000000e+00 0.0000e+00 1.0000e+00
       13  1    1    2    0    0 +4.6949057501e+01 +1.3405610683e+02 +7.3086011804e+02 7.4453459685e+02 0.0000000000e+00 0.0000e+00 -1.0000e+00
<mgrwt>
<rscale>  0 0.32556750E+03</rscale>
<asrwt>0</asrwt>
<pdfrwt beam="1">  1        2 0.15249206E+00 0.32556750E+03</pdfrwt>
<pdfrwt beam="2">  1       -2 0.41129002E-02 0.32556750E+03</pdfrwt>
<totfact> 0.74065034E+03</totfact>
</mgrwt>
<rwgt>
<wgt id='morphing_basis_vector_1'> +2.6659759e-04 </wgt>
<wgt id='morphing_basis_vector_2'> +1.4806734e-04 </wgt>
<wgt id='morphing_basis_vector_3'> +1.5686415e-04 </wgt>
<wgt id='morphing_basis_vector_4'> +2.6913334e-05 </wgt>
<wgt id='morphing_basis_vector_5'> +6.9548920e-06 </wgt>
</rwgt>
</event>
<event>
 4      1 +5.5534000e-05 3.33478800e+02 7.81860800e-03 9.87631600e-02
        2 -1    0    0  501    0 +0.0000000000e+00 +0.0000000000e+00 +1.4897033279e+02 1.4897033279e+02 0.0000000000e+00 0.0000e+00 -1.0000e+00
       -2 -1    0    0    0  501 -0.0000000000e+00 -0.0000000000e+00 -1.8662799266e+02 1.8662799266e+02 0.0000000000e+00 0.0000e+00 1.0000e+00
      -13  1    1    2    0    0 -1.1518088342e+02 +1.0049120522e+02 -8.5862362027e+01 1.7532102967e+02 0.0000000000e+00 0.0000e+00 1.0000e+00
       13  1    1    2    0    0 +1.1518088342e+02 -1.0049120522e+02 +4.8204702160e+01 1.6027729578e+02 0.0000000000e+00 0.0000e+00 -1.0000e+00
<mgrwt>
<rscale>  0 0.33347884E+03</rscale>
<asrwt>0</asrwt>
<pdfrwt beam="1">  1        2 0.22918513E-01 0.33347884E+03</pdfrwt>
<pdfrwt beam="2">  1       -2 0.28711999E-01 0.33347884E+03</pdfrwt>
<totfact> 0.31055025E+03</totfact>
</mgrwt>
<rwgt>
<wgt id='morphing_basis_vector_1'> +2.8213656e-04 </wgt>
<wgt id='morphing_basis_vector_2'> +1.5746372e-04 </wgt>
<wgt id='morphing_basis_vector_3'> +1.6588282e-04 </wgt>
<wgt id='morphing_basis_vector_4'> +2.9084051e-05 </wgt>
<wgt id='morphing_basis_vector_5'> +9.9460632e-06 </wgt>
</rwgt>
</event>
<event>
 4      1 +5.5534000e-05 3.34184400e+02 7.81860800e-03 9.87370100e-02
        2 -1    0    0  501    0 +0.0000000000e+00 +0.0000000000e+00 +1.6532332392e+02 1.6532332392e+02 0.0000000000e+00 0.0000e+00 1.0000e+00
       -2 -1    0    0    0  501 -0.0000000000e+00 -0.0000000000e+00 -1.6887996052e+02 1.6887996052e+02 0.0000000000e+00 0.0000e+00 -1.0000e+00
      -13  1    1    2    0    0 +1.2388103566e+02 -6.6365879754e+01 -9.2165157469e+01 1.6806355120e+02 0.0000000000e+00 0.0000e+00 -1.0000e+00
       13  1    1    2    0    0 -1.2388103566e+02 +6.6365879754e+01 +8.8608520864e+01 1.6613973324e+02 0.0000000000e+00 0.0000e+00 1.0000e+00
<mgrwt>
<rscale>  0 0.33418436E+03</rscale>
<asrwt>0</asrwt>
<pdfrwt beam="1">  1        2 0.25434358E-01 0.33418436E+03</pdfrwt>
<pdfrwt beam="2">  1       -2 0.25981532E-01 0.33418436E+03</pdfrwt>
<totfact> 0.32654814E+03</totfact>
</mgrwt>
<rwgt>
<wgt id='morphing_basis_vector_1'> +2.8266440e-04 </wgt>
<wgt id='morphing_basis_vector_2'> +1.5568359e-04 </wgt>
<wgt id='morphing_basis_vector_3'> +1.6789471e-04 </wgt>
<wgt id='morphing_basis_vector_4'> +2.8947396e-05 </wgt>
<wgt id='morphing_basis_vector_5'> +1.0190890e-05 </wgt>
</rwgt>
</event>
<event>
 4      1 +5.5534000e-05 3.56163300e+02 7.81860800e-03 9.79555900e-02
        2 -1    0    0  501    0 +0.0000000000e+00 +0.0000000000e+00 +3.9397749855e+02 3.9397749855e+02 0.0000000000e+00 0.0000e+00 -1.0000e+00
       -2 -1    0    0    0  501 -0.0000000000e+00 -0.0000000000e+00 -8.0494630372e+01 8.0494630372e+01 0.0000000000e+00 0.0000e+00 1.0000e+00
      -13  1    1    2    0    0 -5.3873747802e+01 -1.2457586770e+02 +3.1562617818e+00 1.3576262189e+02 0.0000000000e+00 0.0000e+00 1.0000e+00
       13  1    1    2    0    0 +5.3873747802e+01 +1.2457586770e+02 +3.1032660640e+02 3.3870950703e+02 0.0000000000e+00 0.0000e+00 -1.0000e+00
<mgrwt>
<rscale>  0 0.35616329E+03</rscale>
<asrwt>0</asrwt>
<pdfrwt beam="1">  1        2 0.60611922E-01 0.35616329E+03</pdfrwt>
<pdfrwt beam="2">  1       -2 0.12383790E-01 0.35616329E+03</pdfrwt>
<totfact> 0.41253704E+03</totfact>
</mgrwt>
<rwgt>
<wgt id='morphing_basis_vector_1'> +3.2810538e-04 </wgt>
<wgt id='morphing_basis_vector_2'> +1.7817802e-04 </wgt>
<wgt id='morphing_basis_vector_3'> +1.9963538e-04 </wgt>
<wgt id='morphing_basis_vector_4'> +3.6417156e-05 </wgt>
<wgt id='morphing_basis_vector_5'> +2.1878411e-05 </wgt>
</rwgt>
</event>
<event>
 4      1 +5.5534000e-05 3.26195100e+02 7.81860800e-03 9.90373600e-02
        2 -1    0    0  501    0 +0.0000000000e+00 +0.0000000000e+00 +7.9600012721e+02 7.9600012721e+02 0.0000000000e+00 0.0000e+00 -1.0000e+00
       -2 -1    0    0    0  501 -0.0000000000e+00 -0.0000000000e+00 -3.3418107841e+01 3.3418107841e+01 0.0000000000e+00 0.0000e+00 1.0000e+00
      -13  1    1    2    0    0 +5.9662427445e+01 -1.5176432804e+02 +3.8883457008e+02 4.2164480241e+02 0.0000000000e+00 0.0000e+00 1.0000e+00
       13  1    1    2    0    0 -5.9662427445e+01 +1.5176432804e+02 +3.7374744929e+02 4.0777343264e+02 0.0000000000e+00 0.0000e+00 -1.0000e+00
<mgrwt>
<rscale>  0 0.32619514E+03</rscale>
<asrwt>0</asrwt>
<pdfrwt beam="1">  1        2 0.12246154E+00 0.32619514E+03</pdfrwt>
<pdfrwt beam="2">  1       -2 0.51412480E-02 0.32619514E+03</pdfrwt>
<totfact> 0.70602368E+03</totfact>
</mgrwt>
<rwgt>
<wgt id='morphing_basis_vector_1'> +2.7512527e-04 </wgt>
<wgt id='morphing_basis_vector_2'> +1.7025731e-04 </wgt>
<wgt id='morphing_basis_vector_3'> +1.4767510e-04 </wgt>
<wgt id='morphing_basis_vector_4'> +3.0177276e-05 </wgt>
<wgt id='morphing_basis_vector_5'> +7.5637872e-06 </wgt>
</rwgt>
</event>
<event>
 4      1 +5.5534000e-05 3.06818300e+02 7.81860800e-03 9.98062700e-02
        2 -1    0    0  501    0 +0.0000000000e+00 +0.0000000000e+00 +3.6015059774e+02 3.6015059774e+02 0.0000000000e+00 0.0000e+00 -1.0000e+00
       -2 -1    0    0    0  501 -0.0000000000e+00 -0.0000000000e+00 -6.5345919081e+01 6.5345919081e+01 0.0000000000e+00 0.0000e+00 1.0000e+00
      -13  1    1    2    0    0 -5.2104888340e+01 -1.4112330087e+02 +1.8909107951e+02 2.4163224492e+02 0.0000000000e+00 0.0000e+00 1.0000e+00
       13  1    1    2    0    0 +5.2104888340e+01 +1.4112330087e+02 +1.0571359916e+02 1.8386427191e+02 0.0000000000e+00 0.0000e+00 -1.0000e+00
<mgrwt>
<rscale>  0 0.30681833E+03</rscale>
<asrwt>0</asrwt>
<pdfrwt beam="1">  1        2 0.55407783E-01 0.30681833E+03</pdfrwt>
<pdfrwt beam="2">  1       -2 0.10053219E-01 0.30681833E+03</pdfrwt>
<totfact> 0.62685333E+03</totfact>
</mgrwt>
<rwgt>
<wgt id='morphing_basis_vector_1'> +2.4671589e-04 </wgt>
<wgt id='morphing_basis_vector_2'> +1.6792181e-04 </wgt>
<wgt id='morphing_basis_vector_3'> +1.1813502e-04 </wgt>
<wgt id='morphing_basis_vector_4'> +3.0118460e-05 </wgt>
<wgt id='morphing_basis_vector_5'> +2.7017610e-06 </wgt>
</rwgt>
</event>
<event>
 4      1 +5.5534000e-05 3.05424100e+02 7.81860800e-03 9.98639200e-02
        2 -1    0    0  501    0 +0.0000000000e+00 +0.0000000000e+00 +1.2473885826e+02 1.2473885826e+02 0.0000000000e+00 0.0000e+00 -1.0000e+00
       -2 -1    0    0    0  501 -0.0000000000e+00 -0.0000000000e+00 -1.8695839336e+02 1.8695839336e+02 0.0000000000e+00 0.0000e+00 1.0000e+00
      -13  1    1    2    0    0 +1.0734504970e+02 +1.0831668686e+02 -3.9369969025e+01 1.5749748826e+02 0.0000000000e+00 0.0000e+00 1.0000e+00
       13  1    1    2    0    0 -1.0734504970e+02 -1.0831668686e+02 -2.2849566075e+01 1.5419976335e+02 0.0000000000e+00 0.0000e+00 -1.0000e+00
<mgrwt>
<rscale>  0 0.30542414E+03</rscale>
<asrwt>0</asrwt>
<pdfrwt beam="1">  1        2 0.19190594E-01 0.30542414E+03</pdfrwt>
<pdfrwt beam="2">  1       -2 0.28762830E-01 0.30542414E+03</pdfrwt>
<totfact> 0.38006968E+03</totfact>
</mgrwt>
<rwgt>
<wgt id='morphing_basis_vector_1'> +2.3642277e-04 </wgt>
<wgt id='morphing_basis_vector_2'> +1.4367914e-04 </wgt>
<wgt id='morphing_basis_vector_3'> +1.2828889e-04 </wgt>
<wgt id='morphing_basis_vector_4'> +2.5891411e-05 </wgt>
<wgt id='morphing_basis_vector_5'> +2.1232977e-06 </wgt>
</rwgt>
</event>
<event>
 4      1 +5.5534000e-05 3.01549000e+02 7.81860800e-03 1.00025900e-01
        2 -1    0    0  501    0 +0.0000000000e+00 +0.0000000000e+00 +3.3619407665e+02 3.3619407665e+02 0.0000000000e+00 0.0000e+00 -1.0000e+00
       -2 -1    0    0    0  501 -0.0000000000e+00 -0.0000000000e+00 -6.7618524887e+01 6.7618524887e+01 0.0000000000e+00 0.0000e+00 1.0000e+00
      -13  1    1    2    0    0 -1.1604830713e+02 -6.8184991581e+01 +4.3300528262e+01 1.4139072959e+02 0.0000000000e+00 0.0000e+00 1.0000e+00
       13  1    1    2    0    0 +1.1604830713e+02 +6.8184991581e+01 +2.2527502350e+02 2.6242187195e+02 0.0000000000e+00 0.0000e+00 -1.0000e+00
<mgrwt>
<rscale>  0 0.30154898E+03</rscale>
<asrwt>0</asrwt>
<pdfrwt beam="1">  1        2 0.51722165E-01 0.30154898E+03</pdfrwt>
<pdfrwt beam="2">  1       -2 0.10402850E-01 0.30154898E+03</pdfrwt>
<totfact> 0.64078897E+03</totfact>
</mgrwt>
<rwgt>
<wgt id='morphing_basis_vector_1'> +2.2584371e-04 </wgt>
<wgt id='morphing_basis_vector_2'> +1.2795252e-04 </wgt>
<wgt id='morphing_basis_vector_3'> +1.3090076e-04 </wgt>
<wgt id='morphing_basis_vector_4'> +2.3210521e-05 </wgt>
<wgt id='morphing_basis_vector_5'> +1.3569285e-06 </wgt>
</rwgt>
</event>
<event>
 4      1 +5.5534000e-05 3.01419300e+02 7.81860800e-03 1.00031400e-01
        2 -1    0    0  501    0 +0.0000000000e+00 +0.0000000000e+00 +3.9229464254e+02 3.9229464254e+02 0.0000000000e+00 0.0000e+00 -1.0000e+00
       -2 -1    0    0    0  501 -0.0000000000e+00 -0.0000000000e+00 -5.7898842491e+01 5.7898842491e+01 0.0000000000e+00 0.0000e+00 1.0000e+00
      -13  1    1    2    0    0 +4.7461091301e+01 -1.3801765977e+02 +1.1107478638e+02 1.8340948112e+02 0.0000000000e+00 0.0000e+00 1.0000e+00
       13  1    1    2    0    0 -4.7461091301e+01 +1.3801765977e+02 +2.2332101367e+02 2.6678400391e+02 0.0000000000e+00 0.0000e+00 -1.0000e+00
<mgrwt>
<rscale>  0 0.30141935E+03</rscale>
<asrwt>0</asrwt>
<pdfrwt beam="1">  1        2 0.60353020E-01 0.30141935E+03</pdfrwt>
<pdfrwt beam="2">  1       -2 0.89075145E-02 0.30141935E+03</pdfrwt>
<totfact> 0.68686370E+03</totfact>
</mgrwt>
<rwgt>
<wgt id='morphing_basis_vector_1'> +2.2708573e-04 </wgt>
<wgt id='morphing_basis_vector_2'> +1.3198105e-04 </wgt>
<wgt id='morphing_basis_vector_3'> +1.2866154e-04 </wgt>
<wgt id='morphing_basis_vector_4'> +2.3965222e-05 </wgt>
<wgt id='morphing_basis_vector_5'> +1.3930937e-06 </wgt>
</rwgt>
</event>
<event>
 4      1 +5.5534000e-05 3.19317800e+02 7.81860800e-03 9.93035000e-02
        2 -1    0    0  501    0 +0.0000000000e+00 +0.0000000000e+00 +7.1367458114e+02 7.1367458114e+02 0.0000000000e+00 0.0000e+00 -1.0000e+00
       -2 -1    0    0    0  501 -0.0000000000e+00 -0.0000000000e+00 -3.5717915903e+01 3.5717915903e+01 0.0000000000e+00 0.0000e+00 1.0000e+00
      -13  1    1    2    0    0 -7.9759660205e+01 -6.9195728258e+01 +5.7930212310e+01 1.2043903729e+02 0.0000000000e+00 0.0000e+00 1.0000e+00
       13  1    1    2    0    0 +7.9759660205e+01 +6.9195728258e+01 +6.2002645293e+02 6.2895345976e+02 0.0000000000e+00 0.0000e+00 -1.0000e+00
<mgrwt>
<rscale>  0 0.31931783E+03</rscale>
<asrwt>0</asrwt>
<pdfrwt beam="1">  1        2 0.10979608E+00 0.31931783E+03</pdfrwt>
<pdfrwt beam="2">  1       -2 0.54950645E-02 0.31931783E+03</pdfrwt>
<totfact> 0.72909783E+03</totfact>
</mgrwt>
<rwgt>
<wgt id='morphing_basis_vector_1'> +2.5453659e-04 </wgt>
<wgt id='morphing_basis_vector_2'> +1.4005771e-04 </wgt>
<wgt id='morphing_basis_vector_3'> +1.5068901e-04 </wgt>
<wgt id='morphing_basis_vector_4'> +2.5279134e-05 </wgt>
<wgt id='morphing_basis_vector_5'> +4.9881588e-06 </wgt>
</rwgt>
</event>
<event>
 4      1 +5.5534000e-05 3.23002200e+02 7.81860800e-03 9.91600200e-02
        2 -1    0    0  501    0 +0.0000000000e+00 +0.0000000000e+00 +2.6966735000e+02 2.6966735000e+02 0.0000000000e+00 0.0000e+00 1.0000e+00
       -2 -1    0    0    0  501 -0.0000000000e+00 -0.0000000000e+00 -9.6721419107e+01 9.6721419107e+01 0.0000000000e+00 0.0000e+00 -1.0000e+00
      -13  1    1    2    0    0 -8.3686830805e+01 -1.1408279259e+02 +1.7480633926e+02 2.2489025204e+02 0.0000000000e+00 0.0000e+00 -1.0000e+00
       13  1    1    2    0    0 +8.3686830805e+01 +1.1408279259e+02 -1.8604083668e+00 1.4149851707e+02 0.0000000000e+00 0.0000e+00 1.0000e+00
<mgrwt>
<rscale>  0 0.32300222E+03</rscale>
<asrwt>0</asrwt>
<pdfrwt beam="1">  1        2 0.41487284E-01 0.32300222E+03</pdfrwt>
<pdfrwt beam="2">  1       -2 0.14880218E-01 0.32300222E+03</pdfrwt>
<totfact> 0.46742602E+03</totfact>
</mgrwt>
<rwgt>
<wgt id='morphing_basis_vector_1'> +3.0023804e-04 </wgt>
<wgt id='morphing_basis_vector_2'> +2.5768769e-04 </wgt>
<wgt id='morphing_basis_vector_3'> +1.0153254e-04 </wgt>
<wgt id='morphing_basis_vector_4'> +4.3161366e-05 </wgt>
<wgt id='morphing_basis_vector_5'> +8.1159171e-06 </wgt>
</rwgt>
</event>
<event>
 4      1 +5.5534000e-05 3.10958700e+02 7.81860800e-03 9.96369500e-02
        2 -1    0    0  501    0 +0.0000000000e+00 +0.0000000000e+00 +3.2897020945e+02 3.2897020945e+02 0.0000000000e+00 0.0000e+00 -1.0000e+00
       -2 -1    0    0    0  501 -0.0000000000e+00 -0.0000000000e+00 -7.3483339829e+01 7.3483339829e+01 0.0000000000e+00 0.0000e+00 1.0000e+00
      -13  1    1    2    0    0 +8.5878398106e+01 +3.5359543503e+01 -3.3639032895e+01 9.8777432200e+01 0.0000000000e+00 0.0000e+00 1.0000e+00
       13  1    1    2    0    0 -8.5878398106e+01 -3.5359543503e+01 +2.8912590252e+02 3.0367611708e+02 0.0000000000e+00 0.0000e+00 -1.0000e+00
<mgrwt>
<rscale>  0 0.31095871E+03</rscale>
<asrwt>0</asrwt>
<pdfrwt beam="1">  1        2 0.50610801E-01 0.31095871E+03</pdfrwt>
<pdfrwt beam="2">  1       -2 0.11305129E-01 0.31095871E+03</pdfrwt>
<totfact> 0.57764292E+03</totfact>
</mgrwt>
<rwgt>
<wgt id='morphing_basis_vector_1'> +2.4014312e-04 </wgt>
<wgt id='morphing_basis_vector_2'> +1.3279251e-04 </wgt>
<wgt id='morphing_basis_vector_3'> +1.4166423e-04 </wgt>
<wgt id='morphing_basis_vector_4'> +2.3864221e-05 </wgt>
<wgt id='morphing_basis_vector_5'> +2.9435166e-06 </wgt>
</rwgt>
</event>
<event>
 4      1 +5.5534000e-05 3.06216600e+02 7.81860800e-03 9.98311100e-02
        2 -1    0    0  501    0 +0.0000000000e+00 +0.0000000000e+00 +9.0613814230e+01 9.0613814230e+01 0.0000000000e+00 0.0000e+00 1.0000e+00
       -2 -1    0    0    0  501 -0.0000000000e+00 -0.0000000000e+00 -2.5870396079e+02 2.5870396079e+02 0.0000000000e+00 0.0000e+00 -1.0000e+00
      -13  1    1    2    0    0 -9.3048597911e+01 +8.2989293018e+01 -1.8541752328e+02 2.2343885577e+02 0.0000000000e+00 0.0000e+00 -1.0000e+00
       13  1    1    2    0    0 +9.3048597911e+01 -8.2989293018e+01 +1.7327376715e+01 1.2587891925e+02 0.0000000000e+00 0.0000e+00 1.0000e+00
<mgrwt>
<rscale>  0 0.30621661E+03</rscale>
<asrwt>0</asrwt>
<pdfrwt beam="1">  1        2 0.13940587E-01 0.30621661E+03</pdfrwt>
<pdfrwt beam="2">  1       -2 0.39800610E-01 0.30621661E+03</pdfrwt>
<totfact> 0.31415468E+03</totfact>
</mgrwt>
<rwgt>
<wgt id='morphing_basis_vector_1'> +2.3278218e-04 </wgt>
<wgt id='morphing_basis_vector_2'> +1.3019062e-04 </wgt>
<wgt id='morphing_basis_vector_3'> +1.3619371e-04 </wgt>
<wgt id='morphing_basis_vector_4'> +2.3454044e-05 </wgt>
<wgt id='morphing_basis_vector_5'> +2.0579548e-06 </wgt>
</rwgt>
</event>
<event>
 4      1 +5.5534000e-05 3.58014300e+02 7.81860800e-03 9.78925800e-02
        2 -1    0    0  501    0 +0.0000000000e+00 +0.0000000000e+00 +2.0510771400e+02 2.0510771400e+02 0.0000000000e+00 0.0000e+00 -1.0000e+00
       -2 -1    0    0    0  501 -0.0000000000e+00 -0.0000000000e+00 -1.5622796379e+02 1.5622796379e+02 0.0000000000e+00 0.0000e+00 1.0000e+00
      -13  1    1    2    0    0 +2.4039743523e+01 +4.6787928837e+01 -1.4825138082e+02 1.5730699752e+02 0.0000000000e+00 0.0000e+00 1.0000e+00
       13  1    1    2    0    0 -2.4039743523e+01 -4.6787928837e+01 +1.9713113103e+02 2.0402868027e+02 0.0000000000e+00 0.0000e+00 -1.0000e+00
<mgrwt>
<rscale>  0 0.35801430E+03</rscale>
<asrwt>0</asrwt>
<pdfrwt beam="1">  1        2 0.31555033E-01 0.35801430E+03</pdfrwt>
<pdfrwt beam="2">  1       -2 0.24035071E-01 0.35801430E+03</pdfrwt>
<totfact> 0.29162051E+03</totfact>
</mgrwt>
<rwgt>
<wgt id='morphing_basis_vector_1'> +3.3176494e-04 </wgt>
<wgt id='morphing_basis_vector_2'> +1.7886125e-04 </wgt>
<wgt id='morphing_basis_vector_3'> +2.0312363e-04 </wgt>
<wgt id='morphing_basis_vector_4'> +3.7076963e-05 </wgt>
<wgt id='morphing_basis_vector_5'> +2.3076576e-05 </wgt>
</rwgt>
</event>
<event>
 4      1 +5.5534000e-05 3.03191600e+02 7.81860800e-03 9.99569200e-02
        2 -1    0    0  501    0 +0.0000000000e+00 +0.0000000000e+00 +4.6243460688e+02 4.6243460688e+02 0.0000000000e+00 0.0000e+00 -1.0000e+00
       -2 -1    0    0    0  501 -0.0000000000e+00 -0.0000000000e+00 -4.9696279970e+01 4.9696279970e+01 0.0000000000e+00 0.0000e+00 1.0000e+00
      -13  1    1    2    0    0 +1.4460577701e+02 -4.4058396079e+01 +1.8716150809e+02 2.4058554221e+02 0.0000000000e+00 0.0000e+00 1.0000e+00
       13  1    1    2    0    0 -1.4460577701e+02 +4.4058396079e+01 +2.2557681882e+02 2.7154534464e+02 0.0000000000e+00 0.0000e+00 -1.0000e+00
<mgrwt>
<rscale>  0 0.30319155E+03</rscale>
<asrwt>0</asrwt>
<pdfrwt beam="1">  1        2 0.71143783E-01 0.30319155E+03</pdfrwt>
<pdfrwt beam="2">  1       -2 0.76455818E-02 0.30319155E+03</pdfrwt>
<totfact> 0.72389092E+03</totfact>
</mgrwt>
<rwgt>
<wgt id='morphing_basis_vector_1'> +2.3234199e-04 </wgt>
<wgt id='morphing_basis_vector_2'> +1.4041499e-04 </wgt>
<wgt id='morphing_basis_vector_3'> +1.2679734e-04 </wgt>
<wgt id='morphing_basis_vector_4'> +2.5420163e-05 </wgt>
<wgt id='morphing_basis_vector_5'> +1.7432864e-06 </wgt>
</rwgt>
</event>
<event>
 4      1 +5.5534000e-05 3.21236600e+02 7.81860800e-03 9.92285200e-02
        2 -1    0    0  501    0 +0.0000000000e+00 +0.0000000000e+00 +1.4754955727e+02 1.4754955727e+02 0.0000000000e+00 0.0000e+00 -1.0000e+00
       -2 -1    0    0    0  501 -0.0000000000e+00 -0.0000000000e+00 -1.7484452582e+02 1.7484452582e+02 0.0000000000e+00 0.0000e+00 1.0000e+00
      -13  1    1    2    0    0 -1.6028069154e+02 +8.6481545653e+00 -1.9459874118e+01 1.6168913804e+02 0.0000000000e+00 0.0000e+00 1.0000e+00
       13  1    1    2    0    0 +1.6028069154e+02 -8.6481545653e+00 -7.8350944243e+00 1.6070494505e+02 0.0000000000e+00 0.0000e+00 -1.0000e+00
<mgrwt>
<rscale>  0 0.32123656E+03</rscale>
<asrwt>0</asrwt>
<pdfrwt beam="1">  1        2 0.22699932E-01 0.32123656E+03</pdfrwt>
<pdfrwt beam="2">  1       -2 0.26899158E-01 0.32123656E+03</pdfrwt>
<totfact> 0.35069880E+03</totfact>
</mgrwt>
<rwgt>
<wgt id='morphing_basis_vector_1'> +2.6435344e-04 </wgt>
<wgt id='morphing_basis_vector_2'> +1.6046579e-04 </wgt>
<wgt id='morphing_basis_vector_3'> +1.4407261e-04 </wgt>
<wgt id='morphing_basis_vector_4'> +2.8512618e-05 </wgt>
<wgt id='morphing_basis_vector_5'> +5.8690211e-06 </wgt>
</rwgt>
</event>
<event>
 4      1 +5.5534000e-05 3.28316700e+02 7.81860800e-03 9.89567000e-02
        2 -1    0    0  501    0 +0.0000000000e+00 +0.0000000000e+00 +8.9749636760e+02 8.9749636760e+02 0.0000000000e+00 0.0000e+00 -1.0000e+00
       -2 -1    0    0    0  501 -0.0000000000e+00 -0.0000000000e+00 -3.0025707380e+01 3.0025707380e+01 0.0000000000e+00 0.0000e+00 1.0000e+00
      -13  1    1    2    0    0 -7.6604711525e+01 +1.4166702485e+02 +3.4394674814e+02 3.7978572026e+02 0.0000000000e+00 0.0000e+00 1.0000e+00
       13  1    1    2    0    0 +7.6604711525e+01 -1.4166702485e+02 +5.2352391208e+02 5.4773635472e+02 0.0000000000e+00 0.0000e+00 -1.0000e+00
<mgrwt>
<rscale>  0 0.32831670E+03</rscale>
<asrwt>0</asrwt>
<pdfrwt beam="1">  1        2 0.13807634E+00 0.32831670E+03</pdfrwt>
<pdfrwt beam="2">  1       -2 0.46193403E-02 0.32831670E+03</pdfrwt>
<totfact> 0.71155551E+03</totfact>
</mgrwt>
<rwgt>
<wgt id='morphing_basis_vector_1'> +2.7449928e-04 </wgt>
<wgt id='morphing_basis_vector_2'> +1.5887815e-04 </wgt>
<wgt id='morphing_basis_vector_3'> +1.5645068e-04 </wgt>
<wgt id='morphing_basis_vector_4'> +2.8702531e-05 </wgt>
<wgt id='morphing_basis_vector_5'> +8.0683928e-06 </wgt>
</rwgt>
</event>
<event>
 4      1 +5.5534000e-05 3.24558900e+02 7.81860800e-03 9.91000300e-02
        2 -1    0    0  501    0 +0.0000000000e+00 +0.0000000000e+00 +1.7343012351e+02 1.7343012351e+02 0.0000000000e+00 0.0000e+00 1.0000e+00
       -2 -1    0    0    0  501 -0.0000000000e+00 -0.0000000000e+00 -1.5184571674e+02 1.5184571674e+02 0.0000000000e+00 0.0000e+00 -1.0000e+00
      -13  1    1    2    0    0 -1.3690312176e+02 -5.8821921773e+01 +7.5215907302e+01 1.6691289926e+02 0.0000000000e+00 0.0000e+00 1.0000e+00
       13  1    1    2    0    0 +1.3690312176e+02 +5.8821921773e+01 -5.3631500536e+01 1.5836294099e+02 0.0000000000e+00 0.0000e+00 -1.0000e+00
<mgrwt>
<rscale>  0 0.32455891E+03</rscale>
<asrwt>0</asrwt>
<pdfrwt beam="1">  1        2 0.26681557E-01 0.32455891E+03</pdfrwt>
<pdfrwt beam="2">  1       -2 0.23360880E-01 0.32455891E+03</pdfrwt>
<totfact> 0.36917255E+03</totfact>
</mgrwt>
<rwgt>
<wgt id='morphing_basis_vector_1'> +2.9418041e-04 </wgt>
<wgt id='morphing_basis_vector_2'> +2.3326702e-04 </wgt>
<wgt id='morphing_basis_vector_3'> +1.1572138e-04 </wgt>
<wgt id='morphing_basis_vector_4'> +3.9386643e-05 </wgt>
<wgt id='morphing_basis_vector_5'> +8.1761540e-06 </wgt>
</rwgt>
</event>
<event>
 4      1 +5.5534000e-05 3.20418800e+02 7.81860800e-03 9.92604100e-02
        2 -1    0    0  501    0 +0.0000000000e+00 +0.0000000000e+00 +3.8323152746e+02 3.8323152746e+02 0.0000000000e+00 0.0000e+00 1.0000e+00
       -2 -1    0    0    0  501 -0.0000000000e+00 -0.0000000000e+00 -6.6975324822e+01 6.6975324822e+01 0.0000000000e+00 0.0000e+00 -1.0000e+00
      -13  1    1    2    0    0 -1.2837845679e+02 -3.9062886397e+01 +3.5154518157e+01 1.3871833840e+02 0.0000000000e+00 0.0000e+00 -1.0000e+00
       13  1    1    2    0    0 +1.2837845679e+02 +3.9062886397e+01 +2.8110168448e+02 3.1148851388e+02 0.0000000000e+00 0.0000e+00 1.0000e+00
<mgrwt>
<rscale>  0 0.32041883E+03</rscale>
<asrwt>0</asrwt>
<pdfrwt beam="1">  1        2 0.58958695E-01 0.32041883E+03</pdfrwt>
<pdfrwt beam="2">  1       -2 0.10303896E-01 0.32041883E+03</pdfrwt>
<totfact> 0.56440371E+03</totfact>
</mgrwt>
<rwgt>
<wgt id='morphing_basis_vector_1'> +2.5701319e-04 </wgt>
<wgt id='morphing_basis_vector_2'> +1.4256963e-04 </wgt>
<wgt id='morphing_basis_vector_3'> +1.5121321e-04 </wgt>
<wgt id='morphing_basis_vector_4'> +2.5727717e-05 </wgt>
<wgt id='morphing_basis_vector_5'> +5.3284563e-06 </wgt>
</rwgt>
</event>
<event>
 4      1 +5.5534000e-05 3.24699400e+02 7.81860800e-03 9.90946300e-02
        2 -1    0    0  501    0 +0.0000000000e+00 +0.0000000000e+00 +6.1106262951e+02 6.1106262951e+02 0.0000000000e+00 0.0000e+00 -1.0000e+00
       -2 -1    0    0    0  501 -0.0000000000e+00 -0.0000000000e+00 -4.3133761283e+01 4.3133761283e+01 0.0000000000e+00 0.0000e+00 1.0000e+00
      -13  1    1    2    0    0 +9.2795244184e+01 +1.1870493853e+02 +1.6214781612e+02 2.2134528241e+02 0.0000000000e+00 0.0000e+00 1.0000e+00
       13  1    1    2    0    0 -9.2795244184e+01 -1.1870493853e+02 +4.0578105211e+02 4.3285110838e+02 0.0000000000e+00 0.0000e+00 -1.0000e+00
<mgrwt>
<rscale>  0 0.32469943E+03</rscale>
<asrwt>0</asrwt>
<pdfrwt beam="1">  1        2 0.94009629E-01 0.32469943E+03</pdfrwt>
<pdfrwt beam="2">  1       -2 0.66359637E-02 0.32469943E+03</pdfrwt>
<totfact> 0.65806320E+03</totfact>
</mgrwt>
<rwgt>
<wgt id='morphing_basis_vector_1'> +2.6574758e-04 </wgt>
<wgt id='morphing_basis_vector_2'> +1.4943306e-04 </wgt>
<wgt id='morphing_basis_vector_3'> +1.5482196e-04 </wgt>
<wgt id='morphing_basis_vector_4'> +2.7043133e-05 </wgt>
<wgt id='morphing_basis_vector_5'> +6.7054823e-06 </wgt>
</rwgt>
</event>
<event>
 4      1 +5.5534000e-05 3.29012200e+02 7.81860800e-03 9.89304000e-02
        2 -1    0    0  501    0 +0.0000000000e+00 +0.0000000000e+00 +5.1084491975e+02 5.1084491975e+02 0.0000000000e+00 0.0000e+00 -1.0000e+00
       -2 -1    0    0    0  501 -0.0000000000e+00 -0.0000000000e+00 -5.2975478030e+01 5.2975478030e+01 0.0000000000e+00 0.0000e+00 1.0000e+00
      -13  1    1    2    0    0 -1.2378298312e+01 -1.5201068298e+02 +1.2327182353e+02 1.9610306597e+02 0.0000000000e+00 0.0000e+00 1.0000e+00
       13  1    1    2    0    0 +1.2378298312e+01 +1.5201068298e+02 +3.3459761820e+02 3.6771733181e+02 0.0000000000e+00 0.0000e+00 -1.0000e+00
<mgrwt>
<rscale>  0 0.32901218E+03</rscale>
<asrwt>0</asrwt>
<pdfrwt beam="1">  1        2 0.78591523E-01 0.32901218E+03</pdfrwt>
<pdfrwt beam="2">  1       -2 0.81500739E-02 0.32901218E+03</pdfrwt>
<totfact> 0.58978228E+03</totfact>
</mgrwt>
<rwgt>
<wgt id='morphing_basis_vector_1'> +2.7376817e-04 </wgt>
<wgt id='morphing_basis_vector_2'> +1.5356415e-04 </wgt>
<wgt id='morphing_basis_vector_3'> +1.6003488e-04 </wgt>
<wgt id='morphing_basis_vector_4'> +2.8023195e-05 </wgt>
<wgt id='morphing_basis_vector_5'> +8.2113013e-06 </wgt>
</rwgt>
</event>
<event>
 4      1 +5.5534000e-05 3.49943700e+02 7.81860800e-03 9.81704000e-02
        2 -1    0    0  501    0 +0.0000000000e+00 +0.0000000000e+00 +5.5941243008e+02 5.5941243008e+02 0.0000000000e+00 0.0000e+00 1.0000e+00
       -2 -1    0    0    0  501 -0.0000000000e+00 -0.0000000000e+00 -5.4727317772e+01 5.4727317772e+01 0.0000000000e+00 0.0000e+00 -1.0000e+00
      -13  1    1    2    0    0 -1.6458559779e+02 +2.6936306111e+01 +1.5945920105e+02 2.3074059111e+02 0.0000000000e+00 0.0000e+00 -1.0000e+00
       13  1    1    2    0    0 +1.6458559779e+02 -2.6936306111e+01 +3.4522591126e+02 3.8339915674e+02 0.0000000000e+00 0.0000e+00 1.0000e+00
<mgrwt>
<rscale>  0 0.34994366E+03</rscale>
<asrwt>0</asrwt>
<pdfrwt beam="1">  1        2 0.86063447E-01 0.34994366E+03</pdfrwt>
<pdfrwt beam="2">  1       -2 0.84195877E-02 0.34994366E+03</pdfrwt>
<totfact> 0.50762700E+03</totfact>
</mgrwt>
<rwgt>
<wgt id='morphing_basis_vector_1'> +3.1690025e-04 </wgt>
<wgt id='morphing_basis_vector_2'> +1.7829558e-04 </wgt>
<wgt id='morphing_basis_vector_3'> +1.8724536e-04 </wgt>
<wgt id='morphing_basis_vector_4'> +3.4679135e-05 </wgt>
<wgt id='morphing_basis_vector_5'> +1.8184251e-05 </wgt>
</rwgt>
</event>
<event>
 4      1 +5.5534000e-05 3.23885100e+02 7.81860800e-03 9.91259500e-02
        2 -1    0    0  501    0 +0.0000000000e+00 +0.0000000000e+00 +1.0904642363e+03 1.0904642363e+03 0.0000000000e+00 0.0000e+00 -1.0000e+00
       -2 -1    0    0    0  501 -0.0000000000e+00 -0.0000000000e+00 -2.4049753652e+01 2.4049753652e+01 0.0000000000e+00 0.0000e+00 1.0000e+00
      -13  1    1    2    0    0 -3.0310134249e+01 -1.4695759640e+02 +7.4280693110e+02 7.5781091063e+02 0.0000000000e+00 0.0000e+00 -1.0000e+00
       13  1    1    2    0    0 +3.0310134249e+01 +1.4695759640e+02 +3.2360755155e+02 3.5670307932e+02 0.0000000000e+00 0.0000e+00 1.0000e+00
<mgrwt>
<rscale>  0 0.32388514E+03</rscale>
<asrwt>0</asrwt>
<pdfrwt beam="1">  1        2 0.16776369E+00 0.32388514E+03</pdfrwt>
<pdfrwt beam="2">  1       -2 0.36999629E-02 0.32388514E+03</pdfrwt>
<totfact> 0.75741181E+03</totfact>
</mgrwt>
<rwgt>
<wgt id='morphing_basis_vector_1'> +2.9090592e-04 </wgt>
<wgt id='morphing_basis_vector_2'> +2.2660843e-04 </wgt>
<wgt id='morphing_basis_vector_3'> +1.1760982e-04 </wgt>
<wgt id='morphing_basis_vector_4'> +3.8444068e-05 </wgt>
<wgt id='morphing_basis_vector_5'> +7.8398376e-06 </wgt>
</rwgt>
</event>
<event>
 4      1 +5.5534000e-05 3.34605400e+02 7.81860800e-03 9.87214300e-02
        2 -1    0    0  501    0 +0.0000000000e+00 +0.0000000000e+00 +6.3511995012e+02 6.3511995012e+02 0.0000000000e+00 0.0000e+00 -1.0000e+00
       -2 -1    0    0    0  501 -0.0000000000e+00 -0.0000000000e+00 -4.4070726701e+01 4.4070726701e+01 0.0000000000e+00 0.0000e+00 1.0000e+00
      -13  1    1    2    0    0 +2.8283204321e+01 +1.1023614289e+02 +4.6605982924e+01 1.2297993532e+02 0.0000000000e+00 0.0000e+00 1.0000e+00
       13  1    1    2    0    0 -2.8283204321e+01 -1.1023614289e+02 +5.4444324049e+02 5.5621074150e+02 0.0000000000e+00 0.0000e+00 -1.0000e+00
<mgrwt>
<rscale>  0 0.33460543E+03</rscale>
<asrwt>0</asrwt>
<pdfrwt beam="1">  1        2 0.97710755E-01 0.33460543E+03</pdfrwt>
<pdfrwt beam="2">  1       -2 0.67801123E-02 0.33460543E+03</pdfrwt>
<totfact> 0.60981803E+03</totfact>
</mgrwt>
<rwgt>
<wgt id='morphing_basis_vector_1'> +2.8289708e-04 </wgt>
<wgt id='morphing_basis_vector_2'> +1.5436987e-04 </wgt>
<wgt id='morphing_basis_vector_3'> +1.6920663e-04 </wgt>
<wgt id='morphing_basis_vector_4'> +2.8837124e-05 </wgt>
<wgt id='morphing_basis_vector_5'> +1.0334206e-05 </wgt>
</rwgt>
</event>
<event>
 4      1 +5.5534000e-05 3.20243900e+02 7.81860800e-03 9.92672400e-02
        2 -1    0    0  501    0 +0.0000000000e+00 +0.0000000000e+00 +1.1563384014e+03 1.1563384014e+03 0.0000000000e+00 0.0000e+00 1.0000e+00
       -2 -1    0    0    0  501 -0.0000000000e+00 -0.0000000000e+00 -2.2172603590e+01 2.2172603590e+01 0.0000000000e+00 0.0000e+00 -1.0000e+00
      -13  1    1    2    0    0 -3.7526123180e+01 -1.5152020795e+02 +6.9835520959e+02 7.1558827694e+02 0.0000000000e+00 0.0000e+00 -1.0000e+00
       13  1    1    2    0    0 +3.7526123180e+01 +1.5152020795e+02 +4.3581058826e+02 4.6292272808e+02 0.0000000000e+00 0.0000e+00 1.0000e+00
<mgrwt>
<rscale>  0 0.32024386E+03</rscale>
<asrwt>0</asrwt>
<pdfrwt beam="1">  1        2 0.17789817E+00 0.32024386E+03</pdfrwt>
<pdfrwt beam="2">  1       -2 0.34111707E-02 0.32024386E+03</pdfrwt>
<totfact> 0.78304659E+03</totfact>
</mgrwt>
<rwgt>
<wgt id='morphing_basis_vector_1'> +2.7248200e-04 </wgt>
<wgt id='morphing_basis_vector_2'> +1.8841027e-04 </wgt>
<wgt id='morphing_basis_vector_3'> +1.2926742e-04 </wgt>
<wgt id='morphing_basis_vector_4'> +3.2805967e-05 </wgt>
<wgt id='morphing_basis_vector_5'> +6.0748777e-06 </wgt>
</rwgt>
</event>
<event>
 4      1 +5.5534000e-05 3.40573400e+02 7.81860800e-03 9.85033000e-02
        2 -1    0    0  501    0 +0.0000000000e+00 +0.0000000000e+00 +1.7189233056e+02 1.7189233056e+02 0.0000000000e+00 0.0000e+00 -1.0000e+00
       -2 -1    0    0    0  501 -0.0000000000e+00 -0.0000000000e+00 -1.6869608617e+02 1.6869608617e+02 0.0000000000e+00 0.0000e+00 1.0000e+00
      -13  1    1    2    0    0 -1.5719365373e+01 -3.9645552905e+01 -1.6326876014e+02 1.6874701879e+02 0.0000000000e+00 0.0000e+00 1.0000e+00
       13  1    1    2    0    0 +1.5719365373e+01 +3.9645552905e+01 +1.6646500453e+02 1.7184139794e+02 0.0000000000e+00 0.0000e+00 -1.0000e+00
<mgrwt>
<rscale>  0 0.34057342E+03</rscale>
<asrwt>0</asrwt>
<pdfrwt beam="1">  1        2 0.26444974E-01 0.34057342E+03</pdfrwt>
<pdfrwt beam="2">  1       -2 0.25953244E-01 0.34057342E+03</pdfrwt>
<totfact> 0.31297570E+03</totfact>
</mgrwt>
<rwgt>
<wgt id='morphing_basis_vector_1'> +2.9451457e-04 </wgt>
<wgt id='morphing_basis_vector_2'> +1.5973025e-04 </wgt>
<wgt id='morphing_basis_vector_3'> +1.7744028e-04 </wgt>
<wgt id='morphing_basis_vector_4'> +3.0526615e-05 </wgt>
<wgt id='morphing_basis_vector_5'> +1.3019236e-05 </wgt>
</rwgt>
</event>
<event>
 4      1 +5.5534000e-05 3.11137900e+02 7.81860800e-03 9.96296900e-02
        2 -1    0    0  501    0 +0.0000000000e+00 +0.0000000000e+00 +6.9042194772e+02 6.9042194772e+02 0.0000000000e+00 0.0000e+00 1.0000e+00
       -2 -1    0    0    0  501 -0.0000000000e+00 -0.0000000000e+00 -3.5053483155e+01 3.5053483155e+01 0.0000000000e+00 0.0000e+00 -1.0000e+00
      -13  1    1    2    0    0 +1.8830987803e+01 +1.2070197739e+02 +1.0308935939e+02 1.5984676871e+02 0.0000000000e+00 0.0000e+00 -1.0000e+00
       13  1    1    2    0    0 -1.8830987803e+01 -1.2070197739e+02 +5.5227910518e+02 5.6562866216e+02 0.0000000000e+00 0.0000e+00 1.0000e+00
<mgrwt>
<rscale>  0 0.31113787E+03</rscale>
<asrwt>0</asrwt>
<pdfrwt beam="1">  1        2 0.10621875E+00 0.31113787E+03</pdfrwt>
<pdfrwt beam="2">  1       -2 0.53928441E-02 0.31113787E+03</pdfrwt>
<totfact> 0.77928255E+03</totfact>
</mgrwt>
<rwgt>
<wgt id='morphing_basis_vector_1'> +2.4076564e-04 </wgt>
<wgt id='morphing_basis_vector_2'> +1.3387413e-04 </wgt>
<wgt id='morphing_basis_vector_3'> +1.4139240e-04 </wgt>
<wgt id='morphing_basis_vector_4'> +2.4048812e-05 </wgt>
<wgt id='morphing_basis_vector_5'> +2.9956412e-06 </wgt>
</rwgt>
</event>
<event>
 4      1 +5.5534000e-05 3.30413200e+02 7.81860800e-03 9.88776300e-02
        2 -1    0    0  501    0 +0.0000000000e+00 +0.0000000000e+00 +3.7066168680e+02 3.7066168680e+02 0.0000000000e+00 0.0000e+00 -1.0000e+00
       -2 -1    0    0    0  501 -0.0000000000e+00 -0.0000000000e+00 -7.3633783026e+01 7.3633783026e+01 0.0000000000e+00 0.0000e+00 1.0000e+00
      -13  1    1    2    0    0 -1.4767053924e+02 -3.6992999184e+01 +2.3480498604e+02 2.7983647299e+02 0.0000000000e+00 0.0000e+00 -1.0000e+00
       13  1    1    2    0    0 +1.4767053924e+02 +3.6992999184e+01 +6.2222917741e+01 1.6445899684e+02 0.0000000000e+00 0.0000e+00 1.0000e+00
<mgrwt>
<rscale>  0 0.33041321E+03</rscale>
<asrwt>0</asrwt>
<pdfrwt beam="1">  1        2 0.57024873E-01 0.33041321E+03</pdfrwt>
<pdfrwt beam="2">  1       -2 0.11328275E-01 0.33041321E+03</pdfrwt>
<totfact> 0.50609333E+03</totfact>
</mgrwt>
<rwgt>
<wgt id='morphing_basis_vector_1'> +3.0568767e-04 </wgt>
<wgt id='morphing_basis_vector_2'> +2.4102218e-04 </wgt>
<wgt id='morphing_basis_vector_3'> +1.2291507e-04 </wgt>
<wgt id='morphing_basis_vector_4'> +4.0200431e-05 </wgt>
<wgt id='morphing_basis_vector_5'> +1.0368260e-05 </wgt>
</rwgt>
</event>
<event>
 4      1 +5.5534000e-05 3.21928300e+02 7.81860800e-03 9.92016300e-02
        2 -1    0    0  501    0 +0.0000000000e+00 +0.0000000000e+00 +1.5565966859e+02 1.5565966859e+02 0.0000000000e+00 0.0000e+00 -1.0000e+00
       -2 -1    0    0    0  501 -0.0000000000e+00 -0.0000000000e+00 -1.6644941078e+02 1.6644941078e+02 0.0000000000e+00 0.0000e+00 1.0000e+00
      -13  1    1    2    0    0 -1.2622572974e+02 -5.2489538451e+01 -9.0421252543e+01 1.6390268273e+02 0.0000000000e+00 0.0000e+00 1.0000e+00
       13  1    1    2    0    0 +1.2622572974e+02 +5.2489538451e+01 +7.9631510346e+01 1.5820639664e+02 0.0000000000e+00 0.0000e+00 -1.0000e+00
<mgrwt>
<rscale>  0 0.32192832E+03</rscale>
<asrwt>0</asrwt>
<pdfrwt beam="1">  1        2 0.23947641E-01 0.32192832E+03</pdfrwt>
<pdfrwt beam="2">  1       -2 0.25607602E-01 0.32192832E+03</pdfrwt>
<totfact> 0.35832839E+03</totfact>
</mgrwt>
<rwgt>
<wgt id='morphing_basis_vector_1'> +2.5978840e-04 </wgt>
<wgt id='morphing_basis_vector_2'> +1.4415444e-04 </wgt>
<wgt id='morphing_basis_vector_3'> +1.5284274e-04 </wgt>
<wgt id='morphing_basis_vector_4'> +2.6060150e-05 </wgt>
<wgt id='morphing_basis_vector_5'> +5.7803639e-06 </wgt>
</rwgt>
</event>
<event>
 4      1 +5.5534000e-05 3.03447900e+02 7.81860800e-03 9.99462000e-02
        2 -1    0    0  501    0 +0.0000000000e+00 +0.0000000000e+00 +9.2587552523e+02 9.2587552523e+02 0.0000000000e+00 0.0000e+00 -1.0000e+00
       -2 -1    0    0    0  501 -0.0000000000e+00 -0.0000000000e+00 -2.4863118496e+01 2.4863118496e+01 0.0000000000e+00 0.0000e+00 1.0000e+00
      -13  1    1    2    0    0 +5.7583408533e+01 +1.3709624715e+02 +3.5604780234e+02 3.8585135412e+02 0.0000000000e+00 0.0000e+00 1.0000e+00
       13  1    1    2    0    0 -5.7583408533e+01 -1.3709624715e+02 +5.4496460439e+02 5.6488728961e+02 0.0000000000e+00 0.0000e+00 -1.0000e+00
<mgrwt>
<rscale>  0 0.30344787E+03</rscale>
<asrwt>0</asrwt>
<pdfrwt beam="1">  1        2 0.14244236E+00 0.30344787E+03</pdfrwt>
<pdfrwt beam="2">  1       -2 0.38250959E-02 0.30344787E+03</pdfrwt>
<totfact> 0.90227314E+03</totfact>
</mgrwt>
<rwgt>
<wgt id='morphing_basis_vector_1'> +2.3088449e-04 </wgt>
<wgt id='morphing_basis_vector_2'> +1.3528046e-04 </wgt>
<wgt id='morphing_basis_vector_3'> +1.2976378e-04 </wgt>
<wgt id='morphing_basis_vector_4'> +2.4468551e-05 </wgt>
<wgt id='morphing_basis_vector_5'> +1.7100166e-06 </wgt>
</rwgt>
</event>
<event>
 4      1 +5.5534000e-05 3.03258700e+02 7.81860800e-03 9.99541100e-02
        2 -1    0    0  501    0 +0.0000000000e+00 +0.0000000000e+00 +2.1568780975e+02 2.1568780975e+02 0.0000000000e+00 0.0000e+00 -1.0000e+00
       -2 -1    0    0    0  501 -0.0000000000e+00 -0.0000000000e+00 -1.0659603422e+02 1.0659603422e+02 0.0000000000e+00 0.0000e+00 1.0000e+00
      -13  1    1    2    0    0 +4.3993771777e+01 +1.9809140373e+01 -9.8220681519e+01 1.0943105718e+02 0.0000000000e+00 0.0000e+00 1.0000e+00
       13  1    1    2    0    0 -4.3993771777e+01 -1.9809140373e+01 +2.0731245705e+02 2.1285278679e+02 0.0000000000e+00 0.0000e+00 -1.0000e+00
<mgrwt>
<rscale>  0 0.30325874E+03</rscale>
<asrwt>0</asrwt>
<pdfrwt beam="1">  1        2 0.33182740E-01 0.30325874E+03</pdfrwt>
<pdfrwt beam="2">  1       -2 0.16399390E-01 0.30325874E+03</pdfrwt>
<totfact> 0.51242122E+03</totfact>
</mgrwt>
<rwgt>
<wgt id='morphing_basis_vector_1'> +2.2755453e-04 </wgt>
<wgt id='morphing_basis_vector_2'> +1.2645749e-04 </wgt>
<wgt id='morphing_basis_vector_3'> +1.3398798e-04 </wgt>
<wgt id='morphing_basis_vector_4'> +2.2864923e-05 </wgt>
<wgt id='morphing_basis_vector_5'> +1.5637367e-06 </wgt>
</rwgt>
</event>
<event>
 4      1 +5.5534000e-05 3.37802400e+02 7.81860800e-03 9.86039700e-02
        2 -1    0    0  501    0 +0.0000000000e+00 +0.0000000000e+00 +3.9382775877e+02 3.9382775877e+02 0.0000000000e+00 0.0000e+00 1.0000e+00
       -2 -1    0    0    0  501 -0.0000000000e+00 -0.0000000000e+00 -7.2436790965e+01 7.2436790965e+01 0.0000000000e+00 0.0000e+00 -1.0000e+00
      -13  1    1    2    0    0 +4.5326454792e-01 -1.3027177852e+02 +3.0907916192e+02 3.3541149363e+02 0.0000000000e+00 0.0000e+00 1.0000e+00
       13  1    1    2    0    0 -4.5326454792e-01 +1.3027177852e+02 +1.2311805885e+01 1.3085305610e+02 0.0000000000e+00 0.0000e+00 -1.0000e+00
<mgrwt>
<rscale>  0 0.33780242E+03</rscale>
<asrwt>0</asrwt>
<pdfrwt beam="1">  1        2 0.60588885E-01 0.33780242E+03</pdfrwt>
<pdfrwt beam="2">  1       -2 0.11144122E-01 0.33780242E+03</pdfrwt>
<totfact> 0.48589318E+03</totfact>
</mgrwt>
<rwgt>
<wgt id='morphing_basis_vector_1'> +3.5566658e-04 </wgt>
<wgt id='morphing_basis_vector_2'> +3.5428676e-04 </wgt>
<wgt id='morphing_basis_vector_3'> +8.7669135e-05 </wgt>
<wgt id='morphing_basis_vector_4'> +5.4341342e-05 </wgt>
<wgt id='morphing_basis_vector_5'> +1.5638982e-05 </wgt>
</rwgt>
</event>
<event>
 4      1 +5.5534000e-05 3.21052700e+02 7.81860800e-03 9.92356800e-02
        2 -1    0    0  501    0 +0.0000000000e+00 +0.0000000000e+00 +2.5359701748e+02 2.5359701748e+02 0.0000000000e+00 0.0000e+00 -1.0000e+00
       -2 -1    0    0    0  501 -0.0000000000e+00 -0.0000000000e+00 -1.0161284302e+02 1.0161284302e+02 0.0000000000e+00 0.0000e+00 1.0000e+00
      -13  1    1    2    0    0 +7.7691083253e+01 +4.2201304697e+01 -7.2247215787e+01 1.1417755788e+02 0.0000000000e+00 0.0000e+00 1.0000e+00
       13  1    1    2    0    0 -7.7691083253e+01 -4.2201304697e+01 +2.2423139025e+02 2.4103230262e+02 0.0000000000e+00 0.0000e+00 -1.0000e+00
<mgrwt>
<rscale>  0 0.32105273E+03</rscale>
<asrwt>0</asrwt>
<pdfrwt beam="1">  1        2 0.39014926E-01 0.32105273E+03</pdfrwt>
<pdfrwt beam="2">  1       -2 0.15632745E-01 0.32105273E+03</pdfrwt>
<totfact> 0.46258007E+03</totfact>
</mgrwt>
<rwgt>
<wgt id='morphing_basis_vector_1'> +2.5751130e-04 </wgt>
<wgt id='morphing_basis_vector_2'> +1.4129589e-04 </wgt>
<wgt id='morphing_basis_vector_3'> +1.5280706e-04 </wgt>
<wgt id='morphing_basis_vector_4'> +2.5569003e-05 </wgt>
<wgt id='morphing_basis_vector_5'> +5.4819083e-06 </wgt>
</rwgt>
</event>
<event>
 4      1 +5.5534000e-05 3.37159800e+02 7.81860800e-03 9.86274700e-02
        2 -1    0    0  501    0 +0.0000000000e+00 +0.0000000000e+00 +4.3857343643e+02 4.3857343643e+02 0.0000000000e+00 0.0000e+00 -1.0000e+00
       -2 -1    0    0    0  501 -0.0000000000e+00 -0.0000000000e+00 -6.4799136896e+01 6.4799136896e+01 0.0000000000e+00 0.0000e+00 1.0000e+00
      -13  1    1    2    0    0 -6.1458536832e+01 -4.9923260904e+01 -3.5309583620e+01 8.6696311480e+01 0.0000000000e+00 0.0000e+00 1.0000e+00
       13  1    1    2    0    0 +6.1458536832e+01 +4.9923260904e+01 +4.0908388316e+02 4.1667626185e+02 0.0000000000e+00 0.0000e+00 -1.0000e+00
<mgrwt>
<rscale>  0 0.33715978E+03</rscale>
<asrwt>0</asrwt>
<pdfrwt beam="1">  1        2 0.67472835E-01 0.33715978E+03</pdfrwt>
<pdfrwt beam="2">  1       -2 0.99690983E-02 0.33715978E+03</pdfrwt>
<totfact> 0.51283723E+03</totfact>
</mgrwt>
<rwgt>
<wgt id='morphing_basis_vector_1'> +2.8772556e-04 </wgt>
<wgt id='morphing_basis_vector_2'> +1.5636930e-04 </wgt>
<wgt id='morphing_basis_vector_3'> +1.7279699e-04 </wgt>
<wgt id='morphing_basis_vector_4'> +2.9497893e-05 </wgt>
<wgt id='morphing_basis_vector_5'> +1.1434305e-05 </wgt>
</rwgt>
</event>
<event>
 4      1 +5.5534000e-05 3.59282700e+02 7.81860800e-03 9.78496300e-02
        2 -1    0    0  501    0 +0.0000000000e+00 +0.0000000000e+00 +6.8810548076e+02 6.8810548076e+02 0.0000000000e+00 0.0000e+00 -1.0000e+00
       -2 -1    0    0    0  501 -0.0000000000e+00 -0.0000000000e+00 -4.6898343329e+01 4.6898343329e+01 0.0000000000e+00 0.0000e+00 1.0000e+00
      -13  1    1    2    0    0 -7.2823660461e+01 -1.1854501411e+02 +8.8117354170e+01 1.6468416439e+02 0.0000000000e+00 0.0000e+00 1.0000e+00
       13  1    1    2    0    0 +7.2823660461e+01 +1.1854501411e+02 +5.5308978326e+02 5.7031965970e+02 0.0000000000e+00 0.0000e+00 -1.0000e+00
<mgrwt>
<rscale>  0 0.35928266E+03</rscale>
<asrwt>0</asrwt>
<pdfrwt beam="1">  1        2 0.10586237E+00 0.35928266E+03</pdfrwt>
<pdfrwt beam="2">  1       -2 0.72151302E-02 0.35928266E+03</pdfrwt>
<totfact> 0.50613004E+03</totfact>
</mgrwt>
<rwgt>
<wgt id='morphing_basis_vector_1'> +3.3518912e-04 </wgt>
<wgt id='morphing_basis_vector_2'> +1.8201286e-04 </wgt>
<wgt id='morphing_basis_vector_3'> +2.0448972e-04 </wgt>
<wgt id='morphing_basis_vector_4'> +3.7785145e-05 </wgt>
<wgt id='morphing_basis_vector_5'> +2.3977833e-05 </wgt>
</rwgt>
</event>
<event>
 4      1 +5.5534000e-05 3.35467700e+02 7.81860800e-03 9.86896100e-02
        2 -1    0    0  501    0 +0.0000000000e+00 +0.0000000000e+00 +5.4169808496e+01 5.4169808496e+01 0.0000000000e+00 0.0000e+00 -1.0000e+00
       -2 -1    0    0    0  501 -0.0000000000e+00 -0.0000000000e+00 -5.1937865452e+02 5.1937865452e+02 0.0000000000e+00 0.0000e+00 1.0000e+00
      -13  1    1    2    0    0 -3.3155338146e+00 -1.6139258682e+02 -3.1050518757e+02 3.4996004251e+02 0.0000000000e+00 0.0000e+00 1.0000e+00
       13  1    1    2    0    0 +3.3155338146e+00 +1.6139258682e+02 -1.5470365845e+02 2.2358842050e+02 0.0000000000e+00 0.0000e+00 -1.0000e+00
<mgrwt>
<rscale>  0 0.33546769E+03</rscale>
<asrwt>0</asrwt>
<pdfrwt beam="1">  1        2 0.83338170E-02 0.33546769E+03</pdfrwt>
<pdfrwt beam="2">  1       -2 0.79904406E-01 0.33546769E+03</pdfrwt>
<totfact> 0.14952120E+03</totfact>
</mgrwt>
<rwgt>
<wgt id='morphing_basis_vector_1'> +2.8729199e-04 </wgt>
<wgt id='morphing_basis_vector_2'> +1.6323349e-04 </wgt>
<wgt id='morphing_basis_vector_3'> +1.6679931e-04 </wgt>
<wgt id='morphing_basis_vector_4'> +3.0111530e-05 </wgt>
<wgt id='morphing_basis_vector_5'> +1.0858771e-05 </wgt>
</rwgt>
</event>
<event>
 4      1 +5.5534000e-05 3.17683800e+02 7.81860800e-03 9.93678100e-02
        2 -1    0    0  501    0 +0.0000000000e+00 +0.0000000000e+00 +2.2317935208e+02 2.2317935208e+02 0.0000000000e+00 0.0000e+00 -1.0000e+00
       -2 -1    0    0    0  501 -0.0000000000e+00 -0.0000000000e+00 -1.1305144167e+02 1.1305144167e+02 0.0000000000e+00 0.0000e+00 1.0000e+00
      -13  1    1    2    0    0 -1.1454573317e+02 -1.0989990868e+02 +4.9073794943e+01 1.6615339981e+02 0.0000000000e+00 0.0000e+00 1.0000e+00
       13  1    1    2    0    0 +1.1454573317e+02 +1.0989990868e+02 +6.1054115466e+01 1.7007739395e+02 0.0000000000e+00 0.0000e+00 -1.0000e+00
<mgrwt>
<rscale>  0 0.31768379E+03</rscale>
<asrwt>0</asrwt>
<pdfrwt beam="1">  1        2 0.34335285E-01 0.31768379E+03</pdfrwt>
<pdfrwt beam="2">  1       -2 0.17392530E-01 0.31768379E+03</pdfrwt>
<totfact> 0.44952652E+03</totfact>
</mgrwt>
<rwgt>
<wgt id='morphing_basis_vector_1'> +2.5791350e-04 </wgt>
<wgt id='morphing_basis_vector_2'> +1.5678264e-04 </wgt>
<wgt id='morphing_basis_vector_3'> +1.4017475e-04 </wgt>
<wgt id='morphing_basis_vector_4'> +2.7862834e-05 </wgt>
<wgt id='morphing_basis_vector_5'> +4.8481515e-06 </wgt>
</rwgt>
</event>
<event>
 4      1 +5.5534000e-05 3.41078900e+02 7.81860800e-03 9.84850400e-02
        2 -1    0    0  501    0 +0.0000000000e+00 +0.0000000000e+00 +1.3937167741e+03 1.3937167741e+03 0.0000000000e+00 0.0000e+00 -1.0000e+00
       -2 -1    0    0    0  501 -0.0000000000e+00 -0.0000000000e+00 -2.0867724202e+01 2.0867724202e+01 0.0000000000e+00 0.0000e+00 1.0000e+00
      -13  1    1    2    0    0 -1.6493699242e+02 +4.3339330487e+01 +6.8190364371e+02 7.0290475054e+02 0.0000000000e+00 0.0000e+00 1.0000e+00
       13  1    1    2    0    0 +1.6493699242e+02 -4.3339330487e+01 +6.9094540623e+02 7.1167974780e+02 0.0000000000e+00 0.0000e+00 -1.0000e+00
<mgrwt>
<rscale>  0 0.34107886E+03</rscale>
<asrwt>0</asrwt>
<pdfrwt beam="1">  1        2 0.21441789E+00 0.34107886E+03</pdfrwt>
<pdfrwt beam="2">  1       -2 0.32104202E-02 0.34107886E+03</pdfrwt>
<totfact> 0.63397981E+03</totfact>
</mgrwt>
<rwgt>
<wgt id='morphing_basis_vector_1'> +3.0414423e-04 </wgt>
<wgt id='morphing_basis_vector_2'> +1.8578049e-04 </wgt>
<wgt id='morphing_basis_vector_3'> +1.6718034e-04 </wgt>
<wgt id='morphing_basis_vector_4'> +3.3735848e-05 </wgt>
<wgt id='morphing_basis_vector_5'> +1.3779689e-05 </wgt>
</rwgt>
</event>
<event>
 4      1 +5.5534000e-05 3.26249300e+02 7.81860800e-03 9.90352900e-02
        2 -1    0    0  501    0 +0.0000000000e+00 +0.0000000000e+00 +4.1031135454e+02 4.1031135454e+02 0.0000000000e+00 0.0000e+00 1.0000e+00
       -2 -1    0    0    0  501 -0.0000000000e+00 -0.0000000000e+00 -6.4852337638e+01 6.4852337638e+01 0.0000000000e+00 0.0000e+00 -1.0000e+00
      -13  1    1    2    0    0 +1.9822495586e+00 +9.0829204869e+01 -2.4594555209e+01 9.4121017400e+01 0.0000000000e+00 0.0000e+00 -1.0000e+00
       13  1    1    2    0    0 -1.9822495586e+00 -9.0829204869e+01 +3.7005357212e+02 3.8104267478e+02 0.0000000000e+00 0.0000e+00 1.0000e+00
<mgrwt>
<rscale>  0 0.32624929E+03</rscale>
<asrwt>0</asrwt>
<pdfrwt beam="1">  1        2 0.63124822E-01 0.32624929E+03</pdfrwt>
<pdfrwt beam="2">  1       -2 0.99772830E-02 0.32624929E+03</pdfrwt>
<totfact> 0.55061960E+03</totfact>
</mgrwt>
<rwgt>
<wgt id='morphing_basis_vector_1'> +2.6693257e-04 </wgt>
<wgt id='morphing_basis_vector_2'> +1.4600266e-04 </wgt>
<wgt id='morphing_basis_vector_3'> +1.5892643e-04 </wgt>
<wgt id='morphing_basis_vector_4'> +2.6674972e-05 </wgt>
<wgt id='morphing_basis_vector_5'> +7.1369641e-06 </wgt>
</rwgt>
</event>
<event>
 4      1 +5.5534000e-05 3.03664500e+02 7.81860800e-03 9.99371500e-02
        2 -1    0    0  501    0 +0.0000000000e+00 +0.0000000000e+00 +1.0625612461e+02 1.0625612461e+02 0.0000000000e+00 0.0000e+00 1.0000e+00
       -2 -1    0    0    0  501 -0.0000000000e+00 -0.0000000000e+00 -2.1695720499e+02 2.1695720499e+02 0.0000000000e+00 0.0000e+00 -1.0000e+00
      -13  1    1    2    0    0 +1.4368697032e+02 +2.4297236435e+01 -1.0071758777e+02 1.7714495088e+02 0.0000000000e+00 0.0000e+00 -1.0000e+00
       13  1    1    2    0    0 -1.4368697032e+02 -2.4297236435e+01 -9.9834925993e+00 1.4606837872e+02 0.0000000000e+00 0.0000e+00 1.0000e+00
<mgrwt>
<rscale>  0 0.30366450E+03</rscale>
<asrwt>0</asrwt>
<pdfrwt beam="1">  1        2 0.16347096E-01 0.30366450E+03</pdfrwt>
<pdfrwt beam="2">  1       -2 0.33378031E-01 0.30366450E+03</pdfrwt>
<totfact> 0.35506191E+03</totfact>
</mgrwt>
<rwgt>
<wgt id='morphing_basis_vector_1'> +2.3036274e-04 </wgt>
<wgt id='morphing_basis_vector_2'> +1.3297103e-04 </wgt>
<wgt id='morphing_basis_vector_3'> +1.3123656e-04 </wgt>
<wgt id='morphing_basis_vector_4'> +2.4037700e-05 </wgt>
<wgt id='morphing_basis_vector_5'> +1.7094322e-06 </wgt>
</rwgt>
</event>
<event>
 4      1 +5.5534000e-05 3.36662100e+02 7.81860800e-03 9.86457000e-02
        2 -1    0    0  501    0 +0.0000000000e+00 +0.0000000000e+00 +3.8553733437e+02 3.8553733437e+02 0.0000000000e+00 0.0000e+00 1.0000e+00
       -2 -1    0    0    0  501 -0.0000000000e+00 -0.0000000000e+00 -7.3495706855e+01 7.3495706855e+01 0.0000000000e+00 0.0000e+00 -1.0000e+00
      -13  1    1    2    0    0 -1.0246879185e+02 -8.2428225790e+01 +1.2750771044e+01 1.3212436517e+02 0.0000000000e+00 0.0000e+00 -1.0000e+00
       13  1    1    2    0    0 +1.0246879185e+02 +8.2428225790e+01 +2.9929085647e+02 3.2690867605e+02 0.0000000000e+00 0.0000e+00 1.0000e+00
<mgrwt>
<rscale>  0 0.33666208E+03</rscale>
<asrwt>0</asrwt>
<pdfrwt beam="1">  1        2 0.59313435E-01 0.33666208E+03</pdfrwt>
<pdfrwt beam="2">  1       -2 0.11307032E-01 0.33666208E+03</pdfrwt>
<totfact> 0.48628152E+03</totfact>
</mgrwt>
<rwgt>
<wgt id='morphing_basis_vector_1'> +2.8720170e-04 </wgt>
<wgt id='morphing_basis_vector_2'> +1.5722772e-04 </wgt>
<wgt id='morphing_basis_vector_3'> +1.7154341e-04 </wgt>
<wgt id='morphing_basis_vector_4'> +2.9524420e-05 </wgt>
<wgt id='morphing_basis_vector_5'> +1.1239547e-05 </wgt>
</rwgt>
</event>
<event>
 4      1 +5.5534000e-05 3.08362400e+02 7.81860800e-03 9.97428000e-02
        2 -1    0    0  501    0 +0.0000000000e+00 +0.0000000000e+00 +2.7326459851e+02 2.7326459851e+02 0.0000000000e+00 0.0000e+00 1.0000e+00
       -2 -1    0    0    0  501 -0.0000000000e+00 -0.0000000000e+00 -8.6992045030e+01 8.6992045030e+01 0.0000000000e+00 0.0000e+00 -1.0000e+00
      -13  1    1    2    0    0 +1.0690188071e+02 +8.3158567614e+01 +1.7921383503e+02 2.2463516673e+02 0.0000000000e+00 0.0000e+00 1.0000e+00
       13  1    1    2    0    0 -1.0690188071e+02 -8.3158567614e+01 +7.0587184512e+00 1.3562147681e+02 0.0000000000e+00 0.0000e+00 -1.0000e+00
<mgrwt>
<rscale>  0 0.30836242E+03</rscale>
<asrwt>0</asrwt>
<pdfrwt beam="1">  1        2 0.42040707E-01 0.30836242E+03</pdfrwt>
<pdfrwt beam="2">  1       -2 0.13383392E-01 0.30836242E+03</pdfrwt>
<totfact> 0.54378159E+03</totfact>
</mgrwt>
<rwgt>
<wgt id='morphing_basis_vector_1'> +2.7042706e-04 </wgt>
<wgt id='morphing_basis_vector_2'> +2.3024938e-04 </wgt>
<wgt id='morphing_basis_vector_3'> +8.9416507e-05 </wgt>
<wgt id='morphing_basis_vector_4'> +4.0872030e-05 </wgt>
<wgt id='morphing_basis_vector_5'> +3.9047318e-06 </wgt>
</rwgt>
</event>
<event>
 4      1 +5.5534000e-05 3.59498000e+02 7.81860800e-03 9.78423600e-02
        2 -1    0    0  501    0 +0.0000000000e+00 +0.0000000000e+00 +5.2913228114e+01 5.2913228114e+01 0.0000000000e+00 0.0000e+00 1.0000e+00
       -2 -1    0    0    0  501 -0.0000000000e+00 -0.0000000000e+00 -6.1061673528e+02 6.1061673528e+02 0.0000000000e+00 0.0000e+00 -1.0000e+00
      -13  1    1    2    0    0 -4.9703006520e+01 +1.6781100539e+02 -3.5447598691e+02 3.9532789894e+02 0.0000000000e+00 0.0000e+00 -1.0000e+00
       13  1    1    2    0    0 +4.9703006520e+01 -1.6781100539e+02 -2.0322752026e+02 2.6820206446e+02 0.0000000000e+00 0.0000e+00 1.0000e+00
<mgrwt>
<rscale>  0 0.35949800E+03</rscale>
<asrwt>0</asrwt>
<pdfrwt beam="1">  1        2 0.81404965E-02 0.35949800E+03</pdfrwt>
<pdfrwt beam="2">  1       -2 0.93941037E-01 0.35949800E+03</pdfrwt>
<totfact> 0.10675675E+03</totfact>
</mgrwt>
<rwgt>
<wgt id='morphing_basis_vector_1'> +3.3935961e-04 </wgt>
<wgt id='morphing_basis_vector_2'> +1.9331758e-04 </wgt>
<wgt id='morphing_basis_vector_3'> +2.0051690e-04 </wgt>
<wgt id='morphing_basis_vector_4'> +3.8855475e-05 </wgt>
<wgt id='morphing_basis_vector_5'> +2.4363753e-05 </wgt>
</rwgt>
</event>
<event>
 4      1 +5.5534000e-05 3.46349000e+02 7.81860800e-03 9.82967600e-02
        2 -1    0    0  501    0 +0.0000000000e+00 +0.0000000000e+00 +8.7189912546e+02 8.7189912546e+02 0.0000000000e+00 0.0000e+00 -1.0000e+00
       -2 -1    0    0    0  501 -0.0000000000e+00 -0.0000000000e+00 -3.4395492668e+01 3.4395492668e+01 0.0000000000e+00 0.0000e+00 1.0000e+00
      -13  1    1    2    0    0 +1.2288415766e+02 -5.1896625892e+01 +1.2977864107e+02 1.8610822566e+02 0.0000000000e+00 0.0000e+00 1.0000e+00
       13  1    1    2    0    0 -1.2288415766e+02 +5.1896625892e+01 +7.0772499173e+02 7.2018639247e+02 0.0000000000e+00 0.0000e+00 -1.0000e+00
<mgrwt>
<rscale>  0 0.34634896E+03</rscale>
<asrwt>0</asrwt>
<pdfrwt beam="1">  1        2 0.13413831E+00 0.34634896E+03</pdfrwt>
<pdfrwt beam="2">  1       -2 0.52916149E-02 0.34634896E+03</pdfrwt>
<totfact> 0.60366776E+03</totfact>
</mgrwt>
<rwgt>
<wgt id='morphing_basis_vector_1'> +3.0688623e-04 </wgt>
<wgt id='morphing_basis_vector_2'> +1.6723857e-04 </wgt>
<wgt id='morphing_basis_vector_3'> +1.8492945e-04 </wgt>
<wgt id='morphing_basis_vector_4'> +3.2622499e-05 </wgt>
<wgt id='morphing_basis_vector_5'> +1.6010250e-05 </wgt>
</rwgt>
</event>
<event>
 4      1 +5.5534000e-05 3.46292900e+02 7.81860800e-03 9.82987400e-02
        2 -1    0    0  501    0 +0.0000000000e+00 +0.0000000000e+00 +9.6782764653e+01 9.6782764653e+01 0.0000000000e+00 0.0000e+00 -1.0000e+00
       -2 -1    0    0    0  501 -0.0000000000e+00 -0.0000000000e+00 -3.0976270906e+02 3.0976270906e+02 0.0000000000e+00 0.0000e+00 1.0000e+00
      -13  1    1    2    0    0 +1.4243326451e+02 -3.7275811164e+00 -2.2198704210e+02 2.6377902980e+02 0.0000000000e+00 0.0000e+00 1.0000e+00
       13  1    1    2    0    0 -1.4243326451e+02 +3.7275811164e+00 +9.0070976922e+00 1.4276644392e+02 0.0000000000e+00 0.0000e+00 -1.0000e+00
<mgrwt>
<rscale>  0 0.34629289E+03</rscale>
<asrwt>0</asrwt>
<pdfrwt beam="1">  1        2 0.14889656E-01 0.34629289E+03</pdfrwt>
<pdfrwt beam="2">  1       -2 0.47655801E-01 0.34629289E+03</pdfrwt>
<totfact> 0.20797743E+03</totfact>
</mgrwt>
<rwgt>
<wgt id='morphing_basis_vector_1'> +3.0703503e-04 </wgt>
<wgt id='morphing_basis_vector_2'> +1.6797120e-04 </wgt>
<wgt id='morphing_basis_vector_3'> +1.8451733e-04 </wgt>
<wgt id='morphing_basis_vector_4'> +3.2690414e-05 </wgt>
<wgt id='morphing_basis_vector_5'> +1.5996159e-05 </wgt>
</rwgt>
</event>
<event>
 4      1 +5.5534000e-05 3.29102700e+02 7.81860800e-03 9.89269800e-02
        2 -1    0    0  501    0 +0.0000000000e+00 +0.0000000000e+00 +3.1892926567e+02 3.1892926567e+02 0.0000000000e+00 0.0000e+00 1.0000e+00
       -2 -1    0    0    0  501 -0.0000000000e+00 -0.0000000000e+00 -8.4900171454e+01 8.4900171454e+01 0.0000000000e+00 0.0000e+00 -1.0000e+00
      -13  1    1    2    0    0 -1.0710782697e+02 -6.3333171956e-01 -3.6268344937e+01 1.1308351141e+02 0.0000000000e+00 0.0000e+00 -1.0000e+00
       13  1    1    2    0    0 +1.0710782697e+02 +6.3333171956e-01 +2.7029743915e+02 2.9074592572e+02 0.0000000000e+00 0.0000e+00 1.0000e+00
<mgrwt>
<rscale>  0 0.32910272E+03</rscale>
<asrwt>0</asrwt>
<pdfrwt beam="1">  1        2 0.49066040E-01 0.32910272E+03</pdfrwt>
<pdfrwt beam="2">  1       -2 0.13061565E-01 0.32910272E+03</pdfrwt>
<totfact> 0.47777885E+03</totfact>
</mgrwt>
<rwgt>
<wgt id='morphing_basis_vector_1'> +2.7232968e-04 </wgt>
<wgt id='morphing_basis_vector_2'> +1.4892374e-04 </wgt>
<wgt id='morphing_basis_vector_3'> +1.6229387e-04 </wgt>
<wgt id='morphing_basis_vector_4'> +2.7384346e-05 </wgt>
<wgt id='morphing_basis_vector_5'> +8.1560924e-06 </wgt>
</rwgt>
</event>
<event>
 4      1 +5.5534000e-05 3.46102900e+02 7.81860800e-03 9.83054700e-02
        2 -1    0    0  501    0 +0.0000000000e+00 +0.0000000000e+00 +6.1635434442e+02 6.1635434442e+02 0.0000000000e+00 0.0000e+00 1.0000e+00
       -2 -1    0    0    0  501 -0.0000000000e+00 -0.0000000000e+00 -4.8587006137e+01 4.8587006137e+01 0.0000000000e+00 0.0000e+00 -1.0000e+00
      -13  1    1    2    0    0 -1.3205071651e+02 +6.9118787469e+01 +1.1494683340e+02 1.8822213743e+02 0.0000000000e+00 0.0000e+00 -1.0000e+00
       13  1    1    2    0    0 +1.3205071651e+02 -6.9118787469e+01 +4.5282050489e+02 4.7671921313e+02 0.0000000000e+00 0.0000e+00 1.0000e+00
<mgrwt>
<rscale>  0 0.34610295E+03</rscale>
<asrwt>0</asrwt>
<pdfrwt beam="1">  1        2 0.94823740E-01 0.34610295E+03</pdfrwt>
<pdfrwt beam="2">  1       -2 0.74749245E-02 0.34610295E+03</pdfrwt>
<totfact> 0.54488159E+03</totfact>
</mgrwt>
<rwgt>
<wgt id='morphing_basis_vector_1'> +3.0693705e-04 </wgt>
<wgt id='morphing_basis_vector_2'> +1.6865966e-04 </wgt>
<wgt id='morphing_basis_vector_3'> +1.8387077e-04 </wgt>
<wgt id='morphing_basis_vector_4'> +3.2722876e-05 </wgt>
<wgt id='morphing_basis_vector_5'> +1.5911610e-05 </wgt>
</rwgt>
</event>
<event>
 4      1 +5.5534000e-05 3.08678400e+02 7.81860800e-03 9.97298600e-02
        2 -1    0    0  501    0 +0.0000000000e+00 +0.0000000000e+00 +3.7195426213e+02 3.7195426213e+02 0.0000000000e+00 0.0000e+00 -1.0000e+00
       -2 -1    0    0    0  501 -0.0000000000e+00 -0.0000000000e+00 -6.4041726115e+01 6.4041726115e+01 0.0000000000e+00 0.0000e+00 1.0000e+00
      -13  1    1    2    0    0 -4.6630596300e+01 +1.0124509963e+02 +3.1758276643e+00 1.1151263871e+02 0.0000000000e+00 0.0000e+00 1.0000e+00
       13  1    1    2    0    0 +4.6630596300e+01 -1.0124509963e+02 +3.0473670835e+02 3.2448334954e+02 0.0000000000e+00 0.0000e+00 -1.0000e+00
<mgrwt>
<rscale>  0 0.30867843E+03</rscale>
<asrwt>0</asrwt>
<pdfrwt beam="1">  1        2 0.57223731E-01 0.30867843E+03</pdfrwt>
<pdfrwt beam="2">  1       -2 0.98525735E-02 0.30867843E+03</pdfrwt>
<totfact> 0.62430545E+03</totfact>
</mgrwt>
<rwgt>
<wgt id='morphing_basis_vector_1'> +2.3652660e-04 </wgt>
<wgt id='morphing_basis_vector_2'> +1.3139197e-04 </wgt>
<wgt id='morphing_basis_vector_3'> +1.3907485e-04 </wgt>
<wgt id='morphing_basis_vector_4'> +2.3627711e-05 </wgt>
<wgt id='morphing_basis_vector_5'> +2.4937275e-06 </wgt>
</rwgt>
</event>
<event>
 4      1 +5.5534000e-05 3.23696000e+02 7.81860800e-03 9.91332400e-02
        2 -1    0    0  501    0 +0.0000000000e+00 +0.0000000000e+00 +9.5156845786e+02 9.5156845786e+02 0.0000000000e+00 0.0000e+00 1.0000e+00
       -2 -1    0    0    0  501 -0.0000000000e+00 -0.0000000000e+00 -2.7527991799e+01 2.7527991799e+01 0.0000000000e+00 0.0000e+00 -1.0000e+00
      -13  1    1    2    0    0 -3.8099668386e+01 +1.5546038443e+02 +5.3456691992e+02 5.5801550851e+02 0.0000000000e+00 0.0000e+00 -1.0000e+00
       13  1    1    2    0    0 +3.8099668386e+01 -1.5546038443e+02 +3.8947354614e+02 4.2108094116e+02 0.0000000000e+00 0.0000e+00 1.0000e+00
<mgrwt>
<rscale>  0 0.32369596E+03</rscale>
<asrwt>0</asrwt>
<pdfrwt beam="1">  1        2 0.14639512E+00 0.32369596E+03</pdfrwt>
<pdfrwt beam="2">  1       -2 0.42350764E-02 0.32369596E+03</pdfrwt>
<totfact> 0.74931255E+03</totfact>
</mgrwt>
<rwgt>
<wgt id='morphing_basis_vector_1'> +2.7525404e-04 </wgt>
<wgt id='morphing_basis_vector_2'> +1.8165505e-04 </wgt>
<wgt id='morphing_basis_vector_3'> +1.3819995e-04 </wgt>
<wgt id='morphing_basis_vector_4'> +3.1765703e-05 </wgt>
<wgt id='morphing_basis_vector_5'> +6.9741075e-06 </wgt>
</rwgt>
</event>
<event>
 4      1 +5.5534000e-05 3.03245700e+02 7.81860800e-03 9.99546600e-02
        2 -1    0    0  501    0 +0.0000000000e+00 +0.0000000000e+00 +6.6194086911e+02 6.6194086911e+02 0.0000000000e+00 0.0000e+00 1.0000e+00
       -2 -1    0    0    0  501 -0.0000000000e+00 -0.0000000000e+00 -3.4730434847e+01 3.4730434847e+01 0.0000000000e+00 0.0000e+00 -1.0000e+00
      -13  1    1    2    0    0 +1.1986823488e+01 +1.4433921791e+02 +2.1055539264e+02 2.5556030039e+02 0.0000000000e+00 0.0000e+00 -1.0000e+00
       13  1    1    2    0    0 -1.1986823488e+01 -1.4433921791e+02 +4.1665504163e+02 4.4111100357e+02 0.0000000000e+00 0.0000e+00 1.0000e+00
<mgrwt>
<rscale>  0 0.30324574E+03</rscale>
<asrwt>0</asrwt>
<pdfrwt beam="1">  1        2 0.10183705E+00 0.30324574E+03</pdfrwt>
<pdfrwt beam="2">  1       -2 0.53431443E-02 0.30324574E+03</pdfrwt>
<totfact> 0.82937798E+03</totfact>
</mgrwt>
<rwgt>
<wgt id='morphing_basis_vector_1'> +2.2955716e-04 </wgt>
<wgt id='morphing_basis_vector_2'> +1.3223957e-04 </wgt>
<wgt id='morphing_basis_vector_3'> +1.3103007e-04 </wgt>
<wgt id='morphing_basis_vector_4'> +2.3922433e-05 </wgt>
<wgt id='morphing_basis_vector_5'> +1.6402487e-06 </wgt>
</rwgt>
</event>
<event>
 4      1 +5.5534000e-05 3.15427500e+02 7.81860800e-03 9.94573100e-02
        2 -1    0    0  501    0 +0.0000000000e+00 +0.0000000000e+00 +5.5912017796e+02 5.5912017796e+02 0.0000000000e+00 0.0000e+00 -1.0000e+00
       -2 -1    0    0    0  501 -0.0000000000e+00 -0.0000000000e+00 -4.4487087450e+01 4.4487087450e+01 0.0000000000e+00 0.0000e+00 1.0000e+00
      -13  1    1    2    0    0 -3.9826549593e+00 +1.1964054910e+02 +6.0819669187e+01 1.3427119829e+02 0.0000000000e+00 0.0000e+00 1.0000e+00
       13  1    1    2    0    0 +3.9826549593e+00 -1.1964054910e+02 +4.5381342133e+02 4.6933606713e+02 0.0000000000e+00 0.0000e+00 -1.0000e+00
<mgrwt>
<rscale>  0 0.31542751E+03</rscale>
<asrwt>0</asrwt>
<pdfrwt beam="1">  1        2 0.86018484E-01 0.31542751E+03</pdfrwt>
<pdfrwt beam="2">  1       -2 0.68441677E-02 0.31542751E+03</pdfrwt>
<totfact> 0.69409410E+03</totfact>
</mgrwt>
<rwgt>
<wgt id='morphing_basis_vector_1'> +2.4795644e-04 </wgt>
<wgt id='morphing_basis_vector_2'> +1.3724798e-04 </wgt>
<wgt id='morphing_basis_vector_3'> +1.4609645e-04 </wgt>
<wgt id='morphing_basis_vector_4'> +2.4677528e-05 </wgt>
<wgt id='morphing_basis_vector_5'> +3.9735019e-06 </wgt>
</rwgt>
</event>
<event>
 4      1 +5.5534000e-05 3.33952000e+02 7.81860800e-03 9.87456100e-02
        2 -1    0    0  501    0 +0.0000000000e+00 +0.0000000000e+00 +1.3659002486e+02 1.3659002486e+02 0.0000000000e+00 0.0000e+00 1.0000e+00
       -2 -1    0    0    0  501 -0.0000000000e+00 -0.0000000000e+00 -2.0412164360e+02 2.0412164360e+02 0.0000000000e+00 0.0000e+00 -1.0000e+00
      -13  1    1    2    0    0 -1.1139148332e+02 -9.6516952450e+00 -1.6029123504e+02 1.9543412651e+02 0.0000000000e+00 0.0000e+00 -1.0000e+00
       13  1    1    2    0    0 +1.1139148332e+02 +9.6516952450e+00 +9.2759616301e+01 1.4527754194e+02 0.0000000000e+00 0.0000e+00 1.0000e+00
<mgrwt>
<rscale>  0 0.33395197E+03</rscale>
<asrwt>0</asrwt>
<pdfrwt beam="1">  1        2 0.21013850E-01 0.33395197E+03</pdfrwt>
<pdfrwt beam="2">  1       -2 0.31403330E-01 0.33395197E+03</pdfrwt>
<totfact> 0.29418204E+03</totfact>
</mgrwt>
<rwgt>
<wgt id='morphing_basis_vector_1'> +2.8161017e-04 </wgt>
<wgt id='morphing_basis_vector_2'> +1.5367464e-04 </wgt>
<wgt id='morphing_basis_vector_3'> +1.6838418e-04 </wgt>
<wgt id='morphing_basis_vector_4'> +2.8650200e-05 </wgt>
<wgt id='morphing_basis_vector_5'> +1.0059421e-05 </wgt>
</rwgt>
</event>
<event>
 4      1 +5.5534000e-05 3.04948300e+02 7.81860800e-03 9.98836700e-02
        2 -1    0    0  501    0 +0.0000000000e+00 +0.0000000000e+00 +1.4737038226e+02 1.4737038226e+02 0.0000000000e+00 0.0000e+00 1.0000e+00
       -2 -1    0    0    0  501 -0.0000000000e+00 -0.0000000000e+00 -1.5775472298e+02 1.5775472298e+02 0.0000000000e+00 0.0000e+00 -1.0000e+00
      -13  1    1    2    0    0 +4.8485765306e+01 -9.7759756782e+01 -1.1174584106e+02 1.5618889999e+02 0.0000000000e+00 0.0000e+00 -1.0000e+00
       13  1    1    2    0    0 -4.8485765306e+01 +9.7759756782e+01 +1.0136150035e+02 1.4893620525e+02 0.0000000000e+00 0.0000e+00 1.0000e+00
<mgrwt>
<rscale>  0 0.30494835E+03</rscale>
<asrwt>0</asrwt>
<pdfrwt beam="1">  1        2 0.22672367E-01 0.30494835E+03</pdfrwt>
<pdfrwt beam="2">  1       -2 0.24269957E-01 0.30494835E+03</pdfrwt>
<totfact> 0.41700297E+03</totfact>
</mgrwt>
<rwgt>
<wgt id='morphing_basis_vector_1'> +2.3046261e-04 </wgt>
<wgt id='morphing_basis_vector_2'> +1.2839109e-04 </wgt>
<wgt id='morphing_basis_vector_3'> +1.3533268e-04 </wgt>
<wgt id='morphing_basis_vector_4'> +2.3163366e-05 </wgt>
<wgt id='morphing_basis_vector_5'> +1.8348496e-06 </wgt>
</rwgt>
</event>
<event>
 4      1 +5.5534000e-05 3.52491400e+02 7.81860800e-03 9.80818300e-02
        2 -1    0    0  501    0 +0.0000000000e+00 +0.0000000000e+00 +3.3382999980e+02 3.3382999980e+02 0.0000000000e+00 0.0000e+00 -1.0000e+00
       -2 -1    0    0    0  501 -0.0000000000e+00 -0.0000000000e+00 -9.3049021497e+01 9.3049021497e+01 0.0000000000e+00 0.0000e+00 1.0000e+00
      -13  1    1    2    0    0 +3.8481579792e+01 +1.5590178950e+02 +3.2422790797e+01 1.6382135794e+02 0.0000000000e+00 0.0000e+00 1.0000e+00
       13  1    1    2    0    0 -3.8481579792e+01 -1.5590178950e+02 +2.0835818750e+02 2.6305766336e+02 0.0000000000e+00 0.0000e+00 -1.0000e+00
<mgrwt>
<rscale>  0 0.35249145E+03</rscale>
<asrwt>0</asrwt>
<pdfrwt beam="1">  1        2 0.51358461E-01 0.35249145E+03</pdfrwt>
<pdfrwt beam="2">  1       -2 0.14315234E-01 0.35249145E+03</pdfrwt>
<totfact> 0.39390683E+03</totfact>
</mgrwt>
<rwgt>
<wgt id='morphing_basis_vector_1'> +3.2131769e-04 </wgt>
<wgt id='morphing_basis_vector_2'> +1.7789019e-04 </wgt>
<wgt id='morphing_basis_vector_3'> +1.9241345e-04 </wgt>
<wgt id='morphing_basis_vector_4'> +3.5307622e-05 </wgt>
<wgt id='morphing_basis_vector_5'> +1.9638521e-05 </wgt>
</rwgt>
</event>
<event>
 4      1 +5.5534000e-05 3.20067100e+02 7.81860800e-03 9.92741500e-02
        2 -1    0    0  501    0 +0.0000000000e+00 +0.0000000000e+00 +3.9395877236e+02 3.9395877236e+02 0.0000000000e+00 0.0000e+00 1.0000e+00
       -2 -1    0    0    0  501 -0.0000000000e+00 -0.0000000000e+00 -6.5008689705e+01 6.5008689705e+01 0.0000000000e+00 0.0000e+00 -1.0000e+00
      -13  1    1    2    0    0 -1.5817560158e+01 -1.0101920328e+02 -1.2058959270e+01 1.0295869628e+02 0.0000000000e+00 0.0000e+00 -1.0000e+00
       13  1    1    2    0    0 +1.5817560158e+01 +1.0101920328e+02 +3.4100904193e+02 3.5600876579e+02 0.0000000000e+00 0.0000e+00 1.0000e+00
<mgrwt>
<rscale>  0 0.32006714E+03</rscale>
<asrwt>0</asrwt>
<pdfrwt beam="1">  1        2 0.60609041E-01 0.32006714E+03</pdfrwt>
<pdfrwt beam="2">  1       -2 0.10001337E-01 0.32006714E+03</pdfrwt>
<totfact> 0.57331822E+03</totfact>
</mgrwt>
<rwgt>
<wgt id='morphing_basis_vector_1'> +2.5583293e-04 </wgt>
<wgt id='morphing_basis_vector_2'> +1.4063623e-04 </wgt>
<wgt id='morphing_basis_vector_3'> +1.5157833e-04 </wgt>
<wgt id='morphing_basis_vector_4'> +2.5409248e-05 </wgt>
<wgt id='morphing_basis_vector_5'> +5.1989870e-06 </wgt>
</rwgt>
</event>
<event>
 4      1 +5.5534000e-05 3.02240500e+02 7.81860800e-03 9.99968000e-02
        2 -1    0    0  501    0 +0.0000000000e+00 +0.0000000000e+00 +3.5082618203e+02 3.5082618203e+02 0.0000000000e+00 0.0000e+00 -1.0000e+00
       -2 -1    0    0    0  501 -0.0000000000e+00 -0.0000000000e+00 -6.5095854020e+01 6.5095854020e+01 0.0000000000e+00 0.0000e+00 1.0000e+00
      -13  1    1    2    0    0 -1.0041015366e+02 +8.7782647812e+01 +2.4065111888e+02 2.7513806214e+02 0.0000000000e+00 0.0000e+00 1.0000e+00
       13  1    1    2    0    0 +1.0041015366e+02 -8.7782647812e+01 +4.5079209127e+01 1.4078397391e+02 0.0000000000e+00 0.0000e+00 -1.0000e+00
<mgrwt>
<rscale>  0 0.30224050E+03</rscale>
<asrwt>0</asrwt>
<pdfrwt beam="1">  1        2 0.53973258E-01 0.30224050E+03</pdfrwt>
<pdfrwt beam="2">  1       -2 0.10014747E-01 0.30224050E+03</pdfrwt>
<totfact> 0.64862865E+03</totfact>
</mgrwt>
<rwgt>
<wgt id='morphing_basis_vector_1'> +2.5822908e-04 </wgt>
<wgt id='morphing_basis_vector_2'> +2.1798237e-04 </wgt>
<wgt id='morphing_basis_vector_3'> +8.5869561e-05 </wgt>
<wgt id='morphing_basis_vector_4'> +3.9785958e-05 </wgt>
<wgt id='morphing_basis_vector_5'> +2.6410888e-06 </wgt>
</rwgt>
</event>
<event>
 4      1 +5.5534000e-05 3.18370500e+02 7.81860800e-03 9.93407400e-02
        2 -1    0    0  501    0 +0.0000000000e+00 +0.0000000000e+00 +9.6919251719e+02 9.6919251719e+02 0.0000000000e+00 0.0000e+00 -1.0000e+00
       -2 -1    0    0    0  501 -0.0000000000e+00 -0.0000000000e+00 -2.6145417637e+01 2.6145417637e+01 0.0000000000e+00 0.0000e+00 1.0000e+00
      -13  1    1    2    0    0 +1.1976086027e+02 -6.2384412396e+01 +2.0799117118e+02 2.4798146272e+02 0.0000000000e+00 0.0000e+00 1.0000e+00
       13  1    1    2    0    0 -1.1976086027e+02 +6.2384412396e+01 +7.3505592838e+02 7.4735647211e+02 0.0000000000e+00 0.0000e+00 -1.0000e+00
<mgrwt>
<rscale>  0 0.31837050E+03</rscale>
<asrwt>0</asrwt>
<pdfrwt beam="1">  1        2 0.14910651E+00 0.31837050E+03</pdfrwt>
<pdfrwt beam="2">  1       -2 0.40223727E-02 0.31837050E+03</pdfrwt>
<totfact> 0.78888145E+03</totfact>
</mgrwt>
<rwgt>
<wgt id='morphing_basis_vector_1'> +2.5345990e-04 </wgt>
<wgt id='morphing_basis_vector_2'> +1.4094046e-04 </wgt>
<wgt id='morphing_basis_vector_3'> +1.4880574e-04 </wgt>
<wgt id='morphing_basis_vector_4'> +2.5373114e-05 </wgt>
<wgt id='morphing_basis_vector_5'> +4.7559165e-06 </wgt>
</rwgt>
</event>
<event>
 4      1 +5.5534000e-05 3.06837200e+02 7.81860800e-03 9.98054900e-02
        2 -1    0    0  501    0 +0.0000000000e+00 +0.0000000000e+00 +5.7564917815e+02 5.7564917815e+02 0.0000000000e+00 0.0000e+00 1.0000e+00
       -2 -1    0    0    0  501 -0.0000000000e+00 -0.0000000000e+00 -4.0888224664e+01 4.0888224664e+01 0.0000000000e+00 0.0000e+00 -1.0000e+00
      -13  1    1    2    0    0 -7.4766234920e+01 +6.3154447209e+01 +2.9983389715e+01 1.0235955131e+02 0.0000000000e+00 0.0000e+00 -1.0000e+00
       13  1    1    2    0    0 +7.4766234920e+01 -6.3154447209e+01 +5.0477756377e+02 5.1417785150e+02 0.0000000000e+00 0.0000e+00 1.0000e+00
<mgrwt>
<rscale>  0 0.30683724E+03</rscale>
<asrwt>0</asrwt>
<pdfrwt beam="1">  1        2 0.88561406E-01 0.30683724E+03</pdfrwt>
<pdfrwt beam="2">  1       -2 0.62904965E-02 0.30683724E+03</pdfrwt>
<totfact> 0.76219688E+03</totfact>
</mgrwt>
<rwgt>
<wgt id='morphing_basis_vector_1'> +2.3340213e-04 </wgt>
<wgt id='morphing_basis_vector_2'> +1.2957666e-04 </wgt>
<wgt id='morphing_basis_vector_3'> +1.3737279e-04 </wgt>
<wgt id='morphing_basis_vector_4'> +2.3332857e-05 </wgt>
<wgt id='morphing_basis_vector_5'> +2.1501960e-06 </wgt>
</rwgt>
</event>
<event>
 4      1 +5.5534000e-05 3.43307000e+02 7.81860800e-03 9.84049900e-02
        2 -1    0    0  501    0 +0.0000000000e+00 +0.0000000000e+00 +4.0162068975e+02 4.0162068975e+02 0.0000000000e+00 0.0000e+00 -1.0000e+00
       -2 -1    0    0    0  501 -0.0000000000e+00 -0.0000000000e+00 -7.3365047391e+01 7.3365047391e+01 0.0000000000e+00 0.0000e+00 1.0000e+00
      -13  1    1    2    0    0 +3.0163391257e+01 +8.6180753286e+01 -3.6979001128e+01 9.8510907688e+01 0.0000000000e+00 0.0000e+00 1.0000e+00
       13  1    1    2    0    0 -3.0163391257e+01 -8.6180753286e+01 +3.6523464349e+02 3.7647482945e+02 0.0000000000e+00 0.0000e+00 -1.0000e+00
<mgrwt>
<rscale>  0 0.34330698E+03</rscale>
<asrwt>0</asrwt>
<pdfrwt beam="1">  1        2 0.61787797E-01 0.34330698E+03</pdfrwt>
<pdfrwt beam="2">  1       -2 0.11286931E-01 0.34330698E+03</pdfrwt>
<totfact> 0.46639534E+03</totfact>
</mgrwt>
<rwgt>
<wgt id='morphing_basis_vector_1'> +3.0015063e-04 </wgt>
<wgt id='morphing_basis_vector_2'> +1.6275871e-04 </wgt>
<wgt id='morphing_basis_vector_3'> +1.8114015e-04 </wgt>
<wgt id='morphing_basis_vector_4'> +3.1437451e-05 </wgt>
<wgt id='morphing_basis_vector_5'> +1.4380708e-05 </wgt>
</rwgt>
</event>
<event>
 4      1 +5.5534000e-05 3.05743800e+02 7.81860800e-03 9.98506700e-02
        2 -1    0    0  501    0 +0.0000000000e+00 +0.0000000000e+00 +2.3992647691e+02 2.3992647691e+02 0.0000000000e+00 0.0000e+00 -1.0000e+00
       -2 -1    0    0    0  501 -0.0000000000e+00 -0.0000000000e+00 -9.7404063398e+01 9.7404063398e+01 0.0000000000e+00 0.0000e+00 1.0000e+00
      -13  1    1    2    0    0 +1.0201126896e+02 -1.1013742073e+02 +3.9412692675e+01 1.5520924839e+02 0.0000000000e+00 0.0000e+00 1.0000e+00
       13  1    1    2    0    0 -1.0201126896e+02 +1.1013742073e+02 +1.0310972084e+02 1.8212129192e+02 0.0000000000e+00 0.0000e+00 -1.0000e+00
<mgrwt>
<rscale>  0 0.30574377E+03</rscale>
<asrwt>0</asrwt>
<pdfrwt beam="1">  1        2 0.36911766E-01 0.30574377E+03</pdfrwt>
<pdfrwt beam="2">  1       -2 0.14985241E-01 0.30574377E+03</pdfrwt>
<totfact> 0.52536332E+03</totfact>
</mgrwt>
<rwgt>
<wgt id='morphing_basis_vector_1'> +2.3473360e-04 </wgt>
<wgt id='morphing_basis_vector_2'> +1.3760977e-04 </wgt>
<wgt id='morphing_basis_vector_3'> +1.3179842e-04 </wgt>
<wgt id='morphing_basis_vector_4'> +2.4791218e-05 </wgt>
<wgt id='morphing_basis_vector_5'> +2.0881208e-06 </wgt>
</rwgt>
</event>
<event>
 4      1 +5.5534000e-05 3.34134700e+02 7.81860800e-03 9.87388500e-02
        2 -1    0    0  501    0 +0.0000000000e+00 +0.0000000000e+00 +7.3674673825e+02 7.3674673825e+02 0.0000000000e+00 0.0000e+00 -1.0000e+00
       -2 -1    0    0    0  501 -0.0000000000e+00 -0.0000000000e+00 -3.7884787520e+01 3.7884787520e+01 0.0000000000e+00 0.0000e+00 1.0000e+00
      -13  1    1    2    0    0 -6.0099299580e+01 +1.3946845363e+02 +1.8800990002e+02 2.4168388005e+02 0.0000000000e+00 0.0000e+00 1.0000e+00
       13  1    1    2    0    0 +6.0099299580e+01 -1.3946845363e+02 +5.1085205071e+02 5.3294764573e+02 0.0000000000e+00 0.0000e+00 -1.0000e+00
<mgrwt>
<rscale>  0 0.33413467E+03</rscale>
<asrwt>0</asrwt>
<pdfrwt beam="1">  1        2 0.11334564E+00 0.33413467E+03</pdfrwt>
<pdfrwt beam="2">  1       -2 0.58284294E-02 0.33413467E+03</pdfrwt>
<totfact> 0.64318781E+03</totfact>
</mgrwt>
<rwgt>
<wgt id='morphing_basis_vector_1'> +2.8328503e-04 </wgt>
<wgt id='morphing_basis_vector_2'> +1.5775047e-04 </wgt>
<wgt id='morphing_basis_vector_3'> +1.6689185e-04 </wgt>
<wgt id='morphing_basis_vector_4'> +2.9211440e-05 </wgt>
<wgt id='morphing_basis_vector_5'> +1.0211207e-05 </wgt>
</rwgt>
</event>
<event>
 4      1 +5.5534000e-05 3.18686400e+02 7.81860800e-03 9.93283000e-02
        2 -1    0    0  501    0 +0.0000000000e+00 +0.0000000000e+00 +2.3919879714e+02 2.3919879714e+02 0.0000000000e+00 0.0000e+00 1.0000e+00
       -2 -1    0    0    0  501 -0.0000000000e+00 -0.0000000000e+00 -1.0614709041e+02 1.0614709041e+02 0.0000000000e+00 0.0000e+00 -1.0000e+00
      -13  1    1    2    0    0 +1.2911725664e+02 +9.3372348964e+01 +6.7361624432e+01 1.7299494201e+02 0.0000000000e+00 0.0000e+00 -1.0000e+00
       13  1    1    2    0    0 -1.2911725664e+02 -9.3372348964e+01 +6.5690082300e+01 1.7235094553e+02 0.0000000000e+00 0.0000e+00 1.0000e+00
<mgrwt>
<rscale>  0 0.31868641E+03</rscale>
<asrwt>0</asrwt>
<pdfrwt beam="1">  1        2 0.36799815E-01 0.31868641E+03</pdfrwt>
<pdfrwt beam="2">  1       -2 0.16330322E-01 0.31868641E+03</pdfrwt>
<totfact> 0.46037872E+03</totfact>
</mgrwt>
<rwgt>
<wgt id='morphing_basis_vector_1'> +2.6075923e-04 </wgt>
<wgt id='morphing_basis_vector_2'> +1.6084931e-04 </wgt>
<wgt id='morphing_basis_vector_3'> +1.3981539e-04 </wgt>
<wgt id='morphing_basis_vector_4'> +2.8517262e-05 </wgt>
<wgt id='morphing_basis_vector_5'> +5.1768645e-06 </wgt>
</rwgt>
</event>
<event>
 4      1 +5.5534000e-05 3.28399300e+02 7.81860800e-03 9.89535700e-02
        2 -1    0    0  501    0 +0.0000000000e+00 +0.0000000000e+00 +5.2897987923e+02 5.2897987923e+02 0.0000000000e+00 0.0000e+00 1.0000e+00
       -2 -1    0    0    0  501 -0.0000000000e+00 -0.0000000000e+00 -5.0968903550e+01 5.0968903550e+01 0.0000000000e+00 0.0000e+00 -1.0000e+00
      -13  1    1    2    0    0 -8.2984912651e+01 -9.1724629522e+01 +4.2971259832e+02 4.4716084416e+02 0.0000000000e+00 0.0000e+00 1.0000e+00
       13  1    1    2    0    0 +8.2984912651e+01 +9.1724629522e+01 +4.8298377355e+01 1.3278793862e+02 0.0000000000e+00 0.0000e+00 -1.0000e+00
<mgrwt>
<rscale>  0 0.32839930E+03</rscale>
<asrwt>0</asrwt>
<pdfrwt beam="1">  1        2 0.81381516E-01 0.32839930E+03</pdfrwt>
<pdfrwt beam="2">  1       -2 0.78413702E-02 0.32839930E+03</pdfrwt>
<totfact> 0.60162478E+03</totfact>
</mgrwt>
<rwgt>
<wgt id='morphing_basis_vector_1'> +3.3629420e-04 </wgt>
<wgt id='morphing_basis_vector_2'> +3.3996751e-04 </wgt>
<wgt id='morphing_basis_vector_3'> +7.4083863e-05 </wgt>
<wgt id='morphing_basis_vector_4'> +5.4223110e-05 </wgt>
<wgt id='morphing_basis_vector_5'> +1.1474866e-05 </wgt>
</rwgt>
</event>
<event>
 4      1 +5.5534000e-05 3.20269700e+02 7.81860800e-03 9.92662400e-02
        2 -1    0    0  501    0 +0.0000000000e+00 +0.0000000000e+00 +9.0141559280e+02 9.0141559280e+02 0.0000000000e+00 0.0000e+00 -1.0000e+00
       -2 -1    0    0    0  501 -0.0000000000e+00 -0.0000000000e+00 -2.8447663494e+01 2.8447663494e+01 0.0000000000e+00 0.0000e+00 1.0000e+00
      -13  1    1    2    0    0 +1.4964058554e+02 +2.2290497910e+01 +2.8411906349e+02 3.2188944279e+02 0.0000000000e+00 0.0000e+00 1.0000e+00
       13  1    1    2    0    0 -1.4964058554e+02 -2.2290497910e+01 +5.8884886582e+02 6.0797381351e+02 0.0000000000e+00 0.0000e+00 -1.0000e+00
<mgrwt>
<rscale>  0 0.32026968E+03</rscale>
<asrwt>0</asrwt>
<pdfrwt beam="1">  1        2 0.13867930E+00 0.32026968E+03</pdfrwt>
<pdfrwt beam="2">  1       -2 0.43765643E-02 0.32026968E+03</pdfrwt>
<totfact> 0.76630476E+03</totfact>
</mgrwt>
<rwgt>
<wgt id='morphing_basis_vector_1'> +2.5809028e-04 </wgt>
<wgt id='morphing_basis_vector_2'> +1.4634874e-04 </wgt>
<wgt id='morphing_basis_vector_3'> +1.4919351e-04 </wgt>
<wgt id='morphing_basis_vector_4'> +2.6303722e-05 </wgt>
<wgt id='morphing_basis_vector_5'> +5.3531079e-06 </wgt>
</rwgt>
</event>
<event>
 4      1 +5.5534000e-05 3.09924300e+02 7.81860800e-03 9.96789900e-02
        2 -1    0    0  501    0 +0.0000000000e+00 +0.0000000000e+00 +1.0843839692e+03 1.0843839692e+03 0.0000000000e+00 0.0000e+00 1.0000e+00
       -2 -1    0    0    0  501 -0.0000000000e+00 -0.0000000000e+00 -2.2144621879e+01 2.2144621879e+01 0.0000000000e+00 0.0000e+00 -1.0000e+00
      -13  1    1    2    0    0 -1.3552541206e+02 +2.7662428780e+01 +7.8055505896e+02 7.9271593105e+02 0.0000000000e+00 0.0000e+00 1.0000e+00
       13  1    1    2    0    0 +1.3552541206e+02 -2.7662428780e+01 +2.8168428833e+02 3.1381266000e+02 0.0000000000e+00 0.0000e+00 -1.0000e+00
<mgrwt>
<rscale>  0 0.30992433E+03</rscale>
<asrwt>0</asrwt>
<pdfrwt beam="1">  1        2 0.16682826E+00 0.30992433E+03</pdfrwt>
<pdfrwt beam="2">  1       -2 0.34068657E-02 0.30992433E+03</pdfrwt>
<totfact> 0.86177479E+03</totfact>
</mgrwt>
<rwgt>
<wgt id='morphing_basis_vector_1'> +2.7061607e-04 </wgt>
<wgt id='morphing_basis_vector_2'> +2.2480510e-04 </wgt>
<wgt id='morphing_basis_vector_3'> +9.4668817e-05 </wgt>
<wgt id='morphing_basis_vector_4'> +3.9673106e-05 </wgt>
<wgt id='morphing_basis_vector_5'> +4.1435720e-06 </wgt>
</rwgt>
</event>
<event>
 4      1 +5.5534000e-05 3.12514800e+02 7.81860800e-03 9.95740400e-02
        2 -1    0    0  501    0 +0.0000000000e+00 +0.0000000000e+00 +1.2445655102e+02 1.2445655102e+02 0.0000000000e+00 0.0000e+00 1.0000e+00
       -2 -1    0    0    0  501 -0.0000000000e+00 -0.0000000000e+00 -1.9618389985e+02 1.9618389985e+02 0.0000000000e+00 0.0000e+00 -1.0000e+00
      -13  1    1    2    0    0 +3.3748173280e+01 -1.5091092986e+02 -5.8881876377e+01 1.6546940296e+02 0.0000000000e+00 0.0000e+00 -1.0000e+00
       13  1    1    2    0    0 -3.3748173280e+01 +1.5091092986e+02 -1.2845472456e+01 1.5517104792e+02 0.0000000000e+00 0.0000e+00 1.0000e+00
<mgrwt>
<rscale>  0 0.31251478E+03</rscale>
<asrwt>0</asrwt>
<pdfrwt beam="1">  1        2 0.19147162E-01 0.31251478E+03</pdfrwt>
<pdfrwt beam="2">  1       -2 0.30182138E-01 0.31251478E+03</pdfrwt>
<totfact> 0.35097360E+03</totfact>
</mgrwt>
<rwgt>
<wgt id='morphing_basis_vector_1'> +2.4672941e-04 </wgt>
<wgt id='morphing_basis_vector_2'> +1.4558300e-04 </wgt>
<wgt id='morphing_basis_vector_3'> +1.3767983e-04 </wgt>
<wgt id='morphing_basis_vector_4'> +2.6022201e-05 </wgt>
<wgt id='morphing_basis_vector_5'> +3.4609767e-06 </wgt>
</rwgt>
</event>
<event>
 4      1 +5.5534000e-05 3.30491700e+02 7.81860800e-03 9.88746800e-02
        2 -1    0    0  501    0 +0.0000000000e+00 +0.0000000000e+00 +5.4981028330e+01 5.4981028330e+01 0.0000000000e+00 0.0000e+00 1.0000e+00
       -2 -1    0    0    0  501 -0.0000000000e+00 -0.0000000000e+00 -4.9664746686e+02 4.9664746686e+02 0.0000000000e+00 0.0000e+00 -1.0000e+00
      -13  1    1    2    0    0 +6.3365930310e+01 +1.5249889621e+02 -2.1095381261e+02 2.6790420961e+02 0.0000000000e+00 0.0000e+00 -1.0000e+00
       13  1    1    2    0    0 -6.3365930310e+01 -1.5249889621e+02 -2.3071262593e+02 2.8372428559e+02 0.0000000000e+00 0.0000e+00 1.0000e+00
<mgrwt>
<rscale>  0 0.33049168E+03</rscale>
<asrwt>0</asrwt>
<pdfrwt beam="1">  1        2 0.84586202E-02 0.33049168E+03</pdfrwt>
<pdfrwt beam="2">  1       -2 0.76407298E-01 0.33049168E+03</pdfrwt>
<totfact> 0.16185332E+03</totfact>
</mgrwt>
<rwgt>
<wgt id='morphing_basis_vector_1'> +2.8401779e-04 </wgt>
<wgt id='morphing_basis_vector_2'> +1.7691764e-04 </wgt>
<wgt id='morphing_basis_vector_3'> +1.5198649e-04 </wgt>
<wgt id='morphing_basis_vector_4'> +3.1393024e-05 </wgt>
<wgt id='morphing_basis_vector_5'> +9.1831124e-06 </wgt>
</rwgt>
</event>
<event>
 4      1 +5.5534000e-05 3.28046500e+02 7.81860800e-03 9.89669300e-02
        2 -1    0    0  501    0 +0.0000000000e+00 +0.0000000000e+00 +1.0158188456e+03 1.0158188456e+03 0.0000000000e+00 0.0000e+00 1.0000e+00
       -2 -1    0    0    0  501 -0.0000000000e+00 -0.0000000000e+00 -2.6484672334e+01 2.6484672334e+01 0.0000000000e+00 0.0000e+00 -1.0000e+00
      -13  1    1    2    0    0 -7.5499045156e+01 +1.3694014337e+02 +3.3736901693e+02 3.7184749867e+02 0.0000000000e+00 0.0000e+00 -1.0000e+00
       13  1    1    2    0    0 +7.5499045156e+01 -1.3694014337e+02 +6.5196515635e+02 6.7045601927e+02 0.0000000000e+00 0.0000e+00 1.0000e+00
<mgrwt>
<rscale>  0 0.32804652E+03</rscale>
<asrwt>0</asrwt>
<pdfrwt beam="1">  1        2 0.15627979E+00 0.32804652E+03</pdfrwt>
<pdfrwt beam="2">  1       -2 0.40745658E-02 0.32804652E+03</pdfrwt>
<totfact> 0.72614847E+03</totfact>
</mgrwt>
<rwgt>
<wgt id='morphing_basis_vector_1'> +2.7261823e-04 </wgt>
<wgt id='morphing_basis_vector_2'> +1.5458097e-04 </wgt>
<wgt id='morphing_basis_vector_3'> +1.5795852e-04 </wgt>
<wgt id='morphing_basis_vector_4'> +2.8070805e-05 </wgt>
<wgt id='morphing_basis_vector_5'> +7.8954210e-06 </wgt>
</rwgt>
</event>
<event>
 4      1 +5.5534000e-05 3.01780700e+02 7.81860800e-03 1.00016100e-01
        2 -1    0    0  501    0 +0.0000000000e+00 +0.0000000000e+00 +3.3474806379e+02 3.3474806379e+02 0.0000000000e+00 0.0000e+00 1.0000e+00
       -2 -1    0    0    0  501 -0.0000000000e+00 -0.0000000000e+00 -6.8015042281e+01 6.8015042281e+01 0.0000000000e+00 0.0000e+00 -1.0000e+00
      -13  1    1    2    0    0 -2.7980418360e+01 +1.1544369001e+02 +9.1838982789e+00 1.1914064530e+02 0.0000000000e+00 0.0000e+00 -1.0000e+00
       13  1    1    2    0    0 +2.7980418360e+01 -1.1544369001e+02 +2.5754912323e+02 2.8362246077e+02 0.0000000000e+00 0.0000e+00 1.0000e+00
<mgrwt>
<rscale>  0 0.30178074E+03</rscale>
<asrwt>0</asrwt>
<pdfrwt beam="1">  1        2 0.51499701E-01 0.30178074E+03</pdfrwt>
<pdfrwt beam="2">  1       -2 0.10463853E-01 0.30178074E+03</pdfrwt>
<totfact> 0.63805600E+03</totfact>
</mgrwt>
<rwgt>
<wgt id='morphing_basis_vector_1'> +2.2561214e-04 </wgt>
<wgt id='morphing_basis_vector_2'> +1.2643016e-04 </wgt>
<wgt id='morphing_basis_vector_3'> +1.3199338e-04 </wgt>
<wgt id='morphing_basis_vector_4'> +2.2917724e-05 </wgt>
<wgt id='morphing_basis_vector_5'> +1.3664972e-06 </wgt>
</rwgt>
</event>
<event>
 4      1 +5.5534000e-05 3.31664000e+02 7.81860800e-03 9.88307700e-02
        2 -1    0    0  501    0 +0.0000000000e+00 +0.0000000000e+00 +1.2070339269e+02 1.2070339269e+02 0.0000000000e+00 0.0000e+00 -1.0000e+00
       -2 -1    0    0    0  501 -0.0000000000e+00 -0.0000000000e+00 -2.2783324626e+02 2.2783324626e+02 0.0000000000e+00 0.0000e+00 1.0000e+00
      -13  1    1    2    0    0 -1.0223640535e+02 -1.1741695118e+02 -1.1357724310e+02 1.9271433043e+02 0.0000000000e+00 0.0000e+00 1.0000e+00
       13  1    1    2    0    0 +1.0223640535e+02 +1.1741695118e+02 +6.4473895323e+00 1.5582230853e+02 0.0000000000e+00 0.0000e+00 -1.0000e+00
<mgrwt>
<rscale>  0 0.33166396E+03</rscale>
<asrwt>0</asrwt>
<pdfrwt beam="1">  1        2 0.18569753E-01 0.33166396E+03</pdfrwt>
<pdfrwt beam="2">  1       -2 0.35051268E-01 0.33166396E+03</pdfrwt>
<totfact> 0.28041692E+03</totfact>
</mgrwt>
<rwgt>
<wgt id='morphing_basis_vector_1'> +2.7909019e-04 </wgt>
<wgt id='morphing_basis_vector_2'> +1.5699110e-04 </wgt>
<wgt id='morphing_basis_vector_3'> +1.6297401e-04 </wgt>
<wgt id='morphing_basis_vector_4'> +2.8790606e-05 </wgt>
<wgt id='morphing_basis_vector_5'> +9.2396905e-06 </wgt>
</rwgt>
</event>
<event>
 4      1 +5.5534000e-05 3.34695100e+02 7.81860800e-03 9.87181200e-02
        2 -1    0    0  501    0 +0.0000000000e+00 +0.0000000000e+00 +2.8221792876e+01 2.8221792876e+01 0.0000000000e+00 0.0000e+00 1.0000e+00
       -2 -1    0    0    0  501 -0.0000000000e+00 -0.0000000000e+00 -9.9232526975e+02 9.9232526975e+02 0.0000000000e+00 0.0000e+00 -1.0000e+00
      -13  1    1    2    0    0 +1.0692211126e+01 +1.3591308581e+02 -7.7797204644e+02 7.8982731993e+02 0.0000000000e+00 0.0000e+00 -1.0000e+00
       13  1    1    2    0    0 -1.0692211126e+01 -1.3591308581e+02 -1.8613143043e+02 2.3071974269e+02 0.0000000000e+00 0.0000e+00 1.0000e+00
<mgrwt>
<rscale>  0 0.33469507E+03</rscale>
<asrwt>0</asrwt>
<pdfrwt beam="1">  1        2 0.43418152E-02 0.33469507E+03</pdfrwt>
<pdfrwt beam="2">  1       -2 0.15266539E+00 0.33469507E+03</pdfrwt>
<totfact> 0.70370975E+02</totfact>
</mgrwt>
<rwgt>
<wgt id='morphing_basis_vector_1'> +2.8349711e-04 </wgt>
<wgt id='morphing_basis_vector_2'> +1.5571432e-04 </wgt>
<wgt id='morphing_basis_vector_3'> +1.6876740e-04 </wgt>
<wgt id='morphing_basis_vector_4'> +2.9025610e-05 </wgt>
<wgt id='morphing_basis_vector_5'> +1.0396572e-05 </wgt>
</rwgt>
</event>
<event>
 4      1 +5.5534000e-05 3.42285000e+02 7.81860800e-03 9.84416300e-02
        2 -1    0    0  501    0 +0.0000000000e+00 +0.0000000000e+00 +6.9477182116e+02 6.9477182116e+02 0.0000000000e+00 0.0000e+00 1.0000e+00
       -2 -1    0    0    0  501 -0.0000000000e+00 -0.0000000000e+00 -4.2157368450e+01 4.2157368450e+01 0.0000000000e+00 0.0000e+00 -1.0000e+00
      -13  1    1    2    0    0 -7.3529329867e+01 -1.4765694258e+02 +2.2810214735e+02 2.8149551448e+02 0.0000000000e+00 0.0000e+00 -1.0000e+00
       13  1    1    2    0    0 +7.3529329867e+01 +1.4765694258e+02 +4.2451230536e+02 4.5543367514e+02 0.0000000000e+00 0.0000e+00 1.0000e+00
<mgrwt>
<rscale>  0 0.34228498E+03</rscale>
<asrwt>0</asrwt>
<pdfrwt beam="1">  1        2 0.10688796E+00 0.34228498E+03</pdfrwt>
<pdfrwt beam="2">  1       -2 0.64857495E-02 0.34228498E+03</pdfrwt>
<totfact> 0.58752229E+03</totfact>
</mgrwt>
<rwgt>
<wgt id='morphing_basis_vector_1'> +3.0114953e-04 </wgt>
<wgt id='morphing_basis_vector_2'> +1.7087472e-04 </wgt>
<wgt id='morphing_basis_vector_3'> +1.7579918e-04 </wgt>
<wgt id='morphing_basis_vector_4'> +3.2177585e-05 </wgt>
<wgt id='morphing_basis_vector_5'> +1.4050405e-05 </wgt>
</rwgt>
</event>
<event>
 4      1 +5.5534000e-05 3.47966800e+02 7.81860800e-03 9.82396800e-02
        2 -1    0    0  501    0 +0.0000000000e+00 +0.0000000000e+00 +3.8611685973e+01 3.8611685973e+01 0.0000000000e+00 0.0000e+00 1.0000e+00
       -2 -1    0    0    0  501 -0.0000000000e+00 -0.0000000000e+00 -7.8396540189e+02 7.8396540189e+02 0.0000000000e+00 0.0000e+00 -1.0000e+00
      -13  1    1    2    0    0 -1.2838226576e+02 -1.5655819974e+01 -6.4778159315e+02 6.6056650179e+02 0.0000000000e+00 0.0000e+00 -1.0000e+00
       13  1    1    2    0    0 +1.2838226576e+02 +1.5655819974e+01 -9.7572122772e+01 1.6201058608e+02 0.0000000000e+00 0.0000e+00 1.0000e+00
<mgrwt>
<rscale>  0 0.34796681E+03</rscale>
<asrwt>0</asrwt>
<pdfrwt beam="1">  1        2 0.59402599E-02 0.34796681E+03</pdfrwt>
<pdfrwt beam="2">  1       -2 0.12061005E+00 0.34796681E+03</pdfrwt>
<totfact> 0.87436635E+02</totfact>
</mgrwt>
<rwgt>
<wgt id='morphing_basis_vector_1'> +3.1020385e-04 </wgt>
<wgt id='morphing_basis_vector_2'> +1.6871633e-04 </wgt>
<wgt id='morphing_basis_vector_3'> +1.8738431e-04 </wgt>
<wgt id='morphing_basis_vector_4'> +3.3172377e-05 </wgt>
<wgt id='morphing_basis_vector_5'> +1.6898312e-05 </wgt>
</rwgt>
</event>
<event>
 4      1 +5.5534000e-05 3.02507300e+02 7.81860800e-03 9.99856000e-02
        2 -1    0    0  501    0 +0.0000000000e+00 +0.0000000000e+00 +1.5662921932e+02 1.5662921932e+02 0.0000000000e+00 0.0000e+00 -1.0000e+00
       -2 -1    0    0    0  501 -0.0000000000e+00 -0.0000000000e+00 -1.4606255004e+02 1.4606255004e+02 0.0000000000e+00 0.0000e+00 1.0000e+00
      -13  1    1    2    0    0 +4.3453473143e+01 +1.2094938410e+02 -7.4519335762e+01 1.4856005265e+02 0.0000000000e+00 0.0000e+00 1.0000e+00
       13  1    1    2    0    0 -4.3453473143e+01 -1.2094938410e+02 +8.5086005042e+01 1.5413171671e+02 0.0000000000e+00 0.0000e+00 -1.0000e+00
<mgrwt>
<rscale>  0 0.30250728E+03</rscale>
<asrwt>0</asrwt>
<pdfrwt beam="1">  1        2 0.24096803E-01 0.30250728E+03</pdfrwt>
<pdfrwt beam="2">  1       -2 0.22471161E-01 0.30250728E+03</pdfrwt>
<totfact> 0.44162543E+03</totfact>
</mgrwt>
<rwgt>
<wgt id='morphing_basis_vector_1'> +2.2702875e-04 </wgt>
<wgt id='morphing_basis_vector_2'> +1.2777155e-04 </wgt>
<wgt id='morphing_basis_vector_3'> +1.3229401e-04 </wgt>
<wgt id='morphing_basis_vector_4'> +2.3134495e-05 </wgt>
<wgt id='morphing_basis_vector_5'> +1.4792518e-06 </wgt>
</rwgt>
</event>
<event>
 4      1 +5.5534000e-05 3.12763200e+02 7.81860800e-03 9.95640300e-02
        2 -1    0    0  501    0 +0.0000000000e+00 +0.0000000000e+00 +5.9257481866e+02 5.9257481866e+02 0.0000000000e+00 0.0000e+00 1.0000e+00
       -2 -1    0    0    0  501 -0.0000000000e+00 -0.0000000000e+00 -4.1269401156e+01 4.1269401156e+01 0.0000000000e+00 0.0000e+00 -1.0000e+00
      -13  1    1    2    0    0 -6.8076744386e+01 -6.3709503373e+01 +2.1221344671e+01 9.5622640707e+01 0.0000000000e+00 0.0000e+00 -1.0000e+00
       13  1    1    2    0    0 +6.8076744386e+01 +6.3709503373e+01 +5.3008407283e+02 5.3822157911e+02 0.0000000000e+00 0.0000e+00 1.0000e+00
<mgrwt>
<rscale>  0 0.31276322E+03</rscale>
<asrwt>0</asrwt>
<pdfrwt beam="1">  1        2 0.91165351E-01 0.31276322E+03</pdfrwt>
<pdfrwt beam="2">  1       -2 0.63491391E-02 0.31276322E+03</pdfrwt>
<totfact> 0.72775636E+03</totfact>
</mgrwt>
<rwgt>
<wgt id='morphing_basis_vector_1'> +2.4316811e-04 </wgt>
<wgt id='morphing_basis_vector_2'> +1.3427674e-04 </wgt>
<wgt id='morphing_basis_vector_3'> +1.4357450e-04 </wgt>
<wgt id='morphing_basis_vector_4'> +2.4131440e-05 </wgt>
<wgt id='morphing_basis_vector_5'> +3.3346226e-06 </wgt>
</rwgt>
</event>
<event>
 4      1 +5.5534000e-05 3.16754500e+02 7.81860800e-03 9.94045800e-02
        2 -1    0    0  501    0 +0.0000000000e+00 +0.0000000000e+00 +1.3427863054e+03 1.3427863054e+03 0.0000000000e+00 0.0000e+00 -1.0000e+00
       -2 -1    0    0    0  501 -0.0000000000e+00 -0.0000000000e+00 -1.8680078582e+01 1.8680078582e+01 0.0000000000e+00 0.0000e+00 1.0000e+00
      -13  1    1    2    0    0 -1.2522832726e+02 +9.6081342572e+01 +6.0607849849e+02 6.2629458298e+02 0.0000000000e+00 0.0000e+00 1.0000e+00
       13  1    1    2    0    0 +1.2522832726e+02 -9.6081342572e+01 +7.1802772828e+02 7.3517180096e+02 0.0000000000e+00 0.0000e+00 -1.0000e+00
<mgrwt>
<rscale>  0 0.31675450E+03</rscale>
<asrwt>0</asrwt>
<pdfrwt beam="1">  1        2 0.20658243E+00 0.31675450E+03</pdfrwt>
<pdfrwt beam="2">  1       -2 0.28738593E-02 0.31675450E+03</pdfrwt>
<totfact> 0.79439092E+03</totfact>
</mgrwt>
<rwgt>
<wgt id='morphing_basis_vector_1'> +2.5523186e-04 </wgt>
<wgt id='morphing_basis_vector_2'> +1.5286699e-04 </wgt>
<wgt id='morphing_basis_vector_3'> +1.4060229e-04 </wgt>
<wgt id='morphing_basis_vector_4'> +2.7227060e-05 </wgt>
<wgt id='morphing_basis_vector_5'> +4.5496949e-06 </wgt>
</rwgt>
</event>
<event>
 4      1 +5.5534000e-05 3.45310800e+02 7.81860800e-03 9.83335600e-02
        2 -1    0    0  501    0 +0.0000000000e+00 +0.0000000000e+00 +7.8043758697e+02 7.8043758697e+02 0.0000000000e+00 0.0000e+00 1.0000e+00
       -2 -1    0    0    0  501 -0.0000000000e+00 -0.0000000000e+00 -3.8196370982e+01 3.8196370982e+01 0.0000000000e+00 0.0000e+00 -1.0000e+00
      -13  1    1    2    0    0 -1.0023589637e+02 +1.3529573215e+02 +2.8060661715e+02 3.2724951283e+02 0.0000000000e+00 0.0000e+00 -1.0000e+00
       13  1    1    2    0    0 +1.0023589637e+02 -1.3529573215e+02 +4.6163459885e+02 4.9138444513e+02 0.0000000000e+00 0.0000e+00 1.0000e+00
<mgrwt>
<rscale>  0 0.34531078E+03</rscale>
<asrwt>0</asrwt>
<pdfrwt beam="1">  1        2 0.12006731E+00 0.34531078E+03</pdfrwt>
<pdfrwt beam="2">  1       -2 0.58763653E-02 0.34531078E+03</pdfrwt>
<totfact> 0.59276753E+03</totfact>
</mgrwt>
<rwgt>
<wgt id='morphing_basis_vector_1'> +3.0813069e-04 </wgt>
<wgt id='morphing_basis_vector_2'> +1.7628337e-04 </wgt>
<wgt id='morphing_basis_vector_3'> +1.7917581e-04 </wgt>
<wgt id='morphing_basis_vector_4'> +3.3400128e-05 </wgt>
<wgt id='morphing_basis_vector_5'> +1.5660568e-05 </wgt>
</rwgt>
</event>
<event>
 4      1 +5.5534000e-05 3.10554100e+02 7.81860800e-03 9.96533800e-02
        2 -1    0    0  501    0 +0.0000000000e+00 +0.0000000000e+00 +4.3890662365e+01 4.3890662365e+01 0.0000000000e+00 0.0000e+00 -1.0000e+00
       -2 -1    0    0    0  501 -0.0000000000e+00 -0.0000000000e+00 -5.4934158302e+02 5.4934158302e+02 0.0000000000e+00 0.0000e+00 1.0000e+00
      -13  1    1    2    0    0 -1.2004457487e+02 -5.4012106272e+01 -4.1005020095e+02 4.3066132271e+02 0.0000000000e+00 0.0000e+00 1.0000e+00
       13  1    1    2    0    0 +1.2004457487e+02 +5.4012106272e+01 -9.5400719704e+01 1.6257092267e+02 0.0000000000e+00 0.0000e+00 -1.0000e+00
<mgrwt>
<rscale>  0 0.31055412E+03</rscale>
<asrwt>0</asrwt>
<pdfrwt beam="1">  1        2 0.67524096E-02 0.31055412E+03</pdfrwt>
<pdfrwt beam="2">  1       -2 0.84514090E-01 0.31055412E+03</pdfrwt>
<totfact> 0.17280072E+03</totfact>
</mgrwt>
<rwgt>
<wgt id='morphing_basis_vector_1'> +2.4007903e-04 </wgt>
<wgt id='morphing_basis_vector_2'> +1.3422098e-04 </wgt>
<wgt id='morphing_basis_vector_3'> +1.4037318e-04 </wgt>
<wgt id='morphing_basis_vector_4'> +2.4106897e-05 </wgt>
<wgt id='morphing_basis_vector_5'> +2.8864726e-06 </wgt>
</rwgt>
</event>
<event>
 4      1 +5.5534000e-05 3.25020500e+02 7.81860800e-03 9.90823100e-02
        2 -1    0    0  501    0 +0.0000000000e+00 +0.0000000000e+00 +8.1914176735e+02 8.1914176735e+02 0.0000000000e+00 0.0000e+00 1.0000e+00
       -2 -1    0    0    0  501 -0.0000000000e+00 -0.0000000000e+00 -3.2240557047e+01 3.2240557047e+01 0.0000000000e+00 0.0000e+00 -1.0000e+00
      -13  1    1    2    0    0 +1.3772444944e+02 +8.5368133045e+00 +1.6859234440e+02 2.1786298388e+02 0.0000000000e+00 0.0000e+00 -1.0000e+00
       13  1    1    2    0    0 -1.3772444944e+02 -8.5368133045e+00 +6.1830886590e+02 6.3351934052e+02 0.0000000000e+00 0.0000e+00 1.0000e+00
<mgrwt>
<rscale>  0 0.32502053E+03</rscale>
<asrwt>0</asrwt>
<pdfrwt beam="1">  1        2 0.12602179E+00 0.32502053E+03</pdfrwt>
<pdfrwt beam="2">  1       -2 0.49600863E-02 0.32502053E+03</pdfrwt>
<totfact> 0.71872170E+03</totfact>
</mgrwt>
<rwgt>
<wgt id='morphing_basis_vector_1'> +2.6540274e-04 </wgt>
<wgt id='morphing_basis_vector_2'> +1.4700047e-04 </wgt>
<wgt id='morphing_basis_vector_3'> +1.5646891e-04 </wgt>
<wgt id='morphing_basis_vector_4'> +2.6711436e-05 </wgt>
<wgt id='morphing_basis_vector_5'> +6.7620573e-06 </wgt>
</rwgt>
</event>
<event>
 4      1 +5.5534000e-05 3.00003500e+02 7.81860800e-03 1.00091200e-01
        2 -1    0    0  501    0 +0.0000000000e+00 +0.0000000000e+00 +2.5204384725e+02 2.5204384725e+02 0.0000000000e+00 0.0000e+00 1.0000e+00
       -2 -1    0    0    0  501 -0.0000000000e+00 -0.0000000000e+00 -8.9272268111e+01 8.9272268111e+01 0.0000000000e+00 0.0000e+00 -1.0000e+00
      -13  1    1    2    0    0 +7.8458481465e+01 -9.2441814114e+01 -1.9089294208e+01 1.2274210143e+02 0.0000000000e+00 0.0000e+00 -1.0000e+00
       13  1    1    2    0    0 -7.8458481465e+01 +9.2441814114e+01 +1.8186087335e+02 2.1857401393e+02 0.0000000000e+00 0.0000e+00 1.0000e+00
<mgrwt>
<rscale>  0 0.30000351E+03</rscale>
<asrwt>0</asrwt>
<pdfrwt beam="1">  1        2 0.38775976E-01 0.30000351E+03</pdfrwt>
<pdfrwt beam="2">  1       -2 0.13734195E-01 0.30000351E+03</pdfrwt>
<totfact> 0.57038813E+03</totfact>
</mgrwt>
<rwgt>
<wgt id='morphing_basis_vector_1'> +2.2291231e-04 </wgt>
<wgt id='morphing_basis_vector_2'> +1.2528402e-04 </wgt>
<wgt id='morphing_basis_vector_3'> +1.3019551e-04 </wgt>
<wgt id='morphing_basis_vector_4'> +2.2789102e-05 </wgt>
<wgt id='morphing_basis_vector_5'> +1.1354363e-06 </wgt>
</rwgt>
</event>
<event>
 4      1 +5.5534000e-05 3.12282500e+02 7.81860800e-03 9.95834100e-02
        2 -1    0    0  501    0 +0.0000000000e+00 +0.0000000000e+00 +9.7823351408e+02 9.7823351408e+02 0.0000000000e+00 0.0000e+00 1.0000e+00
       -2 -1    0    0    0  501 -0.0000000000e+00 -0.0000000000e+00 -2.4922563888e+01 2.4922563888e+01 0.0000000000e+00 0.0000e+00 -1.0000e+00
      -13  1    1    2    0    0 +1.0876942495e+02 +1.1146796621e+02 +4.4085674479e+02 4.6755808701e+02 0.0000000000e+00 0.0000e+00 -1.0000e+00
       13  1    1    2    0    0 -1.0876942495e+02 -1.1146796621e+02 +5.1245420540e+02 5.3559799096e+02 0.0000000000e+00 0.0000e+00 1.0000e+00
<mgrwt>
<rscale>  0 0.31228248E+03</rscale>
<asrwt>0</asrwt>
<pdfrwt beam="1">  1        2 0.15049743E+00 0.31228248E+03</pdfrwt>
<pdfrwt beam="2">  1       -2 0.38342414E-02 0.31228248E+03</pdfrwt>
<totfact> 0.83596040E+03</totfact>
</mgrwt>
<rwgt>
<wgt id='morphing_basis_vector_1'> +2.4762496e-04 </wgt>
<wgt id='morphing_basis_vector_2'> +1.4910814e-04 </wgt>
<wgt id='morphing_basis_vector_3'> +1.3560748e-04 </wgt>
<wgt id='morphing_basis_vector_4'> +2.6615738e-05 </wgt>
<wgt id='morphing_basis_vector_5'> +3.4675304e-06 </wgt>
</rwgt>
</event>
<event>
 4      1 +5.5534000e-05 3.04185900e+02 7.81860800e-03 9.99153900e-02
        2 -1    0    0  501    0 +0.0000000000e+00 +0.0000000000e+00 +1.4478081824e+02 1.4478081824e+02 0.0000000000e+00 0.0000e+00 1.0000e+00
       -2 -1    0    0    0  501 -0.0000000000e+00 -0.0000000000e+00 -1.5977442202e+02 1.5977442202e+02 0.0000000000e+00 0.0000e+00 -1.0000e+00
      -13  1    1    2    0    0 -6.2186042892e+01 +8.2820078969e+01 -1.1901426105e+02 1.5776775255e+02 0.0000000000e+00 0.0000e+00 -1.0000e+00
       13  1    1    2    0    0 +6.2186042892e+01 -8.2820078969e+01 +1.0402065727e+02 1.4678748772e+02 0.0000000000e+00 0.0000e+00 1.0000e+00
<mgrwt>
<rscale>  0 0.30418594E+03</rscale>
<asrwt>0</asrwt>
<pdfrwt beam="1">  1        2 0.22273972E-01 0.30418594E+03</pdfrwt>
<pdfrwt beam="2">  1       -2 0.24580680E-01 0.30418594E+03</pdfrwt>
<totfact> 0.41666003E+03</totfact>
</mgrwt>
<rwgt>
<wgt id='morphing_basis_vector_1'> +2.2919019e-04 </wgt>
<wgt id='morphing_basis_vector_2'> +1.2764102e-04 </wgt>
<wgt id='morphing_basis_vector_3'> +1.3465891e-04 </wgt>
<wgt id='morphing_basis_vector_4'> +2.3050020e-05 </wgt>
<wgt id='morphing_basis_vector_5'> +1.7114626e-06 </wgt>
</rwgt>
</event>
<event>
 4      1 +5.5534000e-05 3.48815600e+02 7.81860800e-03 9.82098700e-02
        2 -1    0    0  501    0 +0.0000000000e+00 +0.0000000000e+00 +1.3126612949e+02 1.3126612949e+02 0.0000000000e+00 0.0000e+00 1.0000e+00
       -2 -1    0    0    0  501 -0.0000000000e+00 -0.0000000000e+00 -2.3172835251e+02 2.3172835251e+02 0.0000000000e+00 0.0000e+00 -1.0000e+00
      -13  1    1    2    0    0 +8.4728960005e+01 -9.8228789589e+01 -1.7154678104e+02 2.1507252231e+02 0.0000000000e+00 0.0000e+00 -1.0000e+00
       13  1    1    2    0    0 -8.4728960005e+01 +9.8228789589e+01 +7.1084558021e+01 1.4792195968e+02 0.0000000000e+00 0.0000e+00 1.0000e+00
<mgrwt>
<rscale>  0 0.34881562E+03</rscale>
<asrwt>0</asrwt>
<pdfrwt beam="1">  1        2 0.20194790E-01 0.34881562E+03</pdfrwt>
<pdfrwt beam="2">  1       -2 0.35650515E-01 0.34881562E+03</pdfrwt>
<totfact> 0.24665537E+03</totfact>
</mgrwt>
<rwgt>
<wgt id='morphing_basis_vector_1'> +3.1200971e-04 </wgt>
<wgt id='morphing_basis_vector_2'> +1.6965300e-04 </wgt>
<wgt id='morphing_basis_vector_3'> +1.8862112e-04 </wgt>
<wgt id='morphing_basis_vector_4'> +3.3484918e-05 </wgt>
<wgt id='morphing_basis_vector_5'> +1.7378813e-05 </wgt>
</rwgt>
</event>
<event>
 4      1 +5.5534000e-05 3.12755000e+02 7.81860800e-03 9.95643700e-02
        2 -1    0    0  501    0 +0.0000000000e+00 +0.0000000000e+00 +8.2519597009e+01 8.2519597009e+01 0.0000000000e+00 0.0000e+00 1.0000e+00
       -2 -1    0    0    0  501 -0.0000000000e+00 -0.0000000000e+00 -2.9634069839e+02 2.9634069839e+02 0.0000000000e+00 0.0000e+00 -1.0000e+00
      -13  1    1    2    0    0 -1.4784408932e+02 -4.9916244634e+01 -9.4532752036e+01 1.8244436805e+02 0.0000000000e+00 0.0000e+00 1.0000e+00
       13  1    1    2    0    0 +1.4784408932e+02 +4.9916244634e+01 -1.1928834934e+02 1.9641592734e+02 0.0000000000e+00 0.0000e+00 -1.0000e+00
<mgrwt>
<rscale>  0 0.31275495E+03</rscale>
<asrwt>0</asrwt>
<pdfrwt beam="1">  1        2 0.12695323E-01 0.31275495E+03</pdfrwt>
<pdfrwt beam="2">  1       -2 0.45590877E-01 0.31275495E+03</pdfrwt>
<totfact> 0.27419157E+03</totfact>
</mgrwt>
<rwgt>
<wgt id='morphing_basis_vector_1'> +2.5196119e-04 </wgt>
<wgt id='morphing_basis_vector_2'> +1.5975043e-04 </wgt>
<wgt id='morphing_basis_vector_3'> +1.3111756e-04 </wgt>
<wgt id='morphing_basis_vector_4'> +2.8388689e-05 </wgt>
<wgt id='morphing_basis_vector_5'> +3.7364702e-06 </wgt>
</rwgt>
</event>
<event>
 4      1 +5.5534000e-05 3.52057300e+02 7.81860800e-03 9.80968600e-02
        2 -1    0    0  501    0 +0.0000000000e+00 +0.0000000000e+00 +1.5575615429e+03 1.5575615429e+03 0.0000000000e+00 0.0000e+00 1.0000e+00
       -2 -1    0    0    0  501 -0.0000000000e+00 -0.0000000000e+00 -1.9893966577e+01 1.9893966577e+01 0.0000000000e+00 0.0000e+00 -1.0000e+00
      -13  1    1    2    0    0 -4.4474681816e+01 +1.6833924529e+02 +8.8481142103e+02 9.0178010048e+02 0.0000000000e+00 0.0000e+00 1.0000e+00
       13  1    1    2    0    0 +4.4474681816e+01 -1.6833924529e+02 +6.5285615533e+02 6.7567540904e+02 0.0000000000e+00 0.0000e+00 -1.0000e+00
<mgrwt>
<rscale>  0 0.35205725E+03</rscale>
<asrwt>0</asrwt>
<pdfrwt beam="1">  1        2 0.23962476E+00 0.35205725E+03</pdfrwt>
<pdfrwt beam="2">  1       -2 0.30606115E-02 0.35205725E+03</pdfrwt>
<totfact> 0.55547940E+03</totfact>
</mgrwt>
<rwgt>
<wgt id='morphing_basis_vector_1'> +3.3483306e-04 </wgt>
<wgt id='morphing_basis_vector_2'> +2.2061653e-04 </wgt>
<wgt id='morphing_basis_vector_3'> +1.7420353e-04 </wgt>
<wgt id='morphing_basis_vector_4'> +3.9494949e-05 </wgt>
<wgt id='morphing_basis_vector_5'> +2.0284133e-05 </wgt>
</rwgt>
</event>
<event>
 4      1 +5.5534000e-05 3.08303300e+02 7.81860800e-03 9.97452200e-02
        2 -1    0    0  501    0 +0.0000000000e+00 +0.0000000000e+00 +1.6658911314e+02 1.6658911314e+02 0.0000000000e+00 0.0000e+00 1.0000e+00
       -2 -1    0    0    0  501 -0.0000000000e+00 -0.0000000000e+00 -1.4264273771e+02 1.4264273771e+02 0.0000000000e+00 0.0000e+00 -1.0000e+00
      -13  1    1    2    0    0 -5.1372966062e+01 -1.0077442096e+02 -9.3070757354e+01 1.4648150544e+02 0.0000000000e+00 0.0000e+00 -1.0000e+00
       13  1    1    2    0    0 +5.1372966062e+01 +1.0077442096e+02 +1.1701713279e+02 1.6275034540e+02 0.0000000000e+00 0.0000e+00 1.0000e+00
<mgrwt>
<rscale>  0 0.30830327E+03</rscale>
<asrwt>0</asrwt>
<pdfrwt beam="1">  1        2 0.25629094E-01 0.30830327E+03</pdfrwt>
<pdfrwt beam="2">  1       -2 0.21945037E-01 0.30830327E+03</pdfrwt>
<totfact> 0.42810499E+03</totfact>
</mgrwt>
<rwgt>
<wgt id='morphing_basis_vector_1'> +2.3593461e-04 </wgt>
<wgt id='morphing_basis_vector_2'> +1.3115741e-04 </wgt>
<wgt id='morphing_basis_vector_3'> +1.3865692e-04 </wgt>
<wgt id='morphing_basis_vector_4'> +2.3590355e-05 </wgt>
<wgt id='morphing_basis_vector_5'> +2.4235625e-06 </wgt>
</rwgt>
</event>
<event>
 4      1 +5.5534000e-05 3.34106400e+02 7.81860800e-03 9.87398900e-02
        2 -1    0    0  501    0 +0.0000000000e+00 +0.0000000000e+00 +2.8269959226e+02 2.8269959226e+02 0.0000000000e+00 0.0000e+00 1.0000e+00
       -2 -1    0    0    0  501 -0.0000000000e+00 -0.0000000000e+00 -9.8715313394e+01 9.8715313394e+01 0.0000000000e+00 0.0000e+00 -1.0000e+00
      -13  1    1    2    0    0 -5.5915747076e+01 -1.2436154280e+02 -1.8184772646e+01 1.3756107754e+02 0.0000000000e+00 0.0000e+00 -1.0000e+00
       13  1    1    2    0    0 +5.5915747076e+01 +1.2436154280e+02 +2.0216905152e+02 2.4385382812e+02 0.0000000000e+00 0.0000e+00 1.0000e+00
<mgrwt>
<rscale>  0 0.33410644E+03</rscale>
<asrwt>0</asrwt>
<pdfrwt beam="1">  1        2 0.43492245E-01 0.33410644E+03</pdfrwt>
<pdfrwt beam="2">  1       -2 0.15186971E-01 0.33410644E+03</pdfrwt>
<totfact> 0.42997348E+03</totfact>
</mgrwt>
<rwgt>
<wgt id='morphing_basis_vector_1'> +2.8235923e-04 </wgt>
<wgt id='morphing_basis_vector_2'> +1.5515263e-04 </wgt>
<wgt id='morphing_basis_vector_3'> +1.6799527e-04 </wgt>
<wgt id='morphing_basis_vector_4'> +2.8866591e-05 </wgt>
<wgt id='morphing_basis_vector_5'> +1.0149510e-05 </wgt>
</rwgt>
</event>
<event>
 4      1 +5.5534000e-05 3.55769200e+02 7.81860800e-03 9.79690600e-02
        2 -1    0    0  501    0 +0.0000000000e+00 +0.0000000000e+00 +5.1347931458e+02 5.1347931458e+02 0.0000000000e+00 0.0000e+00 -1.0000e+00
       -2 -1    0    0    0  501 -0.0000000000e+00 -0.0000000000e+00 -6.1624532921e+01 6.1624532921e+01 0.0000000000e+00 0.0000e+00 1.0000e+00
      -13  1    1    2    0    0 +6.6707470814e+01 +1.0771372680e+02 +2.4085162472e+01 1.2896599806e+02 0.0000000000e+00 0.0000e+00 1.0000e+00
       13  1    1    2    0    0 -6.6707470814e+01 -1.0771372680e+02 +4.2776961918e+02 4.4613784944e+02 0.0000000000e+00 0.0000e+00 -1.0000e+00
<mgrwt>
<rscale>  0 0.35576916E+03</rscale>
<asrwt>0</asrwt>
<pdfrwt beam="1">  1        2 0.78996815E-01 0.35576916E+03</pdfrwt>
<pdfrwt beam="2">  1       -2 0.94806977E-02 0.35576916E+03</pdfrwt>
<totfact> 0.46596538E+03</totfact>
</mgrwt>
<rwgt>
<wgt id='morphing_basis_vector_1'> +3.2706424e-04 </wgt>
<wgt id='morphing_basis_vector_2'> +1.7723297e-04 </wgt>
<wgt id='morphing_basis_vector_3'> +1.9921691e-04 </wgt>
<wgt id='morphing_basis_vector_4'> +3.6205185e-05 </wgt>
<wgt id='morphing_basis_vector_5'> +2.1611305e-05 </wgt>
</rwgt>
</event>
<event>
 4      1 +5.5534000e-05 3.05428300e+02 7.81860800e-03 9.98637500e-02
        2 -1    0    0  501    0 +0.0000000000e+00 +0.0000000000e+00 +6.3793832735e+02 6.3793832735e+02 0.0000000000e+00 0.0000e+00 -1.0000e+00
       -2 -1    0    0    0  501 -0.0000000000e+00 -0.0000000000e+00 -3.6557784050e+01 3.6557784050e+01 0.0000000000e+00 0.0000e+00 1.0000e+00
      -13  1    1    2    0    0 +8.3274671241e+01 -8.9200577035e+01 +9.7927108564e+01 1.5646447650e+02 0.0000000000e+00 0.0000e+00 1.0000e+00
       13  1    1    2    0    0 -8.3274671241e+01 +8.9200577035e+01 +5.0345343474e+02 5.1803163491e+02 0.0000000000e+00 0.0000e+00 -1.0000e+00
<mgrwt>
<rscale>  0 0.30542830E+03</rscale>
<asrwt>0</asrwt>
<pdfrwt beam="1">  1        2 0.98144350E-01 0.30542830E+03</pdfrwt>
<pdfrwt beam="2">  1       -2 0.56242749E-02 0.30542830E+03</pdfrwt>
<totfact> 0.80187122E+03</totfact>
</mgrwt>
<rwgt>
<wgt id='morphing_basis_vector_1'> +2.3144984e-04 </wgt>
<wgt id='morphing_basis_vector_2'> +1.2939055e-04 </wgt>
<wgt id='morphing_basis_vector_3'> +1.3549515e-04 </wgt>
<wgt id='morphing_basis_vector_4'> +2.3330135e-05 </wgt>
<wgt id='morphing_basis_vector_5'> +1.9222665e-06 </wgt>
</rwgt>
</event>
<event>
 4      1 +5.5534000e-05 3.48173500e+02 7.81860800e-03 9.82324100e-02
        2 -1    0    0  501    0 +0.0000000000e+00 +0.0000000000e+00 +9.2781396458e+02 9.2781396458e+02 0.0000000000e+00 0.0000e+00 -1.0000e+00
       -2 -1    0    0    0  501 -0.0000000000e+00 -0.0000000000e+00 -3.2664091572e+01 3.2664091572e+01 0.0000000000e+00 0.0000e+00 1.0000e+00
      -13  1    1    2    0    0 -7.0723947190e+01 +1.4409512650e+02 +2.6168172005e+02 3.0698958418e+02 0.0000000000e+00 0.0000e+00 1.0000e+00
       13  1    1    2    0    0 +7.0723947190e+01 -1.4409512650e+02 +6.3346815296e+02 6.5348847197e+02 0.0000000000e+00 0.0000e+00 -1.0000e+00
<mgrwt>
<rscale>  0 0.34817352E+03</rscale>
<asrwt>0</asrwt>
<pdfrwt beam="1">  1        2 0.14274059E+00 0.34817352E+03</pdfrwt>
<pdfrwt beam="2">  1       -2 0.50252456E-02 0.34817352E+03</pdfrwt>
<totfact> 0.60141073E+03</totfact>
</mgrwt>
<rwgt>
<wgt id='morphing_basis_vector_1'> +3.1219534e-04 </wgt>
<wgt id='morphing_basis_vector_2'> +1.7357225e-04 </wgt>
<wgt id='morphing_basis_vector_3'> +1.8576763e-04 </wgt>
<wgt id='morphing_basis_vector_4'> +3.3744998e-05 </wgt>
<wgt id='morphing_basis_vector_5'> +1.7110845e-05 </wgt>
</rwgt>
</event>
<event>
 4      1 +5.5534000e-05 3.37868600e+02 7.81860800e-03 9.86015500e-02
        2 -1    0    0  501    0 +0.0000000000e+00 +0.0000000000e+00 +7.6825845073e+01 7.6825845073e+01 0.0000000000e+00 0.0000e+00 -1.0000e+00
       -2 -1    0    0    0  501 -0.0000000000e+00 -0.0000000000e+00 -3.7147396088e+02 3.7147396088e+02 0.0000000000e+00 0.0000e+00 1.0000e+00
      -13  1    1    2    0    0 +1.4115216083e+02 +3.0005731666e+01 -2.6386412826e+02 3.0074666186e+02 0.0000000000e+00 0.0000e+00 1.0000e+00
       13  1    1    2    0    0 -1.4115216083e+02 -3.0005731666e+01 -3.0783987548e+01 1.4755314409e+02 0.0000000000e+00 0.0000e+00 -1.0000e+00
<mgrwt>
<rscale>  0 0.33786862E+03</rscale>
<asrwt>0</asrwt>
<pdfrwt beam="1">  1        2 0.11819361E-01 0.33786862E+03</pdfrwt>
<pdfrwt beam="2">  1       -2 0.57149840E-01 0.33786862E+03</pdfrwt>
<totfact> 0.19387354E+03</totfact>
</mgrwt>
<rwgt>
<wgt id='morphing_basis_vector_1'> +2.9002093e-04 </wgt>
<wgt id='morphing_basis_vector_2'> +1.5971678e-04 </wgt>
<wgt id='morphing_basis_vector_3'> +1.7259252e-04 </wgt>
<wgt id='morphing_basis_vector_4'> +3.0036986e-05 </wgt>
<wgt id='morphing_basis_vector_5'> +1.1806399e-05 </wgt>
</rwgt>
</event>
<event>
 4      1 +5.5534000e-05 3.12945900e+02 7.81860800e-03 9.95566800e-02
        2 -1    0    0  501    0 +0.0000000000e+00 +0.0000000000e+00 +8.3289067731e+01 8.3289067731e+01 0.0000000000e+00 0.0000e+00 -1.0000e+00
       -2 -1    0    0    0  501 -0.0000000000e+00 -0.0000000000e+00 -2.9396158840e+02 2.9396158840e+02 0.0000000000e+00 0.0000e+00 1.0000e+00
      -13  1    1    2    0    0 +7.6764798163e+01 +1.5870970498e-01 -2.6970197799e+02 2.8041400885e+02 0.0000000000e+00 0.0000e+00 1.0000e+00
       13  1    1    2    0    0 -7.6764798163e+01 -1.5870970498e-01 +5.9029457321e+01 9.6836647285e+01 0.0000000000e+00 0.0000e+00 -1.0000e+00
<mgrwt>
<rscale>  0 0.31294592E+03</rscale>
<asrwt>0</asrwt>
<pdfrwt beam="1">  1        2 0.12813703E-01 0.31294592E+03</pdfrwt>
<pdfrwt beam="2">  1       -2 0.45224860E-01 0.31294592E+03</pdfrwt>
<totfact> 0.27521705E+03</totfact>
</mgrwt>
<rwgt>
<wgt id='morphing_basis_vector_1'> +2.4342123e-04 </wgt>
<wgt id='morphing_basis_vector_2'> +1.3426855e-04 </wgt>
<wgt id='morphing_basis_vector_3'> +1.4384763e-04 </wgt>
<wgt id='morphing_basis_vector_4'> +2.4132804e-05 </wgt>
<wgt id='morphing_basis_vector_5'> +3.3731757e-06 </wgt>
</rwgt>
</event>
<event>
 4      1 +5.5534000e-05 3.25364000e+02 7.81860800e-03 9.90691400e-02
        2 -1    0    0  501    0 +0.0000000000e+00 +0.0000000000e+00 +2.2741659811e+02 2.2741659811e+02 0.0000000000e+00 0.0000e+00 -1.0000e+00
       -2 -1    0    0    0  501 -0.0000000000e+00 -0.0000000000e+00 -1.1637422855e+02 1.1637422855e+02 0.0000000000e+00 0.0000e+00 1.0000e+00
      -13  1    1    2    0    0 +1.1907140173e+02 -5.8217288149e+01 -4.4151324211e+01 1.3970179233e+02 0.0000000000e+00 0.0000e+00 1.0000e+00
       13  1    1    2    0    0 -1.1907140173e+02 +5.8217288149e+01 +1.5519369378e+02 2.0408903434e+02 0.0000000000e+00 0.0000e+00 -1.0000e+00
<mgrwt>
<rscale>  0 0.32536399E+03</rscale>
<asrwt>0</asrwt>
<pdfrwt beam="1">  1        2 0.34987169E-01 0.32536399E+03</pdfrwt>
<pdfrwt beam="2">  1       -2 0.17903727E-01 0.32536399E+03</pdfrwt>
<totfact> 0.42039680E+03</totfact>
</mgrwt>
<rwgt>
<wgt id='morphing_basis_vector_1'> +2.6582836e-04 </wgt>
<wgt id='morphing_basis_vector_2'> +1.4672045e-04 </wgt>
<wgt id='morphing_basis_vector_3'> +1.5715531e-04 </wgt>
<wgt id='morphing_basis_vector_4'> +2.6699471e-05 </wgt>
<wgt id='morphing_basis_vector_5'> +6.8655332e-06 </wgt>
</rwgt>
</event>
<event>
 4      1 +5.5534000e-05 3.23693700e+02 7.81860800e-03 9.91333300e-02
        2 -1    0    0  501    0 +0.0000000000e+00 +0.0000000000e+00 +2.9252265173e+01 2.9252265173e+01 0.0000000000e+00 0.0000e+00 -1.0000e+00
       -2 -1    0    0    0  501 -0.0000000000e+00 -0.0000000000e+00 -8.9546558481e+02 8.9546558481e+02 0.0000000000e+00 0.0000e+00 1.0000e+00
      -13  1    1    2    0    0 -5.4690181602e+01 +1.3871310328e+02 -6.1292555958e+02 6.3080114345e+02 0.0000000000e+00 0.0000e+00 1.0000e+00
       13  1    1    2    0    0 +5.4690181602e+01 -1.3871310328e+02 -2.5328776006e+02 2.9391670653e+02 0.0000000000e+00 0.0000e+00 -1.0000e+00
<mgrwt>
<rscale>  0 0.32369366E+03</rscale>
<asrwt>0</asrwt>
<pdfrwt beam="1">  1        2 0.45003487E-02 0.32369366E+03</pdfrwt>
<pdfrwt beam="2">  1       -2 0.13776393E+00 0.32369366E+03</pdfrwt>
<totfact> 0.89026763E+02</totfact>
</mgrwt>
<rwgt>
<wgt id='morphing_basis_vector_1'> +2.6377958e-04 </wgt>
<wgt id='morphing_basis_vector_2'> +1.4810991e-04 </wgt>
<wgt id='morphing_basis_vector_3'> +1.5381165e-04 </wgt>
<wgt id='morphing_basis_vector_4'> +2.6773441e-05 </wgt>
<wgt id='morphing_basis_vector_5'> +6.3721426e-06 </wgt>
</rwgt>
</event>
<event>
 4      1 +5.5534000e-05 3.17177200e+02 7.81860800e-03 9.93878400e-02
        2 -1    0    0  501    0 +0.0000000000e+00 +0.0000000000e+00 +7.3536657486e+01 7.3536657486e+01 0.0000000000e+00 0.0000e+00 -1.0000e+00
       -2 -1    0    0    0  501 -0.0000000000e+00 -0.0000000000e+00 -3.4201103895e+02 3.4201103895e+02 0.0000000000e+00 0.0000e+00 1.0000e+00
      -13  1    1    2    0    0 -6.2807941504e+01 -4.0453736761e+01 -3.1751220636e+02 3.2618299085e+02 0.0000000000e+00 0.0000e+00 1.0000e+00
       13  1    1    2    0    0 +6.2807941504e+01 +4.0453736761e+01 +4.9037824894e+01 8.9364705585e+01 0.0000000000e+00 0.0000e+00 -1.0000e+00
<mgrwt>
<rscale>  0 0.31717723E+03</rscale>
<asrwt>0</asrwt>
<pdfrwt beam="1">  1        2 0.11313332E-01 0.31717723E+03</pdfrwt>
<pdfrwt beam="2">  1       -2 0.52617084E-01 0.31717723E+03</pdfrwt>
<totfact> 0.24051085E+03</totfact>
</mgrwt>
<rwgt>
<wgt id='morphing_basis_vector_1'> +2.5066070e-04 </wgt>
<wgt id='morphing_basis_vector_2'> +1.3782010e-04 </wgt>
<wgt id='morphing_basis_vector_3'> +1.4846936e-04 </wgt>
<wgt id='morphing_basis_vector_4'> +2.4828649e-05 </wgt>
<wgt id='morphing_basis_vector_5'> +4.4025074e-06 </wgt>
</rwgt>
</event>
<event>
 4      1 +5.5534000e-05 3.18414500e+02 7.81860800e-03 9.93390000e-02
        2 -1    0    0  501    0 +0.0000000000e+00 +0.0000000000e+00 +8.2795419123e+02 8.2795419123e+02 0.0000000000e+00 0.0000e+00 1.0000e+00
       -2 -1    0    0    0  501 -0.0000000000e+00 -0.0000000000e+00 -3.0613947023e+01 3.0613947023e+01 0.0000000000e+00 0.0000e+00 -1.0000e+00
      -13  1    1    2    0    0 -3.8941009279e+01 +1.1261631164e+02 +1.1397332913e+02 1.6489013191e+02 0.0000000000e+00 0.0000e+00 -1.0000e+00
       13  1    1    2    0    0 +3.8941009279e+01 -1.1261631164e+02 +6.8336691508e+02 6.9367800634e+02 0.0000000000e+00 0.0000e+00 1.0000e+00
<mgrwt>
<rscale>  0 0.31841448E+03</rscale>
<asrwt>0</asrwt>
<pdfrwt beam="1">  1        2 0.12737755E+00 0.31841448E+03</pdfrwt>
<pdfrwt beam="2">  1       -2 0.47098386E-02 0.31841448E+03</pdfrwt>
<totfact> 0.76563143E+03</totfact>
</mgrwt>
<rwgt>
<wgt id='morphing_basis_vector_1'> +2.5311345e-04 </wgt>
<wgt id='morphing_basis_vector_2'> +1.3974649e-04 </wgt>
<wgt id='morphing_basis_vector_3'> +1.4944260e-04 </wgt>
<wgt id='morphing_basis_vector_4'> +2.5186736e-05 </wgt>
<wgt id='morphing_basis_vector_5'> +4.7469542e-06 </wgt>
</rwgt>
</event>
<event>
 4      1 +5.5534000e-05 3.36310700e+02 7.81860800e-03 9.86586000e-02
        2 -1    0    0  501    0 +0.0000000000e+00 +0.0000000000e+00 +3.0756957977e+02 3.0756957977e+02 0.0000000000e+00 0.0000e+00 -1.0000e+00
       -2 -1    0    0    0  501 -0.0000000000e+00 -0.0000000000e+00 -9.1934407243e+01 9.1934407243e+01 0.0000000000e+00 0.0000e+00 1.0000e+00
      -13  1    1    2    0    0 +2.3454956573e+01 -1.6440372366e+02 +7.6444670533e+01 1.8281823485e+02 0.0000000000e+00 0.0000e+00 1.0000e+00
       13  1    1    2    0    0 -2.3454956573e+01 +1.6440372366e+02 +1.3919050199e+02 2.1668575216e+02 0.0000000000e+00 0.0000e+00 -1.0000e+00
<mgrwt>
<rscale>  0 0.33631073E+03</rscale>
<asrwt>0</asrwt>
<pdfrwt beam="1">  1        2 0.47318396E-01 0.33631073E+03</pdfrwt>
<pdfrwt beam="2">  1       -2 0.14143755E-01 0.33631073E+03</pdfrwt>
<totfact> 0.43876641E+03</totfact>
</mgrwt>
<rwgt>
<wgt id='morphing_basis_vector_1'> +2.9070332e-04 </wgt>
<wgt id='morphing_basis_vector_2'> +1.6927121e-04 </wgt>
<wgt id='morphing_basis_vector_3'> +1.6563802e-04 </wgt>
<wgt id='morphing_basis_vector_4'> +3.1003598e-05 </wgt>
<wgt id='morphing_basis_vector_5'> +1.1328518e-05 </wgt>
</rwgt>
</event>
<event>
 4      1 +5.5534000e-05 3.24061200e+02 7.81860800e-03 9.91191700e-02
        2 -1    0    0  501    0 +0.0000000000e+00 +0.0000000000e+00 +1.8709482780e+02 1.8709482780e+02 0.0000000000e+00 0.0000e+00 -1.0000e+00
       -2 -1    0    0    0  501 -0.0000000000e+00 -0.0000000000e+00 -1.4032409382e+02 1.4032409382e+02 0.0000000000e+00 0.0000e+00 1.0000e+00
      -13  1    1    2    0    0 +5.5227084342e+01 -3.7867738700e+01 -1.2568974273e+02 1.4241456354e+02 0.0000000000e+00 0.0000e+00 1.0000e+00
       13  1    1    2    0    0 -5.5227084342e+01 +3.7867738700e+01 +1.7246047672e+02 1.8500435808e+02 0.0000000000e+00 0.0000e+00 -1.0000e+00
<mgrwt>
<rscale>  0 0.32406118E+03</rscale>
<asrwt>0</asrwt>
<pdfrwt beam="1">  1        2 0.28783820E-01 0.32406118E+03</pdfrwt>
<pdfrwt beam="2">  1       -2 0.21588322E-01 0.32406118E+03</pdfrwt>
<totfact> 0.38582536E+03</totfact>
</mgrwt>
<rwgt>
<wgt id='morphing_basis_vector_1'> +2.6287467e-04 </wgt>
<wgt id='morphing_basis_vector_2'> +1.4384574e-04 </wgt>
<wgt id='morphing_basis_vector_3'> +1.5638541e-04 </wgt>
<wgt id='morphing_basis_vector_4'> +2.6167986e-05 </wgt>
<wgt id='morphing_basis_vector_5'> +6.4075015e-06 </wgt>
</rwgt>
</event>
<event>
 4      1 +5.5534000e-05 3.15418500e+02 7.81860800e-03 9.94576700e-02
        2 -1    0    0  501    0 +0.0000000000e+00 +0.0000000000e+00 +9.4285140458e+01 9.4285140458e+01 0.0000000000e+00 0.0000e+00 -1.0000e+00
       -2 -1    0    0    0  501 -0.0000000000e+00 -0.0000000000e+00 -2.6379770343e+02 2.6379770343e+02 0.0000000000e+00 0.0000e+00 1.0000e+00
      -13  1    1    2    0    0 -1.4065454633e+02 +6.9560963990e+01 -6.6814302104e+01 1.7054788208e+02 0.0000000000e+00 0.0000e+00 1.0000e+00
       13  1    1    2    0    0 +1.4065454633e+02 -6.9560963990e+01 -1.0269826087e+02 1.8753496181e+02 0.0000000000e+00 0.0000e+00 -1.0000e+00
<mgrwt>
<rscale>  0 0.31541847E+03</rscale>
<asrwt>0</asrwt>
<pdfrwt beam="1">  1        2 0.14505406E-01 0.31541847E+03</pdfrwt>
<pdfrwt beam="2">  1       -2 0.40584263E-01 0.31541847E+03</pdfrwt>
<totfact> 0.28911997E+03</totfact>
</mgrwt>
<rwgt>
<wgt id='morphing_basis_vector_1'> +2.5789936e-04 </wgt>
<wgt id='morphing_basis_vector_2'> +1.6613122e-04 </wgt>
<wgt id='morphing_basis_vector_3'> +1.3213426e-04 </wgt>
<wgt id='morphing_basis_vector_4'> +2.9376347e-05 </wgt>
<wgt id='morphing_basis_vector_5'> +4.4451609e-06 </wgt>
</rwgt>
</event>
<event>
 4      1 +5.5534000e-05 3.13968400e+02 7.81860800e-03 9.95156200e-02
        2 -1    0    0  501    0 +0.0000000000e+00 +0.0000000000e+00 +1.2253166430e+02 1.2253166430e+02 0.0000000000e+00 0.0000e+00 -1.0000e+00
       -2 -1    0    0    0  501 -0.0000000000e+00 -0.0000000000e+00 -2.0112380173e+02 2.0112380173e+02 0.0000000000e+00 0.0000e+00 1.0000e+00
      -13  1    1    2    0    0 -6.2949188217e+01 -8.2984084584e+01 +8.1780217452e+01 1.3242719720e+02 0.0000000000e+00 0.0000e+00 1.0000e+00
       13  1    1    2    0    0 +6.2949188217e+01 +8.2984084584e+01 -1.6037235488e+02 1.9122826883e+02 0.0000000000e+00 0.0000e+00 -1.0000e+00
<mgrwt>
<rscale>  0 0.31396837E+03</rscale>
<asrwt>0</asrwt>
<pdfrwt beam="1">  1        2 0.18851025E-01 0.31396837E+03</pdfrwt>
<pdfrwt beam="2">  1       -2 0.30942123E-01 0.31396837E+03</pdfrwt>
<totfact> 0.34245342E+03</totfact>
</mgrwt>
<rwgt>
<wgt id='morphing_basis_vector_1'> +3.1589269e-04 </wgt>
<wgt id='morphing_basis_vector_2'> +3.4004143e-04 </wgt>
<wgt id='morphing_basis_vector_3'> +4.5357857e-05 </wgt>
<wgt id='morphing_basis_vector_4'> +5.8127310e-05 </wgt>
<wgt id='morphing_basis_vector_5'> +6.9079644e-06 </wgt>
</rwgt>
</event>
<event>
 4      1 +5.5534000e-05 3.10132100e+02 7.81860800e-03 9.96705300e-02
        2 -1    0    0  501    0 +0.0000000000e+00 +0.0000000000e+00 +5.3509339317e+02 5.3509339317e+02 0.0000000000e+00 0.0000e+00 1.0000e+00
       -2 -1    0    0    0  501 -0.0000000000e+00 -0.0000000000e+00 -4.4936991174e+01 4.4936991174e+01 0.0000000000e+00 0.0000e+00 -1.0000e+00
      -13  1    1    2    0    0 +1.0335606952e+02 +4.4157736186e+01 +4.5273430807e+01 1.2116957666e+02 0.0000000000e+00 0.0000e+00 -1.0000e+00
       13  1    1    2    0    0 -1.0335606952e+02 -4.4157736186e+01 +4.4488297119e+02 4.5886080768e+02 0.0000000000e+00 0.0000e+00 1.0000e+00
<mgrwt>
<rscale>  0 0.31013215E+03</rscale>
<asrwt>0</asrwt>
<pdfrwt beam="1">  1        2 0.82322056E-01 0.31013215E+03</pdfrwt>
<pdfrwt beam="2">  1       -2 0.69133837E-02 0.31013215E+03</pdfrwt>
<totfact> 0.71774590E+03</totfact>
</mgrwt>
<rwgt>
<wgt id='morphing_basis_vector_1'> +2.3893167e-04 </wgt>
<wgt id='morphing_basis_vector_2'> +1.3258736e-04 </wgt>
<wgt id='morphing_basis_vector_3'> +1.4056888e-04 </wgt>
<wgt id='morphing_basis_vector_4'> +2.3827595e-05 </wgt>
<wgt id='morphing_basis_vector_5'> +2.7803671e-06 </wgt>
</rwgt>
</event>
<event>
 4      1 +5.5534000e-05 3.07769500e+02 7.81860800e-03 9.97671200e-02
        2 -1    0    0  501    0 +0.0000000000e+00 +0.0000000000e+00 +1.1672482397e+03 1.1672482397e+03 0.0000000000e+00 0.0000e+00 1.0000e+00
       -2 -1    0    0    0  501 -0.0000000000e+00 -0.0000000000e+00 -2.0287475950e+01 2.0287475950e+01 0.0000000000e+00 0.0000e+00 -1.0000e+00
      -13  1    1    2    0    0 +4.9323430810e+01 -1.3281227565e+02 +3.4169203963e+02 3.6989910967e+02 0.0000000000e+00 0.0000e+00 -1.0000e+00
       13  1    1    2    0    0 -4.9323430810e+01 +1.3281227565e+02 +8.0526872412e+02 8.1763660598e+02 0.0000000000e+00 0.0000e+00 1.0000e+00
<mgrwt>
<rscale>  0 0.30776953E+03</rscale>
<asrwt>0</asrwt>
<pdfrwt beam="1">  1        2 0.17957660E+00 0.30776953E+03</pdfrwt>
<pdfrwt beam="2">  1       -2 0.31211511E-02 0.30776953E+03</pdfrwt>
<totfact> 0.87925484E+03</totfact>
</mgrwt>
<rwgt>
<wgt id='morphing_basis_vector_1'> +2.3617941e-04 </wgt>
<wgt id='morphing_basis_vector_2'> +1.3394569e-04 </wgt>
<wgt id='morphing_basis_vector_3'> +1.3650736e-04 </wgt>
<wgt id='morphing_basis_vector_4'> +2.4085837e-05 </wgt>
<wgt id='morphing_basis_vector_5'> +2.3715070e-06 </wgt>
</rwgt>
</event>
<event>
 4      1 +5.5534000e-05 3.05499600e+02 7.81860800e-03 9.98607900e-02
        2 -1    0    0  501    0 +0.0000000000e+00 +0.0000000000e+00 +7.3733336617e+02 7.3733336617e+02 0.0000000000e+00 0.0000e+00 1.0000e+00
       -2 -1    0    0    0  501 -0.0000000000e+00 -0.0000000000e+00 -3.1644436143e+01 3.1644436143e+01 0.0000000000e+00 0.0000e+00 -1.0000e+00
      -13  1    1    2    0    0 +1.3125933722e+02 +5.2059079161e+01 +2.0621653681e+02 2.4992883264e+02 0.0000000000e+00 0.0000e+00 -1.0000e+00
       13  1    1    2    0    0 -1.3125933722e+02 -5.2059079161e+01 +4.9947239322e+02 5.1904896968e+02 0.0000000000e+00 0.0000e+00 1.0000e+00
<mgrwt>
<rscale>  0 0.30549958E+03</rscale>
<asrwt>0</asrwt>
<pdfrwt beam="1">  1        2 0.11343589E+00 0.30549958E+03</pdfrwt>
<pdfrwt beam="2">  1       -2 0.48683754E-02 0.30549958E+03</pdfrwt>
<totfact> 0.83908977E+03</totfact>
</mgrwt>
<rwgt>
<wgt id='morphing_basis_vector_1'> +2.3253708e-04 </wgt>
<wgt id='morphing_basis_vector_2'> +1.3223844e-04 </wgt>
<wgt id='morphing_basis_vector_3'> +1.3415972e-04 </wgt>
<wgt id='morphing_basis_vector_4'> +2.3838422e-05 </wgt>
<wgt id='morphing_basis_vector_5'> +1.9735657e-06 </wgt>
</rwgt>
</event>
<event>
 4      1 +5.5534000e-05 3.03346400e+02 7.81860800e-03 9.99504400e-02
        2 -1    0    0  501    0 +0.0000000000e+00 +0.0000000000e+00 +1.5809277233e+02 1.5809277233e+02 0.0000000000e+00 0.0000e+00 -1.0000e+00
       -2 -1    0    0    0  501 -0.0000000000e+00 -0.0000000000e+00 -1.4551434843e+02 1.4551434843e+02 0.0000000000e+00 0.0000e+00 1.0000e+00
      -13  1    1    2    0    0 +1.4088120655e+02 +4.9568695778e+01 -2.0194758861e+01 1.5070633114e+02 0.0000000000e+00 0.0000e+00 1.0000e+00
       13  1    1    2    0    0 -1.4088120655e+02 -4.9568695778e+01 +3.2773182755e+01 1.5290078962e+02 0.0000000000e+00 0.0000e+00 -1.0000e+00
<mgrwt>
<rscale>  0 0.30334645E+03</rscale>
<asrwt>0</asrwt>
<pdfrwt beam="1">  1        2 0.24321965E-01 0.30334645E+03</pdfrwt>
<pdfrwt beam="2">  1       -2 0.22386823E-01 0.30334645E+03</pdfrwt>
<totfact> 0.43968983E+03</totfact>
</mgrwt>
<rwgt>
<wgt id='morphing_basis_vector_1'> +2.3102870e-04 </wgt>
<wgt id='morphing_basis_vector_2'> +1.3607438e-04 </wgt>
<wgt id='morphing_basis_vector_3'> +1.2921971e-04 </wgt>
<wgt id='morphing_basis_vector_4'> +2.4618452e-05 </wgt>
<wgt id='morphing_basis_vector_5'> +1.7064125e-06 </wgt>
</rwgt>
</event>
<event>
 4      1 +5.5534000e-05 3.22978300e+02 7.81860800e-03 9.91609500e-02
        2 -1    0    0  501    0 +0.0000000000e+00 +0.0000000000e+00 +6.4650890115e+02 6.4650890115e+02 0.0000000000e+00 0.0000e+00 -1.0000e+00
       -2 -1    0    0    0  501 -0.0000000000e+00 -0.0000000000e+00 -4.0337786676e+01 4.0337786676e+01 0.0000000000e+00 0.0000e+00 1.0000e+00
      -13  1    1    2    0    0 +1.1622721277e+02 -5.3512077594e+01 +9.3569986158e+01 1.5851703298e+02 0.0000000000e+00 0.0000e+00 1.0000e+00
       13  1    1    2    0    0 -1.1622721277e+02 +5.3512077594e+01 +5.1260112832e+02 5.2832965485e+02 0.0000000000e+00 0.0000e+00 -1.0000e+00
<mgrwt>
<rscale>  0 0.32297825E+03</rscale>
<asrwt>0</asrwt>
<pdfrwt beam="1">  1        2 0.99462900E-01 0.32297825E+03</pdfrwt>
<pdfrwt beam="2">  1       -2 0.62058138E-02 0.32297825E+03</pdfrwt>
<totfact> 0.68220323E+03</totfact>
</mgrwt>
<rwgt>
<wgt id='morphing_basis_vector_1'> +2.6138083e-04 </wgt>
<wgt id='morphing_basis_vector_2'> +1.4423297e-04 </wgt>
<wgt id='morphing_basis_vector_3'> +1.5447367e-04 </wgt>
<wgt id='morphing_basis_vector_4'> +2.6143189e-05 </wgt>
<wgt id='morphing_basis_vector_5'> +6.0883402e-06 </wgt>
</rwgt>
</event>
<event>
 4      1 +5.5534000e-05 3.29320600e+02 7.81860800e-03 9.89187600e-02
        2 -1    0    0  501    0 +0.0000000000e+00 +0.0000000000e+00 +1.0287670825e+03 1.0287670825e+03 0.0000000000e+00 0.0000e+00 1.0000e+00
       -2 -1    0    0    0  501 -0.0000000000e+00 -0.0000000000e+00 -2.6354867277e+01 2.6354867277e+01 0.0000000000e+00 0.0000e+00 -1.0000e+00
      -13  1    1    2    0    0 -1.2432363768e+02 +9.3856697266e+01 +3.3023560826e+02 3.6513148792e+02 0.0000000000e+00 0.0000e+00 -1.0000e+00
       13  1    1    2    0    0 +1.2432363768e+02 -9.3856697266e+01 +6.7217660697e+02 6.8999046187e+02 0.0000000000e+00 0.0000e+00 1.0000e+00
<mgrwt>
<rscale>  0 0.32932063E+03</rscale>
<asrwt>0</asrwt>
<pdfrwt beam="1">  1        2 0.15827183E+00 0.32932063E+03</pdfrwt>
<pdfrwt beam="2">  1       -2 0.40545958E-02 0.32932063E+03</pdfrwt>
<totfact> 0.71871783E+03</totfact>
</mgrwt>
<rwgt>
<wgt id='morphing_basis_vector_1'> +2.7480335e-04 </wgt>
<wgt id='morphing_basis_vector_2'> +1.5519588e-04 </wgt>
<wgt id='morphing_basis_vector_3'> +1.5981165e-04 </wgt>
<wgt id='morphing_basis_vector_4'> +2.8282883e-05 </wgt>
<wgt id='morphing_basis_vector_5'> +8.3506650e-06 </wgt>
</rwgt>
</event>
<event>
 4      1 +5.5534000e-05 3.17096600e+02 7.81860800e-03 9.93910300e-02
        2 -1    0    0  501    0 +0.0000000000e+00 +0.0000000000e+00 +1.4728572455e+02 1.4728572455e+02 0.0000000000e+00 0.0000e+00 -1.0000e+00
       -2 -1    0    0    0  501 -0.0000000000e+00 -0.0000000000e+00 -1.7067205093e+02 1.7067205093e+02 0.0000000000e+00 0.0000e+00 1.0000e+00
      -13  1    1    2    0    0 +8.5386003319e+01 +8.7509754691e+01 -1.1290704461e+02 1.6642333806e+02 0.0000000000e+00 0.0000e+00 1.0000e+00
       13  1    1    2    0    0 -8.5386003319e+01 -8.7509754691e+01 +8.9520718242e+01 1.5153443742e+02 0.0000000000e+00 0.0000e+00 -1.0000e+00
<mgrwt>
<rscale>  0 0.31709656E+03</rscale>
<asrwt>0</asrwt>
<pdfrwt beam="1">  1        2 0.22659342E-01 0.31709656E+03</pdfrwt>
<pdfrwt beam="2">  1       -2 0.26257239E-01 0.31709656E+03</pdfrwt>
<totfact> 0.36598528E+03</totfact>
</mgrwt>
<rwgt>
<wgt id='morphing_basis_vector_1'> +2.5087794e-04 </wgt>
<wgt id='morphing_basis_vector_2'> +1.3878921e-04 </wgt>
<wgt id='morphing_basis_vector_3'> +1.4788196e-04 </wgt>
<wgt id='morphing_basis_vector_4'> +2.4980442e-05 </wgt>
<wgt id='morphing_basis_vector_5'> +4.3988367e-06 </wgt>
</rwgt>
</event>
<event>
 4      1 +5.5534000e-05 3.28350900e+02 7.81860800e-03 9.89554000e-02
        2 -1    0    0  501    0 +0.0000000000e+00 +0.0000000000e+00 +3.4381683966e+01 3.4381683966e+01 0.0000000000e+00 0.0000e+00 -1.0000e+00
       -2 -1    0    0    0  501 -0.0000000000e+00 -0.0000000000e+00 -7.8395170602e+02 7.8395170602e+02 0.0000000000e+00 0.0000e+00 1.0000e+00
      -13  1    1    2    0    0 -1.0633626098e+01 +1.6242006697e+02 -3.2131892411e+02 3.6019328582e+02 0.0000000000e+00 0.0000e+00 1.0000e+00
       13  1    1    2    0    0 +1.0633626098e+01 -1.6242006697e+02 -4.2825109795e+02 4.5814010417e+02 0.0000000000e+00 0.0000e+00 -1.0000e+00
<mgrwt>
<rscale>  0 0.32835091E+03</rscale>
<asrwt>0</asrwt>
<pdfrwt beam="1">  1        2 0.52894903E-02 0.32835091E+03</pdfrwt>
<pdfrwt beam="2">  1       -2 0.12060794E+00 0.32835091E+03</pdfrwt>
<totfact> 0.10185184E+03</totfact>
</mgrwt>
<rwgt>
<wgt id='morphing_basis_vector_1'> +2.8350220e-04 </wgt>
<wgt id='morphing_basis_vector_2'> +1.8515936e-04 </wgt>
<wgt id='morphing_basis_vector_3'> +1.4453154e-04 </wgt>
<wgt id='morphing_basis_vector_4'> +3.2410418e-05 </wgt>
<wgt id='morphing_basis_vector_5'> +8.5702648e-06 </wgt>
</rwgt>
</event>
<event>
 4      1 +5.5534000e-05 3.43987700e+02 7.81860800e-03 9.83806700e-02
        2 -1    0    0  501    0 +0.0000000000e+00 +0.0000000000e+00 +3.6256218683e+02 3.6256218683e+02 0.0000000000e+00 0.0000e+00 1.0000e+00
       -2 -1    0    0    0  501 -0.0000000000e+00 -0.0000000000e+00 -8.1591191845e+01 8.1591191845e+01 0.0000000000e+00 0.0000e+00 -1.0000e+00
      -13  1    1    2    0    0 +1.1386674025e+02 -6.6870887070e+01 +2.8277748763e+02 3.1209046379e+02 0.0000000000e+00 0.0000e+00 -1.0000e+00
       13  1    1    2    0    0 -1.1386674025e+02 +6.6870887070e+01 -1.8064926524e+00 1.3206291489e+02 0.0000000000e+00 0.0000e+00 1.0000e+00
<mgrwt>
<rscale>  0 0.34398768E+03</rscale>
<asrwt>0</asrwt>
<pdfrwt beam="1">  1        2 0.55778797E-01 0.34398768E+03</pdfrwt>
<pdfrwt beam="2">  1       -2 0.12552491E-01 0.34398768E+03</pdfrwt>
<totfact> 0.44229376E+03</totfact>
</mgrwt>
<rwgt>
<wgt id='morphing_basis_vector_1'> +3.7193578e-04 </wgt>
<wgt id='morphing_basis_vector_2'> +3.7268628e-04 </wgt>
<wgt id='morphing_basis_vector_3'> +9.3614949e-05 </wgt>
<wgt id='morphing_basis_vector_4'> +5.5616174e-05 </wgt>
<wgt id='morphing_basis_vector_5'> +1.9010318e-05 </wgt>
</rwgt>
</event>
<event>
 4      1 +5.5534000e-05 3.38513300e+02 7.81860800e-03 9.85780400e-02
        2 -1    0    0  501    0 +0.0000000000e+00 +0.0000000000e+00 +1.0351743249e+03 1.0351743249e+03 0.0000000000e+00 0.0000e+00 -1.0000e+00
       -2 -1    0    0    0  501 -0.0000000000e+00 -0.0000000000e+00 -2.7674382958e+01 2.7674382958e+01 0.0000000000e+00 0.0000e+00 1.0000e+00
      -13  1    1    2    0    0 -1.4484617415e+02 -8.7434035645e+01 +5.1870454706e+02 5.4560015753e+02 0.0000000000e+00 0.0000e+00 1.0000e+00
       13  1    1    2    0    0 +1.4484617415e+02 +8.7434035645e+01 +4.8879539483e+02 5.1724855028e+02 0.0000000000e+00 0.0000e+00 -1.0000e+00
<mgrwt>
<rscale>  0 0.33851328E+03</rscale>
<asrwt>0</asrwt>
<pdfrwt beam="1">  1        2 0.15925756E+00 0.33851328E+03</pdfrwt>
<pdfrwt beam="2">  1       -2 0.42575982E-02 0.33851328E+03</pdfrwt>
<totfact> 0.66290048E+03</totfact>
</mgrwt>
<rwgt>
<wgt id='morphing_basis_vector_1'> +2.9994737e-04 </wgt>
<wgt id='morphing_basis_vector_2'> +1.8595866e-04 </wgt>
<wgt id='morphing_basis_vector_3'> +1.6234349e-04 </wgt>
<wgt id='morphing_basis_vector_4'> +3.3395179e-05 </wgt>
<wgt id='morphing_basis_vector_5'> +1.2611660e-05 </wgt>
</rwgt>
</event>
<event>
 4      1 +5.5534000e-05 3.08356700e+02 7.81860800e-03 9.97430300e-02
        2 -1    0    0  501    0 +0.0000000000e+00 +0.0000000000e+00 +2.7231516696e+02 2.7231516696e+02 0.0000000000e+00 0.0000e+00 -1.0000e+00
       -2 -1    0    0    0  501 -0.0000000000e+00 -0.0000000000e+00 -8.7292082211e+01 8.7292082211e+01 0.0000000000e+00 0.0000e+00 1.0000e+00
      -13  1    1    2    0    0 +1.5112646480e+02 +1.0521743994e+01 +5.9095276755e+01 1.6261047689e+02 0.0000000000e+00 0.0000e+00 1.0000e+00
       13  1    1    2    0    0 -1.5112646480e+02 -1.0521743994e+01 +1.2592780799e+02 1.9699677227e+02 0.0000000000e+00 0.0000e+00 -1.0000e+00
<mgrwt>
<rscale>  0 0.30835666E+03</rscale>
<asrwt>0</asrwt>
<pdfrwt beam="1">  1        2 0.41894641E-01 0.30835666E+03</pdfrwt>
<pdfrwt beam="2">  1       -2 0.13429551E-01 0.30835666E+03</pdfrwt>
<totfact> 0.54292280E+03</totfact>
</mgrwt>
<rwgt>
<wgt id='morphing_basis_vector_1'> +2.3908486e-04 </wgt>
<wgt id='morphing_basis_vector_2'> +1.4001972e-04 </wgt>
<wgt id='morphing_basis_vector_3'> +1.3432145e-04 </wgt>
<wgt id='morphing_basis_vector_4'> +2.5135538e-05 </wgt>
<wgt id='morphing_basis_vector_5'> +2.5645083e-06 </wgt>
</rwgt>
</event>
<event>
 4      1 +5.5534000e-05 3.47757200e+02 7.81860800e-03 9.82470600e-02
        2 -1    0    0  501    0 +0.0000000000e+00 +0.0000000000e+00 +4.1265903702e+01 4.1265903702e+01 0.0000000000e+00 0.0000e+00 1.0000e+00
       -2 -1    0    0    0  501 -0.0000000000e+00 -0.0000000000e+00 -7.3265739716e+02 7.3265739716e+02 0.0000000000e+00 0.0000e+00 -1.0000e+00
      -13  1    1    2    0    0 +1.5424419700e+02 -7.9574473001e+01 -3.6907913100e+02 4.0785141167e+02 0.0000000000e+00 0.0000e+00 -1.0000e+00
       13  1    1    2    0    0 -1.5424419700e+02 +7.9574473001e+01 -3.2231236246e+02 3.6607188919e+02 0.0000000000e+00 0.0000e+00 1.0000e+00
<mgrwt>
<rscale>  0 0.34775721E+03</rscale>
<asrwt>0</asrwt>
<pdfrwt beam="1">  1        2 0.63486010E-02 0.34775721E+03</pdfrwt>
<pdfrwt beam="2">  1       -2 0.11271652E+00 0.34775721E+03</pdfrwt>
<totfact> 0.95079952E+02</totfact>
</mgrwt>
<rwgt>
<wgt id='morphing_basis_vector_1'> +3.1678836e-04 </wgt>
<wgt id='morphing_basis_vector_2'> +1.8943372e-04 </wgt>
<wgt id='morphing_basis_vector_3'> +1.7838554e-04 </wgt>
<wgt id='morphing_basis_vector_4'> +3.5360001e-05 </wgt>
<wgt id='morphing_basis_vector_5'> +1.7215818e-05 </wgt>
</rwgt>
</event>
<event>
 4      1 +5.5534000e-05 3.05441700e+02 7.81860800e-03 9.98631900e-02
        2 -1    0    0  501    0 +0.0000000000e+00 +0.0000000000e+00 +8.5981781719e+02 8.5981781719e+02 0.0000000000e+00 0.0000e+00 1.0000e+00
       -2 -1    0    0    0  501 -0.0000000000e+00 -0.0000000000e+00 -2.7126272508e+01 2.7126272508e+01 0.0000000000e+00 0.0000e+00 -1.0000e+00
      -13  1    1    2    0    0 +3.4778735741e+01 -1.3861413295e+02 +5.7272641666e+02 5.9028720692e+02 0.0000000000e+00 0.0000e+00 1.0000e+00
       13  1    1    2    0    0 -3.4778735741e+01 +1.3861413295e+02 +2.5996512802e+02 2.9665688278e+02 0.0000000000e+00 0.0000e+00 -1.0000e+00
<mgrwt>
<rscale>  0 0.30544166E+03</rscale>
<asrwt>0</asrwt>
<pdfrwt beam="1">  1        2 0.13227964E+00 0.30544166E+03</pdfrwt>
<pdfrwt beam="2">  1       -2 0.41732734E-02 0.30544166E+03</pdfrwt>
<totfact> 0.87280268E+03</totfact>
</mgrwt>
<rwgt>
<wgt id='morphing_basis_vector_1'> +2.5373788e-04 </wgt>
<wgt id='morphing_basis_vector_2'> +1.9330894e-04 </wgt>
<wgt id='morphing_basis_vector_3'> +1.0330564e-04 </wgt>
<wgt id='morphing_basis_vector_4'> +3.4785048e-05 </wgt>
<wgt id='morphing_basis_vector_5'> +2.8267899e-06 </wgt>
</rwgt>
</event>
<event>
 4      1 +5.5534000e-05 3.40128300e+02 7.81860800e-03 9.85194000e-02
        2 -1    0    0  501    0 +0.0000000000e+00 +0.0000000000e+00 +2.3481555213e+02 2.3481555213e+02 0.0000000000e+00 0.0000e+00 1.0000e+00
       -2 -1    0    0    0  501 -0.0000000000e+00 -0.0000000000e+00 -1.2316821838e+02 1.2316821838e+02 0.0000000000e+00 0.0000e+00 -1.0000e+00
      -13  1    1    2    0    0 +3.1496035898e+01 -6.8309445679e+01 +2.1635482865e+02 2.2905805493e+02 0.0000000000e+00 0.0000e+00 1.0000e+00
       13  1    1    2    0    0 -3.1496035898e+01 +6.8309445679e+01 -1.0470749491e+02 1.2892571557e+02 0.0000000000e+00 0.0000e+00 -1.0000e+00
<mgrwt>
<rscale>  0 0.34012829E+03</rscale>
<asrwt>0</asrwt>
<pdfrwt beam="1">  1        2 0.36125469E-01 0.34012829E+03</pdfrwt>
<pdfrwt beam="2">  1       -2 0.18948957E-01 0.34012829E+03</pdfrwt>
<totfact> 0.37043110E+03</totfact>
</mgrwt>
<rwgt>
<wgt id='morphing_basis_vector_1'> +3.9480181e-04 </wgt>
<wgt id='morphing_basis_vector_2'> +4.5920898e-04 </wgt>
<wgt id='morphing_basis_vector_3'> +4.7563538e-05 </wgt>
<wgt id='morphing_basis_vector_4'> +6.6686357e-05 </wgt>
<wgt id='morphing_basis_vector_5'> +1.8831239e-05 </wgt>
</rwgt>
</event>
<event>
 4      1 +5.5534000e-05 3.22269800e+02 7.81860800e-03 9.91883800e-02
        2 -1    0    0  501    0 +0.0000000000e+00 +0.0000000000e+00 +4.7481875887e+02 4.7481875887e+02 0.0000000000e+00 0.0000e+00 -1.0000e+00
       -2 -1    0    0    0  501 -0.0000000000e+00 -0.0000000000e+00 -5.4682870258e+01 5.4682870258e+01 0.0000000000e+00 0.0000e+00 1.0000e+00
      -13  1    1    2    0    0 -6.8355383417e+01 +8.3053862837e+01 +1.2944071352e+01 1.0834182737e+02 0.0000000000e+00 0.0000e+00 1.0000e+00
       13  1    1    2    0    0 +6.8355383417e+01 -8.3053862837e+01 +4.0719181726e+02 4.2115980176e+02 0.0000000000e+00 0.0000e+00 -1.0000e+00
<mgrwt>
<rscale>  0 0.32226978E+03</rscale>
<asrwt>0</asrwt>
<pdfrwt beam="1">  1        2 0.73049037E-01 0.32226978E+03</pdfrwt>
<pdfrwt beam="2">  1       -2 0.84127496E-02 0.32226978E+03</pdfrwt>
<totfact> 0.60901864E+03</totfact>
</mgrwt>
<rwgt>
<wgt id='morphing_basis_vector_1'> +2.5979797e-04 </wgt>
<wgt id='morphing_basis_vector_2'> +1.4269892e-04 </wgt>
<wgt id='morphing_basis_vector_3'> +1.5406579e-04 </wgt>
<wgt id='morphing_basis_vector_4'> +2.5862307e-05 </wgt>
<wgt id='morphing_basis_vector_5'> +5.8532989e-06 </wgt>
</rwgt>
</event>
<event>
 4      1 +5.5534000e-05 3.30477100e+02 7.81860800e-03 9.88752300e-02
        2 -1    0    0  501    0 +0.0000000000e+00 +0.0000000000e+00 +7.4023612321e+02 7.4023612321e+02 0.0000000000e+00 0.0000e+00 -1.0000e+00
       -2 -1    0    0    0  501 -0.0000000000e+00 -0.0000000000e+00 -3.6885218630e+01 3.6885218630e+01 0.0000000000e+00 0.0000e+00 1.0000e+00
      -13  1    1    2    0    0 -8.7244621895e+01 +6.5656834146e+01 +6.0037238815e+01 1.2460703818e+02 0.0000000000e+00 0.0000e+00 1.0000e+00
       13  1    1    2    0    0 +8.7244621895e+01 -6.5656834146e+01 +6.4331366576e+02 6.5251430365e+02 0.0000000000e+00 0.0000e+00 -1.0000e+00
<mgrwt>
<rscale>  0 0.33047706E+03</rscale>
<asrwt>0</asrwt>
<pdfrwt beam="1">  1        2 0.11388247E+00 0.33047706E+03</pdfrwt>
<pdfrwt beam="2">  1       -2 0.56746496E-02 0.33047706E+03</pdfrwt>
<totfact> 0.66558482E+03</totfact>
</mgrwt>
<rwgt>
<wgt id='morphing_basis_vector_1'> +2.7493642e-04 </wgt>
<wgt id='morphing_basis_vector_2'> +1.5026985e-04 </wgt>
<wgt id='morphing_basis_vector_3'> +1.6398554e-04 </wgt>
<wgt id='morphing_basis_vector_4'> +2.7731137e-05 </wgt>
<wgt id='morphing_basis_vector_5'> +8.6728611e-06 </wgt>
</rwgt>
</event>
<event>
 4      1 +5.5534000e-05 3.25673800e+02 7.81860800e-03 9.90572800e-02
        2 -1    0    0  501    0 +0.0000000000e+00 +0.0000000000e+00 +7.7967631889e+02 7.7967631889e+02 0.0000000000e+00 0.0000e+00 -1.0000e+00
       -2 -1    0    0    0  501 -0.0000000000e+00 -0.0000000000e+00 -3.4008810247e+01 3.4008810247e+01 0.0000000000e+00 0.0000e+00 1.0000e+00
      -13  1    1    2    0    0 +1.3386019242e+02 +9.1035670200e+01 +3.2885651633e+02 3.6654147473e+02 0.0000000000e+00 0.0000e+00 1.0000e+00
       13  1    1    2    0    0 -1.3386019242e+02 -9.1035670200e+01 +4.1681099232e+02 4.4714365441e+02 0.0000000000e+00 0.0000e+00 -1.0000e+00
<mgrwt>
<rscale>  0 0.32567385E+03</rscale>
<asrwt>0</asrwt>
<pdfrwt beam="1">  1        2 0.11995019E+00 0.32567385E+03</pdfrwt>
<pdfrwt beam="2">  1       -2 0.52321252E-02 0.32567385E+03</pdfrwt>
<totfact> 0.70550861E+03</totfact>
</mgrwt>
<rwgt>
<wgt id='morphing_basis_vector_1'> +2.7100135e-04 </wgt>
<wgt id='morphing_basis_vector_2'> +1.6049436e-04 </wgt>
<wgt id='morphing_basis_vector_3'> +1.5130424e-04 </wgt>
<wgt id='morphing_basis_vector_4'> +2.8730412e-05 </wgt>
<wgt id='morphing_basis_vector_5'> +7.2156226e-06 </wgt>
</rwgt>
</event>
<event>
 4      1 +5.5534000e-05 3.12629200e+02 7.81860800e-03 9.95694300e-02
        2 -1    0    0  501    0 +0.0000000000e+00 +0.0000000000e+00 +7.6484382057e+02 7.6484382057e+02 0.0000000000e+00 0.0000e+00 -1.0000e+00
       -2 -1    0    0    0  501 -0.0000000000e+00 -0.0000000000e+00 -3.1946733506e+01 3.1946733506e+01 0.0000000000e+00 0.0000e+00 1.0000e+00
      -13  1    1    2    0    0 +3.9721293416e+01 -1.5118029221e+02 +3.6899697099e+02 4.0073934984e+02 0.0000000000e+00 0.0000e+00 1.0000e+00
       13  1    1    2    0    0 -3.9721293416e+01 +1.5118029221e+02 +3.6390011607e+02 3.9605120424e+02 0.0000000000e+00 0.0000e+00 -1.0000e+00
<mgrwt>
<rscale>  0 0.31262925E+03</rscale>
<asrwt>0</asrwt>
<pdfrwt beam="1">  1        2 0.11766827E+00 0.31262925E+03</pdfrwt>
<pdfrwt beam="2">  1       -2 0.49148827E-02 0.31262925E+03</pdfrwt>
<totfact> 0.79203858E+03</totfact>
</mgrwt>
<rwgt>
<wgt id='morphing_basis_vector_1'> +2.5002525e-04 </wgt>
<wgt id='morphing_basis_vector_2'> +1.5465563e-04 </wgt>
<wgt id='morphing_basis_vector_3'> +1.3341618e-04 </wgt>
<wgt id='morphing_basis_vector_4'> +2.7539725e-05 </wgt>
<wgt id='morphing_basis_vector_5'> +3.6287385e-06 </wgt>
</rwgt>
</event>
<event>
 4      1 +5.5534000e-05 3.33857600e+02 7.81860800e-03 9.87491100e-02
        2 -1    0    0  501    0 +0.0000000000e+00 +0.0000000000e+00 +1.4375376361e+03 1.4375376361e+03 0.0000000000e+00 0.0000e+00 1.0000e+00
       -2 -1    0    0    0  501 -0.0000000000e+00 -0.0000000000e+00 -1.9383992581e+01 1.9383992581e+01 0.0000000000e+00 0.0000e+00 -1.0000e+00
      -13  1    1    2    0    0 -1.5675656226e+02 -5.3674566809e+01 +7.9761563948e+02 8.1464365662e+02 0.0000000000e+00 0.0000e+00 -1.0000e+00
       13  1    1    2    0    0 +1.5675656226e+02 +5.3674566809e+01 +6.2053800400e+02 6.4227797202e+02 0.0000000000e+00 0.0000e+00 1.0000e+00
<mgrwt>
<rscale>  0 0.33385757E+03</rscale>
<asrwt>0</asrwt>
<pdfrwt beam="1">  1        2 0.22115955E+00 0.33385757E+03</pdfrwt>
<pdfrwt beam="2">  1       -2 0.29821538E-02 0.33385757E+03</pdfrwt>
<totfact> 0.66911474E+03</totfact>
</mgrwt>
<rwgt>
<wgt id='morphing_basis_vector_1'> +2.9412075e-04 </wgt>
<wgt id='morphing_basis_vector_2'> +1.9102675e-04 </wgt>
<wgt id='morphing_basis_vector_3'> +1.5163187e-04 </wgt>
<wgt id='morphing_basis_vector_4'> +3.3554206e-05 </wgt>
<wgt id='morphing_basis_vector_5'> +1.0746135e-05 </wgt>
</rwgt>
</event>
<event>
 4      1 +5.5534000e-05 3.17629700e+02 7.81860800e-03 9.93699500e-02
        2 -1    0    0  501    0 +0.0000000000e+00 +0.0000000000e+00 +3.2959795587e+02 3.2959795587e+02 0.0000000000e+00 0.0000e+00 -1.0000e+00
       -2 -1    0    0    0  501 -0.0000000000e+00 -0.0000000000e+00 -7.6524029817e+01 7.6524029817e+01 0.0000000000e+00 0.0000e+00 1.0000e+00
      -13  1    1    2    0    0 +1.0135834387e+02 -9.9682216204e+01 +3.6016775472e+01 1.4665355848e+02 0.0000000000e+00 0.0000e+00 1.0000e+00
       13  1    1    2    0    0 -1.0135834387e+02 +9.9682216204e+01 +2.1705715059e+02 2.5946842721e+02 0.0000000000e+00 0.0000e+00 -1.0000e+00
<mgrwt>
<rscale>  0 0.31762975E+03</rscale>
<asrwt>0</asrwt>
<pdfrwt beam="1">  1        2 0.50707377E-01 0.31762975E+03</pdfrwt>
<pdfrwt beam="2">  1       -2 0.11772928E-01 0.31762975E+03</pdfrwt>
<totfact> 0.54160160E+03</totfact>
</mgrwt>
<rwgt>
<wgt id='morphing_basis_vector_1'> +2.5256945e-04 </wgt>
<wgt id='morphing_basis_vector_2'> +1.4147066e-04 </wgt>
<wgt id='morphing_basis_vector_3'> +1.4741340e-04 </wgt>
<wgt id='morphing_basis_vector_4'> +2.5427663e-05 </wgt>
<wgt id='morphing_basis_vector_5'> +4.5765409e-06 </wgt>
</rwgt>
</event>
<event>
 4      1 +5.5534000e-05 3.30451000e+02 7.81860800e-03 9.88762100e-02
        2 -1    0    0  501    0 +0.0000000000e+00 +0.0000000000e+00 +6.5047778354e+02 6.5047778354e+02 0.0000000000e+00 0.0000e+00 -1.0000e+00
       -2 -1    0    0    0  501 -0.0000000000e+00 -0.0000000000e+00 -4.1968320828e+01 4.1968320828e+01 0.0000000000e+00 0.0000e+00 1.0000e+00
      -13  1    1    2    0    0 -7.3878544684e+00 -1.5850308670e+02 +2.0773503066e+02 2.6140323611e+02 0.0000000000e+00 0.0000e+00 1.0000e+00
       13  1    1    2    0    0 +7.3878544684e+00 +1.5850308670e+02 +4.0077443206e+02 4.3104286826e+02 0.0000000000e+00 0.0000e+00 -1.0000e+00
<mgrwt>
<rscale>  0 0.33045097E+03</rscale>
<asrwt>0</asrwt>
<pdfrwt beam="1">  1        2 0.10007350E+00 0.33045097E+03</pdfrwt>
<pdfrwt beam="2">  1       -2 0.64566652E-02 0.33045097E+03</pdfrwt>
<totfact> 0.63845959E+03</totfact>
</mgrwt>
<rwgt>
<wgt id='morphing_basis_vector_1'> +2.7743847e-04 </wgt>
<wgt id='morphing_basis_vector_2'> +1.5775058e-04 </wgt>
<wgt id='morphing_basis_vector_3'> +1.6056565e-04 </wgt>
<wgt id='morphing_basis_vector_4'> +2.8755983e-05 </wgt>
<wgt id='morphing_basis_vector_5'> +8.8050740e-06 </wgt>
</rwgt>
</event>
<event>
 4      1 +5.5534000e-05 3.36599700e+02 7.81860800e-03 9.86479900e-02
        2 -1    0    0  501    0 +0.0000000000e+00 +0.0000000000e+00 +1.5402568326e+03 1.5402568326e+03 0.0000000000e+00 0.0000e+00 1.0000e+00
       -2 -1    0    0    0  501 -0.0000000000e+00 -0.0000000000e+00 -1.8389684287e+01 1.8389684287e+01 0.0000000000e+00 0.0000e+00 -1.0000e+00
      -13  1    1    2    0    0 +1.0425136944e+02 +1.3155262261e+02 +8.1772104734e+02 8.3477071811e+02 0.0000000000e+00 0.0000e+00 -1.0000e+00
       13  1    1    2    0    0 -1.0425136944e+02 -1.3155262261e+02 +7.0414610099e+02 7.2387579880e+02 0.0000000000e+00 0.0000e+00 1.0000e+00
<mgrwt>
<rscale>  0 0.33659968E+03</rscale>
<asrwt>0</asrwt>
<pdfrwt beam="1">  1        2 0.23696249E+00 0.33659968E+03</pdfrwt>
<pdfrwt beam="2">  1       -2 0.28291834E-02 0.33659968E+03</pdfrwt>
<totfact> 0.63686381E+03</totfact>
</mgrwt>
<rwgt>
<wgt id='morphing_basis_vector_1'> +2.9766177e-04 </wgt>
<wgt id='morphing_basis_vector_2'> +1.8845201e-04 </wgt>
<wgt id='morphing_basis_vector_3'> +1.5774530e-04 </wgt>
<wgt id='morphing_basis_vector_4'> +3.3480113e-05 </wgt>
<wgt id='morphing_basis_vector_5'> +1.1828654e-05 </wgt>
</rwgt>
</event>
<event>
 4      1 +5.5534000e-05 3.37104200e+02 7.81860800e-03 9.86295000e-02
        2 -1    0    0  501    0 +0.0000000000e+00 +0.0000000000e+00 +4.4284331263e+02 4.4284331263e+02 0.0000000000e+00 0.0000e+00 -1.0000e+00
       -2 -1    0    0    0  501 -0.0000000000e+00 -0.0000000000e+00 -6.4153195202e+01 6.4153195202e+01 0.0000000000e+00 0.0000e+00 1.0000e+00
      -13  1    1    2    0    0 -1.0463393408e+02 -2.5340403826e+01 -5.7050754379e+00 1.0780975890e+02 0.0000000000e+00 0.0000e+00 1.0000e+00
       13  1    1    2    0    0 +1.0463393408e+02 +2.5340403826e+01 +3.8439519286e+02 3.9918674893e+02 0.0000000000e+00 0.0000e+00 -1.0000e+00
<mgrwt>
<rscale>  0 0.33710422E+03</rscale>
<asrwt>0</asrwt>
<pdfrwt beam="1">  1        2 0.68129739E-01 0.33710422E+03</pdfrwt>
<pdfrwt beam="2">  1       -2 0.98697226E-02 0.33710422E+03</pdfrwt>
<totfact> 0.51531256E+03</totfact>
</mgrwt>
<rwgt>
<wgt id='morphing_basis_vector_1'> +2.8773762e-04 </wgt>
<wgt id='morphing_basis_vector_2'> +1.5667418e-04 </wgt>
<wgt id='morphing_basis_vector_3'> +1.7256557e-04 </wgt>
<wgt id='morphing_basis_vector_4'> +2.9527047e-05 </wgt>
<wgt id='morphing_basis_vector_5'> +1.1416579e-05 </wgt>
</rwgt>
</event>
<event>
 4      1 +5.5534000e-05 3.54145000e+02 7.81860800e-03 9.80247700e-02
        2 -1    0    0  501    0 +0.0000000000e+00 +0.0000000000e+00 +7.3269362757e+02 7.3269362757e+02 0.0000000000e+00 0.0000e+00 1.0000e+00
       -2 -1    0    0    0  501 -0.0000000000e+00 -0.0000000000e+00 -4.2793698719e+01 4.2793698719e+01 0.0000000000e+00 0.0000e+00 -1.0000e+00
      -13  1    1    2    0    0 +9.4297955213e+01 +8.2270504718e+01 +7.0626969949e+01 1.4369658725e+02 0.0000000000e+00 0.0000e+00 -1.0000e+00
       13  1    1    2    0    0 -9.4297955213e+01 -8.2270504718e+01 +6.1927295891e+02 6.3179073904e+02 0.0000000000e+00 0.0000e+00 1.0000e+00
<mgrwt>
<rscale>  0 0.35414500E+03</rscale>
<asrwt>0</asrwt>
<pdfrwt beam="1">  1        2 0.11272209E+00 0.35414500E+03</pdfrwt>
<pdfrwt beam="2">  1       -2 0.65836465E-02 0.35414500E+03</pdfrwt>
<totfact> 0.53941781E+03</totfact>
</mgrwt>
<rwgt>
<wgt id='morphing_basis_vector_1'> +3.2345391e-04 </wgt>
<wgt id='morphing_basis_vector_2'> +1.7532202e-04 </wgt>
<wgt id='morphing_basis_vector_3'> +1.9673036e-04 </wgt>
<wgt id='morphing_basis_vector_4'> +3.5528246e-05 </wgt>
<wgt id='morphing_basis_vector_5'> +2.0571476e-05 </wgt>
</rwgt>
</event>
<event>
 4      1 +5.5534000e-05 3.09437200e+02 7.81860800e-03 9.96988500e-02
        2 -1    0    0  501    0 +0.0000000000e+00 +0.0000000000e+00 +3.0834764937e+02 3.0834764937e+02 0.0000000000e+00 0.0000e+00 -1.0000e+00
       -2 -1    0    0    0  501 -0.0000000000e+00 -0.0000000000e+00 -7.7632646240e+01 7.7632646240e+01 0.0000000000e+00 0.0000e+00 1.0000e+00
      -13  1    1    2    0    0 +1.2070341979e+01 -1.2902619290e+02 +9.9248153103e+00 1.2996904850e+02 0.0000000000e+00 0.0000e+00 1.0000e+00
       13  1    1    2    0    0 -1.2070341979e+01 +1.2902619290e+02 +2.2079018782e+02 2.5601124711e+02 0.0000000000e+00 0.0000e+00 -1.0000e+00
<mgrwt>
<rscale>  0 0.30943719E+03</rscale>
<asrwt>0</asrwt>
<pdfrwt beam="1">  1        2 0.47438099E-01 0.30943719E+03</pdfrwt>
<pdfrwt beam="2">  1       -2 0.11943484E-01 0.30943719E+03</pdfrwt>
<totfact> 0.56920680E+03</totfact>
</mgrwt>
<rwgt>
<wgt id='morphing_basis_vector_1'> +2.3816463e-04 </wgt>
<wgt id='morphing_basis_vector_2'> +1.3312590e-04 </wgt>
<wgt id='morphing_basis_vector_3'> +1.3930122e-04 </wgt>
<wgt id='morphing_basis_vector_4'> +2.3922634e-05 </wgt>
<wgt id='morphing_basis_vector_5'> +2.6580057e-06 </wgt>
</rwgt>
</event>
<event>
 4      1 +5.5534000e-05 3.20265700e+02 7.81860800e-03 9.92663900e-02
        2 -1    0    0  501    0 +0.0000000000e+00 +0.0000000000e+00 +9.8182640060e+02 9.8182640060e+02 0.0000000000e+00 0.0000e+00 -1.0000e+00
       -2 -1    0    0    0  501 -0.0000000000e+00 -0.0000000000e+00 -2.6117180785e+01 2.6117180785e+01 0.0000000000e+00 0.0000e+00 1.0000e+00
      -13  1    1    2    0    0 -3.4202555072e+01 -1.5048602196e+02 +3.4334386828e+02 3.7643175937e+02 0.0000000000e+00 0.0000e+00 1.0000e+00
       13  1    1    2    0    0 +3.4202555072e+01 +1.5048602196e+02 +6.1236535154e+02 6.3151182202e+02 0.0000000000e+00 0.0000e+00 -1.0000e+00
<mgrwt>
<rscale>  0 0.32026575E+03</rscale>
<asrwt>0</asrwt>
<pdfrwt beam="1">  1        2 0.15105019E+00 0.32026575E+03</pdfrwt>
<pdfrwt beam="2">  1       -2 0.40180286E-02 0.32026575E+03</pdfrwt>
<totfact> 0.77649388E+03</totfact>
</mgrwt>
<rwgt>
<wgt id='morphing_basis_vector_1'> +2.5868832e-04 </wgt>
<wgt id='morphing_basis_vector_2'> +1.4810887e-04 </wgt>
<wgt id='morphing_basis_vector_3'> +1.4835527e-04 </wgt>
<wgt id='morphing_basis_vector_4'> +2.6575617e-05 </wgt>
<wgt id='morphing_basis_vector_5'> +5.3825368e-06 </wgt>
</rwgt>
</event>
<event>
 4      1 +5.5534000e-05 3.23488300e+02 7.81860800e-03 9.91412500e-02
        2 -1    0    0  501    0 +0.0000000000e+00 +0.0000000000e+00 +2.9213654299e+02 2.9213654299e+02 0.0000000000e+00 0.0000e+00 -1.0000e+00
       -2 -1    0    0    0  501 -0.0000000000e+00 -0.0000000000e+00 -8.9551152699e+01 8.9551152699e+01 0.0000000000e+00 0.0000e+00 1.0000e+00
      -13  1    1    2    0    0 +3.6078292389e+01 +1.1328151109e+02 -2.8104553183e+01 1.2216468330e+02 0.0000000000e+00 0.0000e+00 1.0000e+00
       13  1    1    2    0    0 -3.6078292389e+01 -1.1328151109e+02 +2.3068994348e+02 2.5952301239e+02 0.0000000000e+00 0.0000e+00 -1.0000e+00
<mgrwt>
<rscale>  0 0.32348826E+03</rscale>
<asrwt>0</asrwt>
<pdfrwt beam="1">  1        2 0.44944083E-01 0.32348826E+03</pdfrwt>
<pdfrwt beam="2">  1       -2 0.13777101E-01 0.32348826E+03</pdfrwt>
<totfact> 0.48341963E+03</totfact>
</mgrwt>
<rwgt>
<wgt id='morphing_basis_vector_1'> +2.6212370e-04 </wgt>
<wgt id='morphing_basis_vector_2'> +1.4416999e-04 </wgt>
<wgt id='morphing_basis_vector_3'> +1.5531713e-04 </wgt>
<wgt id='morphing_basis_vector_4'> +2.6171377e-05 </wgt>
<wgt id='morphing_basis_vector_5'> +6.2395451e-06 </wgt>
</rwgt>
</event>
<event>
 4      1 +5.5534000e-05 3.09577200e+02 7.81860800e-03 9.96931400e-02
        2 -1    0    0  501    0 +0.0000000000e+00 +0.0000000000e+00 +5.1883114446e+02 5.1883114446e+02 0.0000000000e+00 0.0000e+00 -1.0000e+00
       -2 -1    0    0    0  501 -0.0000000000e+00 -0.0000000000e+00 -4.6179781929e+01 4.6179781929e+01 0.0000000000e+00 0.0000e+00 1.0000e+00
      -13  1    1    2    0    0 -1.0085532755e+02 -5.2162199611e+01 +4.4326553363e+01 1.2189149067e+02 0.0000000000e+00 0.0000e+00 1.0000e+00
       13  1    1    2    0    0 +1.0085532755e+02 +5.2162199611e+01 +4.2832480917e+02 4.4311943572e+02 0.0000000000e+00 0.0000e+00 -1.0000e+00
<mgrwt>
<rscale>  0 0.30957719E+03</rscale>
<asrwt>0</asrwt>
<pdfrwt beam="1">  1        2 0.79820172E-01 0.30957719E+03</pdfrwt>
<pdfrwt beam="2">  1       -2 0.71045822E-02 0.30957719E+03</pdfrwt>
<totfact> 0.71281608E+03</totfact>
</mgrwt>
<rwgt>
<wgt id='morphing_basis_vector_1'> +2.3803092e-04 </wgt>
<wgt id='morphing_basis_vector_2'> +1.3218744e-04 </wgt>
<wgt id='morphing_basis_vector_3'> +1.3996735e-04 </wgt>
<wgt id='morphing_basis_vector_4'> +2.3760046e-05 </wgt>
<wgt id='morphing_basis_vector_5'> +2.6698189e-06 </wgt>
</rwgt>
</event>
<event>
 4      1 +5.5534000e-05 3.15544800e+02 7.81860800e-03 9.94526400e-02
        2 -1    0    0  501    0 +0.0000000000e+00 +0.0000000000e+00 +5.8696421008e+02 5.8696421008e+02 0.0000000000e+00 0.0000e+00 1.0000e+00
       -2 -1    0    0    0  501 -0.0000000000e+00 -0.0000000000e+00 -4.2408247830e+01 4.2408247830e+01 0.0000000000e+00 0.0000e+00 -1.0000e+00
      -13  1    1    2    0    0 +4.6844366130e+01 +1.2399889461e+02 +1.0160620043e+02 1.6701479116e+02 0.0000000000e+00 0.0000e+00 -1.0000e+00
       13  1    1    2    0    0 -4.6844366130e+01 -1.2399889461e+02 +4.4294976182e+02 4.6235766674e+02 0.0000000000e+00 0.0000e+00 1.0000e+00
<mgrwt>
<rscale>  0 0.31554476E+03</rscale>
<asrwt>0</asrwt>
<pdfrwt beam="1">  1        2 0.90302180E-01 0.31554476E+03</pdfrwt>
<pdfrwt beam="2">  1       -2 0.65243463E-02 0.31554476E+03</pdfrwt>
<totfact> 0.70627035E+03</totfact>
</mgrwt>
<rwgt>
<wgt id='morphing_basis_vector_1'> +2.4849304e-04 </wgt>
<wgt id='morphing_basis_vector_2'> +1.3832007e-04 </wgt>
<wgt id='morphing_basis_vector_3'> +1.4575543e-04 </wgt>
<wgt id='morphing_basis_vector_4'> +2.4855045e-05 </wgt>
<wgt id='morphing_basis_vector_5'> +4.0184507e-06 </wgt>
</rwgt>
</event>
<event>
 4      1 +5.5534000e-05 3.38389800e+02 7.81860800e-03 9.85825400e-02
        2 -1    0    0  501    0 +0.0000000000e+00 +0.0000000000e+00 +4.6317888050e+02 4.6317888050e+02 0.0000000000e+00 0.0000e+00 1.0000e+00
       -2 -1    0    0    0  501 -0.0000000000e+00 -0.0000000000e+00 -6.1805305099e+01 6.1805305099e+01 0.0000000000e+00 0.0000e+00 -1.0000e+00
      -13  1    1    2    0    0 +1.0371580919e+02 -1.2460575637e+02 +1.2558549585e+02 2.0507384125e+02 0.0000000000e+00 0.0000e+00 -1.0000e+00
       13  1    1    2    0    0 -1.0371580919e+02 +1.2460575637e+02 +2.7578807955e+02 3.1991034435e+02 0.0000000000e+00 0.0000e+00 1.0000e+00
<mgrwt>
<rscale>  0 0.33838979E+03</rscale>
<asrwt>0</asrwt>
<pdfrwt beam="1">  1        2 0.71258287E-01 0.33838979E+03</pdfrwt>
<pdfrwt beam="2">  1       -2 0.95085088E-02 0.33838979E+03</pdfrwt>
<totfact> 0.51951889E+03</totfact>
</mgrwt>
<rwgt>
<wgt id='morphing_basis_vector_1'> +2.9295229e-04 </wgt>
<wgt id='morphing_basis_vector_2'> +1.6585203e-04 </wgt>
<wgt id='morphing_basis_vector_3'> +1.7085508e-04 </wgt>
<wgt id='morphing_basis_vector_4'> +3.0886541e-05 </wgt>
<wgt id='morphing_basis_vector_5'> +1.2156583e-05 </wgt>
</rwgt>
</event>
<event>
 4      1 +5.5534000e-05 3.28518700e+02 7.81860800e-03 9.89490500e-02
        2 -1    0    0  501    0 +0.0000000000e+00 +0.0000000000e+00 +1.0066347094e+03 1.0066347094e+03 0.0000000000e+00 0.0000e+00 -1.0000e+00
       -2 -1    0    0    0  501 -0.0000000000e+00 -0.0000000000e+00 -2.6803304426e+01 2.6803304426e+01 0.0000000000e+00 0.0000e+00 1.0000e+00
      -13  1    1    2    0    0 +1.3920962772e+02 +4.4269912239e+01 +2.5362833125e+02 2.9268835985e+02 0.0000000000e+00 0.0000e+00 1.0000e+00
       13  1    1    2    0    0 -1.3920962772e+02 -4.4269912239e+01 +7.2620307375e+02 7.4074965400e+02 0.0000000000e+00 0.0000e+00 -1.0000e+00
<mgrwt>
<rscale>  0 0.32851872E+03</rscale>
<asrwt>0</asrwt>
<pdfrwt beam="1">  1        2 0.15486685E+00 0.32851872E+03</pdfrwt>
<pdfrwt beam="2">  1       -2 0.41235861E-02 0.32851872E+03</pdfrwt>
<totfact> 0.72241565E+03</totfact>
</mgrwt>
<rwgt>
<wgt id='morphing_basis_vector_1'> +2.7226286e-04 </wgt>
<wgt id='morphing_basis_vector_2'> +1.5139240e-04 </wgt>
<wgt id='morphing_basis_vector_3'> +1.6019869e-04 </wgt>
<wgt id='morphing_basis_vector_4'> +2.7667532e-05 </wgt>
<wgt id='morphing_basis_vector_5'> +7.9986218e-06 </wgt>
</rwgt>
</event>
<event>
 4      1 +5.5534000e-05 3.12273400e+02 7.81860800e-03 9.95837700e-02
        2 -1    0    0  501    0 +0.0000000000e+00 +0.0000000000e+00 +9.7351462324e+01 9.7351462324e+01 0.0000000000e+00 0.0000e+00 -1.0000e+00
       -2 -1    0    0    0  501 -0.0000000000e+00 -0.0000000000e+00 -2.5041920172e+02 2.5041920172e+02 0.0000000000e+00 0.0000e+00 1.0000e+00
      -13  1    1    2    0    0 +9.2098951356e+00 +1.4456147132e+02 -1.4143184422e+02 2.0244951894e+02 0.0000000000e+00 0.0000e+00 1.0000e+00
       13  1    1    2    0    0 -9.2098951356e+00 -1.4456147132e+02 -1.1635895178e+01 1.4532114511e+02 0.0000000000e+00 0.0000e+00 -1.0000e+00
<mgrwt>
<rscale>  0 0.31227344E+03</rscale>
<asrwt>0</asrwt>
<pdfrwt beam="1">  1        2 0.14977148E-01 0.31227344E+03</pdfrwt>
<pdfrwt beam="2">  1       -2 0.38526031E-01 0.31227344E+03</pdfrwt>
<totfact> 0.30567791E+03</totfact>
</mgrwt>
<rwgt>
<wgt id='morphing_basis_vector_1'> +2.4380752e-04 </wgt>
<wgt id='morphing_basis_vector_2'> +1.3810543e-04 </wgt>
<wgt id='morphing_basis_vector_3'> +1.4098027e-04 </wgt>
<wgt id='morphing_basis_vector_4'> +2.4768195e-05 </wgt>
<wgt id='morphing_basis_vector_5'> +3.2924598e-06 </wgt>
</rwgt>
</event>
<event>
 4      1 +5.5534000e-05 3.02621400e+02 7.81860800e-03 9.99808100e-02
        2 -1    0    0  501    0 +0.0000000000e+00 +0.0000000000e+00 +2.3361323575e+02 2.3361323575e+02 0.0000000000e+00 0.0000e+00 -1.0000e+00
       -2 -1    0    0    0  501 -0.0000000000e+00 -0.0000000000e+00 -9.8003576980e+01 9.8003576980e+01 0.0000000000e+00 0.0000e+00 1.0000e+00
      -13  1    1    2    0    0 -5.3504882777e+00 +6.3500916807e+01 -8.2581179631e+01 1.0431033213e+02 0.0000000000e+00 0.0000e+00 1.0000e+00
       13  1    1    2    0    0 +5.3504882777e+00 -6.3500916807e+01 +2.1819083840e+02 2.2730648060e+02 0.0000000000e+00 0.0000e+00 -1.0000e+00
<mgrwt>
<rscale>  0 0.30262143E+03</rscale>
<asrwt>0</asrwt>
<pdfrwt beam="1">  1        2 0.35940498E-01 0.30262143E+03</pdfrwt>
<pdfrwt beam="2">  1       -2 0.15077473E-01 0.30262143E+03</pdfrwt>
<totfact> 0.53576111E+03</totfact>
</mgrwt>
<rwgt>
<wgt id='morphing_basis_vector_1'> +2.2656009e-04 </wgt>
<wgt id='morphing_basis_vector_2'> +1.2600384e-04 </wgt>
<wgt id='morphing_basis_vector_3'> +1.3335068e-04 </wgt>
<wgt id='morphing_basis_vector_4'> +2.2804840e-05 </wgt>
<wgt id='morphing_basis_vector_5'> +1.4708906e-06 </wgt>
</rwgt>
</event>
<event>
 4      1 +5.5534000e-05 3.21630600e+02 7.81860800e-03 9.92131900e-02
        2 -1    0    0  501    0 +0.0000000000e+00 +0.0000000000e+00 +4.8633270225e+01 4.8633270225e+01 0.0000000000e+00 0.0000e+00 -1.0000e+00
       -2 -1    0    0    0  501 -0.0000000000e+00 -0.0000000000e+00 -5.3176697384e+02 5.3176697384e+02 0.0000000000e+00 0.0000e+00 1.0000e+00
      -13  1    1    2    0    0 +6.0674421075e+00 -1.2802382622e+02 -4.1684716444e+02 4.3610603347e+02 0.0000000000e+00 0.0000e+00 1.0000e+00
       13  1    1    2    0    0 -6.0674421075e+00 +1.2802382622e+02 -6.6286539180e+01 1.4429421059e+02 0.0000000000e+00 0.0000e+00 -1.0000e+00
<mgrwt>
<rscale>  0 0.32163064E+03</rscale>
<asrwt>0</asrwt>
<pdfrwt beam="1">  1        2 0.74820408E-02 0.32163064E+03</pdfrwt>
<pdfrwt beam="2">  1       -2 0.81810312E-01 0.32163064E+03</pdfrwt>
<totfact> 0.16285546E+03</totfact>
</mgrwt>
<rwgt>
<wgt id='morphing_basis_vector_1'> +2.5897424e-04 </wgt>
<wgt id='morphing_basis_vector_2'> +1.4306779e-04 </wgt>
<wgt id='morphing_basis_vector_3'> +1.5288252e-04 </wgt>
<wgt id='morphing_basis_vector_4'> +2.5875983e-05 </wgt>
<wgt id='morphing_basis_vector_5'> +5.6760530e-06 </wgt>
</rwgt>
</event>
<event>
 4      1 +5.5534000e-05 3.04341600e+02 7.81860800e-03 9.99089100e-02
        2 -1    0    0  501    0 +0.0000000000e+00 +0.0000000000e+00 +4.0078708161e+01 4.0078708161e+01 0.0000000000e+00 0.0000e+00 -1.0000e+00
       -2 -1    0    0    0  501 -0.0000000000e+00 -0.0000000000e+00 -5.7776197940e+02 5.7776197940e+02 0.0000000000e+00 0.0000e+00 1.0000e+00
      -13  1    1    2    0    0 +1.1829724264e+02 +1.9591500222e+01 -4.5904150813e+02 4.7444406486e+02 0.0000000000e+00 0.0000e+00 1.0000e+00
       13  1    1    2    0    0 -1.1829724264e+02 -1.9591500222e+01 -7.8641763111e+01 1.4339662270e+02 0.0000000000e+00 0.0000e+00 -1.0000e+00
<mgrwt>
<rscale>  0 0.30434161E+03</rscale>
<asrwt>0</asrwt>
<pdfrwt beam="1">  1        2 0.61659553E-02 0.30434161E+03</pdfrwt>
<pdfrwt beam="2">  1       -2 0.88886455E-01 0.30434161E+03</pdfrwt>
<totfact> 0.17341841E+03</totfact>
</mgrwt>
<rwgt>
<wgt id='morphing_basis_vector_1'> +2.2966928e-04 </wgt>
<wgt id='morphing_basis_vector_2'> +1.2842387e-04 </wgt>
<wgt id='morphing_basis_vector_3'> +1.3447709e-04 </wgt>
<wgt id='morphing_basis_vector_4'> +2.3187010e-05 </wgt>
<wgt id='morphing_basis_vector_5'> +1.7450039e-06 </wgt>
</rwgt>
</event>
<event>
 4      1 +5.5534000e-05 3.08292600e+02 7.81860800e-03 9.97456600e-02
        2 -1    0    0  501    0 +0.0000000000e+00 +0.0000000000e+00 +3.2662984388e+02 3.2662984388e+02 0.0000000000e+00 0.0000e+00 1.0000e+00
       -2 -1    0    0    0  501 -0.0000000000e+00 -0.0000000000e+00 -7.2746188397e+01 7.2746188397e+01 0.0000000000e+00 0.0000e+00 -1.0000e+00
      -13  1    1    2    0    0 +1.5979870475e+01 +9.6994350614e+01 -2.6871817927e+01 1.0190856151e+02 0.0000000000e+00 0.0000e+00 -1.0000e+00
       13  1    1    2    0    0 -1.5979870475e+01 -9.6994350614e+01 +2.8075547341e+02 2.9746747076e+02 0.0000000000e+00 0.0000e+00 1.0000e+00
<mgrwt>
<rscale>  0 0.30829256E+03</rscale>
<asrwt>0</asrwt>
<pdfrwt beam="1">  1        2 0.50250744E-01 0.30829256E+03</pdfrwt>
<pdfrwt beam="2">  1       -2 0.11191721E-01 0.30829256E+03</pdfrwt>
<totfact> 0.59118372E+03</totfact>
</mgrwt>
<rwgt>
<wgt id='morphing_basis_vector_1'> +2.3577359e-04 </wgt>
<wgt id='morphing_basis_vector_2'> +1.3073568e-04 </wgt>
<wgt id='morphing_basis_vector_3'> +1.3885167e-04 </wgt>
<wgt id='morphing_basis_vector_4'> +2.3516865e-05 </wgt>
<wgt id='morphing_basis_vector_5'> +2.4154223e-06 </wgt>
</rwgt>
</event>
<event>
 4      1 +5.5534000e-05 3.20099700e+02 7.81860800e-03 9.92728800e-02
        2 -1    0    0  501    0 +0.0000000000e+00 +0.0000000000e+00 +6.0229236449e+02 6.0229236449e+02 0.0000000000e+00 0.0000e+00 -1.0000e+00
       -2 -1    0    0    0  501 -0.0000000000e+00 -0.0000000000e+00 -4.2530766143e+01 4.2530766143e+01 0.0000000000e+00 0.0000e+00 1.0000e+00
      -13  1    1    2    0    0 +1.0550763872e+02 -1.0914903990e+02 +3.8201494800e+02 4.1107273716e+02 0.0000000000e+00 0.0000e+00 1.0000e+00
       13  1    1    2    0    0 -1.0550763872e+02 +1.0914903990e+02 +1.7774665035e+02 2.3375039348e+02 0.0000000000e+00 0.0000e+00 -1.0000e+00
<mgrwt>
<rscale>  0 0.32009971E+03</rscale>
<asrwt>0</asrwt>
<pdfrwt beam="1">  1        2 0.92660358E-01 0.32009971E+03</pdfrwt>
<pdfrwt beam="2">  1       -2 0.65431952E-02 0.32009971E+03</pdfrwt>
<totfact> 0.68313914E+03</totfact>
</mgrwt>
<rwgt>
<wgt id='morphing_basis_vector_1'> +2.7840011e-04 </wgt>
<wgt id='morphing_basis_vector_2'> +2.0626972e-04 </wgt>
<wgt id='morphing_basis_vector_3'> +1.2057944e-04 </wgt>
<wgt id='morphing_basis_vector_4'> +3.5575073e-05 </wgt>
<wgt id='morphing_basis_vector_5'> +6.3434089e-06 </wgt>
</rwgt>
</event>
<event>
 4      1 +5.5534000e-05 3.19312000e+02 7.81860800e-03 9.93037300e-02
        2 -1    0    0  501    0 +0.0000000000e+00 +0.0000000000e+00 +6.8546029051e+02 6.8546029051e+02 0.0000000000e+00 0.0000e+00 1.0000e+00
       -2 -1    0    0    0  501 -0.0000000000e+00 -0.0000000000e+00 -3.7186757023e+01 3.7186757023e+01 0.0000000000e+00 0.0000e+00 -1.0000e+00
      -13  1    1    2    0    0 +1.0409484941e+02 +1.0504332772e+02 +4.6030557279e+02 4.8347808504e+02 0.0000000000e+00 0.0000e+00 1.0000e+00
       13  1    1    2    0    0 -1.0409484941e+02 -1.0504332772e+02 +1.8796796070e+02 2.3916896249e+02 0.0000000000e+00 0.0000e+00 -1.0000e+00
<mgrwt>
<rscale>  0 0.31931204E+03</rscale>
<asrwt>0</asrwt>
<pdfrwt beam="1">  1        2 0.10545542E+00 0.31931204E+03</pdfrwt>
<pdfrwt beam="2">  1       -2 0.57210400E-02 0.31931204E+03</pdfrwt>
<totfact> 0.71986259E+03</totfact>
</mgrwt>
<rwgt>
<wgt id='morphing_basis_vector_1'> +2.8180224e-04 </wgt>
<wgt id='morphing_basis_vector_2'> +2.1948906e-04 </wgt>
<wgt id='morphing_basis_vector_3'> +1.1297128e-04 </wgt>
<wgt id='morphing_basis_vector_4'> +3.7684478e-05 </wgt>
<wgt id='morphing_basis_vector_5'> +6.3494940e-06 </wgt>
</rwgt>
</event>
<event>
 4      1 +5.5534000e-05 3.03897400e+02 7.81860800e-03 9.99274300e-02
        2 -1    0    0  501    0 +0.0000000000e+00 +0.0000000000e+00 +1.2882991408e+03 1.2882991408e+03 0.0000000000e+00 0.0000e+00 1.0000e+00
       -2 -1    0    0    0  501 -0.0000000000e+00 -0.0000000000e+00 -1.7921614268e+01 1.7921614268e+01 0.0000000000e+00 0.0000e+00 -1.0000e+00
      -13  1    1    2    0    0 -8.3466090627e+01 +1.2658025415e+02 +6.7800984476e+02 6.9475643114e+02 0.0000000000e+00 0.0000e+00 -1.0000e+00
       13  1    1    2    0    0 +8.3466090627e+01 -1.2658025415e+02 +5.9236768180e+02 6.1146432395e+02 0.0000000000e+00 0.0000e+00 1.0000e+00
<mgrwt>
<rscale>  0 0.30389735E+03</rscale>
<asrwt>0</asrwt>
<pdfrwt beam="1">  1        2 0.19819980E+00 0.30389735E+03</pdfrwt>
<pdfrwt beam="2">  1       -2 0.27571724E-02 0.30389735E+03</pdfrwt>
<totfact> 0.90323875E+03</totfact>
</mgrwt>
<rwgt>
<wgt id='morphing_basis_vector_1'> +2.3683933e-04 </wgt>
<wgt id='morphing_basis_vector_2'> +1.5064818e-04 </wgt>
<wgt id='morphing_basis_vector_3'> +1.2259429e-04 </wgt>
<wgt id='morphing_basis_vector_4'> +2.7240727e-05 </wgt>
<wgt id='morphing_basis_vector_5'> +1.9854120e-06 </wgt>
</rwgt>
</event>
<event>
 4      1 +5.5534000e-05 3.44409800e+02 7.81860800e-03 9.83656100e-02
        2 -1    0    0  501    0 +0.0000000000e+00 +0.0000000000e+00 +7.8813285508e+02 7.8813285508e+02 0.0000000000e+00 0.0000e+00 1.0000e+00
       -2 -1    0    0    0  501 -0.0000000000e+00 -0.0000000000e+00 -3.7626305808e+01 3.7626305808e+01 0.0000000000e+00 0.0000e+00 -1.0000e+00
      -13  1    1    2    0    0 -6.6027587330e+01 -1.3702603235e+02 +1.8167343429e+02 2.3694094741e+02 0.0000000000e+00 0.0000e+00 -1.0000e+00
       13  1    1    2    0    0 +6.6027587330e+01 +1.3702603235e+02 +5.6883311498e+02 5.8881821349e+02 0.0000000000e+00 0.0000e+00 1.0000e+00
<mgrwt>
<rscale>  0 0.34440980E+03</rscale>
<asrwt>0</asrwt>
<pdfrwt beam="1">  1        2 0.12125120E+00 0.34440980E+03</pdfrwt>
<pdfrwt beam="2">  1       -2 0.57886630E-02 0.34440980E+03</pdfrwt>
<totfact> 0.59902501E+03</totfact>
</mgrwt>
<rwgt>
<wgt id='morphing_basis_vector_1'> +3.0363480e-04 </wgt>
<wgt id='morphing_basis_vector_2'> +1.6751450e-04 </wgt>
<wgt id='morphing_basis_vector_3'> +1.8117398e-04 </wgt>
<wgt id='morphing_basis_vector_4'> +3.2218595e-05 </wgt>
<wgt id='morphing_basis_vector_5'> +1.5024334e-05 </wgt>
</rwgt>
</event>
<event>
 4      1 +5.5534000e-05 3.21454300e+02 7.81860800e-03 9.92200500e-02
        2 -1    0    0  501    0 +0.0000000000e+00 +0.0000000000e+00 +7.2944166940e+02 7.2944166940e+02 0.0000000000e+00 0.0000e+00 -1.0000e+00
       -2 -1    0    0    0  501 -0.0000000000e+00 -0.0000000000e+00 -3.5415044323e+01 3.5415044323e+01 0.0000000000e+00 0.0000e+00 1.0000e+00
      -13  1    1    2    0    0 -7.9189151870e+01 +7.9901156225e+01 +7.3872130634e+01 1.3458160433e+02 0.0000000000e+00 0.0000e+00 1.0000e+00
       13  1    1    2    0    0 +7.9189151870e+01 -7.9901156225e+01 +6.2015449444e+02 6.3027510939e+02 0.0000000000e+00 0.0000e+00 -1.0000e+00
<mgrwt>
<rscale>  0 0.32145425E+03</rscale>
<asrwt>0</asrwt>
<pdfrwt beam="1">  1        2 0.11222178E+00 0.32145425E+03</pdfrwt>
<pdfrwt beam="2">  1       -2 0.54484689E-02 0.32145425E+03</pdfrwt>
<totfact> 0.71955161E+03</totfact>
</mgrwt>
<rwgt>
<wgt id='morphing_basis_vector_1'> +2.5838844e-04 </wgt>
<wgt id='morphing_basis_vector_2'> +1.4212132e-04 </wgt>
<wgt id='morphing_basis_vector_3'> +1.5304943e-04 </wgt>
<wgt id='morphing_basis_vector_4'> +2.5720489e-05 </wgt>
<wgt id='morphing_basis_vector_5'> +5.6093434e-06 </wgt>
</rwgt>
</event>
<event>
 4      1 +5.5534000e-05 3.41027700e+02 7.81860800e-03 9.84868900e-02
        2 -1    0    0  501    0 +0.0000000000e+00 +0.0000000000e+00 +4.2140127151e+02 4.2140127151e+02 0.0000000000e+00 0.0000e+00 -1.0000e+00
       -2 -1    0    0    0  501 -0.0000000000e+00 -0.0000000000e+00 -6.8995916321e+01 6.8995916321e+01 0.0000000000e+00 0.0000e+00 1.0000e+00
      -13  1    1    2    0    0 -1.6717167512e+02 -3.3529798520e+01 +1.7920203867e+02 2.4735397109e+02 0.0000000000e+00 0.0000e+00 1.0000e+00
       13  1    1    2    0    0 +1.6717167512e+02 +3.3529798520e+01 +1.7320331652e+02 2.4304321674e+02 0.0000000000e+00 0.0000e+00 -1.0000e+00
<mgrwt>
<rscale>  0 0.34102766E+03</rscale>
<asrwt>0</asrwt>
<pdfrwt beam="1">  1        2 0.64830964E-01 0.34102766E+03</pdfrwt>
<pdfrwt beam="2">  1       -2 0.10614757E-01 0.34102766E+03</pdfrwt>
<totfact> 0.48645726E+03</totfact>
</mgrwt>
<rwgt>
<wgt id='morphing_basis_vector_1'> +3.0464427e-04 </wgt>
<wgt id='morphing_basis_vector_2'> +1.8751773e-04 </wgt>
<wgt id='morphing_basis_vector_3'> +1.6633921e-04 </wgt>
<wgt id='morphing_basis_vector_4'> +3.3935627e-05 </wgt>
<wgt id='morphing_basis_vector_5'> +1.3790732e-05 </wgt>
</rwgt>
</event>
<event>
 4      1 +5.5534000e-05 3.07114300e+02 7.81860800e-03 9.97940700e-02
        2 -1    0    0  501    0 +0.0000000000e+00 +0.0000000000e+00 +8.6332007168e+02 8.6332007168e+02 0.0000000000e+00 0.0000e+00 1.0000e+00
       -2 -1    0    0    0  501 -0.0000000000e+00 -0.0000000000e+00 -2.7312918591e+01 2.7312918591e+01 0.0000000000e+00 0.0000e+00 -1.0000e+00
      -13  1    1    2    0    0 +2.5682493187e+01 -1.3110797955e+02 +6.3754180253e+02 6.5138962436e+02 0.0000000000e+00 0.0000e+00 1.0000e+00
       13  1    1    2    0    0 -2.5682493187e+01 +1.3110797955e+02 +1.9846535056e+02 2.3924336590e+02 0.0000000000e+00 0.0000e+00 -1.0000e+00
<mgrwt>
<rscale>  0 0.30711425E+03</rscale>
<asrwt>0</asrwt>
<pdfrwt beam="1">  1        2 0.13281845E+00 0.30711425E+03</pdfrwt>
<pdfrwt beam="2">  1       -2 0.42019881E-02 0.30711425E+03</pdfrwt>
<totfact> 0.85964469E+03</totfact>
</mgrwt>
<rwgt>
<wgt id='morphing_basis_vector_1'> +2.6966856e-04 </wgt>
<wgt id='morphing_basis_vector_2'> +2.3279013e-04 </wgt>
<wgt id='morphing_basis_vector_3'> +8.6116014e-05 </wgt>
<wgt id='morphing_basis_vector_4'> +4.1541914e-05 </wgt>
<wgt id='morphing_basis_vector_5'> +3.6967967e-06 </wgt>
</rwgt>
</event>
<event>
 4      1 +5.5534000e-05 3.01597100e+02 7.81860800e-03 1.00023900e-01
        2 -1    0    0  501    0 +0.0000000000e+00 +0.0000000000e+00 +1.4102342557e+02 1.4102342557e+02 0.0000000000e+00 0.0000e+00 1.0000e+00
       -2 -1    0    0    0  501 -0.0000000000e+00 -0.0000000000e+00 -1.6125119311e+02 1.6125119311e+02 0.0000000000e+00 0.0000e+00 -1.0000e+00
      -13  1    1    2    0    0 +6.3910150522e+01 -3.1414472492e+01 -1.4333662069e+02 1.6005237659e+02 0.0000000000e+00 0.0000e+00 -1.0000e+00
       13  1    1    2    0    0 -6.3910150522e+01 +3.1414472492e+01 +1.2310885315e+02 1.4222224209e+02 0.0000000000e+00 0.0000e+00 1.0000e+00
<mgrwt>
<rscale>  0 0.30159705E+03</rscale>
<asrwt>0</asrwt>
<pdfrwt beam="1">  1        2 0.21695912E-01 0.30159705E+03</pdfrwt>
<pdfrwt beam="2">  1       -2 0.24807876E-01 0.30159705E+03</pdfrwt>
<totfact> 0.42288075E+03</totfact>
</mgrwt>
<rwgt>
<wgt id='morphing_basis_vector_1'> +2.2496289e-04 </wgt>
<wgt id='morphing_basis_vector_2'> +1.2525747e-04 </wgt>
<wgt id='morphing_basis_vector_3'> +1.3234552e-04 </wgt>
<wgt id='morphing_basis_vector_4'> +2.2708292e-05 </wgt>
<wgt id='morphing_basis_vector_5'> +1.3277454e-06 </wgt>
</rwgt>
</event>
<event>
 4      1 +5.5534000e-05 3.13491000e+02 7.81860800e-03 9.95347700e-02
        2 -1    0    0  501    0 +0.0000000000e+00 +0.0000000000e+00 +9.3218342093e+02 9.3218342093e+02 0.0000000000e+00 0.0000e+00 1.0000e+00
       -2 -1    0    0    0  501 -0.0000000000e+00 -0.0000000000e+00 -2.6356562215e+01 2.6356562215e+01 0.0000000000e+00 0.0000e+00 -1.0000e+00
      -13  1    1    2    0    0 -1.3307393013e+02 -3.8761468320e+01 +2.2909921805e+02 2.6776402674e+02 0.0000000000e+00 0.0000e+00 -1.0000e+00
       13  1    1    2    0    0 +1.3307393013e+02 +3.8761468320e+01 +6.7672764066e+02 6.9077595640e+02 0.0000000000e+00 0.0000e+00 1.0000e+00
<mgrwt>
<rscale>  0 0.31349099E+03</rscale>
<asrwt>0</asrwt>
<pdfrwt beam="1">  1        2 0.14341281E+00 0.31349099E+03</pdfrwt>
<pdfrwt beam="2">  1       -2 0.40548565E-02 0.31349099E+03</pdfrwt>
<totfact> 0.82088761E+03</totfact>
</mgrwt>
<rwgt>
<wgt id='morphing_basis_vector_1'> +2.4530912e-04 </wgt>
<wgt id='morphing_basis_vector_2'> +1.3751827e-04 </wgt>
<wgt id='morphing_basis_vector_3'> +1.4306992e-04 </wgt>
<wgt id='morphing_basis_vector_4'> +2.4681462e-05 </wgt>
<wgt id='morphing_basis_vector_5'> +3.5421371e-06 </wgt>
</rwgt>
</event>
<event>
 4      1 +5.5534000e-05 3.17043900e+02 7.81860800e-03 9.93931100e-02
        2 -1    0    0  501    0 +0.0000000000e+00 +0.0000000000e+00 +2.7686925088e+02 2.7686925088e+02 0.0000000000e+00 0.0000e+00 -1.0000e+00
       -2 -1    0    0    0  501 -0.0000000000e+00 -0.0000000000e+00 -9.0761989899e+01 9.0761989899e+01 0.0000000000e+00 0.0000e+00 1.0000e+00
      -13  1    1    2    0    0 -1.0131991871e+02 +6.3729673572e+01 -2.7462526051e+01 1.2280630097e+02 0.0000000000e+00 0.0000e+00 1.0000e+00
       13  1    1    2    0    0 +1.0131991871e+02 -6.3729673572e+01 +2.1356978703e+02 2.4482493981e+02 0.0000000000e+00 0.0000e+00 -1.0000e+00
<mgrwt>
<rscale>  0 0.31704387E+03</rscale>
<asrwt>0</asrwt>
<pdfrwt beam="1">  1        2 0.42595269E-01 0.31704387E+03</pdfrwt>
<pdfrwt beam="2">  1       -2 0.13963383E-01 0.31704387E+03</pdfrwt>
<totfact> 0.50177925E+03</totfact>
</mgrwt>
<rwgt>
<wgt id='morphing_basis_vector_1'> +2.5073909e-04 </wgt>
<wgt id='morphing_basis_vector_2'> +1.3860617e-04 </wgt>
<wgt id='morphing_basis_vector_3'> +1.4788946e-04 </wgt>
<wgt id='morphing_basis_vector_4'> +2.4949208e-05 </wgt>
<wgt id='morphing_basis_vector_5'> +4.3828032e-06 </wgt>
</rwgt>
</event>
<event>
 4      1 +5.5534000e-05 3.20926300e+02 7.81860800e-03 9.92406100e-02
        2 -1    0    0  501    0 +0.0000000000e+00 +0.0000000000e+00 +1.0674290068e+02 1.0674290068e+02 0.0000000000e+00 0.0000e+00 -1.0000e+00
       -2 -1    0    0    0  501 -0.0000000000e+00 -0.0000000000e+00 -2.4121913089e+02 2.4121913089e+02 0.0000000000e+00 0.0000e+00 1.0000e+00
      -13  1    1    2    0    0 +7.3601826747e+01 -5.4313312030e+01 -2.1018252557e+02 2.2922447256e+02 0.0000000000e+00 0.0000e+00 1.0000e+00
       13  1    1    2    0    0 -7.3601826747e+01 +5.4313312030e+01 +7.5706295362e+01 1.1873755902e+02 0.0000000000e+00 0.0000e+00 -1.0000e+00
<mgrwt>
<rscale>  0 0.32092635E+03</rscale>
<asrwt>0</asrwt>
<pdfrwt beam="1">  1        2 0.16421985E-01 0.32092635E+03</pdfrwt>
<pdfrwt beam="2">  1       -2 0.37110635E-01 0.32092635E+03</pdfrwt>
<totfact> 0.29293743E+03</totfact>
</mgrwt>
<rwgt>
<wgt id='morphing_basis_vector_1'> +2.5729819e-04 </wgt>
<wgt id='morphing_basis_vector_2'> +1.4121898e-04 </wgt>
<wgt id='morphing_basis_vector_3'> +1.5264519e-04 </wgt>
<wgt id='morphing_basis_vector_4'> +2.5549413e-05 </wgt>
<wgt id='morphing_basis_vector_5'> +5.4452935e-06 </wgt>
</rwgt>
</event>
<event>
 4      1 +5.5534000e-05 3.59547200e+02 7.81860800e-03 9.78407000e-02
        2 -1    0    0  501    0 +0.0000000000e+00 +0.0000000000e+00 +7.8624909237e+01 7.8624909237e+01 0.0000000000e+00 0.0000e+00 1.0000e+00
       -2 -1    0    0    0  501 -0.0000000000e+00 -0.0000000000e+00 -4.1104720935e+02 4.1104720935e+02 0.0000000000e+00 0.0000e+00 -1.0000e+00
      -13  1    1    2    0    0 -3.0827221662e+01 +1.1693237359e+02 -3.4737659753e+02 3.6782332458e+02 0.0000000000e+00 0.0000e+00 -1.0000e+00
       13  1    1    2    0    0 +3.0827221662e+01 -1.1693237359e+02 +1.4954297423e+01 1.2184879401e+02 0.0000000000e+00 0.0000e+00 1.0000e+00
<mgrwt>
<rscale>  0 0.35954721E+03</rscale>
<asrwt>0</asrwt>
<pdfrwt beam="1">  1        2 0.12096140E-01 0.35954721E+03</pdfrwt>
<pdfrwt beam="2">  1       -2 0.63238030E-01 0.35954721E+03</pdfrwt>
<totfact> 0.15377925E+03</totfact>
</mgrwt>
<rwgt>
<wgt id='morphing_basis_vector_1'> +3.3547899e-04 </wgt>
<wgt id='morphing_basis_vector_2'> +1.8138976e-04 </wgt>
<wgt id='morphing_basis_vector_3'> +2.0527926e-04 </wgt>
<wgt id='morphing_basis_vector_4'> +3.7820507e-05 </wgt>
<wgt id='morphing_basis_vector_5'> +2.4140731e-05 </wgt>
</rwgt>
</event>
<event>
 4      1 +5.5534000e-05 3.38051000e+02 7.81860800e-03 9.85949000e-02
        2 -1    0    0  501    0 +0.0000000000e+00 +0.0000000000e+00 +1.0407627013e+03 1.0407627013e+03 0.0000000000e+00 0.0000e+00 -1.0000e+00
       -2 -1    0    0    0  501 -0.0000000000e+00 -0.0000000000e+00 -2.7450654383e+01 2.7450654383e+01 0.0000000000e+00 0.0000e+00 1.0000e+00
      -13  1    1    2    0    0 -1.2281304875e+02 +9.0433133653e+01 +7.3688419279e+02 7.5250216624e+02 0.0000000000e+00 0.0000e+00 1.0000e+00
       13  1    1    2    0    0 +1.2281304875e+02 -9.0433133653e+01 +2.7642785413e+02 3.1571118945e+02 0.0000000000e+00 0.0000e+00 -1.0000e+00
<mgrwt>
<rscale>  0 0.33805099E+03</rscale>
<asrwt>0</asrwt>
<pdfrwt beam="1">  1        2 0.16011731E+00 0.33805099E+03</pdfrwt>
<pdfrwt beam="2">  1       -2 0.42231784E-02 0.33805099E+03</pdfrwt>
<totfact> 0.66587168E+03</totfact>
</mgrwt>
<rwgt>
<wgt id='morphing_basis_vector_1'> +3.2713040e-04 </wgt>
<wgt id='morphing_basis_vector_2'> +2.6865730e-04 </wgt>
<wgt id='morphing_basis_vector_3'> +1.2549106e-04 </wgt>
<wgt id='morphing_basis_vector_4'> +4.3636253e-05 </wgt>
<wgt id='morphing_basis_vector_5'> +1.4050826e-05 </wgt>
</rwgt>
</event>
<event>
 4      1 +5.5534000e-05 3.37355700e+02 7.81860800e-03 9.86203000e-02
        2 -1    0    0  501    0 +0.0000000000e+00 +0.0000000000e+00 +7.5533014677e+01 7.5533014677e+01 0.0000000000e+00 0.0000e+00 1.0000e+00
       -2 -1    0    0    0  501 -0.0000000000e+00 -0.0000000000e+00 -3.7668579041e+02 3.7668579041e+02 0.0000000000e+00 0.0000e+00 -1.0000e+00
      -13  1    1    2    0    0 -1.1745884646e+02 -7.1628065582e+01 -1.9750318464e+01 1.3898645786e+02 0.0000000000e+00 0.0000e+00 -1.0000e+00
       13  1    1    2    0    0 +1.1745884646e+02 +7.1628065582e+01 -2.8140245727e+02 3.1323234722e+02 0.0000000000e+00 0.0000e+00 1.0000e+00
<mgrwt>
<rscale>  0 0.33735568E+03</rscale>
<asrwt>0</asrwt>
<pdfrwt beam="1">  1        2 0.11620464E-01 0.33735568E+03</pdfrwt>
<pdfrwt beam="2">  1       -2 0.57951660E-01 0.33735568E+03</pdfrwt>
<totfact> 0.19257734E+03</totfact>
</mgrwt>
<rwgt>
<wgt id='morphing_basis_vector_1'> +3.4558981e-04 </wgt>
<wgt id='morphing_basis_vector_2'> +3.2658300e-04 </wgt>
<wgt id='morphing_basis_vector_3'> +9.8794073e-05 </wgt>
<wgt id='morphing_basis_vector_4'> +5.0931527e-05 </wgt>
<wgt id='morphing_basis_vector_5'> +1.4887909e-05 </wgt>
</rwgt>
</event>
<event>
 4      1 +5.5534000e-05 3.16906200e+02 7.81860800e-03 9.93985700e-02
        2 -1    0    0  501    0 +0.0000000000e+00 +0.0000000000e+00 +5.2383460506e+01 5.2383460506e+01 0.0000000000e+00 0.0000e+00 -1.0000e+00
       -2 -1    0    0    0  501 -0.0000000000e+00 -0.0000000000e+00 -4.7929972448e+02 4.7929972448e+02 0.0000000000e+00 0.0000e+00 1.0000e+00
      -13  1    1    2    0    0 +3.7405589845e+01 +1.4312299833e+02 -3.0872025626e+02 3.4233253924e+02 0.0000000000e+00 0.0000e+00 1.0000e+00
       13  1    1    2    0    0 -3.7405589845e+01 -1.4312299833e+02 -1.1819600772e+02 1.8935064574e+02 0.0000000000e+00 0.0000e+00 -1.0000e+00
<mgrwt>
<rscale>  0 0.31690616E+03</rscale>
<asrwt>0</asrwt>
<pdfrwt beam="1">  1        2 0.80589938E-02 0.31690616E+03</pdfrwt>
<pdfrwt beam="2">  1       -2 0.73738421E-01 0.31690616E+03</pdfrwt>
<totfact> 0.18581391E+03</totfact>
</mgrwt>
<rwgt>
<wgt id='morphing_basis_vector_1'> +2.5188829e-04 </wgt>
<wgt id='morphing_basis_vector_2'> +1.4252098e-04 </wgt>
<wgt id='morphing_basis_vector_3'> +1.4580150e-04 </wgt>
<wgt id='morphing_basis_vector_4'> +2.5571341e-05 </wgt>
<wgt id='morphing_basis_vector_5'> +4.4143837e-06 </wgt>
</rwgt>
</event>
<event>
 4      1 +5.5534000e-05 3.34732300e+02 7.81860800e-03 9.87167400e-02
        2 -1    0    0  501    0 +0.0000000000e+00 +0.0000000000e+00 +1.9871209321e+02 1.9871209321e+02 0.0000000000e+00 0.0000e+00 -1.0000e+00
       -2 -1    0    0    0  501 -0.0000000000e+00 -0.0000000000e+00 -1.4096492319e+02 1.4096492319e+02 0.0000000000e+00 0.0000e+00 1.0000e+00
      -13  1    1    2    0    0 +5.3297088205e+01 -1.1370863679e+02 +1.4114792407e+02 1.8892583244e+02 0.0000000000e+00 0.0000e+00 1.0000e+00
       13  1    1    2    0    0 -5.3297088205e+01 +1.1370863679e+02 -8.3400754049e+01 1.5075118397e+02 0.0000000000e+00 0.0000e+00 -1.0000e+00
<mgrwt>
<rscale>  0 0.33473234E+03</rscale>
<asrwt>0</asrwt>
<pdfrwt beam="1">  1        2 0.30571092E-01 0.33473234E+03</pdfrwt>
<pdfrwt beam="2">  1       -2 0.21686911E-01 0.33473234E+03</pdfrwt>
<totfact> 0.35797870E+03</totfact>
</mgrwt>
<rwgt>
<wgt id='morphing_basis_vector_1'> +3.5196189e-04 </wgt>
<wgt id='morphing_basis_vector_2'> +3.5764300e-04 </wgt>
<wgt id='morphing_basis_vector_3'> +7.9519177e-05 </wgt>
<wgt id='morphing_basis_vector_4'> +5.5316952e-05 </wgt>
<wgt id='morphing_basis_vector_5'> +1.4347870e-05 </wgt>
</rwgt>
</event>
<event>
 4      1 +5.5534000e-05 3.04650900e+02 7.81860800e-03 9.98960400e-02
        2 -1    0    0  501    0 +0.0000000000e+00 +0.0000000000e+00 +1.1780364406e+02 1.1780364406e+02 0.0000000000e+00 0.0000e+00 1.0000e+00
       -2 -1    0    0    0  501 -0.0000000000e+00 -0.0000000000e+00 -1.9696367226e+02 1.9696367226e+02 0.0000000000e+00 0.0000e+00 -1.0000e+00
      -13  1    1    2    0    0 +7.2929145483e+01 -5.1903195258e+00 +9.8489180146e+01 1.2266098925e+02 0.0000000000e+00 0.0000e+00 1.0000e+00
       13  1    1    2    0    0 -7.2929145483e+01 +5.1903195258e+00 -1.7764920834e+02 1.9210632707e+02 0.0000000000e+00 0.0000e+00 -1.0000e+00
<mgrwt>
<rscale>  0 0.30465087E+03</rscale>
<asrwt>0</asrwt>
<pdfrwt beam="1">  1        2 0.18123638E-01 0.30465087E+03</pdfrwt>
<pdfrwt beam="2">  1       -2 0.30302103E-01 0.30465087E+03</pdfrwt>
<totfact> 0.37169490E+03</totfact>
</mgrwt>
<rwgt>
<wgt id='morphing_basis_vector_1'> +3.0799720e-04 </wgt>
<wgt id='morphing_basis_vector_2'> +3.5185541e-04 </wgt>
<wgt id='morphing_basis_vector_3'> +2.1948110e-05 </wgt>
<wgt id='morphing_basis_vector_4'> +6.3510424e-05 </wgt>
<wgt id='morphing_basis_vector_5'> +4.8997281e-06 </wgt>
</rwgt>
</event>
<event>
 4      1 +5.5534000e-05 3.39016900e+02 7.81860800e-03 9.85597200e-02
        2 -1    0    0  501    0 +0.0000000000e+00 +0.0000000000e+00 +1.0384069704e+02 1.0384069704e+02 0.0000000000e+00 0.0000e+00 1.0000e+00
       -2 -1    0    0    0  501 -0.0000000000e+00 -0.0000000000e+00 -2.7670374611e+02 2.7670374611e+02 0.0000000000e+00 0.0000e+00 -1.0000e+00
      -13  1    1    2    0    0 -1.1262944535e+02 +8.2716208481e+01 +2.1267949945e+01 1.4134952706e+02 0.0000000000e+00 0.0000e+00 1.0000e+00
       13  1    1    2    0    0 +1.1262944535e+02 -8.2716208481e+01 -1.9413099902e+02 2.3919491609e+02 0.0000000000e+00 0.0000e+00 -1.0000e+00
<mgrwt>
<rscale>  0 0.33901687E+03</rscale>
<asrwt>0</asrwt>
<pdfrwt beam="1">  1        2 0.15975492E-01 0.33901687E+03</pdfrwt>
<pdfrwt beam="2">  1       -2 0.42569807E-01 0.33901687E+03</pdfrwt>
<totfact> 0.23602942E+03</totfact>
</mgrwt>
<rwgt>
<wgt id='morphing_basis_vector_1'> +3.4768520e-04 </wgt>
<wgt id='morphing_basis_vector_2'> +3.2488835e-04 </wgt>
<wgt id='morphing_basis_vector_3'> +1.0307170e-04 </wgt>
<wgt id='morphing_basis_vector_4'> +5.0537516e-05 </wgt>
<wgt id='morphing_basis_vector_5'> +1.5611747e-05 </wgt>
</rwgt>
</event>
<event>
 4      1 +5.5534000e-05 3.31291400e+02 7.81860800e-03 9.88447000e-02
        2 -1    0    0  501    0 +0.0000000000e+00 +0.0000000000e+00 +8.2074842463e+02 8.2074842463e+02 0.0000000000e+00 0.0000e+00 -1.0000e+00
       -2 -1    0    0    0  501 -0.0000000000e+00 -0.0000000000e+00 -3.3431064660e+01 3.3431064660e+01 0.0000000000e+00 0.0000e+00 1.0000e+00
      -13  1    1    2    0    0 -1.5343036486e+02 -6.0701581280e+01 +3.5603490612e+02 3.9241102585e+02 0.0000000000e+00 0.0000e+00 1.0000e+00
       13  1    1    2    0    0 +1.5343036486e+02 +6.0701581280e+01 +4.3128245385e+02 4.6176846344e+02 0.0000000000e+00 0.0000e+00 -1.0000e+00
<mgrwt>
<rscale>  0 0.33129137E+03</rscale>
<asrwt>0</asrwt>
<pdfrwt beam="1">  1        2 0.12626897E+00 0.33129137E+03</pdfrwt>
<pdfrwt beam="2">  1       -2 0.51432414E-02 0.33129137E+03</pdfrwt>
<totfact> 0.67948534E+03</totfact>
</mgrwt>
<rwgt>
<wgt id='morphing_basis_vector_1'> +2.8217562e-04 </wgt>
<wgt id='morphing_basis_vector_2'> +1.6780553e-04 </wgt>
<wgt id='morphing_basis_vector_3'> +1.5747654e-04 </wgt>
<wgt id='morphing_basis_vector_4'> +3.0217367e-05 </wgt>
<wgt id='morphing_basis_vector_5'> +9.3064165e-06 </wgt>
</rwgt>
</event>
<event>
 4      1 +5.5534000e-05 3.18982000e+02 7.81860800e-03 9.93166900e-02
        2 -1    0    0  501    0 +0.0000000000e+00 +0.0000000000e+00 +9.4378071509e+01 9.4378071509e+01 0.0000000000e+00 0.0000e+00 1.0000e+00
       -2 -1    0    0    0  501 -0.0000000000e+00 -0.0000000000e+00 -2.6952643479e+02 2.6952643479e+02 0.0000000000e+00 0.0000e+00 -1.0000e+00
      -13  1    1    2    0    0 +4.1271471910e+01 +1.5147850967e+02 -5.5543201137e+01 1.6653564326e+02 0.0000000000e+00 0.0000e+00 -1.0000e+00
       13  1    1    2    0    0 -4.1271471910e+01 -1.5147850967e+02 -1.1960516214e+02 1.9736886304e+02 0.0000000000e+00 0.0000e+00 1.0000e+00
<mgrwt>
<rscale>  0 0.31898204E+03</rscale>
<asrwt>0</asrwt>
<pdfrwt beam="1">  1        2 0.14519703E-01 0.31898204E+03</pdfrwt>
<pdfrwt beam="2">  1       -2 0.41465606E-01 0.31898204E+03</pdfrwt>
<totfact> 0.27769559E+03</totfact>
</mgrwt>
<rwgt>
<wgt id='morphing_basis_vector_1'> +2.6764694e-04 </wgt>
<wgt id='morphing_basis_vector_2'> +1.7965440e-04 </wgt>
<wgt id='morphing_basis_vector_3'> +1.3134420e-04 </wgt>
<wgt id='morphing_basis_vector_4'> +3.1468465e-05 </wgt>
<wgt id='morphing_basis_vector_5'> +5.5766449e-06 </wgt>
</rwgt>
</event>
<event>
 4      1 +5.5534000e-05 3.27128500e+02 7.81860800e-03 9.90017900e-02
        2 -1    0    0  501    0 +0.0000000000e+00 +0.0000000000e+00 +7.0612457139e+02 7.0612457139e+02 0.0000000000e+00 0.0000e+00 1.0000e+00
       -2 -1    0    0    0  501 -0.0000000000e+00 -0.0000000000e+00 -3.7887453315e+01 3.7887453315e+01 0.0000000000e+00 0.0000e+00 -1.0000e+00
      -13  1    1    2    0    0 +1.2763164515e+02 +6.1830182334e+01 +1.4878227216e+02 2.0554554921e+02 0.0000000000e+00 0.0000e+00 -1.0000e+00
       13  1    1    2    0    0 -1.2763164515e+02 -6.1830182334e+01 +5.1945484591e+02 5.3846647549e+02 0.0000000000e+00 0.0000e+00 1.0000e+00
<mgrwt>
<rscale>  0 0.32712849E+03</rscale>
<asrwt>0</asrwt>
<pdfrwt beam="1">  1        2 0.10863454E+00 0.32712849E+03</pdfrwt>
<pdfrwt beam="2">  1       -2 0.58288395E-02 0.32712849E+03</pdfrwt>
<totfact> 0.67626859E+03</totfact>
</mgrwt>
<rwgt>
<wgt id='morphing_basis_vector_1'> +2.6943865e-04 </wgt>
<wgt id='morphing_basis_vector_2'> +1.4940018e-04 </wgt>
<wgt id='morphing_basis_vector_3'> +1.5880685e-04 </wgt>
<wgt id='morphing_basis_vector_4'> +2.7246814e-05 </wgt>
<wgt id='morphing_basis_vector_5'> +7.4890780e-06 </wgt>
</rwgt>
</event>
<event>
 4      1 +5.5534000e-05 3.40775400e+02 7.81860800e-03 9.84960000e-02
        2 -1    0    0  501    0 +0.0000000000e+00 +0.0000000000e+00 +1.6456885209e+02 1.6456885209e+02 0.0000000000e+00 0.0000e+00 -1.0000e+00
       -2 -1    0    0    0  501 -0.0000000000e+00 -0.0000000000e+00 -1.7641224564e+02 1.7641224564e+02 0.0000000000e+00 0.0000e+00 1.0000e+00
      -13  1    1    2    0    0 +4.6169004302e+01 +4.2675877692e+01 -1.6438129833e+02 1.7599437132e+02 0.0000000000e+00 0.0000e+00 1.0000e+00
       13  1    1    2    0    0 -4.6169004302e+01 -4.2675877692e+01 +1.5253790478e+02 1.6498672641e+02 0.0000000000e+00 0.0000e+00 -1.0000e+00
<mgrwt>
<rscale>  0 0.34077536E+03</rscale>
<asrwt>0</asrwt>
<pdfrwt beam="1">  1        2 0.25318285E-01 0.34077536E+03</pdfrwt>
<pdfrwt beam="2">  1       -2 0.27140346E-01 0.34077536E+03</pdfrwt>
<totfact> 0.30497377E+03</totfact>
</mgrwt>
<rwgt>
<wgt id='morphing_basis_vector_1'> +2.9493316e-04 </wgt>
<wgt id='morphing_basis_vector_2'> +1.5996837e-04 </wgt>
<wgt id='morphing_basis_vector_3'> +1.7770348e-04 </wgt>
<wgt id='morphing_basis_vector_4'> +3.0594246e-05 </wgt>
<wgt id='morphing_basis_vector_5'> +1.3117474e-05 </wgt>
</rwgt>
</event>
<event>
 4      1 +5.5534000e-05 3.08971400e+02 7.81860800e-03 9.97178700e-02
        2 -1    0    0  501    0 +0.0000000000e+00 +0.0000000000e+00 +8.5340447445e+02 8.5340447445e+02 0.0000000000e+00 0.0000e+00 -1.0000e+00
       -2 -1    0    0    0  501 -0.0000000000e+00 -0.0000000000e+00 -2.7965433060e+01 2.7965433060e+01 0.0000000000e+00 0.0000e+00 1.0000e+00
      -13  1    1    2    0    0 +9.9273150453e+01 +1.1706199093e+02 +4.6271383442e+02 4.8750667758e+02 0.0000000000e+00 0.0000e+00 1.0000e+00
       13  1    1    2    0    0 -9.9273150453e+01 -1.1706199093e+02 +3.6272520697e+02 3.9386322993e+02 0.0000000000e+00 0.0000e+00 -1.0000e+00
<mgrwt>
<rscale>  0 0.30897136E+03</rscale>
<asrwt>0</asrwt>
<pdfrwt beam="1">  1        2 0.13129298E+00 0.30897136E+03</pdfrwt>
<pdfrwt beam="2">  1       -2 0.43023750E-02 0.30897136E+03</pdfrwt>
<totfact> 0.84243748E+03</totfact>
</mgrwt>
<rwgt>
<wgt id='morphing_basis_vector_1'> +2.4701185e-04 </wgt>
<wgt id='morphing_basis_vector_2'> +1.6045394e-04 </wgt>
<wgt id='morphing_basis_vector_3'> +1.2506440e-04 </wgt>
<wgt id='morphing_basis_vector_4'> +2.8664920e-05 </wgt>
<wgt id='morphing_basis_vector_5'> +2.9820821e-06 </wgt>
</rwgt>
</event>
<event>
 4      1 +5.5534000e-05 3.53641300e+02 7.81860800e-03 9.80421200e-02
        2 -1    0    0  501    0 +0.0000000000e+00 +0.0000000000e+00 +5.6732172052e+02 5.6732172052e+02 0.0000000000e+00 0.0000e+00 1.0000e+00
       -2 -1    0    0    0  501 -0.0000000000e+00 -0.0000000000e+00 -5.5110767335e+01 5.5110767335e+01 0.0000000000e+00 0.0000e+00 -1.0000e+00
      -13  1    1    2    0    0 -1.0133707952e+02 -2.3209620759e+01 +4.3626274900e+00 1.0405249973e+02 0.0000000000e+00 0.0000e+00 -1.0000e+00
       13  1    1    2    0    0 +1.0133707952e+02 +2.3209620759e+01 +5.0784832569e+02 5.1837998813e+02 0.0000000000e+00 0.0000e+00 1.0000e+00
<mgrwt>
<rscale>  0 0.35364126E+03</rscale>
<asrwt>0</asrwt>
<pdfrwt beam="1">  1        2 0.87280260E-01 0.35364126E+03</pdfrwt>
<pdfrwt beam="2">  1       -2 0.84785800E-02 0.35364126E+03</pdfrwt>
<totfact> 0.49443578E+03</totfact>
</mgrwt>
<rwgt>
<wgt id='morphing_basis_vector_1'> +3.2215339e-04 </wgt>
<wgt id='morphing_basis_vector_2'> +1.7417105e-04 </wgt>
<wgt id='morphing_basis_vector_3'> +1.9619270e-04 </wgt>
<wgt id='morphing_basis_vector_4'> +3.5266897e-05 </wgt>
<wgt id='morphing_basis_vector_5'> +2.0243206e-05 </wgt>
</rwgt>
</event>
<event>
 4      1 +5.5534000e-05 3.29712700e+02 7.81860800e-03 9.89039800e-02
        2 -1    0    0  501    0 +0.0000000000e+00 +0.0000000000e+00 +1.2253691932e+03 1.2253691932e+03 0.0000000000e+00 0.0000e+00 1.0000e+00
       -2 -1    0    0    0  501 -0.0000000000e+00 -0.0000000000e+00 -2.2179130941e+01 2.2179130941e+01 0.0000000000e+00 0.0000e+00 -1.0000e+00
      -13  1    1    2    0    0 -1.4696114581e+02 -1.5690070829e+01 +3.2525567909e+02 3.5726042809e+02 0.0000000000e+00 0.0000e+00 -1.0000e+00
       13  1    1    2    0    0 +1.4696114581e+02 +1.5690070829e+01 +8.7793438316e+02 8.9028789604e+02 0.0000000000e+00 0.0000e+00 1.0000e+00
<mgrwt>
<rscale>  0 0.32971275E+03</rscale>
<asrwt>0</asrwt>
<pdfrwt beam="1">  1        2 0.18851828E+00 0.32971275E+03</pdfrwt>
<pdfrwt beam="2">  1       -2 0.34121750E-02 0.32971275E+03</pdfrwt>
<totfact> 0.71628742E+03</totfact>
</mgrwt>
<rwgt>
<wgt id='morphing_basis_vector_1'> +2.7460397e-04 </wgt>
<wgt id='morphing_basis_vector_2'> +1.5281238e-04 </wgt>
<wgt id='morphing_basis_vector_3'> +1.6155102e-04 </wgt>
<wgt id='morphing_basis_vector_4'> +2.7993516e-05 </wgt>
<wgt id='morphing_basis_vector_5'> +8.4452901e-06 </wgt>
</rwgt>
</event>
<event>
 4      1 +5.5534000e-05 3.42100000e+02 7.81860800e-03 9.84482700e-02
        2 -1    0    0  501    0 +0.0000000000e+00 +0.0000000000e+00 +6.2231588420e+02 6.2231588420e+02 0.0000000000e+00 0.0000e+00 -1.0000e+00
       -2 -1    0    0    0  501 -0.0000000000e+00 -0.0000000000e+00 -4.7014885098e+01 4.7014885098e+01 0.0000000000e+00 0.0000e+00 1.0000e+00
      -13  1    1    2    0    0 -3.6845357234e+01 +1.5289903701e+02 +1.5607566987e+02 2.2157461631e+02 0.0000000000e+00 0.0000e+00 1.0000e+00
       13  1    1    2    0    0 +3.6845357234e+01 -1.5289903701e+02 +4.1922532922e+02 4.4775615298e+02 0.0000000000e+00 0.0000e+00 -1.0000e+00
<mgrwt>
<rscale>  0 0.34210004E+03</rscale>
<asrwt>0</asrwt>
<pdfrwt beam="1">  1        2 0.95740899E-01 0.34210004E+03</pdfrwt>
<pdfrwt beam="2">  1       -2 0.72330597E-02 0.34210004E+03</pdfrwt>
<totfact> 0.56633419E+03</totfact>
</mgrwt>
<rwgt>
<wgt id='morphing_basis_vector_1'> +2.9942033e-04 </wgt>
<wgt id='morphing_basis_vector_2'> +1.6666878e-04 </wgt>
<wgt id='morphing_basis_vector_3'> +1.7725250e-04 </wgt>
<wgt id='morphing_basis_vector_4'> +3.1647772e-05 </wgt>
<wgt id='morphing_basis_vector_5'> +1.3876507e-05 </wgt>
</rwgt>
</event>
<event>
 4      1 +5.5534000e-05 3.49392500e+02 7.81860800e-03 9.81896600e-02
        2 -1    0    0  501    0 +0.0000000000e+00 +0.0000000000e+00 +1.3942210348e+02 1.3942210348e+02 0.0000000000e+00 0.0000e+00 -1.0000e+00
       -2 -1    0    0    0  501 -0.0000000000e+00 -0.0000000000e+00 -2.1889489471e+02 2.1889489471e+02 0.0000000000e+00 0.0000e+00 1.0000e+00
      -13  1    1    2    0    0 +3.3835071898e+01 +6.2027448358e+01 -2.0358774300e+02 2.1549985044e+02 0.0000000000e+00 0.0000e+00 1.0000e+00
       13  1    1    2    0    0 -3.3835071898e+01 -6.2027448358e+01 +1.2411495176e+02 1.4281714775e+02 0.0000000000e+00 0.0000e+00 -1.0000e+00
<mgrwt>
<rscale>  0 0.34939254E+03</rscale>
<asrwt>0</asrwt>
<pdfrwt beam="1">  1        2 0.21449554E-01 0.34939254E+03</pdfrwt>
<pdfrwt beam="2">  1       -2 0.33676138E-01 0.34939254E+03</pdfrwt>
<totfact> 0.25430937E+03</totfact>
</mgrwt>
<rwgt>
<wgt id='morphing_basis_vector_1'> +3.1285774e-04 </wgt>
<wgt id='morphing_basis_vector_2'> +1.6914470e-04 </wgt>
<wgt id='morphing_basis_vector_3'> +1.8993953e-04 </wgt>
<wgt id='morphing_basis_vector_4'> +3.3579261e-05 </wgt>
<wgt id='morphing_basis_vector_5'> +1.7685945e-05 </wgt>
</rwgt>
</event>
<event>
 4      1 +5.5534000e-05 3.11673700e+02 7.81860800e-03 9.96080000e-02
        2 -1    0    0  501    0 +0.0000000000e+00 +0.0000000000e+00 +4.6873086456e+02 4.6873086456e+02 0.0000000000e+00 0.0000e+00 1.0000e+00
       -2 -1    0    0    0  501 -0.0000000000e+00 -0.0000000000e+00 -5.1810373030e+01 5.1810373030e+01 0.0000000000e+00 0.0000e+00 -1.0000e+00
      -13  1    1    2    0    0 +1.0305126950e+02 -3.8108644933e+01 +2.3885912601e+01 1.1243829323e+02 0.0000000000e+00 0.0000e+00 -1.0000e+00
       13  1    1    2    0    0 -1.0305126950e+02 +3.8108644933e+01 +3.9303457893e+02 4.0810294436e+02 0.0000000000e+00 0.0000e+00 1.0000e+00
<mgrwt>
<rscale>  0 0.31167368E+03</rscale>
<asrwt>0</asrwt>
<pdfrwt beam="1">  1        2 0.72112438E-01 0.31167368E+03</pdfrwt>
<pdfrwt beam="2">  1       -2 0.79708269E-02 0.31167368E+03</pdfrwt>
<totfact> 0.67005201E+03</totfact>
</mgrwt>
<rwgt>
<wgt id='morphing_basis_vector_1'> +2.4146488e-04 </wgt>
<wgt id='morphing_basis_vector_2'> +1.3374665e-04 </wgt>
<wgt id='morphing_basis_vector_3'> +1.4223634e-04 </wgt>
<wgt id='morphing_basis_vector_4'> +2.4030354e-05 </wgt>
<wgt id='morphing_basis_vector_5'> +3.1010419e-06 </wgt>
</rwgt>
</event>
<event>
 4      1 +5.5534000e-05 3.10040300e+02 7.81860800e-03 9.96742700e-02
        2 -1    0    0  501    0 +0.0000000000e+00 +0.0000000000e+00 +2.5422251739e+02 2.5422251739e+02 0.0000000000e+00 0.0000e+00 1.0000e+00
       -2 -1    0    0    0  501 -0.0000000000e+00 -0.0000000000e+00 -9.4528381695e+01 9.4528381695e+01 0.0000000000e+00 0.0000e+00 -1.0000e+00
      -13  1    1    2    0    0 -9.8872448130e+01 -6.2489722708e+01 +1.9428717001e+02 2.2677793295e+02 0.0000000000e+00 0.0000e+00 1.0000e+00
       13  1    1    2    0    0 +9.8872448130e+01 +6.2489722708e+01 -3.4593034318e+01 1.2197296613e+02 0.0000000000e+00 0.0000e+00 -1.0000e+00
<mgrwt>
<rscale>  0 0.31004028E+03</rscale>
<asrwt>0</asrwt>
<pdfrwt beam="1">  1        2 0.39111156E-01 0.31004028E+03</pdfrwt>
<pdfrwt beam="2">  1       -2 0.14542828E-01 0.31004028E+03</pdfrwt>
<totfact> 0.51678521E+03</totfact>
</mgrwt>
<rwgt>
<wgt id='morphing_basis_vector_1'> +2.9560816e-04 </wgt>
<wgt id='morphing_basis_vector_2'> +2.9645571e-04 </wgt>
<wgt id='morphing_basis_vector_3'> +5.9445771e-05 </wgt>
<wgt id='morphing_basis_vector_4'> +5.1952755e-05 </wgt>
<wgt id='morphing_basis_vector_5'> +5.2596922e-06 </wgt>
</rwgt>
</event>
<event>
 4      1 +5.5534000e-05 3.45918900e+02 7.81860800e-03 9.83119900e-02
        2 -1    0    0  501    0 +0.0000000000e+00 +0.0000000000e+00 +3.0090553436e+01 3.0090553436e+01 0.0000000000e+00 0.0000e+00 -1.0000e+00
       -2 -1    0    0    0  501 -0.0000000000e+00 -0.0000000000e+00 -9.9416501972e+02 9.9416501972e+02 0.0000000000e+00 0.0000e+00 1.0000e+00
      -13  1    1    2    0    0 -1.2456884177e+02 -7.2655312504e+01 -7.6478715808e+02 7.7826447172e+02 0.0000000000e+00 0.0000e+00 1.0000e+00
       13  1    1    2    0    0 +1.2456884177e+02 +7.2655312504e+01 -1.9928730821e+02 2.4599110144e+02 0.0000000000e+00 0.0000e+00 -1.0000e+00
<mgrwt>
<rscale>  0 0.34591892E+03</rscale>
<asrwt>0</asrwt>
<pdfrwt beam="1">  1        2 0.46293160E-02 0.34591892E+03</pdfrwt>
<pdfrwt beam="2">  1       -2 0.15294846E+00 0.34591892E+03</pdfrwt>
<totfact> 0.64255622E+02</totfact>
</mgrwt>
<rwgt>
<wgt id='morphing_basis_vector_1'> +3.0632370e-04 </wgt>
<wgt id='morphing_basis_vector_2'> +1.6778227e-04 </wgt>
<wgt id='morphing_basis_vector_3'> +1.8389116e-04 </wgt>
<wgt id='morphing_basis_vector_4'> +3.2583342e-05 </wgt>
<wgt id='morphing_basis_vector_5'> +1.5798194e-05 </wgt>
</rwgt>
</event>
<event>
 4      1 +5.5534000e-05 3.44269900e+02 7.81860800e-03 9.83706000e-02
        2 -1    0    0  501    0 +0.0000000000e+00 +0.0000000000e+00 +5.1771924572e+02 5.1771924572e+02 0.0000000000e+00 0.0000e+00 -1.0000e+00
       -2 -1    0    0    0  501 -0.0000000000e+00 -0.0000000000e+00 -5.7232651810e+01 5.7232651810e+01 0.0000000000e+00 0.0000e+00 1.0000e+00
      -13  1    1    2    0    0 +1.0630753379e+02 +1.0879991753e+02 +9.5684312080e+01 1.7970587462e+02 0.0000000000e+00 0.0000e+00 1.0000e+00
       13  1    1    2    0    0 -1.0630753379e+02 -1.0879991753e+02 +3.6480228183e+02 3.9524602291e+02 0.0000000000e+00 0.0000e+00 -1.0000e+00
<mgrwt>
<rscale>  0 0.34426993E+03</rscale>
<asrwt>0</asrwt>
<pdfrwt beam="1">  1        2 0.79649112E-01 0.34426993E+03</pdfrwt>
<pdfrwt beam="2">  1       -2 0.88050237E-02 0.34426993E+03</pdfrwt>
<totfact> 0.51687557E+03</totfact>
</mgrwt>
<rwgt>
<wgt id='morphing_basis_vector_1'> +3.0334900e-04 </wgt>
<wgt id='morphing_basis_vector_2'> +1.6737723e-04 </wgt>
<wgt id='morphing_basis_vector_3'> +1.8097096e-04 </wgt>
<wgt id='morphing_basis_vector_4'> +3.2172989e-05 </wgt>
<wgt id='morphing_basis_vector_5'> +1.4951499e-05 </wgt>
</rwgt>
</event>
<event>
 4      1 +5.5534000e-05 3.19208900e+02 7.81860800e-03 9.93077800e-02
        2 -1    0    0  501    0 +0.0000000000e+00 +0.0000000000e+00 +2.2091834853e+02 2.2091834853e+02 0.0000000000e+00 0.0000e+00 1.0000e+00
       -2 -1    0    0    0  501 -0.0000000000e+00 -0.0000000000e+00 -1.1530763627e+02 1.1530763627e+02 0.0000000000e+00 0.0000e+00 -1.0000e+00
      -13  1    1    2    0    0 -4.5698764443e+01 -1.4863556584e+02 +9.0675694824e+01 1.8000830574e+02 0.0000000000e+00 0.0000e+00 1.0000e+00
       13  1    1    2    0    0 +4.5698764443e+01 +1.4863556584e+02 +1.4935017437e+01 1.5621767906e+02 0.0000000000e+00 0.0000e+00 -1.0000e+00
<mgrwt>
<rscale>  0 0.31920885E+03</rscale>
<asrwt>0</asrwt>
<pdfrwt beam="1">  1        2 0.33987438E-01 0.31920885E+03</pdfrwt>
<pdfrwt beam="2">  1       -2 0.17739636E-01 0.31920885E+03</pdfrwt>
<totfact> 0.44049374E+03</totfact>
</mgrwt>
<rwgt>
<wgt id='morphing_basis_vector_1'> +2.7065965e-04 </wgt>
<wgt id='morphing_basis_vector_2'> +1.8747241e-04 </wgt>
<wgt id='morphing_basis_vector_3'> +1.2800064e-04 </wgt>
<wgt id='morphing_basis_vector_4'> +3.2687049e-05 </wgt>
<wgt id='morphing_basis_vector_5'> +5.7719674e-06 </wgt>
</rwgt>
</event>
<event>
 4      1 +5.5534000e-05 3.13781400e+02 7.81860800e-03 9.95231100e-02
        2 -1    0    0  501    0 +0.0000000000e+00 +0.0000000000e+00 +2.6243654811e+02 2.6243654811e+02 0.0000000000e+00 0.0000e+00 1.0000e+00
       -2 -1    0    0    0  501 -0.0000000000e+00 -0.0000000000e+00 -9.3792941270e+01 9.3792941270e+01 0.0000000000e+00 0.0000e+00 -1.0000e+00
      -13  1    1    2    0    0 -1.2484484299e+02 -5.1169491577e+01 -6.5724719063e+00 1.3508422956e+02 0.0000000000e+00 0.0000e+00 1.0000e+00
       13  1    1    2    0    0 +1.2484484299e+02 +5.1169491577e+01 +1.7521607874e+02 2.2114525982e+02 0.0000000000e+00 0.0000e+00 -1.0000e+00
<mgrwt>
<rscale>  0 0.31378143E+03</rscale>
<asrwt>0</asrwt>
<pdfrwt beam="1">  1        2 0.40374853E-01 0.31378143E+03</pdfrwt>
<pdfrwt beam="2">  1       -2 0.14429683E-01 0.31378143E+03</pdfrwt>
<totfact> 0.50526878E+03</totfact>
</mgrwt>
<rwgt>
<wgt id='morphing_basis_vector_1'> +2.4560138e-04 </wgt>
<wgt id='morphing_basis_vector_2'> +1.3718099e-04 </wgt>
<wgt id='morphing_basis_vector_3'> +1.4366599e-04 </wgt>
<wgt id='morphing_basis_vector_4'> +2.4630007e-05 </wgt>
<wgt id='morphing_basis_vector_5'> +3.6001922e-06 </wgt>
</rwgt>
</event>
<event>
 4      1 +5.5534000e-05 3.48158400e+02 7.81860800e-03 9.82329400e-02
        2 -1    0    0  501    0 +0.0000000000e+00 +0.0000000000e+00 +1.3719437871e+02 1.3719437871e+02 0.0000000000e+00 0.0000e+00 -1.0000e+00
       -2 -1    0    0    0  501 -0.0000000000e+00 -0.0000000000e+00 -2.2088059504e+02 2.2088059504e+02 0.0000000000e+00 0.0000e+00 1.0000e+00
      -13  1    1    2    0    0 +3.1765941983e+01 -7.3525588351e+01 -2.0080439543e+02 2.1618855759e+02 0.0000000000e+00 0.0000e+00 1.0000e+00
       13  1    1    2    0    0 -3.1765941983e+01 +7.3525588351e+01 +1.1711817910e+02 1.4188641615e+02 0.0000000000e+00 0.0000e+00 -1.0000e+00
<mgrwt>
<rscale>  0 0.34815845E+03</rscale>
<asrwt>0</asrwt>
<pdfrwt beam="1">  1        2 0.21106828E-01 0.34815845E+03</pdfrwt>
<pdfrwt beam="2">  1       -2 0.33981630E-01 0.34815845E+03</pdfrwt>
<totfact> 0.25502038E+03</totfact>
</mgrwt>
<rwgt>
<wgt id='morphing_basis_vector_1'> +3.1024714e-04 </wgt>
<wgt id='morphing_basis_vector_2'> +1.6784348e-04 </wgt>
<wgt id='morphing_basis_vector_3'> +1.8811172e-04 </wgt>
<wgt id='morphing_basis_vector_4'> +3.3126105e-05 </wgt>
<wgt id='morphing_basis_vector_5'> +1.6983567e-05 </wgt>
</rwgt>
</event>
<event>
 4      1 +5.5534000e-05 3.26345200e+02 7.81860800e-03 9.90316300e-02
        2 -1    0    0  501    0 +0.0000000000e+00 +0.0000000000e+00 +1.3577554157e+02 1.3577554157e+02 0.0000000000e+00 0.0000e+00 -1.0000e+00
       -2 -1    0    0    0  501 -0.0000000000e+00 -0.0000000000e+00 -1.9609788953e+02 1.9609788953e+02 0.0000000000e+00 0.0000e+00 1.0000e+00
      -13  1    1    2    0    0 -5.0163706672e+01 -1.2637345183e+02 -1.2190386052e+02 1.8261215185e+02 0.0000000000e+00 0.0000e+00 1.0000e+00
       13  1    1    2    0    0 +5.0163706672e+01 +1.2637345183e+02 +6.1581512557e+01 1.4926127925e+02 0.0000000000e+00 0.0000e+00 -1.0000e+00
<mgrwt>
<rscale>  0 0.32634520E+03</rscale>
<asrwt>0</asrwt>
<pdfrwt beam="1">  1        2 0.20888545E-01 0.32634520E+03</pdfrwt>
<pdfrwt beam="2">  1       -2 0.30168906E-01 0.32634520E+03</pdfrwt>
<totfact> 0.31745358E+03</totfact>
</mgrwt>
<rwgt>
<wgt id='morphing_basis_vector_1'> +2.6773905e-04 </wgt>
<wgt id='morphing_basis_vector_2'> +1.4793681e-04 </wgt>
<wgt id='morphing_basis_vector_3'> +1.5819327e-04 </wgt>
<wgt id='morphing_basis_vector_4'> +2.6963246e-05 </wgt>
<wgt id='morphing_basis_vector_5'> +7.2036818e-06 </wgt>
</rwgt>
</event>
<event>
 4      1 +5.5534000e-05 3.11670100e+02 7.81860800e-03 9.96081500e-02
        2 -1    0    0  501    0 +0.0000000000e+00 +0.0000000000e+00 +3.0157138810e+02 3.0157138810e+02 0.0000000000e+00 0.0000e+00 1.0000e+00
       -2 -1    0    0    0  501 -0.0000000000e+00 -0.0000000000e+00 -8.0526723957e+01 8.0526723957e+01 0.0000000000e+00 0.0000e+00 -1.0000e+00
      -13  1    1    2    0    0 +9.2688741219e+01 +8.0536685661e+01 -7.1145469783e+00 1.2299584247e+02 0.0000000000e+00 0.0000e+00 -1.0000e+00
       13  1    1    2    0    0 -9.2688741219e+01 -8.0536685661e+01 +2.2815921112e+02 2.5910226958e+02 0.0000000000e+00 0.0000e+00 1.0000e+00
<mgrwt>
<rscale>  0 0.31167006E+03</rscale>
<asrwt>0</asrwt>
<pdfrwt beam="1">  1        2 0.46395598E-01 0.31167006E+03</pdfrwt>
<pdfrwt beam="2">  1       -2 0.12388727E-01 0.31167006E+03</pdfrwt>
<totfact> 0.55098248E+03</totfact>
</mgrwt>
<rwgt>
<wgt id='morphing_basis_vector_1'> +2.4166601e-04 </wgt>
<wgt id='morphing_basis_vector_2'> +1.3434249e-04 </wgt>
<wgt id='morphing_basis_vector_3'> +1.4193860e-04 </wgt>
<wgt id='morphing_basis_vector_4'> +2.4130980e-05 </wgt>
<wgt id='morphing_basis_vector_5'> +3.1096062e-06 </wgt>
</rwgt>
</event>
<event>
 4      1 +5.5534000e-05 3.07031500e+02 7.81860800e-03 9.97974800e-02
        2 -1    0    0  501    0 +0.0000000000e+00 +0.0000000000e+00 +3.5429518947e+02 3.5429518947e+02 0.0000000000e+00 0.0000e+00 -1.0000e+00
       -2 -1    0    0    0  501 -0.0000000000e+00 -0.0000000000e+00 -6.6518214748e+01 6.6518214748e+01 0.0000000000e+00 0.0000e+00 1.0000e+00
      -13  1    1    2    0    0 +2.2327353502e+01 -6.4855165988e+01 -4.4348470994e+01 8.1679190430e+01 0.0000000000e+00 0.0000e+00 1.0000e+00
       13  1    1    2    0    0 -2.2327353502e+01 +6.4855165988e+01 +3.3212544572e+02 3.3913421379e+02 0.0000000000e+00 0.0000e+00 -1.0000e+00
<mgrwt>
<rscale>  0 0.30703149E+03</rscale>
<asrwt>0</asrwt>
<pdfrwt beam="1">  1        2 0.54506951E-01 0.30703149E+03</pdfrwt>
<pdfrwt beam="2">  1       -2 0.10233572E-01 0.30703149E+03</pdfrwt>
<totfact> 0.62094256E+03</totfact>
</mgrwt>
<rwgt>
<wgt id='morphing_basis_vector_1'> +2.3361732e-04 </wgt>
<wgt id='morphing_basis_vector_2'> +1.2944303e-04 </wgt>
<wgt id='morphing_basis_vector_3'> +1.3771294e-04 </wgt>
<wgt id='morphing_basis_vector_4'> +2.3306027e-05 </wgt>
<wgt id='morphing_basis_vector_5'> +2.1804574e-06 </wgt>
</rwgt>
</event>
<event>
 4      1 +5.5534000e-05 3.21580900e+02 7.81860800e-03 9.92151200e-02
        2 -1    0    0  501    0 +0.0000000000e+00 +0.0000000000e+00 +5.3912322182e+02 5.3912322182e+02 0.0000000000e+00 0.0000e+00 1.0000e+00
       -2 -1    0    0    0  501 -0.0000000000e+00 -0.0000000000e+00 -4.7954853003e+01 4.7954853003e+01 0.0000000000e+00 0.0000e+00 -1.0000e+00
      -13  1    1    2    0    0 -1.3618838548e+02 +4.4688533053e+01 +1.1256279539e+02 1.8224907196e+02 0.0000000000e+00 0.0000e+00 -1.0000e+00
       13  1    1    2    0    0 +1.3618838548e+02 -4.4688533053e+01 +3.7860557342e+02 4.0482900286e+02 0.0000000000e+00 0.0000e+00 1.0000e+00
<mgrwt>
<rscale>  0 0.32158094E+03</rscale>
<asrwt>0</asrwt>
<pdfrwt beam="1">  1        2 0.82942030E-01 0.32158094E+03</pdfrwt>
<pdfrwt beam="2">  1       -2 0.73776701E-02 0.32158094E+03</pdfrwt>
<totfact> 0.64573962E+03</totfact>
</mgrwt>
<rwgt>
<wgt id='morphing_basis_vector_1'> +2.5953576e-04 </wgt>
<wgt id='morphing_basis_vector_2'> +1.4492180e-04 </wgt>
<wgt id='morphing_basis_vector_3'> +1.5193281e-04 </wgt>
<wgt id='morphing_basis_vector_4'> +2.6155340e-05 </wgt>
<wgt id='morphing_basis_vector_5'> +5.6944739e-06 </wgt>
</rwgt>
</event>
<event>
 4      1 +5.5534000e-05 3.55591700e+02 7.81860800e-03 9.79751300e-02
        2 -1    0    0  501    0 +0.0000000000e+00 +0.0000000000e+00 +1.9997353375e+02 1.9997353375e+02 0.0000000000e+00 0.0000e+00 -1.0000e+00
       -2 -1    0    0    0  501 -0.0000000000e+00 -0.0000000000e+00 -1.5807774846e+02 1.5807774846e+02 0.0000000000e+00 0.0000e+00 1.0000e+00
      -13  1    1    2    0    0 -1.4925129507e+02 -9.5101002051e+01 +3.7647955391e+00 1.7701503709e+02 0.0000000000e+00 0.0000e+00 1.0000e+00
       13  1    1    2    0    0 +1.4925129507e+02 +9.5101002051e+01 +3.8130989751e+01 1.8103624513e+02 0.0000000000e+00 0.0000e+00 -1.0000e+00
<mgrwt>
<rscale>  0 0.35559171E+03</rscale>
<asrwt>0</asrwt>
<pdfrwt beam="1">  1        2 0.30765159E-01 0.35559171E+03</pdfrwt>
<pdfrwt beam="2">  1       -2 0.24319654E-01 0.35559171E+03</pdfrwt>
<totfact> 0.29419145E+03</totfact>
</mgrwt>
<rwgt>
<wgt id='morphing_basis_vector_1'> +3.3324373e-04 </wgt>
<wgt id='morphing_basis_vector_2'> +1.9671824e-04 </wgt>
<wgt id='morphing_basis_vector_3'> +1.9108899e-04 </wgt>
<wgt id='morphing_basis_vector_4'> +3.7997350e-05 </wgt>
<wgt id='morphing_basis_vector_5'> +2.1915062e-05 </wgt>
</rwgt>
</event>
<event>
 4      1 +5.5534000e-05 3.55965600e+02 7.81860800e-03 9.79623500e-02
        2 -1    0    0  501    0 +0.0000000000e+00 +0.0000000000e+00 +1.0244675291e+03 1.0244675291e+03 0.0000000000e+00 0.0000e+00 -1.0000e+00
       -2 -1    0    0    0  501 -0.0000000000e+00 -0.0000000000e+00 -3.0921308555e+01 3.0921308555e+01 0.0000000000e+00 0.0000e+00 1.0000e+00
      -13  1    1    2    0    0 +1.4090195401e+02 +5.4399210374e+01 +7.7593090794e+02 7.9049440771e+02 0.0000000000e+00 0.0000e+00 -1.0000e+00
       13  1    1    2    0    0 -1.4090195401e+02 -5.4399210374e+01 +2.1761531260e+02 2.6489442993e+02 0.0000000000e+00 0.0000e+00 1.0000e+00
<mgrwt>
<rscale>  0 0.35596560E+03</rscale>
<asrwt>0</asrwt>
<pdfrwt beam="1">  1        2 0.15761036E+00 0.35596560E+03</pdfrwt>
<pdfrwt beam="2">  1       -2 0.47571252E-02 0.35596560E+03</pdfrwt>
<totfact> 0.57052831E+03</totfact>
</mgrwt>
<rwgt>
<wgt id='morphing_basis_vector_1'> +3.8476191e-04 </wgt>
<wgt id='morphing_basis_vector_2'> +3.4900161e-04 </wgt>
<wgt id='morphing_basis_vector_3'> +1.3124236e-04 </wgt>
<wgt id='morphing_basis_vector_4'> +5.2440832e-05 </wgt>
<wgt id='morphing_basis_vector_5'> +2.5390410e-05 </wgt>
</rwgt>
</event>
<event>
 4      1 +5.5534000e-05 3.25559700e+02 7.81860800e-03 9.90616500e-02
        2 -1    0    0  501    0 +0.0000000000e+00 +0.0000000000e+00 +1.0666937581e+03 1.0666937581e+03 0.0000000000e+00 0.0000e+00 -1.0000e+00
       -2 -1    0    0    0  501 -0.0000000000e+00 -0.0000000000e+00 -2.4840573756e+01 2.4840573756e+01 0.0000000000e+00 0.0000e+00 1.0000e+00
      -13  1    1    2    0    0 -7.4463845029e+01 +1.2152726005e+02 +2.5727796893e+02 2.9411850069e+02 0.0000000000e+00 0.0000e+00 1.0000e+00
       13  1    1    2    0    0 +7.4463845029e+01 -1.2152726005e+02 +7.8457521545e+02 7.9741583121e+02 0.0000000000e+00 0.0000e+00 -1.0000e+00
<mgrwt>
<rscale>  0 0.32555973E+03</rscale>
<asrwt>0</asrwt>
<pdfrwt beam="1">  1        2 0.16410670E+00 0.32555973E+03</pdfrwt>
<pdfrwt beam="2">  1       -2 0.38216276E-02 0.32555973E+03</pdfrwt>
<totfact> 0.74532478E+03</totfact>
</mgrwt>
<rwgt>
<wgt id='morphing_basis_vector_1'> +2.6661149e-04 </wgt>
<wgt id='morphing_basis_vector_2'> +1.4814267e-04 </wgt>
<wgt id='morphing_basis_vector_3'> +1.5681674e-04 </wgt>
<wgt id='morphing_basis_vector_4'> +2.6923645e-05 </wgt>
<wgt id='morphing_basis_vector_5'> +6.9537830e-06 </wgt>
</rwgt>
</event>
<event>
 4      1 +5.5534000e-05 3.40308400e+02 7.81860800e-03 9.85128800e-02
        2 -1    0    0  501    0 +0.0000000000e+00 +0.0000000000e+00 +5.4607116293e+02 5.4607116293e+02 0.0000000000e+00 0.0000e+00 -1.0000e+00
       -2 -1    0    0    0  501 -0.0000000000e+00 -0.0000000000e+00 -5.3019546071e+01 5.3019546071e+01 0.0000000000e+00 0.0000e+00 1.0000e+00
      -13  1    1    2    0    0 +3.6261510993e+01 -8.6723432252e+01 -3.1619171922e+00 9.4052371588e+01 0.0000000000e+00 0.0000e+00 1.0000e+00
       13  1    1    2    0    0 -3.6261510993e+01 +8.6723432252e+01 +4.9621353405e+02 5.0503833741e+02 0.0000000000e+00 0.0000e+00 -1.0000e+00
<mgrwt>
<rscale>  0 0.34030836E+03</rscale>
<asrwt>0</asrwt>
<pdfrwt beam="1">  1        2 0.84010944E-01 0.34030836E+03</pdfrwt>
<pdfrwt beam="2">  1       -2 0.81568536E-02 0.34030836E+03</pdfrwt>
<totfact> 0.54716769E+03</totfact>
</mgrwt>
<rwgt>
<wgt id='morphing_basis_vector_1'> +2.9405570e-04 </wgt>
<wgt id='morphing_basis_vector_2'> +1.5968431e-04 </wgt>
<wgt id='morphing_basis_vector_3'> +1.7698097e-04 </wgt>
<wgt id='morphing_basis_vector_4'> +3.0470343e-05 </wgt>
<wgt id='morphing_basis_vector_5'> +1.2896284e-05 </wgt>
</rwgt>
</event>
<event>
 4      1 +5.5534000e-05 3.06883800e+02 7.81860800e-03 9.98035700e-02
        2 -1    0    0  501    0 +0.0000000000e+00 +0.0000000000e+00 +1.4905758716e+02 1.4905758716e+02 0.0000000000e+00 0.0000e+00 1.0000e+00
       -2 -1    0    0    0  501 -0.0000000000e+00 -0.0000000000e+00 -1.5795515561e+02 1.5795515561e+02 0.0000000000e+00 0.0000e+00 -1.0000e+00
      -13  1    1    2    0    0 +4.7886435318e+01 -1.1145255563e+02 +8.9556820984e+01 1.5078198509e+02 0.0000000000e+00 0.0000e+00 1.0000e+00
       13  1    1    2    0    0 -4.7886435318e+01 +1.1145255563e+02 -9.8454389432e+01 1.5623075767e+02 0.0000000000e+00 0.0000e+00 -1.0000e+00
<mgrwt>
<rscale>  0 0.30688378E+03</rscale>
<asrwt>0</asrwt>
<pdfrwt beam="1">  1        2 0.22931937E-01 0.30688378E+03</pdfrwt>
<pdfrwt beam="2">  1       -2 0.24300793E-01 0.30688378E+03</pdfrwt>
<totfact> 0.41076022E+03</totfact>
</mgrwt>
<rwgt>
<wgt id='morphing_basis_vector_1'> +2.8346815e-04 </wgt>
<wgt id='morphing_basis_vector_2'> +2.7332779e-04 </wgt>
<wgt id='morphing_basis_vector_3'> +6.5437669e-05 </wgt>
<wgt id='morphing_basis_vector_4'> +4.8753711e-05 </wgt>
<wgt id='morphing_basis_vector_5'> +4.2396634e-06 </wgt>
</rwgt>
</event>
<event>
 4      1 +5.5534000e-05 3.21797600e+02 7.81860800e-03 9.92067100e-02
        2 -1    0    0  501    0 +0.0000000000e+00 +0.0000000000e+00 +9.7068226454e+02 9.7068226454e+02 0.0000000000e+00 0.0000e+00 1.0000e+00
       -2 -1    0    0    0  501 -0.0000000000e+00 -0.0000000000e+00 -2.6670330637e+01 2.6670330637e+01 0.0000000000e+00 0.0000e+00 -1.0000e+00
      -13  1    1    2    0    0 +1.5688051478e+02 +1.0816806962e+01 +3.6645078269e+02 3.9876644212e+02 0.0000000000e+00 0.0000e+00 -1.0000e+00
       13  1    1    2    0    0 -1.5688051478e+02 -1.0816806962e+01 +5.7756115122e+02 5.9858615305e+02 0.0000000000e+00 0.0000e+00 1.0000e+00
<mgrwt>
<rscale>  0 0.32179756E+03</rscale>
<asrwt>0</asrwt>
<pdfrwt beam="1">  1        2 0.14933571E+00 0.32179756E+03</pdfrwt>
<pdfrwt beam="2">  1       -2 0.41031285E-02 0.32179756E+03</pdfrwt>
<totfact> 0.76454220E+03</totfact>
</mgrwt>
<rwgt>
<wgt id='morphing_basis_vector_1'> +2.6213051e-04 </wgt>
<wgt id='morphing_basis_vector_2'> +1.5155850e-04 </wgt>
<wgt id='morphing_basis_vector_3'> +1.4915962e-04 </wgt>
<wgt id='morphing_basis_vector_4'> +2.7177350e-05 </wgt>
<wgt id='morphing_basis_vector_5'> +5.8731727e-06 </wgt>
</rwgt>
</event>
<event>
 4      1 +5.5534000e-05 3.19461100e+02 7.81860800e-03 9.92978800e-02
        2 -1    0    0  501    0 +0.0000000000e+00 +0.0000000000e+00 +4.5874685179e+02 4.5874685179e+02 0.0000000000e+00 0.0000e+00 1.0000e+00
       -2 -1    0    0    0  501 -0.0000000000e+00 -0.0000000000e+00 -5.5616412177e+01 5.5616412177e+01 0.0000000000e+00 0.0000e+00 -1.0000e+00
      -13  1    1    2    0    0 +3.0326343285e+01 -7.3964382167e+01 -2.1091030221e+01 8.2675561578e+01 0.0000000000e+00 0.0000e+00 -1.0000e+00
       13  1    1    2    0    0 -3.0326343285e+01 +7.3964382167e+01 +4.2422146983e+02 4.3168770239e+02 0.0000000000e+00 0.0000e+00 1.0000e+00
<mgrwt>
<rscale>  0 0.31946113E+03</rscale>
<asrwt>0</asrwt>
<pdfrwt beam="1">  1        2 0.70576436E-01 0.31946113E+03</pdfrwt>
<pdfrwt beam="2">  1       -2 0.85563714E-02 0.31946113E+03</pdfrwt>
<totfact> 0.61627808E+03</totfact>
</mgrwt>
<rwgt>
<wgt id='morphing_basis_vector_1'> +2.5466672e-04 </wgt>
<wgt id='morphing_basis_vector_2'> +1.3982642e-04 </wgt>
<wgt id='morphing_basis_vector_3'> +1.5102074e-04 </wgt>
<wgt id='morphing_basis_vector_4'> +2.5250492e-05 </wgt>
<wgt id='morphing_basis_vector_5'> +5.0222302e-06 </wgt>
</rwgt>
</event>
<event>
 4      1 +5.5534000e-05 3.15006600e+02 7.81860800e-03 9.94741000e-02
        2 -1    0    0  501    0 +0.0000000000e+00 +0.0000000000e+00 +1.6946988096e+02 1.6946988096e+02 0.0000000000e+00 0.0000e+00 -1.0000e+00
       -2 -1    0    0    0  501 -0.0000000000e+00 -0.0000000000e+00 -1.4638169954e+02 1.4638169954e+02 0.0000000000e+00 0.0000e+00 1.0000e+00
      -13  1    1    2    0    0 -1.3697069995e+02 +7.7210220260e+01 +2.3053398771e+00 1.5725045421e+02 0.0000000000e+00 0.0000e+00 1.0000e+00
       13  1    1    2    0    0 +1.3697069995e+02 -7.7210220260e+01 +2.0782841541e+01 1.5860112629e+02 0.0000000000e+00 0.0000e+00 -1.0000e+00
<mgrwt>
<rscale>  0 0.31500660E+03</rscale>
<asrwt>0</asrwt>
<pdfrwt beam="1">  1        2 0.26072289E-01 0.31500660E+03</pdfrwt>
<pdfrwt beam="2">  1       -2 0.22520262E-01 0.31500660E+03</pdfrwt>
<totfact> 0.40248109E+03</totfact>
</mgrwt>
<rwgt>
<wgt id='morphing_basis_vector_1'> +2.5263881e-04 </wgt>
<wgt id='morphing_basis_vector_2'> +1.5256292e-04 </wgt>
<wgt id='morphing_basis_vector_3'> +1.3805480e-04 </wgt>
<wgt id='morphing_basis_vector_4'> +2.7168542e-05 </wgt>
<wgt id='morphing_basis_vector_5'> +4.1261899e-06 </wgt>
</rwgt>
</event>
<event>
 4      1 +5.5534000e-05 3.08477400e+02 7.81860800e-03 9.97380900e-02
        2 -1    0    0  501    0 +0.0000000000e+00 +0.0000000000e+00 +9.6346614438e+01 9.6346614438e+01 0.0000000000e+00 0.0000e+00 1.0000e+00
       -2 -1    0    0    0  501 -0.0000000000e+00 -0.0000000000e+00 -2.4691655110e+02 2.4691655110e+02 0.0000000000e+00 0.0000e+00 -1.0000e+00
      -13  1    1    2    0    0 +8.7157624288e+01 +8.6165154516e+01 -1.7948580270e+02 2.1733853477e+02 0.0000000000e+00 0.0000e+00 -1.0000e+00
       13  1    1    2    0    0 -8.7157624288e+01 -8.6165154516e+01 +2.8915866044e+01 1.2592463077e+02 0.0000000000e+00 0.0000e+00 1.0000e+00
<mgrwt>
<rscale>  0 0.30847738E+03</rscale>
<asrwt>0</asrwt>
<pdfrwt beam="1">  1        2 0.14822556E-01 0.30847738E+03</pdfrwt>
<pdfrwt beam="2">  1       -2 0.37987161E-01 0.30847738E+03</pdfrwt>
<totfact> 0.31740784E+03</totfact>
</mgrwt>
<rwgt>
<wgt id='morphing_basis_vector_1'> +2.3639037e-04 </wgt>
<wgt id='morphing_basis_vector_2'> +1.3178802e-04 </wgt>
<wgt id='morphing_basis_vector_3'> +1.3859108e-04 </wgt>
<wgt id='morphing_basis_vector_4'> +2.3698512e-05 </wgt>
<wgt id='morphing_basis_vector_5'> +2.4637481e-06 </wgt>
</rwgt>
</event>
<event>
 4      1 +5.5534000e-05 3.11907300e+02 7.81860800e-03 9.95985600e-02
        2 -1    0    0  501    0 +0.0000000000e+00 +0.0000000000e+00 +4.9027773750e+02 4.9027773750e+02 0.0000000000e+00 0.0000e+00 1.0000e+00
       -2 -1    0    0    0  501 -0.0000000000e+00 -0.0000000000e+00 -4.9607678037e+01 4.9607678037e+01 0.0000000000e+00 0.0000e+00 -1.0000e+00
      -13  1    1    2    0    0 -8.6635962461e+01 -9.5371374397e+01 +3.7241994883e+02 3.9407880853e+02 0.0000000000e+00 0.0000e+00 1.0000e+00
       13  1    1    2    0    0 +8.6635962461e+01 +9.5371374397e+01 +6.8250110634e+01 1.4580660701e+02 0.0000000000e+00 0.0000e+00 -1.0000e+00
<mgrwt>
<rscale>  0 0.31190729E+03</rscale>
<asrwt>0</asrwt>
<pdfrwt beam="1">  1        2 0.75427341E-01 0.31190729E+03</pdfrwt>
<pdfrwt beam="2">  1       -2 0.76319508E-02 0.31190729E+03</pdfrwt>
<totfact> 0.68113769E+03</totfact>
</mgrwt>
<rwgt>
<wgt id='morphing_basis_vector_1'> +2.8732070e-04 </wgt>
<wgt id='morphing_basis_vector_2'> +2.6535951e-04 </wgt>
<wgt id='morphing_basis_vector_3'> +7.8045805e-05 </wgt>
<wgt id='morphing_basis_vector_4'> +4.6213909e-05 </wgt>
<wgt id='morphing_basis_vector_5'> +5.2093509e-06 </wgt>
</rwgt>
</event>
<event>
 4      1 +5.5534000e-05 3.09137000e+02 7.81860800e-03 9.97111000e-02
        2 -1    0    0  501    0 +0.0000000000e+00 +0.0000000000e+00 +1.1393794376e+03 1.1393794376e+03 0.0000000000e+00 0.0000e+00 1.0000e+00
       -2 -1    0    0    0  501 -0.0000000000e+00 -0.0000000000e+00 -2.0968806307e+01 2.0968806307e+01 0.0000000000e+00 0.0000e+00 -1.0000e+00
      -13  1    1    2    0    0 -9.7967221772e+00 +1.4782314679e+02 +3.9371996585e+02 4.2066978737e+02 0.0000000000e+00 0.0000e+00 -1.0000e+00
       13  1    1    2    0    0 +9.7967221772e+00 -1.4782314679e+02 +7.2469066549e+02 7.3967845659e+02 0.0000000000e+00 0.0000e+00 1.0000e+00
<mgrwt>
<rscale>  0 0.30913704E+03</rscale>
<asrwt>0</asrwt>
<pdfrwt beam="1">  1        2 0.17528910E+00 0.30913704E+03</pdfrwt>
<pdfrwt beam="2">  1       -2 0.32259711E-02 0.30913704E+03</pdfrwt>
<totfact> 0.86858161E+03</totfact>
</mgrwt>
<rwgt>
<wgt id='morphing_basis_vector_1'> +2.3926558e-04 </wgt>
<wgt id='morphing_basis_vector_2'> +1.3748195e-04 </wgt>
<wgt id='morphing_basis_vector_3'> +1.3670883e-04 </wgt>
<wgt id='morphing_basis_vector_4'> +2.4678933e-05 </wgt>
<wgt id='morphing_basis_vector_5'> +2.6681893e-06 </wgt>
</rwgt>
</event>
<event>
 4      1 +5.5534000e-05 3.47415900e+02 7.81860800e-03 9.82590800e-02
        2 -1    0    0  501    0 +0.0000000000e+00 +0.0000000000e+00 +8.0168011440e+01 8.0168011440e+01 0.0000000000e+00 0.0000e+00 -1.0000e+00
       -2 -1    0    0    0  501 -0.0000000000e+00 -0.0000000000e+00 -3.7639022244e+02 3.7639022244e+02 0.0000000000e+00 0.0000e+00 1.0000e+00
      -13  1    1    2    0    0 +1.4439532478e+02 +6.1875620484e+01 -2.4553467390e+02 2.9148907066e+02 0.0000000000e+00 0.0000e+00 1.0000e+00
       13  1    1    2    0    0 -1.4439532478e+02 -6.1875620484e+01 -5.0687537102e+01 1.6506916322e+02 0.0000000000e+00 0.0000e+00 -1.0000e+00
<mgrwt>
<rscale>  0 0.34741592E+03</rscale>
<asrwt>0</asrwt>
<pdfrwt beam="1">  1        2 0.12333540E-01 0.34741592E+03</pdfrwt>
<pdfrwt beam="2">  1       -2 0.57906190E-01 0.34741592E+03</pdfrwt>
<totfact> 0.17924310E+03</totfact>
</mgrwt>
<rwgt>
<wgt id='morphing_basis_vector_1'> +3.1025014e-04 </wgt>
<wgt id='morphing_basis_vector_2'> +1.7172629e-04 </wgt>
<wgt id='morphing_basis_vector_3'> +1.8508338e-04 </wgt>
<wgt id='morphing_basis_vector_4'> +3.3364951e-05 </wgt>
<wgt id='morphing_basis_vector_5'> +1.6665634e-05 </wgt>
</rwgt>
</event>
<event>
 4      1 +5.5534000e-05 3.06867200e+02 7.81860800e-03 9.98042600e-02
        2 -1    0    0  501    0 +0.0000000000e+00 +0.0000000000e+00 +2.4640964007e+02 2.4640964007e+02 0.0000000000e+00 0.0000e+00 1.0000e+00
       -2 -1    0    0    0  501 -0.0000000000e+00 -0.0000000000e+00 -9.5539543504e+01 9.5539543504e+01 0.0000000000e+00 0.0000e+00 -1.0000e+00
      -13  1    1    2    0    0 +8.8936390557e+01 -1.0605041521e+02 +1.6411711878e+00 1.3841627641e+02 0.0000000000e+00 0.0000e+00 -1.0000e+00
       13  1    1    2    0    0 -8.8936390557e+01 +1.0605041521e+02 +1.4922892538e+02 2.0353290717e+02 0.0000000000e+00 0.0000e+00 1.0000e+00
<mgrwt>
<rscale>  0 0.30686717E+03</rscale>
<asrwt>0</asrwt>
<pdfrwt beam="1">  1        2 0.37909175E-01 0.30686717E+03</pdfrwt>
<pdfrwt beam="2">  1       -2 0.14698391E-01 0.30686717E+03</pdfrwt>
<totfact> 0.52592216E+03</totfact>
</mgrwt>
<rwgt>
<wgt id='morphing_basis_vector_1'> +2.3445781e-04 </wgt>
<wgt id='morphing_basis_vector_2'> +1.3249568e-04 </wgt>
<wgt id='morphing_basis_vector_3'> +1.3595272e-04 </wgt>
<wgt id='morphing_basis_vector_4'> +2.3848636e-05 </wgt>
<wgt id='morphing_basis_vector_5'> +2.1973997e-06 </wgt>
</rwgt>
</event>
<event>
 4      1 +5.5534000e-05 3.38896200e+02 7.81860800e-03 9.85641100e-02
        2 -1    0    0  501    0 +0.0000000000e+00 +0.0000000000e+00 +1.9292903215e+02 1.9292903215e+02 0.0000000000e+00 0.0000e+00 1.0000e+00
       -2 -1    0    0    0  501 -0.0000000000e+00 -0.0000000000e+00 -1.4882493674e+02 1.4882493674e+02 0.0000000000e+00 0.0000e+00 -1.0000e+00
      -13  1    1    2    0    0 -1.6176081333e+02 -4.6593142150e+01 +4.1584672962e+01 1.7339771236e+02 0.0000000000e+00 0.0000e+00 -1.0000e+00
       13  1    1    2    0    0 +1.6176081333e+02 +4.6593142150e+01 +2.5194224483e+00 1.6835625654e+02 0.0000000000e+00 0.0000e+00 1.0000e+00
<mgrwt>
<rscale>  0 0.33889616E+03</rscale>
<asrwt>0</asrwt>
<pdfrwt beam="1">  1        2 0.29681390E-01 0.33889616E+03</pdfrwt>
<pdfrwt beam="2">  1       -2 0.22896144E-01 0.33889616E+03</pdfrwt>
<totfact> 0.33846592E+03</totfact>
</mgrwt>
<rwgt>
<wgt id='morphing_basis_vector_1'> +3.0421607e-04 </wgt>
<wgt id='morphing_basis_vector_2'> +1.9673235e-04 </wgt>
<wgt id='morphing_basis_vector_3'> +1.5837830e-04 </wgt>
<wgt id='morphing_basis_vector_4'> +3.4771849e-05 </wgt>
<wgt id='morphing_basis_vector_5'> +1.2997485e-05 </wgt>
</rwgt>
</event>
<event>
 4      1 +5.5534000e-05 3.13689000e+02 7.81860800e-03 9.95268200e-02
        2 -1    0    0  501    0 +0.0000000000e+00 +0.0000000000e+00 +4.7457190435e+02 4.7457190435e+02 0.0000000000e+00 0.0000e+00 -1.0000e+00
       -2 -1    0    0    0  501 -0.0000000000e+00 -0.0000000000e+00 -5.1836608998e+01 5.1836608998e+01 0.0000000000e+00 0.0000e+00 1.0000e+00
      -13  1    1    2    0    0 +1.2607733180e+02 +1.2278125442e+01 +5.6162179943e+01 1.3856563937e+02 0.0000000000e+00 0.0000e+00 1.0000e+00
       13  1    1    2    0    0 -1.2607733180e+02 -1.2278125442e+01 +3.6657311541e+02 3.8784287398e+02 0.0000000000e+00 0.0000e+00 -1.0000e+00
<mgrwt>
<rscale>  0 0.31368901E+03</rscale>
<asrwt>0</asrwt>
<pdfrwt beam="1">  1        2 0.73011060E-01 0.31368901E+03</pdfrwt>
<pdfrwt beam="2">  1       -2 0.79748632E-02 0.31368901E+03</pdfrwt>
<totfact> 0.66058876E+03</totfact>
</mgrwt>
<rwgt>
<wgt id='morphing_basis_vector_1'> +2.4515221e-04 </wgt>
<wgt id='morphing_basis_vector_2'> +1.3625712e-04 </wgt>
<wgt id='morphing_basis_vector_3'> +1.4397802e-04 </wgt>
<wgt id='morphing_basis_vector_4'> +2.4475542e-05 </wgt>
<wgt id='morphing_basis_vector_5'> +3.5651072e-06 </wgt>
</rwgt>
</event>
<event>
 4      1 +5.5534000e-05 3.17801400e+02 7.81860800e-03 9.93631700e-02
        2 -1    0    0  501    0 +0.0000000000e+00 +0.0000000000e+00 +1.1345090635e+02 1.1345090635e+02 0.0000000000e+00 0.0000e+00 -1.0000e+00
       -2 -1    0    0    0  501 -0.0000000000e+00 -0.0000000000e+00 -2.2255819810e+02 2.2255819810e+02 0.0000000000e+00 0.0000e+00 1.0000e+00
      -13  1    1    2    0    0 +4.7824183693e+01 +9.8679680910e+01 -1.7614046441e+02 2.0748565053e+02 0.0000000000e+00 0.0000e+00 1.0000e+00
       13  1    1    2    0    0 -4.7824183693e+01 -9.8679680910e+01 +6.7033172660e+01 1.2852345392e+02 0.0000000000e+00 0.0000e+00 -1.0000e+00
<mgrwt>
<rscale>  0 0.31780138E+03</rscale>
<asrwt>0</asrwt>
<pdfrwt beam="1">  1        2 0.17453986E-01 0.31780138E+03</pdfrwt>
<pdfrwt beam="2">  1       -2 0.34239722E-01 0.31780138E+03</pdfrwt>
<totfact> 0.31431366E+03</totfact>
</mgrwt>
<rwgt>
<wgt id='morphing_basis_vector_1'> +2.5191955e-04 </wgt>
<wgt id='morphing_basis_vector_2'> +1.3885934e-04 </wgt>
<wgt id='morphing_basis_vector_3'> +1.4892495e-04 </wgt>
<wgt id='morphing_basis_vector_4'> +2.5019607e-05 </wgt>
<wgt id='morphing_basis_vector_5'> +4.5757282e-06 </wgt>
</rwgt>
</event>
<event>
 4      1 +5.5534000e-05 3.11371700e+02 7.81860800e-03 9.96202200e-02
        2 -1    0    0  501    0 +0.0000000000e+00 +0.0000000000e+00 +2.1094692656e+02 2.1094692656e+02 0.0000000000e+00 0.0000e+00 -1.0000e+00
       -2 -1    0    0    0  501 -0.0000000000e+00 -0.0000000000e+00 -1.1490133993e+02 1.1490133993e+02 0.0000000000e+00 0.0000e+00 1.0000e+00
      -13  1    1    2    0    0 -3.7330095236e+01 +1.2067560819e+02 -4.7213497202e+01 1.3485270758e+02 0.0000000000e+00 0.0000e+00 1.0000e+00
       13  1    1    2    0    0 +3.7330095236e+01 -1.2067560819e+02 +1.4325908383e+02 1.9099555891e+02 0.0000000000e+00 0.0000e+00 -1.0000e+00
<mgrwt>
<rscale>  0 0.31137170E+03</rscale>
<asrwt>0</asrwt>
<pdfrwt beam="1">  1        2 0.32453373E-01 0.31137170E+03</pdfrwt>
<pdfrwt beam="2">  1       -2 0.17677129E-01 0.31137170E+03</pdfrwt>
<totfact> 0.46616411E+03</totfact>
</mgrwt>
<rwgt>
<wgt id='morphing_basis_vector_1'> +2.4125696e-04 </wgt>
<wgt id='morphing_basis_vector_2'> +1.3435734e-04 </wgt>
<wgt id='morphing_basis_vector_3'> +1.4149559e-04 </wgt>
<wgt id='morphing_basis_vector_4'> +2.4131784e-05 </wgt>
<wgt id='morphing_basis_vector_5'> +3.0497442e-06 </wgt>
</rwgt>
</event>
<event>
 4      1 +5.5534000e-05 3.04626500e+02 7.81860800e-03 9.98970500e-02
        2 -1    0    0  501    0 +0.0000000000e+00 +0.0000000000e+00 +8.7770403439e+01 8.7770403439e+01 0.0000000000e+00 0.0000e+00 1.0000e+00
       -2 -1    0    0    0  501 -0.0000000000e+00 -0.0000000000e+00 -2.6431839923e+02 2.6431839923e+02 0.0000000000e+00 0.0000e+00 -1.0000e+00
      -13  1    1    2    0    0 -3.2406670750e+01 +1.3350266794e+02 -1.6429553721e+02 2.1416390499e+02 0.0000000000e+00 0.0000e+00 -1.0000e+00
       13  1    1    2    0    0 +3.2406670750e+01 -1.3350266794e+02 -1.2252458581e+01 1.3792489767e+02 0.0000000000e+00 0.0000e+00 1.0000e+00
<mgrwt>
<rscale>  0 0.30462654E+03</rscale>
<asrwt>0</asrwt>
<pdfrwt beam="1">  1        2 0.13503139E-01 0.30462654E+03</pdfrwt>
<pdfrwt beam="2">  1       -2 0.40664369E-01 0.30462654E+03</pdfrwt>
<totfact> 0.31401843E+03</totfact>
</mgrwt>
<rwgt>
<wgt id='morphing_basis_vector_1'> +2.3083063e-04 </wgt>
<wgt id='morphing_basis_vector_2'> +1.3067150e-04 </wgt>
<wgt id='morphing_basis_vector_3'> +1.3373428e-04 </wgt>
<wgt id='morphing_basis_vector_4'> +2.3584212e-05 </wgt>
<wgt id='morphing_basis_vector_5'> +1.8183439e-06 </wgt>
</rwgt>
</event>
<event>
 4      1 +5.5534000e-05 3.41807400e+02 7.81860800e-03 9.84588000e-02
        2 -1    0    0  501    0 +0.0000000000e+00 +0.0000000000e+00 +1.2824582416e+03 1.2824582416e+03 0.0000000000e+00 0.0000e+00 -1.0000e+00
       -2 -1    0    0    0  501 -0.0000000000e+00 -0.0000000000e+00 -2.2775065700e+01 2.2775065700e+01 0.0000000000e+00 0.0000e+00 1.0000e+00
      -13  1    1    2    0    0 -1.6141368167e+01 -1.6294273404e+02 +4.4287751536e+02 4.7217726751e+02 0.0000000000e+00 0.0000e+00 -1.0000e+00
       13  1    1    2    0    0 +1.6141368167e+01 +1.6294273404e+02 +8.1680566058e+02 8.3305603983e+02 0.0000000000e+00 0.0000e+00 1.0000e+00
<mgrwt>
<rscale>  0 0.34180738E+03</rscale>
<asrwt>0</asrwt>
<pdfrwt beam="1">  1        2 0.19730121E+00 0.34180738E+03</pdfrwt>
<pdfrwt beam="2">  1       -2 0.35038573E-02 0.34180738E+03</pdfrwt>
<totfact> 0.64074491E+03</totfact>
</mgrwt>
<rwgt>
<wgt id='morphing_basis_vector_1'> +2.9990992e-04 </wgt>
<wgt id='morphing_basis_vector_2'> +1.6958743e-04 </wgt>
<wgt id='morphing_basis_vector_3'> +1.7546684e-04 </wgt>
<wgt id='morphing_basis_vector_4'> +3.1936081e-05 </wgt>
<wgt id='morphing_basis_vector_5'> +1.3796247e-05 </wgt>
</rwgt>
</event>
<event>
 4      1 +5.5534000e-05 3.19483300e+02 7.81860800e-03 9.92970100e-02
        2 -1    0    0  501    0 +0.0000000000e+00 +0.0000000000e+00 +3.5766811610e+02 3.5766811610e+02 0.0000000000e+00 0.0000e+00 -1.0000e+00
       -2 -1    0    0    0  501 -0.0000000000e+00 -0.0000000000e+00 -7.1343794802e+01 7.1343794802e+01 0.0000000000e+00 0.0000e+00 1.0000e+00
      -13  1    1    2    0    0 +8.0826673120e+01 -5.1527952962e+01 -2.8433058248e+01 9.9982597613e+01 0.0000000000e+00 0.0000e+00 1.0000e+00
       13  1    1    2    0    0 -8.0826673120e+01 +5.1527952962e+01 +3.1475737955e+02 3.2902931329e+02 0.0000000000e+00 0.0000e+00 -1.0000e+00
<mgrwt>
<rscale>  0 0.31948334E+03</rscale>
<asrwt>0</asrwt>
<pdfrwt beam="1">  1        2 0.55025863E-01 0.31948334E+03</pdfrwt>
<pdfrwt beam="2">  1       -2 0.10975969E-01 0.31948334E+03</pdfrwt>
<totfact> 0.55224579E+03</totfact>
</mgrwt>
<rwgt>
<wgt id='morphing_basis_vector_1'> +2.5476369e-04 </wgt>
<wgt id='morphing_basis_vector_2'> +1.4001424e-04 </wgt>
<wgt id='morphing_basis_vector_3'> +1.5096605e-04 </wgt>
<wgt id='morphing_basis_vector_4'> +2.5280944e-05 </wgt>
<wgt id='morphing_basis_vector_5'> +5.0313677e-06 </wgt>
</rwgt>
</event>
<event>
 4      1 +5.5534000e-05 3.06483700e+02 7.81860800e-03 9.98200800e-02
        2 -1    0    0  501    0 +0.0000000000e+00 +0.0000000000e+00 +3.7621269917e+01 3.7621269917e+01 0.0000000000e+00 0.0000e+00 1.0000e+00
       -2 -1    0    0    0  501 -0.0000000000e+00 -0.0000000000e+00 -6.2419645089e+02 6.2419645089e+02 0.0000000000e+00 0.0000e+00 -1.0000e+00
      -13  1    1    2    0    0 +2.7681510280e+01 -1.4308671861e+02 -3.9555670794e+02 4.2155092724e+02 0.0000000000e+00 0.0000e+00 -1.0000e+00
       13  1    1    2    0    0 -2.7681510280e+01 +1.4308671861e+02 -1.9101847303e+02 2.4026679357e+02 0.0000000000e+00 0.0000e+00 1.0000e+00
<mgrwt>
<rscale>  0 0.30648369E+03</rscale>
<asrwt>0</asrwt>
<pdfrwt beam="1">  1        2 0.57878885E-02 0.30648369E+03</pdfrwt>
<pdfrwt beam="2">  1       -2 0.96030209E-01 0.30648369E+03</pdfrwt>
<totfact> 0.15769072E+03</totfact>
</mgrwt>
<rwgt>
<wgt id='morphing_basis_vector_1'> +2.3467680e-04 </wgt>
<wgt id='morphing_basis_vector_2'> +1.3460540e-04 </wgt>
<wgt id='morphing_basis_vector_3'> +1.3435338e-04 </wgt>
<wgt id='morphing_basis_vector_4'> +2.4231973e-05 </wgt>
<wgt id='morphing_basis_vector_5'> +2.1646219e-06 </wgt>
</rwgt>
</event>
<event>
 4      1 +5.5534000e-05 3.32743900e+02 7.81860800e-03 9.87904800e-02
        2 -1    0    0  501    0 +0.0000000000e+00 +0.0000000000e+00 +4.3533297718e+02 4.3533297718e+02 0.0000000000e+00 0.0000e+00 -1.0000e+00
       -2 -1    0    0    0  501 -0.0000000000e+00 -0.0000000000e+00 -6.3582647426e+01 6.3582647426e+01 0.0000000000e+00 0.0000e+00 1.0000e+00
      -13  1    1    2    0    0 -1.8347270651e+01 -8.1713586658e+01 -2.9672878836e+01 8.8849379982e+01 0.0000000000e+00 0.0000e+00 1.0000e+00
       13  1    1    2    0    0 +1.8347270651e+01 +8.1713586658e+01 +4.0142320859e+02 4.1006624462e+02 0.0000000000e+00 0.0000e+00 -1.0000e+00
<mgrwt>
<rscale>  0 0.33274388E+03</rscale>
<asrwt>0</asrwt>
<pdfrwt beam="1">  1        2 0.66974302E-01 0.33274388E+03</pdfrwt>
<pdfrwt beam="2">  1       -2 0.97819460E-02 0.33274388E+03</pdfrwt>
<totfact> 0.53222923E+03</totfact>
</mgrwt>
<rwgt>
<wgt id='morphing_basis_vector_1'> +2.7912973e-04 </wgt>
<wgt id='morphing_basis_vector_2'> +1.5205834e-04 </wgt>
<wgt id='morphing_basis_vector_3'> +1.6702821e-04 </wgt>
<wgt id='morphing_basis_vector_4'> +2.8265943e-05 </wgt>
<wgt id='morphing_basis_vector_5'> +9.5559345e-06 </wgt>
</rwgt>
</event>
<event>
 4      1 +5.5534000e-05 3.01796900e+02 7.81860800e-03 1.00015500e-01
        2 -1    0    0  501    0 +0.0000000000e+00 +0.0000000000e+00 +5.4102982902e+02 5.4102982902e+02 0.0000000000e+00 0.0000e+00 -1.0000e+00
       -2 -1    0    0    0  501 -0.0000000000e+00 -0.0000000000e+00 -4.2087029716e+01 4.2087029716e+01 0.0000000000e+00 0.0000e+00 1.0000e+00
      -13  1    1    2    0    0 -1.1464526694e+02 +3.1381658665e+01 +6.9854246917e+01 1.3786936405e+02 0.0000000000e+00 0.0000e+00 1.0000e+00
       13  1    1    2    0    0 +1.1464526694e+02 -3.1381658665e+01 +4.2908855239e+02 4.4524749468e+02 0.0000000000e+00 0.0000e+00 -1.0000e+00
<mgrwt>
<rscale>  0 0.30179688E+03</rscale>
<asrwt>0</asrwt>
<pdfrwt beam="1">  1        2 0.83235354E-01 0.30179688E+03</pdfrwt>
<pdfrwt beam="2">  1       -2 0.64749280E-02 0.30179688E+03</pdfrwt>
<totfact> 0.78195766E+03</totfact>
</mgrwt>
<rwgt>
<wgt id='morphing_basis_vector_1'> +2.2563896e-04 </wgt>
<wgt id='morphing_basis_vector_2'> +1.2644680e-04 </wgt>
<wgt id='morphing_basis_vector_3'> +1.3200669e-04 </wgt>
<wgt id='morphing_basis_vector_4'> +2.2920103e-05 </wgt>
<wgt id='morphing_basis_vector_5'> +1.3687825e-06 </wgt>
</rwgt>
</event>
<event>
 4      1 +5.5534000e-05 3.24054200e+02 7.81860800e-03 9.91194400e-02
        2 -1    0    0  501    0 +0.0000000000e+00 +0.0000000000e+00 +4.5466166198e+02 4.5466166198e+02 0.0000000000e+00 0.0000e+00 1.0000e+00
       -2 -1    0    0    0  501 -0.0000000000e+00 -0.0000000000e+00 -5.7741346212e+01 5.7741346212e+01 0.0000000000e+00 0.0000e+00 -1.0000e+00
      -13  1    1    2    0    0 +3.5129162767e+01 -7.5600809333e+01 +4.1814956408e+02 4.2637846848e+02 0.0000000000e+00 0.0000e+00 1.0000e+00
       13  1    1    2    0    0 -3.5129162767e+01 +7.5600809333e+01 -2.1229248307e+01 8.6024539710e+01 0.0000000000e+00 0.0000e+00 -1.0000e+00
<mgrwt>
<rscale>  0 0.32405417E+03</rscale>
<asrwt>0</asrwt>
<pdfrwt beam="1">  1        2 0.69947946E-01 0.32405417E+03</pdfrwt>
<pdfrwt beam="2">  1       -2 0.88832843E-02 0.32405417E+03</pdfrwt>
<totfact> 0.58793576E+03</totfact>
</mgrwt>
<rwgt>
<wgt id='morphing_basis_vector_1'> +3.5069672e-04 </wgt>
<wgt id='morphing_basis_vector_2'> +4.0078215e-04 </wgt>
<wgt id='morphing_basis_vector_3'> +3.6962960e-05 </wgt>
<wgt id='morphing_basis_vector_4'> +6.4249095e-05 </wgt>
<wgt id='morphing_basis_vector_5'> +1.1025842e-05 </wgt>
</rwgt>
</event>
<event>
 4      1 +5.5534000e-05 3.14554100e+02 7.81860800e-03 9.94921700e-02
        2 -1    0    0  501    0 +0.0000000000e+00 +0.0000000000e+00 +1.8844189992e+02 1.8844189992e+02 0.0000000000e+00 0.0000e+00 -1.0000e+00
       -2 -1    0    0    0  501 -0.0000000000e+00 -0.0000000000e+00 -1.3126633058e+02 1.3126633058e+02 0.0000000000e+00 0.0000e+00 1.0000e+00
      -13  1    1    2    0    0 +1.0593648821e+02 +6.4621386790e+01 +1.2680245424e+02 1.7741850401e+02 0.0000000000e+00 0.0000e+00 -1.0000e+00
       13  1    1    2    0    0 -1.0593648821e+02 -6.4621386790e+01 -6.9626884890e+01 1.4228972649e+02 0.0000000000e+00 0.0000e+00 1.0000e+00
<mgrwt>
<rscale>  0 0.31455414E+03</rscale>
<asrwt>0</asrwt>
<pdfrwt beam="1">  1        2 0.28991062E-01 0.31455414E+03</pdfrwt>
<pdfrwt beam="2">  1       -2 0.20194820E-01 0.31455414E+03</pdfrwt>
<totfact> 0.42661672E+03</totfact>
</mgrwt>
<rwgt>
<wgt id='morphing_basis_vector_1'> +2.9943151e-04 </wgt>
<wgt id='morphing_basis_vector_2'> +2.9004933e-04 </wgt>
<wgt id='morphing_basis_vector_3'> +7.0715977e-05 </wgt>
<wgt id='morphing_basis_vector_4'> +4.9735610e-05 </wgt>
<wgt id='morphing_basis_vector_5'> +6.2525382e-06 </wgt>
</rwgt>
</event>
<event>
 4      1 +5.5534000e-05 3.41835600e+02 7.81860800e-03 9.84577800e-02
        2 -1    0    0  501    0 +0.0000000000e+00 +0.0000000000e+00 +6.0216903165e+02 6.0216903165e+02 0.0000000000e+00 0.0000e+00 1.0000e+00
       -2 -1    0    0    0  501 -0.0000000000e+00 -0.0000000000e+00 -4.8512772588e+01 4.8512772588e+01 0.0000000000e+00 0.0000e+00 -1.0000e+00
      -13  1    1    2    0    0 +1.0246750299e+02 +6.3843810321e+01 +4.6534766188e+01 1.2938742500e+02 0.0000000000e+00 0.0000e+00 -1.0000e+00
       13  1    1    2    0    0 -1.0246750299e+02 -6.3843810321e+01 +5.0712149287e+02 5.2129437923e+02 0.0000000000e+00 0.0000e+00 1.0000e+00
<mgrwt>
<rscale>  0 0.34183557E+03</rscale>
<asrwt>0</asrwt>
<pdfrwt beam="1">  1        2 0.92641384E-01 0.34183557E+03</pdfrwt>
<pdfrwt beam="2">  1       -2 0.74635039E-02 0.34183557E+03</pdfrwt>
<totfact> 0.56077251E+03</totfact>
</mgrwt>
<rwgt>
<wgt id='morphing_basis_vector_1'> +2.9735487e-04 </wgt>
<wgt id='morphing_basis_vector_2'> +1.6186321e-04 </wgt>
<wgt id='morphing_basis_vector_3'> +1.7882028e-04 </wgt>
<wgt id='morphing_basis_vector_4'> +3.1028907e-05 </wgt>
<wgt id='morphing_basis_vector_5'> +1.3653171e-05 </wgt>
</rwgt>
</event>
<event>
 4      1 +5.5534000e-05 3.18086200e+02 7.81860800e-03 9.93519400e-02
        2 -1    0    0  501    0 +0.0000000000e+00 +0.0000000000e+00 +7.0595279683e+02 7.0595279683e+02 0.0000000000e+00 0.0000e+00 1.0000e+00
       -2 -1    0    0    0  501 -0.0000000000e+00 -0.0000000000e+00 -3.5830588045e+01 3.5830588045e+01 0.0000000000e+00 0.0000e+00 -1.0000e+00
      -13  1    1    2    0    0 +1.4919935979e+02 +5.4505151662e+01 +3.5363595213e+02 3.8767208715e+02 0.0000000000e+00 0.0000e+00 -1.0000e+00
       13  1    1    2    0    0 -1.4919935979e+02 -5.4505151662e+01 +3.1648625665e+02 3.5411129772e+02 0.0000000000e+00 0.0000e+00 1.0000e+00
<mgrwt>
<rscale>  0 0.31808618E+03</rscale>
<asrwt>0</asrwt>
<pdfrwt beam="1">  1        2 0.10860811E+00 0.31808618E+03</pdfrwt>
<pdfrwt beam="2">  1       -2 0.55123987E-02 0.31808618E+03</pdfrwt>
<totfact> 0.73502754E+03</totfact>
</mgrwt>
<rwgt>
<wgt id='morphing_basis_vector_1'> +2.6100852e-04 </wgt>
<wgt id='morphing_basis_vector_2'> +1.6409803e-04 </wgt>
<wgt id='morphing_basis_vector_3'> +1.3731456e-04 </wgt>
<wgt id='morphing_basis_vector_4'> +2.9025534e-05 </wgt>
<wgt id='morphing_basis_vector_5'> +5.0751158e-06 </wgt>
</rwgt>
</event>
<event>
 4      1 +5.5534000e-05 3.46584300e+02 7.81860800e-03 9.82884300e-02
        2 -1    0    0  501    0 +0.0000000000e+00 +0.0000000000e+00 +4.6116717254e+01 4.6116717254e+01 0.0000000000e+00 0.0000e+00 -1.0000e+00
       -2 -1    0    0    0  501 -0.0000000000e+00 -0.0000000000e+00 -6.5117766987e+02 6.5117766987e+02 0.0000000000e+00 0.0000e+00 1.0000e+00
      -13  1    1    2    0    0 -1.2189398048e+02 +1.0656966599e+01 -5.4941709717e+02 5.6287730463e+02 0.0000000000e+00 0.0000e+00 1.0000e+00
       13  1    1    2    0    0 +1.2189398048e+02 -1.0656966599e+01 -5.5643855449e+01 1.3441708249e+02 0.0000000000e+00 0.0000e+00 -1.0000e+00
<mgrwt>
<rscale>  0 0.34658434E+03</rscale>
<asrwt>0</asrwt>
<pdfrwt beam="1">  1        2 0.70948803E-02 0.34658434E+03</pdfrwt>
<pdfrwt beam="2">  1       -2 0.10018117E+00 0.34658434E+03</pdfrwt>
<totfact> 0.10960614E+03</totfact>
</mgrwt>
<rwgt>
<wgt id='morphing_basis_vector_1'> +3.0718379e-04 </wgt>
<wgt id='morphing_basis_vector_2'> +1.6690746e-04 </wgt>
<wgt id='morphing_basis_vector_3'> +1.8551221e-04 </wgt>
<wgt id='morphing_basis_vector_4'> +3.2641329e-05 </wgt>
<wgt id='morphing_basis_vector_5'> +1.6126432e-05 </wgt>
</rwgt>
</event>
<event>
 4      1 +5.5534000e-05 3.13477600e+02 7.81860800e-03 9.95353100e-02
        2 -1    0    0  501    0 +0.0000000000e+00 +0.0000000000e+00 +1.3824068057e+03 1.3824068057e+03 0.0000000000e+00 0.0000e+00 1.0000e+00
       -2 -1    0    0    0  501 -0.0000000000e+00 -0.0000000000e+00 -1.7771215481e+01 1.7771215481e+01 0.0000000000e+00 0.0000e+00 -1.0000e+00
      -13  1    1    2    0    0 -6.5777484183e+01 +1.3613852891e+02 +8.6684138244e+02 8.7992861006e+02 0.0000000000e+00 0.0000e+00 -1.0000e+00
       13  1    1    2    0    0 +6.5777484183e+01 -1.3613852891e+02 +4.9779420777e+02 5.2024941112e+02 0.0000000000e+00 0.0000e+00 1.0000e+00
<mgrwt>
<rscale>  0 0.31347759E+03</rscale>
<asrwt>0</asrwt>
<pdfrwt beam="1">  1        2 0.21267788E+00 0.31347759E+03</pdfrwt>
<pdfrwt beam="2">  1       -2 0.27340342E-02 0.31347759E+03</pdfrwt>
<totfact> 0.81325817E+03</totfact>
</mgrwt>
<rwgt>
<wgt id='morphing_basis_vector_1'> +2.6223340e-04 </wgt>
<wgt id='morphing_basis_vector_2'> +1.8657519e-04 </wgt>
<wgt id='morphing_basis_vector_3'> +1.1915858e-04 </wgt>
<wgt id='morphing_basis_vector_4'> +3.2821098e-05 </wgt>
<wgt id='morphing_basis_vector_5'> +4.3240699e-06 </wgt>
</rwgt>
</event>
<event>
 4      1 +5.5534000e-05 3.16675600e+02 7.81860800e-03 9.94077000e-02
        2 -1    0    0  501    0 +0.0000000000e+00 +0.0000000000e+00 +1.7391147283e+02 1.7391147283e+02 0.0000000000e+00 0.0000e+00 -1.0000e+00
       -2 -1    0    0    0  501 -0.0000000000e+00 -0.0000000000e+00 -1.4415872112e+02 1.4415872112e+02 0.0000000000e+00 0.0000e+00 1.0000e+00
      -13  1    1    2    0    0 -1.1906644452e+02 -2.9506978551e+01 -8.5681340397e+01 1.4962878094e+02 0.0000000000e+00 0.0000e+00 1.0000e+00
       13  1    1    2    0    0 +1.1906644452e+02 +2.9506978551e+01 +1.1543409211e+02 1.6844141301e+02 0.0000000000e+00 0.0000e+00 -1.0000e+00
<mgrwt>
<rscale>  0 0.31667558E+03</rscale>
<asrwt>0</asrwt>
<pdfrwt beam="1">  1        2 0.26755611E-01 0.31667558E+03</pdfrwt>
<pdfrwt beam="2">  1       -2 0.22178265E-01 0.31667558E+03</pdfrwt>
<totfact> 0.40081469E+03</totfact>
</mgrwt>
<rwgt>
<wgt id='morphing_basis_vector_1'> +2.5015848e-04 </wgt>
<wgt id='morphing_basis_vector_2'> +1.3845796e-04 </wgt>
<wgt id='morphing_basis_vector_3'> +1.4740041e-04 </wgt>
<wgt id='morphing_basis_vector_4'> +2.4912207e-05 </wgt>
<wgt id='morphing_basis_vector_5'> +4.2902981e-06 </wgt>
</rwgt>
</event>
<event>
 4      1 +5.5534000e-05 3.32606200e+02 7.81860800e-03 9.87956100e-02
        2 -1    0    0  501    0 +0.0000000000e+00 +0.0000000000e+00 +9.3210096809e+01 9.3210096809e+01 0.0000000000e+00 0.0000e+00 1.0000e+00
       -2 -1    0    0    0  501 -0.0000000000e+00 -0.0000000000e+00 -2.9671381747e+02 2.9671381747e+02 0.0000000000e+00 0.0000e+00 -1.0000e+00
      -13  1    1    2    0    0 +1.6015767386e+02 -8.6924291786e+00 -1.5326347966e+02 2.2184619226e+02 0.0000000000e+00 0.0000e+00 -1.0000e+00
       13  1    1    2    0    0 -1.6015767386e+02 +8.6924291786e+00 -5.0240240998e+01 1.6807772202e+02 0.0000000000e+00 0.0000e+00 1.0000e+00
<mgrwt>
<rscale>  0 0.33260622E+03</rscale>
<asrwt>0</asrwt>
<pdfrwt beam="1">  1        2 0.14340015E-01 0.33260622E+03</pdfrwt>
<pdfrwt beam="2">  1       -2 0.45648279E-01 0.33260622E+03</pdfrwt>
<totfact> 0.23598997E+03</totfact>
</mgrwt>
<rwgt>
<wgt id='morphing_basis_vector_1'> +2.8177085e-04 </wgt>
<wgt id='morphing_basis_vector_2'> +1.6048769e-04 </wgt>
<wgt id='morphing_basis_vector_3'> +1.6302696e-04 </wgt>
<wgt id='morphing_basis_vector_4'> +2.9374788e-05 </wgt>
<wgt id='morphing_basis_vector_5'> +9.6650855e-06 </wgt>
</rwgt>
</event>
<event>
 4      1 +5.5534000e-05 3.16025700e+02 7.81860800e-03 9.94335000e-02
        2 -1    0    0  501    0 +0.0000000000e+00 +0.0000000000e+00 +4.1771767098e+02 4.1771767098e+02 0.0000000000e+00 0.0000e+00 1.0000e+00
       -2 -1    0    0    0  501 -0.0000000000e+00 -0.0000000000e+00 -5.9772569830e+01 5.9772569830e+01 0.0000000000e+00 0.0000e+00 -1.0000e+00
      -13  1    1    2    0    0 -1.1656458682e+02 -4.8668110557e+01 +3.5536994202e+01 1.3122029509e+02 0.0000000000e+00 0.0000e+00 -1.0000e+00
       13  1    1    2    0    0 +1.1656458682e+02 +4.8668110557e+01 +3.2240810695e+02 3.4626994573e+02 0.0000000000e+00 0.0000e+00 1.0000e+00
<mgrwt>
<rscale>  0 0.31602569E+03</rscale>
<asrwt>0</asrwt>
<pdfrwt beam="1">  1        2 0.64264255E-01 0.31602569E+03</pdfrwt>
<pdfrwt beam="2">  1       -2 0.91957802E-02 0.31602569E+03</pdfrwt>
<totfact> 0.61158049E+03</totfact>
</mgrwt>
<rwgt>
<wgt id='morphing_basis_vector_1'> +2.4912303e-04 </wgt>
<wgt id='morphing_basis_vector_2'> +1.3815576e-04 </wgt>
<wgt id='morphing_basis_vector_3'> +1.4656081e-04 </wgt>
<wgt id='morphing_basis_vector_4'> +2.4842260e-05 </wgt>
<wgt id='morphing_basis_vector_5'> +4.1291167e-06 </wgt>
</rwgt>
</event>
<event>
 4      1 +5.5534000e-05 3.06118000e+02 7.81860800e-03 9.98351900e-02
        2 -1    0    0  501    0 +0.0000000000e+00 +0.0000000000e+00 +3.9425731750e+01 3.9425731750e+01 0.0000000000e+00 0.0000e+00 1.0000e+00
       -2 -1    0    0    0  501 -0.0000000000e+00 -0.0000000000e+00 -5.9420724404e+02 5.9420724404e+02 0.0000000000e+00 0.0000e+00 -1.0000e+00
      -13  1    1    2    0    0 -6.6394857400e+01 +9.4431751741e+01 -4.8542756949e+02 4.9896448576e+02 0.0000000000e+00 0.0000e+00 -1.0000e+00
       13  1    1    2    0    0 +6.6394857400e+01 -9.4431751741e+01 -6.9353942801e+01 1.3466849003e+02 0.0000000000e+00 0.0000e+00 1.0000e+00
<mgrwt>
<rscale>  0 0.30611799E+03</rscale>
<asrwt>0</asrwt>
<pdfrwt beam="1">  1        2 0.60654979E-02 0.30611799E+03</pdfrwt>
<pdfrwt beam="2">  1       -2 0.91416488E-01 0.30611799E+03</pdfrwt>
<totfact> 0.16617287E+03</totfact>
</mgrwt>
<rwgt>
<wgt id='morphing_basis_vector_1'> +2.3242585e-04 </wgt>
<wgt id='morphing_basis_vector_2'> +1.2954661e-04 </wgt>
<wgt id='morphing_basis_vector_3'> +1.3637916e-04 </wgt>
<wgt id='morphing_basis_vector_4'> +2.3341566e-05 </wgt>
<wgt id='morphing_basis_vector_5'> +2.0329418e-06 </wgt>
</rwgt>
</event>
<event>
 4      1 +5.5534000e-05 3.16820000e+02 7.81860800e-03 9.94019800e-02
        2 -1    0    0  501    0 +0.0000000000e+00 +0.0000000000e+00 +4.4750928085e+01 4.4750928085e+01 0.0000000000e+00 0.0000e+00 1.0000e+00
       -2 -1    0    0    0  501 -0.0000000000e+00 -0.0000000000e+00 -5.6074223395e+02 5.6074223395e+02 0.0000000000e+00 0.0000e+00 -1.0000e+00
      -13  1    1    2    0    0 +1.0605629207e+02 +4.6956062554e+01 -4.6419646134e+02 4.7846751574e+02 0.0000000000e+00 0.0000e+00 -1.0000e+00
       13  1    1    2    0    0 -1.0605629207e+02 -4.6956062554e+01 -5.1794844532e+01 1.2702564630e+02 0.0000000000e+00 0.0000e+00 1.0000e+00
<mgrwt>
<rscale>  0 0.31682005E+03</rscale>
<asrwt>0</asrwt>
<pdfrwt beam="1">  1        2 0.68847583E-02 0.31682005E+03</pdfrwt>
<pdfrwt beam="2">  1       -2 0.86268035E-01 0.31682005E+03</pdfrwt>
<totfact> 0.16091326E+03</totfact>
</mgrwt>
<rwgt>
<wgt id='morphing_basis_vector_1'> +2.5029343e-04 </wgt>
<wgt id='morphing_basis_vector_2'> +1.3824693e-04 </wgt>
<wgt id='morphing_basis_vector_3'> +1.4772125e-04 </wgt>
<wgt id='morphing_basis_vector_4'> +2.4883465e-05 </wgt>
<wgt id='morphing_basis_vector_5'> +4.3219603e-06 </wgt>
</rwgt>
</event>
<event>
 4      1 +5.5534000e-05 3.14846700e+02 7.81860800e-03 9.94804800e-02
        2 -1    0    0  501    0 +0.0000000000e+00 +0.0000000000e+00 +7.9933745011e+02 7.9933745011e+02 0.0000000000e+00 0.0000e+00 1.0000e+00
       -2 -1    0    0    0  501 -0.0000000000e+00 -0.0000000000e+00 -3.1003310396e+01 3.1003310396e+01 0.0000000000e+00 0.0000e+00 -1.0000e+00
      -13  1    1    2    0    0 -1.1422619832e+02 -5.7418852450e+01 +1.4191603841e+02 1.9100971430e+02 0.0000000000e+00 0.0000e+00 -1.0000e+00
       13  1    1    2    0    0 +1.1422619832e+02 +5.7418852450e+01 +6.2641810130e+02 6.3933104620e+02 0.0000000000e+00 0.0000e+00 1.0000e+00
<mgrwt>
<rscale>  0 0.31484667E+03</rscale>
<asrwt>0</asrwt>
<pdfrwt beam="1">  1        2 0.12297498E+00 0.31484667E+03</pdfrwt>
<pdfrwt beam="2">  1       -2 0.47697407E-02 0.31484667E+03</pdfrwt>
<totfact> 0.78478909E+03</totfact>
</mgrwt>
<rwgt>
<wgt id='morphing_basis_vector_1'> +2.4714840e-04 </wgt>
<wgt id='morphing_basis_vector_2'> +1.3729949e-04 </wgt>
<wgt id='morphing_basis_vector_3'> +1.4519939e-04 </wgt>
<wgt id='morphing_basis_vector_4'> +2.4670933e-05 </wgt>
<wgt id='morphing_basis_vector_5'> +3.8405411e-06 </wgt>
</rwgt>
</event>
<event>
 4      1 +5.5534000e-05 3.39132000e+02 7.81860800e-03 9.85555300e-02
        2 -1    0    0  501    0 +0.0000000000e+00 +0.0000000000e+00 +2.6307925062e+02 2.6307925062e+02 0.0000000000e+00 0.0000e+00 -1.0000e+00
       -2 -1    0    0    0  501 -0.0000000000e+00 -0.0000000000e+00 -1.0929266439e+02 1.0929266439e+02 0.0000000000e+00 0.0000e+00 1.0000e+00
      -13  1    1    2    0    0 -3.4512030995e+01 -1.6600690864e+02 +7.8875276635e+01 1.8700450065e+02 0.0000000000e+00 0.0000e+00 1.0000e+00
       13  1    1    2    0    0 +3.4512030995e+01 +1.6600690864e+02 +7.4911309600e+01 1.8536741436e+02 0.0000000000e+00 0.0000e+00 -1.0000e+00
<mgrwt>
<rscale>  0 0.33913202E+03</rscale>
<asrwt>0</asrwt>
<pdfrwt beam="1">  1        2 0.40473731E-01 0.33913202E+03</pdfrwt>
<pdfrwt beam="2">  1       -2 0.16814256E-01 0.33913202E+03</pdfrwt>
<totfact> 0.39586563E+03</totfact>
</mgrwt>
<rwgt>
<wgt id='morphing_basis_vector_1'> +3.0063685e-04 </wgt>
<wgt id='morphing_basis_vector_2'> +1.8497923e-04 </wgt>
<wgt id='morphing_basis_vector_3'> +1.6390931e-04 </wgt>
<wgt id='morphing_basis_vector_4'> +3.3356864e-05 </wgt>
<wgt id='morphing_basis_vector_5'> +1.2868736e-05 </wgt>
</rwgt>
</event>
<event>
 4      1 +5.5534000e-05 3.58258700e+02 7.81860800e-03 9.78842900e-02
        2 -1    0    0  501    0 +0.0000000000e+00 +0.0000000000e+00 +1.3417092590e+02 1.3417092590e+02 0.0000000000e+00 0.0000e+00 -1.0000e+00
       -2 -1    0    0    0  501 -0.0000000000e+00 -0.0000000000e+00 -2.3915257232e+02 2.3915257232e+02 0.0000000000e+00 0.0000e+00 1.0000e+00
      -13  1    1    2    0    0 +1.0233671206e+02 +6.6168707531e+01 +8.4316589153e+01 1.4819037653e+02 0.0000000000e+00 0.0000e+00 -1.0000e+00
       13  1    1    2    0    0 -1.0233671206e+02 -6.6168707531e+01 -1.8929823557e+02 2.2513312169e+02 0.0000000000e+00 0.0000e+00 1.0000e+00
<mgrwt>
<rscale>  0 0.35825869E+03</rscale>
<asrwt>0</asrwt>
<pdfrwt beam="1">  1        2 0.20641681E-01 0.35825869E+03</pdfrwt>
<pdfrwt beam="2">  1       -2 0.36792703E-01 0.35825869E+03</pdfrwt>
<totfact> 0.22728626E+03</totfact>
</mgrwt>
<rwgt>
<wgt id='morphing_basis_vector_1'> +4.2648301e-04 </wgt>
<wgt id='morphing_basis_vector_2'> +4.6163756e-04 </wgt>
<wgt id='morphing_basis_vector_3'> +9.2406409e-05 </wgt>
<wgt id='morphing_basis_vector_4'> +6.2688005e-05 </wgt>
<wgt id='morphing_basis_vector_5'> +2.9286442e-05 </wgt>
</rwgt>
</event>
<event>
 4      1 +5.5534000e-05 3.57817600e+02 7.81860800e-03 9.78992500e-02
        2 -1    0    0  501    0 +0.0000000000e+00 +0.0000000000e+00 +2.9323739090e+02 2.9323739090e+02 0.0000000000e+00 0.0000e+00 -1.0000e+00
       -2 -1    0    0    0  501 -0.0000000000e+00 -0.0000000000e+00 -1.0915510618e+02 1.0915510618e+02 0.0000000000e+00 0.0000e+00 1.0000e+00
      -13  1    1    2    0    0 -1.7107394638e+02 -4.3817837360e+00 +3.3359656422e+01 1.7435125992e+02 0.0000000000e+00 0.0000e+00 1.0000e+00
       13  1    1    2    0    0 +1.7107394638e+02 +4.3817837360e+00 +1.5072262830e+02 2.2804123715e+02 0.0000000000e+00 0.0000e+00 -1.0000e+00
<mgrwt>
<rscale>  0 0.35781760E+03</rscale>
<asrwt>0</asrwt>
<pdfrwt beam="1">  1        2 0.45113444E-01 0.35781760E+03</pdfrwt>
<pdfrwt beam="2">  1       -2 0.16793093E-01 0.35781760E+03</pdfrwt>
<totfact> 0.35226983E+03</totfact>
</mgrwt>
<rwgt>
<wgt id='morphing_basis_vector_1'> +3.3452787e-04 </wgt>
<wgt id='morphing_basis_vector_2'> +1.8824692e-04 </wgt>
<wgt id='morphing_basis_vector_3'> +1.9902226e-04 </wgt>
<wgt id='morphing_basis_vector_4'> +3.7866310e-05 </wgt>
<wgt id='morphing_basis_vector_5'> +2.3149577e-05 </wgt>
</rwgt>
</event>
<event>
 4      1 +5.5534000e-05 3.20365300e+02 7.81860800e-03 9.92625000e-02
        2 -1    0    0  501    0 +0.0000000000e+00 +0.0000000000e+00 +7.2355975057e+01 7.2355975057e+01 0.0000000000e+00 0.0000e+00 -1.0000e+00
       -2 -1    0    0    0  501 -0.0000000000e+00 -0.0000000000e+00 -3.5461451413e+02 3.5461451413e+02 0.0000000000e+00 0.0000e+00 1.0000e+00
      -13  1    1    2    0    0 +2.6851834848e+01 +1.4761918874e+02 -2.1588320270e+02 2.6290302990e+02 0.0000000000e+00 0.0000e+00 1.0000e+00
       13  1    1    2    0    0 -2.6851834848e+01 -1.4761918874e+02 -6.6375336370e+01 1.6406745929e+02 0.0000000000e+00 0.0000e+00 -1.0000e+00
<mgrwt>
<rscale>  0 0.32036528E+03</rscale>
<asrwt>0</asrwt>
<pdfrwt beam="1">  1        2 0.11131689E-01 0.32036528E+03</pdfrwt>
<pdfrwt beam="2">  1       -2 0.54556079E-01 0.32036528E+03</pdfrwt>
<totfact> 0.22870199E+03</totfact>
</mgrwt>
<rwgt>
<wgt id='morphing_basis_vector_1'> +2.5806871e-04 </wgt>
<wgt id='morphing_basis_vector_2'> +1.4587638e-04 </wgt>
<wgt id='morphing_basis_vector_3'> +1.4956695e-04 </wgt>
<wgt id='morphing_basis_vector_4'> +2.6235383e-05 </wgt>
<wgt id='morphing_basis_vector_5'> +5.3711416e-06 </wgt>
</rwgt>
</event>
<event>
 4      1 +5.5534000e-05 3.53489600e+02 7.81860800e-03 9.80473500e-02
        2 -1    0    0  501    0 +0.0000000000e+00 +0.0000000000e+00 +6.1114224917e+02 6.1114224917e+02 0.0000000000e+00 0.0000e+00 -1.0000e+00
       -2 -1    0    0    0  501 -0.0000000000e+00 -0.0000000000e+00 -5.1115319556e+01 5.1115319556e+01 0.0000000000e+00 0.0000e+00 1.0000e+00
      -13  1    1    2    0    0 -1.6602922870e+02 +6.0546105107e+01 +2.8503906355e+02 3.3537859708e+02 0.0000000000e+00 0.0000e+00 1.0000e+00
       13  1    1    2    0    0 +1.6602922870e+02 -6.0546105107e+01 +2.7498786606e+02 3.2687897165e+02 0.0000000000e+00 0.0000e+00 -1.0000e+00
<mgrwt>
<rscale>  0 0.35348964E+03</rscale>
<asrwt>0</asrwt>
<pdfrwt beam="1">  1        2 0.94021879E-01 0.35348964E+03</pdfrwt>
<pdfrwt beam="2">  1       -2 0.78638957E-02 0.35348964E+03</pdfrwt>
<totfact> 0.50956235E+03</totfact>
</mgrwt>
<rwgt>
<wgt id='morphing_basis_vector_1'> +3.3196813e-04 </wgt>
<wgt id='morphing_basis_vector_2'> +2.0435258e-04 </wgt>
<wgt id='morphing_basis_vector_3'> +1.8372425e-04 </wgt>
<wgt id='morphing_basis_vector_4'> +3.8191040e-05 </wgt>
<wgt id='morphing_basis_vector_5'> +2.0790595e-05 </wgt>
</rwgt>
</event>
<event>
 4      1 +5.5534000e-05 3.02564000e+02 7.81860800e-03 9.99832200e-02
        2 -1    0    0  501    0 +0.0000000000e+00 +0.0000000000e+00 +5.1539743852e+02 5.1539743852e+02 0.0000000000e+00 0.0000e+00 1.0000e+00
       -2 -1    0    0    0  501 -0.0000000000e+00 -0.0000000000e+00 -4.4405035697e+01 4.4405035697e+01 0.0000000000e+00 0.0000e+00 -1.0000e+00
      -13  1    1    2    0    0 -4.8456532667e+01 -1.4074827688e+02 +1.8557079151e+02 2.3789626240e+02 0.0000000000e+00 0.0000e+00 -1.0000e+00
       13  1    1    2    0    0 +4.8456532667e+01 +1.4074827688e+02 +2.8542161131e+02 3.2190621181e+02 0.0000000000e+00 0.0000e+00 1.0000e+00
<mgrwt>
<rscale>  0 0.30256399E+03</rscale>
<asrwt>0</asrwt>
<pdfrwt beam="1">  1        2 0.79291909E-01 0.30256399E+03</pdfrwt>
<pdfrwt beam="2">  1       -2 0.68315443E-02 0.30256399E+03</pdfrwt>
<totfact> 0.76135475E+03</totfact>
</mgrwt>
<rwgt>
<wgt id='morphing_basis_vector_1'> +2.2972041e-04 </wgt>
<wgt id='morphing_basis_vector_2'> +1.3525903e-04 </wgt>
<wgt id='morphing_basis_vector_3'> +1.2855321e-04 </wgt>
<wgt id='morphing_basis_vector_4'> +2.4509336e-05 </wgt>
<wgt id='morphing_basis_vector_5'> +1.5868608e-06 </wgt>
</rwgt>
</event>
<event>
 4      1 +5.5534000e-05 3.26372500e+02 7.81860800e-03 9.90305900e-02
        2 -1    0    0  501    0 +0.0000000000e+00 +0.0000000000e+00 +1.4419179304e+02 1.4419179304e+02 0.0000000000e+00 0.0000e+00 -1.0000e+00
       -2 -1    0    0    0  501 -0.0000000000e+00 -0.0000000000e+00 -1.8468289114e+02 1.8468289114e+02 0.0000000000e+00 0.0000e+00 1.0000e+00
      -13  1    1    2    0    0 +8.9100616280e+01 +2.2006064597e+01 +1.1572063800e+02 1.4769716571e+02 0.0000000000e+00 0.0000e+00 1.0000e+00
       13  1    1    2    0    0 -8.9100616280e+01 -2.2006064597e+01 -1.5621173611e+02 1.8117751847e+02 0.0000000000e+00 0.0000e+00 -1.0000e+00
<mgrwt>
<rscale>  0 0.32637253E+03</rscale>
<asrwt>0</asrwt>
<pdfrwt beam="1">  1        2 0.22183353E-01 0.32637253E+03</pdfrwt>
<pdfrwt beam="2">  1       -2 0.28412753E-01 0.32637253E+03</pdfrwt>
<totfact> 0.32820048E+03</totfact>
</mgrwt>
<rwgt>
<wgt id='morphing_basis_vector_1'> +3.5355679e-04 </wgt>
<wgt id='morphing_basis_vector_2'> +3.9937845e-04 </wgt>
<wgt id='morphing_basis_vector_3'> +4.2607374e-05 </wgt>
<wgt id='morphing_basis_vector_4'> +6.3250767e-05 </wgt>
<wgt id='morphing_basis_vector_5'> +1.1826680e-05 </wgt>
</rwgt>
</event>
<event>
 4      1 +5.5534000e-05 3.09231900e+02 7.81860800e-03 9.97072300e-02
        2 -1    0    0  501    0 +0.0000000000e+00 +0.0000000000e+00 +1.6811314750e+02 1.6811314750e+02 0.0000000000e+00 0.0000e+00 -1.0000e+00
       -2 -1    0    0    0  501 -0.0000000000e+00 -0.0000000000e+00 -1.4220241050e+02 1.4220241050e+02 0.0000000000e+00 0.0000e+00 1.0000e+00
      -13  1    1    2    0    0 -1.5408496273e+02 -8.9937028269e+00 +2.2099510885e+01 1.5592129685e+02 0.0000000000e+00 0.0000e+00 1.0000e+00
       13  1    1    2    0    0 +1.5408496273e+02 +8.9937028269e+00 +3.8112261156e+00 1.5439426114e+02 0.0000000000e+00 0.0000e+00 -1.0000e+00
<mgrwt>
<rscale>  0 0.30923192E+03</rscale>
<asrwt>0</asrwt>
<pdfrwt beam="1">  1        2 0.25863561E-01 0.30923192E+03</pdfrwt>
<pdfrwt beam="2">  1       -2 0.21877294E-01 0.30923192E+03</pdfrwt>
<totfact> 0.42586448E+03</totfact>
</mgrwt>
<rwgt>
<wgt id='morphing_basis_vector_1'> +2.4563861e-04 </wgt>
<wgt id='morphing_basis_vector_2'> +1.5547781e-04 </wgt>
<wgt id='morphing_basis_vector_3'> +1.2792104e-04 </wgt>
<wgt id='morphing_basis_vector_4'> +2.7790243e-05 </wgt>
<wgt id='morphing_basis_vector_5'> +2.9564928e-06 </wgt>
</rwgt>
</event>
<event>
 4      1 +5.5534000e-05 3.28766500e+02 7.81860800e-03 9.89396800e-02
        2 -1    0    0  501    0 +0.0000000000e+00 +0.0000000000e+00 +4.3215140369e+02 4.3215140369e+02 0.0000000000e+00 0.0000e+00 -1.0000e+00
       -2 -1    0    0    0  501 -0.0000000000e+00 -0.0000000000e+00 -6.2528684832e+01 6.2528684832e+01 0.0000000000e+00 0.0000e+00 1.0000e+00
      -13  1    1    2    0    0 +3.6366686548e+01 +8.9328187559e+01 -1.5481840812e+01 9.7681873334e+01 0.0000000000e+00 0.0000e+00 1.0000e+00
       13  1    1    2    0    0 -3.6366686548e+01 -8.9328187559e+01 +3.8510455967e+02 3.9699821518e+02 0.0000000000e+00 0.0000e+00 -1.0000e+00
<mgrwt>
<rscale>  0 0.32876654E+03</rscale>
<asrwt>0</asrwt>
<pdfrwt beam="1">  1        2 0.66484829E-01 0.32876654E+03</pdfrwt>
<pdfrwt beam="2">  1       -2 0.96197979E-02 0.32876654E+03</pdfrwt>
<totfact> 0.55037455E+03</totfact>
</mgrwt>
<rwgt>
<wgt id='morphing_basis_vector_1'> +2.7163201e-04 </wgt>
<wgt id='morphing_basis_vector_2'> +1.4840997e-04 </wgt>
<wgt id='morphing_basis_vector_3'> +1.6196813e-04 </wgt>
<wgt id='morphing_basis_vector_4'> +2.7275033e-05 </wgt>
<wgt id='morphing_basis_vector_5'> +8.0289254e-06 </wgt>
</rwgt>
</event>
<event>
 4      1 +5.5534000e-05 3.53384100e+02 7.81860800e-03 9.80509800e-02
        2 -1    0    0  501    0 +0.0000000000e+00 +0.0000000000e+00 +1.0140109569e+03 1.0140109569e+03 0.0000000000e+00 0.0000e+00 -1.0000e+00
       -2 -1    0    0    0  501 -0.0000000000e+00 -0.0000000000e+00 -3.0788707340e+01 3.0788707340e+01 0.0000000000e+00 0.0000e+00 1.0000e+00
      -13  1    1    2    0    0 +1.5314626974e+02 -4.0063903708e+01 +7.2368074298e+02 7.4079195060e+02 0.0000000000e+00 0.0000e+00 1.0000e+00
       13  1    1    2    0    0 -1.5314626974e+02 +4.0063903708e+01 +2.5954150658e+02 3.0400771364e+02 0.0000000000e+00 0.0000e+00 -1.0000e+00
<mgrwt>
<rscale>  0 0.35338413E+03</rscale>
<asrwt>0</asrwt>
<pdfrwt beam="1">  1        2 0.15600166E+00 0.35338413E+03</pdfrwt>
<pdfrwt beam="2">  1       -2 0.47367250E-02 0.35338413E+03</pdfrwt>
<totfact> 0.58242490E+03</totfact>
</mgrwt>
<rwgt>
<wgt id='morphing_basis_vector_1'> +3.6550212e-04 </wgt>
<wgt id='morphing_basis_vector_2'> +3.0522555e-04 </wgt>
<wgt id='morphing_basis_vector_3'> +1.4281872e-04 </wgt>
<wgt id='morphing_basis_vector_4'> +4.8105386e-05 </wgt>
<wgt id='morphing_basis_vector_5'> +2.2860016e-05 </wgt>
</rwgt>
</event>
<event>
 4      1 +5.5534000e-05 3.15704600e+02 7.81860800e-03 9.94462700e-02
        2 -1    0    0  501    0 +0.0000000000e+00 +0.0000000000e+00 +3.7075713647e+02 3.7075713647e+02 0.0000000000e+00 0.0000e+00 1.0000e+00
       -2 -1    0    0    0  501 -0.0000000000e+00 -0.0000000000e+00 -6.7206678448e+01 6.7206678448e+01 0.0000000000e+00 0.0000e+00 -1.0000e+00
      -13  1    1    2    0    0 +6.1226692643e+00 -1.2400178180e+02 +1.6537654469e+01 1.2524944305e+02 0.0000000000e+00 0.0000e+00 -1.0000e+00
       13  1    1    2    0    0 -6.1226692643e+00 +1.2400178180e+02 +2.8701280355e+02 3.1271437187e+02 0.0000000000e+00 0.0000e+00 1.0000e+00
<mgrwt>
<rscale>  0 0.31570464E+03</rscale>
<asrwt>0</asrwt>
<pdfrwt beam="1">  1        2 0.57039558E-01 0.31570464E+03</pdfrwt>
<pdfrwt beam="2">  1       -2 0.10339489E-01 0.31570464E+03</pdfrwt>
<totfact> 0.58195783E+03</totfact>
</mgrwt>
<rwgt>
<wgt id='morphing_basis_vector_1'> +2.4852040e-04 </wgt>
<wgt id='morphing_basis_vector_2'> +1.3773780e-04 </wgt>
<wgt id='morphing_basis_vector_3'> +1.4627747e-04 </wgt>
<wgt id='morphing_basis_vector_4'> +2.4764991e-05 </wgt>
<wgt id='morphing_basis_vector_5'> +4.0463544e-06 </wgt>
</rwgt>
</event>
<event>
 4      1 +5.5534000e-05 3.41220800e+02 7.81860800e-03 9.84799200e-02
        2 -1    0    0  501    0 +0.0000000000e+00 +0.0000000000e+00 +1.7557100122e+03 1.7557100122e+03 0.0000000000e+00 0.0000e+00 1.0000e+00
       -2 -1    0    0    0  501 -0.0000000000e+00 -0.0000000000e+00 -1.6578997938e+01 1.6578997938e+01 0.0000000000e+00 0.0000e+00 -1.0000e+00
      -13  1    1    2    0    0 -1.2749278319e+02 +1.1214904590e+02 +7.8326212297e+02 8.0145578264e+02 0.0000000000e+00 0.0000e+00 -1.0000e+00
       13  1    1    2    0    0 +1.2749278319e+02 -1.1214904590e+02 +9.5586889133e+02 9.7083322752e+02 0.0000000000e+00 0.0000e+00 1.0000e+00
<mgrwt>
<rscale>  0 0.34122082E+03</rscale>
<asrwt>0</asrwt>
<pdfrwt beam="1">  1        2 0.27010909E+00 0.34122082E+03</pdfrwt>
<pdfrwt beam="2">  1       -2 0.25506165E-02 0.34122082E+03</pdfrwt>
<totfact> 0.56918362E+03</totfact>
</mgrwt>
<rwgt>
<wgt id='morphing_basis_vector_1'> +3.0195837e-04 </wgt>
<wgt id='morphing_basis_vector_2'> +1.7859095e-04 </wgt>
<wgt id='morphing_basis_vector_3'> +1.7052794e-04 </wgt>
<wgt id='morphing_basis_vector_4'> +3.2900866e-05 </wgt>
<wgt id='morphing_basis_vector_5'> +1.3701198e-05 </wgt>
</rwgt>
</event>
<event>
 4      1 +5.5534000e-05 3.10877000e+02 7.81860800e-03 9.96402700e-02
        2 -1    0    0  501    0 +0.0000000000e+00 +0.0000000000e+00 +3.6482093955e+02 3.6482093955e+02 0.0000000000e+00 0.0000e+00 -1.0000e+00
       -2 -1    0    0    0  501 -0.0000000000e+00 -0.0000000000e+00 -6.6227337921e+01 6.6227337921e+01 0.0000000000e+00 0.0000e+00 1.0000e+00
      -13  1    1    2    0    0 +6.2848115242e+01 +5.7860179140e+01 -3.0760358989e+01 9.0795845746e+01 0.0000000000e+00 0.0000e+00 1.0000e+00
       13  1    1    2    0    0 -6.2848115242e+01 -5.7860179140e+01 +3.2935396061e+02 3.4025243172e+02 0.0000000000e+00 0.0000e+00 -1.0000e+00
<mgrwt>
<rscale>  0 0.31087695E+03</rscale>
<asrwt>0</asrwt>
<pdfrwt beam="1">  1        2 0.56126297E-01 0.31087695E+03</pdfrwt>
<pdfrwt beam="2">  1       -2 0.10188821E-01 0.31087695E+03</pdfrwt>
<totfact> 0.60565238E+03</totfact>
</mgrwt>
<rwgt>
<wgt id='morphing_basis_vector_1'> +2.3997662e-04 </wgt>
<wgt id='morphing_basis_vector_2'> +1.3263827e-04 </wgt>
<wgt id='morphing_basis_vector_3'> +1.4162153e-04 </wgt>
<wgt id='morphing_basis_vector_4'> +2.3837614e-05 </wgt>
<wgt id='morphing_basis_vector_5'> +2.9250764e-06 </wgt>
</rwgt>
</event>
<event>
 4      1 +5.5534000e-05 3.56961200e+02 7.81860800e-03 9.79283800e-02
        2 -1    0    0  501    0 +0.0000000000e+00 +0.0000000000e+00 +3.8084731188e+02 3.8084731188e+02 0.0000000000e+00 0.0000e+00 -1.0000e+00
       -2 -1    0    0    0  501 -0.0000000000e+00 -0.0000000000e+00 -8.3643284477e+01 8.3643284477e+01 0.0000000000e+00 0.0000e+00 1.0000e+00
      -13  1    1    2    0    0 +1.6119600847e+02 +4.6890461153e+01 +6.9746151993e+01 1.8178942271e+02 0.0000000000e+00 0.0000e+00 1.0000e+00
       13  1    1    2    0    0 -1.6119600847e+02 -4.6890461153e+01 +2.2745787542e+02 2.8270117365e+02 0.0000000000e+00 0.0000e+00 -1.0000e+00
<mgrwt>
<rscale>  0 0.35696117E+03</rscale>
<asrwt>0</asrwt>
<pdfrwt beam="1">  1        2 0.58591893E-01 0.35696117E+03</pdfrwt>
<pdfrwt beam="2">  1       -2 0.12868198E-01 0.35696117E+03</pdfrwt>
<totfact> 0.40324110E+03</totfact>
</mgrwt>
<rwgt>
<wgt id='morphing_basis_vector_1'> +3.3198578e-04 </wgt>
<wgt id='morphing_basis_vector_2'> +1.8539016e-04 </wgt>
<wgt id='morphing_basis_vector_3'> +1.9839433e-04 </wgt>
<wgt id='morphing_basis_vector_4'> +3.7337407e-05 </wgt>
<wgt id='morphing_basis_vector_5'> +2.2537682e-05 </wgt>
</rwgt>
</event>
<event>
 4      1 +5.5534000e-05 3.21359900e+02 7.81860800e-03 9.92237200e-02
        2 -1    0    0  501    0 +0.0000000000e+00 +0.0000000000e+00 +5.0509791034e+01 5.0509791034e+01 0.0000000000e+00 0.0000e+00 1.0000e+00
       -2 -1    0    0    0  501 -0.0000000000e+00 -0.0000000000e+00 -5.1114923852e+02 5.1114923852e+02 0.0000000000e+00 0.0000e+00 -1.0000e+00
      -13  1    1    2    0    0 +1.5718957295e+02 +2.9949281927e+01 -2.0484081064e+02 2.5993322034e+02 0.0000000000e+00 0.0000e+00 1.0000e+00
       13  1    1    2    0    0 -1.5718957295e+02 -2.9949281927e+01 -2.5579863685e+02 3.0172580921e+02 0.0000000000e+00 0.0000e+00 -1.0000e+00
<mgrwt>
<rscale>  0 0.32135987E+03</rscale>
<asrwt>0</asrwt>
<pdfrwt beam="1">  1        2 0.77707371E-02 0.32135987E+03</pdfrwt>
<pdfrwt beam="2">  1       -2 0.78638344E-01 0.32135987E+03</pdfrwt>
<totfact> 0.16933142E+03</totfact>
</mgrwt>
<rwgt>
<wgt id='morphing_basis_vector_1'> +2.6844678e-04 </wgt>
<wgt id='morphing_basis_vector_2'> +1.7187975e-04 </wgt>
<wgt id='morphing_basis_vector_3'> +1.3890188e-04 </wgt>
<wgt id='morphing_basis_vector_4'> +3.0259957e-05 </wgt>
<wgt id='morphing_basis_vector_5'> +6.1042178e-06 </wgt>
</rwgt>
</event>
<event>
 4      1 +5.5534000e-05 3.28811900e+02 7.81860800e-03 9.89379600e-02
        2 -1    0    0  501    0 +0.0000000000e+00 +0.0000000000e+00 +1.2457486013e+02 1.2457486013e+02 0.0000000000e+00 0.0000e+00 -1.0000e+00
       -2 -1    0    0    0  501 -0.0000000000e+00 -0.0000000000e+00 -2.1697252203e+02 2.1697252203e+02 0.0000000000e+00 0.0000e+00 1.0000e+00
      -13  1    1    2    0    0 -4.7233877047e+01 -9.1445209941e+01 -1.7936754288e+02 2.0679937379e+02 0.0000000000e+00 0.0000e+00 1.0000e+00
       13  1    1    2    0    0 +4.7233877047e+01 +9.1445209941e+01 +8.6969880973e+01 1.3474800837e+02 0.0000000000e+00 0.0000e+00 -1.0000e+00
<mgrwt>
<rscale>  0 0.32881193E+03</rscale>
<asrwt>0</asrwt>
<pdfrwt beam="1">  1        2 0.19165363E-01 0.32881193E+03</pdfrwt>
<pdfrwt beam="2">  1       -2 0.33380388E-01 0.32881193E+03</pdfrwt>
<totfact> 0.29445506E+03</totfact>
</mgrwt>
<rwgt>
<wgt id='morphing_basis_vector_1'> +2.7175412e-04 </wgt>
<wgt id='morphing_basis_vector_2'> +1.4856151e-04 </wgt>
<wgt id='morphing_basis_vector_3'> +1.6197464e-04 </wgt>
<wgt id='morphing_basis_vector_4'> +2.7301292e-05 </wgt>
<wgt id='morphing_basis_vector_5'> +8.0475719e-06 </wgt>
</rwgt>
</event>
<event>
 4      1 +5.5534000e-05 3.16325100e+02 7.81860800e-03 9.94216100e-02
        2 -1    0    0  501    0 +0.0000000000e+00 +0.0000000000e+00 +7.9761810761e+02 7.9761810761e+02 0.0000000000e+00 0.0000e+00 -1.0000e+00
       -2 -1    0    0    0  501 -0.0000000000e+00 -0.0000000000e+00 -3.1362610481e+01 3.1362610481e+01 0.0000000000e+00 0.0000e+00 1.0000e+00
      -13  1    1    2    0    0 -1.1292259040e+02 -6.6536646345e+01 +1.5113265212e+02 2.0004928209e+02 0.0000000000e+00 0.0000e+00 1.0000e+00
       13  1    1    2    0    0 +1.1292259040e+02 +6.6536646345e+01 +6.1512284501e+02 6.2893143600e+02 0.0000000000e+00 0.0000e+00 -1.0000e+00
<mgrwt>
<rscale>  0 0.31632506E+03</rscale>
<asrwt>0</asrwt>
<pdfrwt beam="1">  1        2 0.12271046E+00 0.31632506E+03</pdfrwt>
<pdfrwt beam="2">  1       -2 0.48250176E-02 0.31632506E+03</pdfrwt>
<totfact> 0.77358859E+03</totfact>
</mgrwt>
<rwgt>
<wgt id='morphing_basis_vector_1'> +2.4977643e-04 </wgt>
<wgt id='morphing_basis_vector_2'> +1.3880867e-04 </wgt>
<wgt id='morphing_basis_vector_3'> +1.4669985e-04 </wgt>
<wgt id='morphing_basis_vector_4'> +2.4956987e-05 </wgt>
<wgt id='morphing_basis_vector_5'> +4.2114524e-06 </wgt>
</rwgt>
</event>
<event>
 4      1 +5.5534000e-05 3.14893200e+02 7.81860800e-03 9.94786200e-02
        2 -1    0    0  501    0 +0.0000000000e+00 +0.0000000000e+00 +6.0019778428e+02 6.0019778428e+02 0.0000000000e+00 0.0000e+00 1.0000e+00
       -2 -1    0    0    0  501 -0.0000000000e+00 -0.0000000000e+00 -4.1302096597e+01 4.1302096597e+01 0.0000000000e+00 0.0000e+00 -1.0000e+00
      -13  1    1    2    0    0 -9.7359806952e+01 -9.7238096162e+01 +1.2356225406e+02 1.8493731366e+02 0.0000000000e+00 0.0000e+00 -1.0000e+00
       13  1    1    2    0    0 +9.7359806952e+01 +9.7238096162e+01 +4.3533343362e+02 4.5656256722e+02 0.0000000000e+00 0.0000e+00 1.0000e+00
<mgrwt>
<rscale>  0 0.31489317E+03</rscale>
<asrwt>0</asrwt>
<pdfrwt beam="1">  1        2 0.92338115E-01 0.31489317E+03</pdfrwt>
<pdfrwt beam="2">  1       -2 0.63541691E-02 0.31489317E+03</pdfrwt>
<totfact> 0.71652818E+03</totfact>
</mgrwt>
<rwgt>
<wgt id='morphing_basis_vector_1'> +2.4761369e-04 </wgt>
<wgt id='morphing_basis_vector_2'> +1.3845734e-04 </wgt>
<wgt id='morphing_basis_vector_3'> +1.4470865e-04 </wgt>
<wgt id='morphing_basis_vector_4'> +2.4861432e-05 </wgt>
<wgt id='morphing_basis_vector_5'> +3.8700202e-06 </wgt>
</rwgt>
</event>
<event>
 4      1 +5.5534000e-05 3.32123600e+02 7.81860800e-03 9.88136000e-02
        2 -1    0    0  501    0 +0.0000000000e+00 +0.0000000000e+00 +5.6670743872e+02 5.6670743872e+02 0.0000000000e+00 0.0000e+00 -1.0000e+00
       -2 -1    0    0    0  501 -0.0000000000e+00 -0.0000000000e+00 -4.8660939035e+01 4.8660939035e+01 0.0000000000e+00 0.0000e+00 1.0000e+00
      -13  1    1    2    0    0 -1.3672349427e+02 +4.0144883276e+01 +1.0102575917e+02 1.7467435288e+02 0.0000000000e+00 0.0000e+00 1.0000e+00
       13  1    1    2    0    0 +1.3672349427e+02 -4.0144883276e+01 +4.1702074052e+02 4.4069402487e+02 0.0000000000e+00 0.0000e+00 -1.0000e+00
<mgrwt>
<rscale>  0 0.33212357E+03</rscale>
<asrwt>0</asrwt>
<pdfrwt beam="1">  1        2 0.87185755E-01 0.33212357E+03</pdfrwt>
<pdfrwt beam="2">  1       -2 0.74862987E-02 0.33212357E+03</pdfrwt>
<totfact> 0.59764021E+03</totfact>
</mgrwt>
<rwgt>
<wgt id='morphing_basis_vector_1'> +2.7880850e-04 </wgt>
<wgt id='morphing_basis_vector_2'> +1.5401782e-04 </wgt>
<wgt id='morphing_basis_vector_3'> +1.6509203e-04 </wgt>
<wgt id='morphing_basis_vector_4'> +2.8446291e-05 </wgt>
<wgt id='morphing_basis_vector_5'> +9.3563763e-06 </wgt>
</rwgt>
</event>
<event>
 4      1 +5.5534000e-05 3.34997500e+02 7.81860800e-03 9.87069500e-02
        2 -1    0    0  501    0 +0.0000000000e+00 +0.0000000000e+00 +5.0677701708e+01 5.0677701708e+01 0.0000000000e+00 0.0000e+00 -1.0000e+00
       -2 -1    0    0    0  501 -0.0000000000e+00 -0.0000000000e+00 -5.5361291001e+02 5.5361291001e+02 0.0000000000e+00 0.0000e+00 1.0000e+00
      -13  1    1    2    0    0 +5.8249453844e+01 +1.5647939399e+02 -2.2746667287e+02 2.8216996099e+02 0.0000000000e+00 0.0000e+00 1.0000e+00
       13  1    1    2    0    0 -5.8249453844e+01 -1.5647939399e+02 -2.7546853543e+02 3.2212065073e+02 0.0000000000e+00 0.0000e+00 -1.0000e+00
<mgrwt>
<rscale>  0 0.33499749E+03</rscale>
<asrwt>0</asrwt>
<pdfrwt beam="1">  1        2 0.77965696E-02 0.33499749E+03</pdfrwt>
<pdfrwt beam="2">  1       -2 0.85171216E-01 0.33499749E+03</pdfrwt>
<totfact> 0.14117395E+03</totfact>
</mgrwt>
<rwgt>
<wgt id='morphing_basis_vector_1'> +2.9464246e-04 </wgt>
<wgt id='morphing_basis_vector_2'> +1.8718049e-04 </wgt>
<wgt id='morphing_basis_vector_3'> +1.5539355e-04 </wgt>
<wgt id='morphing_basis_vector_4'> +3.3152533e-05 </wgt>
<wgt id='morphing_basis_vector_5'> +1.1133557e-05 </wgt>
</rwgt>
</event>
<event>
 4      1 +5.5534000e-05 3.17002500e+02 7.81860800e-03 9.93947500e-02
        2 -1    0    0  501    0 +0.0000000000e+00 +0.0000000000e+00 +1.1093639440e+03 1.1093639440e+03 0.0000000000e+00 0.0000e+00 -1.0000e+00
       -2 -1    0    0    0  501 -0.0000000000e+00 -0.0000000000e+00 -2.2645991797e+01 2.2645991797e+01 0.0000000000e+00 0.0000e+00 1.0000e+00
      -13  1    1    2    0    0 +7.6033885092e+01 +1.1833318637e+02 +2.8243894327e+02 3.1552440691e+02 0.0000000000e+00 0.0000e+00 1.0000e+00
       13  1    1    2    0    0 -7.6033885092e+01 -1.1833318637e+02 +8.0427900891e+02 8.1648552887e+02 0.0000000000e+00 0.0000e+00 -1.0000e+00
<mgrwt>
<rscale>  0 0.31700250E+03</rscale>
<asrwt>0</asrwt>
<pdfrwt beam="1">  1        2 0.17067133E+00 0.31700250E+03</pdfrwt>
<pdfrwt beam="2">  1       -2 0.34839996E-02 0.31700250E+03</pdfrwt>
<totfact> 0.80703190E+03</totfact>
</mgrwt>
<rwgt>
<wgt id='morphing_basis_vector_1'> +2.5138992e-04 </wgt>
<wgt id='morphing_basis_vector_2'> +1.4067037e-04 </wgt>
<wgt id='morphing_basis_vector_3'> +1.4683648e-04 </wgt>
<wgt id='morphing_basis_vector_4'> +2.5278045e-05 </wgt>
<wgt id='morphing_basis_vector_5'> +4.4071455e-06 </wgt>
</rwgt>
</event>
<event>
 4      1 +5.5534000e-05 3.28940100e+02 7.81860800e-03 9.89331200e-02
        2 -1    0    0  501    0 +0.0000000000e+00 +0.0000000000e+00 +1.0527037138e+02 1.0527037138e+02 0.0000000000e+00 0.0000e+00 -1.0000e+00
       -2 -1    0    0    0  501 -0.0000000000e+00 -0.0000000000e+00 -2.5696115920e+02 2.5696115920e+02 0.0000000000e+00 0.0000e+00 1.0000e+00
      -13  1    1    2    0    0 +1.3424082679e+02 -3.7901608650e+01 -1.7180395318e+02 2.2130009002e+02 0.0000000000e+00 0.0000e+00 1.0000e+00
       13  1    1    2    0    0 -1.3424082679e+02 +3.7901608650e+01 +2.0113165356e+01 1.4093144056e+02 0.0000000000e+00 0.0000e+00 -1.0000e+00
<mgrwt>
<rscale>  0 0.32894010E+03</rscale>
<asrwt>0</asrwt>
<pdfrwt beam="1">  1        2 0.16195442E-01 0.32894010E+03</pdfrwt>
<pdfrwt beam="2">  1       -2 0.39532486E-01 0.32894010E+03</pdfrwt>
<totfact> 0.26582324E+03</totfact>
</mgrwt>
<rwgt>
<wgt id='morphing_basis_vector_1'> +2.7267813e-04 </wgt>
<wgt id='morphing_basis_vector_2'> +1.5069084e-04 </wgt>
<wgt id='morphing_basis_vector_3'> +1.6122003e-04 </wgt>
<wgt id='morphing_basis_vector_4'> +2.7613560e-05 </wgt>
<wgt id='morphing_basis_vector_5'> +8.1321990e-06 </wgt>
</rwgt>
</event>
<event>
 4      1 +5.5534000e-05 3.10994600e+02 7.81860800e-03 9.96355000e-02
        2 -1    0    0  501    0 +0.0000000000e+00 +0.0000000000e+00 +9.8611498042e+01 9.8611498042e+01 0.0000000000e+00 0.0000e+00 -1.0000e+00
       -2 -1    0    0    0  501 -0.0000000000e+00 -0.0000000000e+00 -2.4519867000e+02 2.4519867000e+02 0.0000000000e+00 0.0000e+00 1.0000e+00
      -13  1    1    2    0    0 +8.5551425294e+01 +1.0788466986e+02 +6.5892619488e+00 1.3784617054e+02 0.0000000000e+00 0.0000e+00 1.0000e+00
       13  1    1    2    0    0 -8.5551425294e+01 -1.0788466986e+02 -1.5317643390e+02 2.0596399749e+02 0.0000000000e+00 0.0000e+00 -1.0000e+00
<mgrwt>
<rscale>  0 0.31099459E+03</rscale>
<asrwt>0</asrwt>
<pdfrwt beam="1">  1        2 0.15171000E-01 0.31099459E+03</pdfrwt>
<pdfrwt beam="2">  1       -2 0.37722872E-01 0.31099459E+03</pdfrwt>
<totfact> 0.31260363E+03</totfact>
</mgrwt>
<rwgt>
<wgt id='morphing_basis_vector_1'> +2.7408909e-04 </wgt>
<wgt id='morphing_basis_vector_2'> +2.3067918e-04 </wgt>
<wgt id='morphing_basis_vector_3'> +9.3532988e-05 </wgt>
<wgt id='morphing_basis_vector_4'> +4.0510099e-05 </wgt>
<wgt id='morphing_basis_vector_5'> +4.4633461e-06 </wgt>
</rwgt>
</event>
<event>
 4      1 +5.5534000e-05 3.06460600e+02 7.81860800e-03 9.98210300e-02
        2 -1    0    0  501    0 +0.0000000000e+00 +0.0000000000e+00 +5.4406119749e+02 5.4406119749e+02 0.0000000000e+00 0.0000e+00 -1.0000e+00
       -2 -1    0    0    0  501 -0.0000000000e+00 -0.0000000000e+00 -4.3156031247e+01 4.3156031247e+01 0.0000000000e+00 0.0000e+00 1.0000e+00
      -13  1    1    2    0    0 -8.3261777181e+01 -1.1192268828e+02 +1.2895882747e+02 1.8997260559e+02 0.0000000000e+00 0.0000e+00 1.0000e+00
       13  1    1    2    0    0 +8.3261777181e+01 +1.1192268828e+02 +3.7194633878e+02 3.9724462315e+02 0.0000000000e+00 0.0000e+00 -1.0000e+00
<mgrwt>
<rscale>  0 0.30646058E+03</rscale>
<asrwt>0</asrwt>
<pdfrwt beam="1">  1        2 0.83701718E-01 0.30646058E+03</pdfrwt>
<pdfrwt beam="2">  1       -2 0.66393898E-02 0.30646058E+03</pdfrwt>
<totfact> 0.74861707E+03</totfact>
</mgrwt>
<rwgt>
<wgt id='morphing_basis_vector_1'> +2.3389629e-04 </wgt>
<wgt id='morphing_basis_vector_2'> +1.3245165e-04 </wgt>
<wgt id='morphing_basis_vector_3'> +1.3540139e-04 </wgt>
<wgt id='morphing_basis_vector_4'> +2.3850238e-05 </wgt>
<wgt id='morphing_basis_vector_5'> +2.1298771e-06 </wgt>
</rwgt>
</event>
<event>
 4      1 +5.5534000e-05 3.35194000e+02 7.81860800e-03 9.86997000e-02
        2 -1    0    0  501    0 +0.0000000000e+00 +0.0000000000e+00 +2.7925888448e+02 2.7925888448e+02 0.0000000000e+00 0.0000e+00 1.0000e+00
       -2 -1    0    0    0  501 -0.0000000000e+00 -0.0000000000e+00 -1.0058321837e+02 1.0058321837e+02 0.0000000000e+00 0.0000e+00 -1.0000e+00
      -13  1    1    2    0    0 -1.2880111169e+02 -4.5475782460e-01 -3.2178193316e+01 1.3276057134e+02 0.0000000000e+00 0.0000e+00 -1.0000e+00
       13  1    1    2    0    0 +1.2880111169e+02 +4.5475782460e-01 +2.1085385943e+02 2.4708153151e+02 0.0000000000e+00 0.0000e+00 1.0000e+00
<mgrwt>
<rscale>  0 0.33519402E+03</rscale>
<asrwt>0</asrwt>
<pdfrwt beam="1">  1        2 0.42962905E-01 0.33519402E+03</pdfrwt>
<pdfrwt beam="2">  1       -2 0.15474341E-01 0.33519402E+03</pdfrwt>
<totfact> 0.42305453E+03</totfact>
</mgrwt>
<rwgt>
<wgt id='morphing_basis_vector_1'> +2.8426838e-04 </wgt>
<wgt id='morphing_basis_vector_2'> +1.5561178e-04 </wgt>
<wgt id='morphing_basis_vector_3'> +1.6968119e-04 </wgt>
<wgt id='morphing_basis_vector_4'> +2.9086980e-05 </wgt>
<wgt id='morphing_basis_vector_5'> +1.0597318e-05 </wgt>
</rwgt>
</event>
<event>
 4      1 +5.5534000e-05 3.36828200e+02 7.81860800e-03 9.86396100e-02
        2 -1    0    0  501    0 +0.0000000000e+00 +0.0000000000e+00 +4.7808322539e+02 4.7808322539e+02 0.0000000000e+00 0.0000e+00 1.0000e+00
       -2 -1    0    0    0  501 -0.0000000000e+00 -0.0000000000e+00 -5.9327134308e+01 5.9327134308e+01 0.0000000000e+00 0.0000e+00 -1.0000e+00
      -13  1    1    2    0    0 +5.9668516693e+01 +9.8459668116e+01 +1.3263090835e+01 1.1589023992e+02 0.0000000000e+00 0.0000e+00 -1.0000e+00
       13  1    1    2    0    0 -5.9668516693e+01 -9.8459668116e+01 +4.0549300024e+02 4.2152011978e+02 0.0000000000e+00 0.0000e+00 1.0000e+00
<mgrwt>
<rscale>  0 0.33682819E+03</rscale>
<asrwt>0</asrwt>
<pdfrwt beam="1">  1        2 0.73551263E-01 0.33682819E+03</pdfrwt>
<pdfrwt beam="2">  1       -2 0.91272517E-02 0.33682819E+03</pdfrwt>
<totfact> 0.53416095E+03</totfact>
</mgrwt>
<rwgt>
<wgt id='morphing_basis_vector_1'> +2.8726089e-04 </wgt>
<wgt id='morphing_basis_vector_2'> +1.5660018e-04 </wgt>
<wgt id='morphing_basis_vector_3'> +1.7211105e-04 </wgt>
<wgt id='morphing_basis_vector_4'> +2.9471981e-05 </wgt>
<wgt id='morphing_basis_vector_5'> +1.1297561e-05 </wgt>
</rwgt>
</event>
<event>
 4      1 +5.5534000e-05 3.17912700e+02 7.81860800e-03 9.93587800e-02
        2 -1    0    0  501    0 +0.0000000000e+00 +0.0000000000e+00 +8.4991532259e+02 8.4991532259e+02 0.0000000000e+00 0.0000e+00 -1.0000e+00
       -2 -1    0    0    0  501 -0.0000000000e+00 -0.0000000000e+00 -2.9728995265e+01 2.9728995265e+01 0.0000000000e+00 0.0000e+00 1.0000e+00
      -13  1    1    2    0    0 -1.7316639679e+01 -1.5796197393e+02 +3.9927823528e+02 4.2973824636e+02 0.0000000000e+00 0.0000e+00 1.0000e+00
       13  1    1    2    0    0 +1.7316639679e+01 +1.5796197393e+02 +4.2090809205e+02 4.4990607150e+02 0.0000000000e+00 0.0000e+00 -1.0000e+00
<mgrwt>
<rscale>  0 0.31791275E+03</rscale>
<asrwt>0</asrwt>
<pdfrwt beam="1">  1        2 0.13075618E+00 0.31791275E+03</pdfrwt>
<pdfrwt beam="2">  1       -2 0.45736922E-02 0.31791275E+03</pdfrwt>
<totfact> 0.77378868E+03</totfact>
</mgrwt>
<rwgt>
<wgt id='morphing_basis_vector_1'> +2.5859303e-04 </wgt>
<wgt id='morphing_basis_vector_2'> +1.5779946e-04 </wgt>
<wgt id='morphing_basis_vector_3'> +1.4004819e-04 </wgt>
<wgt id='morphing_basis_vector_4'> +2.8026816e-05 </wgt>
<wgt id='morphing_basis_vector_5'> +4.9238509e-06 </wgt>
</rwgt>
</event>
<event>
 4      1 +5.5534000e-05 3.59523600e+02 7.81860800e-03 9.78415000e-02
        2 -1    0    0  501    0 +0.0000000000e+00 +0.0000000000e+00 +2.0999306930e+02 2.0999306930e+02 0.0000000000e+00 0.0000e+00 1.0000e+00
       -2 -1    0    0    0  501 -0.0000000000e+00 -0.0000000000e+00 -1.5388270661e+02 1.5388270661e+02 0.0000000000e+00 0.0000e+00 -1.0000e+00
      -13  1    1    2    0    0 -7.7159196504e+01 +1.6235908627e+02 +2.8597741036e+01 1.8202155173e+02 0.0000000000e+00 0.0000e+00 -1.0000e+00
       13  1    1    2    0    0 +7.7159196504e+01 -1.6235908627e+02 +2.7512621652e+01 1.8185422418e+02 0.0000000000e+00 0.0000e+00 1.0000e+00
<mgrwt>
<rscale>  0 0.35952358E+03</rscale>
<asrwt>0</asrwt>
<pdfrwt beam="1">  1        2 0.32306626E-01 0.35952358E+03</pdfrwt>
<pdfrwt beam="2">  1       -2 0.23674263E-01 0.35952358E+03</pdfrwt>
<totfact> 0.29128461E+03</totfact>
</mgrwt>
<rwgt>
<wgt id='morphing_basis_vector_1'> +3.4546432e-04 </wgt>
<wgt id='morphing_basis_vector_2'> +2.1150017e-04 </wgt>
<wgt id='morphing_basis_vector_3'> +1.9346649e-04 </wgt>
<wgt id='morphing_basis_vector_4'> +4.0466405e-05 </wgt>
<wgt id='morphing_basis_vector_5'> +2.4770911e-05 </wgt>
</rwgt>
</event>
<event>
 4      1 +5.5534000e-05 3.10290800e+02 7.81860800e-03 9.96640800e-02
        2 -1    0    0  501    0 +0.0000000000e+00 +0.0000000000e+00 +4.9865572410e+01 4.9865572410e+01 0.0000000000e+00 0.0000e+00 -1.0000e+00
       -2 -1    0    0    0  501 -0.0000000000e+00 -0.0000000000e+00 -4.8269981760e+02 4.8269981760e+02 0.0000000000e+00 0.0000e+00 1.0000e+00
      -13  1    1    2    0    0 -8.5988670641e+01 +1.1520986327e+02 -3.1653652944e+02 3.4765318716e+02 0.0000000000e+00 0.0000e+00 1.0000e+00
       13  1    1    2    0    0 +8.5988670641e+01 -1.1520986327e+02 -1.1629771575e+02 1.8491220284e+02 0.0000000000e+00 0.0000e+00 -1.0000e+00
<mgrwt>
<rscale>  0 0.31029085E+03</rscale>
<asrwt>0</asrwt>
<pdfrwt beam="1">  1        2 0.76716262E-02 0.31029085E+03</pdfrwt>
<pdfrwt beam="2">  1       -2 0.74261513E-01 0.31029085E+03</pdfrwt>
<totfact> 0.19488129E+03</totfact>
</mgrwt>
<rwgt>
<wgt id='morphing_basis_vector_1'> +2.4045261e-04 </wgt>
<wgt id='morphing_basis_vector_2'> +1.3634585e-04 </wgt>
<wgt id='morphing_basis_vector_3'> +1.3894245e-04 </wgt>
<wgt id='morphing_basis_vector_4'> +2.4471090e-05 </wgt>
<wgt id='morphing_basis_vector_5'> +2.8681629e-06 </wgt>
</rwgt>
</event>
<event>
 4      1 +5.5534000e-05 3.44272000e+02 7.81860800e-03 9.83705300e-02
        2 -1    0    0  501    0 +0.0000000000e+00 +0.0000000000e+00 +5.7007175093e+02 5.7007175093e+02 0.0000000000e+00 0.0000e+00 1.0000e+00
       -2 -1    0    0    0  501 -0.0000000000e+00 -0.0000000000e+00 -5.1977327108e+01 5.1977327108e+01 0.0000000000e+00 0.0000e+00 -1.0000e+00
      -13  1    1    2    0    0 +1.2158350755e+01 +9.2406159525e+01 -2.4418872371e+00 9.3234578481e+01 0.0000000000e+00 0.0000e+00 -1.0000e+00
       13  1    1    2    0    0 -1.2158350755e+01 -9.2406159525e+01 +5.2053631106e+02 5.2881449956e+02 0.0000000000e+00 0.0000e+00 1.0000e+00
<mgrwt>
<rscale>  0 0.34427202E+03</rscale>
<asrwt>0</asrwt>
<pdfrwt beam="1">  1        2 0.87703342E-01 0.34427202E+03</pdfrwt>
<pdfrwt beam="2">  1       -2 0.79965122E-02 0.34427202E+03</pdfrwt>
<totfact> 0.53744597E+03</totfact>
</mgrwt>
<rwgt>
<wgt id='morphing_basis_vector_1'> +3.0214709e-04 </wgt>
<wgt id='morphing_basis_vector_2'> +1.6379318e-04 </wgt>
<wgt id='morphing_basis_vector_3'> +1.8248852e-04 </wgt>
<wgt id='morphing_basis_vector_4'> +3.1764874e-05 </wgt>
<wgt id='morphing_basis_vector_5'> +1.4879146e-05 </wgt>
</rwgt>
</event>
<event>
 4      1 +5.5534000e-05 3.08994000e+02 7.81860800e-03 9.97169500e-02
        2 -1    0    0  501    0 +0.0000000000e+00 +0.0000000000e+00 +2.7925672064e+02 2.7925672064e+02 0.0000000000e+00 0.0000e+00 -1.0000e+00
       -2 -1    0    0    0  501 -0.0000000000e+00 -0.0000000000e+00 -8.5474454641e+01 8.5474454641e+01 0.0000000000e+00 0.0000e+00 1.0000e+00
      -13  1    1    2    0    0 +1.1094476568e+02 +2.9647625478e+00 -2.9975511667e+01 1.1496113321e+02 0.0000000000e+00 0.0000e+00 1.0000e+00
       13  1    1    2    0    0 -1.1094476568e+02 -2.9647625478e+00 +2.2375777767e+02 2.4977004207e+02 0.0000000000e+00 0.0000e+00 -1.0000e+00
<mgrwt>
<rscale>  0 0.30899395E+03</rscale>
<asrwt>0</asrwt>
<pdfrwt beam="1">  1        2 0.42962572E-01 0.30899395E+03</pdfrwt>
<pdfrwt beam="2">  1       -2 0.13149916E-01 0.30899395E+03</pdfrwt>
<totfact> 0.54587779E+03</totfact>
</mgrwt>
<rwgt>
<wgt id='morphing_basis_vector_1'> +2.3703807e-04 </wgt>
<wgt id='morphing_basis_vector_2'> +1.3162557e-04 </wgt>
<wgt id='morphing_basis_vector_3'> +1.3940963e-04 </wgt>
<wgt id='morphing_basis_vector_4'> +2.3665917e-05 </wgt>
<wgt id='morphing_basis_vector_5'> +2.5541330e-06 </wgt>
</rwgt>
</event>
<event>
 4      1 +5.5534000e-05 3.59899300e+02 7.81860800e-03 9.78288200e-02
        2 -1    0    0  501    0 +0.0000000000e+00 +0.0000000000e+00 +3.3478872667e+02 3.3478872667e+02 0.0000000000e+00 0.0000e+00 -1.0000e+00
       -2 -1    0    0    0  501 -0.0000000000e+00 -0.0000000000e+00 -9.6723337163e+01 9.6723337163e+01 0.0000000000e+00 0.0000e+00 1.0000e+00
      -13  1    1    2    0    0 -1.0915104686e+02 -9.6936792244e+01 -7.1236370139e+00 1.4615552992e+02 0.0000000000e+00 0.0000e+00 1.0000e+00
       13  1    1    2    0    0 +1.0915104686e+02 +9.6936792244e+01 +2.4518902653e+02 2.8535653392e+02 0.0000000000e+00 0.0000e+00 -1.0000e+00
<mgrwt>
<rscale>  0 0.35989934E+03</rscale>
<asrwt>0</asrwt>
<pdfrwt beam="1">  1        2 0.51505958E-01 0.35989934E+03</pdfrwt>
<pdfrwt beam="2">  1       -2 0.14880514E-01 0.35989934E+03</pdfrwt>
<totfact> 0.36943634E+03</totfact>
</mgrwt>
<rwgt>
<wgt id='morphing_basis_vector_1'> +3.3679441e-04 </wgt>
<wgt id='morphing_basis_vector_2'> +1.8334770e-04 </wgt>
<wgt id='morphing_basis_vector_3'> +2.0524353e-04 </wgt>
<wgt id='morphing_basis_vector_4'> +3.8113511e-05 </wgt>
<wgt id='morphing_basis_vector_5'> +2.4418624e-05 </wgt>
</rwgt>
</event>
<event>
 4      1 +5.5534000e-05 3.32003100e+02 7.81860800e-03 9.88181000e-02
        2 -1    0    0  501    0 +0.0000000000e+00 +0.0000000000e+00 +1.5745381662e+03 1.5745381662e+03 0.0000000000e+00 0.0000e+00 1.0000e+00
       -2 -1    0    0    0  501 -0.0000000000e+00 -0.0000000000e+00 -1.7501336482e+01 1.7501336482e+01 0.0000000000e+00 0.0000e+00 -1.0000e+00
      -13  1    1    2    0    0 +1.4402712157e+01 +1.6271510753e+02 +9.2019183975e+02 9.3457833608e+02 0.0000000000e+00 0.0000e+00 -1.0000e+00
       13  1    1    2    0    0 -1.4402712157e+01 -1.6271510753e+02 +6.3684498999e+02 6.5746116662e+02 0.0000000000e+00 0.0000e+00 1.0000e+00
<mgrwt>
<rscale>  0 0.33200315E+03</rscale>
<asrwt>0</asrwt>
<pdfrwt beam="1">  1        2 0.24223653E+00 0.33200315E+03</pdfrwt>
<pdfrwt beam="2">  1       -2 0.26925146E-02 0.33200315E+03</pdfrwt>
<totfact> 0.65649458E+03</totfact>
</mgrwt>
<rwgt>
<wgt id='morphing_basis_vector_1'> +2.9314825e-04 </wgt>
<wgt id='morphing_basis_vector_2'> +1.9681764e-04 </wgt>
<wgt id='morphing_basis_vector_3'> +1.4571083e-04 </wgt>
<wgt id='morphing_basis_vector_4'> +3.4200073e-05 </wgt>
<wgt id='morphing_basis_vector_5'> +1.0130363e-05 </wgt>
</rwgt>
</event>
<event>
 4      1 +5.5534000e-05 3.42972100e+02 7.81860800e-03 9.84169800e-02
        2 -1    0    0  501    0 +0.0000000000e+00 +0.0000000000e+00 +6.1629548063e+01 6.1629548063e+01 0.0000000000e+00 0.0000e+00 1.0000e+00
       -2 -1    0    0    0  501 -0.0000000000e+00 -0.0000000000e+00 -4.7716494734e+02 4.7716494734e+02 0.0000000000e+00 0.0000e+00 -1.0000e+00
      -13  1    1    2    0    0 -6.8397510240e+01 +9.4779054311e+01 -4.0489731992e+02 4.2142986157e+02 0.0000000000e+00 0.0000e+00 -1.0000e+00
       13  1    1    2    0    0 +6.8397510240e+01 -9.4779054311e+01 -1.0638079359e+01 1.1736463384e+02 0.0000000000e+00 0.0000e+00 1.0000e+00
<mgrwt>
<rscale>  0 0.34297207E+03</rscale>
<asrwt>0</asrwt>
<pdfrwt beam="1">  1        2 0.94814686E-02 0.34297207E+03</pdfrwt>
<pdfrwt beam="2">  1       -2 0.73409995E-01 0.34297207E+03</pdfrwt>
<totfact> 0.15270426E+03</totfact>
</mgrwt>
<rwgt>
<wgt id='morphing_basis_vector_1'> +2.9962933e-04 </wgt>
<wgt id='morphing_basis_vector_2'> +1.6290261e-04 </wgt>
<wgt id='morphing_basis_vector_3'> +1.8046177e-04 </wgt>
<wgt id='morphing_basis_vector_4'> +3.1383497e-05 </wgt>
<wgt id='morphing_basis_vector_5'> +1.4220236e-05 </wgt>
</rwgt>
</event>
<event>
 4      1 +5.5534000e-05 3.10345100e+02 7.81860800e-03 9.96618700e-02
        2 -1    0    0  501    0 +0.0000000000e+00 +0.0000000000e+00 +6.2243352112e+02 6.2243352112e+02 0.0000000000e+00 0.0000e+00 1.0000e+00
       -2 -1    0    0    0  501 -0.0000000000e+00 -0.0000000000e+00 -3.8684482798e+01 3.8684482798e+01 0.0000000000e+00 0.0000e+00 -1.0000e+00
      -13  1    1    2    0    0 -1.1805610969e+02 -8.8711752065e+01 +1.9034545917e+02 2.4091163072e+02 0.0000000000e+00 0.0000e+00 -1.0000e+00
       13  1    1    2    0    0 +1.1805610969e+02 +8.8711752065e+01 +3.9340357915e+02 4.2020637320e+02 0.0000000000e+00 0.0000e+00 1.0000e+00
<mgrwt>
<rscale>  0 0.31034509E+03</rscale>
<asrwt>0</asrwt>
<pdfrwt beam="1">  1        2 0.95758996E-01 0.31034509E+03</pdfrwt>
<pdfrwt beam="2">  1       -2 0.59514594E-02 0.31034509E+03</pdfrwt>
<totfact> 0.75816653E+03</totfact>
</mgrwt>
<rwgt>
<wgt id='morphing_basis_vector_1'> +2.4108319e-04 </wgt>
<wgt id='morphing_basis_vector_2'> +1.3795016e-04 </wgt>
<wgt id='morphing_basis_vector_3'> +1.3822938e-04 </wgt>
<wgt id='morphing_basis_vector_4'> +2.4745324e-05 </wgt>
<wgt id='morphing_basis_vector_5'> +2.9031705e-06 </wgt>
</rwgt>
</event>
<event>
 4      1 +5.5534000e-05 3.56031400e+02 7.81860800e-03 9.79601000e-02
        2 -1    0    0  501    0 +0.0000000000e+00 +0.0000000000e+00 +7.2133937222e+02 7.2133937222e+02 0.0000000000e+00 0.0000e+00 -1.0000e+00
       -2 -1    0    0    0  501 -0.0000000000e+00 -0.0000000000e+00 -4.3931595161e+01 4.3931595161e+01 0.0000000000e+00 0.0000e+00 1.0000e+00
      -13  1    1    2    0    0 -7.9572381586e-01 +1.7728719522e+02 +3.7324294991e+02 4.1320900573e+02 0.0000000000e+00 0.0000e+00 1.0000e+00
       13  1    1    2    0    0 +7.9572381586e-01 -1.7728719522e+02 +3.0416482716e+02 3.5206196165e+02 0.0000000000e+00 0.0000e+00 -1.0000e+00
<mgrwt>
<rscale>  0 0.35603140E+03</rscale>
<asrwt>0</asrwt>
<pdfrwt beam="1">  1        2 0.11097528E+00 0.35603140E+03</pdfrwt>
<pdfrwt beam="2">  1       -2 0.67587075E-02 0.35603140E+03</pdfrwt>
<totfact> 0.52827675E+03</totfact>
</mgrwt>
<rwgt>
<wgt id='morphing_basis_vector_1'> +3.4103458e-04 </wgt>
<wgt id='morphing_basis_vector_2'> +2.1764114e-04 </wgt>
<wgt id='morphing_basis_vector_3'> +1.8366674e-04 </wgt>
<wgt id='morphing_basis_vector_4'> +4.0087529e-05 </wgt>
<wgt id='morphing_basis_vector_5'> +2.2635697e-05 </wgt>
</rwgt>
</event>
<event>
 4      1 +5.5534000e-05 3.10852300e+02 7.81860800e-03 9.96412700e-02
        2 -1    0    0  501    0 +0.0000000000e+00 +0.0000000000e+00 +1.4128812634e+02 1.4128812634e+02 0.0000000000e+00 0.0000e+00 1.0000e+00
       -2 -1    0    0    0  501 -0.0000000000e+00 -0.0000000000e+00 -1.7097894950e+02 1.7097894950e+02 0.0000000000e+00 0.0000e+00 -1.0000e+00
      -13  1    1    2    0    0 +9.5750186038e+01 +1.2126333604e+02 -3.1786344329e+01 1.5774430728e+02 0.0000000000e+00 0.0000e+00 -1.0000e+00
       13  1    1    2    0    0 -9.5750186038e+01 -1.2126333604e+02 +2.0955211620e+00 1.5452276856e+02 0.0000000000e+00 0.0000e+00 1.0000e+00
<mgrwt>
<rscale>  0 0.31085235E+03</rscale>
<asrwt>0</asrwt>
<pdfrwt beam="1">  1        2 0.21736635E-01 0.31085235E+03</pdfrwt>
<pdfrwt beam="2">  1       -2 0.26304454E-01 0.31085235E+03</pdfrwt>
<totfact> 0.38268484E+03</totfact>
</mgrwt>
<rwgt>
<wgt id='morphing_basis_vector_1'> +2.4447282e-04 </wgt>
<wgt id='morphing_basis_vector_2'> +1.4571876e-04 </wgt>
<wgt id='morphing_basis_vector_3'> +1.3514324e-04 </wgt>
<wgt id='morphing_basis_vector_4'> +2.6064946e-05 </wgt>
<wgt id='morphing_basis_vector_5'> +3.1219829e-06 </wgt>
</rwgt>
</event>
<event>
 4      1 +5.5534000e-05 3.03594400e+02 7.81860800e-03 9.99400800e-02
        2 -1    0    0  501    0 +0.0000000000e+00 +0.0000000000e+00 +1.3306224639e+03 1.3306224639e+03 0.0000000000e+00 0.0000e+00 -1.0000e+00
       -2 -1    0    0    0  501 -0.0000000000e+00 -0.0000000000e+00 -1.7317002275e+01 1.7317002275e+01 0.0000000000e+00 0.0000e+00 1.0000e+00
      -13  1    1    2    0    0 +1.0682433809e+02 +1.0140895685e+02 +8.1961567396e+02 8.3274550058e+02 0.0000000000e+00 0.0000e+00 1.0000e+00
       13  1    1    2    0    0 -1.0682433809e+02 -1.0140895685e+02 +4.9368978764e+02 5.1519396557e+02 0.0000000000e+00 0.0000e+00 -1.0000e+00
<mgrwt>
<rscale>  0 0.30359442E+03</rscale>
<asrwt>0</asrwt>
<pdfrwt beam="1">  1        2 0.20471107E+00 0.30359442E+03</pdfrwt>
<pdfrwt beam="2">  1       -2 0.26641552E-02 0.30359442E+03</pdfrwt>
<totfact> 0.90050033E+03</totfact>
</mgrwt>
<rwgt>
<wgt id='morphing_basis_vector_1'> +2.4345742e-04 </wgt>
<wgt id='morphing_basis_vector_2'> +1.7073806e-04 </wgt>
<wgt id='morphing_basis_vector_3'> +1.1196288e-04 </wgt>
<wgt id='morphing_basis_vector_4'> +3.0923605e-05 </wgt>
<wgt id='morphing_basis_vector_5'> +2.2144483e-06 </wgt>
</rwgt>
</event>
<event>
 4      1 +5.5534000e-05 3.39615600e+02 7.81860800e-03 9.85379800e-02
        2 -1    0    0  501    0 +0.0000000000e+00 +0.0000000000e+00 +2.0355230526e+02 2.0355230526e+02 0.0000000000e+00 0.0000e+00 1.0000e+00
       -2 -1    0    0    0  501 -0.0000000000e+00 -0.0000000000e+00 -1.4165742285e+02 1.4165742285e+02 0.0000000000e+00 0.0000e+00 -1.0000e+00
      -13  1    1    2    0    0 +1.2656292372e+02 -7.5677256285e+01 +1.1653336888e+02 1.8795011796e+02 0.0000000000e+00 0.0000e+00 1.0000e+00
       13  1    1    2    0    0 -1.2656292372e+02 +7.5677256285e+01 -5.4638486474e+01 1.5725961015e+02 0.0000000000e+00 0.0000e+00 -1.0000e+00
<mgrwt>
<rscale>  0 0.33961564E+03</rscale>
<asrwt>0</asrwt>
<pdfrwt beam="1">  1        2 0.31315739E-01 0.33961564E+03</pdfrwt>
<pdfrwt beam="2">  1       -2 0.21793450E-01 0.33961564E+03</pdfrwt>
<totfact> 0.34570454E+03</totfact>
</mgrwt>
<rwgt>
<wgt id='morphing_basis_vector_1'> +3.3897937e-04 </wgt>
<wgt id='morphing_basis_vector_2'> +2.9621992e-04 </wgt>
<wgt id='morphing_basis_vector_3'> +1.1674039e-04 </wgt>
<wgt id='morphing_basis_vector_4'> +4.6983749e-05 </wgt>
<wgt id='morphing_basis_vector_5'> +1.5316540e-05 </wgt>
</rwgt>
</event>
<event>
 4      1 +5.5534000e-05 3.18544200e+02 7.81860800e-03 9.93339000e-02
        2 -1    0    0  501    0 +0.0000000000e+00 +0.0000000000e+00 +3.0036664276e+02 3.0036664276e+02 0.0000000000e+00 0.0000e+00 -1.0000e+00
       -2 -1    0    0    0  501 -0.0000000000e+00 -0.0000000000e+00 -8.4455460985e+01 8.4455460985e+01 0.0000000000e+00 0.0000e+00 1.0000e+00
      -13  1    1    2    0    0 +1.0631841512e+02 +1.0622992775e+01 -3.4734987356e+01 1.1235200361e+02 0.0000000000e+00 0.0000e+00 1.0000e+00
       13  1    1    2    0    0 -1.0631841512e+02 -1.0622992775e+01 +2.5064616913e+02 2.7247010014e+02 0.0000000000e+00 0.0000e+00 -1.0000e+00
<mgrwt>
<rscale>  0 0.31854421E+03</rscale>
<asrwt>0</asrwt>
<pdfrwt beam="1">  1        2 0.46210252E-01 0.31854421E+03</pdfrwt>
<pdfrwt beam="2">  1       -2 0.12993148E-01 0.31854421E+03</pdfrwt>
<totfact> 0.51395708E+03</totfact>
</mgrwt>
<rwgt>
<wgt id='morphing_basis_vector_1'> +2.5318969e-04 </wgt>
<wgt id='morphing_basis_vector_2'> +1.3941970e-04 </wgt>
<wgt id='morphing_basis_vector_3'> +1.4979798e-04 </wgt>
<wgt id='morphing_basis_vector_4'> +2.5141200e-05 </wgt>
<wgt id='morphing_basis_vector_5'> +4.7748518e-06 </wgt>
</rwgt>
</event>
<event>
 4      1 +5.5534000e-05 3.56159300e+02 7.81860800e-03 9.79557300e-02
        2 -1    0    0  501    0 +0.0000000000e+00 +0.0000000000e+00 +2.3288223123e+02 2.3288223123e+02 0.0000000000e+00 0.0000e+00 1.0000e+00
       -2 -1    0    0    0  501 -0.0000000000e+00 -0.0000000000e+00 -1.3617335355e+02 1.3617335355e+02 0.0000000000e+00 0.0000e+00 -1.0000e+00
      -13  1    1    2    0    0 -1.4490143546e+02 -8.4034587928e+00 -5.8557623022e+01 1.5651210602e+02 0.0000000000e+00 0.0000e+00 -1.0000e+00
       13  1    1    2    0    0 +1.4490143546e+02 +8.4034587928e+00 +1.5526650071e+02 2.1254347875e+02 0.0000000000e+00 0.0000e+00 1.0000e+00
<mgrwt>
<rscale>  0 0.35615926E+03</rscale>
<asrwt>0</asrwt>
<pdfrwt beam="1">  1        2 0.35828036E-01 0.35615926E+03</pdfrwt>
<pdfrwt beam="2">  1       -2 0.20949747E-01 0.35615926E+03</pdfrwt>
<totfact> 0.31755239E+03</totfact>
</mgrwt>
<rwgt>
<wgt id='morphing_basis_vector_1'> +3.2836560e-04 </wgt>
<wgt id='morphing_basis_vector_2'> +1.7897996e-04 </wgt>
<wgt id='morphing_basis_vector_3'> +1.9930835e-04 </wgt>
<wgt id='morphing_basis_vector_4'> +3.6491143e-05 </wgt>
<wgt id='morphing_basis_vector_5'> +2.1892951e-05 </wgt>
</rwgt>
</event>
<event>
 4      1 +5.5534000e-05 3.42167400e+02 7.81860800e-03 9.84458500e-02
        2 -1    0    0  501    0 +0.0000000000e+00 +0.0000000000e+00 +1.9251867637e+02 1.9251867637e+02 0.0000000000e+00 0.0000e+00 -1.0000e+00
       -2 -1    0    0    0  501 -0.0000000000e+00 -0.0000000000e+00 -1.5203531587e+02 1.5203531587e+02 0.0000000000e+00 0.0000e+00 1.0000e+00
      -13  1    1    2    0    0 -4.7904646158e+01 -1.6113274175e+02 +5.2260031117e+01 1.7603899125e+02 0.0000000000e+00 0.0000e+00 1.0000e+00
       13  1    1    2    0    0 +4.7904646158e+01 +1.6113274175e+02 -1.1776670617e+01 1.6851500099e+02 0.0000000000e+00 0.0000e+00 -1.0000e+00
<mgrwt>
<rscale>  0 0.34216743E+03</rscale>
<asrwt>0</asrwt>
<pdfrwt beam="1">  1        2 0.29618258E-01 0.34216743E+03</pdfrwt>
<pdfrwt beam="2">  1       -2 0.23390048E-01 0.34216743E+03</pdfrwt>
<totfact> 0.32752752E+03</totfact>
</mgrwt>
<rwgt>
<wgt id='morphing_basis_vector_1'> +3.1498637e-04 </wgt>
<wgt id='morphing_basis_vector_2'> +2.1254073e-04 </wgt>
<wgt id='morphing_basis_vector_3'> +1.5780174e-04 </wgt>
<wgt id='morphing_basis_vector_4'> +3.7053890e-05 </wgt>
<wgt id='morphing_basis_vector_5'> +1.4839412e-05 </wgt>
</rwgt>
</event>
<event>
 4      1 +5.5534000e-05 3.45495400e+02 7.81860800e-03 9.83270100e-02
        2 -1    0    0  501    0 +0.0000000000e+00 +0.0000000000e+00 +9.2287769125e+01 9.2287769125e+01 0.0000000000e+00 0.0000e+00 -1.0000e+00
       -2 -1    0    0    0  501 -0.0000000000e+00 -0.0000000000e+00 -3.2335555253e+02 3.2335555253e+02 0.0000000000e+00 0.0000e+00 1.0000e+00
      -13  1    1    2    0    0 +7.7079090722e+01 +4.9330975185e-01 -3.0152001915e+02 3.1121656693e+02 0.0000000000e+00 0.0000e+00 1.0000e+00
       13  1    1    2    0    0 -7.7079090722e+01 -4.9330975185e-01 +7.0452235748e+01 1.0442675473e+02 0.0000000000e+00 0.0000e+00 -1.0000e+00
<mgrwt>
<rscale>  0 0.34549537E+03</rscale>
<asrwt>0</asrwt>
<pdfrwt beam="1">  1        2 0.14198118E-01 0.34549537E+03</pdfrwt>
<pdfrwt beam="2">  1       -2 0.49747008E-01 0.34549537E+03</pdfrwt>
<totfact> 0.20297842E+03</totfact>
</mgrwt>
<rwgt>
<wgt id='morphing_basis_vector_1'> +3.0464405e-04 </wgt>
<wgt id='morphing_basis_vector_2'> +1.6496219e-04 </wgt>
<wgt id='morphing_basis_vector_3'> +1.8427812e-04 </wgt>
<wgt id='morphing_basis_vector_4'> +3.2171723e-05 </wgt>
<wgt id='morphing_basis_vector_5'> +1.5522109e-05 </wgt>
</rwgt>
</event>
<event>
 4      1 +5.5534000e-05 3.53332500e+02 7.81860800e-03 9.80527700e-02
        2 -1    0    0  501    0 +0.0000000000e+00 +0.0000000000e+00 +3.8366247562e+01 3.8366247562e+01 0.0000000000e+00 0.0000e+00 1.0000e+00
       -2 -1    0    0    0  501 -0.0000000000e+00 -0.0000000000e+00 -8.1350037327e+02 8.1350037327e+02 0.0000000000e+00 0.0000e+00 -1.0000e+00
      -13  1    1    2    0    0 +9.7529934691e+01 -1.4486731541e+02 -4.5191409536e+02 4.8448423795e+02 0.0000000000e+00 0.0000e+00 -1.0000e+00
       13  1    1    2    0    0 -9.7529934691e+01 +1.4486731541e+02 -3.2322003035e+02 3.6738238288e+02 0.0000000000e+00 0.0000e+00 1.0000e+00
<mgrwt>
<rscale>  0 0.35333246E+03</rscale>
<asrwt>0</asrwt>
<pdfrwt beam="1">  1        2 0.59024993E-02 0.35333246E+03</pdfrwt>
<pdfrwt beam="2">  1       -2 0.12515391E+00 0.35333246E+03</pdfrwt>
<totfact> 0.80160455E+02</totfact>
</mgrwt>
<rwgt>
<wgt id='morphing_basis_vector_1'> +3.2684692e-04 </wgt>
<wgt id='morphing_basis_vector_2'> +1.8988439e-04 </wgt>
<wgt id='morphing_basis_vector_3'> +1.8924091e-04 </wgt>
<wgt id='morphing_basis_vector_4'> +3.6726307e-05 </wgt>
<wgt id='morphing_basis_vector_5'> +2.0390483e-05 </wgt>
</rwgt>
</event>
<event>
 4      1 +5.5534000e-05 3.57466900e+02 7.81860800e-03 9.79111700e-02
        2 -1    0    0  501    0 +0.0000000000e+00 +0.0000000000e+00 +6.2650367163e+02 6.2650367163e+02 0.0000000000e+00 0.0000e+00 -1.0000e+00
       -2 -1    0    0    0  501 -0.0000000000e+00 -0.0000000000e+00 -5.0990349381e+01 5.0990349381e+01 0.0000000000e+00 0.0000e+00 1.0000e+00
      -13  1    1    2    0    0 +4.7657957967e+01 -8.8822651830e+01 +8.0212674360e+00 1.0111916320e+02 0.0000000000e+00 0.0000e+00 1.0000e+00
       13  1    1    2    0    0 -4.7657957967e+01 +8.8822651830e+01 +5.6749205482e+02 5.7637485781e+02 0.0000000000e+00 0.0000e+00 -1.0000e+00
<mgrwt>
<rscale>  0 0.35746687E+03</rscale>
<asrwt>0</asrwt>
<pdfrwt beam="1">  1        2 0.96385175E-01 0.35746687E+03</pdfrwt>
<pdfrwt beam="2">  1       -2 0.78446696E-02 0.35746687E+03</pdfrwt>
<totfact> 0.49716308E+03</totfact>
</mgrwt>
<rwgt>
<wgt id='morphing_basis_vector_1'> +3.3062710e-04 </wgt>
<wgt id='morphing_basis_vector_2'> +1.7850486e-04 </wgt>
<wgt id='morphing_basis_vector_3'> +2.0214832e-04 </wgt>
<wgt id='morphing_basis_vector_4'> +3.6864378e-05 </wgt>
<wgt id='morphing_basis_vector_5'> +2.2714848e-05 </wgt>
</rwgt>
</event>
<event>
 4      1 +5.5534000e-05 3.25406900e+02 7.81860800e-03 9.90675000e-02
        2 -1    0    0  501    0 +0.0000000000e+00 +0.0000000000e+00 +6.3060188015e+02 6.3060188015e+02 0.0000000000e+00 0.0000e+00 -1.0000e+00
       -2 -1    0    0    0  501 -0.0000000000e+00 -0.0000000000e+00 -4.1979589736e+01 4.1979589736e+01 0.0000000000e+00 0.0000e+00 1.0000e+00
      -13  1    1    2    0    0 +9.7574982560e+01 +1.0880187186e+02 +1.4650751309e+02 2.0693761363e+02 0.0000000000e+00 0.0000e+00 1.0000e+00
       13  1    1    2    0    0 -9.7574982560e+01 -1.0880187186e+02 +4.4211477732e+02 4.6564385626e+02 0.0000000000e+00 0.0000e+00 -1.0000e+00
<mgrwt>
<rscale>  0 0.32540687E+03</rscale>
<asrwt>0</asrwt>
<pdfrwt beam="1">  1        2 0.97015667E-01 0.32540687E+03</pdfrwt>
<pdfrwt beam="2">  1       -2 0.64583989E-02 0.32540687E+03</pdfrwt>
<totfact> 0.66127074E+03</totfact>
</mgrwt>
<rwgt>
<wgt id='morphing_basis_vector_1'> +2.6657906e-04 </wgt>
<wgt id='morphing_basis_vector_2'> +1.4872827e-04 </wgt>
<wgt id='morphing_basis_vector_3'> +1.5629751e-04 </wgt>
<wgt id='morphing_basis_vector_4'> +2.6996179e-05 </wgt>
<wgt id='morphing_basis_vector_5'> +6.9157029e-06 </wgt>
</rwgt>
</event>
<event>
 4      1 +5.5534000e-05 3.23654700e+02 7.81860800e-03 9.91348300e-02
        2 -1    0    0  501    0 +0.0000000000e+00 +0.0000000000e+00 +4.0911659662e+02 4.0911659662e+02 0.0000000000e+00 0.0000e+00 -1.0000e+00
       -2 -1    0    0    0  501 -0.0000000000e+00 -0.0000000000e+00 -6.4011323545e+01 6.4011323545e+01 0.0000000000e+00 0.0000e+00 1.0000e+00
      -13  1    1    2    0    0 +1.3349021440e+02 +8.8394905213e+01 +2.0698478804e+02 2.6167919117e+02 0.0000000000e+00 0.0000e+00 1.0000e+00
       13  1    1    2    0    0 -1.3349021440e+02 -8.8394905213e+01 +1.3812048503e+02 2.1144872900e+02 0.0000000000e+00 0.0000e+00 -1.0000e+00
<mgrwt>
<rscale>  0 0.32365472E+03</rscale>
<asrwt>0</asrwt>
<pdfrwt beam="1">  1        2 0.62941013E-01 0.32365472E+03</pdfrwt>
<pdfrwt beam="2">  1       -2 0.98478962E-02 0.32365472E+03</pdfrwt>
<totfact> 0.56351168E+03</totfact>
</mgrwt>
<rwgt>
<wgt id='morphing_basis_vector_1'> +2.7505427e-04 </wgt>
<wgt id='morphing_basis_vector_2'> +1.8125073e-04 </wgt>
<wgt id='morphing_basis_vector_3'> +1.3831894e-04 </wgt>
<wgt id='morphing_basis_vector_4'> +3.1704924e-05 </wgt>
<wgt id='morphing_basis_vector_5'> +6.9541343e-06 </wgt>
</rwgt>
</event>
<event>
 4      1 +5.5534000e-05 3.26228300e+02 7.81860800e-03 9.90360900e-02
        2 -1    0    0  501    0 +0.0000000000e+00 +0.0000000000e+00 +1.3530381032e+03 1.3530381032e+03 0.0000000000e+00 0.0000e+00 1.0000e+00
       -2 -1    0    0    0  501 -0.0000000000e+00 -0.0000000000e+00 -1.9664060691e+01 1.9664060691e+01 0.0000000000e+00 0.0000e+00 -1.0000e+00
      -13  1    1    2    0    0 +6.1185265076e+01 -1.5073947851e+02 +6.1686480562e+02 6.3795628021e+02 0.0000000000e+00 0.0000e+00 -1.0000e+00
       13  1    1    2    0    0 -6.1185265076e+01 +1.5073947851e+02 +7.1650923687e+02 7.3474588366e+02 0.0000000000e+00 0.0000e+00 1.0000e+00
<mgrwt>
<rscale>  0 0.32622828E+03</rscale>
<asrwt>0</asrwt>
<pdfrwt beam="1">  1        2 0.20815964E+00 0.32622828E+03</pdfrwt>
<pdfrwt beam="2">  1       -2 0.30252412E-02 0.32622828E+03</pdfrwt>
<totfact> 0.72763552E+03</totfact>
</mgrwt>
<rwgt>
<wgt id='morphing_basis_vector_1'> +2.7279803e-04 </wgt>
<wgt id='morphing_basis_vector_2'> +1.6328845e-04 </wgt>
<wgt id='morphing_basis_vector_3'> +1.5093770e-04 </wgt>
<wgt id='morphing_basis_vector_4'> +2.9171675e-05 </wgt>
<wgt id='morphing_basis_vector_5'> +7.4469515e-06 </wgt>
</rwgt>
</event>
<event>
 4      1 +5.5534000e-05 3.06270100e+02 7.81860800e-03 9.98289000e-02
        2 -1    0    0  501    0 +0.0000000000e+00 +0.0000000000e+00 +1.5149758077e+02 1.5149758077e+02 0.0000000000e+00 0.0000e+00 -1.0000e+00
       -2 -1    0    0    0  501 -0.0000000000e+00 -0.0000000000e+00 -1.5479026594e+02 1.5479026594e+02 0.0000000000e+00 0.0000e+00 1.0000e+00
      -13  1    1    2    0    0 -1.4505190197e+02 -1.0476926635e+00 -5.0732769940e+01 1.5367161700e+02 0.0000000000e+00 0.0000e+00 1.0000e+00
       13  1    1    2    0    0 +1.4505190197e+02 +1.0476926635e+00 +4.7440084777e+01 1.5261622971e+02 0.0000000000e+00 0.0000e+00 -1.0000e+00
<mgrwt>
<rscale>  0 0.30627015E+03</rscale>
<asrwt>0</asrwt>
<pdfrwt beam="1">  1        2 0.23307320E-01 0.30627015E+03</pdfrwt>
<pdfrwt beam="2">  1       -2 0.23813887E-01 0.30627015E+03</pdfrwt>
<totfact> 0.41694894E+03</totfact>
</mgrwt>
<rwgt>
<wgt id='morphing_basis_vector_1'> +2.3423285e-04 </wgt>
<wgt id='morphing_basis_vector_2'> +1.3415199e-04 </wgt>
<wgt id='morphing_basis_vector_3'> +1.3427952e-04 </wgt>
<wgt id='morphing_basis_vector_4'> +2.4157413e-05 </wgt>
<wgt id='morphing_basis_vector_5'> +2.1233292e-06 </wgt>
</rwgt>
</event>
<event>
 4      1 +5.5534000e-05 3.25162600e+02 7.81860800e-03 9.90768600e-02
        2 -1    0    0  501    0 +0.0000000000e+00 +0.0000000000e+00 +1.6221179174e+03 1.6221179174e+03 0.0000000000e+00 0.0000e+00 1.0000e+00
       -2 -1    0    0    0  501 -0.0000000000e+00 -0.0000000000e+00 -1.6295165713e+01 1.6295165713e+01 0.0000000000e+00 0.0000e+00 -1.0000e+00
      -13  1    1    2    0    0 -6.7843713014e+00 -1.6074917188e+02 +6.8513429271e+02 7.0377220960e+02 0.0000000000e+00 0.0000e+00 -1.0000e+00
       13  1    1    2    0    0 +6.7843713014e+00 +1.6074917188e+02 +9.2068845895e+02 9.3464087349e+02 0.0000000000e+00 0.0000e+00 1.0000e+00
<mgrwt>
<rscale>  0 0.32516261E+03</rscale>
<asrwt>0</asrwt>
<pdfrwt beam="1">  1        2 0.24955648E+00 0.32516261E+03</pdfrwt>
<pdfrwt beam="2">  1       -2 0.25069498E-02 0.32516261E+03</pdfrwt>
<totfact> 0.68738947E+03</totfact>
</mgrwt>
<rwgt>
<wgt id='morphing_basis_vector_1'> +2.6937726e-04 </wgt>
<wgt id='morphing_basis_vector_2'> +1.5800782e-04 </wgt>
<wgt id='morphing_basis_vector_3'> +1.5160921e-04 </wgt>
<wgt id='morphing_basis_vector_4'> +2.8334185e-05 </wgt>
<wgt id='morphing_basis_vector_5'> +7.0067540e-06 </wgt>
</rwgt>
</event>
<event>
 4      1 +5.5534000e-05 3.09772100e+02 7.81860800e-03 9.96851900e-02
        2 -1    0    0  501    0 +0.0000000000e+00 +0.0000000000e+00 +1.7517945568e+02 1.7517945568e+02 0.0000000000e+00 0.0000e+00 -1.0000e+00
       -2 -1    0    0    0  501 -0.0000000000e+00 -0.0000000000e+00 -1.3694350942e+02 1.3694350942e+02 0.0000000000e+00 0.0000e+00 1.0000e+00
      -13  1    1    2    0    0 +4.9341383755e+01 -9.2709970929e+00 +1.6675354185e+02 1.7414725740e+02 0.0000000000e+00 0.0000e+00 -1.0000e+00
       13  1    1    2    0    0 -4.9341383755e+01 +9.2709970929e+00 -1.2851759559e+02 1.3797570770e+02 0.0000000000e+00 0.0000e+00 1.0000e+00
<mgrwt>
<rscale>  0 0.30977211E+03</rscale>
<asrwt>0</asrwt>
<pdfrwt beam="1">  1        2 0.26950686E-01 0.30977211E+03</pdfrwt>
<pdfrwt beam="2">  1       -2 0.21068232E-01 0.30977211E+03</pdfrwt>
<totfact> 0.43227327E+03</totfact>
</mgrwt>
<rwgt>
<wgt id='morphing_basis_vector_1'> +3.2232002e-04 </wgt>
<wgt id='morphing_basis_vector_2'> +3.7450809e-04 </wgt>
<wgt id='morphing_basis_vector_3'> +2.0346220e-05 </wgt>
<wgt id='morphing_basis_vector_4'> +6.5457029e-05 </wgt>
<wgt id='morphing_basis_vector_5'> +6.3833298e-06 </wgt>
</rwgt>
</event>
<event>
 4      1 +5.5534000e-05 3.33249300e+02 7.81860800e-03 9.87716900e-02
        2 -1    0    0  501    0 +0.0000000000e+00 +0.0000000000e+00 +9.7337520527e+02 9.7337520527e+02 0.0000000000e+00 0.0000e+00 1.0000e+00
       -2 -1    0    0    0  501 -0.0000000000e+00 -0.0000000000e+00 -2.8523192044e+01 2.8523192044e+01 0.0000000000e+00 0.0000e+00 -1.0000e+00
      -13  1    1    2    0    0 +6.3333622048e+01 -1.4727102930e+02 +6.0900850037e+02 6.2975491843e+02 0.0000000000e+00 0.0000e+00 -1.0000e+00
       13  1    1    2    0    0 -6.3333622048e+01 +1.4727102930e+02 +3.3584351285e+02 3.7214347889e+02 0.0000000000e+00 0.0000e+00 1.0000e+00
<mgrwt>
<rscale>  0 0.33324926E+03</rscale>
<asrwt>0</asrwt>
<pdfrwt beam="1">  1        2 0.14975001E+00 0.33324926E+03</pdfrwt>
<pdfrwt beam="2">  1       -2 0.43881841E-02 0.33324926E+03</pdfrwt>
<totfact> 0.68978358E+03</totfact>
</mgrwt>
<rwgt>
<wgt id='morphing_basis_vector_1'> +3.0170308e-04 </wgt>
<wgt id='morphing_basis_vector_2'> +2.1623687e-04 </wgt>
<wgt id='morphing_basis_vector_3'> +1.3930781e-04 </wgt>
<wgt id='morphing_basis_vector_4'> +3.6851841e-05 </wgt>
<wgt id='morphing_basis_vector_5'> +1.0991088e-05 </wgt>
</rwgt>
</event>
<event>
 4      1 +5.5534000e-05 3.22234400e+02 7.81860800e-03 9.91897500e-02
        2 -1    0    0  501    0 +0.0000000000e+00 +0.0000000000e+00 +3.9571410053e+02 3.9571410053e+02 0.0000000000e+00 0.0000e+00 1.0000e+00
       -2 -1    0    0    0  501 -0.0000000000e+00 -0.0000000000e+00 -6.5599758754e+01 6.5599758754e+01 0.0000000000e+00 0.0000e+00 -1.0000e+00
      -13  1    1    2    0    0 -3.6308015629e+00 -1.2693094598e+02 +3.0702566368e+02 3.3224901192e+02 0.0000000000e+00 0.0000e+00 1.0000e+00
       13  1    1    2    0    0 +3.6308015629e+00 +1.2693094598e+02 +2.3088678095e+01 1.2906484736e+02 0.0000000000e+00 0.0000e+00 -1.0000e+00
<mgrwt>
<rscale>  0 0.32223438E+03</rscale>
<asrwt>0</asrwt>
<pdfrwt beam="1">  1        2 0.60879091E-01 0.32223438E+03</pdfrwt>
<pdfrwt beam="2">  1       -2 0.10092271E-01 0.32223438E+03</pdfrwt>
<totfact> 0.56270340E+03</totfact>
</mgrwt>
<rwgt>
<wgt id='morphing_basis_vector_1'> +3.1613721e-04 </wgt>
<wgt id='morphing_basis_vector_2'> +3.0738641e-04 </wgt>
<wgt id='morphing_basis_vector_3'> +7.6840300e-05 </wgt>
<wgt id='morphing_basis_vector_4'> +5.0773073e-05 </wgt>
<wgt id='morphing_basis_vector_5'> +8.7544148e-06 </wgt>
</rwgt>
</event>
<event>
 4      1 +5.5534000e-05 3.25606700e+02 7.81860800e-03 9.90598500e-02
        2 -1    0    0  501    0 +0.0000000000e+00 +0.0000000000e+00 +8.8999386725e+02 8.8999386725e+02 0.0000000000e+00 0.0000e+00 -1.0000e+00
       -2 -1    0    0    0  501 -0.0000000000e+00 -0.0000000000e+00 -2.9781028135e+01 2.9781028135e+01 0.0000000000e+00 0.0000e+00 1.0000e+00
      -13  1    1    2    0    0 +1.3136198248e+02 +2.7039031085e+01 +1.6939907285e+02 2.1606278144e+02 0.0000000000e+00 0.0000e+00 1.0000e+00
       13  1    1    2    0    0 -1.3136198248e+02 -2.7039031085e+01 +6.9081376627e+02 7.0371211394e+02 0.0000000000e+00 0.0000e+00 -1.0000e+00
<mgrwt>
<rscale>  0 0.32560671E+03</rscale>
<asrwt>0</asrwt>
<pdfrwt beam="1">  1        2 0.13692211E+00 0.32560671E+03</pdfrwt>
<pdfrwt beam="2">  1       -2 0.45816973E-02 0.32560671E+03</pdfrwt>
<totfact> 0.72804964E+03</totfact>
</mgrwt>
<rwgt>
<wgt id='morphing_basis_vector_1'> +2.6632210e-04 </wgt>
<wgt id='morphing_basis_vector_2'> +1.4708558e-04 </wgt>
<wgt id='morphing_basis_vector_3'> +1.5738105e-04 </wgt>
<wgt id='morphing_basis_vector_4'> +2.6773744e-05 </wgt>
<wgt id='morphing_basis_vector_5'> +6.9495299e-06 </wgt>
</rwgt>
</event>
<event>
 4      1 +5.5534000e-05 3.35223400e+02 7.81860800e-03 9.86986100e-02
        2 -1    0    0  501    0 +0.0000000000e+00 +0.0000000000e+00 +2.5477171136e+02 2.5477171136e+02 0.0000000000e+00 0.0000e+00 -1.0000e+00
       -2 -1    0    0    0  501 -0.0000000000e+00 -0.0000000000e+00 -1.1027000346e+02 1.1027000346e+02 0.0000000000e+00 0.0000e+00 1.0000e+00
      -13  1    1    2    0    0 +9.9575148596e+01 -7.1822553913e+01 -5.2004038090e+01 1.3333457708e+02 0.0000000000e+00 0.0000e+00 1.0000e+00
       13  1    1    2    0    0 -9.9575148596e+01 +7.1822553913e+01 +1.9650574599e+02 2.3170713773e+02 0.0000000000e+00 0.0000e+00 -1.0000e+00
<mgrwt>
<rscale>  0 0.33522337E+03</rscale>
<asrwt>0</asrwt>
<pdfrwt beam="1">  1        2 0.39195648E-01 0.33522337E+03</pdfrwt>
<pdfrwt beam="2">  1       -2 0.16964616E-01 0.33522337E+03</pdfrwt>
<totfact> 0.40429293E+03</totfact>
</mgrwt>
<rwgt>
<wgt id='morphing_basis_vector_1'> +2.8421495e-04 </wgt>
<wgt id='morphing_basis_vector_2'> +1.5531372e-04 </wgt>
<wgt id='morphing_basis_vector_3'> +1.6986389e-04 </wgt>
<wgt id='morphing_basis_vector_4'> +2.9052891e-05 </wgt>
<wgt id='morphing_basis_vector_5'> +1.0603493e-05 </wgt>
</rwgt>
</event>
<event>
 4      1 +5.5534000e-05 3.30159400e+02 7.81860800e-03 9.88871700e-02
        2 -1    0    0  501    0 +0.0000000000e+00 +0.0000000000e+00 +1.2100756614e+02 1.2100756614e+02 0.0000000000e+00 0.0000e+00 -1.0000e+00
       -2 -1    0    0    0  501 -0.0000000000e+00 -0.0000000000e+00 -2.2520332376e+02 2.2520332376e+02 0.0000000000e+00 0.0000e+00 1.0000e+00
      -13  1    1    2    0    0 -1.1442323813e+02 +1.0249004555e+02 -1.1548868159e+02 1.9218356443e+02 0.0000000000e+00 0.0000e+00 1.0000e+00
       13  1    1    2    0    0 +1.1442323813e+02 -1.0249004555e+02 +1.1292923974e+01 1.5402732548e+02 0.0000000000e+00 0.0000e+00 -1.0000e+00
<mgrwt>
<rscale>  0 0.33015939E+03</rscale>
<asrwt>0</asrwt>
<pdfrwt beam="1">  1        2 0.18616549E-01 0.33015939E+03</pdfrwt>
<pdfrwt beam="2">  1       -2 0.34646665E-01 0.33015939E+03</pdfrwt>
<totfact> 0.28537560E+03</totfact>
</mgrwt>
<rwgt>
<wgt id='morphing_basis_vector_1'> +2.7601631e-04 </wgt>
<wgt id='morphing_basis_vector_2'> +1.5491141e-04 </wgt>
<wgt id='morphing_basis_vector_3'> +1.6135396e-04 </wgt>
<wgt id='morphing_basis_vector_4'> +2.8333202e-05 </wgt>
<wgt id='morphing_basis_vector_5'> +8.6454572e-06 </wgt>
</rwgt>
</event>
<event>
 4      1 +5.5534000e-05 3.18881200e+02 7.81860800e-03 9.93206500e-02
        2 -1    0    0  501    0 +0.0000000000e+00 +0.0000000000e+00 +9.1171660811e+02 9.1171660811e+02 0.0000000000e+00 0.0000e+00 1.0000e+00
       -2 -1    0    0    0  501 -0.0000000000e+00 -0.0000000000e+00 -2.7882895940e+01 2.7882895940e+01 0.0000000000e+00 0.0000e+00 -1.0000e+00
      -13  1    1    2    0    0 +1.2503885005e+02 +8.1395045118e+00 +1.5141126202e+02 1.9653583852e+02 0.0000000000e+00 0.0000e+00 -1.0000e+00
       13  1    1    2    0    0 -1.2503885005e+02 -8.1395045118e+00 +7.3242245015e+02 7.4306366554e+02 0.0000000000e+00 0.0000e+00 1.0000e+00
<mgrwt>
<rscale>  0 0.31888116E+03</rscale>
<asrwt>0</asrwt>
<pdfrwt beam="1">  1        2 0.14026407E+00 0.31888116E+03</pdfrwt>
<pdfrwt beam="2">  1       -2 0.42896770E-02 0.31888116E+03</pdfrwt>
<totfact> 0.77777419E+03</totfact>
</mgrwt>
<rwgt>
<wgt id='morphing_basis_vector_1'> +2.5404912e-04 </wgt>
<wgt id='morphing_basis_vector_2'> +1.4049367e-04 </wgt>
<wgt id='morphing_basis_vector_3'> +1.4980645e-04 </wgt>
<wgt id='morphing_basis_vector_4'> +2.5325848e-05 </wgt>
<wgt id='morphing_basis_vector_5'> +4.8807241e-06 </wgt>
</rwgt>
</event>
<event>
 4      1 +5.5534000e-05 3.31691000e+02 7.81860800e-03 9.88297600e-02
        2 -1    0    0  501    0 +0.0000000000e+00 +0.0000000000e+00 +1.8217176270e+03 1.8217176270e+03 0.0000000000e+00 0.0000e+00 -1.0000e+00
       -2 -1    0    0    0  501 -0.0000000000e+00 -0.0000000000e+00 -1.5098238441e+01 1.5098238441e+01 0.0000000000e+00 0.0000e+00 1.0000e+00
      -13  1    1    2    0    0 -1.0917393244e+02 -1.2470514895e+02 +8.7082750438e+02 8.8645973630e+02 0.0000000000e+00 0.0000e+00 1.0000e+00
       13  1    1    2    0    0 +1.0917393244e+02 +1.2470514895e+02 +9.3579188421e+02 9.5035612917e+02 0.0000000000e+00 0.0000e+00 -1.0000e+00
<mgrwt>
<rscale>  0 0.33169098E+03</rscale>
<asrwt>0</asrwt>
<pdfrwt beam="1">  1        2 0.28026408E+00 0.33169098E+03</pdfrwt>
<pdfrwt beam="2">  1       -2 0.23228074E-02 0.33169098E+03</pdfrwt>
<totfact> 0.60181025E+03</totfact>
</mgrwt>
<rwgt>
<wgt id='morphing_basis_vector_1'> +2.8424448e-04 </wgt>
<wgt id='morphing_basis_vector_2'> +1.7204321e-04 </wgt>
<wgt id='morphing_basis_vector_3'> +1.5626652e-04 </wgt>
<wgt id='morphing_basis_vector_4'> +3.0830738e-05 </wgt>
<wgt id='morphing_basis_vector_5'> +9.5374835e-06 </wgt>
</rwgt>
</event>
<event>
 4      1 +5.5534000e-05 3.39966900e+02 7.81860800e-03 9.85252400e-02
        2 -1    0    0  501    0 +0.0000000000e+00 +0.0000000000e+00 +5.2877494549e+01 5.2877494549e+01 0.0000000000e+00 0.0000e+00 -1.0000e+00
       -2 -1    0    0    0  501 -0.0000000000e+00 -0.0000000000e+00 -5.4643988732e+02 5.4643988732e+02 0.0000000000e+00 0.0000e+00 1.0000e+00
      -13  1    1    2    0    0 +7.1242131418e+01 -6.4049724533e+01 -4.9431576618e+02 5.0351354023e+02 0.0000000000e+00 0.0000e+00 1.0000e+00
       13  1    1    2    0    0 -7.1242131418e+01 +6.4049724533e+01 +7.5337340596e-01 9.5803841641e+01 0.0000000000e+00 0.0000e+00 -1.0000e+00
<mgrwt>
<rscale>  0 0.33996689E+03</rscale>
<asrwt>0</asrwt>
<pdfrwt beam="1">  1        2 0.81349991E-02 0.33996689E+03</pdfrwt>
<pdfrwt beam="2">  1       -2 0.84067675E-01 0.33996689E+03</pdfrwt>
<totfact> 0.13769173E+03</totfact>
</mgrwt>
<rwgt>
<wgt id='morphing_basis_vector_1'> +2.9337542e-04 </wgt>
<wgt id='morphing_basis_vector_2'> +1.5935768e-04 </wgt>
<wgt id='morphing_basis_vector_3'> +1.7650580e-04 </wgt>
<wgt id='morphing_basis_vector_4'> +3.0366284e-05 </wgt>
<wgt id='morphing_basis_vector_5'> +1.2733554e-05 </wgt>
</rwgt>
</event>
<event>
 4      1 +5.5534000e-05 3.29373000e+02 7.81860800e-03 9.89167800e-02
        2 -1    0    0  501    0 +0.0000000000e+00 +0.0000000000e+00 +1.0780094604e+02 1.0780094604e+02 0.0000000000e+00 0.0000e+00 -1.0000e+00
       -2 -1    0    0    0  501 -0.0000000000e+00 -0.0000000000e+00 -2.5158997481e+02 2.5158997481e+02 0.0000000000e+00 0.0000e+00 1.0000e+00
      -13  1    1    2    0    0 +1.1214482450e+02 -4.7299758949e+00 -2.0338804202e+02 2.3230482124e+02 0.0000000000e+00 0.0000e+00 1.0000e+00
       13  1    1    2    0    0 -1.1214482450e+02 +4.7299758949e+00 +5.9599013251e+01 1.2708609962e+02 0.0000000000e+00 0.0000e+00 -1.0000e+00
<mgrwt>
<rscale>  0 0.32937296E+03</rscale>
<asrwt>0</asrwt>
<pdfrwt beam="1">  1        2 0.16584761E-01 0.32937296E+03</pdfrwt>
<pdfrwt beam="2">  1       -2 0.38706150E-01 0.32937296E+03</pdfrwt>
<totfact> 0.26847494E+03</totfact>
</mgrwt>
<rwgt>
<wgt id='morphing_basis_vector_1'> +2.7288350e-04 </wgt>
<wgt id='morphing_basis_vector_2'> +1.4931389e-04 </wgt>
<wgt id='morphing_basis_vector_3'> +1.6256747e-04 </wgt>
<wgt id='morphing_basis_vector_4'> +2.7469279e-05 </wgt>
<wgt id='morphing_basis_vector_5'> +8.2586676e-06 </wgt>
</rwgt>
</event>
<event>
 4      1 +5.5534000e-05 3.39306400e+02 7.81860800e-03 9.85492000e-02
        2 -1    0    0  501    0 +0.0000000000e+00 +0.0000000000e+00 +8.5047358814e+01 8.5047358814e+01 0.0000000000e+00 0.0000e+00 -1.0000e+00
       -2 -1    0    0    0  501 -0.0000000000e+00 -0.0000000000e+00 -3.3842559220e+02 3.3842559220e+02 0.0000000000e+00 0.0000e+00 1.0000e+00
      -13  1    1    2    0    0 +1.6106149626e+02 +5.3218703067e+01 -1.3046782539e+02 2.1399740512e+02 0.0000000000e+00 0.0000e+00 1.0000e+00
       13  1    1    2    0    0 -1.6106149626e+02 -5.3218703067e+01 -1.2291040799e+02 2.0947554589e+02 0.0000000000e+00 0.0000e+00 -1.0000e+00
<mgrwt>
<rscale>  0 0.33930637E+03</rscale>
<asrwt>0</asrwt>
<pdfrwt beam="1">  1        2 0.13084209E-01 0.33930637E+03</pdfrwt>
<pdfrwt beam="2">  1       -2 0.52065475E-01 0.33930637E+03</pdfrwt>
<totfact> 0.20537719E+03</totfact>
</mgrwt>
<rwgt>
<wgt id='morphing_basis_vector_1'> +3.0010142e-04 </wgt>
<wgt id='morphing_basis_vector_2'> +1.8253921e-04 </wgt>
<wgt id='morphing_basis_vector_3'> +1.6528720e-04 </wgt>
<wgt id='morphing_basis_vector_4'> +3.3082135e-05 </wgt>
<wgt id='morphing_basis_vector_5'> +1.2898531e-05 </wgt>
</rwgt>
</event>
<event>
 4      1 +5.5534000e-05 3.15661100e+02 7.81860800e-03 9.94480100e-02
        2 -1    0    0  501    0 +0.0000000000e+00 +0.0000000000e+00 +7.9815876315e+02 7.9815876315e+02 0.0000000000e+00 0.0000e+00 -1.0000e+00
       -2 -1    0    0    0  501 -0.0000000000e+00 -0.0000000000e+00 -3.1209931665e+01 3.1209931665e+01 0.0000000000e+00 0.0000e+00 1.0000e+00
      -13  1    1    2    0    0 -3.7430823475e+01 -1.4572206724e+02 +2.5816927286e+02 2.9880990759e+02 0.0000000000e+00 0.0000e+00 1.0000e+00
       13  1    1    2    0    0 +3.7430823475e+01 +1.4572206724e+02 +5.0877955862e+02 5.3055878722e+02 0.0000000000e+00 0.0000e+00 -1.0000e+00
<mgrwt>
<rscale>  0 0.31566109E+03</rscale>
<asrwt>0</asrwt>
<pdfrwt beam="1">  1        2 0.12279364E+00 0.31566109E+03</pdfrwt>
<pdfrwt beam="2">  1       -2 0.48015286E-02 0.31566109E+03</pdfrwt>
<totfact> 0.77853648E+03</totfact>
</mgrwt>
<rwgt>
<wgt id='morphing_basis_vector_1'> +2.5020050e-04 </wgt>
<wgt id='morphing_basis_vector_2'> +1.4279357e-04 </wgt>
<wgt id='morphing_basis_vector_3'> +1.4377279e-04 </wgt>
<wgt id='morphing_basis_vector_4'> +2.5584219e-05 </wgt>
<wgt id='morphing_basis_vector_5'> +4.1193028e-06 </wgt>
</rwgt>
</event>
<event>
 4      1 +5.5534000e-05 3.12136500e+02 7.81860800e-03 9.95893000e-02
        2 -1    0    0  501    0 +0.0000000000e+00 +0.0000000000e+00 +8.8564033847e+01 8.8564033847e+01 0.0000000000e+00 0.0000e+00 -1.0000e+00
       -2 -1    0    0    0  501 -0.0000000000e+00 -0.0000000000e+00 -2.7502478073e+02 2.7502478073e+02 0.0000000000e+00 0.0000e+00 1.0000e+00
      -13  1    1    2    0    0 -1.5034953687e+02 +1.5992380160e+01 -1.3829270245e+02 2.0490390677e+02 0.0000000000e+00 0.0000e+00 1.0000e+00
       13  1    1    2    0    0 +1.5034953687e+02 -1.5992380160e+01 -4.8168044431e+01 1.5868490780e+02 0.0000000000e+00 0.0000e+00 -1.0000e+00
<mgrwt>
<rscale>  0 0.31213653E+03</rscale>
<asrwt>0</asrwt>
<pdfrwt beam="1">  1        2 0.13625236E-01 0.31213653E+03</pdfrwt>
<pdfrwt beam="2">  1       -2 0.42311505E-01 0.31213653E+03</pdfrwt>
<totfact> 0.28892000E+03</totfact>
</mgrwt>
<rwgt>
<wgt id='morphing_basis_vector_1'> +2.4469535e-04 </wgt>
<wgt id='morphing_basis_vector_2'> +1.4122398e-04 </wgt>
<wgt id='morphing_basis_vector_3'> +1.3925077e-04 </wgt>
<wgt id='morphing_basis_vector_4'> +2.5292031e-05 </wgt>
<wgt id='morphing_basis_vector_5'> +3.3130364e-06 </wgt>
</rwgt>
</event>
<event>
 4      1 +5.5534000e-05 3.27625000e+02 7.81860800e-03 9.89829200e-02
        2 -1    0    0  501    0 +0.0000000000e+00 +0.0000000000e+00 +3.1852415987e+02 3.1852415987e+02 0.0000000000e+00 0.0000e+00 -1.0000e+00
       -2 -1    0    0    0  501 -0.0000000000e+00 -0.0000000000e+00 -8.4246447685e+01 8.4246447685e+01 0.0000000000e+00 0.0000e+00 1.0000e+00
      -13  1    1    2    0    0 -1.4983117894e+02 +6.5249051365e+01 +1.0324604979e+02 1.9330433954e+02 0.0000000000e+00 0.0000e+00 1.0000e+00
       13  1    1    2    0    0 +1.4983117894e+02 -6.5249051365e+01 +1.3103166240e+02 2.0946626802e+02 0.0000000000e+00 0.0000e+00 -1.0000e+00
<mgrwt>
<rscale>  0 0.32762496E+03</rscale>
<asrwt>0</asrwt>
<pdfrwt beam="1">  1        2 0.49003716E-01 0.32762496E+03</pdfrwt>
<pdfrwt beam="2">  1       -2 0.12960992E-01 0.32762496E+03</pdfrwt>
<totfact> 0.48423166E+03</totfact>
</mgrwt>
<rwgt>
<wgt id='morphing_basis_vector_1'> +2.7553334e-04 </wgt>
<wgt id='morphing_basis_vector_2'> +1.6504341e-04 </wgt>
<wgt id='morphing_basis_vector_3'> +1.5247296e-04 </wgt>
<wgt id='morphing_basis_vector_4'> +2.9519572e-05 </wgt>
<wgt id='morphing_basis_vector_5'> +7.9457961e-06 </wgt>
</rwgt>
</event>
<event>
 4      1 +5.5534000e-05 3.07185200e+02 7.81860800e-03 9.97911500e-02
        2 -1    0    0  501    0 +0.0000000000e+00 +0.0000000000e+00 +3.0873292017e+02 3.0873292017e+02 0.0000000000e+00 0.0000e+00 -1.0000e+00
       -2 -1    0    0    0  501 -0.0000000000e+00 -0.0000000000e+00 -7.6411329365e+01 7.6411329365e+01 0.0000000000e+00 0.0000e+00 1.0000e+00
      -13  1    1    2    0    0 -5.6256783347e+00 -1.0712377777e+02 -2.1661722899e+01 1.0943665867e+02 0.0000000000e+00 0.0000e+00 1.0000e+00
       13  1    1    2    0    0 +5.6256783347e+00 +1.0712377777e+02 +2.5398331370e+02 2.7570759087e+02 0.0000000000e+00 0.0000e+00 -1.0000e+00
<mgrwt>
<rscale>  0 0.30718524E+03</rscale>
<asrwt>0</asrwt>
<pdfrwt beam="1">  1        2 0.47497372E-01 0.30718524E+03</pdfrwt>
<pdfrwt beam="2">  1       -2 0.11755589E-01 0.30718524E+03</pdfrwt>
<totfact> 0.58249064E+03</totfact>
</mgrwt>
<rwgt>
<wgt id='morphing_basis_vector_1'> +2.3404398e-04 </wgt>
<wgt id='morphing_basis_vector_2'> +1.3007368e-04 </wgt>
<wgt id='morphing_basis_vector_3'> +1.3761397e-04 </wgt>
<wgt id='morphing_basis_vector_4'> +2.3414892e-05 </wgt>
<wgt id='morphing_basis_vector_5'> +2.2153179e-06 </wgt>
</rwgt>
</event>
<event>
 4      1 +5.5534000e-05 3.06969600e+02 7.81860800e-03 9.98000300e-02
        2 -1    0    0  501    0 +0.0000000000e+00 +0.0000000000e+00 +8.3228055714e+01 8.3228055714e+01 0.0000000000e+00 0.0000e+00 1.0000e+00
       -2 -1    0    0    0  501 -0.0000000000e+00 -0.0000000000e+00 -2.8304855014e+02 2.8304855014e+02 0.0000000000e+00 0.0000e+00 -1.0000e+00
      -13  1    1    2    0    0 -2.6191445917e+01 +1.3288199476e+02 -1.3751800049e+01 1.3613496382e+02 0.0000000000e+00 0.0000e+00 -1.0000e+00
       13  1    1    2    0    0 +2.6191445917e+01 -1.3288199476e+02 -1.8606869438e+02 2.3014164204e+02 0.0000000000e+00 0.0000e+00 1.0000e+00
<mgrwt>
<rscale>  0 0.30696958E+03</rscale>
<asrwt>0</asrwt>
<pdfrwt beam="1">  1        2 0.12804316E-01 0.30696958E+03</pdfrwt>
<pdfrwt beam="2">  1       -2 0.43545930E-01 0.30696958E+03</pdfrwt>
<totfact> 0.29547513E+03</totfact>
</mgrwt>
<rwgt>
<wgt id='morphing_basis_vector_1'> +2.6701558e-04 </wgt>
<wgt id='morphing_basis_vector_2'> +2.2570651e-04 </wgt>
<wgt id='morphing_basis_vector_3'> +8.9427709e-05 </wgt>
<wgt id='morphing_basis_vector_4'> +4.0317117e-05 </wgt>
<wgt id='morphing_basis_vector_5'> +3.5662794e-06 </wgt>
</rwgt>
</event>
<event>
 4      1 +5.5534000e-05 3.27450900e+02 7.81860800e-03 9.89895300e-02
        2 -1    0    0  501    0 +0.0000000000e+00 +0.0000000000e+00 +1.3760936989e+03 1.3760936989e+03 0.0000000000e+00 0.0000e+00 -1.0000e+00
       -2 -1    0    0    0  501 -0.0000000000e+00 -0.0000000000e+00 -1.9479800621e+01 1.9479800621e+01 0.0000000000e+00 0.0000e+00 1.0000e+00
      -13  1    1    2    0    0 -3.0131147440e+01 -1.5019679904e+02 +4.3203270812e+02 4.5838763659e+02 0.0000000000e+00 0.0000e+00 1.0000e+00
       13  1    1    2    0    0 +3.0131147440e+01 +1.5019679904e+02 +9.2458119019e+02 9.3718586297e+02 0.0000000000e+00 0.0000e+00 -1.0000e+00
<mgrwt>
<rscale>  0 0.32745095E+03</rscale>
<asrwt>0</asrwt>
<pdfrwt beam="1">  1        2 0.21170665E+00 0.32745095E+03</pdfrwt>
<pdfrwt beam="2">  1       -2 0.29968935E-02 0.32745095E+03</pdfrwt>
<totfact> 0.71687411E+03</totfact>
</mgrwt>
<rwgt>
<wgt id='morphing_basis_vector_1'> +2.7101374e-04 </wgt>
<wgt id='morphing_basis_vector_2'> +1.5256646e-04 </wgt>
<wgt id='morphing_basis_vector_3'> +1.5788945e-04 </wgt>
<wgt id='morphing_basis_vector_4'> +2.7729166e-05 </wgt>
<wgt id='morphing_basis_vector_5'> +7.6557189e-06 </wgt>
</rwgt>
</event>
<event>
 4      1 +5.5534000e-05 3.00208000e+02 7.81860800e-03 1.00082500e-01
        2 -1    0    0  501    0 +0.0000000000e+00 +0.0000000000e+00 +6.3548259207e+02 6.3548259207e+02 0.0000000000e+00 0.0000e+00 -1.0000e+00
       -2 -1    0    0    0  501 -0.0000000000e+00 -0.0000000000e+00 -3.5455273601e+01 3.5455273601e+01 0.0000000000e+00 0.0000e+00 1.0000e+00
      -13  1    1    2    0    0 -1.0025356864e+02 -8.1807790699e+01 +1.2998536927e+02 1.8341071089e+02 0.0000000000e+00 0.0000e+00 1.0000e+00
       13  1    1    2    0    0 +1.0025356864e+02 +8.1807790699e+01 +4.7004194920e+02 4.8752715478e+02 0.0000000000e+00 0.0000e+00 -1.0000e+00
<mgrwt>
<rscale>  0 0.30020799E+03</rscale>
<asrwt>0</asrwt>
<pdfrwt beam="1">  1        2 0.97766544E-01 0.30020799E+03</pdfrwt>
<pdfrwt beam="2">  1       -2 0.54546579E-02 0.30020799E+03</pdfrwt>
<totfact> 0.84275682E+03</totfact>
</mgrwt>
<rwgt>
<wgt id='morphing_basis_vector_1'> +2.2350102e-04 </wgt>
<wgt id='morphing_basis_vector_2'> +1.2621297e-04 </wgt>
<wgt id='morphing_basis_vector_3'> +1.2999008e-04 </wgt>
<wgt id='morphing_basis_vector_4'> +2.2952945e-05 </wgt>
<wgt id='morphing_basis_vector_5'> +1.1709782e-06 </wgt>
</rwgt>
</event>
<event>
 4      1 +5.5534000e-05 3.44048100e+02 7.81860800e-03 9.83785100e-02
        2 -1    0    0  501    0 +0.0000000000e+00 +0.0000000000e+00 +1.6115374792e+03 1.6115374792e+03 0.0000000000e+00 0.0000e+00 -1.0000e+00
       -2 -1    0    0    0  501 -0.0000000000e+00 -0.0000000000e+00 -1.8362763098e+01 1.8362763098e+01 0.0000000000e+00 0.0000e+00 1.0000e+00
      -13  1    1    2    0    0 +1.2486137187e+02 -1.1291890623e+02 +6.2901128441e+02 6.5114993472e+02 0.0000000000e+00 0.0000e+00 1.0000e+00
       13  1    1    2    0    0 -1.2486137187e+02 +1.1291890623e+02 +9.6416343165e+02 9.7875030754e+02 0.0000000000e+00 0.0000e+00 -1.0000e+00
<mgrwt>
<rscale>  0 0.34404814E+03</rscale>
<asrwt>0</asrwt>
<pdfrwt beam="1">  1        2 0.24792873E+00 0.34404814E+03</pdfrwt>
<pdfrwt beam="2">  1       -2 0.28250418E-02 0.34404814E+03</pdfrwt>
<totfact> 0.58476470E+03</totfact>
</mgrwt>
<rwgt>
<wgt id='morphing_basis_vector_1'> +3.0572302e-04 </wgt>
<wgt id='morphing_basis_vector_2'> +1.7556243e-04 </wgt>
<wgt id='morphing_basis_vector_3'> +1.7709697e-04 </wgt>
<wgt id='morphing_basis_vector_4'> +3.3061989e-05 </wgt>
<wgt id='morphing_basis_vector_5'> +1.5008354e-05 </wgt>
</rwgt>
</event>
<event>
 4      1 +5.5534000e-05 3.42201300e+02 7.81860800e-03 9.84446300e-02
        2 -1    0    0  501    0 +0.0000000000e+00 +0.0000000000e+00 +1.4933390583e+02 1.4933390583e+02 0.0000000000e+00 0.0000e+00 -1.0000e+00
       -2 -1    0    0    0  501 -0.0000000000e+00 -0.0000000000e+00 -1.9604014651e+02 1.9604014651e+02 0.0000000000e+00 0.0000e+00 1.0000e+00
      -13  1    1    2    0    0 +1.6312916286e+02 +1.6340751567e+00 -7.5422595641e+01 1.7972857845e+02 0.0000000000e+00 0.0000e+00 1.0000e+00
       13  1    1    2    0    0 -1.6312916286e+02 -1.6340751567e+00 +2.8716354955e+01 1.6564547389e+02 0.0000000000e+00 0.0000e+00 -1.0000e+00
<mgrwt>
<rscale>  0 0.34220135E+03</rscale>
<asrwt>0</asrwt>
<pdfrwt beam="1">  1        2 0.22974447E-01 0.34220135E+03</pdfrwt>
<pdfrwt beam="2">  1       -2 0.30160022E-01 0.34220135E+03</pdfrwt>
<totfact> 0.28462331E+03</totfact>
</mgrwt>
<rwgt>
<wgt id='morphing_basis_vector_1'> +3.0054193e-04 </wgt>
<wgt id='morphing_basis_vector_2'> +1.6949037e-04 </wgt>
<wgt id='morphing_basis_vector_3'> +1.7623509e-04 </wgt>
<wgt id='morphing_basis_vector_4'> +3.1999111e-05 </wgt>
<wgt id='morphing_basis_vector_5'> +1.3982209e-05 </wgt>
</rwgt>
</event>
<event>
 4      1 +5.5534000e-05 3.09272500e+02 7.81860800e-03 9.97055700e-02
        2 -1    0    0  501    0 +0.0000000000e+00 +0.0000000000e+00 +1.0353980419e+02 1.0353980419e+02 0.0000000000e+00 0.0000e+00 1.0000e+00
       -2 -1    0    0    0  501 -0.0000000000e+00 -0.0000000000e+00 -2.3094854835e+02 2.3094854835e+02 0.0000000000e+00 0.0000e+00 -1.0000e+00
      -13  1    1    2    0    0 +1.1336264797e+02 +1.0488070814e+02 -5.5235577553e+01 1.6401835849e+02 0.0000000000e+00 0.0000e+00 -1.0000e+00
       13  1    1    2    0    0 -1.1336264797e+02 -1.0488070814e+02 -7.2173166603e+01 1.7046999405e+02 0.0000000000e+00 0.0000e+00 1.0000e+00
<mgrwt>
<rscale>  0 0.30927248E+03</rscale>
<asrwt>0</asrwt>
<pdfrwt beam="1">  1        2 0.15929201E-01 0.30927248E+03</pdfrwt>
<pdfrwt beam="2">  1       -2 0.35530545E-01 0.30927248E+03</pdfrwt>
<totfact> 0.32810478E+03</totfact>
</mgrwt>
<rwgt>
<wgt id='morphing_basis_vector_1'> +2.4545840e-04 </wgt>
<wgt id='morphing_basis_vector_2'> +1.5479947e-04 </wgt>
<wgt id='morphing_basis_vector_3'> +1.2831757e-04 </wgt>
<wgt id='morphing_basis_vector_4'> +2.7671158e-05 </wgt>
<wgt id='morphing_basis_vector_5'> +2.9539507e-06 </wgt>
</rwgt>
</event>
<event>
 4      1 +5.5534000e-05 3.17895700e+02 7.81860800e-03 9.93594500e-02
        2 -1    0    0  501    0 +0.0000000000e+00 +0.0000000000e+00 +1.4677981466e+02 1.4677981466e+02 0.0000000000e+00 0.0000e+00 1.0000e+00
       -2 -1    0    0    0  501 -0.0000000000e+00 -0.0000000000e+00 -1.7212459407e+02 1.7212459407e+02 0.0000000000e+00 0.0000e+00 -1.0000e+00
      -13  1    1    2    0    0 -1.5840118724e+02 -1.2897680272e+01 -9.9937598440e+00 1.5923932150e+02 0.0000000000e+00 0.0000e+00 -1.0000e+00
       13  1    1    2    0    0 +1.5840118724e+02 +1.2897680272e+01 -1.5351019564e+01 1.5966508722e+02 0.0000000000e+00 0.0000e+00 1.0000e+00
<mgrwt>
<rscale>  0 0.31789568E+03</rscale>
<asrwt>0</asrwt>
<pdfrwt beam="1">  1        2 0.22581510E-01 0.31789568E+03</pdfrwt>
<pdfrwt beam="2">  1       -2 0.26480707E-01 0.31789568E+03</pdfrwt>
<totfact> 0.36223737E+03</totfact>
</mgrwt>
<rwgt>
<wgt id='morphing_basis_vector_1'> +2.5966138e-04 </wgt>
<wgt id='morphing_basis_vector_2'> +1.6097812e-04 </wgt>
<wgt id='morphing_basis_vector_3'> +1.3850287e-04 </wgt>
<wgt id='morphing_basis_vector_4'> +2.8530609e-05 </wgt>
<wgt id='morphing_basis_vector_5'> +4.9731631e-06 </wgt>
</rwgt>
</event>
<event>
 4      1 +5.5534000e-05 3.03650500e+02 7.81860800e-03 9.99377400e-02
        2 -1    0    0  501    0 +0.0000000000e+00 +0.0000000000e+00 +8.4592599290e+02 8.4592599290e+02 0.0000000000e+00 0.0000e+00 -1.0000e+00
       -2 -1    0    0    0  501 -0.0000000000e+00 -0.0000000000e+00 -2.7249314126e+01 2.7249314126e+01 0.0000000000e+00 0.0000e+00 1.0000e+00
      -13  1    1    2    0    0 -8.4056112210e+01 -8.2369558859e+01 +1.3351018465e+02 1.7797512082e+02 0.0000000000e+00 0.0000e+00 1.0000e+00
       13  1    1    2    0    0 +8.4056112210e+01 +8.2369558859e+01 +6.8516649413e+02 6.9520018621e+02 0.0000000000e+00 0.0000e+00 -1.0000e+00
<mgrwt>
<rscale>  0 0.30365048E+03</rscale>
<asrwt>0</asrwt>
<pdfrwt beam="1">  1        2 0.13014244E+00 0.30365048E+03</pdfrwt>
<pdfrwt beam="2">  1       -2 0.41922028E-02 0.30365048E+03</pdfrwt>
<totfact> 0.88488841E+03</totfact>
</mgrwt>
<rwgt>
<wgt id='morphing_basis_vector_1'> +2.2852844e-04 </wgt>
<wgt id='morphing_basis_vector_2'> +1.2777009e-04 </wgt>
<wgt id='morphing_basis_vector_3'> +1.3385742e-04 </wgt>
<wgt id='morphing_basis_vector_4'> +2.3090927e-05 </wgt>
<wgt id='morphing_basis_vector_5'> +1.6364255e-06 </wgt>
</rwgt>
</event>
<event>
 4      1 +5.5534000e-05 3.02161100e+02 7.81860800e-03 1.00000100e-01
        2 -1    0    0  501    0 +0.0000000000e+00 +0.0000000000e+00 +5.1095346840e+01 5.1095346840e+01 0.0000000000e+00 0.0000e+00 1.0000e+00
       -2 -1    0    0    0  501 -0.0000000000e+00 -0.0000000000e+00 -4.4672044743e+02 4.4672044743e+02 0.0000000000e+00 0.0000e+00 -1.0000e+00
      -13  1    1    2    0    0 -1.3903989850e+02 +2.8297900017e+01 -2.8330064861e+02 3.1684715878e+02 0.0000000000e+00 0.0000e+00 -1.0000e+00
       13  1    1    2    0    0 +1.3903989850e+02 -2.8297900017e+01 -1.1232445198e+02 1.8096863550e+02 0.0000000000e+00 0.0000e+00 1.0000e+00
<mgrwt>
<rscale>  0 0.30216112E+03</rscale>
<asrwt>0</asrwt>
<pdfrwt beam="1">  1        2 0.78608227E-02 0.30216112E+03</pdfrwt>
<pdfrwt beam="2">  1       -2 0.68726221E-01 0.30216112E+03</pdfrwt>
<totfact> 0.22239041E+03</totfact>
</mgrwt>
<rwgt>
<wgt id='morphing_basis_vector_1'> +2.2745262e-04 </wgt>
<wgt id='morphing_basis_vector_2'> +1.3027551e-04 </wgt>
<wgt id='morphing_basis_vector_3'> +1.3054429e-04 </wgt>
<wgt id='morphing_basis_vector_4'> +2.3611387e-05 </wgt>
<wgt id='morphing_basis_vector_5'> +1.4666464e-06 </wgt>
</rwgt>
</event>
<event>
 4      1 +5.5534000e-05 3.36830200e+02 7.81860800e-03 9.86395400e-02
        2 -1    0    0  501    0 +0.0000000000e+00 +0.0000000000e+00 +2.2379848922e+02 2.2379848922e+02 0.0000000000e+00 0.0000e+00 1.0000e+00
       -2 -1    0    0    0  501 -0.0000000000e+00 -0.0000000000e+00 -1.2673746176e+02 1.2673746176e+02 0.0000000000e+00 0.0000e+00 -1.0000e+00
      -13  1    1    2    0    0 +9.4088826287e+01 +4.1791763087e+01 -9.0175946313e+01 1.3686109742e+02 0.0000000000e+00 0.0000e+00 -1.0000e+00
       13  1    1    2    0    0 -9.4088826287e+01 -4.1791763087e+01 +1.8723697378e+02 2.1367485356e+02 0.0000000000e+00 0.0000e+00 1.0000e+00
<mgrwt>
<rscale>  0 0.33683024E+03</rscale>
<asrwt>0</asrwt>
<pdfrwt beam="1">  1        2 0.34430537E-01 0.33683024E+03</pdfrwt>
<pdfrwt beam="2">  1       -2 0.19498071E-01 0.33683024E+03</pdfrwt>
<totfact> 0.37299937E+03</totfact>
</mgrwt>
<rwgt>
<wgt id='morphing_basis_vector_1'> +2.8716459e-04 </wgt>
<wgt id='morphing_basis_vector_2'> +1.5630556e-04 </wgt>
<wgt id='morphing_basis_vector_3'> +1.7224367e-04 </wgt>
<wgt id='morphing_basis_vector_4'> +2.9435014e-05 </wgt>
<wgt id='morphing_basis_vector_5'> +1.1292615e-05 </wgt>
</rwgt>
</event>
<event>
 4      1 +5.5534000e-05 3.20422200e+02 7.81860800e-03 9.92602800e-02
        2 -1    0    0  501    0 +0.0000000000e+00 +0.0000000000e+00 +4.3812068508e+02 4.3812068508e+02 0.0000000000e+00 0.0000e+00 -1.0000e+00
       -2 -1    0    0    0  501 -0.0000000000e+00 -0.0000000000e+00 -5.8585683374e+01 5.8585683374e+01 0.0000000000e+00 0.0000e+00 1.0000e+00
      -13  1    1    2    0    0 +7.4584879843e+01 +3.1735849985e+01 -2.4455312385e+01 8.4664814293e+01 0.0000000000e+00 0.0000e+00 1.0000e+00
       13  1    1    2    0    0 -7.4584879843e+01 -3.1735849985e+01 +4.0399031409e+02 4.1204155416e+02 0.0000000000e+00 0.0000e+00 -1.0000e+00
<mgrwt>
<rscale>  0 0.32042222E+03</rscale>
<asrwt>0</asrwt>
<pdfrwt beam="1">  1        2 0.67403180E-01 0.32042222E+03</pdfrwt>
<pdfrwt beam="2">  1       -2 0.90131823E-02 0.32042222E+03</pdfrwt>
<totfact> 0.59874191E+03</totfact>
</mgrwt>
<rwgt>
<wgt id='morphing_basis_vector_1'> +2.5636853e-04 </wgt>
<wgt id='morphing_basis_vector_2'> +1.4067562e-04 </wgt>
<wgt id='morphing_basis_vector_3'> +1.5211324e-04 </wgt>
<wgt id='morphing_basis_vector_4'> +2.5435623e-05 </wgt>
<wgt id='morphing_basis_vector_5'> +5.2965078e-06 </wgt>
</rwgt>
</event>
<event>
 4      1 +5.5534000e-05 3.24137500e+02 7.81860800e-03 9.91162300e-02
        2 -1    0    0  501    0 +0.0000000000e+00 +0.0000000000e+00 +2.4507586536e+02 2.4507586536e+02 0.0000000000e+00 0.0000e+00 1.0000e+00
       -2 -1    0    0    0  501 -0.0000000000e+00 -0.0000000000e+00 -1.0717610374e+02 1.0717610374e+02 0.0000000000e+00 0.0000e+00 -1.0000e+00
      -13  1    1    2    0    0 -6.8725108649e+01 +4.5029739329e+01 -8.2864725400e+01 1.1669353323e+02 0.0000000000e+00 0.0000e+00 -1.0000e+00
       13  1    1    2    0    0 +6.8725108649e+01 -4.5029739329e+01 +2.2076448702e+02 2.3555843587e+02 0.0000000000e+00 0.0000e+00 1.0000e+00
<mgrwt>
<rscale>  0 0.32413748E+03</rscale>
<asrwt>0</asrwt>
<pdfrwt beam="1">  1        2 0.37703979E-01 0.32413748E+03</pdfrwt>
<pdfrwt beam="2">  1       -2 0.16488631E-01 0.32413748E+03</pdfrwt>
<totfact> 0.44145515E+03</totfact>
</mgrwt>
<rwgt>
<wgt id='morphing_basis_vector_1'> +2.6304103e-04 </wgt>
<wgt id='morphing_basis_vector_2'> +1.4399590e-04 </wgt>
<wgt id='morphing_basis_vector_3'> +1.5643804e-04 </wgt>
<wgt id='morphing_basis_vector_4'> +2.6196402e-05 </wgt>
<wgt id='morphing_basis_vector_5'> +6.4335583e-06 </wgt>
</rwgt>
</event>
<event>
 4      1 +5.5534000e-05 3.14661600e+02 7.81860800e-03 9.94878800e-02
        2 -1    0    0  501    0 +0.0000000000e+00 +0.0000000000e+00 +5.7238336277e+02 5.7238336277e+02 0.0000000000e+00 0.0000e+00 -1.0000e+00
       -2 -1    0    0    0  501 -0.0000000000e+00 -0.0000000000e+00 -4.3245462023e+01 4.3245462023e+01 0.0000000000e+00 0.0000e+00 1.0000e+00
      -13  1    1    2    0    0 +6.1039443171e+01 +1.4090001600e+02 +1.9752264502e+02 2.5018757648e+02 0.0000000000e+00 0.0000e+00 1.0000e+00
       13  1    1    2    0    0 -6.1039443171e+01 -1.4090001600e+02 +3.3161525573e+02 3.6544124831e+02 0.0000000000e+00 0.0000e+00 -1.0000e+00
<mgrwt>
<rscale>  0 0.31466161E+03</rscale>
<asrwt>0</asrwt>
<pdfrwt beam="1">  1        2 0.88058973E-01 0.31466161E+03</pdfrwt>
<pdfrwt beam="2">  1       -2 0.66531484E-02 0.31466161E+03</pdfrwt>
<totfact> 0.70548819E+03</totfact>
</mgrwt>
<rwgt>
<wgt id='morphing_basis_vector_1'> +2.4938481e-04 </wgt>
<wgt id='morphing_basis_vector_2'> +1.4454342e-04 </wgt>
<wgt id='morphing_basis_vector_3'> +1.4141235e-04 </wgt>
<wgt id='morphing_basis_vector_4'> +2.5854331e-05 </wgt>
<wgt id='morphing_basis_vector_5'> +3.9161674e-06 </wgt>
</rwgt>
</event>
<event>
 4      1 +5.5534000e-05 3.14233300e+02 7.81860800e-03 9.95050100e-02
        2 -1    0    0  501    0 +0.0000000000e+00 +0.0000000000e+00 +8.3711306588e+01 8.3711306588e+01 0.0000000000e+00 0.0000e+00 1.0000e+00
       -2 -1    0    0    0  501 -0.0000000000e+00 -0.0000000000e+00 -2.9489023368e+02 2.9489023368e+02 0.0000000000e+00 0.0000e+00 -1.0000e+00
      -13  1    1    2    0    0 -6.3301991645e+01 -1.1988242302e+02 -2.0127174699e+02 2.4267108116e+02 0.0000000000e+00 0.0000e+00 -1.0000e+00
       13  1    1    2    0    0 +6.3301991645e+01 +1.1988242302e+02 -9.9071801010e+00 1.3593045911e+02 0.0000000000e+00 0.0000e+00 1.0000e+00
<mgrwt>
<rscale>  0 0.31423333E+03</rscale>
<asrwt>0</asrwt>
<pdfrwt beam="1">  1        2 0.12878663E-01 0.31423333E+03</pdfrwt>
<pdfrwt beam="2">  1       -2 0.45367727E-01 0.31423333E+03</pdfrwt>
<totfact> 0.27192570E+03</totfact>
</mgrwt>
<rwgt>
<wgt id='morphing_basis_vector_1'> +2.4639388e-04 </wgt>
<wgt id='morphing_basis_vector_2'> +1.3762979e-04 </wgt>
<wgt id='morphing_basis_vector_3'> +1.4412163e-04 </wgt>
<wgt id='morphing_basis_vector_4'> +2.4712079e-05 </wgt>
<wgt id='morphing_basis_vector_5'> +3.7074927e-06 </wgt>
</rwgt>
</event>
<event>
 4      1 +5.5534000e-05 3.57677700e+02 7.81860800e-03 9.79040100e-02
        2 -1    0    0  501    0 +0.0000000000e+00 +0.0000000000e+00 +1.9131459463e+02 1.9131459463e+02 0.0000000000e+00 0.0000e+00 1.0000e+00
       -2 -1    0    0    0  501 -0.0000000000e+00 -0.0000000000e+00 -1.6717661323e+02 1.6717661323e+02 0.0000000000e+00 0.0000e+00 -1.0000e+00
      -13  1    1    2    0    0 -1.6471281150e+02 -6.4624860601e+01 -1.4002540209e+01 1.7749015187e+02 0.0000000000e+00 0.0000e+00 -1.0000e+00
       13  1    1    2    0    0 +1.6471281150e+02 +6.4624860601e+01 +3.8140521613e+01 1.8100105599e+02 0.0000000000e+00 0.0000e+00 1.0000e+00
<mgrwt>
<rscale>  0 0.35767765E+03</rscale>
<asrwt>0</asrwt>
<pdfrwt beam="1">  1        2 0.29433015E-01 0.35767765E+03</pdfrwt>
<pdfrwt beam="2">  1       -2 0.25719479E-01 0.35767765E+03</pdfrwt>
<totfact> 0.28154019E+03</totfact>
</mgrwt>
<rwgt>
<wgt id='morphing_basis_vector_1'> +3.3680412e-04 </wgt>
<wgt id='morphing_basis_vector_2'> +1.9585355e-04 </wgt>
<wgt id='morphing_basis_vector_3'> +1.9573342e-04 </wgt>
<wgt id='morphing_basis_vector_4'> +3.8516747e-05 </wgt>
<wgt id='morphing_basis_vector_5'> +2.3221536e-05 </wgt>
</rwgt>
</event>
<event>
 4      1 +5.5534000e-05 3.14278500e+02 7.81860800e-03 9.95032000e-02
        2 -1    0    0  501    0 +0.0000000000e+00 +0.0000000000e+00 +5.5767266012e+02 5.5767266012e+02 0.0000000000e+00 0.0000e+00 1.0000e+00
       -2 -1    0    0    0  501 -0.0000000000e+00 -0.0000000000e+00 -4.4278216228e+01 4.4278216228e+01 0.0000000000e+00 0.0000e+00 -1.0000e+00
      -13  1    1    2    0    0 +1.0916155370e+00 -8.5061206220e+01 +5.0975550389e+02 5.1680487050e+02 0.0000000000e+00 0.0000e+00 1.0000e+00
       13  1    1    2    0    0 -1.0916155370e+00 +8.5061206220e+01 +3.6389400066e+00 8.5146005851e+01 0.0000000000e+00 0.0000e+00 -1.0000e+00
<mgrwt>
<rscale>  0 0.31427854E+03</rscale>
<asrwt>0</asrwt>
<pdfrwt beam="1">  1        2 0.85795789E-01 0.31427854E+03</pdfrwt>
<pdfrwt beam="2">  1       -2 0.68120337E-02 0.31427854E+03</pdfrwt>
<totfact> 0.70101299E+03</totfact>
</mgrwt>
<rwgt>
<wgt id='morphing_basis_vector_1'> +3.2641012e-04 </wgt>
<wgt id='morphing_basis_vector_2'> +3.6931423e-04 </wgt>
<wgt id='morphing_basis_vector_3'> +3.1745918e-05 </wgt>
<wgt id='morphing_basis_vector_4'> +6.2846445e-05 </wgt>
<wgt id='morphing_basis_vector_5'> +7.4633861e-06 </wgt>
</rwgt>
</event>
<event>
 4      1 +5.5534000e-05 3.16963700e+02 7.81860800e-03 9.93962900e-02
        2 -1    0    0  501    0 +0.0000000000e+00 +0.0000000000e+00 +1.5011126493e+02 1.5011126493e+02 0.0000000000e+00 0.0000e+00 -1.0000e+00
       -2 -1    0    0    0  501 -0.0000000000e+00 -0.0000000000e+00 -1.6731921679e+02 1.6731921679e+02 0.0000000000e+00 0.0000e+00 1.0000e+00
      -13  1    1    2    0    0 -3.8260142288e+01 +4.1128492823e+01 -1.5701501349e+02 1.6676062446e+02 0.0000000000e+00 0.0000e+00 1.0000e+00
       13  1    1    2    0    0 +3.8260142288e+01 -4.1128492823e+01 +1.3980706163e+02 1.5066985727e+02 0.0000000000e+00 0.0000e+00 -1.0000e+00
<mgrwt>
<rscale>  0 0.31696372E+03</rscale>
<asrwt>0</asrwt>
<pdfrwt beam="1">  1        2 0.23094041E-01 0.31696372E+03</pdfrwt>
<pdfrwt beam="2">  1       -2 0.25741418E-01 0.31696372E+03</pdfrwt>
<totfact> 0.37022822E+03</totfact>
</mgrwt>
<rwgt>
<wgt id='morphing_basis_vector_1'> +2.5026809e-04 </wgt>
<wgt id='morphing_basis_vector_2'> +1.3757284e-04 </wgt>
<wgt id='morphing_basis_vector_3'> +1.4826308e-04 </wgt>
<wgt id='morphing_basis_vector_4'> +2.4780804e-05 </wgt>
<wgt id='morphing_basis_vector_5'> +4.3458458e-06 </wgt>
</rwgt>
</event>
<event>
 4      1 +5.5534000e-05 3.04334200e+02 7.81860800e-03 9.99092200e-02
        2 -1    0    0  501    0 +0.0000000000e+00 +0.0000000000e+00 +1.9734844145e+02 1.9734844145e+02 0.0000000000e+00 0.0000e+00 -1.0000e+00
       -2 -1    0    0    0  501 -0.0000000000e+00 -0.0000000000e+00 -1.1732968949e+02 1.1732968949e+02 0.0000000000e+00 0.0000e+00 1.0000e+00
      -13  1    1    2    0    0 +1.3844218411e+01 +4.2115117576e+01 -1.1050430069e+02 1.1906530134e+02 0.0000000000e+00 0.0000e+00 1.0000e+00
       13  1    1    2    0    0 -1.3844218411e+01 -4.2115117576e+01 +1.9052305265e+02 1.9561282960e+02 0.0000000000e+00 0.0000e+00 -1.0000e+00
<mgrwt>
<rscale>  0 0.30433423E+03</rscale>
<asrwt>0</asrwt>
<pdfrwt beam="1">  1        2 0.30361299E-01 0.30433423E+03</pdfrwt>
<pdfrwt beam="2">  1       -2 0.18050722E-01 0.30433423E+03</pdfrwt>
<totfact> 0.48540138E+03</totfact>
</mgrwt>
<rwgt>
<wgt id='morphing_basis_vector_1'> +2.2926071e-04 </wgt>
<wgt id='morphing_basis_vector_2'> +1.2728072e-04 </wgt>
<wgt id='morphing_basis_vector_3'> +1.3504559e-04 </wgt>
<wgt id='morphing_basis_vector_4'> +2.2980291e-05 </wgt>
<wgt id='morphing_basis_vector_5'> +1.7281101e-06 </wgt>
</rwgt>
</event>
<event>
 4      1 +5.5534000e-05 3.59738400e+02 7.81860800e-03 9.78342500e-02
        2 -1    0    0  501    0 +0.0000000000e+00 +0.0000000000e+00 +2.1243920054e+02 2.1243920054e+02 0.0000000000e+00 0.0000e+00 1.0000e+00
       -2 -1    0    0    0  501 -0.0000000000e+00 -0.0000000000e+00 -1.5229262357e+02 1.5229262357e+02 0.0000000000e+00 0.0000e+00 -1.0000e+00
      -13  1    1    2    0    0 +3.0232338156e+01 -1.5599529830e+02 -5.5384268869e+01 1.6827342215e+02 0.0000000000e+00 0.0000e+00 -1.0000e+00
       13  1    1    2    0    0 -3.0232338156e+01 +1.5599529830e+02 +1.1553084584e+02 1.9645840197e+02 0.0000000000e+00 0.0000e+00 1.0000e+00
<mgrwt>
<rscale>  0 0.35973837E+03</rscale>
<asrwt>0</asrwt>
<pdfrwt beam="1">  1        2 0.32682954E-01 0.35973837E+03</pdfrwt>
<pdfrwt beam="2">  1       -2 0.23429634E-01 0.35973837E+03</pdfrwt>
<totfact> 0.29254388E+03</totfact>
</mgrwt>
<rwgt>
<wgt id='morphing_basis_vector_1'> +3.3710757e-04 </wgt>
<wgt id='morphing_basis_vector_2'> +1.8519883e-04 </wgt>
<wgt id='morphing_basis_vector_3'> +2.0418763e-04 </wgt>
<wgt id='morphing_basis_vector_4'> +3.8220750e-05 </wgt>
<wgt id='morphing_basis_vector_5'> +2.4350341e-05 </wgt>
</rwgt>
</event>
<event>
 4      1 +5.5534000e-05 3.24213100e+02 7.81860800e-03 9.91133300e-02
        2 -1    0    0  501    0 +0.0000000000e+00 +0.0000000000e+00 +1.3932699528e+03 1.3932699528e+03 0.0000000000e+00 0.0000e+00 -1.0000e+00
       -2 -1    0    0    0  501 -0.0000000000e+00 -0.0000000000e+00 -1.8861044773e+01 1.8861044773e+01 0.0000000000e+00 0.0000e+00 1.0000e+00
      -13  1    1    2    0    0 +8.1877927742e+01 +1.3946668064e+02 +6.3878575334e+02 6.5894020118e+02 0.0000000000e+00 0.0000e+00 1.0000e+00
       13  1    1    2    0    0 -8.1877927742e+01 -1.3946668064e+02 +7.3562315469e+02 7.5319079640e+02 0.0000000000e+00 0.0000e+00 -1.0000e+00
<mgrwt>
<rscale>  0 0.32421306E+03</rscale>
<asrwt>0</asrwt>
<pdfrwt beam="1">  1        2 0.21434914E+00 0.32421306E+03</pdfrwt>
<pdfrwt beam="2">  1       -2 0.29017003E-02 0.32421306E+03</pdfrwt>
<totfact> 0.73568104E+03</totfact>
</mgrwt>
<rwgt>
<wgt id='morphing_basis_vector_1'> +2.6910233e-04 </wgt>
<wgt id='morphing_basis_vector_2'> +1.6139602e-04 </wgt>
<wgt id='morphing_basis_vector_3'> +1.4847848e-04 </wgt>
<wgt id='morphing_basis_vector_4'> +2.8776844e-05 </wgt>
<wgt id='morphing_basis_vector_5'> +6.7701016e-06 </wgt>
</rwgt>
</event>
<event>
 4      1 +5.5534000e-05 3.10374400e+02 7.81860800e-03 9.96606800e-02
        2 -1    0    0  501    0 +0.0000000000e+00 +0.0000000000e+00 +1.5496450060e+02 1.5496450060e+02 0.0000000000e+00 0.0000e+00 -1.0000e+00
       -2 -1    0    0    0  501 -0.0000000000e+00 -0.0000000000e+00 -1.5541024244e+02 1.5541024244e+02 0.0000000000e+00 0.0000e+00 1.0000e+00
      -13  1    1    2    0    0 +5.0386822656e+01 +5.4370185869e+01 -1.3656127320e+02 1.5538317267e+02 0.0000000000e+00 0.0000e+00 1.0000e+00
       13  1    1    2    0    0 -5.0386822656e+01 -5.4370185869e+01 +1.3611553136e+02 1.5499157037e+02 0.0000000000e+00 0.0000e+00 -1.0000e+00
<mgrwt>
<rscale>  0 0.31037442E+03</rscale>
<asrwt>0</asrwt>
<pdfrwt beam="1">  1        2 0.23840692E-01 0.31037442E+03</pdfrwt>
<pdfrwt beam="2">  1       -2 0.23909268E-01 0.31037442E+03</pdfrwt>
<totfact> 0.40368345E+03</totfact>
</mgrwt>
<rwgt>
<wgt id='morphing_basis_vector_1'> +2.3911218e-04 </wgt>
<wgt id='morphing_basis_vector_2'> +1.3214554e-04 </wgt>
<wgt id='morphing_basis_vector_3'> +1.4113692e-04 </wgt>
<wgt id='morphing_basis_vector_4'> +2.3752042e-05 </wgt>
<wgt id='morphing_basis_vector_5'> +2.8199543e-06 </wgt>
</rwgt>
</event>
<event>
 4      1 +5.5534000e-05 3.26401100e+02 7.81860800e-03 9.90295000e-02
        2 -1    0    0  501    0 +0.0000000000e+00 +0.0000000000e+00 +7.7417645360e+02 7.7417645360e+02 0.0000000000e+00 0.0000e+00 1.0000e+00
       -2 -1    0    0    0  501 -0.0000000000e+00 -0.0000000000e+00 -3.4403543906e+01 3.4403543906e+01 0.0000000000e+00 0.0000e+00 -1.0000e+00
      -13  1    1    2    0    0 +9.8938544753e+01 -1.1268865266e+02 +2.1036086556e+02 2.5833943143e+02 0.0000000000e+00 0.0000e+00 -1.0000e+00
       13  1    1    2    0    0 -9.8938544753e+01 +1.1268865266e+02 +5.2941204413e+02 5.5024056607e+02 0.0000000000e+00 0.0000e+00 1.0000e+00
<mgrwt>
<rscale>  0 0.32640106E+03</rscale>
<asrwt>0</asrwt>
<pdfrwt beam="1">  1        2 0.11910406E+00 0.32640106E+03</pdfrwt>
<pdfrwt beam="2">  1       -2 0.52928535E-02 0.32640106E+03</pdfrwt>
<totfact> 0.69951027E+03</totfact>
</mgrwt>
<rwgt>
<wgt id='morphing_basis_vector_1'> +2.6872268e-04 </wgt>
<wgt id='morphing_basis_vector_2'> +1.5056985e-04 </wgt>
<wgt id='morphing_basis_vector_3'> +1.5707396e-04 </wgt>
<wgt id='morphing_basis_vector_4'> +2.7348222e-05 </wgt>
<wgt id='morphing_basis_vector_5'> +7.2702585e-06 </wgt>
</rwgt>
</event>
<event>
 4      1 +5.5534000e-05 3.02913700e+02 7.81860800e-03 9.99685600e-02
        2 -1    0    0  501    0 +0.0000000000e+00 +0.0000000000e+00 +7.8022296935e+02 7.8022296935e+02 0.0000000000e+00 0.0000e+00 1.0000e+00
       -2 -1    0    0    0  501 -0.0000000000e+00 -0.0000000000e+00 -2.9400800082e+01 2.9400800082e+01 0.0000000000e+00 0.0000e+00 -1.0000e+00
      -13  1    1    2    0    0 +9.3493624827e+01 +6.3952147228e+01 +6.4413244141e+02 6.5401646546e+02 0.0000000000e+00 0.0000e+00 1.0000e+00
       13  1    1    2    0    0 -9.3493624827e+01 -6.3952147228e+01 +1.0668972786e+02 1.5560730397e+02 0.0000000000e+00 0.0000e+00 -1.0000e+00
<mgrwt>
<rscale>  0 0.30291371E+03</rscale>
<asrwt>0</asrwt>
<pdfrwt beam="1">  1        2 0.12003429E+00 0.30291371E+03</pdfrwt>
<pdfrwt beam="2">  1       -2 0.45232006E-02 0.30291371E+03</pdfrwt>
<totfact> 0.87394325E+03</totfact>
</mgrwt>
<rwgt>
<wgt id='morphing_basis_vector_1'> +2.8213638e-04 </wgt>
<wgt id='morphing_basis_vector_2'> +2.8395059e-04 </wgt>
<wgt id='morphing_basis_vector_3'> +5.3323386e-05 </wgt>
<wgt id='morphing_basis_vector_4'> +5.1755086e-05 </wgt>
<wgt id='morphing_basis_vector_5'> +3.6353570e-06 </wgt>
</rwgt>
</event>
<event>
 4      1 +5.5534000e-05 3.43620900e+02 7.81860800e-03 9.83937700e-02
        2 -1    0    0  501    0 +0.0000000000e+00 +0.0000000000e+00 +2.3802472872e+02 2.3802472872e+02 0.0000000000e+00 0.0000e+00 -1.0000e+00
       -2 -1    0    0    0  501 -0.0000000000e+00 -0.0000000000e+00 -1.2401582738e+02 1.2401582738e+02 0.0000000000e+00 0.0000e+00 1.0000e+00
      -13  1    1    2    0    0 -1.0288676353e+02 -1.3506216363e+02 +8.4707629303e+01 1.8974418731e+02 0.0000000000e+00 0.0000e+00 1.0000e+00
       13  1    1    2    0    0 +1.0288676353e+02 +1.3506216363e+02 +2.9301272032e+01 1.7229636879e+02 0.0000000000e+00 0.0000e+00 -1.0000e+00
<mgrwt>
<rscale>  0 0.34362092E+03</rscale>
<asrwt>0</asrwt>
<pdfrwt beam="1">  1        2 0.36619189E-01 0.34362092E+03</pdfrwt>
<pdfrwt beam="2">  1       -2 0.19079358E-01 0.34362092E+03</pdfrwt>
<totfact> 0.36089740E+03</totfact>
</mgrwt>
<rwgt>
<wgt id='morphing_basis_vector_1'> +3.1627914e-04 </wgt>
<wgt id='morphing_basis_vector_2'> +2.0909782e-04 </wgt>
<wgt id='morphing_basis_vector_3'> +1.6208640e-04 </wgt>
<wgt id='morphing_basis_vector_4'> +3.6838247e-05 </wgt>
<wgt id='morphing_basis_vector_5'> +1.5481254e-05 </wgt>
</rwgt>
</event>
<event>
 4      1 +5.5534000e-05 3.50238000e+02 7.81860800e-03 9.81601200e-02
        2 -1    0    0  501    0 +0.0000000000e+00 +0.0000000000e+00 +3.3200362582e+01 3.3200362582e+01 0.0000000000e+00 0.0000e+00 1.0000e+00
       -2 -1    0    0    0  501 -0.0000000000e+00 -0.0000000000e+00 -9.2368481182e+02 9.2368481182e+02 0.0000000000e+00 0.0000e+00 -1.0000e+00
      -13  1    1    2    0    0 +3.2537609725e+01 +1.3473797607e+02 -7.3763626423e+02 7.5054665181e+02 0.0000000000e+00 0.0000e+00 -1.0000e+00
       13  1    1    2    0    0 -3.2537609725e+01 -1.3473797607e+02 -1.5284818501e+02 2.0633852259e+02 0.0000000000e+00 0.0000e+00 1.0000e+00
<mgrwt>
<rscale>  0 0.35023804E+03</rscale>
<asrwt>0</asrwt>
<pdfrwt beam="1">  1        2 0.51077490E-02 0.35023804E+03</pdfrwt>
<pdfrwt beam="2">  1       -2 0.14210533E+00 0.35023804E+03</pdfrwt>
<totfact> 0.69173054E+02</totfact>
</mgrwt>
<rwgt>
<wgt id='morphing_basis_vector_1'> +3.1524762e-04 </wgt>
<wgt id='morphing_basis_vector_2'> +1.7180312e-04 </wgt>
<wgt id='morphing_basis_vector_3'> +1.9048112e-04 </wgt>
<wgt id='morphing_basis_vector_4'> +3.4078749e-05 </wgt>
<wgt id='morphing_basis_vector_5'> +1.8213709e-05 </wgt>
</rwgt>
</event>
<event>
 4      1 +5.5534000e-05 3.21982400e+02 7.81860800e-03 9.91995300e-02
        2 -1    0    0  501    0 +0.0000000000e+00 +0.0000000000e+00 +3.6539046091e+02 3.6539046091e+02 0.0000000000e+00 0.0000e+00 -1.0000e+00
       -2 -1    0    0    0  501 -0.0000000000e+00 -0.0000000000e+00 -7.0932807736e+01 7.0932807736e+01 0.0000000000e+00 0.0000e+00 1.0000e+00
      -13  1    1    2    0    0 +9.5275505023e+01 +1.1223702163e+02 +5.8952664636e+01 1.5858747602e+02 0.0000000000e+00 0.0000e+00 1.0000e+00
       13  1    1    2    0    0 -9.5275505023e+01 -1.1223702163e+02 +2.3550498854e+02 2.7773579263e+02 0.0000000000e+00 0.0000e+00 -1.0000e+00
<mgrwt>
<rscale>  0 0.32198243E+03</rscale>
<asrwt>0</asrwt>
<pdfrwt beam="1">  1        2 0.56213916E-01 0.32198243E+03</pdfrwt>
<pdfrwt beam="2">  1       -2 0.10912740E-01 0.32198243E+03</pdfrwt>
<totfact> 0.54440992E+03</totfact>
</mgrwt>
<rwgt>
<wgt id='morphing_basis_vector_1'> +2.6056276e-04 </wgt>
<wgt id='morphing_basis_vector_2'> +1.4618054e-04 </wgt>
<wgt id='morphing_basis_vector_3'> +1.5197795e-04 </wgt>
<wgt id='morphing_basis_vector_4'> +2.6370976e-05 </wgt>
<wgt id='morphing_basis_vector_5'> +5.8316657e-06 </wgt>
</rwgt>
</event>
<event>
 4      1 +5.5534000e-05 3.50427600e+02 7.81860800e-03 9.81535100e-02
        2 -1    0    0  501    0 +0.0000000000e+00 +0.0000000000e+00 +9.1353195191e+02 9.1353195191e+02 0.0000000000e+00 0.0000e+00 -1.0000e+00
       -2 -1    0    0    0  501 -0.0000000000e+00 -0.0000000000e+00 -3.3605700995e+01 3.3605700995e+01 0.0000000000e+00 0.0000e+00 1.0000e+00
      -13  1    1    2    0    0 +2.0533321897e+00 +1.6707814877e+02 +2.9744151920e+02 3.4116093169e+02 0.0000000000e+00 0.0000e+00 1.0000e+00
       13  1    1    2    0    0 -2.0533321897e+00 -1.6707814877e+02 +5.8248473172e+02 6.0597672121e+02 0.0000000000e+00 0.0000e+00 -1.0000e+00
<mgrwt>
<rscale>  0 0.35042763E+03</rscale>
<asrwt>0</asrwt>
<pdfrwt beam="1">  1        2 0.14054336E+00 0.35042763E+03</pdfrwt>
<pdfrwt beam="2">  1       -2 0.51701085E-02 0.35042763E+03</pdfrwt>
<totfact> 0.58838220E+03</totfact>
</mgrwt>
<rwgt>
<wgt id='morphing_basis_vector_1'> +3.1796928e-04 </wgt>
<wgt id='morphing_basis_vector_2'> +1.7892182e-04 </wgt>
<wgt id='morphing_basis_vector_3'> +1.8793387e-04 </wgt>
<wgt id='morphing_basis_vector_4'> +3.4866092e-05 </wgt>
<wgt id='morphing_basis_vector_5'> +1.8469837e-05 </wgt>
</rwgt>
</event>
<event>
 4      1 +5.5534000e-05 3.05868100e+02 7.81860800e-03 9.98455300e-02
        2 -1    0    0  501    0 +0.0000000000e+00 +0.0000000000e+00 +4.5926108392e+02 4.5926108392e+02 0.0000000000e+00 0.0000e+00 -1.0000e+00
       -2 -1    0    0    0  501 -0.0000000000e+00 -0.0000000000e+00 -5.0927063300e+01 5.0927063300e+01 0.0000000000e+00 0.0000e+00 1.0000e+00
      -13  1    1    2    0    0 -1.2850909732e+02 -3.8070803551e+01 +8.1312852024e+01 1.5676655919e+02 0.0000000000e+00 0.0000e+00 1.0000e+00
       13  1    1    2    0    0 +1.2850909732e+02 +3.8070803551e+01 +3.2702116859e+02 3.5342158803e+02 0.0000000000e+00 0.0000e+00 -1.0000e+00
<mgrwt>
<rscale>  0 0.30586806E+03</rscale>
<asrwt>0</asrwt>
<pdfrwt beam="1">  1        2 0.70655549E-01 0.30586806E+03</pdfrwt>
<pdfrwt beam="2">  1       -2 0.78349331E-02 0.30586806E+03</pdfrwt>
<totfact> 0.70300038E+03</totfact>
</mgrwt>
<rwgt>
<wgt id='morphing_basis_vector_1'> +2.3258668e-04 </wgt>
<wgt id='morphing_basis_vector_2'> +1.3096891e-04 </wgt>
<wgt id='morphing_basis_vector_3'> +1.3531439e-04 </wgt>
<wgt id='morphing_basis_vector_4'> +2.3601114e-05 </wgt>
<wgt id='morphing_basis_vector_5'> +2.0134706e-06 </wgt>
</rwgt>
</event>
<event>
 4      1 +5.5534000e-05 3.10256000e+02 7.81860800e-03 9.96654900e-02
        2 -1    0    0  501    0 +0.0000000000e+00 +0.0000000000e+00 +5.0862648018e+02 5.0862648018e+02 0.0000000000e+00 0.0000e+00 -1.0000e+00
       -2 -1    0    0    0  501 -0.0000000000e+00 -0.0000000000e+00 -4.7313097873e+01 4.7313097873e+01 0.0000000000e+00 0.0000e+00 1.0000e+00
      -13  1    1    2    0    0 -5.8882770932e+01 -5.3673647819e+01 -7.8487352110e+00 8.0060251232e+01 0.0000000000e+00 0.0000e+00 1.0000e+00
       13  1    1    2    0    0 +5.8882770932e+01 +5.3673647819e+01 +4.6916211752e+02 4.7587932683e+02 0.0000000000e+00 0.0000e+00 -1.0000e+00
<mgrwt>
<rscale>  0 0.31025599E+03</rscale>
<asrwt>0</asrwt>
<pdfrwt beam="1">  1        2 0.78250224E-01 0.31025599E+03</pdfrwt>
<pdfrwt beam="2">  1       -2 0.72789385E-02 0.31025599E+03</pdfrwt>
<totfact> 0.70251952E+03</totfact>
</mgrwt>
<rwgt>
<wgt id='morphing_basis_vector_1'> +2.3892806e-04 </wgt>
<wgt id='morphing_basis_vector_2'> +1.3208509e-04 </wgt>
<wgt id='morphing_basis_vector_3'> +1.4099572e-04 </wgt>
<wgt id='morphing_basis_vector_4'> +2.3741536e-05 </wgt>
<wgt id='morphing_basis_vector_5'> +2.7963271e-06 </wgt>
</rwgt>
</event>
<event>
 4      1 +5.5534000e-05 3.54650600e+02 7.81860800e-03 9.80074000e-02
        2 -1    0    0  501    0 +0.0000000000e+00 +0.0000000000e+00 +3.6861127895e+02 3.6861127895e+02 0.0000000000e+00 0.0000e+00 -1.0000e+00
       -2 -1    0    0    0  501 -0.0000000000e+00 -0.0000000000e+00 -8.5304656391e+01 8.5304656391e+01 0.0000000000e+00 0.0000e+00 1.0000e+00
      -13  1    1    2    0    0 +1.8961205040e+01 +1.4898325988e+02 +2.0984688798e+01 1.5164397840e+02 0.0000000000e+00 0.0000e+00 1.0000e+00
       13  1    1    2    0    0 -1.8961205040e+01 -1.4898325988e+02 +2.6232193376e+02 3.0227195694e+02 0.0000000000e+00 0.0000e+00 -1.0000e+00
<mgrwt>
<rscale>  0 0.35465058E+03</rscale>
<asrwt>0</asrwt>
<pdfrwt beam="1">  1        2 0.56709427E-01 0.35465058E+03</pdfrwt>
<pdfrwt beam="2">  1       -2 0.13123793E-01 0.35465058E+03</pdfrwt>
<totfact> 0.40524000E+03</totfact>
</mgrwt>
<rwgt>
<wgt id='morphing_basis_vector_1'> +3.2524863e-04 </wgt>
<wgt id='morphing_basis_vector_2'> +1.7793433e-04 </wgt>
<wgt id='morphing_basis_vector_3'> +1.9669131e-04 </wgt>
<wgt id='morphing_basis_vector_4'> +3.5931646e-05 </wgt>
<wgt id='morphing_basis_vector_5'> +2.0934763e-05 </wgt>
</rwgt>
</event>
<event>
 4      1 +5.5534000e-05 3.43036000e+02 7.81860800e-03 9.84146900e-02
        2 -1    0    0  501    0 +0.0000000000e+00 +0.0000000000e+00 +4.2203035150e+02 4.2203035150e+02 0.0000000000e+00 0.0000e+00 1.0000e+00
       -2 -1    0    0    0  501 -0.0000000000e+00 -0.0000000000e+00 -6.9706903361e+01 6.9706903361e+01 0.0000000000e+00 0.0000e+00 -1.0000e+00
      -13  1    1    2    0    0 +1.4815344927e+02 +8.3897531288e+01 +2.0589363672e+02 2.6717116223e+02 0.0000000000e+00 0.0000e+00 -1.0000e+00
       13  1    1    2    0    0 -1.4815344927e+02 -8.3897531288e+01 +1.4642981142e+02 2.2456609263e+02 0.0000000000e+00 0.0000e+00 1.0000e+00
<mgrwt>
<rscale>  0 0.34303603E+03</rscale>
<asrwt>0</asrwt>
<pdfrwt beam="1">  1        2 0.64927745E-01 0.34303603E+03</pdfrwt>
<pdfrwt beam="2">  1       -2 0.10724139E-01 0.34303603E+03</pdfrwt>
<totfact> 0.47809043E+03</totfact>
</mgrwt>
<rwgt>
<wgt id='morphing_basis_vector_1'> +3.1335281e-04 </wgt>
<wgt id='morphing_basis_vector_2'> +2.0334512e-04 </wgt>
<wgt id='morphing_basis_vector_3'> +1.6339509e-04 </wgt>
<wgt id='morphing_basis_vector_4'> +3.6091944e-05 </wgt>
<wgt id='morphing_basis_vector_5'> +1.5075139e-05 </wgt>
</rwgt>
</event>
<event>
 4      1 +5.5534000e-05 3.38303200e+02 7.81860800e-03 9.85857000e-02
        2 -1    0    0  501    0 +0.0000000000e+00 +0.0000000000e+00 +3.8184463722e+02 3.8184463722e+02 0.0000000000e+00 0.0000e+00 -1.0000e+00
       -2 -1    0    0    0  501 -0.0000000000e+00 -0.0000000000e+00 -7.4931692629e+01 7.4931692629e+01 0.0000000000e+00 0.0000e+00 1.0000e+00
      -13  1    1    2    0    0 -1.1363452441e+02 -3.0831567576e+01 -1.0518253280e+01 1.1821177754e+02 0.0000000000e+00 0.0000e+00 1.0000e+00
       13  1    1    2    0    0 +1.1363452441e+02 +3.0831567576e+01 +3.1743119787e+02 3.3856455231e+02 0.0000000000e+00 0.0000e+00 -1.0000e+00
<mgrwt>
<rscale>  0 0.33830321E+03</rscale>
<asrwt>0</asrwt>
<pdfrwt beam="1">  1        2 0.58745328E-01 0.33830321E+03</pdfrwt>
<pdfrwt beam="2">  1       -2 0.11527953E-01 0.33830321E+03</pdfrwt>
<totfact> 0.47695608E+03</totfact>
</mgrwt>
<rwgt>
<wgt id='morphing_basis_vector_1'> +2.9021117e-04 </wgt>
<wgt id='morphing_basis_vector_2'> +1.5816043e-04 </wgt>
<wgt id='morphing_basis_vector_3'> +1.7404381e-04 </wgt>
<wgt id='morphing_basis_vector_4'> +2.9917808e-05 </wgt>
<wgt id='morphing_basis_vector_5'> +1.1965398e-05 </wgt>
</rwgt>
</event>
<event>
 4      1 +5.5534000e-05 3.15175700e+02 7.81860800e-03 9.94673500e-02
        2 -1    0    0  501    0 +0.0000000000e+00 +0.0000000000e+00 +4.0290667719e+02 4.0290667719e+02 0.0000000000e+00 0.0000e+00 -1.0000e+00
       -2 -1    0    0    0  501 -0.0000000000e+00 -0.0000000000e+00 -6.1636942657e+01 6.1636942657e+01 0.0000000000e+00 0.0000e+00 1.0000e+00
      -13  1    1    2    0    0 +7.9562853459e+01 +3.4997764782e+01 -2.3110388340e+01 8.9939875692e+01 0.0000000000e+00 0.0000e+00 1.0000e+00
       13  1    1    2    0    0 -7.9562853459e+01 -3.4997764782e+01 +3.6438012287e+02 3.7460374416e+02 0.0000000000e+00 0.0000e+00 -1.0000e+00
<mgrwt>
<rscale>  0 0.31517573E+03</rscale>
<asrwt>0</asrwt>
<pdfrwt beam="1">  1        2 0.61985641E-01 0.31517573E+03</pdfrwt>
<pdfrwt beam="2">  1       -2 0.94826068E-02 0.31517573E+03</pdfrwt>
<totfact> 0.60692920E+03</totfact>
</mgrwt>
<rwgt>
<wgt id='morphing_basis_vector_1'> +2.4724117e-04 </wgt>
<wgt id='morphing_basis_vector_2'> +1.3621278e-04 </wgt>
<wgt id='morphing_basis_vector_3'> +1.4621846e-04 </wgt>
<wgt id='morphing_basis_vector_4'> +2.4501886e-05 </wgt>
<wgt id='morphing_basis_vector_5'> +3.8982448e-06 </wgt>
</rwgt>
</event>
<event>
 4      1 +5.5534000e-05 3.34852500e+02 7.81860800e-03 9.87123000e-02
        2 -1    0    0  501    0 +0.0000000000e+00 +0.0000000000e+00 +6.3047582683e+02 6.3047582683e+02 0.0000000000e+00 0.0000e+00 1.0000e+00
       -2 -1    0    0    0  501 -0.0000000000e+00 -0.0000000000e+00 -4.4460938232e+01 4.4460938232e+01 0.0000000000e+00 0.0000e+00 -1.0000e+00
      -13  1    1    2    0    0 -8.2396504798e+01 -6.9378498909e+01 +3.4653588706e+01 1.1315224843e+02 0.0000000000e+00 0.0000e+00 -1.0000e+00
       13  1    1    2    0    0 +8.2396504798e+01 +6.9378498909e+01 +5.5136129989e+02 5.6178451663e+02 0.0000000000e+00 0.0000e+00 1.0000e+00
<mgrwt>
<rscale>  0 0.33485249E+03</rscale>
<asrwt>0</asrwt>
<pdfrwt beam="1">  1        2 0.96996274E-01 0.33485249E+03</pdfrwt>
<pdfrwt beam="2">  1       -2 0.68401448E-02 0.33485249E+03</pdfrwt>
<totfact> 0.60686742E+03</totfact>
</mgrwt>
<rwgt>
<wgt id='morphing_basis_vector_1'> +2.8332270e-04 </wgt>
<wgt id='morphing_basis_vector_2'> +1.5444954e-04 </wgt>
<wgt id='morphing_basis_vector_3'> +1.6960023e-04 </wgt>
<wgt id='morphing_basis_vector_4'> +2.8884541e-05 </wgt>
<wgt id='morphing_basis_vector_5'> +1.0435609e-05 </wgt>
</rwgt>
</event>
<event>
 4      1 +5.5534000e-05 3.20696100e+02 7.81860800e-03 9.92495800e-02
        2 -1    0    0  501    0 +0.0000000000e+00 +0.0000000000e+00 +2.5205086748e+02 2.5205086748e+02 0.0000000000e+00 0.0000e+00 -1.0000e+00
       -2 -1    0    0    0  501 -0.0000000000e+00 -0.0000000000e+00 -1.0200918513e+02 1.0200918513e+02 0.0000000000e+00 0.0000e+00 1.0000e+00
      -13  1    1    2    0    0 -6.5514285183e+01 -1.2188236271e+02 -1.4426998207e+01 1.3912429759e+02 0.0000000000e+00 0.0000e+00 1.0000e+00
       13  1    1    2    0    0 +6.5514285183e+01 +1.2188236271e+02 +1.6446868055e+02 2.1493575502e+02 0.0000000000e+00 0.0000e+00 -1.0000e+00
<mgrwt>
<rscale>  0 0.32069614E+03</rscale>
<asrwt>0</asrwt>
<pdfrwt beam="1">  1        2 0.38777056E-01 0.32069614E+03</pdfrwt>
<pdfrwt beam="2">  1       -2 0.15693721E-01 0.32069614E+03</pdfrwt>
<totfact> 0.46284459E+03</totfact>
</mgrwt>
<rwgt>
<wgt id='morphing_basis_vector_1'> +2.5768284e-04 </wgt>
<wgt id='morphing_basis_vector_2'> +1.4333137e-04 </wgt>
<wgt id='morphing_basis_vector_3'> +1.5128808e-04 </wgt>
<wgt id='morphing_basis_vector_4'> +2.5860517e-05 </wgt>
<wgt id='morphing_basis_vector_5'> +5.4181693e-06 </wgt>
</rwgt>
</event>
<event>
 4      1 +5.5534000e-05 3.00375800e+02 7.81860800e-03 1.00075400e-01
        2 -1    0    0  501    0 +0.0000000000e+00 +0.0000000000e+00 +2.1353567818e+02 2.1353567818e+02 0.0000000000e+00 0.0000e+00 -1.0000e+00
       -2 -1    0    0    0  501 -0.0000000000e+00 -0.0000000000e+00 -1.0563296149e+02 1.0563296149e+02 0.0000000000e+00 0.0000e+00 1.0000e+00
      -13  1    1    2    0    0 +3.0393889201e+01 +1.4127968495e+02 +1.0494316170e+01 1.4489261042e+02 0.0000000000e+00 0.0000e+00 1.0000e+00
       13  1    1    2    0    0 -3.0393889201e+01 -1.4127968495e+02 +9.7408400520e+01 1.7427602926e+02 0.0000000000e+00 0.0000e+00 -1.0000e+00
<mgrwt>
<rscale>  0 0.30037581E+03</rscale>
<asrwt>0</asrwt>
<pdfrwt beam="1">  1        2 0.32851643E-01 0.30037581E+03</pdfrwt>
<pdfrwt beam="2">  1       -2 0.16251225E-01 0.30037581E+03</pdfrwt>
<totfact> 0.52559237E+03</totfact>
</mgrwt>
<rwgt>
<wgt id='morphing_basis_vector_1'> +2.2521963e-04 </wgt>
<wgt id='morphing_basis_vector_2'> +1.3049967e-04 </wgt>
<wgt id='morphing_basis_vector_3'> +1.2800911e-04 </wgt>
<wgt id='morphing_basis_vector_4'> +2.3747934e-05 </wgt>
<wgt id='morphing_basis_vector_5'> +1.2453763e-06 </wgt>
</rwgt>
</event>
<event>
 4      1 +5.5534000e-05 3.15871500e+02 7.81860800e-03 9.94396400e-02
        2 -1    0    0  501    0 +0.0000000000e+00 +0.0000000000e+00 +4.9332639460e+02 4.9332639460e+02 0.0000000000e+00 0.0000e+00 -1.0000e+00
       -2 -1    0    0    0  501 -0.0000000000e+00 -0.0000000000e+00 -5.0562266208e+01 5.0562266208e+01 0.0000000000e+00 0.0000e+00 1.0000e+00
      -13  1    1    2    0    0 -1.1645875814e+02 -7.1113987918e+01 +8.4454572768e+01 1.6047559468e+02 0.0000000000e+00 0.0000e+00 1.0000e+00
       13  1    1    2    0    0 +1.1645875814e+02 +7.1113987918e+01 +3.5830955562e+02 3.8341306612e+02 0.0000000000e+00 0.0000e+00 -1.0000e+00
<mgrwt>
<rscale>  0 0.31587150E+03</rscale>
<asrwt>0</asrwt>
<pdfrwt beam="1">  1        2 0.75896365E-01 0.31587150E+03</pdfrwt>
<pdfrwt beam="2">  1       -2 0.77788105E-02 0.31587150E+03</pdfrwt>
<totfact> 0.65742831E+03</totfact>
</mgrwt>
<rwgt>
<wgt id='morphing_basis_vector_1'> +2.4921838e-04 </wgt>
<wgt id='morphing_basis_vector_2'> +1.3907215e-04 </wgt>
<wgt id='morphing_basis_vector_3'> +1.4588610e-04 </wgt>
<wgt id='morphing_basis_vector_4'> +2.4986018e-05 </wgt>
<wgt id='morphing_basis_vector_5'> +4.1076837e-06 </wgt>
</rwgt>
</event>
<event>
 4      1 +5.5534000e-05 3.29080500e+02 7.81860800e-03 9.89278200e-02
        2 -1    0    0  501    0 +0.0000000000e+00 +0.0000000000e+00 +1.0768155554e+03 1.0768155554e+03 0.0000000000e+00 0.0000e+00 -1.0000e+00
       -2 -1    0    0    0  501 -0.0000000000e+00 -0.0000000000e+00 -2.5142180777e+01 2.5142180777e+01 0.0000000000e+00 0.0000e+00 1.0000e+00
      -13  1    1    2    0    0 +1.1859525513e+02 -8.7999747269e+01 +7.6880502231e+02 7.8286011036e+02 0.0000000000e+00 0.0000e+00 1.0000e+00
       13  1    1    2    0    0 -1.1859525513e+02 +8.7999747269e+01 +2.8286835227e+02 3.1909762578e+02 0.0000000000e+00 0.0000e+00 -1.0000e+00
<mgrwt>
<rscale>  0 0.32908048E+03</rscale>
<asrwt>0</asrwt>
<pdfrwt beam="1">  1        2 0.16566390E+00 0.32908048E+03</pdfrwt>
<pdfrwt beam="2">  1       -2 0.38680287E-02 0.32908048E+03</pdfrwt>
<totfact> 0.72240061E+03</totfact>
</mgrwt>
<rwgt>
<wgt id='morphing_basis_vector_1'> +3.0841466e-04 </wgt>
<wgt id='morphing_basis_vector_2'> +2.5505293e-04 </wgt>
<wgt id='morphing_basis_vector_3'> +1.1405573e-04 </wgt>
<wgt id='morphing_basis_vector_4'> +4.2211999e-05 </wgt>
<wgt id='morphing_basis_vector_5'> +1.0138335e-05 </wgt>
</rwgt>
</event>
<event>
 4      1 +5.5534000e-05 3.10121700e+02 7.81860800e-03 9.96709600e-02
        2 -1    0    0  501    0 +0.0000000000e+00 +0.0000000000e+00 +1.1389376330e+03 1.1389376330e+03 0.0000000000e+00 0.0000e+00 1.0000e+00
       -2 -1    0    0    0  501 -0.0000000000e+00 -0.0000000000e+00 -2.1110784528e+01 2.1110784528e+01 0.0000000000e+00 0.0000e+00 -1.0000e+00
      -13  1    1    2    0    0 +1.4849321918e+02 +4.4427429605e+01 +5.4225428369e+02 5.6397140072e+02 0.0000000000e+00 0.0000e+00 1.0000e+00
       13  1    1    2    0    0 -1.4849321918e+02 -4.4427429605e+01 +5.7557256478e+02 5.9607701681e+02 0.0000000000e+00 0.0000e+00 -1.0000e+00
<mgrwt>
<rscale>  0 0.31012170E+03</rscale>
<asrwt>0</asrwt>
<pdfrwt beam="1">  1        2 0.17522113E+00 0.31012170E+03</pdfrwt>
<pdfrwt beam="2">  1       -2 0.32478139E-02 0.31012170E+03</pdfrwt>
<totfact> 0.86055300E+03</totfact>
</mgrwt>
<rwgt>
<wgt id='morphing_basis_vector_1'> +2.4483475e-04 </wgt>
<wgt id='morphing_basis_vector_2'> +1.4965990e-04 </wgt>
<wgt id='morphing_basis_vector_3'> +1.3211876e-04 </wgt>
<wgt id='morphing_basis_vector_4'> +2.6755497e-05 </wgt>
<wgt id='morphing_basis_vector_5'> +3.0388248e-06 </wgt>
</rwgt>
</event>
<event>
 4      1 +5.5534000e-05 3.34456500e+02 7.81860800e-03 9.87269300e-02
        2 -1    0    0  501    0 +0.0000000000e+00 +0.0000000000e+00 +8.9900978560e+02 8.9900978560e+02 0.0000000000e+00 0.0000e+00 1.0000e+00
       -2 -1    0    0    0  501 -0.0000000000e+00 -0.0000000000e+00 -3.1106773894e+01 3.1106773894e+01 0.0000000000e+00 0.0000e+00 -1.0000e+00
      -13  1    1    2    0    0 +9.5103753173e+01 -1.3693636579e+02 +3.9779856838e+02 4.3132353651e+02 0.0000000000e+00 0.0000e+00 -1.0000e+00
       13  1    1    2    0    0 -9.5103753173e+01 +1.3693636579e+02 +4.7010444333e+02 4.9879302299e+02 0.0000000000e+00 0.0000e+00 1.0000e+00
<mgrwt>
<rscale>  0 0.33445654E+03</rscale>
<asrwt>0</asrwt>
<pdfrwt beam="1">  1        2 0.13830918E+00 0.33445654E+03</pdfrwt>
<pdfrwt beam="2">  1       -2 0.47856582E-02 0.33445654E+03</pdfrwt>
<totfact> 0.67379650E+03</totfact>
</mgrwt>
<rwgt>
<wgt id='morphing_basis_vector_1'> +2.8865472e-04 </wgt>
<wgt id='morphing_basis_vector_2'> +1.7207060e-04 </wgt>
<wgt id='morphing_basis_vector_3'> +1.6110925e-04 </wgt>
<wgt id='morphing_basis_vector_4'> +3.1127485e-05 </wgt>
<wgt id='morphing_basis_vector_5'> +1.0618768e-05 </wgt>
</rwgt>
</event>
<event>
 4      1 +5.5534000e-05 3.05112000e+02 7.81860800e-03 9.98768700e-02
        2 -1    0    0  501    0 +0.0000000000e+00 +0.0000000000e+00 +2.1664051814e+02 2.1664051814e+02 0.0000000000e+00 0.0000e+00 -1.0000e+00
       -2 -1    0    0    0  501 -0.0000000000e+00 -0.0000000000e+00 -1.0742833763e+02 1.0742833763e+02 0.0000000000e+00 0.0000e+00 1.0000e+00
      -13  1    1    2    0    0 +4.2598198813e+01 -1.4617259623e+02 +6.4810083683e+01 1.6547320441e+02 0.0000000000e+00 0.0000e+00 1.0000e+00
       13  1    1    2    0    0 -4.2598198813e+01 +1.4617259623e+02 +4.4402096822e+01 1.5859565137e+02 0.0000000000e+00 0.0000e+00 -1.0000e+00
<mgrwt>
<rscale>  0 0.30511198E+03</rscale>
<asrwt>0</asrwt>
<pdfrwt beam="1">  1        2 0.33329311E-01 0.30511198E+03</pdfrwt>
<pdfrwt beam="2">  1       -2 0.16527437E-01 0.30511198E+03</pdfrwt>
<totfact> 0.50370534E+03</totfact>
</mgrwt>
<rwgt>
<wgt id='morphing_basis_vector_1'> +2.3878330e-04 </wgt>
<wgt id='morphing_basis_vector_2'> +1.5163913e-04 </wgt>
<wgt id='morphing_basis_vector_3'> +1.2382893e-04 </wgt>
<wgt id='morphing_basis_vector_4'> +2.7338013e-05 </wgt>
<wgt id='morphing_basis_vector_5'> +2.1859256e-06 </wgt>
</rwgt>
</event>
<event>
 4      1 +5.5534000e-05 3.52145700e+02 7.81860800e-03 9.80938000e-02
        2 -1    0    0  501    0 +0.0000000000e+00 +0.0000000000e+00 +2.6299824203e+02 2.6299824203e+02 0.0000000000e+00 0.0000e+00 -1.0000e+00
       -2 -1    0    0    0  501 -0.0000000000e+00 -0.0000000000e+00 -1.1787776487e+02 1.1787776487e+02 0.0000000000e+00 0.0000e+00 1.0000e+00
      -13  1    1    2    0    0 +1.6351871470e+02 +6.1296860892e+01 +4.8231280204e+01 1.8116824115e+02 0.0000000000e+00 0.0000e+00 1.0000e+00
       13  1    1    2    0    0 -1.6351871470e+02 -6.1296860892e+01 +9.6889196960e+01 1.9970776574e+02 0.0000000000e+00 0.0000e+00 -1.0000e+00
<mgrwt>
<rscale>  0 0.35214568E+03</rscale>
<asrwt>0</asrwt>
<pdfrwt beam="1">  1        2 0.40461268E-01 0.35214568E+03</pdfrwt>
<pdfrwt beam="2">  1       -2 0.18135041E-01 0.35214568E+03</pdfrwt>
<totfact> 0.35085308E+03</totfact>
</mgrwt>
<rwgt>
<wgt id='morphing_basis_vector_1'> +3.2472183e-04 </wgt>
<wgt id='morphing_basis_vector_2'> +1.8992403e-04 </wgt>
<wgt id='morphing_basis_vector_3'> +1.8684533e-04 </wgt>
<wgt id='morphing_basis_vector_4'> +3.6423816e-05 </wgt>
<wgt id='morphing_basis_vector_5'> +1.9689383e-05 </wgt>
</rwgt>
</event>
<event>
 4      1 +5.5534000e-05 3.24148500e+02 7.81860800e-03 9.91158100e-02
        2 -1    0    0  501    0 +0.0000000000e+00 +0.0000000000e+00 +4.2521205783e+02 4.2521205783e+02 0.0000000000e+00 0.0000e+00 -1.0000e+00
       -2 -1    0    0    0  501 -0.0000000000e+00 -0.0000000000e+00 -6.1776364786e+01 6.1776364786e+01 0.0000000000e+00 0.0000e+00 1.0000e+00
      -13  1    1    2    0    0 +1.1804105396e+02 +8.0034334810e-01 +1.4869542013e+01 1.1897661219e+02 0.0000000000e+00 0.0000e+00 1.0000e+00
       13  1    1    2    0    0 -1.1804105396e+02 -8.0034334810e-01 +3.4856615103e+02 3.6801181043e+02 0.0000000000e+00 0.0000e+00 -1.0000e+00
<mgrwt>
<rscale>  0 0.32414845E+03</rscale>
<asrwt>0</asrwt>
<pdfrwt beam="1">  1        2 0.65417238E-01 0.32414845E+03</pdfrwt>
<pdfrwt beam="2">  1       -2 0.95040564E-02 0.32414845E+03</pdfrwt>
<totfact> 0.57056737E+03</totfact>
</mgrwt>
<rwgt>
<wgt id='morphing_basis_vector_1'> +2.6330663e-04 </wgt>
<wgt id='morphing_basis_vector_2'> +1.4472450e-04 </wgt>
<wgt id='morphing_basis_vector_3'> +1.5611718e-04 </wgt>
<wgt id='morphing_basis_vector_4'> +2.6305166e-05 </wgt>
<wgt id='morphing_basis_vector_5'> +6.4500360e-06 </wgt>
</rwgt>
</event>
<event>
 4      1 +5.5534000e-05 3.06107800e+02 7.81860800e-03 9.98356100e-02
        2 -1    0    0  501    0 +0.0000000000e+00 +0.0000000000e+00 +6.3089104469e+01 6.3089104469e+01 0.0000000000e+00 0.0000e+00 1.0000e+00
       -2 -1    0    0    0  501 -0.0000000000e+00 -0.0000000000e+00 -3.7130801519e+02 3.7130801519e+02 0.0000000000e+00 0.0000e+00 -1.0000e+00
      -13  1    1    2    0    0 -6.2666468167e+01 +1.2860904859e+02 -2.3129220359e+02 2.7196223461e+02 0.0000000000e+00 0.0000e+00 -1.0000e+00
       13  1    1    2    0    0 +6.2666468167e+01 -1.2860904859e+02 -7.6926707131e+01 1.6243488505e+02 0.0000000000e+00 0.0000e+00 1.0000e+00
<mgrwt>
<rscale>  0 0.30610776E+03</rscale>
<asrwt>0</asrwt>
<pdfrwt beam="1">  1        2 0.97060159E-02 0.30610776E+03</pdfrwt>
<pdfrwt beam="2">  1       -2 0.57124311E-01 0.30610776E+03</pdfrwt>
<totfact> 0.24772628E+03</totfact>
</mgrwt>
<rwgt>
<wgt id='morphing_basis_vector_1'> +2.3370163e-04 </wgt>
<wgt id='morphing_basis_vector_2'> +1.3325040e-04 </wgt>
<wgt id='morphing_basis_vector_3'> +1.3450371e-04 </wgt>
<wgt id='morphing_basis_vector_4'> +2.4001515e-05 </wgt>
<wgt id='morphing_basis_vector_5'> +2.0842276e-06 </wgt>
</rwgt>
</event>
<event>
 4      1 +5.5534000e-05 3.57884900e+02 7.81860800e-03 9.78969700e-02
        2 -1    0    0  501    0 +0.0000000000e+00 +0.0000000000e+00 +6.9912788120e+02 6.9912788120e+02 0.0000000000e+00 0.0000e+00 -1.0000e+00
       -2 -1    0    0    0  501 -0.0000000000e+00 -0.0000000000e+00 -4.5800496526e+01 4.5800496526e+01 0.0000000000e+00 0.0000e+00 1.0000e+00
      -13  1    1    2    0    0 -5.5485052319e+01 +1.7003714577e+02 +3.1541946652e+02 3.6260262248e+02 0.0000000000e+00 0.0000e+00 -1.0000e+00
       13  1    1    2    0    0 +5.5485052319e+01 -1.7003714577e+02 +3.3790791816e+02 3.8232575525e+02 0.0000000000e+00 0.0000e+00 1.0000e+00
<mgrwt>
<rscale>  0 0.35788492E+03</rscale>
<asrwt>0</asrwt>
<pdfrwt beam="1">  1        2 0.10755813E+00 0.35788492E+03</pdfrwt>
<pdfrwt beam="2">  1       -2 0.70462307E-02 0.35788492E+03</pdfrwt>
<totfact> 0.51484525E+03</totfact>
</mgrwt>
<rwgt>
<wgt id='morphing_basis_vector_1'> +3.4045977e-04 </wgt>
<wgt id='morphing_basis_vector_2'> +2.0566237e-04 </wgt>
<wgt id='morphing_basis_vector_3'> +1.9229794e-04 </wgt>
<wgt id='morphing_basis_vector_4'> +3.9470767e-05 </wgt>
<wgt id='morphing_basis_vector_5'> +2.3565585e-05 </wgt>
</rwgt>
</event>
<event>
 4      1 +5.5534000e-05 3.43839700e+02 7.81860800e-03 9.83859500e-02
        2 -1    0    0  501    0 +0.0000000000e+00 +0.0000000000e+00 +1.0548110177e+02 1.0548110177e+02 0.0000000000e+00 0.0000e+00 -1.0000e+00
       -2 -1    0    0    0  501 -0.0000000000e+00 -0.0000000000e+00 -2.8020593885e+02 2.8020593885e+02 0.0000000000e+00 0.0000e+00 1.0000e+00
      -13  1    1    2    0    0 -1.5226852398e+02 -6.7031270428e+01 -3.8758279652e+01 1.7082476065e+02 0.0000000000e+00 0.0000e+00 1.0000e+00
       13  1    1    2    0    0 +1.5226852398e+02 +6.7031270428e+01 -1.3596655743e+02 2.1486227996e+02 0.0000000000e+00 0.0000e+00 -1.0000e+00
<mgrwt>
<rscale>  0 0.34383968E+03</rscale>
<asrwt>0</asrwt>
<pdfrwt beam="1">  1        2 0.16227862E-01 0.34383968E+03</pdfrwt>
<pdfrwt beam="2">  1       -2 0.43108605E-01 0.34383968E+03</pdfrwt>
<totfact> 0.22633990E+03</totfact>
</mgrwt>
<rwgt>
<wgt id='morphing_basis_vector_1'> +3.2309860e-04 </wgt>
<wgt id='morphing_basis_vector_2'> +2.2826338e-04 </wgt>
<wgt id='morphing_basis_vector_3'> +1.5440062e-04 </wgt>
<wgt id='morphing_basis_vector_4'> +3.9067240e-05 </wgt>
<wgt id='morphing_basis_vector_5'> +1.5981980e-05 </wgt>
</rwgt>
</event>
<event>
 4      1 +5.5534000e-05 3.09758300e+02 7.81860800e-03 9.96857600e-02
        2 -1    0    0  501    0 +0.0000000000e+00 +0.0000000000e+00 +3.3840896202e+02 3.3840896202e+02 0.0000000000e+00 0.0000e+00 -1.0000e+00
       -2 -1    0    0    0  501 -0.0000000000e+00 -0.0000000000e+00 -7.0883309963e+01 7.0883309963e+01 0.0000000000e+00 0.0000e+00 1.0000e+00
      -13  1    1    2    0    0 +9.3630573694e+01 -5.8152766617e+01 -1.0007850008e+01 1.1067332857e+02 0.0000000000e+00 0.0000e+00 1.0000e+00
       13  1    1    2    0    0 -9.3630573694e+01 +5.8152766617e+01 +2.7753350206e+02 2.9861894341e+02 0.0000000000e+00 0.0000e+00 -1.0000e+00
<mgrwt>
<rscale>  0 0.30975828E+03</rscale>
<asrwt>0</asrwt>
<pdfrwt beam="1">  1        2 0.52062916E-01 0.30975828E+03</pdfrwt>
<pdfrwt beam="2">  1       -2 0.10905125E-01 0.30975828E+03</pdfrwt>
<totfact> 0.59210129E+03</totfact>
</mgrwt>
<rwgt>
<wgt id='morphing_basis_vector_1'> +2.3828711e-04 </wgt>
<wgt id='morphing_basis_vector_2'> +1.3221000e-04 </wgt>
<wgt id='morphing_basis_vector_3'> +1.4021662e-04 </wgt>
<wgt id='morphing_basis_vector_4'> +2.3763367e-05 </wgt>
<wgt id='morphing_basis_vector_5'> +2.7039862e-06 </wgt>
</rwgt>
</event>
<event>
 4      1 +5.5534000e-05 3.00550600e+02 7.81860800e-03 1.00068000e-01
        2 -1    0    0  501    0 +0.0000000000e+00 +0.0000000000e+00 +8.0442779731e+01 8.0442779731e+01 0.0000000000e+00 0.0000e+00 -1.0000e+00
       -2 -1    0    0    0  501 -0.0000000000e+00 -0.0000000000e+00 -2.8072953394e+02 2.8072953394e+02 0.0000000000e+00 0.0000e+00 1.0000e+00
      -13  1    1    2    0    0 -6.3054677546e+01 +1.0451889200e+02 -2.0547292354e+02 2.3899626242e+02 0.0000000000e+00 0.0000e+00 1.0000e+00
       13  1    1    2    0    0 +6.3054677546e+01 -1.0451889200e+02 +5.1861693324e+00 1.2217605124e+02 0.0000000000e+00 0.0000e+00 -1.0000e+00
<mgrwt>
<rscale>  0 0.30055059E+03</rscale>
<asrwt>0</asrwt>
<pdfrwt beam="1">  1        2 0.12375812E-01 0.30055059E+03</pdfrwt>
<pdfrwt beam="2">  1       -2 0.43189159E-01 0.30055059E+03</pdfrwt>
<totfact> 0.31266580E+03</totfact>
</mgrwt>
<rwgt>
<wgt id='morphing_basis_vector_1'> +2.2377816e-04 </wgt>
<wgt id='morphing_basis_vector_2'> +1.2574420e-04 </wgt>
<wgt id='morphing_basis_vector_3'> +1.3068974e-04 </wgt>
<wgt id='morphing_basis_vector_4'> +2.2847492e-05 </wgt>
<wgt id='morphing_basis_vector_5'> +1.2054920e-06 </wgt>
</rwgt>
</event>
<event>
 4      1 +5.5534000e-05 3.20087300e+02 7.81860800e-03 9.92733600e-02
        2 -1    0    0  501    0 +0.0000000000e+00 +0.0000000000e+00 +6.2168548827e+01 6.2168548827e+01 0.0000000000e+00 0.0000e+00 -1.0000e+00
       -2 -1    0    0    0  501 -0.0000000000e+00 -0.0000000000e+00 -4.1200855619e+02 4.1200855619e+02 0.0000000000e+00 0.0000e+00 1.0000e+00
      -13  1    1    2    0    0 -7.3101085044e+01 -3.8378414032e+01 -3.7802465563e+02 3.8693579773e+02 0.0000000000e+00 0.0000e+00 1.0000e+00
       13  1    1    2    0    0 +7.3101085044e+01 +3.8378414032e+01 +2.8184648274e+01 8.7241307283e+01 0.0000000000e+00 0.0000e+00 -1.0000e+00
<mgrwt>
<rscale>  0 0.32008733E+03</rscale>
<asrwt>0</asrwt>
<pdfrwt beam="1">  1        2 0.95643918E-02 0.32008733E+03</pdfrwt>
<pdfrwt beam="2">  1       -2 0.63385934E-01 0.32008733E+03</pdfrwt>
<totfact> 0.20496944E+03</totfact>
</mgrwt>
<rwgt>
<wgt id='morphing_basis_vector_1'> +2.5577925e-04 </wgt>
<wgt id='morphing_basis_vector_2'> +1.4039336e-04 </wgt>
<wgt id='morphing_basis_vector_3'> +1.5172467e-04 </wgt>
<wgt id='morphing_basis_vector_4'> +2.5372761e-05 </wgt>
<wgt id='morphing_basis_vector_5'> +5.2002622e-06 </wgt>
</rwgt>
</event>
<event>
 4      1 +5.5534000e-05 3.40346400e+02 7.81860800e-03 9.85115100e-02
        2 -1    0    0  501    0 +0.0000000000e+00 +0.0000000000e+00 +6.1415626840e+01 6.1415626840e+01 0.0000000000e+00 0.0000e+00 -1.0000e+00
       -2 -1    0    0    0  501 -0.0000000000e+00 -0.0000000000e+00 -4.7152350440e+02 4.7152350440e+02 0.0000000000e+00 0.0000e+00 1.0000e+00
      -13  1    1    2    0    0 -1.5905852202e+01 +7.4021521842e+01 -4.4369794437e+02 4.5011115035e+02 0.0000000000e+00 0.0000e+00 1.0000e+00
       13  1    1    2    0    0 +1.5905852202e+01 -7.4021521842e+01 +3.3590066811e+01 8.2827980890e+01 0.0000000000e+00 0.0000e+00 -1.0000e+00
<mgrwt>
<rscale>  0 0.34034636E+03</rscale>
<asrwt>0</asrwt>
<pdfrwt beam="1">  1        2 0.94485580E-02 0.34034636E+03</pdfrwt>
<pdfrwt beam="2">  1       -2 0.72542078E-01 0.34034636E+03</pdfrwt>
<totfact> 0.15731046E+03</totfact>
</mgrwt>
<rwgt>
<wgt id='morphing_basis_vector_1'> +2.9408265e-04 </wgt>
<wgt id='morphing_basis_vector_2'> +1.5957589e-04 </wgt>
<wgt id='morphing_basis_vector_3'> +1.7709629e-04 </wgt>
<wgt id='morphing_basis_vector_4'> +3.0464497e-05 </wgt>
<wgt id='morphing_basis_vector_5'> +1.2911555e-05 </wgt>
</rwgt>
</event>
<event>
 4      1 +5.5534000e-05 3.35812400e+02 7.81860800e-03 9.86769200e-02
        2 -1    0    0  501    0 +0.0000000000e+00 +0.0000000000e+00 +6.9319928878e+02 6.9319928878e+02 0.0000000000e+00 0.0000e+00 -1.0000e+00
       -2 -1    0    0    0  501 -0.0000000000e+00 -0.0000000000e+00 -4.0670104668e+01 4.0670104668e+01 0.0000000000e+00 0.0000e+00 1.0000e+00
      -13  1    1    2    0    0 -9.7635135535e+01 +8.6037545493e+01 +9.4396335037e+01 1.6076612514e+02 0.0000000000e+00 0.0000e+00 1.0000e+00
       13  1    1    2    0    0 +9.7635135535e+01 -8.6037545493e+01 +5.5813284907e+02 5.7310326830e+02 0.0000000000e+00 0.0000e+00 -1.0000e+00
<mgrwt>
<rscale>  0 0.33581237E+03</rscale>
<asrwt>0</asrwt>
<pdfrwt beam="1">  1        2 0.10664604E+00 0.33581237E+03</pdfrwt>
<pdfrwt beam="2">  1       -2 0.62569397E-02 0.33581237E+03</pdfrwt>
<totfact> 0.62165739E+03</totfact>
</mgrwt>
<rwgt>
<wgt id='morphing_basis_vector_1'> +2.8550421e-04 </wgt>
<wgt id='morphing_basis_vector_2'> +1.5630104e-04 </wgt>
<wgt id='morphing_basis_vector_3'> +1.7045779e-04 </wgt>
<wgt id='morphing_basis_vector_4'> +2.9271036e-05 </wgt>
<wgt id='morphing_basis_vector_5'> +1.0865409e-05 </wgt>
</rwgt>
</event>
<event>
 4      1 +5.5534000e-05 3.46627300e+02 7.81860800e-03 9.82869100e-02
        2 -1    0    0  501    0 +0.0000000000e+00 +0.0000000000e+00 +1.6125741395e+02 1.6125741395e+02 0.0000000000e+00 0.0000e+00 -1.0000e+00
       -2 -1    0    0    0  501 -0.0000000000e+00 -0.0000000000e+00 -1.8627128570e+02 1.8627128570e+02 0.0000000000e+00 0.0000e+00 1.0000e+00
      -13  1    1    2    0    0 -2.9092412908e+01 +1.3216344014e+02 -1.2106630473e+02 1.8157806459e+02 0.0000000000e+00 0.0000e+00 1.0000e+00
       13  1    1    2    0    0 +2.9092412908e+01 -1.3216344014e+02 +9.6052432978e+01 1.6595063507e+02 0.0000000000e+00 0.0000e+00 -1.0000e+00
<mgrwt>
<rscale>  0 0.34662733E+03</rscale>
<asrwt>0</asrwt>
<pdfrwt beam="1">  1        2 0.24808833E-01 0.34662733E+03</pdfrwt>
<pdfrwt beam="2">  1       -2 0.28657121E-01 0.34662733E+03</pdfrwt>
<totfact> 0.28455898E+03</totfact>
</mgrwt>
<rwgt>
<wgt id='morphing_basis_vector_1'> +3.0751504e-04 </wgt>
<wgt id='morphing_basis_vector_2'> +1.6767140e-04 </wgt>
<wgt id='morphing_basis_vector_3'> +1.8527454e-04 </wgt>
<wgt id='morphing_basis_vector_4'> +3.2735536e-05 </wgt>
<wgt id='morphing_basis_vector_5'> +1.6164755e-05 </wgt>
</rwgt>
</event>
<event>
 4      1 +5.5534000e-05 3.46620100e+02 7.81860800e-03 9.82871700e-02
        2 -1    0    0  501    0 +0.0000000000e+00 +0.0000000000e+00 +1.3256962012e+02 1.3256962012e+02 0.0000000000e+00 0.0000e+00 1.0000e+00
       -2 -1    0    0    0  501 -0.0000000000e+00 -0.0000000000e+00 -2.2657058477e+02 2.2657058477e+02 0.0000000000e+00 0.0000e+00 -1.0000e+00
      -13  1    1    2    0    0 +7.2780221414e+01 +8.6123430858e+01 -1.8336815064e+02 2.1526282689e+02 0.0000000000e+00 0.0000e+00 -1.0000e+00
       13  1    1    2    0    0 -7.2780221414e+01 -8.6123430858e+01 +8.9367185985e+01 1.4387737801e+02 0.0000000000e+00 0.0000e+00 1.0000e+00
<mgrwt>
<rscale>  0 0.34662012E+03</rscale>
<asrwt>0</asrwt>
<pdfrwt beam="1">  1        2 0.20395327E-01 0.34662012E+03</pdfrwt>
<pdfrwt beam="2">  1       -2 0.34857012E-01 0.34662012E+03</pdfrwt>
<totfact> 0.25375146E+03</totfact>
</mgrwt>
<rwgt>
<wgt id='morphing_basis_vector_1'> +3.0715388e-04 </wgt>
<wgt id='morphing_basis_vector_2'> +1.6663322e-04 </wgt>
<wgt id='morphing_basis_vector_3'> +1.8569428e-04 </wgt>
<wgt id='morphing_basis_vector_4'> +3.2619627e-05 </wgt>
<wgt id='morphing_basis_vector_5'> +1.6139510e-05 </wgt>
</rwgt>
</event>
<event>
 4      1 +5.5534000e-05 3.01126300e+02 7.81860800e-03 1.00043700e-01
        2 -1    0    0  501    0 +0.0000000000e+00 +0.0000000000e+00 +4.3985561391e+02 4.3985561391e+02 0.0000000000e+00 0.0000e+00 -1.0000e+00
       -2 -1    0    0    0  501 -0.0000000000e+00 -0.0000000000e+00 -5.1537977023e+01 5.1537977023e+01 0.0000000000e+00 0.0000e+00 1.0000e+00
      -13  1    1    2    0    0 -2.2589329258e+01 +8.6418458630e+01 -3.6310602109e+00 8.9395818619e+01 0.0000000000e+00 0.0000e+00 1.0000e+00
       13  1    1    2    0    0 +2.2589329258e+01 -8.6418458630e+01 +3.9194869710e+02 4.0199777231e+02 0.0000000000e+00 0.0000e+00 -1.0000e+00
<mgrwt>
<rscale>  0 0.30112634E+03</rscale>
<asrwt>0</asrwt>
<pdfrwt beam="1">  1        2 0.67670092E-01 0.30112634E+03</pdfrwt>
<pdfrwt beam="2">  1       -2 0.79289198E-02 0.30112634E+03</pdfrwt>
<totfact> 0.72351242E+03</totfact>
</mgrwt>
<rwgt>
<wgt id='morphing_basis_vector_1'> +2.2428077e-04 </wgt>
<wgt id='morphing_basis_vector_2'> +1.2505398e-04 </wgt>
<wgt id='morphing_basis_vector_3'> +1.3181643e-04 </wgt>
<wgt id='morphing_basis_vector_4'> +2.2691199e-05 </wgt>
<wgt id='morphing_basis_vector_5'> +1.2663755e-06 </wgt>
</rwgt>
</event>
<event>
 4      1 +5.5534000e-05 3.06394200e+02 7.81860800e-03 9.98237700e-02
        2 -1    0    0  501    0 +0.0000000000e+00 +0.0000000000e+00 +9.8773358797e+02 9.8773358797e+02 0.0000000000e+00 0.0000e+00 -1.0000e+00
       -2 -1    0    0    0  501 -0.0000000000e+00 -0.0000000000e+00 -2.3760816665e+01 2.3760816665e+01 0.0000000000e+00 0.0000e+00 1.0000e+00
      -13  1    1    2    0    0 +5.5134842997e+01 -1.3817376122e+02 +3.6125153976e+02 3.9068467359e+02 0.0000000000e+00 0.0000e+00 1.0000e+00
       13  1    1    2    0    0 -5.5134842997e+01 +1.3817376122e+02 +6.0272123155e+02 6.2080973104e+02 0.0000000000e+00 0.0000e+00 -1.0000e+00
<mgrwt>
<rscale>  0 0.30639423E+03</rscale>
<asrwt>0</asrwt>
<pdfrwt beam="1">  1        2 0.15195898E+00 0.30639423E+03</pdfrwt>
<pdfrwt beam="2">  1       -2 0.36555110E-02 0.30639423E+03</pdfrwt>
<totfact> 0.88498746E+03</totfact>
</mgrwt>
<rwgt>
<wgt id='morphing_basis_vector_1'> +2.3520837e-04 </wgt>
<wgt id='morphing_basis_vector_2'> +1.3647727e-04 </wgt>
<wgt id='morphing_basis_vector_3'> +1.3328752e-04 </wgt>
<wgt id='morphing_basis_vector_4'> +2.4567025e-05 </wgt>
<wgt id='morphing_basis_vector_5'> +2.1768848e-06 </wgt>
</rwgt>
</event>
<event>
 4      1 +5.5534000e-05 3.19971200e+02 7.81860800e-03 9.92779100e-02
        2 -1    0    0  501    0 +0.0000000000e+00 +0.0000000000e+00 +3.9354370359e+02 3.9354370359e+02 0.0000000000e+00 0.0000e+00 -1.0000e+00
       -2 -1    0    0    0  501 -0.0000000000e+00 -0.0000000000e+00 -6.5038230937e+01 6.5038230937e+01 0.0000000000e+00 0.0000e+00 1.0000e+00
      -13  1    1    2    0    0 -9.8526286110e+01 -1.1734306289e+02 +9.8285730109e+01 1.8203545865e+02 0.0000000000e+00 0.0000e+00 1.0000e+00
       13  1    1    2    0    0 +9.8526286110e+01 +1.1734306289e+02 +2.3021974255e+02 2.7654647588e+02 0.0000000000e+00 0.0000e+00 -1.0000e+00
<mgrwt>
<rscale>  0 0.31997116E+03</rscale>
<asrwt>0</asrwt>
<pdfrwt beam="1">  1        2 0.60545184E-01 0.31997116E+03</pdfrwt>
<pdfrwt beam="2">  1       -2 0.10005882E-01 0.31997116E+03</pdfrwt>
<totfact> 0.57357467E+03</totfact>
</mgrwt>
<rwgt>
<wgt id='morphing_basis_vector_1'> +2.5793938e-04 </wgt>
<wgt id='morphing_basis_vector_2'> +1.4718543e-04 </wgt>
<wgt id='morphing_basis_vector_3'> +1.4832890e-04 </wgt>
<wgt id='morphing_basis_vector_4'> +2.6419543e-05 </wgt>
<wgt id='morphing_basis_vector_5'> +5.2861538e-06 </wgt>
</rwgt>
</event>
<event>
 4      1 +5.5534000e-05 3.28508100e+02 7.81860800e-03 9.89494500e-02
        2 -1    0    0  501    0 +0.0000000000e+00 +0.0000000000e+00 +3.3683760219e+02 3.3683760219e+02 0.0000000000e+00 0.0000e+00 1.0000e+00
       -2 -1    0    0    0  501 -0.0000000000e+00 -0.0000000000e+00 -8.0096122488e+01 8.0096122488e+01 0.0000000000e+00 0.0000e+00 -1.0000e+00
      -13  1    1    2    0    0 +1.1318527954e+02 +7.8869871418e+01 +1.5221791220e+01 1.3879145165e+02 0.0000000000e+00 0.0000e+00 -1.0000e+00
       13  1    1    2    0    0 -1.1318527954e+02 -7.8869871418e+01 +2.4151968849e+02 2.7814227303e+02 0.0000000000e+00 0.0000e+00 1.0000e+00
<mgrwt>
<rscale>  0 0.32850806E+03</rscale>
<asrwt>0</asrwt>
<pdfrwt beam="1">  1        2 0.51821169E-01 0.32850806E+03</pdfrwt>
<pdfrwt beam="2">  1       -2 0.12322481E-01 0.32850806E+03</pdfrwt>
<totfact> 0.49301940E+03</totfact>
</mgrwt>
<rwgt>
<wgt id='morphing_basis_vector_1'> +2.7180966e-04 </wgt>
<wgt id='morphing_basis_vector_2'> +1.5010992e-04 </wgt>
<wgt id='morphing_basis_vector_3'> +1.6076495e-04 </wgt>
<wgt id='morphing_basis_vector_4'> +2.7485983e-05 </wgt>
<wgt id='morphing_basis_vector_5'> +7.9709890e-06 </wgt>
</rwgt>
</event>
<event>
 4      1 +5.5534000e-05 3.10581600e+02 7.81860800e-03 9.96522600e-02
        2 -1    0    0  501    0 +0.0000000000e+00 +0.0000000000e+00 +4.8680722304e+02 4.8680722304e+02 0.0000000000e+00 0.0000e+00 1.0000e+00
       -2 -1    0    0    0  501 -0.0000000000e+00 -0.0000000000e+00 -4.9537543650e+01 4.9537543650e+01 0.0000000000e+00 0.0000e+00 -1.0000e+00
      -13  1    1    2    0    0 +1.2787036154e+01 +1.5292345151e+02 +2.5972441646e+02 3.0167177995e+02 0.0000000000e+00 0.0000e+00 -1.0000e+00
       13  1    1    2    0    0 -1.2787036154e+01 -1.5292345151e+02 +1.7754526293e+02 2.3467298673e+02 0.0000000000e+00 0.0000e+00 1.0000e+00
<mgrwt>
<rscale>  0 0.31058161E+03</rscale>
<asrwt>0</asrwt>
<pdfrwt beam="1">  1        2 0.74893416E-01 0.31058161E+03</pdfrwt>
<pdfrwt beam="2">  1       -2 0.76211609E-02 0.31058161E+03</pdfrwt>
<totfact> 0.68789710E+03</totfact>
</mgrwt>
<rwgt>
<wgt id='morphing_basis_vector_1'> +2.5138049e-04 </wgt>
<wgt id='morphing_basis_vector_2'> +1.6673374e-04 </wgt>
<wgt id='morphing_basis_vector_3'> +1.2438090e-04 </wgt>
<wgt id='morphing_basis_vector_4'> +2.9657963e-05 </wgt>
<wgt id='morphing_basis_vector_5'> +3.3912236e-06 </wgt>
</rwgt>
</event>
<event>
 4      1 +5.5534000e-05 3.29032900e+02 7.81860800e-03 9.89296100e-02
        2 -1    0    0  501    0 +0.0000000000e+00 +0.0000000000e+00 +2.0939776594e+02 2.0939776594e+02 0.0000000000e+00 0.0000e+00 1.0000e+00
       -2 -1    0    0    0  501 -0.0000000000e+00 -0.0000000000e+00 -1.2925480227e+02 1.2925480227e+02 0.0000000000e+00 0.0000e+00 -1.0000e+00
      -13  1    1    2    0    0 -1.0982107488e+01 +1.3201942073e+02 -6.0330131848e+01 1.4556599515e+02 0.0000000000e+00 0.0000e+00 -1.0000e+00
       13  1    1    2    0    0 +1.0982107488e+01 -1.3201942073e+02 +1.4047309552e+02 1.9308657307e+02 0.0000000000e+00 0.0000e+00 1.0000e+00
<mgrwt>
<rscale>  0 0.32903293E+03</rscale>
<asrwt>0</asrwt>
<pdfrwt beam="1">  1        2 0.32215041E-01 0.32903293E+03</pdfrwt>
<pdfrwt beam="2">  1       -2 0.19885354E-01 0.32903293E+03</pdfrwt>
<totfact> 0.38893549E+03</totfact>
</mgrwt>
<rwgt>
<wgt id='morphing_basis_vector_1'> +2.7260192e-04 </wgt>
<wgt id='morphing_basis_vector_2'> +1.5004278e-04 </wgt>
<wgt id='morphing_basis_vector_3'> +1.6166929e-04 </wgt>
<wgt id='morphing_basis_vector_4'> +2.7532998e-05 </wgt>
<wgt id='morphing_basis_vector_5'> +8.1525802e-06 </wgt>
</rwgt>
</event>
<event>
 4      1 +5.5534000e-05 3.49735100e+02 7.81860800e-03 9.81776800e-02
        2 -1    0    0  501    0 +0.0000000000e+00 +0.0000000000e+00 +2.5596767800e+02 2.5596767800e+02 0.0000000000e+00 0.0000e+00 1.0000e+00
       -2 -1    0    0    0  501 -0.0000000000e+00 -0.0000000000e+00 -1.1946299631e+02 1.1946299631e+02 0.0000000000e+00 0.0000e+00 -1.0000e+00
      -13  1    1    2    0    0 -1.1664380716e+01 -1.2019338926e+02 -6.7515941350e+01 1.3835068101e+02 0.0000000000e+00 0.0000e+00 -1.0000e+00
       13  1    1    2    0    0 +1.1664380716e+01 +1.2019338926e+02 +2.0402062304e+02 2.3707999331e+02 0.0000000000e+00 0.0000e+00 1.0000e+00
<mgrwt>
<rscale>  0 0.34973513E+03</rscale>
<asrwt>0</asrwt>
<pdfrwt beam="1">  1        2 0.39379643E-01 0.34973513E+03</pdfrwt>
<pdfrwt beam="2">  1       -2 0.18378923E-01 0.34973513E+03</pdfrwt>
<totfact> 0.35379210E+03</totfact>
</mgrwt>
<rwgt>
<wgt id='morphing_basis_vector_1'> +3.1383500e-04 </wgt>
<wgt id='morphing_basis_vector_2'> +1.7025092e-04 </wgt>
<wgt id='morphing_basis_vector_3'> +1.9014497e-04 </wgt>
<wgt id='morphing_basis_vector_4'> +3.3784761e-05 </wgt>
<wgt id='morphing_basis_vector_5'> +1.7899436e-05 </wgt>
</rwgt>
</event>
<event>
 4      1 +5.5534000e-05 3.33084200e+02 7.81860800e-03 9.87778200e-02
        2 -1    0    0  501    0 +0.0000000000e+00 +0.0000000000e+00 +4.4796596987e+02 4.4796596987e+02 0.0000000000e+00 0.0000e+00 1.0000e+00
       -2 -1    0    0    0  501 -0.0000000000e+00 -0.0000000000e+00 -6.1916016271e+01 6.1916016271e+01 0.0000000000e+00 0.0000e+00 -1.0000e+00
      -13  1    1    2    0    0 +1.2780660362e+02 +4.5518068838e+01 +3.4088572196e+02 3.6689167060e+02 0.0000000000e+00 0.0000e+00 -1.0000e+00
       13  1    1    2    0    0 -1.2780660362e+02 -4.5518068838e+01 +4.5164231641e+01 1.4299031554e+02 0.0000000000e+00 0.0000e+00 1.0000e+00
<mgrwt>
<rscale>  0 0.33308418E+03</rscale>
<asrwt>0</asrwt>
<pdfrwt beam="1">  1        2 0.68917839E-01 0.33308418E+03</pdfrwt>
<pdfrwt beam="2">  1       -2 0.95255413E-02 0.33308418E+03</pdfrwt>
<totfact> 0.53729672E+03</totfact>
</mgrwt>
<rwgt>
<wgt id='morphing_basis_vector_1'> +3.3567332e-04 </wgt>
<wgt id='morphing_basis_vector_2'> +3.1715260e-04 </wgt>
<wgt id='morphing_basis_vector_3'> +9.4018352e-05 </wgt>
<wgt id='morphing_basis_vector_4'> +5.0264841e-05 </wgt>
<wgt id='morphing_basis_vector_5'> +1.2872139e-05 </wgt>
</rwgt>
</event>
<event>
 4      1 +5.5534000e-05 3.34473500e+02 7.81860800e-03 9.87263100e-02
        2 -1    0    0  501    0 +0.0000000000e+00 +0.0000000000e+00 +2.8855997061e+02 2.8855997061e+02 0.0000000000e+00 0.0000e+00 1.0000e+00
       -2 -1    0    0    0  501 -0.0000000000e+00 -0.0000000000e+00 -9.6923094352e+01 9.6923094352e+01 0.0000000000e+00 0.0000e+00 -1.0000e+00
      -13  1    1    2    0    0 +9.5074115482e+01 -1.0487730622e+02 -6.8115859542e+00 1.4172062128e+02 0.0000000000e+00 0.0000e+00 -1.0000e+00
       13  1    1    2    0    0 -9.5074115482e+01 +1.0487730622e+02 +1.9844846222e+02 2.4376244368e+02 0.0000000000e+00 0.0000e+00 1.0000e+00
<mgrwt>
<rscale>  0 0.33447347E+03</rscale>
<asrwt>0</asrwt>
<pdfrwt beam="1">  1        2 0.44393841E-01 0.33447347E+03</pdfrwt>
<pdfrwt beam="2">  1       -2 0.14911245E-01 0.33447347E+03</pdfrwt>
<totfact> 0.43278750E+03</totfact>
</mgrwt>
<rwgt>
<wgt id='morphing_basis_vector_1'> +2.8326620e-04 </wgt>
<wgt id='morphing_basis_vector_2'> +1.5608687e-04 </wgt>
<wgt id='morphing_basis_vector_3'> +1.6821750e-04 </wgt>
<wgt id='morphing_basis_vector_4'> +2.9041805e-05 </wgt>
<wgt id='morphing_basis_vector_5'> +1.0314530e-05 </wgt>
</rwgt>
</event>
<event>
 4      1 +5.5534000e-05 3.13146300e+02 7.81860800e-03 9.95486200e-02
        2 -1    0    0  501    0 +0.0000000000e+00 +0.0000000000e+00 +9.1513561611e+02 9.1513561611e+02 0.0000000000e+00 0.0000e+00 1.0000e+00
       -2 -1    0    0    0  501 -0.0000000000e+00 -0.0000000000e+00 -2.6788543303e+01 2.6788543303e+01 0.0000000000e+00 0.0000e+00 -1.0000e+00
      -13  1    1    2    0    0 +2.9397759443e+00 +1.3496229539e+02 +2.0558355467e+02 2.4594320769e+02 0.0000000000e+00 0.0000e+00 -1.0000e+00
       13  1    1    2    0    0 -2.9397759443e+00 -1.3496229539e+02 +6.8276351814e+02 6.9598095172e+02 0.0000000000e+00 0.0000e+00 1.0000e+00
<mgrwt>
<rscale>  0 0.31314629E+03</rscale>
<asrwt>0</asrwt>
<pdfrwt beam="1">  1        2 0.14079007E+00 0.31314629E+03</pdfrwt>
<pdfrwt beam="2">  1       -2 0.41213150E-02 0.31314629E+03</pdfrwt>
<totfact> 0.82102494E+03</totfact>
</mgrwt>
<rwgt>
<wgt id='morphing_basis_vector_1'> +2.4453720e-04 </wgt>
<wgt id='morphing_basis_vector_2'> +1.3668503e-04 </wgt>
<wgt id='morphing_basis_vector_3'> +1.4296463e-04 </wgt>
<wgt id='morphing_basis_vector_4'> +2.4538353e-05 </wgt>
<wgt id='morphing_basis_vector_5'> +3.4543909e-06 </wgt>
</rwgt>
</event>
<event>
 4      1 +5.5534000e-05 3.22764100e+02 7.81860800e-03 9.91692300e-02
        2 -1    0    0  501    0 +0.0000000000e+00 +0.0000000000e+00 +2.3363669698e+02 2.3363669698e+02 0.0000000000e+00 0.0000e+00 -1.0000e+00
       -2 -1    0    0    0  501 -0.0000000000e+00 -0.0000000000e+00 -1.1147294574e+02 1.1147294574e+02 0.0000000000e+00 0.0000e+00 1.0000e+00
      -13  1    1    2    0    0 -1.9668199514e+01 +1.0663474498e+02 -6.6718663330e+01 1.2731530523e+02 0.0000000000e+00 0.0000e+00 1.0000e+00
       13  1    1    2    0    0 +1.9668199514e+01 -1.0663474498e+02 +1.8888241457e+02 2.1779433749e+02 0.0000000000e+00 0.0000e+00 -1.0000e+00
<mgrwt>
<rscale>  0 0.32276413E+03</rscale>
<asrwt>0</asrwt>
<pdfrwt beam="1">  1        2 0.35944107E-01 0.32276413E+03</pdfrwt>
<pdfrwt beam="2">  1       -2 0.17149684E-01 0.32276413E+03</pdfrwt>
<totfact> 0.43710283E+03</totfact>
</mgrwt>
<rwgt>
<wgt id='morphing_basis_vector_1'> +2.6069396e-04 </wgt>
<wgt id='morphing_basis_vector_2'> +1.4316154e-04 </wgt>
<wgt id='morphing_basis_vector_3'> +1.5463351e-04 </wgt>
<wgt id='morphing_basis_vector_4'> +2.5966876e-05 </wgt>
<wgt id='morphing_basis_vector_5'> +6.0060121e-06 </wgt>
</rwgt>
</event>
<event>
 4      1 +5.5534000e-05 3.31624200e+02 7.81860800e-03 9.88322500e-02
        2 -1    0    0  501    0 +0.0000000000e+00 +0.0000000000e+00 +3.8994615344e+02 3.8994615344e+02 0.0000000000e+00 0.0000e+00 -1.0000e+00
       -2 -1    0    0    0  501 -0.0000000000e+00 -0.0000000000e+00 -7.0506288026e+01 7.0506288026e+01 0.0000000000e+00 0.0000e+00 1.0000e+00
      -13  1    1    2    0    0 +3.6374881132e+01 -8.4010649695e+01 -3.2235298871e+01 9.7056868550e+01 0.0000000000e+00 0.0000e+00 1.0000e+00
       13  1    1    2    0    0 -3.6374881132e+01 +8.4010649695e+01 +3.5167516429e+02 3.6339557292e+02 0.0000000000e+00 0.0000e+00 -1.0000e+00
<mgrwt>
<rscale>  0 0.33162422E+03</rscale>
<asrwt>0</asrwt>
<pdfrwt beam="1">  1        2 0.59991715E-01 0.33162422E+03</pdfrwt>
<pdfrwt beam="2">  1       -2 0.10847121E-01 0.33162422E+03</pdfrwt>
<totfact> 0.51197185E+03</totfact>
</mgrwt>
<rwgt>
<wgt id='morphing_basis_vector_1'> +2.7701120e-04 </wgt>
<wgt id='morphing_basis_vector_2'> +1.5105435e-04 </wgt>
<wgt id='morphing_basis_vector_3'> +1.6557067e-04 </wgt>
<wgt id='morphing_basis_vector_4'> +2.7981809e-05 </wgt>
<wgt id='morphing_basis_vector_5'> +9.1113701e-06 </wgt>
</rwgt>
</event>
<event>
 4      1 +5.5534000e-05 3.20741000e+02 7.81860800e-03 9.92478300e-02
        2 -1    0    0  501    0 +0.0000000000e+00 +0.0000000000e+00 +9.7488439169e+02 9.7488439169e+02 0.0000000000e+00 0.0000e+00 1.0000e+00
       -2 -1    0    0    0  501 -0.0000000000e+00 -0.0000000000e+00 -2.6381279145e+01 2.6381279145e+01 0.0000000000e+00 0.0000e+00 -1.0000e+00
      -13  1    1    2    0    0 +2.6643475908e+01 +1.4684540329e+02 +6.5748519994e+02 6.7421082416e+02 0.0000000000e+00 0.0000e+00 1.0000e+00
       13  1    1    2    0    0 -2.6643475908e+01 -1.4684540329e+02 +2.9101791261e+02 3.2705484668e+02 0.0000000000e+00 0.0000e+00 -1.0000e+00
<mgrwt>
<rscale>  0 0.32074100E+03</rscale>
<asrwt>0</asrwt>
<pdfrwt beam="1">  1        2 0.14998219E+00 0.32074100E+03</pdfrwt>
<pdfrwt beam="2">  1       -2 0.40586591E-02 0.32074100E+03</pdfrwt>
<totfact> 0.77242139E+03</totfact>
</mgrwt>
<rwgt>
<wgt id='morphing_basis_vector_1'> +2.8367404e-04 </wgt>
<wgt id='morphing_basis_vector_2'> +2.1893709e-04 </wgt>
<wgt id='morphing_basis_vector_3'> +1.1569334e-04 </wgt>
<wgt id='morphing_basis_vector_4'> +3.7489984e-05 </wgt>
<wgt id='morphing_basis_vector_5'> +6.7474370e-06 </wgt>
</rwgt>
</event>
<event>
 4      1 +5.5534000e-05 3.47024200e+02 7.81860800e-03 9.82729000e-02
        2 -1    0    0  501    0 +0.0000000000e+00 +0.0000000000e+00 +8.1229785394e+01 8.1229785394e+01 0.0000000000e+00 0.0000e+00 1.0000e+00
       -2 -1    0    0    0  501 -0.0000000000e+00 -0.0000000000e+00 -3.7063307017e+02 3.7063307017e+02 0.0000000000e+00 0.0000e+00 -1.0000e+00
      -13  1    1    2    0    0 -6.9267090384e+01 +3.3473064919e+01 -3.4721212496e+02 3.5563272573e+02 0.0000000000e+00 0.0000e+00 -1.0000e+00
       13  1    1    2    0    0 +6.9267090384e+01 -3.3473064919e+01 +5.7808840186e+01 9.6230129840e+01 0.0000000000e+00 0.0000e+00 1.0000e+00
<mgrwt>
<rscale>  0 0.34702418E+03</rscale>
<asrwt>0</asrwt>
<pdfrwt beam="1">  1        2 0.12496890E-01 0.34702418E+03</pdfrwt>
<pdfrwt beam="2">  1       -2 0.57020473E-01 0.34702418E+03</pdfrwt>
<totfact> 0.18184655E+03</totfact>
</mgrwt>
<rwgt>
<wgt id='morphing_basis_vector_1'> +3.0784565e-04 </wgt>
<wgt id='morphing_basis_vector_2'> +1.6659884e-04 </wgt>
<wgt id='morphing_basis_vector_3'> +1.8647273e-04 </wgt>
<wgt id='morphing_basis_vector_4'> +3.2712549e-05 </wgt>
<wgt id='morphing_basis_vector_5'> +1.6351473e-05 </wgt>
</rwgt>
</event>
<event>
 4      1 +5.5534000e-05 3.56527400e+02 7.81860800e-03 9.79431600e-02
        2 -1    0    0  501    0 +0.0000000000e+00 +0.0000000000e+00 +1.4034003838e+02 1.4034003838e+02 0.0000000000e+00 0.0000e+00 -1.0000e+00
       -2 -1    0    0    0  501 -0.0000000000e+00 -0.0000000000e+00 -2.2643532118e+02 2.2643532118e+02 0.0000000000e+00 0.0000e+00 1.0000e+00
      -13  1    1    2    0    0 -1.1505604567e+02 +1.2500902636e+02 -9.8569240014e+01 1.9642058291e+02 0.0000000000e+00 0.0000e+00 1.0000e+00
       13  1    1    2    0    0 +1.1505604567e+02 -1.2500902636e+02 +1.2473957220e+01 1.7035477664e+02 0.0000000000e+00 0.0000e+00 -1.0000e+00
<mgrwt>
<rscale>  0 0.35652737E+03</rscale>
<asrwt>0</asrwt>
<pdfrwt beam="1">  1        2 0.21590775E-01 0.35652737E+03</pdfrwt>
<pdfrwt beam="2">  1       -2 0.34836203E-01 0.35652737E+03</pdfrwt>
<totfact> 0.23775197E+03</totfact>
</mgrwt>
<rwgt>
<wgt id='morphing_basis_vector_1'> +3.3145563e-04 </wgt>
<wgt id='morphing_basis_vector_2'> +1.8620462e-04 </wgt>
<wgt id='morphing_basis_vector_3'> +1.9718576e-04 </wgt>
<wgt id='morphing_basis_vector_4'> +3.7280086e-05 </wgt>
<wgt id='morphing_basis_vector_5'> +2.2279212e-05 </wgt>
</rwgt>
</event>
<event>
 4      1 +5.5534000e-05 3.11397300e+02 7.81860800e-03 9.96191800e-02
        2 -1    0    0  501    0 +0.0000000000e+00 +0.0000000000e+00 +3.5077989771e+02 3.5077989771e+02 0.0000000000e+00 0.0000e+00 1.0000e+00
       -2 -1    0    0    0  501 -0.0000000000e+00 -0.0000000000e+00 -6.9109042473e+01 6.9109042473e+01 0.0000000000e+00 0.0000e+00 -1.0000e+00
      -13  1    1    2    0    0 -1.3993735097e+02 +3.0004031252e+01 +5.8159982832e+01 1.5448393991e+02 0.0000000000e+00 0.0000e+00 -1.0000e+00
       13  1    1    2    0    0 +1.3993735097e+02 -3.0004031252e+01 +2.2351087241e+02 2.6540500028e+02 0.0000000000e+00 0.0000e+00 1.0000e+00
<mgrwt>
<rscale>  0 0.31139726E+03</rscale>
<asrwt>0</asrwt>
<pdfrwt beam="1">  1        2 0.53966137E-01 0.31139726E+03</pdfrwt>
<pdfrwt beam="2">  1       -2 0.10632161E-01 0.31139726E+03</pdfrwt>
<totfact> 0.59210324E+03</totfact>
</mgrwt>
<rwgt>
<wgt id='morphing_basis_vector_1'> +2.4218823e-04 </wgt>
<wgt id='morphing_basis_vector_2'> +1.3694544e-04 </wgt>
<wgt id='morphing_basis_vector_3'> +1.4026111e-04 </wgt>
<wgt id='morphing_basis_vector_4'> +2.4570286e-05 </wgt>
<wgt id='morphing_basis_vector_5'> +3.0950953e-06 </wgt>
</rwgt>
</event>
<event>
 4      1 +5.5534000e-05 3.57329200e+02 7.81860800e-03 9.79158500e-02
        2 -1    0    0  501    0 +0.0000000000e+00 +0.0000000000e+00 +1.2793309888e+03 1.2793309888e+03 0.0000000000e+00 0.0000e+00 1.0000e+00
       -2 -1    0    0    0  501 -0.0000000000e+00 -0.0000000000e+00 -2.4951351736e+01 2.4951351736e+01 0.0000000000e+00 0.0000e+00 -1.0000e+00
      -13  1    1    2    0    0 -1.1493188389e+02 +1.0609615788e+02 +9.4235325136e+02 9.5524624208e+02 0.0000000000e+00 0.0000e+00 -1.0000e+00
       13  1    1    2    0    0 +1.1493188389e+02 -1.0609615788e+02 +3.1202638566e+02 3.4903609842e+02 0.0000000000e+00 0.0000e+00 1.0000e+00
<mgrwt>
<rscale>  0 0.35732919E+03</rscale>
<asrwt>0</asrwt>
<pdfrwt beam="1">  1        2 0.19682010E+00 0.35732919E+03</pdfrwt>
<pdfrwt beam="2">  1       -2 0.38386705E-02 0.35732919E+03</pdfrwt>
<totfact> 0.56212508E+03</totfact>
</mgrwt>
<rwgt>
<wgt id='morphing_basis_vector_1'> +3.8120623e-04 </wgt>
<wgt id='morphing_basis_vector_2'> +3.3092082e-04 </wgt>
<wgt id='morphing_basis_vector_3'> +1.4163044e-04 </wgt>
<wgt id='morphing_basis_vector_4'> +5.0819746e-05 </wgt>
<wgt id='morphing_basis_vector_5'> +2.5880997e-05 </wgt>
</rwgt>
</event>
<event>
 4      1 +5.5534000e-05 3.39484700e+02 7.81860800e-03 9.85427300e-02
        2 -1    0    0  501    0 +0.0000000000e+00 +0.0000000000e+00 +5.6859255849e+02 5.6859255849e+02 0.0000000000e+00 0.0000e+00 -1.0000e+00
       -2 -1    0    0    0  501 -0.0000000000e+00 -0.0000000000e+00 -5.0673300335e+01 5.0673300335e+01 0.0000000000e+00 0.0000e+00 1.0000e+00
      -13  1    1    2    0    0 +1.0094099552e+02 +3.8447560417e+01 +2.0108247823e+01 1.0987102033e+02 0.0000000000e+00 0.0000e+00 1.0000e+00
       13  1    1    2    0    0 -1.0094099552e+02 -3.8447560417e+01 +4.9781101033e+02 5.0939483849e+02 0.0000000000e+00 0.0000e+00 -1.0000e+00
<mgrwt>
<rscale>  0 0.33948468E+03</rscale>
<asrwt>0</asrwt>
<pdfrwt beam="1">  1        2 0.87475774E-01 0.33948468E+03</pdfrwt>
<pdfrwt beam="2">  1       -2 0.77958927E-02 0.33948468E+03</pdfrwt>
<totfact> 0.56012638E+03</totfact>
</mgrwt>
<rwgt>
<wgt id='morphing_basis_vector_1'> +2.9247786e-04 </wgt>
<wgt id='morphing_basis_vector_2'> +1.5907743e-04 </wgt>
<wgt id='morphing_basis_vector_3'> +1.7575943e-04 </wgt>
<wgt id='morphing_basis_vector_4'> +3.0242588e-05 </wgt>
<wgt id='morphing_basis_vector_5'> +1.2509386e-05 </wgt>
</rwgt>
</event>
<event>
 4      1 +5.5534000e-05 3.11613000e+02 7.81860800e-03 9.96104500e-02
        2 -1    0    0  501    0 +0.0000000000e+00 +0.0000000000e+00 +7.3942646616e+01 7.3942646616e+01 0.0000000000e+00 0.0000e+00 1.0000e+00
       -2 -1    0    0    0  501 -0.0000000000e+00 -0.0000000000e+00 -3.2830400352e+02 3.2830400352e+02 0.0000000000e+00 0.0000e+00 -1.0000e+00
      -13  1    1    2    0    0 +9.6168334006e+01 -5.5751248123e+01 -2.6810919904e+02 2.9023971599e+02 0.0000000000e+00 0.0000e+00 -1.0000e+00
       13  1    1    2    0    0 -9.6168334006e+01 +5.5751248123e+01 +1.3747842131e+01 1.1200693414e+02 0.0000000000e+00 0.0000e+00 1.0000e+00
<mgrwt>
<rscale>  0 0.31161301E+03</rscale>
<asrwt>0</asrwt>
<pdfrwt beam="1">  1        2 0.11375792E-01 0.31161301E+03</pdfrwt>
<pdfrwt beam="2">  1       -2 0.50508307E-01 0.31161301E+03</pdfrwt>
<totfact> 0.25842902E+03</totfact>
</mgrwt>
<rwgt>
<wgt id='morphing_basis_vector_1'> +2.4137837e-04 </wgt>
<wgt id='morphing_basis_vector_2'> +1.3374031e-04 </wgt>
<wgt id='morphing_basis_vector_3'> +1.4215086e-04 </wgt>
<wgt id='morphing_basis_vector_4'> +2.4028823e-05 </wgt>
<wgt id='morphing_basis_vector_5'> +3.0886735e-06 </wgt>
</rwgt>
</event>
<event>
 4      1 +5.5534000e-05 3.03607000e+02 7.81860800e-03 9.99395500e-02
        2 -1    0    0  501    0 +0.0000000000e+00 +0.0000000000e+00 +4.2337353742e+02 4.2337353742e+02 0.0000000000e+00 0.0000e+00 1.0000e+00
       -2 -1    0    0    0  501 -0.0000000000e+00 -0.0000000000e+00 -5.4430193255e+01 5.4430193255e+01 0.0000000000e+00 0.0000e+00 -1.0000e+00
      -13  1    1    2    0    0 +1.0181260829e+01 -1.2780755390e+02 +5.6562140361e+01 1.4013459469e+02 0.0000000000e+00 0.0000e+00 -1.0000e+00
       13  1    1    2    0    0 -1.0181260829e+01 +1.2780755390e+02 +3.1238120381e+02 3.3766913599e+02 0.0000000000e+00 0.0000e+00 1.0000e+00
<mgrwt>
<rscale>  0 0.30360701E+03</rscale>
<asrwt>0</asrwt>
<pdfrwt beam="1">  1        2 0.65134388E-01 0.30360701E+03</pdfrwt>
<pdfrwt beam="2">  1       -2 0.83738762E-02 0.30360701E+03</pdfrwt>
<totfact> 0.69446266E+03</totfact>
</mgrwt>
<rwgt>
<wgt id='morphing_basis_vector_1'> +2.2874300e-04 </wgt>
<wgt id='morphing_basis_vector_2'> +1.2854860e-04 </wgt>
<wgt id='morphing_basis_vector_3'> +1.3340249e-04 </wgt>
<wgt id='morphing_basis_vector_4'> +2.3234291e-05 </wgt>
<wgt id='morphing_basis_vector_5'> +1.6408978e-06 </wgt>
</rwgt>
</event>
<event>
 4      1 +5.5534000e-05 3.29468400e+02 7.81860800e-03 9.89131800e-02
        2 -1    0    0  501    0 +0.0000000000e+00 +0.0000000000e+00 +1.1739708013e+03 1.1739708013e+03 0.0000000000e+00 0.0000e+00 1.0000e+00
       -2 -1    0    0    0  501 -0.0000000000e+00 -0.0000000000e+00 -2.3115864395e+01 2.3115864395e+01 0.0000000000e+00 0.0000e+00 -1.0000e+00
      -13  1    1    2    0    0 +1.2066953438e+02 -1.1180866472e+02 +6.0690105035e+02 6.2880139866e+02 0.0000000000e+00 0.0000e+00 -1.0000e+00
       13  1    1    2    0    0 -1.2066953438e+02 +1.1180866472e+02 +5.4395388657e+02 5.6828526705e+02 0.0000000000e+00 0.0000e+00 1.0000e+00
<mgrwt>
<rscale>  0 0.32946836E+03</rscale>
<asrwt>0</asrwt>
<pdfrwt beam="1">  1        2 0.18061085E+00 0.32946836E+03</pdfrwt>
<pdfrwt beam="2">  1       -2 0.35562877E-02 0.32946836E+03</pdfrwt>
<totfact> 0.71997305E+03</totfact>
</mgrwt>
<rwgt>
<wgt id='morphing_basis_vector_1'> +2.8258339e-04 </wgt>
<wgt id='morphing_basis_vector_2'> +1.7738684e-04 </wgt>
<wgt id='morphing_basis_vector_3'> +1.4999966e-04 </wgt>
<wgt id='morphing_basis_vector_4'> +3.1384586e-05 </wgt>
<wgt id='morphing_basis_vector_5'> +8.8203944e-06 </wgt>
</rwgt>
</event>
<event>
 4      1 +5.5534000e-05 3.43129800e+02 7.81860800e-03 9.84113400e-02
        2 -1    0    0  501    0 +0.0000000000e+00 +0.0000000000e+00 +2.2787282452e+02 2.2787282452e+02 0.0000000000e+00 0.0000e+00 -1.0000e+00
       -2 -1    0    0    0  501 -0.0000000000e+00 -0.0000000000e+00 -1.2917076291e+02 1.2917076291e+02 0.0000000000e+00 0.0000e+00 1.0000e+00
      -13  1    1    2    0    0 -8.4314851022e+01 +1.4146620492e+02 -6.9092575387e-01 1.6468806458e+02 0.0000000000e+00 0.0000e+00 1.0000e+00
       13  1    1    2    0    0 +8.4314851022e+01 -1.4146620492e+02 +9.9392987366e+01 1.9235552286e+02 0.0000000000e+00 0.0000e+00 -1.0000e+00
<mgrwt>
<rscale>  0 0.34312975E+03</rscale>
<asrwt>0</asrwt>
<pdfrwt beam="1">  1        2 0.35057358E-01 0.34312975E+03</pdfrwt>
<pdfrwt beam="2">  1       -2 0.19872425E-01 0.34312975E+03</pdfrwt>
<totfact> 0.35452147E+03</totfact>
</mgrwt>
<rwgt>
<wgt id='morphing_basis_vector_1'> +3.0272196e-04 </wgt>
<wgt id='morphing_basis_vector_2'> +1.7129343e-04 </wgt>
<wgt id='morphing_basis_vector_3'> +1.7718855e-04 </wgt>
<wgt id='morphing_basis_vector_4'> +3.2389375e-05 </wgt>
<wgt id='morphing_basis_vector_5'> +1.4468015e-05 </wgt>
</rwgt>
</event>
<event>
 4      1 +5.5534000e-05 3.06876100e+02 7.81860800e-03 9.98038900e-02
        2 -1    0    0  501    0 +0.0000000000e+00 +0.0000000000e+00 +2.3476027345e+02 2.3476027345e+02 0.0000000000e+00 0.0000e+00 1.0000e+00
       -2 -1    0    0    0  501 -0.0000000000e+00 -0.0000000000e+00 -1.0028630948e+02 1.0028630948e+02 0.0000000000e+00 0.0000e+00 -1.0000e+00
      -13  1    1    2    0    0 +4.9452225236e+01 -9.9124204592e+01 -4.8679367616e+01 1.2099922045e+02 0.0000000000e+00 0.0000e+00 -1.0000e+00
       13  1    1    2    0    0 -4.9452225236e+01 +9.9124204592e+01 +1.8315333159e+02 2.1404736249e+02 0.0000000000e+00 0.0000e+00 1.0000e+00
<mgrwt>
<rscale>  0 0.30687614E+03</rscale>
<asrwt>0</asrwt>
<pdfrwt beam="1">  1        2 0.36116965E-01 0.30687614E+03</pdfrwt>
<pdfrwt beam="2">  1       -2 0.15428663E-01 0.30687614E+03</pdfrwt>
<totfact> 0.51397947E+03</totfact>
</mgrwt>
<rwgt>
<wgt id='morphing_basis_vector_1'> +2.3358299e-04 </wgt>
<wgt id='morphing_basis_vector_2'> +1.2994603e-04 </wgt>
<wgt id='morphing_basis_vector_3'> +1.3724248e-04 </wgt>
<wgt id='morphing_basis_vector_4'> +2.3397515e-05 </wgt>
<wgt id='morphing_basis_vector_5'> +2.1619710e-06 </wgt>
</rwgt>
</event>
<event>
 4      1 +5.5534000e-05 3.09310300e+02 7.81860800e-03 9.97040300e-02
        2 -1    0    0  501    0 +0.0000000000e+00 +0.0000000000e+00 +5.6663898005e+02 5.6663898005e+02 0.0000000000e+00 0.0000e+00 -1.0000e+00
       -2 -1    0    0    0  501 -0.0000000000e+00 -0.0000000000e+00 -4.2210688826e+01 4.2210688826e+01 0.0000000000e+00 0.0000e+00 1.0000e+00
      -13  1    1    2    0    0 +1.4691977475e+02 -4.7793603521e+01 +2.4849545334e+02 2.9260833734e+02 0.0000000000e+00 0.0000e+00 1.0000e+00
       13  1    1    2    0    0 -1.4691977475e+02 +4.7793603521e+01 +2.7593283788e+02 3.1624133154e+02 0.0000000000e+00 0.0000e+00 -1.0000e+00
<mgrwt>
<rscale>  0 0.30931034E+03</rscale>
<asrwt>0</asrwt>
<pdfrwt beam="1">  1        2 0.87175222E-01 0.30931034E+03</pdfrwt>
<pdfrwt beam="2">  1       -2 0.64939525E-02 0.30931034E+03</pdfrwt>
<totfact> 0.73973306E+03</totfact>
</mgrwt>
<rwgt>
<wgt id='morphing_basis_vector_1'> +2.4309077e-04 </wgt>
<wgt id='morphing_basis_vector_2'> +1.4782625e-04 </wgt>
<wgt id='morphing_basis_vector_3'> +1.3183082e-04 </wgt>
<wgt id='morphing_basis_vector_4'> +2.6464279e-05 </wgt>
<wgt id='morphing_basis_vector_5'> +2.8560512e-06 </wgt>
</rwgt>
</event>
<event>
 4      1 +5.5534000e-05 3.16698000e+02 7.81860800e-03 9.94068100e-02
        2 -1    0    0  501    0 +0.0000000000e+00 +0.0000000000e+00 +5.4190154343e+01 5.4190154343e+01 0.0000000000e+00 0.0000e+00 -1.0000e+00
       -2 -1    0    0    0  501 -0.0000000000e+00 -0.0000000000e+00 -4.6271158535e+02 4.6271158535e+02 0.0000000000e+00 0.0000e+00 1.0000e+00
      -13  1    1    2    0    0 +1.3391476202e+02 +3.5256873564e+01 -3.2961016297e+02 3.5751792984e+02 0.0000000000e+00 0.0000e+00 1.0000e+00
       13  1    1    2    0    0 -1.3391476202e+02 -3.5256873564e+01 -7.8911268033e+01 1.5938380985e+02 0.0000000000e+00 0.0000e+00 -1.0000e+00
<mgrwt>
<rscale>  0 0.31669804E+03</rscale>
<asrwt>0</asrwt>
<pdfrwt beam="1">  1        2 0.83369471E-02 0.31669804E+03</pdfrwt>
<pdfrwt beam="2">  1       -2 0.71186395E-01 0.31669804E+03</pdfrwt>
<totfact> 0.19176535E+03</totfact>
</mgrwt>
<rwgt>
<wgt id='morphing_basis_vector_1'> +2.5073757e-04 </wgt>
<wgt id='morphing_basis_vector_2'> +1.4004645e-04 </wgt>
<wgt id='morphing_basis_vector_3'> +1.4667168e-04 </wgt>
<wgt id='morphing_basis_vector_4'> +2.5168031e-05 </wgt>
<wgt id='morphing_basis_vector_5'> +4.3222196e-06 </wgt>
</rwgt>
</event>
<event>
 4      1 +5.5534000e-05 3.40624500e+02 7.81860800e-03 9.85014500e-02
        2 -1    0    0  501    0 +0.0000000000e+00 +0.0000000000e+00 +6.7619549344e+01 6.7619549344e+01 0.0000000000e+00 0.0000e+00 -1.0000e+00
       -2 -1    0    0    0  501 -0.0000000000e+00 -0.0000000000e+00 -4.2896259133e+02 4.2896259133e+02 0.0000000000e+00 0.0000e+00 1.0000e+00
      -13  1    1    2    0    0 -1.2186793096e+02 -1.0352396022e+02 -9.5200069630e+01 1.8609690001e+02 0.0000000000e+00 0.0000e+00 1.0000e+00
       13  1    1    2    0    0 +1.2186793096e+02 +1.0352396022e+02 -2.6614297235e+02 3.1048524066e+02 0.0000000000e+00 0.0000e+00 -1.0000e+00
<mgrwt>
<rscale>  0 0.34062447E+03</rscale>
<asrwt>0</asrwt>
<pdfrwt beam="1">  1        2 0.10403007E-01 0.34062447E+03</pdfrwt>
<pdfrwt beam="2">  1       -2 0.65994246E-01 0.34062447E+03</pdfrwt>
<totfact> 0.16989336E+03</totfact>
</mgrwt>
<rwgt>
<wgt id='morphing_basis_vector_1'> +3.2371155e-04 </wgt>
<wgt id='morphing_basis_vector_2'> +2.4605461e-04 </wgt>
<wgt id='morphing_basis_vector_3'> +1.4041725e-04 </wgt>
<wgt id='morphing_basis_vector_4'> +4.0911242e-05 </wgt>
<wgt id='morphing_basis_vector_5'> +1.4781367e-05 </wgt>
</rwgt>
</event>
<event>
 4      1 +5.5534000e-05 3.16982400e+02 7.81860800e-03 9.93955500e-02
        2 -1    0    0  501    0 +0.0000000000e+00 +0.0000000000e+00 +5.7352169212e+02 5.7352169212e+02 0.0000000000e+00 0.0000e+00 1.0000e+00
       -2 -1    0    0    0  501 -0.0000000000e+00 -0.0000000000e+00 -4.3798616295e+01 4.3798616295e+01 0.0000000000e+00 0.0000e+00 -1.0000e+00
      -13  1    1    2    0    0 +8.9250308507e+01 -6.1213973983e+01 +3.9366906672e+01 1.1516302150e+02 0.0000000000e+00 0.0000e+00 -1.0000e+00
       13  1    1    2    0    0 -8.9250308507e+01 +6.1213973983e+01 +4.9035616915e+02 5.0215728692e+02 0.0000000000e+00 0.0000e+00 1.0000e+00
<mgrwt>
<rscale>  0 0.31698238E+03</rscale>
<asrwt>0</asrwt>
<pdfrwt beam="1">  1        2 0.88234101E-01 0.31698238E+03</pdfrwt>
<pdfrwt beam="2">  1       -2 0.67382491E-02 0.31698238E+03</pdfrwt>
<totfact> 0.69066980E+03</totfact>
</mgrwt>
<rwgt>
<wgt id='morphing_basis_vector_1'> +2.5048278e-04 </wgt>
<wgt id='morphing_basis_vector_2'> +1.3811863e-04 </wgt>
<wgt id='morphing_basis_vector_3'> +1.4802967e-04 </wgt>
<wgt id='morphing_basis_vector_4'> +2.4868890e-05 </wgt>
<wgt id='morphing_basis_vector_5'> +4.3595435e-06 </wgt>
</rwgt>
</event>
<event>
 4      1 +5.5534000e-05 3.19806800e+02 7.81860800e-03 9.92843400e-02
        2 -1    0    0  501    0 +0.0000000000e+00 +0.0000000000e+00 +2.9569485227e+02 2.9569485227e+02 0.0000000000e+00 0.0000e+00 -1.0000e+00
       -2 -1    0    0    0  501 -0.0000000000e+00 -0.0000000000e+00 -8.6471223002e+01 8.6471223002e+01 0.0000000000e+00 0.0000e+00 1.0000e+00
      -13  1    1    2    0    0 -6.2334438572e+01 -1.0978261659e+02 -1.2663523070e+01 1.2687856381e+02 0.0000000000e+00 0.0000e+00 1.0000e+00
       13  1    1    2    0    0 +6.2334438572e+01 +1.0978261659e+02 +2.2188715234e+02 2.5528751146e+02 0.0000000000e+00 0.0000e+00 -1.0000e+00
<mgrwt>
<rscale>  0 0.31980679E+03</rscale>
<asrwt>0</asrwt>
<pdfrwt beam="1">  1        2 0.45491515E-01 0.31980679E+03</pdfrwt>
<pdfrwt beam="2">  1       -2 0.13303265E-01 0.31980679E+03</pdfrwt>
<totfact> 0.50390083E+03</totfact>
</mgrwt>
<rwgt>
<wgt id='morphing_basis_vector_1'> +2.5569620e-04 </wgt>
<wgt id='morphing_basis_vector_2'> +1.4135094e-04 </wgt>
<wgt id='morphing_basis_vector_3'> +1.5083473e-04 </wgt>
<wgt id='morphing_basis_vector_4'> +2.5505991e-05 </wgt>
<wgt id='morphing_basis_vector_5'> +5.1409809e-06 </wgt>
</rwgt>
</event>
<event>
 4      1 +5.5534000e-05 3.28589700e+02 7.81860800e-03 9.89463600e-02
        2 -1    0    0  501    0 +0.0000000000e+00 +0.0000000000e+00 +5.7621876596e+02 5.7621876596e+02 0.0000000000e+00 0.0000e+00 -1.0000e+00
       -2 -1    0    0    0  501 -0.0000000000e+00 -0.0000000000e+00 -4.6844705503e+01 4.6844705503e+01 0.0000000000e+00 0.0000e+00 1.0000e+00
      -13  1    1    2    0    0 -7.4351217968e+01 +1.3979246022e+02 +3.4783299948e+02 3.8217513142e+02 0.0000000000e+00 0.0000e+00 1.0000e+00
       13  1    1    2    0    0 +7.4351217968e+01 -1.3979246022e+02 +1.8154106098e+02 2.4088834004e+02 0.0000000000e+00 0.0000e+00 -1.0000e+00
<mgrwt>
<rscale>  0 0.32858970E+03</rscale>
<asrwt>0</asrwt>
<pdfrwt beam="1">  1        2 0.88649036E-01 0.32858970E+03</pdfrwt>
<pdfrwt beam="2">  1       -2 0.72068782E-02 0.32858970E+03</pdfrwt>
<totfact> 0.62116696E+03</totfact>
</mgrwt>
<rwgt>
<wgt id='morphing_basis_vector_1'> +2.9167402e-04 </wgt>
<wgt id='morphing_basis_vector_2'> +2.0808047e-04 </wgt>
<wgt id='morphing_basis_vector_3'> +1.3451215e-04 </wgt>
<wgt id='morphing_basis_vector_4'> +3.5643286e-05 </wgt>
<wgt id='morphing_basis_vector_5'> +9.0822051e-06 </wgt>
</rwgt>
</event>
<event>
 4      1 +5.5534000e-05 3.58150000e+02 7.81860800e-03 9.78879700e-02
        2 -1    0    0  501    0 +0.0000000000e+00 +0.0000000000e+00 +3.3255153001e+02 3.3255153001e+02 0.0000000000e+00 0.0000e+00 -1.0000e+00
       -2 -1    0    0    0  501 -0.0000000000e+00 -0.0000000000e+00 -9.6429711292e+01 9.6429711292e+01 0.0000000000e+00 0.0000e+00 1.0000e+00
      -13  1    1    2    0    0 +6.0345248907e+01 +3.7175263831e+01 -7.8914158916e+01 1.0607070182e+02 0.0000000000e+00 0.0000e+00 1.0000e+00
       13  1    1    2    0    0 -6.0345248907e+01 -3.7175263831e+01 +3.1503597764e+02 3.2291053949e+02 0.0000000000e+00 0.0000e+00 -1.0000e+00
<mgrwt>
<rscale>  0 0.35814996E+03</rscale>
<asrwt>0</asrwt>
<pdfrwt beam="1">  1        2 0.51161773E-01 0.35814996E+03</pdfrwt>
<pdfrwt beam="2">  1       -2 0.14835340E-01 0.35814996E+03</pdfrwt>
<totfact> 0.37393296E+03</totfact>
</mgrwt>
<rwgt>
<wgt id='morphing_basis_vector_1'> +3.3208517e-04 </wgt>
<wgt id='morphing_basis_vector_2'> +1.7906280e-04 </wgt>
<wgt id='morphing_basis_vector_3'> +2.0332140e-04 </wgt>
<wgt id='morphing_basis_vector_4'> +3.7140274e-05 </wgt>
<wgt id='morphing_basis_vector_5'> +2.3169168e-05 </wgt>
</rwgt>
</event>
<event>
 4      1 +5.5534000e-05 3.15778300e+02 7.81860800e-03 9.94433400e-02
        2 -1    0    0  501    0 +0.0000000000e+00 +0.0000000000e+00 +2.2711175680e+02 2.2711175680e+02 0.0000000000e+00 0.0000e+00 -1.0000e+00
       -2 -1    0    0    0  501 -0.0000000000e+00 -0.0000000000e+00 -1.0976526529e+02 1.0976526529e+02 0.0000000000e+00 0.0000e+00 1.0000e+00
      -13  1    1    2    0    0 +9.5574774040e+00 +8.5692400657e+01 -8.2430732409e+01 1.1928687501e+02 0.0000000000e+00 0.0000e+00 1.0000e+00
       13  1    1    2    0    0 -9.5574774040e+00 -8.5692400657e+01 +1.9977722392e+02 2.1759014707e+02 0.0000000000e+00 0.0000e+00 -1.0000e+00
<mgrwt>
<rscale>  0 0.31577829E+03</rscale>
<asrwt>0</asrwt>
<pdfrwt beam="1">  1        2 0.34940270E-01 0.31577829E+03</pdfrwt>
<pdfrwt beam="2">  1       -2 0.16886964E-01 0.31577829E+03</pdfrwt>
<totfact> 0.46215244E+03</totfact>
</mgrwt>
<rwgt>
<wgt id='morphing_basis_vector_1'> +2.4827298e-04 </wgt>
<wgt id='morphing_basis_vector_2'> +1.3671463e-04 </wgt>
<wgt id='morphing_basis_vector_3'> +1.4688190e-04 </wgt>
<wgt id='morphing_basis_vector_4'> +2.4601304e-05 </wgt>
<wgt id='morphing_basis_vector_5'> +4.0468252e-06 </wgt>
</rwgt>
</event>
<event>
 4      1 +5.5534000e-05 3.12113100e+02 7.81860800e-03 9.95902400e-02
        2 -1    0    0  501    0 +0.0000000000e+00 +0.0000000000e+00 +1.0522465001e+03 1.0522465001e+03 0.0000000000e+00 0.0000e+00 -1.0000e+00
       -2 -1    0    0    0  501 -0.0000000000e+00 -0.0000000000e+00 -2.3144434395e+01 2.3144434395e+01 0.0000000000e+00 0.0000e+00 1.0000e+00
      -13  1    1    2    0    0 -7.1356961287e+01 -1.3313386877e+02 +3.7946185997e+02 4.0842104023e+02 0.0000000000e+00 0.0000e+00 1.0000e+00
       13  1    1    2    0    0 +7.1356961287e+01 +1.3313386877e+02 +6.4964020575e+02 6.6696989427e+02 0.0000000000e+00 0.0000e+00 -1.0000e+00
<mgrwt>
<rscale>  0 0.31211312E+03</rscale>
<asrwt>0</asrwt>
<pdfrwt beam="1">  1        2 0.16188404E+00 0.31211312E+03</pdfrwt>
<pdfrwt beam="2">  1       -2 0.35606830E-02 0.31211312E+03</pdfrwt>
<totfact> 0.84300727E+03</totfact>
</mgrwt>
<rwgt>
<wgt id='morphing_basis_vector_1'> +2.4461862e-04 </wgt>
<wgt id='morphing_basis_vector_2'> +1.4109635e-04 </wgt>
<wgt id='morphing_basis_vector_3'> +1.3927863e-04 </wgt>
<wgt id='morphing_basis_vector_4'> +2.5270602e-05 </wgt>
<wgt id='morphing_basis_vector_5'> +3.3061718e-06 </wgt>
</rwgt>
</event>
<event>
 4      1 +5.5534000e-05 3.28287800e+02 7.81860800e-03 9.89577900e-02
        2 -1    0    0  501    0 +0.0000000000e+00 +0.0000000000e+00 +4.6372442882e+02 4.6372442882e+02 0.0000000000e+00 0.0000e+00 -1.0000e+00
       -2 -1    0    0    0  501 -0.0000000000e+00 -0.0000000000e+00 -5.8101793607e+01 5.8101793607e+01 0.0000000000e+00 0.0000e+00 1.0000e+00
      -13  1    1    2    0    0 -1.0732102672e+02 -1.2381219057e+02 +2.1838228826e+02 2.7301663894e+02 0.0000000000e+00 0.0000e+00 1.0000e+00
       13  1    1    2    0    0 +1.0732102672e+02 +1.2381219057e+02 +1.8724034695e+02 2.4880958349e+02 0.0000000000e+00 0.0000e+00 -1.0000e+00
<mgrwt>
<rscale>  0 0.32828781E+03</rscale>
<asrwt>0</asrwt>
<pdfrwt beam="1">  1        2 0.71342217E-01 0.32828781E+03</pdfrwt>
<pdfrwt beam="2">  1       -2 0.89387378E-02 0.32828781E+03</pdfrwt>
<totfact> 0.57004115E+03</totfact>
</mgrwt>
<rwgt>
<wgt id='morphing_basis_vector_1'> +2.8052888e-04 </wgt>
<wgt id='morphing_basis_vector_2'> +1.7671384e-04 </wgt>
<wgt id='morphing_basis_vector_3'> +1.4827194e-04 </wgt>
<wgt id='morphing_basis_vector_4'> +3.1216145e-05 </wgt>
<wgt id='morphing_basis_vector_5'> +8.3908173e-06 </wgt>
</rwgt>
</event>
<event>
 4      1 +5.5534000e-05 3.44359100e+02 7.81860800e-03 9.83674200e-02
        2 -1    0    0  501    0 +0.0000000000e+00 +0.0000000000e+00 +6.3932639202e+01 6.3932639202e+01 0.0000000000e+00 0.0000e+00 1.0000e+00
       -2 -1    0    0    0  501 -0.0000000000e+00 -0.0000000000e+00 -4.6370370906e+02 4.6370370906e+02 0.0000000000e+00 0.0000e+00 -1.0000e+00
      -13  1    1    2    0    0 +8.7449390528e+01 -7.4210855093e+01 -3.9665089559e+02 4.1290020573e+02 0.0000000000e+00 0.0000e+00 -1.0000e+00
       13  1    1    2    0    0 -8.7449390528e+01 +7.4210855093e+01 -3.1201742732e+00 1.1473614254e+02 0.0000000000e+00 0.0000e+00 1.0000e+00
<mgrwt>
<rscale>  0 0.34435913E+03</rscale>
<asrwt>0</asrwt>
<pdfrwt beam="1">  1        2 0.98357905E-02 0.34435913E+03</pdfrwt>
<pdfrwt beam="2">  1       -2 0.71339033E-01 0.34435913E+03</pdfrwt>
<totfact> 0.15494418E+03</totfact>
</mgrwt>
<rwgt>
<wgt id='morphing_basis_vector_1'> +3.0246237e-04 </wgt>
<wgt id='morphing_basis_vector_2'> +1.6428675e-04 </wgt>
<wgt id='morphing_basis_vector_3'> +1.8244199e-04 </wgt>
<wgt id='morphing_basis_vector_4'> +3.1840252e-05 </wgt>
<wgt id='morphing_basis_vector_5'> +1.4932815e-05 </wgt>
</rwgt>
</event>
<event>
 4      1 +5.5534000e-05 3.45620000e+02 7.81860800e-03 9.83225900e-02
        2 -1    0    0  501    0 +0.0000000000e+00 +0.0000000000e+00 +7.8007920590e+01 7.8007920590e+01 0.0000000000e+00 0.0000e+00 1.0000e+00
       -2 -1    0    0    0  501 -0.0000000000e+00 -0.0000000000e+00 -3.8282386272e+02 3.8282386272e+02 0.0000000000e+00 0.0000e+00 -1.0000e+00
      -13  1    1    2    0    0 +8.4200297775e+01 +9.1265372598e+01 -3.1265531945e+02 3.3641106872e+02 0.0000000000e+00 0.0000e+00 -1.0000e+00
       13  1    1    2    0    0 -8.4200297775e+01 -9.1265372598e+01 +7.8393773196e+00 1.2442071458e+02 0.0000000000e+00 0.0000e+00 1.0000e+00
<mgrwt>
<rscale>  0 0.34561998E+03</rscale>
<asrwt>0</asrwt>
<pdfrwt beam="1">  1        2 0.12001219E-01 0.34561998E+03</pdfrwt>
<pdfrwt beam="2">  1       -2 0.58895979E-01 0.34561998E+03</pdfrwt>
<totfact> 0.17921492E+03</totfact>
</mgrwt>
<rwgt>
<wgt id='morphing_basis_vector_1'> +3.0519411e-04 </wgt>
<wgt id='morphing_basis_vector_2'> +1.6595864e-04 </wgt>
<wgt id='morphing_basis_vector_3'> +1.8409360e-04 </wgt>
<wgt id='morphing_basis_vector_4'> +3.2311696e-05 </wgt>
<wgt id='morphing_basis_vector_5'> +1.5606557e-05 </wgt>
</rwgt>
</event>
<event>
 4      1 +5.5534000e-05 3.02721500e+02 7.81860800e-03 9.99766100e-02
        2 -1    0    0  501    0 +0.0000000000e+00 +0.0000000000e+00 +1.4285174995e+02 1.4285174995e+02 0.0000000000e+00 0.0000e+00 1.0000e+00
       -2 -1    0    0    0  501 -0.0000000000e+00 -0.0000000000e+00 -1.6037656667e+02 1.6037656667e+02 0.0000000000e+00 0.0000e+00 -1.0000e+00
      -13  1    1    2    0    0 +4.2500460978e+01 -7.0422380892e+01 +1.1851122658e+02 1.4425848932e+02 0.0000000000e+00 0.0000e+00 1.0000e+00
       13  1    1    2    0    0 -4.2500460978e+01 +7.0422380892e+01 -1.3603604330e+02 1.5896982730e+02 0.0000000000e+00 0.0000e+00 -1.0000e+00
<mgrwt>
<rscale>  0 0.30272148E+03</rscale>
<asrwt>0</asrwt>
<pdfrwt beam="1">  1        2 0.21977192E-01 0.30272148E+03</pdfrwt>
<pdfrwt beam="2">  1       -2 0.24673318E-01 0.30272148E+03</pdfrwt>
<totfact> 0.42046906E+03</totfact>
</mgrwt>
<rwgt>
<wgt id='morphing_basis_vector_1'> +3.0117029e-04 </wgt>
<wgt id='morphing_basis_vector_2'> +3.3909244e-04 </wgt>
<wgt id='morphing_basis_vector_3'> +2.4898382e-05 </wgt>
<wgt id='morphing_basis_vector_4'> +6.1939845e-05 </wgt>
<wgt id='morphing_basis_vector_5'> +4.3401749e-06 </wgt>
</rwgt>
</event>
<event>
 4      1 +5.5534000e-05 3.29310500e+02 7.81860800e-03 9.89191400e-02
        2 -1    0    0  501    0 +0.0000000000e+00 +0.0000000000e+00 +7.1660340605e+02 7.1660340605e+02 0.0000000000e+00 0.0000e+00 -1.0000e+00
       -2 -1    0    0    0  501 -0.0000000000e+00 -0.0000000000e+00 -3.7833124377e+01 3.7833124377e+01 0.0000000000e+00 0.0000e+00 1.0000e+00
      -13  1    1    2    0    0 -1.1508799174e+02 +2.9008579116e+00 +6.9696585124e+01 1.3457813640e+02 0.0000000000e+00 0.0000e+00 1.0000e+00
       13  1    1    2    0    0 +1.1508799174e+02 -2.9008579116e+00 +6.0907369655e+02 6.1985839403e+02 0.0000000000e+00 0.0000e+00 -1.0000e+00
<mgrwt>
<rscale>  0 0.32931047E+03</rscale>
<asrwt>0</asrwt>
<pdfrwt beam="1">  1        2 0.11024667E+00 0.32931047E+03</pdfrwt>
<pdfrwt beam="2">  1       -2 0.58204812E-02 0.32931047E+03</pdfrwt>
<totfact> 0.66605904E+03</totfact>
</mgrwt>
<rwgt>
<wgt id='morphing_basis_vector_1'> +2.7279757e-04 </wgt>
<wgt id='morphing_basis_vector_2'> +1.4934771e-04 </wgt>
<wgt id='morphing_basis_vector_3'> +1.6244781e-04 </wgt>
<wgt id='morphing_basis_vector_4'> +2.7466902e-05 </wgt>
<wgt id='morphing_basis_vector_5'> +8.2372147e-06 </wgt>
</rwgt>
</event>
<event>
 4      1 +5.5534000e-05 3.20345800e+02 7.81860800e-03 9.92632600e-02
        2 -1    0    0  501    0 +0.0000000000e+00 +0.0000000000e+00 +6.0737495318e+02 6.0737495318e+02 0.0000000000e+00 0.0000e+00 -1.0000e+00
       -2 -1    0    0    0  501 -0.0000000000e+00 -0.0000000000e+00 -4.2239730832e+01 4.2239730832e+01 0.0000000000e+00 0.0000e+00 1.0000e+00
      -13  1    1    2    0    0 +1.5417890845e+02 +4.2726325801e+01 +2.6703368726e+02 3.1129353489e+02 0.0000000000e+00 0.0000e+00 1.0000e+00
       13  1    1    2    0    0 -1.5417890845e+02 -4.2726325801e+01 +2.9810153508e+02 3.3832114912e+02 0.0000000000e+00 0.0000e+00 -1.0000e+00
<mgrwt>
<rscale>  0 0.32034578E+03</rscale>
<asrwt>0</asrwt>
<pdfrwt beam="1">  1        2 0.93442294E-01 0.32034578E+03</pdfrwt>
<pdfrwt beam="2">  1       -2 0.64984206E-02 0.32034578E+03</pdfrwt>
<totfact> 0.68367633E+03</totfact>
</mgrwt>
<rwgt>
<wgt id='morphing_basis_vector_1'> +2.6244172e-04 </wgt>
<wgt id='morphing_basis_vector_2'> +1.5870828e-04 </wgt>
<wgt id='morphing_basis_vector_3'> +1.4347250e-04 </wgt>
<wgt id='morphing_basis_vector_4'> +2.8216273e-05 </wgt>
<wgt id='morphing_basis_vector_5'> +5.5883718e-06 </wgt>
</rwgt>
</event>
<event>
 4      1 +5.5534000e-05 3.08798100e+02 7.81860800e-03 9.97249600e-02
        2 -1    0    0  501    0 +0.0000000000e+00 +0.0000000000e+00 +3.4287219631e+02 3.4287219631e+02 0.0000000000e+00 0.0000e+00 1.0000e+00
       -2 -1    0    0    0  501 -0.0000000000e+00 -0.0000000000e+00 -6.9527558637e+01 6.9527558637e+01 0.0000000000e+00 0.0000e+00 -1.0000e+00
      -13  1    1    2    0    0 -9.1942890581e+01 +1.2344637228e+02 +1.5284040386e+02 2.1691632260e+02 0.0000000000e+00 0.0000e+00 -1.0000e+00
       13  1    1    2    0    0 +9.1942890581e+01 -1.2344637228e+02 +1.2050423380e+02 1.9548343234e+02 0.0000000000e+00 0.0000e+00 1.0000e+00
<mgrwt>
<rscale>  0 0.30879810E+03</rscale>
<asrwt>0</asrwt>
<pdfrwt beam="1">  1        2 0.52749568E-01 0.30879810E+03</pdfrwt>
<pdfrwt beam="2">  1       -2 0.10696548E-01 0.30879810E+03</pdfrwt>
<totfact> 0.60127785E+03</totfact>
</mgrwt>
<rwgt>
<wgt id='morphing_basis_vector_1'> +2.4550697e-04 </wgt>
<wgt id='morphing_basis_vector_2'> +1.5679403e-04 </wgt>
<wgt id='morphing_basis_vector_3'> +1.2662465e-04 </wgt>
<wgt id='morphing_basis_vector_4'> +2.8038767e-05 </wgt>
<wgt id='morphing_basis_vector_5'> +2.8948793e-06 </wgt>
</rwgt>
</event>
<event>
 4      1 +5.5534000e-05 3.41083500e+02 7.81860800e-03 9.84848800e-02
        2 -1    0    0  501    0 +0.0000000000e+00 +0.0000000000e+00 +2.9054208800e+02 2.9054208800e+02 0.0000000000e+00 0.0000e+00 -1.0000e+00
       -2 -1    0    0    0  501 -0.0000000000e+00 -0.0000000000e+00 -1.0010419121e+02 1.0010419121e+02 0.0000000000e+00 0.0000e+00 1.0000e+00
      -13  1    1    2    0    0 -8.6134466279e+01 +3.0232536436e+01 -6.9766631960e+01 1.1489358326e+02 0.0000000000e+00 0.0000e+00 1.0000e+00
       13  1    1    2    0    0 +8.6134466279e+01 -3.0232536436e+01 +2.6020452875e+02 2.7575269595e+02 0.0000000000e+00 0.0000e+00 -1.0000e+00
<mgrwt>
<rscale>  0 0.34108345E+03</rscale>
<asrwt>0</asrwt>
<pdfrwt beam="1">  1        2 0.44698782E-01 0.34108345E+03</pdfrwt>
<pdfrwt beam="2">  1       -2 0.15400645E-01 0.34108345E+03</pdfrwt>
<totfact> 0.40825526E+03</totfact>
</mgrwt>
<rwgt>
<wgt id='morphing_basis_vector_1'> +2.9561239e-04 </wgt>
<wgt id='morphing_basis_vector_2'> +1.6044968e-04 </wgt>
<wgt id='morphing_basis_vector_3'> +1.7805565e-04 </wgt>
<wgt id='morphing_basis_vector_4'> +3.0711924e-05 </wgt>
<wgt id='morphing_basis_vector_5'> +1.3270545e-05 </wgt>
</rwgt>
</event>
<event>
 4      1 +5.5534000e-05 3.37866500e+02 7.81860800e-03 9.86016300e-02
        2 -1    0    0  501    0 +0.0000000000e+00 +0.0000000000e+00 +8.0192974171e+02 8.0192974171e+02 0.0000000000e+00 0.0000e+00 1.0000e+00
       -2 -1    0    0    0  501 -0.0000000000e+00 -0.0000000000e+00 -3.5587202170e+01 3.5587202170e+01 0.0000000000e+00 0.0000e+00 -1.0000e+00
      -13  1    1    2    0    0 -1.4627393660e+02 +3.7944898704e+01 +1.9598098637e+02 2.4747611376e+02 0.0000000000e+00 0.0000e+00 -1.0000e+00
       13  1    1    2    0    0 +1.4627393660e+02 -3.7944898704e+01 +5.7036155318e+02 5.9004083012e+02 0.0000000000e+00 0.0000e+00 1.0000e+00
<mgrwt>
<rscale>  0 0.33786646E+03</rscale>
<asrwt>0</asrwt>
<pdfrwt beam="1">  1        2 0.12337379E+00 0.33786646E+03</pdfrwt>
<pdfrwt beam="2">  1       -2 0.54749548E-02 0.33786646E+03</pdfrwt>
<totfact> 0.63723680E+03</totfact>
</mgrwt>
<rwgt>
<wgt id='morphing_basis_vector_1'> +2.9044095e-04 </wgt>
<wgt id='morphing_basis_vector_2'> +1.6097022e-04 </wgt>
<wgt id='morphing_basis_vector_3'> +1.7204251e-04 </wgt>
<wgt id='morphing_basis_vector_4'> +3.0193129e-05 </wgt>
<wgt id='morphing_basis_vector_5'> +1.1830343e-05 </wgt>
</rwgt>
</event>
<event>
 4      1 +5.5534000e-05 3.23812000e+02 7.81860800e-03 9.91287700e-02
        2 -1    0    0  501    0 +0.0000000000e+00 +0.0000000000e+00 +1.7706232221e+02 1.7706232221e+02 0.0000000000e+00 0.0000e+00 1.0000e+00
       -2 -1    0    0    0  501 -0.0000000000e+00 -0.0000000000e+00 -1.4804702073e+02 1.4804702073e+02 0.0000000000e+00 0.0000e+00 -1.0000e+00
      -13  1    1    2    0    0 -1.3644483056e+01 +5.5418510606e+01 -1.3761231519e+02 1.4897829550e+02 0.0000000000e+00 0.0000e+00 -1.0000e+00
       13  1    1    2    0    0 +1.3644483056e+01 -5.5418510606e+01 +1.6662761668e+02 1.7613104745e+02 0.0000000000e+00 0.0000e+00 1.0000e+00
<mgrwt>
<rscale>  0 0.32381198E+03</rscale>
<asrwt>0</asrwt>
<pdfrwt beam="1">  1        2 0.27240357E-01 0.32381198E+03</pdfrwt>
<pdfrwt beam="2">  1       -2 0.22776465E-01 0.32381198E+03</pdfrwt>
<totfact> 0.37599843E+03</totfact>
</mgrwt>
<rwgt>
<wgt id='morphing_basis_vector_1'> +2.6241322e-04 </wgt>
<wgt id='morphing_basis_vector_2'> +1.4359375e-04 </wgt>
<wgt id='morphing_basis_vector_3'> +1.5610329e-04 </wgt>
<wgt id='morphing_basis_vector_4'> +2.6110661e-05 </wgt>
<wgt id='morphing_basis_vector_5'> +6.3270522e-06 </wgt>
</rwgt>
</event>
<event>
 4      1 +5.5534000e-05 3.26459200e+02 7.81860800e-03 9.90272800e-02
        2 -1    0    0  501    0 +0.0000000000e+00 +0.0000000000e+00 +3.6650564397e+02 3.6650564397e+02 0.0000000000e+00 0.0000e+00 1.0000e+00
       -2 -1    0    0    0  501 -0.0000000000e+00 -0.0000000000e+00 -7.2697111074e+01 7.2697111074e+01 0.0000000000e+00 0.0000e+00 -1.0000e+00
      -13  1    1    2    0    0 -5.6656033953e+01 +1.2024201311e+02 +1.9444232246e+01 1.3433587037e+02 0.0000000000e+00 0.0000e+00 -1.0000e+00
       13  1    1    2    0    0 +5.6656033953e+01 -1.2024201311e+02 +2.7436430065e+02 3.0486688468e+02 0.0000000000e+00 0.0000e+00 1.0000e+00
<mgrwt>
<rscale>  0 0.32645920E+03</rscale>
<asrwt>0</asrwt>
<pdfrwt beam="1">  1        2 0.56385483E-01 0.32645920E+03</pdfrwt>
<pdfrwt beam="2">  1       -2 0.11184171E-01 0.32645920E+03</pdfrwt>
<totfact> 0.52252822E+03</totfact>
</mgrwt>
<rwgt>
<wgt id='morphing_basis_vector_1'> +2.6784524e-04 </wgt>
<wgt id='morphing_basis_vector_2'> +1.4773698e-04 </wgt>
<wgt id='morphing_basis_vector_3'> +1.5847164e-04 </wgt>
<wgt id='morphing_basis_vector_4'> +2.6944942e-05 </wgt>
<wgt id='morphing_basis_vector_5'> +7.2372770e-06 </wgt>
</rwgt>
</event>
<event>
 4      1 +5.5534000e-05 3.03424200e+02 7.81860800e-03 9.99471900e-02
        2 -1    0    0  501    0 +0.0000000000e+00 +0.0000000000e+00 +5.6780342160e+02 5.6780342160e+02 0.0000000000e+00 0.0000e+00 -1.0000e+00
       -2 -1    0    0    0  501 -0.0000000000e+00 -0.0000000000e+00 -4.0536152627e+01 4.0536152627e+01 0.0000000000e+00 0.0000e+00 1.0000e+00
      -13  1    1    2    0    0 +8.9914203039e+01 -5.7491771843e+01 +4.7449403733e+01 1.1679603440e+02 0.0000000000e+00 0.0000e+00 1.0000e+00
       13  1    1    2    0    0 -8.9914203039e+01 +5.7491771843e+01 +4.7981786524e+02 4.9154353983e+02 0.0000000000e+00 0.0000e+00 -1.0000e+00
<mgrwt>
<rscale>  0 0.30342423E+03</rscale>
<asrwt>0</asrwt>
<pdfrwt beam="1">  1        2 0.87354367E-01 0.30342423E+03</pdfrwt>
<pdfrwt beam="2">  1       -2 0.62363316E-02 0.30342423E+03</pdfrwt>
<totfact> 0.78394348E+03</totfact>
</mgrwt>
<rwgt>
<wgt id='morphing_basis_vector_1'> +2.2801269e-04 </wgt>
<wgt id='morphing_basis_vector_2'> +1.2714614e-04 </wgt>
<wgt id='morphing_basis_vector_3'> +1.3386423e-04 </wgt>
<wgt id='morphing_basis_vector_4'> +2.2984973e-05 </wgt>
<wgt id='morphing_basis_vector_5'> +1.5961017e-06 </wgt>
</rwgt>
</event>
<event>
 4      1 +5.5534000e-05 3.27419000e+02 7.81860800e-03 9.89907400e-02
        2 -1    0    0  501    0 +0.0000000000e+00 +0.0000000000e+00 +3.8382277575e+02 3.8382277575e+02 0.0000000000e+00 0.0000e+00 1.0000e+00
       -2 -1    0    0    0  501 -0.0000000000e+00 -0.0000000000e+00 -6.9825993850e+01 6.9825993850e+01 0.0000000000e+00 0.0000e+00 -1.0000e+00
      -13  1    1    2    0    0 -8.8761720689e+01 +1.3755657750e+02 +1.5617670465e+02 2.2625564777e+02 0.0000000000e+00 0.0000e+00 -1.0000e+00
       13  1    1    2    0    0 +8.8761720689e+01 -1.3755657750e+02 +1.5782007725e+02 2.2739312183e+02 0.0000000000e+00 0.0000e+00 1.0000e+00
<mgrwt>
<rscale>  0 0.32741904E+03</rscale>
<asrwt>0</asrwt>
<pdfrwt beam="1">  1        2 0.59049657E-01 0.32741904E+03</pdfrwt>
<pdfrwt beam="2">  1       -2 0.10742461E-01 0.32741904E+03</pdfrwt>
<totfact> 0.52865458E+03</totfact>
</mgrwt>
<rwgt>
<wgt id='morphing_basis_vector_1'> +2.7682297e-04 </wgt>
<wgt id='morphing_basis_vector_2'> +1.6975518e-04 </wgt>
<wgt id='morphing_basis_vector_3'> +1.4996986e-04 </wgt>
<wgt id='morphing_basis_vector_4'> +3.0176332e-05 </wgt>
<wgt id='morphing_basis_vector_5'> +7.9631179e-06 </wgt>
</rwgt>
</event>
<event>
 4      1 +5.5534000e-05 3.51596600e+02 7.81860800e-03 9.81128400e-02
        2 -1    0    0  501    0 +0.0000000000e+00 +0.0000000000e+00 +5.9975392200e+02 5.9975392200e+02 0.0000000000e+00 0.0000e+00 1.0000e+00
       -2 -1    0    0    0  501 -0.0000000000e+00 -0.0000000000e+00 -5.1529539612e+01 5.1529539612e+01 0.0000000000e+00 0.0000e+00 -1.0000e+00
      -13  1    1    2    0    0 -8.4491686588e+01 +1.1781847288e+02 +8.9944332024e+01 1.7061658922e+02 0.0000000000e+00 0.0000e+00 -1.0000e+00
       13  1    1    2    0    0 +8.4491686588e+01 -1.1781847288e+02 +4.5828005036e+02 4.8066687239e+02 0.0000000000e+00 0.0000e+00 1.0000e+00
<mgrwt>
<rscale>  0 0.35159661E+03</rscale>
<asrwt>0</asrwt>
<pdfrwt beam="1">  1        2 0.92269829E-01 0.35159661E+03</pdfrwt>
<pdfrwt beam="2">  1       -2 0.79276219E-02 0.35159661E+03</pdfrwt>
<totfact> 0.51424466E+03</totfact>
</mgrwt>
<rwgt>
<wgt id='morphing_basis_vector_1'> +3.1837771e-04 </wgt>
<wgt id='morphing_basis_vector_2'> +1.7390927e-04 </wgt>
<wgt id='morphing_basis_vector_3'> +1.9226908e-04 </wgt>
<wgt id='morphing_basis_vector_4'> +3.4660289e-05 </wgt>
<wgt id='morphing_basis_vector_5'> +1.9033003e-05 </wgt>
</rwgt>
</event>
<event>
 4      1 +5.5534000e-05 3.48615000e+02 7.81860800e-03 9.82169100e-02
        2 -1    0    0  501    0 +0.0000000000e+00 +0.0000000000e+00 +2.1342795214e+02 2.1342795214e+02 0.0000000000e+00 0.0000e+00 -1.0000e+00
       -2 -1    0    0    0  501 -0.0000000000e+00 -0.0000000000e+00 -1.4235768536e+02 1.4235768536e+02 0.0000000000e+00 0.0000e+00 1.0000e+00
      -13  1    1    2    0    0 +1.8810677881e+01 +4.6484745216e+01 -1.3483701822e+02 1.4385998270e+02 0.0000000000e+00 0.0000e+00 1.0000e+00
       13  1    1    2    0    0 -1.8810677881e+01 -4.6484745216e+01 +2.0590728501e+02 2.1192565479e+02 0.0000000000e+00 0.0000e+00 -1.0000e+00
<mgrwt>
<rscale>  0 0.34861503E+03</rscale>
<asrwt>0</asrwt>
<pdfrwt beam="1">  1        2 0.32835069E-01 0.34861503E+03</pdfrwt>
<pdfrwt beam="2">  1       -2 0.21901182E-01 0.34861503E+03</pdfrwt>
<totfact> 0.32529556E+03</totfact>
</mgrwt>
<rwgt>
<wgt id='morphing_basis_vector_1'> +3.1118520e-04 </wgt>
<wgt id='morphing_basis_vector_2'> +1.6824767e-04 </wgt>
<wgt id='morphing_basis_vector_3'> +1.8881714e-04 </wgt>
<wgt id='morphing_basis_vector_4'> +3.3284425e-05 </wgt>
<wgt id='morphing_basis_vector_5'> +1.7239898e-05 </wgt>
</rwgt>
</event>
<event>
 4      1 +5.5534000e-05 3.15294600e+02 7.81860800e-03 9.94626100e-02
        2 -1    0    0  501    0 +0.0000000000e+00 +0.0000000000e+00 +3.8553903340e+02 3.8553903340e+02 0.0000000000e+00 0.0000e+00 -1.0000e+00
       -2 -1    0    0    0  501 -0.0000000000e+00 -0.0000000000e+00 -6.4462142095e+01 6.4462142095e+01 0.0000000000e+00 0.0000e+00 1.0000e+00
      -13  1    1    2    0    0 +4.5295579160e+01 +1.4228708646e+02 +8.8390529564e+01 1.7352288086e+02 0.0000000000e+00 0.0000e+00 1.0000e+00
       13  1    1    2    0    0 -4.5295579160e+01 -1.4228708646e+02 +2.3268636174e+02 2.7647829464e+02 0.0000000000e+00 0.0000e+00 -1.0000e+00
<mgrwt>
<rscale>  0 0.31529460E+03</rscale>
<asrwt>0</asrwt>
<pdfrwt beam="1">  1        2 0.59313696E-01 0.31529460E+03</pdfrwt>
<pdfrwt beam="2">  1       -2 0.99172529E-02 0.31529460E+03</pdfrwt>
<totfact> 0.59453666E+03</totfact>
</mgrwt>
<rwgt>
<wgt id='morphing_basis_vector_1'> +2.4939693e-04 </wgt>
<wgt id='morphing_basis_vector_2'> +1.4197548e-04 </wgt>
<wgt id='morphing_basis_vector_3'> +1.4361232e-04 </wgt>
<wgt id='morphing_basis_vector_4'> +2.5443984e-05 </wgt>
<wgt id='morphing_basis_vector_5'> +4.0200734e-06 </wgt>
</rwgt>
</event>
<event>
 4      1 +5.5534000e-05 3.52474300e+02 7.81860800e-03 9.80824200e-02
        2 -1    0    0  501    0 +0.0000000000e+00 +0.0000000000e+00 +4.2070483624e+02 4.2070483624e+02 0.0000000000e+00 0.0000e+00 -1.0000e+00
       -2 -1    0    0    0  501 -0.0000000000e+00 -0.0000000000e+00 -7.3827363656e+01 7.3827363656e+01 0.0000000000e+00 0.0000e+00 1.0000e+00
      -13  1    1    2    0    0 +1.2749701190e+02 -4.0022206364e+01 +3.3464850364e+02 3.6034273412e+02 0.0000000000e+00 0.0000e+00 1.0000e+00
       13  1    1    2    0    0 -1.2749701190e+02 +4.0022206364e+01 +1.2228968947e+01 1.3418946578e+02 0.0000000000e+00 0.0000e+00 -1.0000e+00
<mgrwt>
<rscale>  0 0.35247428E+03</rscale>
<asrwt>0</asrwt>
<pdfrwt beam="1">  1        2 0.64723820E-01 0.35247428E+03</pdfrwt>
<pdfrwt beam="2">  1       -2 0.11358056E-01 0.35247428E+03</pdfrwt>
<totfact> 0.43912262E+03</totfact>
</mgrwt>
<rwgt>
<wgt id='morphing_basis_vector_1'> +3.9630646e-04 </wgt>
<wgt id='morphing_basis_vector_2'> +4.0215204e-04 </wgt>
<wgt id='morphing_basis_vector_3'> +1.0149413e-04 </wgt>
<wgt id='morphing_basis_vector_4'> +5.7746919e-05 </wgt>
<wgt id='morphing_basis_vector_5'> +2.4357587e-05 </wgt>
</rwgt>
</event>
<event>
 4      1 +5.5534000e-05 3.06116300e+02 7.81860800e-03 9.98352600e-02
        2 -1    0    0  501    0 +0.0000000000e+00 +0.0000000000e+00 +6.0243945087e+01 6.0243945087e+01 0.0000000000e+00 0.0000e+00 -1.0000e+00
       -2 -1    0    0    0  501 -0.0000000000e+00 -0.0000000000e+00 -3.8886564423e+02 3.8886564423e+02 0.0000000000e+00 0.0000e+00 1.0000e+00
      -13  1    1    2    0    0 +7.2509528547e+00 -1.5284536067e+02 -1.5911966279e+02 2.2075630837e+02 0.0000000000e+00 0.0000e+00 1.0000e+00
       13  1    1    2    0    0 -7.2509528547e+00 +1.5284536067e+02 -1.6950203635e+02 2.2835328095e+02 0.0000000000e+00 0.0000e+00 -1.0000e+00
<mgrwt>
<rscale>  0 0.30611632E+03</rscale>
<asrwt>0</asrwt>
<pdfrwt beam="1">  1        2 0.92682989E-02 0.30611632E+03</pdfrwt>
<pdfrwt beam="2">  1       -2 0.59825486E-01 0.30611632E+03</pdfrwt>
<totfact> 0.23948561E+03</totfact>
</mgrwt>
<rwgt>
<wgt id='morphing_basis_vector_1'> +2.3934129e-04 </wgt>
<wgt id='morphing_basis_vector_2'> +1.4941650e-04 </wgt>
<wgt id='morphing_basis_vector_3'> +1.2639262e-04 </wgt>
<wgt id='morphing_basis_vector_4'> +2.6880588e-05 </wgt>
<wgt id='morphing_basis_vector_5'> +2.3166184e-06 </wgt>
</rwgt>
</event>
<event>
 4      1 +5.5534000e-05 3.22505000e+02 7.81860800e-03 9.91792700e-02
        2 -1    0    0  501    0 +0.0000000000e+00 +0.0000000000e+00 +2.6810395455e+02 2.6810395455e+02 0.0000000000e+00 0.0000e+00 -1.0000e+00
       -2 -1    0    0    0  501 -0.0000000000e+00 -0.0000000000e+00 -9.6986129184e+01 9.6986129184e+01 0.0000000000e+00 0.0000e+00 1.0000e+00
      -13  1    1    2    0    0 +8.8492412426e+01 +9.9479301174e+01 -1.7421868813e+01 1.3427792049e+02 0.0000000000e+00 0.0000e+00 1.0000e+00
       13  1    1    2    0    0 -8.8492412426e+01 -9.9479301174e+01 +1.8853969418e+02 2.3081216324e+02 0.0000000000e+00 0.0000e+00 -1.0000e+00
<mgrwt>
<rscale>  0 0.32250498E+03</rscale>
<asrwt>0</asrwt>
<pdfrwt beam="1">  1        2 0.41246762E-01 0.32250498E+03</pdfrwt>
<pdfrwt beam="2">  1       -2 0.14920943E-01 0.32250498E+03</pdfrwt>
<totfact> 0.46838433E+03</totfact>
</mgrwt>
<rwgt>
<wgt id='morphing_basis_vector_1'> +2.6068197e-04 </wgt>
<wgt id='morphing_basis_vector_2'> +1.4425690e-04 </wgt>
<wgt id='morphing_basis_vector_3'> +1.5370932e-04 </wgt>
<wgt id='morphing_basis_vector_4'> +2.6113702e-05 </wgt>
<wgt id='morphing_basis_vector_5'> +5.9493983e-06 </wgt>
</rwgt>
</event>
<event>
 4      1 +5.5534000e-05 3.10886100e+02 7.81860800e-03 9.96399000e-02
        2 -1    0    0  501    0 +0.0000000000e+00 +0.0000000000e+00 +1.2575337054e+02 1.2575337054e+02 0.0000000000e+00 0.0000e+00 1.0000e+00
       -2 -1    0    0    0  501 -0.0000000000e+00 -0.0000000000e+00 -1.9214232199e+02 1.9214232199e+02 0.0000000000e+00 0.0000e+00 -1.0000e+00
      -13  1    1    2    0    0 -1.4383320495e+02 -5.1735597430e+01 -4.3089825861e+00 1.5291543486e+02 0.0000000000e+00 0.0000e+00 1.0000e+00
       13  1    1    2    0    0 +1.4383320495e+02 +5.1735597430e+01 -6.2079968861e+01 1.6498025767e+02 0.0000000000e+00 0.0000e+00 -1.0000e+00
<mgrwt>
<rscale>  0 0.31088612E+03</rscale>
<asrwt>0</asrwt>
<pdfrwt beam="1">  1        2 0.19346672E-01 0.31088612E+03</pdfrwt>
<pdfrwt beam="2">  1       -2 0.29560357E-01 0.31088612E+03</pdfrwt>
<totfact> 0.35934761E+03</totfact>
</mgrwt>
<rwgt>
<wgt id='morphing_basis_vector_1'> +2.5317806e-04 </wgt>
<wgt id='morphing_basis_vector_2'> +1.7072069e-04 </wgt>
<wgt id='morphing_basis_vector_3'> +1.2288061e-04 </wgt>
<wgt id='morphing_basis_vector_4'> +3.0320451e-05 </wgt>
<wgt id='morphing_basis_vector_5'> +3.5144767e-06 </wgt>
</rwgt>
</event>
<event>
 4      1 +5.5534000e-05 3.11841100e+02 7.81860800e-03 9.96012300e-02
        2 -1    0    0  501    0 +0.0000000000e+00 +0.0000000000e+00 +3.3392590812e+02 3.3392590812e+02 0.0000000000e+00 0.0000e+00 -1.0000e+00
       -2 -1    0    0    0  501 -0.0000000000e+00 -0.0000000000e+00 -7.2804240627e+01 7.2804240627e+01 0.0000000000e+00 0.0000e+00 1.0000e+00
      -13  1    1    2    0    0 -5.8820394798e+01 +1.2485776878e+02 +2.2517259590e+02 2.6410603782e+02 0.0000000000e+00 0.0000e+00 1.0000e+00
       13  1    1    2    0    0 +5.8820394798e+01 -1.2485776878e+02 +3.5949071590e+01 1.4262411092e+02 0.0000000000e+00 0.0000e+00 -1.0000e+00
<mgrwt>
<rscale>  0 0.31184113E+03</rscale>
<asrwt>0</asrwt>
<pdfrwt beam="1">  1        2 0.51373216E-01 0.31184113E+03</pdfrwt>
<pdfrwt beam="2">  1       -2 0.11200653E-01 0.31184113E+03</pdfrwt>
<totfact> 0.57656499E+03</totfact>
</mgrwt>
<rwgt>
<wgt id='morphing_basis_vector_1'> +2.7578405e-04 </wgt>
<wgt id='morphing_basis_vector_2'> +2.3227064e-04 </wgt>
<wgt id='morphing_basis_vector_3'> +9.4159360e-05 </wgt>
<wgt id='morphing_basis_vector_4'> +4.0647450e-05 </wgt>
<wgt id='morphing_basis_vector_5'> +4.6763035e-06 </wgt>
</rwgt>
</event>
<event>
 4      1 +5.5534000e-05 3.33811900e+02 7.81860800e-03 9.87508000e-02
        2 -1    0    0  501    0 +0.0000000000e+00 +0.0000000000e+00 +8.3227701887e+01 8.3227701887e+01 0.0000000000e+00 0.0000e+00 1.0000e+00
       -2 -1    0    0    0  501 -0.0000000000e+00 -0.0000000000e+00 -3.3471552462e+02 3.3471552462e+02 0.0000000000e+00 0.0000e+00 -1.0000e+00
      -13  1    1    2    0    0 -7.4378574486e+01 -1.0593472420e+02 -2.5767306720e+02 2.8835697962e+02 0.0000000000e+00 0.0000e+00 -1.0000e+00
       13  1    1    2    0    0 +7.4378574486e+01 +1.0593472420e+02 +6.1852444689e+00 1.2958624689e+02 0.0000000000e+00 0.0000e+00 1.0000e+00
<mgrwt>
<rscale>  0 0.33381195E+03</rscale>
<asrwt>0</asrwt>
<pdfrwt beam="1">  1        2 0.12804262E-01 0.33381195E+03</pdfrwt>
<pdfrwt beam="2">  1       -2 0.51494696E-01 0.33381195E+03</pdfrwt>
<totfact> 0.21541060E+03</totfact>
</mgrwt>
<rwgt>
<wgt id='morphing_basis_vector_1'> +2.8160281e-04 </wgt>
<wgt id='morphing_basis_vector_2'> +1.5431580e-04 </wgt>
<wgt id='morphing_basis_vector_3'> +1.6785776e-04 </wgt>
<wgt id='morphing_basis_vector_4'> +2.8714506e-05 </wgt>
<wgt id='morphing_basis_vector_5'> +1.0016391e-05 </wgt>
</rwgt>
</event>
<event>
 4      1 +5.5534000e-05 3.08805800e+02 7.81860800e-03 9.97246400e-02
        2 -1    0    0  501    0 +0.0000000000e+00 +0.0000000000e+00 +3.0252426224e+02 3.0252426224e+02 0.0000000000e+00 0.0000e+00 1.0000e+00
       -2 -1    0    0    0  501 -0.0000000000e+00 -0.0000000000e+00 -7.8804449153e+01 7.8804449153e+01 0.0000000000e+00 0.0000e+00 -1.0000e+00
      -13  1    1    2    0    0 -9.4178917091e+01 +3.5948709325e+01 -3.2560903445e+01 1.0593484110e+02 0.0000000000e+00 0.0000e+00 -1.0000e+00
       13  1    1    2    0    0 +9.4178917091e+01 -3.5948709325e+01 +2.5628071653e+02 2.7539387028e+02 0.0000000000e+00 0.0000e+00 1.0000e+00
<mgrwt>
<rscale>  0 0.30880581E+03</rscale>
<asrwt>0</asrwt>
<pdfrwt beam="1">  1        2 0.46542194E-01 0.30880581E+03</pdfrwt>
<pdfrwt beam="2">  1       -2 0.12123762E-01 0.30880581E+03</pdfrwt>
<totfact> 0.56775739E+03</totfact>
</mgrwt>
<rwgt>
<wgt id='morphing_basis_vector_1'> +2.3663177e-04 </wgt>
<wgt id='morphing_basis_vector_2'> +1.3119466e-04 </wgt>
<wgt id='morphing_basis_vector_3'> +1.3935474e-04 </wgt>
<wgt id='morphing_basis_vector_4'> +2.3592440e-05 </wgt>
<wgt id='morphing_basis_vector_5'> +2.5136618e-06 </wgt>
</rwgt>
</event>
<event>
 4      1 +5.5534000e-05 3.02918100e+02 7.81860800e-03 9.99683700e-02
        2 -1    0    0  501    0 +0.0000000000e+00 +0.0000000000e+00 +4.6835556995e+02 4.6835556995e+02 0.0000000000e+00 0.0000e+00 -1.0000e+00
       -2 -1    0    0    0  501 -0.0000000000e+00 -0.0000000000e+00 -4.8979554910e+01 4.8979554910e+01 0.0000000000e+00 0.0000e+00 1.0000e+00
      -13  1    1    2    0    0 +3.8372873630e+01 +7.2208449870e+01 -8.0416622595e+00 8.2165722751e+01 0.0000000000e+00 0.0000e+00 1.0000e+00
       13  1    1    2    0    0 -3.8372873630e+01 -7.2208449870e+01 +4.2741767730e+02 4.3516940211e+02 0.0000000000e+00 0.0000e+00 -1.0000e+00
<mgrwt>
<rscale>  0 0.30291812E+03</rscale>
<asrwt>0</asrwt>
<pdfrwt beam="1">  1        2 0.72054700E-01 0.30291812E+03</pdfrwt>
<pdfrwt beam="2">  1       -2 0.75353165E-02 0.30291812E+03</pdfrwt>
<totfact> 0.72971084E+03</totfact>
</mgrwt>
<rwgt>
<wgt id='morphing_basis_vector_1'> +2.2706310e-04 </wgt>
<wgt id='morphing_basis_vector_2'> +1.2633090e-04 </wgt>
<wgt id='morphing_basis_vector_3'> +1.3358776e-04 </wgt>
<wgt id='morphing_basis_vector_4'> +2.2853863e-05 </wgt>
<wgt id='morphing_basis_vector_5'> +1.5152970e-06 </wgt>
</rwgt>
</event>
<event>
 4      1 +5.5534000e-05 3.08963100e+02 7.81860800e-03 9.97182100e-02
        2 -1    0    0  501    0 +0.0000000000e+00 +0.0000000000e+00 +8.8813932595e+02 8.8813932595e+02 0.0000000000e+00 0.0000e+00 -1.0000e+00
       -2 -1    0    0    0  501 -0.0000000000e+00 -0.0000000000e+00 -2.6870270416e+01 2.6870270416e+01 0.0000000000e+00 0.0000e+00 1.0000e+00
      -13  1    1    2    0    0 -2.6183425422e+01 +1.4258339739e+02 +2.7256023042e+02 3.0871455454e+02 0.0000000000e+00 0.0000e+00 1.0000e+00
       13  1    1    2    0    0 +2.6183425422e+01 -1.4258339739e+02 +5.8870882512e+02 6.0629504183e+02 0.0000000000e+00 0.0000e+00 -1.0000e+00
<mgrwt>
<rscale>  0 0.30896306E+03</rscale>
<asrwt>0</asrwt>
<pdfrwt beam="1">  1        2 0.13663680E+00 0.30896306E+03</pdfrwt>
<pdfrwt beam="2">  1       -2 0.41338884E-02 0.30896306E+03</pdfrwt>
<totfact> 0.84953405E+03</totfact>
</mgrwt>
<rwgt>
<wgt id='morphing_basis_vector_1'> +2.3846357e-04 </wgt>
<wgt id='morphing_basis_vector_2'> +1.3585463e-04 </wgt>
<wgt id='morphing_basis_vector_3'> +1.3726570e-04 </wgt>
<wgt id='morphing_basis_vector_4'> +2.4399504e-05 </wgt>
<wgt id='morphing_basis_vector_5'> +2.6119001e-06 </wgt>
</rwgt>
</event>
<event>
 4      1 +5.5534000e-05 3.41643900e+02 7.81860800e-03 9.84646800e-02
        2 -1    0    0  501    0 +0.0000000000e+00 +0.0000000000e+00 +2.5066762700e+02 2.5066762700e+02 0.0000000000e+00 0.0000e+00 -1.0000e+00
       -2 -1    0    0    0  501 -0.0000000000e+00 -0.0000000000e+00 -1.1640969043e+02 1.1640969043e+02 0.0000000000e+00 0.0000e+00 1.0000e+00
      -13  1    1    2    0    0 -7.3083171325e+01 -7.2241666996e+01 -7.9484964983e+01 1.2991484919e+02 0.0000000000e+00 0.0000e+00 1.0000e+00
       13  1    1    2    0    0 +7.3083171325e+01 +7.2241666996e+01 +2.1374290155e+02 2.3716246825e+02 0.0000000000e+00 0.0000e+00 -1.0000e+00
<mgrwt>
<rscale>  0 0.34164391E+03</rscale>
<asrwt>0</asrwt>
<pdfrwt beam="1">  1        2 0.38564250E-01 0.34164391E+03</pdfrwt>
<pdfrwt beam="2">  1       -2 0.17909183E-01 0.34164391E+03</pdfrwt>
<totfact> 0.37743302E+03</totfact>
</mgrwt>
<rwgt>
<wgt id='morphing_basis_vector_1'> +2.9680304e-04 </wgt>
<wgt id='morphing_basis_vector_2'> +1.6118469e-04 </wgt>
<wgt id='morphing_basis_vector_3'> +1.7876062e-04 </wgt>
<wgt id='morphing_basis_vector_4'> +3.0910276e-05 </wgt>
<wgt id='morphing_basis_vector_5'> +1.3548666e-05 </wgt>
</rwgt>
</event>
<event>
 4      1 +5.5534000e-05 3.33871200e+02 7.81860800e-03 9.87486100e-02
        2 -1    0    0  501    0 +0.0000000000e+00 +0.0000000000e+00 +1.7342561901e+02 1.7342561901e+02 0.0000000000e+00 0.0000e+00 -1.0000e+00
       -2 -1    0    0    0  501 -0.0000000000e+00 -0.0000000000e+00 -1.6068843300e+02 1.6068843300e+02 0.0000000000e+00 0.0000e+00 1.0000e+00
      -13  1    1    2    0    0 +9.6103104107e+01 -1.7988656745e+01 -1.2903723620e+02 1.6189504846e+02 0.0000000000e+00 0.0000e+00 1.0000e+00
       13  1    1    2    0    0 -9.6103104107e+01 +1.7988656745e+01 +1.4177442221e+02 1.7221900355e+02 0.0000000000e+00 0.0000e+00 -1.0000e+00
<mgrwt>
<rscale>  0 0.33387118E+03</rscale>
<asrwt>0</asrwt>
<pdfrwt beam="1">  1        2 0.26680864E-01 0.33387118E+03</pdfrwt>
<pdfrwt beam="2">  1       -2 0.24721297E-01 0.33387118E+03</pdfrwt>
<totfact> 0.33611498E+03</totfact>
</mgrwt>
<rwgt>
<wgt id='morphing_basis_vector_1'> +2.8135543e-04 </wgt>
<wgt id='morphing_basis_vector_2'> +1.5330575e-04 </wgt>
<wgt id='morphing_basis_vector_3'> +1.6840859e-04 </wgt>
<wgt id='morphing_basis_vector_4'> +2.8589991e-05 </wgt>
<wgt id='morphing_basis_vector_5'> +1.0020248e-05 </wgt>
</rwgt>
</event>
<event>
 4      1 +5.5534000e-05 3.50154000e+02 7.81860800e-03 9.81630500e-02
        2 -1    0    0  501    0 +0.0000000000e+00 +0.0000000000e+00 +5.0072536157e+02 5.0072536157e+02 0.0000000000e+00 0.0000e+00 1.0000e+00
       -2 -1    0    0    0  501 -0.0000000000e+00 -0.0000000000e+00 -6.1215104576e+01 6.1215104576e+01 0.0000000000e+00 0.0000e+00 -1.0000e+00
      -13  1    1    2    0    0 +7.1092536968e+01 +1.2727167383e+02 +6.4162558778e+01 1.5927668291e+02 0.0000000000e+00 0.0000e+00 -1.0000e+00
       13  1    1    2    0    0 -7.1092536968e+01 -1.2727167383e+02 +3.7534769822e+02 4.0266378324e+02 0.0000000000e+00 0.0000e+00 1.0000e+00
<mgrwt>
<rscale>  0 0.35015400E+03</rscale>
<asrwt>0</asrwt>
<pdfrwt beam="1">  1        2 0.77034668E-01 0.35015400E+03</pdfrwt>
<pdfrwt beam="2">  1       -2 0.94177087E-02 0.35015400E+03</pdfrwt>
<totfact> 0.48399721E+03</totfact>
</mgrwt>
<rwgt>
<wgt id='morphing_basis_vector_1'> +3.1531402e-04 </wgt>
<wgt id='morphing_basis_vector_2'> +1.7244709e-04 </wgt>
<wgt id='morphing_basis_vector_3'> +1.9005408e-04 </wgt>
<wgt id='morphing_basis_vector_4'> +3.4123593e-05 </wgt>
<wgt id='morphing_basis_vector_5'> +1.8179907e-05 </wgt>
</rwgt>
</event>
<event>
 4      1 +5.5534000e-05 3.24736300e+02 7.81860800e-03 9.90932100e-02
        2 -1    0    0  501    0 +0.0000000000e+00 +0.0000000000e+00 +1.0709298816e+03 1.0709298816e+03 0.0000000000e+00 0.0000e+00 1.0000e+00
       -2 -1    0    0    0  501 -0.0000000000e+00 -0.0000000000e+00 -2.4617314274e+01 2.4617314274e+01 0.0000000000e+00 0.0000e+00 -1.0000e+00
      -13  1    1    2    0    0 +9.2331843545e+01 -1.2778889412e+02 +3.9213663516e+02 4.2264206065e+02 0.0000000000e+00 0.0000e+00 1.0000e+00
       13  1    1    2    0    0 -9.2331843545e+01 +1.2778889412e+02 +6.5417593214e+02 6.7290513521e+02 0.0000000000e+00 0.0000e+00 -1.0000e+00
<mgrwt>
<rscale>  0 0.32473631E+03</rscale>
<asrwt>0</asrwt>
<pdfrwt beam="1">  1        2 0.16475841E+00 0.32473631E+03</pdfrwt>
<pdfrwt beam="2">  1       -2 0.37872799E-02 0.32473631E+03</pdfrwt>
<totfact> 0.75105070E+03</totfact>
</mgrwt>
<rwgt>
<wgt id='morphing_basis_vector_1'> +2.6715860e-04 </wgt>
<wgt id='morphing_basis_vector_2'> +1.5340001e-04 </wgt>
<wgt id='morphing_basis_vector_3'> +1.5304384e-04 </wgt>
<wgt id='morphing_basis_vector_4'> +2.7629354e-05 </wgt>
<wgt id='morphing_basis_vector_5'> +6.7887786e-06 </wgt>
</rwgt>
</event>
<event>
 4      1 +5.5534000e-05 3.15309800e+02 7.81860800e-03 9.94620000e-02
        2 -1    0    0  501    0 +0.0000000000e+00 +0.0000000000e+00 +9.5267080518e+02 9.5267080518e+02 0.0000000000e+00 0.0000e+00 -1.0000e+00
       -2 -1    0    0    0  501 -0.0000000000e+00 -0.0000000000e+00 -2.6089875576e+01 2.6089875576e+01 0.0000000000e+00 0.0000e+00 1.0000e+00
      -13  1    1    2    0    0 -1.2885354823e+01 +1.5706081588e+02 +4.4908913289e+02 4.7593611077e+02 0.0000000000e+00 0.0000e+00 1.0000e+00
       13  1    1    2    0    0 +1.2885354823e+01 -1.5706081588e+02 +4.7749179672e+02 5.0282456999e+02 0.0000000000e+00 0.0000e+00 -1.0000e+00
<mgrwt>
<rscale>  0 0.31530977E+03</rscale>
<asrwt>0</asrwt>
<pdfrwt beam="1">  1        2 0.14656471E+00 0.31530977E+03</pdfrwt>
<pdfrwt beam="2">  1       -2 0.40138277E-02 0.31530977E+03</pdfrwt>
<totfact> 0.80970528E+03</totfact>
</mgrwt>
<rwgt>
<wgt id='morphing_basis_vector_1'> +2.5384292e-04 </wgt>
<wgt id='morphing_basis_vector_2'> +1.5481001e-04 </wgt>
<wgt id='morphing_basis_vector_3'> +1.3743414e-04 </wgt>
<wgt id='morphing_basis_vector_4'> +2.7534676e-05 </wgt>
<wgt id='morphing_basis_vector_5'> +4.2338370e-06 </wgt>
</rwgt>
</event>
<event>
 4      1 +5.5534000e-05 3.58331400e+02 7.81860800e-03 9.78818200e-02
        2 -1    0    0  501    0 +0.0000000000e+00 +0.0000000000e+00 +1.0182267565e+03 1.0182267565e+03 0.0000000000e+00 0.0000e+00 1.0000e+00
       -2 -1    0    0    0  501 -0.0000000000e+00 -0.0000000000e+00 -3.1525728859e+01 3.1525728859e+01 0.0000000000e+00 0.0000e+00 -1.0000e+00
      -13  1    1    2    0    0 -1.4175558139e+02 +9.7127774218e+01 +3.4478144658e+02 3.8523070398e+02 0.0000000000e+00 0.0000e+00 -1.0000e+00
       13  1    1    2    0    0 +1.4175558139e+02 -9.7127774218e+01 +6.4191958105e+02 6.6452178137e+02 0.0000000000e+00 0.0000e+00 1.0000e+00
<mgrwt>
<rscale>  0 0.35833136E+03</rscale>
<asrwt>0</asrwt>
<pdfrwt beam="1">  1        2 0.15665025E+00 0.35833136E+03</pdfrwt>
<pdfrwt beam="2">  1       -2 0.48501129E-02 0.35833136E+03</pdfrwt>
<totfact> 0.55907205E+03</totfact>
</mgrwt>
<rwgt>
<wgt id='morphing_basis_vector_1'> +3.3581898e-04 </wgt>
<wgt id='morphing_basis_vector_2'> +1.8924821e-04 </wgt>
<wgt id='morphing_basis_vector_3'> +1.9968792e-04 </wgt>
<wgt id='morphing_basis_vector_4'> +3.8119105e-05 </wgt>
<wgt id='morphing_basis_vector_5'> +2.3505526e-05 </wgt>
</rwgt>
</event>
<event>
 4      1 +5.5534000e-05 3.31635300e+02 7.81860800e-03 9.88318400e-02
        2 -1    0    0  501    0 +0.0000000000e+00 +0.0000000000e+00 +5.7905424598e+01 5.7905424598e+01 0.0000000000e+00 0.0000e+00 -1.0000e+00
       -2 -1    0    0    0  501 -0.0000000000e+00 -0.0000000000e+00 -4.7483444110e+02 4.7483444110e+02 0.0000000000e+00 0.0000e+00 1.0000e+00
      -13  1    1    2    0    0 +7.2544589661e+01 +1.3125089583e+02 -3.2212219131e+02 3.5531988585e+02 0.0000000000e+00 0.0000e+00 1.0000e+00
       13  1    1    2    0    0 -7.2544589661e+01 -1.3125089583e+02 -9.4806825194e+01 1.7741997985e+02 0.0000000000e+00 0.0000e+00 -1.0000e+00
<mgrwt>
<rscale>  0 0.33163528E+03</rscale>
<asrwt>0</asrwt>
<pdfrwt beam="1">  1        2 0.89085269E-02 0.33163528E+03</pdfrwt>
<pdfrwt beam="2">  1       -2 0.73051452E-01 0.33163528E+03</pdfrwt>
<totfact> 0.16693533E+03</totfact>
</mgrwt>
<rwgt>
<wgt id='morphing_basis_vector_1'> +2.7837809e-04 </wgt>
<wgt id='morphing_basis_vector_2'> +1.5502776e-04 </wgt>
<wgt id='morphing_basis_vector_3'> +1.6380615e-04 </wgt>
<wgt id='morphing_basis_vector_4'> +2.8521309e-05 </wgt>
<wgt id='morphing_basis_vector_5'> +9.1914142e-06 </wgt>
</rwgt>
</event>
<event>
 4      1 +5.5534000e-05 3.25010300e+02 7.81860800e-03 9.90827000e-02
        2 -1    0    0  501    0 +0.0000000000e+00 +0.0000000000e+00 +3.9811606101e+02 3.9811606101e+02 0.0000000000e+00 0.0000e+00 -1.0000e+00
       -2 -1    0    0    0  501 -0.0000000000e+00 -0.0000000000e+00 -6.6332233075e+01 6.6332233075e+01 0.0000000000e+00 0.0000e+00 1.0000e+00
      -13  1    1    2    0    0 +5.5604429698e+01 +1.1471815376e+02 +2.1880234757e+01 1.2934779503e+02 0.0000000000e+00 0.0000e+00 1.0000e+00
       13  1    1    2    0    0 -5.5604429698e+01 -1.1471815376e+02 +3.0990359318e+02 3.3510049906e+02 0.0000000000e+00 0.0000e+00 -1.0000e+00
<mgrwt>
<rscale>  0 0.32501032E+03</rscale>
<asrwt>0</asrwt>
<pdfrwt beam="1">  1        2 0.61248623E-01 0.32501032E+03</pdfrwt>
<pdfrwt beam="2">  1       -2 0.10204959E-01 0.32501032E+03</pdfrwt>
<totfact> 0.54959492E+03</totfact>
</mgrwt>
<rwgt>
<wgt id='morphing_basis_vector_1'> +2.6504786e-04 </wgt>
<wgt id='morphing_basis_vector_2'> +1.4600677e-04 </wgt>
<wgt id='morphing_basis_vector_3'> +1.5691219e-04 </wgt>
<wgt id='morphing_basis_vector_4'> +2.6564910e-05 </wgt>
<wgt id='morphing_basis_vector_5'> +6.7408219e-06 </wgt>
</rwgt>
</event>
<event>
 4      1 +5.5534000e-05 3.16209700e+02 7.81860800e-03 9.94261900e-02
        2 -1    0    0  501    0 +0.0000000000e+00 +0.0000000000e+00 +3.4043304987e+01 3.4043304987e+01 0.0000000000e+00 0.0000e+00 -1.0000e+00
       -2 -1    0    0    0  501 -0.0000000000e+00 -0.0000000000e+00 -7.3427481421e+02 7.3427481421e+02 0.0000000000e+00 0.0000e+00 1.0000e+00
      -13  1    1    2    0    0 -1.5324449220e+02 +3.7088370937e+01 -3.7863014506e+02 4.1014656941e+02 0.0000000000e+00 0.0000e+00 1.0000e+00
       13  1    1    2    0    0 +1.5324449220e+02 -3.7088370937e+01 -3.2160136416e+02 3.5817154979e+02 0.0000000000e+00 0.0000e+00 -1.0000e+00
<mgrwt>
<rscale>  0 0.31620969E+03</rscale>
<asrwt>0</asrwt>
<pdfrwt beam="1">  1        2 0.52374317E-02 0.31620969E+03</pdfrwt>
<pdfrwt beam="2">  1       -2 0.11296535E+00 0.31620969E+03</pdfrwt>
<totfact> 0.12167860E+03</totfact>
</mgrwt>
<rwgt>
<wgt id='morphing_basis_vector_1'> +2.5442955e-04 </wgt>
<wgt id='morphing_basis_vector_2'> +1.5279860e-04 </wgt>
<wgt id='morphing_basis_vector_3'> +1.3979210e-04 </wgt>
<wgt id='morphing_basis_vector_4'> +2.7210951e-05 </wgt>
<wgt id='morphing_basis_vector_5'> +4.4154947e-06 </wgt>
</rwgt>
</event>
<event>
 4      1 +5.5534000e-05 3.19592000e+02 7.81860800e-03 9.92927500e-02
        2 -1    0    0  501    0 +0.0000000000e+00 +0.0000000000e+00 +7.6163031507e+01 7.6163031507e+01 0.0000000000e+00 0.0000e+00 -1.0000e+00
       -2 -1    0    0    0  501 -0.0000000000e+00 -0.0000000000e+00 -3.3526452171e+02 3.3526452171e+02 0.0000000000e+00 0.0000e+00 1.0000e+00
      -13  1    1    2    0    0 -9.6112860211e+01 -9.3645453692e+01 -2.4124375804e+02 2.7605380579e+02 0.0000000000e+00 0.0000e+00 1.0000e+00
       13  1    1    2    0    0 +9.6112860211e+01 +9.3645453692e+01 -1.7857732159e+01 1.3537374743e+02 0.0000000000e+00 0.0000e+00 -1.0000e+00
<mgrwt>
<rscale>  0 0.31959200E+03</rscale>
<asrwt>0</asrwt>
<pdfrwt beam="1">  1        2 0.11717390E-01 0.31959200E+03</pdfrwt>
<pdfrwt beam="2">  1       -2 0.51579157E-01 0.31959200E+03</pdfrwt>
<totfact> 0.23937632E+03</totfact>
</mgrwt>
<rwgt>
<wgt id='morphing_basis_vector_1'> +2.5555909e-04 </wgt>
<wgt id='morphing_basis_vector_2'> +1.4186802e-04 </wgt>
<wgt id='morphing_basis_vector_3'> +1.5025558e-04 </wgt>
<wgt id='morphing_basis_vector_4'> +2.5575354e-05 </wgt>
<wgt id='morphing_basis_vector_5'> +5.0922528e-06 </wgt>
</rwgt>
</event>
<event>
 4      1 +5.5534000e-05 3.18228300e+02 7.81860800e-03 9.93463400e-02
        2 -1    0    0  501    0 +0.0000000000e+00 +0.0000000000e+00 +4.0670443274e+01 4.0670443274e+01 0.0000000000e+00 0.0000e+00 1.0000e+00
       -2 -1    0    0    0  501 -0.0000000000e+00 -0.0000000000e+00 -6.2249905002e+02 6.2249905002e+02 0.0000000000e+00 0.0000e+00 -1.0000e+00
      -13  1    1    2    0    0 -1.1810255643e+02 -7.4227000439e+01 -4.5043395901e+02 4.7153855925e+02 0.0000000000e+00 0.0000e+00 -1.0000e+00
       13  1    1    2    0    0 +1.1810255643e+02 +7.4227000439e+01 -1.3139464774e+02 1.9163093405e+02 0.0000000000e+00 0.0000e+00 1.0000e+00
<mgrwt>
<rscale>  0 0.31822830E+03</rscale>
<asrwt>0</asrwt>
<pdfrwt beam="1">  1        2 0.62569915E-02 0.31822830E+03</pdfrwt>
<pdfrwt beam="2">  1       -2 0.95769080E-01 0.31822830E+03</pdfrwt>
<totfact> 0.14338304E+03</totfact>
</mgrwt>
<rwgt>
<wgt id='morphing_basis_vector_1'> +2.5343083e-04 </wgt>
<wgt id='morphing_basis_vector_2'> +1.4145625e-04 </wgt>
<wgt id='morphing_basis_vector_3'> +1.4834067e-04 </wgt>
<wgt id='morphing_basis_vector_4'> +2.5448587e-05 </wgt>
<wgt id='morphing_basis_vector_5'> +4.7281654e-06 </wgt>
</rwgt>
</event>
<event>
 4      1 +5.5534000e-05 3.08423500e+02 7.81860800e-03 9.97403000e-02
        2 -1    0    0  501    0 +0.0000000000e+00 +0.0000000000e+00 +4.3030382456e+02 4.3030382456e+02 0.0000000000e+00 0.0000e+00 1.0000e+00
       -2 -1    0    0    0  501 -0.0000000000e+00 -0.0000000000e+00 -5.5266207725e+01 5.5266207725e+01 0.0000000000e+00 0.0000e+00 -1.0000e+00
      -13  1    1    2    0    0 -4.0152703322e+01 -1.4645973418e+02 +1.4531631129e+02 2.1018925674e+02 0.0000000000e+00 0.0000e+00 -1.0000e+00
       13  1    1    2    0    0 +4.0152703322e+01 +1.4645973418e+02 +2.2972130555e+02 2.7538077555e+02 0.0000000000e+00 0.0000e+00 1.0000e+00
<mgrwt>
<rscale>  0 0.30842348E+03</rscale>
<asrwt>0</asrwt>
<pdfrwt beam="1">  1        2 0.66200586E-01 0.30842348E+03</pdfrwt>
<pdfrwt beam="2">  1       -2 0.85024938E-02 0.30842348E+03</pdfrwt>
<totfact> 0.66687441E+03</totfact>
</mgrwt>
<rwgt>
<wgt id='morphing_basis_vector_1'> +2.3935885e-04 </wgt>
<wgt id='morphing_basis_vector_2'> +1.4054774e-04 </wgt>
<wgt id='morphing_basis_vector_3'> +1.3415507e-04 </wgt>
<wgt id='morphing_basis_vector_4'> +2.5225943e-05 </wgt>
<wgt id='morphing_basis_vector_5'> +2.5843178e-06 </wgt>
</rwgt>
</event>
<event>
 4      1 +5.5534000e-05 3.00040600e+02 7.81860800e-03 1.00089600e-01
        2 -1    0    0  501    0 +0.0000000000e+00 +0.0000000000e+00 +1.5248013691e+03 1.5248013691e+03 0.0000000000e+00 0.0000e+00 -1.0000e+00
       -2 -1    0    0    0  501 -0.0000000000e+00 -0.0000000000e+00 -1.4760010482e+01 1.4760010482e+01 0.0000000000e+00 0.0000e+00 1.0000e+00
      -13  1    1    2    0    0 -2.3477091260e+01 +1.4756618532e+02 +6.8634502376e+02 7.0242184228e+02 0.0000000000e+00 0.0000e+00 1.0000e+00
       13  1    1    2    0    0 +2.3477091260e+01 -1.4756618532e+02 +8.2369633484e+02 8.3713953729e+02 0.0000000000e+00 0.0000e+00 -1.0000e+00
<mgrwt>
<rscale>  0 0.30004056E+03</rscale>
<asrwt>0</asrwt>
<pdfrwt beam="1">  1        2 0.23458470E+00 0.30004056E+03</pdfrwt>
<pdfrwt beam="2">  1       -2 0.22707720E-02 0.30004056E+03</pdfrwt>
<totfact> 0.89376851E+03</totfact>
</mgrwt>
<rwgt>
<wgt id='morphing_basis_vector_1'> +2.2703350e-04 </wgt>
<wgt id='morphing_basis_vector_2'> +1.3690111e-04 </wgt>
<wgt id='morphing_basis_vector_3'> +1.2425983e-04 </wgt>
<wgt id='morphing_basis_vector_4'> +2.4971661e-05 </wgt>
<wgt id='morphing_basis_vector_5'> +1.2867160e-06 </wgt>
</rwgt>
</event>
<event>
 4      1 +5.5534000e-05 3.38021300e+02 7.81860800e-03 9.85959800e-02
        2 -1    0    0  501    0 +0.0000000000e+00 +0.0000000000e+00 +6.6994757430e+02 6.6994757430e+02 0.0000000000e+00 0.0000e+00 1.0000e+00
       -2 -1    0    0    0  501 -0.0000000000e+00 -0.0000000000e+00 -4.2637064704e+01 4.2637064704e+01 0.0000000000e+00 0.0000e+00 -1.0000e+00
      -13  1    1    2    0    0 +8.8352779255e+01 +1.1553337722e+02 +4.9512904407e+02 5.1604936308e+02 0.0000000000e+00 0.0000e+00 1.0000e+00
       13  1    1    2    0    0 -8.8352779255e+01 -1.1553337722e+02 +1.3218146553e+02 1.9653527593e+02 0.0000000000e+00 0.0000e+00 -1.0000e+00
<mgrwt>
<rscale>  0 0.33802129E+03</rscale>
<asrwt>0</asrwt>
<pdfrwt beam="1">  1        2 0.10306885E+00 0.33802129E+03</pdfrwt>
<pdfrwt beam="2">  1       -2 0.65595489E-02 0.33802129E+03</pdfrwt>
<totfact> 0.60264413E+03</totfact>
</mgrwt>
<rwgt>
<wgt id='morphing_basis_vector_1'> +3.3708675e-04 </wgt>
<wgt id='morphing_basis_vector_2'> +2.9826569e-04 </wgt>
<wgt id='morphing_basis_vector_3'> +1.1253979e-04 </wgt>
<wgt id='morphing_basis_vector_4'> +4.7325878e-05 </wgt>
<wgt id='morphing_basis_vector_5'> +1.4625811e-05 </wgt>
</rwgt>
</event>
<event>
 4      1 +5.5534000e-05 3.11185600e+02 7.81860800e-03 9.96277600e-02
        2 -1    0    0  501    0 +0.0000000000e+00 +0.0000000000e+00 +4.1100569602e+02 4.1100569602e+02 0.0000000000e+00 0.0000e+00 1.0000e+00
       -2 -1    0    0    0  501 -0.0000000000e+00 -0.0000000000e+00 -5.8902155896e+01 5.8902155896e+01 0.0000000000e+00 0.0000e+00 -1.0000e+00
      -13  1    1    2    0    0 +3.8623554883e+01 -5.3046233180e+01 -3.6986319843e+01 7.5323765851e+01 0.0000000000e+00 0.0000e+00 -1.0000e+00
       13  1    1    2    0    0 -3.8623554883e+01 +5.3046233180e+01 +3.8908985997e+02 3.9458408606e+02 0.0000000000e+00 0.0000e+00 1.0000e+00
<mgrwt>
<rscale>  0 0.31118561E+03</rscale>
<asrwt>0</asrwt>
<pdfrwt beam="1">  1        2 0.63231644E-01 0.31118561E+03</pdfrwt>
<pdfrwt beam="2">  1       -2 0.90618704E-02 0.31118561E+03</pdfrwt>
<totfact> 0.63638934E+03</totfact>
</mgrwt>
<rwgt>
<wgt id='morphing_basis_vector_1'> +2.4044877e-04 </wgt>
<wgt id='morphing_basis_vector_2'> +1.3276791e-04 </wgt>
<wgt id='morphing_basis_vector_3'> +1.4200598e-04 </wgt>
<wgt id='morphing_basis_vector_4'> +2.3861244e-05 </wgt>
<wgt id='morphing_basis_vector_5'> +2.9879767e-06 </wgt>
</rwgt>
</event>
<event>
 4      1 +5.5534000e-05 3.48900700e+02 7.81860800e-03 9.82068900e-02
        2 -1    0    0  501    0 +0.0000000000e+00 +0.0000000000e+00 +1.7280330685e+02 1.7280330685e+02 0.0000000000e+00 0.0000e+00 -1.0000e+00
       -2 -1    0    0    0  501 -0.0000000000e+00 -0.0000000000e+00 -1.7611309702e+02 1.7611309702e+02 0.0000000000e+00 0.0000e+00 1.0000e+00
      -13  1    1    2    0    0 -5.6264128723e+01 +1.2466959306e+02 -1.0994072541e+02 1.7548539175e+02 0.0000000000e+00 0.0000e+00 1.0000e+00
       13  1    1    2    0    0 +5.6264128723e+01 -1.2466959306e+02 +1.0663093524e+02 1.7343101212e+02 0.0000000000e+00 0.0000e+00 -1.0000e+00
<mgrwt>
<rscale>  0 0.34890071E+03</rscale>
<asrwt>0</asrwt>
<pdfrwt beam="1">  1        2 0.26585124E-01 0.34890071E+03</pdfrwt>
<pdfrwt beam="2">  1       -2 0.27094323E-01 0.34890071E+03</pdfrwt>
<totfact> 0.28931973E+03</totfact>
</mgrwt>
<rwgt>
<wgt id='morphing_basis_vector_1'> +3.1234614e-04 </wgt>
<wgt id='morphing_basis_vector_2'> +1.7020914e-04 </wgt>
<wgt id='morphing_basis_vector_3'> +1.8855497e-04 </wgt>
<wgt id='morphing_basis_vector_4'> +3.3565550e-05 </wgt>
<wgt id='morphing_basis_vector_5'> +1.7437046e-05 </wgt>
</rwgt>
</event>
<event>
 4      1 +5.5534000e-05 3.06278500e+02 7.81860800e-03 9.98285500e-02
        2 -1    0    0  501    0 +0.0000000000e+00 +0.0000000000e+00 +7.4618005865e+02 7.4618005865e+02 0.0000000000e+00 0.0000e+00 -1.0000e+00
       -2 -1    0    0    0  501 -0.0000000000e+00 -0.0000000000e+00 -3.1428914220e+01 3.1428914220e+01 0.0000000000e+00 0.0000e+00 1.0000e+00
      -13  1    1    2    0    0 +4.9840133243e+01 +1.3160343732e+02 +2.0402703336e+02 2.4785183868e+02 0.0000000000e+00 0.0000e+00 1.0000e+00
       13  1    1    2    0    0 -4.9840133243e+01 -1.3160343732e+02 +5.1072411107e+02 5.2975713419e+02 0.0000000000e+00 0.0000e+00 -1.0000e+00
<mgrwt>
<rscale>  0 0.30627849E+03</rscale>
<asrwt>0</asrwt>
<pdfrwt beam="1">  1        2 0.11479692E+00 0.30627849E+03</pdfrwt>
<pdfrwt beam="2">  1       -2 0.48352181E-02 0.30627849E+03</pdfrwt>
<totfact> 0.83566691E+03</totfact>
</mgrwt>
<rwgt>
<wgt id='morphing_basis_vector_1'> +2.3371719e-04 </wgt>
<wgt id='morphing_basis_vector_2'> +1.3263846e-04 </wgt>
<wgt id='morphing_basis_vector_3'> +1.3505129e-04 </wgt>
<wgt id='morphing_basis_vector_4'> +2.3888008e-05 </wgt>
<wgt id='morphing_basis_vector_5'> +2.1029919e-06 </wgt>
</rwgt>
</event>
<event>
 4      1 +5.5534000e-05 3.01426500e+02 7.81860800e-03 1.00031100e-01
        2 -1    0    0  501    0 +0.0000000000e+00 +0.0000000000e+00 +3.4193368789e+01 3.4193368789e+01 0.0000000000e+00 0.0000e+00 -1.0000e+00
       -2 -1    0    0    0  501 -0.0000000000e+00 -0.0000000000e+00 -6.6429494452e+02 6.6429494452e+02 0.0000000000e+00 0.0000e+00 1.0000e+00
      -13  1    1    2    0    0 -1.1251251235e+02 +6.7083274812e+01 -4.8776559262e+02 5.0504901202e+02 0.0000000000e+00 0.0000e+00 1.0000e+00
       13  1    1    2    0    0 +1.1251251235e+02 -6.7083274812e+01 -1.4233598311e+02 1.9343930129e+02 0.0000000000e+00 0.0000e+00 -1.0000e+00
<mgrwt>
<rscale>  0 0.30142649E+03</rscale>
<asrwt>0</asrwt>
<pdfrwt beam="1">  1        2 0.52605182E-02 0.30142649E+03</pdfrwt>
<pdfrwt beam="2">  1       -2 0.10219922E+00 0.30142649E+03</pdfrwt>
<totfact> 0.15433755E+03</totfact>
</mgrwt>
<rwgt>
<wgt id='morphing_basis_vector_1'> +2.2545424e-04 </wgt>
<wgt id='morphing_basis_vector_2'> +1.2729407e-04 </wgt>
<wgt id='morphing_basis_vector_3'> +1.3107240e-04 </wgt>
<wgt id='morphing_basis_vector_4'> +2.3094051e-05 </wgt>
<wgt id='morphing_basis_vector_5'> +1.3328548e-06 </wgt>
</rwgt>
</event>
<event>
 4      1 +5.5534000e-05 3.39482300e+02 7.81860800e-03 9.85428100e-02
        2 -1    0    0  501    0 +0.0000000000e+00 +0.0000000000e+00 +7.4297364752e+01 7.4297364752e+01 0.0000000000e+00 0.0000e+00 1.0000e+00
       -2 -1    0    0    0  501 -0.0000000000e+00 -0.0000000000e+00 -3.8779370705e+02 3.8779370705e+02 0.0000000000e+00 0.0000e+00 -1.0000e+00
      -13  1    1    2    0    0 -2.5926717793e+00 -9.6270211690e+01 -3.4700646733e+02 3.6012242915e+02 0.0000000000e+00 0.0000e+00 -1.0000e+00
       13  1    1    2    0    0 +2.5926717793e+00 +9.6270211690e+01 +3.3510125030e+01 1.0196864266e+02 0.0000000000e+00 0.0000e+00 1.0000e+00
<mgrwt>
<rscale>  0 0.33948226E+03</rscale>
<asrwt>0</asrwt>
<pdfrwt beam="1">  1        2 0.11430364E-01 0.33948226E+03</pdfrwt>
<pdfrwt beam="2">  1       -2 0.59660571E-01 0.33948226E+03</pdfrwt>
<totfact> 0.18547736E+03</totfact>
</mgrwt>
<rwgt>
<wgt id='morphing_basis_vector_1'> +2.9240401e-04 </wgt>
<wgt id='morphing_basis_vector_2'> +1.5887054e-04 </wgt>
<wgt id='morphing_basis_vector_3'> +1.7584453e-04 </wgt>
<wgt id='morphing_basis_vector_4'> +3.0216878e-05 </wgt>
<wgt id='morphing_basis_vector_5'> +1.2504152e-05 </wgt>
</rwgt>
</event>
<event>
 4      1 +5.5534000e-05 3.25539100e+02 7.81860800e-03 9.90624400e-02
        2 -1    0    0  501    0 +0.0000000000e+00 +0.0000000000e+00 +4.3318176909e+02 4.3318176909e+02 0.0000000000e+00 0.0000e+00 -1.0000e+00
       -2 -1    0    0    0  501 -0.0000000000e+00 -0.0000000000e+00 -6.1161239245e+01 6.1161239245e+01 0.0000000000e+00 0.0000e+00 1.0000e+00
      -13  1    1    2    0    0 -7.2032953409e+01 +6.4373460021e+01 -1.2919410381e+01 9.7465890938e+01 0.0000000000e+00 0.0000e+00 1.0000e+00
       13  1    1    2    0    0 +7.2032953409e+01 -6.4373460021e+01 +3.8493994023e+02 3.9687711740e+02 0.0000000000e+00 0.0000e+00 -1.0000e+00
<mgrwt>
<rscale>  0 0.32553915E+03</rscale>
<asrwt>0</asrwt>
<pdfrwt beam="1">  1        2 0.66643347E-01 0.32553915E+03</pdfrwt>
<pdfrwt beam="2">  1       -2 0.94094217E-02 0.32553915E+03</pdfrwt>
<totfact> 0.56778083E+03</totfact>
</mgrwt>
<rwgt>
<wgt id='morphing_basis_vector_1'> +2.6565313e-04 </wgt>
<wgt id='morphing_basis_vector_2'> +1.4542715e-04 </wgt>
<wgt id='morphing_basis_vector_3'> +1.5803677e-04 </wgt>
<wgt id='morphing_basis_vector_4'> +2.6526207e-05 </wgt>
<wgt id='morphing_basis_vector_5'> +6.8977274e-06 </wgt>
</rwgt>
</event>
<event>
 4      1 +5.5534000e-05 3.05992300e+02 7.81860800e-03 9.98403900e-02
        2 -1    0    0  501    0 +0.0000000000e+00 +0.0000000000e+00 +2.6058793548e+02 2.6058793548e+02 0.0000000000e+00 0.0000e+00 -1.0000e+00
       -2 -1    0    0    0  501 -0.0000000000e+00 -0.0000000000e+00 -8.9826942791e+01 8.9826942791e+01 0.0000000000e+00 0.0000e+00 1.0000e+00
      -13  1    1    2    0    0 +4.5037670453e+01 -3.0829222727e+01 -7.8299449594e+01 9.5444415973e+01 0.0000000000e+00 0.0000e+00 1.0000e+00
       13  1    1    2    0    0 -4.5037670453e+01 +3.0829222727e+01 +2.4906044228e+02 2.5497046230e+02 0.0000000000e+00 0.0000e+00 -1.0000e+00
<mgrwt>
<rscale>  0 0.30599227E+03</rscale>
<asrwt>0</asrwt>
<pdfrwt beam="1">  1        2 0.40090451E-01 0.30599227E+03</pdfrwt>
<pdfrwt beam="2">  1       -2 0.13819530E-01 0.30599227E+03</pdfrwt>
<totfact> 0.54472121E+03</totfact>
</mgrwt>
<rwgt>
<wgt id='morphing_basis_vector_1'> +2.3192262e-04 </wgt>
<wgt id='morphing_basis_vector_2'> +1.2858479e-04 </wgt>
<wgt id='morphing_basis_vector_3'> +1.3668690e-04 </wgt>
<wgt id='morphing_basis_vector_4'> +2.3172851e-05 </wgt>
<wgt id='morphing_basis_vector_5'> +1.9991973e-06 </wgt>
</rwgt>
</event>
<event>
 4      1 +5.5534000e-05 3.21462300e+02 7.81860800e-03 9.92197400e-02
        2 -1    0    0  501    0 +0.0000000000e+00 +0.0000000000e+00 +6.6068929561e+02 6.6068929561e+02 0.0000000000e+00 0.0000e+00 -1.0000e+00
       -2 -1    0    0    0  501 -0.0000000000e+00 -0.0000000000e+00 -3.9102354243e+01 3.9102354243e+01 0.0000000000e+00 0.0000e+00 1.0000e+00
      -13  1    1    2    0    0 +1.4241338665e+02 +7.3272512324e+01 +2.8125868252e+02 3.2366167560e+02 0.0000000000e+00 0.0000e+00 1.0000e+00
       13  1    1    2    0    0 -1.4241338665e+02 -7.3272512324e+01 +3.4032825884e+02 3.7612997425e+02 0.0000000000e+00 0.0000e+00 -1.0000e+00
<mgrwt>
<rscale>  0 0.32146233E+03</rscale>
<asrwt>0</asrwt>
<pdfrwt beam="1">  1        2 0.10164450E+00 0.32146233E+03</pdfrwt>
<pdfrwt beam="2">  1       -2 0.60157473E-02 0.32146233E+03</pdfrwt>
<totfact> 0.69701932E+03</totfact>
</mgrwt>
<rwgt>
<wgt id='morphing_basis_vector_1'> +2.6367452e-04 </wgt>
<wgt id='morphing_basis_vector_2'> +1.5751278e-04 </wgt>
<wgt id='morphing_basis_vector_3'> +1.4582497e-04 </wgt>
<wgt id='morphing_basis_vector_4'> +2.8069322e-05 </wgt>
<wgt id='morphing_basis_vector_5'> +5.8816652e-06 </wgt>
</rwgt>
</event>
<event>
 4      1 +5.5534000e-05 3.47725600e+02 7.81860800e-03 9.82481700e-02
        2 -1    0    0  501    0 +0.0000000000e+00 +0.0000000000e+00 +2.8528770783e+02 2.8528770783e+02 0.0000000000e+00 0.0000e+00 1.0000e+00
       -2 -1    0    0    0  501 -0.0000000000e+00 -0.0000000000e+00 -1.0595713475e+02 1.0595713475e+02 0.0000000000e+00 0.0000e+00 -1.0000e+00
      -13  1    1    2    0    0 +1.6652152465e+02 +4.6395444625e+01 +6.8726757283e+01 1.8602505912e+02 0.0000000000e+00 0.0000e+00 1.0000e+00
       13  1    1    2    0    0 -1.6652152465e+02 -4.6395444625e+01 +1.1060381580e+02 2.0521978346e+02 0.0000000000e+00 0.0000e+00 -1.0000e+00
<mgrwt>
<rscale>  0 0.34772557E+03</rscale>
<asrwt>0</asrwt>
<pdfrwt beam="1">  1        2 0.43890416E-01 0.34772557E+03</pdfrwt>
<pdfrwt beam="2">  1       -2 0.16301098E-01 0.34772557E+03</pdfrwt>
<totfact> 0.38061135E+03</totfact>
</mgrwt>
<rwgt>
<wgt id='morphing_basis_vector_1'> +3.1552043e-04 </wgt>
<wgt id='morphing_basis_vector_2'> +1.8581971e-04 </wgt>
<wgt id='morphing_basis_vector_3'> +1.7982417e-04 </wgt>
<wgt id='morphing_basis_vector_4'> +3.4962577e-05 </wgt>
<wgt id='morphing_basis_vector_5'> +1.7123772e-05 </wgt>
</rwgt>
</event>
<event>
 4      1 +5.5534000e-05 3.13590800e+02 7.81860800e-03 9.95307600e-02
        2 -1    0    0  501    0 +0.0000000000e+00 +0.0000000000e+00 +6.6582239146e+01 6.6582239146e+01 0.0000000000e+00 0.0000e+00 1.0000e+00
       -2 -1    0    0    0  501 -0.0000000000e+00 -0.0000000000e+00 -3.6923961085e+02 3.6923961085e+02 0.0000000000e+00 0.0000e+00 -1.0000e+00
      -13  1    1    2    0    0 +5.0731245615e+01 -1.4525845971e+02 -1.9327884511e+02 2.4704329857e+02 0.0000000000e+00 0.0000e+00 -1.0000e+00
       13  1    1    2    0    0 -5.0731245615e+01 +1.4525845971e+02 -1.0937852660e+02 1.8877855143e+02 0.0000000000e+00 0.0000e+00 1.0000e+00
<mgrwt>
<rscale>  0 0.31359082E+03</rscale>
<asrwt>0</asrwt>
<pdfrwt beam="1">  1        2 0.10243422E-01 0.31359082E+03</pdfrwt>
<pdfrwt beam="2">  1       -2 0.56806093E-01 0.31359082E+03</pdfrwt>
<totfact> 0.23417167E+03</totfact>
</mgrwt>
<rwgt>
<wgt id='morphing_basis_vector_1'> +2.4786332e-04 </wgt>
<wgt id='morphing_basis_vector_2'> +1.4450800e-04 </wgt>
<wgt id='morphing_basis_vector_3'> +1.3981588e-04 </wgt>
<wgt id='morphing_basis_vector_4'> +2.5841349e-05 </wgt>
<wgt id='morphing_basis_vector_5'> +3.6758737e-06 </wgt>
</rwgt>
</event>
<event>
 4      1 +5.5534000e-05 3.14819900e+02 7.81860800e-03 9.94815500e-02
        2 -1    0    0  501    0 +0.0000000000e+00 +0.0000000000e+00 +4.6199589917e+02 4.6199589917e+02 0.0000000000e+00 0.0000e+00 -1.0000e+00
       -2 -1    0    0    0  501 -0.0000000000e+00 -0.0000000000e+00 -5.3632277399e+01 5.3632277399e+01 0.0000000000e+00 0.0000e+00 1.0000e+00
      -13  1    1    2    0    0 -7.1610558010e+01 +1.3436217372e+02 +2.6962675926e+02 3.0964472393e+02 0.0000000000e+00 0.0000e+00 1.0000e+00
       13  1    1    2    0    0 +7.1610558010e+01 -1.3436217372e+02 +1.3873686251e+02 2.0598345264e+02 0.0000000000e+00 0.0000e+00 -1.0000e+00
<mgrwt>
<rscale>  0 0.31481990E+03</rscale>
<asrwt>0</asrwt>
<pdfrwt beam="1">  1        2 0.71076290E-01 0.31481990E+03</pdfrwt>
<pdfrwt beam="2">  1       -2 0.82511199E-02 0.31481990E+03</pdfrwt>
<totfact> 0.64609370E+03</totfact>
</mgrwt>
<rwgt>
<wgt id='morphing_basis_vector_1'> +2.6411891e-04 </wgt>
<wgt id='morphing_basis_vector_2'> +1.8661374e-04 </wgt>
<wgt id='morphing_basis_vector_3'> +1.2128180e-04 </wgt>
<wgt id='morphing_basis_vector_4'> +3.2742560e-05 </wgt>
<wgt id='morphing_basis_vector_5'> +4.6372749e-06 </wgt>
</rwgt>
</event>
<event>
 4      1 +5.5534000e-05 3.46397500e+02 7.81860800e-03 9.82950400e-02
        2 -1    0    0  501    0 +0.0000000000e+00 +0.0000000000e+00 +2.2822834172e+02 2.2822834172e+02 0.0000000000e+00 0.0000e+00 -1.0000e+00
       -2 -1    0    0    0  501 -0.0000000000e+00 -0.0000000000e+00 -1.3143771800e+02 1.3143771800e+02 0.0000000000e+00 0.0000e+00 1.0000e+00
      -13  1    1    2    0    0 +5.1030292911e+01 -1.3054836728e+02 -5.7240841987e+01 1.5140502298e+02 0.0000000000e+00 0.0000e+00 1.0000e+00
       13  1    1    2    0    0 -5.1030292911e+01 +1.3054836728e+02 +1.5403146571e+02 2.0826103673e+02 0.0000000000e+00 0.0000e+00 -1.0000e+00
<mgrwt>
<rscale>  0 0.34639753E+03</rscale>
<asrwt>0</asrwt>
<pdfrwt beam="1">  1        2 0.35112052E-01 0.34639753E+03</pdfrwt>
<pdfrwt beam="2">  1       -2 0.20221187E-01 0.34639753E+03</pdfrwt>
<totfact> 0.34403762E+03</totfact>
</mgrwt>
<rwgt>
<wgt id='morphing_basis_vector_1'> +3.0717306e-04 </wgt>
<wgt id='morphing_basis_vector_2'> +1.6784159e-04 </wgt>
<wgt id='morphing_basis_vector_3'> +1.8476913e-04 </wgt>
<wgt id='morphing_basis_vector_4'> +3.2700428e-05 </wgt>
<wgt id='morphing_basis_vector_5'> +1.6048047e-05 </wgt>
</rwgt>
</event>
<event>
 4      1 +5.5534000e-05 3.00707600e+02 7.81860800e-03 1.00061400e-01
        2 -1    0    0  501    0 +0.0000000000e+00 +0.0000000000e+00 +2.2309892523e+02 2.2309892523e+02 0.0000000000e+00 0.0000e+00 -1.0000e+00
       -2 -1    0    0    0  501 -0.0000000000e+00 -0.0000000000e+00 -1.0132841526e+02 1.0132841526e+02 0.0000000000e+00 0.0000e+00 1.0000e+00
      -13  1    1    2    0    0 -6.3299981134e+01 -1.1649684218e+02 -1.5615305687e+01 1.3349996113e+02 0.0000000000e+00 0.0000e+00 1.0000e+00
       13  1    1    2    0    0 +6.3299981134e+01 +1.1649684218e+02 +1.3738581566e+02 1.9092737937e+02 0.0000000000e+00 0.0000e+00 -1.0000e+00
<mgrwt>
<rscale>  0 0.30070757E+03</rscale>
<asrwt>0</asrwt>
<pdfrwt beam="1">  1        2 0.34322912E-01 0.30070757E+03</pdfrwt>
<pdfrwt beam="2">  1       -2 0.15588987E-01 0.30070757E+03</pdfrwt>
<totfact> 0.53477202E+03</totfact>
</mgrwt>
<rwgt>
<wgt id='morphing_basis_vector_1'> +2.2442699e-04 </wgt>
<wgt id='morphing_basis_vector_2'> +1.2701768e-04 </wgt>
<wgt id='morphing_basis_vector_3'> +1.3024579e-04 </wgt>
<wgt id='morphing_basis_vector_4'> +2.3077823e-05 </wgt>
<wgt id='morphing_basis_vector_5'> +1.2406609e-06 </wgt>
</rwgt>
</event>
<event>
 4      1 +5.5534000e-05 3.58185600e+02 7.81860800e-03 9.78867700e-02
        2 -1    0    0  501    0 +0.0000000000e+00 +0.0000000000e+00 +3.3995401196e+02 3.3995401196e+02 0.0000000000e+00 0.0000e+00 1.0000e+00
       -2 -1    0    0    0  501 -0.0000000000e+00 -0.0000000000e+00 -9.4348728759e+01 9.4348728759e+01 0.0000000000e+00 0.0000e+00 -1.0000e+00
      -13  1    1    2    0    0 +1.4716034218e+01 +1.7823313056e+02 +1.1126033539e+02 2.1062400795e+02 0.0000000000e+00 0.0000e+00 -1.0000e+00
       13  1    1    2    0    0 -1.4716034218e+01 -1.7823313056e+02 +1.3434494781e+02 2.2367873277e+02 0.0000000000e+00 0.0000e+00 1.0000e+00
<mgrwt>
<rscale>  0 0.35818559E+03</rscale>
<asrwt>0</asrwt>
<pdfrwt beam="1">  1        2 0.52300616E-01 0.35818559E+03</pdfrwt>
<pdfrwt beam="2">  1       -2 0.14515189E-01 0.35818559E+03</pdfrwt>
<totfact> 0.37785294E+03</totfact>
</mgrwt>
<rwgt>
<wgt id='morphing_basis_vector_1'> +3.4042160e-04 </wgt>
<wgt id='morphing_basis_vector_2'> +2.0387069e-04 </wgt>
<wgt id='morphing_basis_vector_3'> +1.9363349e-04 </wgt>
<wgt id='morphing_basis_vector_4'> +3.9394915e-05 </wgt>
<wgt id='morphing_basis_vector_5'> +2.3723132e-05 </wgt>
</rwgt>
</event>
<event>
 4      1 +5.5534000e-05 3.41934200e+02 7.81860800e-03 9.84542400e-02
        2 -1    0    0  501    0 +0.0000000000e+00 +0.0000000000e+00 +1.9440844251e+02 1.9440844251e+02 0.0000000000e+00 0.0000e+00 1.0000e+00
       -2 -1    0    0    0  501 -0.0000000000e+00 -0.0000000000e+00 -1.5035222899e+02 1.5035222899e+02 0.0000000000e+00 0.0000e+00 -1.0000e+00
      -13  1    1    2    0    0 +1.6989444730e+02 -1.7792529940e+01 +1.4966979733e+01 1.7147800975e+02 0.0000000000e+00 0.0000e+00 -1.0000e+00
       13  1    1    2    0    0 -1.6989444730e+02 +1.7792529940e+01 +2.9089233787e+01 1.7328266176e+02 0.0000000000e+00 0.0000e+00 1.0000e+00
<mgrwt>
<rscale>  0 0.34193416E+03</rscale>
<asrwt>0</asrwt>
<pdfrwt beam="1">  1        2 0.29908991E-01 0.34193416E+03</pdfrwt>
<pdfrwt beam="2">  1       -2 0.23131112E-01 0.34193416E+03</pdfrwt>
<totfact> 0.32997160E+03</totfact>
</mgrwt>
<rwgt>
<wgt id='morphing_basis_vector_1'> +3.0490160e-04 </wgt>
<wgt id='morphing_basis_vector_2'> +1.8376904e-04 </wgt>
<wgt id='morphing_basis_vector_3'> +1.6964198e-04 </wgt>
<wgt id='morphing_basis_vector_4'> +3.3632765e-05 </wgt>
<wgt id='morphing_basis_vector_5'> +1.4143971e-05 </wgt>
</rwgt>
</event>
<event>
 4      1 +5.5534000e-05 3.40474400e+02 7.81860800e-03 9.85068800e-02
        2 -1    0    0  501    0 +0.0000000000e+00 +0.0000000000e+00 +9.9672434608e+02 9.9672434608e+02 0.0000000000e+00 0.0000e+00 1.0000e+00
       -2 -1    0    0    0  501 -0.0000000000e+00 -0.0000000000e+00 -2.9075941564e+01 2.9075941564e+01 0.0000000000e+00 0.0000e+00 -1.0000e+00
      -13  1    1    2    0    0 -1.3963373832e+02 -3.8675016430e+01 +2.1455911141e+02 2.5889949800e+02 0.0000000000e+00 0.0000e+00 -1.0000e+00
       13  1    1    2    0    0 +1.3963373832e+02 +3.8675016430e+01 +7.5308929310e+02 7.6690078965e+02 0.0000000000e+00 0.0000e+00 1.0000e+00
<mgrwt>
<rscale>  0 0.34047437E+03</rscale>
<asrwt>0</asrwt>
<pdfrwt beam="1">  1        2 0.15334218E+00 0.34047437E+03</pdfrwt>
<pdfrwt beam="2">  1       -2 0.44732225E-02 0.34047437E+03</pdfrwt>
<totfact> 0.64923281E+03</totfact>
</mgrwt>
<rwgt>
<wgt id='morphing_basis_vector_1'> +2.9523271e-04 </wgt>
<wgt id='morphing_basis_vector_2'> +1.6235102e-04 </wgt>
<wgt id='morphing_basis_vector_3'> +1.7613353e-04 </wgt>
<wgt id='morphing_basis_vector_4'> +3.0823226e-05 </wgt>
<wgt id='morphing_basis_vector_5'> +1.3026295e-05 </wgt>
</rwgt>
</event>
<event>
 4      1 +5.5534000e-05 3.09665100e+02 7.81860800e-03 9.96895600e-02
        2 -1    0    0  501    0 +0.0000000000e+00 +0.0000000000e+00 +5.9842421236e+02 5.9842421236e+02 0.0000000000e+00 0.0000e+00 -1.0000e+00
       -2 -1    0    0    0  501 -0.0000000000e+00 -0.0000000000e+00 -4.0060400161e+01 4.0060400161e+01 0.0000000000e+00 0.0000e+00 1.0000e+00
      -13  1    1    2    0    0 -1.1941657965e+02 +7.8615389436e+01 +1.5663734332e+02 2.1207535518e+02 0.0000000000e+00 0.0000e+00 1.0000e+00
       13  1    1    2    0    0 +1.1941657965e+02 -7.8615389436e+01 +4.0172646887e+02 4.2640925734e+02 0.0000000000e+00 0.0000e+00 -1.0000e+00
<mgrwt>
<rscale>  0 0.30966507E+03</rscale>
<asrwt>0</asrwt>
<pdfrwt beam="1">  1        2 0.92065256E-01 0.30966507E+03</pdfrwt>
<pdfrwt beam="2">  1       -2 0.61631390E-02 0.30966507E+03</pdfrwt>
<totfact> 0.75238740E+03</totfact>
</mgrwt>
<rwgt>
<wgt id='morphing_basis_vector_1'> +2.3935561e-04 </wgt>
<wgt id='morphing_basis_vector_2'> +1.3565999e-04 </wgt>
<wgt id='morphing_basis_vector_3'> +1.3837468e-04 </wgt>
<wgt id='morphing_basis_vector_4'> +2.4357904e-05 </wgt>
<wgt id='morphing_basis_vector_5'> +2.7388103e-06 </wgt>
</rwgt>
</event>
<event>
 4      1 +5.5534000e-05 3.41335900e+02 7.81860800e-03 9.84757700e-02
        2 -1    0    0  501    0 +0.0000000000e+00 +0.0000000000e+00 +4.2876388065e+02 4.2876388065e+02 0.0000000000e+00 0.0000e+00 1.0000e+00
       -2 -1    0    0    0  501 -0.0000000000e+00 -0.0000000000e+00 -6.7933790842e+01 6.7933790842e+01 0.0000000000e+00 0.0000e+00 -1.0000e+00
      -13  1    1    2    0    0 +1.4185558150e+02 +1.1522841838e+01 +4.3353589336e+01 1.4877941926e+02 0.0000000000e+00 0.0000e+00 -1.0000e+00
       13  1    1    2    0    0 -1.4185558150e+02 -1.1522841838e+01 +3.1747650047e+02 3.4791825223e+02 0.0000000000e+00 0.0000e+00 1.0000e+00
<mgrwt>
<rscale>  0 0.34133594E+03</rscale>
<asrwt>0</asrwt>
<pdfrwt beam="1">  1        2 0.65963672E-01 0.34133594E+03</pdfrwt>
<pdfrwt beam="2">  1       -2 0.10451353E-01 0.34133594E+03</pdfrwt>
<totfact> 0.48886704E+03</totfact>
</mgrwt>
<rwgt>
<wgt id='morphing_basis_vector_1'> +2.9685407e-04 </wgt>
<wgt id='morphing_basis_vector_2'> +1.6287449e-04 </wgt>
<wgt id='morphing_basis_vector_3'> +1.7747553e-04 </wgt>
<wgt id='morphing_basis_vector_4'> +3.1050199e-05 </wgt>
<wgt id='morphing_basis_vector_5'> +1.3437749e-05 </wgt>
</rwgt>
</event>
<event>
 4      1 +5.5534000e-05 3.20802600e+02 7.81860800e-03 9.92454300e-02
        2 -1    0    0  501    0 +0.0000000000e+00 +0.0000000000e+00 +5.2624039917e+02 5.2624039917e+02 0.0000000000e+00 0.0000e+00 1.0000e+00
       -2 -1    0    0    0  501 -0.0000000000e+00 -0.0000000000e+00 -4.8891284544e+01 4.8891284544e+01 0.0000000000e+00 0.0000e+00 -1.0000e+00
      -13  1    1    2    0    0 -4.2753754535e+01 -1.4637302544e+02 +3.2787597047e+02 3.6160143544e+02 0.0000000000e+00 0.0000e+00 -1.0000e+00
       13  1    1    2    0    0 +4.2753754535e+01 +1.4637302544e+02 +1.4947314416e+02 2.1353024828e+02 0.0000000000e+00 0.0000e+00 1.0000e+00
<mgrwt>
<rscale>  0 0.32080255E+03</rscale>
<asrwt>0</asrwt>
<pdfrwt beam="1">  1        2 0.80960057E-01 0.32080255E+03</pdfrwt>
<pdfrwt beam="2">  1       -2 0.75217365E-02 0.32080255E+03</pdfrwt>
<totfact> 0.64421675E+03</totfact>
</mgrwt>
<rwgt>
<wgt id='morphing_basis_vector_1'> +2.7927668e-04 </wgt>
<wgt id='morphing_basis_vector_2'> +2.0585194e-04 </wgt>
<wgt id='morphing_basis_vector_3'> +1.2197066e-04 </wgt>
<wgt id='morphing_basis_vector_4'> +3.5474721e-05 </wgt>
<wgt id='morphing_basis_vector_5'> +6.5373042e-06 </wgt>
</rwgt>
</event>
<event>
 4      1 +5.5534000e-05 3.01719900e+02 7.81860800e-03 1.00018700e-01
        2 -1    0    0  501    0 +0.0000000000e+00 +0.0000000000e+00 +2.0036475810e+02 2.0036475810e+02 0.0000000000e+00 0.0000e+00 -1.0000e+00
       -2 -1    0    0    0  501 -0.0000000000e+00 -0.0000000000e+00 -1.1358643817e+02 1.1358643817e+02 0.0000000000e+00 0.0000e+00 1.0000e+00
      -13  1    1    2    0    0 -8.3745291958e+01 -1.0794740465e+02 -2.3179323669e+01 1.3857560081e+02 0.0000000000e+00 0.0000e+00 1.0000e+00
       13  1    1    2    0    0 +8.3745291958e+01 +1.0794740465e+02 +1.0995764360e+02 1.7537559546e+02 0.0000000000e+00 0.0000e+00 -1.0000e+00
<mgrwt>
<rscale>  0 0.30171986E+03</rscale>
<asrwt>0</asrwt>
<pdfrwt beam="1">  1        2 0.30825347E-01 0.30171986E+03</pdfrwt>
<pdfrwt beam="2">  1       -2 0.17474837E-01 0.30171986E+03</pdfrwt>
<totfact> 0.50260949E+03</totfact>
</mgrwt>
<rwgt>
<wgt id='morphing_basis_vector_1'> +2.2624897e-04 </wgt>
<wgt id='morphing_basis_vector_2'> +1.2847626e-04 </wgt>
<wgt id='morphing_basis_vector_3'> +1.3086412e-04 </wgt>
<wgt id='morphing_basis_vector_4'> +2.3299550e-05 </wgt>
<wgt id='morphing_basis_vector_5'> +1.3855774e-06 </wgt>
</rwgt>
</event>
<event>
 4      1 +5.5534000e-05 3.27737600e+02 7.81860800e-03 9.89786500e-02
        2 -1    0    0  501    0 +0.0000000000e+00 +0.0000000000e+00 +4.6154600266e+02 4.6154600266e+02 0.0000000000e+00 0.0000e+00 -1.0000e+00
       -2 -1    0    0    0  501 -0.0000000000e+00 -0.0000000000e+00 -5.8180530115e+01 5.8180530115e+01 0.0000000000e+00 0.0000e+00 1.0000e+00
      -13  1    1    2    0    0 +1.2693089507e+02 +4.3306011584e+00 +3.7471694747e+01 1.3241727280e+02 0.0000000000e+00 0.0000e+00 1.0000e+00
       13  1    1    2    0    0 -1.2693089507e+02 -4.3306011584e+00 +3.6589377780e+02 3.8730925997e+02 0.0000000000e+00 0.0000e+00 -1.0000e+00
<mgrwt>
<rscale>  0 0.32773765E+03</rscale>
<asrwt>0</asrwt>
<pdfrwt beam="1">  1        2 0.71007075E-01 0.32773765E+03</pdfrwt>
<pdfrwt beam="2">  1       -2 0.89508511E-02 0.32773765E+03</pdfrwt>
<totfact> 0.57179366E+03</totfact>
</mgrwt>
<rwgt>
<wgt id='morphing_basis_vector_1'> +2.7005268e-04 </wgt>
<wgt id='morphing_basis_vector_2'> +1.4844984e-04 </wgt>
<wgt id='morphing_basis_vector_3'> +1.6024608e-04 </wgt>
<wgt id='morphing_basis_vector_4'> +2.7171489e-05 </wgt>
<wgt id='morphing_basis_vector_5'> +7.6762843e-06 </wgt>
</rwgt>
</event>
<event>
 4      1 +5.5534000e-05 3.51405300e+02 7.81860800e-03 9.81194900e-02
        2 -1    0    0  501    0 +0.0000000000e+00 +0.0000000000e+00 +2.3397453875e+02 2.3397453875e+02 0.0000000000e+00 0.0000e+00 1.0000e+00
       -2 -1    0    0    0  501 -0.0000000000e+00 -0.0000000000e+00 -1.3194350560e+02 1.3194350560e+02 0.0000000000e+00 0.0000e+00 -1.0000e+00
      -13  1    1    2    0    0 -1.4515200471e+01 -1.0799128938e+02 -9.2512422647e+01 1.4293830127e+02 0.0000000000e+00 0.0000e+00 -1.0000e+00
       13  1    1    2    0    0 +1.4515200471e+01 +1.0799128938e+02 +1.9454345580e+02 2.2297974307e+02 0.0000000000e+00 0.0000e+00 1.0000e+00
<mgrwt>
<rscale>  0 0.35140530E+03</rscale>
<asrwt>0</asrwt>
<pdfrwt beam="1">  1        2 0.35996083E-01 0.35140530E+03</pdfrwt>
<pdfrwt beam="2">  1       -2 0.20299001E-01 0.35140530E+03</pdfrwt>
<totfact> 0.33260997E+03</totfact>
</mgrwt>
<rwgt>
<wgt id='morphing_basis_vector_1'> +3.1731616e-04 </wgt>
<wgt id='morphing_basis_vector_2'> +1.7176172e-04 </wgt>
<wgt id='morphing_basis_vector_3'> +1.9276958e-04 </wgt>
<wgt id='morphing_basis_vector_4'> +3.4389273e-05 </wgt>
<wgt id='morphing_basis_vector_5'> +1.8877490e-05 </wgt>
</rwgt>
</event>
<event>
 4      1 +5.5534000e-05 3.46936600e+02 7.81860800e-03 9.82759900e-02
        2 -1    0    0  501    0 +0.0000000000e+00 +0.0000000000e+00 +1.9616194517e+02 1.9616194517e+02 0.0000000000e+00 0.0000e+00 1.0000e+00
       -2 -1    0    0    0  501 -0.0000000000e+00 -0.0000000000e+00 -1.5340005749e+02 1.5340005749e+02 0.0000000000e+00 0.0000e+00 -1.0000e+00
      -13  1    1    2    0    0 +4.3492150820e+01 +1.0666753509e+02 -1.0929911657e+02 1.5879492154e+02 0.0000000000e+00 0.0000e+00 -1.0000e+00
       13  1    1    2    0    0 -4.3492150820e+01 -1.0666753509e+02 +1.5206100424e+02 1.9076708112e+02 0.0000000000e+00 0.0000e+00 1.0000e+00
<mgrwt>
<rscale>  0 0.34693661E+03</rscale>
<asrwt>0</asrwt>
<pdfrwt beam="1">  1        2 0.30178761E-01 0.34693661E+03</pdfrwt>
<pdfrwt beam="2">  1       -2 0.23600009E-01 0.34693661E+03</pdfrwt>
<totfact> 0.31599742E+03</totfact>
</mgrwt>
<rwgt>
<wgt id='morphing_basis_vector_1'> +3.0784097e-04 </wgt>
<wgt id='morphing_basis_vector_2'> +1.6703933e-04 </wgt>
<wgt id='morphing_basis_vector_3'> +1.8612341e-04 </wgt>
<wgt id='morphing_basis_vector_4'> +3.2739681e-05 </wgt>
<wgt id='morphing_basis_vector_5'> +1.6314358e-05 </wgt>
</rwgt>
</event>
<event>
 4      1 +5.5534000e-05 3.52340000e+02 7.81860800e-03 9.80870700e-02
        2 -1    0    0  501    0 +0.0000000000e+00 +0.0000000000e+00 +1.2102018287e+02 1.2102018287e+02 0.0000000000e+00 0.0000e+00 -1.0000e+00
       -2 -1    0    0    0  501 -0.0000000000e+00 -0.0000000000e+00 -2.5645196241e+02 2.5645196241e+02 0.0000000000e+00 0.0000e+00 1.0000e+00
      -13  1    1    2    0    0 +6.1298869529e+01 +1.2293258930e+02 -1.8588254670e+02 2.3113263310e+02 0.0000000000e+00 0.0000e+00 1.0000e+00
       13  1    1    2    0    0 -6.1298869529e+01 -1.2293258930e+02 +5.0450767154e+01 1.4633951218e+02 0.0000000000e+00 0.0000e+00 -1.0000e+00
<mgrwt>
<rscale>  0 0.35233997E+03</rscale>
<asrwt>0</asrwt>
<pdfrwt beam="1">  1        2 0.18618490E-01 0.35233997E+03</pdfrwt>
<pdfrwt beam="2">  1       -2 0.39454147E-01 0.35233997E+03</pdfrwt>
<totfact> 0.22617827E+03</totfact>
</mgrwt>
<rwgt>
<wgt id='morphing_basis_vector_1'> +3.1974530e-04 </wgt>
<wgt id='morphing_basis_vector_2'> +1.7400546e-04 </wgt>
<wgt id='morphing_basis_vector_3'> +1.9368948e-04 </wgt>
<wgt id='morphing_basis_vector_4'> +3.4876253e-05 </wgt>
<wgt id='morphing_basis_vector_5'> +1.9467689e-05 </wgt>
</rwgt>
</event>
<event>
 4      1 +5.5534000e-05 3.04112900e+02 7.81860800e-03 9.99184400e-02
        2 -1    0    0  501    0 +0.0000000000e+00 +0.0000000000e+00 +5.3948923215e+02 5.3948923215e+02 0.0000000000e+00 0.0000e+00 -1.0000e+00
       -2 -1    0    0    0  501 -0.0000000000e+00 -0.0000000000e+00 -4.2857518073e+01 4.2857518073e+01 0.0000000000e+00 0.0000e+00 1.0000e+00
      -13  1    1    2    0    0 -9.3590495533e+01 +2.5431553868e+01 +2.4057711904e+01 9.9923562228e+01 0.0000000000e+00 0.0000e+00 1.0000e+00
       13  1    1    2    0    0 +9.3590495533e+01 -2.5431553868e+01 +4.7257400217e+02 4.8242318799e+02 0.0000000000e+00 0.0000e+00 -1.0000e+00
<mgrwt>
<rscale>  0 0.30411294E+03</rscale>
<asrwt>0</asrwt>
<pdfrwt beam="1">  1        2 0.82998339E-01 0.30411294E+03</pdfrwt>
<pdfrwt beam="2">  1       -2 0.65934647E-02 0.30411294E+03</pdfrwt>
<totfact> 0.76348295E+03</totfact>
</mgrwt>
<rwgt>
<wgt id='morphing_basis_vector_1'> +2.2902425e-04 </wgt>
<wgt id='morphing_basis_vector_2'> +1.2744207e-04 </wgt>
<wgt id='morphing_basis_vector_3'> +1.3465921e-04 </wgt>
<wgt id='morphing_basis_vector_4'> +2.3016199e-05 </wgt>
<wgt id='morphing_basis_vector_5'> +1.6981311e-06 </wgt>
</rwgt>
</event>
<event>
 4      1 +5.5534000e-05 3.16333500e+02 7.81860800e-03 9.94212800e-02
        2 -1    0    0  501    0 +0.0000000000e+00 +0.0000000000e+00 +1.1156269469e+03 1.1156269469e+03 0.0000000000e+00 0.0000e+00 1.0000e+00
       -2 -1    0    0    0  501 -0.0000000000e+00 -0.0000000000e+00 -2.2423916964e+01 2.2423916964e+01 0.0000000000e+00 0.0000e+00 -1.0000e+00
      -13  1    1    2    0    0 +1.3493304951e+02 -3.6573517800e+01 +2.8046990076e+02 3.1338142142e+02 0.0000000000e+00 0.0000e+00 -1.0000e+00
       13  1    1    2    0    0 -1.3493304951e+02 +3.6573517800e+01 +8.1273312915e+02 8.2466944243e+02 0.0000000000e+00 0.0000e+00 1.0000e+00
<mgrwt>
<rscale>  0 0.31633353E+03</rscale>
<asrwt>0</asrwt>
<pdfrwt beam="1">  1        2 0.17163487E+00 0.31633353E+03</pdfrwt>
<pdfrwt beam="2">  1       -2 0.34498342E-02 0.31633353E+03</pdfrwt>
<totfact> 0.81209074E+03</totfact>
</mgrwt>
<rwgt>
<wgt id='morphing_basis_vector_1'> +2.5019129e-04 </wgt>
<wgt id='morphing_basis_vector_2'> +1.3997813e-04 </wgt>
<wgt id='morphing_basis_vector_3'> +1.4615019e-04 </wgt>
<wgt id='morphing_basis_vector_4'> +2.5145730e-05 </wgt>
<wgt id='morphing_basis_vector_5'> +4.2328849e-06 </wgt>
</rwgt>
</event>
<event>
 4      1 +5.5534000e-05 3.11978600e+02 7.81860800e-03 9.95956700e-02
        2 -1    0    0  501    0 +0.0000000000e+00 +0.0000000000e+00 +6.7877410695e+02 6.7877410695e+02 0.0000000000e+00 0.0000e+00 1.0000e+00
       -2 -1    0    0    0  501 -0.0000000000e+00 -0.0000000000e+00 -3.5847960916e+01 3.5847960916e+01 0.0000000000e+00 0.0000e+00 -1.0000e+00
      -13  1    1    2    0    0 +1.4069256880e+02 -7.8104866269e+00 +1.6819278717e+02 2.1941790326e+02 0.0000000000e+00 0.0000e+00 -1.0000e+00
       13  1    1    2    0    0 -1.4069256880e+02 +7.8104866269e+00 +4.7473335887e+02 4.9520416460e+02 0.0000000000e+00 0.0000e+00 1.0000e+00
<mgrwt>
<rscale>  0 0.31197864E+03</rscale>
<asrwt>0</asrwt>
<pdfrwt beam="1">  1        2 0.10442678E+00 0.31197864E+03</pdfrwt>
<pdfrwt beam="2">  1       -2 0.55150714E-02 0.31197864E+03</pdfrwt>
<totfact> 0.76883317E+03</totfact>
</mgrwt>
<rwgt>
<wgt id='morphing_basis_vector_1'> +2.4295164e-04 </wgt>
<wgt id='morphing_basis_vector_2'> +1.3681805e-04 </wgt>
<wgt id='morphing_basis_vector_3'> +1.4117672e-04 </wgt>
<wgt id='morphing_basis_vector_4'> +2.4550316e-05 </wgt>
<wgt id='morphing_basis_vector_5'> +3.2112828e-06 </wgt>
</rwgt>
</event>
<event>
 4      1 +5.5534000e-05 3.31416100e+02 7.81860800e-03 9.88400300e-02
        2 -1    0    0  501    0 +0.0000000000e+00 +0.0000000000e+00 +9.3263512206e+01 9.3263512206e+01 0.0000000000e+00 0.0000e+00 1.0000e+00
       -2 -1    0    0    0  501 -0.0000000000e+00 -0.0000000000e+00 -2.9442557083e+02 2.9442557083e+02 0.0000000000e+00 0.0000e+00 -1.0000e+00
      -13  1    1    2    0    0 -4.0625146444e+01 -1.5333200250e+02 -4.4503308095e+01 1.6474723046e+02 0.0000000000e+00 0.0000e+00 -1.0000e+00
       13  1    1    2    0    0 +4.0625146444e+01 +1.5333200250e+02 -1.5665875053e+02 2.2294185258e+02 0.0000000000e+00 0.0000e+00 1.0000e+00
<mgrwt>
<rscale>  0 0.33141613E+03</rscale>
<asrwt>0</asrwt>
<pdfrwt beam="1">  1        2 0.14348233E-01 0.33141613E+03</pdfrwt>
<pdfrwt beam="2">  1       -2 0.45296241E-01 0.33141613E+03</pdfrwt>
<totfact> 0.23926641E+03</totfact>
</mgrwt>
<rwgt>
<wgt id='morphing_basis_vector_1'> +2.9911446e-04 </wgt>
<wgt id='morphing_basis_vector_2'> +2.1709593e-04 </wgt>
<wgt id='morphing_basis_vector_3'> +1.3554780e-04 </wgt>
<wgt id='morphing_basis_vector_4'> +3.6922732e-05 </wgt>
<wgt id='morphing_basis_vector_5'> +1.0293227e-05 </wgt>
</rwgt>
</event>
<event>
 4      1 +5.5534000e-05 3.24055100e+02 7.81860800e-03 9.91194000e-02
        2 -1    0    0  501    0 +0.0000000000e+00 +0.0000000000e+00 +3.4696842654e+02 3.4696842654e+02 0.0000000000e+00 0.0000e+00 1.0000e+00
       -2 -1    0    0    0  501 -0.0000000000e+00 -0.0000000000e+00 -7.5663746347e+01 7.5663746347e+01 0.0000000000e+00 0.0000e+00 -1.0000e+00
      -13  1    1    2    0    0 +2.6144981042e+01 -1.0499024653e+02 -2.1645119442e+01 1.1034048711e+02 0.0000000000e+00 0.0000e+00 -1.0000e+00
       13  1    1    2    0    0 -2.6144981042e+01 +1.0499024653e+02 +2.9294979963e+02 3.1229168577e+02 0.0000000000e+00 0.0000e+00 1.0000e+00
<mgrwt>
<rscale>  0 0.32405513E+03</rscale>
<asrwt>0</asrwt>
<pdfrwt beam="1">  1        2 0.53379757E-01 0.32405513E+03</pdfrwt>
<pdfrwt beam="2">  1       -2 0.11640577E-01 0.32405513E+03</pdfrwt>
<totfact> 0.52136722E+03</totfact>
</mgrwt>
<rwgt>
<wgt id='morphing_basis_vector_1'> +2.6302498e-04 </wgt>
<wgt id='morphing_basis_vector_2'> +1.4431211e-04 </wgt>
<wgt id='morphing_basis_vector_3'> +1.5615895e-04 </wgt>
<wgt id='morphing_basis_vector_4'> +2.6236620e-05 </wgt>
<wgt id='morphing_basis_vector_5'> +6.4140370e-06 </wgt>
</rwgt>
</event>
<event>
 4      1 +5.5534000e-05 3.12051600e+02 7.81860800e-03 9.95927300e-02
        2 -1    0    0  501    0 +0.0000000000e+00 +0.0000000000e+00 +5.6428244201e+01 5.6428244201e+01 0.0000000000e+00 0.0000e+00 -1.0000e+00
       -2 -1    0    0    0  501 -0.0000000000e+00 -0.0000000000e+00 -4.3141596751e+02 4.3141596751e+02 0.0000000000e+00 0.0000e+00 1.0000e+00
      -13  1    1    2    0    0 -6.8915211381e+01 +6.2353291660e+01 -3.8342286423e+02 3.9452545185e+02 0.0000000000e+00 0.0000e+00 1.0000e+00
       13  1    1    2    0    0 +6.8915211381e+01 -6.2353291660e+01 +8.4351409209e+00 9.3318759865e+01 0.0000000000e+00 0.0000e+00 -1.0000e+00
<mgrwt>
<rscale>  0 0.31205157E+03</rscale>
<asrwt>0</asrwt>
<pdfrwt beam="1">  1        2 0.86812688E-02 0.31205157E+03</pdfrwt>
<pdfrwt beam="2">  1       -2 0.66371684E-01 0.31205157E+03</pdfrwt>
<totfact> 0.21076348E+03</totfact>
</mgrwt>
<rwgt>
<wgt id='morphing_basis_vector_1'> +2.4197003e-04 </wgt>
<wgt id='morphing_basis_vector_2'> +1.3368663e-04 </wgt>
<wgt id='morphing_basis_vector_3'> +1.4281839e-04 </wgt>
<wgt id='morphing_basis_vector_4'> +2.4023672e-05 </wgt>
<wgt id='morphing_basis_vector_5'> +3.1771587e-06 </wgt>
</rwgt>
</event>
<event>
 4      1 +5.5534000e-05 3.17771400e+02 7.81860800e-03 9.93643500e-02
        2 -1    0    0  501    0 +0.0000000000e+00 +0.0000000000e+00 +1.1023971755e+03 1.1023971755e+03 0.0000000000e+00 0.0000e+00 1.0000e+00
       -2 -1    0    0    0  501 -0.0000000000e+00 -0.0000000000e+00 -2.2899797015e+01 2.2899797015e+01 0.0000000000e+00 0.0000e+00 -1.0000e+00
      -13  1    1    2    0    0 +1.4717681207e+02 -2.0387072000e+01 +3.4043066153e+02 3.7144270355e+02 0.0000000000e+00 0.0000e+00 -1.0000e+00
       13  1    1    2    0    0 -1.4717681207e+02 +2.0387072000e+01 +7.3906671700e+02 7.5385426900e+02 0.0000000000e+00 0.0000e+00 1.0000e+00
<mgrwt>
<rscale>  0 0.31777144E+03</rscale>
<asrwt>0</asrwt>
<pdfrwt beam="1">  1        2 0.16959952E+00 0.31777144E+03</pdfrwt>
<pdfrwt beam="2">  1       -2 0.35230466E-02 0.31777144E+03</pdfrwt>
<totfact> 0.80123778E+03</totfact>
</mgrwt>
<rwgt>
<wgt id='morphing_basis_vector_1'> +2.5343691e-04 </wgt>
<wgt id='morphing_basis_vector_2'> +1.4339776e-04 </wgt>
<wgt id='morphing_basis_vector_3'> +1.4670985e-04 </wgt>
<wgt id='morphing_basis_vector_4'> +2.5738868e-05 </wgt>
<wgt id='morphing_basis_vector_5'> +4.6447331e-06 </wgt>
</rwgt>
</event>
<event>
 4      1 +5.5534000e-05 3.47368500e+02 7.81860800e-03 9.82607500e-02
        2 -1    0    0  501    0 +0.0000000000e+00 +0.0000000000e+00 +5.4016641927e+02 5.4016641927e+02 0.0000000000e+00 0.0000e+00 1.0000e+00
       -2 -1    0    0    0  501 -0.0000000000e+00 -0.0000000000e+00 -5.5846148146e+01 5.5846148146e+01 0.0000000000e+00 0.0000e+00 -1.0000e+00
      -13  1    1    2    0    0 -1.3743913167e+02 +9.1681683418e+00 +6.0637262320e+01 1.5050065717e+02 0.0000000000e+00 0.0000e+00 -1.0000e+00
       13  1    1    2    0    0 +1.3743913167e+02 -9.1681683418e+00 +4.2368300880e+02 4.4551191025e+02 0.0000000000e+00 0.0000e+00 1.0000e+00
<mgrwt>
<rscale>  0 0.34736847E+03</rscale>
<asrwt>0</asrwt>
<pdfrwt beam="1">  1        2 0.83102522E-01 0.34736847E+03</pdfrwt>
<pdfrwt beam="2">  1       -2 0.85917155E-02 0.34736847E+03</pdfrwt>
<totfact> 0.51184793E+03</totfact>
</mgrwt>
<rwgt>
<wgt id='morphing_basis_vector_1'> +3.0913444e-04 </wgt>
<wgt id='morphing_basis_vector_2'> +1.6864895e-04 </wgt>
<wgt id='morphing_basis_vector_3'> +1.8627264e-04 </wgt>
<wgt id='morphing_basis_vector_4'> +3.3019117e-05 </wgt>
<wgt id='morphing_basis_vector_5'> +1.6576552e-05 </wgt>
</rwgt>
</event>
<event>
 4      1 +5.5534000e-05 3.56528400e+02 7.81860800e-03 9.79431300e-02
        2 -1    0    0  501    0 +0.0000000000e+00 +0.0000000000e+00 +7.2548517207e+02 7.2548517207e+02 0.0000000000e+00 0.0000e+00 -1.0000e+00
       -2 -1    0    0    0  501 -0.0000000000e+00 -0.0000000000e+00 -4.3802591933e+01 4.3802591933e+01 0.0000000000e+00 0.0000e+00 1.0000e+00
      -13  1    1    2    0    0 -1.2542650982e+02 -9.6021446456e+01 +1.6256882638e+02 2.2667278366e+02 0.0000000000e+00 0.0000e+00 1.0000e+00
       13  1    1    2    0    0 +1.2542650982e+02 +9.6021446456e+01 +5.1911375376e+02 5.4261498034e+02 0.0000000000e+00 0.0000e+00 -1.0000e+00
<mgrwt>
<rscale>  0 0.35652843E+03</rscale>
<asrwt>0</asrwt>
<pdfrwt beam="1">  1        2 0.11161309E+00 0.35652843E+03</pdfrwt>
<pdfrwt beam="2">  1       -2 0.67388608E-02 0.35652843E+03</pdfrwt>
<totfact> 0.52701044E+03</totfact>
</mgrwt>
<rwgt>
<wgt id='morphing_basis_vector_1'> +3.2986830e-04 </wgt>
<wgt id='morphing_basis_vector_2'> +1.8144178e-04 </wgt>
<wgt id='morphing_basis_vector_3'> +1.9907817e-04 </wgt>
<wgt id='morphing_basis_vector_4'> +3.6836460e-05 </wgt>
<wgt id='morphing_basis_vector_5'> +2.2178367e-05 </wgt>
</rwgt>
</event>
<event>
 4      1 +5.5534000e-05 3.35598600e+02 7.81860800e-03 9.86847900e-02
        2 -1    0    0  501    0 +0.0000000000e+00 +0.0000000000e+00 +3.4113953427e+02 3.4113953427e+02 0.0000000000e+00 0.0000e+00 -1.0000e+00
       -2 -1    0    0    0  501 -0.0000000000e+00 -0.0000000000e+00 -8.2536901861e+01 8.2536901861e+01 0.0000000000e+00 0.0000e+00 1.0000e+00
      -13  1    1    2    0    0 -1.3436264082e+02 -9.4591855553e+01 +8.6384292093e+01 1.8564262524e+02 0.0000000000e+00 0.0000e+00 1.0000e+00
       13  1    1    2    0    0 +1.3436264082e+02 +9.4591855553e+01 +1.7221834032e+02 2.3803381089e+02 0.0000000000e+00 0.0000e+00 -1.0000e+00
<mgrwt>
<rscale>  0 0.33559857E+03</rscale>
<asrwt>0</asrwt>
<pdfrwt beam="1">  1        2 0.52483004E-01 0.33559857E+03</pdfrwt>
<pdfrwt beam="2">  1       -2 0.12697985E-01 0.33559857E+03</pdfrwt>
<totfact> 0.46414163E+03</totfact>
</mgrwt>
<rwgt>
<wgt id='morphing_basis_vector_1'> +2.8851049e-04 </wgt>
<wgt id='morphing_basis_vector_2'> +1.6620674e-04 </wgt>
<wgt id='morphing_basis_vector_3'> +1.6572036e-04 </wgt>
<wgt id='morphing_basis_vector_4'> +3.0512784e-05 </wgt>
<wgt id='morphing_basis_vector_5'> +1.0971072e-05 </wgt>
</rwgt>
</event>
<event>
 4      1 +5.5534000e-05 3.28761200e+02 7.81860800e-03 9.89398800e-02
        2 -1    0    0  501    0 +0.0000000000e+00 +0.0000000000e+00 +7.6925002671e+02 7.6925002671e+02 0.0000000000e+00 0.0000e+00 -1.0000e+00
       -2 -1    0    0    0  501 -0.0000000000e+00 -0.0000000000e+00 -3.5126404602e+01 3.5126404602e+01 0.0000000000e+00 0.0000e+00 1.0000e+00
      -13  1    1    2    0    0 +1.6277645521e+02 +2.1643999690e+01 +3.8542837630e+02 4.1895067770e+02 0.0000000000e+00 0.0000e+00 1.0000e+00
       13  1    1    2    0    0 -1.6277645521e+02 -2.1643999690e+01 +3.4869524581e+02 3.8542575361e+02 0.0000000000e+00 0.0000e+00 -1.0000e+00
<mgrwt>
<rscale>  0 0.32876124E+03</rscale>
<asrwt>0</asrwt>
<pdfrwt beam="1">  1        2 0.11834615E+00 0.32876124E+03</pdfrwt>
<pdfrwt beam="2">  1       -2 0.54040628E-02 0.32876124E+03</pdfrwt>
<totfact> 0.68349981E+03</totfact>
</mgrwt>
<rwgt>
<wgt id='morphing_basis_vector_1'> +2.8096223e-04 </wgt>
<wgt id='morphing_basis_vector_2'> +1.7584139e-04 </wgt>
<wgt id='morphing_basis_vector_3'> +1.4948227e-04 </wgt>
<wgt id='morphing_basis_vector_4'> +3.1122420e-05 </wgt>
<wgt id='morphing_basis_vector_5'> +8.5401993e-06 </wgt>
</rwgt>
</event>
<event>
 4      1 +5.5534000e-05 3.47010300e+02 7.81860800e-03 9.82733900e-02
        2 -1    0    0  501    0 +0.0000000000e+00 +0.0000000000e+00 +1.2495388061e+03 1.2495388061e+03 0.0000000000e+00 0.0000e+00 -1.0000e+00
       -2 -1    0    0    0  501 -0.0000000000e+00 -0.0000000000e+00 -2.4092119738e+01 2.4092119738e+01 0.0000000000e+00 0.0000e+00 1.0000e+00
      -13  1    1    2    0    0 +9.5069914412e+01 +1.2489929190e+02 +3.4137153014e+02 3.7572948159e+02 0.0000000000e+00 0.0000e+00 1.0000e+00
       13  1    1    2    0    0 -9.5069914412e+01 -1.2489929190e+02 +8.8407515626e+02 8.9790144429e+02 0.0000000000e+00 0.0000e+00 -1.0000e+00
<mgrwt>
<rscale>  0 0.34701031E+03</rscale>
<asrwt>0</asrwt>
<pdfrwt beam="1">  1        2 0.19223669E+00 0.34701031E+03</pdfrwt>
<pdfrwt beam="2">  1       -2 0.37064809E-02 0.34701031E+03</pdfrwt>
<totfact> 0.61486631E+03</totfact>
</mgrwt>
<rwgt>
<wgt id='morphing_basis_vector_1'> +3.0939548e-04 </wgt>
<wgt id='morphing_basis_vector_2'> +1.7128732e-04 </wgt>
<wgt id='morphing_basis_vector_3'> +1.8449315e-04 </wgt>
<wgt id='morphing_basis_vector_4'> +3.3221878e-05 </wgt>
<wgt id='morphing_basis_vector_5'> +1.6441223e-05 </wgt>
</rwgt>
</event>
<event>
 4      1 +5.5534000e-05 3.06673100e+02 7.81860800e-03 9.98122600e-02
        2 -1    0    0  501    0 +0.0000000000e+00 +0.0000000000e+00 +3.8636305667e+02 3.8636305667e+02 0.0000000000e+00 0.0000e+00 -1.0000e+00
       -2 -1    0    0    0  501 -0.0000000000e+00 -0.0000000000e+00 -6.0854940675e+01 6.0854940675e+01 0.0000000000e+00 0.0000e+00 1.0000e+00
      -13  1    1    2    0    0 -5.1603208471e+01 +9.9088550246e+01 +9.5943659441e+00 1.1213154673e+02 0.0000000000e+00 0.0000e+00 1.0000e+00
       13  1    1    2    0    0 +5.1603208471e+01 -9.9088550246e+01 +3.1591375005e+02 3.3508645062e+02 0.0000000000e+00 0.0000e+00 -1.0000e+00
<mgrwt>
<rscale>  0 0.30667312E+03</rscale>
<asrwt>0</asrwt>
<pdfrwt beam="1">  1        2 0.59440469E-01 0.30667312E+03</pdfrwt>
<pdfrwt beam="2">  1       -2 0.93622988E-02 0.30667312E+03</pdfrwt>
<totfact> 0.64754113E+03</totfact>
</mgrwt>
<rwgt>
<wgt id='morphing_basis_vector_1'> +2.3326675e-04 </wgt>
<wgt id='morphing_basis_vector_2'> +1.2982217e-04 </wgt>
<wgt id='morphing_basis_vector_3'> +1.3701911e-04 </wgt>
<wgt id='morphing_basis_vector_4'> +2.3379276e-05 </wgt>
<wgt id='morphing_basis_vector_5'> +2.1267479e-06 </wgt>
</rwgt>
</event>
<event>
 4      1 +5.5534000e-05 3.08412000e+02 7.81860800e-03 9.97407600e-02
        2 -1    0    0  501    0 +0.0000000000e+00 +0.0000000000e+00 +2.3465692470e+02 2.3465692470e+02 0.0000000000e+00 0.0000e+00 -1.0000e+00
       -2 -1    0    0    0  501 -0.0000000000e+00 -0.0000000000e+00 -1.0133727292e+02 1.0133727292e+02 0.0000000000e+00 0.0000e+00 1.0000e+00
      -13  1    1    2    0    0 -9.2416602984e+01 +8.0085276752e+01 -3.5683177810e+01 1.2738826178e+02 0.0000000000e+00 0.0000e+00 1.0000e+00
       13  1    1    2    0    0 +9.2416602984e+01 -8.0085276752e+01 +1.6900282959e+02 2.0860593584e+02 0.0000000000e+00 0.0000e+00 -1.0000e+00
<mgrwt>
<rscale>  0 0.30841202E+03</rscale>
<asrwt>0</asrwt>
<pdfrwt beam="1">  1        2 0.36101065E-01 0.30841202E+03</pdfrwt>
<pdfrwt beam="2">  1       -2 0.15590350E-01 0.30841202E+03</pdfrwt>
<totfact> 0.50586759E+03</totfact>
</mgrwt>
<rwgt>
<wgt id='morphing_basis_vector_1'> +2.3627734e-04 </wgt>
<wgt id='morphing_basis_vector_2'> +1.3171860e-04 </wgt>
<wgt id='morphing_basis_vector_3'> +1.3853244e-04 </wgt>
<wgt id='morphing_basis_vector_4'> +2.3687095e-05 </wgt>
<wgt id='morphing_basis_vector_5'> +2.4511138e-06 </wgt>
</rwgt>
</event>
<event>
 4      1 +5.5534000e-05 3.48698900e+02 7.81860800e-03 9.82139700e-02
        2 -1    0    0  501    0 +0.0000000000e+00 +0.0000000000e+00 +1.0355143859e+02 1.0355143859e+02 0.0000000000e+00 0.0000e+00 -1.0000e+00
       -2 -1    0    0    0  501 -0.0000000000e+00 -0.0000000000e+00 -2.9355194416e+02 2.9355194416e+02 0.0000000000e+00 0.0000e+00 1.0000e+00
      -13  1    1    2    0    0 +1.6690583516e+02 -1.1460220757e+01 -1.5089310426e+02 2.2529452586e+02 0.0000000000e+00 0.0000e+00 1.0000e+00
       13  1    1    2    0    0 -1.6690583516e+02 +1.1460220757e+01 -3.9107401319e+01 1.7180885690e+02 0.0000000000e+00 0.0000e+00 -1.0000e+00
<mgrwt>
<rscale>  0 0.34869887E+03</rscale>
<asrwt>0</asrwt>
<pdfrwt beam="1">  1        2 0.15930991E-01 0.34869887E+03</pdfrwt>
<pdfrwt beam="2">  1       -2 0.45161837E-01 0.34869887E+03</pdfrwt>
<totfact> 0.21219913E+03</totfact>
</mgrwt>
<rwgt>
<wgt id='morphing_basis_vector_1'> +3.1448092e-04 </wgt>
<wgt id='morphing_basis_vector_2'> +1.7763557e-04 </wgt>
<wgt id='morphing_basis_vector_3'> +1.8509948e-04 </wgt>
<wgt id='morphing_basis_vector_4'> +3.4305397e-05 </wgt>
<wgt id='morphing_basis_vector_5'> +1.7481251e-05 </wgt>
</rwgt>
</event>
<event>
 4      1 +5.5534000e-05 3.52637300e+02 7.81860800e-03 9.80767800e-02
        2 -1    0    0  501    0 +0.0000000000e+00 +0.0000000000e+00 +9.1910505945e+01 9.1910505945e+01 0.0000000000e+00 0.0000e+00 -1.0000e+00
       -2 -1    0    0    0  501 -0.0000000000e+00 -0.0000000000e+00 -3.3824503712e+02 3.3824503712e+02 0.0000000000e+00 0.0000e+00 1.0000e+00
      -13  1    1    2    0    0 +7.7420826970e+01 -8.1742987536e+01 -2.8868788535e+02 3.0986544759e+02 0.0000000000e+00 0.0000e+00 1.0000e+00
       13  1    1    2    0    0 -7.7420826970e+01 +8.1742987536e+01 +4.2353354176e+01 1.2029009548e+02 0.0000000000e+00 0.0000e+00 -1.0000e+00
<mgrwt>
<rscale>  0 0.35263733E+03</rscale>
<asrwt>0</asrwt>
<pdfrwt beam="1">  1        2 0.14140078E-01 0.35263733E+03</pdfrwt>
<pdfrwt beam="2">  1       -2 0.52037698E-01 0.35263733E+03</pdfrwt>
<totfact> 0.18706053E+03</totfact>
</mgrwt>
<rwgt>
<wgt id='morphing_basis_vector_1'> +3.2001801e-04 </wgt>
<wgt id='morphing_basis_vector_2'> +1.7321845e-04 </wgt>
<wgt id='morphing_basis_vector_3'> +1.9459376e-04 </wgt>
<wgt id='morphing_basis_vector_4'> +3.4881750e-05 </wgt>
<wgt id='morphing_basis_vector_5'> +1.9625858e-05 </wgt>
</rwgt>
</event>
<event>
 4      1 +5.5534000e-05 3.45345900e+02 7.81860800e-03 9.83323100e-02
        2 -1    0    0  501    0 +0.0000000000e+00 +0.0000000000e+00 +5.0202818876e+02 5.0202818876e+02 0.0000000000e+00 0.0000e+00 -1.0000e+00
       -2 -1    0    0    0  501 -0.0000000000e+00 -0.0000000000e+00 -5.9390978220e+01 5.9390978220e+01 0.0000000000e+00 0.0000e+00 1.0000e+00
      -13  1    1    2    0    0 +8.4355040404e+01 +4.9136259332e+01 -1.0222990909e+01 9.8156275224e+01 0.0000000000e+00 0.0000e+00 1.0000e+00
       13  1    1    2    0    0 -8.4355040404e+01 -4.9136259332e+01 +4.5286020145e+02 4.6326289176e+02 0.0000000000e+00 0.0000e+00 -1.0000e+00
<mgrwt>
<rscale>  0 0.34534589E+03</rscale>
<asrwt>0</asrwt>
<pdfrwt beam="1">  1        2 0.77235103E-01 0.34534589E+03</pdfrwt>
<pdfrwt beam="2">  1       -2 0.91370739E-02 0.34534589E+03</pdfrwt>
<totfact> 0.50542253E+03</totfact>
</mgrwt>
<rwgt>
<wgt id='morphing_basis_vector_1'> +3.0439360e-04 </wgt>
<wgt id='morphing_basis_vector_2'> +1.6498448e-04 </wgt>
<wgt id='morphing_basis_vector_3'> +1.8398888e-04 </wgt>
<wgt id='morphing_basis_vector_4'> +3.2140034e-05 </wgt>
<wgt id='morphing_basis_vector_5'> +1.5446097e-05 </wgt>
</rwgt>
</event>
<event>
 4      1 +5.5534000e-05 3.18187900e+02 7.81860800e-03 9.93479300e-02
        2 -1    0    0  501    0 +0.0000000000e+00 +0.0000000000e+00 +6.3235694187e+02 6.3235694187e+02 0.0000000000e+00 0.0000e+00 -1.0000e+00
       -2 -1    0    0    0  501 -0.0000000000e+00 -0.0000000000e+00 -4.0026254541e+01 4.0026254541e+01 0.0000000000e+00 0.0000e+00 1.0000e+00
      -13  1    1    2    0    0 +1.0609286474e+02 -8.4229411069e+01 +1.1986373731e+02 1.8088008503e+02 0.0000000000e+00 0.0000e+00 1.0000e+00
       13  1    1    2    0    0 -1.0609286474e+02 +8.4229411069e+01 +4.7246695002e+02 4.9150311138e+02 0.0000000000e+00 0.0000e+00 -1.0000e+00
<mgrwt>
<rscale>  0 0.31818787E+03</rscale>
<asrwt>0</asrwt>
<pdfrwt beam="1">  1        2 0.97285676E-01 0.31818787E+03</pdfrwt>
<pdfrwt beam="2">  1       -2 0.61578858E-02 0.31818787E+03</pdfrwt>
<totfact> 0.70780504E+03</totfact>
</mgrwt>
<rwgt>
<wgt id='morphing_basis_vector_1'> +2.5316076e-04 </wgt>
<wgt id='morphing_basis_vector_2'> +1.4084111e-04 </wgt>
<wgt id='morphing_basis_vector_3'> +1.4857188e-04 </wgt>
<wgt id='morphing_basis_vector_4'> +2.5349705e-05 </wgt>
<wgt id='morphing_basis_vector_5'> +4.7073904e-06 </wgt>
</rwgt>
</event>
<event>
 4      1 +5.5534000e-05 3.46489000e+02 7.81860800e-03 9.82918100e-02
        2 -1    0    0  501    0 +0.0000000000e+00 +0.0000000000e+00 +3.4487057927e+02 3.4487057927e+02 0.0000000000e+00 0.0000e+00 -1.0000e+00
       -2 -1    0    0    0  501 -0.0000000000e+00 -0.0000000000e+00 -8.7028732213e+01 8.7028732213e+01 0.0000000000e+00 0.0000e+00 1.0000e+00
      -13  1    1    2    0    0 -1.1003439800e+02 +1.0294875357e+02 +2.2364035497e+01 1.5233569736e+02 0.0000000000e+00 0.0000e+00 1.0000e+00
       13  1    1    2    0    0 +1.1003439800e+02 -1.0294875357e+02 +2.3547781156e+02 2.7956361413e+02 0.0000000000e+00 0.0000e+00 -1.0000e+00
<mgrwt>
<rscale>  0 0.34648896E+03</rscale>
<asrwt>0</asrwt>
<pdfrwt beam="1">  1        2 0.53057012E-01 0.34648896E+03</pdfrwt>
<pdfrwt beam="2">  1       -2 0.13389036E-01 0.34648896E+03</pdfrwt>
<totfact> 0.42228488E+03</totfact>
</mgrwt>
<rwgt>
<wgt id='morphing_basis_vector_1'> +3.0783439e-04 </wgt>
<wgt id='morphing_basis_vector_2'> +1.6933817e-04 </wgt>
<wgt id='morphing_basis_vector_3'> +1.8431675e-04 </wgt>
<wgt id='morphing_basis_vector_4'> +3.2886755e-05 </wgt>
<wgt id='morphing_basis_vector_5'> +1.6126740e-05 </wgt>
</rwgt>
</event>
<event>
 4      1 +5.5534000e-05 3.06771900e+02 7.81860800e-03 9.98081900e-02
        2 -1    0    0  501    0 +0.0000000000e+00 +0.0000000000e+00 +3.7193831092e+02 3.7193831092e+02 0.0000000000e+00 0.0000e+00 -1.0000e+00
       -2 -1    0    0    0  501 -0.0000000000e+00 -0.0000000000e+00 -6.3255763965e+01 6.3255763965e+01 0.0000000000e+00 0.0000e+00 1.0000e+00
      -13  1    1    2    0    0 -8.2495623804e+01 -7.9579458884e+01 +9.7471449201e+00 1.1503662485e+02 0.0000000000e+00 0.0000e+00 1.0000e+00
       13  1    1    2    0    0 +8.2495623804e+01 +7.9579458884e+01 +2.9893540203e+02 3.2015745003e+02 0.0000000000e+00 0.0000e+00 -1.0000e+00
<mgrwt>
<rscale>  0 0.30677185E+03</rscale>
<asrwt>0</asrwt>
<pdfrwt beam="1">  1        2 0.57221277E-01 0.30677185E+03</pdfrwt>
<pdfrwt beam="2">  1       -2 0.97316562E-02 0.30677185E+03</pdfrwt>
<totfact> 0.63620129E+03</totfact>
</mgrwt>
<rwgt>
<wgt id='morphing_basis_vector_1'> +2.3346768e-04 </wgt>
<wgt id='morphing_basis_vector_2'> +1.3001804e-04 </wgt>
<wgt id='morphing_basis_vector_3'> +1.3705971e-04 </wgt>
<wgt id='morphing_basis_vector_4'> +2.3412135e-05 </wgt>
<wgt id='morphing_basis_vector_5'> +2.1457981e-06 </wgt>
</rwgt>
</event>
<event>
 4      1 +5.5534000e-05 3.39857200e+02 7.81860800e-03 9.85292200e-02
        2 -1    0    0  501    0 +0.0000000000e+00 +0.0000000000e+00 +2.5212992663e+02 2.5212992663e+02 0.0000000000e+00 0.0000e+00 1.0000e+00
       -2 -1    0    0    0  501 -0.0000000000e+00 -0.0000000000e+00 -1.1452715467e+02 1.1452715467e+02 0.0000000000e+00 0.0000e+00 -1.0000e+00
      -13  1    1    2    0    0 +4.1201337916e+01 +3.0903627983e+01 -1.0590387469e+02 1.1776338626e+02 0.0000000000e+00 0.0000e+00 -1.0000e+00
       13  1    1    2    0    0 -4.1201337916e+01 -3.0903627983e+01 +2.4350664665e+02 2.4889369504e+02 0.0000000000e+00 0.0000e+00 1.0000e+00
<mgrwt>
<rscale>  0 0.33985716E+03</rscale>
<asrwt>0</asrwt>
<pdfrwt beam="1">  1        2 0.38789219E-01 0.33985716E+03</pdfrwt>
<pdfrwt beam="2">  1       -2 0.17619562E-01 0.33985716E+03</pdfrwt>
<totfact> 0.38494812E+03</totfact>
</mgrwt>
<rwgt>
<wgt id='morphing_basis_vector_1'> +2.9307373e-04 </wgt>
<wgt id='morphing_basis_vector_2'> +1.5900573e-04 </wgt>
<wgt id='morphing_basis_vector_3'> +1.7646006e-04 </wgt>
<wgt id='morphing_basis_vector_4'> +3.0302984e-05 </wgt>
<wgt id='morphing_basis_vector_5'> +1.2676558e-05 </wgt>
</rwgt>
</event>
<event>
 4      1 +5.5534000e-05 3.11171600e+02 7.81860800e-03 9.96283200e-02
        2 -1    0    0  501    0 +0.0000000000e+00 +0.0000000000e+00 +7.5645040862e+02 7.5645040862e+02 0.0000000000e+00 0.0000e+00 1.0000e+00
       -2 -1    0    0    0  501 -0.0000000000e+00 -0.0000000000e+00 -3.2000697459e+01 3.2000697459e+01 0.0000000000e+00 0.0000e+00 -1.0000e+00
      -13  1    1    2    0    0 -7.9302100568e+01 +1.0337502116e+02 +1.4675044816e+02 1.9624197357e+02 0.0000000000e+00 0.0000e+00 -1.0000e+00
       13  1    1    2    0    0 +7.9302100568e+01 -1.0337502116e+02 +5.7769926299e+02 5.9220913250e+02 0.0000000000e+00 0.0000e+00 1.0000e+00
<mgrwt>
<rscale>  0 0.31117160E+03</rscale>
<asrwt>0</asrwt>
<pdfrwt beam="1">  1        2 0.11637697E+00 0.31117160E+03</pdfrwt>
<pdfrwt beam="2">  1       -2 0.49231848E-02 0.31117160E+03</pdfrwt>
<totfact> 0.80058514E+03</totfact>
</mgrwt>
<rwgt>
<wgt id='morphing_basis_vector_1'> +2.4104989e-04 </wgt>
<wgt id='morphing_basis_vector_2'> +1.3456027e-04 </wgt>
<wgt id='morphing_basis_vector_3'> +1.4110401e-04 </wgt>
<wgt id='morphing_basis_vector_4'> +2.4165426e-05 </wgt>
<wgt id='morphing_basis_vector_5'> +3.0129663e-06 </wgt>
</rwgt>
</event>
<event>
 4      1 +5.5534000e-05 3.46906300e+02 7.81860800e-03 9.82770600e-02
        2 -1    0    0  501    0 +0.0000000000e+00 +0.0000000000e+00 +2.6531316476e+02 2.6531316476e+02 0.0000000000e+00 0.0000e+00 1.0000e+00
       -2 -1    0    0    0  501 -0.0000000000e+00 -0.0000000000e+00 -1.1339804608e+02 1.1339804608e+02 0.0000000000e+00 0.0000e+00 -1.0000e+00
      -13  1    1    2    0    0 -1.4906309649e+01 +5.8113473355e+01 -1.0171045791e+02 1.1808637136e+02 0.0000000000e+00 0.0000e+00 -1.0000e+00
       13  1    1    2    0    0 +1.4906309649e+01 -5.8113473355e+01 +2.5362557659e+02 2.6062483948e+02 0.0000000000e+00 0.0000e+00 1.0000e+00
<mgrwt>
<rscale>  0 0.34690630E+03</rscale>
<asrwt>0</asrwt>
<pdfrwt beam="1">  1        2 0.40817410E-01 0.34690630E+03</pdfrwt>
<pdfrwt beam="2">  1       -2 0.17445853E-01 0.34690630E+03</pdfrwt>
<totfact> 0.36977967E+03</totfact>
</mgrwt>
<rwgt>
<wgt id='morphing_basis_vector_1'> +3.0757773e-04 </wgt>
<wgt id='morphing_basis_vector_2'> +1.6641256e-04 </wgt>
<wgt id='morphing_basis_vector_3'> +1.8632727e-04 </wgt>
<wgt id='morphing_basis_vector_4'> +3.2663772e-05 </wgt>
<wgt id='morphing_basis_vector_5'> +1.6285394e-05 </wgt>
</rwgt>
</event>
<event>
 4      1 +5.5534000e-05 3.20589900e+02 7.81860800e-03 9.92537300e-02
        2 -1    0    0  501    0 +0.0000000000e+00 +0.0000000000e+00 +1.0690545331e+03 1.0690545331e+03 0.0000000000e+00 0.0000e+00 1.0000e+00
       -2 -1    0    0    0  501 -0.0000000000e+00 -0.0000000000e+00 -2.4034763888e+01 2.4034763888e+01 0.0000000000e+00 0.0000e+00 -1.0000e+00
      -13  1    1    2    0    0 -1.4928035741e+02 +4.7327899461e+01 +6.3913269913e+02 6.5803887596e+02 0.0000000000e+00 0.0000e+00 1.0000e+00
       13  1    1    2    0    0 +1.4928035741e+02 -4.7327899461e+01 +4.0588707005e+02 4.3505042100e+02 0.0000000000e+00 0.0000e+00 -1.0000e+00
<mgrwt>
<rscale>  0 0.32058991E+03</rscale>
<asrwt>0</asrwt>
<pdfrwt beam="1">  1        2 0.16446989E+00 0.32058991E+03</pdfrwt>
<pdfrwt beam="2">  1       -2 0.36976568E-02 0.32058991E+03</pdfrwt>
<totfact> 0.77991785E+03</totfact>
</mgrwt>
<rwgt>
<wgt id='morphing_basis_vector_1'> +2.7261407e-04 </wgt>
<wgt id='morphing_basis_vector_2'> +1.8732573e-04 </wgt>
<wgt id='morphing_basis_vector_3'> +1.3035422e-04 </wgt>
<wgt id='morphing_basis_vector_4'> +3.2631393e-05 </wgt>
<wgt id='morphing_basis_vector_5'> +6.1538618e-06 </wgt>
</rwgt>
</event>
<event>
 4      1 +5.5534000e-05 3.10343300e+02 7.81860800e-03 9.96619500e-02
        2 -1    0    0  501    0 +0.0000000000e+00 +0.0000000000e+00 +2.0200201428e+02 2.0200201428e+02 0.0000000000e+00 0.0000e+00 1.0000e+00
       -2 -1    0    0    0  501 -0.0000000000e+00 -0.0000000000e+00 -1.1919799909e+02 1.1919799909e+02 0.0000000000e+00 0.0000e+00 -1.0000e+00
      -13  1    1    2    0    0 -1.3883154308e+00 +1.5065555128e+02 +2.9650544389e+00 1.5069112150e+02 0.0000000000e+00 0.0000e+00 -1.0000e+00
       13  1    1    2    0    0 +1.3883154308e+00 -1.5065555128e+02 +7.9838960755e+01 1.7050889187e+02 0.0000000000e+00 0.0000e+00 1.0000e+00
<mgrwt>
<rscale>  0 0.31034327E+03</rscale>
<asrwt>0</asrwt>
<pdfrwt beam="1">  1        2 0.31077233E-01 0.31034327E+03</pdfrwt>
<pdfrwt beam="2">  1       -2 0.18338154E-01 0.31034327E+03</pdfrwt>
<totfact> 0.46120328E+03</totfact>
</mgrwt>
<rwgt>
<wgt id='morphing_basis_vector_1'> +2.4175679e-04 </wgt>
<wgt id='morphing_basis_vector_2'> +1.3990127e-04 </wgt>
<wgt id='morphing_basis_vector_3'> +1.3726365e-04 </wgt>
<wgt id='morphing_basis_vector_4'> +2.5079233e-05 </wgt>
<wgt id='morphing_basis_vector_5'> +2.9326823e-06 </wgt>
</rwgt>
</event>
<event>
 4      1 +5.5534000e-05 3.50924600e+02 7.81860800e-03 9.81362000e-02
        2 -1    0    0  501    0 +0.0000000000e+00 +0.0000000000e+00 +1.1252872917e+03 1.1252872917e+03 0.0000000000e+00 0.0000e+00 -1.0000e+00
       -2 -1    0    0    0  501 -0.0000000000e+00 -0.0000000000e+00 -2.7359254788e+01 2.7359254788e+01 0.0000000000e+00 0.0000e+00 1.0000e+00
      -13  1    1    2    0    0 -1.4220666010e+02 +4.9529519805e+01 +2.5314739400e+02 2.9454967425e+02 0.0000000000e+00 0.0000e+00 1.0000e+00
       13  1    1    2    0    0 +1.4220666010e+02 -4.9529519805e+01 +8.4478064287e+02 8.5809687220e+02 0.0000000000e+00 0.0000e+00 -1.0000e+00
<mgrwt>
<rscale>  0 0.35092462E+03</rscale>
<asrwt>0</asrwt>
<pdfrwt beam="1">  1        2 0.17312109E+00 0.35092462E+03</pdfrwt>
<pdfrwt beam="2">  1       -2 0.42091170E-02 0.35092462E+03</pdfrwt>
<totfact> 0.59804345E+03</totfact>
</mgrwt>
<rwgt>
<wgt id='morphing_basis_vector_1'> +3.1719159e-04 </wgt>
<wgt id='morphing_basis_vector_2'> +1.7395622e-04 </wgt>
<wgt id='morphing_basis_vector_3'> +1.9093593e-04 </wgt>
<wgt id='morphing_basis_vector_4'> +3.4483374e-05 </wgt>
<wgt id='morphing_basis_vector_5'> +1.8648056e-05 </wgt>
</rwgt>
</event>
<event>
 4      1 +5.5534000e-05 3.03179900e+02 7.81860800e-03 9.99574100e-02
        2 -1    0    0  501    0 +0.0000000000e+00 +0.0000000000e+00 +3.1289299890e+02 3.1289299890e+02 0.0000000000e+00 0.0000e+00 -1.0000e+00
       -2 -1    0    0    0  501 -0.0000000000e+00 -0.0000000000e+00 -7.3442081836e+01 7.3442081836e+01 0.0000000000e+00 0.0000e+00 1.0000e+00
      -13  1    1    2    0    0 +5.8773394188e+01 -1.0595702533e+02 +3.6451459941e+00 1.2122083225e+02 0.0000000000e+00 0.0000e+00 1.0000e+00
       13  1    1    2    0    0 -5.8773394188e+01 +1.0595702533e+02 +2.3580577107e+02 2.6511424849e+02 0.0000000000e+00 0.0000e+00 -1.0000e+00
<mgrwt>
<rscale>  0 0.30317990E+03</rscale>
<asrwt>0</asrwt>
<pdfrwt beam="1">  1        2 0.48137384E-01 0.30317990E+03</pdfrwt>
<pdfrwt beam="2">  1       -2 0.11298782E-01 0.30317990E+03</pdfrwt>
<totfact> 0.61019894E+03</totfact>
</mgrwt>
<rwgt>
<wgt id='morphing_basis_vector_1'> +2.2785995e-04 </wgt>
<wgt id='morphing_basis_vector_2'> +1.2762833e-04 </wgt>
<wgt id='morphing_basis_vector_3'> +1.3328481e-04 </wgt>
<wgt id='morphing_basis_vector_4'> +2.3081848e-05 </wgt>
<wgt id='morphing_basis_vector_5'> +1.5686836e-06 </wgt>
</rwgt>
</event>
<event>
 4      1 +5.5534000e-05 3.08577500e+02 7.81860800e-03 9.97339900e-02
        2 -1    0    0  501    0 +0.0000000000e+00 +0.0000000000e+00 +6.4744434438e+02 6.4744434438e+02 0.0000000000e+00 0.0000e+00 1.0000e+00
       -2 -1    0    0    0  501 -0.0000000000e+00 -0.0000000000e+00 -3.6767678498e+01 3.6767678498e+01 0.0000000000e+00 0.0000e+00 -1.0000e+00
      -13  1    1    2    0    0 -7.2599186193e+00 +1.4082630120e+02 +1.6650796368e+02 2.1819636912e+02 0.0000000000e+00 0.0000e+00 -1.0000e+00
       13  1    1    2    0    0 +7.2599186193e+00 -1.4082630120e+02 +4.4416870220e+02 4.6601565376e+02 0.0000000000e+00 0.0000e+00 1.0000e+00
<mgrwt>
<rscale>  0 0.30857755E+03</rscale>
<asrwt>0</asrwt>
<pdfrwt beam="1">  1        2 0.99606814E-01 0.30857755E+03</pdfrwt>
<pdfrwt beam="2">  1       -2 0.56565664E-02 0.30857755E+03</pdfrwt>
<totfact> 0.78179960E+03</totfact>
</mgrwt>
<rwgt>
<wgt id='morphing_basis_vector_1'> +2.3741306e-04 </wgt>
<wgt id='morphing_basis_vector_2'> +1.3434100e-04 </wgt>
<wgt id='morphing_basis_vector_3'> +1.3746433e-04 </wgt>
<wgt id='morphing_basis_vector_4'> +2.4141864e-05 </wgt>
<wgt id='morphing_basis_vector_5'> +2.5196128e-06 </wgt>
</rwgt>
</event>
<event>
 4      1 +5.5534000e-05 3.04481100e+02 7.81860800e-03 9.99031000e-02
        2 -1    0    0  501    0 +0.0000000000e+00 +0.0000000000e+00 +1.3425030172e+03 1.3425030172e+03 0.0000000000e+00 0.0000e+00 -1.0000e+00
       -2 -1    0    0    0  501 -0.0000000000e+00 -0.0000000000e+00 -1.7264159405e+01 1.7264159405e+01 0.0000000000e+00 0.0000e+00 1.0000e+00
      -13  1    1    2    0    0 -1.4473143295e+02 -4.3117155674e+01 +5.7661158470e+02 5.9605972554e+02 0.0000000000e+00 0.0000e+00 1.0000e+00
       13  1    1    2    0    0 +1.4473143295e+02 +4.3117155674e+01 +7.4862727313e+02 7.6370745111e+02 0.0000000000e+00 0.0000e+00 -1.0000e+00
<mgrwt>
<rscale>  0 0.30448111E+03</rscale>
<asrwt>0</asrwt>
<pdfrwt beam="1">  1        2 0.20653884E+00 0.30448111E+03</pdfrwt>
<pdfrwt beam="2">  1       -2 0.26560256E-02 0.30448111E+03</pdfrwt>
<totfact> 0.89123853E+03</totfact>
</mgrwt>
<rwgt>
<wgt id='morphing_basis_vector_1'> +2.3355908e-04 </wgt>
<wgt id='morphing_basis_vector_2'> +1.3904616e-04 </wgt>
<wgt id='morphing_basis_vector_3'> +1.2929580e-04 </wgt>
<wgt id='morphing_basis_vector_4'> +2.5103167e-05 </wgt>
<wgt id='morphing_basis_vector_5'> +1.9128700e-06 </wgt>
</rwgt>
</event>
<event>
 4      1 +5.5534000e-05 3.26089400e+02 7.81860800e-03 9.90414000e-02
        2 -1    0    0  501    0 +0.0000000000e+00 +0.0000000000e+00 +7.1931660193e+02 7.1931660193e+02 0.0000000000e+00 0.0000e+00 -1.0000e+00
       -2 -1    0    0    0  501 -0.0000000000e+00 -0.0000000000e+00 -3.6956719504e+01 3.6956719504e+01 0.0000000000e+00 0.0000e+00 1.0000e+00
      -13  1    1    2    0    0 +1.4899092786e+02 -5.7606641984e+01 +2.6543120019e+02 3.0979112935e+02 0.0000000000e+00 0.0000e+00 1.0000e+00
       13  1    1    2    0    0 -1.4899092786e+02 +5.7606641984e+01 +4.1692868223e+02 4.4648219209e+02 0.0000000000e+00 0.0000e+00 -1.0000e+00
<mgrwt>
<rscale>  0 0.32608945E+03</rscale>
<asrwt>0</asrwt>
<pdfrwt beam="1">  1        2 0.11066408E+00 0.32608945E+03</pdfrwt>
<pdfrwt beam="2">  1       -2 0.56856497E-02 0.32608945E+03</pdfrwt>
<totfact> 0.68665168E+03</totfact>
</mgrwt>
<rwgt>
<wgt id='morphing_basis_vector_1'> +2.7020272e-04 </wgt>
<wgt id='morphing_basis_vector_2'> +1.5630199e-04 </wgt>
<wgt id='morphing_basis_vector_3'> +1.5392344e-04 </wgt>
<wgt id='morphing_basis_vector_4'> +2.8151207e-05 </wgt>
<wgt id='morphing_basis_vector_5'> +7.2736354e-06 </wgt>
</rwgt>
</event>
<event>
 4      1 +5.5534000e-05 3.21183500e+02 7.81860800e-03 9.92305900e-02
        2 -1    0    0  501    0 +0.0000000000e+00 +0.0000000000e+00 +8.2036877452e+01 8.2036877452e+01 0.0000000000e+00 0.0000e+00 -1.0000e+00
       -2 -1    0    0    0  501 -0.0000000000e+00 -0.0000000000e+00 -3.1436728911e+02 3.1436728911e+02 0.0000000000e+00 0.0000e+00 1.0000e+00
      -13  1    1    2    0    0 -7.3783546186e+01 +2.3572130369e+01 -2.8978868959e+02 2.9996190030e+02 0.0000000000e+00 0.0000e+00 1.0000e+00
       13  1    1    2    0    0 +7.3783546186e+01 -2.3572130369e+01 +5.7458277935e+01 9.6442266259e+01 0.0000000000e+00 0.0000e+00 -1.0000e+00
<mgrwt>
<rscale>  0 0.32118350E+03</rscale>
<asrwt>0</asrwt>
<pdfrwt beam="1">  1        2 0.12621058E-01 0.32118350E+03</pdfrwt>
<pdfrwt beam="2">  1       -2 0.48364198E-01 0.32118350E+03</pdfrwt>
<totfact> 0.24713546E+03</totfact>
</mgrwt>
<rwgt>
<wgt id='morphing_basis_vector_1'> +2.5771370e-04 </wgt>
<wgt id='morphing_basis_vector_2'> +1.4132222e-04 </wgt>
<wgt id='morphing_basis_vector_3'> +1.5299984e-04 </wgt>
<wgt id='morphing_basis_vector_4'> +2.5581216e-05 </wgt>
<wgt id='morphing_basis_vector_5'> +5.5190080e-06 </wgt>
</rwgt>
</event>
<event>
 4      1 +5.5534000e-05 3.18050700e+02 7.81860800e-03 9.93533400e-02
        2 -1    0    0  501    0 +0.0000000000e+00 +0.0000000000e+00 +3.1321981279e+02 3.1321981279e+02 0.0000000000e+00 0.0000e+00 -1.0000e+00
       -2 -1    0    0    0  501 -0.0000000000e+00 -0.0000000000e+00 -8.0739018939e+01 8.0739018939e+01 0.0000000000e+00 0.0000e+00 1.0000e+00
      -13  1    1    2    0    0 +2.8622419056e+01 +1.4929765943e+02 +1.7407468262e+02 2.3110826275e+02 0.0000000000e+00 0.0000e+00 -1.0000e+00
       13  1    1    2    0    0 -2.8622419056e+01 -1.4929765943e+02 +5.8406111232e+01 1.6285056897e+02 0.0000000000e+00 0.0000e+00 1.0000e+00
<mgrwt>
<rscale>  0 0.31805069E+03</rscale>
<asrwt>0</asrwt>
<pdfrwt beam="1">  1        2 0.48187663E-01 0.31805069E+03</pdfrwt>
<pdfrwt beam="2">  1       -2 0.12421388E-01 0.31805069E+03</pdfrwt>
<totfact> 0.52675804E+03</totfact>
</mgrwt>
<rwgt>
<wgt id='morphing_basis_vector_1'> +2.7276493e-04 </wgt>
<wgt id='morphing_basis_vector_2'> +1.9844346e-04 </wgt>
<wgt id='morphing_basis_vector_3'> +1.2086209e-04 </wgt>
<wgt id='morphing_basis_vector_4'> +3.4462116e-05 </wgt>
<wgt id='morphing_basis_vector_5'> +5.6470788e-06 </wgt>
</rwgt>
</event>
<event>
 4      1 +5.5534000e-05 3.43702200e+02 7.81860800e-03 9.83908600e-02
        2 -1    0    0  501    0 +0.0000000000e+00 +0.0000000000e+00 +3.0500404912e+02 3.0500404912e+02 0.0000000000e+00 0.0000e+00 -1.0000e+00
       -2 -1    0    0    0  501 -0.0000000000e+00 -0.0000000000e+00 -9.6827568459e+01 9.6827568459e+01 0.0000000000e+00 0.0000e+00 1.0000e+00
      -13  1    1    2    0    0 -3.2057104919e+01 +1.4623029098e+02 +5.4243951348e+00 1.4980113497e+02 0.0000000000e+00 0.0000e+00 1.0000e+00
       13  1    1    2    0    0 +3.2057104919e+01 -1.4623029098e+02 +2.0275208552e+02 2.5203048260e+02 0.0000000000e+00 0.0000e+00 -1.0000e+00
<mgrwt>
<rscale>  0 0.34370220E+03</rscale>
<asrwt>0</asrwt>
<pdfrwt beam="1">  1        2 0.46923699E-01 0.34370220E+03</pdfrwt>
<pdfrwt beam="2">  1       -2 0.14896549E-01 0.34370220E+03</pdfrwt>
<totfact> 0.40812000E+03</totfact>
</mgrwt>
<rwgt>
<wgt id='morphing_basis_vector_1'> +3.0202908e-04 </wgt>
<wgt id='morphing_basis_vector_2'> +1.6633851e-04 </wgt>
<wgt id='morphing_basis_vector_3'> +1.8035394e-04 </wgt>
<wgt id='morphing_basis_vector_4'> +3.1933734e-05 </wgt>
<wgt id='morphing_basis_vector_5'> +1.4648138e-05 </wgt>
</rwgt>
</event>
<event>
 4      1 +5.5534000e-05 3.39620200e+02 7.81860800e-03 9.85378100e-02
        2 -1    0    0  501    0 +0.0000000000e+00 +0.0000000000e+00 +6.5768139377e+01 6.5768139377e+01 0.0000000000e+00 0.0000e+00 1.0000e+00
       -2 -1    0    0    0  501 -0.0000000000e+00 -0.0000000000e+00 -4.3844142246e+02 4.3844142246e+02 0.0000000000e+00 0.0000e+00 -1.0000e+00
      -13  1    1    2    0    0 -2.7326278910e+01 +1.1725588664e+02 -3.6411921350e+02 3.8350810958e+02 0.0000000000e+00 0.0000e+00 -1.0000e+00
       13  1    1    2    0    0 +2.7326278910e+01 -1.1725588664e+02 -8.5540695797e+00 1.2070145226e+02 0.0000000000e+00 0.0000e+00 1.0000e+00
<mgrwt>
<rscale>  0 0.33962024E+03</rscale>
<asrwt>0</asrwt>
<pdfrwt beam="1">  1        2 0.10118175E-01 0.33962024E+03</pdfrwt>
<pdfrwt beam="2">  1       -2 0.67452528E-01 0.33962024E+03</pdfrwt>
<totfact> 0.16812700E+03</totfact>
</mgrwt>
<rwgt>
<wgt id='morphing_basis_vector_1'> +2.9287548e-04 </wgt>
<wgt id='morphing_basis_vector_2'> +1.5958745e-04 </wgt>
<wgt id='morphing_basis_vector_3'> +1.7578263e-04 </wgt>
<wgt id='morphing_basis_vector_4'> +3.0329759e-05 </wgt>
<wgt id='morphing_basis_vector_5'> +1.2580810e-05 </wgt>
</rwgt>
</event>
<event>
 4      1 +5.5534000e-05 3.04457600e+02 7.81860800e-03 9.99040800e-02
        2 -1    0    0  501    0 +0.0000000000e+00 +0.0000000000e+00 +4.1605639541e+02 4.1605639541e+02 0.0000000000e+00 0.0000e+00 -1.0000e+00
       -2 -1    0    0    0  501 -0.0000000000e+00 -0.0000000000e+00 -5.5698241757e+01 5.5698241757e+01 0.0000000000e+00 0.0000e+00 1.0000e+00
      -13  1    1    2    0    0 -2.5325302352e+01 +9.3781212118e+01 -1.4311886066e+00 9.7151093594e+01 0.0000000000e+00 0.0000e+00 1.0000e+00
       13  1    1    2    0    0 +2.5325302352e+01 -9.3781212118e+01 +3.6178934226e+02 3.7460354357e+02 0.0000000000e+00 0.0000e+00 -1.0000e+00
<mgrwt>
<rscale>  0 0.30445761E+03</rscale>
<asrwt>0</asrwt>
<pdfrwt beam="1">  1        2 0.64008674E-01 0.30445761E+03</pdfrwt>
<pdfrwt beam="2">  1       -2 0.85689605E-02 0.30445761E+03</pdfrwt>
<totfact> 0.68348501E+03</totfact>
</mgrwt>
<rwgt>
<wgt id='morphing_basis_vector_1'> +2.2957399e-04 </wgt>
<wgt id='morphing_basis_vector_2'> +1.2771035e-04 </wgt>
<wgt id='morphing_basis_vector_3'> +1.3499825e-04 </wgt>
<wgt id='morphing_basis_vector_4'> +2.3054412e-05 </wgt>
<wgt id='morphing_basis_vector_5'> +1.7521725e-06 </wgt>
</rwgt>
</event>
<event>
 4      1 +5.5534000e-05 3.05768500e+02 7.81860800e-03 9.98496500e-02
        2 -1    0    0  501    0 +0.0000000000e+00 +0.0000000000e+00 +3.4428723637e+02 3.4428723637e+02 0.0000000000e+00 0.0000e+00 -1.0000e+00
       -2 -1    0    0    0  501 -0.0000000000e+00 -0.0000000000e+00 -6.7889801210e+01 6.7889801210e+01 0.0000000000e+00 0.0000e+00 1.0000e+00
      -13  1    1    2    0    0 -1.1007261080e+02 +1.0142821147e+02 +9.6216890749e+01 1.7793637007e+02 0.0000000000e+00 0.0000e+00 1.0000e+00
       13  1    1    2    0    0 +1.1007261080e+02 -1.0142821147e+02 +1.8018054441e+02 2.3424066751e+02 0.0000000000e+00 0.0000e+00 -1.0000e+00
<mgrwt>
<rscale>  0 0.30576849E+03</rscale>
<asrwt>0</asrwt>
<pdfrwt beam="1">  1        2 0.52967266E-01 0.30576849E+03</pdfrwt>
<pdfrwt beam="2">  1       -2 0.10444585E-01 0.30576849E+03</pdfrwt>
<totfact> 0.62078609E+03</totfact>
</mgrwt>
<rwgt>
<wgt id='morphing_basis_vector_1'> +2.3458781e-04 </wgt>
<wgt id='morphing_basis_vector_2'> +1.3709659e-04 </wgt>
<wgt id='morphing_basis_vector_3'> +1.3209156e-04 </wgt>
<wgt id='morphing_basis_vector_4'> +2.4698601e-05 </wgt>
<wgt id='morphing_basis_vector_5'> +2.0847671e-06 </wgt>
</rwgt>
</event>
<event>
 4      1 +5.5534000e-05 3.12907800e+02 7.81860800e-03 9.95582100e-02
        2 -1    0    0  501    0 +0.0000000000e+00 +0.0000000000e+00 +9.1020237667e+02 9.1020237667e+02 0.0000000000e+00 0.0000e+00 1.0000e+00
       -2 -1    0    0    0  501 -0.0000000000e+00 -0.0000000000e+00 -2.6892720809e+01 2.6892720809e+01 0.0000000000e+00 0.0000e+00 -1.0000e+00
      -13  1    1    2    0    0 -5.8550334604e+01 +1.2421755329e+02 +6.6615824784e+02 6.8016538679e+02 0.0000000000e+00 0.0000e+00 -1.0000e+00
       13  1    1    2    0    0 +5.8550334604e+01 -1.2421755329e+02 +2.1715140802e+02 2.5692971069e+02 0.0000000000e+00 0.0000e+00 1.0000e+00
<mgrwt>
<rscale>  0 0.31290777E+03</rscale>
<asrwt>0</asrwt>
<pdfrwt beam="1">  1        2 0.14003111E+00 0.31290777E+03</pdfrwt>
<pdfrwt beam="2">  1       -2 0.41373424E-02 0.31290777E+03</pdfrwt>
<totfact> 0.82209180E+03</totfact>
</mgrwt>
<rwgt>
<wgt id='morphing_basis_vector_1'> +2.7936196e-04 </wgt>
<wgt id='morphing_basis_vector_2'> +2.3842390e-04 </wgt>
<wgt id='morphing_basis_vector_3'> +9.2941420e-05 </wgt>
<wgt id='morphing_basis_vector_4'> +4.1513028e-05 </wgt>
<wgt id='morphing_basis_vector_5'> +5.0187031e-06 </wgt>
</rwgt>
</event>
<event>
 4      1 +5.5534000e-05 3.25253700e+02 7.81860800e-03 9.90733700e-02
        2 -1    0    0  501    0 +0.0000000000e+00 +0.0000000000e+00 +6.5898160159e+02 6.5898160159e+02 0.0000000000e+00 0.0000e+00 1.0000e+00
       -2 -1    0    0    0  501 -0.0000000000e+00 -0.0000000000e+00 -4.0133889271e+01 4.0133889271e+01 0.0000000000e+00 0.0000e+00 -1.0000e+00
      -13  1    1    2    0    0 +6.1081950442e+01 +9.4364003732e+01 +5.6203573134e+02 5.7316640967e+02 0.0000000000e+00 0.0000e+00 1.0000e+00
       13  1    1    2    0    0 -6.1081950442e+01 -9.4364003732e+01 +5.6811980978e+01 1.2594908119e+02 0.0000000000e+00 0.0000e+00 -1.0000e+00
<mgrwt>
<rscale>  0 0.32525371E+03</rscale>
<asrwt>0</asrwt>
<pdfrwt beam="1">  1        2 0.10138178E+00 0.32525371E+03</pdfrwt>
<pdfrwt beam="2">  1       -2 0.61744450E-02 0.32525371E+03</pdfrwt>
<totfact> 0.67246077E+03</totfact>
</mgrwt>
<rwgt>
<wgt id='morphing_basis_vector_1'> +3.3826023e-04 </wgt>
<wgt id='morphing_basis_vector_2'> +3.5932501e-04 </wgt>
<wgt id='morphing_basis_vector_3'> +5.8705234e-05 </wgt>
<wgt id='morphing_basis_vector_4'> +5.7771544e-05 </wgt>
<wgt id='morphing_basis_vector_5'> +1.0694866e-05 </wgt>
</rwgt>
</event>
<event>
 4      1 +5.5534000e-05 3.15255700e+02 7.81860800e-03 9.94641600e-02
        2 -1    0    0  501    0 +0.0000000000e+00 +0.0000000000e+00 +5.7843276087e+01 5.7843276087e+01 0.0000000000e+00 0.0000e+00 -1.0000e+00
       -2 -1    0    0    0  501 -0.0000000000e+00 -0.0000000000e+00 -4.2954933048e+02 4.2954933048e+02 0.0000000000e+00 0.0000e+00 1.0000e+00
      -13  1    1    2    0    0 +7.7180023347e+01 +1.6724316741e+01 -3.9675960133e+02 4.0454250706e+02 0.0000000000e+00 0.0000e+00 1.0000e+00
       13  1    1    2    0    0 -7.7180023347e+01 -1.6724316741e+01 +2.5053546933e+01 8.2850099506e+01 0.0000000000e+00 0.0000e+00 -1.0000e+00
<mgrwt>
<rscale>  0 0.31525571E+03</rscale>
<asrwt>0</asrwt>
<pdfrwt beam="1">  1        2 0.88989657E-02 0.31525571E+03</pdfrwt>
<pdfrwt beam="2">  1       -2 0.66084511E-01 0.31525571E+03</pdfrwt>
<totfact> 0.20611285E+03</totfact>
</mgrwt>
<rwgt>
<wgt id='morphing_basis_vector_1'> +2.4735511e-04 </wgt>
<wgt id='morphing_basis_vector_2'> +1.3621320e-04 </wgt>
<wgt id='morphing_basis_vector_3'> +1.4633823e-04 </wgt>
<wgt id='morphing_basis_vector_4'> +2.4504206e-05 </wgt>
<wgt id='morphing_basis_vector_5'> +3.9167078e-06 </wgt>
</rwgt>
</event>
<event>
 4      1 +5.5534000e-05 3.10568700e+02 7.81860800e-03 9.96527800e-02
        2 -1    0    0  501    0 +0.0000000000e+00 +0.0000000000e+00 +7.3016022006e+02 7.3016022006e+02 0.0000000000e+00 0.0000e+00 -1.0000e+00
       -2 -1    0    0    0  501 -0.0000000000e+00 -0.0000000000e+00 -3.3024571543e+01 3.3024571543e+01 0.0000000000e+00 0.0000e+00 1.0000e+00
      -13  1    1    2    0    0 +9.4353881285e+01 +1.2035181109e+02 +2.8235458234e+02 3.2110951950e+02 0.0000000000e+00 0.0000e+00 1.0000e+00
       13  1    1    2    0    0 -9.4353881285e+01 -1.2035181109e+02 +4.1478106617e+02 4.4207527210e+02 0.0000000000e+00 0.0000e+00 -1.0000e+00
<mgrwt>
<rscale>  0 0.31056869E+03</rscale>
<asrwt>0</asrwt>
<pdfrwt beam="1">  1        2 0.11233233E+00 0.31056869E+03</pdfrwt>
<pdfrwt beam="2">  1       -2 0.50807039E-02 0.31056869E+03</pdfrwt>
<totfact> 0.79705348E+03</totfact>
</mgrwt>
<rwgt>
<wgt id='morphing_basis_vector_1'> +2.4296549e-04 </wgt>
<wgt id='morphing_basis_vector_2'> +1.4249478e-04 </wgt>
<wgt id='morphing_basis_vector_3'> +1.3631426e-04 </wgt>
<wgt id='morphing_basis_vector_4'> +2.5519696e-05 </wgt>
<wgt id='morphing_basis_vector_5'> +3.0163662e-06 </wgt>
</rwgt>
</event>
<event>
 4      1 +5.5534000e-05 3.43434300e+02 7.81860800e-03 9.84004400e-02
        2 -1    0    0  501    0 +0.0000000000e+00 +0.0000000000e+00 +9.8721124846e+02 9.8721124846e+02 0.0000000000e+00 0.0000e+00 -1.0000e+00
       -2 -1    0    0    0  501 -0.0000000000e+00 -0.0000000000e+00 -2.9868764076e+01 2.9868764076e+01 0.0000000000e+00 0.0000e+00 1.0000e+00
      -13  1    1    2    0    0 +5.7436496822e+01 -1.4176017584e+02 +2.4752482574e+02 2.9096982314e+02 0.0000000000e+00 0.0000e+00 1.0000e+00
       13  1    1    2    0    0 -5.7436496822e+01 +1.4176017584e+02 +7.0981765865e+02 7.2611018940e+02 0.0000000000e+00 0.0000e+00 -1.0000e+00
<mgrwt>
<rscale>  0 0.34343430E+03</rscale>
<asrwt>0</asrwt>
<pdfrwt beam="1">  1        2 0.15187863E+00 0.34343430E+03</pdfrwt>
<pdfrwt beam="2">  1       -2 0.45951952E-02 0.34343430E+03</pdfrwt>
<totfact> 0.63206366E+03</totfact>
</mgrwt>
<rwgt>
<wgt id='morphing_basis_vector_1'> +3.0170615e-04 </wgt>
<wgt id='morphing_basis_vector_2'> +1.6673615e-04 </wgt>
<wgt id='morphing_basis_vector_3'> +1.7968835e-04 </wgt>
<wgt id='morphing_basis_vector_4'> +3.1923653e-05 </wgt>
<wgt id='morphing_basis_vector_5'> +1.4524288e-05 </wgt>
</rwgt>
</event>
<event>
 4      1 +5.5534000e-05 3.30667100e+02 7.81860800e-03 9.88681000e-02
        2 -1    0    0  501    0 +0.0000000000e+00 +0.0000000000e+00 +1.0802252223e+02 1.0802252223e+02 0.0000000000e+00 0.0000e+00 1.0000e+00
       -2 -1    0    0    0  501 -0.0000000000e+00 -0.0000000000e+00 -2.5305080218e+02 2.5305080218e+02 0.0000000000e+00 0.0000e+00 -1.0000e+00
      -13  1    1    2    0    0 +4.2103695795e+01 +1.0662161458e+01 -2.4671002933e+02 2.5050397494e+02 0.0000000000e+00 0.0000e+00 -1.0000e+00
       13  1    1    2    0    0 -4.2103695795e+01 -1.0662161458e+01 +1.0168174938e+02 1.1056934948e+02 0.0000000000e+00 0.0000e+00 1.0000e+00
<mgrwt>
<rscale>  0 0.33066712E+03</rscale>
<asrwt>0</asrwt>
<pdfrwt beam="1">  1        2 0.16618850E-01 0.33066712E+03</pdfrwt>
<pdfrwt beam="2">  1       -2 0.38930892E-01 0.33066712E+03</pdfrwt>
<totfact> 0.26503947E+03</totfact>
</mgrwt>
<rwgt>
<wgt id='morphing_basis_vector_1'> +2.7512041e-04 </wgt>
<wgt id='morphing_basis_vector_2'> +1.4993242e-04 </wgt>
<wgt id='morphing_basis_vector_3'> +1.6445769e-04 </wgt>
<wgt id='morphing_basis_vector_4'> +2.7708065e-05 </wgt>
<wgt id='morphing_basis_vector_5'> +8.7357920e-06 </wgt>
</rwgt>
</event>
<event>
 4      1 +5.5534000e-05 3.35458100e+02 7.81860800e-03 9.86899600e-02
        2 -1    0    0  501    0 +0.0000000000e+00 +0.0000000000e+00 +1.7476039410e+02 1.7476039410e+02 0.0000000000e+00 0.0000e+00 -1.0000e+00
       -2 -1    0    0    0  501 -0.0000000000e+00 -0.0000000000e+00 -1.6098064157e+02 1.6098064157e+02 0.0000000000e+00 0.0000e+00 1.0000e+00
      -13  1    1    2    0    0 +1.5492006553e+02 -2.4927642203e+01 -5.2417385799e+01 1.6543638168e+02 0.0000000000e+00 0.0000e+00 1.0000e+00
       13  1    1    2    0    0 -1.5492006553e+02 +2.4927642203e+01 +6.6197138333e+01 1.7030465399e+02 0.0000000000e+00 0.0000e+00 -1.0000e+00
<mgrwt>
<rscale>  0 0.33545814E+03</rscale>
<asrwt>0</asrwt>
<pdfrwt beam="1">  1        2 0.26886214E-01 0.33545814E+03</pdfrwt>
<pdfrwt beam="2">  1       -2 0.24766253E-01 0.33545814E+03</pdfrwt>
<totfact> 0.33220199E+03</totfact>
</mgrwt>
<rwgt>
<wgt id='morphing_basis_vector_1'> +2.8640097e-04 </wgt>
<wgt id='morphing_basis_vector_2'> +1.6064740e-04 </wgt>
<wgt id='morphing_basis_vector_3'> +1.6792237e-04 </wgt>
<wgt id='morphing_basis_vector_4'> +2.9776720e-05 </wgt>
<wgt id='morphing_basis_vector_5'> +1.0804199e-05 </wgt>
</rwgt>
</event>
<event>
 4      1 +5.5534000e-05 3.50365200e+02 7.81860800e-03 9.81556900e-02
        2 -1    0    0  501    0 +0.0000000000e+00 +0.0000000000e+00 +8.8856439775e+02 8.8856439775e+02 0.0000000000e+00 0.0000e+00 1.0000e+00
       -2 -1    0    0    0  501 -0.0000000000e+00 -0.0000000000e+00 -3.4537662662e+01 3.4537662662e+01 0.0000000000e+00 0.0000e+00 -1.0000e+00
      -13  1    1    2    0    0 +5.9132627799e+01 +1.5348617204e+02 +2.6818170588e+02 3.1460467264e+02 0.0000000000e+00 0.0000e+00 -1.0000e+00
       13  1    1    2    0    0 -5.9132627799e+01 -1.5348617204e+02 +5.8584502921e+02 6.0849738777e+02 0.0000000000e+00 0.0000e+00 1.0000e+00
<mgrwt>
<rscale>  0 0.35036517E+03</rscale>
<asrwt>0</asrwt>
<pdfrwt beam="1">  1        2 0.13670220E+00 0.35036517E+03</pdfrwt>
<pdfrwt beam="2">  1       -2 0.53134872E-02 0.35036517E+03</pdfrwt>
<totfact> 0.58561859E+03</totfact>
</mgrwt>
<rwgt>
<wgt id='morphing_basis_vector_1'> +3.1733390e-04 </wgt>
<wgt id='morphing_basis_vector_2'> +1.7735653e-04 </wgt>
<wgt id='morphing_basis_vector_3'> +1.8845288e-04 </wgt>
<wgt id='morphing_basis_vector_4'> +3.4688015e-05 </wgt>
<wgt id='morphing_basis_vector_5'> +1.8401731e-05 </wgt>
</rwgt>
</event>
<event>
 4      1 +5.5534000e-05 3.55550800e+02 7.81860800e-03 9.79765300e-02
        2 -1    0    0  501    0 +0.0000000000e+00 +0.0000000000e+00 +6.7367099729e+02 6.7367099729e+02 0.0000000000e+00 0.0000e+00 -1.0000e+00
       -2 -1    0    0    0  501 -0.0000000000e+00 -0.0000000000e+00 -4.6913254334e+01 4.6913254334e+01 0.0000000000e+00 0.0000e+00 1.0000e+00
      -13  1    1    2    0    0 -1.5872620697e+02 -7.0886787168e+01 +2.3795097252e+02 2.9468561332e+02 0.0000000000e+00 0.0000e+00 1.0000e+00
       13  1    1    2    0    0 +1.5872620697e+02 +7.0886787168e+01 +3.8880677043e+02 4.2589863830e+02 0.0000000000e+00 0.0000e+00 -1.0000e+00
<mgrwt>
<rscale>  0 0.35555083E+03</rscale>
<asrwt>0</asrwt>
<pdfrwt beam="1">  1        2 0.10364169E+00 0.35555083E+03</pdfrwt>
<pdfrwt beam="2">  1       -2 0.72174242E-02 0.35555083E+03</pdfrwt>
<totfact> 0.51857364E+03</totfact>
</mgrwt>
<rwgt>
<wgt id='morphing_basis_vector_1'> +3.3068285e-04 </wgt>
<wgt id='morphing_basis_vector_2'> +1.8927262e-04 </wgt>
<wgt id='morphing_basis_vector_3'> +1.9397517e-04 </wgt>
<wgt id='morphing_basis_vector_4'> +3.7279741e-05 </wgt>
<wgt id='morphing_basis_vector_5'> +2.1731263e-05 </wgt>
</rwgt>
</event>
<event>
 4      1 +5.5534000e-05 3.13759500e+02 7.81860800e-03 9.95240000e-02
        2 -1    0    0  501    0 +0.0000000000e+00 +0.0000000000e+00 +2.9670169657e+02 2.9670169657e+02 0.0000000000e+00 0.0000e+00 -1.0000e+00
       -2 -1    0    0    0  501 -0.0000000000e+00 -0.0000000000e+00 -8.2949474989e+01 8.2949474989e+01 0.0000000000e+00 0.0000e+00 1.0000e+00
      -13  1    1    2    0    0 +1.3455904069e+02 -7.6865108467e+01 +7.7314530041e+01 1.7318174524e+02 0.0000000000e+00 0.0000e+00 1.0000e+00
       13  1    1    2    0    0 -1.3455904069e+02 +7.6865108467e+01 +1.3643769154e+02 2.0646942632e+02 0.0000000000e+00 0.0000e+00 -1.0000e+00
<mgrwt>
<rscale>  0 0.31375946E+03</rscale>
<asrwt>0</asrwt>
<pdfrwt beam="1">  1        2 0.45646414E-01 0.31375946E+03</pdfrwt>
<pdfrwt beam="2">  1       -2 0.12761458E-01 0.31375946E+03</pdfrwt>
<totfact> 0.53558762E+03</totfact>
</mgrwt>
<rwgt>
<wgt id='morphing_basis_vector_1'> +2.4868496e-04 </wgt>
<wgt id='morphing_basis_vector_2'> +1.4620135e-04 </wgt>
<wgt id='morphing_basis_vector_3'> +1.3924561e-04 </wgt>
<wgt id='morphing_basis_vector_4'> +2.6122127e-05 </wgt>
<wgt id='morphing_basis_vector_5'> +3.7402241e-06 </wgt>
</rwgt>
</event>
<event>
 4      1 +5.5534000e-05 3.33332700e+02 7.81860800e-03 9.87685900e-02
        2 -1    0    0  501    0 +0.0000000000e+00 +0.0000000000e+00 +5.7327535930e+01 5.7327535930e+01 0.0000000000e+00 0.0000e+00 -1.0000e+00
       -2 -1    0    0    0  501 -0.0000000000e+00 -0.0000000000e+00 -4.8454338786e+02 4.8454338786e+02 0.0000000000e+00 0.0000e+00 1.0000e+00
      -13  1    1    2    0    0 -1.4382860473e+02 +6.6007153640e+01 -2.9860861068e+02 3.3795075713e+02 0.0000000000e+00 0.0000e+00 1.0000e+00
       13  1    1    2    0    0 +1.4382860473e+02 -6.6007153640e+01 -1.2860724125e+02 2.0392016667e+02 0.0000000000e+00 0.0000e+00 -1.0000e+00
<mgrwt>
<rscale>  0 0.33333274E+03</rscale>
<asrwt>0</asrwt>
<pdfrwt beam="1">  1        2 0.88196208E-02 0.33333274E+03</pdfrwt>
<pdfrwt beam="2">  1       -2 0.74545138E-01 0.33333274E+03</pdfrwt>
<totfact> 0.16190680E+03</totfact>
</mgrwt>
<rwgt>
<wgt id='morphing_basis_vector_1'> +2.8262278e-04 </wgt>
<wgt id='morphing_basis_vector_2'> +1.5958619e-04 </wgt>
<wgt id='morphing_basis_vector_3'> +1.6468530e-04 </wgt>
<wgt id='morphing_basis_vector_4'> +2.9345871e-05 </wgt>
<wgt id='morphing_basis_vector_5'> +9.9297952e-06 </wgt>
</rwgt>
</event>
<event>
 4      1 +5.5534000e-05 3.45247200e+02 7.81860800e-03 9.83358200e-02
        2 -1    0    0  501    0 +0.0000000000e+00 +0.0000000000e+00 +4.9446159797e+02 4.9446159797e+02 0.0000000000e+00 0.0000e+00 -1.0000e+00
       -2 -1    0    0    0  501 -0.0000000000e+00 -0.0000000000e+00 -6.0265357296e+01 6.0265357296e+01 0.0000000000e+00 0.0000e+00 1.0000e+00
      -13  1    1    2    0    0 +1.5451692002e+02 +2.9740233497e+01 +1.0304191383e+02 1.8808933002e+02 0.0000000000e+00 0.0000e+00 1.0000e+00
       13  1    1    2    0    0 -1.5451692002e+02 -2.9740233497e+01 +3.3115432685e+02 3.6663762525e+02 0.0000000000e+00 0.0000e+00 -1.0000e+00
<mgrwt>
<rscale>  0 0.34524719E+03</rscale>
<asrwt>0</asrwt>
<pdfrwt beam="1">  1        2 0.76071012E-01 0.34524719E+03</pdfrwt>
<pdfrwt beam="2">  1       -2 0.92715937E-02 0.34524719E+03</pdfrwt>
<totfact> 0.50261238E+03</totfact>
</mgrwt>
<rwgt>
<wgt id='morphing_basis_vector_1'> +3.0580034e-04 </wgt>
<wgt id='morphing_basis_vector_2'> +1.6967600e-04 </wgt>
<wgt id='morphing_basis_vector_3'> +1.8183239e-04 </wgt>
<wgt id='morphing_basis_vector_4'> +3.2644621e-05 </wgt>
<wgt id='morphing_basis_vector_5'> +1.5492203e-05 </wgt>
</rwgt>
</event>
<event>
 4      1 +5.5534000e-05 3.04910400e+02 7.81860800e-03 9.98852500e-02
        2 -1    0    0  501    0 +0.0000000000e+00 +0.0000000000e+00 +1.0131441391e+03 1.0131441391e+03 0.0000000000e+00 0.0000e+00 1.0000e+00
       -2 -1    0    0    0  501 -0.0000000000e+00 -0.0000000000e+00 -2.2941043441e+01 2.2941043441e+01 0.0000000000e+00 0.0000e+00 -1.0000e+00
      -13  1    1    2    0    0 +1.5061237713e+02 +1.8940705670e+01 +4.4707720016e+02 4.7214495801e+02 0.0000000000e+00 0.0000e+00 -1.0000e+00
       13  1    1    2    0    0 -1.5061237713e+02 -1.8940705670e+01 +5.4312589554e+02 5.6394022456e+02 0.0000000000e+00 0.0000e+00 1.0000e+00
<mgrwt>
<rscale>  0 0.30491037E+03</rscale>
<asrwt>0</asrwt>
<pdfrwt beam="1">  1        2 0.15586829E+00 0.30491037E+03</pdfrwt>
<pdfrwt beam="2">  1       -2 0.35293921E-02 0.30491037E+03</pdfrwt>
<totfact> 0.90002430E+03</totfact>
</mgrwt>
<rwgt>
<wgt id='morphing_basis_vector_1'> +2.3482442e-04 </wgt>
<wgt id='morphing_basis_vector_2'> +1.4104717e-04 </wgt>
<wgt id='morphing_basis_vector_3'> +1.2888864e-04 </wgt>
<wgt id='morphing_basis_vector_4'> +2.5443631e-05 </wgt>
<wgt id='morphing_basis_vector_5'> +2.0060800e-06 </wgt>
</rwgt>
</event>
<event>
 4      1 +5.5534000e-05 3.07939700e+02 7.81860800e-03 9.97601400e-02
        2 -1    0    0  501    0 +0.0000000000e+00 +0.0000000000e+00 +1.0392780013e+02 1.0392780013e+02 0.0000000000e+00 0.0000e+00 -1.0000e+00
       -2 -1    0    0    0  501 -0.0000000000e+00 -0.0000000000e+00 -2.2810750374e+02 2.2810750374e+02 0.0000000000e+00 0.0000e+00 1.0000e+00
      -13  1    1    2    0    0 +4.8072494658e+01 +1.6559872014e+01 -2.1879424317e+02 2.2462438636e+02 0.0000000000e+00 0.0000e+00 1.0000e+00
       13  1    1    2    0    0 -4.8072494658e+01 -1.6559872014e+01 +9.4614539562e+01 1.0741091751e+02 0.0000000000e+00 0.0000e+00 -1.0000e+00
<mgrwt>
<rscale>  0 0.30793968E+03</rscale>
<asrwt>0</asrwt>
<pdfrwt beam="1">  1        2 0.15988893E-01 0.30793968E+03</pdfrwt>
<pdfrwt beam="2">  1       -2 0.35093462E-01 0.30793968E+03</pdfrwt>
<totfact> 0.33386060E+03</totfact>
</mgrwt>
<rwgt>
<wgt id='morphing_basis_vector_1'> +2.3507923e-04 </wgt>
<wgt id='morphing_basis_vector_2'> +1.3011605e-04 </wgt>
<wgt id='morphing_basis_vector_3'> +1.3865942e-04 </wgt>
<wgt id='morphing_basis_vector_4'> +2.3412208e-05 </wgt>
<wgt id='morphing_basis_vector_5'> +2.3446017e-06 </wgt>
</rwgt>
</event>
<event>
 4      1 +5.5534000e-05 3.25051300e+02 7.81860800e-03 9.90811300e-02
        2 -1    0    0  501    0 +0.0000000000e+00 +0.0000000000e+00 +7.4548206122e+02 7.4548206122e+02 0.0000000000e+00 0.0000e+00 -1.0000e+00
       -2 -1    0    0    0  501 -0.0000000000e+00 -0.0000000000e+00 -3.5432903150e+01 3.5432903150e+01 0.0000000000e+00 0.0000e+00 1.0000e+00
      -13  1    1    2    0    0 -1.5275138096e+02 +5.3015656960e+01 +3.9456997094e+02 4.2641424253e+02 0.0000000000e+00 0.0000e+00 1.0000e+00
       13  1    1    2    0    0 +1.5275138096e+02 -5.3015656960e+01 +3.1547918713e+02 3.5450072184e+02 0.0000000000e+00 0.0000e+00 -1.0000e+00
<mgrwt>
<rscale>  0 0.32505134E+03</rscale>
<asrwt>0</asrwt>
<pdfrwt beam="1">  1        2 0.11468954E+00 0.32505134E+03</pdfrwt>
<pdfrwt beam="2">  1       -2 0.54512164E-02 0.32505134E+03</pdfrwt>
<totfact> 0.70064475E+03</totfact>
</mgrwt>
<rwgt>
<wgt id='morphing_basis_vector_1'> +2.7584377e-04 </wgt>
<wgt id='morphing_basis_vector_2'> +1.7743434e-04 </wgt>
<wgt id='morphing_basis_vector_3'> +1.4243857e-04 </wgt>
<wgt id='morphing_basis_vector_4'> +3.1173619e-05 </wgt>
<wgt id='morphing_basis_vector_5'> +7.3239419e-06 </wgt>
</rwgt>
</event>
<event>
 4      1 +5.5534000e-05 3.02154800e+02 7.81860800e-03 1.00000400e-01
        2 -1    0    0  501    0 +0.0000000000e+00 +0.0000000000e+00 +2.7624050847e+02 2.7624050847e+02 0.0000000000e+00 0.0000e+00 -1.0000e+00
       -2 -1    0    0    0  501 -0.0000000000e+00 -0.0000000000e+00 -8.2625010576e+01 8.2625010576e+01 0.0000000000e+00 0.0000e+00 1.0000e+00
      -13  1    1    2    0    0 +7.2550816705e+00 -1.1726644618e+02 -1.5993327965e+01 1.1857420525e+02 0.0000000000e+00 0.0000e+00 1.0000e+00
       13  1    1    2    0    0 -7.2550816705e+00 +1.1726644618e+02 +2.0960882586e+02 2.4029131380e+02 0.0000000000e+00 0.0000e+00 -1.0000e+00
<mgrwt>
<rscale>  0 0.30215476E+03</rscale>
<asrwt>0</asrwt>
<pdfrwt beam="1">  1        2 0.42498539E-01 0.30215476E+03</pdfrwt>
<pdfrwt beam="2">  1       -2 0.12711540E-01 0.30215476E+03</pdfrwt>
<totfact> 0.58217132E+03</totfact>
</mgrwt>
<rwgt>
<wgt id='morphing_basis_vector_1'> +2.2617065e-04 </wgt>
<wgt id='morphing_basis_vector_2'> +1.2663391e-04 </wgt>
<wgt id='morphing_basis_vector_3'> +1.3239567e-04 </wgt>
<wgt id='morphing_basis_vector_4'> +2.2939453e-05 </wgt>
<wgt id='morphing_basis_vector_5'> +1.4175661e-06 </wgt>
</rwgt>
</event>
<event>
 4      1 +5.5534000e-05 3.32074100e+02 7.81860800e-03 9.88154500e-02
        2 -1    0    0  501    0 +0.0000000000e+00 +0.0000000000e+00 +2.6580795512e+02 2.6580795512e+02 0.0000000000e+00 0.0000e+00 1.0000e+00
       -2 -1    0    0    0  501 -0.0000000000e+00 -0.0000000000e+00 -1.0371508247e+02 1.0371508247e+02 0.0000000000e+00 0.0000e+00 -1.0000e+00
      -13  1    1    2    0    0 +2.4057795707e+01 +1.5392773576e+02 +1.4492938220e+02 2.1278404826e+02 0.0000000000e+00 0.0000e+00 1.0000e+00
       13  1    1    2    0    0 -2.4057795707e+01 -1.5392773576e+02 +1.7163490453e+01 1.5673898933e+02 0.0000000000e+00 0.0000e+00 -1.0000e+00
<mgrwt>
<rscale>  0 0.33207405E+03</rscale>
<asrwt>0</asrwt>
<pdfrwt beam="1">  1        2 0.40893531E-01 0.33207405E+03</pdfrwt>
<pdfrwt beam="2">  1       -2 0.15956167E-01 0.33207405E+03</pdfrwt>
<totfact> 0.42536319E+03</totfact>
</mgrwt>
<rwgt>
<wgt id='morphing_basis_vector_1'> +3.0517459e-04 </wgt>
<wgt id='morphing_basis_vector_2'> +2.3191426e-04 </wgt>
<wgt id='morphing_basis_vector_3'> +1.3011910e-04 </wgt>
<wgt id='morphing_basis_vector_4'> +3.8930631e-05 </wgt>
<wgt id='morphing_basis_vector_5'> +1.0830060e-05 </wgt>
</rwgt>
</event>
<event>
 4      1 +5.5534000e-05 3.45599000e+02 7.81860800e-03 9.83233300e-02
        2 -1    0    0  501    0 +0.0000000000e+00 +0.0000000000e+00 +1.1427920075e+03 1.1427920075e+03 0.0000000000e+00 0.0000e+00 -1.0000e+00
       -2 -1    0    0    0  501 -0.0000000000e+00 -0.0000000000e+00 -2.6128701141e+01 2.6128701141e+01 0.0000000000e+00 0.0000e+00 1.0000e+00
      -13  1    1    2    0    0 +1.1240735361e+02 -1.2078052341e+02 +3.8466683501e+02 4.1855934100e+02 0.0000000000e+00 0.0000e+00 1.0000e+00
       13  1    1    2    0    0 -1.1240735361e+02 +1.2078052341e+02 +7.3199647136e+02 7.5036136765e+02 0.0000000000e+00 0.0000e+00 -1.0000e+00
<mgrwt>
<rscale>  0 0.34559902E+03</rscale>
<asrwt>0</asrwt>
<pdfrwt beam="1">  1        2 0.17581412E+00 0.34559902E+03</pdfrwt>
<pdfrwt beam="2">  1       -2 0.40198011E-02 0.34559902E+03</pdfrwt>
<totfact> 0.62573753E+03</totfact>
</mgrwt>
<rwgt>
<wgt id='morphing_basis_vector_1'> +3.0768061e-04 </wgt>
<wgt id='morphing_basis_vector_2'> +1.7346583e-04 </wgt>
<wgt id='morphing_basis_vector_3'> +1.8090453e-04 </wgt>
<wgt id='morphing_basis_vector_4'> +3.3145771e-05 </wgt>
<wgt id='morphing_basis_vector_5'> +1.5750378e-05 </wgt>
</rwgt>
</event>
<event>
 4      1 +5.5534000e-05 3.21535500e+02 7.81860800e-03 9.92168900e-02
        2 -1    0    0  501    0 +0.0000000000e+00 +0.0000000000e+00 +7.6619790024e+02 7.6619790024e+02 0.0000000000e+00 0.0000e+00 1.0000e+00
       -2 -1    0    0    0  501 -0.0000000000e+00 -0.0000000000e+00 -3.3733144777e+01 3.3733144777e+01 0.0000000000e+00 0.0000e+00 -1.0000e+00
      -13  1    1    2    0    0 -9.8876646090e+01 +1.2383067203e+02 +4.3370938373e+02 4.6175150894e+02 0.0000000000e+00 0.0000e+00 1.0000e+00
       13  1    1    2    0    0 +9.8876646090e+01 -1.2383067203e+02 +2.9875537174e+02 3.3817953607e+02 0.0000000000e+00 0.0000e+00 -1.0000e+00
<mgrwt>
<rscale>  0 0.32153547E+03</rscale>
<asrwt>0</asrwt>
<pdfrwt beam="1">  1        2 0.11787659E+00 0.32153547E+03</pdfrwt>
<pdfrwt beam="2">  1       -2 0.51897152E-02 0.32153547E+03</pdfrwt>
<totfact> 0.72927471E+03</totfact>
</mgrwt>
<rwgt>
<wgt id='morphing_basis_vector_1'> +2.7210023e-04 </wgt>
<wgt id='morphing_basis_vector_2'> +1.8178786e-04 </wgt>
<wgt id='morphing_basis_vector_3'> +1.3453194e-04 </wgt>
<wgt id='morphing_basis_vector_4'> +3.1772851e-05 </wgt>
<wgt id='morphing_basis_vector_5'> +6.3288048e-06 </wgt>
</rwgt>
</event>
<event>
 4      1 +5.5534000e-05 3.03119300e+02 7.81860800e-03 9.99599400e-02
        2 -1    0    0  501    0 +0.0000000000e+00 +0.0000000000e+00 +3.4591802716e+02 3.4591802716e+02 0.0000000000e+00 0.0000e+00 1.0000e+00
       -2 -1    0    0    0  501 -0.0000000000e+00 -0.0000000000e+00 -6.6403981473e+01 6.6403981473e+01 0.0000000000e+00 0.0000e+00 -1.0000e+00
      -13  1    1    2    0    0 +9.5889676717e+01 +2.9493792067e+01 -1.4772800095e+01 1.0140487904e+02 0.0000000000e+00 0.0000e+00 -1.0000e+00
       13  1    1    2    0    0 -9.5889676717e+01 -2.9493792067e+01 +2.9428684578e+02 3.1091712959e+02 0.0000000000e+00 0.0000e+00 1.0000e+00
<mgrwt>
<rscale>  0 0.30311934E+03</rscale>
<asrwt>0</asrwt>
<pdfrwt beam="1">  1        2 0.53218157E-01 0.30311934E+03</pdfrwt>
<pdfrwt beam="2">  1       -2 0.10215997E-01 0.30311934E+03</pdfrwt>
<totfact> 0.63883850E+03</totfact>
</mgrwt>
<rwgt>
<wgt id='morphing_basis_vector_1'> +2.2747302e-04 </wgt>
<wgt id='morphing_basis_vector_2'> +1.2674839e-04 </wgt>
<wgt id='morphing_basis_vector_3'> +1.3364969e-04 </wgt>
<wgt id='morphing_basis_vector_4'> +2.2923051e-05 </wgt>
<wgt id='morphing_basis_vector_5'> +1.5484412e-06 </wgt>
</rwgt>
</event>
<event>
 4      1 +5.5534000e-05 3.47182600e+02 7.81860800e-03 9.82673100e-02
        2 -1    0    0  501    0 +0.0000000000e+00 +0.0000000000e+00 +1.2675885479e+02 1.2675885479e+02 0.0000000000e+00 0.0000e+00 -1.0000e+00
       -2 -1    0    0    0  501 -0.0000000000e+00 -0.0000000000e+00 -2.3772652091e+02 2.3772652091e+02 0.0000000000e+00 0.0000e+00 1.0000e+00
      -13  1    1    2    0    0 +2.6395950817e+01 +1.1507360167e+02 -1.8908680657e+02 2.2291814740e+02 0.0000000000e+00 0.0000e+00 1.0000e+00
       13  1    1    2    0    0 -2.6395950817e+01 -1.1507360167e+02 +7.8119140459e+01 1.4156722829e+02 0.0000000000e+00 0.0000e+00 -1.0000e+00
<mgrwt>
<rscale>  0 0.34718261E+03</rscale>
<asrwt>0</asrwt>
<pdfrwt beam="1">  1        2 0.19501363E-01 0.34718261E+03</pdfrwt>
<pdfrwt beam="2">  1       -2 0.36573310E-01 0.34718261E+03</pdfrwt>
<totfact> 0.24551439E+03</totfact>
</mgrwt>
<rwgt>
<wgt id='morphing_basis_vector_1'> +3.0838810e-04 </wgt>
<wgt id='morphing_basis_vector_2'> +1.6739182e-04 </wgt>
<wgt id='morphing_basis_vector_3'> +1.8644274e-04 </wgt>
<wgt id='morphing_basis_vector_4'> +3.2837374e-05 </wgt>
<wgt id='morphing_basis_vector_5'> +1.6451763e-05 </wgt>
</rwgt>
</event>
<event>
 4      1 +5.5534000e-05 3.38653800e+02 7.81860800e-03 9.85729200e-02
        2 -1    0    0  501    0 +0.0000000000e+00 +0.0000000000e+00 +2.1377260345e+02 2.1377260345e+02 0.0000000000e+00 0.0000e+00 1.0000e+00
       -2 -1    0    0    0  501 -0.0000000000e+00 -0.0000000000e+00 -1.3412199124e+02 1.3412199124e+02 0.0000000000e+00 0.0000e+00 -1.0000e+00
      -13  1    1    2    0    0 -4.8994272959e+01 -7.4287814815e+01 -1.0816278303e+02 1.4006536276e+02 0.0000000000e+00 0.0000e+00 -1.0000e+00
       13  1    1    2    0    0 +4.8994272959e+01 +7.4287814815e+01 +1.8781339524e+02 2.0782923193e+02 0.0000000000e+00 0.0000e+00 1.0000e+00
<mgrwt>
<rscale>  0 0.33865385E+03</rscale>
<asrwt>0</asrwt>
<pdfrwt beam="1">  1        2 0.32888093E-01 0.33865385E+03</pdfrwt>
<pdfrwt beam="2">  1       -2 0.20634153E-01 0.33865385E+03</pdfrwt>
<totfact> 0.35794456E+03</totfact>
</mgrwt>
<rwgt>
<wgt id='morphing_basis_vector_1'> +2.9071859e-04 </wgt>
<wgt id='morphing_basis_vector_2'> +1.5794757e-04 </wgt>
<wgt id='morphing_basis_vector_3'> +1.7476149e-04 </wgt>
<wgt id='morphing_basis_vector_4'> +2.9953369e-05 </wgt>
<wgt id='morphing_basis_vector_5'> +1.2115718e-05 </wgt>
</rwgt>
</event>
<event>
 4      1 +5.5534000e-05 3.32796000e+02 7.81860800e-03 9.87885400e-02
        2 -1    0    0  501    0 +0.0000000000e+00 +0.0000000000e+00 +4.8514638297e+02 4.8514638297e+02 0.0000000000e+00 0.0000e+00 -1.0000e+00
       -2 -1    0    0    0  501 -0.0000000000e+00 -0.0000000000e+00 -5.7072056082e+01 5.7072056082e+01 0.0000000000e+00 0.0000e+00 1.0000e+00
      -13  1    1    2    0    0 -1.0390938801e+02 +1.1784227810e+02 +1.2473324095e+02 2.0060494715e+02 0.0000000000e+00 0.0000e+00 1.0000e+00
       13  1    1    2    0    0 +1.0390938801e+02 -1.1784227810e+02 +3.0334108594e+02 3.4161349190e+02 0.0000000000e+00 0.0000e+00 -1.0000e+00
<mgrwt>
<rscale>  0 0.33279604E+03</rscale>
<asrwt>0</asrwt>
<pdfrwt beam="1">  1        2 0.74637902E-01 0.33279604E+03</pdfrwt>
<pdfrwt beam="2">  1       -2 0.87803167E-02 0.33279604E+03</pdfrwt>
<totfact> 0.55754126E+03</totfact>
</mgrwt>
<rwgt>
<wgt id='morphing_basis_vector_1'> +2.8142068e-04 </wgt>
<wgt id='morphing_basis_vector_2'> +1.5856567e-04 </wgt>
<wgt id='morphing_basis_vector_3'> +1.6421278e-04 </wgt>
<wgt id='morphing_basis_vector_4'> +2.9141524e-05 </wgt>
<wgt id='morphing_basis_vector_5'> +9.7013206e-06 </wgt>
</rwgt>
</event>
</LesHouchesEvents>
