<LesHouchesEvents version="3.0">
<header>
<!--
#*********************************************************************
#                                                                    *
#                        MadGraph5_aMC@NLO                           *
#                                                                    *
#                           Going Beyond                             *
#                                                                    *
#                   http://madgraph.hep.uiuc.edu                     *
#                   http://madgraph.phys.ucl.ac.be                   *
#                   http://amcatnlo.cern.ch                          *
#                                                                    *
#                     The MadGraph5_aMC@NLO team                     *
#                                                                    *
#....................................................................*
#                                                                    *
# This file contains all the information necessary to reproduce      *
# the events generated:                                              *
#                                                                    *
# 1. software version                                                *
# 2. proc_card          : code generation info including model       *
# 3. param_card         : model primary parameters in the LH format  *
# 4. run_card           : running parameters (collider and cuts)     *
# 5. pythia_card        : present only if pythia has been run        *
# 6. pgs_card           : present only if pgs has been run           *
# 7. delphes_cards      : present only if delphes has been run       *
#                                                                    *
#                                                                    *
#*********************************************************************
-->
<MGVersion>
2.6.4
</MGVersion>
<MG5ProcCard>
<![CDATA[
#************************************************************
#*                     MadGraph5_aMC@NLO                    *
#*                                                          *
#*                *                       *                 *
#*                  *        * *        *                   *
#*                    * * * * 5 * * * *                     *
#*                  *        * *        *                   *
#*                *                       *                 *
#*                                                          *
#*                                                          *
#*         VERSION 2.6.4                 2018-11-09         *
#*                                                          *
#*    The MadGraph5_aMC@NLO Development Team - Find us at   *
#*    https://server06.fynu.ucl.ac.be/projects/madgraph     *
#*                                                          *
#************************************************************
#*                                                          *
#*               Command File for MadGraph5_aMC@NLO         *
#*                                                          *
#*     run as ./bin/mg5_aMC  filename                       *
#*                                                          *
#************************************************************
set default_unset_couplings 99
set group_subprocesses Auto
set ignore_six_quark_processes False
set loop_optimized_output True
set loop_color_flows False
set gauge unitary
set complex_mass_scheme False
set max_npoint_for_channel 0
import model SM4fLL_UFO
define p = g u c d s u~ c~ d~ s~
define j = g u c d s u~ c~ d~ s~
define l+ = e+ mu+
define l- = e- mu-
define vl = ve vm vt
define vl~ = ve~ vm~ vt~
generate u u~ > mu+ mu- NP=2 QED=99 QCD=0
output /Users/dpappadopulo/Projects/~Physics/madminer/examples/example\
4_systematics_DY/data/mg_processes/DY_sys/
]]>
</MG5ProcCard>
<MGProcCard>
#*********************************************************************
#                        MadGraph/MadEvent                           *
#                   http://madgraph.hep.uiuc.edu                     *
#                                                                    *
#                          proc_card.dat                             *
#*********************************************************************
#                                                                    *
#            This Files is generated by MADGRAPH 5                   *
#                                                                    *
# WARNING: This Files is generated for MADEVENT (compatibility issue)*
#          This files is NOT a valid MG4 proc_card.dat               *
#          Running this in MG4 will NEVER reproduce the result of MG5*
#                                                                    *
#*********************************************************************
#*********************************************************************
# Process(es) requested : mg2 input                                  *
#*********************************************************************
# Begin PROCESS # This is TAG. Do not modify this line
u u~ > mu+ mu-           #Process
# Be carefull the coupling are here in MG5 convention
NP=2
QED=99
QCD=0
          
end_coup           # End the couplings input

done               # this tells MG there are no more procs
# End PROCESS  # This is TAG. Do not modify this line
#*********************************************************************
# Model information                                                  *
#*********************************************************************
# Begin MODEL  # This is TAG. Do not modify this line
SM4fLL_UFO
# End   MODEL  # This is TAG. Do not modify this line
#*********************************************************************
# Start multiparticle definitions                                    *
#*********************************************************************
# Begin MULTIPARTICLES # This is TAG. Do not modify this line

# End  MULTIPARTICLES # This is TAG. Do not modify this line
</MGProcCard>
<MGRunCard>
<![CDATA[
#*********************************************************************
#                       MadGraph5_aMC@NLO                            *
#                                                                    *
#                     run_card.dat MadEvent                          *
#                                                                    *
#  This file is used to set the parameters of the run.               *
#                                                                    *
#  Some notation/conventions:                                        *
#                                                                    *
#   Lines starting with a '# ' are info or comments                  *
#                                                                    *
#   mind the format:   value    = variable     ! comment             *
#*********************************************************************
#
#*******************                                                 
# Running parameters
#*******************                                                 
#                                                                    
#*********************************************************************
# Tag name for the run (one word)                                    *
#*********************************************************************
  tag_1     = run_tag ! name of the run 
#*********************************************************************
# Run to generate the grid pack                                      *
#*********************************************************************
  False     = gridpack  !True = setting up the grid pack
#*********************************************************************
# Number of events and rnd seed                                      *
# Warning: Do not generate more than 1M events in a single run       *
# If you want to run Pythia, avoid more than 50k events in a run.    *
#*********************************************************************
  1000 = nevents ! Number of unweighted events requested
 138 = iseed   ! rnd seed (0=assigned automatically=default))
#*********************************************************************
# Collider type and energy                                           *
# lpp: 0=No PDF, 1=proton, -1=antiproton, 2=photon from proton,      *
#                                         3=photon from electron     *
#*********************************************************************
     1        = lpp1    ! beam 1 type 
     1        = lpp2    ! beam 2 type
     6500.0     = ebeam1  ! beam 1 total energy in GeV
     6500.0     = ebeam2  ! beam 2 total energy in GeV
#*********************************************************************
# Beam polarization from -100 (left-handed) to 100 (right-handed)    *
#*********************************************************************
     0.0     = polbeam1 ! beam polarization for beam 1
     0.0     = polbeam2 ! beam polarization for beam 2
#*********************************************************************
# PDF CHOICE: this automatically fixes also alpha_s and its evol.    *
#*********************************************************************
     lhapdf    = pdlabel     ! PDF set
     90900   = lhaid     ! if pdlabel=lhapdf, this is the lhapdf number
#*********************************************************************
# Renormalization and factorization scales                           *
#*********************************************************************
 False = fixed_ren_scale  ! if .true. use fixed ren scale
 False        = fixed_fac_scale  ! if .true. use fixed fac scale
 91.188  = scale            ! fixed ren scale
 91.188  = dsqrt_q2fact1    ! fixed fact scale for pdf1
 91.188  = dsqrt_q2fact2    ! fixed fact scale for pdf2
 -1 = dynamical_scale_choice ! Choose one of the preselected dynamical choices
 1.0  = scalefact        ! scale factor for event-by-event scales
#*********************************************************************
# Type and output format
#*********************************************************************
  False     = gridpack  !True = setting up the grid pack
  -1.0 = time_of_flight ! threshold (in mm) below which the invariant livetime is not written (-1 means not written)
  3.0 = lhe_version       ! Change the way clustering information pass to shower.        
  True = clusinfo         ! include clustering tag in output
  sum =  event_norm       ! average/sum. Normalization of the weight in the LHEF
#*********************************************************************
# Matching - Warning! ickkw > 1 is still beta
#*********************************************************************
 0 = ickkw            ! 0 no matching, 1 MLM, 2 CKKW matching
 1 = highestmult      ! for ickkw=2, highest mult group
 1 = ktscheme         ! for ickkw=1, 1 Durham kT, 2 Pythia pTE
 1.0 = alpsfact         ! scale factor for QCD emission vx
 False = chcluster        ! cluster only according to channel diag
 True = pdfwgt           ! for ickkw=1, perform pdf reweighting
 4 = asrwgtflavor     ! highest quark flavor for a_s reweight    
#*********************************************************************
#**********************************************************
#
#**********************************************************
# Automatic ptj and mjj cuts if xqcut > 0
# (turn off for VBF and single top processes)
#**********************************************************
   False  = auto_ptj_mjj  ! Automatic setting of ptj and mjj
#**********************************************************
#                                                                    
#**********************************
# BW cutoff (M+/-bwcutoff*Gamma)
#**********************************
  15.0  = bwcutoff      ! (M+/-bwcutoff*Gamma)
#**********************************************************
# Apply pt/E/eta/dr/mij/kt_durham cuts on decay products or not
# (note that etmiss/ptll/ptheavy/ht/sorted cuts always apply)
#*************************************************************
   False  = cut_decays    ! Cut decay products 
#*************************************************************
# Number of helicities to sum per event (0 = all helicities)
# 0 gives more stable result, but longer run time (needed for
# long decay chains e.g.).
# Use >=2 if most helicities contribute, e.g. pure QCD.
#*************************************************************
   0  = nhel          ! Number of helicities used per event
#*******************                                                 
# Standard Cuts
#*******************                                                 
#                                                                    
#*********************************************************************
# Minimum and maximum pt's (for max, -1 means no cut)                *
#*********************************************************************
 15.0  = ptj       ! minimum pt for the jets
 0.0  = ptb       ! minimum pt for the b 
 0.0 = pta       ! minimum pt for the photons
 25.0  = ptl       ! minimum pt for the charged leptons
 0.0  = misset    ! minimum missing Et (sum of neutrino's momenta)
 0.0  = ptheavy   ! minimum pt for one heavy final state
 -1.0  = ptjmax    ! maximum pt for the jets
 -1.0  = ptbmax    ! maximum pt for the b
 -1.0 = ptamax       ! maximum pt for the photons
 -1.0  = ptlmax    ! maximum pt for the charged leptons
 -1.0  = missetmax ! maximum missing Et (sum of neutrino's momenta)
#*********************************************************************
# Minimum and maximum E's (in the center of mass frame)              *
#*********************************************************************
  0.0  = ej     ! minimum E for the jets 
  0.0  = eb     ! minimum E for the b 
  0.0  = ea     ! minimum E for the photons 
  0.0  = el     ! minimum E for the charged leptons 
  -1.0   = ejmax ! maximum E for the jets
 -1.0   = ebmax ! maximum E for the b
 -1.0   = eamax ! maximum E for the photons
 -1.0   = elmax ! maximum E for the charged leptons
#*********************************************************************
# Maximum and minimum absolute rapidity (for max, -1 means no cut)   *
#*********************************************************************
 2.5 = etaj    ! max rap for the jets
  -1.0  = etab    ! max rap for the b
 3.0  = etaa    ! max rap for the photons
 2.5  = etal    ! max rap for the charged leptons
 0.0  = etajmin ! min rap for the jets
 0.0  = etabmin ! min rap for the b
 0.0  = etaamin ! min rap for the photons
 0.0  = etalmin ! main rap for the charged leptons
#*********************************************************************
# Minimum and maximum DeltaR distance                                *
#*********************************************************************
 0.0 = drjj    ! min distance between jets
 0.0 = drbb    ! min distance between b's
 0.0 = drll    ! min distance between leptons
 0.0 = draa    ! min distance between gammas
 0.0 = drbj    ! min distance between b and jet
 0.0 = draj    ! min distance between gamma and jet
 0.0 = drjl    ! min distance between jet and lepton
 0.0 = drab    ! min distance between gamma and b
 0.0 = drbl    ! min distance between b and lepton
 0.0 = dral    ! min distance between gamma and lepton
 -1.0  = drjjmax ! max distance between jets
 -1.0  = drbbmax ! max distance between b's
 -1.0  = drllmax ! max distance between leptons
 -1.0  = draamax ! max distance between gammas
 -1.0  = drbjmax ! max distance between b and jet
 -1.0  = drajmax ! max distance between gamma and jet
 -1.0  = drjlmax ! max distance between jet and lepton
 -1.0  = drabmax ! max distance between gamma and b
 -1.0  = drblmax ! max distance between b and lepton
 -1.0  = dralmax ! maxdistance between gamma and lepton
#*********************************************************************
# Minimum and maximum invariant mass for pairs                       *
# WARNING: for four lepton final state mmll cut require to have      *
#          different lepton masses for each flavor!                  *           
#*********************************************************************
 0.0   = mmjj    ! min invariant mass of a jet pair 
 0.0   = mmbb    ! min invariant mass of a b pair 
 0.0   = mmaa    ! min invariant mass of gamma gamma pair
 3210   = mmll    ! min invariant mass of l+l- (same flavour) lepton pair
 -1.0  = mmjjmax ! max invariant mass of a jet pair
 -1.0  = mmbbmax ! max invariant mass of a b pair
 -1.0  = mmaamax ! max invariant mass of gamma gamma pair
 3850  = mmllmax ! max invariant mass of l+l- (same flavour) lepton pair
#*********************************************************************
# Minimum and maximum invariant mass for all letpons                 *
#*********************************************************************
 0.0   = mmnl    ! min invariant mass for all letpons (l+- and vl) 
 -1.0  = mmnlmax ! max invariant mass for all letpons (l+- and vl) 
#*********************************************************************
# Minimum and maximum pt for 4-momenta sum of leptons                *
#*********************************************************************
 0.0   = ptllmin  ! Minimum pt for 4-momenta sum of leptons(l and vl)
 -1.0  = ptllmax  ! Maximum pt for 4-momenta sum of leptons(l and vl)
#*********************************************************************
# Inclusive cuts                                                     *
#*********************************************************************
 0.0  = xptj ! minimum pt for at least one jet  
 0.0  = xptb ! minimum pt for at least one b 
 0.0  = xpta ! minimum pt for at least one photon 
 0.0  = xptl ! minimum pt for at least one charged lepton 
#*********************************************************************
# Control the pt's of the jets sorted by pt                          *
#*********************************************************************
 0.0   = ptj1min ! minimum pt for the leading jet in pt
 0.0   = ptj2min ! minimum pt for the second jet in pt
 0.0   = ptj3min ! minimum pt for the third jet in pt
 0.0   = ptj4min ! minimum pt for the fourth jet in pt
 -1.0  = ptj1max ! maximum pt for the leading jet in pt 
 -1.0  = ptj2max ! maximum pt for the second jet in pt
 -1.0  = ptj3max ! maximum pt for the third jet in pt
 -1.0  = ptj4max ! maximum pt for the fourth jet in pt
 0   = cutuse  ! reject event if fails any (0) / all (1) jet pt cuts
#*********************************************************************
# Control the pt's of leptons sorted by pt                           *
#*********************************************************************
 0.0   = ptl1min ! minimum pt for the leading lepton in pt
 0.0   = ptl2min ! minimum pt for the second lepton in pt
 0.0   = ptl3min ! minimum pt for the third lepton in pt
 0.0   = ptl4min ! minimum pt for the fourth lepton in pt
 -1.0  = ptl1max ! maximum pt for the leading lepton in pt 
 -1.0  = ptl2max ! maximum pt for the second lepton in pt
 -1.0  = ptl3max ! maximum pt for the third lepton in pt
 -1.0  = ptl4max ! maximum pt for the fourth lepton in pt
#*********************************************************************
# Control the Ht(k)=Sum of k leading jets                            *
#*********************************************************************
 0.0   = htjmin ! minimum jet HT=Sum(jet pt)
 -1.0  = htjmax ! maximum jet HT=Sum(jet pt)
 0.0   = ihtmin  !inclusive Ht for all partons (including b)
 -1.0  = ihtmax  !inclusive Ht for all partons (including b)
 0.0   = ht2min ! minimum Ht for the two leading jets
 0.0   = ht3min ! minimum Ht for the three leading jets
 0.0   = ht4min ! minimum Ht for the four leading jets
 -1.0  = ht2max ! maximum Ht for the two leading jets
 -1.0  = ht3max ! maximum Ht for the three leading jets
 -1.0  = ht4max ! maximum Ht for the four leading jets
#***********************************************************************
# Photon-isolation cuts, according to hep-ph/9801442                   *
# When ptgmin=0, all the other parameters are ignored                  *
# When ptgmin>0, pta and draj are not going to be used                 *
#***********************************************************************
 0.0 = ptgmin ! Min photon transverse momentum
 0.4 = R0gamma ! Radius of isolation code
 1.0 = xn ! n parameter of eq.(3.4) in hep-ph/9801442
 1.0 = epsgamma ! epsilon_gamma parameter of eq.(3.4) in hep-ph/9801442
 True = isoEM ! isolate photons from EM energy (photons and leptons)
#*********************************************************************
# WBF cuts                                                           *
#*********************************************************************
 0.0   = xetamin ! minimum rapidity for two jets in the WBF case  
 0.0   = deltaeta ! minimum rapidity for two jets in the WBF case 
#*********************************************************************
# KT DURHAM CUT                                                      *
#*********************************************************************
 -1.0    =  ktdurham        
 0.4  =  dparameter 
#*********************************************************************
# maximal pdg code for quark to be considered as a light jet         *
# (otherwise b cuts are applied)                                     *
#*********************************************************************
 4 = maxjetflavor    ! Maximum jet pdg code
#*********************************************************************
# Jet measure cuts                                                   *
#*********************************************************************
 0.0   = xqcut   ! minimum kt jet measure between partons
#*********************************************************************
#
#*********************************************************************
# Store info for systematics studies                                 *
# WARNING: If use_syst is T, matched Pythia output is                *
#          meaningful ONLY if plotted taking matchscale              *
#          reweighting into account!                                 *
#*********************************************************************
#    False  = use_syst      ! Enable systematics studies # Commented out by MadMiner
#
#**************************************
# Parameter of the systematics study
#  will be used by SysCalc (if installed)
#**************************************                                  
#
0.5 1 2 = sys_scalefact  # factorization/renormalization scale factor
None = sys_alpsfact  # \alpha_s emission scale factors
30 50 = sys_matchscale # variation of merging scale
# PDF sets and number of members (0 or none for all members).
NNPDF23_lo_as_0130_qed = sys_pdf # matching scales
# MSTW2008nlo68cl.LHgrid 1  = sys_pdf


#*********************************************************************
# MadMiner systematics setup                                         *
#*********************************************************************
True = use_syst
systematics = systematics_program
['--pdf=90900'] = systematics_arguments
]]>
</MGRunCard>
<slha>
######################################################################
## PARAM_CARD AUTOMATICALY GENERATED BY MG5 FOLLOWING UFO MODEL   ####
######################################################################
##                                                                  ##
##  Width set on Auto will be computed following the information    ##
##        present in the decay.py files of the model.               ##
##        See  arXiv:1402.1178 for more details.                    ##
##                                                                  ##
######################################################################

###################################
## INFORMATION FOR CKMBLOCK
###################################
Block ckmblock 
    1 2.277360e-01 # cabi 

###################################
## INFORMATION FOR MASS
###################################
Block mass 
    5 4.700000e+00 # MB 
    6 1.720000e+02 # MT 
   15 1.777000e+00 # MTA 
   23 9.118760e+01 # MZ 
   25 1.250000e+02 # MH 
## Dependent parameters, given by model restrictions.
## Those values should be edited following the 
## analytical expression. MG5 ignores those values 
## but they are important for interfacing the output of MG5
## to external program such as Pythia.
  1 0.000000 # d : 0.0 
  2 0.000000 # u : 0.0 
  3 0.000000 # s : 0.0 
  4 0.000000 # c : 0.0 
  11 0.000000 # e- : 0.0 
  12 0.000000 # ve : 0.0 
  13 0.000000 # mu- : 0.0 
  14 0.000000 # vm : 0.0 
  16 0.000000 # vt : 0.0 
  21 0.000000 # g : 0.0 
  22 0.000000 # a : 0.0 
  24 79.824360 # w+ : cmath.sqrt(MZ__exp__2/2. + cmath.sqrt(MZ__exp__4/4. - (aEW*cmath.pi*MZ__exp__2)/(Gf*sqrt__2))) 

###################################
## INFORMATION FOR OBLIQUE
###################################
Block oblique 
    1    0.0    # MadMiner
    2    0.0    # MadMiner

###################################
## INFORMATION FOR SMINPUTS
###################################
Block sminputs 
    1 1.279000e+02 # aEWM1 
    2 1.166370e-05 # Gf 
    3 1.184000e-01 # aS 

###################################
## INFORMATION FOR YUKAWA
###################################
Block yukawa 
    5 4.700000e+00 # ymb 
    6 1.720000e+02 # ymt 
   15 1.777000e+00 # ymtau 

###################################
## INFORMATION FOR DECAY
###################################
DECAY   6 1.508336e+00 # WT 
DECAY  23 2.495200e+00 # WZ 
DECAY  24 2.085000e+00 # WW 
DECAY  25 4.070000e-03 # WH 
## Dependent parameters, given by model restrictions.
## Those values should be edited following the 
## analytical expression. MG5 ignores those values 
## but they are important for interfacing the output of MG5
## to external program such as Pythia.
DECAY  1 0.000000 # d : 0.0 
DECAY  2 0.000000 # u : 0.0 
DECAY  3 0.000000 # s : 0.0 
DECAY  4 0.000000 # c : 0.0 
DECAY  5 0.000000 # b : 0.0 
DECAY  11 0.000000 # e- : 0.0 
DECAY  12 0.000000 # ve : 0.0 
DECAY  13 0.000000 # mu- : 0.0 
DECAY  14 0.000000 # vm : 0.0 
DECAY  15 0.000000 # ta- : 0.0 
DECAY  16 0.000000 # vt : 0.0 
DECAY  21 0.000000 # g : 0.0 
DECAY  22 0.000000 # a : 0.0
</slha>
<initrwgt>
<weightgroup name='mg_reweighting' weight_name_strategy='includeIdInWeightName'>
<weight id='morphing_basis_vector_1'>set param_card oblique 1 -0.06391685 # orig: 0.0
set param_card oblique 2 -0.08653588 # orig: 0.0
</weight>
<weight id='morphing_basis_vector_2'>set param_card oblique 1 0.0342439 # orig: 0.0
set param_card oblique 2 -0.09831893 # orig: 0.0
</weight>
<weight id='morphing_basis_vector_3'>set param_card oblique 1 -0.08145691 # orig: 0.0
set param_card oblique 2 0.09700122 # orig: 0.0
</weight>
<weight id='morphing_basis_vector_4'>set param_card oblique 1 0.09132942 # orig: 0.0
set param_card oblique 2 -0.005442744 # orig: 0.0
</weight>
<weight id='morphing_basis_vector_5'>set param_card oblique 1 0.08535809 # orig: 0.0
set param_card oblique 2 0.08156918 # orig: 0.0
</weight>
</weightgroup>
</initrwgt>
<MGGenerationInfo>
#  Number of Events        :       1000
#  Integrated weight (pb)  :       1.98825e-06
</MGGenerationInfo>
</header>
<init>
2212 2212 6.500000e+03 6.500000e+03 0 0 90900 90900 -3 1
1.988250e-06 7.217966e-09 1.988250e-09 1
<generator name='MadGraph5_aMC@NLO' version='2.6.4'>please cite 1405.0301 </generator>
</init>
<event>
 4      1 +1.9882500e-09 3.29938400e+03 7.81860800e-03 7.68090900e-02
        2 -1    0    0  501    0 +0.0000000000e+00 +0.0000000000e+00 +3.3049034198e+03 3.3049034198e+03 0.0000000000e+00 0.0000e+00 -1.0000e+00
       -2 -1    0    0    0  501 -0.0000000000e+00 -0.0000000000e+00 -8.2346821068e+02 8.2346821068e+02 0.0000000000e+00 0.0000e+00 1.0000e+00
      -13  1    1    2    0    0 +1.1839335471e+03 -3.2809534590e+02 -1.3687868509e+02 1.2361557242e+03 0.0000000000e+00 0.0000e+00 1.0000e+00
       13  1    1    2    0    0 -1.1839335471e+03 +3.2809534590e+02 +2.6183138942e+03 2.8922159063e+03 0.0000000000e+00 0.0000e+00 -1.0000e+00
<mgrwt>
<rscale>  0 0.32993835E+04</rscale>
<asrwt>0</asrwt>
<pdfrwt beam="1">  1        2 0.50844667E+00 0.32993835E+04</pdfrwt>
<pdfrwt beam="2">  1       -2 0.12668742E+00 0.32993835E+04</pdfrwt>
<totfact> 0.50316256E-01</totfact>
</mgrwt>
<rwgt>
<wgt id='morphing_basis_vector_1'> +3.2226125e-05 </wgt>
<wgt id='morphing_basis_vector_2'> +2.1888612e-05 </wgt>
<wgt id='morphing_basis_vector_3'> +3.5242812e-05 </wgt>
<wgt id='morphing_basis_vector_4'> +2.5093502e-05 </wgt>
<wgt id='morphing_basis_vector_5'> +4.0164304e-05 </wgt>
</rwgt>
</event>
<event>
 4      1 +1.9882500e-09 3.32420100e+03 7.81860800e-03 7.67535200e-02
        2 -1    0    0  501    0 +0.0000000000e+00 +0.0000000000e+00 +2.3560157145e+03 2.3560157145e+03 0.0000000000e+00 0.0000e+00 1.0000e+00
       -2 -1    0    0    0  501 -0.0000000000e+00 -0.0000000000e+00 -1.1725633514e+03 1.1725633514e+03 0.0000000000e+00 0.0000e+00 -1.0000e+00
      -13  1    1    2    0    0 +1.2887295399e+03 -1.0488685640e+03 +6.3456313412e+02 1.7786566456e+03 0.0000000000e+00 0.0000e+00 -1.0000e+00
       13  1    1    2    0    0 -1.2887295399e+03 +1.0488685640e+03 +5.4888922900e+02 1.7499224204e+03 0.0000000000e+00 0.0000e+00 1.0000e+00
<mgrwt>
<rscale>  0 0.33242008E+04</rscale>
<asrwt>0</asrwt>
<pdfrwt beam="1">  1        2 0.36246396E+00 0.33242008E+04</pdfrwt>
<pdfrwt beam="2">  1       -2 0.18039436E+00 0.33242008E+04</pdfrwt>
<totfact> 0.72550211E-01</totfact>
</mgrwt>
<rwgt>
<wgt id='morphing_basis_vector_1'> +3.4474626e-05 </wgt>
<wgt id='morphing_basis_vector_2'> +2.6305545e-05 </wgt>
<wgt id='morphing_basis_vector_3'> +3.8331977e-05 </wgt>
<wgt id='morphing_basis_vector_4'> +2.3189334e-05 </wgt>
<wgt id='morphing_basis_vector_5'> +4.1174459e-05 </wgt>
</rwgt>
</event>
<event>
 4      1 +1.9882500e-09 3.21632000e+03 7.81860800e-03 7.69988100e-02
        2 -1    0    0  501    0 +0.0000000000e+00 +0.0000000000e+00 +1.9242234495e+03 1.9242234495e+03 0.0000000000e+00 0.0000e+00 -1.0000e+00
       -2 -1    0    0    0  501 -0.0000000000e+00 -0.0000000000e+00 -1.3440116326e+03 1.3440116326e+03 0.0000000000e+00 0.0000e+00 1.0000e+00
      -13  1    1    2    0    0 -5.3522633229e+02 +1.0214156319e+03 -8.4888883602e+02 1.4319110921e+03 0.0000000000e+00 0.0000e+00 1.0000e+00
       13  1    1    2    0    0 +5.3522633229e+02 -1.0214156319e+03 +1.4291006529e+03 1.8363239899e+03 0.0000000000e+00 0.0000e+00 -1.0000e+00
<mgrwt>
<rscale>  0 0.32163201E+04</rscale>
<asrwt>0</asrwt>
<pdfrwt beam="1">  1        2 0.29603437E+00 0.32163201E+04</pdfrwt>
<pdfrwt beam="2">  1       -2 0.20677102E+00 0.32163201E+04</pdfrwt>
<totfact> 0.82406434E-01</totfact>
</mgrwt>
<rwgt>
<wgt id='morphing_basis_vector_1'> +2.9114974e-05 </wgt>
<wgt id='morphing_basis_vector_2'> +1.9745112e-05 </wgt>
<wgt id='morphing_basis_vector_3'> +3.1812553e-05 </wgt>
<wgt id='morphing_basis_vector_4'> +2.2662981e-05 </wgt>
<wgt id='morphing_basis_vector_5'> +3.6243747e-05 </wgt>
</rwgt>
</event>
<event>
 4      1 +1.9882500e-09 3.40594900e+03 7.81860800e-03 7.65739500e-02
        2 -1    0    0  501    0 +0.0000000000e+00 +0.0000000000e+00 +2.5342285305e+03 2.5342285305e+03 0.0000000000e+00 0.0000e+00 1.0000e+00
       -2 -1    0    0    0  501 -0.0000000000e+00 -0.0000000000e+00 -1.1443804617e+03 1.1443804617e+03 0.0000000000e+00 0.0000e+00 -1.0000e+00
      -13  1    1    2    0    0 -8.3456145431e+02 -5.8320355036e+02 -7.7945961876e+02 1.2822544597e+03 0.0000000000e+00 0.0000e+00 -1.0000e+00
       13  1    1    2    0    0 +8.3456145431e+02 +5.8320355036e+02 +2.1693076876e+03 2.3963545325e+03 0.0000000000e+00 0.0000e+00 1.0000e+00
<mgrwt>
<rscale>  0 0.34059487E+04</rscale>
<asrwt>0</asrwt>
<pdfrwt beam="1">  1        2 0.38988131E+00 0.34059487E+04</pdfrwt>
<pdfrwt beam="2">  1       -2 0.17605853E+00 0.34059487E+04</pdfrwt>
<totfact> 0.60980789E-01</totfact>
</mgrwt>
<rwgt>
<wgt id='morphing_basis_vector_1'> +3.6520797e-05 </wgt>
<wgt id='morphing_basis_vector_2'> +2.4726630e-05 </wgt>
<wgt id='morphing_basis_vector_3'> +3.9953967e-05 </wgt>
<wgt id='morphing_basis_vector_4'> +2.8606911e-05 </wgt>
<wgt id='morphing_basis_vector_5'> +4.5658348e-05 </wgt>
</rwgt>
</event>
<event>
 4      1 +1.9882500e-09 3.56584400e+03 7.81860800e-03 7.62372400e-02
        2 -1    0    0  501    0 +0.0000000000e+00 +0.0000000000e+00 +1.7466963676e+03 1.7466963676e+03 0.0000000000e+00 0.0000e+00 -1.0000e+00
       -2 -1    0    0    0  501 -0.0000000000e+00 -0.0000000000e+00 -1.8198987232e+03 1.8198987232e+03 0.0000000000e+00 0.0000e+00 1.0000e+00
      -13  1    1    2    0    0 +6.9152438098e+02 +1.8647679923e+02 -1.6696824325e+03 1.8168156185e+03 0.0000000000e+00 0.0000e+00 1.0000e+00
       13  1    1    2    0    0 -6.9152438098e+02 -1.8647679923e+02 +1.5964800769e+03 1.7497794724e+03 0.0000000000e+00 0.0000e+00 -1.0000e+00
<mgrwt>
<rscale>  0 0.35658438E+04</rscale>
<asrwt>0</asrwt>
<pdfrwt beam="1">  1        2 0.26872252E+00 0.35658438E+04</pdfrwt>
<pdfrwt beam="2">  1       -2 0.27998442E+00 0.35658438E+04</pdfrwt>
<totfact> 0.31057150E-01</totfact>
</mgrwt>
<rwgt>
<wgt id='morphing_basis_vector_1'> +4.3804555e-05 </wgt>
<wgt id='morphing_basis_vector_2'> +2.9638988e-05 </wgt>
<wgt id='morphing_basis_vector_3'> +4.7968660e-05 </wgt>
<wgt id='morphing_basis_vector_4'> +3.4447674e-05 </wgt>
<wgt id='morphing_basis_vector_5'> +5.4924273e-05 </wgt>
</rwgt>
</event>
<event>
 4      1 +1.9882500e-09 3.37914100e+03 7.81860800e-03 7.66322600e-02
        2 -1    0    0  501    0 +0.0000000000e+00 +0.0000000000e+00 +4.1807940675e+03 4.1807940675e+03 0.0000000000e+00 0.0000e+00 -1.0000e+00
       -2 -1    0    0    0  501 -0.0000000000e+00 -0.0000000000e+00 -6.8280040212e+02 6.8280040212e+02 0.0000000000e+00 0.0000e+00 1.0000e+00
      -13  1    1    2    0    0 -1.0313640615e+03 -7.3786067144e+02 +1.4206733081e+02 1.2760616460e+03 0.0000000000e+00 0.0000e+00 1.0000e+00
       13  1    1    2    0    0 +1.0313640615e+03 +7.3786067144e+02 +3.3559263346e+03 3.5875328237e+03 0.0000000000e+00 0.0000e+00 -1.0000e+00
<mgrwt>
<rscale>  0 0.33791406E+04</rscale>
<asrwt>0</asrwt>
<pdfrwt beam="1">  1        2 0.64319907E+00 0.33791406E+04</pdfrwt>
<pdfrwt beam="2">  1       -2 0.10504622E+00 0.33791406E+04</pdfrwt>
<totfact> 0.16411153E-01</totfact>
</mgrwt>
<rwgt>
<wgt id='morphing_basis_vector_1'> +3.5434890e-05 </wgt>
<wgt id='morphing_basis_vector_2'> +2.4084336e-05 </wgt>
<wgt id='morphing_basis_vector_3'> +3.8778684e-05 </wgt>
<wgt id='morphing_basis_vector_4'> +2.7621875e-05 </wgt>
<wgt id='morphing_basis_vector_5'> +4.4220698e-05 </wgt>
</rwgt>
</event>
<event>
 4      1 +1.9882500e-09 3.25083600e+03 7.81860800e-03 7.69192600e-02
        2 -1    0    0  501    0 +0.0000000000e+00 +0.0000000000e+00 +3.6853000599e+03 3.6853000599e+03 0.0000000000e+00 0.0000e+00 -1.0000e+00
       -2 -1    0    0    0  501 -0.0000000000e+00 -0.0000000000e+00 -7.1689802980e+02 7.1689802980e+02 0.0000000000e+00 0.0000e+00 1.0000e+00
      -13  1    1    2    0    0 +8.3292437309e+02 -1.9973344955e+02 -3.8648527576e+02 9.3969533921e+02 0.0000000000e+00 0.0000e+00 1.0000e+00
       13  1    1    2    0    0 -8.3292437309e+02 +1.9973344955e+02 +3.3548873059e+03 3.4625027505e+03 0.0000000000e+00 0.0000e+00 -1.0000e+00
<mgrwt>
<rscale>  0 0.32508364E+04</rscale>
<asrwt>0</asrwt>
<pdfrwt beam="1">  1        2 0.56696923E+00 0.32508364E+04</pdfrwt>
<pdfrwt beam="2">  1       -2 0.11029201E+00 0.32508364E+04</pdfrwt>
<totfact> 0.38055030E-01</totfact>
</mgrwt>
<rwgt>
<wgt id='morphing_basis_vector_1'> +3.0343731e-05 </wgt>
<wgt id='morphing_basis_vector_2'> +2.0511942e-05 </wgt>
<wgt id='morphing_basis_vector_3'> +3.3150357e-05 </wgt>
<wgt id='morphing_basis_vector_4'> +2.3724321e-05 </wgt>
<wgt id='morphing_basis_vector_5'> +3.7842474e-05 </wgt>
</rwgt>
</event>
<event>
 4      1 +1.9882500e-09 3.46474700e+03 7.81860800e-03 7.64479600e-02
        2 -1    0    0  501    0 +0.0000000000e+00 +0.0000000000e+00 +2.8433981818e+03 2.8433981818e+03 0.0000000000e+00 0.0000e+00 1.0000e+00
       -2 -1    0    0    0  501 -0.0000000000e+00 -0.0000000000e+00 -1.0554688052e+03 1.0554688052e+03 0.0000000000e+00 0.0000e+00 -1.0000e+00
      -13  1    1    2    0    0 -1.3264710490e+03 -6.9537202698e+02 -8.5786766891e+01 1.5001423496e+03 0.0000000000e+00 0.0000e+00 -1.0000e+00
       13  1    1    2    0    0 +1.3264710490e+03 +6.9537202698e+02 +1.8737161435e+03 2.3987246374e+03 0.0000000000e+00 0.0000e+00 1.0000e+00
<mgrwt>
<rscale>  0 0.34647471E+04</rscale>
<asrwt>0</asrwt>
<pdfrwt beam="1">  1        2 0.43744587E+00 0.34647471E+04</pdfrwt>
<pdfrwt beam="2">  1       -2 0.16237982E+00 0.34647471E+04</pdfrwt>
<totfact> 0.50053237E-01</totfact>
</mgrwt>
<rwgt>
<wgt id='morphing_basis_vector_1'> +3.9243500e-05 </wgt>
<wgt id='morphing_basis_vector_2'> +2.6924822e-05 </wgt>
<wgt id='morphing_basis_vector_3'> +4.3027206e-05 </wgt>
<wgt id='morphing_basis_vector_4'> +3.0325748e-05 </wgt>
<wgt id='morphing_basis_vector_5'> +4.8889710e-05 </wgt>
</rwgt>
</event>
<event>
 4      1 +1.9882500e-09 3.29393900e+03 7.81860800e-03 7.68213400e-02
        2 -1    0    0  501    0 +0.0000000000e+00 +0.0000000000e+00 +3.3398885137e+03 3.3398885137e+03 0.0000000000e+00 0.0000e+00 -1.0000e+00
       -2 -1    0    0    0  501 -0.0000000000e+00 -0.0000000000e+00 -8.1215563622e+02 8.1215563622e+02 0.0000000000e+00 0.0000e+00 1.0000e+00
      -13  1    1    2    0    0 +1.3136891855e+03 +7.7079108822e+02 +2.0536855522e+03 2.5568579399e+03 0.0000000000e+00 0.0000e+00 1.0000e+00
       13  1    1    2    0    0 -1.3136891855e+03 -7.7079108822e+02 +4.7404732530e+02 1.5951862100e+03 0.0000000000e+00 0.0000e+00 -1.0000e+00
<mgrwt>
<rscale>  0 0.32939395E+04</rscale>
<asrwt>0</asrwt>
<pdfrwt beam="1">  1        2 0.51382900E+00 0.32939395E+04</pdfrwt>
<pdfrwt beam="2">  1       -2 0.12494702E+00 0.32939395E+04</pdfrwt>
<totfact> 0.49346755E-01</totfact>
</mgrwt>
<rwgt>
<wgt id='morphing_basis_vector_1'> +3.6150189e-05 </wgt>
<wgt id='morphing_basis_vector_2'> +3.3912776e-05 </wgt>
<wgt id='morphing_basis_vector_3'> +4.1545479e-05 </wgt>
<wgt id='morphing_basis_vector_4'> +1.6265310e-05 </wgt>
<wgt id='morphing_basis_vector_5'> +3.9182253e-05 </wgt>
</rwgt>
</event>
<event>
 4      1 +1.9882500e-09 3.82450200e+03 7.81860800e-03 7.57291600e-02
        2 -1    0    0  501    0 +0.0000000000e+00 +0.0000000000e+00 +2.6186053386e+03 2.6186053386e+03 0.0000000000e+00 0.0000e+00 1.0000e+00
       -2 -1    0    0    0  501 -0.0000000000e+00 -0.0000000000e+00 -1.3964317340e+03 1.3964317340e+03 0.0000000000e+00 0.0000e+00 -1.0000e+00
      -13  1    1    2    0    0 -1.4163123733e+03 -1.2793084218e+03 +4.8628264655e+02 1.9695282657e+03 0.0000000000e+00 0.0000e+00 -1.0000e+00
       13  1    1    2    0    0 +1.4163123733e+03 +1.2793084218e+03 +7.3589095803e+02 2.0455088069e+03 0.0000000000e+00 0.0000e+00 1.0000e+00
<mgrwt>
<rscale>  0 0.38245018E+04</rscale>
<asrwt>0</asrwt>
<pdfrwt beam="1">  1        2 0.40286236E+00 0.38245018E+04</pdfrwt>
<pdfrwt beam="2">  1       -2 0.21483565E+00 0.38245018E+04</pdfrwt>
<totfact> 0.27115589E-01</totfact>
</mgrwt>
<rwgt>
<wgt id='morphing_basis_vector_1'> +5.9559326e-05 </wgt>
<wgt id='morphing_basis_vector_2'> +4.4167117e-05 </wgt>
<wgt id='morphing_basis_vector_3'> +6.6174032e-05 </wgt>
<wgt id='morphing_basis_vector_4'> +4.2085651e-05 </wgt>
<wgt id='morphing_basis_vector_5'> +7.2501796e-05 </wgt>
</rwgt>
</event>
<event>
 4      1 +1.9882500e-09 3.44892700e+03 7.81860800e-03 7.64816000e-02
        2 -1    0    0  501    0 +0.0000000000e+00 +0.0000000000e+00 +1.8050506663e+03 1.8050506663e+03 0.0000000000e+00 0.0000e+00 -1.0000e+00
       -2 -1    0    0    0  501 -0.0000000000e+00 -0.0000000000e+00 -1.6474739736e+03 1.6474739736e+03 0.0000000000e+00 0.0000e+00 1.0000e+00
      -13  1    1    2    0    0 -1.2547212264e+02 -2.8662392049e+02 -1.6188219499e+03 1.6487816808e+03 0.0000000000e+00 0.0000e+00 1.0000e+00
       13  1    1    2    0    0 +1.2547212264e+02 +2.8662392049e+02 +1.7763986426e+03 1.8037429592e+03 0.0000000000e+00 0.0000e+00 -1.0000e+00
<mgrwt>
<rscale>  0 0.34489268E+04</rscale>
<asrwt>0</asrwt>
<pdfrwt beam="1">  1        2 0.27770010E+00 0.34489268E+04</pdfrwt>
<pdfrwt beam="2">  1       -2 0.25345753E+00 0.34489268E+04</pdfrwt>
<totfact> 0.44220185E-01</totfact>
</mgrwt>
<rwgt>
<wgt id='morphing_basis_vector_1'> +3.8367069e-05 </wgt>
<wgt id='morphing_basis_vector_2'> +2.5939414e-05 </wgt>
<wgt id='morphing_basis_vector_3'> +4.1978170e-05 </wgt>
<wgt id='morphing_basis_vector_4'> +3.0127940e-05 </wgt>
<wgt id='morphing_basis_vector_5'> +4.8026494e-05 </wgt>
</rwgt>
</event>
<event>
 4      1 +1.9882500e-09 3.50500100e+03 7.81860800e-03 7.63631800e-02
        2 -1    0    0  501    0 +0.0000000000e+00 +0.0000000000e+00 +1.7136190966e+03 1.7136190966e+03 0.0000000000e+00 0.0000e+00 -1.0000e+00
       -2 -1    0    0    0  501 -0.0000000000e+00 -0.0000000000e+00 -1.7922644560e+03 1.7922644560e+03 0.0000000000e+00 0.0000e+00 1.0000e+00
      -13  1    1    2    0    0 +1.4851054281e+03 +3.1559070721e+02 -9.1482749827e+02 1.7725814449e+03 0.0000000000e+00 0.0000e+00 1.0000e+00
       13  1    1    2    0    0 -1.4851054281e+03 -3.1559070721e+02 +8.3618213890e+02 1.7333021077e+03 0.0000000000e+00 0.0000e+00 -1.0000e+00
<mgrwt>
<rscale>  0 0.35050013E+04</rscale>
<asrwt>0</asrwt>
<pdfrwt beam="1">  1        2 0.26363371E+00 0.35050013E+04</pdfrwt>
<pdfrwt beam="2">  1       -2 0.27573299E+00 0.35050013E+04</pdfrwt>
<totfact> 0.34808123E-01</totfact>
</mgrwt>
<rwgt>
<wgt id='morphing_basis_vector_1'> +4.1089513e-05 </wgt>
<wgt id='morphing_basis_vector_2'> +2.8203330e-05 </wgt>
<wgt id='morphing_basis_vector_3'> +4.5065935e-05 </wgt>
<wgt id='morphing_basis_vector_4'> +3.1762842e-05 </wgt>
<wgt id='morphing_basis_vector_5'> +5.1216620e-05 </wgt>
</rwgt>
</event>
<event>
 4      1 +1.9882500e-09 3.25798300e+03 7.81860800e-03 7.69029200e-02
        2 -1    0    0  501    0 +0.0000000000e+00 +0.0000000000e+00 +2.4912818595e+03 2.4912818595e+03 0.0000000000e+00 0.0000e+00 -1.0000e+00
       -2 -1    0    0    0  501 -0.0000000000e+00 -0.0000000000e+00 -1.0651599276e+03 1.0651599276e+03 0.0000000000e+00 0.0000e+00 1.0000e+00
      -13  1    1    2    0    0 -1.4190192164e+03 -3.8318840779e+02 -5.3528528594e+01 1.4708209258e+03 0.0000000000e+00 0.0000e+00 1.0000e+00
       13  1    1    2    0    0 +1.4190192164e+03 +3.8318840779e+02 +1.4796504605e+03 2.0856208614e+03 0.0000000000e+00 0.0000e+00 -1.0000e+00
<mgrwt>
<rscale>  0 0.32579832E+04</rscale>
<asrwt>0</asrwt>
<pdfrwt beam="1">  1        2 0.38327413E+00 0.32579832E+04</pdfrwt>
<pdfrwt beam="2">  1       -2 0.16387076E+00 0.32579832E+04</pdfrwt>
<totfact> 0.81508099E-01</totfact>
</mgrwt>
<rwgt>
<wgt id='morphing_basis_vector_1'> +3.0795031e-05 </wgt>
<wgt id='morphing_basis_vector_2'> +2.1238776e-05 </wgt>
<wgt id='morphing_basis_vector_3'> +3.3735795e-05 </wgt>
<wgt id='morphing_basis_vector_4'> +2.3546489e-05 </wgt>
<wgt id='morphing_basis_vector_5'> +3.8146775e-05 </wgt>
</rwgt>
</event>
<event>
 4      1 +1.9882500e-09 3.27530200e+03 7.81860800e-03 7.68634900e-02
        2 -1    0    0  501    0 +0.0000000000e+00 +0.0000000000e+00 +2.5747834973e+03 2.5747834973e+03 0.0000000000e+00 0.0000e+00 1.0000e+00
       -2 -1    0    0    0  501 -0.0000000000e+00 -0.0000000000e+00 -1.0416025453e+03 1.0416025453e+03 0.0000000000e+00 0.0000e+00 -1.0000e+00
      -13  1    1    2    0    0 +1.0754820565e+03 +1.2380992258e+02 -5.9015697938e+02 1.2329946517e+03 0.0000000000e+00 0.0000e+00 -1.0000e+00
       13  1    1    2    0    0 -1.0754820565e+03 -1.2380992258e+02 +2.1233379314e+03 2.3833913908e+03 0.0000000000e+00 0.0000e+00 1.0000e+00
<mgrwt>
<rscale>  0 0.32753022E+04</rscale>
<asrwt>0</asrwt>
<pdfrwt beam="1">  1        2 0.39612054E+00 0.32753022E+04</pdfrwt>
<pdfrwt beam="2">  1       -2 0.16024655E+00 0.32753022E+04</pdfrwt>
<totfact> 0.77492224E-01</totfact>
</mgrwt>
<rwgt>
<wgt id='morphing_basis_vector_1'> +3.1277847e-05 </wgt>
<wgt id='morphing_basis_vector_2'> +2.1185960e-05 </wgt>
<wgt id='morphing_basis_vector_3'> +3.4186705e-05 </wgt>
<wgt id='morphing_basis_vector_4'> +2.4415335e-05 </wgt>
<wgt id='morphing_basis_vector_5'> +3.9000327e-05 </wgt>
</rwgt>
</event>
<event>
 4      1 +1.9882500e-09 3.60674700e+03 7.81860800e-03 7.61540100e-02
        2 -1    0    0  501    0 +0.0000000000e+00 +0.0000000000e+00 +2.5232432812e+03 2.5232432812e+03 0.0000000000e+00 0.0000e+00 -1.0000e+00
       -2 -1    0    0    0  501 -0.0000000000e+00 -0.0000000000e+00 -1.2888789461e+03 1.2888789461e+03 0.0000000000e+00 0.0000e+00 1.0000e+00
      -13  1    1    2    0    0 +1.7288502084e+03 +2.7206001596e+02 +1.5742396499e+02 1.7571915092e+03 0.0000000000e+00 0.0000e+00 1.0000e+00
       13  1    1    2    0    0 -1.7288502084e+03 -2.7206001596e+02 +1.0769403701e+03 2.0549307181e+03 0.0000000000e+00 0.0000e+00 -1.0000e+00
<mgrwt>
<rscale>  0 0.36067465E+04</rscale>
<asrwt>0</asrwt>
<pdfrwt beam="1">  1        2 0.38819127E+00 0.36067465E+04</pdfrwt>
<pdfrwt beam="2">  1       -2 0.19828907E+00 0.36067465E+04</pdfrwt>
<totfact> 0.41511056E-01</totfact>
</mgrwt>
<rwgt>
<wgt id='morphing_basis_vector_1'> +4.6503777e-05 </wgt>
<wgt id='morphing_basis_vector_2'> +3.2983013e-05 </wgt>
<wgt id='morphing_basis_vector_3'> +5.1270444e-05 </wgt>
<wgt id='morphing_basis_vector_4'> +3.4659554e-05 </wgt>
<wgt id='morphing_basis_vector_5'> +5.7387596e-05 </wgt>
</rwgt>
</event>
<event>
 4      1 +1.9882500e-09 3.66100900e+03 7.81860800e-03 7.60453200e-02
        2 -1    0    0  501    0 +0.0000000000e+00 +0.0000000000e+00 +1.8979035005e+03 1.8979035005e+03 0.0000000000e+00 0.0000e+00 1.0000e+00
       -2 -1    0    0    0  501 -0.0000000000e+00 -0.0000000000e+00 -1.7654992519e+03 1.7654992519e+03 0.0000000000e+00 0.0000e+00 -1.0000e+00
      -13  1    1    2    0    0 +1.0982277690e+03 +1.4617474912e+03 -2.2947365076e+01 1.8284792978e+03 0.0000000000e+00 0.0000e+00 1.0000e+00
       13  1    1    2    0    0 -1.0982277690e+03 -1.4617474912e+03 +1.5535161368e+02 1.8349234547e+03 0.0000000000e+00 0.0000e+00 -1.0000e+00
<mgrwt>
<rscale>  0 0.36610093E+04</rscale>
<asrwt>0</asrwt>
<pdfrwt beam="1">  1        2 0.29198515E+00 0.36610093E+04</pdfrwt>
<pdfrwt beam="2">  1       -2 0.27161527E+00 0.36610093E+04</pdfrwt>
<totfact> 0.28943176E-01</totfact>
</mgrwt>
<rwgt>
<wgt id='morphing_basis_vector_1'> +5.0133271e-05 </wgt>
<wgt id='morphing_basis_vector_2'> +3.7317162e-05 </wgt>
<wgt id='morphing_basis_vector_3'> +5.5678178e-05 </wgt>
<wgt id='morphing_basis_vector_4'> +3.5150925e-05 </wgt>
<wgt id='morphing_basis_vector_5'> +6.0804284e-05 </wgt>
</rwgt>
</event>
<event>
 4      1 +1.9882500e-09 3.30267900e+03 7.81860800e-03 7.68016800e-02
        2 -1    0    0  501    0 +0.0000000000e+00 +0.0000000000e+00 +2.9825390782e+03 2.9825390782e+03 0.0000000000e+00 0.0000e+00 -1.0000e+00
       -2 -1    0    0    0  501 -0.0000000000e+00 -0.0000000000e+00 -9.1429575006e+02 9.1429575006e+02 0.0000000000e+00 0.0000e+00 1.0000e+00
      -13  1    1    2    0    0 +9.5656072099e+02 +2.5533818943e+02 -5.2527582017e+02 1.1207679025e+03 0.0000000000e+00 0.0000e+00 1.0000e+00
       13  1    1    2    0    0 -9.5656072099e+02 -2.5533818943e+02 +2.5935191484e+03 2.7760669259e+03 0.0000000000e+00 0.0000e+00 -1.0000e+00
<mgrwt>
<rscale>  0 0.33026794E+04</rscale>
<asrwt>0</asrwt>
<pdfrwt beam="1">  1        2 0.45885216E+00 0.33026794E+04</pdfrwt>
<pdfrwt beam="2">  1       -2 0.14066089E+00 0.33026794E+04</pdfrwt>
<totfact> 0.62377725E-01</totfact>
</mgrwt>
<rwgt>
<wgt id='morphing_basis_vector_1'> +3.2318093e-05 </wgt>
<wgt id='morphing_basis_vector_2'> +2.1869929e-05 </wgt>
<wgt id='morphing_basis_vector_3'> +3.5326828e-05 </wgt>
<wgt id='morphing_basis_vector_4'> +2.5270113e-05 </wgt>
<wgt id='morphing_basis_vector_5'> +4.0332445e-05 </wgt>
</rwgt>
</event>
<event>
 4      1 +1.9882500e-09 3.25201300e+03 7.81860800e-03 7.69165700e-02
        2 -1    0    0  501    0 +0.0000000000e+00 +0.0000000000e+00 +3.6389636911e+03 3.6389636911e+03 0.0000000000e+00 0.0000e+00 -1.0000e+00
       -2 -1    0    0    0  501 -0.0000000000e+00 -0.0000000000e+00 -7.2655207303e+02 7.2655207303e+02 0.0000000000e+00 0.0000e+00 1.0000e+00
      -13  1    1    2    0    0 +5.8659447024e+02 +1.0096021944e+03 -6.2851997370e+01 1.1693331591e+03 0.0000000000e+00 0.0000e+00 1.0000e+00
       13  1    1    2    0    0 -5.8659447024e+02 -1.0096021944e+03 +2.9752636155e+03 3.1961826051e+03 0.0000000000e+00 0.0000e+00 -1.0000e+00
<mgrwt>
<rscale>  0 0.32520127E+04</rscale>
<asrwt>0</asrwt>
<pdfrwt beam="1">  1        2 0.55984056E+00 0.32520127E+04</pdfrwt>
<pdfrwt beam="2">  1       -2 0.11177724E+00 0.32520127E+04</pdfrwt>
<totfact> 0.39923537E-01</totfact>
</mgrwt>
<rwgt>
<wgt id='morphing_basis_vector_1'> +3.0418869e-05 </wgt>
<wgt id='morphing_basis_vector_2'> +2.0634373e-05 </wgt>
<wgt id='morphing_basis_vector_3'> +3.3248118e-05 </wgt>
<wgt id='morphing_basis_vector_4'> +2.3692912e-05 </wgt>
<wgt id='morphing_basis_vector_5'> +3.7892236e-05 </wgt>
</rwgt>
</event>
<event>
 4      1 +1.9882500e-09 3.26534500e+03 7.81860800e-03 7.68861300e-02
        2 -1    0    0  501    0 +0.0000000000e+00 +0.0000000000e+00 +3.5418068030e+03 3.5418068030e+03 0.0000000000e+00 0.0000e+00 -1.0000e+00
       -2 -1    0    0    0  501 -0.0000000000e+00 -0.0000000000e+00 -7.5261585373e+02 7.5261585373e+02 0.0000000000e+00 0.0000e+00 1.0000e+00
      -13  1    1    2    0    0 -6.4319024813e+02 -1.2974697110e+03 +4.0298666563e+02 1.5031698503e+03 0.0000000000e+00 0.0000e+00 1.0000e+00
       13  1    1    2    0    0 +6.4319024813e+02 +1.2974697110e+03 +2.3862042836e+03 2.7912528064e+03 0.0000000000e+00 0.0000e+00 -1.0000e+00
<mgrwt>
<rscale>  0 0.32653453E+04</rscale>
<asrwt>0</asrwt>
<pdfrwt beam="1">  1        2 0.54489334E+00 0.32653453E+04</pdfrwt>
<pdfrwt beam="2">  1       -2 0.11578706E+00 0.32653453E+04</pdfrwt>
<totfact> 0.43141531E-01</totfact>
</mgrwt>
<rwgt>
<wgt id='morphing_basis_vector_1'> +3.1044751e-05 </wgt>
<wgt id='morphing_basis_vector_2'> +2.1350074e-05 </wgt>
<wgt id='morphing_basis_vector_3'> +3.3998341e-05 </wgt>
<wgt id='morphing_basis_vector_4'> +2.3819020e-05 </wgt>
<wgt id='morphing_basis_vector_5'> +3.8500087e-05 </wgt>
</rwgt>
</event>
<event>
 4      1 +1.9882500e-09 3.78160000e+03 7.81860800e-03 7.58105400e-02
        2 -1    0    0  501    0 +0.0000000000e+00 +0.0000000000e+00 +2.5210552659e+03 2.5210552659e+03 0.0000000000e+00 0.0000e+00 1.0000e+00
       -2 -1    0    0    0  501 -0.0000000000e+00 -0.0000000000e+00 -1.4181064192e+03 1.4181064192e+03 0.0000000000e+00 0.0000e+00 -1.0000e+00
      -13  1    1    2    0    0 -4.0004692546e+02 +1.7651151005e+03 -1.8551462224e+01 1.8099759714e+03 0.0000000000e+00 0.0000e+00 -1.0000e+00
       13  1    1    2    0    0 +4.0004692546e+02 -1.7651151005e+03 +1.1215003089e+03 2.1291857137e+03 0.0000000000e+00 0.0000e+00 1.0000e+00
<mgrwt>
<rscale>  0 0.37816000E+04</rscale>
<asrwt>0</asrwt>
<pdfrwt beam="1">  1        2 0.38785466E+00 0.37816000E+04</pdfrwt>
<pdfrwt beam="2">  1       -2 0.21817022E+00 0.37816000E+04</pdfrwt>
<totfact> 0.29505080E-01</totfact>
</mgrwt>
<rwgt>
<wgt id='morphing_basis_vector_1'> +5.5988207e-05 </wgt>
<wgt id='morphing_basis_vector_2'> +3.9407385e-05 </wgt>
<wgt id='morphing_basis_vector_3'> +6.1722972e-05 </wgt>
<wgt id='morphing_basis_vector_4'> +4.2240269e-05 </wgt>
<wgt id='morphing_basis_vector_5'> +6.9453921e-05 </wgt>
</rwgt>
</event>
<event>
 4      1 +1.9882500e-09 3.41818500e+03 7.81860800e-03 7.65475100e-02
        2 -1    0    0  501    0 +0.0000000000e+00 +0.0000000000e+00 +3.5007450092e+03 3.5007450092e+03 0.0000000000e+00 0.0000e+00 -1.0000e+00
       -2 -1    0    0    0  501 -0.0000000000e+00 -0.0000000000e+00 -8.3439287180e+02 8.3439287180e+02 0.0000000000e+00 0.0000e+00 1.0000e+00
      -13  1    1    2    0    0 +3.0657908156e+02 +6.2455865861e+02 -6.4665954086e+02 9.4985936490e+02 0.0000000000e+00 0.0000e+00 1.0000e+00
       13  1    1    2    0    0 -3.0657908156e+02 -6.2455865861e+02 +3.3130116783e+03 3.3852785161e+03 0.0000000000e+00 0.0000e+00 -1.0000e+00
<mgrwt>
<rscale>  0 0.34181847E+04</rscale>
<asrwt>0</asrwt>
<pdfrwt beam="1">  1        2 0.53857615E+00 0.34181847E+04</pdfrwt>
<pdfrwt beam="2">  1       -2 0.12836814E+00 0.34181847E+04</pdfrwt>
<totfact> 0.34873833E-01</totfact>
</mgrwt>
<rwgt>
<wgt id='morphing_basis_vector_1'> +3.7029504e-05 </wgt>
<wgt id='morphing_basis_vector_2'> +2.5038137e-05 </wgt>
<wgt id='morphing_basis_vector_3'> +4.0506824e-05 </wgt>
<wgt id='morphing_basis_vector_4'> +2.9054907e-05 </wgt>
<wgt id='morphing_basis_vector_5'> +4.6325193e-05 </wgt>
</rwgt>
</event>
<event>
 4      1 +1.9882500e-09 3.32996700e+03 7.81860800e-03 7.67406800e-02
        2 -1    0    0  501    0 +0.0000000000e+00 +0.0000000000e+00 +1.4646213921e+03 1.4646213921e+03 0.0000000000e+00 0.0000e+00 1.0000e+00
       -2 -1    0    0    0  501 -0.0000000000e+00 -0.0000000000e+00 -1.8927551807e+03 1.8927551807e+03 0.0000000000e+00 0.0000e+00 -1.0000e+00
      -13  1    1    2    0    0 +7.1822085115e+02 +8.0617459686e+02 -1.4919422477e+03 1.8416433808e+03 0.0000000000e+00 0.0000e+00 -1.0000e+00
       13  1    1    2    0    0 -7.1822085115e+02 -8.0617459686e+02 +1.0638084591e+03 1.5157331920e+03 0.0000000000e+00 0.0000e+00 1.0000e+00
<mgrwt>
<rscale>  0 0.33299668E+04</rscale>
<asrwt>0</asrwt>
<pdfrwt beam="1">  1        2 0.22532637E+00 0.33299668E+04</pdfrwt>
<pdfrwt beam="2">  1       -2 0.29119310E+00 0.33299668E+04</pdfrwt>
<totfact> 0.38166619E-01</totfact>
</mgrwt>
<rwgt>
<wgt id='morphing_basis_vector_1'> +3.3399549e-05 </wgt>
<wgt id='morphing_basis_vector_2'> +2.2623765e-05 </wgt>
<wgt id='morphing_basis_vector_3'> +3.6521313e-05 </wgt>
<wgt id='morphing_basis_vector_4'> +2.6104440e-05 </wgt>
<wgt id='morphing_basis_vector_5'> +4.1690496e-05 </wgt>
</rwgt>
</event>
<event>
 4      1 +1.9882500e-09 3.41553200e+03 7.81860800e-03 7.65532300e-02
        2 -1    0    0  501    0 +0.0000000000e+00 +0.0000000000e+00 +3.7112687039e+03 3.7112687039e+03 0.0000000000e+00 0.0000e+00 -1.0000e+00
       -2 -1    0    0    0  501 -0.0000000000e+00 -0.0000000000e+00 -7.8584048653e+02 7.8584048653e+02 0.0000000000e+00 0.0000e+00 1.0000e+00
      -13  1    1    2    0    0 +6.3649914157e+02 +1.4110891766e+03 +5.1310670859e+02 1.6308225887e+03 0.0000000000e+00 0.0000e+00 1.0000e+00
       13  1    1    2    0    0 -6.3649914157e+02 -1.4110891766e+03 +2.4123215088e+03 2.8662866018e+03 0.0000000000e+00 0.0000e+00 -1.0000e+00
<mgrwt>
<rscale>  0 0.34155323E+04</rscale>
<asrwt>0</asrwt>
<pdfrwt beam="1">  1        2 0.57096440E+00 0.34155323E+04</pdfrwt>
<pdfrwt beam="2">  1       -2 0.12089854E+00 0.34155323E+04</pdfrwt>
<totfact> 0.28326236E-01</totfact>
</mgrwt>
<rwgt>
<wgt id='morphing_basis_vector_1'> +3.7156425e-05 </wgt>
<wgt id='morphing_basis_vector_2'> +2.5669544e-05 </wgt>
<wgt id='morphing_basis_vector_3'> +4.0763316e-05 </wgt>
<wgt id='morphing_basis_vector_4'> +2.8458465e-05 </wgt>
<wgt id='morphing_basis_vector_5'> +4.6138730e-05 </wgt>
</rwgt>
</event>
<event>
 4      1 +1.9882500e-09 3.55433700e+03 7.81860800e-03 7.62608600e-02
        2 -1    0    0  501    0 +0.0000000000e+00 +0.0000000000e+00 +1.9508678754e+03 1.9508678754e+03 0.0000000000e+00 0.0000e+00 1.0000e+00
       -2 -1    0    0    0  501 -0.0000000000e+00 -0.0000000000e+00 -1.6189344316e+03 1.6189344316e+03 0.0000000000e+00 0.0000e+00 -1.0000e+00
      -13  1    1    2    0    0 -1.3699594348e+03 -9.3851737277e+01 -9.6709555762e+02 1.6795448250e+03 0.0000000000e+00 0.0000e+00 -1.0000e+00
       13  1    1    2    0    0 +1.3699594348e+03 +9.3851737277e+01 +1.2990290015e+03 1.8902574820e+03 0.0000000000e+00 0.0000e+00 1.0000e+00
<mgrwt>
<rscale>  0 0.35543366E+04</rscale>
<asrwt>0</asrwt>
<pdfrwt beam="1">  1        2 0.30013352E+00 0.35543366E+04</pdfrwt>
<pdfrwt beam="2">  1       -2 0.24906684E+00 0.35543366E+04</pdfrwt>
<totfact> 0.38967136E-01</totfact>
</mgrwt>
<rwgt>
<wgt id='morphing_basis_vector_1'> +4.3329628e-05 </wgt>
<wgt id='morphing_basis_vector_2'> +2.9506790e-05 </wgt>
<wgt id='morphing_basis_vector_3'> +4.7486645e-05 </wgt>
<wgt id='morphing_basis_vector_4'> +3.3825400e-05 </wgt>
<wgt id='morphing_basis_vector_5'> +5.4199639e-05 </wgt>
</rwgt>
</event>
<event>
 4      1 +1.9882500e-09 3.25825100e+03 7.81860800e-03 7.69023100e-02
        2 -1    0    0  501    0 +0.0000000000e+00 +0.0000000000e+00 +1.7079638966e+03 1.7079638966e+03 0.0000000000e+00 0.0000e+00 1.0000e+00
       -2 -1    0    0    0  501 -0.0000000000e+00 -0.0000000000e+00 -1.5539263263e+03 1.5539263263e+03 0.0000000000e+00 0.0000e+00 -1.0000e+00
      -13  1    1    2    0    0 +1.1253663940e+03 +3.1850411781e+02 -1.0583359046e+03 1.5773297946e+03 0.0000000000e+00 0.0000e+00 -1.0000e+00
       13  1    1    2    0    0 -1.1253663940e+03 -3.1850411781e+02 +1.2123734750e+03 1.6845604283e+03 0.0000000000e+00 0.0000e+00 1.0000e+00
<mgrwt>
<rscale>  0 0.32582511E+04</rscale>
<asrwt>0</asrwt>
<pdfrwt beam="1">  1        2 0.26276368E+00 0.32582511E+04</pdfrwt>
<pdfrwt beam="2">  1       -2 0.23906559E+00 0.32582511E+04</pdfrwt>
<totfact> 0.64019894E-01</totfact>
</mgrwt>
<rwgt>
<wgt id='morphing_basis_vector_1'> +3.0651080e-05 </wgt>
<wgt id='morphing_basis_vector_2'> +2.0792486e-05 </wgt>
<wgt id='morphing_basis_vector_3'> +3.3503746e-05 </wgt>
<wgt id='morphing_basis_vector_4'> +2.3876707e-05 </wgt>
<wgt id='morphing_basis_vector_5'> +3.8186043e-05 </wgt>
</rwgt>
</event>
<event>
 4      1 +1.9882500e-09 3.21583800e+03 7.81860800e-03 7.69999200e-02
        2 -1    0    0  501    0 +0.0000000000e+00 +0.0000000000e+00 +2.6848005099e+03 2.6848005099e+03 0.0000000000e+00 0.0000e+00 1.0000e+00
       -2 -1    0    0    0  501 -0.0000000000e+00 -0.0000000000e+00 -9.6297813139e+02 9.6297813139e+02 0.0000000000e+00 0.0000e+00 -1.0000e+00
      -13  1    1    2    0    0 +4.3014801503e+02 +6.8578100145e+02 -7.1496486607e+02 1.0800452104e+03 0.0000000000e+00 0.0000e+00 -1.0000e+00
       13  1    1    2    0    0 -4.3014801503e+02 -6.8578100145e+02 +2.4367872446e+03 2.5677334309e+03 0.0000000000e+00 0.0000e+00 1.0000e+00
<mgrwt>
<rscale>  0 0.32158384E+04</rscale>
<asrwt>0</asrwt>
<pdfrwt beam="1">  1        2 0.41304623E+00 0.32158384E+04</pdfrwt>
<pdfrwt beam="2">  1       -2 0.14815048E+00 0.32158384E+04</pdfrwt>
<totfact> 0.83778062E-01</totfact>
</mgrwt>
<rwgt>
<wgt id='morphing_basis_vector_1'> +2.9066329e-05 </wgt>
<wgt id='morphing_basis_vector_2'> +1.9641060e-05 </wgt>
<wgt id='morphing_basis_vector_3'> +3.1744085e-05 </wgt>
<wgt id='morphing_basis_vector_4'> +2.2714878e-05 </wgt>
<wgt id='morphing_basis_vector_5'> +3.6227285e-05 </wgt>
</rwgt>
</event>
<event>
 4      1 +1.9882500e-09 3.34644100e+03 7.81860800e-03 7.67041400e-02
        2 -1    0    0  501    0 +0.0000000000e+00 +0.0000000000e+00 +1.7203178750e+03 1.7203178750e+03 0.0000000000e+00 0.0000e+00 -1.0000e+00
       -2 -1    0    0    0  501 -0.0000000000e+00 -0.0000000000e+00 -1.6274123956e+03 1.6274123956e+03 0.0000000000e+00 0.0000e+00 1.0000e+00
      -13  1    1    2    0    0 -8.7591793237e+02 +1.3768070462e+03 +4.1650980979e+02 1.6841348783e+03 0.0000000000e+00 0.0000e+00 1.0000e+00
       13  1    1    2    0    0 +8.7591793237e+02 -1.3768070462e+03 -3.2360433031e+02 1.6635953923e+03 0.0000000000e+00 0.0000e+00 -1.0000e+00
<mgrwt>
<rscale>  0 0.33464409E+04</rscale>
<asrwt>0</asrwt>
<pdfrwt beam="1">  1        2 0.26466429E+00 0.33464409E+04</pdfrwt>
<pdfrwt beam="2">  1       -2 0.25037114E+00 0.33464409E+04</pdfrwt>
<totfact> 0.52214563E-01</totfact>
</mgrwt>
<rwgt>
<wgt id='morphing_basis_vector_1'> +3.6720884e-05 </wgt>
<wgt id='morphing_basis_vector_2'> +3.0901879e-05 </wgt>
<wgt id='morphing_basis_vector_3'> +4.1459839e-05 </wgt>
<wgt id='morphing_basis_vector_4'> +2.1049933e-05 </wgt>
<wgt id='morphing_basis_vector_5'> +4.2066335e-05 </wgt>
</rwgt>
</event>
<event>
 4      1 +1.9882500e-09 3.32332100e+03 7.81860800e-03 7.67554800e-02
        2 -1    0    0  501    0 +0.0000000000e+00 +0.0000000000e+00 +1.0759826723e+03 1.0759826723e+03 0.0000000000e+00 0.0000e+00 -1.0000e+00
       -2 -1    0    0    0  501 -0.0000000000e+00 -0.0000000000e+00 -2.5661333434e+03 2.5661333434e+03 0.0000000000e+00 0.0000e+00 1.0000e+00
      -13  1    1    2    0    0 -3.4553470287e+02 +6.6704874992e+02 -2.3694024888e+03 2.4856420538e+03 0.0000000000e+00 0.0000e+00 1.0000e+00
       13  1    1    2    0    0 +3.4553470287e+02 -6.6704874992e+02 +8.7925181773e+02 1.1564739619e+03 0.0000000000e+00 0.0000e+00 -1.0000e+00
<mgrwt>
<rscale>  0 0.33233206E+04</rscale>
<asrwt>0</asrwt>
<pdfrwt beam="1">  1        2 0.16553580E+00 0.33233206E+04</pdfrwt>
<pdfrwt beam="2">  1       -2 0.39478974E+00 0.33233206E+04</pdfrwt>
<totfact> 0.13394610E-01</totfact>
</mgrwt>
<rwgt>
<wgt id='morphing_basis_vector_1'> +3.3115289e-05 </wgt>
<wgt id='morphing_basis_vector_2'> +2.2384275e-05 </wgt>
<wgt id='morphing_basis_vector_3'> +3.6198543e-05 </wgt>
<wgt id='morphing_basis_vector_4'> +2.5937907e-05 </wgt>
<wgt id='morphing_basis_vector_5'> +4.1359809e-05 </wgt>
</rwgt>
</event>
<event>
 4      1 +1.9882500e-09 3.43759600e+03 7.81860800e-03 7.65058200e-02
        2 -1    0    0  501    0 +0.0000000000e+00 +0.0000000000e+00 +1.2228538265e+03 1.2228538265e+03 0.0000000000e+00 0.0000e+00 1.0000e+00
       -2 -1    0    0    0  501 -0.0000000000e+00 -0.0000000000e+00 -2.4158781564e+03 2.4158781564e+03 0.0000000000e+00 0.0000e+00 -1.0000e+00
      -13  1    1    2    0    0 +1.0356684913e+03 +1.2091546477e+03 -1.2821801709e+03 2.0441746932e+03 0.0000000000e+00 0.0000e+00 -1.0000e+00
       13  1    1    2    0    0 -1.0356684913e+03 -1.2091546477e+03 +8.9155841023e+01 1.5945572896e+03 0.0000000000e+00 0.0000e+00 1.0000e+00
<mgrwt>
<rscale>  0 0.34375956E+04</rscale>
<asrwt>0</asrwt>
<pdfrwt beam="1">  1        2 0.18813136E+00 0.34375956E+04</pdfrwt>
<pdfrwt beam="2">  1       -2 0.37167356E+00 0.34375956E+04</pdfrwt>
<totfact> 0.15302354E-01</totfact>
</mgrwt>
<rwgt>
<wgt id='morphing_basis_vector_1'> +3.8178157e-05 </wgt>
<wgt id='morphing_basis_vector_2'> +2.6511316e-05 </wgt>
<wgt id='morphing_basis_vector_3'> +4.1920321e-05 </wgt>
<wgt id='morphing_basis_vector_4'> +2.9081681e-05 </wgt>
<wgt id='morphing_basis_vector_5'> +4.7340463e-05 </wgt>
</rwgt>
</event>
<event>
 4      1 +1.9882500e-09 3.21588900e+03 7.81860800e-03 7.69998100e-02
        2 -1    0    0  501    0 +0.0000000000e+00 +0.0000000000e+00 +1.1811748692e+03 1.1811748692e+03 0.0000000000e+00 0.0000e+00 1.0000e+00
       -2 -1    0    0    0  501 -0.0000000000e+00 -0.0000000000e+00 -2.1889101519e+03 2.1889101519e+03 0.0000000000e+00 0.0000e+00 -1.0000e+00
      -13  1    1    2    0    0 +7.0214111389e+02 -2.1636424356e+02 -2.0027156198e+03 2.1332335745e+03 0.0000000000e+00 0.0000e+00 -1.0000e+00
       13  1    1    2    0    0 -7.0214111389e+02 +2.1636424356e+02 +9.9498033706e+02 1.2368514466e+03 0.0000000000e+00 0.0000e+00 1.0000e+00
<mgrwt>
<rscale>  0 0.32158891E+04</rscale>
<asrwt>0</asrwt>
<pdfrwt beam="1">  1        2 0.18171921E+00 0.32158891E+04</pdfrwt>
<pdfrwt beam="2">  1       -2 0.33675540E+00 0.32158891E+04</pdfrwt>
<totfact> 0.27752275E-01</totfact>
</mgrwt>
<rwgt>
<wgt id='morphing_basis_vector_1'> +2.9065895e-05 </wgt>
<wgt id='morphing_basis_vector_2'> +1.9635665e-05 </wgt>
<wgt id='morphing_basis_vector_3'> +3.1742534e-05 </wgt>
<wgt id='morphing_basis_vector_4'> +2.2721031e-05 </wgt>
<wgt id='morphing_basis_vector_5'> +3.6229975e-05 </wgt>
</rwgt>
</event>
<event>
 4      1 +1.9882500e-09 3.21394000e+03 7.81860800e-03 7.70043300e-02
        2 -1    0    0  501    0 +0.0000000000e+00 +0.0000000000e+00 +1.4847705708e+03 1.4847705708e+03 0.0000000000e+00 0.0000e+00 -1.0000e+00
       -2 -1    0    0    0  501 -0.0000000000e+00 -0.0000000000e+00 -1.7392265817e+03 1.7392265817e+03 0.0000000000e+00 0.0000e+00 1.0000e+00
      -13  1    1    2    0    0 +5.0481239586e+02 +1.7108606399e+02 -1.6479687957e+03 1.7320240033e+03 0.0000000000e+00 0.0000e+00 1.0000e+00
       13  1    1    2    0    0 -5.0481239586e+02 -1.7108606399e+02 +1.3935127849e+03 1.4919731492e+03 0.0000000000e+00 0.0000e+00 -1.0000e+00
<mgrwt>
<rscale>  0 0.32139399E+04</rscale>
<asrwt>0</asrwt>
<pdfrwt beam="1">  1        2 0.22842624E+00 0.32139399E+04</pdfrwt>
<pdfrwt beam="2">  1       -2 0.26757332E+00 0.32139399E+04</pdfrwt>
<totfact> 0.54394112E-01</totfact>
</mgrwt>
<rwgt>
<wgt id='morphing_basis_vector_1'> +2.8993008e-05 </wgt>
<wgt id='morphing_basis_vector_2'> +1.9579309e-05 </wgt>
<wgt id='morphing_basis_vector_3'> +3.1660898e-05 </wgt>
<wgt id='morphing_basis_vector_4'> +2.2671940e-05 </wgt>
<wgt id='morphing_basis_vector_5'> +3.6142067e-05 </wgt>
</rwgt>
</event>
<event>
 4      1 +1.9882500e-09 3.52372900e+03 7.81860800e-03 7.63241400e-02
        2 -1    0    0  501    0 +0.0000000000e+00 +0.0000000000e+00 +1.7087764544e+03 1.7087764544e+03 0.0000000000e+00 0.0000e+00 -1.0000e+00
       -2 -1    0    0    0  501 -0.0000000000e+00 -0.0000000000e+00 -1.8166019897e+03 1.8166019897e+03 0.0000000000e+00 0.0000e+00 1.0000e+00
      -13  1    1    2    0    0 -1.2539569185e+03 -7.1042345619e+02 -1.0678254618e+03 1.7937002697e+03 0.0000000000e+00 0.0000e+00 1.0000e+00
       13  1    1    2    0    0 +1.2539569185e+03 +7.1042345619e+02 +9.5999992650e+02 1.7316781743e+03 0.0000000000e+00 0.0000e+00 -1.0000e+00
<mgrwt>
<rscale>  0 0.35237291E+04</rscale>
<asrwt>0</asrwt>
<pdfrwt beam="1">  1        2 0.26288869E+00 0.35237291E+04</pdfrwt>
<pdfrwt beam="2">  1       -2 0.27947723E+00 0.35237291E+04</pdfrwt>
<totfact> 0.32976438E-01</totfact>
</mgrwt>
<rwgt>
<wgt id='morphing_basis_vector_1'> +4.1904153e-05 </wgt>
<wgt id='morphing_basis_vector_2'> +2.8619004e-05 </wgt>
<wgt id='morphing_basis_vector_3'> +4.5933656e-05 </wgt>
<wgt id='morphing_basis_vector_4'> +3.2587519e-05 </wgt>
<wgt id='morphing_basis_vector_5'> +5.2338509e-05 </wgt>
</rwgt>
</event>
<event>
 4      1 +1.9882500e-09 3.41956500e+03 7.81860800e-03 7.65445400e-02
        2 -1    0    0  501    0 +0.0000000000e+00 +0.0000000000e+00 +2.0089139264e+03 2.0089139264e+03 0.0000000000e+00 0.0000e+00 -1.0000e+00
       -2 -1    0    0    0  501 -0.0000000000e+00 -0.0000000000e+00 -1.4551923417e+03 1.4551923417e+03 0.0000000000e+00 0.0000e+00 1.0000e+00
      -13  1    1    2    0    0 -5.5607408783e+02 -1.5145824346e+03 -2.9635212204e+02 1.6404276645e+03 0.0000000000e+00 0.0000e+00 1.0000e+00
       13  1    1    2    0    0 +5.5607408783e+02 +1.5145824346e+03 +8.5007370671e+02 1.8236786036e+03 0.0000000000e+00 0.0000e+00 -1.0000e+00
<mgrwt>
<rscale>  0 0.34195650E+04</rscale>
<asrwt>0</asrwt>
<pdfrwt beam="1">  1        2 0.30906368E+00 0.34195650E+04</pdfrwt>
<pdfrwt beam="2">  1       -2 0.22387574E+00 0.34195650E+04</pdfrwt>
<totfact> 0.54816977E-01</totfact>
</mgrwt>
<rwgt>
<wgt id='morphing_basis_vector_1'> +3.7457845e-05 </wgt>
<wgt id='morphing_basis_vector_2'> +2.6163876e-05 </wgt>
<wgt id='morphing_basis_vector_3'> +4.1157287e-05 </wgt>
<wgt id='morphing_basis_vector_4'> +2.8327656e-05 </wgt>
<wgt id='morphing_basis_vector_5'> +4.6336459e-05 </wgt>
</rwgt>
</event>
<event>
 4      1 +1.9882500e-09 3.32719600e+03 7.81860800e-03 7.67468400e-02
        2 -1    0    0  501    0 +0.0000000000e+00 +0.0000000000e+00 +1.5572047127e+03 1.5572047127e+03 0.0000000000e+00 0.0000e+00 1.0000e+00
       -2 -1    0    0    0  501 -0.0000000000e+00 -0.0000000000e+00 -1.7772604873e+03 1.7772604873e+03 0.0000000000e+00 0.0000e+00 -1.0000e+00
      -13  1    1    2    0    0 +9.6190991664e+01 +4.0200098034e+02 -1.7249766992e+03 1.7738100541e+03 0.0000000000e+00 0.0000e+00 -1.0000e+00
       13  1    1    2    0    0 -9.6190991664e+01 -4.0200098034e+02 +1.5049209246e+03 1.5606551459e+03 0.0000000000e+00 0.0000e+00 1.0000e+00
<mgrwt>
<rscale>  0 0.33271961E+04</rscale>
<asrwt>0</asrwt>
<pdfrwt beam="1">  1        2 0.23956996E+00 0.33271961E+04</pdfrwt>
<pdfrwt beam="2">  1       -2 0.27342469E+00 0.33271961E+04</pdfrwt>
<totfact> 0.44760729E-01</totfact>
</mgrwt>
<rwgt>
<wgt id='morphing_basis_vector_1'> +3.3264800e-05 </wgt>
<wgt id='morphing_basis_vector_2'> +2.2476558e-05 </wgt>
<wgt id='morphing_basis_vector_3'> +3.6361147e-05 </wgt>
<wgt id='morphing_basis_vector_4'> +2.6068508e-05 </wgt>
<wgt id='morphing_basis_vector_5'> +4.1555172e-05 </wgt>
</rwgt>
</event>
<event>
 4      1 +1.9882500e-09 3.68599500e+03 7.81860800e-03 7.59959200e-02
        2 -1    0    0  501    0 +0.0000000000e+00 +0.0000000000e+00 +2.7073020026e+03 2.7073020026e+03 0.0000000000e+00 0.0000e+00 -1.0000e+00
       -2 -1    0    0    0  501 -0.0000000000e+00 -0.0000000000e+00 -1.2546214605e+03 1.2546214605e+03 0.0000000000e+00 0.0000e+00 1.0000e+00
      -13  1    1    2    0    0 -8.0667191476e+02 -1.1448331953e+03 -5.6137301084e+02 1.5088082319e+03 0.0000000000e+00 0.0000e+00 1.0000e+00
       13  1    1    2    0    0 +8.0667191476e+02 +1.1448331953e+03 +2.0140535530e+03 2.4531152312e+03 0.0000000000e+00 0.0000e+00 -1.0000e+00
<mgrwt>
<rscale>  0 0.36859947E+04</rscale>
<asrwt>0</asrwt>
<pdfrwt beam="1">  1        2 0.41650800E+00 0.36859947E+04</pdfrwt>
<pdfrwt beam="2">  1       -2 0.19301869E+00 0.36859947E+04</pdfrwt>
<totfact> 0.34848970E-01</totfact>
</mgrwt>
<rwgt>
<wgt id='morphing_basis_vector_1'> +5.0059713e-05 </wgt>
<wgt id='morphing_basis_vector_2'> +3.4085932e-05 </wgt>
<wgt id='morphing_basis_vector_3'> +5.4904226e-05 </wgt>
<wgt id='morphing_basis_vector_4'> +3.9177196e-05 </wgt>
<wgt id='morphing_basis_vector_5'> +6.2744606e-05 </wgt>
</rwgt>
</event>
<event>
 4      1 +1.9882500e-09 3.78430800e+03 7.81860800e-03 7.58053700e-02
        2 -1    0    0  501    0 +0.0000000000e+00 +0.0000000000e+00 +1.3678660311e+03 1.3678660311e+03 0.0000000000e+00 0.0000e+00 1.0000e+00
       -2 -1    0    0    0  501 -0.0000000000e+00 -0.0000000000e+00 -2.6173959631e+03 2.6173959631e+03 0.0000000000e+00 0.0000e+00 -1.0000e+00
      -13  1    1    2    0    0 +5.1598715385e+02 -1.4013775843e+03 -1.8484245497e+03 2.3762944247e+03 0.0000000000e+00 0.0000e+00 -1.0000e+00
       13  1    1    2    0    0 -5.1598715385e+02 +1.4013775843e+03 +5.9889461775e+02 1.6089675696e+03 0.0000000000e+00 0.0000e+00 1.0000e+00
<mgrwt>
<rscale>  0 0.37843081E+04</rscale>
<asrwt>0</asrwt>
<pdfrwt beam="1">  1        2 0.21044093E+00 0.37843081E+04</pdfrwt>
<pdfrwt beam="2">  1       -2 0.40267630E+00 0.37843081E+04</pdfrwt>
<totfact> 0.77457268E-02</totfact>
</mgrwt>
<rwgt>
<wgt id='morphing_basis_vector_1'> +5.5610910e-05 </wgt>
<wgt id='morphing_basis_vector_2'> +3.7941399e-05 </wgt>
<wgt id='morphing_basis_vector_3'> +6.1041644e-05 </wgt>
<wgt id='morphing_basis_vector_4'> +4.3495075e-05 </wgt>
<wgt id='morphing_basis_vector_5'> +6.9748396e-05 </wgt>
</rwgt>
</event>
<event>
 4      1 +1.9882500e-09 3.23100400e+03 7.81860800e-03 7.69648400e-02
        2 -1    0    0  501    0 +0.0000000000e+00 +0.0000000000e+00 +2.9005416657e+03 2.9005416657e+03 0.0000000000e+00 0.0000e+00 -1.0000e+00
       -2 -1    0    0    0  501 -0.0000000000e+00 -0.0000000000e+00 -8.9977880762e+02 8.9977880762e+02 0.0000000000e+00 0.0000e+00 1.0000e+00
      -13  1    1    2    0    0 +1.2490137835e+03 -1.0016545644e+03 +1.2540127247e+03 2.0336900480e+03 0.0000000000e+00 0.0000e+00 1.0000e+00
       13  1    1    2    0    0 -1.2490137835e+03 +1.0016545644e+03 +7.4675013335e+02 1.7666304253e+03 0.0000000000e+00 0.0000e+00 -1.0000e+00
<mgrwt>
<rscale>  0 0.32310035E+04</rscale>
<asrwt>0</asrwt>
<pdfrwt beam="1">  1        2 0.44623718E+00 0.32310035E+04</pdfrwt>
<pdfrwt beam="2">  1       -2 0.13842751E+00 0.32310035E+04</pdfrwt>
<totfact> 0.74074661E-01</totfact>
</mgrwt>
<rwgt>
<wgt id='morphing_basis_vector_1'> +3.1346587e-05 </wgt>
<wgt id='morphing_basis_vector_2'> +2.5112235e-05 </wgt>
<wgt id='morphing_basis_vector_3'> +3.5079806e-05 </wgt>
<wgt id='morphing_basis_vector_4'> +1.9524490e-05 </wgt>
<wgt id='morphing_basis_vector_5'> +3.6621589e-05 </wgt>
</rwgt>
</event>
<event>
 4      1 +1.9882500e-09 3.51361200e+03 7.81860800e-03 7.63452000e-02
        2 -1    0    0  501    0 +0.0000000000e+00 +0.0000000000e+00 +1.5098626400e+03 1.5098626400e+03 0.0000000000e+00 0.0000e+00 -1.0000e+00
       -2 -1    0    0    0  501 -0.0000000000e+00 -0.0000000000e+00 -2.0441383446e+03 2.0441383446e+03 0.0000000000e+00 0.0000e+00 1.0000e+00
      -13  1    1    2    0    0 -3.8493326307e+02 +8.5543920965e+02 -1.7696140740e+03 2.0028688996e+03 0.0000000000e+00 0.0000e+00 1.0000e+00
       13  1    1    2    0    0 +3.8493326307e+02 -8.5543920965e+02 +1.2353383693e+03 1.5511320850e+03 0.0000000000e+00 0.0000e+00 -1.0000e+00
<mgrwt>
<rscale>  0 0.35136125E+04</rscale>
<asrwt>0</asrwt>
<pdfrwt beam="1">  1        2 0.23228656E+00 0.35136125E+04</pdfrwt>
<pdfrwt beam="2">  1       -2 0.31448282E+00 0.35136125E+04</pdfrwt>
<totfact> 0.24725399E-01</totfact>
</mgrwt>
<rwgt>
<wgt id='morphing_basis_vector_1'> +4.1318338e-05 </wgt>
<wgt id='morphing_basis_vector_2'> +2.7969632e-05 </wgt>
<wgt id='morphing_basis_vector_3'> +4.5234099e-05 </wgt>
<wgt id='morphing_basis_vector_4'> +3.2443443e-05 </wgt>
<wgt id='morphing_basis_vector_5'> +5.1755351e-05 </wgt>
</rwgt>
</event>
<event>
 4      1 +1.9882500e-09 3.22504500e+03 7.81860800e-03 7.69786000e-02
        2 -1    0    0  501    0 +0.0000000000e+00 +0.0000000000e+00 +2.0690996996e+03 2.0690996996e+03 0.0000000000e+00 0.0000e+00 -1.0000e+00
       -2 -1    0    0    0  501 -0.0000000000e+00 -0.0000000000e+00 -1.2566957574e+03 1.2566957574e+03 0.0000000000e+00 0.0000e+00 1.0000e+00
      -13  1    1    2    0    0 +5.9895262312e+02 -1.0908135191e+03 -6.5131464634e+02 1.4045743650e+03 0.0000000000e+00 0.0000e+00 1.0000e+00
       13  1    1    2    0    0 -5.9895262312e+02 +1.0908135191e+03 +1.4637185885e+03 1.9212210921e+03 0.0000000000e+00 0.0000e+00 -1.0000e+00
<mgrwt>
<rscale>  0 0.32250450E+04</rscale>
<asrwt>0</asrwt>
<pdfrwt beam="1">  1        2 0.31832303E+00 0.32250450E+04</pdfrwt>
<pdfrwt beam="2">  1       -2 0.19333781E+00 0.32250450E+04</pdfrwt>
<totfact> 0.85542796E-01</totfact>
</mgrwt>
<rwgt>
<wgt id='morphing_basis_vector_1'> +2.9450630e-05 </wgt>
<wgt id='morphing_basis_vector_2'> +2.0021243e-05 </wgt>
<wgt id='morphing_basis_vector_3'> +3.2192028e-05 </wgt>
<wgt id='morphing_basis_vector_4'> +2.2867896e-05 </wgt>
<wgt id='morphing_basis_vector_5'> +3.6638052e-05 </wgt>
</rwgt>
</event>
<event>
 4      1 +1.9882500e-09 3.28449500e+03 7.81860800e-03 7.68426700e-02
        2 -1    0    0  501    0 +0.0000000000e+00 +0.0000000000e+00 +2.8278495671e+03 2.8278495671e+03 0.0000000000e+00 0.0000e+00 1.0000e+00
       -2 -1    0    0    0  501 -0.0000000000e+00 -0.0000000000e+00 -9.5372008742e+02 9.5372008742e+02 0.0000000000e+00 0.0000e+00 -1.0000e+00
      -13  1    1    2    0    0 +6.0557960542e+02 +9.9396290624e+02 -3.9684470992e+02 1.2297051034e+03 0.0000000000e+00 0.0000e+00 -1.0000e+00
       13  1    1    2    0    0 -6.0557960542e+02 -9.9396290624e+02 +2.2709741896e+03 2.5518645511e+03 0.0000000000e+00 0.0000e+00 1.0000e+00
<mgrwt>
<rscale>  0 0.32844951E+04</rscale>
<asrwt>0</asrwt>
<pdfrwt beam="1">  1        2 0.43505378E+00 0.32844951E+04</pdfrwt>
<pdfrwt beam="2">  1       -2 0.14672617E+00 0.32844951E+04</pdfrwt>
<totfact> 0.69729806E-01</totfact>
</mgrwt>
<rwgt>
<wgt id='morphing_basis_vector_1'> +3.1639934e-05 </wgt>
<wgt id='morphing_basis_vector_2'> +2.1459832e-05 </wgt>
<wgt id='morphing_basis_vector_3'> +3.4591127e-05 </wgt>
<wgt id='morphing_basis_vector_4'> +2.4667152e-05 </wgt>
<wgt id='morphing_basis_vector_5'> +3.9441198e-05 </wgt>
</rwgt>
</event>
<event>
 4      1 +1.9882500e-09 3.21739700e+03 7.81860800e-03 7.69963100e-02
        2 -1    0    0  501    0 +0.0000000000e+00 +0.0000000000e+00 +2.4932130788e+03 2.4932130788e+03 0.0000000000e+00 0.0000e+00 1.0000e+00
       -2 -1    0    0    0  501 -0.0000000000e+00 -0.0000000000e+00 -1.0379825490e+03 1.0379825490e+03 0.0000000000e+00 0.0000e+00 -1.0000e+00
      -13  1    1    2    0    0 +1.1455788483e+02 +4.0047033371e+02 -9.7777083538e+02 1.0627962193e+03 0.0000000000e+00 0.0000e+00 -1.0000e+00
       13  1    1    2    0    0 -1.1455788483e+02 -4.0047033371e+02 +2.4330013651e+03 2.4683994085e+03 0.0000000000e+00 0.0000e+00 1.0000e+00
<mgrwt>
<rscale>  0 0.32173975E+04</rscale>
<asrwt>0</asrwt>
<pdfrwt beam="1">  1        2 0.38357124E+00 0.32173975E+04</pdfrwt>
<pdfrwt beam="2">  1       -2 0.15968962E+00 0.32173975E+04</pdfrwt>
<totfact> 0.88063141E-01</totfact>
</mgrwt>
<rwgt>
<wgt id='morphing_basis_vector_1'> +2.9116332e-05 </wgt>
<wgt id='morphing_basis_vector_2'> +1.9661517e-05 </wgt>
<wgt id='morphing_basis_vector_3'> +3.1796259e-05 </wgt>
<wgt id='morphing_basis_vector_4'> +2.2771755e-05 </wgt>
<wgt id='morphing_basis_vector_5'> +3.6299160e-05 </wgt>
</rwgt>
</event>
<event>
 4      1 +1.9882500e-09 3.32910900e+03 7.81860800e-03 7.67425900e-02
        2 -1    0    0  501    0 +0.0000000000e+00 +0.0000000000e+00 +2.4296168720e+03 2.4296168720e+03 0.0000000000e+00 0.0000e+00 1.0000e+00
       -2 -1    0    0    0  501 -0.0000000000e+00 -0.0000000000e+00 -1.1404029055e+03 1.1404029055e+03 0.0000000000e+00 0.0000e+00 -1.0000e+00
      -13  1    1    2    0    0 -8.4200701296e+02 +8.1349821245e+02 -6.2422632593e+02 1.3268058100e+03 0.0000000000e+00 0.0000e+00 -1.0000e+00
       13  1    1    2    0    0 +8.4200701296e+02 -8.1349821245e+02 +1.9134402924e+03 2.2432139675e+03 0.0000000000e+00 0.0000e+00 1.0000e+00
<mgrwt>
<rscale>  0 0.33291093E+04</rscale>
<asrwt>0</asrwt>
<pdfrwt beam="1">  1        2 0.37378721E+00 0.33291093E+04</pdfrwt>
<pdfrwt beam="2">  1       -2 0.17544660E+00 0.33291093E+04</pdfrwt>
<totfact> 0.71610315E-01</totfact>
</mgrwt>
<rwgt>
<wgt id='morphing_basis_vector_1'> +3.3379201e-05 </wgt>
<wgt id='morphing_basis_vector_2'> +2.2641116e-05 </wgt>
<wgt id='morphing_basis_vector_3'> +3.6505542e-05 </wgt>
<wgt id='morphing_basis_vector_4'> +2.6048467e-05 </wgt>
<wgt id='morphing_basis_vector_5'> +4.1644870e-05 </wgt>
</rwgt>
</event>
<event>
 4      1 +1.9882500e-09 3.29213600e+03 7.81860800e-03 7.68254100e-02
        2 -1    0    0  501    0 +0.0000000000e+00 +0.0000000000e+00 +2.0540292234e+03 2.0540292234e+03 0.0000000000e+00 0.0000e+00 1.0000e+00
       -2 -1    0    0    0  501 -0.0000000000e+00 -0.0000000000e+00 -1.3191342932e+03 1.3191342932e+03 0.0000000000e+00 0.0000e+00 -1.0000e+00
      -13  1    1    2    0    0 +1.2509675257e+03 +4.9598561789e+02 -6.0383905097e+02 1.4749722313e+03 0.0000000000e+00 0.0000e+00 -1.0000e+00
       13  1    1    2    0    0 -1.2509675257e+03 -4.9598561789e+02 +1.3387339811e+03 1.8981912853e+03 0.0000000000e+00 0.0000e+00 1.0000e+00
<mgrwt>
<rscale>  0 0.32921363E+04</rscale>
<asrwt>0</asrwt>
<pdfrwt beam="1">  1        2 0.31600450E+00 0.32921363E+04</pdfrwt>
<pdfrwt beam="2">  1       -2 0.20294374E+00 0.32921363E+04</pdfrwt>
<totfact> 0.73774752E-01</totfact>
</mgrwt>
<rwgt>
<wgt id='morphing_basis_vector_1'> +3.1987965e-05 </wgt>
<wgt id='morphing_basis_vector_2'> +2.1820923e-05 </wgt>
<wgt id='morphing_basis_vector_3'> +3.5000609e-05 </wgt>
<wgt id='morphing_basis_vector_4'> +2.4784341e-05 </wgt>
<wgt id='morphing_basis_vector_5'> +3.9802753e-05 </wgt>
</rwgt>
</event>
<event>
 4      1 +1.9882500e-09 3.22769200e+03 7.81860800e-03 7.69724800e-02
        2 -1    0    0  501    0 +0.0000000000e+00 +0.0000000000e+00 +8.5407608975e+02 8.5407608975e+02 0.0000000000e+00 0.0000e+00 -1.0000e+00
       -2 -1    0    0    0  501 -0.0000000000e+00 -0.0000000000e+00 -3.0494937227e+03 3.0494937227e+03 0.0000000000e+00 0.0000e+00 1.0000e+00
      -13  1    1    2    0    0 -4.8673007428e+02 -9.4466241307e+02 +3.7120460976e+02 1.1256491914e+03 0.0000000000e+00 0.0000e+00 -1.0000e+00
       13  1    1    2    0    0 +4.8673007428e+02 +9.4466241307e+02 -2.5666222428e+03 2.7779206211e+03 0.0000000000e+00 0.0000e+00 1.0000e+00
<mgrwt>
<rscale>  0 0.32276925E+04</rscale>
<asrwt>0</asrwt>
<pdfrwt beam="1">  1        2 0.13139632E+00 0.32276925E+04</pdfrwt>
<pdfrwt beam="2">  1       -2 0.46915288E+00 0.32276925E+04</pdfrwt>
<totfact> 0.58239169E-02</totfact>
</mgrwt>
<rwgt>
<wgt id='morphing_basis_vector_1'> +3.8742700e-05 </wgt>
<wgt id='morphing_basis_vector_2'> +4.7153924e-05 </wgt>
<wgt id='morphing_basis_vector_3'> +4.6803277e-05 </wgt>
<wgt id='morphing_basis_vector_4'> +3.7025128e-06 </wgt>
<wgt id='morphing_basis_vector_5'> +3.5171324e-05 </wgt>
</rwgt>
</event>
<event>
 4      1 +1.9882500e-09 3.82961500e+03 7.81860800e-03 7.57195300e-02
        2 -1    0    0  501    0 +0.0000000000e+00 +0.0000000000e+00 +2.1767507798e+03 2.1767507798e+03 0.0000000000e+00 0.0000e+00 -1.0000e+00
       -2 -1    0    0    0  501 -0.0000000000e+00 -0.0000000000e+00 -1.6843856301e+03 1.6843856301e+03 0.0000000000e+00 0.0000e+00 1.0000e+00
      -13  1    1    2    0    0 +1.6797873928e+02 -1.0817232474e+03 +1.8301470143e+03 2.1325524928e+03 0.0000000000e+00 0.0000e+00 1.0000e+00
       13  1    1    2    0    0 -1.6797873928e+02 +1.0817232474e+03 -1.3377818647e+03 1.7285839171e+03 0.0000000000e+00 0.0000e+00 -1.0000e+00
<mgrwt>
<rscale>  0 0.38296150E+04</rscale>
<asrwt>0</asrwt>
<pdfrwt beam="1">  1        2 0.33488474E+00 0.38296150E+04</pdfrwt>
<pdfrwt beam="2">  1       -2 0.25913625E+00 0.38296150E+04</pdfrwt>
<totfact> 0.24190791E-01</totfact>
</mgrwt>
<rwgt>
<wgt id='morphing_basis_vector_1'> +7.7993656e-05 </wgt>
<wgt id='morphing_basis_vector_2'> +9.7668030e-05 </wgt>
<wgt id='morphing_basis_vector_3'> +9.5513185e-05 </wgt>
<wgt id='morphing_basis_vector_4'> +4.0618165e-06 </wgt>
<wgt id='morphing_basis_vector_5'> +6.9710662e-05 </wgt>
</rwgt>
</event>
<event>
 4      1 +1.9882500e-09 3.59691800e+03 7.81860800e-03 7.61739000e-02
        2 -1    0    0  501    0 +0.0000000000e+00 +0.0000000000e+00 +3.7364855283e+03 3.7364855283e+03 0.0000000000e+00 0.0000e+00 1.0000e+00
       -2 -1    0    0    0  501 -0.0000000000e+00 -0.0000000000e+00 -8.6564078510e+02 8.6564078510e+02 0.0000000000e+00 0.0000e+00 -1.0000e+00
      -13  1    1    2    0    0 -1.2688036691e+03 +1.2597406837e+03 +1.1871769479e+03 2.1462055928e+03 0.0000000000e+00 0.0000e+00 -1.0000e+00
       13  1    1    2    0    0 +1.2688036691e+03 -1.2597406837e+03 +1.6836677953e+03 2.4559207206e+03 0.0000000000e+00 0.0000e+00 1.0000e+00
<mgrwt>
<rscale>  0 0.35969177E+04</rscale>
<asrwt>0</asrwt>
<pdfrwt beam="1">  1        2 0.57484392E+00 0.35969177E+04</pdfrwt>
<pdfrwt beam="2">  1       -2 0.13317551E+00 0.35969177E+04</pdfrwt>
<totfact> 0.20636023E-01</totfact>
</mgrwt>
<rwgt>
<wgt id='morphing_basis_vector_1'> +4.6457752e-05 </wgt>
<wgt id='morphing_basis_vector_2'> +3.3966088e-05 </wgt>
<wgt id='morphing_basis_vector_3'> +5.1439547e-05 </wgt>
<wgt id='morphing_basis_vector_4'> +3.3321877e-05 </wgt>
<wgt id='morphing_basis_vector_5'> +5.6681228e-05 </wgt>
</rwgt>
</event>
<event>
 4      1 +1.9882500e-09 3.62916100e+03 7.81860800e-03 7.61088800e-02
        2 -1    0    0  501    0 +0.0000000000e+00 +0.0000000000e+00 +2.2688185216e+03 2.2688185216e+03 0.0000000000e+00 0.0000e+00 -1.0000e+00
       -2 -1    0    0    0  501 -0.0000000000e+00 -0.0000000000e+00 -1.4512854417e+03 1.4512854417e+03 0.0000000000e+00 0.0000e+00 1.0000e+00
      -13  1    1    2    0    0 -1.4680037966e+02 +1.4440047861e+03 -7.0756115074e+02 1.6147268982e+03 0.0000000000e+00 0.0000e+00 1.0000e+00
       13  1    1    2    0    0 +1.4680037966e+02 -1.4440047861e+03 +1.5250942306e+03 2.1053770651e+03 0.0000000000e+00 0.0000e+00 -1.0000e+00
<mgrwt>
<rscale>  0 0.36291615E+04</rscale>
<asrwt>0</asrwt>
<pdfrwt beam="1">  1        2 0.34904900E+00 0.36291615E+04</pdfrwt>
<pdfrwt beam="2">  1       -2 0.22327468E+00 0.36291615E+04</pdfrwt>
<totfact> 0.38684781E-01</totfact>
</mgrwt>
<rwgt>
<wgt id='morphing_basis_vector_1'> +4.7093951e-05 </wgt>
<wgt id='morphing_basis_vector_2'> +3.2133996e-05 </wgt>
<wgt id='morphing_basis_vector_3'> +5.1649496e-05 </wgt>
<wgt id='morphing_basis_vector_4'> +3.6733357e-05 </wgt>
<wgt id='morphing_basis_vector_5'> +5.8935883e-05 </wgt>
</rwgt>
</event>
<event>
 4      1 +1.9882500e-09 3.21877900e+03 7.81860800e-03 7.69931100e-02
        2 -1    0    0  501    0 +0.0000000000e+00 +0.0000000000e+00 +1.3100481682e+03 1.3100481682e+03 0.0000000000e+00 0.0000e+00 -1.0000e+00
       -2 -1    0    0    0  501 -0.0000000000e+00 -0.0000000000e+00 -1.9771287510e+03 1.9771287510e+03 0.0000000000e+00 0.0000e+00 1.0000e+00
      -13  1    1    2    0    0 -9.2566121350e+02 -1.0314974200e+03 -1.1690314004e+03 1.8131381704e+03 0.0000000000e+00 0.0000e+00 1.0000e+00
       13  1    1    2    0    0 +9.2566121350e+02 +1.0314974200e+03 +5.0195081763e+02 1.4740387488e+03 0.0000000000e+00 0.0000e+00 -1.0000e+00
<mgrwt>
<rscale>  0 0.32187786E+04</rscale>
<asrwt>0</asrwt>
<pdfrwt beam="1">  1        2 0.20154587E+00 0.32187786E+04</pdfrwt>
<pdfrwt beam="2">  1       -2 0.30417365E+00 0.32187786E+04</pdfrwt>
<totfact> 0.38505140E-01</totfact>
</mgrwt>
<rwgt>
<wgt id='morphing_basis_vector_1'> +2.9290535e-05 </wgt>
<wgt id='morphing_basis_vector_2'> +2.0061860e-05 </wgt>
<wgt id='morphing_basis_vector_3'> +3.2047301e-05 </wgt>
<wgt id='morphing_basis_vector_4'> +2.2550572e-05 </wgt>
<wgt id='morphing_basis_vector_5'> +3.6340501e-05 </wgt>
</rwgt>
</event>
<event>
 4      1 +1.9882500e-09 3.41360000e+03 7.81860800e-03 7.65574000e-02
        2 -1    0    0  501    0 +0.0000000000e+00 +0.0000000000e+00 +1.5680561056e+03 1.5680561056e+03 0.0000000000e+00 0.0000e+00 -1.0000e+00
       -2 -1    0    0    0  501 -0.0000000000e+00 -0.0000000000e+00 -1.8578199926e+03 1.8578199926e+03 0.0000000000e+00 0.0000e+00 1.0000e+00
      -13  1    1    2    0    0 -4.0762711306e+02 -1.1132863707e+03 -1.3771410737e+03 1.8171637085e+03 0.0000000000e+00 0.0000e+00 1.0000e+00
       13  1    1    2    0    0 +4.0762711306e+02 +1.1132863707e+03 +1.0873771867e+03 1.6087123897e+03 0.0000000000e+00 0.0000e+00 -1.0000e+00
<mgrwt>
<rscale>  0 0.34135998E+04</rscale>
<asrwt>0</asrwt>
<pdfrwt beam="1">  1        2 0.24123940E+00 0.34135998E+04</pdfrwt>
<pdfrwt beam="2">  1       -2 0.28581846E+00 0.34135998E+04</pdfrwt>
<totfact> 0.36086415E-01</totfact>
</mgrwt>
<rwgt>
<wgt id='morphing_basis_vector_1'> +3.6869448e-05 </wgt>
<wgt id='morphing_basis_vector_2'> +2.5012804e-05 </wgt>
<wgt id='morphing_basis_vector_3'> +4.0348435e-05 </wgt>
<wgt id='morphing_basis_vector_4'> +2.8820986e-05 </wgt>
<wgt id='morphing_basis_vector_5'> +4.6069060e-05 </wgt>
</rwgt>
</event>
<event>
 4      1 +1.9882500e-09 3.37360600e+03 7.81860800e-03 7.66443700e-02
        2 -1    0    0  501    0 +0.0000000000e+00 +0.0000000000e+00 +2.5800272757e+03 2.5800272757e+03 0.0000000000e+00 0.0000e+00 1.0000e+00
       -2 -1    0    0    0  501 -0.0000000000e+00 -0.0000000000e+00 -1.1028193028e+03 1.1028193028e+03 0.0000000000e+00 0.0000e+00 -1.0000e+00
      -13  1    1    2    0    0 -7.8562478141e+02 -4.8647318419e+02 +2.2791443151e+03 2.4593416324e+03 0.0000000000e+00 0.0000e+00 1.0000e+00
       13  1    1    2    0    0 +7.8562478141e+02 +4.8647318419e+02 -8.0193634214e+02 1.2235049460e+03 0.0000000000e+00 0.0000e+00 -1.0000e+00
<mgrwt>
<rscale>  0 0.33736057E+04</rscale>
<asrwt>0</asrwt>
<pdfrwt beam="1">  1        2 0.39692727E+00 0.33736057E+04</pdfrwt>
<pdfrwt beam="2">  1       -2 0.16966451E+00 0.33736057E+04</pdfrwt>
<totfact> 0.64310187E-01</totfact>
</mgrwt>
<rwgt>
<wgt id='morphing_basis_vector_1'> +4.7301489e-05 </wgt>
<wgt id='morphing_basis_vector_2'> +5.9520135e-05 </wgt>
<wgt id='morphing_basis_vector_3'> +5.7685292e-05 </wgt>
<wgt id='morphing_basis_vector_4'> +2.0632209e-06 </wgt>
<wgt id='morphing_basis_vector_5'> +4.1830351e-05 </wgt>
</rwgt>
</event>
<event>
 4      1 +1.9882500e-09 3.51453100e+03 7.81860800e-03 7.63432800e-02
        2 -1    0    0  501    0 +0.0000000000e+00 +0.0000000000e+00 +3.5798806683e+03 3.5798806683e+03 0.0000000000e+00 0.0000e+00 1.0000e+00
       -2 -1    0    0    0  501 -0.0000000000e+00 -0.0000000000e+00 -8.6259372981e+02 8.6259372981e+02 0.0000000000e+00 0.0000e+00 -1.0000e+00
      -13  1    1    2    0    0 +1.2639713788e+03 -7.0947527244e+02 +1.0285373395e+02 1.4531199879e+03 0.0000000000e+00 0.0000e+00 -1.0000e+00
       13  1    1    2    0    0 -1.2639713788e+03 +7.0947527244e+02 +2.6144332045e+03 2.9893544102e+03 0.0000000000e+00 0.0000e+00 1.0000e+00
<mgrwt>
<rscale>  0 0.35145313E+04</rscale>
<asrwt>0</asrwt>
<pdfrwt beam="1">  1        2 0.55075087E+00 0.35145313E+04</pdfrwt>
<pdfrwt beam="2">  1       -2 0.13270673E+00 0.35145313E+04</pdfrwt>
<totfact> 0.27643816E-01</totfact>
</mgrwt>
<rwgt>
<wgt id='morphing_basis_vector_1'> +4.1478468e-05 </wgt>
<wgt id='morphing_basis_vector_2'> +2.8343512e-05 </wgt>
<wgt id='morphing_basis_vector_3'> +4.5467669e-05 </wgt>
<wgt id='morphing_basis_vector_4'> +3.2231232e-05 </wgt>
<wgt id='morphing_basis_vector_5'> +5.1789440e-05 </wgt>
</rwgt>
</event>
<event>
 4      1 +1.9882500e-09 3.67137000e+03 7.81860800e-03 7.60247900e-02
        2 -1    0    0  501    0 +0.0000000000e+00 +0.0000000000e+00 +1.6236888090e+03 1.6236888090e+03 0.0000000000e+00 0.0000e+00 1.0000e+00
       -2 -1    0    0    0  501 -0.0000000000e+00 -0.0000000000e+00 -2.0753602114e+03 2.0753602114e+03 0.0000000000e+00 0.0000e+00 -1.0000e+00
      -13  1    1    2    0    0 +6.0500978447e+02 +1.0865965755e+03 -1.5862039838e+03 2.0156319196e+03 0.0000000000e+00 0.0000e+00 -1.0000e+00
       13  1    1    2    0    0 -6.0500978447e+02 -1.0865965755e+03 +1.1345325813e+03 1.6834171008e+03 0.0000000000e+00 0.0000e+00 1.0000e+00
<mgrwt>
<rscale>  0 0.36713699E+04</rscale>
<asrwt>0</asrwt>
<pdfrwt beam="1">  1        2 0.24979828E+00 0.36713699E+04</pdfrwt>
<pdfrwt beam="2">  1       -2 0.31928619E+00 0.36713699E+04</pdfrwt>
<totfact> 0.19589933E-01</totfact>
</mgrwt>
<rwgt>
<wgt id='morphing_basis_vector_1'> +4.9231335e-05 </wgt>
<wgt id='morphing_basis_vector_2'> +3.3421981e-05 </wgt>
<wgt id='morphing_basis_vector_3'> +5.3969212e-05 </wgt>
<wgt id='morphing_basis_vector_4'> +3.8646963e-05 </wgt>
<wgt id='morphing_basis_vector_5'> +6.1756536e-05 </wgt>
</rwgt>
</event>
<event>
 4      1 +1.9882500e-09 3.34501100e+03 7.81860800e-03 7.67073000e-02
        2 -1    0    0  501    0 +0.0000000000e+00 +0.0000000000e+00 +3.1282868783e+03 3.1282868783e+03 0.0000000000e+00 0.0000e+00 1.0000e+00
       -2 -1    0    0    0  501 -0.0000000000e+00 -0.0000000000e+00 -8.9418732584e+02 8.9418732584e+02 0.0000000000e+00 0.0000e+00 -1.0000e+00
      -13  1    1    2    0    0 -7.8935734241e+02 -1.6664465379e+02 -6.4473553575e+02 1.0327339278e+03 0.0000000000e+00 0.0000e+00 -1.0000e+00
       13  1    1    2    0    0 +7.8935734241e+02 +1.6664465379e+02 +2.8788350882e+03 2.9897402763e+03 0.0000000000e+00 0.0000e+00 1.0000e+00
<mgrwt>
<rscale>  0 0.33450109E+04</rscale>
<asrwt>0</asrwt>
<pdfrwt beam="1">  1        2 0.48127490E+00 0.33450109E+04</pdfrwt>
<pdfrwt beam="2">  1       -2 0.13756728E+00 0.33450109E+04</pdfrwt>
<totfact> 0.52975640E-01</totfact>
</mgrwt>
<rwgt>
<wgt id='morphing_basis_vector_1'> +3.3983349e-05 </wgt>
<wgt id='morphing_basis_vector_2'> +2.2977168e-05 </wgt>
<wgt id='morphing_basis_vector_3'> +3.7154791e-05 </wgt>
<wgt id='morphing_basis_vector_4'> +2.6623330e-05 </wgt>
<wgt id='morphing_basis_vector_5'> +4.2457840e-05 </wgt>
</rwgt>
</event>
<event>
 4      1 +1.9882500e-09 3.68382800e+03 7.81860800e-03 7.60001900e-02
        2 -1    0    0  501    0 +0.0000000000e+00 +0.0000000000e+00 +2.3192385362e+03 2.3192385362e+03 0.0000000000e+00 0.0000e+00 1.0000e+00
       -2 -1    0    0    0  501 -0.0000000000e+00 -0.0000000000e+00 -1.4628279452e+03 1.4628279452e+03 0.0000000000e+00 0.0000e+00 -1.0000e+00
      -13  1    1    2    0    0 +1.1765637472e+03 -1.4152993503e+03 +5.0275323587e+02 1.9079138656e+03 0.0000000000e+00 0.0000e+00 -1.0000e+00
       13  1    1    2    0    0 -1.1765637472e+03 +1.4152993503e+03 +3.5365735513e+02 1.8741526157e+03 0.0000000000e+00 0.0000e+00 1.0000e+00
<mgrwt>
<rscale>  0 0.36838279E+04</rscale>
<asrwt>0</asrwt>
<pdfrwt beam="1">  1        2 0.35680593E+00 0.36838279E+04</pdfrwt>
<pdfrwt beam="2">  1       -2 0.22505045E+00 0.36838279E+04</pdfrwt>
<totfact> 0.34978216E-01</totfact>
</mgrwt>
<rwgt>
<wgt id='morphing_basis_vector_1'> +5.1962216e-05 </wgt>
<wgt id='morphing_basis_vector_2'> +3.9944521e-05 </wgt>
<wgt id='morphing_basis_vector_3'> +5.7997017e-05 </wgt>
<wgt id='morphing_basis_vector_4'> +3.4828659e-05 </wgt>
<wgt id='morphing_basis_vector_5'> +6.2242861e-05 </wgt>
</rwgt>
</event>
<event>
 4      1 +1.9882500e-09 3.21948900e+03 7.81860800e-03 7.69914600e-02
        2 -1    0    0  501    0 +0.0000000000e+00 +0.0000000000e+00 +1.5025634747e+03 1.5025634747e+03 0.0000000000e+00 0.0000e+00 1.0000e+00
       -2 -1    0    0    0  501 -0.0000000000e+00 -0.0000000000e+00 -1.7245710709e+03 1.7245710709e+03 0.0000000000e+00 0.0000e+00 -1.0000e+00
      -13  1    1    2    0    0 +8.4430520683e+02 +5.1613139570e+02 -1.3836781569e+03 1.7011196730e+03 0.0000000000e+00 0.0000e+00 -1.0000e+00
       13  1    1    2    0    0 -8.4430520683e+02 -5.1613139570e+02 +1.1616705607e+03 1.5260148726e+03 0.0000000000e+00 0.0000e+00 1.0000e+00
<mgrwt>
<rscale>  0 0.32194891E+04</rscale>
<asrwt>0</asrwt>
<pdfrwt beam="1">  1        2 0.23116361E+00 0.32194891E+04</pdfrwt>
<pdfrwt beam="2">  1       -2 0.26531863E+00 0.32194891E+04</pdfrwt>
<totfact> 0.55062278E-01</totfact>
</mgrwt>
<rwgt>
<wgt id='morphing_basis_vector_1'> +2.9207744e-05 </wgt>
<wgt id='morphing_basis_vector_2'> +1.9760287e-05 </wgt>
<wgt id='morphing_basis_vector_3'> +3.1904560e-05 </wgt>
<wgt id='morphing_basis_vector_4'> +2.2797531e-05 </wgt>
<wgt id='morphing_basis_vector_5'> +3.6391569e-05 </wgt>
</rwgt>
</event>
<event>
 4      1 +1.9882500e-09 3.34706300e+03 7.81860800e-03 7.67027700e-02
        2 -1    0    0  501    0 +0.0000000000e+00 +0.0000000000e+00 +2.5630240944e+03 2.5630240944e+03 0.0000000000e+00 0.0000e+00 1.0000e+00
       -2 -1    0    0    0  501 -0.0000000000e+00 -0.0000000000e+00 -1.0927358294e+03 1.0927358294e+03 0.0000000000e+00 0.0000e+00 -1.0000e+00
      -13  1    1    2    0    0 +9.3909582599e+02 -1.0208603639e+03 +1.7577945566e+03 2.2391736325e+03 0.0000000000e+00 0.0000e+00 1.0000e+00
       13  1    1    2    0    0 -9.3909582599e+02 +1.0208603639e+03 -2.8750629158e+02 1.4165862913e+03 0.0000000000e+00 0.0000e+00 -1.0000e+00
<mgrwt>
<rscale>  0 0.33470633E+04</rscale>
<asrwt>0</asrwt>
<pdfrwt beam="1">  1        2 0.39431140E+00 0.33470633E+04</pdfrwt>
<pdfrwt beam="2">  1       -2 0.16811320E+00 0.33470633E+04</pdfrwt>
<totfact> 0.67859135E-01</totfact>
</mgrwt>
<rwgt>
<wgt id='morphing_basis_vector_1'> +4.1379735e-05 </wgt>
<wgt id='morphing_basis_vector_2'> +4.4553879e-05 </wgt>
<wgt id='morphing_basis_vector_3'> +4.8821771e-05 </wgt>
<wgt id='morphing_basis_vector_4'> +1.1353397e-05 </wgt>
<wgt id='morphing_basis_vector_5'> +4.1294719e-05 </wgt>
</rwgt>
</event>
<event>
 4      1 +1.9882500e-09 3.30660600e+03 7.81860800e-03 7.67928600e-02
        2 -1    0    0  501    0 +0.0000000000e+00 +0.0000000000e+00 +1.8012863511e+03 1.8012863511e+03 0.0000000000e+00 0.0000e+00 1.0000e+00
       -2 -1    0    0    0  501 -0.0000000000e+00 -0.0000000000e+00 -1.5174769985e+03 1.5174769985e+03 0.0000000000e+00 0.0000e+00 -1.0000e+00
      -13  1    1    2    0    0 -8.6217494282e+02 -1.0763166337e+03 +1.0571827213e+03 1.7376531398e+03 0.0000000000e+00 0.0000e+00 1.0000e+00
       13  1    1    2    0    0 +8.6217494282e+02 +1.0763166337e+03 -7.7337336870e+02 1.5811102098e+03 0.0000000000e+00 0.0000e+00 -1.0000e+00
<mgrwt>
<rscale>  0 0.33066059E+04</rscale>
<asrwt>0</asrwt>
<pdfrwt beam="1">  1        2 0.27712098E+00 0.33066059E+04</pdfrwt>
<pdfrwt beam="2">  1       -2 0.23345800E+00 0.33066059E+04</pdfrwt>
<totfact> 0.61913315E-01</totfact>
</mgrwt>
<rwgt>
<wgt id='morphing_basis_vector_1'> +3.9294471e-05 </wgt>
<wgt id='morphing_basis_vector_2'> +4.2054321e-05 </wgt>
<wgt id='morphing_basis_vector_3'> +4.6283211e-05 </wgt>
<wgt id='morphing_basis_vector_4'> +1.1093144e-05 </wgt>
<wgt id='morphing_basis_vector_5'> +3.9344357e-05 </wgt>
</rwgt>
</event>
<event>
 4      1 +1.9882500e-09 3.59408600e+03 7.81860800e-03 7.61796500e-02
        2 -1    0    0  501    0 +0.0000000000e+00 +0.0000000000e+00 +2.1099428504e+03 2.1099428504e+03 0.0000000000e+00 0.0000e+00 1.0000e+00
       -2 -1    0    0    0  501 -0.0000000000e+00 -0.0000000000e+00 -1.5305452231e+03 1.5305452231e+03 0.0000000000e+00 0.0000e+00 -1.0000e+00
      -13  1    1    2    0    0 -3.5448558768e+02 +4.3310281553e+02 -1.4400149695e+03 1.5449534598e+03 0.0000000000e+00 0.0000e+00 -1.0000e+00
       13  1    1    2    0    0 +3.5448558768e+02 -4.3310281553e+02 +2.0194125968e+03 2.0955346136e+03 0.0000000000e+00 0.0000e+00 1.0000e+00
<mgrwt>
<rscale>  0 0.35940857E+04</rscale>
<asrwt>0</asrwt>
<pdfrwt beam="1">  1        2 0.32460659E+00 0.35940857E+04</pdfrwt>
<pdfrwt beam="2">  1       -2 0.23546850E+00 0.35940857E+04</pdfrwt>
<totfact> 0.39269973E-01</totfact>
</mgrwt>
<rwgt>
<wgt id='morphing_basis_vector_1'> +4.5197394e-05 </wgt>
<wgt id='morphing_basis_vector_2'> +3.0579764e-05 </wgt>
<wgt id='morphing_basis_vector_3'> +4.9502011e-05 </wgt>
<wgt id='morphing_basis_vector_4'> +3.5563796e-05 </wgt>
<wgt id='morphing_basis_vector_5'> +5.6696593e-05 </wgt>
</rwgt>
</event>
<event>
 4      1 +1.9882500e-09 3.28088200e+03 7.81860800e-03 7.68508400e-02
        2 -1    0    0  501    0 +0.0000000000e+00 +0.0000000000e+00 +2.5624877967e+03 2.5624877967e+03 0.0000000000e+00 0.0000e+00 -1.0000e+00
       -2 -1    0    0    0  501 -0.0000000000e+00 -0.0000000000e+00 -1.0501697845e+03 1.0501697845e+03 0.0000000000e+00 0.0000e+00 1.0000e+00
      -13  1    1    2    0    0 -9.0350010559e+01 +5.5719428087e+02 -9.3986426954e+02 1.0963454913e+03 0.0000000000e+00 0.0000e+00 1.0000e+00
       13  1    1    2    0    0 +9.0350010559e+01 -5.5719428087e+02 +2.4521822818e+03 2.5163120900e+03 0.0000000000e+00 0.0000e+00 -1.0000e+00
<mgrwt>
<rscale>  0 0.32808824E+04</rscale>
<asrwt>0</asrwt>
<pdfrwt beam="1">  1        2 0.39422889E+00 0.32808824E+04</pdfrwt>
<pdfrwt beam="2">  1       -2 0.16156458E+00 0.32808824E+04</pdfrwt>
<totfact> 0.76905087E-01</totfact>
</mgrwt>
<rwgt>
<wgt id='morphing_basis_vector_1'> +3.1465134e-05 </wgt>
<wgt id='morphing_basis_vector_2'> +2.1257335e-05 </wgt>
<wgt id='morphing_basis_vector_3'> +3.4381007e-05 </wgt>
<wgt id='morphing_basis_vector_4'> +2.4635259e-05 </wgt>
<wgt id='morphing_basis_vector_5'> +3.9273058e-05 </wgt>
</rwgt>
</event>
<event>
 4      1 +1.9882500e-09 3.64385300e+03 7.81860800e-03 7.60794800e-02
        2 -1    0    0  501    0 +0.0000000000e+00 +0.0000000000e+00 +1.9570311623e+03 1.9570311623e+03 0.0000000000e+00 0.0000e+00 1.0000e+00
       -2 -1    0    0    0  501 -0.0000000000e+00 -0.0000000000e+00 -1.6961484873e+03 1.6961484873e+03 0.0000000000e+00 0.0000e+00 -1.0000e+00
      -13  1    1    2    0    0 -1.0955384083e+03 -1.0442800331e+03 -8.8639847387e+02 1.7539747564e+03 0.0000000000e+00 0.0000e+00 -1.0000e+00
       13  1    1    2    0    0 +1.0955384083e+03 +1.0442800331e+03 +1.1472811489e+03 1.8992048931e+03 0.0000000000e+00 0.0000e+00 1.0000e+00
<mgrwt>
<rscale>  0 0.36438526E+04</rscale>
<asrwt>0</asrwt>
<pdfrwt beam="1">  1        2 0.30108172E+00 0.36438526E+04</pdfrwt>
<pdfrwt beam="2">  1       -2 0.26094592E+00 0.36438526E+04</pdfrwt>
<totfact> 0.31780699E-01</totfact>
</mgrwt>
<rwgt>
<wgt id='morphing_basis_vector_1'> +4.7892153e-05 </wgt>
<wgt id='morphing_basis_vector_2'> +3.2761419e-05 </wgt>
<wgt id='morphing_basis_vector_3'> +5.2547640e-05 </wgt>
<wgt id='morphing_basis_vector_4'> +3.7259919e-05 </wgt>
<wgt id='morphing_basis_vector_5'> +5.9895557e-05 </wgt>
</rwgt>
</event>
<event>
 4      1 +1.9882500e-09 3.28070800e+03 7.81860800e-03 7.68512400e-02
        2 -1    0    0  501    0 +0.0000000000e+00 +0.0000000000e+00 +2.7937853121e+03 2.7937853121e+03 0.0000000000e+00 0.0000e+00 1.0000e+00
       -2 -1    0    0    0  501 -0.0000000000e+00 -0.0000000000e+00 -9.6312367005e+02 9.6312367005e+02 0.0000000000e+00 0.0000e+00 -1.0000e+00
      -13  1    1    2    0    0 -1.2227413340e+02 +6.5416124810e+02 -8.0158883605e+02 1.0418361504e+03 0.0000000000e+00 0.0000e+00 -1.0000e+00
       13  1    1    2    0    0 +1.2227413340e+02 -6.5416124810e+02 +2.6322504781e+03 2.7150728317e+03 0.0000000000e+00 0.0000e+00 1.0000e+00
<mgrwt>
<rscale>  0 0.32807077E+04</rscale>
<asrwt>0</asrwt>
<pdfrwt beam="1">  1        2 0.42981312E+00 0.32807077E+04</pdfrwt>
<pdfrwt beam="2">  1       -2 0.14817287E+00 0.32807077E+04</pdfrwt>
<totfact> 0.71273232E-01</totfact>
</mgrwt>
<rwgt>
<wgt id='morphing_basis_vector_1'> +3.1459802e-05 </wgt>
<wgt id='morphing_basis_vector_2'> +2.1256698e-05 </wgt>
<wgt id='morphing_basis_vector_3'> +3.4375771e-05 </wgt>
<wgt id='morphing_basis_vector_4'> +2.4627218e-05 </wgt>
<wgt id='morphing_basis_vector_5'> +3.9264407e-05 </wgt>
</rwgt>
</event>
<event>
 4      1 +1.9882500e-09 3.37778900e+03 7.81860800e-03 7.66352100e-02
        2 -1    0    0  501    0 +0.0000000000e+00 +0.0000000000e+00 +1.6639060865e+03 1.6639060865e+03 0.0000000000e+00 0.0000e+00 -1.0000e+00
       -2 -1    0    0    0  501 -0.0000000000e+00 -0.0000000000e+00 -1.7142581134e+03 1.7142581134e+03 0.0000000000e+00 0.0000e+00 1.0000e+00
      -13  1    1    2    0    0 +2.0320248108e+02 +4.5849656251e+02 -1.6380715790e+03 1.7131225421e+03 0.0000000000e+00 0.0000e+00 1.0000e+00
       13  1    1    2    0    0 -2.0320248108e+02 -4.5849656251e+02 +1.5877195521e+03 1.6650416578e+03 0.0000000000e+00 0.0000e+00 -1.0000e+00
<mgrwt>
<rscale>  0 0.33777889E+04</rscale>
<asrwt>0</asrwt>
<pdfrwt beam="1">  1        2 0.25598555E+00 0.33777889E+04</pdfrwt>
<pdfrwt beam="2">  1       -2 0.26373202E+00 0.33777889E+04</pdfrwt>
<totfact> 0.45296046E-01</totfact>
</mgrwt>
<rwgt>
<wgt id='morphing_basis_vector_1'> +3.5319568e-05 </wgt>
<wgt id='morphing_basis_vector_2'> +2.3872147e-05 </wgt>
<wgt id='morphing_basis_vector_3'> +3.8623140e-05 </wgt>
<wgt id='morphing_basis_vector_4'> +2.7701321e-05 </wgt>
<wgt id='morphing_basis_vector_5'> +4.4159743e-05 </wgt>
</rwgt>
</event>
<event>
 4      1 +1.9882500e-09 3.53501900e+03 7.81860800e-03 7.63007200e-02
        2 -1    0    0  501    0 +0.0000000000e+00 +0.0000000000e+00 +2.5363132801e+03 2.5363132801e+03 0.0000000000e+00 0.0000e+00 -1.0000e+00
       -2 -1    0    0    0  501 -0.0000000000e+00 -0.0000000000e+00 -1.2317443210e+03 1.2317443210e+03 0.0000000000e+00 0.0000e+00 1.0000e+00
      -13  1    1    2    0    0 +5.0502001331e+02 +1.3082612807e+03 -4.9451023739e+02 1.4869879513e+03 0.0000000000e+00 0.0000e+00 1.0000e+00
       13  1    1    2    0    0 -5.0502001331e+02 -1.3082612807e+03 +1.7990791965e+03 2.2810696498e+03 0.0000000000e+00 0.0000e+00 -1.0000e+00
<mgrwt>
<rscale>  0 0.35350188E+04</rscale>
<asrwt>0</asrwt>
<pdfrwt beam="1">  1        2 0.39020204E+00 0.35350188E+04</pdfrwt>
<pdfrwt beam="2">  1       -2 0.18949913E+00 0.35350188E+04</pdfrwt>
<totfact> 0.47628246E-01</totfact>
</mgrwt>
<rwgt>
<wgt id='morphing_basis_vector_1'> +4.2417127e-05 </wgt>
<wgt id='morphing_basis_vector_2'> +2.8918685e-05 </wgt>
<wgt id='morphing_basis_vector_3'> +4.6488234e-05 </wgt>
<wgt id='morphing_basis_vector_4'> +3.3058309e-05 </wgt>
<wgt id='morphing_basis_vector_5'> +5.3020841e-05 </wgt>
</rwgt>
</event>
<event>
 4      1 +1.9882500e-09 3.53612800e+03 7.81860800e-03 7.62984200e-02
        2 -1    0    0  501    0 +0.0000000000e+00 +0.0000000000e+00 +1.6945702486e+03 1.6945702486e+03 0.0000000000e+00 0.0000e+00 -1.0000e+00
       -2 -1    0    0    0  501 -0.0000000000e+00 -0.0000000000e+00 -1.8447451879e+03 1.8447451879e+03 0.0000000000e+00 0.0000e+00 1.0000e+00
      -13  1    1    2    0    0 +4.8839044636e+02 -1.6960628639e+03 -1.7956472552e+02 1.7740907409e+03 0.0000000000e+00 0.0000e+00 1.0000e+00
       13  1    1    2    0    0 -4.8839044636e+02 +1.6960628639e+03 +2.9389786197e+01 1.7652246956e+03 0.0000000000e+00 0.0000e+00 -1.0000e+00
<mgrwt>
<rscale>  0 0.35361280E+04</rscale>
<asrwt>0</asrwt>
<pdfrwt beam="1">  1        2 0.26070311E+00 0.35361280E+04</pdfrwt>
<pdfrwt beam="2">  1       -2 0.28380695E+00 0.35361280E+04</pdfrwt>
<totfact> 0.31348090E-01</totfact>
</mgrwt>
<rwgt>
<wgt id='morphing_basis_vector_1'> +4.3624198e-05 </wgt>
<wgt id='morphing_basis_vector_2'> +3.2349808e-05 </wgt>
<wgt id='morphing_basis_vector_3'> +4.8382040e-05 </wgt>
<wgt id='morphing_basis_vector_4'> +3.0672598e-05 </wgt>
<wgt id='morphing_basis_vector_5'> +5.2886583e-05 </wgt>
</rwgt>
</event>
<event>
 4      1 +1.9882500e-09 3.40692700e+03 7.81860800e-03 7.65718300e-02
        2 -1    0    0  501    0 +0.0000000000e+00 +0.0000000000e+00 +3.0128155768e+03 3.0128155768e+03 0.0000000000e+00 0.0000e+00 1.0000e+00
       -2 -1    0    0    0  501 -0.0000000000e+00 -0.0000000000e+00 -9.6314809249e+02 9.6314809249e+02 0.0000000000e+00 0.0000e+00 -1.0000e+00
      -13  1    1    2    0    0 -7.4781884195e+02 +1.5304976846e+03 +1.0114565255e+03 1.9810856836e+03 0.0000000000e+00 0.0000e+00 -1.0000e+00
       13  1    1    2    0    0 +7.4781884195e+02 -1.5304976846e+03 +1.0382109588e+03 1.9948779857e+03 0.0000000000e+00 0.0000e+00 1.0000e+00
<mgrwt>
<rscale>  0 0.34069268E+04</rscale>
<asrwt>0</asrwt>
<pdfrwt beam="1">  1        2 0.46351008E+00 0.34069268E+04</pdfrwt>
<pdfrwt beam="2">  1       -2 0.14817663E+00 0.34069268E+04</pdfrwt>
<totfact> 0.51071301E-01</totfact>
</mgrwt>
<rwgt>
<wgt id='morphing_basis_vector_1'> +3.7855362e-05 </wgt>
<wgt id='morphing_basis_vector_2'> +2.8558897e-05 </wgt>
<wgt id='morphing_basis_vector_3'> +4.2049481e-05 </wgt>
<wgt id='morphing_basis_vector_4'> +2.5926189e-05 </wgt>
<wgt id='morphing_basis_vector_5'> +4.5486569e-05 </wgt>
</rwgt>
</event>
<event>
 4      1 +1.9882500e-09 3.36708200e+03 7.81860800e-03 7.66586700e-02
        2 -1    0    0  501    0 +0.0000000000e+00 +0.0000000000e+00 +1.1473293559e+03 1.1473293559e+03 0.0000000000e+00 0.0000e+00 -1.0000e+00
       -2 -1    0    0    0  501 -0.0000000000e+00 -0.0000000000e+00 -2.4703551022e+03 2.4703551022e+03 0.0000000000e+00 0.0000e+00 1.0000e+00
      -13  1    1    2    0    0 -6.5329983626e+02 -1.5477582202e+03 -5.4403743333e+02 1.7658802092e+03 0.0000000000e+00 0.0000e+00 1.0000e+00
       13  1    1    2    0    0 +6.5329983626e+02 +1.5477582202e+03 -7.7898831293e+02 1.8518042489e+03 0.0000000000e+00 0.0000e+00 -1.0000e+00
<mgrwt>
<rscale>  0 0.33670824E+04</rscale>
<asrwt>0</asrwt>
<pdfrwt beam="1">  1        2 0.17651221E+00 0.33670824E+04</pdfrwt>
<pdfrwt beam="2">  1       -2 0.38005463E+00 0.33670824E+04</pdfrwt>
<totfact> 0.15057290E-01</totfact>
</mgrwt>
<rwgt>
<wgt id='morphing_basis_vector_1'> +3.6491364e-05 </wgt>
<wgt id='morphing_basis_vector_2'> +2.8321723e-05 </wgt>
<wgt id='morphing_basis_vector_3'> +4.0692483e-05 </wgt>
<wgt id='morphing_basis_vector_4'> +2.3963204e-05 </wgt>
<wgt id='morphing_basis_vector_5'> +4.3318536e-05 </wgt>
</rwgt>
</event>
<event>
 4      1 +1.9882500e-09 3.27547200e+03 7.81860800e-03 7.68631100e-02
        2 -1    0    0  501    0 +0.0000000000e+00 +0.0000000000e+00 +2.4824620174e+03 2.4824620174e+03 0.0000000000e+00 0.0000e+00 1.0000e+00
       -2 -1    0    0    0  501 -0.0000000000e+00 -0.0000000000e+00 -1.0804510180e+03 1.0804510180e+03 0.0000000000e+00 0.0000e+00 -1.0000e+00
      -13  1    1    2    0    0 +1.2134113139e+03 -1.0151734695e+03 +1.1615187080e+03 1.9626690753e+03 0.0000000000e+00 0.0000e+00 1.0000e+00
       13  1    1    2    0    0 -1.2134113139e+03 +1.0151734695e+03 +2.4049229138e+02 1.6002439602e+03 0.0000000000e+00 0.0000e+00 -1.0000e+00
<mgrwt>
<rscale>  0 0.32754716E+04</rscale>
<asrwt>0</asrwt>
<pdfrwt beam="1">  1        2 0.38191723E+00 0.32754716E+04</pdfrwt>
<pdfrwt beam="2">  1       -2 0.16622323E+00 0.32754716E+04</pdfrwt>
<totfact> 0.78938359E-01</totfact>
</mgrwt>
<rwgt>
<wgt id='morphing_basis_vector_1'> +3.4047321e-05 </wgt>
<wgt id='morphing_basis_vector_2'> +2.9322046e-05 </wgt>
<wgt id='morphing_basis_vector_3'> +3.8558309e-05 </wgt>
<wgt id='morphing_basis_vector_4'> +1.8633978e-05 </wgt>
<wgt id='morphing_basis_vector_5'> +3.8530491e-05 </wgt>
</rwgt>
</event>
<event>
 4      1 +1.9882500e-09 3.25872000e+03 7.81860800e-03 7.69012300e-02
        2 -1    0    0  501    0 +0.0000000000e+00 +0.0000000000e+00 +1.3122928953e+03 1.3122928953e+03 0.0000000000e+00 0.0000e+00 -1.0000e+00
       -2 -1    0    0    0  501 -0.0000000000e+00 -0.0000000000e+00 -2.0230352081e+03 2.0230352081e+03 0.0000000000e+00 0.0000e+00 1.0000e+00
      -13  1    1    2    0    0 -1.5277051353e+02 +4.6204707284e+02 -1.9469148448e+03 2.0068143263e+03 0.0000000000e+00 0.0000e+00 1.0000e+00
       13  1    1    2    0    0 +1.5277051353e+02 -4.6204707284e+02 +1.2361725319e+03 1.3285137771e+03 0.0000000000e+00 0.0000e+00 -1.0000e+00
<mgrwt>
<rscale>  0 0.32587204E+04</rscale>
<asrwt>0</asrwt>
<pdfrwt beam="1">  1        2 0.20189121E+00 0.32587204E+04</pdfrwt>
<pdfrwt beam="2">  1       -2 0.31123619E+00 0.32587204E+04</pdfrwt>
<totfact> 0.34313051E-01</totfact>
</mgrwt>
<rwgt>
<wgt id='morphing_basis_vector_1'> +3.0629335e-05 </wgt>
<wgt id='morphing_basis_vector_2'> +2.0688843e-05 </wgt>
<wgt id='morphing_basis_vector_3'> +3.3461038e-05 </wgt>
<wgt id='morphing_basis_vector_4'> +2.3972791e-05 </wgt>
<wgt id='morphing_basis_vector_5'> +3.8215005e-05 </wgt>
</rwgt>
</event>
<event>
 4      1 +1.9882500e-09 3.30790300e+03 7.81860800e-03 7.67899500e-02
        2 -1    0    0  501    0 +0.0000000000e+00 +0.0000000000e+00 +2.0733643999e+03 2.0733643999e+03 0.0000000000e+00 0.0000e+00 1.0000e+00
       -2 -1    0    0    0  501 -0.0000000000e+00 -0.0000000000e+00 -1.3193796776e+03 1.3193796776e+03 0.0000000000e+00 0.0000e+00 -1.0000e+00
      -13  1    1    2    0    0 +1.4350249390e+03 -2.1165303016e+02 -4.3803418024e+02 1.5152450375e+03 0.0000000000e+00 0.0000e+00 -1.0000e+00
       13  1    1    2    0    0 -1.4350249390e+03 +2.1165303016e+02 +1.1920189026e+03 1.8774990399e+03 0.0000000000e+00 0.0000e+00 1.0000e+00
<mgrwt>
<rscale>  0 0.33079026E+04</rscale>
<asrwt>0</asrwt>
<pdfrwt beam="1">  1        2 0.31897914E+00 0.33079026E+04</pdfrwt>
<pdfrwt beam="2">  1       -2 0.20298149E+00 0.33079026E+04</pdfrwt>
<totfact> 0.71800146E-01</totfact>
</mgrwt>
<rwgt>
<wgt id='morphing_basis_vector_1'> +3.2666313e-05 </wgt>
<wgt id='morphing_basis_vector_2'> +2.2434398e-05 </wgt>
<wgt id='morphing_basis_vector_3'> +3.5779706e-05 </wgt>
<wgt id='morphing_basis_vector_4'> +2.5128005e-05 </wgt>
<wgt id='morphing_basis_vector_5'> +4.0564981e-05 </wgt>
</rwgt>
</event>
<event>
 4      1 +1.9882500e-09 3.60654800e+03 7.81860800e-03 7.61544100e-02
        2 -1    0    0  501    0 +0.0000000000e+00 +0.0000000000e+00 +2.6190222850e+03 2.6190222850e+03 0.0000000000e+00 0.0000e+00 1.0000e+00
       -2 -1    0    0    0  501 -0.0000000000e+00 -0.0000000000e+00 -1.2416071812e+03 1.2416071812e+03 0.0000000000e+00 0.0000e+00 -1.0000e+00
      -13  1    1    2    0    0 +1.1267491544e+02 -1.7894377262e+03 +4.8276379417e+02 1.8568370671e+03 0.0000000000e+00 0.0000e+00 -1.0000e+00
       13  1    1    2    0    0 -1.1267491544e+02 +1.7894377262e+03 +8.9465130962e+02 2.0037923990e+03 0.0000000000e+00 0.0000e+00 1.0000e+00
<mgrwt>
<rscale>  0 0.36065479E+04</rscale>
<asrwt>0</asrwt>
<pdfrwt beam="1">  1        2 0.40292650E+00 0.36065479E+04</pdfrwt>
<pdfrwt beam="2">  1       -2 0.19101649E+00 0.36065479E+04</pdfrwt>
<totfact> 0.41115753E-01</totfact>
</mgrwt>
<rwgt>
<wgt id='morphing_basis_vector_1'> +4.6959243e-05 </wgt>
<wgt id='morphing_basis_vector_2'> +3.4345276e-05 </wgt>
<wgt id='morphing_basis_vector_3'> +5.2000833e-05 </wgt>
<wgt id='morphing_basis_vector_4'> +3.3671518e-05 </wgt>
<wgt id='morphing_basis_vector_5'> +5.7293525e-05 </wgt>
</rwgt>
</event>
<event>
 4      1 +1.9882500e-09 3.44715000e+03 7.81860800e-03 7.64853900e-02
        2 -1    0    0  501    0 +0.0000000000e+00 +0.0000000000e+00 +3.5137256019e+03 3.5137256019e+03 0.0000000000e+00 0.0000e+00 -1.0000e+00
       -2 -1    0    0    0  501 -0.0000000000e+00 -0.0000000000e+00 -8.4545910324e+02 8.4545910324e+02 0.0000000000e+00 0.0000e+00 1.0000e+00
      -13  1    1    2    0    0 -7.8229394098e+02 -1.6675046460e+02 -5.9654053934e+02 9.9782270099e+02 0.0000000000e+00 0.0000e+00 1.0000e+00
       13  1    1    2    0    0 +7.8229394098e+02 +1.6675046460e+02 +3.2648070380e+03 3.3613620041e+03 0.0000000000e+00 0.0000e+00 -1.0000e+00
<mgrwt>
<rscale>  0 0.34471503E+04</rscale>
<asrwt>0</asrwt>
<pdfrwt beam="1">  1        2 0.54057316E+00 0.34471503E+04</pdfrwt>
<pdfrwt beam="2">  1       -2 0.13007063E+00 0.34471503E+04</pdfrwt>
<totfact> 0.32864996E-01</totfact>
</mgrwt>
<rwgt>
<wgt id='morphing_basis_vector_1'> +3.8294242e-05 </wgt>
<wgt id='morphing_basis_vector_2'> +2.5902686e-05 </wgt>
<wgt id='morphing_basis_vector_3'> +4.1900705e-05 </wgt>
<wgt id='morphing_basis_vector_4'> +3.0053710e-05 </wgt>
<wgt id='morphing_basis_vector_5'> +4.7925982e-05 </wgt>
</rwgt>
</event>
<event>
 4      1 +1.9882500e-09 3.49828100e+03 7.81860800e-03 7.63772500e-02
        2 -1    0    0  501    0 +0.0000000000e+00 +0.0000000000e+00 +2.4506872776e+03 2.4506872776e+03 0.0000000000e+00 0.0000e+00 -1.0000e+00
       -2 -1    0    0    0  501 -0.0000000000e+00 -0.0000000000e+00 -1.2484225240e+03 1.2484225240e+03 0.0000000000e+00 0.0000e+00 1.0000e+00
      -13  1    1    2    0    0 -1.2942301102e+02 -1.3808190473e+03 -5.2592818143e+02 1.4832437457e+03 0.0000000000e+00 0.0000e+00 1.0000e+00
       13  1    1    2    0    0 +1.2942301102e+02 +1.3808190473e+03 +1.7281929350e+03 2.2158660559e+03 0.0000000000e+00 0.0000e+00 -1.0000e+00
<mgrwt>
<rscale>  0 0.34982814E+04</rscale>
<asrwt>0</asrwt>
<pdfrwt beam="1">  1        2 0.37702881E+00 0.34982814E+04</pdfrwt>
<pdfrwt beam="2">  1       -2 0.19206500E+00 0.34982814E+04</pdfrwt>
<totfact> 0.51425847E-01</totfact>
</mgrwt>
<rwgt>
<wgt id='morphing_basis_vector_1'> +4.0691997e-05 </wgt>
<wgt id='morphing_basis_vector_2'> +2.7737044e-05 </wgt>
<wgt id='morphing_basis_vector_3'> +4.4585760e-05 </wgt>
<wgt id='morphing_basis_vector_4'> +3.1697934e-05 </wgt>
<wgt id='morphing_basis_vector_5'> +5.0837317e-05 </wgt>
</rwgt>
</event>
<event>
 4      1 +1.9882500e-09 3.29765100e+03 7.81860800e-03 7.68129800e-02
        2 -1    0    0  501    0 +0.0000000000e+00 +0.0000000000e+00 +1.3349048474e+03 1.3349048474e+03 0.0000000000e+00 0.0000e+00 -1.0000e+00
       -2 -1    0    0    0  501 -0.0000000000e+00 -0.0000000000e+00 -2.0365692769e+03 2.0365692769e+03 0.0000000000e+00 0.0000e+00 1.0000e+00
      -13  1    1    2    0    0 -1.0552320597e+03 -1.1578639929e+03 -8.7660380366e+02 1.7951595902e+03 0.0000000000e+00 0.0000e+00 -1.0000e+00
       13  1    1    2    0    0 +1.0552320597e+03 +1.1578639929e+03 +1.7493937415e+02 1.5763145341e+03 0.0000000000e+00 0.0000e+00 1.0000e+00
<mgrwt>
<rscale>  0 0.32976514E+04</rscale>
<asrwt>0</asrwt>
<pdfrwt beam="1">  1        2 0.20536998E+00 0.32976514E+04</pdfrwt>
<pdfrwt beam="2">  1       -2 0.31331835E+00 0.32976514E+04</pdfrwt>
<totfact> 0.32153733E-01</totfact>
</mgrwt>
<rwgt>
<wgt id='morphing_basis_vector_1'> +3.2456848e-05 </wgt>
<wgt id='morphing_basis_vector_2'> +2.2719312e-05 </wgt>
<wgt id='morphing_basis_vector_3'> +3.5639660e-05 </wgt>
<wgt id='morphing_basis_vector_4'> +2.4416489e-05 </wgt>
<wgt id='morphing_basis_vector_5'> +4.0027853e-05 </wgt>
</rwgt>
</event>
<event>
 4      1 +1.9882500e-09 3.27158900e+03 7.81860800e-03 7.68719200e-02
        2 -1    0    0  501    0 +0.0000000000e+00 +0.0000000000e+00 +1.5052473416e+03 1.5052473416e+03 0.0000000000e+00 0.0000e+00 -1.0000e+00
       -2 -1    0    0    0  501 -0.0000000000e+00 -0.0000000000e+00 -1.7776640622e+03 1.7776640622e+03 0.0000000000e+00 0.0000e+00 1.0000e+00
      -13  1    1    2    0    0 -3.9021612982e-01 -7.5190044144e+02 -1.5939815023e+03 1.7624220424e+03 0.0000000000e+00 0.0000e+00 1.0000e+00
       13  1    1    2    0    0 +3.9021612982e-01 +7.5190044144e+02 +1.3215647816e+03 1.5204893614e+03 0.0000000000e+00 0.0000e+00 -1.0000e+00
<mgrwt>
<rscale>  0 0.32715893E+04</rscale>
<asrwt>0</asrwt>
<pdfrwt beam="1">  1        2 0.23157652E+00 0.32715893E+04</pdfrwt>
<pdfrwt beam="2">  1       -2 0.27348678E+00 0.32715893E+04</pdfrwt>
<totfact> 0.48030514E-01</totfact>
</mgrwt>
<rwgt>
<wgt id='morphing_basis_vector_1'> +3.1116034e-05 </wgt>
<wgt id='morphing_basis_vector_2'> +2.1027648e-05 </wgt>
<wgt id='morphing_basis_vector_3'> +3.3998383e-05 </wgt>
<wgt id='morphing_basis_vector_4'> +2.4348633e-05 </wgt>
<wgt id='morphing_basis_vector_5'> +3.8826162e-05 </wgt>
</rwgt>
</event>
<event>
 4      1 +1.9882500e-09 3.64438300e+03 7.81860800e-03 7.60784200e-02
        2 -1    0    0  501    0 +0.0000000000e+00 +0.0000000000e+00 +2.3383580606e+03 2.3383580606e+03 0.0000000000e+00 0.0000e+00 -1.0000e+00
       -2 -1    0    0    0  501 -0.0000000000e+00 -0.0000000000e+00 -1.4199633588e+03 1.4199633588e+03 0.0000000000e+00 0.0000e+00 1.0000e+00
      -13  1    1    2    0    0 -8.7667785047e+02 +1.0527896531e+03 -7.7980211829e+02 1.5763950809e+03 0.0000000000e+00 0.0000e+00 1.0000e+00
       13  1    1    2    0    0 +8.7667785047e+02 -1.0527896531e+03 +1.6981968200e+03 2.1819263385e+03 0.0000000000e+00 0.0000e+00 -1.0000e+00
<mgrwt>
<rscale>  0 0.36443835E+04</rscale>
<asrwt>0</asrwt>
<pdfrwt beam="1">  1        2 0.35974740E+00 0.36443835E+04</pdfrwt>
<pdfrwt beam="2">  1       -2 0.21845590E+00 0.36443835E+04</pdfrwt>
<totfact> 0.38082078E-01</totfact>
</mgrwt>
<rwgt>
<wgt id='morphing_basis_vector_1'> +4.7844987e-05 </wgt>
<wgt id='morphing_basis_vector_2'> +3.2560162e-05 </wgt>
<wgt id='morphing_basis_vector_3'> +5.2458845e-05 </wgt>
<wgt id='morphing_basis_vector_4'> +3.7439561e-05 </wgt>
<wgt id='morphing_basis_vector_5'> +5.9943779e-05 </wgt>
</rwgt>
</event>
<event>
 4      1 +1.9882500e-09 3.41224400e+03 7.81860800e-03 7.65603300e-02
        2 -1    0    0  501    0 +0.0000000000e+00 +0.0000000000e+00 +1.7367419481e+03 1.7367419481e+03 0.0000000000e+00 0.0000e+00 -1.0000e+00
       -2 -1    0    0    0  501 -0.0000000000e+00 -0.0000000000e+00 -1.6760419098e+03 1.6760419098e+03 0.0000000000e+00 0.0000e+00 1.0000e+00
      -13  1    1    2    0    0 +2.0843888974e+02 -1.5859765196e+03 -5.6311052299e+02 1.6958365938e+03 0.0000000000e+00 0.0000e+00 1.0000e+00
       13  1    1    2    0    0 -2.0843888974e+02 +1.5859765196e+03 +6.2381056120e+02 1.7169472642e+03 0.0000000000e+00 0.0000e+00 -1.0000e+00
<mgrwt>
<rscale>  0 0.34122440E+04</rscale>
<asrwt>0</asrwt>
<pdfrwt beam="1">  1        2 0.26719107E+00 0.34122440E+04</pdfrwt>
<pdfrwt beam="2">  1       -2 0.25785260E+00 0.34122440E+04</pdfrwt>
<totfact> 0.45151559E-01</totfact>
</mgrwt>
<rwgt>
<wgt id='morphing_basis_vector_1'> +3.7113964e-05 </wgt>
<wgt id='morphing_basis_vector_2'> +2.5863636e-05 </wgt>
<wgt id='morphing_basis_vector_3'> +4.0764252e-05 </wgt>
<wgt id='morphing_basis_vector_4'> +2.8139599e-05 </wgt>
<wgt id='morphing_basis_vector_5'> +4.5942825e-05 </wgt>
</rwgt>
</event>
<event>
 4      1 +1.9882500e-09 3.30327000e+03 7.81860800e-03 7.68003500e-02
        2 -1    0    0  501    0 +0.0000000000e+00 +0.0000000000e+00 +2.2704747642e+03 2.2704747642e+03 0.0000000000e+00 0.0000e+00 -1.0000e+00
       -2 -1    0    0    0  501 -0.0000000000e+00 -0.0000000000e+00 -1.2014656165e+03 1.2014656165e+03 0.0000000000e+00 0.0000e+00 1.0000e+00
      -13  1    1    2    0    0 -1.0661655487e+03 +1.1603916036e+03 +1.4595700119e+01 1.5758904421e+03 0.0000000000e+00 0.0000e+00 1.0000e+00
       13  1    1    2    0    0 +1.0661655487e+03 -1.1603916036e+03 +1.0544134476e+03 1.8960499385e+03 0.0000000000e+00 0.0000e+00 -1.0000e+00
<mgrwt>
<rscale>  0 0.33032695E+04</rscale>
<asrwt>0</asrwt>
<pdfrwt beam="1">  1        2 0.34930381E+00 0.33032695E+04</pdfrwt>
<pdfrwt beam="2">  1       -2 0.18484086E+00 0.33032695E+04</pdfrwt>
<totfact> 0.75437411E-01</totfact>
</mgrwt>
<rwgt>
<wgt id='morphing_basis_vector_1'> +3.2696121e-05 </wgt>
<wgt id='morphing_basis_vector_2'> +2.2930509e-05 </wgt>
<wgt id='morphing_basis_vector_3'> +3.5913431e-05 </wgt>
<wgt id='morphing_basis_vector_4'> +2.4544276e-05 </wgt>
<wgt id='morphing_basis_vector_5'> +4.0300004e-05 </wgt>
</rwgt>
</event>
<event>
 4      1 +1.9882500e-09 3.21987000e+03 7.81860800e-03 7.69905800e-02
        2 -1    0    0  501    0 +0.0000000000e+00 +0.0000000000e+00 +1.2839243893e+03 1.2839243893e+03 0.0000000000e+00 0.0000e+00 1.0000e+00
       -2 -1    0    0    0  501 -0.0000000000e+00 -0.0000000000e+00 -2.0187255625e+03 2.0187255625e+03 0.0000000000e+00 0.0000e+00 -1.0000e+00
      -13  1    1    2    0    0 +4.2129516612e+02 -1.4834264579e+03 -8.4172565936e+02 1.7568567837e+03 0.0000000000e+00 0.0000e+00 -1.0000e+00
       13  1    1    2    0    0 -4.2129516612e+02 +1.4834264579e+03 +1.0692448617e+02 1.5457931681e+03 0.0000000000e+00 0.0000e+00 1.0000e+00
<mgrwt>
<rscale>  0 0.32198702E+04</rscale>
<asrwt>0</asrwt>
<pdfrwt beam="1">  1        2 0.19752683E+00 0.32198702E+04</pdfrwt>
<pdfrwt beam="2">  1       -2 0.31057316E+00 0.32198702E+04</pdfrwt>
<totfact> 0.36103500E-01</totfact>
</mgrwt>
<rwgt>
<wgt id='morphing_basis_vector_1'> +2.9558153e-05 </wgt>
<wgt id='morphing_basis_vector_2'> +2.0760622e-05 </wgt>
<wgt id='morphing_basis_vector_3'> +3.2450612e-05 </wgt>
<wgt id='morphing_basis_vector_4'> +2.2104052e-05 </wgt>
<wgt id='morphing_basis_vector_5'> +3.6350807e-05 </wgt>
</rwgt>
</event>
<event>
 4      1 +1.9882500e-09 3.61057700e+03 7.81860800e-03 7.61462700e-02
        2 -1    0    0  501    0 +0.0000000000e+00 +0.0000000000e+00 +2.1288374301e+03 2.1288374301e+03 0.0000000000e+00 0.0000e+00 1.0000e+00
       -2 -1    0    0    0  501 -0.0000000000e+00 -0.0000000000e+00 -1.5309134105e+03 1.5309134105e+03 0.0000000000e+00 0.0000e+00 -1.0000e+00
      -13  1    1    2    0    0 +5.3996988931e+02 +1.5570316320e+03 -4.4806304369e+02 1.7078277066e+03 0.0000000000e+00 0.0000e+00 -1.0000e+00
       13  1    1    2    0    0 -5.3996988931e+02 -1.5570316320e+03 +1.0459870633e+03 1.9519231340e+03 0.0000000000e+00 0.0000e+00 1.0000e+00
<mgrwt>
<rscale>  0 0.36105766E+04</rscale>
<asrwt>0</asrwt>
<pdfrwt beam="1">  1        2 0.32751345E+00 0.36105766E+04</pdfrwt>
<pdfrwt beam="2">  1       -2 0.23552514E+00 0.36105766E+04</pdfrwt>
<totfact> 0.38223617E-01</totfact>
</mgrwt>
<rwgt>
<wgt id='morphing_basis_vector_1'> +4.6351467e-05 </wgt>
<wgt id='morphing_basis_vector_2'> +3.2096776e-05 </wgt>
<wgt id='morphing_basis_vector_3'> +5.0932744e-05 </wgt>
<wgt id='morphing_basis_vector_4'> +3.5542506e-05 </wgt>
<wgt id='morphing_basis_vector_5'> +5.7694195e-05 </wgt>
</rwgt>
</event>
<event>
 4      1 +1.9882500e-09 3.32652000e+03 7.81860800e-03 7.67483500e-02
        2 -1    0    0  501    0 +0.0000000000e+00 +0.0000000000e+00 +2.1231531636e+03 2.1231531636e+03 0.0000000000e+00 0.0000e+00 -1.0000e+00
       -2 -1    0    0    0  501 -0.0000000000e+00 -0.0000000000e+00 -1.3029839288e+03 1.3029839288e+03 0.0000000000e+00 0.0000e+00 1.0000e+00
      -13  1    1    2    0    0 -9.4710196234e+02 +8.0685246660e+01 -9.9567773928e+02 1.3765487266e+03 0.0000000000e+00 0.0000e+00 1.0000e+00
       13  1    1    2    0    0 +9.4710196234e+02 -8.0685246660e+01 +1.8158469741e+03 2.0495883658e+03 0.0000000000e+00 0.0000e+00 -1.0000e+00
<mgrwt>
<rscale>  0 0.33265204E+04</rscale>
<asrwt>0</asrwt>
<pdfrwt beam="1">  1        2 0.32663895E+00 0.33265204E+04</pdfrwt>
<pdfrwt beam="2">  1       -2 0.20045907E+00 0.33265204E+04</pdfrwt>
<totfact> 0.70073047E-01</totfact>
</mgrwt>
<rwgt>
<wgt id='morphing_basis_vector_1'> +3.3250792e-05 </wgt>
<wgt id='morphing_basis_vector_2'> +2.2496042e-05 </wgt>
<wgt id='morphing_basis_vector_3'> +3.6351892e-05 </wgt>
<wgt id='morphing_basis_vector_4'> +2.6020348e-05 </wgt>
<wgt id='morphing_basis_vector_5'> +4.1518964e-05 </wgt>
</rwgt>
</event>
<event>
 4      1 +1.9882500e-09 3.34075900e+03 7.81860800e-03 7.67167200e-02
        2 -1    0    0  501    0 +0.0000000000e+00 +0.0000000000e+00 +2.5374712269e+03 2.5374712269e+03 0.0000000000e+00 0.0000e+00 -1.0000e+00
       -2 -1    0    0    0  501 -0.0000000000e+00 -0.0000000000e+00 -1.0995860000e+03 1.0995860000e+03 0.0000000000e+00 0.0000e+00 1.0000e+00
      -13  1    1    2    0    0 +1.4749302729e+02 +5.9520396676e+02 -9.7261474905e+02 1.1497831992e+03 0.0000000000e+00 0.0000e+00 1.0000e+00
       13  1    1    2    0    0 -1.4749302729e+02 -5.9520396676e+02 +2.4104999759e+03 2.4872740278e+03 0.0000000000e+00 0.0000e+00 -1.0000e+00
<mgrwt>
<rscale>  0 0.33407591E+04</rscale>
<asrwt>0</asrwt>
<pdfrwt beam="1">  1        2 0.39038019E+00 0.33407591E+04</pdfrwt>
<pdfrwt beam="2">  1       -2 0.16916708E+00 0.33407591E+04</pdfrwt>
<totfact> 0.69021330E-01</totfact>
</mgrwt>
<rwgt>
<wgt id='morphing_basis_vector_1'> +3.3807934e-05 </wgt>
<wgt id='morphing_basis_vector_2'> +2.2848486e-05 </wgt>
<wgt id='morphing_basis_vector_3'> +3.6959661e-05 </wgt>
<wgt id='morphing_basis_vector_4'> +2.6496140e-05 </wgt>
<wgt id='morphing_basis_vector_5'> +4.2241581e-05 </wgt>
</rwgt>
</event>
<event>
 4      1 +1.9882500e-09 3.28060900e+03 7.81860800e-03 7.68514600e-02
        2 -1    0    0  501    0 +0.0000000000e+00 +0.0000000000e+00 +1.7058481023e+03 1.7058481023e+03 0.0000000000e+00 0.0000e+00 -1.0000e+00
       -2 -1    0    0    0  501 -0.0000000000e+00 -0.0000000000e+00 -1.5772795536e+03 1.5772795536e+03 0.0000000000e+00 0.0000e+00 1.0000e+00
      -13  1    1    2    0    0 -1.1299602725e+03 +1.1068864781e+03 +4.9888880285e+02 1.6585831093e+03 0.0000000000e+00 0.0000e+00 1.0000e+00
       13  1    1    2    0    0 +1.1299602725e+03 -1.1068864781e+03 -3.7032025416e+02 1.6245445465e+03 0.0000000000e+00 0.0000e+00 -1.0000e+00
<mgrwt>
<rscale>  0 0.32806093E+04</rscale>
<asrwt>0</asrwt>
<pdfrwt beam="1">  1        2 0.26243817E+00 0.32806093E+04</pdfrwt>
<pdfrwt beam="2">  1       -2 0.24265839E+00 0.32806093E+04</pdfrwt>
<totfact> 0.60489099E-01</totfact>
</mgrwt>
<rwgt>
<wgt id='morphing_basis_vector_1'> +3.4317382e-05 </wgt>
<wgt id='morphing_basis_vector_2'> +2.9675003e-05 </wgt>
<wgt id='morphing_basis_vector_3'> +3.8892091e-05 </wgt>
<wgt id='morphing_basis_vector_4'> +1.8631412e-05 </wgt>
<wgt id='morphing_basis_vector_5'> +3.8764603e-05 </wgt>
</rwgt>
</event>
<event>
 4      1 +1.9882500e-09 3.58757400e+03 7.81860800e-03 7.61928800e-02
        2 -1    0    0  501    0 +0.0000000000e+00 +0.0000000000e+00 +2.8165067275e+03 2.8165067275e+03 0.0000000000e+00 0.0000e+00 -1.0000e+00
       -2 -1    0    0    0  501 -0.0000000000e+00 -0.0000000000e+00 -1.1424338001e+03 1.1424338001e+03 0.0000000000e+00 0.0000e+00 1.0000e+00
      -13  1    1    2    0    0 -6.1852273108e+01 -1.3887740000e+03 +2.0880314670e+03 2.5084645371e+03 0.0000000000e+00 0.0000e+00 1.0000e+00
       13  1    1    2    0    0 +6.1852273108e+01 +1.3887740000e+03 -4.1395853963e+02 1.4504759906e+03 0.0000000000e+00 0.0000e+00 -1.0000e+00
<mgrwt>
<rscale>  0 0.35875744E+04</rscale>
<asrwt>0</asrwt>
<pdfrwt beam="1">  1        2 0.43330873E+00 0.35875744E+04</pdfrwt>
<pdfrwt beam="2">  1       -2 0.17575905E+00 0.35875744E+04</pdfrwt>
<totfact> 0.40507639E-01</totfact>
</mgrwt>
<rwgt>
<wgt id='morphing_basis_vector_1'> +5.6252176e-05 </wgt>
<wgt id='morphing_basis_vector_2'> +6.3828138e-05 </wgt>
<wgt id='morphing_basis_vector_3'> +6.7261975e-05 </wgt>
<wgt id='morphing_basis_vector_4'> +1.1353932e-05 </wgt>
<wgt id='morphing_basis_vector_5'> +5.4297297e-05 </wgt>
</rwgt>
</event>
<event>
 4      1 +1.9882500e-09 3.55837400e+03 7.81860800e-03 7.62525600e-02
        2 -1    0    0  501    0 +0.0000000000e+00 +0.0000000000e+00 +1.6502606840e+03 1.6502606840e+03 0.0000000000e+00 0.0000e+00 -1.0000e+00
       -2 -1    0    0    0  501 -0.0000000000e+00 -0.0000000000e+00 -1.9181856680e+03 1.9181856680e+03 0.0000000000e+00 0.0000e+00 1.0000e+00
      -13  1    1    2    0    0 +1.0889835570e+03 -1.3581895779e+03 -5.0234719997e+02 1.8118821226e+03 0.0000000000e+00 0.0000e+00 1.0000e+00
       13  1    1    2    0    0 -1.0889835570e+03 +1.3581895779e+03 +2.3442221590e+02 1.7565642294e+03 0.0000000000e+00 0.0000e+00 -1.0000e+00
<mgrwt>
<rscale>  0 0.35583740E+04</rscale>
<asrwt>0</asrwt>
<pdfrwt beam="1">  1        2 0.25388626E+00 0.35583740E+04</pdfrwt>
<pdfrwt beam="2">  1       -2 0.29510549E+00 0.35583740E+04</pdfrwt>
<totfact> 0.27759075E-01</totfact>
</mgrwt>
<rwgt>
<wgt id='morphing_basis_vector_1'> +4.4169589e-05 </wgt>
<wgt id='morphing_basis_vector_2'> +3.1535049e-05 </wgt>
<wgt id='morphing_basis_vector_3'> +4.8727408e-05 </wgt>
<wgt id='morphing_basis_vector_4'> +3.2625302e-05 </wgt>
<wgt id='morphing_basis_vector_5'> +5.4335504e-05 </wgt>
</rwgt>
</event>
<event>
 4      1 +1.9882500e-09 3.25287500e+03 7.81860800e-03 7.69145900e-02
        2 -1    0    0  501    0 +0.0000000000e+00 +0.0000000000e+00 +1.0614956926e+03 1.0614956926e+03 0.0000000000e+00 0.0000e+00 -1.0000e+00
       -2 -1    0    0    0  501 -0.0000000000e+00 -0.0000000000e+00 -2.4920492930e+03 2.4920492930e+03 0.0000000000e+00 0.0000e+00 1.0000e+00
      -13  1    1    2    0    0 +1.4944977853e+03 -4.0101708147e+02 -1.2625418747e+03 1.9970854552e+03 0.0000000000e+00 0.0000e+00 1.0000e+00
       13  1    1    2    0    0 -1.4944977853e+03 +4.0101708147e+02 -1.6801172574e+02 1.5564595305e+03 0.0000000000e+00 0.0000e+00 -1.0000e+00
<mgrwt>
<rscale>  0 0.32528754E+04</rscale>
<asrwt>0</asrwt>
<pdfrwt beam="1">  1        2 0.16330703E+00 0.32528754E+04</pdfrwt>
<pdfrwt beam="2">  1       -2 0.38339220E+00 0.32528754E+04</pdfrwt>
<totfact> 0.16285055E-01</totfact>
</mgrwt>
<rwgt>
<wgt id='morphing_basis_vector_1'> +3.0747974e-05 </wgt>
<wgt id='morphing_basis_vector_2'> +2.1530516e-05 </wgt>
<wgt id='morphing_basis_vector_3'> +3.3752326e-05 </wgt>
<wgt id='morphing_basis_vector_4'> +2.3096396e-05 </wgt>
<wgt id='morphing_basis_vector_5'> +3.7881417e-05 </wgt>
</rwgt>
</event>
<event>
 4      1 +1.9882500e-09 3.65835700e+03 7.81860800e-03 7.60505900e-02
        2 -1    0    0  501    0 +0.0000000000e+00 +0.0000000000e+00 +2.6097206169e+03 2.6097206169e+03 0.0000000000e+00 0.0000e+00 -1.0000e+00
       -2 -1    0    0    0  501 -0.0000000000e+00 -0.0000000000e+00 -1.2820888533e+03 1.2820888533e+03 0.0000000000e+00 0.0000e+00 1.0000e+00
      -13  1    1    2    0    0 -2.1441889900e+02 -3.9971551091e+02 -1.2213102262e+03 1.3028225599e+03 0.0000000000e+00 0.0000e+00 1.0000e+00
       13  1    1    2    0    0 +2.1441889900e+02 +3.9971551091e+02 +2.5489419899e+03 2.5889869103e+03 0.0000000000e+00 0.0000e+00 -1.0000e+00
<mgrwt>
<rscale>  0 0.36583569E+04</rscale>
<asrwt>0</asrwt>
<pdfrwt beam="1">  1        2 0.40149548E+00 0.36583569E+04</pdfrwt>
<pdfrwt beam="2">  1       -2 0.19724444E+00 0.36583569E+04</pdfrwt>
<totfact> 0.37306753E-01</totfact>
</mgrwt>
<rwgt>
<wgt id='morphing_basis_vector_1'> +4.8495900e-05 </wgt>
<wgt id='morphing_basis_vector_2'> +3.2818420e-05 </wgt>
<wgt id='morphing_basis_vector_3'> +5.3136100e-05 </wgt>
<wgt id='morphing_basis_vector_4'> +3.8194361e-05 </wgt>
<wgt id='morphing_basis_vector_5'> +6.0888424e-05 </wgt>
</rwgt>
</event>
<event>
 4      1 +1.9882500e-09 3.80964800e+03 7.81860800e-03 7.57572100e-02
        2 -1    0    0  501    0 +0.0000000000e+00 +0.0000000000e+00 +2.4538784688e+03 2.4538784688e+03 0.0000000000e+00 0.0000e+00 1.0000e+00
       -2 -1    0    0    0  501 -0.0000000000e+00 -0.0000000000e+00 -1.4786205340e+03 1.4786205340e+03 0.0000000000e+00 0.0000e+00 -1.0000e+00
      -13  1    1    2    0    0 +6.8998536563e+02 +8.6353287111e+02 -1.1137143475e+03 1.5691170996e+03 0.0000000000e+00 0.0000e+00 -1.0000e+00
       13  1    1    2    0    0 -6.8998536563e+02 -8.6353287111e+02 +2.0889722823e+03 2.3633819032e+03 0.0000000000e+00 0.0000e+00 1.0000e+00
<mgrwt>
<rscale>  0 0.38096483E+04</rscale>
<asrwt>0</asrwt>
<pdfrwt beam="1">  1        2 0.37751976E+00 0.38096483E+04</pdfrwt>
<pdfrwt beam="2">  1       -2 0.22748008E+00 0.38096483E+04</pdfrwt>
<totfact> 0.27740908E-01</totfact>
</mgrwt>
<rwgt>
<wgt id='morphing_basis_vector_1'> +5.6998968e-05 </wgt>
<wgt id='morphing_basis_vector_2'> +3.8648519e-05 </wgt>
<wgt id='morphing_basis_vector_3'> +6.2520098e-05 </wgt>
<wgt id='morphing_basis_vector_4'> +4.4905803e-05 </wgt>
<wgt id='morphing_basis_vector_5'> +7.1664881e-05 </wgt>
</rwgt>
</event>
<event>
 4      1 +1.9882500e-09 3.33113100e+03 7.81860800e-03 7.67380900e-02
        2 -1    0    0  501    0 +0.0000000000e+00 +0.0000000000e+00 +3.2467420868e+03 3.2467420868e+03 0.0000000000e+00 0.0000e+00 -1.0000e+00
       -2 -1    0    0    0  501 -0.0000000000e+00 -0.0000000000e+00 -8.5442830172e+02 8.5442830172e+02 0.0000000000e+00 0.0000e+00 1.0000e+00
      -13  1    1    2    0    0 +8.2809851748e+02 +4.3289882680e+01 -5.8222065818e+02 1.0132137304e+03 0.0000000000e+00 0.0000e+00 1.0000e+00
       13  1    1    2    0    0 -8.2809851748e+02 -4.3289882680e+01 +2.9745344433e+03 3.0879566582e+03 0.0000000000e+00 0.0000e+00 -1.0000e+00
<mgrwt>
<rscale>  0 0.33311309E+04</rscale>
<asrwt>0</asrwt>
<pdfrwt beam="1">  1        2 0.49949878E+00 0.33311309E+04</pdfrwt>
<pdfrwt beam="2">  1       -2 0.13145051E+00 0.33311309E+04</pdfrwt>
<totfact> 0.49910129E-01</totfact>
</mgrwt>
<rwgt>
<wgt id='morphing_basis_vector_1'> +3.3427814e-05 </wgt>
<wgt id='morphing_basis_vector_2'> +2.2602006e-05 </wgt>
<wgt id='morphing_basis_vector_3'> +3.6543718e-05 </wgt>
<wgt id='morphing_basis_vector_4'> +2.6179202e-05 </wgt>
<wgt id='morphing_basis_vector_5'> +4.1752384e-05 </wgt>
</rwgt>
</event>
<event>
 4      1 +1.9882500e-09 3.31439500e+03 7.81860800e-03 7.67754100e-02
        2 -1    0    0  501    0 +0.0000000000e+00 +0.0000000000e+00 +9.7814341932e+02 9.7814341932e+02 0.0000000000e+00 0.0000e+00 -1.0000e+00
       -2 -1    0    0    0  501 -0.0000000000e+00 -0.0000000000e+00 -2.8076691918e+03 2.8076691918e+03 0.0000000000e+00 0.0000e+00 1.0000e+00
      -13  1    1    2    0    0 -1.3630119133e+03 -5.7023160085e+02 -1.7720755646e+03 2.3072098650e+03 0.0000000000e+00 0.0000e+00 1.0000e+00
       13  1    1    2    0    0 +1.3630119133e+03 +5.7023160085e+02 -5.7450207849e+01 1.4786027461e+03 0.0000000000e+00 0.0000e+00 -1.0000e+00
<mgrwt>
<rscale>  0 0.33143948E+04</rscale>
<asrwt>0</asrwt>
<pdfrwt beam="1">  1        2 0.15048360E+00 0.33143948E+04</pdfrwt>
<pdfrwt beam="2">  1       -2 0.43194910E+00 0.33143948E+04</pdfrwt>
<totfact> 0.87429252E-02</totfact>
</mgrwt>
<rwgt>
<wgt id='morphing_basis_vector_1'> +3.2945779e-05 </wgt>
<wgt id='morphing_basis_vector_2'> +2.2681671e-05 </wgt>
<wgt id='morphing_basis_vector_3'> +3.6099558e-05 </wgt>
<wgt id='morphing_basis_vector_4'> +2.5276564e-05 </wgt>
<wgt id='morphing_basis_vector_5'> +4.0882511e-05 </wgt>
</rwgt>
</event>
<event>
 4      1 +1.9882500e-09 3.83493700e+03 7.81860800e-03 7.57095300e-02
        2 -1    0    0  501    0 +0.0000000000e+00 +0.0000000000e+00 +1.8426925918e+03 1.8426925918e+03 0.0000000000e+00 0.0000e+00 1.0000e+00
       -2 -1    0    0    0  501 -0.0000000000e+00 -0.0000000000e+00 -1.9952789801e+03 1.9952789801e+03 0.0000000000e+00 0.0000e+00 -1.0000e+00
      -13  1    1    2    0    0 +1.0780711966e+03 +5.7404086479e+02 -1.5556120863e+03 1.9777991259e+03 0.0000000000e+00 0.0000e+00 -1.0000e+00
       13  1    1    2    0    0 -1.0780711966e+03 -5.7404086479e+02 +1.4030256980e+03 1.8601724460e+03 0.0000000000e+00 0.0000e+00 1.0000e+00
<mgrwt>
<rscale>  0 0.38349372E+04</rscale>
<asrwt>0</asrwt>
<pdfrwt beam="1">  1        2 0.28349117E+00 0.38349372E+04</pdfrwt>
<pdfrwt beam="2">  1       -2 0.30696600E+00 0.38349372E+04</pdfrwt>
<totfact> 0.17648140E-01</totfact>
</mgrwt>
<rwgt>
<wgt id='morphing_basis_vector_1'> +5.8533820e-05 </wgt>
<wgt id='morphing_basis_vector_2'> +3.9726585e-05 </wgt>
<wgt id='morphing_basis_vector_3'> +6.4220022e-05 </wgt>
<wgt id='morphing_basis_vector_4'> +4.6085011e-05 </wgt>
<wgt id='morphing_basis_vector_5'> +7.3594757e-05 </wgt>
</rwgt>
</event>
<event>
 4      1 +1.9882500e-09 3.42254500e+03 7.81860800e-03 7.65381200e-02
        2 -1    0    0  501    0 +0.0000000000e+00 +0.0000000000e+00 +1.7063894324e+03 1.7063894324e+03 0.0000000000e+00 0.0000e+00 -1.0000e+00
       -2 -1    0    0    0  501 -0.0000000000e+00 -0.0000000000e+00 -1.7161698463e+03 1.7161698463e+03 0.0000000000e+00 0.0000e+00 1.0000e+00
      -13  1    1    2    0    0 +7.7938204867e+00 -3.6661277926e+02 -1.6764198155e+03 1.7160562553e+03 0.0000000000e+00 0.0000e+00 1.0000e+00
       13  1    1    2    0    0 -7.7938204867e+00 +3.6661277926e+02 +1.6666394016e+03 1.7065030233e+03 0.0000000000e+00 0.0000e+00 -1.0000e+00
<mgrwt>
<rscale>  0 0.34225453E+04</rscale>
<asrwt>0</asrwt>
<pdfrwt beam="1">  1        2 0.26252145E+00 0.34225453E+04</pdfrwt>
<pdfrwt beam="2">  1       -2 0.26402613E+00 0.34225453E+04</pdfrwt>
<totfact> 0.42539970E-01</totfact>
</mgrwt>
<rwgt>
<wgt id='morphing_basis_vector_1'> +3.7214592e-05 </wgt>
<wgt id='morphing_basis_vector_2'> +2.5157254e-05 </wgt>
<wgt id='morphing_basis_vector_3'> +4.0709216e-05 </wgt>
<wgt id='morphing_basis_vector_4'> +2.9210531e-05 </wgt>
<wgt id='morphing_basis_vector_5'> +4.6564154e-05 </wgt>
</rwgt>
</event>
<event>
 4      1 +1.9882500e-09 3.70516400e+03 7.81860800e-03 7.59583000e-02
        2 -1    0    0  501    0 +0.0000000000e+00 +0.0000000000e+00 +1.8297935837e+03 1.8297935837e+03 0.0000000000e+00 0.0000e+00 -1.0000e+00
       -2 -1    0    0    0  501 -0.0000000000e+00 -0.0000000000e+00 -1.8756541823e+03 1.8756541823e+03 0.0000000000e+00 0.0000e+00 1.0000e+00
      -13  1    1    2    0    0 +1.7405412119e+03 +5.8055347754e+02 -2.7894588008e+02 1.8558924685e+03 0.0000000000e+00 0.0000e+00 1.0000e+00
       13  1    1    2    0    0 -1.7405412119e+03 -5.8055347754e+02 +2.3308528144e+02 1.8495552976e+03 0.0000000000e+00 0.0000e+00 -1.0000e+00
<mgrwt>
<rscale>  0 0.37051640E+04</rscale>
<asrwt>0</asrwt>
<pdfrwt beam="1">  1        2 0.28150671E+00 0.37051640E+04</pdfrwt>
<pdfrwt beam="2">  1       -2 0.28856218E+00 0.37051640E+04</pdfrwt>
<totfact> 0.24133257E-01</totfact>
</mgrwt>
<rwgt>
<wgt id='morphing_basis_vector_1'> +5.2132518e-05 </wgt>
<wgt id='morphing_basis_vector_2'> +3.7826625e-05 </wgt>
<wgt id='morphing_basis_vector_3'> +5.7698266e-05 </wgt>
<wgt id='morphing_basis_vector_4'> +3.7832616e-05 </wgt>
<wgt id='morphing_basis_vector_5'> +6.3887465e-05 </wgt>
</rwgt>
</event>
<event>
 4      1 +1.9882500e-09 3.34300300e+03 7.81860800e-03 7.67117500e-02
        2 -1    0    0  501    0 +0.0000000000e+00 +0.0000000000e+00 +2.0308979154e+03 2.0308979154e+03 0.0000000000e+00 0.0000e+00 1.0000e+00
       -2 -1    0    0    0  501 -0.0000000000e+00 -0.0000000000e+00 -1.3757050993e+03 1.3757050993e+03 0.0000000000e+00 0.0000e+00 -1.0000e+00
      -13  1    1    2    0    0 +1.4162201857e+03 -8.8619146597e+02 +3.8248856326e+02 1.7138589294e+03 0.0000000000e+00 0.0000e+00 1.0000e+00
       13  1    1    2    0    0 -1.4162201857e+03 +8.8619146597e+02 +2.7270425291e+02 1.6927440853e+03 0.0000000000e+00 0.0000e+00 -1.0000e+00
<mgrwt>
<rscale>  0 0.33430026E+04</rscale>
<asrwt>0</asrwt>
<pdfrwt beam="1">  1        2 0.31244583E+00 0.33430026E+04</pdfrwt>
<pdfrwt beam="2">  1       -2 0.21164694E+00 0.33430026E+04</pdfrwt>
<totfact> 0.65505769E-01</totfact>
</mgrwt>
<rwgt>
<wgt id='morphing_basis_vector_1'> +3.5294457e-05 </wgt>
<wgt id='morphing_basis_vector_2'> +2.7018422e-05 </wgt>
<wgt id='morphing_basis_vector_3'> +3.9268768e-05 </wgt>
<wgt id='morphing_basis_vector_4'> +2.3640207e-05 </wgt>
<wgt id='morphing_basis_vector_5'> +4.2113893e-05 </wgt>
</rwgt>
</event>
<event>
 4      1 +1.9882500e-09 3.55597600e+03 7.81860800e-03 7.62574900e-02
        2 -1    0    0  501    0 +0.0000000000e+00 +0.0000000000e+00 +1.1894759157e+03 1.1894759157e+03 0.0000000000e+00 0.0000e+00 -1.0000e+00
       -2 -1    0    0    0  501 -0.0000000000e+00 -0.0000000000e+00 -2.6576764109e+03 2.6576764109e+03 0.0000000000e+00 0.0000e+00 1.0000e+00
      -13  1    1    2    0    0 -4.9623194270e+02 +3.9827510250e+02 -2.5302787484e+03 2.6090572518e+03 0.0000000000e+00 0.0000e+00 1.0000e+00
       13  1    1    2    0    0 +4.9623194270e+02 -3.9827510250e+02 +1.0620782532e+03 1.2380950748e+03 0.0000000000e+00 0.0000e+00 -1.0000e+00
<mgrwt>
<rscale>  0 0.35559764E+04</rscale>
<asrwt>0</asrwt>
<pdfrwt beam="1">  1        2 0.18299630E+00 0.35559764E+04</pdfrwt>
<pdfrwt beam="2">  1       -2 0.40887329E+00 0.35559764E+04</pdfrwt>
<totfact> 0.90993730E-02</totfact>
</mgrwt>
<rwgt>
<wgt id='morphing_basis_vector_1'> +4.3323460e-05 </wgt>
<wgt id='morphing_basis_vector_2'> +2.9309164e-05 </wgt>
<wgt id='morphing_basis_vector_3'> +4.7438007e-05 </wgt>
<wgt id='morphing_basis_vector_4'> +3.4068477e-05 </wgt>
<wgt id='morphing_basis_vector_5'> +5.4315306e-05 </wgt>
</rwgt>
</event>
<event>
 4      1 +1.9882500e-09 3.46835800e+03 7.81860800e-03 7.64403100e-02
        2 -1    0    0  501    0 +0.0000000000e+00 +0.0000000000e+00 +3.1030461875e+03 3.1030461875e+03 0.0000000000e+00 0.0000e+00 -1.0000e+00
       -2 -1    0    0    0  501 -0.0000000000e+00 -0.0000000000e+00 -9.6916927018e+02 9.6916927018e+02 0.0000000000e+00 0.0000e+00 1.0000e+00
      -13  1    1    2    0    0 -9.9011644514e+02 +1.3988973367e+03 +1.3778716026e+03 2.1990394464e+03 0.0000000000e+00 0.0000e+00 1.0000e+00
       13  1    1    2    0    0 +9.9011644514e+02 -1.3988973367e+03 +7.5600531472e+02 1.8731760113e+03 0.0000000000e+00 0.0000e+00 -1.0000e+00
<mgrwt>
<rscale>  0 0.34683581E+04</rscale>
<asrwt>0</asrwt>
<pdfrwt beam="1">  1        2 0.47739172E+00 0.34683581E+04</pdfrwt>
<pdfrwt beam="2">  1       -2 0.14910297E+00 0.34683581E+04</pdfrwt>
<totfact> 0.43526620E-01</totfact>
</mgrwt>
<rwgt>
<wgt id='morphing_basis_vector_1'> +4.1694436e-05 </wgt>
<wgt id='morphing_basis_vector_2'> +3.3768415e-05 </wgt>
<wgt id='morphing_basis_vector_3'> +4.6839867e-05 </wgt>
<wgt id='morphing_basis_vector_4'> +2.5645475e-05 </wgt>
<wgt id='morphing_basis_vector_5'> +4.8696949e-05 </wgt>
</rwgt>
</event>
<event>
 4      1 +1.9882500e-09 3.76072500e+03 7.81860800e-03 7.58505300e-02
        2 -1    0    0  501    0 +0.0000000000e+00 +0.0000000000e+00 +2.4895114904e+03 2.4895114904e+03 0.0000000000e+00 0.0000e+00 1.0000e+00
       -2 -1    0    0    0  501 -0.0000000000e+00 -0.0000000000e+00 -1.4202641978e+03 1.4202641978e+03 0.0000000000e+00 0.0000e+00 -1.0000e+00
      -13  1    1    2    0    0 -1.8016691617e+03 +4.3344392953e+02 +2.0278897573e+02 1.8641375424e+03 0.0000000000e+00 0.0000e+00 -1.0000e+00
       13  1    1    2    0    0 +1.8016691617e+03 -4.3344392953e+02 +8.6645831691e+02 2.0456381457e+03 0.0000000000e+00 0.0000e+00 1.0000e+00
<mgrwt>
<rscale>  0 0.37607255E+04</rscale>
<asrwt>0</asrwt>
<pdfrwt beam="1">  1        2 0.38300177E+00 0.37607255E+04</pdfrwt>
<pdfrwt beam="2">  1       -2 0.21850218E+00 0.37607255E+04</pdfrwt>
<totfact> 0.30700191E-01</totfact>
</mgrwt>
<rwgt>
<wgt id='morphing_basis_vector_1'> +5.5174385e-05 </wgt>
<wgt id='morphing_basis_vector_2'> +3.9738081e-05 </wgt>
<wgt id='morphing_basis_vector_3'> +6.1019072e-05 </wgt>
<wgt id='morphing_basis_vector_4'> +4.0455475e-05 </wgt>
<wgt id='morphing_basis_vector_5'> +6.7853586e-05 </wgt>
</rwgt>
</event>
<event>
 4      1 +1.9882500e-09 3.28520200e+03 7.81860800e-03 7.68410700e-02
        2 -1    0    0  501    0 +0.0000000000e+00 +0.0000000000e+00 +4.0774137517e+03 4.0774137517e+03 0.0000000000e+00 0.0000e+00 -1.0000e+00
       -2 -1    0    0    0  501 -0.0000000000e+00 -0.0000000000e+00 -6.6172794096e+02 6.6172794096e+02 0.0000000000e+00 0.0000e+00 1.0000e+00
      -13  1    1    2    0    0 -1.0727289488e+03 +1.0140141677e+03 +6.6842333232e+02 1.6204202791e+03 0.0000000000e+00 0.0000e+00 1.0000e+00
       13  1    1    2    0    0 +1.0727289488e+03 -1.0140141677e+03 +2.7472624784e+03 3.1187214135e+03 0.0000000000e+00 0.0000e+00 -1.0000e+00
<mgrwt>
<rscale>  0 0.32852023E+04</rscale>
<asrwt>0</asrwt>
<pdfrwt beam="1">  1        2 0.62729441E+00 0.32852023E+04</pdfrwt>
<pdfrwt beam="2">  1       -2 0.10180430E+00 0.32852023E+04</pdfrwt>
<totfact> 0.22082588E-01</totfact>
</mgrwt>
<rwgt>
<wgt id='morphing_basis_vector_1'> +3.1821824e-05 </wgt>
<wgt id='morphing_basis_vector_2'> +2.1933939e-05 </wgt>
<wgt id='morphing_basis_vector_3'> +3.4865564e-05 </wgt>
<wgt id='morphing_basis_vector_4'> +2.4364242e-05 </wgt>
<wgt id='morphing_basis_vector_5'> +3.9448640e-05 </wgt>
</rwgt>
</event>
<event>
 4      1 +1.9882500e-09 3.30458100e+03 7.81860800e-03 7.67974100e-02
        2 -1    0    0  501    0 +0.0000000000e+00 +0.0000000000e+00 +3.8060356091e+03 3.8060356091e+03 0.0000000000e+00 0.0000e+00 1.0000e+00
       -2 -1    0    0    0  501 -0.0000000000e+00 -0.0000000000e+00 -7.1729860008e+02 7.1729860008e+02 0.0000000000e+00 0.0000e+00 -1.0000e+00
      -13  1    1    2    0    0 -1.2165729987e+03 +3.6513350790e+02 +9.7900254645e+01 1.2739532172e+03 0.0000000000e+00 0.0000e+00 1.0000e+00
       13  1    1    2    0    0 +1.2165729987e+03 -3.6513350790e+02 +2.9908367544e+03 3.2493809920e+03 0.0000000000e+00 0.0000e+00 -1.0000e+00
<mgrwt>
<rscale>  0 0.33045811E+04</rscale>
<asrwt>0</asrwt>
<pdfrwt beam="1">  1        2 0.58554393E+00 0.33045811E+04</pdfrwt>
<pdfrwt beam="2">  1       -2 0.11035363E+00 0.33045811E+04</pdfrwt>
<totfact> 0.30415094E-01</totfact>
</mgrwt>
<rwgt>
<wgt id='morphing_basis_vector_1'> +3.2439302e-05 </wgt>
<wgt id='morphing_basis_vector_2'> +2.2059295e-05 </wgt>
<wgt id='morphing_basis_vector_3'> +3.5482948e-05 </wgt>
<wgt id='morphing_basis_vector_4'> +2.5229736e-05 </wgt>
<wgt id='morphing_basis_vector_5'> +4.0417912e-05 </wgt>
</rwgt>
</event>
<event>
 4      1 +1.9882500e-09 3.52604800e+03 7.81860800e-03 7.63193200e-02
        2 -1    0    0  501    0 +0.0000000000e+00 +0.0000000000e+00 +1.3076046225e+03 1.3076046225e+03 0.0000000000e+00 0.0000e+00 -1.0000e+00
       -2 -1    0    0    0  501 -0.0000000000e+00 -0.0000000000e+00 -2.3770593401e+03 2.3770593401e+03 0.0000000000e+00 0.0000e+00 1.0000e+00
      -13  1    1    2    0    0 -7.6723413475e+02 +7.5951841754e+01 -2.1915583239e+03 2.3232186266e+03 0.0000000000e+00 0.0000e+00 1.0000e+00
       13  1    1    2    0    0 +7.6723413475e+02 -7.5951841754e+01 +1.1221036063e+03 1.3614453360e+03 0.0000000000e+00 0.0000e+00 -1.0000e+00
<mgrwt>
<rscale>  0 0.35260481E+04</rscale>
<asrwt>0</asrwt>
<pdfrwt beam="1">  1        2 0.20116994E+00 0.35260481E+04</pdfrwt>
<pdfrwt beam="2">  1       -2 0.36570143E+00 0.35260481E+04</pdfrwt>
<totfact> 0.14831308E-01</totfact>
</mgrwt>
<rwgt>
<wgt id='morphing_basis_vector_1'> +4.1895317e-05 </wgt>
<wgt id='morphing_basis_vector_2'> +2.8345569e-05 </wgt>
<wgt id='morphing_basis_vector_3'> +4.5866197e-05 </wgt>
<wgt id='morphing_basis_vector_4'> +3.2923174e-05 </wgt>
<wgt id='morphing_basis_vector_5'> +5.2497968e-05 </wgt>
</rwgt>
</event>
<event>
 4      1 +1.9882500e-09 3.38908500e+03 7.81860800e-03 7.66105600e-02
        2 -1    0    0  501    0 +0.0000000000e+00 +0.0000000000e+00 +2.5522147961e+03 2.5522147961e+03 0.0000000000e+00 0.0000e+00 -1.0000e+00
       -2 -1    0    0    0  501 -0.0000000000e+00 -0.0000000000e+00 -1.1250911598e+03 1.1250911598e+03 0.0000000000e+00 0.0000e+00 1.0000e+00
      -13  1    1    2    0    0 -1.0873092835e+03 -1.1821932197e+03 +1.2758586337e+02 1.6112418935e+03 0.0000000000e+00 0.0000e+00 1.0000e+00
       13  1    1    2    0    0 +1.0873092835e+03 +1.1821932197e+03 +1.2995377730e+03 2.0660640624e+03 0.0000000000e+00 0.0000e+00 -1.0000e+00
<mgrwt>
<rscale>  0 0.33890850E+04</rscale>
<asrwt>0</asrwt>
<pdfrwt beam="1">  1        2 0.39264843E+00 0.33890850E+04</pdfrwt>
<pdfrwt beam="2">  1       -2 0.17309095E+00 0.33890850E+04</pdfrwt>
<totfact> 0.62788775E-01</totfact>
</mgrwt>
<rwgt>
<wgt id='morphing_basis_vector_1'> +3.6168844e-05 </wgt>
<wgt id='morphing_basis_vector_2'> +2.5303919e-05 </wgt>
<wgt id='morphing_basis_vector_3'> +3.9740861e-05 </wgt>
<wgt id='morphing_basis_vector_4'> +2.7283394e-05 </wgt>
<wgt id='morphing_basis_vector_5'> +4.4691982e-05 </wgt>
</rwgt>
</event>
<event>
 4      1 +1.9882500e-09 3.34779200e+03 7.81860800e-03 7.67011500e-02
        2 -1    0    0  501    0 +0.0000000000e+00 +0.0000000000e+00 +3.4608018381e+03 3.4608018381e+03 0.0000000000e+00 0.0000e+00 1.0000e+00
       -2 -1    0    0    0  501 -0.0000000000e+00 -0.0000000000e+00 -8.0961807332e+02 8.0961807332e+02 0.0000000000e+00 0.0000e+00 -1.0000e+00
      -13  1    1    2    0    0 -1.3354704571e+03 +9.5360587234e+02 +1.7468895895e+03 2.3967621366e+03 0.0000000000e+00 0.0000e+00 1.0000e+00
       13  1    1    2    0    0 +1.3354704571e+03 -9.5360587234e+02 +9.0429417529e+02 1.8736577748e+03 0.0000000000e+00 0.0000e+00 -1.0000e+00
<mgrwt>
<rscale>  0 0.33477919E+04</rscale>
<asrwt>0</asrwt>
<pdfrwt beam="1">  1        2 0.53243104E+00 0.33477919E+04</pdfrwt>
<pdfrwt beam="2">  1       -2 0.12455663E+00 0.33477919E+04</pdfrwt>
<totfact> 0.40607306E-01</totfact>
</mgrwt>
<rwgt>
<wgt id='morphing_basis_vector_1'> +3.6575239e-05 </wgt>
<wgt id='morphing_basis_vector_2'> +3.0349694e-05 </wgt>
<wgt id='morphing_basis_vector_3'> +4.1203146e-05 </wgt>
<wgt id='morphing_basis_vector_4'> +2.1513106e-05 </wgt>
<wgt id='morphing_basis_vector_5'> +4.2170253e-05 </wgt>
</rwgt>
</event>
<event>
 4      1 +1.9882500e-09 3.24303700e+03 7.81860800e-03 7.69371500e-02
        2 -1    0    0  501    0 +0.0000000000e+00 +0.0000000000e+00 +2.8702650369e+03 2.8702650369e+03 0.0000000000e+00 0.0000e+00 -1.0000e+00
       -2 -1    0    0    0  501 -0.0000000000e+00 -0.0000000000e+00 -9.1605538204e+02 9.1605538204e+02 0.0000000000e+00 0.0000e+00 1.0000e+00
      -13  1    1    2    0    0 +4.9079271235e+02 -7.3206711410e+01 -8.2522915399e+02 9.6293294974e+02 0.0000000000e+00 0.0000e+00 1.0000e+00
       13  1    1    2    0    0 -4.9079271235e+02 +7.3206711410e+01 +2.7794388088e+03 2.8233874692e+03 0.0000000000e+00 0.0000e+00 -1.0000e+00
<mgrwt>
<rscale>  0 0.32430367E+04</rscale>
<asrwt>0</asrwt>
<pdfrwt beam="1">  1        2 0.44157923E+00 0.32430367E+04</pdfrwt>
<pdfrwt beam="2">  1       -2 0.14093160E+00 0.32430367E+04</pdfrwt>
<totfact> 0.73622303E-01</totfact>
</mgrwt>
<rwgt>
<wgt id='morphing_basis_vector_1'> +3.0048480e-05 </wgt>
<wgt id='morphing_basis_vector_2'> +2.0294844e-05 </wgt>
<wgt id='morphing_basis_vector_3'> +3.2821965e-05 </wgt>
<wgt id='morphing_basis_vector_4'> +2.3511119e-05 </wgt>
<wgt id='morphing_basis_vector_5'> +3.7479143e-05 </wgt>
</rwgt>
</event>
<event>
 4      1 +1.9882500e-09 3.48326100e+03 7.81860800e-03 7.64088200e-02
        2 -1    0    0  501    0 +0.0000000000e+00 +0.0000000000e+00 +1.7846905593e+03 1.7846905593e+03 0.0000000000e+00 0.0000e+00 -1.0000e+00
       -2 -1    0    0    0  501 -0.0000000000e+00 -0.0000000000e+00 -1.6996090973e+03 1.6996090973e+03 0.0000000000e+00 0.0000e+00 1.0000e+00
      -13  1    1    2    0    0 -6.1307112640e+02 -4.3121386580e+02 -1.5300206313e+03 1.7037501977e+03 0.0000000000e+00 0.0000e+00 1.0000e+00
       13  1    1    2    0    0 +6.1307112640e+02 +4.3121386580e+02 +1.6151020932e+03 1.7805494589e+03 0.0000000000e+00 0.0000e+00 -1.0000e+00
<mgrwt>
<rscale>  0 0.34832607E+04</rscale>
<asrwt>0</asrwt>
<pdfrwt beam="1">  1        2 0.27456778E+00 0.34832607E+04</pdfrwt>
<pdfrwt beam="2">  1       -2 0.26147832E+00 0.34832607E+04</pdfrwt>
<totfact> 0.39860289E-01</totfact>
</mgrwt>
<rwgt>
<wgt id='morphing_basis_vector_1'> +3.9911173e-05 </wgt>
<wgt id='morphing_basis_vector_2'> +2.6997138e-05 </wgt>
<wgt id='morphing_basis_vector_3'> +4.3680613e-05 </wgt>
<wgt id='morphing_basis_vector_4'> +3.1344971e-05 </wgt>
<wgt id='morphing_basis_vector_5'> +4.9980040e-05 </wgt>
</rwgt>
</event>
<event>
 4      1 +1.9882500e-09 3.22975900e+03 7.81860800e-03 7.69677100e-02
        2 -1    0    0  501    0 +0.0000000000e+00 +0.0000000000e+00 +2.9297464481e+03 2.9297464481e+03 0.0000000000e+00 0.0000e+00 -1.0000e+00
       -2 -1    0    0    0  501 -0.0000000000e+00 -0.0000000000e+00 -8.9012311465e+02 8.9012311465e+02 0.0000000000e+00 0.0000e+00 1.0000e+00
      -13  1    1    2    0    0 -9.2852241836e+02 +6.7961015686e+02 -3.2026318704e+02 1.1944004168e+03 0.0000000000e+00 0.0000e+00 1.0000e+00
       13  1    1    2    0    0 +9.2852241836e+02 -6.7961015686e+02 +2.3598865205e+03 2.6254691459e+03 0.0000000000e+00 0.0000e+00 -1.0000e+00
<mgrwt>
<rscale>  0 0.32297585E+04</rscale>
<asrwt>0</asrwt>
<pdfrwt beam="1">  1        2 0.45073022E+00 0.32297585E+04</pdfrwt>
<pdfrwt beam="2">  1       -2 0.13694202E+00 0.32297585E+04</pdfrwt>
<totfact> 0.73094341E-01</totfact>
</mgrwt>
<rwgt>
<wgt id='morphing_basis_vector_1'> +2.9599381e-05 </wgt>
<wgt id='morphing_basis_vector_2'> +2.0072123e-05 </wgt>
<wgt id='morphing_basis_vector_3'> +3.2345145e-05 </wgt>
<wgt id='morphing_basis_vector_4'> +2.3049833e-05 </wgt>
<wgt id='morphing_basis_vector_5'> +3.6858235e-05 </wgt>
</rwgt>
</event>
<event>
 4      1 +1.9882500e-09 3.27064000e+03 7.81860800e-03 7.68740800e-02
        2 -1    0    0  501    0 +0.0000000000e+00 +0.0000000000e+00 +1.6668098154e+03 1.6668098154e+03 0.0000000000e+00 0.0000e+00 -1.0000e+00
       -2 -1    0    0    0  501 -0.0000000000e+00 -0.0000000000e+00 -1.6044255448e+03 1.6044255448e+03 0.0000000000e+00 0.0000e+00 1.0000e+00
      -13  1    1    2    0    0 +1.1078167354e+03 -1.0589801338e+03 -5.3950380258e+02 1.6247341924e+03 0.0000000000e+00 0.0000e+00 1.0000e+00
       13  1    1    2    0    0 -1.1078167354e+03 +1.0589801338e+03 +6.0188807313e+02 1.6465011678e+03 0.0000000000e+00 0.0000e+00 -1.0000e+00
<mgrwt>
<rscale>  0 0.32706405E+04</rscale>
<asrwt>0</asrwt>
<pdfrwt beam="1">  1        2 0.25643228E+00 0.32706405E+04</pdfrwt>
<pdfrwt beam="2">  1       -2 0.24683470E+00 0.32706405E+04</pdfrwt>
<totfact> 0.59535975E-01</totfact>
</mgrwt>
<rwgt>
<wgt id='morphing_basis_vector_1'> +3.1363699e-05 </wgt>
<wgt id='morphing_basis_vector_2'> +2.1837608e-05 </wgt>
<wgt id='morphing_basis_vector_3'> +3.4406690e-05 </wgt>
<wgt id='morphing_basis_vector_4'> +2.3726596e-05 </wgt>
<wgt id='morphing_basis_vector_5'> +3.8731777e-05 </wgt>
</rwgt>
</event>
<event>
 4      1 +1.9882500e-09 3.74831900e+03 7.81860800e-03 7.58744300e-02
        2 -1    0    0  501    0 +0.0000000000e+00 +0.0000000000e+00 +4.0521928545e+03 4.0521928545e+03 0.0000000000e+00 0.0000e+00 -1.0000e+00
       -2 -1    0    0    0  501 -0.0000000000e+00 -0.0000000000e+00 -8.6680837020e+02 8.6680837020e+02 0.0000000000e+00 0.0000e+00 1.0000e+00
      -13  1    1    2    0    0 +6.5279266187e+02 -1.2784454836e+03 +1.1405186647e+01 1.4355107775e+03 0.0000000000e+00 0.0000e+00 1.0000e+00
       13  1    1    2    0    0 -6.5279266187e+02 +1.2784454836e+03 +3.1739792977e+03 3.4834904473e+03 0.0000000000e+00 0.0000e+00 -1.0000e+00
<mgrwt>
<rscale>  0 0.37483195E+04</rscale>
<asrwt>0</asrwt>
<pdfrwt beam="1">  1        2 0.62341427E+00 0.37483195E+04</pdfrwt>
<pdfrwt beam="2">  1       -2 0.13335514E+00 0.37483195E+04</pdfrwt>
<totfact> 0.11163936E-01</totfact>
</mgrwt>
<rwgt>
<wgt id='morphing_basis_vector_1'> +5.3515882e-05 </wgt>
<wgt id='morphing_basis_vector_2'> +3.6458908e-05 </wgt>
<wgt id='morphing_basis_vector_3'> +5.8719160e-05 </wgt>
<wgt id='morphing_basis_vector_4'> +4.1900375e-05 </wgt>
<wgt id='morphing_basis_vector_5'> +6.7122166e-05 </wgt>
</rwgt>
</event>
<event>
 4      1 +1.9882500e-09 3.84962900e+03 7.81860800e-03 7.56820000e-02
        2 -1    0    0  501    0 +0.0000000000e+00 +0.0000000000e+00 +4.0937421562e+03 4.0937421562e+03 0.0000000000e+00 0.0000e+00 1.0000e+00
       -2 -1    0    0    0  501 -0.0000000000e+00 -0.0000000000e+00 -9.0501804779e+02 9.0501804779e+02 0.0000000000e+00 0.0000e+00 -1.0000e+00
      -13  1    1    2    0    0 +1.3993220003e+03 -7.7934042832e+02 +2.9804430171e+03 3.3835653003e+03 0.0000000000e+00 0.0000e+00 1.0000e+00
       13  1    1    2    0    0 -1.3993220003e+03 +7.7934042832e+02 +2.0828109136e+02 1.6151949037e+03 0.0000000000e+00 0.0000e+00 -1.0000e+00
<mgrwt>
<rscale>  0 0.38496288E+04</rscale>
<asrwt>0</asrwt>
<pdfrwt beam="1">  1        2 0.62980647E+00 0.38496288E+04</pdfrwt>
<pdfrwt beam="2">  1       -2 0.13923355E+00 0.38496288E+04</pdfrwt>
<totfact> 0.90448597E-02</totfact>
</mgrwt>
<rwgt>
<wgt id='morphing_basis_vector_1'> +7.2006587e-05 </wgt>
<wgt id='morphing_basis_vector_2'> +7.7309612e-05 </wgt>
<wgt id='morphing_basis_vector_3'> +8.5335899e-05 </wgt>
<wgt id='morphing_basis_vector_4'> +2.0241805e-05 </wgt>
<wgt id='morphing_basis_vector_5'> +7.2525669e-05 </wgt>
</rwgt>
</event>
<event>
 4      1 +1.9882500e-09 3.65173900e+03 7.81860800e-03 7.60637500e-02
        2 -1    0    0  501    0 +0.0000000000e+00 +0.0000000000e+00 +3.3298723272e+03 3.3298723272e+03 0.0000000000e+00 0.0000e+00 1.0000e+00
       -2 -1    0    0    0  501 -0.0000000000e+00 -0.0000000000e+00 -1.0011791482e+03 1.0011791482e+03 0.0000000000e+00 0.0000e+00 -1.0000e+00
      -13  1    1    2    0    0 -5.2870774141e+02 +1.2280436420e+03 -3.1041928400e+02 1.3725826731e+03 0.0000000000e+00 0.0000e+00 -1.0000e+00
       13  1    1    2    0    0 +5.2870774141e+02 -1.2280436420e+03 +2.6391124629e+03 2.9584688023e+03 0.0000000000e+00 0.0000e+00 1.0000e+00
<mgrwt>
<rscale>  0 0.36517386E+04</rscale>
<asrwt>0</asrwt>
<pdfrwt beam="1">  1        2 0.51228805E+00 0.36517386E+04</pdfrwt>
<pdfrwt beam="2">  1       -2 0.15402756E+00 0.36517386E+04</pdfrwt>
<totfact> 0.27331257E-01</totfact>
</mgrwt>
<rwgt>
<wgt id='morphing_basis_vector_1'> +4.8218042e-05 </wgt>
<wgt id='morphing_basis_vector_2'> +3.2787965e-05 </wgt>
<wgt id='morphing_basis_vector_3'> +5.2864374e-05 </wgt>
<wgt id='morphing_basis_vector_4'> +3.7769701e-05 </wgt>
<wgt id='morphing_basis_vector_5'> +6.0434166e-05 </wgt>
</rwgt>
</event>
<event>
 4      1 +1.9882500e-09 3.42507400e+03 7.81860800e-03 7.65326800e-02
        2 -1    0    0  501    0 +0.0000000000e+00 +0.0000000000e+00 +9.5916094599e+02 9.5916094599e+02 0.0000000000e+00 0.0000e+00 1.0000e+00
       -2 -1    0    0    0  501 -0.0000000000e+00 -0.0000000000e+00 -3.0576549383e+03 3.0576549383e+03 0.0000000000e+00 0.0000e+00 -1.0000e+00
      -13  1    1    2    0    0 +9.8301018974e+02 +1.0079250142e+03 -2.1926570922e+03 2.6057565104e+03 0.0000000000e+00 0.0000e+00 -1.0000e+00
       13  1    1    2    0    0 -9.8301018974e+02 -1.0079250142e+03 +9.4163099867e+01 1.4110593739e+03 0.0000000000e+00 0.0000e+00 1.0000e+00
<mgrwt>
<rscale>  0 0.34250741E+04</rscale>
<asrwt>0</asrwt>
<pdfrwt beam="1">  1        2 0.14756322E+00 0.34250741E+04</pdfrwt>
<pdfrwt beam="2">  1       -2 0.47040845E+00 0.34250741E+04</pdfrwt>
<totfact> 0.47917453E-02</totfact>
</mgrwt>
<rwgt>
<wgt id='morphing_basis_vector_1'> +3.7437476e-05 </wgt>
<wgt id='morphing_basis_vector_2'> +2.5565538e-05 </wgt>
<wgt id='morphing_basis_vector_3'> +4.1009691e-05 </wgt>
<wgt id='morphing_basis_vector_4'> +2.9059127e-05 </wgt>
<wgt id='morphing_basis_vector_5'> +4.6683127e-05 </wgt>
</rwgt>
</event>
<event>
 4      1 +1.9882500e-09 3.52277300e+03 7.81860800e-03 7.63261300e-02
        2 -1    0    0  501    0 +0.0000000000e+00 +0.0000000000e+00 +3.4904319033e+03 3.4904319033e+03 0.0000000000e+00 0.0000e+00 -1.0000e+00
       -2 -1    0    0    0  501 -0.0000000000e+00 -0.0000000000e+00 -8.8885340636e+02 8.8885340636e+02 0.0000000000e+00 0.0000e+00 1.0000e+00
      -13  1    1    2    0    0 +1.5358548010e+03 -8.6196835051e+02 +1.2692694447e+03 2.1709178543e+03 0.0000000000e+00 0.0000e+00 1.0000e+00
       13  1    1    2    0    0 -1.5358548010e+03 +8.6196835051e+02 +1.3323090523e+03 2.2083674553e+03 0.0000000000e+00 0.0000e+00 -1.0000e+00
<mgrwt>
<rscale>  0 0.35227729E+04</rscale>
<asrwt>0</asrwt>
<pdfrwt beam="1">  1        2 0.53698952E+00 0.35227729E+04</pdfrwt>
<pdfrwt beam="2">  1       -2 0.13674668E+00 0.35227729E+04</pdfrwt>
<totfact> 0.29640983E-01</totfact>
</mgrwt>
<rwgt>
<wgt id='morphing_basis_vector_1'> +4.3192597e-05 </wgt>
<wgt id='morphing_basis_vector_2'> +3.2510887e-05 </wgt>
<wgt id='morphing_basis_vector_3'> +4.8004021e-05 </wgt>
<wgt id='morphing_basis_vector_4'> +2.9747585e-05 </wgt>
<wgt id='morphing_basis_vector_5'> +5.2048894e-05 </wgt>
</rwgt>
</event>
<event>
 4      1 +1.9882500e-09 3.43941600e+03 7.81860800e-03 7.65019200e-02
        2 -1    0    0  501    0 +0.0000000000e+00 +0.0000000000e+00 +1.6624320079e+03 1.6624320079e+03 0.0000000000e+00 0.0000e+00 -1.0000e+00
       -2 -1    0    0    0  501 -0.0000000000e+00 -0.0000000000e+00 -1.7789576360e+03 1.7789576360e+03 0.0000000000e+00 0.0000e+00 1.0000e+00
      -13  1    1    2    0    0 +2.2305833855e+02 +1.5613620244e+03 -7.4406814697e+02 1.7439162254e+03 0.0000000000e+00 0.0000e+00 1.0000e+00
       13  1    1    2    0    0 -2.2305833855e+02 -1.5613620244e+03 +6.2754251886e+02 1.6974734186e+03 0.0000000000e+00 0.0000e+00 -1.0000e+00
<mgrwt>
<rscale>  0 0.34394163E+04</rscale>
<asrwt>0</asrwt>
<pdfrwt beam="1">  1        2 0.25575877E+00 0.34394163E+04</pdfrwt>
<pdfrwt beam="2">  1       -2 0.27368579E+00 0.34394163E+04</pdfrwt>
<totfact> 0.38590251E-01</totfact>
</mgrwt>
<rwgt>
<wgt id='morphing_basis_vector_1'> +3.8229037e-05 </wgt>
<wgt id='morphing_basis_vector_2'> +2.6480551e-05 </wgt>
<wgt id='morphing_basis_vector_3'> +4.1962359e-05 </wgt>
<wgt id='morphing_basis_vector_4'> +2.9205716e-05 </wgt>
<wgt id='morphing_basis_vector_5'> +4.7446644e-05 </wgt>
</rwgt>
</event>
<event>
 4      1 +1.9882500e-09 3.32229700e+03 7.81860800e-03 7.67577600e-02
        2 -1    0    0  501    0 +0.0000000000e+00 +0.0000000000e+00 +1.6955456407e+03 1.6955456407e+03 0.0000000000e+00 0.0000e+00 -1.0000e+00
       -2 -1    0    0    0  501 -0.0000000000e+00 -0.0000000000e+00 -1.6274493407e+03 1.6274493407e+03 0.0000000000e+00 0.0000e+00 1.0000e+00
      -13  1    1    2    0    0 +1.1730722488e+03 +9.3777000893e+02 -6.7596258421e+02 1.6469476330e+03 0.0000000000e+00 0.0000e+00 1.0000e+00
       13  1    1    2    0    0 -1.1730722488e+03 -9.3777000893e+02 +7.4405888423e+02 1.6760473483e+03 0.0000000000e+00 0.0000e+00 -1.0000e+00
<mgrwt>
<rscale>  0 0.33222972E+04</rscale>
<asrwt>0</asrwt>
<pdfrwt beam="1">  1        2 0.26085318E+00 0.33222972E+04</pdfrwt>
<pdfrwt beam="2">  1       -2 0.25037682E+00 0.33222972E+04</pdfrwt>
<totfact> 0.54001116E-01</totfact>
</mgrwt>
<rwgt>
<wgt id='morphing_basis_vector_1'> +3.3283800e-05 </wgt>
<wgt id='morphing_basis_vector_2'> +2.2971775e-05 </wgt>
<wgt id='morphing_basis_vector_3'> +3.6484548e-05 </wgt>
<wgt id='morphing_basis_vector_4'> +2.5467716e-05 </wgt>
<wgt id='morphing_basis_vector_5'> +4.1272308e-05 </wgt>
</rwgt>
</event>
<event>
 4      1 +1.9882500e-09 3.25568700e+03 7.81860800e-03 7.69081600e-02
        2 -1    0    0  501    0 +0.0000000000e+00 +0.0000000000e+00 +2.8364219241e+03 2.8364219241e+03 0.0000000000e+00 0.0000e+00 1.0000e+00
       -2 -1    0    0    0  501 -0.0000000000e+00 -0.0000000000e+00 -9.3423124013e+02 9.3423124013e+02 0.0000000000e+00 0.0000e+00 -1.0000e+00
      -13  1    1    2    0    0 -1.4779729988e+03 -9.6518347435e+01 +1.6887388898e+02 1.4907174001e+03 0.0000000000e+00 0.0000e+00 -1.0000e+00
       13  1    1    2    0    0 +1.4779729988e+03 +9.6518347435e+01 +1.7333167949e+03 2.2799357641e+03 0.0000000000e+00 0.0000e+00 1.0000e+00
<mgrwt>
<rscale>  0 0.32556867E+04</rscale>
<asrwt>0</asrwt>
<pdfrwt beam="1">  1        2 0.43637260E+00 0.32556867E+04</pdfrwt>
<pdfrwt beam="2">  1       -2 0.14372788E+00 0.32556867E+04</pdfrwt>
<totfact> 0.73153935E-01</totfact>
</mgrwt>
<rwgt>
<wgt id='morphing_basis_vector_1'> +3.0724546e-05 </wgt>
<wgt id='morphing_basis_vector_2'> +2.1225012e-05 </wgt>
<wgt id='morphing_basis_vector_3'> +3.3665414e-05 </wgt>
<wgt id='morphing_basis_vector_4'> +2.3447065e-05 </wgt>
<wgt id='morphing_basis_vector_5'> +3.8035835e-05 </wgt>
</rwgt>
</event>
<event>
 4      1 +1.9882500e-09 3.37868100e+03 7.81860800e-03 7.66332600e-02
        2 -1    0    0  501    0 +0.0000000000e+00 +0.0000000000e+00 +1.6467253657e+03 1.6467253657e+03 0.0000000000e+00 0.0000e+00 -1.0000e+00
       -2 -1    0    0    0  501 -0.0000000000e+00 -0.0000000000e+00 -1.7330580824e+03 1.7330580824e+03 0.0000000000e+00 0.0000e+00 1.0000e+00
      -13  1    1    2    0    0 +2.2978220820e+02 +1.0313372420e+03 -1.3617067324e+03 1.7235723353e+03 0.0000000000e+00 0.0000e+00 1.0000e+00
       13  1    1    2    0    0 -2.2978220820e+02 -1.0313372420e+03 +1.2753740158e+03 1.6562111128e+03 0.0000000000e+00 0.0000e+00 -1.0000e+00
<mgrwt>
<rscale>  0 0.33786806E+04</rscale>
<asrwt>0</asrwt>
<pdfrwt beam="1">  1        2 0.25334236E+00 0.33786806E+04</pdfrwt>
<pdfrwt beam="2">  1       -2 0.26662432E+00 0.33786806E+04</pdfrwt>
<totfact> 0.44233053E-01</totfact>
</mgrwt>
<rwgt>
<wgt id='morphing_basis_vector_1'> +3.5377784e-05 </wgt>
<wgt id='morphing_basis_vector_2'> +2.3959591e-05 </wgt>
<wgt id='morphing_basis_vector_3'> +3.8697460e-05 </wgt>
<wgt id='morphing_basis_vector_4'> +2.7686361e-05 </wgt>
<wgt id='morphing_basis_vector_5'> +4.4203043e-05 </wgt>
</rwgt>
</event>
<event>
 4      1 +1.9882500e-09 3.32203900e+03 7.81860800e-03 7.67583400e-02
        2 -1    0    0  501    0 +0.0000000000e+00 +0.0000000000e+00 +1.3883795127e+03 1.3883795127e+03 0.0000000000e+00 0.0000e+00 -1.0000e+00
       -2 -1    0    0    0  501 -0.0000000000e+00 -0.0000000000e+00 -1.9871982050e+03 1.9871982050e+03 0.0000000000e+00 0.0000e+00 1.0000e+00
      -13  1    1    2    0    0 +5.7194588894e+02 +8.8565793504e+02 -1.6036345944e+03 1.9191550198e+03 0.0000000000e+00 0.0000e+00 1.0000e+00
       13  1    1    2    0    0 -5.7194588894e+02 -8.8565793504e+02 +1.0048159021e+03 1.4564226979e+03 0.0000000000e+00 0.0000e+00 -1.0000e+00
<mgrwt>
<rscale>  0 0.33220387E+04</rscale>
<asrwt>0</asrwt>
<pdfrwt beam="1">  1        2 0.21359685E+00 0.33220387E+04</pdfrwt>
<pdfrwt beam="2">  1       -2 0.30572280E+00 0.33220387E+04</pdfrwt>
<totfact> 0.33644109E-01</totfact>
</mgrwt>
<rwgt>
<wgt id='morphing_basis_vector_1'> +3.3082329e-05 </wgt>
<wgt id='morphing_basis_vector_2'> +2.2402028e-05 </wgt>
<wgt id='morphing_basis_vector_3'> +3.6170792e-05 </wgt>
<wgt id='morphing_basis_vector_4'> +2.5860471e-05 </wgt>
<wgt id='morphing_basis_vector_5'> +4.1292498e-05 </wgt>
</rwgt>
</event>
<event>
 4      1 +1.9882500e-09 3.33182200e+03 7.81860800e-03 7.67365500e-02
        2 -1    0    0  501    0 +0.0000000000e+00 +0.0000000000e+00 +2.8487724743e+03 2.8487724743e+03 0.0000000000e+00 0.0000e+00 1.0000e+00
       -2 -1    0    0    0  501 -0.0000000000e+00 -0.0000000000e+00 -9.7419490014e+02 9.7419490014e+02 0.0000000000e+00 0.0000e+00 -1.0000e+00
      -13  1    1    2    0    0 -6.3282909819e+02 -1.5334329726e+03 +1.1126972835e+03 1.9974945791e+03 0.0000000000e+00 0.0000e+00 -1.0000e+00
       13  1    1    2    0    0 +6.3282909819e+02 +1.5334329726e+03 +7.6188029060e+02 1.8254727952e+03 0.0000000000e+00 0.0000e+00 1.0000e+00
<mgrwt>
<rscale>  0 0.33318221E+04</rscale>
<asrwt>0</asrwt>
<pdfrwt beam="1">  1        2 0.43827268E+00 0.33318221E+04</pdfrwt>
<pdfrwt beam="2">  1       -2 0.14987614E+00 0.33318221E+04</pdfrwt>
<totfact> 0.63431620E-01</totfact>
</mgrwt>
<rwgt>
<wgt id='morphing_basis_vector_1'> +3.5149647e-05 </wgt>
<wgt id='morphing_basis_vector_2'> +2.7606412e-05 </wgt>
<wgt id='morphing_basis_vector_3'> +3.9254620e-05 </wgt>
<wgt id='morphing_basis_vector_4'> +2.2649264e-05 </wgt>
<wgt id='morphing_basis_vector_5'> +4.1493652e-05 </wgt>
</rwgt>
</event>
<event>
 4      1 +1.9882500e-09 3.26073900e+03 7.81860800e-03 7.68966300e-02
        2 -1    0    0  501    0 +0.0000000000e+00 +0.0000000000e+00 +9.9855352941e+02 9.9855352941e+02 0.0000000000e+00 0.0000e+00 -1.0000e+00
       -2 -1    0    0    0  501 -0.0000000000e+00 -0.0000000000e+00 -2.6619555515e+03 2.6619555515e+03 0.0000000000e+00 0.0000e+00 1.0000e+00
      -13  1    1    2    0    0 -1.5289085761e+03 +2.6944547145e+02 -1.3906873335e+03 2.0842681103e+03 0.0000000000e+00 0.0000e+00 1.0000e+00
       13  1    1    2    0    0 +1.5289085761e+03 -2.6944547145e+02 -2.7271468858e+02 1.5762409706e+03 0.0000000000e+00 0.0000e+00 -1.0000e+00
<mgrwt>
<rscale>  0 0.32607392E+04</rscale>
<asrwt>0</asrwt>
<pdfrwt beam="1">  1        2 0.15362362E+00 0.32607392E+04</pdfrwt>
<pdfrwt beam="2">  1       -2 0.40953162E+00 0.32607392E+04</pdfrwt>
<totfact> 0.12029337E-01</totfact>
</mgrwt>
<rwgt>
<wgt id='morphing_basis_vector_1'> +3.1047882e-05 </wgt>
<wgt id='morphing_basis_vector_2'> +2.1749967e-05 </wgt>
<wgt id='morphing_basis_vector_3'> +3.4085814e-05 </wgt>
<wgt id='morphing_basis_vector_4'> +2.3314225e-05 </wgt>
<wgt id='morphing_basis_vector_5'> +3.8251170e-05 </wgt>
</rwgt>
</event>
<event>
 4      1 +1.9882500e-09 3.26624600e+03 7.81860800e-03 7.68840800e-02
        2 -1    0    0  501    0 +0.0000000000e+00 +0.0000000000e+00 +2.7407700774e+03 2.7407700774e+03 0.0000000000e+00 0.0000e+00 1.0000e+00
       -2 -1    0    0    0  501 -0.0000000000e+00 -0.0000000000e+00 -9.7311702402e+02 9.7311702402e+02 0.0000000000e+00 0.0000e+00 -1.0000e+00
      -13  1    1    2    0    0 +1.3393976095e+03 +5.1365871039e+02 -3.6988261061e+00 1.4345190513e+03 0.0000000000e+00 0.0000e+00 -1.0000e+00
       13  1    1    2    0    0 -1.3393976095e+03 -5.1365871039e+02 +1.7713518795e+03 2.2793680502e+03 0.0000000000e+00 0.0000e+00 1.0000e+00
<mgrwt>
<rscale>  0 0.32662456E+04</rscale>
<asrwt>0</asrwt>
<pdfrwt beam="1">  1        2 0.42165693E+00 0.32662456E+04</pdfrwt>
<pdfrwt beam="2">  1       -2 0.14971031E+00 0.32662456E+04</pdfrwt>
<totfact> 0.74778848E-01</totfact>
</mgrwt>
<rwgt>
<wgt id='morphing_basis_vector_1'> +3.1065534e-05 </wgt>
<wgt id='morphing_basis_vector_2'> +2.1334689e-05 </wgt>
<wgt id='morphing_basis_vector_3'> +3.4014981e-05 </wgt>
<wgt id='morphing_basis_vector_4'> +2.3873142e-05 </wgt>
<wgt id='morphing_basis_vector_5'> +3.8545164e-05 </wgt>
</rwgt>
</event>
<event>
 4      1 +1.9882500e-09 3.59390500e+03 7.81860800e-03 7.61800100e-02
        2 -1    0    0  501    0 +0.0000000000e+00 +0.0000000000e+00 +1.7485575028e+03 1.7485575028e+03 0.0000000000e+00 0.0000e+00 1.0000e+00
       -2 -1    0    0    0  501 -0.0000000000e+00 -0.0000000000e+00 -1.8466873384e+03 1.8466873384e+03 0.0000000000e+00 0.0000e+00 -1.0000e+00
      -13  1    1    2    0    0 -1.4854534551e+03 +5.6916260181e+02 -8.8515207774e+02 1.8204428679e+03 0.0000000000e+00 0.0000e+00 -1.0000e+00
       13  1    1    2    0    0 +1.4854534551e+03 -5.6916260181e+02 +7.8702224221e+02 1.7748019733e+03 0.0000000000e+00 0.0000e+00 1.0000e+00
<mgrwt>
<rscale>  0 0.35939054E+04</rscale>
<asrwt>0</asrwt>
<pdfrwt beam="1">  1        2 0.26900885E+00 0.35939054E+04</pdfrwt>
<pdfrwt beam="2">  1       -2 0.28410574E+00 0.35939054E+04</pdfrwt>
<totfact> 0.28979718E-01</totfact>
</mgrwt>
<rwgt>
<wgt id='morphing_basis_vector_1'> +4.5429432e-05 </wgt>
<wgt id='morphing_basis_vector_2'> +3.1282605e-05 </wgt>
<wgt id='morphing_basis_vector_3'> +4.9875921e-05 </wgt>
<wgt id='morphing_basis_vector_4'> +3.5049215e-05 </wgt>
<wgt id='morphing_basis_vector_5'> +5.6643051e-05 </wgt>
</rwgt>
</event>
<event>
 4      1 +1.9882500e-09 3.74605500e+03 7.81860800e-03 7.58788000e-02
        2 -1    0    0  501    0 +0.0000000000e+00 +0.0000000000e+00 +2.6747364628e+03 2.6747364628e+03 0.0000000000e+00 0.0000e+00 -1.0000e+00
       -2 -1    0    0    0  501 -0.0000000000e+00 -0.0000000000e+00 -1.3116179265e+03 1.3116179265e+03 0.0000000000e+00 0.0000e+00 1.0000e+00
      -13  1    1    2    0    0 -1.8306315038e+03 +1.5475046317e+02 +1.0697512172e+03 2.1259179371e+03 0.0000000000e+00 0.0000e+00 1.0000e+00
       13  1    1    2    0    0 +1.8306315038e+03 -1.5475046317e+02 +2.9336731912e+02 1.8604364521e+03 0.0000000000e+00 0.0000e+00 -1.0000e+00
<mgrwt>
<rscale>  0 0.37460551E+04</rscale>
<asrwt>0</asrwt>
<pdfrwt beam="1">  1        2 0.41149792E+00 0.37460551E+04</pdfrwt>
<pdfrwt beam="2">  1       -2 0.20178737E+00 0.37460551E+04</pdfrwt>
<totfact> 0.31317467E-01</totfact>
</mgrwt>
<rwgt>
<wgt id='morphing_basis_vector_1'> +5.7139557e-05 </wgt>
<wgt id='morphing_basis_vector_2'> +4.7403904e-05 </wgt>
<wgt id='morphing_basis_vector_3'> +6.4570931e-05 </wgt>
<wgt id='morphing_basis_vector_4'> +3.3884684e-05 </wgt>
<wgt id='morphing_basis_vector_5'> +6.6301474e-05 </wgt>
</rwgt>
</event>
<event>
 4      1 +1.9882500e-09 3.27404500e+03 7.81860800e-03 7.68663400e-02
        2 -1    0    0  501    0 +0.0000000000e+00 +0.0000000000e+00 +3.6471175126e+03 3.6471175126e+03 0.0000000000e+00 0.0000e+00 -1.0000e+00
       -2 -1    0    0    0  501 -0.0000000000e+00 -0.0000000000e+00 -7.3478367354e+02 7.3478367354e+02 0.0000000000e+00 0.0000e+00 1.0000e+00
      -13  1    1    2    0    0 +8.0718305253e+02 -2.7939573895e+02 -4.1288572916e+02 9.4872603241e+02 0.0000000000e+00 0.0000e+00 1.0000e+00
       13  1    1    2    0    0 -8.0718305253e+02 +2.7939573895e+02 +3.3252195682e+03 3.4331751537e+03 0.0000000000e+00 0.0000e+00 -1.0000e+00
<mgrwt>
<rscale>  0 0.32740448E+04</rscale>
<asrwt>0</asrwt>
<pdfrwt beam="1">  1        2 0.56109499E+00 0.32740448E+04</pdfrwt>
<pdfrwt beam="2">  1       -2 0.11304364E+00 0.32740448E+04</pdfrwt>
<totfact> 0.38179045E-01</totfact>
</mgrwt>
<rwgt>
<wgt id='morphing_basis_vector_1'> +3.1212370e-05 </wgt>
<wgt id='morphing_basis_vector_2'> +2.1101034e-05 </wgt>
<wgt id='morphing_basis_vector_3'> +3.4106085e-05 </wgt>
<wgt id='morphing_basis_vector_4'> +2.4414963e-05 </wgt>
<wgt id='morphing_basis_vector_5'> +3.8943119e-05 </wgt>
</rwgt>
</event>
<event>
 4      1 +1.9882500e-09 3.48533300e+03 7.81860800e-03 7.64044600e-02
        2 -1    0    0  501    0 +0.0000000000e+00 +0.0000000000e+00 +1.6206161181e+03 1.6206161181e+03 0.0000000000e+00 0.0000e+00 1.0000e+00
       -2 -1    0    0    0  501 -0.0000000000e+00 -0.0000000000e+00 -1.8739088438e+03 1.8739088438e+03 0.0000000000e+00 0.0000e+00 -1.0000e+00
      -13  1    1    2    0    0 +3.6103894234e+02 +7.1700324548e+02 -1.6774783281e+03 1.8596710228e+03 0.0000000000e+00 0.0000e+00 -1.0000e+00
       13  1    1    2    0    0 -3.6103894234e+02 -7.1700324548e+02 +1.4241856024e+03 1.6348539391e+03 0.0000000000e+00 0.0000e+00 1.0000e+00
<mgrwt>
<rscale>  0 0.34853332E+04</rscale>
<asrwt>0</asrwt>
<pdfrwt beam="1">  1        2 0.24932556E+00 0.34853332E+04</pdfrwt>
<pdfrwt beam="2">  1       -2 0.28829367E+00 0.34853332E+04</pdfrwt>
<totfact> 0.32260659E-01</totfact>
</mgrwt>
<rwgt>
<wgt id='morphing_basis_vector_1'> +4.0007118e-05 </wgt>
<wgt id='morphing_basis_vector_2'> +2.7065735e-05 </wgt>
<wgt id='morphing_basis_vector_3'> +4.3787022e-05 </wgt>
<wgt id='morphing_basis_vector_4'> +3.1416927e-05 </wgt>
<wgt id='morphing_basis_vector_5'> +5.0099613e-05 </wgt>
</rwgt>
</event>
<event>
 4      1 +1.9882500e-09 3.56434000e+03 7.81860800e-03 7.62403200e-02
        2 -1    0    0  501    0 +0.0000000000e+00 +0.0000000000e+00 +3.3013518392e+03 3.3013518392e+03 0.0000000000e+00 0.0000e+00 -1.0000e+00
       -2 -1    0    0    0  501 -0.0000000000e+00 -0.0000000000e+00 -9.6206963525e+02 9.6206963525e+02 0.0000000000e+00 0.0000e+00 1.0000e+00
      -13  1    1    2    0    0 +3.5649878212e+02 -6.4419446750e+02 -7.7165294928e+02 1.0665487179e+03 0.0000000000e+00 0.0000e+00 1.0000e+00
       13  1    1    2    0    0 -3.5649878212e+02 +6.4419446750e+02 +3.1109351532e+03 3.1968727565e+03 0.0000000000e+00 0.0000e+00 -1.0000e+00
<mgrwt>
<rscale>  0 0.35643403E+04</rscale>
<asrwt>0</asrwt>
<pdfrwt beam="1">  1        2 0.50790028E+00 0.35643403E+04</pdfrwt>
<pdfrwt beam="2">  1       -2 0.14801071E+00 0.35643403E+04</pdfrwt>
<totfact> 0.32310924E-01</totfact>
</mgrwt>
<rwgt>
<wgt id='morphing_basis_vector_1'> +4.3731647e-05 </wgt>
<wgt id='morphing_basis_vector_2'> +2.9590483e-05 </wgt>
<wgt id='morphing_basis_vector_3'> +4.7888560e-05 </wgt>
<wgt id='morphing_basis_vector_4'> +3.4388310e-05 </wgt>
<wgt id='morphing_basis_vector_5'> +5.4831039e-05 </wgt>
</rwgt>
</event>
<event>
 4      1 +1.9882500e-09 3.59645600e+03 7.81860800e-03 7.61748400e-02
        2 -1    0    0  501    0 +0.0000000000e+00 +0.0000000000e+00 +1.9295761709e+03 1.9295761709e+03 0.0000000000e+00 0.0000e+00 1.0000e+00
       -2 -1    0    0    0  501 -0.0000000000e+00 -0.0000000000e+00 -1.6758209235e+03 1.6758209235e+03 0.0000000000e+00 0.0000e+00 -1.0000e+00
      -13  1    1    2    0    0 -1.4084148728e+03 -4.2932995929e+02 -9.0800046519e+02 1.7298617033e+03 0.0000000000e+00 0.0000e+00 -1.0000e+00
       13  1    1    2    0    0 +1.4084148728e+03 +4.2932995929e+02 +1.1617557126e+03 1.8755353912e+03 0.0000000000e+00 0.0000e+00 1.0000e+00
<mgrwt>
<rscale>  0 0.35964561E+04</rscale>
<asrwt>0</asrwt>
<pdfrwt beam="1">  1        2 0.29685787E+00 0.35964561E+04</pdfrwt>
<pdfrwt beam="2">  1       -2 0.25781860E+00 0.35964561E+04</pdfrwt>
<totfact> 0.34732348E-01</totfact>
</mgrwt>
<rwgt>
<wgt id='morphing_basis_vector_1'> +4.5449113e-05 </wgt>
<wgt id='morphing_basis_vector_2'> +3.1051843e-05 </wgt>
<wgt id='morphing_basis_vector_3'> +4.9844665e-05 </wgt>
<wgt id='morphing_basis_vector_4'> +3.5378047e-05 </wgt>
<wgt id='morphing_basis_vector_5'> +5.6823987e-05 </wgt>
</rwgt>
</event>
<event>
 4      1 +1.9882500e-09 3.60188700e+03 7.81860800e-03 7.61638400e-02
        2 -1    0    0  501    0 +0.0000000000e+00 +0.0000000000e+00 +1.1851909556e+03 1.1851909556e+03 0.0000000000e+00 0.0000e+00 -1.0000e+00
       -2 -1    0    0    0  501 -0.0000000000e+00 -0.0000000000e+00 -2.7366039976e+03 2.7366039976e+03 0.0000000000e+00 0.0000e+00 1.0000e+00
      -13  1    1    2    0    0 -1.3560059495e+01 +1.8001199684e+03 -8.3314127316e+02 1.9836179463e+03 0.0000000000e+00 0.0000e+00 1.0000e+00
       13  1    1    2    0    0 +1.3560059495e+01 -1.8001199684e+03 -7.1827176888e+02 1.9381770068e+03 0.0000000000e+00 0.0000e+00 -1.0000e+00
<mgrwt>
<rscale>  0 0.36018875E+04</rscale>
<asrwt>0</asrwt>
<pdfrwt beam="1">  1        2 0.18233707E+00 0.36018875E+04</pdfrwt>
<pdfrwt beam="2">  1       -2 0.42101599E+00 0.36018875E+04</pdfrwt>
<totfact> 0.75766027E-02</totfact>
</mgrwt>
<rwgt>
<wgt id='morphing_basis_vector_1'> +4.7094601e-05 </wgt>
<wgt id='morphing_basis_vector_2'> +3.5274751e-05 </wgt>
<wgt id='morphing_basis_vector_3'> +5.2331536e-05 </wgt>
<wgt id='morphing_basis_vector_4'> +3.2705029e-05 </wgt>
<wgt id='morphing_basis_vector_5'> +5.6930469e-05 </wgt>
</rwgt>
</event>
<event>
 4      1 +1.9882500e-09 3.21601100e+03 7.81860800e-03 7.69995200e-02
        2 -1    0    0  501    0 +0.0000000000e+00 +0.0000000000e+00 +2.0331488038e+03 2.0331488038e+03 0.0000000000e+00 0.0000e+00 1.0000e+00
       -2 -1    0    0    0  501 -0.0000000000e+00 -0.0000000000e+00 -1.2717620843e+03 1.2717620843e+03 0.0000000000e+00 0.0000e+00 -1.0000e+00
      -13  1    1    2    0    0 -1.5512521367e+03 +2.6441346578e+02 +7.2056812204e+02 1.7307559305e+03 0.0000000000e+00 0.0000e+00 1.0000e+00
       13  1    1    2    0    0 +1.5512521367e+03 -2.6441346578e+02 +4.0818597417e+01 1.5741549576e+03 0.0000000000e+00 0.0000e+00 -1.0000e+00
<mgrwt>
<rscale>  0 0.32160109E+04</rscale>
<asrwt>0</asrwt>
<pdfrwt beam="1">  1        2 0.31279212E+00 0.32160109E+04</pdfrwt>
<pdfrwt beam="2">  1       -2 0.19565571E+00 0.32160109E+04</pdfrwt>
<totfact> 0.86239254E-01</totfact>
</mgrwt>
<rwgt>
<wgt id='morphing_basis_vector_1'> +3.1245131e-05 </wgt>
<wgt id='morphing_basis_vector_2'> +2.6040203e-05 </wgt>
<wgt id='morphing_basis_vector_3'> +3.5176677e-05 </wgt>
<wgt id='morphing_basis_vector_4'> +1.8174985e-05 </wgt>
<wgt id='morphing_basis_vector_5'> +3.5860078e-05 </wgt>
</rwgt>
</event>
<event>
 4      1 +1.9882500e-09 3.69264600e+03 7.81860800e-03 7.59828400e-02
        2 -1    0    0  501    0 +0.0000000000e+00 +0.0000000000e+00 +2.1747269070e+03 2.1747269070e+03 0.0000000000e+00 0.0000e+00 -1.0000e+00
       -2 -1    0    0    0  501 -0.0000000000e+00 -0.0000000000e+00 -1.5675114893e+03 1.5675114893e+03 0.0000000000e+00 0.0000e+00 1.0000e+00
      -13  1    1    2    0    0 +1.4498223977e+03 -8.2830183802e+02 -4.9490851076e+02 1.7415519957e+03 0.0000000000e+00 0.0000e+00 1.0000e+00
       13  1    1    2    0    0 -1.4498223977e+03 +8.2830183802e+02 +1.1021239284e+03 2.0006864005e+03 0.0000000000e+00 0.0000e+00 -1.0000e+00
<mgrwt>
<rscale>  0 0.36926464E+04</rscale>
<asrwt>0</asrwt>
<pdfrwt beam="1">  1        2 0.33457337E+00 0.36926464E+04</pdfrwt>
<pdfrwt beam="2">  1       -2 0.24115561E+00 0.36926464E+04</pdfrwt>
<totfact> 0.32657873E-01</totfact>
</mgrwt>
<rwgt>
<wgt id='morphing_basis_vector_1'> +5.0653722e-05 </wgt>
<wgt id='morphing_basis_vector_2'> +3.5019769e-05 </wgt>
<wgt id='morphing_basis_vector_3'> +5.5674643e-05 </wgt>
<wgt id='morphing_basis_vector_4'> +3.8969439e-05 </wgt>
<wgt id='morphing_basis_vector_5'> +6.3160466e-05 </wgt>
</rwgt>
</event>
<event>
 4      1 +1.9882500e-09 3.33530800e+03 7.81860800e-03 7.67288100e-02
        2 -1    0    0  501    0 +0.0000000000e+00 +0.0000000000e+00 +4.0976807847e+03 4.0976807847e+03 0.0000000000e+00 0.0000e+00 -1.0000e+00
       -2 -1    0    0    0  501 -0.0000000000e+00 -0.0000000000e+00 -6.7869357064e+02 6.7869357064e+02 0.0000000000e+00 0.0000e+00 1.0000e+00
      -13  1    1    2    0    0 -5.1777623523e+02 +1.3506561525e+03 +5.2104842186e+02 1.5374835706e+03 0.0000000000e+00 0.0000e+00 1.0000e+00
       13  1    1    2    0    0 +5.1777623523e+02 -1.3506561525e+03 +2.8979387922e+03 3.2388907847e+03 0.0000000000e+00 0.0000e+00 -1.0000e+00
<mgrwt>
<rscale>  0 0.33353078E+04</rscale>
<asrwt>0</asrwt>
<pdfrwt beam="1">  1        2 0.63041241E+00 0.33353078E+04</pdfrwt>
<pdfrwt beam="2">  1       -2 0.10441440E+00 0.33353078E+04</pdfrwt>
<totfact> 0.19836805E-01</totfact>
</mgrwt>
<rwgt>
<wgt id='morphing_basis_vector_1'> +3.3739914e-05 </wgt>
<wgt id='morphing_basis_vector_2'> +2.3142998e-05 </wgt>
<wgt id='morphing_basis_vector_3'> +3.6957262e-05 </wgt>
<wgt id='morphing_basis_vector_4'> +2.6006922e-05 </wgt>
<wgt id='morphing_basis_vector_5'> +4.1938502e-05 </wgt>
</rwgt>
</event>
<event>
 4      1 +1.9882500e-09 3.50106800e+03 7.81860800e-03 7.63714100e-02
        2 -1    0    0  501    0 +0.0000000000e+00 +0.0000000000e+00 +1.7690793150e+03 1.7690793150e+03 0.0000000000e+00 0.0000e+00 1.0000e+00
       -2 -1    0    0    0  501 -0.0000000000e+00 -0.0000000000e+00 -1.7321831154e+03 1.7321831154e+03 0.0000000000e+00 0.0000e+00 -1.0000e+00
      -13  1    1    2    0    0 -1.6398352233e+03 -1.1923466027e+02 -5.8249529086e+02 1.7442984916e+03 0.0000000000e+00 0.0000e+00 -1.0000e+00
       13  1    1    2    0    0 +1.6398352233e+03 +1.1923466027e+02 +6.1939149046e+02 1.7569639388e+03 0.0000000000e+00 0.0000e+00 1.0000e+00
<mgrwt>
<rscale>  0 0.35010680E+04</rscale>
<asrwt>0</asrwt>
<pdfrwt beam="1">  1        2 0.27216605E+00 0.35010680E+04</pdfrwt>
<pdfrwt beam="2">  1       -2 0.26648971E+00 0.35010680E+04</pdfrwt>
<totfact> 0.37516045E-01</totfact>
</mgrwt>
<rwgt>
<wgt id='morphing_basis_vector_1'> +4.1110683e-05 </wgt>
<wgt id='morphing_basis_vector_2'> +2.8677614e-05 </wgt>
<wgt id='morphing_basis_vector_3'> +4.5188336e-05 </wgt>
<wgt id='morphing_basis_vector_4'> +3.1190608e-05 </wgt>
<wgt id='morphing_basis_vector_5'> +5.0950071e-05 </wgt>
</rwgt>
</event>
<event>
 4      1 +1.9882500e-09 3.27709300e+03 7.81860800e-03 7.68594300e-02
        2 -1    0    0  501    0 +0.0000000000e+00 +0.0000000000e+00 +1.5037971445e+03 1.5037971445e+03 0.0000000000e+00 0.0000e+00 -1.0000e+00
       -2 -1    0    0    0  501 -0.0000000000e+00 -0.0000000000e+00 -1.7853698655e+03 1.7853698655e+03 0.0000000000e+00 0.0000e+00 1.0000e+00
      -13  1    1    2    0    0 +1.3816767329e+03 -8.5238690480e+02 +8.1932275833e+01 1.6255174338e+03 0.0000000000e+00 0.0000e+00 1.0000e+00
       13  1    1    2    0    0 -1.3816767329e+03 +8.5238690480e+02 -3.6350499681e+02 1.6636495762e+03 0.0000000000e+00 0.0000e+00 -1.0000e+00
<mgrwt>
<rscale>  0 0.32770927E+04</rscale>
<asrwt>0</asrwt>
<pdfrwt beam="1">  1        2 0.23135341E+00 0.32770927E+04</pdfrwt>
<pdfrwt beam="2">  1       -2 0.27467229E+00 0.32770927E+04</pdfrwt>
<totfact> 0.47210007E-01</totfact>
</mgrwt>
<rwgt>
<wgt id='morphing_basis_vector_1'> +3.3171756e-05 </wgt>
<wgt id='morphing_basis_vector_2'> +2.6606065e-05 </wgt>
<wgt id='morphing_basis_vector_3'> +3.7145950e-05 </wgt>
<wgt id='morphing_basis_vector_4'> +2.0645025e-05 </wgt>
<wgt id='morphing_basis_vector_5'> +3.8770426e-05 </wgt>
</rwgt>
</event>
<event>
 4      1 +1.9882500e-09 3.24041400e+03 7.81860800e-03 7.69431700e-02
        2 -1    0    0  501    0 +0.0000000000e+00 +0.0000000000e+00 +1.6418220050e+03 1.6418220050e+03 0.0000000000e+00 0.0000e+00 -1.0000e+00
       -2 -1    0    0    0  501 -0.0000000000e+00 -0.0000000000e+00 -1.5988769726e+03 1.5988769726e+03 0.0000000000e+00 0.0000e+00 1.0000e+00
      -13  1    1    2    0    0 -9.7902288782e+02 +1.0839858353e+03 +7.2264769331e+02 1.6296413086e+03 0.0000000000e+00 0.0000e+00 1.0000e+00
       13  1    1    2    0    0 +9.7902288782e+02 -1.0839858353e+03 -6.7970266086e+02 1.6110576691e+03 0.0000000000e+00 0.0000e+00 -1.0000e+00
<mgrwt>
<rscale>  0 0.32404144E+04</rscale>
<asrwt>0</asrwt>
<pdfrwt beam="1">  1        2 0.25258800E+00 0.32404144E+04</pdfrwt>
<pdfrwt beam="2">  1       -2 0.24598107E+00 0.32404144E+04</pdfrwt>
<totfact> 0.62472757E-01</totfact>
</mgrwt>
<rwgt>
<wgt id='morphing_basis_vector_1'> +3.4530469e-05 </wgt>
<wgt id='morphing_basis_vector_2'> +3.3704633e-05 </wgt>
<wgt id='morphing_basis_vector_3'> +3.9940431e-05 </wgt>
<wgt id='morphing_basis_vector_4'> +1.3852920e-05 </wgt>
<wgt id='morphing_basis_vector_5'> +3.6566142e-05 </wgt>
</rwgt>
</event>
<event>
 4      1 +1.9882500e-09 3.57493400e+03 7.81860800e-03 7.62186400e-02
        2 -1    0    0  501    0 +0.0000000000e+00 +0.0000000000e+00 +4.3064716479e+03 4.3064716479e+03 0.0000000000e+00 0.0000e+00 -1.0000e+00
       -2 -1    0    0    0  501 -0.0000000000e+00 -0.0000000000e+00 -7.4191539668e+02 7.4191539668e+02 0.0000000000e+00 0.0000e+00 1.0000e+00
      -13  1    1    2    0    0 -1.2336185578e+03 +1.2047813540e+03 +2.4472323667e+03 2.9937032441e+03 0.0000000000e+00 0.0000e+00 1.0000e+00
       13  1    1    2    0    0 +1.2336185578e+03 -1.2047813540e+03 +1.1173238845e+03 2.0546838005e+03 0.0000000000e+00 0.0000e+00 -1.0000e+00
<mgrwt>
<rscale>  0 0.35749336E+04</rscale>
<asrwt>0</asrwt>
<pdfrwt beam="1">  1        2 0.66253409E+00 0.35749336E+04</pdfrwt>
<pdfrwt beam="2">  1       -2 0.11414083E+00 0.35749336E+04</pdfrwt>
<totfact> 0.10014759E-01</totfact>
</mgrwt>
<rwgt>
<wgt id='morphing_basis_vector_1'> +4.8259763e-05 </wgt>
<wgt id='morphing_basis_vector_2'> +4.1735229e-05 </wgt>
<wgt id='morphing_basis_vector_3'> +5.4841712e-05 </wgt>
<wgt id='morphing_basis_vector_4'> +2.6364226e-05 </wgt>
<wgt id='morphing_basis_vector_5'> +5.4790046e-05 </wgt>
</rwgt>
</event>
<event>
 4      1 +1.9882500e-09 3.53752700e+03 7.81860800e-03 7.62955300e-02
        2 -1    0    0  501    0 +0.0000000000e+00 +0.0000000000e+00 +3.6099078306e+03 3.6099078306e+03 0.0000000000e+00 0.0000e+00 1.0000e+00
       -2 -1    0    0    0  501 -0.0000000000e+00 -0.0000000000e+00 -8.6664931358e+02 8.6664931358e+02 0.0000000000e+00 0.0000e+00 -1.0000e+00
      -13  1    1    2    0    0 +9.6197077719e+02 -5.7244630089e+02 -3.6136113040e+02 1.1762926550e+03 0.0000000000e+00 0.0000e+00 -1.0000e+00
       13  1    1    2    0    0 -9.6197077719e+02 +5.7244630089e+02 +3.1046196474e+03 3.3002644892e+03 0.0000000000e+00 0.0000e+00 1.0000e+00
<mgrwt>
<rscale>  0 0.35375269E+04</rscale>
<asrwt>0</asrwt>
<pdfrwt beam="1">  1        2 0.55537043E+00 0.35375269E+04</pdfrwt>
<pdfrwt beam="2">  1       -2 0.13333067E+00 0.35375269E+04</pdfrwt>
<totfact> 0.25864794E-01</totfact>
</mgrwt>
<rwgt>
<wgt id='morphing_basis_vector_1'> +4.2463032e-05 </wgt>
<wgt id='morphing_basis_vector_2'> +2.8783510e-05 </wgt>
<wgt id='morphing_basis_vector_3'> +4.6502866e-05 </wgt>
<wgt id='morphing_basis_vector_4'> +3.3308061e-05 </wgt>
<wgt id='morphing_basis_vector_5'> +5.3185305e-05 </wgt>
</rwgt>
</event>
<event>
 4      1 +1.9882500e-09 3.31779400e+03 7.81860800e-03 7.67678100e-02
        2 -1    0    0  501    0 +0.0000000000e+00 +0.0000000000e+00 +2.7135551168e+03 2.7135551168e+03 0.0000000000e+00 0.0000e+00 1.0000e+00
       -2 -1    0    0    0  501 -0.0000000000e+00 -0.0000000000e+00 -1.0141454316e+03 1.0141454316e+03 0.0000000000e+00 0.0000e+00 -1.0000e+00
      -13  1    1    2    0    0 -6.9874732036e+02 +1.0325181533e+03 -3.7984773519e+02 1.3033134145e+03 0.0000000000e+00 0.0000e+00 -1.0000e+00
       13  1    1    2    0    0 +6.9874732036e+02 -1.0325181533e+03 +2.0792574205e+03 2.4243871339e+03 0.0000000000e+00 0.0000e+00 1.0000e+00
<mgrwt>
<rscale>  0 0.33177942E+04</rscale>
<asrwt>0</asrwt>
<pdfrwt beam="1">  1        2 0.41747002E+00 0.33177942E+04</pdfrwt>
<pdfrwt beam="2">  1       -2 0.15602237E+00 0.33177942E+04</pdfrwt>
<totfact> 0.68706799E-01</totfact>
</mgrwt>
<rwgt>
<wgt id='morphing_basis_vector_1'> +3.2948970e-05 </wgt>
<wgt id='morphing_basis_vector_2'> +2.2388572e-05 </wgt>
<wgt id='morphing_basis_vector_3'> +3.6040380e-05 </wgt>
<wgt id='morphing_basis_vector_4'> +2.5656071e-05 </wgt>
<wgt id='morphing_basis_vector_5'> +4.1074434e-05 </wgt>
</rwgt>
</event>
<event>
 4      1 +1.9882500e-09 3.72995000e+03 7.81860800e-03 7.59099800e-02
        2 -1    0    0  501    0 +0.0000000000e+00 +0.0000000000e+00 +2.1470194836e+03 2.1470194836e+03 0.0000000000e+00 0.0000e+00 -1.0000e+00
       -2 -1    0    0    0  501 -0.0000000000e+00 -0.0000000000e+00 -1.6199815893e+03 1.6199815893e+03 0.0000000000e+00 0.0000e+00 1.0000e+00
      -13  1    1    2    0    0 -5.0914491650e+01 +5.5645331495e+02 -1.5334529087e+03 1.6320877429e+03 0.0000000000e+00 0.0000e+00 1.0000e+00
       13  1    1    2    0    0 +5.0914491650e+01 -5.5645331495e+02 +2.0604908031e+03 2.1349133300e+03 0.0000000000e+00 0.0000e+00 -1.0000e+00
<mgrwt>
<rscale>  0 0.37299502E+04</rscale>
<asrwt>0</asrwt>
<pdfrwt beam="1">  1        2 0.33031069E+00 0.37299502E+04</pdfrwt>
<pdfrwt beam="2">  1       -2 0.24922794E+00 0.37299502E+04</pdfrwt>
<totfact> 0.29681552E-01</totfact>
</mgrwt>
<rwgt>
<wgt id='morphing_basis_vector_1'> +5.2381267e-05 </wgt>
<wgt id='morphing_basis_vector_2'> +3.5459152e-05 </wgt>
<wgt id='morphing_basis_vector_3'> +5.7418410e-05 </wgt>
<wgt id='morphing_basis_vector_4'> +4.1289937e-05 </wgt>
<wgt id='morphing_basis_vector_5'> +6.5826080e-05 </wgt>
</rwgt>
</event>
<event>
 4      1 +1.9882500e-09 3.28880600e+03 7.81860800e-03 7.68329200e-02
        2 -1    0    0  501    0 +0.0000000000e+00 +0.0000000000e+00 +3.9232017439e+03 3.9232017439e+03 0.0000000000e+00 0.0000e+00 -1.0000e+00
       -2 -1    0    0    0  501 -0.0000000000e+00 -0.0000000000e+00 -6.8924866130e+02 6.8924866130e+02 0.0000000000e+00 0.0000e+00 1.0000e+00
      -13  1    1    2    0    0 +3.7712319493e+02 +1.3501848622e+03 +4.1147222585e+02 1.4610032371e+03 0.0000000000e+00 0.0000e+00 1.0000e+00
       13  1    1    2    0    0 -3.7712319493e+02 -1.3501848622e+03 +2.8224808568e+03 3.1514471681e+03 0.0000000000e+00 0.0000e+00 -1.0000e+00
<mgrwt>
<rscale>  0 0.32888062E+04</rscale>
<asrwt>0</asrwt>
<pdfrwt beam="1">  1        2 0.60356949E+00 0.32888062E+04</pdfrwt>
<pdfrwt beam="2">  1       -2 0.10603826E+00 0.32888062E+04</pdfrwt>
<totfact> 0.27012025E-01</totfact>
</mgrwt>
<rwgt>
<wgt id='morphing_basis_vector_1'> +3.1892542e-05 </wgt>
<wgt id='morphing_basis_vector_2'> +2.1829667e-05 </wgt>
<wgt id='morphing_basis_vector_3'> +3.4911157e-05 </wgt>
<wgt id='morphing_basis_vector_4'> +2.4614717e-05 </wgt>
<wgt id='morphing_basis_vector_5'> +3.9635087e-05 </wgt>
</rwgt>
</event>
<event>
 4      1 +1.9882500e-09 3.23139800e+03 7.81860800e-03 7.69639300e-02
        2 -1    0    0  501    0 +0.0000000000e+00 +0.0000000000e+00 +2.5081079631e+03 2.5081079631e+03 0.0000000000e+00 0.0000e+00 -1.0000e+00
       -2 -1    0    0    0  501 -0.0000000000e+00 -0.0000000000e+00 -1.0408176476e+03 1.0408176476e+03 0.0000000000e+00 0.0000e+00 1.0000e+00
      -13  1    1    2    0    0 -1.3618593606e+03 -2.7279795831e+01 -2.2069313483e+02 1.3798951283e+03 0.0000000000e+00 0.0000e+00 1.0000e+00
       13  1    1    2    0    0 +1.3618593606e+03 +2.7279795831e+01 +1.6879834503e+03 2.1690304825e+03 0.0000000000e+00 0.0000e+00 -1.0000e+00
<mgrwt>
<rscale>  0 0.32313979E+04</rscale>
<asrwt>0</asrwt>
<pdfrwt beam="1">  1        2 0.38586276E+00 0.32313979E+04</pdfrwt>
<pdfrwt beam="2">  1       -2 0.16012579E+00 0.32313979E+04</pdfrwt>
<totfact> 0.85485179E-01</totfact>
</mgrwt>
<rwgt>
<wgt id='morphing_basis_vector_1'> +2.9730087e-05 </wgt>
<wgt id='morphing_basis_vector_2'> +2.0321859e-05 </wgt>
<wgt id='morphing_basis_vector_3'> +3.2522892e-05 </wgt>
<wgt id='morphing_basis_vector_4'> +2.2948373e-05 </wgt>
<wgt id='morphing_basis_vector_5'> +3.6921427e-05 </wgt>
</rwgt>
</event>
<event>
 4      1 +1.9882500e-09 3.47955400e+03 7.81860800e-03 7.64166400e-02
        2 -1    0    0  501    0 +0.0000000000e+00 +0.0000000000e+00 +1.7410496920e+03 1.7410496920e+03 0.0000000000e+00 0.0000e+00 1.0000e+00
       -2 -1    0    0    0  501 -0.0000000000e+00 -0.0000000000e+00 -1.7385054976e+03 1.7385054976e+03 0.0000000000e+00 0.0000e+00 -1.0000e+00
      -13  1    1    2    0    0 +1.7256254648e+03 +4.2035555025e+01 -2.1615433611e+02 1.7396186161e+03 0.0000000000e+00 0.0000e+00 -1.0000e+00
       13  1    1    2    0    0 -1.7256254648e+03 -4.2035555025e+01 +2.1869853043e+02 1.7399365735e+03 0.0000000000e+00 0.0000e+00 1.0000e+00
<mgrwt>
<rscale>  0 0.34795543E+04</rscale>
<asrwt>0</asrwt>
<pdfrwt beam="1">  1        2 0.26785380E+00 0.34795543E+04</pdfrwt>
<pdfrwt beam="2">  1       -2 0.26746238E+00 0.34795543E+04</pdfrwt>
<totfact> 0.38362839E-01</totfact>
</mgrwt>
<rwgt>
<wgt id='morphing_basis_vector_1'> +4.0658231e-05 </wgt>
<wgt id='morphing_basis_vector_2'> +2.9575963e-05 </wgt>
<wgt id='morphing_basis_vector_3'> +4.4949084e-05 </wgt>
<wgt id='morphing_basis_vector_4'> +2.9286997e-05 </wgt>
<wgt id='morphing_basis_vector_5'> +4.9606865e-05 </wgt>
</rwgt>
</event>
<event>
 4      1 +1.9882500e-09 3.39094400e+03 7.81860800e-03 7.66065200e-02
        2 -1    0    0  501    0 +0.0000000000e+00 +0.0000000000e+00 +3.3210533242e+03 3.3210533242e+03 0.0000000000e+00 0.0000e+00 -1.0000e+00
       -2 -1    0    0    0  501 -0.0000000000e+00 -0.0000000000e+00 -8.6557627785e+02 8.6557627785e+02 0.0000000000e+00 0.0000e+00 1.0000e+00
      -13  1    1    2    0    0 -1.9991846582e+02 +4.9596244768e+02 -7.5873615407e+02 9.2823848982e+02 0.0000000000e+00 0.0000e+00 1.0000e+00
       13  1    1    2    0    0 +1.9991846582e+02 -4.9596244768e+02 +3.2142132004e+03 3.2583911122e+03 0.0000000000e+00 0.0000e+00 -1.0000e+00
<mgrwt>
<rscale>  0 0.33909438E+04</rscale>
<asrwt>0</asrwt>
<pdfrwt beam="1">  1        2 0.51093127E+00 0.33909438E+04</pdfrwt>
<pdfrwt beam="2">  1       -2 0.13316558E+00 0.33909438E+04</pdfrwt>
<totfact> 0.42585189E-01</totfact>
</mgrwt>
<rwgt>
<wgt id='morphing_basis_vector_1'> +3.5869241e-05 </wgt>
<wgt id='morphing_basis_vector_2'> +2.4245793e-05 </wgt>
<wgt id='morphing_basis_vector_3'> +3.9228384e-05 </wgt>
<wgt id='morphing_basis_vector_4'> +2.8137875e-05 </wgt>
<wgt id='morphing_basis_vector_5'> +4.4856504e-05 </wgt>
</rwgt>
</event>
<event>
 4      1 +1.9882500e-09 3.54093400e+03 7.81860800e-03 7.62884900e-02
        2 -1    0    0  501    0 +0.0000000000e+00 +0.0000000000e+00 +1.5427999637e+03 1.5427999637e+03 0.0000000000e+00 0.0000e+00 1.0000e+00
       -2 -1    0    0    0  501 -0.0000000000e+00 -0.0000000000e+00 -2.0317298696e+03 2.0317298696e+03 0.0000000000e+00 0.0000e+00 -1.0000e+00
      -13  1    1    2    0    0 +1.3999482522e+03 -4.4274982988e+02 -1.2431288058e+03 1.9238637552e+03 0.0000000000e+00 0.0000e+00 -1.0000e+00
       13  1    1    2    0    0 -1.3999482522e+03 +4.4274982988e+02 +7.5419889993e+02 1.6506660781e+03 0.0000000000e+00 0.0000e+00 1.0000e+00
<mgrwt>
<rscale>  0 0.35409336E+04</rscale>
<asrwt>0</asrwt>
<pdfrwt beam="1">  1        2 0.23735384E+00 0.35409336E+04</pdfrwt>
<pdfrwt beam="2">  1       -2 0.31257382E+00 0.35409336E+04</pdfrwt>
<totfact> 0.24350821E-01</totfact>
</mgrwt>
<rwgt>
<wgt id='morphing_basis_vector_1'> +4.2735743e-05 </wgt>
<wgt id='morphing_basis_vector_2'> +2.9217741e-05 </wgt>
<wgt id='morphing_basis_vector_3'> +4.6857092e-05 </wgt>
<wgt id='morphing_basis_vector_4'> +3.3206029e-05 </wgt>
<wgt id='morphing_basis_vector_5'> +5.3372603e-05 </wgt>
</rwgt>
</event>
<event>
 4      1 +1.9882500e-09 3.24242500e+03 7.81860800e-03 7.69385500e-02
        2 -1    0    0  501    0 +0.0000000000e+00 +0.0000000000e+00 +2.0860500739e+03 2.0860500739e+03 0.0000000000e+00 0.0000e+00 -1.0000e+00
       -2 -1    0    0    0  501 -0.0000000000e+00 -0.0000000000e+00 -1.2599553693e+03 1.2599553693e+03 0.0000000000e+00 0.0000e+00 1.0000e+00
      -13  1    1    2    0    0 +2.7711393211e+02 -1.5914285542e+03 +2.7120453236e+02 1.6379831724e+03 0.0000000000e+00 0.0000e+00 1.0000e+00
       13  1    1    2    0    0 -2.7711393211e+02 +1.5914285542e+03 +5.5489017223e+02 1.7080222709e+03 0.0000000000e+00 0.0000e+00 -1.0000e+00
<mgrwt>
<rscale>  0 0.32424250E+04</rscale>
<asrwt>0</asrwt>
<pdfrwt beam="1">  1        2 0.32093078E+00 0.32424250E+04</pdfrwt>
<pdfrwt beam="2">  1       -2 0.19383929E+00 0.32424250E+04</pdfrwt>
<totfact> 0.82840095E-01</totfact>
</mgrwt>
<rwgt>
<wgt id='morphing_basis_vector_1'> +3.0833645e-05 </wgt>
<wgt id='morphing_basis_vector_2'> +2.2656706e-05 </wgt>
<wgt id='morphing_basis_vector_3'> +3.4071754e-05 </wgt>
<wgt id='morphing_basis_vector_4'> +2.1802897e-05 </wgt>
<wgt id='morphing_basis_vector_5'> +3.7311109e-05 </wgt>
</rwgt>
</event>
<event>
 4      1 +1.9882500e-09 3.36300700e+03 7.81860800e-03 7.66676200e-02
        2 -1    0    0  501    0 +0.0000000000e+00 +0.0000000000e+00 +2.5334790233e+03 2.5334790233e+03 0.0000000000e+00 0.0000e+00 1.0000e+00
       -2 -1    0    0    0  501 -0.0000000000e+00 -0.0000000000e+00 -1.1160362704e+03 1.1160362704e+03 0.0000000000e+00 0.0000e+00 -1.0000e+00
      -13  1    1    2    0    0 +7.9957794801e+02 +1.2659064281e+02 +2.3080868944e+03 2.4459385107e+03 0.0000000000e+00 0.0000e+00 1.0000e+00
       13  1    1    2    0    0 -7.9957794801e+02 -1.2659064281e+02 -8.9064414158e+02 1.2035767831e+03 0.0000000000e+00 0.0000e+00 -1.0000e+00
<mgrwt>
<rscale>  0 0.33630073E+04</rscale>
<asrwt>0</asrwt>
<pdfrwt beam="1">  1        2 0.38976600E+00 0.33630073E+04</pdfrwt>
<pdfrwt beam="2">  1       -2 0.17169789E+00 0.33630073E+04</pdfrwt>
<totfact> 0.66204579E-01</totfact>
</mgrwt>
<rwgt>
<wgt id='morphing_basis_vector_1'> +4.7090048e-05 </wgt>
<wgt id='morphing_basis_vector_2'> +5.9886697e-05 </wgt>
<wgt id='morphing_basis_vector_3'> +5.7555674e-05 </wgt>
<wgt id='morphing_basis_vector_4'> +1.2488218e-06 </wgt>
<wgt id='morphing_basis_vector_5'> +4.1238629e-05 </wgt>
</rwgt>
</event>
<event>
 4      1 +1.9882500e-09 3.27791600e+03 7.81860800e-03 7.68575600e-02
        2 -1    0    0  501    0 +0.0000000000e+00 +0.0000000000e+00 +3.2973736261e+03 3.2973736261e+03 0.0000000000e+00 0.0000e+00 1.0000e+00
       -2 -1    0    0    0  501 -0.0000000000e+00 -0.0000000000e+00 -8.1464340766e+02 8.1464340766e+02 0.0000000000e+00 0.0000e+00 -1.0000e+00
      -13  1    1    2    0    0 +7.3335053606e+02 +1.0825718697e+03 +1.7834903512e+00 1.3075809889e+03 0.0000000000e+00 0.0000e+00 -1.0000e+00
       13  1    1    2    0    0 -7.3335053606e+02 -1.0825718697e+03 +2.4809467281e+03 2.8044360448e+03 0.0000000000e+00 0.0000e+00 1.0000e+00
<mgrwt>
<rscale>  0 0.32779162E+04</rscale>
<asrwt>0</asrwt>
<pdfrwt beam="1">  1        2 0.50728824E+00 0.32779162E+04</pdfrwt>
<pdfrwt beam="2">  1       -2 0.12532976E+00 0.32779162E+04</pdfrwt>
<totfact> 0.52488712E-01</totfact>
</mgrwt>
<rwgt>
<wgt id='morphing_basis_vector_1'> +3.1429052e-05 </wgt>
<wgt id='morphing_basis_vector_2'> +2.1406490e-05 </wgt>
<wgt id='morphing_basis_vector_3'> +3.4378056e-05 </wgt>
<wgt id='morphing_basis_vector_4'> +2.4385044e-05 </wgt>
<wgt id='morphing_basis_vector_5'> +3.9116914e-05 </wgt>
</rwgt>
</event>
<event>
 4      1 +1.9882500e-09 3.23049800e+03 7.81860800e-03 7.69660100e-02
        2 -1    0    0  501    0 +0.0000000000e+00 +0.0000000000e+00 +2.0632217120e+03 2.0632217120e+03 0.0000000000e+00 0.0000e+00 -1.0000e+00
       -2 -1    0    0    0  501 -0.0000000000e+00 -0.0000000000e+00 -1.2645411068e+03 1.2645411068e+03 0.0000000000e+00 0.0000e+00 1.0000e+00
      -13  1    1    2    0    0 +7.3778458375e+02 +1.0541448955e+03 -6.0652306425e+02 1.4224689031e+03 0.0000000000e+00 0.0000e+00 1.0000e+00
       13  1    1    2    0    0 -7.3778458375e+02 -1.0541448955e+03 +1.4052036695e+03 1.9052939158e+03 0.0000000000e+00 0.0000e+00 -1.0000e+00
<mgrwt>
<rscale>  0 0.32304976E+04</rscale>
<asrwt>0</asrwt>
<pdfrwt beam="1">  1        2 0.31741872E+00 0.32304976E+04</pdfrwt>
<pdfrwt beam="2">  1       -2 0.19454479E+00 0.32304976E+04</pdfrwt>
<totfact> 0.84407902E-01</totfact>
</mgrwt>
<rwgt>
<wgt id='morphing_basis_vector_1'> +2.9662119e-05 </wgt>
<wgt id='morphing_basis_vector_2'> +2.0195955e-05 </wgt>
<wgt id='morphing_basis_vector_3'> +3.2431295e-05 </wgt>
<wgt id='morphing_basis_vector_4'> +2.2996085e-05 </wgt>
<wgt id='morphing_basis_vector_5'> +3.6886049e-05 </wgt>
</rwgt>
</event>
<event>
 4      1 +1.9882500e-09 3.25439800e+03 7.81860800e-03 7.69111100e-02
        2 -1    0    0  501    0 +0.0000000000e+00 +0.0000000000e+00 +2.1501559766e+03 2.1501559766e+03 0.0000000000e+00 0.0000e+00 1.0000e+00
       -2 -1    0    0    0  501 -0.0000000000e+00 -0.0000000000e+00 -1.2314343965e+03 1.2314343965e+03 0.0000000000e+00 0.0000e+00 -1.0000e+00
      -13  1    1    2    0    0 +3.1237796975e+02 -3.5826911014e+02 +2.0764092642e+03 2.1301202276e+03 0.0000000000e+00 0.0000e+00 1.0000e+00
       13  1    1    2    0    0 -3.1237796975e+02 +3.5826911014e+02 -1.1576876841e+03 1.2514701456e+03 0.0000000000e+00 0.0000e+00 -1.0000e+00
<mgrwt>
<rscale>  0 0.32543977E+04</rscale>
<asrwt>0</asrwt>
<pdfrwt beam="1">  1        2 0.33079323E+00 0.32543977E+04</pdfrwt>
<pdfrwt beam="2">  1       -2 0.18945145E+00 0.32543977E+04</pdfrwt>
<totfact> 0.82026512E-01</totfact>
</mgrwt>
<rwgt>
<wgt id='morphing_basis_vector_1'> +4.1712115e-05 </wgt>
<wgt id='morphing_basis_vector_2'> +5.3671780e-05 </wgt>
<wgt id='morphing_basis_vector_3'> +5.1033634e-05 </wgt>
<wgt id='morphing_basis_vector_4'> +3.0726669e-07 </wgt>
<wgt id='morphing_basis_vector_5'> +3.6067534e-05 </wgt>
</rwgt>
</event>
<event>
 4      1 +1.9882500e-09 3.31809500e+03 7.81860800e-03 7.67671400e-02
        2 -1    0    0  501    0 +0.0000000000e+00 +0.0000000000e+00 +3.5662023187e+03 3.5662023187e+03 0.0000000000e+00 0.0000e+00 -1.0000e+00
       -2 -1    0    0    0  501 -0.0000000000e+00 -0.0000000000e+00 -7.7181223238e+02 7.7181223238e+02 0.0000000000e+00 0.0000e+00 1.0000e+00
      -13  1    1    2    0    0 -8.5170457276e+02 -6.4845114546e+02 -2.5990672176e+02 1.1015630129e+03 0.0000000000e+00 0.0000e+00 1.0000e+00
       13  1    1    2    0    0 +8.5170457276e+02 +6.4845114546e+02 +3.0542968081e+03 3.2364515382e+03 0.0000000000e+00 0.0000e+00 -1.0000e+00
<mgrwt>
<rscale>  0 0.33180950E+04</rscale>
<asrwt>0</asrwt>
<pdfrwt beam="1">  1        2 0.54864650E+00 0.33180950E+04</pdfrwt>
<pdfrwt beam="2">  1       -2 0.11874035E+00 0.33180950E+04</pdfrwt>
<totfact> 0.38593783E-01</totfact>
</mgrwt>
<rwgt>
<wgt id='morphing_basis_vector_1'> +3.2928637e-05 </wgt>
<wgt id='morphing_basis_vector_2'> +2.2301925e-05 </wgt>
<wgt id='morphing_basis_vector_3'> +3.6002528e-05 </wgt>
<wgt id='morphing_basis_vector_4'> +2.5732919e-05 </wgt>
<wgt id='morphing_basis_vector_5'> +4.1095018e-05 </wgt>
</rwgt>
</event>
<event>
 4      1 +1.9882500e-09 3.77361200e+03 7.81860800e-03 7.58258100e-02
        2 -1    0    0  501    0 +0.0000000000e+00 +0.0000000000e+00 +1.8759611365e+03 1.8759611365e+03 0.0000000000e+00 0.0000e+00 1.0000e+00
       -2 -1    0    0    0  501 -0.0000000000e+00 -0.0000000000e+00 -1.8977140418e+03 1.8977140418e+03 0.0000000000e+00 0.0000e+00 -1.0000e+00
      -13  1    1    2    0    0 -6.1907413327e+02 +2.4338817307e+02 -1.7765635140e+03 1.8970156838e+03 0.0000000000e+00 0.0000e+00 -1.0000e+00
       13  1    1    2    0    0 +6.1907413327e+02 -2.4338817307e+02 +1.7548106088e+03 1.8766594945e+03 0.0000000000e+00 0.0000e+00 1.0000e+00
<mgrwt>
<rscale>  0 0.37736125E+04</rscale>
<asrwt>0</asrwt>
<pdfrwt beam="1">  1        2 0.28860941E+00 0.37736125E+04</pdfrwt>
<pdfrwt beam="2">  1       -2 0.29195600E+00 0.37736125E+04</pdfrwt>
<totfact> 0.21449275E-01</totfact>
</mgrwt>
<rwgt>
<wgt id='morphing_basis_vector_1'> +5.4863696e-05 </wgt>
<wgt id='morphing_basis_vector_2'> +3.7148461e-05 </wgt>
<wgt id='morphing_basis_vector_3'> +6.0155340e-05 </wgt>
<wgt id='morphing_basis_vector_4'> +4.3266001e-05 </wgt>
<wgt id='morphing_basis_vector_5'> +6.8980747e-05 </wgt>
</rwgt>
</event>
<event>
 4      1 +1.9882500e-09 3.58047400e+03 7.81860800e-03 7.62073400e-02
        2 -1    0    0  501    0 +0.0000000000e+00 +0.0000000000e+00 +1.9113742040e+03 1.9113742040e+03 0.0000000000e+00 0.0000e+00 -1.0000e+00
       -2 -1    0    0    0  501 -0.0000000000e+00 -0.0000000000e+00 -1.6767773831e+03 1.6767773831e+03 0.0000000000e+00 0.0000e+00 1.0000e+00
      -13  1    1    2    0    0 -6.3789684885e+01 -1.7130125323e+03 -4.0001380594e+02 1.7602534206e+03 0.0000000000e+00 0.0000e+00 1.0000e+00
       13  1    1    2    0    0 +6.3789684885e+01 +1.7130125323e+03 +6.3461062687e+02 1.8278981666e+03 0.0000000000e+00 0.0000e+00 -1.0000e+00
<mgrwt>
<rscale>  0 0.35804743E+04</rscale>
<asrwt>0</asrwt>
<pdfrwt beam="1">  1        2 0.29405757E+00 0.35804743E+04</pdfrwt>
<pdfrwt beam="2">  1       -2 0.25796575E+00 0.35804743E+04</pdfrwt>
<totfact> 0.35521345E-01</totfact>
</mgrwt>
<rwgt>
<wgt id='morphing_basis_vector_1'> +4.5056064e-05 </wgt>
<wgt id='morphing_basis_vector_2'> +3.1694357e-05 </wgt>
<wgt id='morphing_basis_vector_3'> +4.9608635e-05 </wgt>
<wgt id='morphing_basis_vector_4'> +3.3898588e-05 </wgt>
<wgt id='morphing_basis_vector_5'> +5.5743914e-05 </wgt>
</rwgt>
</event>
<event>
 4      1 +1.9882500e-09 3.66963000e+03 7.81860800e-03 7.60282300e-02
        2 -1    0    0  501    0 +0.0000000000e+00 +0.0000000000e+00 +1.3190424642e+03 1.3190424642e+03 0.0000000000e+00 0.0000e+00 1.0000e+00
       -2 -1    0    0    0  501 -0.0000000000e+00 -0.0000000000e+00 -2.5522656237e+03 2.5522656237e+03 0.0000000000e+00 0.0000e+00 -1.0000e+00
      -13  1    1    2    0    0 -8.1618936304e+01 -1.7907205132e+03 -1.0295374281e+03 2.0671934895e+03 0.0000000000e+00 0.0000e+00 -1.0000e+00
       13  1    1    2    0    0 +8.1618936304e+01 +1.7907205132e+03 -2.0368573128e+02 1.8041145984e+03 0.0000000000e+00 0.0000e+00 1.0000e+00
<mgrwt>
<rscale>  0 0.36696304E+04</rscale>
<asrwt>0</asrwt>
<pdfrwt beam="1">  1        2 0.20292961E+00 0.36696304E+04</pdfrwt>
<pdfrwt beam="2">  1       -2 0.39265624E+00 0.36696304E+04</pdfrwt>
<totfact> 0.96856703E-02</totfact>
</mgrwt>
<rwgt>
<wgt id='morphing_basis_vector_1'> +4.9897303e-05 </wgt>
<wgt id='morphing_basis_vector_2'> +3.5589827e-05 </wgt>
<wgt id='morphing_basis_vector_3'> +5.5077016e-05 </wgt>
<wgt id='morphing_basis_vector_4'> +3.6974783e-05 </wgt>
<wgt id='morphing_basis_vector_5'> +6.1506143e-05 </wgt>
</rwgt>
</event>
<event>
 4      1 +1.9882500e-09 3.22517900e+03 7.81860800e-03 7.69782900e-02
        2 -1    0    0  501    0 +0.0000000000e+00 +0.0000000000e+00 +3.0401844728e+03 3.0401844728e+03 0.0000000000e+00 0.0000e+00 1.0000e+00
       -2 -1    0    0    0  501 -0.0000000000e+00 -0.0000000000e+00 -8.5535746512e+02 8.5535746512e+02 0.0000000000e+00 0.0000e+00 -1.0000e+00
      -13  1    1    2    0    0 +1.1820890329e+03 +9.5980089736e+02 +1.7337052576e+03 2.3074414759e+03 0.0000000000e+00 0.0000e+00 1.0000e+00
       13  1    1    2    0    0 -1.1820890329e+03 -9.5980089736e+02 +4.5112175002e+02 1.5881004620e+03 0.0000000000e+00 0.0000e+00 -1.0000e+00
<mgrwt>
<rscale>  0 0.32251787E+04</rscale>
<asrwt>0</asrwt>
<pdfrwt beam="1">  1        2 0.46772068E+00 0.32251787E+04</pdfrwt>
<pdfrwt beam="2">  1       -2 0.13159346E+00 0.32251787E+04</pdfrwt>
<totfact> 0.69109358E-01</totfact>
</mgrwt>
<rwgt>
<wgt id='morphing_basis_vector_1'> +3.2684325e-05 </wgt>
<wgt id='morphing_basis_vector_2'> +2.9528241e-05 </wgt>
<wgt id='morphing_basis_vector_3'> +3.7290050e-05 </wgt>
<wgt id='morphing_basis_vector_4'> +1.6116215e-05 </wgt>
<wgt id='morphing_basis_vector_5'> +3.6086621e-05 </wgt>
</rwgt>
</event>
<event>
 4      1 +1.9882500e-09 3.52540000e+03 7.81860800e-03 7.63206700e-02
        2 -1    0    0  501    0 +0.0000000000e+00 +0.0000000000e+00 +2.5917194725e+03 2.5917194725e+03 0.0000000000e+00 0.0000e+00 -1.0000e+00
       -2 -1    0    0    0  501 -0.0000000000e+00 -0.0000000000e+00 -1.1988607615e+03 1.1988607615e+03 0.0000000000e+00 0.0000e+00 1.0000e+00
      -13  1    1    2    0    0 +9.7479428142e+02 +1.2951690353e+03 +1.4409165662e+03 2.1688539075e+03 0.0000000000e+00 0.0000e+00 -1.0000e+00
       13  1    1    2    0    0 -9.7479428142e+02 -1.2951690353e+03 -4.8057855222e+01 1.6217263266e+03 0.0000000000e+00 0.0000e+00 1.0000e+00
<mgrwt>
<rscale>  0 0.35253997E+04</rscale>
<asrwt>0</asrwt>
<pdfrwt beam="1">  1        2 0.39872607E+00 0.35253997E+04</pdfrwt>
<pdfrwt beam="2">  1       -2 0.18444012E+00 0.35253997E+04</pdfrwt>
<totfact> 0.48153216E-01</totfact>
</mgrwt>
<rwgt>
<wgt id='morphing_basis_vector_1'> +4.7551861e-05 </wgt>
<wgt id='morphing_basis_vector_2'> +4.5053614e-05 </wgt>
<wgt id='morphing_basis_vector_3'> +5.4874508e-05 </wgt>
<wgt id='morphing_basis_vector_4'> +2.0939227e-05 </wgt>
<wgt id='morphing_basis_vector_5'> +5.1467700e-05 </wgt>
</rwgt>
</event>
<event>
 4      1 +1.9882500e-09 3.28201200e+03 7.81860800e-03 7.68482800e-02
        2 -1    0    0  501    0 +0.0000000000e+00 +0.0000000000e+00 +1.0557163166e+03 1.0557163166e+03 0.0000000000e+00 0.0000e+00 -1.0000e+00
       -2 -1    0    0    0  501 -0.0000000000e+00 -0.0000000000e+00 -2.5507807049e+03 2.5507807049e+03 0.0000000000e+00 0.0000e+00 1.0000e+00
      -13  1    1    2    0    0 +3.1353081965e+02 +1.3066895136e+03 -1.7825475859e+03 2.2323115723e+03 0.0000000000e+00 0.0000e+00 1.0000e+00
       13  1    1    2    0    0 -3.1353081965e+02 -1.3066895136e+03 +2.8748319765e+02 1.3741854492e+03 0.0000000000e+00 0.0000e+00 -1.0000e+00
<mgrwt>
<rscale>  0 0.32820121E+04</rscale>
<asrwt>0</asrwt>
<pdfrwt beam="1">  1        2 0.16241790E+00 0.32820121E+04</pdfrwt>
<pdfrwt beam="2">  1       -2 0.39242780E+00 0.32820121E+04</pdfrwt>
<totfact> 0.14323102E-01</totfact>
</mgrwt>
<rwgt>
<wgt id='morphing_basis_vector_1'> +3.1600291e-05 </wgt>
<wgt id='morphing_basis_vector_2'> +2.1557664e-05 </wgt>
<wgt id='morphing_basis_vector_3'> +3.4573911e-05 </wgt>
<wgt id='morphing_basis_vector_4'> +2.4476496e-05 </wgt>
<wgt id='morphing_basis_vector_5'> +3.9311639e-05 </wgt>
</rwgt>
</event>
<event>
 4      1 +1.9882500e-09 3.67386100e+03 7.81860800e-03 7.60198600e-02
        2 -1    0    0  501    0 +0.0000000000e+00 +0.0000000000e+00 +1.9663387126e+03 1.9663387126e+03 0.0000000000e+00 0.0000e+00 1.0000e+00
       -2 -1    0    0    0  501 -0.0000000000e+00 -0.0000000000e+00 -1.7160388998e+03 1.7160388998e+03 0.0000000000e+00 0.0000e+00 -1.0000e+00
      -13  1    1    2    0    0 -9.5268299594e+02 +4.8959949689e+02 +1.6209233516e+03 1.9428600232e+03 0.0000000000e+00 0.0000e+00 1.0000e+00
       13  1    1    2    0    0 +9.5268299594e+02 -4.8959949689e+02 -1.3706235387e+03 1.7395175892e+03 0.0000000000e+00 0.0000e+00 -1.0000e+00
<mgrwt>
<rscale>  0 0.36738610E+04</rscale>
<asrwt>0</asrwt>
<pdfrwt beam="1">  1        2 0.30251365E+00 0.36738610E+04</pdfrwt>
<pdfrwt beam="2">  1       -2 0.26400598E+00 0.36738610E+04</pdfrwt>
<totfact> 0.29845467E-01</totfact>
</mgrwt>
<rwgt>
<wgt id='morphing_basis_vector_1'> +6.5983574e-05 </wgt>
<wgt id='morphing_basis_vector_2'> +8.2385896e-05 </wgt>
<wgt id='morphing_basis_vector_3'> +8.0624634e-05 </wgt>
<wgt id='morphing_basis_vector_4'> +3.7312494e-06 </wgt>
<wgt id='morphing_basis_vector_5'> +5.9016975e-05 </wgt>
</rwgt>
</event>
<event>
 4      1 +1.9882500e-09 3.36453800e+03 7.81860800e-03 7.66642500e-02
        2 -1    0    0  501    0 +0.0000000000e+00 +0.0000000000e+00 +4.2994132949e+03 4.2994132949e+03 0.0000000000e+00 0.0000e+00 1.0000e+00
       -2 -1    0    0    0  501 -0.0000000000e+00 -0.0000000000e+00 -6.5823609292e+02 6.5823609292e+02 0.0000000000e+00 0.0000e+00 -1.0000e+00
      -13  1    1    2    0    0 +6.8624419041e+02 +6.7194843010e+02 -2.1454121904e+02 9.8411062196e+02 0.0000000000e+00 0.0000e+00 -1.0000e+00
       13  1    1    2    0    0 -6.8624419041e+02 -6.7194843010e+02 +3.8557184210e+03 3.9735387659e+03 0.0000000000e+00 0.0000e+00 1.0000e+00
<mgrwt>
<rscale>  0 0.33645380E+04</rscale>
<asrwt>0</asrwt>
<pdfrwt beam="1">  1        2 0.66144818E+00 0.33645380E+04</pdfrwt>
<pdfrwt beam="2">  1       -2 0.10126709E+00 0.33645380E+04</pdfrwt>
<totfact> 0.13950474E-01</totfact>
</mgrwt>
<rwgt>
<wgt id='morphing_basis_vector_1'> +3.4785466e-05 </wgt>
<wgt id='morphing_basis_vector_2'> +2.3538874e-05 </wgt>
<wgt id='morphing_basis_vector_3'> +3.8041420e-05 </wgt>
<wgt id='morphing_basis_vector_4'> +2.7239127e-05 </wgt>
<wgt id='morphing_basis_vector_5'> +4.3463833e-05 </wgt>
</rwgt>
</event>
<event>
 4      1 +1.9882500e-09 3.38682800e+03 7.81860800e-03 7.66154800e-02
        2 -1    0    0  501    0 +0.0000000000e+00 +0.0000000000e+00 +3.2221631336e+03 3.2221631336e+03 0.0000000000e+00 0.0000e+00 -1.0000e+00
       -2 -1    0    0    0  501 -0.0000000000e+00 -0.0000000000e+00 -8.8997680407e+02 8.8997680407e+02 0.0000000000e+00 0.0000e+00 1.0000e+00
      -13  1    1    2    0    0 +7.9139283689e+02 +1.1338913858e+03 -2.0827041646e+01 1.3829121674e+03 0.0000000000e+00 0.0000e+00 1.0000e+00
       13  1    1    2    0    0 -7.9139283689e+02 -1.1338913858e+03 +2.3530133712e+03 2.7292277703e+03 0.0000000000e+00 0.0000e+00 -1.0000e+00
<mgrwt>
<rscale>  0 0.33868277E+04</rscale>
<asrwt>0</asrwt>
<pdfrwt beam="1">  1        2 0.49571740E+00 0.33868277E+04</pdfrwt>
<pdfrwt beam="2">  1       -2 0.13691951E+00 0.33868277E+04</pdfrwt>
<totfact> 0.46205121E-01</totfact>
</mgrwt>
<rwgt>
<wgt id='morphing_basis_vector_1'> +3.5799418e-05 </wgt>
<wgt id='morphing_basis_vector_2'> +2.4431041e-05 </wgt>
<wgt id='morphing_basis_vector_3'> +3.9201216e-05 </wgt>
<wgt id='morphing_basis_vector_4'> +2.7784907e-05 </wgt>
<wgt id='morphing_basis_vector_5'> +4.4619755e-05 </wgt>
</rwgt>
</event>
<event>
 4      1 +1.9882500e-09 3.67836200e+03 7.81860800e-03 7.60109700e-02
        2 -1    0    0  501    0 +0.0000000000e+00 +0.0000000000e+00 +3.9517412883e+03 3.9517412883e+03 0.0000000000e+00 0.0000e+00 1.0000e+00
       -2 -1    0    0    0  501 -0.0000000000e+00 -0.0000000000e+00 -8.5597359064e+02 8.5597359064e+02 0.0000000000e+00 0.0000e+00 -1.0000e+00
      -13  1    1    2    0    0 +6.0799957935e+02 -1.1844573925e+03 -1.1053784131e+02 1.3359720871e+03 0.0000000000e+00 0.0000e+00 -1.0000e+00
       13  1    1    2    0    0 -6.0799957935e+02 +1.1844573925e+03 +3.2063055390e+03 3.4717427918e+03 0.0000000000e+00 0.0000e+00 1.0000e+00
<mgrwt>
<rscale>  0 0.36783617E+04</rscale>
<asrwt>0</asrwt>
<pdfrwt beam="1">  1        2 0.60796019E+00 0.36783617E+04</pdfrwt>
<pdfrwt beam="2">  1       -2 0.13168825E+00 0.36783617E+04</pdfrwt>
<totfact> 0.14147471E-01</totfact>
</mgrwt>
<rwgt>
<wgt id='morphing_basis_vector_1'> +4.9626153e-05 </wgt>
<wgt id='morphing_basis_vector_2'> +3.3738459e-05 </wgt>
<wgt id='morphing_basis_vector_3'> +5.4414850e-05 </wgt>
<wgt id='morphing_basis_vector_4'> +3.8899639e-05 </wgt>
<wgt id='morphing_basis_vector_5'> +6.2227435e-05 </wgt>
</rwgt>
</event>
<event>
 4      1 +1.9882500e-09 3.24768900e+03 7.81860800e-03 7.69264700e-02
        2 -1    0    0  501    0 +0.0000000000e+00 +0.0000000000e+00 +1.9723522258e+03 1.9723522258e+03 0.0000000000e+00 0.0000e+00 1.0000e+00
       -2 -1    0    0    0  501 -0.0000000000e+00 -0.0000000000e+00 -1.3369167016e+03 1.3369167016e+03 0.0000000000e+00 0.0000e+00 -1.0000e+00
      -13  1    1    2    0    0 -7.4724102338e+02 -1.4371644480e+03 +4.3416427573e+02 1.6769941610e+03 0.0000000000e+00 0.0000e+00 -1.0000e+00
       13  1    1    2    0    0 +7.4724102338e+02 +1.4371644480e+03 +2.0127124853e+02 1.6322747664e+03 0.0000000000e+00 0.0000e+00 1.0000e+00
<mgrwt>
<rscale>  0 0.32476888E+04</rscale>
<asrwt>0</asrwt>
<pdfrwt beam="1">  1        2 0.30343880E+00 0.32476888E+04</pdfrwt>
<pdfrwt beam="2">  1       -2 0.20567949E+00 0.32476888E+04</pdfrwt>
<totfact> 0.78651795E-01</totfact>
</mgrwt>
<rwgt>
<wgt id='morphing_basis_vector_1'> +3.1645222e-05 </wgt>
<wgt id='morphing_basis_vector_2'> +2.4606138e-05 </wgt>
<wgt id='morphing_basis_vector_3'> +3.5260169e-05 </wgt>
<wgt id='morphing_basis_vector_4'> +2.0663969e-05 </wgt>
<wgt id='morphing_basis_vector_5'> +3.7449976e-05 </wgt>
</rwgt>
</event>
<event>
 4      1 +1.9882500e-09 3.43248500e+03 7.81860800e-03 7.65167700e-02
        2 -1    0    0  501    0 +0.0000000000e+00 +0.0000000000e+00 +2.9069103791e+03 2.9069103791e+03 0.0000000000e+00 0.0000e+00 -1.0000e+00
       -2 -1    0    0    0  501 -0.0000000000e+00 -0.0000000000e+00 -1.0132714042e+03 1.0132714042e+03 0.0000000000e+00 0.0000e+00 1.0000e+00
      -13  1    1    2    0    0 +3.8172514588e+02 +3.0874714777e+02 -9.3135958140e+02 1.0528388092e+03 0.0000000000e+00 0.0000e+00 1.0000e+00
       13  1    1    2    0    0 -3.8172514588e+02 -3.0874714777e+02 +2.8249985563e+03 2.8673429742e+03 0.0000000000e+00 0.0000e+00 -1.0000e+00
<mgrwt>
<rscale>  0 0.34324855E+04</rscale>
<asrwt>0</asrwt>
<pdfrwt beam="1">  1        2 0.44721698E+00 0.34324855E+04</pdfrwt>
<pdfrwt beam="2">  1       -2 0.15588791E+00 0.34324855E+04</pdfrwt>
<totfact> 0.51563896E-01</totfact>
</mgrwt>
<rwgt>
<wgt id='morphing_basis_vector_1'> +3.7646257e-05 </wgt>
<wgt id='morphing_basis_vector_2'> +2.5451403e-05 </wgt>
<wgt id='morphing_basis_vector_3'> +4.1184748e-05 </wgt>
<wgt id='morphing_basis_vector_4'> +2.9552600e-05 </wgt>
<wgt id='morphing_basis_vector_5'> +4.7111082e-05 </wgt>
</rwgt>
</event>
<event>
 4      1 +1.9882500e-09 3.43601800e+03 7.81860800e-03 7.65091900e-02
        2 -1    0    0  501    0 +0.0000000000e+00 +0.0000000000e+00 +1.7555884665e+03 1.7555884665e+03 0.0000000000e+00 0.0000e+00 -1.0000e+00
       -2 -1    0    0    0  501 -0.0000000000e+00 -0.0000000000e+00 -1.6812344209e+03 1.6812344209e+03 0.0000000000e+00 0.0000e+00 1.0000e+00
      -13  1    1    2    0    0 -1.3355228665e+03 -4.6735427556e+02 -9.3748140146e+02 1.6973251674e+03 0.0000000000e+00 0.0000e+00 1.0000e+00
       13  1    1    2    0    0 +1.3355228665e+03 +4.6735427556e+02 +1.0118354471e+03 1.7394977200e+03 0.0000000000e+00 0.0000e+00 -1.0000e+00
<mgrwt>
<rscale>  0 0.34360185E+04</rscale>
<asrwt>0</asrwt>
<pdfrwt beam="1">  1        2 0.27009053E+00 0.34360185E+04</pdfrwt>
<pdfrwt beam="2">  1       -2 0.25865145E+00 0.34360185E+04</pdfrwt>
<totfact> 0.43435392E-01</totfact>
</mgrwt>
<rwgt>
<wgt id='morphing_basis_vector_1'> +3.7916360e-05 </wgt>
<wgt id='morphing_basis_vector_2'> +2.5897184e-05 </wgt>
<wgt id='morphing_basis_vector_3'> +4.1538440e-05 </wgt>
<wgt id='morphing_basis_vector_4'> +2.9431768e-05 </wgt>
<wgt id='morphing_basis_vector_5'> +4.7286496e-05 </wgt>
</rwgt>
</event>
<event>
 4      1 +1.9882500e-09 3.30509500e+03 7.81860800e-03 7.67962500e-02
        2 -1    0    0  501    0 +0.0000000000e+00 +0.0000000000e+00 +2.4268483598e+03 2.4268483598e+03 0.0000000000e+00 0.0000e+00 1.0000e+00
       -2 -1    0    0    0  501 -0.0000000000e+00 -0.0000000000e+00 -1.1252922417e+03 1.1252922417e+03 0.0000000000e+00 0.0000e+00 -1.0000e+00
      -13  1    1    2    0    0 +7.7945256115e+02 +1.0570991064e+03 -4.2713932630e+02 1.3811056513e+03 0.0000000000e+00 0.0000e+00 -1.0000e+00
       13  1    1    2    0    0 -7.7945256115e+02 -1.0570991064e+03 +1.7286954444e+03 2.1710349502e+03 0.0000000000e+00 0.0000e+00 1.0000e+00
<mgrwt>
<rscale>  0 0.33050952E+04</rscale>
<asrwt>0</asrwt>
<pdfrwt beam="1">  1        2 0.37336129E+00 0.33050952E+04</pdfrwt>
<pdfrwt beam="2">  1       -2 0.17312188E+00 0.33050952E+04</pdfrwt>
<totfact> 0.75063523E-01</totfact>
</mgrwt>
<rwgt>
<wgt id='morphing_basis_vector_1'> +3.2474376e-05 </wgt>
<wgt id='morphing_basis_vector_2'> +2.2117221e-05 </wgt>
<wgt id='morphing_basis_vector_3'> +3.5528791e-05 </wgt>
<wgt id='morphing_basis_vector_4'> +2.5214056e-05 </wgt>
<wgt id='morphing_basis_vector_5'> +4.0440653e-05 </wgt>
</rwgt>
</event>
<event>
 4      1 +1.9882500e-09 3.34561800e+03 7.81860800e-03 7.67059600e-02
        2 -1    0    0  501    0 +0.0000000000e+00 +0.0000000000e+00 +1.8101450434e+03 1.8101450434e+03 0.0000000000e+00 0.0000e+00 -1.0000e+00
       -2 -1    0    0    0  501 -0.0000000000e+00 -0.0000000000e+00 -1.5458926281e+03 1.5458926281e+03 0.0000000000e+00 0.0000e+00 1.0000e+00
      -13  1    1    2    0    0 +1.6014679141e+02 +1.6259037751e+03 +4.9252192258e+02 1.7063961805e+03 0.0000000000e+00 0.0000e+00 1.0000e+00
       13  1    1    2    0    0 -1.6014679141e+02 -1.6259037751e+03 -2.2826950727e+02 1.6496414909e+03 0.0000000000e+00 0.0000e+00 -1.0000e+00
<mgrwt>
<rscale>  0 0.33456180E+04</rscale>
<asrwt>0</asrwt>
<pdfrwt beam="1">  1        2 0.27848385E+00 0.33456180E+04</pdfrwt>
<pdfrwt beam="2">  1       -2 0.23782963E+00 0.33456180E+04</pdfrwt>
<totfact> 0.56872863E-01</totfact>
</mgrwt>
<rwgt>
<wgt id='morphing_basis_vector_1'> +3.6629540e-05 </wgt>
<wgt id='morphing_basis_vector_2'> +3.0708316e-05 </wgt>
<wgt id='morphing_basis_vector_3'> +4.1331185e-05 </wgt>
<wgt id='morphing_basis_vector_4'> +2.1145471e-05 </wgt>
<wgt id='morphing_basis_vector_5'> +4.2034307e-05 </wgt>
</rwgt>
</event>
<event>
 4      1 +1.9882500e-09 3.62594600e+03 7.81860800e-03 7.61153300e-02
        2 -1    0    0  501    0 +0.0000000000e+00 +0.0000000000e+00 +1.4088643980e+03 1.4088643980e+03 0.0000000000e+00 0.0000e+00 1.0000e+00
       -2 -1    0    0    0  501 -0.0000000000e+00 -0.0000000000e+00 -2.3329929615e+03 2.3329929615e+03 0.0000000000e+00 0.0000e+00 -1.0000e+00
      -13  1    1    2    0    0 +1.4167067990e+03 +8.2232068205e+02 -1.2638180166e+03 2.0689382392e+03 0.0000000000e+00 0.0000e+00 -1.0000e+00
       13  1    1    2    0    0 -1.4167067990e+03 -8.2232068205e+02 +3.3968945311e+02 1.6729191203e+03 0.0000000000e+00 0.0000e+00 1.0000e+00
<mgrwt>
<rscale>  0 0.36259458E+04</rscale>
<asrwt>0</asrwt>
<pdfrwt beam="1">  1        2 0.21674837E+00 0.36259458E+04</pdfrwt>
<pdfrwt beam="2">  1       -2 0.35892199E+00 0.36259458E+04</pdfrwt>
<totfact> 0.14249122E-01</totfact>
</mgrwt>
<rwgt>
<wgt id='morphing_basis_vector_1'> +4.7110260e-05 </wgt>
<wgt id='morphing_basis_vector_2'> +3.2555704e-05 </wgt>
<wgt id='morphing_basis_vector_3'> +5.1756706e-05 </wgt>
<wgt id='morphing_basis_vector_4'> +3.6219365e-05 </wgt>
<wgt id='morphing_basis_vector_5'> +5.8694211e-05 </wgt>
</rwgt>
</event>
<event>
 4      1 +1.9882500e-09 3.59117000e+03 7.81860800e-03 7.61855700e-02
        2 -1    0    0  501    0 +0.0000000000e+00 +0.0000000000e+00 +2.3966635820e+03 2.3966635820e+03 0.0000000000e+00 0.0000e+00 -1.0000e+00
       -2 -1    0    0    0  501 -0.0000000000e+00 -0.0000000000e+00 -1.3452554367e+03 1.3452554367e+03 0.0000000000e+00 0.0000e+00 1.0000e+00
      -13  1    1    2    0    0 -2.2884885352e+02 +1.3046055226e+03 +1.7889307604e+03 2.2259022065e+03 0.0000000000e+00 0.0000e+00 1.0000e+00
       13  1    1    2    0    0 +2.2884885352e+02 -1.3046055226e+03 -7.3752261507e+02 1.5160168123e+03 0.0000000000e+00 0.0000e+00 -1.0000e+00
<mgrwt>
<rscale>  0 0.35911696E+04</rscale>
<asrwt>0</asrwt>
<pdfrwt beam="1">  1        2 0.36871747E+00 0.35911696E+04</pdfrwt>
<pdfrwt beam="2">  1       -2 0.20696238E+00 0.35911696E+04</pdfrwt>
<totfact> 0.42740995E-01</totfact>
</mgrwt>
<rwgt>
<wgt id='morphing_basis_vector_1'> +5.7502067e-05 </wgt>
<wgt id='morphing_basis_vector_2'> +6.7099184e-05 </wgt>
<wgt id='morphing_basis_vector_3'> +6.9165765e-05 </wgt>
<wgt id='morphing_basis_vector_4'> +9.2411718e-06 </wgt>
<wgt id='morphing_basis_vector_5'> +5.4337448e-05 </wgt>
</rwgt>
</event>
<event>
 4      1 +1.9882500e-09 3.22359700e+03 7.81860800e-03 7.69819500e-02
        2 -1    0    0  501    0 +0.0000000000e+00 +0.0000000000e+00 +2.4878858977e+03 2.4878858977e+03 0.0000000000e+00 0.0000e+00 -1.0000e+00
       -2 -1    0    0    0  501 -0.0000000000e+00 -0.0000000000e+00 -1.0442173873e+03 1.0442173873e+03 0.0000000000e+00 0.0000e+00 1.0000e+00
      -13  1    1    2    0    0 -4.5574994511e+02 -9.1466928882e+02 -6.4387274194e+02 1.2078493400e+03 0.0000000000e+00 0.0000e+00 1.0000e+00
       13  1    1    2    0    0 +4.5574994511e+02 +9.1466928882e+02 +2.0875412524e+03 2.3242539450e+03 0.0000000000e+00 0.0000e+00 -1.0000e+00
<mgrwt>
<rscale>  0 0.32235966E+04</rscale>
<asrwt>0</asrwt>
<pdfrwt beam="1">  1        2 0.38275167E+00 0.32235966E+04</pdfrwt>
<pdfrwt beam="2">  1       -2 0.16064883E+00 0.32235966E+04</pdfrwt>
<totfact> 0.87109478E-01</totfact>
</mgrwt>
<rwgt>
<wgt id='morphing_basis_vector_1'> +2.9358757e-05 </wgt>
<wgt id='morphing_basis_vector_2'> +1.9869397e-05 </wgt>
<wgt id='morphing_basis_vector_3'> +3.2072098e-05 </wgt>
<wgt id='morphing_basis_vector_4'> +2.2909002e-05 </wgt>
<wgt id='morphing_basis_vector_5'> +3.6578580e-05 </wgt>
</rwgt>
</event>
<event>
 4      1 +1.9882500e-09 3.73188100e+03 7.81860800e-03 7.59062400e-02
        2 -1    0    0  501    0 +0.0000000000e+00 +0.0000000000e+00 +1.4776456458e+03 1.4776456458e+03 0.0000000000e+00 0.0000e+00 1.0000e+00
       -2 -1    0    0    0  501 -0.0000000000e+00 -0.0000000000e+00 -2.3562709496e+03 2.3562709496e+03 0.0000000000e+00 0.0000e+00 -1.0000e+00
      -13  1    1    2    0    0 -9.4976055887e+02 -6.1333198019e+02 -1.9643224651e+03 2.2664474369e+03 0.0000000000e+00 0.0000e+00 -1.0000e+00
       13  1    1    2    0    0 +9.4976055887e+02 +6.1333198019e+02 +1.0856971613e+03 1.5674691586e+03 0.0000000000e+00 0.0000e+00 1.0000e+00
<mgrwt>
<rscale>  0 0.37318808E+04</rscale>
<asrwt>0</asrwt>
<pdfrwt beam="1">  1        2 0.22733010E+00 0.37318808E+04</pdfrwt>
<pdfrwt beam="2">  1       -2 0.36250322E+00 0.37318808E+04</pdfrwt>
<totfact> 0.12258025E-01</totfact>
</mgrwt>
<rwgt>
<wgt id='morphing_basis_vector_1'> +5.2515719e-05 </wgt>
<wgt id='morphing_basis_vector_2'> +3.5610545e-05 </wgt>
<wgt id='morphing_basis_vector_3'> +5.7579742e-05 </wgt>
<wgt id='morphing_basis_vector_4'> +4.1319960e-05 </wgt>
<wgt id='morphing_basis_vector_5'> +6.5958597e-05 </wgt>
</rwgt>
</event>
<event>
 4      1 +1.9882500e-09 3.53383900e+03 7.81860800e-03 7.63031600e-02
        2 -1    0    0  501    0 +0.0000000000e+00 +0.0000000000e+00 +3.2678508219e+03 3.2678508219e+03 0.0000000000e+00 0.0000e+00 1.0000e+00
       -2 -1    0    0    0  501 -0.0000000000e+00 -0.0000000000e+00 -9.5536908245e+02 9.5536908245e+02 0.0000000000e+00 0.0000e+00 -1.0000e+00
      -13  1    1    2    0    0 -4.4092051893e+02 -1.4220144540e+03 +1.9049743540e+01 1.4889254193e+03 0.0000000000e+00 0.0000e+00 -1.0000e+00
       13  1    1    2    0    0 +4.4092051893e+02 +1.4220144540e+03 +2.2934319959e+03 2.7342944851e+03 0.0000000000e+00 0.0000e+00 1.0000e+00
<mgrwt>
<rscale>  0 0.35338385E+04</rscale>
<asrwt>0</asrwt>
<pdfrwt beam="1">  1        2 0.50274628E+00 0.35338385E+04</pdfrwt>
<pdfrwt beam="2">  1       -2 0.14697986E+00 0.35338385E+04</pdfrwt>
<totfact> 0.34856512E-01</totfact>
</mgrwt>
<rwgt>
<wgt id='morphing_basis_vector_1'> +4.2413113e-05 </wgt>
<wgt id='morphing_basis_vector_2'> +2.9033840e-05 </wgt>
<wgt id='morphing_basis_vector_3'> +4.6509272e-05 </wgt>
<wgt id='morphing_basis_vector_4'> +3.2904042e-05 </wgt>
<wgt id='morphing_basis_vector_5'> +5.2940506e-05 </wgt>
</rwgt>
</event>
<event>
 4      1 +1.9882500e-09 3.36643600e+03 7.81860800e-03 7.66600900e-02
        2 -1    0    0  501    0 +0.0000000000e+00 +0.0000000000e+00 +3.1797290550e+03 3.1797290550e+03 0.0000000000e+00 0.0000e+00 1.0000e+00
       -2 -1    0    0    0  501 -0.0000000000e+00 -0.0000000000e+00 -8.9102649733e+02 8.9102649733e+02 0.0000000000e+00 0.0000e+00 -1.0000e+00
      -13  1    1    2    0    0 +1.1193559147e+03 +1.0796604381e+03 +1.9229586898e+03 2.4731345390e+03 0.0000000000e+00 0.0000e+00 -1.0000e+00
       13  1    1    2    0    0 -1.1193559147e+03 -1.0796604381e+03 +3.6574386793e+02 1.5976210134e+03 0.0000000000e+00 0.0000e+00 1.0000e+00
<mgrwt>
<rscale>  0 0.33664360E+04</rscale>
<asrwt>0</asrwt>
<pdfrwt beam="1">  1        2 0.48918908E+00 0.33664360E+04</pdfrwt>
<pdfrwt beam="2">  1       -2 0.13708100E+00 0.33664360E+04</pdfrwt>
<totfact> 0.49305943E-01</totfact>
</mgrwt>
<rwgt>
<wgt id='morphing_basis_vector_1'> +3.9443370e-05 </wgt>
<wgt id='morphing_basis_vector_2'> +3.7067986e-05 </wgt>
<wgt id='morphing_basis_vector_3'> +4.5380118e-05 </wgt>
<wgt id='morphing_basis_vector_4'> +1.7694193e-05 </wgt>
<wgt id='morphing_basis_vector_5'> +4.2768030e-05 </wgt>
</rwgt>
</event>
<event>
 4      1 +1.9882500e-09 3.56910000e+03 7.81860800e-03 7.62305700e-02
        2 -1    0    0  501    0 +0.0000000000e+00 +0.0000000000e+00 +1.6829784424e+03 1.6829784424e+03 0.0000000000e+00 0.0000e+00 -1.0000e+00
       -2 -1    0    0    0  501 -0.0000000000e+00 -0.0000000000e+00 -1.8922513342e+03 1.8922513342e+03 0.0000000000e+00 0.0000e+00 1.0000e+00
      -13  1    1    2    0    0 +8.3393589517e+02 -1.5587903226e+03 -3.4865667993e+02 1.8018983955e+03 0.0000000000e+00 0.0000e+00 1.0000e+00
       13  1    1    2    0    0 -8.3393589517e+02 +1.5587903226e+03 +1.3938378809e+02 1.7733313812e+03 0.0000000000e+00 0.0000e+00 -1.0000e+00
<mgrwt>
<rscale>  0 0.35690997E+04</rscale>
<asrwt>0</asrwt>
<pdfrwt beam="1">  1        2 0.25891976E+00 0.35690997E+04</pdfrwt>
<pdfrwt beam="2">  1       -2 0.29111559E+00 0.35690997E+04</pdfrwt>
<totfact> 0.28303287E-01</totfact>
</mgrwt>
<rwgt>
<wgt id='morphing_basis_vector_1'> +4.4934005e-05 </wgt>
<wgt id='morphing_basis_vector_2'> +3.2600959e-05 </wgt>
<wgt id='morphing_basis_vector_3'> +4.9688200e-05 </wgt>
<wgt id='morphing_basis_vector_4'> +3.2532730e-05 </wgt>
<wgt id='morphing_basis_vector_5'> +5.4957064e-05 </wgt>
</rwgt>
</event>
<event>
 4      1 +1.9882500e-09 3.68128800e+03 7.81860800e-03 7.60052000e-02
        2 -1    0    0  501    0 +0.0000000000e+00 +0.0000000000e+00 +2.1972206786e+03 2.1972206786e+03 0.0000000000e+00 0.0000e+00 1.0000e+00
       -2 -1    0    0    0  501 -0.0000000000e+00 -0.0000000000e+00 -1.5419340717e+03 1.5419340717e+03 0.0000000000e+00 0.0000e+00 -1.0000e+00
      -13  1    1    2    0    0 +6.1461309745e+02 -4.9415957884e+02 +2.0169241930e+03 2.1656237322e+03 0.0000000000e+00 0.0000e+00 1.0000e+00
       13  1    1    2    0    0 -6.1461309745e+02 +4.9415957884e+02 -1.3616375862e+03 1.5735310181e+03 0.0000000000e+00 0.0000e+00 -1.0000e+00
<mgrwt>
<rscale>  0 0.36812875E+04</rscale>
<asrwt>0</asrwt>
<pdfrwt beam="1">  1        2 0.33803395E+00 0.36812875E+04</pdfrwt>
<pdfrwt beam="2">  1       -2 0.23722063E+00 0.36812875E+04</pdfrwt>
<totfact> 0.33801513E-01</totfact>
</mgrwt>
<rwgt>
<wgt id='morphing_basis_vector_1'> +6.7730922e-05 </wgt>
<wgt id='morphing_basis_vector_2'> +8.6624724e-05 </wgt>
<wgt id='morphing_basis_vector_3'> +8.3220120e-05 </wgt>
<wgt id='morphing_basis_vector_4'> +1.2000826e-06 </wgt>
<wgt id='morphing_basis_vector_5'> +5.9285459e-05 </wgt>
</rwgt>
</event>
<event>
 4      1 +1.9882500e-09 3.36784200e+03 7.81860800e-03 7.66570000e-02
        2 -1    0    0  501    0 +0.0000000000e+00 +0.0000000000e+00 +1.5368585377e+03 1.5368585377e+03 0.0000000000e+00 0.0000e+00 -1.0000e+00
       -2 -1    0    0    0  501 -0.0000000000e+00 -0.0000000000e+00 -1.8450560877e+03 1.8450560877e+03 0.0000000000e+00 0.0000e+00 1.0000e+00
      -13  1    1    2    0    0 +9.1126982682e+02 -1.3825867196e+03 -4.6136995160e+02 1.7189592685e+03 0.0000000000e+00 0.0000e+00 1.0000e+00
       13  1    1    2    0    0 -9.1126982682e+02 +1.3825867196e+03 +1.5317240156e+02 1.6629553569e+03 0.0000000000e+00 0.0000e+00 -1.0000e+00
<mgrwt>
<rscale>  0 0.33678422E+04</rscale>
<asrwt>0</asrwt>
<pdfrwt beam="1">  1        2 0.23643978E+00 0.33678422E+04</pdfrwt>
<pdfrwt beam="2">  1       -2 0.28385478E+00 0.33678422E+04</pdfrwt>
<totfact> 0.38882305E-01</totfact>
</mgrwt>
<rwgt>
<wgt id='morphing_basis_vector_1'> +3.5556201e-05 </wgt>
<wgt id='morphing_basis_vector_2'> +2.5499296e-05 </wgt>
<wgt id='morphing_basis_vector_3'> +3.9196444e-05 </wgt>
<wgt id='morphing_basis_vector_4'> +2.6015258e-05 </wgt>
<wgt id='morphing_basis_vector_5'> +4.3525861e-05 </wgt>
</rwgt>
</event>
<event>
 4      1 +1.9882500e-09 3.70496000e+03 7.81860800e-03 7.59586900e-02
        2 -1    0    0  501    0 +0.0000000000e+00 +0.0000000000e+00 +1.1943924214e+03 1.1943924214e+03 0.0000000000e+00 0.0000e+00 1.0000e+00
       -2 -1    0    0    0  501 -0.0000000000e+00 -0.0000000000e+00 -2.8731621109e+03 2.8731621109e+03 0.0000000000e+00 0.0000e+00 -1.0000e+00
      -13  1    1    2    0    0 +6.6311515088e+02 +5.1506111965e+02 -2.6522535981e+03 2.7819882833e+03 0.0000000000e+00 0.0000e+00 -1.0000e+00
       13  1    1    2    0    0 -6.6311515088e+02 -5.1506111965e+02 +9.7348390853e+02 1.2855662490e+03 0.0000000000e+00 0.0000e+00 1.0000e+00
<mgrwt>
<rscale>  0 0.37049605E+04</rscale>
<asrwt>0</asrwt>
<pdfrwt beam="1">  1        2 0.18375268E+00 0.37049605E+04</pdfrwt>
<pdfrwt beam="2">  1       -2 0.44202494E+00 0.37049605E+04</pdfrwt>
<totfact> 0.53529910E-02</totfact>
</mgrwt>
<rwgt>
<wgt id='morphing_basis_vector_1'> +5.1005394e-05 </wgt>
<wgt id='morphing_basis_vector_2'> +3.4537377e-05 </wgt>
<wgt id='morphing_basis_vector_3'> +5.5904792e-05 </wgt>
<wgt id='morphing_basis_vector_4'> +4.0176373e-05 </wgt>
<wgt id='morphing_basis_vector_5'> +6.4068750e-05 </wgt>
</rwgt>
</event>
<event>
 4      1 +1.9882500e-09 3.37371200e+03 7.81860800e-03 7.66441300e-02
        2 -1    0    0  501    0 +0.0000000000e+00 +0.0000000000e+00 +2.4674257664e+03 2.4674257664e+03 0.0000000000e+00 0.0000e+00 1.0000e+00
       -2 -1    0    0    0  501 -0.0000000000e+00 -0.0000000000e+00 -1.1532195497e+03 1.1532195497e+03 0.0000000000e+00 0.0000e+00 -1.0000e+00
      -13  1    1    2    0    0 +1.2138210512e+03 -1.1338174624e+03 +3.4132148402e+02 1.6957016064e+03 0.0000000000e+00 0.0000e+00 -1.0000e+00
       13  1    1    2    0    0 -1.2138210512e+03 +1.1338174624e+03 +9.7288473276e+02 1.9249437097e+03 0.0000000000e+00 0.0000e+00 1.0000e+00
<mgrwt>
<rscale>  0 0.33737123E+04</rscale>
<asrwt>0</asrwt>
<pdfrwt beam="1">  1        2 0.37960396E+00 0.33737123E+04</pdfrwt>
<pdfrwt beam="2">  1       -2 0.17741839E+00 0.33737123E+04</pdfrwt>
<totfact> 0.65439912E-01</totfact>
</mgrwt>
<rwgt>
<wgt id='morphing_basis_vector_1'> +3.5821870e-05 </wgt>
<wgt id='morphing_basis_vector_2'> +2.5732615e-05 </wgt>
<wgt id='morphing_basis_vector_3'> +3.9500375e-05 </wgt>
<wgt id='morphing_basis_vector_4'> +2.6158663e-05 </wgt>
<wgt id='morphing_basis_vector_5'> +4.3828961e-05 </wgt>
</rwgt>
</event>
<event>
 4      1 +1.9882500e-09 3.39663600e+03 7.81860800e-03 7.65941400e-02
        2 -1    0    0  501    0 +0.0000000000e+00 +0.0000000000e+00 +1.6820705837e+03 1.6820705837e+03 0.0000000000e+00 0.0000e+00 1.0000e+00
       -2 -1    0    0    0  501 -0.0000000000e+00 -0.0000000000e+00 -1.7147219951e+03 1.7147219951e+03 0.0000000000e+00 0.0000e+00 -1.0000e+00
      -13  1    1    2    0    0 -2.7140577006e+02 +8.5824504720e+02 -1.4565442413e+03 1.7122402810e+03 0.0000000000e+00 0.0000e+00 -1.0000e+00
       13  1    1    2    0    0 +2.7140577006e+02 -8.5824504720e+02 +1.4238928299e+03 1.6845522978e+03 0.0000000000e+00 0.0000e+00 1.0000e+00
<mgrwt>
<rscale>  0 0.33966356E+04</rscale>
<asrwt>0</asrwt>
<pdfrwt beam="1">  1        2 0.25878009E+00 0.33966356E+04</pdfrwt>
<pdfrwt beam="2">  1       -2 0.26380338E+00 0.33966356E+04</pdfrwt>
<totfact> 0.44135349E-01</totfact>
</mgrwt>
<rwgt>
<wgt id='morphing_basis_vector_1'> +3.6117909e-05 </wgt>
<wgt id='morphing_basis_vector_2'> +2.4434863e-05 </wgt>
<wgt id='morphing_basis_vector_3'> +3.9506486e-05 </wgt>
<wgt id='morphing_basis_vector_4'> +2.8309770e-05 </wgt>
<wgt id='morphing_basis_vector_5'> +4.5158976e-05 </wgt>
</rwgt>
</event>
<event>
 4      1 +1.9882500e-09 3.47505200e+03 7.81860800e-03 7.64261500e-02
        2 -1    0    0  501    0 +0.0000000000e+00 +0.0000000000e+00 +1.6292296752e+03 1.6292296752e+03 0.0000000000e+00 0.0000e+00 -1.0000e+00
       -2 -1    0    0    0  501 -0.0000000000e+00 -0.0000000000e+00 -1.8530206361e+03 1.8530206361e+03 0.0000000000e+00 0.0000e+00 1.0000e+00
      -13  1    1    2    0    0 +3.9852602835e+02 +9.6831222633e+02 -1.5013262855e+03 1.8304185801e+03 0.0000000000e+00 0.0000e+00 1.0000e+00
       13  1    1    2    0    0 -3.9852602835e+02 -9.6831222633e+02 +1.2775353246e+03 1.6518317313e+03 0.0000000000e+00 0.0000e+00 -1.0000e+00
<mgrwt>
<rscale>  0 0.34750518E+04</rscale>
<asrwt>0</asrwt>
<pdfrwt beam="1">  1        2 0.25065072E+00 0.34750518E+04</pdfrwt>
<pdfrwt beam="2">  1       -2 0.28508010E+00 0.34750518E+04</pdfrwt>
<totfact> 0.33580479E-01</totfact>
</mgrwt>
<rwgt>
<wgt id='morphing_basis_vector_1'> +3.9554902e-05 </wgt>
<wgt id='morphing_basis_vector_2'> +2.6791614e-05 </wgt>
<wgt id='morphing_basis_vector_3'> +4.3296077e-05 </wgt>
<wgt id='morphing_basis_vector_4'> +3.1014803e-05 </wgt>
<wgt id='morphing_basis_vector_5'> +4.9504679e-05 </wgt>
</rwgt>
</event>
<event>
 4      1 +1.9882500e-09 3.47419400e+03 7.81860800e-03 7.64279600e-02
        2 -1    0    0  501    0 +0.0000000000e+00 +0.0000000000e+00 +2.2637568263e+03 2.2637568263e+03 0.0000000000e+00 0.0000e+00 1.0000e+00
       -2 -1    0    0    0  501 -0.0000000000e+00 -0.0000000000e+00 -1.3329638848e+03 1.3329638848e+03 0.0000000000e+00 0.0000e+00 -1.0000e+00
      -13  1    1    2    0    0 +1.3324256752e+03 -1.1139200236e+03 +4.2763978237e+02 1.7885893275e+03 0.0000000000e+00 0.0000e+00 1.0000e+00
       13  1    1    2    0    0 -1.3324256752e+03 +1.1139200236e+03 +5.0315315908e+02 1.8081313836e+03 0.0000000000e+00 0.0000e+00 -1.0000e+00
<mgrwt>
<rscale>  0 0.34741941E+04</rscale>
<asrwt>0</asrwt>
<pdfrwt beam="1">  1        2 0.34827028E+00 0.34741941E+04</pdfrwt>
<pdfrwt beam="2">  1       -2 0.20507137E+00 0.34741941E+04</pdfrwt>
<totfact> 0.53231302E-01</totfact>
</mgrwt>
<rwgt>
<wgt id='morphing_basis_vector_1'> +4.0841402e-05 </wgt>
<wgt id='morphing_basis_vector_2'> +3.0663929e-05 </wgt>
<wgt id='morphing_basis_vector_3'> +4.5357862e-05 </wgt>
<wgt id='morphing_basis_vector_4'> +2.8199225e-05 </wgt>
<wgt id='morphing_basis_vector_5'> +4.9224805e-05 </wgt>
</rwgt>
</event>
<event>
 4      1 +1.9882500e-09 3.22697200e+03 7.81860800e-03 7.69741500e-02
        2 -1    0    0  501    0 +0.0000000000e+00 +0.0000000000e+00 +1.3720237046e+03 1.3720237046e+03 0.0000000000e+00 0.0000e+00 1.0000e+00
       -2 -1    0    0    0  501 -0.0000000000e+00 -0.0000000000e+00 -1.8974429400e+03 1.8974429400e+03 0.0000000000e+00 0.0000e+00 -1.0000e+00
      -13  1    1    2    0    0 +1.1698741661e+03 -8.6581944522e+02 +4.4294457893e+02 1.5213312513e+03 0.0000000000e+00 0.0000e+00 1.0000e+00
       13  1    1    2    0    0 -1.1698741661e+03 +8.6581944522e+02 -9.6836381433e+02 1.7481353932e+03 0.0000000000e+00 0.0000e+00 -1.0000e+00
<mgrwt>
<rscale>  0 0.32269718E+04</rscale>
<asrwt>0</asrwt>
<pdfrwt beam="1">  1        2 0.21108057E+00 0.32269718E+04</pdfrwt>
<pdfrwt beam="2">  1       -2 0.29191430E+00 0.32269718E+04</pdfrwt>
<totfact> 0.42922722E-01</totfact>
</mgrwt>
<rwgt>
<wgt id='morphing_basis_vector_1'> +3.3951471e-05 </wgt>
<wgt id='morphing_basis_vector_2'> +3.3110846e-05 </wgt>
<wgt id='morphing_basis_vector_3'> +3.9258068e-05 </wgt>
<wgt id='morphing_basis_vector_4'> +1.3652094e-05 </wgt>
<wgt id='morphing_basis_vector_5'> +3.5961174e-05 </wgt>
</rwgt>
</event>
<event>
 4      1 +1.9882500e-09 3.39872900e+03 7.81860800e-03 7.65895900e-02
        2 -1    0    0  501    0 +0.0000000000e+00 +0.0000000000e+00 +2.3778246640e+03 2.3778246640e+03 0.0000000000e+00 0.0000e+00 -1.0000e+00
       -2 -1    0    0    0  501 -0.0000000000e+00 -0.0000000000e+00 -1.2144882411e+03 1.2144882411e+03 0.0000000000e+00 0.0000e+00 1.0000e+00
      -13  1    1    2    0    0 +1.5739179665e+03 +6.4033631028e+02 +6.0737941442e+02 1.8044827815e+03 0.0000000000e+00 0.0000e+00 1.0000e+00
       13  1    1    2    0    0 -1.5739179665e+03 -6.4033631028e+02 +5.5595700846e+02 1.7878301236e+03 0.0000000000e+00 0.0000e+00 -1.0000e+00
<mgrwt>
<rscale>  0 0.33987292E+04</rscale>
<asrwt>0</asrwt>
<pdfrwt beam="1">  1        2 0.36581918E+00 0.33987292E+04</pdfrwt>
<pdfrwt beam="2">  1       -2 0.18684435E+00 0.33987292E+04</pdfrwt>
<totfact> 0.62605913E-01</totfact>
</mgrwt>
<rwgt>
<wgt id='morphing_basis_vector_1'> +3.7597003e-05 </wgt>
<wgt id='morphing_basis_vector_2'> +2.8586459e-05 </wgt>
<wgt id='morphing_basis_vector_3'> +4.1807976e-05 </wgt>
<wgt id='morphing_basis_vector_4'> +2.5461591e-05 </wgt>
<wgt id='morphing_basis_vector_5'> +4.5029663e-05 </wgt>
</rwgt>
</event>
<event>
 4      1 +1.9882500e-09 3.64713100e+03 7.81860800e-03 7.60729300e-02
        2 -1    0    0  501    0 +0.0000000000e+00 +0.0000000000e+00 +2.7128828830e+03 2.7128828830e+03 0.0000000000e+00 0.0000e+00 1.0000e+00
       -2 -1    0    0    0  501 -0.0000000000e+00 -0.0000000000e+00 -1.2257777399e+03 1.2257777399e+03 0.0000000000e+00 0.0000e+00 -1.0000e+00
      -13  1    1    2    0    0 -1.0985676044e+03 +4.6134973318e+02 -7.4726366215e+02 1.4064484841e+03 0.0000000000e+00 0.0000e+00 -1.0000e+00
       13  1    1    2    0    0 +1.0985676044e+03 -4.6134973318e+02 +2.2343688053e+03 2.5322121388e+03 0.0000000000e+00 0.0000e+00 1.0000e+00
<mgrwt>
<rscale>  0 0.36471312E+04</rscale>
<asrwt>0</asrwt>
<pdfrwt beam="1">  1        2 0.41736659E+00 0.36471312E+04</pdfrwt>
<pdfrwt beam="2">  1       -2 0.18858119E+00 0.36471312E+04</pdfrwt>
<totfact> 0.37422925E-01</totfact>
</mgrwt>
<rwgt>
<wgt id='morphing_basis_vector_1'> +4.7943835e-05 </wgt>
<wgt id='morphing_basis_vector_2'> +3.2526723e-05 </wgt>
<wgt id='morphing_basis_vector_3'> +5.2545883e-05 </wgt>
<wgt id='morphing_basis_vector_4'> +3.7647451e-05 </wgt>
<wgt id='morphing_basis_vector_5'> +6.0133666e-05 </wgt>
</rwgt>
</event>
<event>
 4      1 +1.9882500e-09 3.39039400e+03 7.81860800e-03 7.66077100e-02
        2 -1    0    0  501    0 +0.0000000000e+00 +0.0000000000e+00 +1.8837853998e+03 1.8837853998e+03 0.0000000000e+00 0.0000e+00 -1.0000e+00
       -2 -1    0    0    0  501 -0.0000000000e+00 -0.0000000000e+00 -1.5254883785e+03 1.5254883785e+03 0.0000000000e+00 0.0000e+00 1.0000e+00
      -13  1    1    2    0    0 +9.5613272402e+02 +8.5204272701e+01 -1.2258590937e+03 1.5569778649e+03 0.0000000000e+00 0.0000e+00 1.0000e+00
       13  1    1    2    0    0 -9.5613272402e+02 -8.5204272701e+01 +1.5841561151e+03 1.8522959135e+03 0.0000000000e+00 0.0000e+00 -1.0000e+00
<mgrwt>
<rscale>  0 0.33903939E+04</rscale>
<asrwt>0</asrwt>
<pdfrwt beam="1">  1        2 0.28981314E+00 0.33903939E+04</pdfrwt>
<pdfrwt beam="2">  1       -2 0.23469052E+00 0.33903939E+04</pdfrwt>
<totfact> 0.54214244E-01</totfact>
</mgrwt>
<rwgt>
<wgt id='morphing_basis_vector_1'> +3.5858706e-05 </wgt>
<wgt id='morphing_basis_vector_2'> +2.4267071e-05 </wgt>
<wgt id='morphing_basis_vector_3'> +3.9222862e-05 </wgt>
<wgt id='morphing_basis_vector_4'> +2.8093147e-05 </wgt>
<wgt id='morphing_basis_vector_5'> +4.4825033e-05 </wgt>
</rwgt>
</event>
<event>
 4      1 +1.9882500e-09 3.62001900e+03 7.81860800e-03 7.61272400e-02
        2 -1    0    0  501    0 +0.0000000000e+00 +0.0000000000e+00 +1.9560111112e+03 1.9560111112e+03 0.0000000000e+00 0.0000e+00 -1.0000e+00
       -2 -1    0    0    0  501 -0.0000000000e+00 -0.0000000000e+00 -1.6749061243e+03 1.6749061243e+03 0.0000000000e+00 0.0000e+00 1.0000e+00
      -13  1    1    2    0    0 -8.6859772863e+02 -2.6976320633e+02 -1.4290549708e+03 1.6939398783e+03 0.0000000000e+00 0.0000e+00 1.0000e+00
       13  1    1    2    0    0 +8.6859772863e+02 +2.6976320633e+02 +1.7101599577e+03 1.9369773572e+03 0.0000000000e+00 0.0000e+00 -1.0000e+00
<mgrwt>
<rscale>  0 0.36200193E+04</rscale>
<asrwt>0</asrwt>
<pdfrwt beam="1">  1        2 0.30092479E+00 0.36200193E+04</pdfrwt>
<pdfrwt beam="2">  1       -2 0.25767786E+00 0.36200193E+04</pdfrwt>
<totfact> 0.33576554E-01</totfact>
</mgrwt>
<rwgt>
<wgt id='morphing_basis_vector_1'> +4.6516444e-05 </wgt>
<wgt id='morphing_basis_vector_2'> +3.1495505e-05 </wgt>
<wgt id='morphing_basis_vector_3'> +5.0959635e-05 </wgt>
<wgt id='morphing_basis_vector_4'> +3.6589229e-05 </wgt>
<wgt id='morphing_basis_vector_5'> +5.8359526e-05 </wgt>
</rwgt>
</event>
<event>
 4      1 +1.9882500e-09 3.47224400e+03 7.81860800e-03 7.64320800e-02
        2 -1    0    0  501    0 +0.0000000000e+00 +0.0000000000e+00 +1.2653579189e+03 1.2653579189e+03 0.0000000000e+00 0.0000e+00 1.0000e+00
       -2 -1    0    0    0  501 -0.0000000000e+00 -0.0000000000e+00 -2.3820293816e+03 2.3820293816e+03 0.0000000000e+00 0.0000e+00 -1.0000e+00
      -13  1    1    2    0    0 +1.1142784800e+03 +2.8796713296e+02 +8.0706702831e+02 1.4056666706e+03 0.0000000000e+00 0.0000e+00 1.0000e+00
       13  1    1    2    0    0 -1.1142784800e+03 -2.8796713296e+02 -1.9237384911e+03 2.2417206299e+03 0.0000000000e+00 0.0000e+00 -1.0000e+00
<mgrwt>
<rscale>  0 0.34722441E+04</rscale>
<asrwt>0</asrwt>
<pdfrwt beam="1">  1        2 0.19467045E+00 0.34722441E+04</pdfrwt>
<pdfrwt beam="2">  1       -2 0.36646606E+00 0.34722441E+04</pdfrwt>
<totfact> 0.15574052E-01</totfact>
</mgrwt>
<rwgt>
<wgt id='morphing_basis_vector_1'> +5.1710808e-05 </wgt>
<wgt id='morphing_basis_vector_2'> +6.2838792e-05 </wgt>
<wgt id='morphing_basis_vector_3'> +6.2660072e-05 </wgt>
<wgt id='morphing_basis_vector_4'> +5.1053455e-06 </wgt>
<wgt id='morphing_basis_vector_5'> +4.7205844e-05 </wgt>
</rwgt>
</event>
<event>
 4      1 +1.9882500e-09 3.46356200e+03 7.81860800e-03 7.64504800e-02
        2 -1    0    0  501    0 +0.0000000000e+00 +0.0000000000e+00 +2.2119774024e+03 2.2119774024e+03 0.0000000000e+00 0.0000e+00 1.0000e+00
       -2 -1    0    0    0  501 -0.0000000000e+00 -0.0000000000e+00 -1.3558298868e+03 1.3558298868e+03 0.0000000000e+00 0.0000e+00 -1.0000e+00
      -13  1    1    2    0    0 +4.6250879657e+01 -1.3770957352e+03 -6.5256374441e+02 1.5245888785e+03 0.0000000000e+00 0.0000e+00 -1.0000e+00
       13  1    1    2    0    0 -4.6250879657e+01 +1.3770957352e+03 +1.5087112600e+03 2.0432184107e+03 0.0000000000e+00 0.0000e+00 1.0000e+00
<mgrwt>
<rscale>  0 0.34635618E+04</rscale>
<asrwt>0</asrwt>
<pdfrwt beam="1">  1        2 0.34030422E+00 0.34635618E+04</pdfrwt>
<pdfrwt beam="2">  1       -2 0.20858921E+00 0.34635618E+04</pdfrwt>
<totfact> 0.53820984E-01</totfact>
</mgrwt>
<rwgt>
<wgt id='morphing_basis_vector_1'> +3.9113129e-05 </wgt>
<wgt id='morphing_basis_vector_2'> +2.6661390e-05 </wgt>
<wgt id='morphing_basis_vector_3'> +4.2846037e-05 </wgt>
<wgt id='morphing_basis_vector_4'> +3.0445911e-05 </wgt>
<wgt id='morphing_basis_vector_5'> +4.8835812e-05 </wgt>
</rwgt>
</event>
<event>
 4      1 +1.9882500e-09 3.29989100e+03 7.81860800e-03 7.68079400e-02
        2 -1    0    0  501    0 +0.0000000000e+00 +0.0000000000e+00 +2.4611184857e+03 2.4611184857e+03 0.0000000000e+00 0.0000e+00 1.0000e+00
       -2 -1    0    0    0  501 -0.0000000000e+00 -0.0000000000e+00 -1.1061312933e+03 1.1061312933e+03 0.0000000000e+00 0.0000e+00 -1.0000e+00
      -13  1    1    2    0    0 -1.4032184672e+03 +4.3800406873e+01 -2.5955827507e+02 1.4276943092e+03 0.0000000000e+00 0.0000e+00 -1.0000e+00
       13  1    1    2    0    0 +1.4032184672e+03 -4.3800406873e+01 +1.6145454675e+03 2.1395554699e+03 0.0000000000e+00 0.0000e+00 1.0000e+00
<mgrwt>
<rscale>  0 0.32998910E+04</rscale>
<asrwt>0</asrwt>
<pdfrwt beam="1">  1        2 0.37863361E+00 0.32998910E+04</pdfrwt>
<pdfrwt beam="2">  1       -2 0.17017405E+00 0.32998910E+04</pdfrwt>
<totfact> 0.75546310E-01</totfact>
</mgrwt>
<rwgt>
<wgt id='morphing_basis_vector_1'> +3.2319585e-05 </wgt>
<wgt id='morphing_basis_vector_2'> +2.2119157e-05 </wgt>
<wgt id='morphing_basis_vector_3'> +3.5381110e-05 </wgt>
<wgt id='morphing_basis_vector_4'> +2.4954480e-05 </wgt>
<wgt id='morphing_basis_vector_5'> +4.0176429e-05 </wgt>
</rwgt>
</event>
<event>
 4      1 +1.9882500e-09 3.56717300e+03 7.81860800e-03 7.62345200e-02
        2 -1    0    0  501    0 +0.0000000000e+00 +0.0000000000e+00 +1.4511462053e+03 1.4511462053e+03 0.0000000000e+00 0.0000e+00 1.0000e+00
       -2 -1    0    0    0  501 -0.0000000000e+00 -0.0000000000e+00 -2.1921843670e+03 2.1921843670e+03 0.0000000000e+00 0.0000e+00 -1.0000e+00
      -13  1    1    2    0    0 +3.4528842455e+02 +1.7493266392e+03 -3.2703982023e+02 1.8128217868e+03 0.0000000000e+00 0.0000e+00 -1.0000e+00
       13  1    1    2    0    0 -3.4528842455e+02 -1.7493266392e+03 -4.1399834152e+02 1.8305087854e+03 0.0000000000e+00 0.0000e+00 1.0000e+00
<mgrwt>
<rscale>  0 0.35671726E+04</rscale>
<asrwt>0</asrwt>
<pdfrwt beam="1">  1        2 0.22325326E+00 0.35671726E+04</pdfrwt>
<pdfrwt beam="2">  1       -2 0.33725913E+00 0.35671726E+04</pdfrwt>
<totfact> 0.18754073E-01</totfact>
</mgrwt>
<rwgt>
<wgt id='morphing_basis_vector_1'> +4.5622787e-05 </wgt>
<wgt id='morphing_basis_vector_2'> +3.4840115e-05 </wgt>
<wgt id='morphing_basis_vector_3'> +5.0830443e-05 </wgt>
<wgt id='morphing_basis_vector_4'> +3.0810030e-05 </wgt>
<wgt id='morphing_basis_vector_5'> +5.4700703e-05 </wgt>
</rwgt>
</event>
<event>
 4      1 +1.9882500e-09 3.57525200e+03 7.81860800e-03 7.62179900e-02
        2 -1    0    0  501    0 +0.0000000000e+00 +0.0000000000e+00 +2.9826508288e+03 2.9826508288e+03 0.0000000000e+00 0.0000e+00 -1.0000e+00
       -2 -1    0    0    0  501 -0.0000000000e+00 -0.0000000000e+00 -1.0713983986e+03 1.0713983986e+03 0.0000000000e+00 0.0000e+00 1.0000e+00
      -13  1    1    2    0    0 -8.1537772320e+02 +1.5373588657e+03 +4.9183472966e+02 1.8083734445e+03 0.0000000000e+00 0.0000e+00 1.0000e+00
       13  1    1    2    0    0 +8.1537772320e+02 -1.5373588657e+03 +1.4194177005e+03 2.2456757830e+03 0.0000000000e+00 0.0000e+00 -1.0000e+00
<mgrwt>
<rscale>  0 0.35752523E+04</rscale>
<asrwt>0</asrwt>
<pdfrwt beam="1">  1        2 0.45886935E+00 0.35752523E+04</pdfrwt>
<pdfrwt beam="2">  1       -2 0.16483052E+00 0.35752523E+04</pdfrwt>
<totfact> 0.38620989E-01</totfact>
</mgrwt>
<rwgt>
<wgt id='morphing_basis_vector_1'> +4.4944130e-05 </wgt>
<wgt id='morphing_basis_vector_2'> +3.1947646e-05 </wgt>
<wgt id='morphing_basis_vector_3'> +4.9556554e-05 </wgt>
<wgt id='morphing_basis_vector_4'> +3.3387213e-05 </wgt>
<wgt id='morphing_basis_vector_5'> +5.5391470e-05 </wgt>
</rwgt>
</event>
<event>
 4      1 +1.9882500e-09 3.23486300e+03 7.81860800e-03 7.69559400e-02
        2 -1    0    0  501    0 +0.0000000000e+00 +0.0000000000e+00 +1.6296978567e+03 1.6296978567e+03 0.0000000000e+00 0.0000e+00 1.0000e+00
       -2 -1    0    0    0  501 -0.0000000000e+00 -0.0000000000e+00 -1.6052579417e+03 1.6052579417e+03 0.0000000000e+00 0.0000e+00 -1.0000e+00
      -13  1    1    2    0    0 +3.1946390684e+02 +9.5587674477e+02 -1.2528568132e+03 1.6079203131e+03 0.0000000000e+00 0.0000e+00 -1.0000e+00
       13  1    1    2    0    0 -3.1946390684e+02 -9.5587674477e+02 +1.2772967282e+03 1.6270354854e+03 0.0000000000e+00 0.0000e+00 1.0000e+00
<mgrwt>
<rscale>  0 0.32348635E+04</rscale>
<asrwt>0</asrwt>
<pdfrwt beam="1">  1        2 0.25072275E+00 0.32348635E+04</pdfrwt>
<pdfrwt beam="2">  1       -2 0.24696276E+00 0.32348635E+04</pdfrwt>
<totfact> 0.62493473E-01</totfact>
</mgrwt>
<rwgt>
<wgt id='morphing_basis_vector_1'> +2.9766419e-05 </wgt>
<wgt id='morphing_basis_vector_2'> +2.0142787e-05 </wgt>
<wgt id='morphing_basis_vector_3'> +3.2519929e-05 </wgt>
<wgt id='morphing_basis_vector_4'> +2.3236909e-05 </wgt>
<wgt id='morphing_basis_vector_5'> +3.7096900e-05 </wgt>
</rwgt>
</event>
<event>
 4      1 +1.9882500e-09 3.22478600e+03 7.81860800e-03 7.69792000e-02
        2 -1    0    0  501    0 +0.0000000000e+00 +0.0000000000e+00 +2.0439868793e+03 2.0439868793e+03 0.0000000000e+00 0.0000e+00 -1.0000e+00
       -2 -1    0    0    0  501 -0.0000000000e+00 -0.0000000000e+00 -1.2719311927e+03 1.2719311927e+03 0.0000000000e+00 0.0000e+00 1.0000e+00
      -13  1    1    2    0    0 +4.9826355250e+02 -8.1966324941e+02 -9.4662893516e+02 1.3476723456e+03 0.0000000000e+00 0.0000e+00 1.0000e+00
       13  1    1    2    0    0 -4.9826355250e+02 +8.1966324941e+02 +1.7186846218e+03 1.9682457263e+03 0.0000000000e+00 0.0000e+00 -1.0000e+00
<mgrwt>
<rscale>  0 0.32247857E+04</rscale>
<asrwt>0</asrwt>
<pdfrwt beam="1">  1        2 0.31445952E+00 0.32247857E+04</pdfrwt>
<pdfrwt beam="2">  1       -2 0.19568172E+00 0.32247857E+04</pdfrwt>
<totfact> 0.84933156E-01</totfact>
</mgrwt>
<rwgt>
<wgt id='morphing_basis_vector_1'> +2.9396371e-05 </wgt>
<wgt id='morphing_basis_vector_2'> +1.9882780e-05 </wgt>
<wgt id='morphing_basis_vector_3'> +3.2110923e-05 </wgt>
<wgt id='morphing_basis_vector_4'> +2.2954347e-05 </wgt>
<wgt id='morphing_basis_vector_5'> +3.6633926e-05 </wgt>
</rwgt>
</event>
<event>
 4      1 +1.9882500e-09 3.24442500e+03 7.81860800e-03 7.69339600e-02
        2 -1    0    0  501    0 +0.0000000000e+00 +0.0000000000e+00 +2.7623695676e+03 2.7623695676e+03 0.0000000000e+00 0.0000e+00 1.0000e+00
       -2 -1    0    0    0  501 -0.0000000000e+00 -0.0000000000e+00 -9.5265094677e+02 9.5265094677e+02 0.0000000000e+00 0.0000e+00 -1.0000e+00
      -13  1    1    2    0    0 +3.0374057898e+02 -5.9606393477e+02 -7.8734218724e+02 1.0331787229e+03 0.0000000000e+00 0.0000e+00 -1.0000e+00
       13  1    1    2    0    0 -3.0374057898e+02 +5.9606393477e+02 +2.5970608081e+03 2.6818417915e+03 0.0000000000e+00 0.0000e+00 1.0000e+00
<mgrwt>
<rscale>  0 0.32444254E+04</rscale>
<asrwt>0</asrwt>
<pdfrwt beam="1">  1        2 0.42497993E+00 0.32444254E+04</pdfrwt>
<pdfrwt beam="2">  1       -2 0.14656168E+00 0.32444254E+04</pdfrwt>
<totfact> 0.77145327E-01</totfact>
</mgrwt>
<rwgt>
<wgt id='morphing_basis_vector_1'> +3.0101500e-05 </wgt>
<wgt id='morphing_basis_vector_2'> +2.0335171e-05 </wgt>
<wgt id='morphing_basis_vector_3'> +3.2881219e-05 </wgt>
<wgt id='morphing_basis_vector_4'> +2.3547693e-05 </wgt>
<wgt id='morphing_basis_vector_5'> +3.7543533e-05 </wgt>
</rwgt>
</event>
<event>
 4      1 +1.9882500e-09 3.56605200e+03 7.81860800e-03 7.62368100e-02
        2 -1    0    0  501    0 +0.0000000000e+00 +0.0000000000e+00 +3.9257981951e+03 3.9257981951e+03 0.0000000000e+00 0.0000e+00 -1.0000e+00
       -2 -1    0    0    0  501 -0.0000000000e+00 -0.0000000000e+00 -8.0981801944e+02 8.0981801944e+02 0.0000000000e+00 0.0000e+00 1.0000e+00
      -13  1    1    2    0    0 +8.7630661593e+02 +7.4876950061e+02 -2.4854587728e+02 1.1791285355e+03 0.0000000000e+00 0.0000e+00 1.0000e+00
       13  1    1    2    0    0 -8.7630661593e+02 -7.4876950061e+02 +3.3645260529e+03 3.5564876790e+03 0.0000000000e+00 0.0000e+00 -1.0000e+00
<mgrwt>
<rscale>  0 0.35660522E+04</rscale>
<asrwt>0</asrwt>
<pdfrwt beam="1">  1        2 0.60396894E+00 0.35660522E+04</pdfrwt>
<pdfrwt beam="2">  1       -2 0.12458739E+00 0.35660522E+04</pdfrwt>
<totfact> 0.17388816E-01</totfact>
</mgrwt>
<rwgt>
<wgt id='morphing_basis_vector_1'> +4.3843535e-05 </wgt>
<wgt id='morphing_basis_vector_2'> +2.9730620e-05 </wgt>
<wgt id='morphing_basis_vector_3'> +4.8025708e-05 </wgt>
<wgt id='morphing_basis_vector_4'> +3.4395172e-05 </wgt>
<wgt id='morphing_basis_vector_5'> +5.4932170e-05 </wgt>
</rwgt>
</event>
<event>
 4      1 +1.9882500e-09 3.46716700e+03 7.81860800e-03 7.64428300e-02
        2 -1    0    0  501    0 +0.0000000000e+00 +0.0000000000e+00 +1.5490775141e+03 1.5490775141e+03 0.0000000000e+00 0.0000e+00 -1.0000e+00
       -2 -1    0    0    0  501 -0.0000000000e+00 -0.0000000000e+00 -1.9400659329e+03 1.9400659329e+03 0.0000000000e+00 0.0000e+00 1.0000e+00
      -13  1    1    2    0    0 +1.4156898660e+03 -3.3622110733e+02 -1.1438526621e+03 1.8508434138e+03 0.0000000000e+00 0.0000e+00 1.0000e+00
       13  1    1    2    0    0 -1.4156898660e+03 +3.3622110733e+02 +7.5286424332e+02 1.6383000332e+03 0.0000000000e+00 0.0000e+00 -1.0000e+00
<mgrwt>
<rscale>  0 0.34671674E+04</rscale>
<asrwt>0</asrwt>
<pdfrwt beam="1">  1        2 0.23831962E+00 0.34671674E+04</pdfrwt>
<pdfrwt beam="2">  1       -2 0.29847168E+00 0.34671674E+04</pdfrwt>
<totfact> 0.30220072E-01</totfact>
</mgrwt>
<rwgt>
<wgt id='morphing_basis_vector_1'> +3.9317839e-05 </wgt>
<wgt id='morphing_basis_vector_2'> +2.6897890e-05 </wgt>
<wgt id='morphing_basis_vector_3'> +4.3092448e-05 </wgt>
<wgt id='morphing_basis_vector_4'> +3.0483996e-05 </wgt>
<wgt id='morphing_basis_vector_5'> +4.9033407e-05 </wgt>
</rwgt>
</event>
<event>
 4      1 +1.9882500e-09 3.57098600e+03 7.81860800e-03 7.62267100e-02
        2 -1    0    0  501    0 +0.0000000000e+00 +0.0000000000e+00 +3.2111334794e+03 3.2111334794e+03 0.0000000000e+00 0.0000e+00 -1.0000e+00
       -2 -1    0    0    0  501 -0.0000000000e+00 -0.0000000000e+00 -9.9279119752e+02 9.9279119752e+02 0.0000000000e+00 0.0000e+00 1.0000e+00
      -13  1    1    2    0    0 -7.7533659314e+02 -1.5351554068e+02 -7.7562364206e+02 1.1073869640e+03 0.0000000000e+00 0.0000e+00 1.0000e+00
       13  1    1    2    0    0 +7.7533659314e+02 +1.5351554068e+02 +2.9939659239e+03 3.0965377129e+03 0.0000000000e+00 0.0000e+00 -1.0000e+00
<mgrwt>
<rscale>  0 0.35709859E+04</rscale>
<asrwt>0</asrwt>
<pdfrwt beam="1">  1        2 0.49402053E+00 0.35709859E+04</pdfrwt>
<pdfrwt beam="2">  1       -2 0.15273711E+00 0.35709859E+04</pdfrwt>
<totfact> 0.34060941E-01</totfact>
</mgrwt>
<rwgt>
<wgt id='morphing_basis_vector_1'> +4.4057998e-05 </wgt>
<wgt id='morphing_basis_vector_2'> +2.9815345e-05 </wgt>
<wgt id='morphing_basis_vector_3'> +4.8248782e-05 </wgt>
<wgt id='morphing_basis_vector_4'> +3.4644111e-05 </wgt>
<wgt id='morphing_basis_vector_5'> +5.5243436e-05 </wgt>
</rwgt>
</event>
<event>
 4      1 +1.9882500e-09 3.70820700e+03 7.81860800e-03 7.59523400e-02
        2 -1    0    0  501    0 +0.0000000000e+00 +0.0000000000e+00 +2.3609881952e+03 2.3609881952e+03 0.0000000000e+00 0.0000e+00 -1.0000e+00
       -2 -1    0    0    0  501 -0.0000000000e+00 -0.0000000000e+00 -1.4560425515e+03 1.4560425515e+03 0.0000000000e+00 0.0000e+00 1.0000e+00
      -13  1    1    2    0    0 +9.8897461723e+02 +1.7847204550e+02 -1.1513856670e+03 1.5282709245e+03 0.0000000000e+00 0.0000e+00 1.0000e+00
       13  1    1    2    0    0 -9.8897461723e+02 -1.7847204550e+02 +2.0563313106e+03 2.2887598222e+03 0.0000000000e+00 0.0000e+00 -1.0000e+00
<mgrwt>
<rscale>  0 0.37082067E+04</rscale>
<asrwt>0</asrwt>
<pdfrwt beam="1">  1        2 0.36322895E+00 0.37082067E+04</pdfrwt>
<pdfrwt beam="2">  1       -2 0.22400655E+00 0.37082067E+04</pdfrwt>
<totfact> 0.33569448E-01</totfact>
</mgrwt>
<rwgt>
<wgt id='morphing_basis_vector_1'> +5.1192137e-05 </wgt>
<wgt id='morphing_basis_vector_2'> +3.4684217e-05 </wgt>
<wgt id='morphing_basis_vector_3'> +5.6114972e-05 </wgt>
<wgt id='morphing_basis_vector_4'> +4.0299578e-05 </wgt>
<wgt id='morphing_basis_vector_5'> +6.4293349e-05 </wgt>
</rwgt>
</event>
<event>
 4      1 +1.9882500e-09 3.21696900e+03 7.81860800e-03 7.69973000e-02
        2 -1    0    0  501    0 +0.0000000000e+00 +0.0000000000e+00 +1.2284700042e+03 1.2284700042e+03 0.0000000000e+00 0.0000e+00 1.0000e+00
       -2 -1    0    0    0  501 -0.0000000000e+00 -0.0000000000e+00 -2.1060530128e+03 2.1060530128e+03 0.0000000000e+00 0.0000e+00 -1.0000e+00
      -13  1    1    2    0    0 +6.0942892671e+02 -1.1304384495e+03 -1.4426479322e+03 1.9314574189e+03 0.0000000000e+00 0.0000e+00 -1.0000e+00
       13  1    1    2    0    0 -6.0942892671e+02 +1.1304384495e+03 +5.6506492350e+02 1.4030655981e+03 0.0000000000e+00 0.0000e+00 1.0000e+00
<mgrwt>
<rscale>  0 0.32169694E+04</rscale>
<asrwt>0</asrwt>
<pdfrwt beam="1">  1        2 0.18899539E+00 0.32169694E+04</pdfrwt>
<pdfrwt beam="2">  1       -2 0.32400815E+00 0.32169694E+04</pdfrwt>
<totfact> 0.31627761E-01</totfact>
</mgrwt>
<rwgt>
<wgt id='morphing_basis_vector_1'> +2.9173319e-05 </wgt>
<wgt id='morphing_basis_vector_2'> +1.9864071e-05 </wgt>
<wgt id='morphing_basis_vector_3'> +3.1893447e-05 </wgt>
<wgt id='morphing_basis_vector_4'> +2.2608177e-05 </wgt>
<wgt id='morphing_basis_vector_5'> +3.6267203e-05 </wgt>
</rwgt>
</event>
<event>
 4      1 +1.9882500e-09 3.30775300e+03 7.81860800e-03 7.67902900e-02
        2 -1    0    0  501    0 +0.0000000000e+00 +0.0000000000e+00 +1.9790714573e+03 1.9790714573e+03 0.0000000000e+00 0.0000e+00 1.0000e+00
       -2 -1    0    0    0  501 -0.0000000000e+00 -0.0000000000e+00 -1.3821169816e+03 1.3821169816e+03 0.0000000000e+00 0.0000e+00 -1.0000e+00
      -13  1    1    2    0    0 -1.0616607465e+03 -8.7541191904e+02 -6.3386244582e+02 1.5150086365e+03 0.0000000000e+00 0.0000e+00 -1.0000e+00
       13  1    1    2    0    0 +1.0616607465e+03 +8.7541191904e+02 +1.2308169215e+03 1.8461798024e+03 0.0000000000e+00 0.0000e+00 1.0000e+00
<mgrwt>
<rscale>  0 0.33077535E+04</rscale>
<asrwt>0</asrwt>
<pdfrwt beam="1">  1        2 0.30447253E+00 0.33077535E+04</pdfrwt>
<pdfrwt beam="2">  1       -2 0.21263338E+00 0.33077535E+04</pdfrwt>
<totfact> 0.69127417E-01</totfact>
</mgrwt>
<rwgt>
<wgt id='morphing_basis_vector_1'> +3.2607123e-05 </wgt>
<wgt id='morphing_basis_vector_2'> +2.2273381e-05 </wgt>
<wgt id='morphing_basis_vector_3'> +3.5688917e-05 </wgt>
<wgt id='morphing_basis_vector_4'> +2.5235225e-05 </wgt>
<wgt id='morphing_basis_vector_5'> +4.0566853e-05 </wgt>
</rwgt>
</event>
<event>
 4      1 +1.9882500e-09 3.40100400e+03 7.81860800e-03 7.65846600e-02
        2 -1    0    0  501    0 +0.0000000000e+00 +0.0000000000e+00 +1.8585578723e+03 1.8585578723e+03 0.0000000000e+00 0.0000e+00 -1.0000e+00
       -2 -1    0    0    0  501 -0.0000000000e+00 -0.0000000000e+00 -1.5558876058e+03 1.5558876058e+03 0.0000000000e+00 0.0000e+00 1.0000e+00
      -13  1    1    2    0    0 +1.3168806773e+02 -1.2896390620e+03 -9.5355815480e+02 1.6092805262e+03 0.0000000000e+00 0.0000e+00 1.0000e+00
       13  1    1    2    0    0 -1.3168806773e+02 +1.2896390620e+03 +1.2562284212e+03 1.8051649519e+03 0.0000000000e+00 0.0000e+00 -1.0000e+00
<mgrwt>
<rscale>  0 0.34010041E+04</rscale>
<asrwt>0</asrwt>
<pdfrwt beam="1">  1        2 0.28593198E+00 0.34010041E+04</pdfrwt>
<pdfrwt beam="2">  1       -2 0.23936733E+00 0.34010041E+04</pdfrwt>
<totfact> 0.51902292E-01</totfact>
</mgrwt>
<rwgt>
<wgt id='morphing_basis_vector_1'> +3.6360328e-05 </wgt>
<wgt id='morphing_basis_vector_2'> +2.4729857e-05 </wgt>
<wgt id='morphing_basis_vector_3'> +3.9801278e-05 </wgt>
<wgt id='morphing_basis_vector_4'> +2.8335825e-05 </wgt>
<wgt id='morphing_basis_vector_5'> +4.5383347e-05 </wgt>
</rwgt>
</event>
<event>
 4      1 +1.9882500e-09 3.76044300e+03 7.81860800e-03 7.58510800e-02
        2 -1    0    0  501    0 +0.0000000000e+00 +0.0000000000e+00 +2.9308538493e+03 2.9308538493e+03 0.0000000000e+00 0.0000e+00 -1.0000e+00
       -2 -1    0    0    0  501 -0.0000000000e+00 -0.0000000000e+00 -1.2062124040e+03 1.2062124040e+03 0.0000000000e+00 0.0000e+00 1.0000e+00
      -13  1    1    2    0    0 -6.7366472948e+02 +9.6170505359e+02 -7.5327020637e+02 1.3950328963e+03 0.0000000000e+00 0.0000e+00 1.0000e+00
       13  1    1    2    0    0 +6.7366472948e+02 -9.6170505359e+02 +2.4779116517e+03 2.7420333571e+03 0.0000000000e+00 0.0000e+00 -1.0000e+00
<mgrwt>
<rscale>  0 0.37604427E+04</rscale>
<asrwt>0</asrwt>
<pdfrwt beam="1">  1        2 0.45090059E+00 0.37604427E+04</pdfrwt>
<pdfrwt beam="2">  1       -2 0.18557114E+00 0.37604427E+04</pdfrwt>
<totfact> 0.28458990E-01</totfact>
</mgrwt>
<rwgt>
<wgt id='morphing_basis_vector_1'> +5.4137072e-05 </wgt>
<wgt id='morphing_basis_vector_2'> +3.6724604e-05 </wgt>
<wgt id='morphing_basis_vector_3'> +5.9369664e-05 </wgt>
<wgt id='morphing_basis_vector_4'> +4.2596725e-05 </wgt>
<wgt id='morphing_basis_vector_5'> +6.8012067e-05 </wgt>
</rwgt>
</event>
<event>
 4      1 +1.9882500e-09 3.39540500e+03 7.81860800e-03 7.65968100e-02
        2 -1    0    0  501    0 +0.0000000000e+00 +0.0000000000e+00 +2.1306968925e+03 2.1306968925e+03 0.0000000000e+00 0.0000e+00 -1.0000e+00
       -2 -1    0    0    0  501 -0.0000000000e+00 -0.0000000000e+00 -1.3526997225e+03 1.3526997225e+03 0.0000000000e+00 0.0000e+00 1.0000e+00
      -13  1    1    2    0    0 +8.4531839240e+02 +2.3329864115e+02 -1.1023592636e+03 1.4086118652e+03 0.0000000000e+00 0.0000e+00 1.0000e+00
       13  1    1    2    0    0 -8.4531839240e+02 -2.3329864115e+02 +1.8803564337e+03 2.0747847499e+03 0.0000000000e+00 0.0000e+00 -1.0000e+00
<mgrwt>
<rscale>  0 0.33954046E+04</rscale>
<asrwt>0</asrwt>
<pdfrwt beam="1">  1        2 0.32779952E+00 0.33954046E+04</pdfrwt>
<pdfrwt beam="2">  1       -2 0.20810765E+00 0.33954046E+04</pdfrwt>
<totfact> 0.60719715E-01</totfact>
</mgrwt>
<rwgt>
<wgt id='morphing_basis_vector_1'> +3.6064815e-05 </wgt>
<wgt id='morphing_basis_vector_2'> +2.4396227e-05 </wgt>
<wgt id='morphing_basis_vector_3'> +3.9447477e-05 </wgt>
<wgt id='morphing_basis_vector_4'> +2.8270851e-05 </wgt>
<wgt id='morphing_basis_vector_5'> +4.5093289e-05 </wgt>
</rwgt>
</event>
<event>
 4      1 +1.9882500e-09 3.37795900e+03 7.81860800e-03 7.66348400e-02
        2 -1    0    0  501    0 +0.0000000000e+00 +0.0000000000e+00 +5.1799660469e+03 5.1799660469e+03 0.0000000000e+00 0.0000e+00 1.0000e+00
       -2 -1    0    0    0  501 -0.0000000000e+00 -0.0000000000e+00 -5.5070868916e+02 5.5070868916e+02 0.0000000000e+00 0.0000e+00 -1.0000e+00
      -13  1    1    2    0    0 +8.8321466048e+02 +7.0972569461e+02 +1.8969528301e+02 1.1488093830e+03 0.0000000000e+00 0.0000e+00 -1.0000e+00
       13  1    1    2    0    0 -8.8321466048e+02 -7.0972569461e+02 +4.4395620747e+03 4.5818653531e+03 0.0000000000e+00 0.0000e+00 1.0000e+00
<mgrwt>
<rscale>  0 0.33779593E+04</rscale>
<asrwt>0</asrwt>
<pdfrwt beam="1">  1        2 0.79691782E+00 0.33779593E+04</pdfrwt>
<pdfrwt beam="2">  1       -2 0.84724417E-01 0.33779593E+04</pdfrwt>
<totfact> 0.19635130E-02</totfact>
</mgrwt>
<rwgt>
<wgt id='morphing_basis_vector_1'> +3.5357526e-05 </wgt>
<wgt id='morphing_basis_vector_2'> +2.3967816e-05 </wgt>
<wgt id='morphing_basis_vector_3'> +3.8679850e-05 </wgt>
<wgt id='morphing_basis_vector_4'> +2.7642159e-05 </wgt>
<wgt id='morphing_basis_vector_5'> +4.4163357e-05 </wgt>
</rwgt>
</event>
<event>
 4      1 +1.9882500e-09 3.24025400e+03 7.81860800e-03 7.69435400e-02
        2 -1    0    0  501    0 +0.0000000000e+00 +0.0000000000e+00 +2.3374430302e+03 2.3374430302e+03 0.0000000000e+00 0.0000e+00 -1.0000e+00
       -2 -1    0    0    0  501 -0.0000000000e+00 -0.0000000000e+00 -1.1229412377e+03 1.1229412377e+03 0.0000000000e+00 0.0000e+00 1.0000e+00
      -13  1    1    2    0    0 +1.0894204536e+03 -7.9013359543e+01 +1.8850895909e+03 2.1786791414e+03 0.0000000000e+00 0.0000e+00 1.0000e+00
       13  1    1    2    0    0 -1.0894204536e+03 +7.9013359543e+01 -6.7058779845e+02 1.2817051264e+03 0.0000000000e+00 0.0000e+00 -1.0000e+00
<mgrwt>
<rscale>  0 0.32402538E+04</rscale>
<asrwt>0</asrwt>
<pdfrwt beam="1">  1        2 0.35960662E+00 0.32402538E+04</pdfrwt>
<pdfrwt beam="2">  1       -2 0.17276019E+00 0.32402538E+04</pdfrwt>
<totfact> 0.85713027E-01</totfact>
</mgrwt>
<rwgt>
<wgt id='morphing_basis_vector_1'> +3.9154174e-05 </wgt>
<wgt id='morphing_basis_vector_2'> +4.7326756e-05 </wgt>
<wgt id='morphing_basis_vector_3'> +4.7239251e-05 </wgt>
<wgt id='morphing_basis_vector_4'> +4.1592658e-06 </wgt>
<wgt id='morphing_basis_vector_5'> +3.5758816e-05 </wgt>
</rwgt>
</event>
<event>
 4      1 +1.9882500e-09 3.23876000e+03 7.81860800e-03 7.69469700e-02
        2 -1    0    0  501    0 +0.0000000000e+00 +0.0000000000e+00 +2.5516246362e+03 2.5516246362e+03 0.0000000000e+00 0.0000e+00 1.0000e+00
       -2 -1    0    0    0  501 -0.0000000000e+00 -0.0000000000e+00 -1.0277343832e+03 1.0277343832e+03 0.0000000000e+00 0.0000e+00 -1.0000e+00
      -13  1    1    2    0    0 -4.5876218775e+02 -1.6298385283e+02 -9.4493857609e+02 1.0629841926e+03 0.0000000000e+00 0.0000e+00 -1.0000e+00
       13  1    1    2    0    0 +4.5876218775e+02 +1.6298385283e+02 +2.4688288291e+03 2.5163748267e+03 0.0000000000e+00 0.0000e+00 1.0000e+00
<mgrwt>
<rscale>  0 0.32387605E+04</rscale>
<asrwt>0</asrwt>
<pdfrwt beam="1">  1        2 0.39255763E+00 0.32387605E+04</pdfrwt>
<pdfrwt beam="2">  1       -2 0.15811298E+00 0.32387605E+04</pdfrwt>
<totfact> 0.83502170E-01</totfact>
</mgrwt>
<rwgt>
<wgt id='morphing_basis_vector_1'> +2.9891484e-05 </wgt>
<wgt id='morphing_basis_vector_2'> +2.0188191e-05 </wgt>
<wgt id='morphing_basis_vector_3'> +3.2649207e-05 </wgt>
<wgt id='morphing_basis_vector_4'> +2.3386557e-05 </wgt>
<wgt id='morphing_basis_vector_5'> +3.7280374e-05 </wgt>
</rwgt>
</event>
<event>
 4      1 +1.9882500e-09 3.27330400e+03 7.81860800e-03 7.68680300e-02
        2 -1    0    0  501    0 +0.0000000000e+00 +0.0000000000e+00 +1.3815317560e+03 1.3815317560e+03 0.0000000000e+00 0.0000e+00 -1.0000e+00
       -2 -1    0    0    0  501 -0.0000000000e+00 -0.0000000000e+00 -1.9388843172e+03 1.9388843172e+03 0.0000000000e+00 0.0000e+00 1.0000e+00
      -13  1    1    2    0    0 -1.6701137867e+01 +1.2553967095e+03 -1.3437067309e+03 1.8389800447e+03 0.0000000000e+00 0.0000e+00 1.0000e+00
       13  1    1    2    0    0 +1.6701137867e+01 -1.2553967095e+03 +7.8635416964e+02 1.4814360284e+03 0.0000000000e+00 0.0000e+00 -1.0000e+00
<mgrwt>
<rscale>  0 0.32733043E+04</rscale>
<asrwt>0</asrwt>
<pdfrwt beam="1">  1        2 0.21254335E+00 0.32733043E+04</pdfrwt>
<pdfrwt beam="2">  1       -2 0.29828989E+00 0.32733043E+04</pdfrwt>
<totfact> 0.38240869E-01</totfact>
</mgrwt>
<rwgt>
<wgt id='morphing_basis_vector_1'> +3.1236704e-05 </wgt>
<wgt id='morphing_basis_vector_2'> +2.1236071e-05 </wgt>
<wgt id='morphing_basis_vector_3'> +3.4157940e-05 </wgt>
<wgt id='morphing_basis_vector_4'> +2.4283096e-05 </wgt>
<wgt id='morphing_basis_vector_5'> +3.8898581e-05 </wgt>
</rwgt>
</event>
<event>
 4      1 +1.9882500e-09 3.24016300e+03 7.81860800e-03 7.69437500e-02
        2 -1    0    0  501    0 +0.0000000000e+00 +0.0000000000e+00 +1.8412128918e+03 1.8412128918e+03 0.0000000000e+00 0.0000e+00 -1.0000e+00
       -2 -1    0    0    0  501 -0.0000000000e+00 -0.0000000000e+00 -1.4255083305e+03 1.4255083305e+03 0.0000000000e+00 0.0000e+00 1.0000e+00
      -13  1    1    2    0    0 +1.3961893878e+03 -8.0814347309e+02 +3.5815012456e+02 1.6524866690e+03 0.0000000000e+00 0.0000e+00 1.0000e+00
       13  1    1    2    0    0 -1.3961893878e+03 +8.0814347309e+02 +5.7554436778e+01 1.6142345532e+03 0.0000000000e+00 0.0000e+00 -1.0000e+00
<mgrwt>
<rscale>  0 0.32401632E+04</rscale>
<asrwt>0</asrwt>
<pdfrwt beam="1">  1        2 0.28326352E+00 0.32401632E+04</pdfrwt>
<pdfrwt beam="2">  1       -2 0.21930897E+00 0.32401632E+04</pdfrwt>
<totfact> 0.74417729E-01</totfact>
</mgrwt>
<rwgt>
<wgt id='morphing_basis_vector_1'> +3.1466158e-05 </wgt>
<wgt id='morphing_basis_vector_2'> +2.4706438e-05 </wgt>
<wgt id='morphing_basis_vector_3'> +3.5109418e-05 </wgt>
<wgt id='morphing_basis_vector_4'> +2.0239459e-05 </wgt>
<wgt id='morphing_basis_vector_5'> +3.7082312e-05 </wgt>
</rwgt>
</event>
<event>
 4      1 +1.9882500e-09 3.22498000e+03 7.81860800e-03 7.69787500e-02
        2 -1    0    0  501    0 +0.0000000000e+00 +0.0000000000e+00 +1.7297271625e+03 1.7297271625e+03 0.0000000000e+00 0.0000e+00 1.0000e+00
       -2 -1    0    0    0  501 -0.0000000000e+00 -0.0000000000e+00 -1.5031985387e+03 1.5031985387e+03 0.0000000000e+00 0.0000e+00 -1.0000e+00
      -13  1    1    2    0    0 +1.2123996945e+03 -1.0467747176e+03 +2.9939088603e+02 1.6295045968e+03 0.0000000000e+00 0.0000e+00 -1.0000e+00
       13  1    1    2    0    0 -1.2123996945e+03 +1.0467747176e+03 -7.2862262227e+01 1.6034211043e+03 0.0000000000e+00 0.0000e+00 1.0000e+00
<mgrwt>
<rscale>  0 0.32249796E+04</rscale>
<asrwt>0</asrwt>
<pdfrwt beam="1">  1        2 0.26611187E+00 0.32249796E+04</pdfrwt>
<pdfrwt beam="2">  1       -2 0.23126131E+00 0.32249796E+04</pdfrwt>
<totfact> 0.70787483E-01</totfact>
</mgrwt>
<rwgt>
<wgt id='morphing_basis_vector_1'> +3.1009799e-05 </wgt>
<wgt id='morphing_basis_vector_2'> +2.4615812e-05 </wgt>
<wgt id='morphing_basis_vector_3'> +3.4652334e-05 </wgt>
<wgt id='morphing_basis_vector_4'> +1.9598934e-05 </wgt>
<wgt id='morphing_basis_vector_5'> +3.6365413e-05 </wgt>
</rwgt>
</event>
<event>
 4      1 +1.9882500e-09 3.46143900e+03 7.81860800e-03 7.64549800e-02
        2 -1    0    0  501    0 +0.0000000000e+00 +0.0000000000e+00 +4.0202316763e+03 4.0202316763e+03 0.0000000000e+00 0.0000e+00 -1.0000e+00
       -2 -1    0    0    0  501 -0.0000000000e+00 -0.0000000000e+00 -7.4507906513e+02 7.4507906513e+02 0.0000000000e+00 0.0000e+00 1.0000e+00
      -13  1    1    2    0    0 -2.7564491633e+02 -1.4734590893e+03 +4.4666149641e+02 1.5641509838e+03 0.0000000000e+00 0.0000e+00 1.0000e+00
       13  1    1    2    0    0 +2.7564491633e+02 +1.4734590893e+03 +2.8284911148e+03 3.2011597577e+03 0.0000000000e+00 0.0000e+00 -1.0000e+00
<mgrwt>
<rscale>  0 0.34614393E+04</rscale>
<asrwt>0</asrwt>
<pdfrwt beam="1">  1        2 0.61849717E+00 0.34614393E+04</pdfrwt>
<pdfrwt beam="2">  1       -2 0.11462755E+00 0.34614393E+04</pdfrwt>
<totfact> 0.18132178E-01</totfact>
</mgrwt>
<rwgt>
<wgt id='morphing_basis_vector_1'> +3.9097390e-05 </wgt>
<wgt id='morphing_basis_vector_2'> +2.6829848e-05 </wgt>
<wgt id='morphing_basis_vector_3'> +4.2867191e-05 </wgt>
<wgt id='morphing_basis_vector_4'> +3.0204068e-05 </wgt>
<wgt id='morphing_basis_vector_5'> +4.8701605e-05 </wgt>
</rwgt>
</event>
<event>
 4      1 +1.9882500e-09 3.52913800e+03 7.81860800e-03 7.63129100e-02
        2 -1    0    0  501    0 +0.0000000000e+00 +0.0000000000e+00 +3.7075527254e+03 3.7075527254e+03 0.0000000000e+00 0.0000e+00 -1.0000e+00
       -2 -1    0    0    0  501 -0.0000000000e+00 -0.0000000000e+00 -8.3982733095e+02 8.3982733095e+02 0.0000000000e+00 0.0000e+00 1.0000e+00
      -13  1    1    2    0    0 +2.5677004434e+00 +1.2632755894e+03 -1.5360348643e+02 1.2725823505e+03 0.0000000000e+00 0.0000e+00 1.0000e+00
       13  1    1    2    0    0 -2.5677004434e+00 -1.2632755894e+03 +3.0213288809e+03 3.2747977058e+03 0.0000000000e+00 0.0000e+00 -1.0000e+00
<mgrwt>
<rscale>  0 0.35291382E+04</rscale>
<asrwt>0</asrwt>
<pdfrwt beam="1">  1        2 0.57039271E+00 0.35291382E+04</pdfrwt>
<pdfrwt beam="2">  1       -2 0.12920421E+00 0.35291382E+04</pdfrwt>
<totfact> 0.23710846E-01</totfact>
</mgrwt>
<rwgt>
<wgt id='morphing_basis_vector_1'> +4.2090579e-05 </wgt>
<wgt id='morphing_basis_vector_2'> +2.8589451e-05 </wgt>
<wgt id='morphing_basis_vector_3'> +4.6105307e-05 </wgt>
<wgt id='morphing_basis_vector_4'> +3.2936042e-05 </wgt>
<wgt id='morphing_basis_vector_5'> +5.2674846e-05 </wgt>
</rwgt>
</event>
<event>
 4      1 +1.9882500e-09 3.30947000e+03 7.81860800e-03 7.67864400e-02
        2 -1    0    0  501    0 +0.0000000000e+00 +0.0000000000e+00 +1.2735305016e+03 1.2735305016e+03 0.0000000000e+00 0.0000e+00 -1.0000e+00
       -2 -1    0    0    0  501 -0.0000000000e+00 -0.0000000000e+00 -2.1500455363e+03 2.1500455363e+03 0.0000000000e+00 0.0000e+00 1.0000e+00
      -13  1    1    2    0    0 +4.8214758928e+02 -6.0778385930e+02 -1.9502536216e+03 2.0988941627e+03 0.0000000000e+00 0.0000e+00 1.0000e+00
       13  1    1    2    0    0 -4.8214758928e+02 +6.0778385930e+02 +1.0737385869e+03 1.3246818752e+03 0.0000000000e+00 0.0000e+00 -1.0000e+00
<mgrwt>
<rscale>  0 0.33094704E+04</rscale>
<asrwt>0</asrwt>
<pdfrwt beam="1">  1        2 0.19592777E+00 0.33094704E+04</pdfrwt>
<pdfrwt beam="2">  1       -2 0.33077623E+00 0.33094704E+04</pdfrwt>
<totfact> 0.26660951E-01</totfact>
</mgrwt>
<rwgt>
<wgt id='morphing_basis_vector_1'> +3.2571504e-05 </wgt>
<wgt id='morphing_basis_vector_2'> +2.2016809e-05 </wgt>
<wgt id='morphing_basis_vector_3'> +3.5600395e-05 </wgt>
<wgt id='morphing_basis_vector_4'> +2.5503587e-05 </wgt>
<wgt id='morphing_basis_vector_5'> +4.0669573e-05 </wgt>
</rwgt>
</event>
<event>
 4      1 +1.9882500e-09 3.83368100e+03 7.81860800e-03 7.57118900e-02
        2 -1    0    0  501    0 +0.0000000000e+00 +0.0000000000e+00 +2.2192327486e+03 2.2192327486e+03 0.0000000000e+00 0.0000e+00 -1.0000e+00
       -2 -1    0    0    0  501 -0.0000000000e+00 -0.0000000000e+00 -1.6556525929e+03 1.6556525929e+03 0.0000000000e+00 0.0000e+00 1.0000e+00
      -13  1    1    2    0    0 -7.5158358560e+02 +5.8178208851e+02 -1.4007120343e+03 1.6927322552e+03 0.0000000000e+00 0.0000e+00 1.0000e+00
       13  1    1    2    0    0 +7.5158358560e+02 -5.8178208851e+02 +1.9642921900e+03 2.1821530863e+03 0.0000000000e+00 0.0000e+00 -1.0000e+00
<mgrwt>
<rscale>  0 0.38336815E+04</rscale>
<asrwt>0</asrwt>
<pdfrwt beam="1">  1        2 0.34142043E+00 0.38336815E+04</pdfrwt>
<pdfrwt beam="2">  1       -2 0.25471578E+00 0.38336815E+04</pdfrwt>
<totfact> 0.24523929E-01</totfact>
</mgrwt>
<rwgt>
<wgt id='morphing_basis_vector_1'> +5.8429597e-05 </wgt>
<wgt id='morphing_basis_vector_2'> +3.9592305e-05 </wgt>
<wgt id='morphing_basis_vector_3'> +6.4091148e-05 </wgt>
<wgt id='morphing_basis_vector_4'> +4.6083532e-05 </wgt>
<wgt id='morphing_basis_vector_5'> +7.3502816e-05 </wgt>
</rwgt>
</event>
<event>
 4      1 +1.9882500e-09 3.48137000e+03 7.81860800e-03 7.64128100e-02
        2 -1    0    0  501    0 +0.0000000000e+00 +0.0000000000e+00 +1.9916632481e+03 1.9916632481e+03 0.0000000000e+00 0.0000e+00 -1.0000e+00
       -2 -1    0    0    0  501 -0.0000000000e+00 -0.0000000000e+00 -1.5213337046e+03 1.5213337046e+03 0.0000000000e+00 0.0000e+00 1.0000e+00
      -13  1    1    2    0    0 -1.3362392938e+03 -8.6939360641e+02 -4.7018733886e+02 1.6620640260e+03 0.0000000000e+00 0.0000e+00 1.0000e+00
       13  1    1    2    0    0 +1.3362392938e+03 +8.6939360641e+02 +9.4051688237e+02 1.8509329267e+03 0.0000000000e+00 0.0000e+00 -1.0000e+00
<mgrwt>
<rscale>  0 0.34813701E+04</rscale>
<asrwt>0</asrwt>
<pdfrwt beam="1">  1        2 0.30640973E+00 0.34813701E+04</pdfrwt>
<pdfrwt beam="2">  1       -2 0.23405134E+00 0.34813701E+04</pdfrwt>
<totfact> 0.47296321E-01</totfact>
</mgrwt>
<rwgt>
<wgt id='morphing_basis_vector_1'> +4.0111318e-05 </wgt>
<wgt id='morphing_basis_vector_2'> +2.7780492e-05 </wgt>
<wgt id='morphing_basis_vector_3'> +4.4040365e-05 </wgt>
<wgt id='morphing_basis_vector_4'> +3.0675206e-05 </wgt>
<wgt id='morphing_basis_vector_5'> +4.9821086e-05 </wgt>
</rwgt>
</event>
<event>
 4      1 +1.9882500e-09 3.35987700e+03 7.81860800e-03 7.66745000e-02
        2 -1    0    0  501    0 +0.0000000000e+00 +0.0000000000e+00 +2.2098285382e+03 2.2098285382e+03 0.0000000000e+00 0.0000e+00 1.0000e+00
       -2 -1    0    0    0  501 -0.0000000000e+00 -0.0000000000e+00 -1.2771094908e+03 1.2771094908e+03 0.0000000000e+00 0.0000e+00 -1.0000e+00
      -13  1    1    2    0    0 +3.1326310308e+02 +9.7219672296e+02 +1.8505496976e+03 2.1137252478e+03 0.0000000000e+00 0.0000e+00 1.0000e+00
       13  1    1    2    0    0 -3.1326310308e+02 -9.7219672296e+02 -9.1783065023e+02 1.3732127812e+03 0.0000000000e+00 0.0000e+00 -1.0000e+00
<mgrwt>
<rscale>  0 0.33598768E+04</rscale>
<asrwt>0</asrwt>
<pdfrwt beam="1">  1        2 0.33997362E+00 0.33598768E+04</pdfrwt>
<pdfrwt beam="2">  1       -2 0.19647838E+00 0.33598768E+04</pdfrwt>
<totfact> 0.66672830E-01</totfact>
</mgrwt>
<rwgt>
<wgt id='morphing_basis_vector_1'> +4.6029043e-05 </wgt>
<wgt id='morphing_basis_vector_2'> +5.7054993e-05 </wgt>
<wgt id='morphing_basis_vector_3'> +5.5935922e-05 </wgt>
<wgt id='morphing_basis_vector_4'> +3.1049170e-06 </wgt>
<wgt id='morphing_basis_vector_5'> +4.1238216e-05 </wgt>
</rwgt>
</event>
<event>
 4      1 +1.9882500e-09 3.37829300e+03 7.81860800e-03 7.66341100e-02
        2 -1    0    0  501    0 +0.0000000000e+00 +0.0000000000e+00 +1.9206854136e+03 1.9206854136e+03 0.0000000000e+00 0.0000e+00 -1.0000e+00
       -2 -1    0    0    0  501 -0.0000000000e+00 -0.0000000000e+00 -1.4855200562e+03 1.4855200562e+03 0.0000000000e+00 0.0000e+00 1.0000e+00
      -13  1    1    2    0    0 -1.4152308913e+03 +5.3897128155e+02 -5.3682935098e+02 1.6067215907e+03 0.0000000000e+00 0.0000e+00 1.0000e+00
       13  1    1    2    0    0 +1.4152308913e+03 -5.3897128155e+02 +9.7199470831e+02 1.7994838791e+03 0.0000000000e+00 0.0000e+00 -1.0000e+00
<mgrwt>
<rscale>  0 0.33782935E+04</rscale>
<asrwt>0</asrwt>
<pdfrwt beam="1">  1        2 0.29549006E+00 0.33782935E+04</pdfrwt>
<pdfrwt beam="2">  1       -2 0.22854155E+00 0.33782935E+04</pdfrwt>
<totfact> 0.57150850E-01</totfact>
</mgrwt>
<rwgt>
<wgt id='morphing_basis_vector_1'> +3.5551146e-05 </wgt>
<wgt id='morphing_basis_vector_2'> +2.4506099e-05 </wgt>
<wgt id='morphing_basis_vector_3'> +3.8979860e-05 </wgt>
<wgt id='morphing_basis_vector_4'> +2.7276097e-05 </wgt>
<wgt id='morphing_basis_vector_5'> +4.4149760e-05 </wgt>
</rwgt>
</event>
<event>
 4      1 +1.9882500e-09 3.28157000e+03 7.81860800e-03 7.68492800e-02
        2 -1    0    0  501    0 +0.0000000000e+00 +0.0000000000e+00 +1.8548051287e+03 1.8548051287e+03 0.0000000000e+00 0.0000e+00 -1.0000e+00
       -2 -1    0    0    0  501 -0.0000000000e+00 -0.0000000000e+00 -1.4514598589e+03 1.4514598589e+03 0.0000000000e+00 0.0000e+00 1.0000e+00
      -13  1    1    2    0    0 -4.0868813173e+02 +5.3537572858e+02 -1.3057557542e+03 1.4692349197e+03 0.0000000000e+00 0.0000e+00 1.0000e+00
       13  1    1    2    0    0 +4.0868813173e+02 -5.3537572858e+02 +1.7091010240e+03 1.8370300678e+03 0.0000000000e+00 0.0000e+00 -1.0000e+00
<mgrwt>
<rscale>  0 0.32815699E+04</rscale>
<asrwt>0</asrwt>
<pdfrwt beam="1">  1        2 0.28535464E+00 0.32815699E+04</pdfrwt>
<pdfrwt beam="2">  1       -2 0.22330152E+00 0.32815699E+04</pdfrwt>
<totfact> 0.68286721E-01</totfact>
</mgrwt>
<rwgt>
<wgt id='morphing_basis_vector_1'> +3.1492771e-05 </wgt>
<wgt id='morphing_basis_vector_2'> +2.1279387e-05 </wgt>
<wgt id='morphing_basis_vector_3'> +3.4412118e-05 </wgt>
<wgt id='morphing_basis_vector_4'> +2.4653016e-05 </wgt>
<wgt id='morphing_basis_vector_5'> +3.9305979e-05 </wgt>
</rwgt>
</event>
<event>
 4      1 +1.9882500e-09 3.47333200e+03 7.81860800e-03 7.64297800e-02
        2 -1    0    0  501    0 +0.0000000000e+00 +0.0000000000e+00 +3.2572822690e+03 3.2572822690e+03 0.0000000000e+00 0.0000e+00 1.0000e+00
       -2 -1    0    0    0  501 -0.0000000000e+00 -0.0000000000e+00 -9.2592810912e+02 9.2592810912e+02 0.0000000000e+00 0.0000e+00 -1.0000e+00
      -13  1    1    2    0    0 -7.7397620277e+02 +5.4191423377e+02 +2.9206440927e+03 3.0696697079e+03 0.0000000000e+00 0.0000e+00 1.0000e+00
       13  1    1    2    0    0 +7.7397620277e+02 -5.4191423377e+02 -5.8928993286e+02 1.1135406702e+03 0.0000000000e+00 0.0000e+00 -1.0000e+00
<mgrwt>
<rscale>  0 0.34733322E+04</rscale>
<asrwt>0</asrwt>
<pdfrwt beam="1">  1        2 0.50112034E+00 0.34733322E+04</pdfrwt>
<pdfrwt beam="2">  1       -2 0.14245048E+00 0.34733322E+04</pdfrwt>
<totfact> 0.38894661E-01</totfact>
</mgrwt>
<rwgt>
<wgt id='morphing_basis_vector_1'> +5.3134914e-05 </wgt>
<wgt id='morphing_basis_vector_2'> +6.6917080e-05 </wgt>
<wgt id='morphing_basis_vector_3'> +6.4898093e-05 </wgt>
<wgt id='morphing_basis_vector_4'> +2.2547163e-06 </wgt>
<wgt id='morphing_basis_vector_5'> +4.7028724e-05 </wgt>
</rwgt>
</event>
<event>
 4      1 +1.9882500e-09 3.37088600e+03 7.81860800e-03 7.66503200e-02
        2 -1    0    0  501    0 +0.0000000000e+00 +0.0000000000e+00 +2.5078331406e+03 2.5078331406e+03 0.0000000000e+00 0.0000e+00 -1.0000e+00
       -2 -1    0    0    0  501 -0.0000000000e+00 -0.0000000000e+00 -1.1327381451e+03 1.1327381451e+03 0.0000000000e+00 0.0000e+00 1.0000e+00
      -13  1    1    2    0    0 -7.6780246706e+02 +9.7245188936e+02 -5.4646544365e+02 1.3541815929e+03 0.0000000000e+00 0.0000e+00 1.0000e+00
       13  1    1    2    0    0 +7.6780246706e+02 -9.7245188936e+02 +1.9215604392e+03 2.2863896927e+03 0.0000000000e+00 0.0000e+00 -1.0000e+00
<mgrwt>
<rscale>  0 0.33708861E+04</rscale>
<asrwt>0</asrwt>
<pdfrwt beam="1">  1        2 0.38582048E+00 0.33708861E+04</pdfrwt>
<pdfrwt beam="2">  1       -2 0.17426741E+00 0.33708861E+04</pdfrwt>
<totfact> 0.65474323E-01</totfact>
</mgrwt>
<rwgt>
<wgt id='morphing_basis_vector_1'> +3.5085483e-05 </wgt>
<wgt id='morphing_basis_vector_2'> +2.3830242e-05 </wgt>
<wgt id='morphing_basis_vector_3'> +3.8390406e-05 </wgt>
<wgt id='morphing_basis_vector_4'> +2.7365616e-05 </wgt>
<wgt id='morphing_basis_vector_5'> +4.3788395e-05 </wgt>
</rwgt>
</event>
<event>
 4      1 +1.9882500e-09 3.51384200e+03 7.81860800e-03 7.63447200e-02
        2 -1    0    0  501    0 +0.0000000000e+00 +0.0000000000e+00 +2.2289149221e+03 2.2289149221e+03 0.0000000000e+00 0.0000e+00 -1.0000e+00
       -2 -1    0    0    0  501 -0.0000000000e+00 -0.0000000000e+00 -1.3848764570e+03 1.3848764570e+03 0.0000000000e+00 0.0000e+00 1.0000e+00
      -13  1    1    2    0    0 -1.0636043145e+02 +1.4474752800e+03 -5.9623140033e+02 1.5690726912e+03 0.0000000000e+00 0.0000e+00 1.0000e+00
       13  1    1    2    0    0 +1.0636043145e+02 -1.4474752800e+03 +1.4402698654e+03 2.0447186879e+03 0.0000000000e+00 0.0000e+00 -1.0000e+00
<mgrwt>
<rscale>  0 0.35138422E+04</rscale>
<asrwt>0</asrwt>
<pdfrwt beam="1">  1        2 0.34290999E+00 0.35138422E+04</pdfrwt>
<pdfrwt beam="2">  1       -2 0.21305792E+00 0.35138422E+04</pdfrwt>
<totfact> 0.48671946E-01</totfact>
</mgrwt>
<rwgt>
<wgt id='morphing_basis_vector_1'> +4.1447535e-05 </wgt>
<wgt id='morphing_basis_vector_2'> +2.8325387e-05 </wgt>
<wgt id='morphing_basis_vector_3'> +4.5434215e-05 </wgt>
<wgt id='morphing_basis_vector_4'> +3.2202916e-05 </wgt>
<wgt id='morphing_basis_vector_5'> +5.1748334e-05 </wgt>
</rwgt>
</event>
<event>
 4      1 +1.9882500e-09 3.22318000e+03 7.81860800e-03 7.69829100e-02
        2 -1    0    0  501    0 +0.0000000000e+00 +0.0000000000e+00 +2.3550766178e+03 2.3550766178e+03 0.0000000000e+00 0.0000e+00 -1.0000e+00
       -2 -1    0    0    0  501 -0.0000000000e+00 -0.0000000000e+00 -1.1028186574e+03 1.1028186574e+03 0.0000000000e+00 0.0000e+00 1.0000e+00
      -13  1    1    2    0    0 -1.0066531444e+03 +1.2101982743e+03 +2.5559080412e+02 1.5947592531e+03 0.0000000000e+00 0.0000e+00 1.0000e+00
       13  1    1    2    0    0 +1.0066531444e+03 -1.2101982743e+03 +9.9666715632e+02 1.8631360221e+03 0.0000000000e+00 0.0000e+00 -1.0000e+00
<mgrwt>
<rscale>  0 0.32231801E+04</rscale>
<asrwt>0</asrwt>
<pdfrwt beam="1">  1        2 0.36231948E+00 0.32231801E+04</pdfrwt>
<pdfrwt beam="2">  1       -2 0.16966441E+00 0.32231801E+04</pdfrwt>
<totfact> 0.88597438E-01</totfact>
</mgrwt>
<rwgt>
<wgt id='morphing_basis_vector_1'> +2.9802836e-05 </wgt>
<wgt id='morphing_basis_vector_2'> +2.1210557e-05 </wgt>
<wgt id='morphing_basis_vector_3'> +3.2779651e-05 </wgt>
<wgt id='morphing_basis_vector_4'> +2.1936507e-05 </wgt>
<wgt id='morphing_basis_vector_5'> +3.6480258e-05 </wgt>
</rwgt>
</event>
<event>
 4      1 +1.9882500e-09 3.50368500e+03 7.81860800e-03 7.63659400e-02
        2 -1    0    0  501    0 +0.0000000000e+00 +0.0000000000e+00 +2.8370369876e+03 2.8370369876e+03 0.0000000000e+00 0.0000e+00 -1.0000e+00
       -2 -1    0    0    0  501 -0.0000000000e+00 -0.0000000000e+00 -1.0817456137e+03 1.0817456137e+03 0.0000000000e+00 0.0000e+00 1.0000e+00
      -13  1    1    2    0    0 +1.3220792119e+02 -7.3047575530e+02 -8.9713009771e+02 1.1644381374e+03 0.0000000000e+00 0.0000e+00 1.0000e+00
       13  1    1    2    0    0 -1.3220792119e+02 +7.3047575530e+02 +2.6524214715e+03 2.7543444639e+03 0.0000000000e+00 0.0000e+00 -1.0000e+00
<mgrwt>
<rscale>  0 0.35036851E+04</rscale>
<asrwt>0</asrwt>
<pdfrwt beam="1">  1        2 0.43646723E+00 0.35036851E+04</pdfrwt>
<pdfrwt beam="2">  1       -2 0.16642240E+00 0.35036851E+04</pdfrwt>
<totfact> 0.46789683E-01</totfact>
</mgrwt>
<rwgt>
<wgt id='morphing_basis_vector_1'> +4.0848828e-05 </wgt>
<wgt id='morphing_basis_vector_2'> +2.7633350e-05 </wgt>
<wgt id='morphing_basis_vector_3'> +4.4713206e-05 </wgt>
<wgt id='morphing_basis_vector_4'> +3.2092015e-05 </wgt>
<wgt id='morphing_basis_vector_5'> +5.1170489e-05 </wgt>
</rwgt>
</event>
<event>
 4      1 +1.9882500e-09 3.24803600e+03 7.81860800e-03 7.69256800e-02
        2 -1    0    0  501    0 +0.0000000000e+00 +0.0000000000e+00 +1.5476252752e+03 1.5476252752e+03 0.0000000000e+00 0.0000e+00 -1.0000e+00
       -2 -1    0    0    0  501 -0.0000000000e+00 -0.0000000000e+00 -1.7041814021e+03 1.7041814021e+03 0.0000000000e+00 0.0000e+00 1.0000e+00
      -13  1    1    2    0    0 +1.0199544436e+03 -3.7968192726e+02 -1.2850690180e+03 1.6840035077e+03 0.0000000000e+00 0.0000e+00 1.0000e+00
       13  1    1    2    0    0 -1.0199544436e+03 +3.7968192726e+02 +1.1285128911e+03 1.5678031695e+03 0.0000000000e+00 0.0000e+00 -1.0000e+00
<mgrwt>
<rscale>  0 0.32480358E+04</rscale>
<asrwt>0</asrwt>
<pdfrwt beam="1">  1        2 0.23809620E+00 0.32480358E+04</pdfrwt>
<pdfrwt beam="2">  1       -2 0.26218175E+00 0.32480358E+04</pdfrwt>
<totfact> 0.54468662E-01</totfact>
</mgrwt>
<rwgt>
<wgt id='morphing_basis_vector_1'> +3.0258925e-05 </wgt>
<wgt id='morphing_basis_vector_2'> +2.0496944e-05 </wgt>
<wgt id='morphing_basis_vector_3'> +3.3066028e-05 </wgt>
<wgt id='morphing_basis_vector_4'> +2.3602693e-05 </wgt>
<wgt id='morphing_basis_vector_5'> +3.7708006e-05 </wgt>
</rwgt>
</event>
<event>
 4      1 +1.9882500e-09 3.24097400e+03 7.81860800e-03 7.69418900e-02
        2 -1    0    0  501    0 +0.0000000000e+00 +0.0000000000e+00 +2.3728104602e+03 2.3728104602e+03 0.0000000000e+00 0.0000e+00 1.0000e+00
       -2 -1    0    0    0  501 -0.0000000000e+00 -0.0000000000e+00 -1.1066951124e+03 1.1066951124e+03 0.0000000000e+00 0.0000e+00 -1.0000e+00
      -13  1    1    2    0    0 +1.0864518162e+01 +1.1297431538e+03 -6.1413892734e+02 1.2859254463e+03 0.0000000000e+00 0.0000e+00 -1.0000e+00
       13  1    1    2    0    0 -1.0864518162e+01 -1.1297431538e+03 +1.8802542751e+03 2.1935801263e+03 0.0000000000e+00 0.0000e+00 1.0000e+00
<mgrwt>
<rscale>  0 0.32409738E+04</rscale>
<asrwt>0</asrwt>
<pdfrwt beam="1">  1        2 0.36504776E+00 0.32409738E+04</pdfrwt>
<pdfrwt beam="2">  1       -2 0.17026079E+00 0.32409738E+04</pdfrwt>
<totfact> 0.85457433E-01</totfact>
</mgrwt>
<rwgt>
<wgt id='morphing_basis_vector_1'> +3.0005095e-05 </wgt>
<wgt id='morphing_basis_vector_2'> +2.0338790e-05 </wgt>
<wgt id='morphing_basis_vector_3'> +3.2789713e-05 </wgt>
<wgt id='morphing_basis_vector_4'> +2.3383094e-05 </wgt>
<wgt id='morphing_basis_vector_5'> +3.7377551e-05 </wgt>
</rwgt>
</event>
<event>
 4      1 +1.9882500e-09 3.30282800e+03 7.81860800e-03 7.68013400e-02
        2 -1    0    0  501    0 +0.0000000000e+00 +0.0000000000e+00 +1.5507862464e+03 1.5507862464e+03 0.0000000000e+00 0.0000e+00 1.0000e+00
       -2 -1    0    0    0  501 -0.0000000000e+00 -0.0000000000e+00 -1.7585711874e+03 1.7585711874e+03 0.0000000000e+00 0.0000e+00 -1.0000e+00
      -13  1    1    2    0    0 +9.5949123760e+02 -9.1103487851e+02 -1.0940566370e+03 1.7168482489e+03 0.0000000000e+00 0.0000e+00 -1.0000e+00
       13  1    1    2    0    0 -9.5949123760e+02 +9.1103487851e+02 +8.8627169601e+02 1.5925091849e+03 0.0000000000e+00 0.0000e+00 1.0000e+00
<mgrwt>
<rscale>  0 0.33028279E+04</rscale>
<asrwt>0</asrwt>
<pdfrwt beam="1">  1        2 0.23858250E+00 0.33028279E+04</pdfrwt>
<pdfrwt beam="2">  1       -2 0.27054941E+00 0.33028279E+04</pdfrwt>
<totfact> 0.47318186E-01</totfact>
</mgrwt>
<rwgt>
<wgt id='morphing_basis_vector_1'> +3.2390294e-05 </wgt>
<wgt id='morphing_basis_vector_2'> +2.2069348e-05 </wgt>
<wgt id='morphing_basis_vector_3'> +3.5438197e-05 </wgt>
<wgt id='morphing_basis_vector_4'> +2.5135497e-05 </wgt>
<wgt id='morphing_basis_vector_5'> +4.0328249e-05 </wgt>
</rwgt>
</event>
<event>
 4      1 +1.9882500e-09 3.68781000e+03 7.81860800e-03 7.59923500e-02
        2 -1    0    0  501    0 +0.0000000000e+00 +0.0000000000e+00 +2.0121451363e+03 2.0121451363e+03 0.0000000000e+00 0.0000e+00 -1.0000e+00
       -2 -1    0    0    0  501 -0.0000000000e+00 -0.0000000000e+00 -1.6897321096e+03 1.6897321096e+03 0.0000000000e+00 0.0000e+00 1.0000e+00
      -13  1    1    2    0    0 +3.4774666778e+02 -1.6834097564e+03 -5.0856424602e+02 1.7926052954e+03 0.0000000000e+00 0.0000e+00 1.0000e+00
       13  1    1    2    0    0 -3.4774666778e+02 +1.6834097564e+03 +8.3097727267e+02 1.9092719504e+03 0.0000000000e+00 0.0000e+00 -1.0000e+00
<mgrwt>
<rscale>  0 0.36878103E+04</rscale>
<asrwt>0</asrwt>
<pdfrwt beam="1">  1        2 0.30956079E+00 0.36878103E+04</pdfrwt>
<pdfrwt beam="2">  1       -2 0.25995879E+00 0.36878103E+04</pdfrwt>
<totfact> 0.29949751E-01</totfact>
</mgrwt>
<rwgt>
<wgt id='morphing_basis_vector_1'> +5.0504467e-05 </wgt>
<wgt id='morphing_basis_vector_2'> +3.5172348e-05 </wgt>
<wgt id='morphing_basis_vector_3'> +5.5565517e-05 </wgt>
<wgt id='morphing_basis_vector_4'> +3.8524284e-05 </wgt>
<wgt id='morphing_basis_vector_5'> +6.2808366e-05 </wgt>
</rwgt>
</event>
<event>
 4      1 +1.9882500e-09 3.33785600e+03 7.81860800e-03 7.67231500e-02
        2 -1    0    0  501    0 +0.0000000000e+00 +0.0000000000e+00 +2.8085467168e+03 2.8085467168e+03 0.0000000000e+00 0.0000e+00 -1.0000e+00
       -2 -1    0    0    0  501 -0.0000000000e+00 -0.0000000000e+00 -9.9172997962e+02 9.9172997962e+02 0.0000000000e+00 0.0000e+00 1.0000e+00
      -13  1    1    2    0    0 -3.7122350373e+02 +1.1215970777e+03 -4.3368311808e+02 1.2585181530e+03 0.0000000000e+00 0.0000e+00 1.0000e+00
       13  1    1    2    0    0 +3.7122350373e+02 -1.1215970777e+03 +2.2504998553e+03 2.5417585434e+03 0.0000000000e+00 0.0000e+00 -1.0000e+00
<mgrwt>
<rscale>  0 0.33378556E+04</rscale>
<asrwt>0</asrwt>
<pdfrwt beam="1">  1        2 0.43208411E+00 0.33378556E+04</pdfrwt>
<pdfrwt beam="2">  1       -2 0.15257384E+00 0.33378556E+04</pdfrwt>
<totfact> 0.63859999E-01</totfact>
</mgrwt>
<rwgt>
<wgt id='morphing_basis_vector_1'> +3.3730199e-05 </wgt>
<wgt id='morphing_basis_vector_2'> +2.2883516e-05 </wgt>
<wgt id='morphing_basis_vector_3'> +3.6892777e-05 </wgt>
<wgt id='morphing_basis_vector_4'> +2.6322195e-05 </wgt>
<wgt id='morphing_basis_vector_5'> +4.2087153e-05 </wgt>
</rwgt>
</event>
<event>
 4      1 +1.9882500e-09 3.25074000e+03 7.81860800e-03 7.69194800e-02
        2 -1    0    0  501    0 +0.0000000000e+00 +0.0000000000e+00 +2.1147127039e+03 2.1147127039e+03 0.0000000000e+00 0.0000e+00 -1.0000e+00
       -2 -1    0    0    0  501 -0.0000000000e+00 -0.0000000000e+00 -1.2492606076e+03 1.2492606076e+03 0.0000000000e+00 0.0000e+00 1.0000e+00
      -13  1    1    2    0    0 +8.6525186101e+02 -1.0667144905e+03 -4.6661880105e+02 1.4506114893e+03 0.0000000000e+00 0.0000e+00 1.0000e+00
       13  1    1    2    0    0 -8.6525186101e+02 +1.0667144905e+03 +1.3320708973e+03 1.9133618223e+03 0.0000000000e+00 0.0000e+00 -1.0000e+00
<mgrwt>
<rscale>  0 0.32507398E+04</rscale>
<asrwt>0</asrwt>
<pdfrwt beam="1">  1        2 0.32534042E+00 0.32507398E+04</pdfrwt>
<pdfrwt beam="2">  1       -2 0.19219394E+00 0.32507398E+04</pdfrwt>
<totfact> 0.82010220E-01</totfact>
</mgrwt>
<rwgt>
<wgt id='morphing_basis_vector_1'> +3.0444599e-05 </wgt>
<wgt id='morphing_basis_vector_2'> +2.0816922e-05 </wgt>
<wgt id='morphing_basis_vector_3'> +3.3311285e-05 </wgt>
<wgt id='morphing_basis_vector_4'> +2.3502843e-05 </wgt>
<wgt id='morphing_basis_vector_5'> +3.7819888e-05 </wgt>
</rwgt>
</event>
<event>
 4      1 +1.9882500e-09 3.49401400e+03 7.81860800e-03 7.63862100e-02
        2 -1    0    0  501    0 +0.0000000000e+00 +0.0000000000e+00 +4.7287777129e+03 4.7287777129e+03 0.0000000000e+00 0.0000e+00 1.0000e+00
       -2 -1    0    0    0  501 -0.0000000000e+00 -0.0000000000e+00 -6.4541710987e+02 6.4541710987e+02 0.0000000000e+00 0.0000e+00 -1.0000e+00
      -13  1    1    2    0    0 -2.4605184245e+02 -1.0969223249e+03 -1.5173008904e+01 1.1242821338e+03 0.0000000000e+00 0.0000e+00 -1.0000e+00
       13  1    1    2    0    0 +2.4605184245e+02 +1.0969223249e+03 +4.0985336119e+03 4.2499126890e+03 0.0000000000e+00 0.0000e+00 1.0000e+00
<mgrwt>
<rscale>  0 0.34940143E+04</rscale>
<asrwt>0</asrwt>
<pdfrwt beam="1">  1        2 0.72750424E+00 0.34940143E+04</pdfrwt>
<pdfrwt beam="2">  1       -2 0.99294943E-01 0.34940143E+04</pdfrwt>
<totfact> 0.51659169E-02</totfact>
</mgrwt>
<rwgt>
<wgt id='morphing_basis_vector_1'> +4.0427692e-05 </wgt>
<wgt id='morphing_basis_vector_2'> +2.7403898e-05 </wgt>
<wgt id='morphing_basis_vector_3'> +4.4261546e-05 </wgt>
<wgt id='morphing_basis_vector_4'> +3.1684369e-05 </wgt>
<wgt id='morphing_basis_vector_5'> +5.0599875e-05 </wgt>
</rwgt>
</event>
<event>
 4      1 +1.9882500e-09 3.36144700e+03 7.81860800e-03 7.66710500e-02
        2 -1    0    0  501    0 +0.0000000000e+00 +0.0000000000e+00 +2.9337100472e+03 2.9337100472e+03 0.0000000000e+00 0.0000e+00 -1.0000e+00
       -2 -1    0    0    0  501 -0.0000000000e+00 -0.0000000000e+00 -9.6288734076e+02 9.6288734076e+02 0.0000000000e+00 0.0000e+00 1.0000e+00
      -13  1    1    2    0    0 -1.5237754006e+03 +2.7749857032e+02 +2.2887283719e+02 1.5656563172e+03 0.0000000000e+00 0.0000e+00 1.0000e+00
       13  1    1    2    0    0 +1.5237754006e+03 -2.7749857032e+02 +1.7419498692e+03 2.3309410707e+03 0.0000000000e+00 0.0000e+00 -1.0000e+00
<mgrwt>
<rscale>  0 0.33614475E+04</rscale>
<asrwt>0</asrwt>
<pdfrwt beam="1">  1        2 0.45134000E+00 0.33614475E+04</pdfrwt>
<pdfrwt beam="2">  1       -2 0.14813652E+00 0.33614475E+04</pdfrwt>
<totfact> 0.57736199E-01</totfact>
</mgrwt>
<rwgt>
<wgt id='morphing_basis_vector_1'> +3.4913752e-05 </wgt>
<wgt id='morphing_basis_vector_2'> +2.4203084e-05 </wgt>
<wgt id='morphing_basis_vector_3'> +3.8305677e-05 </wgt>
<wgt id='morphing_basis_vector_4'> +2.6603652e-05 </wgt>
<wgt id='morphing_basis_vector_5'> +4.3258998e-05 </wgt>
</rwgt>
</event>
<event>
 4      1 +1.9882500e-09 3.79153700e+03 7.81860800e-03 7.57915900e-02
        2 -1    0    0  501    0 +0.0000000000e+00 +0.0000000000e+00 +2.3197853577e+03 2.3197853577e+03 0.0000000000e+00 0.0000e+00 -1.0000e+00
       -2 -1    0    0    0  501 -0.0000000000e+00 -0.0000000000e+00 -1.5492547700e+03 1.5492547700e+03 0.0000000000e+00 0.0000e+00 1.0000e+00
      -13  1    1    2    0    0 +4.2140877409e+02 +9.2834645740e+02 -1.2456938510e+03 1.6097098094e+03 0.0000000000e+00 0.0000e+00 1.0000e+00
       13  1    1    2    0    0 -4.2140877409e+02 -9.2834645740e+02 +2.0162244387e+03 2.2593303183e+03 0.0000000000e+00 0.0000e+00 -1.0000e+00
<mgrwt>
<rscale>  0 0.37915372E+04</rscale>
<asrwt>0</asrwt>
<pdfrwt beam="1">  1        2 0.35689006E+00 0.37915372E+04</pdfrwt>
<pdfrwt beam="2">  1       -2 0.23834689E+00 0.37915372E+04</pdfrwt>
<totfact> 0.27951841E-01</totfact>
</mgrwt>
<rwgt>
<wgt id='morphing_basis_vector_1'> +5.5921506e-05 </wgt>
<wgt id='morphing_basis_vector_2'> +3.7898913e-05 </wgt>
<wgt id='morphing_basis_vector_3'> +6.1328412e-05 </wgt>
<wgt id='morphing_basis_vector_4'> +4.4068878e-05 </wgt>
<wgt id='morphing_basis_vector_5'> +7.0305694e-05 </wgt>
</rwgt>
</event>
<event>
 4      1 +1.9882500e-09 3.44250500e+03 7.81860800e-03 7.64953100e-02
        2 -1    0    0  501    0 +0.0000000000e+00 +0.0000000000e+00 +1.8978347606e+03 1.8978347606e+03 0.0000000000e+00 0.0000e+00 -1.0000e+00
       -2 -1    0    0    0  501 -0.0000000000e+00 -0.0000000000e+00 -1.5611005592e+03 1.5611005592e+03 0.0000000000e+00 0.0000e+00 1.0000e+00
      -13  1    1    2    0    0 +5.8041097696e+02 +4.8580153239e+02 -1.3849187676e+03 1.5782522054e+03 0.0000000000e+00 0.0000e+00 1.0000e+00
       13  1    1    2    0    0 -5.8041097696e+02 -4.8580153239e+02 +1.7216529691e+03 1.8806831144e+03 0.0000000000e+00 0.0000e+00 -1.0000e+00
<mgrwt>
<rscale>  0 0.34425054E+04</rscale>
<asrwt>0</asrwt>
<pdfrwt beam="1">  1        2 0.29197458E+00 0.34425054E+04</pdfrwt>
<pdfrwt beam="2">  1       -2 0.24016932E+00 0.34425054E+04</pdfrwt>
<totfact> 0.48547405E-01</totfact>
</mgrwt>
<rwgt>
<wgt id='morphing_basis_vector_1'> +3.8088455e-05 </wgt>
<wgt id='morphing_basis_vector_2'> +2.5760144e-05 </wgt>
<wgt id='morphing_basis_vector_3'> +4.1673494e-05 </wgt>
<wgt id='morphing_basis_vector_4'> +2.9893567e-05 </wgt>
<wgt id='morphing_basis_vector_5'> +4.7666680e-05 </wgt>
</rwgt>
</event>
<event>
 4      1 +1.9882500e-09 3.23717000e+03 7.81860800e-03 7.69506300e-02
        2 -1    0    0  501    0 +0.0000000000e+00 +0.0000000000e+00 +2.5609637470e+03 2.5609637470e+03 0.0000000000e+00 0.0000e+00 -1.0000e+00
       -2 -1    0    0    0  501 -0.0000000000e+00 -0.0000000000e+00 -1.0229808563e+03 1.0229808563e+03 0.0000000000e+00 0.0000e+00 1.0000e+00
      -13  1    1    2    0    0 +9.8405057485e+02 -3.7098235037e+02 -5.9318972412e+02 1.2074176937e+03 0.0000000000e+00 0.0000e+00 1.0000e+00
       13  1    1    2    0    0 -9.8405057485e+02 +3.7098235037e+02 +2.1311726148e+03 2.3765269097e+03 0.0000000000e+00 0.0000e+00 -1.0000e+00
<mgrwt>
<rscale>  0 0.32371697E+04</rscale>
<asrwt>0</asrwt>
<pdfrwt beam="1">  1        2 0.39399442E+00 0.32371697E+04</pdfrwt>
<pdfrwt beam="2">  1       -2 0.15738167E+00 0.32371697E+04</pdfrwt>
<totfact> 0.83568532E-01</totfact>
</mgrwt>
<rwgt>
<wgt id='morphing_basis_vector_1'> +2.9855120e-05 </wgt>
<wgt id='morphing_basis_vector_2'> +2.0213031e-05 </wgt>
<wgt id='morphing_basis_vector_3'> +3.2619641e-05 </wgt>
<wgt id='morphing_basis_vector_4'> +2.3294549e-05 </wgt>
<wgt id='morphing_basis_vector_5'> +3.7202850e-05 </wgt>
</rwgt>
</event>
<event>
 4      1 +1.9882500e-09 3.34367200e+03 7.81860800e-03 7.67102700e-02
        2 -1    0    0  501    0 +0.0000000000e+00 +0.0000000000e+00 +4.5104250018e+03 4.5104250018e+03 0.0000000000e+00 0.0000e+00 -1.0000e+00
       -2 -1    0    0    0  501 -0.0000000000e+00 -0.0000000000e+00 -6.1968355465e+02 6.1968355465e+02 0.0000000000e+00 0.0000e+00 1.0000e+00
      -13  1    1    2    0    0 +1.0962477157e+03 -2.4094931791e+01 +9.0853510823e+00 1.0965501190e+03 0.0000000000e+00 0.0000e+00 1.0000e+00
       13  1    1    2    0    0 -1.0962477157e+03 +2.4094931791e+01 +3.8816560961e+03 4.0335584374e+03 0.0000000000e+00 0.0000e+00 -1.0000e+00
<mgrwt>
<rscale>  0 0.33436724E+04</rscale>
<asrwt>0</asrwt>
<pdfrwt beam="1">  1        2 0.69391152E+00 0.33436724E+04</pdfrwt>
<pdfrwt beam="2">  1       -2 0.95335934E-01 0.33436724E+04</pdfrwt>
<totfact> 0.99756568E-02</totfact>
</mgrwt>
<rwgt>
<wgt id='morphing_basis_vector_1'> +3.3950282e-05 </wgt>
<wgt id='morphing_basis_vector_2'> +2.3002013e-05 </wgt>
<wgt id='morphing_basis_vector_3'> +3.7128460e-05 </wgt>
<wgt id='morphing_basis_vector_4'> +2.6536627e-05 </wgt>
<wgt id='morphing_basis_vector_5'> +4.2385814e-05 </wgt>
</rwgt>
</event>
<event>
 4      1 +1.9882500e-09 3.84511500e+03 7.81860800e-03 7.56904500e-02
        2 -1    0    0  501    0 +0.0000000000e+00 +0.0000000000e+00 +3.8916631045e+03 3.8916631045e+03 0.0000000000e+00 0.0000e+00 -1.0000e+00
       -2 -1    0    0    0  501 -0.0000000000e+00 -0.0000000000e+00 -9.4978074953e+02 9.4978074953e+02 0.0000000000e+00 0.0000e+00 1.0000e+00
      -13  1    1    2    0    0 -2.1996994496e+00 -1.5116629959e+03 -2.4757174247e+01 1.5118673122e+03 0.0000000000e+00 0.0000e+00 1.0000e+00
       13  1    1    2    0    0 +2.1996994496e+00 +1.5116629959e+03 +2.9666395292e+03 3.3295765419e+03 0.0000000000e+00 0.0000e+00 -1.0000e+00
<mgrwt>
<rscale>  0 0.38451147E+04</rscale>
<asrwt>0</asrwt>
<pdfrwt beam="1">  1        2 0.59871739E+00 0.38451147E+04</pdfrwt>
<pdfrwt beam="2">  1       -2 0.14612012E+00 0.38451147E+04</pdfrwt>
<totfact> 0.11740849E-01</totfact>
</mgrwt>
<rwgt>
<wgt id='morphing_basis_vector_1'> +5.9247664e-05 </wgt>
<wgt id='morphing_basis_vector_2'> +4.0423886e-05 </wgt>
<wgt id='morphing_basis_vector_3'> +6.5053818e-05 </wgt>
<wgt id='morphing_basis_vector_4'> +4.6381365e-05 </wgt>
<wgt id='morphing_basis_vector_5'> +7.4366946e-05 </wgt>
</rwgt>
</event>
<event>
 4      1 +1.9882500e-09 3.26892200e+03 7.81860800e-03 7.68779800e-02
        2 -1    0    0  501    0 +0.0000000000e+00 +0.0000000000e+00 +1.2345637552e+03 1.2345637552e+03 0.0000000000e+00 0.0000e+00 -1.0000e+00
       -2 -1    0    0    0  501 -0.0000000000e+00 -0.0000000000e+00 -2.1638926927e+03 2.1638926927e+03 0.0000000000e+00 0.0000e+00 1.0000e+00
      -13  1    1    2    0    0 -1.2075061482e+03 +3.1108392195e+02 -1.5632392723e+03 1.9996402994e+03 0.0000000000e+00 0.0000e+00 1.0000e+00
       13  1    1    2    0    0 +1.2075061482e+03 -3.1108392195e+02 +6.3391033480e+02 1.3988161484e+03 0.0000000000e+00 0.0000e+00 -1.0000e+00
<mgrwt>
<rscale>  0 0.32689224E+04</rscale>
<asrwt>0</asrwt>
<pdfrwt beam="1">  1        2 0.18993289E+00 0.32689224E+04</pdfrwt>
<pdfrwt beam="2">  1       -2 0.33290656E+00 0.32689224E+04</pdfrwt>
<totfact> 0.27271206E-01</totfact>
</mgrwt>
<rwgt>
<wgt id='morphing_basis_vector_1'> +3.1069040e-05 </wgt>
<wgt id='morphing_basis_vector_2'> +2.1117023e-05 </wgt>
<wgt id='morphing_basis_vector_3'> +3.3972319e-05 </wgt>
<wgt id='morphing_basis_vector_4'> +2.4156601e-05 </wgt>
<wgt id='morphing_basis_vector_5'> +3.8689516e-05 </wgt>
</rwgt>
</event>
<event>
 4      1 +1.9882500e-09 3.59044300e+03 7.81860800e-03 7.61870500e-02
        2 -1    0    0  501    0 +0.0000000000e+00 +0.0000000000e+00 +2.8130462736e+03 2.8130462736e+03 0.0000000000e+00 0.0000e+00 -1.0000e+00
       -2 -1    0    0    0  501 -0.0000000000e+00 -0.0000000000e+00 -1.1456690914e+03 1.1456690914e+03 0.0000000000e+00 0.0000e+00 1.0000e+00
      -13  1    1    2    0    0 +1.2447678868e+03 -1.1565862853e+03 +1.9488142308e+02 1.7102975462e+03 0.0000000000e+00 0.0000e+00 1.0000e+00
       13  1    1    2    0    0 -1.2447678868e+03 +1.1565862853e+03 +1.4724957592e+03 2.2484178188e+03 0.0000000000e+00 0.0000e+00 -1.0000e+00
<mgrwt>
<rscale>  0 0.35904430E+04</rscale>
<asrwt>0</asrwt>
<pdfrwt beam="1">  1        2 0.43277635E+00 0.35904430E+04</pdfrwt>
<pdfrwt beam="2">  1       -2 0.17625678E+00 0.35904430E+04</pdfrwt>
<totfact> 0.40344957E-01</totfact>
</mgrwt>
<rwgt>
<wgt id='morphing_basis_vector_1'> +4.5482505e-05 </wgt>
<wgt id='morphing_basis_vector_2'> +3.1829552e-05 </wgt>
<wgt id='morphing_basis_vector_3'> +5.0045152e-05 </wgt>
<wgt id='morphing_basis_vector_4'> +3.4436180e-05 </wgt>
<wgt id='morphing_basis_vector_5'> +5.6384140e-05 </wgt>
</rwgt>
</event>
<event>
 4      1 +1.9882500e-09 3.75709400e+03 7.81860800e-03 7.58575200e-02
        2 -1    0    0  501    0 +0.0000000000e+00 +0.0000000000e+00 +1.3957739829e+03 1.3957739829e+03 0.0000000000e+00 0.0000e+00 -1.0000e+00
       -2 -1    0    0    0  501 -0.0000000000e+00 -0.0000000000e+00 -2.5283027018e+03 2.5283027018e+03 0.0000000000e+00 0.0000e+00 1.0000e+00
      -13  1    1    2    0    0 -3.7226893130e+02 +2.9410275700e+02 -2.4647010928e+03 2.5099466261e+03 0.0000000000e+00 0.0000e+00 1.0000e+00
       13  1    1    2    0    0 +3.7226893130e+02 -2.9410275700e+02 +1.3321723739e+03 1.4141300586e+03 0.0000000000e+00 0.0000e+00 -1.0000e+00
<mgrwt>
<rscale>  0 0.37570942E+04</rscale>
<asrwt>0</asrwt>
<pdfrwt beam="1">  1        2 0.21473446E+00 0.37570942E+04</pdfrwt>
<pdfrwt beam="2">  1       -2 0.38896964E+00 0.37570942E+04</pdfrwt>
<totfact> 0.91909171E-02</totfact>
</mgrwt>
<rwgt>
<wgt id='morphing_basis_vector_1'> +5.3913007e-05 </wgt>
<wgt id='morphing_basis_vector_2'> +3.6498384e-05 </wgt>
<wgt id='morphing_basis_vector_3'> +5.9106462e-05 </wgt>
<wgt id='morphing_basis_vector_4'> +4.2513169e-05 </wgt>
<wgt id='morphing_basis_vector_5'> +6.7774503e-05 </wgt>
</rwgt>
</event>
<event>
 4      1 +1.9882500e-09 3.61222500e+03 7.81860800e-03 7.61429500e-02
        2 -1    0    0  501    0 +0.0000000000e+00 +0.0000000000e+00 +1.2893450581e+03 1.2893450581e+03 0.0000000000e+00 0.0000e+00 1.0000e+00
       -2 -1    0    0    0  501 -0.0000000000e+00 -0.0000000000e+00 -2.5299990446e+03 2.5299990446e+03 0.0000000000e+00 0.0000e+00 -1.0000e+00
      -13  1    1    2    0    0 +1.5822032723e+03 +9.3565140882e+01 -1.5359602126e+03 2.2071011316e+03 0.0000000000e+00 0.0000e+00 -1.0000e+00
       13  1    1    2    0    0 -1.5822032723e+03 -9.3565140882e+01 +2.9530622619e+02 1.6122429711e+03 0.0000000000e+00 0.0000e+00 1.0000e+00
<mgrwt>
<rscale>  0 0.36122247E+04</rscale>
<asrwt>0</asrwt>
<pdfrwt beam="1">  1        2 0.19836078E+00 0.36122247E+04</pdfrwt>
<pdfrwt beam="2">  1       -2 0.38923062E+00 0.36122247E+04</pdfrwt>
<totfact> 0.10648995E-01</totfact>
</mgrwt>
<rwgt>
<wgt id='morphing_basis_vector_1'> +4.6339482e-05 </wgt>
<wgt id='morphing_basis_vector_2'> +3.1872506e-05 </wgt>
<wgt id='morphing_basis_vector_3'> +5.0872622e-05 </wgt>
<wgt id='morphing_basis_vector_4'> +3.5810262e-05 </wgt>
<wgt id='morphing_basis_vector_5'> +5.7817051e-05 </wgt>
</rwgt>
</event>
<event>
 4      1 +1.9882500e-09 3.72661100e+03 7.81860800e-03 7.59164700e-02
        2 -1    0    0  501    0 +0.0000000000e+00 +0.0000000000e+00 +2.9362454813e+03 2.9362454813e+03 0.0000000000e+00 0.0000e+00 -1.0000e+00
       -2 -1    0    0    0  501 -0.0000000000e+00 -0.0000000000e+00 -1.1824308812e+03 1.1824308812e+03 0.0000000000e+00 0.0000e+00 1.0000e+00
      -13  1    1    2    0    0 -1.6618904803e+03 +8.3848542534e+02 +9.6917424252e+02 2.0986272869e+03 0.0000000000e+00 0.0000e+00 -1.0000e+00
       13  1    1    2    0    0 +1.6618904803e+03 -8.3848542534e+02 +7.8464035762e+02 2.0200490756e+03 0.0000000000e+00 0.0000e+00 1.0000e+00
<mgrwt>
<rscale>  0 0.37266110E+04</rscale>
<asrwt>0</asrwt>
<pdfrwt beam="1">  1        2 0.45173007E+00 0.37266110E+04</pdfrwt>
<pdfrwt beam="2">  1       -2 0.18191244E+00 0.37266110E+04</pdfrwt>
<totfact> 0.30164533E-01</totfact>
</mgrwt>
<rwgt>
<wgt id='morphing_basis_vector_1'> +5.4446185e-05 </wgt>
<wgt id='morphing_basis_vector_2'> +4.1952137e-05 </wgt>
<wgt id='morphing_basis_vector_3'> +6.0807670e-05 </wgt>
<wgt id='morphing_basis_vector_4'> +3.6394496e-05 </wgt>
<wgt id='morphing_basis_vector_5'> +6.5194894e-05 </wgt>
</rwgt>
</event>
<event>
 4      1 +1.9882500e-09 3.31543400e+03 7.81860800e-03 7.67730900e-02
        2 -1    0    0  501    0 +0.0000000000e+00 +0.0000000000e+00 +2.6864952719e+03 2.6864952719e+03 0.0000000000e+00 0.0000e+00 1.0000e+00
       -2 -1    0    0    0  501 -0.0000000000e+00 -0.0000000000e+00 -1.0229038241e+03 1.0229038241e+03 0.0000000000e+00 0.0000e+00 -1.0000e+00
      -13  1    1    2    0    0 -1.0346931683e+02 +1.6125008681e+03 +4.1743462040e+02 1.6688668645e+03 0.0000000000e+00 0.0000e+00 1.0000e+00
       13  1    1    2    0    0 +1.0346931683e+02 -1.6125008681e+03 +1.2461568274e+03 2.0405322315e+03 0.0000000000e+00 0.0000e+00 -1.0000e+00
<mgrwt>
<rscale>  0 0.33154344E+04</rscale>
<asrwt>0</asrwt>
<pdfrwt beam="1">  1        2 0.41330696E+00 0.33154344E+04</pdfrwt>
<pdfrwt beam="2">  1       -2 0.15736982E+00 0.33154344E+04</pdfrwt>
<totfact> 0.69638283E-01</totfact>
</mgrwt>
<rwgt>
<wgt id='morphing_basis_vector_1'> +3.3316267e-05 </wgt>
<wgt id='morphing_basis_vector_2'> +2.3679514e-05 </wgt>
<wgt id='morphing_basis_vector_3'> +3.6665833e-05 </wgt>
<wgt id='morphing_basis_vector_4'> +2.4618096e-05 </wgt>
<wgt id='morphing_basis_vector_5'> +4.0877136e-05 </wgt>
</rwgt>
</event>
<event>
 4      1 +1.9882500e-09 3.52341800e+03 7.81860800e-03 7.63247800e-02
        2 -1    0    0  501    0 +0.0000000000e+00 +0.0000000000e+00 +1.1341327799e+03 1.1341327799e+03 0.0000000000e+00 0.0000e+00 -1.0000e+00
       -2 -1    0    0    0  501 -0.0000000000e+00 -0.0000000000e+00 -2.7365567940e+03 2.7365567940e+03 0.0000000000e+00 0.0000e+00 1.0000e+00
      -13  1    1    2    0    0 -1.1690259126e+03 -7.3226347234e+02 -2.0050199963e+03 2.4337083973e+03 0.0000000000e+00 0.0000e+00 1.0000e+00
       13  1    1    2    0    0 +1.1690259126e+03 +7.3226347234e+02 +4.0259598218e+02 1.4369811767e+03 0.0000000000e+00 0.0000e+00 -1.0000e+00
<mgrwt>
<rscale>  0 0.35234181E+04</rscale>
<asrwt>0</asrwt>
<pdfrwt beam="1">  1        2 0.17448197E+00 0.35234181E+04</pdfrwt>
<pdfrwt beam="2">  1       -2 0.42100873E+00 0.35234181E+04</pdfrwt>
<totfact> 0.81740322E-02</totfact>
</mgrwt>
<rwgt>
<wgt id='morphing_basis_vector_1'> +4.1858501e-05 </wgt>
<wgt id='morphing_basis_vector_2'> +2.8517869e-05 </wgt>
<wgt id='morphing_basis_vector_3'> +4.5868233e-05 </wgt>
<wgt id='morphing_basis_vector_4'> +3.2641040e-05 </wgt>
<wgt id='morphing_basis_vector_5'> +5.2325311e-05 </wgt>
</rwgt>
</event>
<event>
 4      1 +1.9882500e-09 3.28480000e+03 7.81860800e-03 7.68419800e-02
        2 -1    0    0  501    0 +0.0000000000e+00 +0.0000000000e+00 +1.4865661421e+03 1.4865661421e+03 0.0000000000e+00 0.0000e+00 -1.0000e+00
       -2 -1    0    0    0  501 -0.0000000000e+00 -0.0000000000e+00 -1.8145701075e+03 1.8145701075e+03 0.0000000000e+00 0.0000e+00 1.0000e+00
      -13  1    1    2    0    0 +2.1841558954e+02 +7.4851163258e+02 +1.2886982482e+03 1.5062264799e+03 0.0000000000e+00 0.0000e+00 1.0000e+00
       13  1    1    2    0    0 -2.1841558954e+02 -7.4851163258e+02 -1.6167022136e+03 1.7949097697e+03 0.0000000000e+00 0.0000e+00 -1.0000e+00
<mgrwt>
<rscale>  0 0.32848004E+04</rscale>
<asrwt>0</asrwt>
<pdfrwt beam="1">  1        2 0.22870248E+00 0.32848004E+04</pdfrwt>
<pdfrwt beam="2">  1       -2 0.27916463E+00 0.32848004E+04</pdfrwt>
<totfact> 0.44955874E-01</totfact>
</mgrwt>
<rwgt>
<wgt id='morphing_basis_vector_1'> +4.2915822e-05 </wgt>
<wgt id='morphing_basis_vector_2'> +5.4617907e-05 </wgt>
<wgt id='morphing_basis_vector_3'> +5.2401809e-05 </wgt>
<wgt id='morphing_basis_vector_4'> +1.0825455e-06 </wgt>
<wgt id='morphing_basis_vector_5'> +3.7506799e-05 </wgt>
</rwgt>
</event>
<event>
 4      1 +1.9882500e-09 3.54002600e+03 7.81860800e-03 7.62903600e-02
        2 -1    0    0  501    0 +0.0000000000e+00 +0.0000000000e+00 +2.0105066538e+03 2.0105066538e+03 0.0000000000e+00 0.0000e+00 -1.0000e+00
       -2 -1    0    0    0  501 -0.0000000000e+00 -0.0000000000e+00 -1.5582865716e+03 1.5582865716e+03 0.0000000000e+00 0.0000e+00 1.0000e+00
      -13  1    1    2    0    0 +4.7993388877e+02 -7.8599825764e+00 -1.4914210772e+03 1.5667594411e+03 0.0000000000e+00 0.0000e+00 1.0000e+00
       13  1    1    2    0    0 -4.7993388877e+02 +7.8599825764e+00 +1.9436411594e+03 2.0020337843e+03 0.0000000000e+00 0.0000e+00 -1.0000e+00
<mgrwt>
<rscale>  0 0.35400257E+04</rscale>
<asrwt>0</asrwt>
<pdfrwt beam="1">  1        2 0.30930872E+00 0.35400257E+04</pdfrwt>
<pdfrwt beam="2">  1       -2 0.23973640E+00 0.35400257E+04</pdfrwt>
<totfact> 0.41922712E-01</totfact>
</mgrwt>
<rwgt>
<wgt id='morphing_basis_vector_1'> +4.2554922e-05 </wgt>
<wgt id='morphing_basis_vector_2'> +2.8784028e-05 </wgt>
<wgt id='morphing_basis_vector_3'> +4.6590715e-05 </wgt>
<wgt id='morphing_basis_vector_4'> +3.3460551e-05 </wgt>
<wgt id='morphing_basis_vector_5'> +5.3341480e-05 </wgt>
</rwgt>
</event>
<event>
 4      1 +1.9882500e-09 3.40517500e+03 7.81860800e-03 7.65756200e-02
        2 -1    0    0  501    0 +0.0000000000e+00 +0.0000000000e+00 +2.4604046763e+03 2.4604046763e+03 0.0000000000e+00 0.0000e+00 -1.0000e+00
       -2 -1    0    0    0  501 -0.0000000000e+00 -0.0000000000e+00 -1.1781820432e+03 1.1781820432e+03 0.0000000000e+00 0.0000e+00 1.0000e+00
      -13  1    1    2    0    0 -1.4048720414e+03 -6.7346357340e+02 -9.2681914912e+01 1.5607077160e+03 0.0000000000e+00 0.0000e+00 1.0000e+00
       13  1    1    2    0    0 +1.4048720414e+03 +6.7346357340e+02 +1.3749045479e+03 2.0778790035e+03 0.0000000000e+00 0.0000e+00 -1.0000e+00
<mgrwt>
<rscale>  0 0.34051752E+04</rscale>
<asrwt>0</asrwt>
<pdfrwt beam="1">  1        2 0.37852380E+00 0.34051752E+04</pdfrwt>
<pdfrwt beam="2">  1       -2 0.18125878E+00 0.34051752E+04</pdfrwt>
<totfact> 0.61614454E-01</totfact>
</mgrwt>
<rwgt>
<wgt id='morphing_basis_vector_1'> +3.6733575e-05 </wgt>
<wgt id='morphing_basis_vector_2'> +2.5427158e-05 </wgt>
<wgt id='morphing_basis_vector_3'> +4.0307206e-05 </wgt>
<wgt id='morphing_basis_vector_4'> +2.8065031e-05 </wgt>
<wgt id='morphing_basis_vector_5'> +4.5573920e-05 </wgt>
</rwgt>
</event>
<event>
 4      1 +1.9882500e-09 3.44268700e+03 7.81860800e-03 7.64949200e-02
        2 -1    0    0  501    0 +0.0000000000e+00 +0.0000000000e+00 +1.9042530252e+03 1.9042530252e+03 0.0000000000e+00 0.0000e+00 1.0000e+00
       -2 -1    0    0    0  501 -0.0000000000e+00 -0.0000000000e+00 -1.5560030900e+03 1.5560030900e+03 0.0000000000e+00 0.0000e+00 -1.0000e+00
      -13  1    1    2    0    0 -3.0973592337e+02 +6.7536657972e+02 -1.3865280212e+03 1.5730595389e+03 0.0000000000e+00 0.0000e+00 -1.0000e+00
       13  1    1    2    0    0 +3.0973592337e+02 -6.7536657972e+02 +1.7347779564e+03 1.8871965762e+03 0.0000000000e+00 0.0000e+00 1.0000e+00
<mgrwt>
<rscale>  0 0.34426871E+04</rscale>
<asrwt>0</asrwt>
<pdfrwt beam="1">  1        2 0.29296200E+00 0.34426871E+04</pdfrwt>
<pdfrwt beam="2">  1       -2 0.23938509E+00 0.34426871E+04</pdfrwt>
<totfact> 0.48756420E-01</totfact>
</mgrwt>
<rwgt>
<wgt id='morphing_basis_vector_1'> +3.8096085e-05 </wgt>
<wgt id='morphing_basis_vector_2'> +2.5764524e-05 </wgt>
<wgt id='morphing_basis_vector_3'> +4.1681724e-05 </wgt>
<wgt id='morphing_basis_vector_4'> +2.9900662e-05 </wgt>
<wgt id='morphing_basis_vector_5'> +4.7676871e-05 </wgt>
</rwgt>
</event>
<event>
 4      1 +1.9882500e-09 3.64091600e+03 7.81860800e-03 7.60853400e-02
        2 -1    0    0  501    0 +0.0000000000e+00 +0.0000000000e+00 +1.6767479243e+03 1.6767479243e+03 0.0000000000e+00 0.0000e+00 -1.0000e+00
       -2 -1    0    0    0  501 -0.0000000000e+00 -0.0000000000e+00 -1.9764851048e+03 1.9764851048e+03 0.0000000000e+00 0.0000e+00 1.0000e+00
      -13  1    1    2    0    0 -3.9672857043e+02 +7.4146131682e+02 -1.7699231535e+03 1.9595372954e+03 0.0000000000e+00 0.0000e+00 1.0000e+00
       13  1    1    2    0    0 +3.9672857043e+02 -7.4146131682e+02 +1.4701859730e+03 1.6936957336e+03 0.0000000000e+00 0.0000e+00 -1.0000e+00
<mgrwt>
<rscale>  0 0.36409160E+04</rscale>
<asrwt>0</asrwt>
<pdfrwt beam="1">  1        2 0.25796122E+00 0.36409160E+04</pdfrwt>
<pdfrwt beam="2">  1       -2 0.30407463E+00 0.36409160E+04</pdfrwt>
<totfact> 0.23190793E-01</totfact>
</mgrwt>
<rwgt>
<wgt id='morphing_basis_vector_1'> +4.7589772e-05 </wgt>
<wgt id='morphing_basis_vector_2'> +3.2217620e-05 </wgt>
<wgt id='morphing_basis_vector_3'> +5.2140802e-05 </wgt>
<wgt id='morphing_basis_vector_4'> +3.7453373e-05 </wgt>
<wgt id='morphing_basis_vector_5'> +5.9727632e-05 </wgt>
</rwgt>
</event>
<event>
 4      1 +1.9882500e-09 3.81552000e+03 7.81860800e-03 7.57461100e-02
        2 -1    0    0  501    0 +0.0000000000e+00 +0.0000000000e+00 +1.9266282326e+03 1.9266282326e+03 0.0000000000e+00 0.0000e+00 -1.0000e+00
       -2 -1    0    0    0  501 -0.0000000000e+00 -0.0000000000e+00 -1.8890764449e+03 1.8890764449e+03 0.0000000000e+00 0.0000e+00 1.0000e+00
      -13  1    1    2    0    0 +1.3436382131e+03 +6.5479716638e+02 -1.1667877560e+03 1.8961847601e+03 0.0000000000e+00 0.0000e+00 1.0000e+00
       13  1    1    2    0    0 -1.3436382131e+03 -6.5479716638e+02 +1.2043395437e+03 1.9195199174e+03 0.0000000000e+00 0.0000e+00 -1.0000e+00
<mgrwt>
<rscale>  0 0.38155199E+04</rscale>
<asrwt>0</asrwt>
<pdfrwt beam="1">  1        2 0.29640435E+00 0.38155199E+04</pdfrwt>
<pdfrwt beam="2">  1       -2 0.29062714E+00 0.38155199E+04</pdfrwt>
<totfact> 0.20445682E-01</totfact>
</mgrwt>
<rwgt>
<wgt id='morphing_basis_vector_1'> +5.7451551e-05 </wgt>
<wgt id='morphing_basis_vector_2'> +3.9187767e-05 </wgt>
<wgt id='morphing_basis_vector_3'> +6.3070003e-05 </wgt>
<wgt id='morphing_basis_vector_4'> +4.4968680e-05 </wgt>
<wgt id='morphing_basis_vector_5'> +7.2092169e-05 </wgt>
</rwgt>
</event>
<event>
 4      1 +1.9882500e-09 3.34422200e+03 7.81860800e-03 7.67090500e-02
        2 -1    0    0  501    0 +0.0000000000e+00 +0.0000000000e+00 +3.9493352929e+03 3.9493352929e+03 0.0000000000e+00 0.0000e+00 -1.0000e+00
       -2 -1    0    0    0  501 -0.0000000000e+00 -0.0000000000e+00 -7.0795579467e+02 7.0795579467e+02 0.0000000000e+00 0.0000e+00 1.0000e+00
      -13  1    1    2    0    0 +3.9043755456e+02 +1.2615879935e+03 +1.9236352255e+02 1.3345596555e+03 0.0000000000e+00 0.0000e+00 1.0000e+00
       13  1    1    2    0    0 -3.9043755456e+02 -1.2615879935e+03 +3.0490159757e+03 3.3227314320e+03 0.0000000000e+00 0.0000e+00 -1.0000e+00
<mgrwt>
<rscale>  0 0.33442218E+04</rscale>
<asrwt>0</asrwt>
<pdfrwt beam="1">  1        2 0.60759003E+00 0.33442218E+04</pdfrwt>
<pdfrwt beam="2">  1       -2 0.10891628E+00 0.33442218E+04</pdfrwt>
<totfact> 0.23923094E-01</totfact>
</mgrwt>
<rwgt>
<wgt id='morphing_basis_vector_1'> +3.4024501e-05 </wgt>
<wgt id='morphing_basis_vector_2'> +2.3170290e-05 </wgt>
<wgt id='morphing_basis_vector_3'> +3.7235255e-05 </wgt>
<wgt id='morphing_basis_vector_4'> +2.6445028e-05 </wgt>
<wgt id='morphing_basis_vector_5'> +4.2404851e-05 </wgt>
</rwgt>
</event>
<event>
 4      1 +1.9882500e-09 3.64856100e+03 7.81860800e-03 7.60700800e-02
        2 -1    0    0  501    0 +0.0000000000e+00 +0.0000000000e+00 +3.3940858901e+03 3.3940858901e+03 0.0000000000e+00 0.0000e+00 1.0000e+00
       -2 -1    0    0    0  501 -0.0000000000e+00 -0.0000000000e+00 -9.8052882118e+02 9.8052882118e+02 0.0000000000e+00 0.0000e+00 -1.0000e+00
      -13  1    1    2    0    0 +1.1021421511e+03 -8.3888494088e+02 +2.6302836804e+03 2.9726818707e+03 0.0000000000e+00 0.0000e+00 1.0000e+00
       13  1    1    2    0    0 -1.1021421511e+03 +8.3888494088e+02 -2.1672661147e+02 1.4019328405e+03 0.0000000000e+00 0.0000e+00 -1.0000e+00
<mgrwt>
<rscale>  0 0.36485608E+04</rscale>
<asrwt>0</asrwt>
<pdfrwt beam="1">  1        2 0.52216705E+00 0.36485608E+04</pdfrwt>
<pdfrwt beam="2">  1       -2 0.15085059E+00 0.36485608E+04</pdfrwt>
<totfact> 0.26151066E-01</totfact>
</mgrwt>
<rwgt>
<wgt id='morphing_basis_vector_1'> +6.0630990e-05 </wgt>
<wgt id='morphing_basis_vector_2'> +6.9669198e-05 </wgt>
<wgt id='morphing_basis_vector_3'> +7.2735343e-05 </wgt>
<wgt id='morphing_basis_vector_4'> +1.1138038e-05 </wgt>
<wgt id='morphing_basis_vector_5'> +5.8022804e-05 </wgt>
</rwgt>
</event>
<event>
 4      1 +1.9882500e-09 3.46899200e+03 7.81860800e-03 7.64389700e-02
        2 -1    0    0  501    0 +0.0000000000e+00 +0.0000000000e+00 +3.2321011698e+03 3.2321011698e+03 0.0000000000e+00 0.0000e+00 -1.0000e+00
       -2 -1    0    0    0  501 -0.0000000000e+00 -0.0000000000e+00 -9.3081119326e+02 9.3081119326e+02 0.0000000000e+00 0.0000e+00 1.0000e+00
      -13  1    1    2    0    0 -1.1598287452e+03 -5.5752355488e+02 -2.4492981260e+02 1.3099716965e+03 0.0000000000e+00 0.0000e+00 1.0000e+00
       13  1    1    2    0    0 +1.1598287452e+03 +5.5752355488e+02 +2.5462197891e+03 2.8529406666e+03 0.0000000000e+00 0.0000e+00 -1.0000e+00
<mgrwt>
<rscale>  0 0.34689918E+04</rscale>
<asrwt>0</asrwt>
<pdfrwt beam="1">  1        2 0.49724633E+00 0.34689918E+04</pdfrwt>
<pdfrwt beam="2">  1       -2 0.14320172E+00 0.34689918E+04</pdfrwt>
<totfact> 0.39901231E-01</totfact>
</mgrwt>
<rwgt>
<wgt id='morphing_basis_vector_1'> +3.9323452e-05 </wgt>
<wgt id='morphing_basis_vector_2'> +2.6728927e-05 </wgt>
<wgt id='morphing_basis_vector_3'> +4.3061493e-05 </wgt>
<wgt id='morphing_basis_vector_4'> +3.0709648e-05 </wgt>
<wgt id='morphing_basis_vector_5'> +4.9150710e-05 </wgt>
</rwgt>
</event>
<event>
 4      1 +1.9882500e-09 3.51035600e+03 7.81860800e-03 7.63519900e-02
        2 -1    0    0  501    0 +0.0000000000e+00 +0.0000000000e+00 +1.1044843518e+03 1.1044843518e+03 0.0000000000e+00 0.0000e+00 -1.0000e+00
       -2 -1    0    0    0  501 -0.0000000000e+00 -0.0000000000e+00 -2.7892201477e+03 2.7892201477e+03 0.0000000000e+00 0.0000e+00 1.0000e+00
      -13  1    1    2    0    0 +9.4501553572e+02 -1.1441298135e+03 -1.8820442652e+03 2.3967014852e+03 0.0000000000e+00 0.0000e+00 1.0000e+00
       13  1    1    2    0    0 -9.4501553572e+02 +1.1441298135e+03 +1.9730846933e+02 1.4970030143e+03 0.0000000000e+00 0.0000e+00 -1.0000e+00
<mgrwt>
<rscale>  0 0.35103561E+04</rscale>
<asrwt>0</asrwt>
<pdfrwt beam="1">  1        2 0.16992067E+00 0.35103561E+04</pdfrwt>
<pdfrwt beam="2">  1       -2 0.42911079E+00 0.35103561E+04</pdfrwt>
<totfact> 0.75224798E-02</totfact>
</mgrwt>
<rwgt>
<wgt id='morphing_basis_vector_1'> +4.1308025e-05 </wgt>
<wgt id='morphing_basis_vector_2'> +2.8282989e-05 </wgt>
<wgt id='morphing_basis_vector_3'> +4.5291824e-05 </wgt>
<wgt id='morphing_basis_vector_4'> +3.2024810e-05 </wgt>
<wgt id='morphing_basis_vector_5'> +5.1537841e-05 </wgt>
</rwgt>
</event>
<event>
 4      1 +1.9882500e-09 3.68756400e+03 7.81860800e-03 7.59928300e-02
        2 -1    0    0  501    0 +0.0000000000e+00 +0.0000000000e+00 +2.9494437520e+03 2.9494437520e+03 0.0000000000e+00 0.0000e+00 -1.0000e+00
       -2 -1    0    0    0  501 -0.0000000000e+00 -0.0000000000e+00 -1.1526008451e+03 1.1526008451e+03 0.0000000000e+00 0.0000e+00 1.0000e+00
      -13  1    1    2    0    0 +4.8288937614e+02 +1.7561451279e+03 +1.2175532016e+03 2.1908134696e+03 0.0000000000e+00 0.0000e+00 1.0000e+00
       13  1    1    2    0    0 -4.8288937614e+02 -1.7561451279e+03 +5.7928970536e+02 1.9112311275e+03 0.0000000000e+00 0.0000e+00 -1.0000e+00
<mgrwt>
<rscale>  0 0.36875636E+04</rscale>
<asrwt>0</asrwt>
<pdfrwt beam="1">  1        2 0.45376057E+00 0.36875636E+04</pdfrwt>
<pdfrwt beam="2">  1       -2 0.17732321E+00 0.36875636E+04</pdfrwt>
<totfact> 0.32155029E-01</totfact>
</mgrwt>
<rwgt>
<wgt id='morphing_basis_vector_1'> +5.3225342e-05 </wgt>
<wgt id='morphing_basis_vector_2'> +4.3203718e-05 </wgt>
<wgt id='morphing_basis_vector_3'> +5.9913268e-05 </wgt>
<wgt id='morphing_basis_vector_4'> +3.2750970e-05 </wgt>
<wgt id='morphing_basis_vector_5'> +6.2312806e-05 </wgt>
</rwgt>
</event>
<event>
 4      1 +1.9882500e-09 3.33314500e+03 7.81860800e-03 7.67336100e-02
        2 -1    0    0  501    0 +0.0000000000e+00 +0.0000000000e+00 +1.9107118253e+03 1.9107118253e+03 0.0000000000e+00 0.0000e+00 -1.0000e+00
       -2 -1    0    0    0  501 -0.0000000000e+00 -0.0000000000e+00 -1.4536275789e+03 1.4536275789e+03 0.0000000000e+00 0.0000e+00 1.0000e+00
      -13  1    1    2    0    0 +8.4602741933e+02 +1.2412100750e+03 +9.5716964324e+02 1.7811621404e+03 0.0000000000e+00 0.0000e+00 1.0000e+00
       13  1    1    2    0    0 -8.4602741933e+02 -1.2412100750e+03 -5.0008539686e+02 1.5831772638e+03 0.0000000000e+00 0.0000e+00 -1.0000e+00
<mgrwt>
<rscale>  0 0.33331447E+04</rscale>
<asrwt>0</asrwt>
<pdfrwt beam="1">  1        2 0.29395567E+00 0.33331447E+04</pdfrwt>
<pdfrwt beam="2">  1       -2 0.22363501E+00 0.33331447E+04</pdfrwt>
<totfact> 0.62931707E-01</totfact>
</mgrwt>
<rwgt>
<wgt id='morphing_basis_vector_1'> +3.8629806e-05 </wgt>
<wgt id='morphing_basis_vector_2'> +3.7727844e-05 </wgt>
<wgt id='morphing_basis_vector_3'> +4.4735577e-05 </wgt>
<wgt id='morphing_basis_vector_4'> +1.5505898e-05 </wgt>
<wgt id='morphing_basis_vector_5'> +4.0966464e-05 </wgt>
</rwgt>
</event>
<event>
 4      1 +1.9882500e-09 3.22357400e+03 7.81860800e-03 7.69820000e-02
        2 -1    0    0  501    0 +0.0000000000e+00 +0.0000000000e+00 +2.6242904089e+03 2.6242904089e+03 0.0000000000e+00 0.0000e+00 1.0000e+00
       -2 -1    0    0    0  501 -0.0000000000e+00 -0.0000000000e+00 -9.8992756993e+02 9.8992756993e+02 0.0000000000e+00 0.0000e+00 -1.0000e+00
      -13  1    1    2    0    0 +7.8615896978e+02 +1.3391671694e+03 +1.3012974806e+03 2.0260280764e+03 0.0000000000e+00 0.0000e+00 -1.0000e+00
       13  1    1    2    0    0 -7.8615896978e+02 -1.3391671694e+03 +3.3306535839e+02 1.5881899024e+03 0.0000000000e+00 0.0000e+00 1.0000e+00
<mgrwt>
<rscale>  0 0.32235741E+04</rscale>
<asrwt>0</asrwt>
<pdfrwt beam="1">  1        2 0.40373698E+00 0.32235741E+04</pdfrwt>
<pdfrwt beam="2">  1       -2 0.15229655E+00 0.32235741E+04</pdfrwt>
<totfact> 0.84258740E-01</totfact>
</mgrwt>
<rwgt>
<wgt id='morphing_basis_vector_1'> +3.2036888e-05 </wgt>
<wgt id='morphing_basis_vector_2'> +2.7753992e-05 </wgt>
<wgt id='morphing_basis_vector_3'> +3.6296348e-05 </wgt>
<wgt id='morphing_basis_vector_4'> +1.7303555e-05 </wgt>
<wgt id='morphing_basis_vector_5'> +3.6114979e-05 </wgt>
</rwgt>
</event>
<event>
 4      1 +1.9882500e-09 3.36791800e+03 7.81860800e-03 7.66568300e-02
        2 -1    0    0  501    0 +0.0000000000e+00 +0.0000000000e+00 +2.5647631514e+03 2.5647631514e+03 0.0000000000e+00 0.0000e+00 -1.0000e+00
       -2 -1    0    0    0  501 -0.0000000000e+00 -0.0000000000e+00 -1.1056448873e+03 1.1056448873e+03 0.0000000000e+00 0.0000e+00 1.0000e+00
      -13  1    1    2    0    0 -1.7385360377e+02 -1.5874683498e+03 +1.4731169284e+02 1.6037398704e+03 0.0000000000e+00 0.0000e+00 1.0000e+00
       13  1    1    2    0    0 +1.7385360377e+02 +1.5874683498e+03 +1.3118065713e+03 2.0666681682e+03 0.0000000000e+00 0.0000e+00 -1.0000e+00
<mgrwt>
<rscale>  0 0.33679176E+04</rscale>
<asrwt>0</asrwt>
<pdfrwt beam="1">  1        2 0.39457895E+00 0.33679176E+04</pdfrwt>
<pdfrwt beam="2">  1       -2 0.17009921E+00 0.33679176E+04</pdfrwt>
<totfact> 0.65210604E-01</totfact>
</mgrwt>
<rwgt>
<wgt id='morphing_basis_vector_1'> +3.5282288e-05 </wgt>
<wgt id='morphing_basis_vector_2'> +2.4686296e-05 </wgt>
<wgt id='morphing_basis_vector_3'> +3.8761156e-05 </wgt>
<wgt id='morphing_basis_vector_4'> +2.6598819e-05 </wgt>
<wgt id='morphing_basis_vector_5'> +4.3577866e-05 </wgt>
</rwgt>
</event>
<event>
 4      1 +1.9882500e-09 3.83471200e+03 7.81860800e-03 7.57099500e-02
        2 -1    0    0  501    0 +0.0000000000e+00 +0.0000000000e+00 +1.8726097991e+03 1.8726097991e+03 0.0000000000e+00 0.0000e+00 -1.0000e+00
       -2 -1    0    0    0  501 -0.0000000000e+00 -0.0000000000e+00 -1.9631717254e+03 1.9631717254e+03 0.0000000000e+00 0.0000e+00 1.0000e+00
      -13  1    1    2    0    0 +3.4957637838e+02 +8.8645588874e+02 -1.7095498308e+03 1.9571837704e+03 0.0000000000e+00 0.0000e+00 1.0000e+00
       13  1    1    2    0    0 -3.4957637838e+02 -8.8645588874e+02 +1.6189879045e+03 1.8785977541e+03 0.0000000000e+00 0.0000e+00 -1.0000e+00
<mgrwt>
<rscale>  0 0.38347123E+04</rscale>
<asrwt>0</asrwt>
<pdfrwt beam="1">  1        2 0.28809381E+00 0.38347123E+04</pdfrwt>
<pdfrwt beam="2">  1       -2 0.30202642E+00 0.38347123E+04</pdfrwt>
<totfact> 0.18330361E-01</totfact>
</mgrwt>
<rwgt>
<wgt id='morphing_basis_vector_1'> +5.8492241e-05 </wgt>
<wgt id='morphing_basis_vector_2'> +3.9635181e-05 </wgt>
<wgt id='morphing_basis_vector_3'> +6.4160283e-05 </wgt>
<wgt id='morphing_basis_vector_4'> +4.6133111e-05 </wgt>
<wgt id='morphing_basis_vector_5'> +7.3582308e-05 </wgt>
</rwgt>
</event>
<event>
 4      1 +1.9882500e-09 3.22198600e+03 7.81860800e-03 7.69856800e-02
        2 -1    0    0  501    0 +0.0000000000e+00 +0.0000000000e+00 +1.6101863144e+03 1.6101863144e+03 0.0000000000e+00 0.0000e+00 1.0000e+00
       -2 -1    0    0    0  501 -0.0000000000e+00 -0.0000000000e+00 -1.6118003270e+03 1.6118003270e+03 0.0000000000e+00 0.0000e+00 -1.0000e+00
      -13  1    1    2    0    0 +4.3396989198e+02 +3.2868410313e+02 -1.5170313624e+03 1.6117528537e+03 0.0000000000e+00 0.0000e+00 -1.0000e+00
       13  1    1    2    0    0 -4.3396989198e+02 -3.2868410313e+02 +1.5154173498e+03 1.6102337877e+03 0.0000000000e+00 0.0000e+00 1.0000e+00
<mgrwt>
<rscale>  0 0.32219862E+04</rscale>
<asrwt>0</asrwt>
<pdfrwt beam="1">  1        2 0.24772097E+00 0.32219862E+04</pdfrwt>
<pdfrwt beam="2">  1       -2 0.24796928E+00 0.32219862E+04</pdfrwt>
<totfact> 0.63123456E-01</totfact>
</mgrwt>
<rwgt>
<wgt id='morphing_basis_vector_1'> +2.9282214e-05 </wgt>
<wgt id='morphing_basis_vector_2'> +1.9775739e-05 </wgt>
<wgt id='morphing_basis_vector_3'> +3.1979102e-05 </wgt>
<wgt id='morphing_basis_vector_4'> +2.2901380e-05 </wgt>
<wgt id='morphing_basis_vector_5'> +3.6508159e-05 </wgt>
</rwgt>
</event>
<event>
 4      1 +1.9882500e-09 3.26837600e+03 7.81860800e-03 7.68792300e-02
        2 -1    0    0  501    0 +0.0000000000e+00 +0.0000000000e+00 +2.5689806382e+03 2.5689806382e+03 0.0000000000e+00 0.0000e+00 -1.0000e+00
       -2 -1    0    0    0  501 -0.0000000000e+00 -0.0000000000e+00 -1.0395448770e+03 1.0395448770e+03 0.0000000000e+00 0.0000e+00 1.0000e+00
      -13  1    1    2    0    0 -5.8724765964e+02 +1.4974928632e+03 +4.4620486257e+02 1.6692643495e+03 0.0000000000e+00 0.0000e+00 1.0000e+00
       13  1    1    2    0    0 +5.8724765964e+02 -1.4974928632e+03 +1.0832308986e+03 1.9392611657e+03 0.0000000000e+00 0.0000e+00 -1.0000e+00
<mgrwt>
<rscale>  0 0.32683761E+04</rscale>
<asrwt>0</asrwt>
<pdfrwt beam="1">  1        2 0.39522779E+00 0.32683761E+04</pdfrwt>
<pdfrwt beam="2">  1       -2 0.15992998E+00 0.32683761E+04</pdfrwt>
<totfact> 0.78622881E-01</totfact>
</mgrwt>
<rwgt>
<wgt id='morphing_basis_vector_1'> +3.1578029e-05 </wgt>
<wgt id='morphing_basis_vector_2'> +2.2661585e-05 </wgt>
<wgt id='morphing_basis_vector_3'> +3.4786003e-05 </wgt>
<wgt id='morphing_basis_vector_4'> +2.3031397e-05 </wgt>
<wgt id='morphing_basis_vector_5'> +3.8571877e-05 </wgt>
</rwgt>
</event>
<event>
 4      1 +1.9882500e-09 3.23176500e+03 7.81860800e-03 7.69630800e-02
        2 -1    0    0  501    0 +0.0000000000e+00 +0.0000000000e+00 +1.2473996072e+03 1.2473996072e+03 0.0000000000e+00 0.0000e+00 1.0000e+00
       -2 -1    0    0    0  501 -0.0000000000e+00 -0.0000000000e+00 -2.0932160687e+03 2.0932160687e+03 0.0000000000e+00 0.0000e+00 -1.0000e+00
      -13  1    1    2    0    0 -3.5381993714e+02 +1.3408991771e+03 -1.2802269744e+03 1.8873739050e+03 0.0000000000e+00 0.0000e+00 -1.0000e+00
       13  1    1    2    0    0 +3.5381993714e+02 -1.3408991771e+03 +4.3441051296e+02 1.4532417710e+03 0.0000000000e+00 0.0000e+00 1.0000e+00
<mgrwt>
<rscale>  0 0.32317654E+04</rscale>
<asrwt>0</asrwt>
<pdfrwt beam="1">  1        2 0.19190764E+00 0.32317654E+04</pdfrwt>
<pdfrwt beam="2">  1       -2 0.32203324E+00 0.32317654E+04</pdfrwt>
<totfact> 0.31747048E-01</totfact>
</mgrwt>
<rwgt>
<wgt id='morphing_basis_vector_1'> +2.9759042e-05 </wgt>
<wgt id='morphing_basis_vector_2'> +2.0376795e-05 </wgt>
<wgt id='morphing_basis_vector_3'> +3.2562189e-05 </wgt>
<wgt id='morphing_basis_vector_4'> +2.2926390e-05 </wgt>
<wgt id='morphing_basis_vector_5'> +3.6935673e-05 </wgt>
</rwgt>
</event>
<event>
 4      1 +1.9882500e-09 3.65849100e+03 7.81860800e-03 7.60503200e-02
        2 -1    0    0  501    0 +0.0000000000e+00 +0.0000000000e+00 +1.4477266473e+03 1.4477266473e+03 0.0000000000e+00 0.0000e+00 -1.0000e+00
       -2 -1    0    0    0  501 -0.0000000000e+00 -0.0000000000e+00 -2.3113064703e+03 2.3113064703e+03 0.0000000000e+00 0.0000e+00 1.0000e+00
      -13  1    1    2    0    0 +1.5744575014e+02 +7.8828113718e+02 -2.1201032956e+03 2.2673804929e+03 0.0000000000e+00 0.0000e+00 1.0000e+00
       13  1    1    2    0    0 -1.5744575014e+02 -7.8828113718e+02 +1.2565234727e+03 1.4916526247e+03 0.0000000000e+00 0.0000e+00 -1.0000e+00
<mgrwt>
<rscale>  0 0.36584915E+04</rscale>
<asrwt>0</asrwt>
<pdfrwt beam="1">  1        2 0.22272718E+00 0.36584915E+04</pdfrwt>
<pdfrwt beam="2">  1       -2 0.35558561E+00 0.36584915E+04</pdfrwt>
<totfact> 0.14201235E-01</totfact>
</mgrwt>
<rwgt>
<wgt id='morphing_basis_vector_1'> +4.8508180e-05 </wgt>
<wgt id='morphing_basis_vector_2'> +3.2838489e-05 </wgt>
<wgt id='morphing_basis_vector_3'> +5.3152187e-05 </wgt>
<wgt id='morphing_basis_vector_4'> +3.8189091e-05 </wgt>
<wgt id='morphing_basis_vector_5'> +6.0896533e-05 </wgt>
</rwgt>
</event>
<event>
 4      1 +1.9882500e-09 3.31818600e+03 7.81860800e-03 7.67669400e-02
        2 -1    0    0  501    0 +0.0000000000e+00 +0.0000000000e+00 +2.7061300112e+03 2.7061300112e+03 0.0000000000e+00 0.0000e+00 -1.0000e+00
       -2 -1    0    0    0  501 -0.0000000000e+00 -0.0000000000e+00 -1.0171683663e+03 1.0171683663e+03 0.0000000000e+00 0.0000e+00 1.0000e+00
      -13  1    1    2    0    0 +1.1509820563e+03 +4.7706501457e+02 -3.8482795609e+02 1.3040104593e+03 0.0000000000e+00 0.0000e+00 1.0000e+00
       13  1    1    2    0    0 -1.1509820563e+03 -4.7706501457e+02 +2.0737896009e+03 2.4192879182e+03 0.0000000000e+00 0.0000e+00 -1.0000e+00
<mgrwt>
<rscale>  0 0.33181862E+04</rscale>
<asrwt>0</asrwt>
<pdfrwt beam="1">  1        2 0.41632769E+00 0.33181862E+04</pdfrwt>
<pdfrwt beam="2">  1       -2 0.15648744E+00 0.33181862E+04</pdfrwt>
<totfact> 0.68832854E-01</totfact>
</mgrwt>
<rwgt>
<wgt id='morphing_basis_vector_1'> +3.2964172e-05 </wgt>
<wgt id='morphing_basis_vector_2'> +2.2398368e-05 </wgt>
<wgt id='morphing_basis_vector_3'> +3.6057001e-05 </wgt>
<wgt id='morphing_basis_vector_4'> +2.5668821e-05 </wgt>
<wgt id='morphing_basis_vector_5'> +4.1094034e-05 </wgt>
</rwgt>
</event>
<event>
 4      1 +1.9882500e-09 3.22199700e+03 7.81860800e-03 7.69856500e-02
        2 -1    0    0  501    0 +0.0000000000e+00 +0.0000000000e+00 +3.1860442989e+03 3.1860442989e+03 0.0000000000e+00 0.0000e+00 -1.0000e+00
       -2 -1    0    0    0  501 -0.0000000000e+00 -0.0000000000e+00 -8.1458909330e+02 8.1458909330e+02 0.0000000000e+00 0.0000e+00 1.0000e+00
      -13  1    1    2    0    0 -6.5565490282e+02 -1.4491966566e+03 +8.6852564153e+02 1.8122889094e+03 0.0000000000e+00 0.0000e+00 1.0000e+00
       13  1    1    2    0    0 +6.5565490282e+02 +1.4491966566e+03 +1.5029295641e+03 2.1883444828e+03 0.0000000000e+00 0.0000e+00 -1.0000e+00
<mgrwt>
<rscale>  0 0.32219975E+04</rscale>
<asrwt>0</asrwt>
<pdfrwt beam="1">  1        2 0.49016065E+00 0.32219975E+04</pdfrwt>
<pdfrwt beam="2">  1       -2 0.12532140E+00 0.32219975E+04</pdfrwt>
<totfact> 0.62899940E-01</totfact>
</mgrwt>
<rwgt>
<wgt id='morphing_basis_vector_1'> +2.9876881e-05 </wgt>
<wgt id='morphing_basis_vector_2'> +2.1525157e-05 </wgt>
<wgt id='morphing_basis_vector_3'> +3.2916753e-05 </wgt>
<wgt id='morphing_basis_vector_4'> +2.1658445e-05 </wgt>
<wgt id='morphing_basis_vector_5'> +3.6406067e-05 </wgt>
</rwgt>
</event>
<event>
 4      1 +1.9882500e-09 3.43182600e+03 7.81860800e-03 7.65181800e-02
        2 -1    0    0  501    0 +0.0000000000e+00 +0.0000000000e+00 +1.6962383078e+03 1.6962383078e+03 0.0000000000e+00 0.0000e+00 1.0000e+00
       -2 -1    0    0    0  501 -0.0000000000e+00 -0.0000000000e+00 -1.7358162352e+03 1.7358162352e+03 0.0000000000e+00 0.0000e+00 -1.0000e+00
      -13  1    1    2    0    0 +1.4894000951e+03 +2.7874372869e+02 -8.2504265972e+02 1.7253133338e+03 0.0000000000e+00 0.0000e+00 -1.0000e+00
       13  1    1    2    0    0 -1.4894000951e+03 -2.7874372869e+02 +7.8546473234e+02 1.7067412092e+03 0.0000000000e+00 0.0000e+00 1.0000e+00
<mgrwt>
<rscale>  0 0.34318263E+04</rscale>
<asrwt>0</asrwt>
<pdfrwt beam="1">  1        2 0.26095974E+00 0.34318263E+04</pdfrwt>
<pdfrwt beam="2">  1       -2 0.26704865E+00 0.34318263E+04</pdfrwt>
<totfact> 0.41056479E-01</totfact>
</mgrwt>
<rwgt>
<wgt id='morphing_basis_vector_1'> +3.7814289e-05 </wgt>
<wgt id='morphing_basis_vector_2'> +2.6010732e-05 </wgt>
<wgt id='morphing_basis_vector_3'> +4.1465229e-05 </wgt>
<wgt id='morphing_basis_vector_4'> +2.9116625e-05 </wgt>
<wgt id='morphing_basis_vector_5'> +4.7040455e-05 </wgt>
</rwgt>
</event>
<event>
 4      1 +1.9882500e-09 3.30316000e+03 7.81860800e-03 7.68006000e-02
        2 -1    0    0  501    0 +0.0000000000e+00 +0.0000000000e+00 +3.2099998525e+03 3.2099998525e+03 0.0000000000e+00 0.0000e+00 1.0000e+00
       -2 -1    0    0    0  501 -0.0000000000e+00 -0.0000000000e+00 -8.4975573789e+02 8.4975573789e+02 0.0000000000e+00 0.0000e+00 -1.0000e+00
      -13  1    1    2    0    0 +9.7191339525e+02 -1.3339715373e+03 +1.1061735168e+03 1.9868858949e+03 0.0000000000e+00 0.0000e+00 -1.0000e+00
       13  1    1    2    0    0 -9.7191339525e+02 +1.3339715373e+03 +1.2540705978e+03 2.0728696955e+03 0.0000000000e+00 0.0000e+00 1.0000e+00
<mgrwt>
<rscale>  0 0.33031596E+04</rscale>
<asrwt>0</asrwt>
<pdfrwt beam="1">  1        2 0.49384612E+00 0.33031596E+04</pdfrwt>
<pdfrwt beam="2">  1       -2 0.13073165E+00 0.33031596E+04</pdfrwt>
<totfact> 0.53796137E-01</totfact>
</mgrwt>
<rwgt>
<wgt id='morphing_basis_vector_1'> +3.3361148e-05 </wgt>
<wgt id='morphing_basis_vector_2'> +2.4897246e-05 </wgt>
<wgt id='morphing_basis_vector_3'> +3.6966796e-05 </wgt>
<wgt id='morphing_basis_vector_4'> +2.3138514e-05 </wgt>
<wgt id='morphing_basis_vector_5'> +4.0178703e-05 </wgt>
</rwgt>
</event>
<event>
 4      1 +1.9882500e-09 3.34791800e+03 7.81860800e-03 7.67008800e-02
        2 -1    0    0  501    0 +0.0000000000e+00 +0.0000000000e+00 +1.8504250224e+03 1.8504250224e+03 0.0000000000e+00 0.0000e+00 1.0000e+00
       -2 -1    0    0    0  501 -0.0000000000e+00 -0.0000000000e+00 -1.5143213785e+03 1.5143213785e+03 0.0000000000e+00 0.0000e+00 -1.0000e+00
      -13  1    1    2    0    0 -6.4663985867e+02 +1.3763061319e+03 -5.3530635061e+02 1.6121149353e+03 0.0000000000e+00 0.0000e+00 -1.0000e+00
       13  1    1    2    0    0 +6.4663985867e+02 -1.3763061319e+03 +8.7140999451e+02 1.7526314656e+03 0.0000000000e+00 0.0000e+00 1.0000e+00
<mgrwt>
<rscale>  0 0.33479177E+04</rscale>
<asrwt>0</asrwt>
<pdfrwt beam="1">  1        2 0.28468077E+00 0.33479177E+04</pdfrwt>
<pdfrwt beam="2">  1       -2 0.23297252E+00 0.33479177E+04</pdfrwt>
<totfact> 0.58383198E-01</totfact>
</mgrwt>
<rwgt>
<wgt id='morphing_basis_vector_1'> +3.4324645e-05 </wgt>
<wgt id='morphing_basis_vector_2'> +2.3715693e-05 </wgt>
<wgt id='morphing_basis_vector_3'> +3.7638409e-05 </wgt>
<wgt id='morphing_basis_vector_4'> +2.6247165e-05 </wgt>
<wgt id='morphing_basis_vector_5'> +4.2567843e-05 </wgt>
</rwgt>
</event>
<event>
 4      1 +1.9882500e-09 3.83432700e+03 7.81860800e-03 7.57106800e-02
        2 -1    0    0  501    0 +0.0000000000e+00 +0.0000000000e+00 +3.4155117833e+03 3.4155117833e+03 0.0000000000e+00 0.0000e+00 1.0000e+00
       -2 -1    0    0    0  501 -0.0000000000e+00 -0.0000000000e+00 -1.0761246479e+03 1.0761246479e+03 0.0000000000e+00 0.0000e+00 -1.0000e+00
      -13  1    1    2    0    0 -4.9206384208e+02 +2.8503206128e+02 -9.7505753567e+02 1.1287636150e+03 0.0000000000e+00 0.0000e+00 -1.0000e+00
       13  1    1    2    0    0 +4.9206384208e+02 -2.8503206128e+02 +3.3144446711e+03 3.3628728163e+03 0.0000000000e+00 0.0000e+00 1.0000e+00
<mgrwt>
<rscale>  0 0.38343273E+04</rscale>
<asrwt>0</asrwt>
<pdfrwt beam="1">  1        2 0.52546335E+00 0.38343273E+04</pdfrwt>
<pdfrwt beam="2">  1       -2 0.16555764E+00 0.38343273E+04</pdfrwt>
<totfact> 0.18923316E-01</totfact>
</mgrwt>
<rwgt>
<wgt id='morphing_basis_vector_1'> +5.8458192e-05 </wgt>
<wgt id='morphing_basis_vector_2'> +3.9587867e-05 </wgt>
<wgt id='morphing_basis_vector_3'> +6.4117422e-05 </wgt>
<wgt id='morphing_basis_vector_4'> +4.6137063e-05 </wgt>
<wgt id='morphing_basis_vector_5'> +7.3554478e-05 </wgt>
</rwgt>
</event>
<event>
 4      1 +1.9882500e-09 3.31529200e+03 7.81860800e-03 7.67734100e-02
        2 -1    0    0  501    0 +0.0000000000e+00 +0.0000000000e+00 +2.9950417720e+03 2.9950417720e+03 0.0000000000e+00 0.0000e+00 -1.0000e+00
       -2 -1    0    0    0  501 -0.0000000000e+00 -0.0000000000e+00 -9.1744663984e+02 9.1744663984e+02 0.0000000000e+00 0.0000e+00 1.0000e+00
      -13  1    1    2    0    0 -9.1666218614e+02 -1.2047432672e+03 +2.4177898257e+02 1.5330143442e+03 0.0000000000e+00 0.0000e+00 1.0000e+00
       13  1    1    2    0    0 +9.1666218614e+02 +1.2047432672e+03 +1.8358161496e+03 2.3794740676e+03 0.0000000000e+00 0.0000e+00 -1.0000e+00
<mgrwt>
<rscale>  0 0.33152925E+04</rscale>
<asrwt>0</asrwt>
<pdfrwt beam="1">  1        2 0.46077565E+00 0.33152925E+04</pdfrwt>
<pdfrwt beam="2">  1       -2 0.14114564E+00 0.33152925E+04</pdfrwt>
<totfact> 0.60574845E-01</totfact>
</mgrwt>
<rwgt>
<wgt id='morphing_basis_vector_1'> +3.3027065e-05 </wgt>
<wgt id='morphing_basis_vector_2'> +2.2841086e-05 </wgt>
<wgt id='morphing_basis_vector_3'> +3.6211167e-05 </wgt>
<wgt id='morphing_basis_vector_4'> +2.5208075e-05 </wgt>
<wgt id='morphing_basis_vector_5'> +4.0919201e-05 </wgt>
</rwgt>
</event>
<event>
 4      1 +1.9882500e-09 3.64867700e+03 7.81860800e-03 7.60698500e-02
        2 -1    0    0  501    0 +0.0000000000e+00 +0.0000000000e+00 +2.0567147229e+03 2.0567147229e+03 0.0000000000e+00 0.0000e+00 -1.0000e+00
       -2 -1    0    0    0  501 -0.0000000000e+00 -0.0000000000e+00 -1.6182169540e+03 1.6182169540e+03 0.0000000000e+00 0.0000e+00 1.0000e+00
      -13  1    1    2    0    0 +4.5395780234e+02 -1.7419085955e+03 -7.9342424048e+01 1.8018375236e+03 0.0000000000e+00 0.0000e+00 1.0000e+00
       13  1    1    2    0    0 -4.5395780234e+02 +1.7419085955e+03 +5.1784019301e+02 1.8730941532e+03 0.0000000000e+00 0.0000e+00 -1.0000e+00
<mgrwt>
<rscale>  0 0.36486768E+04</rscale>
<asrwt>0</asrwt>
<pdfrwt beam="1">  1        2 0.31641765E+00 0.36486768E+04</pdfrwt>
<pdfrwt beam="2">  1       -2 0.24895645E+00 0.36486768E+04</pdfrwt>
<totfact> 0.33768427E-01</totfact>
</mgrwt>
<rwgt>
<wgt id='morphing_basis_vector_1'> +4.8948867e-05 </wgt>
<wgt id='morphing_basis_vector_2'> +3.5299745e-05 </wgt>
<wgt id='morphing_basis_vector_3'> +5.4108380e-05 </wgt>
<wgt id='morphing_basis_vector_4'> +3.5764779e-05 </wgt>
<wgt id='morphing_basis_vector_5'> +6.0074644e-05 </wgt>
</rwgt>
</event>
<event>
 4      1 +1.9882500e-09 3.21252100e+03 7.81860800e-03 7.70076200e-02
        2 -1    0    0  501    0 +0.0000000000e+00 +0.0000000000e+00 +3.7945609346e+03 3.7945609346e+03 0.0000000000e+00 0.0000e+00 1.0000e+00
       -2 -1    0    0    0  501 -0.0000000000e+00 -0.0000000000e+00 -6.7993964289e+02 6.7993964289e+02 0.0000000000e+00 0.0000e+00 -1.0000e+00
      -13  1    1    2    0    0 +2.9897997608e+02 -1.5679372919e+03 +1.3071585885e+03 2.0631238336e+03 0.0000000000e+00 0.0000e+00 -1.0000e+00
       13  1    1    2    0    0 -2.9897997608e+02 +1.5679372919e+03 +1.8074627032e+03 2.4113767439e+03 0.0000000000e+00 0.0000e+00 1.0000e+00
<mgrwt>
<rscale>  0 0.32125208E+04</rscale>
<asrwt>0</asrwt>
<pdfrwt beam="1">  1        2 0.58377860E+00 0.32125208E+04</pdfrwt>
<pdfrwt beam="2">  1       -2 0.10460610E+00 0.32125208E+04</pdfrwt>
<totfact> 0.35762909E-01</totfact>
</mgrwt>
<rwgt>
<wgt id='morphing_basis_vector_1'> +2.9645098e-05 </wgt>
<wgt id='morphing_basis_vector_2'> +2.1613697e-05 </wgt>
<wgt id='morphing_basis_vector_3'> +3.2713198e-05 </wgt>
<wgt id='morphing_basis_vector_4'> +2.1161437e-05 </wgt>
<wgt id='morphing_basis_vector_5'> +3.5956468e-05 </wgt>
</rwgt>
</event>
<event>
 4      1 +1.9882500e-09 3.30816700e+03 7.81860800e-03 7.67893600e-02
        2 -1    0    0  501    0 +0.0000000000e+00 +0.0000000000e+00 +2.3539955585e+03 2.3539955585e+03 0.0000000000e+00 0.0000e+00 1.0000e+00
       -2 -1    0    0    0  501 -0.0000000000e+00 -0.0000000000e+00 -1.1622761909e+03 1.1622761909e+03 0.0000000000e+00 0.0000e+00 -1.0000e+00
      -13  1    1    2    0    0 +1.1594747508e+03 +1.4831965410e+02 -6.4806421781e+02 1.3365506530e+03 0.0000000000e+00 0.0000e+00 -1.0000e+00
       13  1    1    2    0    0 -1.1594747508e+03 -1.4831965410e+02 +1.8397835854e+03 2.1797210965e+03 0.0000000000e+00 0.0000e+00 1.0000e+00
<mgrwt>
<rscale>  0 0.33081675E+04</rscale>
<asrwt>0</asrwt>
<pdfrwt beam="1">  1        2 0.36215316E+00 0.33081675E+04</pdfrwt>
<pdfrwt beam="2">  1       -2 0.17881172E+00 0.33081675E+04</pdfrwt>
<totfact> 0.74889512E-01</totfact>
</mgrwt>
<rwgt>
<wgt id='morphing_basis_vector_1'> +3.2554321e-05 </wgt>
<wgt id='morphing_basis_vector_2'> +2.2081425e-05 </wgt>
<wgt id='morphing_basis_vector_3'> +3.5597672e-05 </wgt>
<wgt id='morphing_basis_vector_4'> +2.5392553e-05 </wgt>
<wgt id='morphing_basis_vector_5'> +4.0599264e-05 </wgt>
</rwgt>
</event>
<event>
 4      1 +1.9882500e-09 3.24307200e+03 7.81860800e-03 7.69370700e-02
        2 -1    0    0  501    0 +0.0000000000e+00 +0.0000000000e+00 +3.2031506034e+03 3.2031506034e+03 0.0000000000e+00 0.0000e+00 1.0000e+00
       -2 -1    0    0    0  501 -0.0000000000e+00 -0.0000000000e+00 -8.2087255552e+02 8.2087255552e+02 0.0000000000e+00 0.0000e+00 -1.0000e+00
      -13  1    1    2    0    0 +1.3501133171e+03 +7.3869183961e+02 +1.8249308637e+03 2.3872252219e+03 0.0000000000e+00 0.0000e+00 1.0000e+00
       13  1    1    2    0    0 -1.3501133171e+03 -7.3869183961e+02 +5.5734718414e+02 1.6367979370e+03 0.0000000000e+00 0.0000e+00 -1.0000e+00
<mgrwt>
<rscale>  0 0.32430716E+04</rscale>
<asrwt>0</asrwt>
<pdfrwt beam="1">  1        2 0.49279239E+00 0.32430716E+04</pdfrwt>
<pdfrwt beam="2">  1       -2 0.12628809E+00 0.32430716E+04</pdfrwt>
<totfact> 0.59905695E-01</totfact>
</mgrwt>
<rwgt>
<wgt id='morphing_basis_vector_1'> +3.3262755e-05 </wgt>
<wgt id='morphing_basis_vector_2'> +2.9752326e-05 </wgt>
<wgt id='morphing_basis_vector_3'> +3.7893791e-05 </wgt>
<wgt id='morphing_basis_vector_4'> +1.6787505e-05 </wgt>
<wgt id='morphing_basis_vector_5'> +3.6925598e-05 </wgt>
</rwgt>
</event>
<event>
 4      1 +1.9882500e-09 3.34691700e+03 7.81860800e-03 7.67030900e-02
        2 -1    0    0  501    0 +0.0000000000e+00 +0.0000000000e+00 +2.1644954320e+03 2.1644954320e+03 0.0000000000e+00 0.0000e+00 -1.0000e+00
       -2 -1    0    0    0  501 -0.0000000000e+00 -0.0000000000e+00 -1.2938177294e+03 1.2938177294e+03 0.0000000000e+00 0.0000e+00 1.0000e+00
      -13  1    1    2    0    0 +3.3374424378e+02 +1.4616735353e+03 -3.3276526141e+02 1.5357758506e+03 0.0000000000e+00 0.0000e+00 1.0000e+00
       13  1    1    2    0    0 -3.3374424378e+02 -1.4616735353e+03 +1.2034429639e+03 1.9225373108e+03 0.0000000000e+00 0.0000e+00 -1.0000e+00
<mgrwt>
<rscale>  0 0.33469165E+04</rscale>
<asrwt>0</asrwt>
<pdfrwt beam="1">  1        2 0.33299930E+00 0.33469165E+04</pdfrwt>
<pdfrwt beam="2">  1       -2 0.19904888E+00 0.33469165E+04</pdfrwt>
<totfact> 0.67847918E-01</totfact>
</mgrwt>
<rwgt>
<wgt id='morphing_basis_vector_1'> +3.4256670e-05 </wgt>
<wgt id='morphing_basis_vector_2'> +2.3607282e-05 </wgt>
<wgt id='morphing_basis_vector_3'> +3.7550316e-05 </wgt>
<wgt id='morphing_basis_vector_4'> +2.6272679e-05 </wgt>
<wgt id='morphing_basis_vector_5'> +4.2521311e-05 </wgt>
</rwgt>
</event>
<event>
 4      1 +1.9882500e-09 3.23227200e+03 7.81860800e-03 7.69619200e-02
        2 -1    0    0  501    0 +0.0000000000e+00 +0.0000000000e+00 +1.2904043689e+03 1.2904043689e+03 0.0000000000e+00 0.0000e+00 1.0000e+00
       -2 -1    0    0    0  501 -0.0000000000e+00 -0.0000000000e+00 -2.0240902647e+03 2.0240902647e+03 0.0000000000e+00 0.0000e+00 -1.0000e+00
      -13  1    1    2    0    0 +4.6415640062e+02 -1.2976933337e+03 -1.2323794335e+03 1.8488396957e+03 0.0000000000e+00 0.0000e+00 -1.0000e+00
       13  1    1    2    0    0 -4.6415640062e+02 +1.2976933337e+03 +4.9869353763e+02 1.4656549379e+03 0.0000000000e+00 0.0000e+00 1.0000e+00
<mgrwt>
<rscale>  0 0.32322716E+04</rscale>
<asrwt>0</asrwt>
<pdfrwt beam="1">  1        2 0.19852375E+00 0.32322716E+04</pdfrwt>
<pdfrwt beam="2">  1       -2 0.31139850E+00 0.32322716E+04</pdfrwt>
<totfact> 0.35306675E-01</totfact>
</mgrwt>
<rwgt>
<wgt id='morphing_basis_vector_1'> +2.9771669e-05 </wgt>
<wgt id='morphing_basis_vector_2'> +2.0372227e-05 </wgt>
<wgt id='morphing_basis_vector_3'> +3.2573315e-05 </wgt>
<wgt id='morphing_basis_vector_4'> +2.2953161e-05 </wgt>
<wgt id='morphing_basis_vector_5'> +3.6960011e-05 </wgt>
</rwgt>
</event>
<event>
 4      1 +1.9882500e-09 3.24693800e+03 7.81860800e-03 7.69281900e-02
        2 -1    0    0  501    0 +0.0000000000e+00 +0.0000000000e+00 +1.7549569796e+03 1.7549569796e+03 0.0000000000e+00 0.0000e+00 -1.0000e+00
       -2 -1    0    0    0  501 -0.0000000000e+00 -0.0000000000e+00 -1.5018328512e+03 1.5018328512e+03 0.0000000000e+00 0.0000e+00 1.0000e+00
      -13  1    1    2    0    0 +1.2282491423e+03 +9.2518469618e+02 +6.4880423970e+02 1.6689846072e+03 0.0000000000e+00 0.0000e+00 1.0000e+00
       13  1    1    2    0    0 -1.2282491423e+03 -9.2518469618e+02 -3.9568011126e+02 1.5878052236e+03 0.0000000000e+00 0.0000e+00 -1.0000e+00
<mgrwt>
<rscale>  0 0.32469383E+04</rscale>
<asrwt>0</asrwt>
<pdfrwt beam="1">  1        2 0.26999338E+00 0.32469383E+04</pdfrwt>
<pdfrwt beam="2">  1       -2 0.23105121E+00 0.32469383E+04</pdfrwt>
<totfact> 0.68643712E-01</totfact>
</mgrwt>
<rwgt>
<wgt id='morphing_basis_vector_1'> +3.3479095e-05 </wgt>
<wgt id='morphing_basis_vector_2'> +3.0066379e-05 </wgt>
<wgt id='morphing_basis_vector_3'> +3.8167728e-05 </wgt>
<wgt id='morphing_basis_vector_4'> +1.6745512e-05 </wgt>
<wgt id='morphing_basis_vector_5'> +3.7093179e-05 </wgt>
</rwgt>
</event>
<event>
 4      1 +1.9882500e-09 3.52944000e+03 7.81860800e-03 7.63122800e-02
        2 -1    0    0  501    0 +0.0000000000e+00 +0.0000000000e+00 +1.1037139560e+03 1.1037139560e+03 0.0000000000e+00 0.0000e+00 1.0000e+00
       -2 -1    0    0    0  501 -0.0000000000e+00 -0.0000000000e+00 -2.8215976869e+03 2.8215976869e+03 0.0000000000e+00 0.0000e+00 -1.0000e+00
      -13  1    1    2    0    0 +7.9619289652e+02 +1.5379328551e+03 -1.2362194442e+03 2.1277685751e+03 0.0000000000e+00 0.0000e+00 -1.0000e+00
       13  1    1    2    0    0 -7.9619289652e+02 -1.5379328551e+03 -4.8166428670e+02 1.7975430677e+03 0.0000000000e+00 0.0000e+00 1.0000e+00
<mgrwt>
<rscale>  0 0.35294400E+04</rscale>
<asrwt>0</asrwt>
<pdfrwt beam="1">  1        2 0.16980215E+00 0.35294400E+04</pdfrwt>
<pdfrwt beam="2">  1       -2 0.43409196E+00 0.35294400E+04</pdfrwt>
<totfact> 0.69582936E-02</totfact>
</mgrwt>
<rwgt>
<wgt id='morphing_basis_vector_1'> +4.2800702e-05 </wgt>
<wgt id='morphing_basis_vector_2'> +3.0645948e-05 </wgt>
<wgt id='morphing_basis_vector_3'> +4.7227461e-05 </wgt>
<wgt id='morphing_basis_vector_4'> +3.1484051e-05 </wgt>
<wgt id='morphing_basis_vector_5'> +5.2571672e-05 </wgt>
</rwgt>
</event>
<event>
 4      1 +1.9882500e-09 3.62068400e+03 7.81860800e-03 7.61259100e-02
        2 -1    0    0  501    0 +0.0000000000e+00 +0.0000000000e+00 +1.3005591357e+03 1.3005591357e+03 0.0000000000e+00 0.0000e+00 -1.0000e+00
       -2 -1    0    0    0  501 -0.0000000000e+00 -0.0000000000e+00 -2.5199450311e+03 2.5199450311e+03 0.0000000000e+00 0.0000e+00 1.0000e+00
      -13  1    1    2    0    0 +5.6910761103e+02 +1.0028477914e+03 -2.0823334594e+03 2.3802730520e+03 0.0000000000e+00 0.0000e+00 1.0000e+00
       13  1    1    2    0    0 -5.6910761103e+02 -1.0028477914e+03 +8.6294756406e+02 1.4402311148e+03 0.0000000000e+00 0.0000e+00 -1.0000e+00
<mgrwt>
<rscale>  0 0.36206837E+04</rscale>
<asrwt>0</asrwt>
<pdfrwt beam="1">  1        2 0.20008602E+00 0.36206837E+04</pdfrwt>
<pdfrwt beam="2">  1       -2 0.38768384E+00 0.36206837E+04</pdfrwt>
<totfact> 0.10729034E-01</totfact>
</mgrwt>
<rwgt>
<wgt id='morphing_basis_vector_1'> +4.6572099e-05 </wgt>
<wgt id='morphing_basis_vector_2'> +3.1582432e-05 </wgt>
<wgt id='morphing_basis_vector_3'> +5.1031631e-05 </wgt>
<wgt id='morphing_basis_vector_4'> +3.6570531e-05 </wgt>
<wgt id='morphing_basis_vector_5'> +5.8398842e-05 </wgt>
</rwgt>
</event>
<event>
 4      1 +1.9882500e-09 3.55534700e+03 7.81860800e-03 7.62587800e-02
        2 -1    0    0  501    0 +0.0000000000e+00 +0.0000000000e+00 +2.0684915781e+03 2.0684915781e+03 0.0000000000e+00 0.0000e+00 -1.0000e+00
       -2 -1    0    0    0  501 -0.0000000000e+00 -0.0000000000e+00 -1.5277430830e+03 1.5277430830e+03 0.0000000000e+00 0.0000e+00 1.0000e+00
      -13  1    1    2    0    0 +8.8416753311e+02 +6.0159046883e+02 -1.1659775828e+03 1.5821400199e+03 0.0000000000e+00 0.0000e+00 1.0000e+00
       13  1    1    2    0    0 -8.8416753311e+02 -6.0159046883e+02 +1.7067260779e+03 2.0140946412e+03 0.0000000000e+00 0.0000e+00 -1.0000e+00
<mgrwt>
<rscale>  0 0.35553474E+04</rscale>
<asrwt>0</asrwt>
<pdfrwt beam="1">  1        2 0.31822947E+00 0.35553474E+04</pdfrwt>
<pdfrwt beam="2">  1       -2 0.23503740E+00 0.35553474E+04</pdfrwt>
<totfact> 0.41874716E-01</totfact>
</mgrwt>
<rwgt>
<wgt id='morphing_basis_vector_1'> +4.3313008e-05 </wgt>
<wgt id='morphing_basis_vector_2'> +2.9347304e-05 </wgt>
<wgt id='morphing_basis_vector_3'> +4.7436279e-05 </wgt>
<wgt id='morphing_basis_vector_4'> +3.4002156e-05 </wgt>
<wgt id='morphing_basis_vector_5'> +5.4273151e-05 </wgt>
</rwgt>
</event>
<event>
 4      1 +1.9882500e-09 3.21596400e+03 7.81860800e-03 7.69996300e-02
        2 -1    0    0  501    0 +0.0000000000e+00 +0.0000000000e+00 +2.5570465580e+03 2.5570465580e+03 0.0000000000e+00 0.0000e+00 1.0000e+00
       -2 -1    0    0    0  501 -0.0000000000e+00 -0.0000000000e+00 -1.0111689253e+03 1.0111689253e+03 0.0000000000e+00 0.0000e+00 -1.0000e+00
      -13  1    1    2    0    0 +6.0825993921e+02 +2.2540245524e+02 -8.5955204286e+02 1.0768547418e+03 0.0000000000e+00 0.0000e+00 -1.0000e+00
       13  1    1    2    0    0 -6.0825993921e+02 -2.2540245524e+02 +2.4054296755e+03 2.4913607415e+03 0.0000000000e+00 0.0000e+00 1.0000e+00
<mgrwt>
<rscale>  0 0.32159639E+04</rscale>
<asrwt>0</asrwt>
<pdfrwt beam="1">  1        2 0.39339178E+00 0.32159639E+04</pdfrwt>
<pdfrwt beam="2">  1       -2 0.15556445E+00 0.32159639E+04</pdfrwt>
<totfact> 0.87079757E-01</totfact>
</mgrwt>
<rwgt>
<wgt id='morphing_basis_vector_1'> +2.9066861e-05 </wgt>
<wgt id='morphing_basis_vector_2'> +1.9632429e-05 </wgt>
<wgt id='morphing_basis_vector_3'> +3.1742778e-05 </wgt>
<wgt id='morphing_basis_vector_4'> +2.2726758e-05 </wgt>
<wgt id='morphing_basis_vector_5'> +3.6233671e-05 </wgt>
</rwgt>
</event>
<event>
 4      1 +1.9882500e-09 3.21474700e+03 7.81860800e-03 7.70024600e-02
        2 -1    0    0  501    0 +0.0000000000e+00 +0.0000000000e+00 +1.4273808669e+03 1.4273808669e+03 0.0000000000e+00 0.0000e+00 -1.0000e+00
       -2 -1    0    0    0  501 -0.0000000000e+00 -0.0000000000e+00 -1.8100629173e+03 1.8100629173e+03 0.0000000000e+00 0.0000e+00 1.0000e+00
      -13  1    1    2    0    0 +4.6876152976e+02 +7.2002990454e+02 -1.5594125890e+03 1.7804347946e+03 0.0000000000e+00 0.0000e+00 1.0000e+00
       13  1    1    2    0    0 -4.6876152976e+02 -7.2002990454e+02 +1.1767305386e+03 1.4570089896e+03 0.0000000000e+00 0.0000e+00 -1.0000e+00
<mgrwt>
<rscale>  0 0.32147468E+04</rscale>
<asrwt>0</asrwt>
<pdfrwt beam="1">  1        2 0.21959706E+00 0.32147468E+04</pdfrwt>
<pdfrwt beam="2">  1       -2 0.27847122E+00 0.32147468E+04</pdfrwt>
<totfact> 0.49347116E-01</totfact>
</mgrwt>
<rwgt>
<wgt id='morphing_basis_vector_1'> +2.9029227e-05 </wgt>
<wgt id='morphing_basis_vector_2'> +1.9620475e-05 </wgt>
<wgt id='morphing_basis_vector_3'> +3.1704235e-05 </wgt>
<wgt id='morphing_basis_vector_4'> +2.2679564e-05 </wgt>
<wgt id='morphing_basis_vector_5'> +3.6177389e-05 </wgt>
</rwgt>
</event>
<event>
 4      1 +1.9882500e-09 3.65621400e+03 7.81860800e-03 7.60548500e-02
        2 -1    0    0  501    0 +0.0000000000e+00 +0.0000000000e+00 +2.1995654266e+03 2.1995654266e+03 0.0000000000e+00 0.0000e+00 -1.0000e+00
       -2 -1    0    0    0  501 -0.0000000000e+00 -0.0000000000e+00 -1.5193800843e+03 1.5193800843e+03 0.0000000000e+00 0.0000e+00 1.0000e+00
      -13  1    1    2    0    0 +3.9704937381e+02 +2.2769358202e+02 -1.4601561980e+03 1.5302119772e+03 0.0000000000e+00 0.0000e+00 1.0000e+00
       13  1    1    2    0    0 -3.9704937381e+02 -2.2769358202e+02 +2.1403415403e+03 2.1887335337e+03 0.0000000000e+00 0.0000e+00 -1.0000e+00
<mgrwt>
<rscale>  0 0.36562144E+04</rscale>
<asrwt>0</asrwt>
<pdfrwt beam="1">  1        2 0.33839468E+00 0.36562144E+04</pdfrwt>
<pdfrwt beam="2">  1       -2 0.23375078E+00 0.36562144E+04</pdfrwt>
<totfact> 0.35703894E-01</totfact>
</mgrwt>
<rwgt>
<wgt id='morphing_basis_vector_1'> +4.8383110e-05 </wgt>
<wgt id='morphing_basis_vector_2'> +3.2741855e-05 </wgt>
<wgt id='morphing_basis_vector_3'> +5.3011821e-05 </wgt>
<wgt id='morphing_basis_vector_4'> +3.8104407e-05 </wgt>
<wgt id='morphing_basis_vector_5'> +6.0745065e-05 </wgt>
</rwgt>
</event>
<event>
 4      1 +1.9882500e-09 3.42454200e+03 7.81860800e-03 7.65338300e-02
        2 -1    0    0  501    0 +0.0000000000e+00 +0.0000000000e+00 +1.6099248346e+03 1.6099248346e+03 0.0000000000e+00 0.0000e+00 -1.0000e+00
       -2 -1    0    0    0  501 -0.0000000000e+00 -0.0000000000e+00 -1.8211231263e+03 1.8211231263e+03 0.0000000000e+00 0.0000e+00 1.0000e+00
      -13  1    1    2    0    0 +2.3439076915e+02 +2.9367195156e+02 -1.7793085897e+03 1.8185492309e+03 0.0000000000e+00 0.0000e+00 1.0000e+00
       13  1    1    2    0    0 -2.3439076915e+02 -2.9367195156e+02 +1.5681102980e+03 1.6124987301e+03 0.0000000000e+00 0.0000e+00 -1.0000e+00
<mgrwt>
<rscale>  0 0.34245416E+04</rscale>
<asrwt>0</asrwt>
<pdfrwt beam="1">  1        2 0.24768074E+00 0.34245416E+04</pdfrwt>
<pdfrwt beam="2">  1       -2 0.28017279E+00 0.34245416E+04</pdfrwt>
<totfact> 0.37326854E-01</totfact>
</mgrwt>
<rwgt>
<wgt id='morphing_basis_vector_1'> +3.7300909e-05 </wgt>
<wgt id='morphing_basis_vector_2'> +2.5215901e-05 </wgt>
<wgt id='morphing_basis_vector_3'> +4.0804267e-05 </wgt>
<wgt id='morphing_basis_vector_4'> +2.9279150e-05 </wgt>
<wgt id='morphing_basis_vector_5'> +4.6673626e-05 </wgt>
</rwgt>
</event>
<event>
 4      1 +1.9882500e-09 3.21062100e+03 7.81860800e-03 7.70120400e-02
        2 -1    0    0  501    0 +0.0000000000e+00 +0.0000000000e+00 +1.3756720568e+03 1.3756720568e+03 0.0000000000e+00 0.0000e+00 1.0000e+00
       -2 -1    0    0    0  501 -0.0000000000e+00 -0.0000000000e+00 -1.8732819519e+03 1.8732819519e+03 0.0000000000e+00 0.0000e+00 -1.0000e+00
      -13  1    1    2    0    0 -9.7687276893e+02 +1.2735103154e+03 -2.7937667116e+02 1.6291593705e+03 0.0000000000e+00 0.0000e+00 -1.0000e+00
       13  1    1    2    0    0 +9.7687276893e+02 -1.2735103154e+03 -2.1823322390e+02 1.6197946382e+03 0.0000000000e+00 0.0000e+00 1.0000e+00
<mgrwt>
<rscale>  0 0.32106209E+04</rscale>
<asrwt>0</asrwt>
<pdfrwt beam="1">  1        2 0.21164185E+00 0.32106209E+04</pdfrwt>
<pdfrwt beam="2">  1       -2 0.28819722E+00 0.32106209E+04</pdfrwt>
<totfact> 0.45336041E-01</totfact>
</mgrwt>
<rwgt>
<wgt id='morphing_basis_vector_1'> +2.9864427e-05 </wgt>
<wgt id='morphing_basis_vector_2'> +2.2413000e-05 </wgt>
<wgt id='morphing_basis_vector_3'> +3.3091248e-05 </wgt>
<wgt id='morphing_basis_vector_4'> +2.0506899e-05 </wgt>
<wgt id='morphing_basis_vector_5'> +3.5820984e-05 </wgt>
</rwgt>
</event>
<event>
 4      1 +1.9882500e-09 3.23962200e+03 7.81860800e-03 7.69449900e-02
        2 -1    0    0  501    0 +0.0000000000e+00 +0.0000000000e+00 +1.5709516767e+03 1.5709516767e+03 0.0000000000e+00 0.0000e+00 -1.0000e+00
       -2 -1    0    0    0  501 -0.0000000000e+00 -0.0000000000e+00 -1.6701895720e+03 1.6701895720e+03 0.0000000000e+00 0.0000e+00 1.0000e+00
      -13  1    1    2    0    0 +8.0678125092e+02 -9.4547675646e+02 -1.0888384986e+03 1.6523896513e+03 0.0000000000e+00 0.0000e+00 1.0000e+00
       13  1    1    2    0    0 -8.0678125092e+02 +9.4547675646e+02 +9.8960060330e+02 1.5887515973e+03 0.0000000000e+00 0.0000e+00 -1.0000e+00
<mgrwt>
<rscale>  0 0.32396216E+04</rscale>
<asrwt>0</asrwt>
<pdfrwt beam="1">  1        2 0.24168487E+00 0.32396216E+04</pdfrwt>
<pdfrwt beam="2">  1       -2 0.25695224E+00 0.32396216E+04</pdfrwt>
<totfact> 0.57460218E-01</totfact>
</mgrwt>
<rwgt>
<wgt id='morphing_basis_vector_1'> +2.9980354e-05 </wgt>
<wgt id='morphing_basis_vector_2'> +2.0378295e-05 </wgt>
<wgt id='morphing_basis_vector_3'> +3.2774365e-05 </wgt>
<wgt id='morphing_basis_vector_4'> +2.3291676e-05 </wgt>
<wgt id='morphing_basis_vector_5'> +3.7310439e-05 </wgt>
</rwgt>
</event>
<event>
 4      1 +1.9882500e-09 3.28502100e+03 7.81860800e-03 7.68414800e-02
        2 -1    0    0  501    0 +0.0000000000e+00 +0.0000000000e+00 +1.5969296743e+03 1.5969296743e+03 0.0000000000e+00 0.0000e+00 -1.0000e+00
       -2 -1    0    0    0  501 -0.0000000000e+00 -0.0000000000e+00 -1.6893923867e+03 1.6893923867e+03 0.0000000000e+00 0.0000e+00 1.0000e+00
      -13  1    1    2    0    0 -8.0435272052e+02 -8.2636227460e+02 -1.2163025921e+03 1.6760817114e+03 0.0000000000e+00 0.0000e+00 1.0000e+00
       13  1    1    2    0    0 +8.0435272052e+02 +8.2636227460e+02 +1.1238398797e+03 1.6102403495e+03 0.0000000000e+00 0.0000e+00 -1.0000e+00
<mgrwt>
<rscale>  0 0.32850211E+04</rscale>
<asrwt>0</asrwt>
<pdfrwt beam="1">  1        2 0.24568149E+00 0.32850211E+04</pdfrwt>
<pdfrwt beam="2">  1       -2 0.25990652E+00 0.32850211E+04</pdfrwt>
<totfact> 0.52836533E-01</totfact>
</mgrwt>
<rwgt>
<wgt id='morphing_basis_vector_1'> +3.1658076e-05 </wgt>
<wgt id='morphing_basis_vector_2'> +2.1467723e-05 </wgt>
<wgt id='morphing_basis_vector_3'> +3.4610157e-05 </wgt>
<wgt id='morphing_basis_vector_4'> +2.4687212e-05 </wgt>
<wgt id='morphing_basis_vector_5'> +3.9466999e-05 </wgt>
</rwgt>
</event>
<event>
 4      1 +1.9882500e-09 3.23744700e+03 7.81860800e-03 7.69500000e-02
        2 -1    0    0  501    0 +0.0000000000e+00 +0.0000000000e+00 +2.1378431973e+03 2.1378431973e+03 0.0000000000e+00 0.0000e+00 -1.0000e+00
       -2 -1    0    0    0  501 -0.0000000000e+00 -0.0000000000e+00 -1.2256583930e+03 1.2256583930e+03 0.0000000000e+00 0.0000e+00 1.0000e+00
      -13  1    1    2    0    0 +9.1818437275e+02 +1.1879814316e+03 -1.7235943601e+02 1.5113140638e+03 0.0000000000e+00 0.0000e+00 1.0000e+00
       13  1    1    2    0    0 -9.1818437275e+02 -1.1879814316e+03 +1.0845442403e+03 1.8521875265e+03 0.0000000000e+00 0.0000e+00 -1.0000e+00
<mgrwt>
<rscale>  0 0.32374468E+04</rscale>
<asrwt>0</asrwt>
<pdfrwt beam="1">  1        2 0.32889895E+00 0.32374468E+04</pdfrwt>
<pdfrwt beam="2">  1       -2 0.18856283E+00 0.32374468E+04</pdfrwt>
<totfact> 0.84764236E-01</totfact>
</mgrwt>
<rwgt>
<wgt id='morphing_basis_vector_1'> +3.0090074e-05 </wgt>
<wgt id='morphing_basis_vector_2'> +2.0881609e-05 </wgt>
<wgt id='morphing_basis_vector_3'> +3.2985518e-05 </wgt>
<wgt id='morphing_basis_vector_4'> +2.2832121e-05 </wgt>
<wgt id='morphing_basis_vector_5'> +3.7176851e-05 </wgt>
</rwgt>
</event>
<event>
 4      1 +1.9882500e-09 3.43964700e+03 7.81860800e-03 7.65014200e-02
        2 -1    0    0  501    0 +0.0000000000e+00 +0.0000000000e+00 +2.2728641543e+03 2.2728641543e+03 0.0000000000e+00 0.0000e+00 -1.0000e+00
       -2 -1    0    0    0  501 -0.0000000000e+00 -0.0000000000e+00 -1.3013506347e+03 1.3013506347e+03 0.0000000000e+00 0.0000e+00 1.0000e+00
      -13  1    1    2    0    0 -1.2578879782e+03 -1.1702395926e+03 +4.0492972760e+02 1.7651376587e+03 0.0000000000e+00 0.0000e+00 1.0000e+00
       13  1    1    2    0    0 +1.2578879782e+03 +1.1702395926e+03 +5.6658379195e+02 1.8090771303e+03 0.0000000000e+00 0.0000e+00 -1.0000e+00
<mgrwt>
<rscale>  0 0.34396472E+04</rscale>
<asrwt>0</asrwt>
<pdfrwt beam="1">  1        2 0.34967141E+00 0.34396472E+04</pdfrwt>
<pdfrwt beam="2">  1       -2 0.20020779E+00 0.34396472E+04</pdfrwt>
<totfact> 0.57210489E-01</totfact>
</mgrwt>
<rwgt>
<wgt id='morphing_basis_vector_1'> +3.9142135e-05 </wgt>
<wgt id='morphing_basis_vector_2'> +2.9143979e-05 </wgt>
<wgt id='morphing_basis_vector_3'> +4.3406188e-05 </wgt>
<wgt id='morphing_basis_vector_4'> +2.7317386e-05 </wgt>
<wgt id='morphing_basis_vector_5'> +4.7302459e-05 </wgt>
</rwgt>
</event>
<event>
 4      1 +1.9882500e-09 3.56234600e+03 7.81860800e-03 7.62444100e-02
        2 -1    0    0  501    0 +0.0000000000e+00 +0.0000000000e+00 +1.6308412820e+03 1.6308412820e+03 0.0000000000e+00 0.0000e+00 -1.0000e+00
       -2 -1    0    0    0  501 -0.0000000000e+00 -0.0000000000e+00 -1.9453627193e+03 1.9453627193e+03 0.0000000000e+00 0.0000e+00 1.0000e+00
      -13  1    1    2    0    0 +1.5961376397e+03 -7.1698637956e+02 -4.9150183104e+02 1.8174979733e+03 0.0000000000e+00 0.0000e+00 1.0000e+00
       13  1    1    2    0    0 -1.5961376397e+03 +7.1698637956e+02 +1.7698039373e+02 1.7587060280e+03 0.0000000000e+00 0.0000e+00 -1.0000e+00
<mgrwt>
<rscale>  0 0.35623463E+04</rscale>
<asrwt>0</asrwt>
<pdfrwt beam="1">  1        2 0.25089866E+00 0.35623463E+04</pdfrwt>
<pdfrwt beam="2">  1       -2 0.29928657E+00 0.35623463E+04</pdfrwt>
<totfact> 0.26659440E-01</totfact>
</mgrwt>
<rwgt>
<wgt id='morphing_basis_vector_1'> +4.4425107e-05 </wgt>
<wgt id='morphing_basis_vector_2'> +3.1849913e-05 </wgt>
<wgt id='morphing_basis_vector_3'> +4.9039588e-05 </wgt>
<wgt id='morphing_basis_vector_4'> +3.2647487e-05 </wgt>
<wgt id='morphing_basis_vector_5'> +5.4569721e-05 </wgt>
</rwgt>
</event>
<event>
 4      1 +1.9882500e-09 3.35950100e+03 7.81860800e-03 7.66753300e-02
        2 -1    0    0  501    0 +0.0000000000e+00 +0.0000000000e+00 +1.6558224562e+03 1.6558224562e+03 0.0000000000e+00 0.0000e+00 1.0000e+00
       -2 -1    0    0    0  501 -0.0000000000e+00 -0.0000000000e+00 -1.7040243252e+03 1.7040243252e+03 0.0000000000e+00 0.0000e+00 -1.0000e+00
      -13  1    1    2    0    0 +1.3867999636e+03 +9.2160659385e+02 -2.4545805675e+02 1.6830990793e+03 0.0000000000e+00 0.0000e+00 -1.0000e+00
       13  1    1    2    0    0 -1.3867999636e+03 -9.2160659385e+02 +1.9725618782e+02 1.6767477021e+03 0.0000000000e+00 0.0000e+00 1.0000e+00
<mgrwt>
<rscale>  0 0.33595010E+04</rscale>
<asrwt>0</asrwt>
<pdfrwt beam="1">  1        2 0.25474192E+00 0.33595010E+04</pdfrwt>
<pdfrwt beam="2">  1       -2 0.26215759E+00 0.33595010E+04</pdfrwt>
<totfact> 0.46991196E-01</totfact>
</mgrwt>
<rwgt>
<wgt id='morphing_basis_vector_1'> +3.5344924e-05 </wgt>
<wgt id='morphing_basis_vector_2'> +2.5651984e-05 </wgt>
<wgt id='morphing_basis_vector_3'> +3.9026746e-05 </wgt>
<wgt id='morphing_basis_vector_4'> +2.5469106e-05 </wgt>
<wgt id='morphing_basis_vector_5'> +4.3069474e-05 </wgt>
</rwgt>
</event>
<event>
 4      1 +1.9882500e-09 3.32681200e+03 7.81860800e-03 7.67477000e-02
        2 -1    0    0  501    0 +0.0000000000e+00 +0.0000000000e+00 +1.5392681378e+03 1.5392681378e+03 0.0000000000e+00 0.0000e+00 -1.0000e+00
       -2 -1    0    0    0  501 -0.0000000000e+00 -0.0000000000e+00 -1.7975550742e+03 1.7975550742e+03 0.0000000000e+00 0.0000e+00 1.0000e+00
      -13  1    1    2    0    0 +5.5544763697e+02 +1.5213037320e+03 -5.0980119546e+02 1.6978764329e+03 0.0000000000e+00 0.0000e+00 1.0000e+00
       13  1    1    2    0    0 -5.5544763697e+02 -1.5213037320e+03 +2.5151425907e+02 1.6389467791e+03 0.0000000000e+00 0.0000e+00 -1.0000e+00
<mgrwt>
<rscale>  0 0.33268118E+04</rscale>
<asrwt>0</asrwt>
<pdfrwt beam="1">  1        2 0.23681049E+00 0.33268118E+04</pdfrwt>
<pdfrwt beam="2">  1       -2 0.27654693E+00 0.33268118E+04</pdfrwt>
<totfact> 0.43613307E-01</totfact>
</mgrwt>
<rwgt>
<wgt id='morphing_basis_vector_1'> +3.3762595e-05 </wgt>
<wgt id='morphing_basis_vector_2'> +2.3975937e-05 </wgt>
<wgt id='morphing_basis_vector_3'> +3.7155953e-05 </wgt>
<wgt id='morphing_basis_vector_4'> +2.4980957e-05 </wgt>
<wgt id='morphing_basis_vector_5'> +4.1446939e-05 </wgt>
</rwgt>
</event>
<event>
 4      1 +1.9882500e-09 3.45971900e+03 7.81860800e-03 7.64586300e-02
        2 -1    0    0  501    0 +0.0000000000e+00 +0.0000000000e+00 +2.1973281336e+03 2.1973281336e+03 0.0000000000e+00 0.0000e+00 -1.0000e+00
       -2 -1    0    0    0  501 -0.0000000000e+00 -0.0000000000e+00 -1.3618423440e+03 1.3618423440e+03 0.0000000000e+00 0.0000e+00 1.0000e+00
      -13  1    1    2    0    0 -1.2862555279e+02 +1.4099123132e+03 -6.0482035252e+02 1.5395469862e+03 0.0000000000e+00 0.0000e+00 1.0000e+00
       13  1    1    2    0    0 +1.2862555279e+02 -1.4099123132e+03 +1.4403061421e+03 2.0196234914e+03 0.0000000000e+00 0.0000e+00 -1.0000e+00
<mgrwt>
<rscale>  0 0.34597194E+04</rscale>
<asrwt>0</asrwt>
<pdfrwt beam="1">  1        2 0.33805048E+00 0.34597194E+04</pdfrwt>
<pdfrwt beam="2">  1       -2 0.20951421E+00 0.34597194E+04</pdfrwt>
<totfact> 0.54053683E-01</totfact>
</mgrwt>
<rwgt>
<wgt id='morphing_basis_vector_1'> +3.8960887e-05 </wgt>
<wgt id='morphing_basis_vector_2'> +2.6602014e-05 </wgt>
<wgt id='morphing_basis_vector_3'> +4.2687821e-05 </wgt>
<wgt id='morphing_basis_vector_4'> +3.0268447e-05 </wgt>
<wgt id='morphing_basis_vector_5'> +4.8614573e-05 </wgt>
</rwgt>
</event>
<event>
 4      1 +1.9882500e-09 3.63009600e+03 7.81860800e-03 7.61070000e-02
        2 -1    0    0  501    0 +0.0000000000e+00 +0.0000000000e+00 +4.9134785263e+03 4.9134785263e+03 0.0000000000e+00 0.0000e+00 1.0000e+00
       -2 -1    0    0    0  501 -0.0000000000e+00 -0.0000000000e+00 -6.7048211189e+02 6.7048211189e+02 0.0000000000e+00 0.0000e+00 -1.0000e+00
      -13  1    1    2    0    0 +1.5701627243e+03 -4.7446287493e+02 +9.2614240312e+02 1.8836840901e+03 0.0000000000e+00 0.0000e+00 1.0000e+00
       13  1    1    2    0    0 -1.5701627243e+03 +4.7446287493e+02 +3.3168540113e+03 3.7002765481e+03 0.0000000000e+00 0.0000e+00 -1.0000e+00
<mgrwt>
<rscale>  0 0.36300961E+04</rscale>
<asrwt>0</asrwt>
<pdfrwt beam="1">  1        2 0.75591975E+00 0.36300961E+04</pdfrwt>
<pdfrwt beam="2">  1       -2 0.10315110E+00 0.36300961E+04</pdfrwt>
<totfact> 0.27871837E-02</totfact>
</mgrwt>
<rwgt>
<wgt id='morphing_basis_vector_1'> +4.7325549e-05 </wgt>
<wgt id='morphing_basis_vector_2'> +3.2706311e-05 </wgt>
<wgt id='morphing_basis_vector_3'> +5.1994921e-05 </wgt>
<wgt id='morphing_basis_vector_4'> +3.6385251e-05 </wgt>
<wgt id='morphing_basis_vector_5'> +5.8964930e-05 </wgt>
</rwgt>
</event>
<event>
 4      1 +1.9882500e-09 3.43586400e+03 7.81860800e-03 7.65095200e-02
        2 -1    0    0  501    0 +0.0000000000e+00 +0.0000000000e+00 +2.1058215562e+03 2.1058215562e+03 0.0000000000e+00 0.0000e+00 1.0000e+00
       -2 -1    0    0    0  501 -0.0000000000e+00 -0.0000000000e+00 -1.4014912162e+03 1.4014912162e+03 0.0000000000e+00 0.0000e+00 -1.0000e+00
      -13  1    1    2    0    0 -9.4280032117e+02 -1.2746324251e+03 -3.2320481798e+02 1.6180301663e+03 0.0000000000e+00 0.0000e+00 -1.0000e+00
       13  1    1    2    0    0 +9.4280032117e+02 +1.2746324251e+03 +1.0275351579e+03 1.8892826061e+03 0.0000000000e+00 0.0000e+00 1.0000e+00
<mgrwt>
<rscale>  0 0.34358640E+04</rscale>
<asrwt>0</asrwt>
<pdfrwt beam="1">  1        2 0.32397255E+00 0.34358640E+04</pdfrwt>
<pdfrwt beam="2">  1       -2 0.21561403E+00 0.34358640E+04</pdfrwt>
<totfact> 0.55223329E-01</totfact>
</mgrwt>
<rwgt>
<wgt id='morphing_basis_vector_1'> +3.8090377e-05 </wgt>
<wgt id='morphing_basis_vector_2'> +2.6424419e-05 </wgt>
<wgt id='morphing_basis_vector_3'> +4.1817787e-05 </wgt>
<wgt id='morphing_basis_vector_4'> +2.9046787e-05 </wgt>
<wgt id='morphing_basis_vector_5'> +4.7246502e-05 </wgt>
</rwgt>
</event>
<event>
 4      1 +1.9882500e-09 3.71792500e+03 7.81860800e-03 7.59333700e-02
        2 -1    0    0  501    0 +0.0000000000e+00 +0.0000000000e+00 +1.4979325310e+03 1.4979325310e+03 0.0000000000e+00 0.0000e+00 1.0000e+00
       -2 -1    0    0    0  501 -0.0000000000e+00 -0.0000000000e+00 -2.3070080316e+03 2.3070080316e+03 0.0000000000e+00 0.0000e+00 -1.0000e+00
      -13  1    1    2    0    0 -1.6948650236e+03 -7.6340825642e+02 -4.2456003801e+02 1.9067277834e+03 0.0000000000e+00 0.0000e+00 -1.0000e+00
       13  1    1    2    0    0 +1.6948650236e+03 +7.6340825642e+02 -3.8451546253e+02 1.8982127792e+03 0.0000000000e+00 0.0000e+00 1.0000e+00
<mgrwt>
<rscale>  0 0.37179254E+04</rscale>
<asrwt>0</asrwt>
<pdfrwt beam="1">  1        2 0.23045116E+00 0.37179254E+04</pdfrwt>
<pdfrwt beam="2">  1       -2 0.35492431E+00 0.37179254E+04</pdfrwt>
<totfact> 0.13378586E-01</totfact>
</mgrwt>
<rwgt>
<wgt id='morphing_basis_vector_1'> +5.3542390e-05 </wgt>
<wgt id='morphing_basis_vector_2'> +4.0384574e-05 </wgt>
<wgt id='morphing_basis_vector_3'> +5.9602439e-05 </wgt>
<wgt id='morphing_basis_vector_4'> +3.6899916e-05 </wgt>
<wgt id='morphing_basis_vector_5'> +6.4656041e-05 </wgt>
</rwgt>
</event>
<event>
 4      1 +1.9882500e-09 3.49683200e+03 7.81860800e-03 7.63802900e-02
        2 -1    0    0  501    0 +0.0000000000e+00 +0.0000000000e+00 +2.5709594802e+03 2.5709594802e+03 0.0000000000e+00 0.0000e+00 1.0000e+00
       -2 -1    0    0    0  501 -0.0000000000e+00 -0.0000000000e+00 -1.1890341790e+03 1.1890341790e+03 0.0000000000e+00 0.0000e+00 -1.0000e+00
      -13  1    1    2    0    0 +5.0816388533e+01 +9.8645637047e+02 -8.6027240226e+02 1.3098652917e+03 0.0000000000e+00 0.0000e+00 -1.0000e+00
       13  1    1    2    0    0 -5.0816388533e+01 -9.8645637047e+02 +2.2421977035e+03 2.4501283676e+03 0.0000000000e+00 0.0000e+00 1.0000e+00
<mgrwt>
<rscale>  0 0.34968321E+04</rscale>
<asrwt>0</asrwt>
<pdfrwt beam="1">  1        2 0.39553223E+00 0.34968321E+04</pdfrwt>
<pdfrwt beam="2">  1       -2 0.18292834E+00 0.34968321E+04</pdfrwt>
<totfact> 0.51002267E-01</totfact>
</mgrwt>
<rwgt>
<wgt id='morphing_basis_vector_1'> +4.0543421e-05 </wgt>
<wgt id='morphing_basis_vector_2'> +2.7451087e-05 </wgt>
<wgt id='morphing_basis_vector_3'> +4.4382246e-05 </wgt>
<wgt id='morphing_basis_vector_4'> +3.1816705e-05 </wgt>
<wgt id='morphing_basis_vector_5'> +5.0766797e-05 </wgt>
</rwgt>
</event>
<event>
 4      1 +1.9882500e-09 3.31004900e+03 7.81860800e-03 7.67851400e-02
        2 -1    0    0  501    0 +0.0000000000e+00 +0.0000000000e+00 +2.0508065991e+03 2.0508065991e+03 0.0000000000e+00 0.0000e+00 -1.0000e+00
       -2 -1    0    0    0  501 -0.0000000000e+00 -0.0000000000e+00 -1.3356236491e+03 1.3356236491e+03 0.0000000000e+00 0.0000e+00 1.0000e+00
      -13  1    1    2    0    0 +5.7212121047e+02 +7.3736067793e+02 -1.0407258667e+03 1.3979033509e+03 0.0000000000e+00 0.0000e+00 1.0000e+00
       13  1    1    2    0    0 -5.7212121047e+02 -7.3736067793e+02 +1.7559088167e+03 1.9885268974e+03 0.0000000000e+00 0.0000e+00 -1.0000e+00
<mgrwt>
<rscale>  0 0.33100488E+04</rscale>
<asrwt>0</asrwt>
<pdfrwt beam="1">  1        2 0.31550871E+00 0.33100488E+04</pdfrwt>
<pdfrwt beam="2">  1       -2 0.20548056E+00 0.33100488E+04</pdfrwt>
<totfact> 0.70907671E-01</totfact>
</mgrwt>
<rwgt>
<wgt id='morphing_basis_vector_1'> +3.2601091e-05 </wgt>
<wgt id='morphing_basis_vector_2'> +2.2052701e-05 </wgt>
<wgt id='morphing_basis_vector_3'> +3.5636314e-05 </wgt>
<wgt id='morphing_basis_vector_4'> +2.5506921e-05 </wgt>
<wgt id='morphing_basis_vector_5'> +4.0697011e-05 </wgt>
</rwgt>
</event>
<event>
 4      1 +1.9882500e-09 3.40773600e+03 7.81860800e-03 7.65700800e-02
        2 -1    0    0  501    0 +0.0000000000e+00 +0.0000000000e+00 +1.3514260792e+03 1.3514260792e+03 0.0000000000e+00 0.0000e+00 -1.0000e+00
       -2 -1    0    0    0  501 -0.0000000000e+00 -0.0000000000e+00 -2.1482235964e+03 2.1482235964e+03 0.0000000000e+00 0.0000e+00 1.0000e+00
      -13  1    1    2    0    0 +1.5741382785e+02 -7.2469866431e+02 -1.9737882152e+03 2.1085082845e+03 0.0000000000e+00 0.0000e+00 1.0000e+00
       13  1    1    2    0    0 -1.5741382785e+02 +7.2469866431e+02 +1.1769906980e+03 1.3911413912e+03 0.0000000000e+00 0.0000e+00 -1.0000e+00
<mgrwt>
<rscale>  0 0.34077355E+04</rscale>
<asrwt>0</asrwt>
<pdfrwt beam="1">  1        2 0.20791171E+00 0.34077355E+04</pdfrwt>
<pdfrwt beam="2">  1       -2 0.33049593E+00 0.34077355E+04</pdfrwt>
<totfact> 0.23972631E-01</totfact>
</mgrwt>
<rwgt>
<wgt id='morphing_basis_vector_1'> +3.6582986e-05 </wgt>
<wgt id='morphing_basis_vector_2'> +2.4737313e-05 </wgt>
<wgt id='morphing_basis_vector_3'> +4.0015690e-05 </wgt>
<wgt id='morphing_basis_vector_4'> +2.8696715e-05 </wgt>
<wgt id='morphing_basis_vector_5'> +4.5757323e-05 </wgt>
</rwgt>
</event>
<event>
 4      1 +1.9882500e-09 3.34457000e+03 7.81860800e-03 7.67082800e-02
        2 -1    0    0  501    0 +0.0000000000e+00 +0.0000000000e+00 +2.1054334952e+03 2.1054334952e+03 0.0000000000e+00 0.0000e+00 -1.0000e+00
       -2 -1    0    0    0  501 -0.0000000000e+00 -0.0000000000e+00 -1.3282479549e+03 1.3282479549e+03 0.0000000000e+00 0.0000e+00 1.0000e+00
      -13  1    1    2    0    0 -8.7350883974e+02 -1.3615931565e+03 -4.6471709064e+01 1.6183674604e+03 0.0000000000e+00 0.0000e+00 1.0000e+00
       13  1    1    2    0    0 +8.7350883974e+02 +1.3615931565e+03 +8.2365724934e+02 1.8153139897e+03 0.0000000000e+00 0.0000e+00 -1.0000e+00
<mgrwt>
<rscale>  0 0.33445704E+04</rscale>
<asrwt>0</asrwt>
<pdfrwt beam="1">  1        2 0.32391285E+00 0.33445704E+04</pdfrwt>
<pdfrwt beam="2">  1       -2 0.20434584E+00 0.33445704E+04</pdfrwt>
<totfact> 0.67100136E-01</totfact>
</mgrwt>
<rwgt>
<wgt id='morphing_basis_vector_1'> +3.4432581e-05 </wgt>
<wgt id='morphing_basis_vector_2'> +2.4339281e-05 </wgt>
<wgt id='morphing_basis_vector_3'> +3.7874344e-05 </wgt>
<wgt id='morphing_basis_vector_4'> +2.5629997e-05 </wgt>
<wgt id='morphing_basis_vector_5'> +4.2354347e-05 </wgt>
</rwgt>
</event>
<event>
 4      1 +1.9882500e-09 3.43304700e+03 7.81860800e-03 7.65155600e-02
        2 -1    0    0  501    0 +0.0000000000e+00 +0.0000000000e+00 +2.6681399588e+03 2.6681399588e+03 0.0000000000e+00 0.0000e+00 -1.0000e+00
       -2 -1    0    0    0  501 -0.0000000000e+00 -0.0000000000e+00 -1.1043096041e+03 1.1043096041e+03 0.0000000000e+00 0.0000e+00 1.0000e+00
      -13  1    1    2    0    0 +1.4909110875e+03 +6.7226409663e+02 +1.3546936612e+03 2.1236642395e+03 0.0000000000e+00 0.0000e+00 1.0000e+00
       13  1    1    2    0    0 -1.4909110875e+03 -6.7226409663e+02 +2.0913669351e+02 1.6487853235e+03 0.0000000000e+00 0.0000e+00 -1.0000e+00
<mgrwt>
<rscale>  0 0.34330468E+04</rscale>
<asrwt>0</asrwt>
<pdfrwt beam="1">  1        2 0.41048307E+00 0.34330468E+04</pdfrwt>
<pdfrwt beam="2">  1       -2 0.16989379E+00 0.34330468E+04</pdfrwt>
<totfact> 0.56322829E-01</totfact>
</mgrwt>
<rwgt>
<wgt id='morphing_basis_vector_1'> +4.1557661e-05 </wgt>
<wgt id='morphing_basis_vector_2'> +3.6903535e-05 </wgt>
<wgt id='morphing_basis_vector_3'> +4.7377759e-05 </wgt>
<wgt id='morphing_basis_vector_4'> +2.1409788e-05 </wgt>
<wgt id='morphing_basis_vector_5'> +4.6466314e-05 </wgt>
</rwgt>
</event>
<event>
 4      1 +1.9882500e-09 3.28132900e+03 7.81860800e-03 7.68498300e-02
        2 -1    0    0  501    0 +0.0000000000e+00 +0.0000000000e+00 +2.8700549651e+03 2.8700549651e+03 0.0000000000e+00 0.0000e+00 -1.0000e+00
       -2 -1    0    0    0  501 -0.0000000000e+00 -0.0000000000e+00 -9.3788472124e+02 9.3788472124e+02 0.0000000000e+00 0.0000e+00 1.0000e+00
      -13  1    1    2    0    0 +5.3851431592e+02 +9.0190779250e+02 -4.9647153198e+02 1.1618602828e+03 0.0000000000e+00 0.0000e+00 1.0000e+00
       13  1    1    2    0    0 -5.3851431592e+02 -9.0190779250e+02 +2.4286417759e+03 2.6460794036e+03 0.0000000000e+00 0.0000e+00 -1.0000e+00
<mgrwt>
<rscale>  0 0.32813294E+04</rscale>
<asrwt>0</asrwt>
<pdfrwt beam="1">  1        2 0.44154691E+00 0.32813294E+04</pdfrwt>
<pdfrwt beam="2">  1       -2 0.14428996E+00 0.32813294E+04</pdfrwt>
<totfact> 0.68745272E-01</totfact>
</mgrwt>
<rwgt>
<wgt id='morphing_basis_vector_1'> +3.1502918e-05 </wgt>
<wgt id='morphing_basis_vector_2'> +2.1329987e-05 </wgt>
<wgt id='morphing_basis_vector_3'> +3.4432540e-05 </wgt>
<wgt id='morphing_basis_vector_4'> +2.4605304e-05 </wgt>
<wgt id='morphing_basis_vector_5'> +3.9291035e-05 </wgt>
</rwgt>
</event>
<event>
 4      1 +1.9882500e-09 3.67228500e+03 7.81860800e-03 7.60229800e-02
        2 -1    0    0  501    0 +0.0000000000e+00 +0.0000000000e+00 +2.3689172520e+03 2.3689172520e+03 0.0000000000e+00 0.0000e+00 1.0000e+00
       -2 -1    0    0    0  501 -0.0000000000e+00 -0.0000000000e+00 -1.4231899071e+03 1.4231899071e+03 0.0000000000e+00 0.0000e+00 -1.0000e+00
      -13  1    1    2    0    0 -1.7099064033e+03 -5.5442174550e+02 +8.5959073191e+02 1.9925008422e+03 0.0000000000e+00 0.0000e+00 -1.0000e+00
       13  1    1    2    0    0 +1.7099064033e+03 +5.5442174550e+02 +8.6136612946e+01 1.7996063169e+03 0.0000000000e+00 0.0000e+00 1.0000e+00
<mgrwt>
<rscale>  0 0.36722849E+04</rscale>
<asrwt>0</asrwt>
<pdfrwt beam="1">  1        2 0.36444881E+00 0.36722849E+04</pdfrwt>
<pdfrwt beam="2">  1       -2 0.21895229E+00 0.36722849E+04</pdfrwt>
<totfact> 0.36169242E-01</totfact>
</mgrwt>
<rwgt>
<wgt id='morphing_basis_vector_1'> +5.2905725e-05 </wgt>
<wgt id='morphing_basis_vector_2'> +4.4117239e-05 </wgt>
<wgt id='morphing_basis_vector_3'> +5.9805876e-05 </wgt>
<wgt id='morphing_basis_vector_4'> +3.1045799e-05 </wgt>
<wgt id='morphing_basis_vector_5'> +6.1184047e-05 </wgt>
</rwgt>
</event>
<event>
 4      1 +1.9882500e-09 3.34376800e+03 7.81860800e-03 7.67100500e-02
        2 -1    0    0  501    0 +0.0000000000e+00 +0.0000000000e+00 +1.3303706856e+03 1.3303706856e+03 0.0000000000e+00 0.0000e+00 -1.0000e+00
       -2 -1    0    0    0  501 -0.0000000000e+00 -0.0000000000e+00 -2.1010656733e+03 2.1010656733e+03 0.0000000000e+00 0.0000e+00 1.0000e+00
      -13  1    1    2    0    0 +9.2924928926e+02 +1.1555641922e+03 -1.1778402000e+03 1.8937107437e+03 0.0000000000e+00 0.0000e+00 1.0000e+00
       13  1    1    2    0    0 -9.2924928926e+02 -1.1555641922e+03 +4.0714521227e+02 1.5377256152e+03 0.0000000000e+00 0.0000e+00 -1.0000e+00
<mgrwt>
<rscale>  0 0.33437680E+04</rscale>
<asrwt>0</asrwt>
<pdfrwt beam="1">  1        2 0.20467241E+00 0.33437680E+04</pdfrwt>
<pdfrwt beam="2">  1       -2 0.32324087E+00 0.33437680E+04</pdfrwt>
<totfact> 0.27673550E-01</totfact>
</mgrwt>
<rwgt>
<wgt id='morphing_basis_vector_1'> +3.4111953e-05 </wgt>
<wgt id='morphing_basis_vector_2'> +2.3469016e-05 </wgt>
<wgt id='morphing_basis_vector_3'> +3.7382471e-05 </wgt>
<wgt id='morphing_basis_vector_4'> +2.6208785e-05 </wgt>
<wgt id='morphing_basis_vector_5'> +4.2363339e-05 </wgt>
</rwgt>
</event>
<event>
 4      1 +1.9882500e-09 3.37312900e+03 7.81860800e-03 7.66454100e-02
        2 -1    0    0  501    0 +0.0000000000e+00 +0.0000000000e+00 +1.3075790967e+03 1.3075790967e+03 0.0000000000e+00 0.0000e+00 1.0000e+00
       -2 -1    0    0    0  501 -0.0000000000e+00 -0.0000000000e+00 -2.1753943052e+03 2.1753943052e+03 0.0000000000e+00 0.0000e+00 -1.0000e+00
      -13  1    1    2    0    0 +2.3580283838e+02 +1.0212628034e+03 -1.7982685610e+03 2.0814299195e+03 0.0000000000e+00 0.0000e+00 -1.0000e+00
       13  1    1    2    0    0 -2.3580283838e+02 -1.0212628034e+03 +9.3045335240e+02 1.4015434825e+03 0.0000000000e+00 0.0000e+00 1.0000e+00
<mgrwt>
<rscale>  0 0.33731292E+04</rscale>
<asrwt>0</asrwt>
<pdfrwt beam="1">  1        2 0.20116602E+00 0.33731292E+04</pdfrwt>
<pdfrwt beam="2">  1       -2 0.33467605E+00 0.33731292E+04</pdfrwt>
<totfact> 0.23893610E-01</totfact>
</mgrwt>
<rwgt>
<wgt id='morphing_basis_vector_1'> +3.5146798e-05 </wgt>
<wgt id='morphing_basis_vector_2'> +2.3800889e-05 </wgt>
<wgt id='morphing_basis_vector_3'> +3.8442765e-05 </wgt>
<wgt id='morphing_basis_vector_4'> +2.7505091e-05 </wgt>
<wgt id='morphing_basis_vector_5'> +4.3911347e-05 </wgt>
</rwgt>
</event>
<event>
 4      1 +1.9882500e-09 3.23513200e+03 7.81860800e-03 7.69553300e-02
        2 -1    0    0  501    0 +0.0000000000e+00 +0.0000000000e+00 +2.0913356325e+03 2.0913356325e+03 0.0000000000e+00 0.0000e+00 -1.0000e+00
       -2 -1    0    0    0  501 -0.0000000000e+00 -0.0000000000e+00 -1.2511238502e+03 1.2511238502e+03 0.0000000000e+00 0.0000e+00 1.0000e+00
      -13  1    1    2    0    0 -1.0038035703e+03 +9.3905595056e+01 -8.8680201972e+02 1.3427053626e+03 0.0000000000e+00 0.0000e+00 1.0000e+00
       13  1    1    2    0    0 +1.0038035703e+03 -9.3905595056e+01 +1.7270138020e+03 1.9997541201e+03 0.0000000000e+00 0.0000e+00 -1.0000e+00
<mgrwt>
<rscale>  0 0.32351321E+04</rscale>
<asrwt>0</asrwt>
<pdfrwt beam="1">  1        2 0.32174394E+00 0.32351321E+04</pdfrwt>
<pdfrwt beam="2">  1       -2 0.19248059E+00 0.32351321E+04</pdfrwt>
<totfact> 0.84251455E-01</totfact>
</mgrwt>
<rwgt>
<wgt id='morphing_basis_vector_1'> +2.9776253e-05 </wgt>
<wgt id='morphing_basis_vector_2'> +2.0149526e-05 </wgt>
<wgt id='morphing_basis_vector_3'> +3.2530762e-05 </wgt>
<wgt id='morphing_basis_vector_4'> +2.3244636e-05 </wgt>
<wgt id='morphing_basis_vector_5'> +3.7109313e-05 </wgt>
</rwgt>
</event>
<event>
 4      1 +1.9882500e-09 3.68465000e+03 7.81860800e-03 7.59985700e-02
        2 -1    0    0  501    0 +0.0000000000e+00 +0.0000000000e+00 +1.7423317911e+03 1.7423317911e+03 0.0000000000e+00 0.0000e+00 1.0000e+00
       -2 -1    0    0    0  501 -0.0000000000e+00 -0.0000000000e+00 -1.9480565262e+03 1.9480565262e+03 0.0000000000e+00 0.0000e+00 -1.0000e+00
      -13  1    1    2    0    0 +7.7936894951e+02 +1.6224584141e+03 +2.9065355633e+02 1.8232571828e+03 0.0000000000e+00 0.0000e+00 -1.0000e+00
       13  1    1    2    0    0 -7.7936894951e+02 -1.6224584141e+03 -4.9637829142e+02 1.8671311344e+03 0.0000000000e+00 0.0000e+00 1.0000e+00
<mgrwt>
<rscale>  0 0.36846497E+04</rscale>
<asrwt>0</asrwt>
<pdfrwt beam="1">  1        2 0.26805104E+00 0.36846497E+04</pdfrwt>
<pdfrwt beam="2">  1       -2 0.29970100E+00 0.36846497E+04</pdfrwt>
<totfact> 0.22735586E-01</totfact>
</mgrwt>
<rwgt>
<wgt id='morphing_basis_vector_1'> +5.3734555e-05 </wgt>
<wgt id='morphing_basis_vector_2'> +4.5056414e-05 </wgt>
<wgt id='morphing_basis_vector_3'> +6.0802869e-05 </wgt>
<wgt id='morphing_basis_vector_4'> +3.1221773e-05 </wgt>
<wgt id='morphing_basis_vector_5'> +6.1996577e-05 </wgt>
</rwgt>
</event>
<event>
 4      1 +1.9882500e-09 3.51770500e+03 7.81860800e-03 7.63366700e-02
        2 -1    0    0  501    0 +0.0000000000e+00 +0.0000000000e+00 +3.9803211508e+03 3.9803211508e+03 0.0000000000e+00 0.0000e+00 -1.0000e+00
       -2 -1    0    0    0  501 -0.0000000000e+00 -0.0000000000e+00 -7.7721425920e+02 7.7721425920e+02 0.0000000000e+00 0.0000e+00 1.0000e+00
      -13  1    1    2    0    0 +1.3948336559e+03 +7.5539363244e+02 +5.7388227268e+02 1.6868673126e+03 0.0000000000e+00 0.0000e+00 1.0000e+00
       13  1    1    2    0    0 -1.3948336559e+03 -7.5539363244e+02 +2.6292246190e+03 3.0706680974e+03 0.0000000000e+00 0.0000e+00 -1.0000e+00
<mgrwt>
<rscale>  0 0.35177051E+04</rscale>
<asrwt>0</asrwt>
<pdfrwt beam="1">  1        2 0.61235709E+00 0.35177051E+04</pdfrwt>
<pdfrwt beam="2">  1       -2 0.11957143E+00 0.35177051E+04</pdfrwt>
<totfact> 0.17502810E-01</totfact>
</mgrwt>
<rwgt>
<wgt id='morphing_basis_vector_1'> +4.1759909e-05 </wgt>
<wgt id='morphing_basis_vector_2'> +2.8835230e-05 </wgt>
<wgt id='morphing_basis_vector_3'> +4.5842536e-05 </wgt>
<wgt id='morphing_basis_vector_4'> +3.2070145e-05 </wgt>
<wgt id='morphing_basis_vector_5'> +5.1954898e-05 </wgt>
</rwgt>
</event>
<event>
 4      1 +1.9882500e-09 3.24094900e+03 7.81860800e-03 7.69419400e-02
        2 -1    0    0  501    0 +0.0000000000e+00 +0.0000000000e+00 +1.0161971774e+03 1.0161971774e+03 0.0000000000e+00 0.0000e+00 1.0000e+00
       -2 -1    0    0    0  501 -0.0000000000e+00 -0.0000000000e+00 -2.5840830955e+03 2.5840830955e+03 0.0000000000e+00 0.0000e+00 -1.0000e+00
      -13  1    1    2    0    0 +1.1905248912e+03 +9.0987266281e+02 -1.4693791442e+03 2.0986407145e+03 0.0000000000e+00 0.0000e+00 -1.0000e+00
       13  1    1    2    0    0 -1.1905248912e+03 -9.0987266281e+02 -9.8506773840e+01 1.5016395585e+03 0.0000000000e+00 0.0000e+00 1.0000e+00
<mgrwt>
<rscale>  0 0.32409492E+04</rscale>
<asrwt>0</asrwt>
<pdfrwt beam="1">  1        2 0.15633803E+00 0.32409492E+04</pdfrwt>
<pdfrwt beam="2">  1       -2 0.39755124E+00 0.32409492E+04</pdfrwt>
<totfact> 0.14076921E-01</totfact>
</mgrwt>
<rwgt>
<wgt id='morphing_basis_vector_1'> +3.0211586e-05 </wgt>
<wgt id='morphing_basis_vector_2'> +2.0948587e-05 </wgt>
<wgt id='morphing_basis_vector_3'> +3.3115986e-05 </wgt>
<wgt id='morphing_basis_vector_4'> +2.2948333e-05 </wgt>
<wgt id='morphing_basis_vector_5'> +3.7340577e-05 </wgt>
</rwgt>
</event>
<event>
 4      1 +1.9882500e-09 3.48864100e+03 7.81860800e-03 7.63975000e-02
        2 -1    0    0  501    0 +0.0000000000e+00 +0.0000000000e+00 +1.9101724074e+03 1.9101724074e+03 0.0000000000e+00 0.0000e+00 -1.0000e+00
       -2 -1    0    0    0  501 -0.0000000000e+00 -0.0000000000e+00 -1.5928688855e+03 1.5928688855e+03 0.0000000000e+00 0.0000e+00 1.0000e+00
      -13  1    1    2    0    0 -1.0449567021e+03 +1.2214451906e+03 -5.2148549430e+02 1.6899141941e+03 0.0000000000e+00 0.0000e+00 1.0000e+00
       13  1    1    2    0    0 +1.0449567021e+03 -1.2214451906e+03 +8.3878901614e+02 1.8131270988e+03 0.0000000000e+00 0.0000e+00 -1.0000e+00
<mgrwt>
<rscale>  0 0.34886411E+04</rscale>
<asrwt>0</asrwt>
<pdfrwt beam="1">  1        2 0.29387268E+00 0.34886411E+04</pdfrwt>
<pdfrwt beam="2">  1       -2 0.24505675E+00 0.34886411E+04</pdfrwt>
<totfact> 0.44019158E-01</totfact>
</mgrwt>
<rwgt>
<wgt id='morphing_basis_vector_1'> +4.0463782e-05 </wgt>
<wgt id='morphing_basis_vector_2'> +2.8067322e-05 </wgt>
<wgt id='morphing_basis_vector_3'> +4.4438853e-05 </wgt>
<wgt id='morphing_basis_vector_4'> +3.0894852e-05 </wgt>
<wgt id='morphing_basis_vector_5'> +5.0238111e-05 </wgt>
</rwgt>
</event>
<event>
 4      1 +1.9882500e-09 3.21933400e+03 7.81860800e-03 7.69918200e-02
        2 -1    0    0  501    0 +0.0000000000e+00 +0.0000000000e+00 +2.4992134708e+03 2.4992134708e+03 0.0000000000e+00 0.0000e+00 -1.0000e+00
       -2 -1    0    0    0  501 -0.0000000000e+00 -0.0000000000e+00 -1.0367375183e+03 1.0367375183e+03 0.0000000000e+00 0.0000e+00 1.0000e+00
      -13  1    1    2    0    0 -5.4411322865e+01 +1.0293422215e+03 -6.2668787565e+02 1.2063348186e+03 0.0000000000e+00 0.0000e+00 1.0000e+00
       13  1    1    2    0    0 +5.4411322865e+01 -1.0293422215e+03 +2.0891638282e+03 2.3296161705e+03 0.0000000000e+00 0.0000e+00 -1.0000e+00
<mgrwt>
<rscale>  0 0.32193343E+04</rscale>
<asrwt>0</asrwt>
<pdfrwt beam="1">  1        2 0.38449438E+00 0.32193343E+04</pdfrwt>
<pdfrwt beam="2">  1       -2 0.15949808E+00 0.32193343E+04</pdfrwt>
<totfact> 0.87635336E-01</totfact>
</mgrwt>
<rwgt>
<wgt id='morphing_basis_vector_1'> +2.9206037e-05 </wgt>
<wgt id='morphing_basis_vector_2'> +1.9767875e-05 </wgt>
<wgt id='morphing_basis_vector_3'> +3.1904523e-05 </wgt>
<wgt id='morphing_basis_vector_4'> +2.2785030e-05 </wgt>
<wgt id='morphing_basis_vector_5'> +3.6383851e-05 </wgt>
</rwgt>
</event>
<event>
 4      1 +1.9882500e-09 3.28616600e+03 7.81860800e-03 7.68388900e-02
        2 -1    0    0  501    0 +0.0000000000e+00 +0.0000000000e+00 +2.1126467343e+03 2.1126467343e+03 0.0000000000e+00 0.0000e+00 -1.0000e+00
       -2 -1    0    0    0  501 -0.0000000000e+00 -0.0000000000e+00 -1.2778863340e+03 1.2778863340e+03 0.0000000000e+00 0.0000e+00 1.0000e+00
      -13  1    1    2    0    0 +1.2221132244e+03 -8.6491671116e+02 -2.8093171229e+02 1.5233398430e+03 0.0000000000e+00 0.0000e+00 1.0000e+00
       13  1    1    2    0    0 -1.2221132244e+03 +8.6491671116e+02 +1.1156921125e+03 1.8671932252e+03 0.0000000000e+00 0.0000e+00 -1.0000e+00
<mgrwt>
<rscale>  0 0.32861664E+04</rscale>
<asrwt>0</asrwt>
<pdfrwt beam="1">  1        2 0.32502258E+00 0.32861664E+04</pdfrwt>
<pdfrwt beam="2">  1       -2 0.19659790E+00 0.32861664E+04</pdfrwt>
<totfact> 0.76071968E-01</totfact>
</mgrwt>
<rwgt>
<wgt id='morphing_basis_vector_1'> +3.1885381e-05 </wgt>
<wgt id='morphing_basis_vector_2'> +2.2037517e-05 </wgt>
<wgt id='morphing_basis_vector_3'> +3.4948318e-05 </wgt>
<wgt id='morphing_basis_vector_4'> +2.4337613e-05 </wgt>
<wgt id='morphing_basis_vector_5'> +3.9490726e-05 </wgt>
</rwgt>
</event>
<event>
 4      1 +1.9882500e-09 3.29010000e+03 7.81860800e-03 7.68300000e-02
        2 -1    0    0  501    0 +0.0000000000e+00 +0.0000000000e+00 +2.8072717202e+03 2.8072717202e+03 0.0000000000e+00 0.0000e+00 -1.0000e+00
       -2 -1    0    0    0  501 -0.0000000000e+00 -0.0000000000e+00 -9.6399266192e+02 9.6399266192e+02 0.0000000000e+00 0.0000e+00 1.0000e+00
      -13  1    1    2    0    0 -1.1392385054e+03 -1.0915151094e+03 +3.8777947742e+02 1.6246976732e+03 0.0000000000e+00 0.0000e+00 1.0000e+00
       13  1    1    2    0    0 +1.1392385054e+03 +1.0915151094e+03 +1.4554995809e+03 2.1465667090e+03 0.0000000000e+00 0.0000e+00 -1.0000e+00
<mgrwt>
<rscale>  0 0.32900999E+04</rscale>
<asrwt>0</asrwt>
<pdfrwt beam="1">  1        2 0.43188795E+00 0.32900999E+04</pdfrwt>
<pdfrwt beam="2">  1       -2 0.14830656E+00 0.32900999E+04</pdfrwt>
<totfact> 0.69664049E-01</totfact>
</mgrwt>
<rwgt>
<wgt id='morphing_basis_vector_1'> +3.2207886e-05 </wgt>
<wgt id='morphing_basis_vector_2'> +2.2645313e-05 </wgt>
<wgt id='morphing_basis_vector_3'> +3.5385680e-05 </wgt>
<wgt id='morphing_basis_vector_4'> +2.4097555e-05 </wgt>
<wgt id='morphing_basis_vector_5'> +3.9651994e-05 </wgt>
</rwgt>
</event>
<event>
 4      1 +1.9882500e-09 3.26417200e+03 7.81860800e-03 7.68888000e-02
        2 -1    0    0  501    0 +0.0000000000e+00 +0.0000000000e+00 +2.2124820404e+03 2.2124820404e+03 0.0000000000e+00 0.0000e+00 -1.0000e+00
       -2 -1    0    0    0  501 -0.0000000000e+00 -0.0000000000e+00 -1.2039439270e+03 1.2039439270e+03 0.0000000000e+00 0.0000e+00 1.0000e+00
      -13  1    1    2    0    0 -1.1434100863e+03 +5.3195543374e+02 -5.8007697027e+02 1.3881111268e+03 0.0000000000e+00 0.0000e+00 1.0000e+00
       13  1    1    2    0    0 +1.1434100863e+03 -5.3195543374e+02 +1.5886150837e+03 2.0283148407e+03 0.0000000000e+00 0.0000e+00 -1.0000e+00
<mgrwt>
<rscale>  0 0.32641718E+04</rscale>
<asrwt>0</asrwt>
<pdfrwt beam="1">  1        2 0.34038185E+00 0.32641718E+04</pdfrwt>
<pdfrwt beam="2">  1       -2 0.18522214E+00 0.32641718E+04</pdfrwt>
<totfact> 0.81198851E-01</totfact>
</mgrwt>
<rwgt>
<wgt id='morphing_basis_vector_1'> +3.0894953e-05 </wgt>
<wgt id='morphing_basis_vector_2'> +2.1008898e-05 </wgt>
<wgt id='morphing_basis_vector_3'> +3.3782864e-05 </wgt>
<wgt id='morphing_basis_vector_4'> +2.4005517e-05 </wgt>
<wgt id='morphing_basis_vector_5'> +3.8462607e-05 </wgt>
</rwgt>
</event>
<event>
 4      1 +1.9882500e-09 3.78392400e+03 7.81860800e-03 7.58061000e-02
        2 -1    0    0  501    0 +0.0000000000e+00 +0.0000000000e+00 +2.9367794682e+03 2.9367794682e+03 0.0000000000e+00 0.0000e+00 -1.0000e+00
       -2 -1    0    0    0  501 -0.0000000000e+00 -0.0000000000e+00 -1.2188588030e+03 1.2188588030e+03 0.0000000000e+00 0.0000e+00 1.0000e+00
      -13  1    1    2    0    0 -1.6730351180e+03 +6.1178526776e+02 +1.5902012182e+02 1.7884672541e+03 0.0000000000e+00 0.0000e+00 1.0000e+00
       13  1    1    2    0    0 +1.6730351180e+03 -6.1178526776e+02 +1.5589005434e+03 2.3671710171e+03 0.0000000000e+00 0.0000e+00 -1.0000e+00
<mgrwt>
<rscale>  0 0.37839236E+04</rscale>
<asrwt>0</asrwt>
<pdfrwt beam="1">  1        2 0.45181222E+00 0.37839236E+04</pdfrwt>
<pdfrwt beam="2">  1       -2 0.18751674E+00 0.37839236E+04</pdfrwt>
<totfact> 0.27228070E-01</totfact>
</mgrwt>
<rwgt>
<wgt id='morphing_basis_vector_1'> +5.6002200e-05 </wgt>
<wgt id='morphing_basis_vector_2'> +3.9142574e-05 </wgt>
<wgt id='morphing_basis_vector_3'> +6.1678246e-05 </wgt>
<wgt id='morphing_basis_vector_4'> +4.2604199e-05 </wgt>
<wgt id='morphing_basis_vector_5'> +6.9647303e-05 </wgt>
</rwgt>
</event>
<event>
 4      1 +1.9882500e-09 3.62289700e+03 7.81860800e-03 7.61214500e-02
        2 -1    0    0  501    0 +0.0000000000e+00 +0.0000000000e+00 +2.2329919673e+03 2.2329919673e+03 0.0000000000e+00 0.0000e+00 1.0000e+00
       -2 -1    0    0    0  501 -0.0000000000e+00 -0.0000000000e+00 -1.4694841515e+03 1.4694841515e+03 0.0000000000e+00 0.0000e+00 -1.0000e+00
      -13  1    1    2    0    0 +1.4715993985e+03 +4.1086067264e+02 -6.1272671780e+02 1.6461607798e+03 0.0000000000e+00 0.0000e+00 -1.0000e+00
       13  1    1    2    0    0 -1.4715993985e+03 -4.1086067264e+02 +1.3762345336e+03 2.0563153391e+03 0.0000000000e+00 0.0000e+00 1.0000e+00
<mgrwt>
<rscale>  0 0.36228974E+04</rscale>
<asrwt>0</asrwt>
<pdfrwt beam="1">  1        2 0.34353723E+00 0.36228974E+04</pdfrwt>
<pdfrwt beam="2">  1       -2 0.22607448E+00 0.36228974E+04</pdfrwt>
<totfact> 0.38783292E-01</totfact>
</mgrwt>
<rwgt>
<wgt id='morphing_basis_vector_1'> +4.6824467e-05 </wgt>
<wgt id='morphing_basis_vector_2'> +3.2068580e-05 </wgt>
<wgt id='morphing_basis_vector_3'> +5.1378099e-05 </wgt>
<wgt id='morphing_basis_vector_4'> +3.6367704e-05 </wgt>
<wgt id='morphing_basis_vector_5'> +5.8518354e-05 </wgt>
</rwgt>
</event>
<event>
 4      1 +1.9882500e-09 3.36311400e+03 7.81860800e-03 7.66673800e-02
        2 -1    0    0  501    0 +0.0000000000e+00 +0.0000000000e+00 +2.0898664967e+03 2.0898664967e+03 0.0000000000e+00 0.0000e+00 -1.0000e+00
       -2 -1    0    0    0  501 -0.0000000000e+00 -0.0000000000e+00 -1.3530214619e+03 1.3530214619e+03 0.0000000000e+00 0.0000e+00 1.0000e+00
      -13  1    1    2    0    0 -1.0501905384e+03 -5.8345865902e+02 -8.3605296786e+02 1.4636627818e+03 0.0000000000e+00 0.0000e+00 1.0000e+00
       13  1    1    2    0    0 +1.0501905384e+03 +5.8345865902e+02 +1.5728980027e+03 1.9792251768e+03 0.0000000000e+00 0.0000e+00 -1.0000e+00
<mgrwt>
<rscale>  0 0.33631142E+04</rscale>
<asrwt>0</asrwt>
<pdfrwt beam="1">  1        2 0.32151792E+00 0.33631142E+04</pdfrwt>
<pdfrwt beam="2">  1       -2 0.20815715E+00 0.33631142E+04</pdfrwt>
<totfact> 0.64170324E-01</totfact>
</mgrwt>
<rwgt>
<wgt id='morphing_basis_vector_1'> +3.4757435e-05 </wgt>
<wgt id='morphing_basis_vector_2'> +2.3588591e-05 </wgt>
<wgt id='morphing_basis_vector_3'> +3.8025220e-05 </wgt>
<wgt id='morphing_basis_vector_4'> +2.7128988e-05 </wgt>
<wgt id='morphing_basis_vector_5'> +4.3384516e-05 </wgt>
</rwgt>
</event>
<event>
 4      1 +1.9882500e-09 3.22520800e+03 7.81860800e-03 7.69782200e-02
        2 -1    0    0  501    0 +0.0000000000e+00 +0.0000000000e+00 +1.7183441679e+03 1.7183441679e+03 0.0000000000e+00 0.0000e+00 1.0000e+00
       -2 -1    0    0    0  501 -0.0000000000e+00 -0.0000000000e+00 -1.5133708953e+03 1.5133708953e+03 0.0000000000e+00 0.0000e+00 -1.0000e+00
      -13  1    1    2    0    0 -1.5845022146e+02 -5.6877112285e+02 -1.4011690621e+03 1.5204873572e+03 0.0000000000e+00 0.0000e+00 -1.0000e+00
       13  1    1    2    0    0 +1.5845022146e+02 +5.6877112285e+02 +1.6061423347e+03 1.7112277061e+03 0.0000000000e+00 0.0000e+00 1.0000e+00
<mgrwt>
<rscale>  0 0.32252082E+04</rscale>
<asrwt>0</asrwt>
<pdfrwt beam="1">  1        2 0.26436064E+00 0.32252082E+04</pdfrwt>
<pdfrwt beam="2">  1       -2 0.23282629E+00 0.32252082E+04</pdfrwt>
<totfact> 0.70034516E-01</totfact>
</mgrwt>
<rwgt>
<wgt id='morphing_basis_vector_1'> +2.9399044e-05 </wgt>
<wgt id='morphing_basis_vector_2'> +1.9856035e-05 </wgt>
<wgt id='morphing_basis_vector_3'> +3.2107848e-05 </wgt>
<wgt id='morphing_basis_vector_4'> +2.2992869e-05 </wgt>
<wgt id='morphing_basis_vector_5'> +3.6655457e-05 </wgt>
</rwgt>
</event>
<event>
 4      1 +1.9882500e-09 3.52809600e+03 7.81860800e-03 7.63150700e-02
        2 -1    0    0  501    0 +0.0000000000e+00 +0.0000000000e+00 +2.9338152994e+03 2.9338152994e+03 0.0000000000e+00 0.0000e+00 1.0000e+00
       -2 -1    0    0    0  501 -0.0000000000e+00 -0.0000000000e+00 -1.0606891315e+03 1.0606891315e+03 0.0000000000e+00 0.0000e+00 -1.0000e+00
      -13  1    1    2    0    0 -1.1336872434e+03 +2.8983305130e+02 -5.5803121399e+02 1.2963983953e+03 0.0000000000e+00 0.0000e+00 -1.0000e+00
       13  1    1    2    0    0 +1.1336872434e+03 -2.8983305130e+02 +2.4311573819e+03 2.6981060356e+03 0.0000000000e+00 0.0000e+00 1.0000e+00
<mgrwt>
<rscale>  0 0.35280964E+04</rscale>
<asrwt>0</asrwt>
<pdfrwt beam="1">  1        2 0.45135620E+00 0.35280964E+04</pdfrwt>
<pdfrwt beam="2">  1       -2 0.16318294E+00 0.35280964E+04</pdfrwt>
<totfact> 0.42963816E-01</totfact>
</mgrwt>
<rwgt>
<wgt id='morphing_basis_vector_1'> +4.2022718e-05 </wgt>
<wgt id='morphing_basis_vector_2'> +2.8501357e-05 </wgt>
<wgt id='morphing_basis_vector_3'> +4.6021486e-05 </wgt>
<wgt id='morphing_basis_vector_4'> +3.2935847e-05 </wgt>
<wgt id='morphing_basis_vector_5'> +5.2615503e-05 </wgt>
</rwgt>
</event>
<event>
 4      1 +1.9882500e-09 3.21640100e+03 7.81860800e-03 7.69986200e-02
        2 -1    0    0  501    0 +0.0000000000e+00 +0.0000000000e+00 +2.7246114614e+03 2.7246114614e+03 0.0000000000e+00 0.0000e+00 1.0000e+00
       -2 -1    0    0    0  501 -0.0000000000e+00 -0.0000000000e+00 -9.4923966630e+02 9.4923966630e+02 0.0000000000e+00 0.0000e+00 -1.0000e+00
      -13  1    1    2    0    0 +1.2280342897e+03 +9.5579313257e+02 +4.2413348230e+02 1.6129159742e+03 0.0000000000e+00 0.0000e+00 -1.0000e+00
       13  1    1    2    0    0 -1.2280342897e+03 -9.5579313257e+02 +1.3512383128e+03 2.0609351535e+03 0.0000000000e+00 0.0000e+00 1.0000e+00
<mgrwt>
<rscale>  0 0.32164013E+04</rscale>
<asrwt>0</asrwt>
<pdfrwt beam="1">  1        2 0.41917099E+00 0.32164013E+04</pdfrwt>
<pdfrwt beam="2">  1       -2 0.14603687E+00 0.32164013E+04</pdfrwt>
<totfact> 0.82445517E-01</totfact>
</mgrwt>
<rwgt>
<wgt id='morphing_basis_vector_1'> +2.9486968e-05 </wgt>
<wgt id='morphing_basis_vector_2'> +2.0833453e-05 </wgt>
<wgt id='morphing_basis_vector_3'> +3.2397733e-05 </wgt>
<wgt id='morphing_basis_vector_4'> +2.1893222e-05 </wgt>
<wgt id='morphing_basis_vector_5'> +3.6183723e-05 </wgt>
</rwgt>
</event>
<event>
 4      1 +1.9882500e-09 3.27378900e+03 7.81860800e-03 7.68669300e-02
        2 -1    0    0  501    0 +0.0000000000e+00 +0.0000000000e+00 +1.6909171014e+03 1.6909171014e+03 0.0000000000e+00 0.0000e+00 -1.0000e+00
       -2 -1    0    0    0  501 -0.0000000000e+00 -0.0000000000e+00 -1.5845975501e+03 1.5845975501e+03 0.0000000000e+00 0.0000e+00 1.0000e+00
      -13  1    1    2    0    0 +2.4750347211e+02 -7.5297785085e+02 +1.4861122709e+03 1.6842693651e+03 0.0000000000e+00 0.0000e+00 -1.0000e+00
       13  1    1    2    0    0 -2.4750347211e+02 +7.5297785085e+02 -1.3797927196e+03 1.5912452864e+03 0.0000000000e+00 0.0000e+00 1.0000e+00
<mgrwt>
<rscale>  0 0.32737887E+04</rscale>
<asrwt>0</asrwt>
<pdfrwt beam="1">  1        2 0.26014109E+00 0.32737887E+04</pdfrwt>
<pdfrwt beam="2">  1       -2 0.24378424E+00 0.32737887E+04</pdfrwt>
<totfact> 0.60591277E-01</totfact>
</mgrwt>
<rwgt>
<wgt id='morphing_basis_vector_1'> +4.2310161e-05 </wgt>
<wgt id='morphing_basis_vector_2'> +5.3784148e-05 </wgt>
<wgt id='morphing_basis_vector_3'> +5.1640014e-05 </wgt>
<wgt id='morphing_basis_vector_4'> +1.1464156e-06 </wgt>
<wgt id='morphing_basis_vector_5'> +3.7009511e-05 </wgt>
</rwgt>
</event>
<event>
 4      1 +1.9882500e-09 3.67926100e+03 7.81860800e-03 7.60092000e-02
        2 -1    0    0  501    0 +0.0000000000e+00 +0.0000000000e+00 +3.2639197125e+03 3.2639197125e+03 0.0000000000e+00 0.0000e+00 1.0000e+00
       -2 -1    0    0    0  501 -0.0000000000e+00 -0.0000000000e+00 -1.0368636285e+03 1.0368636285e+03 0.0000000000e+00 0.0000e+00 -1.0000e+00
      -13  1    1    2    0    0 +1.2611803441e+03 -1.3392180419e+03 +1.0987971590e+03 2.1427636409e+03 0.0000000000e+00 0.0000e+00 -1.0000e+00
       13  1    1    2    0    0 -1.2611803441e+03 +1.3392180419e+03 +1.1282589250e+03 2.1580197001e+03 0.0000000000e+00 0.0000e+00 1.0000e+00
<mgrwt>
<rscale>  0 0.36792606E+04</rscale>
<asrwt>0</asrwt>
<pdfrwt beam="1">  1        2 0.50214149E+00 0.36792606E+04</pdfrwt>
<pdfrwt beam="2">  1       -2 0.15951748E+00 0.36792606E+04</pdfrwt>
<totfact> 0.27357918E-01</totfact>
</mgrwt>
<rwgt>
<wgt id='morphing_basis_vector_1'> +5.1385886e-05 </wgt>
<wgt id='morphing_basis_vector_2'> +3.8804434e-05 </wgt>
<wgt id='morphing_basis_vector_3'> +5.7198294e-05 </wgt>
<wgt id='morphing_basis_vector_4'> +3.5331051e-05 </wgt>
<wgt id='morphing_basis_vector_5'> +6.1989095e-05 </wgt>
</rwgt>
</event>
<event>
 4      1 +1.9882500e-09 3.79530400e+03 7.81860800e-03 7.57844200e-02
        2 -1    0    0  501    0 +0.0000000000e+00 +0.0000000000e+00 +1.7918837843e+03 1.7918837843e+03 0.0000000000e+00 0.0000e+00 1.0000e+00
       -2 -1    0    0    0  501 -0.0000000000e+00 -0.0000000000e+00 -2.0096637414e+03 2.0096637414e+03 0.0000000000e+00 0.0000e+00 -1.0000e+00
      -13  1    1    2    0    0 -2.9999357831e+02 +1.4910964262e+03 -1.2455337882e+03 1.9658888872e+03 0.0000000000e+00 0.0000e+00 -1.0000e+00
       13  1    1    2    0    0 +2.9999357831e+02 -1.4910964262e+03 +1.0277538312e+03 1.8356586385e+03 0.0000000000e+00 0.0000e+00 1.0000e+00
<mgrwt>
<rscale>  0 0.37953044E+04</rscale>
<asrwt>0</asrwt>
<pdfrwt beam="1">  1        2 0.27567443E+00 0.37953044E+04</pdfrwt>
<pdfrwt beam="2">  1       -2 0.30917904E+00 0.37953044E+04</pdfrwt>
<totfact> 0.18263632E-01</totfact>
</mgrwt>
<rwgt>
<wgt id='morphing_basis_vector_1'> +5.6270226e-05 </wgt>
<wgt id='morphing_basis_vector_2'> +3.8424020e-05 </wgt>
<wgt id='morphing_basis_vector_3'> +6.1776125e-05 </wgt>
<wgt id='morphing_basis_vector_4'> +4.3976345e-05 </wgt>
<wgt id='morphing_basis_vector_5'> +7.0564720e-05 </wgt>
</rwgt>
</event>
<event>
 4      1 +1.9882500e-09 3.43886000e+03 7.81860800e-03 7.65031100e-02
        2 -1    0    0  501    0 +0.0000000000e+00 +0.0000000000e+00 +2.8001872677e+03 2.8001872677e+03 0.0000000000e+00 0.0000e+00 -1.0000e+00
       -2 -1    0    0    0  501 -0.0000000000e+00 -0.0000000000e+00 -1.0558007821e+03 1.0558007821e+03 0.0000000000e+00 0.0000e+00 1.0000e+00
      -13  1    1    2    0    0 +1.0029065522e+03 -2.4259197704e+02 -6.7005766413e+02 1.2303047155e+03 0.0000000000e+00 0.0000e+00 1.0000e+00
       13  1    1    2    0    0 -1.0029065522e+03 +2.4259197704e+02 +2.4144441497e+03 2.6256833343e+03 0.0000000000e+00 0.0000e+00 -1.0000e+00
<mgrwt>
<rscale>  0 0.34388602E+04</rscale>
<asrwt>0</asrwt>
<pdfrwt beam="1">  1        2 0.43079804E+00 0.34388602E+04</pdfrwt>
<pdfrwt beam="2">  1       -2 0.16243089E+00 0.34388602E+04</pdfrwt>
<totfact> 0.53356382E-01</totfact>
</mgrwt>
<rwgt>
<wgt id='morphing_basis_vector_1'> +3.7943135e-05 </wgt>
<wgt id='morphing_basis_vector_2'> +2.5694572e-05 </wgt>
<wgt id='morphing_basis_vector_3'> +4.1520574e-05 </wgt>
<wgt id='morphing_basis_vector_4'> +2.9735586e-05 </wgt>
<wgt id='morphing_basis_vector_5'> +4.7461210e-05 </wgt>
</rwgt>
</event>
<event>
 4      1 +1.9882500e-09 3.60376100e+03 7.81860800e-03 7.61600400e-02
        2 -1    0    0  501    0 +0.0000000000e+00 +0.0000000000e+00 +2.4853561504e+03 2.4853561504e+03 0.0000000000e+00 0.0000e+00 -1.0000e+00
       -2 -1    0    0    0  501 -0.0000000000e+00 -0.0000000000e+00 -1.3063611996e+03 1.3063611996e+03 0.0000000000e+00 0.0000e+00 1.0000e+00
      -13  1    1    2    0    0 -1.1265912161e+03 -1.1392575906e+03 -2.7791362190e+02 1.6261462441e+03 0.0000000000e+00 0.0000e+00 1.0000e+00
       13  1    1    2    0    0 +1.1265912161e+03 +1.1392575906e+03 +1.4569085727e+03 2.1655711060e+03 0.0000000000e+00 0.0000e+00 -1.0000e+00
<mgrwt>
<rscale>  0 0.36037607E+04</rscale>
<asrwt>0</asrwt>
<pdfrwt beam="1">  1        2 0.38236248E+00 0.36037607E+04</pdfrwt>
<pdfrwt beam="2">  1       -2 0.20097865E+00 0.36037607E+04</pdfrwt>
<totfact> 0.41811091E-01</totfact>
</mgrwt>
<rwgt>
<wgt id='morphing_basis_vector_1'> +4.5936089e-05 </wgt>
<wgt id='morphing_basis_vector_2'> +3.1654104e-05 </wgt>
<wgt id='morphing_basis_vector_3'> +5.0440163e-05 </wgt>
<wgt id='morphing_basis_vector_4'> +3.5417631e-05 </wgt>
<wgt id='morphing_basis_vector_5'> +5.7269117e-05 </wgt>
</rwgt>
</event>
<event>
 4      1 +1.9882500e-09 3.39837900e+03 7.81860800e-03 7.65903500e-02
        2 -1    0    0  501    0 +0.0000000000e+00 +0.0000000000e+00 +1.4191278791e+03 1.4191278791e+03 0.0000000000e+00 0.0000e+00 -1.0000e+00
       -2 -1    0    0    0  501 -0.0000000000e+00 -0.0000000000e+00 -2.0345210800e+03 2.0345210800e+03 0.0000000000e+00 0.0000e+00 1.0000e+00
      -13  1    1    2    0    0 -1.6615228393e+02 +9.9321792990e+02 -1.6985887008e+03 1.9746625059e+03 0.0000000000e+00 0.0000e+00 1.0000e+00
       13  1    1    2    0    0 +1.6615228393e+02 -9.9321792990e+02 +1.0831954999e+03 1.4789864532e+03 0.0000000000e+00 0.0000e+00 -1.0000e+00
<mgrwt>
<rscale>  0 0.33983794E+04</rscale>
<asrwt>0</asrwt>
<pdfrwt beam="1">  1        2 0.21832737E+00 0.33983794E+04</pdfrwt>
<pdfrwt beam="2">  1       -2 0.31300324E+00 0.33983794E+04</pdfrwt>
<totfact> 0.28711399E-01</totfact>
</mgrwt>
<rwgt>
<wgt id='morphing_basis_vector_1'> +3.6198741e-05 </wgt>
<wgt id='morphing_basis_vector_2'> +2.4505929e-05 </wgt>
<wgt id='morphing_basis_vector_3'> +3.9598942e-05 </wgt>
<wgt id='morphing_basis_vector_4'> +2.8353364e-05 </wgt>
<wgt id='morphing_basis_vector_5'> +4.5251181e-05 </wgt>
</rwgt>
</event>
<event>
 4      1 +1.9882500e-09 3.48113400e+03 7.81860800e-03 7.64133100e-02
        2 -1    0    0  501    0 +0.0000000000e+00 +0.0000000000e+00 +2.5772686319e+03 2.5772686319e+03 0.0000000000e+00 0.0000e+00 -1.0000e+00
       -2 -1    0    0    0  501 -0.0000000000e+00 -0.0000000000e+00 -1.1754978054e+03 1.1754978054e+03 0.0000000000e+00 0.0000e+00 1.0000e+00
      -13  1    1    2    0    0 +7.4643435056e+02 +1.4371212110e+03 +1.3061814759e+01 1.6194604737e+03 0.0000000000e+00 0.0000e+00 1.0000e+00
       13  1    1    2    0    0 -7.4643435056e+02 -1.4371212110e+03 +1.3887090117e+03 2.1333059635e+03 0.0000000000e+00 0.0000e+00 -1.0000e+00
<mgrwt>
<rscale>  0 0.34811341E+04</rscale>
<asrwt>0</asrwt>
<pdfrwt beam="1">  1        2 0.39650286E+00 0.34811341E+04</pdfrwt>
<pdfrwt beam="2">  1       -2 0.18084582E+00 0.34811341E+04</pdfrwt>
<totfact> 0.52490697E-01</totfact>
</mgrwt>
<rwgt>
<wgt id='morphing_basis_vector_1'> +4.0151143e-05 </wgt>
<wgt id='morphing_basis_vector_2'> +2.7921913e-05 </wgt>
<wgt id='morphing_basis_vector_3'> +4.4108835e-05 </wgt>
<wgt id='morphing_basis_vector_4'> +3.0560442e-05 </wgt>
<wgt id='morphing_basis_vector_5'> +4.9798674e-05 </wgt>
</rwgt>
</event>
<event>
 4      1 +1.9882500e-09 3.42695100e+03 7.81860800e-03 7.65286500e-02
        2 -1    0    0  501    0 +0.0000000000e+00 +0.0000000000e+00 +3.1505734730e+03 3.1505734730e+03 0.0000000000e+00 0.0000e+00 1.0000e+00
       -2 -1    0    0    0  501 -0.0000000000e+00 -0.0000000000e+00 -9.3189322951e+02 9.3189322951e+02 0.0000000000e+00 0.0000e+00 -1.0000e+00
      -13  1    1    2    0    0 +1.3249261748e+03 +3.7063207905e+02 +2.3260826320e+03 2.7024910579e+03 0.0000000000e+00 0.0000e+00 1.0000e+00
       13  1    1    2    0    0 -1.3249261748e+03 -3.7063207905e+02 -1.0740238855e+02 1.3799756446e+03 0.0000000000e+00 0.0000e+00 -1.0000e+00
<mgrwt>
<rscale>  0 0.34269509E+04</rscale>
<asrwt>0</asrwt>
<pdfrwt beam="1">  1        2 0.48470360E+00 0.34269509E+04</pdfrwt>
<pdfrwt beam="2">  1       -2 0.14336819E+00 0.34269509E+04</pdfrwt>
<totfact> 0.45337512E-01</totfact>
</mgrwt>
<rwgt>
<wgt id='morphing_basis_vector_1'> +4.6171635e-05 </wgt>
<wgt id='morphing_basis_vector_2'> +5.1078049e-05 </wgt>
<wgt id='morphing_basis_vector_3'> +5.4823619e-05 </wgt>
<wgt id='morphing_basis_vector_4'> +1.0955279e-05 </wgt>
<wgt id='morphing_basis_vector_5'> +4.5282121e-05 </wgt>
</rwgt>
</event>
<event>
 4      1 +1.9882500e-09 3.62180600e+03 7.81860800e-03 7.61236500e-02
        2 -1    0    0  501    0 +0.0000000000e+00 +0.0000000000e+00 +1.3041314913e+03 1.3041314913e+03 0.0000000000e+00 0.0000e+00 1.0000e+00
       -2 -1    0    0    0  501 -0.0000000000e+00 -0.0000000000e+00 -2.5146005185e+03 2.5146005185e+03 0.0000000000e+00 0.0000e+00 -1.0000e+00
      -13  1    1    2    0    0 -2.4932716597e+02 +1.0679640978e+03 -2.1246499120e+03 2.3909932242e+03 0.0000000000e+00 0.0000e+00 -1.0000e+00
       13  1    1    2    0    0 +2.4932716597e+02 -1.0679640978e+03 +9.1418088474e+02 1.4277387856e+03 0.0000000000e+00 0.0000e+00 1.0000e+00
<mgrwt>
<rscale>  0 0.36218060E+04</rscale>
<asrwt>0</asrwt>
<pdfrwt beam="1">  1        2 0.20063562E+00 0.36218060E+04</pdfrwt>
<pdfrwt beam="2">  1       -2 0.38686162E+00 0.36218060E+04</pdfrwt>
<totfact> 0.10808777E-01</totfact>
</mgrwt>
<rwgt>
<wgt id='morphing_basis_vector_1'> +4.6622309e-05 </wgt>
<wgt id='morphing_basis_vector_2'> +3.1600329e-05 </wgt>
<wgt id='morphing_basis_vector_3'> +5.1083434e-05 </wgt>
<wgt id='morphing_basis_vector_4'> +3.6631334e-05 </wgt>
<wgt id='morphing_basis_vector_5'> +5.8472986e-05 </wgt>
</rwgt>
</event>
<event>
 4      1 +1.9882500e-09 3.80353400e+03 7.81860800e-03 7.57688000e-02
        2 -1    0    0  501    0 +0.0000000000e+00 +0.0000000000e+00 +1.7154334469e+03 1.7154334469e+03 0.0000000000e+00 0.0000e+00 -1.0000e+00
       -2 -1    0    0    0  501 -0.0000000000e+00 -0.0000000000e+00 -2.1083402778e+03 2.1083402778e+03 0.0000000000e+00 0.0000e+00 1.0000e+00
      -13  1    1    2    0    0 -4.8995804252e+02 -1.0039487227e+03 -1.7437162765e+03 2.0708738190e+03 0.0000000000e+00 0.0000e+00 1.0000e+00
       13  1    1    2    0    0 +4.8995804252e+02 +1.0039487227e+03 +1.3508094455e+03 1.7528999057e+03 0.0000000000e+00 0.0000e+00 -1.0000e+00
<mgrwt>
<rscale>  0 0.38035338E+04</rscale>
<asrwt>0</asrwt>
<pdfrwt beam="1">  1        2 0.26391284E+00 0.38035338E+04</pdfrwt>
<pdfrwt beam="2">  1       -2 0.32436004E+00 0.38035338E+04</pdfrwt>
<totfact> 0.15945218E-01</totfact>
</mgrwt>
<rwgt>
<wgt id='morphing_basis_vector_1'> +5.6637470e-05 </wgt>
<wgt id='morphing_basis_vector_2'> +3.8405947e-05 </wgt>
<wgt id='morphing_basis_vector_3'> +6.2122231e-05 </wgt>
<wgt id='morphing_basis_vector_4'> +4.4613510e-05 </wgt>
<wgt id='morphing_basis_vector_5'> +7.1203128e-05 </wgt>
</rwgt>
</event>
<event>
 4      1 +1.9882500e-09 3.23358100e+03 7.81860800e-03 7.69589000e-02
        2 -1    0    0  501    0 +0.0000000000e+00 +0.0000000000e+00 +1.9297995844e+03 1.9297995844e+03 0.0000000000e+00 0.0000e+00 1.0000e+00
       -2 -1    0    0    0  501 -0.0000000000e+00 -0.0000000000e+00 -1.3545505063e+03 1.3545505063e+03 0.0000000000e+00 0.0000e+00 -1.0000e+00
      -13  1    1    2    0    0 +1.3218952087e+03 -5.0680528061e+02 -5.0550208042e+02 1.5032600868e+03 0.0000000000e+00 0.0000e+00 -1.0000e+00
       13  1    1    2    0    0 -1.3218952087e+03 +5.0680528061e+02 +1.0807511586e+03 1.7810900039e+03 0.0000000000e+00 0.0000e+00 1.0000e+00
<mgrwt>
<rscale>  0 0.32335807E+04</rscale>
<asrwt>0</asrwt>
<pdfrwt beam="1">  1        2 0.29689224E+00 0.32335807E+04</pdfrwt>
<pdfrwt beam="2">  1       -2 0.20839239E+00 0.32335807E+04</pdfrwt>
<totfact> 0.79525503E-01</totfact>
</mgrwt>
<rwgt>
<wgt id='morphing_basis_vector_1'> +2.9846829e-05 </wgt>
<wgt id='morphing_basis_vector_2'> +2.0485430e-05 </wgt>
<wgt id='morphing_basis_vector_3'> +3.2669126e-05 </wgt>
<wgt id='morphing_basis_vector_4'> +2.2933564e-05 </wgt>
<wgt id='morphing_basis_vector_5'> +3.7015668e-05 </wgt>
</rwgt>
</event>
<event>
 4      1 +1.9882500e-09 3.31342000e+03 7.81860800e-03 7.67776000e-02
        2 -1    0    0  501    0 +0.0000000000e+00 +0.0000000000e+00 +5.8705206938e+03 5.8705206938e+03 0.0000000000e+00 0.0000e+00 1.0000e+00
       -2 -1    0    0    0  501 -0.0000000000e+00 -0.0000000000e+00 -4.6753730535e+02 4.6753730535e+02 0.0000000000e+00 0.0000e+00 -1.0000e+00
      -13  1    1    2    0    0 -3.4010979181e+02 -1.3248215442e+03 +4.4896289601e+03 4.6933564742e+03 0.0000000000e+00 0.0000e+00 -1.0000e+00
       13  1    1    2    0    0 +3.4010979181e+02 +1.3248215442e+03 +9.1335442832e+02 1.6447015249e+03 0.0000000000e+00 0.0000e+00 1.0000e+00
<mgrwt>
<rscale>  0 0.33134196E+04</rscale>
<asrwt>0</asrwt>
<pdfrwt beam="1">  1        2 0.90315697E+00 0.33134196E+04</pdfrwt>
<pdfrwt beam="2">  1       -2 0.71928821E-01 0.33134196E+04</pdfrwt>
<totfact> 0.11722935E-03</totfact>
</mgrwt>
<rwgt>
<wgt id='morphing_basis_vector_1'> +3.9834888e-05 </wgt>
<wgt id='morphing_basis_vector_2'> +4.3041346e-05 </wgt>
<wgt id='morphing_basis_vector_3'> +4.7011816e-05 </wgt>
<wgt id='morphing_basis_vector_4'> +1.0728707e-05 </wgt>
<wgt id='morphing_basis_vector_5'> +3.9634155e-05 </wgt>
</rwgt>
</event>
<event>
 4      1 +1.9882500e-09 3.29110100e+03 7.81860800e-03 7.68277400e-02
        2 -1    0    0  501    0 +0.0000000000e+00 +0.0000000000e+00 +2.1139874484e+03 2.1139874484e+03 0.0000000000e+00 0.0000e+00 -1.0000e+00
       -2 -1    0    0    0  501 -0.0000000000e+00 -0.0000000000e+00 -1.2809138843e+03 1.2809138843e+03 0.0000000000e+00 0.0000e+00 1.0000e+00
      -13  1    1    2    0    0 +1.6389896721e+03 -1.6001728025e+01 +2.6601439771e+02 1.6605140350e+03 0.0000000000e+00 0.0000e+00 1.0000e+00
       13  1    1    2    0    0 -1.6389896721e+03 +1.6001728025e+01 +5.6705916634e+02 1.7343872978e+03 0.0000000000e+00 0.0000e+00 -1.0000e+00
<mgrwt>
<rscale>  0 0.32911007E+04</rscale>
<asrwt>0</asrwt>
<pdfrwt beam="1">  1        2 0.32522884E+00 0.32911007E+04</pdfrwt>
<pdfrwt beam="2">  1       -2 0.19706367E+00 0.32911007E+04</pdfrwt>
<totfact> 0.75312115E-01</totfact>
</mgrwt>
<rwgt>
<wgt id='morphing_basis_vector_1'> +3.2699999e-05 </wgt>
<wgt id='morphing_basis_vector_2'> +2.4006528e-05 </wgt>
<wgt id='morphing_basis_vector_3'> +3.6144948e-05 </wgt>
<wgt id='morphing_basis_vector_4'> +2.3177714e-05 </wgt>
<wgt id='morphing_basis_vector_5'> +3.9622174e-05 </wgt>
</rwgt>
</event>
<event>
 4      1 +1.9882500e-09 3.41185000e+03 7.81860800e-03 7.65611800e-02
        2 -1    0    0  501    0 +0.0000000000e+00 +0.0000000000e+00 +3.7561553938e+03 3.7561553938e+03 0.0000000000e+00 0.0000e+00 -1.0000e+00
       -2 -1    0    0    0  501 -0.0000000000e+00 -0.0000000000e+00 -7.7477630900e+02 7.7477630900e+02 0.0000000000e+00 0.0000e+00 1.0000e+00
      -13  1    1    2    0    0 +1.5688067598e+03 -6.5507281675e+02 +1.3033279821e+03 2.1421808686e+03 0.0000000000e+00 0.0000e+00 1.0000e+00
       13  1    1    2    0    0 -1.5688067598e+03 +6.5507281675e+02 +1.6780511027e+03 2.3887508342e+03 0.0000000000e+00 0.0000e+00 -1.0000e+00
<mgrwt>
<rscale>  0 0.34118501E+04</rscale>
<asrwt>0</asrwt>
<pdfrwt beam="1">  1        2 0.57787005E+00 0.34118501E+04</pdfrwt>
<pdfrwt beam="2">  1       -2 0.11919636E+00 0.34118501E+04</pdfrwt>
<totfact> 0.27116967E-01</totfact>
</mgrwt>
<rwgt>
<wgt id='morphing_basis_vector_1'> +3.7752195e-05 </wgt>
<wgt id='morphing_basis_vector_2'> +2.7779570e-05 </wgt>
<wgt id='morphing_basis_vector_3'> +4.1784330e-05 </wgt>
<wgt id='morphing_basis_vector_4'> +2.6751027e-05 </wgt>
<wgt id='morphing_basis_vector_5'> +4.5807617e-05 </wgt>
</rwgt>
</event>
<event>
 4      1 +1.9882500e-09 3.21088400e+03 7.81860800e-03 7.70114300e-02
        2 -1    0    0  501    0 +0.0000000000e+00 +0.0000000000e+00 +1.7570980292e+03 1.7570980292e+03 0.0000000000e+00 0.0000e+00 1.0000e+00
       -2 -1    0    0    0  501 -0.0000000000e+00 -0.0000000000e+00 -1.4668751733e+03 1.4668751733e+03 0.0000000000e+00 0.0000e+00 -1.0000e+00
      -13  1    1    2    0    0 +8.0336321653e+02 -4.3792265451e+02 -1.1794611639e+03 1.4927482527e+03 0.0000000000e+00 0.0000e+00 -1.0000e+00
       13  1    1    2    0    0 -8.0336321653e+02 +4.3792265451e+02 +1.4696840198e+03 1.7312249498e+03 0.0000000000e+00 0.0000e+00 1.0000e+00
<mgrwt>
<rscale>  0 0.32108837E+04</rscale>
<asrwt>0</asrwt>
<pdfrwt beam="1">  1        2 0.27032277E+00 0.32108837E+04</pdfrwt>
<pdfrwt beam="2">  1       -2 0.22567310E+00 0.32108837E+04</pdfrwt>
<totfact> 0.74918427E-01</totfact>
</mgrwt>
<rwgt>
<wgt id='morphing_basis_vector_1'> +2.8894027e-05 </wgt>
<wgt id='morphing_basis_vector_2'> +1.9535414e-05 </wgt>
<wgt id='morphing_basis_vector_3'> +3.1556904e-05 </wgt>
<wgt id='morphing_basis_vector_4'> +2.2563691e-05 </wgt>
<wgt id='morphing_basis_vector_5'> +3.6001957e-05 </wgt>
</rwgt>
</event>
<event>
 4      1 +1.9882500e-09 3.34690100e+03 7.81860800e-03 7.67031200e-02
        2 -1    0    0  501    0 +0.0000000000e+00 +0.0000000000e+00 +1.1314964946e+03 1.1314964946e+03 0.0000000000e+00 0.0000e+00 -1.0000e+00
       -2 -1    0    0    0  501 -0.0000000000e+00 -0.0000000000e+00 -2.4749852366e+03 2.4749852366e+03 0.0000000000e+00 0.0000e+00 1.0000e+00
      -13  1    1    2    0    0 -1.5788137740e+03 -1.4648601077e+02 -1.2483398699e+03 2.0180345673e+03 0.0000000000e+00 0.0000e+00 1.0000e+00
       13  1    1    2    0    0 +1.5788137740e+03 +1.4648601077e+02 -9.5148872098e+01 1.5884471638e+03 0.0000000000e+00 0.0000e+00 -1.0000e+00
<mgrwt>
<rscale>  0 0.33469013E+04</rscale>
<asrwt>0</asrwt>
<pdfrwt beam="1">  1        2 0.17407639E+00 0.33469013E+04</pdfrwt>
<pdfrwt beam="2">  1       -2 0.38076695E+00 0.33469013E+04</pdfrwt>
<totfact> 0.15249782E-01</totfact>
</mgrwt>
<rwgt>
<wgt id='morphing_basis_vector_1'> +3.4412193e-05 </wgt>
<wgt id='morphing_basis_vector_2'> +2.4066309e-05 </wgt>
<wgt id='morphing_basis_vector_3'> +3.7796771e-05 </wgt>
<wgt id='morphing_basis_vector_4'> +2.5944785e-05 </wgt>
<wgt id='morphing_basis_vector_5'> +4.2493458e-05 </wgt>
</rwgt>
</event>
<event>
 4      1 +1.9882500e-09 3.22647000e+03 7.81860800e-03 7.69753100e-02
        2 -1    0    0  501    0 +0.0000000000e+00 +0.0000000000e+00 +3.1435975949e+03 3.1435975949e+03 0.0000000000e+00 0.0000e+00 1.0000e+00
       -2 -1    0    0    0  501 -0.0000000000e+00 -0.0000000000e+00 -8.2788178541e+02 8.2788178541e+02 0.0000000000e+00 0.0000e+00 -1.0000e+00
      -13  1    1    2    0    0 +5.3041793419e+02 -4.6630488465e+02 +2.9431985775e+03 3.0267476435e+03 0.0000000000e+00 0.0000e+00 1.0000e+00
       13  1    1    2    0    0 -5.3041793419e+02 +4.6630488465e+02 -6.2748276807e+02 9.4473173684e+02 0.0000000000e+00 0.0000e+00 -1.0000e+00
<mgrwt>
<rscale>  0 0.32264700E+04</rscale>
<asrwt>0</asrwt>
<pdfrwt beam="1">  1        2 0.48363039E+00 0.32264700E+04</pdfrwt>
<pdfrwt beam="2">  1       -2 0.12736643E+00 0.32264700E+04</pdfrwt>
<totfact> 0.64356191E-01</totfact>
</mgrwt>
<rwgt>
<wgt id='morphing_basis_vector_1'> +4.0085144e-05 </wgt>
<wgt id='morphing_basis_vector_2'> +5.1205623e-05 </wgt>
<wgt id='morphing_basis_vector_3'> +4.8941317e-05 </wgt>
<wgt id='morphing_basis_vector_4'> +7.6632655e-07 </wgt>
<wgt id='morphing_basis_vector_5'> +3.4875824e-05 </wgt>
</rwgt>
</event>
<event>
 4      1 +1.9882500e-09 3.43175600e+03 7.81860800e-03 7.65183300e-02
        2 -1    0    0  501    0 +0.0000000000e+00 +0.0000000000e+00 +2.4603514377e+03 2.4603514377e+03 0.0000000000e+00 0.0000e+00 1.0000e+00
       -2 -1    0    0    0  501 -0.0000000000e+00 -0.0000000000e+00 -1.1966734728e+03 1.1966734728e+03 0.0000000000e+00 0.0000e+00 -1.0000e+00
      -13  1    1    2    0    0 +1.4391276927e+03 -3.5776521912e+02 -2.8804741266e+02 1.5106474704e+03 0.0000000000e+00 0.0000e+00 -1.0000e+00
       13  1    1    2    0    0 -1.4391276927e+03 +3.5776521912e+02 +1.5517253777e+03 2.1463774401e+03 0.0000000000e+00 0.0000e+00 1.0000e+00
<mgrwt>
<rscale>  0 0.34317560E+04</rscale>
<asrwt>0</asrwt>
<pdfrwt beam="1">  1        2 0.37851561E+00 0.34317560E+04</pdfrwt>
<pdfrwt beam="2">  1       -2 0.18410361E+00 0.34317560E+04</pdfrwt>
<totfact> 0.58518232E-01</totfact>
</mgrwt>
<rwgt>
<wgt id='morphing_basis_vector_1'> +3.7779528e-05 </wgt>
<wgt id='morphing_basis_vector_2'> +2.5915395e-05 </wgt>
<wgt id='morphing_basis_vector_3'> +4.1411573e-05 </wgt>
<wgt id='morphing_basis_vector_4'> +2.9180751e-05 </wgt>
<wgt id='morphing_basis_vector_5'> +4.7042081e-05 </wgt>
</rwgt>
</event>
<event>
 4      1 +1.9882500e-09 3.39226200e+03 7.81860800e-03 7.66036500e-02
        2 -1    0    0  501    0 +0.0000000000e+00 +0.0000000000e+00 +1.4243161441e+03 1.4243161441e+03 0.0000000000e+00 0.0000e+00 -1.0000e+00
       -2 -1    0    0    0  501 -0.0000000000e+00 -0.0000000000e+00 -2.0198181583e+03 2.0198181583e+03 0.0000000000e+00 0.0000e+00 1.0000e+00
      -13  1    1    2    0    0 +1.5822304319e+03 -6.0865967816e+02 -2.4270134735e+02 1.7125488861e+03 0.0000000000e+00 0.0000e+00 1.0000e+00
       13  1    1    2    0    0 -1.5822304319e+03 +6.0865967816e+02 -3.5280066685e+02 1.7315854163e+03 0.0000000000e+00 0.0000e+00 -1.0000e+00
<mgrwt>
<rscale>  0 0.33922616E+04</rscale>
<asrwt>0</asrwt>
<pdfrwt beam="1">  1        2 0.21912556E+00 0.33922616E+04</pdfrwt>
<pdfrwt beam="2">  1       -2 0.31074125E+00 0.33922616E+04</pdfrwt>
<totfact> 0.29545259E-01</totfact>
</mgrwt>
<rwgt>
<wgt id='morphing_basis_vector_1'> +3.7404086e-05 </wgt>
<wgt id='morphing_basis_vector_2'> +2.8636359e-05 </wgt>
<wgt id='morphing_basis_vector_3'> +4.1633853e-05 </wgt>
<wgt id='morphing_basis_vector_4'> +2.5077270e-05 </wgt>
<wgt id='morphing_basis_vector_5'> +4.4669849e-05 </wgt>
</rwgt>
</event>
<event>
 4      1 +1.9882500e-09 3.38438600e+03 7.81860800e-03 7.66208000e-02
        2 -1    0    0  501    0 +0.0000000000e+00 +0.0000000000e+00 +1.8912532679e+03 1.8912532679e+03 0.0000000000e+00 0.0000e+00 -1.0000e+00
       -2 -1    0    0    0  501 -0.0000000000e+00 -0.0000000000e+00 -1.5140844396e+03 1.5140844396e+03 0.0000000000e+00 0.0000e+00 1.0000e+00
      -13  1    1    2    0    0 -7.1467484636e+02 +1.4920930225e+03 -1.6916614754e+02 1.6630450713e+03 0.0000000000e+00 0.0000e+00 1.0000e+00
       13  1    1    2    0    0 +7.1467484636e+02 -1.4920930225e+03 +5.4633497584e+02 1.7422926361e+03 0.0000000000e+00 0.0000e+00 -1.0000e+00
<mgrwt>
<rscale>  0 0.33843860E+04</rscale>
<asrwt>0</asrwt>
<pdfrwt beam="1">  1        2 0.29096204E+00 0.33843860E+04</pdfrwt>
<pdfrwt beam="2">  1       -2 0.23293607E+00 0.33843860E+04</pdfrwt>
<totfact> 0.55262002E-01</totfact>
</mgrwt>
<rwgt>
<wgt id='morphing_basis_vector_1'> +3.6184538e-05 </wgt>
<wgt id='morphing_basis_vector_2'> +2.5795283e-05 </wgt>
<wgt id='morphing_basis_vector_3'> +3.9860738e-05 </wgt>
<wgt id='morphing_basis_vector_4'> +2.6681412e-05 </wgt>
<wgt id='morphing_basis_vector_5'> +4.4405696e-05 </wgt>
</rwgt>
</event>
<event>
 4      1 +1.9882500e-09 3.40757600e+03 7.81860800e-03 7.65704200e-02
        2 -1    0    0  501    0 +0.0000000000e+00 +0.0000000000e+00 +1.9759817709e+03 1.9759817709e+03 0.0000000000e+00 0.0000e+00 -1.0000e+00
       -2 -1    0    0    0  501 -0.0000000000e+00 -0.0000000000e+00 -1.4690888182e+03 1.4690888182e+03 0.0000000000e+00 0.0000e+00 1.0000e+00
      -13  1    1    2    0    0 -1.3799092654e+03 -4.4891025360e+02 -6.4925150572e+02 1.5897161741e+03 0.0000000000e+00 0.0000e+00 1.0000e+00
       13  1    1    2    0    0 +1.3799092654e+03 +4.4891025360e+02 +1.1561444584e+03 1.8553544150e+03 0.0000000000e+00 0.0000e+00 -1.0000e+00
<mgrwt>
<rscale>  0 0.34075755E+04</rscale>
<asrwt>0</asrwt>
<pdfrwt beam="1">  1        2 0.30399720E+00 0.34075755E+04</pdfrwt>
<pdfrwt beam="2">  1       -2 0.22601366E+00 0.34075755E+04</pdfrwt>
<totfact> 0.55305466E-01</totfact>
</mgrwt>
<rwgt>
<wgt id='morphing_basis_vector_1'> +3.6716032e-05 </wgt>
<wgt id='morphing_basis_vector_2'> +2.5144198e-05 </wgt>
<wgt id='morphing_basis_vector_3'> +4.0229914e-05 </wgt>
<wgt id='morphing_basis_vector_4'> +2.8397698e-05 </wgt>
<wgt id='morphing_basis_vector_5'> +4.5724370e-05 </wgt>
</rwgt>
</event>
<event>
 4      1 +1.9882500e-09 3.39773600e+03 7.81860800e-03 7.65917500e-02
        2 -1    0    0  501    0 +0.0000000000e+00 +0.0000000000e+00 +1.8669180177e+03 1.8669180177e+03 0.0000000000e+00 0.0000e+00 -1.0000e+00
       -2 -1    0    0    0  501 -0.0000000000e+00 -0.0000000000e+00 -1.5459445811e+03 1.5459445811e+03 0.0000000000e+00 0.0000e+00 1.0000e+00
      -13  1    1    2    0    0 -1.5784923321e+03 +3.8290739964e+02 -3.3962116183e+02 1.6593970751e+03 0.0000000000e+00 0.0000e+00 1.0000e+00
       13  1    1    2    0    0 +1.5784923321e+03 -3.8290739964e+02 +6.6059459840e+02 1.7534655237e+03 0.0000000000e+00 0.0000e+00 -1.0000e+00
<mgrwt>
<rscale>  0 0.33977356E+04</rscale>
<asrwt>0</asrwt>
<pdfrwt beam="1">  1        2 0.28721816E+00 0.33977356E+04</pdfrwt>
<pdfrwt beam="2">  1       -2 0.23783763E+00 0.33977356E+04</pdfrwt>
<totfact> 0.52638324E-01</totfact>
</mgrwt>
<rwgt>
<wgt id='morphing_basis_vector_1'> +3.6581239e-05 </wgt>
<wgt id='morphing_basis_vector_2'> +2.5692929e-05 </wgt>
<wgt id='morphing_basis_vector_3'> +4.0218342e-05 </wgt>
<wgt id='morphing_basis_vector_4'> +2.7471847e-05 </wgt>
<wgt id='morphing_basis_vector_5'> +4.5145506e-05 </wgt>
</rwgt>
</event>
<event>
 4      1 +1.9882500e-09 3.51775800e+03 7.81860800e-03 7.63365600e-02
        2 -1    0    0  501    0 +0.0000000000e+00 +0.0000000000e+00 +1.6214072438e+03 1.6214072438e+03 0.0000000000e+00 0.0000e+00 -1.0000e+00
       -2 -1    0    0    0  501 -0.0000000000e+00 -0.0000000000e+00 -1.9080061724e+03 1.9080061724e+03 0.0000000000e+00 0.0000e+00 1.0000e+00
      -13  1    1    2    0    0 +1.1830396514e+01 +1.4651773049e+03 -1.1195447764e+03 1.8439807482e+03 0.0000000000e+00 0.0000e+00 1.0000e+00
       13  1    1    2    0    0 -1.1830396514e+01 -1.4651773049e+03 +8.3294584782e+02 1.6854326680e+03 0.0000000000e+00 0.0000e+00 -1.0000e+00
<mgrwt>
<rscale>  0 0.35177578E+04</rscale>
<asrwt>0</asrwt>
<pdfrwt beam="1">  1        2 0.24944727E+00 0.35177578E+04</pdfrwt>
<pdfrwt beam="2">  1       -2 0.29353941E+00 0.35177578E+04</pdfrwt>
<totfact> 0.29614110E-01</totfact>
</mgrwt>
<rwgt>
<wgt id='morphing_basis_vector_1'> +4.1639385e-05 </wgt>
<wgt id='morphing_basis_vector_2'> +2.8475115e-05 </wgt>
<wgt id='morphing_basis_vector_3'> +4.5649744e-05 </wgt>
<wgt id='morphing_basis_vector_4'> +3.2330727e-05 </wgt>
<wgt id='morphing_basis_vector_5'> +5.1979470e-05 </wgt>
</rwgt>
</event>
<event>
 4      1 +1.9882500e-09 3.74770900e+03 7.81860800e-03 7.58756100e-02
        2 -1    0    0  501    0 +0.0000000000e+00 +0.0000000000e+00 +3.1245196263e+03 3.1245196263e+03 0.0000000000e+00 0.0000e+00 -1.0000e+00
       -2 -1    0    0    0  501 -0.0000000000e+00 -0.0000000000e+00 -1.1237987885e+03 1.1237987885e+03 0.0000000000e+00 0.0000e+00 1.0000e+00
      -13  1    1    2    0    0 -5.5995843401e+02 +9.9523966318e+02 -6.8378454258e+02 1.3310209373e+03 0.0000000000e+00 0.0000e+00 1.0000e+00
       13  1    1    2    0    0 +5.5995843401e+02 -9.9523966318e+02 +2.6845053804e+03 2.9172974775e+03 0.0000000000e+00 0.0000e+00 -1.0000e+00
<mgrwt>
<rscale>  0 0.37477094E+04</rscale>
<asrwt>0</asrwt>
<pdfrwt beam="1">  1        2 0.48069532E+00 0.37477094E+04</pdfrwt>
<pdfrwt beam="2">  1       -2 0.17289212E+00 0.37477094E+04</pdfrwt>
<totfact> 0.26559179E-01</totfact>
</mgrwt>
<rwgt>
<wgt id='morphing_basis_vector_1'> +5.3407909e-05 </wgt>
<wgt id='morphing_basis_vector_2'> +3.6219573e-05 </wgt>
<wgt id='morphing_basis_vector_3'> +5.8563795e-05 </wgt>
<wgt id='morphing_basis_vector_4'> +4.2027652e-05 </wgt>
<wgt id='morphing_basis_vector_5'> +6.7091087e-05 </wgt>
</rwgt>
</event>
<event>
 4      1 +1.9882500e-09 3.54492000e+03 7.81860800e-03 7.62802600e-02
        2 -1    0    0  501    0 +0.0000000000e+00 +0.0000000000e+00 +1.4246243919e+03 1.4246243919e+03 0.0000000000e+00 0.0000e+00 -1.0000e+00
       -2 -1    0    0    0  501 -0.0000000000e+00 -0.0000000000e+00 -2.2052225801e+03 2.2052225801e+03 0.0000000000e+00 0.0000e+00 1.0000e+00
      -13  1    1    2    0    0 +7.5500805353e+01 -8.6217905880e+02 -1.9741467517e+03 2.1555297488e+03 0.0000000000e+00 0.0000e+00 1.0000e+00
       13  1    1    2    0    0 -7.5500805353e+01 +8.6217905880e+02 +1.1935485635e+03 1.4743172232e+03 0.0000000000e+00 0.0000e+00 -1.0000e+00
<mgrwt>
<rscale>  0 0.35449197E+04</rscale>
<asrwt>0</asrwt>
<pdfrwt beam="1">  1        2 0.21917299E+00 0.35449197E+04</pdfrwt>
<pdfrwt beam="2">  1       -2 0.33926501E+00 0.35449197E+04</pdfrwt>
<totfact> 0.18862391E-01</totfact>
</mgrwt>
<rwgt>
<wgt id='morphing_basis_vector_1'> +4.2796621e-05 </wgt>
<wgt id='morphing_basis_vector_2'> +2.8964970e-05 </wgt>
<wgt id='morphing_basis_vector_3'> +4.6860590e-05 </wgt>
<wgt id='morphing_basis_vector_4'> +3.3631486e-05 </wgt>
<wgt id='morphing_basis_vector_5'> +5.3637645e-05 </wgt>
</rwgt>
</event>
<event>
 4      1 +1.9882500e-09 3.48660900e+03 7.81860800e-03 7.64017700e-02
        2 -1    0    0  501    0 +0.0000000000e+00 +0.0000000000e+00 +1.9383558776e+03 1.9383558776e+03 0.0000000000e+00 0.0000e+00 1.0000e+00
       -2 -1    0    0    0  501 -0.0000000000e+00 -0.0000000000e+00 -1.5678809533e+03 1.5678809533e+03 0.0000000000e+00 0.0000e+00 -1.0000e+00
      -13  1    1    2    0    0 +9.8952306861e+02 +9.3855633471e+02 -9.0672387385e+02 1.6377399306e+03 0.0000000000e+00 0.0000e+00 -1.0000e+00
       13  1    1    2    0    0 -9.8952306861e+02 -9.3855633471e+02 +1.2771987981e+03 1.8684969003e+03 0.0000000000e+00 0.0000e+00 1.0000e+00
<mgrwt>
<rscale>  0 0.34866094E+04</rscale>
<asrwt>0</asrwt>
<pdfrwt beam="1">  1        2 0.29820860E+00 0.34866094E+04</pdfrwt>
<pdfrwt beam="2">  1       -2 0.24121245E+00 0.34866094E+04</pdfrwt>
<totfact> 0.45146759E-01</totfact>
</mgrwt>
<rwgt>
<wgt id='morphing_basis_vector_1'> +4.0147307e-05 </wgt>
<wgt id='morphing_basis_vector_2'> +2.7346384e-05 </wgt>
<wgt id='morphing_basis_vector_3'> +4.3981342e-05 </wgt>
<wgt id='morphing_basis_vector_4'> +3.1291015e-05 </wgt>
<wgt id='morphing_basis_vector_5'> +5.0159240e-05 </wgt>
</rwgt>
</event>
<event>
 4      1 +1.9882500e-09 3.43032400e+03 7.81860800e-03 7.65214000e-02
        2 -1    0    0  501    0 +0.0000000000e+00 +0.0000000000e+00 +2.6812624244e+03 2.6812624244e+03 0.0000000000e+00 0.0000e+00 -1.0000e+00
       -2 -1    0    0    0  501 -0.0000000000e+00 -0.0000000000e+00 -1.0971628309e+03 1.0971628309e+03 0.0000000000e+00 0.0000e+00 1.0000e+00
      -13  1    1    2    0    0 +1.3012958150e+02 -1.6545317805e+03 +3.1525842351e+02 1.6893184999e+03 0.0000000000e+00 0.0000e+00 1.0000e+00
       13  1    1    2    0    0 -1.3012958150e+02 +1.6545317805e+03 +1.2688411700e+03 2.0891067554e+03 0.0000000000e+00 0.0000e+00 -1.0000e+00
<mgrwt>
<rscale>  0 0.34303245E+04</rscale>
<asrwt>0</asrwt>
<pdfrwt beam="1">  1        2 0.41250191E+00 0.34303245E+04</pdfrwt>
<pdfrwt beam="2">  1       -2 0.16879428E+00 0.34303245E+04</pdfrwt>
<totfact> 0.56401796E-01</totfact>
</mgrwt>
<rwgt>
<wgt id='morphing_basis_vector_1'> +3.8076893e-05 </wgt>
<wgt id='morphing_basis_vector_2'> +2.6931225e-05 </wgt>
<wgt id='morphing_basis_vector_3'> +4.1913477e-05 </wgt>
<wgt id='morphing_basis_vector_4'> +2.8375988e-05 </wgt>
<wgt id='morphing_basis_vector_5'> +4.6900535e-05 </wgt>
</rwgt>
</event>
<event>
 4      1 +1.9882500e-09 3.65966300e+03 7.81860800e-03 7.60480000e-02
        2 -1    0    0  501    0 +0.0000000000e+00 +0.0000000000e+00 +1.2848327378e+03 1.2848327378e+03 0.0000000000e+00 0.0000e+00 1.0000e+00
       -2 -1    0    0    0  501 -0.0000000000e+00 -0.0000000000e+00 -2.6060065362e+03 2.6060065362e+03 0.0000000000e+00 0.0000e+00 -1.0000e+00
      -13  1    1    2    0    0 +2.7216699197e+02 +1.6830617611e+03 -1.3670230068e+03 2.1852971569e+03 0.0000000000e+00 0.0000e+00 -1.0000e+00
       13  1    1    2    0    0 -2.7216699197e+02 -1.6830617611e+03 +4.5849208280e+01 1.7055421171e+03 0.0000000000e+00 0.0000e+00 1.0000e+00
<mgrwt>
<rscale>  0 0.36596626E+04</rscale>
<asrwt>0</asrwt>
<pdfrwt beam="1">  1        2 0.19766658E+00 0.36596626E+04</pdfrwt>
<pdfrwt beam="2">  1       -2 0.40092408E+00 0.36596626E+04</pdfrwt>
<totfact> 0.89591213E-02</totfact>
</mgrwt>
<rwgt>
<wgt id='morphing_basis_vector_1'> +4.8986772e-05 </wgt>
<wgt id='morphing_basis_vector_2'> +3.4106286e-05 </wgt>
<wgt id='morphing_basis_vector_3'> +5.3884927e-05 </wgt>
<wgt id='morphing_basis_vector_4'> +3.7360081e-05 </wgt>
<wgt id='morphing_basis_vector_5'> +6.0902086e-05 </wgt>
</rwgt>
</event>
<event>
 4      1 +1.9882500e-09 3.28629900e+03 7.81860800e-03 7.68385900e-02
        2 -1    0    0  501    0 +0.0000000000e+00 +0.0000000000e+00 +1.7515100316e+03 1.7515100316e+03 0.0000000000e+00 0.0000e+00 -1.0000e+00
       -2 -1    0    0    0  501 -0.0000000000e+00 -0.0000000000e+00 -1.5414930400e+03 1.5414930400e+03 0.0000000000e+00 0.0000e+00 1.0000e+00
      -13  1    1    2    0    0 -1.1715441057e+02 -1.6141429677e+03 -1.7975047062e+02 1.6283405380e+03 0.0000000000e+00 0.0000e+00 1.0000e+00
       13  1    1    2    0    0 +1.1715441057e+02 +1.6141429677e+03 +3.8976746223e+02 1.6646625336e+03 0.0000000000e+00 0.0000e+00 -1.0000e+00
<mgrwt>
<rscale>  0 0.32862991E+04</rscale>
<asrwt>0</asrwt>
<pdfrwt beam="1">  1        2 0.26946308E+00 0.32862991E+04</pdfrwt>
<pdfrwt beam="2">  1       -2 0.23715277E+00 0.32862991E+04</pdfrwt>
<totfact> 0.62290309E-01</totfact>
</mgrwt>
<rwgt>
<wgt id='morphing_basis_vector_1'> +3.2279541e-05 </wgt>
<wgt id='morphing_basis_vector_2'> +2.3186010e-05 </wgt>
<wgt id='morphing_basis_vector_3'> +3.5568696e-05 </wgt>
<wgt id='morphing_basis_vector_4'> +2.3526661e-05 </wgt>
<wgt id='morphing_basis_vector_5'> +3.9429830e-05 </wgt>
</rwgt>
</event>
<event>
 4      1 +1.9882500e-09 3.34691200e+03 7.81860800e-03 7.67031000e-02
        2 -1    0    0  501    0 +0.0000000000e+00 +0.0000000000e+00 +1.7657042539e+03 1.7657042539e+03 0.0000000000e+00 0.0000e+00 -1.0000e+00
       -2 -1    0    0    0  501 -0.0000000000e+00 -0.0000000000e+00 -1.5860273509e+03 1.5860273509e+03 0.0000000000e+00 0.0000e+00 1.0000e+00
      -13  1    1    2    0    0 -9.2980414277e+02 +1.1889522041e+03 -6.3391389765e+02 1.6370674749e+03 0.0000000000e+00 0.0000e+00 1.0000e+00
       13  1    1    2    0    0 +9.2980414277e+02 -1.1889522041e+03 +8.1359080068e+02 1.7146641300e+03 0.0000000000e+00 0.0000e+00 -1.0000e+00
<mgrwt>
<rscale>  0 0.33469122E+04</rscale>
<asrwt>0</asrwt>
<pdfrwt beam="1">  1        2 0.27164681E+00 0.33469122E+04</pdfrwt>
<pdfrwt beam="2">  1       -2 0.24400421E+00 0.33469122E+04</pdfrwt>
<totfact> 0.54530717E-01</totfact>
</mgrwt>
<rwgt>
<wgt id='morphing_basis_vector_1'> +3.4269026e-05 </wgt>
<wgt id='morphing_basis_vector_2'> +2.3644041e-05 </wgt>
<wgt id='morphing_basis_vector_3'> +3.7569958e-05 </wgt>
<wgt id='morphing_basis_vector_4'> +2.6246258e-05 </wgt>
<wgt id='morphing_basis_vector_5'> +4.2518914e-05 </wgt>
</rwgt>
</event>
<event>
 4      1 +1.9882500e-09 3.37059000e+03 7.81860800e-03 7.66509700e-02
        2 -1    0    0  501    0 +0.0000000000e+00 +0.0000000000e+00 +2.4134760451e+03 2.4134760451e+03 0.0000000000e+00 0.0000e+00 -1.0000e+00
       -2 -1    0    0    0  501 -0.0000000000e+00 -0.0000000000e+00 -1.1768169457e+03 1.1768169457e+03 0.0000000000e+00 0.0000e+00 1.0000e+00
      -13  1    1    2    0    0 +1.3815943477e+03 +4.3694252673e+02 +1.5349421590e+03 2.1108692865e+03 0.0000000000e+00 0.0000e+00 -1.0000e+00
       13  1    1    2    0    0 -1.3815943477e+03 -4.3694252673e+02 -2.9828305964e+02 1.4794237043e+03 0.0000000000e+00 0.0000e+00 1.0000e+00
<mgrwt>
<rscale>  0 0.33705902E+04</rscale>
<asrwt>0</asrwt>
<pdfrwt beam="1">  1        2 0.37130401E+00 0.33705902E+04</pdfrwt>
<pdfrwt beam="2">  1       -2 0.18104876E+00 0.33705902E+04</pdfrwt>
<totfact> 0.66111659E-01</totfact>
</mgrwt>
<rwgt>
<wgt id='morphing_basis_vector_1'> +4.1666266e-05 </wgt>
<wgt id='morphing_basis_vector_2'> +4.3221250e-05 </wgt>
<wgt id='morphing_basis_vector_3'> +4.8818897e-05 </wgt>
<wgt id='morphing_basis_vector_4'> +1.3525398e-05 </wgt>
<wgt id='morphing_basis_vector_5'> +4.2628823e-05 </wgt>
</rwgt>
</event>
<event>
 4      1 +1.9882500e-09 3.28568700e+03 7.81860800e-03 7.68399700e-02
        2 -1    0    0  501    0 +0.0000000000e+00 +0.0000000000e+00 +3.2865708258e+03 3.2865708258e+03 0.0000000000e+00 0.0000e+00 1.0000e+00
       -2 -1    0    0    0  501 -0.0000000000e+00 -0.0000000000e+00 -8.2120083392e+02 8.2120083392e+02 0.0000000000e+00 0.0000e+00 -1.0000e+00
      -13  1    1    2    0    0 -1.1436270532e+03 -6.2251589911e+02 -1.9718830181e+01 1.3022279807e+03 0.0000000000e+00 0.0000e+00 -1.0000e+00
       13  1    1    2    0    0 +1.1436270532e+03 +6.2251589911e+02 +2.4850888221e+03 2.8055436791e+03 0.0000000000e+00 0.0000e+00 1.0000e+00
<mgrwt>
<rscale>  0 0.32856870E+04</rscale>
<asrwt>0</asrwt>
<pdfrwt beam="1">  1        2 0.50562627E+00 0.32856870E+04</pdfrwt>
<pdfrwt beam="2">  1       -2 0.12633859E+00 0.32856870E+04</pdfrwt>
<totfact> 0.52253786E-01</totfact>
</mgrwt>
<rwgt>
<wgt id='morphing_basis_vector_1'> +3.1722536e-05 </wgt>
<wgt id='morphing_basis_vector_2'> +2.1599789e-05 </wgt>
<wgt id='morphing_basis_vector_3'> +3.4699800e-05 </wgt>
<wgt id='morphing_basis_vector_4'> +2.4625738e-05 </wgt>
<wgt id='morphing_basis_vector_5'> +3.9492501e-05 </wgt>
</rwgt>
</event>
<event>
 4      1 +1.9882500e-09 3.24061400e+03 7.81860800e-03 7.69427100e-02
        2 -1    0    0  501    0 +0.0000000000e+00 +0.0000000000e+00 +1.1235542371e+03 1.1235542371e+03 0.0000000000e+00 0.0000e+00 1.0000e+00
       -2 -1    0    0    0  501 -0.0000000000e+00 -0.0000000000e+00 -2.3366878134e+03 2.3366878134e+03 0.0000000000e+00 0.0000e+00 -1.0000e+00
      -13  1    1    2    0    0 +5.6532516055e+02 -9.6990616500e+02 -1.8541196634e+03 2.1675032254e+03 0.0000000000e+00 0.0000e+00 -1.0000e+00
       13  1    1    2    0    0 -5.6532516055e+02 +9.6990616500e+02 +6.4098608702e+02 1.2927388251e+03 0.0000000000e+00 0.0000e+00 1.0000e+00
<mgrwt>
<rscale>  0 0.32406144E+04</rscale>
<asrwt>0</asrwt>
<pdfrwt beam="1">  1        2 0.17285450E+00 0.32406144E+04</pdfrwt>
<pdfrwt beam="2">  1       -2 0.35949043E+00 0.32406144E+04</pdfrwt>
<totfact> 0.21297258E-01</totfact>
</mgrwt>
<rwgt>
<wgt id='morphing_basis_vector_1'> +2.9990766e-05 </wgt>
<wgt id='morphing_basis_vector_2'> +2.0326479e-05 </wgt>
<wgt id='morphing_basis_vector_3'> +3.2773401e-05 </wgt>
<wgt id='morphing_basis_vector_4'> +2.3375011e-05 </wgt>
<wgt id='morphing_basis_vector_5'> +3.7361047e-05 </wgt>
</rwgt>
</event>
<event>
 4      1 +1.9882500e-09 3.38478000e+03 7.81860800e-03 7.66199400e-02
        2 -1    0    0  501    0 +0.0000000000e+00 +0.0000000000e+00 +2.2624318178e+03 2.2624318178e+03 0.0000000000e+00 0.0000e+00 -1.0000e+00
       -2 -1    0    0    0  501 -0.0000000000e+00 -0.0000000000e+00 -1.2659756582e+03 1.2659756582e+03 0.0000000000e+00 0.0000e+00 1.0000e+00
      -13  1    1    2    0    0 -9.3154978903e+02 +1.4064429229e+03 +3.5714518757e+02 1.7243605742e+03 0.0000000000e+00 0.0000e+00 1.0000e+00
       13  1    1    2    0    0 +9.3154978903e+02 -1.4064429229e+03 +6.3931097201e+02 1.8040469018e+03 0.0000000000e+00 0.0000e+00 -1.0000e+00
<mgrwt>
<rscale>  0 0.33847798E+04</rscale>
<asrwt>0</asrwt>
<pdfrwt beam="1">  1        2 0.34806643E+00 0.33847798E+04</pdfrwt>
<pdfrwt beam="2">  1       -2 0.19476549E+00 0.33847798E+04</pdfrwt>
<totfact> 0.63882756E-01</totfact>
</mgrwt>
<rwgt>
<wgt id='morphing_basis_vector_1'> +3.6586371e-05 </wgt>
<wgt id='morphing_basis_vector_2'> +2.6940365e-05 </wgt>
<wgt id='morphing_basis_vector_3'> +4.0489452e-05 </wgt>
<wgt id='morphing_basis_vector_4'> +2.5885861e-05 </wgt>
<wgt id='morphing_basis_vector_5'> +4.4359654e-05 </wgt>
</rwgt>
</event>
<event>
 4      1 +1.9882500e-09 3.38921500e+03 7.81860800e-03 7.66102800e-02
        2 -1    0    0  501    0 +0.0000000000e+00 +0.0000000000e+00 +1.3891015848e+03 1.3891015848e+03 0.0000000000e+00 0.0000e+00 -1.0000e+00
       -2 -1    0    0    0  501 -0.0000000000e+00 -0.0000000000e+00 -2.0673030100e+03 2.0673030100e+03 0.0000000000e+00 0.0000e+00 1.0000e+00
      -13  1    1    2    0    0 +1.2901696241e+03 +4.5144007319e+02 +6.8243483604e+02 1.5277608138e+03 0.0000000000e+00 0.0000e+00 1.0000e+00
       13  1    1    2    0    0 -1.2901696241e+03 -4.5144007319e+02 -1.3606362612e+03 1.9286437810e+03 0.0000000000e+00 0.0000e+00 -1.0000e+00
<mgrwt>
<rscale>  0 0.33892146E+04</rscale>
<asrwt>0</asrwt>
<pdfrwt beam="1">  1        2 0.21370794E+00 0.33892146E+04</pdfrwt>
<pdfrwt beam="2">  1       -2 0.31804662E+00 0.33892146E+04</pdfrwt>
<totfact> 0.27648949E-01</totfact>
</mgrwt>
<rwgt>
<wgt id='morphing_basis_vector_1'> +4.4089343e-05 </wgt>
<wgt id='morphing_basis_vector_2'> +4.8596073e-05 </wgt>
<wgt id='morphing_basis_vector_3'> +5.2288831e-05 </wgt>
<wgt id='morphing_basis_vector_4'> +1.0678627e-05 </wgt>
<wgt id='morphing_basis_vector_5'> +4.3324566e-05 </wgt>
</rwgt>
</event>
<event>
 4      1 +1.9882500e-09 3.60063400e+03 7.81860800e-03 7.61663700e-02
        2 -1    0    0  501    0 +0.0000000000e+00 +0.0000000000e+00 +1.7158209246e+03 1.7158209246e+03 0.0000000000e+00 0.0000e+00 -1.0000e+00
       -2 -1    0    0    0  501 -0.0000000000e+00 -0.0000000000e+00 -1.8889741031e+03 1.8889741031e+03 0.0000000000e+00 0.0000e+00 1.0000e+00
      -13  1    1    2    0    0 -4.1989089390e+02 +1.1177485547e+03 -1.4355278782e+03 1.8671932100e+03 0.0000000000e+00 0.0000e+00 1.0000e+00
       13  1    1    2    0    0 +4.1989089390e+02 -1.1177485547e+03 +1.2623746997e+03 1.7376018177e+03 0.0000000000e+00 0.0000e+00 -1.0000e+00
<mgrwt>
<rscale>  0 0.36006340E+04</rscale>
<asrwt>0</asrwt>
<pdfrwt beam="1">  1        2 0.26397245E+00 0.36006340E+04</pdfrwt>
<pdfrwt beam="2">  1       -2 0.29061140E+00 0.36006340E+04</pdfrwt>
<totfact> 0.27281307E-01</totfact>
</mgrwt>
<rwgt>
<wgt id='morphing_basis_vector_1'> +4.5562761e-05 </wgt>
<wgt id='morphing_basis_vector_2'> +3.0911994e-05 </wgt>
<wgt id='morphing_basis_vector_3'> +4.9922800e-05 </wgt>
<wgt id='morphing_basis_vector_4'> +3.5747003e-05 </wgt>
<wgt id='morphing_basis_vector_5'> +5.7106985e-05 </wgt>
</rwgt>
</event>
<event>
 4      1 +1.9882500e-09 3.60931100e+03 7.81860800e-03 7.61488300e-02
        2 -1    0    0  501    0 +0.0000000000e+00 +0.0000000000e+00 +2.1770589314e+03 2.1770589314e+03 0.0000000000e+00 0.0000e+00 1.0000e+00
       -2 -1    0    0    0  501 -0.0000000000e+00 -0.0000000000e+00 -1.4959547802e+03 1.4959547802e+03 0.0000000000e+00 0.0000e+00 -1.0000e+00
      -13  1    1    2    0    0 -1.2649078969e+03 +1.2156133960e+03 -9.0087810578e+01 1.7566512829e+03 0.0000000000e+00 0.0000e+00 -1.0000e+00
       13  1    1    2    0    0 +1.2649078969e+03 -1.2156133960e+03 +7.7119196176e+02 1.9163624286e+03 0.0000000000e+00 0.0000e+00 1.0000e+00
<mgrwt>
<rscale>  0 0.36093111E+04</rscale>
<asrwt>0</asrwt>
<pdfrwt beam="1">  1        2 0.33493214E+00 0.36093111E+04</pdfrwt>
<pdfrwt beam="2">  1       -2 0.23014689E+00 0.36093111E+04</pdfrwt>
<totfact> 0.39131298E-01</totfact>
</mgrwt>
<rwgt>
<wgt id='morphing_basis_vector_1'> +4.6654023e-05 </wgt>
<wgt id='morphing_basis_vector_2'> +3.3131576e-05 </wgt>
<wgt id='morphing_basis_vector_3'> +5.1446145e-05 </wgt>
<wgt id='morphing_basis_vector_4'> +3.4719513e-05 </wgt>
<wgt id='morphing_basis_vector_5'> +5.7548727e-05 </wgt>
</rwgt>
</event>
<event>
 4      1 +1.9882500e-09 3.31774600e+03 7.81860800e-03 7.67679200e-02
        2 -1    0    0  501    0 +0.0000000000e+00 +0.0000000000e+00 +3.2109677196e+03 3.2109677196e+03 0.0000000000e+00 0.0000e+00 -1.0000e+00
       -2 -1    0    0    0  501 -0.0000000000e+00 -0.0000000000e+00 -8.5701896279e+02 8.5701896279e+02 0.0000000000e+00 0.0000e+00 1.0000e+00
      -13  1    1    2    0    0 +9.0882810807e+02 +3.2231032361e+02 -4.7807688942e+02 1.0762945633e+03 0.0000000000e+00 0.0000e+00 1.0000e+00
       13  1    1    2    0    0 -9.0882810807e+02 -3.2231032361e+02 +2.8320256462e+03 2.9916921191e+03 0.0000000000e+00 0.0000e+00 -1.0000e+00
<mgrwt>
<rscale>  0 0.33177464E+04</rscale>
<asrwt>0</asrwt>
<pdfrwt beam="1">  1        2 0.49399503E+00 0.33177464E+04</pdfrwt>
<pdfrwt beam="2">  1       -2 0.13184907E+00 0.33177464E+04</pdfrwt>
<totfact> 0.52436521E-01</totfact>
</mgrwt>
<rwgt>
<wgt id='morphing_basis_vector_1'> +3.2905074e-05 </wgt>
<wgt id='morphing_basis_vector_2'> +2.2263657e-05 </wgt>
<wgt id='morphing_basis_vector_3'> +3.5971863e-05 </wgt>
<wgt id='morphing_basis_vector_4'> +2.5742630e-05 </wgt>
<wgt id='morphing_basis_vector_5'> +4.1079328e-05 </wgt>
</rwgt>
</event>
<event>
 4      1 +1.9882500e-09 3.45135100e+03 7.81860800e-03 7.64764400e-02
        2 -1    0    0  501    0 +0.0000000000e+00 +0.0000000000e+00 +2.3974008189e+03 2.3974008189e+03 0.0000000000e+00 0.0000e+00 -1.0000e+00
       -2 -1    0    0    0  501 -0.0000000000e+00 -0.0000000000e+00 -1.2421602007e+03 1.2421602007e+03 0.0000000000e+00 0.0000e+00 1.0000e+00
      -13  1    1    2    0    0 +1.6666642494e+03 -4.3380977228e+02 +6.9311563622e+02 1.8564401213e+03 0.0000000000e+00 0.0000e+00 1.0000e+00
       13  1    1    2    0    0 -1.6666642494e+03 +4.3380977228e+02 +4.6212498197e+02 1.7831208983e+03 0.0000000000e+00 0.0000e+00 -1.0000e+00
<mgrwt>
<rscale>  0 0.34513510E+04</rscale>
<asrwt>0</asrwt>
<pdfrwt beam="1">  1        2 0.36883089E+00 0.34513510E+04</pdfrwt>
<pdfrwt beam="2">  1       -2 0.19110157E+00 0.34513510E+04</pdfrwt>
<totfact> 0.56426915E-01</totfact>
</mgrwt>
<rwgt>
<wgt id='morphing_basis_vector_1'> +4.0246854e-05 </wgt>
<wgt id='morphing_basis_vector_2'> +3.1226923e-05 </wgt>
<wgt id='morphing_basis_vector_3'> +4.4909435e-05 </wgt>
<wgt id='morphing_basis_vector_4'> +2.6489997e-05 </wgt>
<wgt id='morphing_basis_vector_5'> +4.7854219e-05 </wgt>
</rwgt>
</event>
<event>
 4      1 +1.9882500e-09 3.37866700e+03 7.81860800e-03 7.66332900e-02
        2 -1    0    0  501    0 +0.0000000000e+00 +0.0000000000e+00 +4.3070936876e+03 4.3070936876e+03 0.0000000000e+00 0.0000e+00 -1.0000e+00
       -2 -1    0    0    0  501 -0.0000000000e+00 -0.0000000000e+00 -6.6259257985e+02 6.6259257985e+02 0.0000000000e+00 0.0000e+00 1.0000e+00
      -13  1    1    2    0    0 -1.4187291901e+03 +3.2086925290e+02 +3.0859411735e+03 3.4115659921e+03 0.0000000000e+00 0.0000e+00 -1.0000e+00
       13  1    1    2    0    0 +1.4187291901e+03 -3.2086925290e+02 +5.5855993422e+02 1.5581202753e+03 0.0000000000e+00 0.0000e+00 1.0000e+00
<mgrwt>
<rscale>  0 0.33786674E+04</rscale>
<asrwt>0</asrwt>
<pdfrwt beam="1">  1        2 0.66262978E+00 0.33786674E+04</pdfrwt>
<pdfrwt beam="2">  1       -2 0.10193732E+00 0.33786674E+04</pdfrwt>
<totfact> 0.13482587E-01</totfact>
</mgrwt>
<rwgt>
<wgt id='morphing_basis_vector_1'> +4.2028047e-05 </wgt>
<wgt id='morphing_basis_vector_2'> +4.3528311e-05 </wgt>
<wgt id='morphing_basis_vector_3'> +4.9232619e-05 </wgt>
<wgt id='morphing_basis_vector_4'> +1.3732224e-05 </wgt>
<wgt id='morphing_basis_vector_5'> +4.3047931e-05 </wgt>
</rwgt>
</event>
<event>
 4      1 +1.9882500e-09 3.33389000e+03 7.81860800e-03 7.67319600e-02
        2 -1    0    0  501    0 +0.0000000000e+00 +0.0000000000e+00 +2.2322776727e+03 2.2322776727e+03 0.0000000000e+00 0.0000e+00 -1.0000e+00
       -2 -1    0    0    0  501 -0.0000000000e+00 -0.0000000000e+00 -1.2447848808e+03 1.2447848808e+03 0.0000000000e+00 0.0000e+00 1.0000e+00
      -13  1    1    2    0    0 -1.0148134533e+03 -4.7130094514e+02 +1.7824202523e+03 2.1045172562e+03 0.0000000000e+00 0.0000e+00 -1.0000e+00
       13  1    1    2    0    0 +1.0148134533e+03 +4.7130094514e+02 -7.9492746039e+02 1.3725452973e+03 0.0000000000e+00 0.0000e+00 1.0000e+00
<mgrwt>
<rscale>  0 0.33338899E+04</rscale>
<asrwt>0</asrwt>
<pdfrwt beam="1">  1        2 0.34342733E+00 0.33338899E+04</pdfrwt>
<pdfrwt beam="2">  1       -2 0.19150537E+00 0.33338899E+04</pdfrwt>
<totfact> 0.70592762E-01</totfact>
</mgrwt>
<rwgt>
<wgt id='morphing_basis_vector_1'> +4.3884552e-05 </wgt>
<wgt id='morphing_basis_vector_2'> +5.3123297e-05 </wgt>
<wgt id='morphing_basis_vector_3'> +5.3035576e-05 </wgt>
<wgt id='morphing_basis_vector_4'> +4.5755716e-06 </wgt>
<wgt id='morphing_basis_vector_5'> +4.0098527e-05 </wgt>
</rwgt>
</event>
<event>
 4      1 +1.9882500e-09 3.61439800e+03 7.81860800e-03 7.61385600e-02
        2 -1    0    0  501    0 +0.0000000000e+00 +0.0000000000e+00 +1.1213879314e+03 1.1213879314e+03 0.0000000000e+00 0.0000e+00 1.0000e+00
       -2 -1    0    0    0  501 -0.0000000000e+00 -0.0000000000e+00 -2.9124346535e+03 2.9124346535e+03 0.0000000000e+00 0.0000e+00 -1.0000e+00
      -13  1    1    2    0    0 +1.4958548001e+03 +9.1793728842e+02 -4.1448619373e+02 1.8033272729e+03 0.0000000000e+00 0.0000e+00 1.0000e+00
       13  1    1    2    0    0 -1.4958548001e+03 -9.1793728842e+02 -1.3765605283e+03 2.2304953120e+03 0.0000000000e+00 0.0000e+00 -1.0000e+00
<mgrwt>
<rscale>  0 0.36143985E+04</rscale>
<asrwt>0</asrwt>
<pdfrwt beam="1">  1        2 0.17252122E+00 0.36143985E+04</pdfrwt>
<pdfrwt beam="2">  1       -2 0.44806686E+00 0.36143985E+04</pdfrwt>
<totfact> 0.54111584E-02</totfact>
</mgrwt>
<rwgt>
<wgt id='morphing_basis_vector_1'> +5.0084653e-05 </wgt>
<wgt id='morphing_basis_vector_2'> +4.2637538e-05 </wgt>
<wgt id='morphing_basis_vector_3'> +5.6784736e-05 </wgt>
<wgt id='morphing_basis_vector_4'> +2.8244871e-05 </wgt>
<wgt id='morphing_basis_vector_5'> +5.7322161e-05 </wgt>
</rwgt>
</event>
<event>
 4      1 +1.9882500e-09 3.31611100e+03 7.81860800e-03 7.67715800e-02
        2 -1    0    0  501    0 +0.0000000000e+00 +0.0000000000e+00 +8.9324305460e+02 8.9324305460e+02 0.0000000000e+00 0.0000e+00 -1.0000e+00
       -2 -1    0    0    0  501 -0.0000000000e+00 -0.0000000000e+00 -3.0777164649e+03 3.0777164649e+03 0.0000000000e+00 0.0000e+00 1.0000e+00
      -13  1    1    2    0    0 -9.2988242873e+02 +2.5621487693e+02 -2.7071952224e+03 2.8738881966e+03 0.0000000000e+00 0.0000e+00 1.0000e+00
       13  1    1    2    0    0 +9.2988242873e+02 -2.5621487693e+02 +5.2272181217e+02 1.0970713228e+03 0.0000000000e+00 0.0000e+00 -1.0000e+00
<mgrwt>
<rscale>  0 0.33161115E+04</rscale>
<asrwt>0</asrwt>
<pdfrwt beam="1">  1        2 0.13742201E+00 0.33161115E+04</pdfrwt>
<pdfrwt beam="2">  1       -2 0.47349484E+00 0.33161115E+04</pdfrwt>
<totfact> 0.50623322E-02</totfact>
</mgrwt>
<rwgt>
<wgt id='morphing_basis_vector_1'> +3.2840798e-05 </wgt>
<wgt id='morphing_basis_vector_2'> +2.2220090e-05 </wgt>
<wgt id='morphing_basis_vector_3'> +3.5901131e-05 </wgt>
<wgt id='morphing_basis_vector_4'> +2.5691462e-05 </wgt>
<wgt id='morphing_basis_vector_5'> +4.0997824e-05 </wgt>
</rwgt>
</event>
<event>
 4      1 +1.9882500e-09 3.25993700e+03 7.81860800e-03 7.68984600e-02
        2 -1    0    0  501    0 +0.0000000000e+00 +0.0000000000e+00 +2.4452824647e+03 2.4452824647e+03 0.0000000000e+00 0.0000e+00 -1.0000e+00
       -2 -1    0    0    0  501 -0.0000000000e+00 -0.0000000000e+00 -1.0864988381e+03 1.0864988381e+03 0.0000000000e+00 0.0000e+00 1.0000e+00
      -13  1    1    2    0    0 -4.2272471880e+02 +7.4440082560e+02 -8.2334717732e+02 1.1877412814e+03 0.0000000000e+00 0.0000e+00 1.0000e+00
       13  1    1    2    0    0 +4.2272471880e+02 -7.4440082560e+02 +2.1821308039e+03 2.3440400215e+03 0.0000000000e+00 0.0000e+00 -1.0000e+00
<mgrwt>
<rscale>  0 0.32599365E+04</rscale>
<asrwt>0</asrwt>
<pdfrwt beam="1">  1        2 0.37619730E+00 0.32599365E+04</pdfrwt>
<pdfrwt beam="2">  1       -2 0.16715367E+00 0.32599365E+04</pdfrwt>
<totfact> 0.81776601E-01</totfact>
</mgrwt>
<rwgt>
<wgt id='morphing_basis_vector_1'> +3.0682150e-05 </wgt>
<wgt id='morphing_basis_vector_2'> +2.0741489e-05 </wgt>
<wgt id='morphing_basis_vector_3'> +3.3522703e-05 </wgt>
<wgt id='morphing_basis_vector_4'> +2.3993321e-05 </wgt>
<wgt id='morphing_basis_vector_5'> +3.8271226e-05 </wgt>
</rwgt>
</event>
<event>
 4      1 +1.9882500e-09 3.69690800e+03 7.81860800e-03 7.59744700e-02
        2 -1    0    0  501    0 +0.0000000000e+00 +0.0000000000e+00 +1.8694913187e+03 1.8694913187e+03 0.0000000000e+00 0.0000e+00 -1.0000e+00
       -2 -1    0    0    0  501 -0.0000000000e+00 -0.0000000000e+00 -1.8276534120e+03 1.8276534120e+03 0.0000000000e+00 0.0000e+00 1.0000e+00
      -13  1    1    2    0    0 -3.7183123670e+02 -9.0701575427e+02 -1.5462953496e+03 1.8308373372e+03 0.0000000000e+00 0.0000e+00 1.0000e+00
       13  1    1    2    0    0 +3.7183123670e+02 +9.0701575427e+02 +1.5881332563e+03 1.8663073935e+03 0.0000000000e+00 0.0000e+00 -1.0000e+00
<mgrwt>
<rscale>  0 0.36969080E+04</rscale>
<asrwt>0</asrwt>
<pdfrwt beam="1">  1        2 0.28761405E+00 0.36969080E+04</pdfrwt>
<pdfrwt beam="2">  1       -2 0.28117745E+00 0.36969080E+04</pdfrwt>
<totfact> 0.25760717E-01</totfact>
</mgrwt>
<rwgt>
<wgt id='morphing_basis_vector_1'> +5.0573230e-05 </wgt>
<wgt id='morphing_basis_vector_2'> +3.4259940e-05 </wgt>
<wgt id='morphing_basis_vector_3'> +5.5432023e-05 </wgt>
<wgt id='morphing_basis_vector_4'> +3.9811114e-05 </wgt>
<wgt id='morphing_basis_vector_5'> +6.3509099e-05 </wgt>
</rwgt>
</event>
<event>
 4      1 +1.9882500e-09 3.47933200e+03 7.81860800e-03 7.64171100e-02
        2 -1    0    0  501    0 +0.0000000000e+00 +0.0000000000e+00 +3.0193791631e+03 3.0193791631e+03 0.0000000000e+00 0.0000e+00 1.0000e+00
       -2 -1    0    0    0  501 -0.0000000000e+00 -0.0000000000e+00 -1.0023380017e+03 1.0023380017e+03 0.0000000000e+00 0.0000e+00 -1.0000e+00
      -13  1    1    2    0    0 +1.3688870199e+03 -1.0144397834e+03 +6.0231409915e+02 1.8071308811e+03 0.0000000000e+00 0.0000e+00 -1.0000e+00
       13  1    1    2    0    0 -1.3688870199e+03 +1.0144397834e+03 +1.4147270622e+03 2.2145862837e+03 0.0000000000e+00 0.0000e+00 1.0000e+00
<mgrwt>
<rscale>  0 0.34793324E+04</rscale>
<asrwt>0</asrwt>
<pdfrwt beam="1">  1        2 0.46451987E+00 0.34793324E+04</pdfrwt>
<pdfrwt beam="2">  1       -2 0.15420585E+00 0.34793324E+04</pdfrwt>
<totfact> 0.44831321E-01</totfact>
</mgrwt>
<rwgt>
<wgt id='morphing_basis_vector_1'> +4.0409825e-05 </wgt>
<wgt id='morphing_basis_vector_2'> +2.8867991e-05 </wgt>
<wgt id='morphing_basis_vector_3'> +4.4559468e-05 </wgt>
<wgt id='morphing_basis_vector_4'> +2.9779849e-05 </wgt>
<wgt id='morphing_basis_vector_5'> +4.9635586e-05 </wgt>
</rwgt>
</event>
<event>
 4      1 +1.9882500e-09 3.82744400e+03 7.81860800e-03 7.57236200e-02
        2 -1    0    0  501    0 +0.0000000000e+00 +0.0000000000e+00 +2.5780017560e+03 2.5780017560e+03 0.0000000000e+00 0.0000e+00 -1.0000e+00
       -2 -1    0    0    0  501 -0.0000000000e+00 -0.0000000000e+00 -1.4206088081e+03 1.4206088081e+03 0.0000000000e+00 0.0000e+00 1.0000e+00
      -13  1    1    2    0    0 -1.1717680904e+02 -5.3960680204e+02 -1.3355748267e+03 1.4452217903e+03 0.0000000000e+00 0.0000e+00 1.0000e+00
       13  1    1    2    0    0 +1.1717680904e+02 +5.3960680204e+02 +2.4929677746e+03 2.5533887739e+03 0.0000000000e+00 0.0000e+00 -1.0000e+00
<mgrwt>
<rscale>  0 0.38274441E+04</rscale>
<asrwt>0</asrwt>
<pdfrwt beam="1">  1        2 0.39661566E+00 0.38274441E+04</pdfrwt>
<pdfrwt beam="2">  1       -2 0.21855520E+00 0.38274441E+04</pdfrwt>
<totfact> 0.26994422E-01</totfact>
</mgrwt>
<rwgt>
<wgt id='morphing_basis_vector_1'> +5.8041747e-05 </wgt>
<wgt id='morphing_basis_vector_2'> +3.9304589e-05 </wgt>
<wgt id='morphing_basis_vector_3'> +6.3658215e-05 </wgt>
<wgt id='morphing_basis_vector_4'> +4.5805210e-05 </wgt>
<wgt id='morphing_basis_vector_5'> +7.3024914e-05 </wgt>
</rwgt>
</event>
<event>
 4      1 +1.9882500e-09 3.34486700e+03 7.81860800e-03 7.67076200e-02
        2 -1    0    0  501    0 +0.0000000000e+00 +0.0000000000e+00 +1.2900877522e+03 1.2900877522e+03 0.0000000000e+00 0.0000e+00 -1.0000e+00
       -2 -1    0    0    0  501 -0.0000000000e+00 -0.0000000000e+00 -2.1680963753e+03 2.1680963753e+03 0.0000000000e+00 0.0000e+00 1.0000e+00
      -13  1    1    2    0    0 -1.1772497580e+03 +2.3734442996e+02 -1.6423888379e+03 2.0346229297e+03 0.0000000000e+00 0.0000e+00 1.0000e+00
       13  1    1    2    0    0 +1.1772497580e+03 -2.3734442996e+02 +7.6438021489e+02 1.4235611978e+03 0.0000000000e+00 0.0000e+00 -1.0000e+00
<mgrwt>
<rscale>  0 0.33448675E+04</rscale>
<asrwt>0</asrwt>
<pdfrwt beam="1">  1        2 0.19847504E+00 0.33448675E+04</pdfrwt>
<pdfrwt beam="2">  1       -2 0.33355329E+00 0.33448675E+04</pdfrwt>
<totfact> 0.24930318E-01</totfact>
</mgrwt>
<rwgt>
<wgt id='morphing_basis_vector_1'> +3.4015890e-05 </wgt>
<wgt id='morphing_basis_vector_2'> +2.3086017e-05 </wgt>
<wgt id='morphing_basis_vector_3'> +3.7209081e-05 </wgt>
<wgt id='morphing_basis_vector_4'> +2.6538368e-05 </wgt>
<wgt id='morphing_basis_vector_5'> +4.2443860e-05 </wgt>
</rwgt>
</event>
<event>
 4      1 +1.9882500e-09 3.36680100e+03 7.81860800e-03 7.66592900e-02
        2 -1    0    0  501    0 +0.0000000000e+00 +0.0000000000e+00 +1.6137112782e+03 1.6137112782e+03 0.0000000000e+00 0.0000e+00 -1.0000e+00
       -2 -1    0    0    0  501 -0.0000000000e+00 -0.0000000000e+00 -1.7560988877e+03 1.7560988877e+03 0.0000000000e+00 0.0000e+00 1.0000e+00
      -13  1    1    2    0    0 +3.0893511705e+01 -9.1882455249e+02 -1.4826471238e+03 1.7445444852e+03 0.0000000000e+00 0.0000e+00 1.0000e+00
       13  1    1    2    0    0 -3.0893511705e+01 +9.1882455249e+02 +1.3402595142e+03 1.6252656807e+03 0.0000000000e+00 0.0000e+00 -1.0000e+00
<mgrwt>
<rscale>  0 0.33668006E+04</rscale>
<asrwt>0</asrwt>
<pdfrwt beam="1">  1        2 0.24826327E+00 0.33668006E+04</pdfrwt>
<pdfrwt beam="2">  1       -2 0.27016906E+00 0.33668006E+04</pdfrwt>
<totfact> 0.43677074E-01</totfact>
</mgrwt>
<rwgt>
<wgt id='morphing_basis_vector_1'> +3.4875809e-05 </wgt>
<wgt id='morphing_basis_vector_2'> +2.3594293e-05 </wgt>
<wgt id='morphing_basis_vector_3'> +3.8139614e-05 </wgt>
<wgt id='morphing_basis_vector_4'> +2.7318521e-05 </wgt>
<wgt id='morphing_basis_vector_5'> +4.3582148e-05 </wgt>
</rwgt>
</event>
<event>
 4      1 +1.9882500e-09 3.35155300e+03 7.81860800e-03 7.66928500e-02
        2 -1    0    0  501    0 +0.0000000000e+00 +0.0000000000e+00 +2.5665770446e+03 2.5665770446e+03 0.0000000000e+00 0.0000e+00 -1.0000e+00
       -2 -1    0    0    0  501 -0.0000000000e+00 -0.0000000000e+00 -1.0941522769e+03 1.0941522769e+03 0.0000000000e+00 0.0000e+00 1.0000e+00
      -13  1    1    2    0    0 +1.3275629028e+03 +3.9778733819e+02 -2.9280432112e+02 1.4164718132e+03 0.0000000000e+00 0.0000e+00 1.0000e+00
       13  1    1    2    0    0 -1.3275629028e+03 -3.9778733819e+02 +1.7652290888e+03 2.2442575082e+03 0.0000000000e+00 0.0000e+00 -1.0000e+00
<mgrwt>
<rscale>  0 0.33515525E+04</rscale>
<asrwt>0</asrwt>
<pdfrwt beam="1">  1        2 0.39485801E+00 0.33515525E+04</pdfrwt>
<pdfrwt beam="2">  1       -2 0.16833112E+00 0.33515525E+04</pdfrwt>
<totfact> 0.67235849E-01</totfact>
</mgrwt>
<rwgt>
<wgt id='morphing_basis_vector_1'> +3.4350684e-05 </wgt>
<wgt id='morphing_basis_vector_2'> +2.3459020e-05 </wgt>
<wgt id='morphing_basis_vector_3'> +3.7608666e-05 </wgt>
<wgt id='morphing_basis_vector_4'> +2.6618348e-05 </wgt>
<wgt id='morphing_basis_vector_5'> +4.2775513e-05 </wgt>
</rwgt>
</event>
<event>
 4      1 +1.9882500e-09 3.58968200e+03 7.81860800e-03 7.61885900e-02
        2 -1    0    0  501    0 +0.0000000000e+00 +0.0000000000e+00 +2.7632531538e+03 2.7632531538e+03 0.0000000000e+00 0.0000e+00 -1.0000e+00
       -2 -1    0    0    0  501 -0.0000000000e+00 -0.0000000000e+00 -1.1658195232e+03 1.1658195232e+03 0.0000000000e+00 0.0000e+00 1.0000e+00
      -13  1    1    2    0    0 +1.0268011274e+03 +1.4459019590e+03 +4.9597745921e+02 1.8414523264e+03 0.0000000000e+00 0.0000e+00 1.0000e+00
       13  1    1    2    0    0 -1.0268011274e+03 -1.4459019590e+03 +1.1014561714e+03 2.0876203505e+03 0.0000000000e+00 0.0000e+00 -1.0000e+00
<mgrwt>
<rscale>  0 0.35896821E+04</rscale>
<asrwt>0</asrwt>
<pdfrwt beam="1">  1        2 0.42511587E+00 0.35896821E+04</pdfrwt>
<pdfrwt beam="2">  1       -2 0.17935685E+00 0.35896821E+04</pdfrwt>
<totfact> 0.41052590E-01</totfact>
</mgrwt>
<rwgt>
<wgt id='morphing_basis_vector_1'> +4.5907518e-05 </wgt>
<wgt id='morphing_basis_vector_2'> +3.3165322e-05 </wgt>
<wgt id='morphing_basis_vector_3'> +5.0740441e-05 </wgt>
<wgt id='morphing_basis_vector_4'> +3.3431628e-05 </wgt>
<wgt id='morphing_basis_vector_5'> +5.6255164e-05 </wgt>
</rwgt>
</event>
<event>
 4      1 +1.9882500e-09 3.32900700e+03 7.81860800e-03 7.67428100e-02
        2 -1    0    0  501    0 +0.0000000000e+00 +0.0000000000e+00 +1.3769910928e+03 1.3769910928e+03 0.0000000000e+00 0.0000e+00 1.0000e+00
       -2 -1    0    0    0  501 -0.0000000000e+00 -0.0000000000e+00 -2.0120479457e+03 2.0120479457e+03 0.0000000000e+00 0.0000e+00 -1.0000e+00
      -13  1    1    2    0    0 +8.4032658407e+02 +1.1983490802e+03 -1.1245292853e+03 1.8457397973e+03 0.0000000000e+00 0.0000e+00 -1.0000e+00
       13  1    1    2    0    0 -8.4032658407e+02 -1.1983490802e+03 +4.8947243236e+02 1.5432992412e+03 0.0000000000e+00 0.0000e+00 1.0000e+00
<mgrwt>
<rscale>  0 0.33290071E+04</rscale>
<asrwt>0</asrwt>
<pdfrwt beam="1">  1        2 0.21184478E+00 0.33290071E+04</pdfrwt>
<pdfrwt beam="2">  1       -2 0.30954584E+00 0.33290071E+04</pdfrwt>
<totfact> 0.32171874E-01</totfact>
</mgrwt>
<rwgt>
<wgt id='morphing_basis_vector_1'> +3.3505247e-05 </wgt>
<wgt id='morphing_basis_vector_2'> +2.3021222e-05 </wgt>
<wgt id='morphing_basis_vector_3'> +3.6706902e-05 </wgt>
<wgt id='morphing_basis_vector_4'> +2.5772500e-05 </wgt>
<wgt id='morphing_basis_vector_5'> +4.1617174e-05 </wgt>
</rwgt>
</event>
<event>
 4      1 +1.9882500e-09 3.21313700e+03 7.81860800e-03 7.70061900e-02
        2 -1    0    0  501    0 +0.0000000000e+00 +0.0000000000e+00 +2.8606199258e+03 2.8606199258e+03 0.0000000000e+00 0.0000e+00 1.0000e+00
       -2 -1    0    0    0  501 -0.0000000000e+00 -0.0000000000e+00 -9.0227401015e+02 9.0227401015e+02 0.0000000000e+00 0.0000e+00 -1.0000e+00
      -13  1    1    2    0    0 +3.5768905509e+02 +1.3081527884e+03 -2.9506140215e+01 1.3564939330e+03 0.0000000000e+00 0.0000e+00 -1.0000e+00
       13  1    1    2    0    0 -3.5768905509e+02 -1.3081527884e+03 +1.9878520559e+03 2.4064000029e+03 0.0000000000e+00 0.0000e+00 1.0000e+00
<mgrwt>
<rscale>  0 0.32131374E+04</rscale>
<asrwt>0</asrwt>
<pdfrwt beam="1">  1        2 0.44009537E+00 0.32131374E+04</pdfrwt>
<pdfrwt beam="2">  1       -2 0.13881139E+00 0.32131374E+04</pdfrwt>
<totfact> 0.78062468E-01</totfact>
</mgrwt>
<rwgt>
<wgt id='morphing_basis_vector_1'> +2.9069940e-05 </wgt>
<wgt id='morphing_basis_vector_2'> +1.9870798e-05 </wgt>
<wgt id='morphing_basis_vector_3'> +3.1795880e-05 </wgt>
<wgt id='morphing_basis_vector_4'> +2.2428142e-05 </wgt>
<wgt id='morphing_basis_vector_5'> +3.6087469e-05 </wgt>
</rwgt>
</event>
<event>
 4      1 +1.9882500e-09 3.53251900e+03 7.81860800e-03 7.63059000e-02
        2 -1    0    0  501    0 +0.0000000000e+00 +0.0000000000e+00 +1.7060340999e+03 1.7060340999e+03 0.0000000000e+00 0.0000e+00 1.0000e+00
       -2 -1    0    0    0  501 -0.0000000000e+00 -0.0000000000e+00 -1.8286111406e+03 1.8286111406e+03 0.0000000000e+00 0.0000e+00 -1.0000e+00
      -13  1    1    2    0    0 -1.3475054541e+03 +8.1769704305e+02 +7.3623167860e+02 1.7396656252e+03 0.0000000000e+00 0.0000e+00 -1.0000e+00
       13  1    1    2    0    0 +1.3475054541e+03 -8.1769704305e+02 -8.5880871931e+02 1.7949796153e+03 0.0000000000e+00 0.0000e+00 1.0000e+00
<mgrwt>
<rscale>  0 0.35325192E+04</rscale>
<asrwt>0</asrwt>
<pdfrwt beam="1">  1        2 0.26246678E+00 0.35325192E+04</pdfrwt>
<pdfrwt beam="2">  1       -2 0.28132479E+00 0.35325192E+04</pdfrwt>
<totfact> 0.32125180E-01</totfact>
</mgrwt>
<rwgt>
<wgt id='morphing_basis_vector_1'> +4.9002283e-05 </wgt>
<wgt id='morphing_basis_vector_2'> +4.8557495e-05 </wgt>
<wgt id='morphing_basis_vector_3'> +5.7017761e-05 </wgt>
<wgt id='morphing_basis_vector_4'> +1.8864448e-05 </wgt>
<wgt id='morphing_basis_vector_5'> +5.1701136e-05 </wgt>
</rwgt>
</event>
<event>
 4      1 +1.9882500e-09 3.52139000e+03 7.81860800e-03 7.63290000e-02
        2 -1    0    0  501    0 +0.0000000000e+00 +0.0000000000e+00 +1.7172991665e+03 1.7172991665e+03 0.0000000000e+00 0.0000e+00 -1.0000e+00
       -2 -1    0    0    0  501 -0.0000000000e+00 -0.0000000000e+00 -1.8051873956e+03 1.8051873956e+03 0.0000000000e+00 0.0000e+00 1.0000e+00
      -13  1    1    2    0    0 -5.6415198812e+02 -1.5943411328e+03 -5.3384727626e+02 1.7734666695e+03 0.0000000000e+00 0.0000e+00 1.0000e+00
       13  1    1    2    0    0 +5.6415198812e+02 +1.5943411328e+03 +4.4595904714e+02 1.7490198927e+03 0.0000000000e+00 0.0000e+00 -1.0000e+00
<mgrwt>
<rscale>  0 0.35213900E+04</rscale>
<asrwt>0</asrwt>
<pdfrwt beam="1">  1        2 0.26419987E+00 0.35213900E+04</pdfrwt>
<pdfrwt beam="2">  1       -2 0.27772114E+00 0.35213900E+04</pdfrwt>
<totfact> 0.33535234E-01</totfact>
</mgrwt>
<rwgt>
<wgt id='morphing_basis_vector_1'> +4.2195003e-05 </wgt>
<wgt id='morphing_basis_vector_2'> +2.9723658e-05 </wgt>
<wgt id='morphing_basis_vector_3'> +4.6449789e-05 </wgt>
<wgt id='morphing_basis_vector_4'> +3.1656738e-05 </wgt>
<wgt id='morphing_basis_vector_5'> +5.2128839e-05 </wgt>
</rwgt>
</event>
<event>
 4      1 +1.9882500e-09 3.28105600e+03 7.81860800e-03 7.68504500e-02
        2 -1    0    0  501    0 +0.0000000000e+00 +0.0000000000e+00 +1.4321151639e+03 1.4321151639e+03 0.0000000000e+00 0.0000e+00 -1.0000e+00
       -2 -1    0    0    0  501 -0.0000000000e+00 -0.0000000000e+00 -1.8792704595e+03 1.8792704595e+03 0.0000000000e+00 0.0000e+00 1.0000e+00
      -13  1    1    2    0    0 +9.1680013451e+02 -1.1462968208e+03 -9.6302557060e+02 1.7555446840e+03 0.0000000000e+00 0.0000e+00 1.0000e+00
       13  1    1    2    0    0 -9.1680013451e+02 +1.1462968208e+03 +5.1587027504e+02 1.5558409394e+03 0.0000000000e+00 0.0000e+00 -1.0000e+00
<mgrwt>
<rscale>  0 0.32810558E+04</rscale>
<asrwt>0</asrwt>
<pdfrwt beam="1">  1        2 0.22032541E+00 0.32810558E+04</pdfrwt>
<pdfrwt beam="2">  1       -2 0.28911853E+00 0.32810558E+04</pdfrwt>
<totfact> 0.41284584E-01</totfact>
</mgrwt>
<rwgt>
<wgt id='morphing_basis_vector_1'> +3.1655338e-05 </wgt>
<wgt id='morphing_basis_vector_2'> +2.1802152e-05 </wgt>
<wgt id='morphing_basis_vector_3'> +3.4678338e-05 </wgt>
<wgt id='morphing_basis_vector_4'> +2.4255962e-05 </wgt>
<wgt id='morphing_basis_vector_5'> +3.9249657e-05 </wgt>
</rwgt>
</event>
<event>
 4      1 +1.9882500e-09 3.35747800e+03 7.81860800e-03 7.66797800e-02
        2 -1    0    0  501    0 +0.0000000000e+00 +0.0000000000e+00 +1.5727476059e+03 1.5727476059e+03 0.0000000000e+00 0.0000e+00 -1.0000e+00
       -2 -1    0    0    0  501 -0.0000000000e+00 -0.0000000000e+00 -1.7918733129e+03 1.7918733129e+03 0.0000000000e+00 0.0000e+00 1.0000e+00
      -13  1    1    2    0    0 +1.5024435906e+03 -6.2224616382e+02 -5.2714762728e+02 1.7095062598e+03 0.0000000000e+00 0.0000e+00 1.0000e+00
       13  1    1    2    0    0 -1.5024435906e+03 +6.2224616382e+02 +3.0802192022e+02 1.6551146590e+03 0.0000000000e+00 0.0000e+00 -1.0000e+00
<mgrwt>
<rscale>  0 0.33574779E+04</rscale>
<asrwt>0</asrwt>
<pdfrwt beam="1">  1        2 0.24196117E+00 0.33574779E+04</pdfrwt>
<pdfrwt beam="2">  1       -2 0.27567282E+00 0.33574779E+04</pdfrwt>
<totfact> 0.42246571E-01</totfact>
</mgrwt>
<rwgt>
<wgt id='morphing_basis_vector_1'> +3.4973631e-05 </wgt>
<wgt id='morphing_basis_vector_2'> +2.4746417e-05 </wgt>
<wgt id='morphing_basis_vector_3'> +3.8478678e-05 </wgt>
<wgt id='morphing_basis_vector_4'> +2.6008991e-05 </wgt>
<wgt id='morphing_basis_vector_5'> +4.3014851e-05 </wgt>
</rwgt>
</event>
<event>
 4      1 +1.9882500e-09 3.49839400e+03 7.81860800e-03 7.63770200e-02
        2 -1    0    0  501    0 +0.0000000000e+00 +0.0000000000e+00 +2.5092456393e+03 2.5092456393e+03 0.0000000000e+00 0.0000e+00 -1.0000e+00
       -2 -1    0    0    0  501 -0.0000000000e+00 -0.0000000000e+00 -1.2193666021e+03 1.2193666021e+03 0.0000000000e+00 0.0000e+00 1.0000e+00
      -13  1    1    2    0    0 -5.0602276153e+01 +1.7450796140e+03 +7.6084756197e+02 1.9044034399e+03 0.0000000000e+00 0.0000e+00 1.0000e+00
       13  1    1    2    0    0 +5.0602276153e+01 -1.7450796140e+03 +5.2903147516e+02 1.8242088014e+03 0.0000000000e+00 0.0000e+00 -1.0000e+00
<mgrwt>
<rscale>  0 0.34983941E+04</rscale>
<asrwt>0</asrwt>
<pdfrwt beam="1">  1        2 0.38603779E+00 0.34983941E+04</pdfrwt>
<pdfrwt beam="2">  1       -2 0.18759486E+00 0.34983941E+04</pdfrwt>
<totfact> 0.51239982E-01</totfact>
</mgrwt>
<rwgt>
<wgt id='morphing_basis_vector_1'> +4.2462471e-05 </wgt>
<wgt id='morphing_basis_vector_2'> +3.2933426e-05 </wgt>
<wgt id='morphing_basis_vector_3'> +4.7396326e-05 </wgt>
<wgt id='morphing_basis_vector_4'> +2.7991345e-05 </wgt>
<wgt id='morphing_basis_vector_5'> +5.0536411e-05 </wgt>
</rwgt>
</event>
<event>
 4      1 +1.9882500e-09 3.28338200e+03 7.81860800e-03 7.68451800e-02
        2 -1    0    0  501    0 +0.0000000000e+00 +0.0000000000e+00 +2.4685667750e+03 2.4685667750e+03 0.0000000000e+00 0.0000e+00 -1.0000e+00
       -2 -1    0    0    0  501 -0.0000000000e+00 -0.0000000000e+00 -1.0917871854e+03 1.0917871854e+03 0.0000000000e+00 0.0000e+00 1.0000e+00
      -13  1    1    2    0    0 +4.7207724267e+02 +6.5628700161e+02 -8.6097951166e+02 1.1810399109e+03 0.0000000000e+00 0.0000e+00 1.0000e+00
       13  1    1    2    0    0 -4.7207724267e+02 -6.5628700161e+02 +2.2377591012e+03 2.3793140496e+03 0.0000000000e+00 0.0000e+00 -1.0000e+00
<mgrwt>
<rscale>  0 0.32833821E+04</rscale>
<asrwt>0</asrwt>
<pdfrwt beam="1">  1        2 0.37977950E+00 0.32833821E+04</pdfrwt>
<pdfrwt beam="2">  1       -2 0.16796726E+00 0.32833821E+04</pdfrwt>
<totfact> 0.77911221E-01</totfact>
</mgrwt>
<rwgt>
<wgt id='morphing_basis_vector_1'> +3.1565316e-05 </wgt>
<wgt id='morphing_basis_vector_2'> +2.1336435e-05 </wgt>
<wgt id='morphing_basis_vector_3'> +3.4493604e-05 </wgt>
<wgt id='morphing_basis_vector_4'> +2.4700692e-05 </wgt>
<wgt id='morphing_basis_vector_5'> +3.9392926e-05 </wgt>
</rwgt>
</event>
<event>
 4      1 +1.9882500e-09 3.82686200e+03 7.81860800e-03 7.57247100e-02
        2 -1    0    0  501    0 +0.0000000000e+00 +0.0000000000e+00 +2.4863404826e+03 2.4863404826e+03 0.0000000000e+00 0.0000e+00 -1.0000e+00
       -2 -1    0    0    0  501 -0.0000000000e+00 -0.0000000000e+00 -1.4725327219e+03 1.4725327219e+03 0.0000000000e+00 0.0000e+00 1.0000e+00
      -13  1    1    2    0    0 +1.1026555659e+03 -5.8808247056e+02 -9.9205457190e+02 1.5955759345e+03 0.0000000000e+00 0.0000e+00 1.0000e+00
       13  1    1    2    0    0 -1.1026555659e+03 +5.8808247056e+02 +2.0058623326e+03 2.3632972701e+03 0.0000000000e+00 0.0000e+00 -1.0000e+00
<mgrwt>
<rscale>  0 0.38268618E+04</rscale>
<asrwt>0</asrwt>
<pdfrwt beam="1">  1        2 0.38251392E+00 0.38268618E+04</pdfrwt>
<pdfrwt beam="2">  1       -2 0.22654350E+00 0.38268618E+04</pdfrwt>
<totfact> 0.26904389E-01</totfact>
</mgrwt>
<rwgt>
<wgt id='morphing_basis_vector_1'> +5.8050601e-05 </wgt>
<wgt id='morphing_basis_vector_2'> +3.9410001e-05 </wgt>
<wgt id='morphing_basis_vector_3'> +6.3689840e-05 </wgt>
<wgt id='morphing_basis_vector_4'> +4.5684364e-05 </wgt>
<wgt id='morphing_basis_vector_5'> +7.2972521e-05 </wgt>
</rwgt>
</event>
<event>
 4      1 +1.9882500e-09 3.45359800e+03 7.81860800e-03 7.64716500e-02
        2 -1    0    0  501    0 +0.0000000000e+00 +0.0000000000e+00 +1.6837528091e+03 1.6837528091e+03 0.0000000000e+00 0.0000e+00 -1.0000e+00
       -2 -1    0    0    0  501 -0.0000000000e+00 -0.0000000000e+00 -1.7709459807e+03 1.7709459807e+03 0.0000000000e+00 0.0000e+00 1.0000e+00
      -13  1    1    2    0    0 -5.1307925305e+02 +1.6479395590e+03 -9.7280806020e+01 1.7287043314e+03 0.0000000000e+00 0.0000e+00 1.0000e+00
       13  1    1    2    0    0 +5.1307925305e+02 -1.6479395590e+03 +1.0087634378e+01 1.7259944584e+03 0.0000000000e+00 0.0000e+00 -1.0000e+00
<mgrwt>
<rscale>  0 0.34535983E+04</rscale>
<asrwt>0</asrwt>
<pdfrwt beam="1">  1        2 0.25903889E+00 0.34535983E+04</pdfrwt>
<pdfrwt beam="2">  1       -2 0.27245323E+00 0.34535983E+04</pdfrwt>
<totfact> 0.38241231E-01</totfact>
</mgrwt>
<rwgt>
<wgt id='morphing_basis_vector_1'> +3.9840563e-05 </wgt>
<wgt id='morphing_basis_vector_2'> +2.9806194e-05 </wgt>
<wgt id='morphing_basis_vector_3'> +4.4216326e-05 </wgt>
<wgt id='morphing_basis_vector_4'> +2.7631861e-05 </wgt>
<wgt id='morphing_basis_vector_5'> +4.8068616e-05 </wgt>
</rwgt>
</event>
<event>
 4      1 +1.9882500e-09 3.26547800e+03 7.81860800e-03 7.68858200e-02
        2 -1    0    0  501    0 +0.0000000000e+00 +0.0000000000e+00 +3.6891764087e+03 3.6891764087e+03 0.0000000000e+00 0.0000e+00 -1.0000e+00
       -2 -1    0    0    0  501 -0.0000000000e+00 -0.0000000000e+00 -7.2261033841e+02 7.2261033841e+02 0.0000000000e+00 0.0000e+00 1.0000e+00
      -13  1    1    2    0    0 +1.4877236773e+03 -6.2460116374e+02 +1.1458243999e+03 1.9789800174e+03 0.0000000000e+00 0.0000e+00 1.0000e+00
       13  1    1    2    0    0 -1.4877236773e+03 +6.2460116374e+02 +1.8207416704e+03 2.4328067297e+03 0.0000000000e+00 0.0000e+00 -1.0000e+00
<mgrwt>
<rscale>  0 0.32654782E+04</rscale>
<asrwt>0</asrwt>
<pdfrwt beam="1">  1        2 0.56756559E+00 0.32654782E+04</pdfrwt>
<pdfrwt beam="2">  1       -2 0.11117082E+00 0.32654782E+04</pdfrwt>
<totfact> 0.37001346E-01</totfact>
</mgrwt>
<rwgt>
<wgt id='morphing_basis_vector_1'> +3.1523238e-05 </wgt>
<wgt id='morphing_basis_vector_2'> +2.2747004e-05 </wgt>
<wgt id='morphing_basis_vector_3'> +3.4751553e-05 </wgt>
<wgt id='morphing_basis_vector_4'> +2.2831560e-05 </wgt>
<wgt id='morphing_basis_vector_5'> +3.8424528e-05 </wgt>
</rwgt>
</event>
<event>
 4      1 +1.9882500e-09 3.45693600e+03 7.81860800e-03 7.64645500e-02
        2 -1    0    0  501    0 +0.0000000000e+00 +0.0000000000e+00 +2.5965845819e+03 2.5965845819e+03 0.0000000000e+00 0.0000e+00 -1.0000e+00
       -2 -1    0    0    0  501 -0.0000000000e+00 -0.0000000000e+00 -1.1505891790e+03 1.1505891790e+03 0.0000000000e+00 0.0000e+00 1.0000e+00
      -13  1    1    2    0    0 -7.5034389385e+02 -1.0218666737e+03 -5.5053747993e+02 1.3821428922e+03 0.0000000000e+00 0.0000e+00 1.0000e+00
       13  1    1    2    0    0 +7.5034389385e+02 +1.0218666737e+03 +1.9965328828e+03 2.3650308687e+03 0.0000000000e+00 0.0000e+00 -1.0000e+00
<mgrwt>
<rscale>  0 0.34569363E+04</rscale>
<asrwt>0</asrwt>
<pdfrwt beam="1">  1        2 0.39947455E+00 0.34569363E+04</pdfrwt>
<pdfrwt beam="2">  1       -2 0.17701372E+00 0.34569363E+04</pdfrwt>
<totfact> 0.54754490E-01</totfact>
</mgrwt>
<rwgt>
<wgt id='morphing_basis_vector_1'> +3.8779344e-05 </wgt>
<wgt id='morphing_basis_vector_2'> +2.6348523e-05 </wgt>
<wgt id='morphing_basis_vector_3'> +4.2459917e-05 </wgt>
<wgt id='morphing_basis_vector_4'> +3.0290673e-05 </wgt>
<wgt id='morphing_basis_vector_5'> +4.8467249e-05 </wgt>
</rwgt>
</event>
<event>
 4      1 +1.9882500e-09 3.59509300e+03 7.81860800e-03 7.61776000e-02
        2 -1    0    0  501    0 +0.0000000000e+00 +0.0000000000e+00 +1.3141477873e+03 1.3141477873e+03 0.0000000000e+00 0.0000e+00 -1.0000e+00
       -2 -1    0    0    0  501 -0.0000000000e+00 -0.0000000000e+00 -2.4587596527e+03 2.4587596527e+03 0.0000000000e+00 0.0000e+00 1.0000e+00
      -13  1    1    2    0    0 -2.6351794573e+02 +4.7717134072e+02 -2.3699304391e+03 2.4318109471e+03 0.0000000000e+00 0.0000e+00 1.0000e+00
       13  1    1    2    0    0 +2.6351794573e+02 -4.7717134072e+02 +1.2253185737e+03 1.3410964929e+03 0.0000000000e+00 0.0000e+00 -1.0000e+00
<mgrwt>
<rscale>  0 0.35950931E+04</rscale>
<asrwt>0</asrwt>
<pdfrwt beam="1">  1        2 0.20217658E+00 0.35950931E+04</pdfrwt>
<pdfrwt beam="2">  1       -2 0.37827072E+00 0.35950931E+04</pdfrwt>
<totfact> 0.12143110E-01</totfact>
</mgrwt>
<rwgt>
<wgt id='morphing_basis_vector_1'> +4.5247641e-05 </wgt>
<wgt id='morphing_basis_vector_2'> +3.0613603e-05 </wgt>
<wgt id='morphing_basis_vector_3'> +4.9557308e-05 </wgt>
<wgt id='morphing_basis_vector_4'> +3.5604194e-05 </wgt>
<wgt id='morphing_basis_vector_5'> +5.6760601e-05 </wgt>
</rwgt>
</event>
<event>
 4      1 +1.9882500e-09 3.84352800e+03 7.81860800e-03 7.56934200e-02
        2 -1    0    0  501    0 +0.0000000000e+00 +0.0000000000e+00 +1.9326639395e+03 1.9326639395e+03 0.0000000000e+00 0.0000e+00 -1.0000e+00
       -2 -1    0    0    0  501 -0.0000000000e+00 -0.0000000000e+00 -1.9109257184e+03 1.9109257184e+03 0.0000000000e+00 0.0000e+00 1.0000e+00
      -13  1    1    2    0    0 +1.1748000487e+03 +3.1357932545e+02 -1.4773381744e+03 1.9133779630e+03 0.0000000000e+00 0.0000e+00 1.0000e+00
       13  1    1    2    0    0 -1.1748000487e+03 -3.1357932545e+02 +1.4990763954e+03 1.9302116949e+03 0.0000000000e+00 0.0000e+00 -1.0000e+00
<mgrwt>
<rscale>  0 0.38435282E+04</rscale>
<asrwt>0</asrwt>
<pdfrwt beam="1">  1        2 0.29733291E+00 0.38435282E+04</pdfrwt>
<pdfrwt beam="2">  1       -2 0.29398857E+00 0.38435282E+04</pdfrwt>
<totfact> 0.19207247E-01</totfact>
</mgrwt>
<rwgt>
<wgt id='morphing_basis_vector_1'> +5.9055782e-05 </wgt>
<wgt id='morphing_basis_vector_2'> +4.0078937e-05 </wgt>
<wgt id='morphing_basis_vector_3'> +6.4795010e-05 </wgt>
<wgt id='morphing_basis_vector_4'> +4.6504442e-05 </wgt>
<wgt id='morphing_basis_vector_5'> +7.4260266e-05 </wgt>
</rwgt>
</event>
<event>
 4      1 +1.9882500e-09 3.42646800e+03 7.81860800e-03 7.65296900e-02
        2 -1    0    0  501    0 +0.0000000000e+00 +0.0000000000e+00 +2.5290076623e+03 2.5290076623e+03 0.0000000000e+00 0.0000e+00 -1.0000e+00
       -2 -1    0    0    0  501 -0.0000000000e+00 -0.0000000000e+00 -1.1606017690e+03 1.1606017690e+03 0.0000000000e+00 0.0000e+00 1.0000e+00
      -13  1    1    2    0    0 -1.2343217595e+03 +8.7189219395e+02 -1.8488910597e+02 1.5224750196e+03 0.0000000000e+00 0.0000e+00 1.0000e+00
       13  1    1    2    0    0 +1.2343217595e+03 -8.7189219395e+02 +1.5532949992e+03 2.1671344117e+03 0.0000000000e+00 0.0000e+00 -1.0000e+00
<mgrwt>
<rscale>  0 0.34264680E+04</rscale>
<asrwt>0</asrwt>
<pdfrwt beam="1">  1        2 0.38907810E+00 0.34264680E+04</pdfrwt>
<pdfrwt beam="2">  1       -2 0.17855412E+00 0.34264680E+04</pdfrwt>
<totfact> 0.58682180E-01</totfact>
</mgrwt>
<rwgt>
<wgt id='morphing_basis_vector_1'> +3.7578481e-05 </wgt>
<wgt id='morphing_basis_vector_2'> +2.5843753e-05 </wgt>
<wgt id='morphing_basis_vector_3'> +4.1204063e-05 </wgt>
<wgt id='morphing_basis_vector_4'> +2.8937851e-05 </wgt>
<wgt id='morphing_basis_vector_5'> +4.6745698e-05 </wgt>
</rwgt>
</event>
<event>
 4      1 +1.9882500e-09 3.33176000e+03 7.81860800e-03 7.67366900e-02
        2 -1    0    0  501    0 +0.0000000000e+00 +0.0000000000e+00 +1.8184595626e+03 1.8184595626e+03 0.0000000000e+00 0.0000e+00 -1.0000e+00
       -2 -1    0    0    0  501 -0.0000000000e+00 -0.0000000000e+00 -1.5261026227e+03 1.5261026227e+03 0.0000000000e+00 0.0000e+00 1.0000e+00
      -13  1    1    2    0    0 +9.8248565055e+02 +7.5562377662e+01 -1.2021760514e+03 1.5544178927e+03 0.0000000000e+00 0.0000e+00 1.0000e+00
       13  1    1    2    0    0 -9.8248565055e+02 -7.5562377662e+01 +1.4945329913e+03 1.7901442926e+03 0.0000000000e+00 0.0000e+00 -1.0000e+00
<mgrwt>
<rscale>  0 0.33317598E+04</rscale>
<asrwt>0</asrwt>
<pdfrwt beam="1">  1        2 0.27976301E+00 0.33317598E+04</pdfrwt>
<pdfrwt beam="2">  1       -2 0.23478502E+00 0.33317598E+04</pdfrwt>
<totfact> 0.59159247E-01</totfact>
</mgrwt>
<rwgt>
<wgt id='morphing_basis_vector_1'> +3.3461658e-05 </wgt>
<wgt id='morphing_basis_vector_2'> +2.2644861e-05 </wgt>
<wgt id='morphing_basis_vector_3'> +3.6585198e-05 </wgt>
<wgt id='morphing_basis_vector_4'> +2.6180713e-05 </wgt>
<wgt id='morphing_basis_vector_5'> +4.1782629e-05 </wgt>
</rwgt>
</event>
<event>
 4      1 +1.9882500e-09 3.28376000e+03 7.81860800e-03 7.68443300e-02
        2 -1    0    0  501    0 +0.0000000000e+00 +0.0000000000e+00 +1.0906122068e+03 1.0906122068e+03 0.0000000000e+00 0.0000e+00 -1.0000e+00
       -2 -1    0    0    0  501 -0.0000000000e+00 -0.0000000000e+00 -2.4717950350e+03 2.4717950350e+03 0.0000000000e+00 0.0000e+00 1.0000e+00
      -13  1    1    2    0    0 -3.5262605422e+02 -1.2792244866e+03 -1.7396026906e+03 2.1879163472e+03 0.0000000000e+00 0.0000e+00 1.0000e+00
       13  1    1    2    0    0 +3.5262605422e+02 +1.2792244866e+03 +3.5841986242e+02 1.3744908945e+03 0.0000000000e+00 0.0000e+00 -1.0000e+00
<mgrwt>
<rscale>  0 0.32837599E+04</rscale>
<asrwt>0</asrwt>
<pdfrwt beam="1">  1        2 0.16778649E+00 0.32837599E+04</pdfrwt>
<pdfrwt beam="2">  1       -2 0.38027616E+00 0.32837599E+04</pdfrwt>
<totfact> 0.16335046E-01</totfact>
</mgrwt>
<rwgt>
<wgt id='morphing_basis_vector_1'> +3.1659116e-05 </wgt>
<wgt id='morphing_basis_vector_2'> +2.1579841e-05 </wgt>
<wgt id='morphing_basis_vector_3'> +3.4634894e-05 </wgt>
<wgt id='morphing_basis_vector_4'> +2.4545879e-05 </wgt>
<wgt id='morphing_basis_vector_5'> +3.9397458e-05 </wgt>
</rwgt>
</event>
<event>
 4      1 +1.9882500e-09 3.59203300e+03 7.81860800e-03 7.61838200e-02
        2 -1    0    0  501    0 +0.0000000000e+00 +0.0000000000e+00 +2.3978682638e+03 2.3978682638e+03 0.0000000000e+00 0.0000e+00 -1.0000e+00
       -2 -1    0    0    0  501 -0.0000000000e+00 -0.0000000000e+00 -1.3452259706e+03 1.3452259706e+03 0.0000000000e+00 0.0000e+00 1.0000e+00
      -13  1    1    2    0    0 -2.3379731168e+02 -6.8548804121e+02 -1.1863043012e+03 1.3899183187e+03 0.0000000000e+00 0.0000e+00 1.0000e+00
       13  1    1    2    0    0 +2.3379731168e+02 +6.8548804121e+02 +2.2389465945e+03 2.3531759157e+03 0.0000000000e+00 0.0000e+00 -1.0000e+00
<mgrwt>
<rscale>  0 0.35920327E+04</rscale>
<asrwt>0</asrwt>
<pdfrwt beam="1">  1        2 0.36890281E+00 0.35920327E+04</pdfrwt>
<pdfrwt beam="2">  1       -2 0.20695784E+00 0.35920327E+04</pdfrwt>
<totfact> 0.42671542E-01</totfact>
</mgrwt>
<rwgt>
<wgt id='morphing_basis_vector_1'> +4.5097286e-05 </wgt>
<wgt id='morphing_basis_vector_2'> +3.0517248e-05 </wgt>
<wgt id='morphing_basis_vector_3'> +4.9392907e-05 </wgt>
<wgt id='morphing_basis_vector_4'> +3.5477025e-05 </wgt>
<wgt id='morphing_basis_vector_5'> +5.6565941e-05 </wgt>
</rwgt>
</event>
<event>
 4      1 +1.9882500e-09 3.21963200e+03 7.81860800e-03 7.69911300e-02
        2 -1    0    0  501    0 +0.0000000000e+00 +0.0000000000e+00 +1.7782460224e+03 1.7782460224e+03 0.0000000000e+00 0.0000e+00 -1.0000e+00
       -2 -1    0    0    0  501 -0.0000000000e+00 -0.0000000000e+00 -1.4573389279e+03 1.4573389279e+03 0.0000000000e+00 0.0000e+00 1.0000e+00
      -13  1    1    2    0    0 +8.1793712733e+02 -1.1601339948e+03 -6.0263433111e+02 1.5421089998e+03 0.0000000000e+00 0.0000e+00 1.0000e+00
       13  1    1    2    0    0 -8.1793712733e+02 +1.1601339948e+03 +9.2354142561e+02 1.6934759505e+03 0.0000000000e+00 0.0000e+00 -1.0000e+00
<mgrwt>
<rscale>  0 0.32196318E+04</rscale>
<asrwt>0</asrwt>
<pdfrwt beam="1">  1        2 0.27357631E+00 0.32196318E+04</pdfrwt>
<pdfrwt beam="2">  1       -2 0.22420599E+00 0.32196318E+04</pdfrwt>
<totfact> 0.74622391E-01</totfact>
</mgrwt>
<rwgt>
<wgt id='morphing_basis_vector_1'> +2.9347605e-05 </wgt>
<wgt id='morphing_basis_vector_2'> +2.0160329e-05 </wgt>
<wgt id='morphing_basis_vector_3'> +3.2122670e-05 </wgt>
<wgt id='morphing_basis_vector_4'> +2.2519757e-05 </wgt>
<wgt id='morphing_basis_vector_5'> +3.6374810e-05 </wgt>
</rwgt>
</event>
<event>
 4      1 +1.9882500e-09 3.30879400e+03 7.81860800e-03 7.67879600e-02
        2 -1    0    0  501    0 +0.0000000000e+00 +0.0000000000e+00 +2.5801966019e+03 2.5801966019e+03 0.0000000000e+00 0.0000e+00 1.0000e+00
       -2 -1    0    0    0  501 -0.0000000000e+00 -0.0000000000e+00 -1.0607833457e+03 1.0607833457e+03 0.0000000000e+00 0.0000e+00 -1.0000e+00
      -13  1    1    2    0    0 +2.4009951832e+02 +4.5734666391e+02 -9.6977517242e+02 1.0987618644e+03 0.0000000000e+00 0.0000e+00 -1.0000e+00
       13  1    1    2    0    0 -2.4009951832e+02 -4.5734666391e+02 +2.4891884285e+03 2.5422180832e+03 0.0000000000e+00 0.0000e+00 1.0000e+00
<mgrwt>
<rscale>  0 0.33087941E+04</rscale>
<asrwt>0</asrwt>
<pdfrwt beam="1">  1        2 0.39695332E+00 0.33087941E+04</pdfrwt>
<pdfrwt beam="2">  1       -2 0.16319744E+00 0.33087941E+04</pdfrwt>
<totfact> 0.72659062E-01</totfact>
</mgrwt>
<rwgt>
<wgt id='morphing_basis_vector_1'> +3.2540863e-05 </wgt>
<wgt id='morphing_basis_vector_2'> +2.1986442e-05 </wgt>
<wgt id='morphing_basis_vector_3'> +3.5564641e-05 </wgt>
<wgt id='morphing_basis_vector_4'> +2.5491450e-05 </wgt>
<wgt id='morphing_basis_vector_5'> +4.0636829e-05 </wgt>
</rwgt>
</event>
<event>
 4      1 +1.9882500e-09 3.36115500e+03 7.81860800e-03 7.66716900e-02
        2 -1    0    0  501    0 +0.0000000000e+00 +0.0000000000e+00 +1.8313917192e+03 1.8313917192e+03 0.0000000000e+00 0.0000e+00 -1.0000e+00
       -2 -1    0    0    0  501 -0.0000000000e+00 -0.0000000000e+00 -1.5421827875e+03 1.5421827875e+03 0.0000000000e+00 0.0000e+00 1.0000e+00
      -13  1    1    2    0    0 +1.1475978809e+03 -7.2931129722e+01 -1.0855018454e+03 1.5813330144e+03 0.0000000000e+00 0.0000e+00 1.0000e+00
       13  1    1    2    0    0 -1.1475978809e+03 +7.2931129722e+01 +1.3747107771e+03 1.7922414923e+03 0.0000000000e+00 0.0000e+00 -1.0000e+00
<mgrwt>
<rscale>  0 0.33611550E+04</rscale>
<asrwt>0</asrwt>
<pdfrwt beam="1">  1        2 0.28175257E+00 0.33611550E+04</pdfrwt>
<pdfrwt beam="2">  1       -2 0.23725889E+00 0.33611550E+04</pdfrwt>
<totfact> 0.55780112E-01</totfact>
</mgrwt>
<rwgt>
<wgt id='morphing_basis_vector_1'> +3.4667684e-05 </wgt>
<wgt id='morphing_basis_vector_2'> +2.3506127e-05 </wgt>
<wgt id='morphing_basis_vector_3'> +3.7921827e-05 </wgt>
<wgt id='morphing_basis_vector_4'> +2.7085146e-05 </wgt>
<wgt id='morphing_basis_vector_5'> +4.3284436e-05 </wgt>
</rwgt>
</event>
<event>
 4      1 +1.9882500e-09 3.21301600e+03 7.81860800e-03 7.70064700e-02
        2 -1    0    0  501    0 +0.0000000000e+00 +0.0000000000e+00 +1.9750001328e+03 1.9750001328e+03 0.0000000000e+00 0.0000e+00 -1.0000e+00
       -2 -1    0    0    0  501 -0.0000000000e+00 -0.0000000000e+00 -1.3067683376e+03 1.3067683376e+03 0.0000000000e+00 0.0000e+00 1.0000e+00
      -13  1    1    2    0    0 +7.9072532274e+02 -1.3877941405e+03 +1.5824392122e+02 1.6050732853e+03 0.0000000000e+00 0.0000e+00 1.0000e+00
       13  1    1    2    0    0 -7.9072532274e+02 +1.3877941405e+03 +5.0998787394e+02 1.6766951852e+03 0.0000000000e+00 0.0000e+00 -1.0000e+00
<mgrwt>
<rscale>  0 0.32130158E+04</rscale>
<asrwt>0</asrwt>
<pdfrwt beam="1">  1        2 0.30384617E+00 0.32130158E+04</pdfrwt>
<pdfrwt beam="2">  1       -2 0.20104128E+00 0.32130158E+04</pdfrwt>
<totfact> 0.84945909E-01</totfact>
</mgrwt>
<rwgt>
<wgt id='morphing_basis_vector_1'> +2.9675670e-05 </wgt>
<wgt id='morphing_basis_vector_2'> +2.1663589e-05 </wgt>
<wgt id='morphing_basis_vector_3'> +3.2752982e-05 </wgt>
<wgt id='morphing_basis_vector_4'> +2.1148560e-05 </wgt>
<wgt id='morphing_basis_vector_5'> +3.5976659e-05 </wgt>
</rwgt>
</event>
<event>
 4      1 +1.9882500e-09 3.46666000e+03 7.81860800e-03 7.64439100e-02
        2 -1    0    0  501    0 +0.0000000000e+00 +0.0000000000e+00 +1.3903496801e+03 1.3903496801e+03 0.0000000000e+00 0.0000e+00 -1.0000e+00
       -2 -1    0    0    0  501 -0.0000000000e+00 -0.0000000000e+00 -2.1609193439e+03 2.1609193439e+03 0.0000000000e+00 0.0000e+00 1.0000e+00
      -13  1    1    2    0    0 -1.1648400467e+03 +4.4644751508e+02 -1.6180955911e+03 2.0431351057e+03 0.0000000000e+00 0.0000e+00 1.0000e+00
       13  1    1    2    0    0 +1.1648400467e+03 -4.4644751508e+02 +8.4752592727e+02 1.5081339183e+03 0.0000000000e+00 0.0000e+00 -1.0000e+00
<mgrwt>
<rscale>  0 0.34666604E+04</rscale>
<asrwt>0</asrwt>
<pdfrwt beam="1">  1        2 0.21389995E+00 0.34666604E+04</pdfrwt>
<pdfrwt beam="2">  1       -2 0.33244913E+00 0.34666604E+04</pdfrwt>
<totfact> 0.22012165E-01</totfact>
</mgrwt>
<rwgt>
<wgt id='morphing_basis_vector_1'> +3.9208490e-05 </wgt>
<wgt id='morphing_basis_vector_2'> +2.6627702e-05 </wgt>
<wgt id='morphing_basis_vector_3'> +4.2929904e-05 </wgt>
<wgt id='morphing_basis_vector_4'> +3.0647813e-05 </wgt>
<wgt id='morphing_basis_vector_5'> +4.9019595e-05 </wgt>
</rwgt>
</event>
<event>
 4      1 +1.9882500e-09 3.30743200e+03 7.81860800e-03 7.67910100e-02
        2 -1    0    0  501    0 +0.0000000000e+00 +0.0000000000e+00 +2.4895411036e+03 2.4895411036e+03 0.0000000000e+00 0.0000e+00 -1.0000e+00
       -2 -1    0    0    0  501 -0.0000000000e+00 -0.0000000000e+00 -1.0985064629e+03 1.0985064629e+03 0.0000000000e+00 0.0000e+00 1.0000e+00
      -13  1    1    2    0    0 -1.4781153999e+03 +2.0228032772e+02 -7.8482495212e+01 1.4939551427e+03 0.0000000000e+00 0.0000e+00 1.0000e+00
       13  1    1    2    0    0 +1.4781153999e+03 -2.0228032772e+02 +1.4695171359e+03 2.0940924237e+03 0.0000000000e+00 0.0000e+00 -1.0000e+00
<mgrwt>
<rscale>  0 0.33074322E+04</rscale>
<asrwt>0</asrwt>
<pdfrwt beam="1">  1        2 0.38300632E+00 0.33074322E+04</pdfrwt>
<pdfrwt beam="2">  1       -2 0.16900100E+00 0.33074322E+04</pdfrwt>
<totfact> 0.74160809E-01</totfact>
</mgrwt>
<rwgt>
<wgt id='morphing_basis_vector_1'> +3.2692359e-05 </wgt>
<wgt id='morphing_basis_vector_2'> +2.2552582e-05 </wgt>
<wgt id='morphing_basis_vector_3'> +3.5829698e-05 </wgt>
<wgt id='morphing_basis_vector_4'> +2.5020406e-05 </wgt>
<wgt id='morphing_basis_vector_5'> +4.0534044e-05 </wgt>
</rwgt>
</event>
<event>
 4      1 +1.9882500e-09 3.54691100e+03 7.81860800e-03 7.62761500e-02
        2 -1    0    0  501    0 +0.0000000000e+00 +0.0000000000e+00 +4.3555392799e+03 4.3555392799e+03 0.0000000000e+00 0.0000e+00 -1.0000e+00
       -2 -1    0    0    0  501 -0.0000000000e+00 -0.0000000000e+00 -7.2210237299e+02 7.2210237299e+02 0.0000000000e+00 0.0000e+00 1.0000e+00
      -13  1    1    2    0    0 +5.0842611250e+02 +6.0366476232e+02 -4.5683225139e+02 9.1192322212e+02 0.0000000000e+00 0.0000e+00 1.0000e+00
       13  1    1    2    0    0 -5.0842611250e+02 -6.0366476232e+02 +4.0902691583e+03 4.1657184308e+03 0.0000000000e+00 0.0000e+00 -1.0000e+00
<mgrwt>
<rscale>  0 0.35469115E+04</rscale>
<asrwt>0</asrwt>
<pdfrwt beam="1">  1        2 0.67008295E+00 0.35469115E+04</pdfrwt>
<pdfrwt beam="2">  1       -2 0.11109268E+00 0.35469115E+04</pdfrwt>
<totfact> 0.96429266E-02</totfact>
</mgrwt>
<rwgt>
<wgt id='morphing_basis_vector_1'> +4.2889490e-05 </wgt>
<wgt id='morphing_basis_vector_2'> +2.9021808e-05 </wgt>
<wgt id='morphing_basis_vector_3'> +4.6961544e-05 </wgt>
<wgt id='morphing_basis_vector_4'> +3.3713430e-05 </wgt>
<wgt id='morphing_basis_vector_5'> +5.3759544e-05 </wgt>
</rwgt>
</event>
<event>
 4      1 +1.9882500e-09 3.26244900e+03 7.81860800e-03 7.68927300e-02
        2 -1    0    0  501    0 +0.0000000000e+00 +0.0000000000e+00 +1.7246635224e+03 1.7246635224e+03 0.0000000000e+00 0.0000e+00 1.0000e+00
       -2 -1    0    0    0  501 -0.0000000000e+00 -0.0000000000e+00 -1.5428479672e+03 1.5428479672e+03 0.0000000000e+00 0.0000e+00 -1.0000e+00
      -13  1    1    2    0    0 +2.3694974379e+02 +1.5355875058e+03 -4.0657157253e+02 1.6060742861e+03 0.0000000000e+00 0.0000e+00 -1.0000e+00
       13  1    1    2    0    0 -2.3694974379e+02 -1.5355875058e+03 +5.8838712772e+02 1.6614372035e+03 0.0000000000e+00 0.0000e+00 1.0000e+00
<mgrwt>
<rscale>  0 0.32624491E+04</rscale>
<asrwt>0</asrwt>
<pdfrwt beam="1">  1        2 0.26533285E+00 0.32624491E+04</pdfrwt>
<pdfrwt beam="2">  1       -2 0.23736123E+00 0.32624491E+04</pdfrwt>
<totfact> 0.64381512E-01</totfact>
</mgrwt>
<rwgt>
<wgt id='morphing_basis_vector_1'> +3.1113907e-05 </wgt>
<wgt id='morphing_basis_vector_2'> +2.1799445e-05 </wgt>
<wgt id='morphing_basis_vector_3'> +3.4159479e-05 </wgt>
<wgt id='morphing_basis_vector_4'> +2.3360696e-05 </wgt>
<wgt id='morphing_basis_vector_5'> +3.8331834e-05 </wgt>
</rwgt>
</event>
<event>
 4      1 +1.9882500e-09 3.63914600e+03 7.81860800e-03 7.60888800e-02
        2 -1    0    0  501    0 +0.0000000000e+00 +0.0000000000e+00 +6.5737458052e+02 6.5737458052e+02 0.0000000000e+00 0.0000e+00 -1.0000e+00
       -2 -1    0    0    0  501 -0.0000000000e+00 -0.0000000000e+00 -5.0364685281e+03 5.0364685281e+03 0.0000000000e+00 0.0000e+00 1.0000e+00
      -13  1    1    2    0    0 -3.9385353515e+02 -1.6850041355e+03 -3.0697519397e+03 3.5238808883e+03 0.0000000000e+00 0.0000e+00 1.0000e+00
       13  1    1    2    0    0 +3.9385353515e+02 +1.6850041355e+03 -1.3093420079e+03 2.1699622203e+03 0.0000000000e+00 0.0000e+00 -1.0000e+00
<mgrwt>
<rscale>  0 0.36391463E+04</rscale>
<asrwt>0</asrwt>
<pdfrwt beam="1">  1        2 0.10113455E+00 0.36391463E+04</pdfrwt>
<pdfrwt beam="2">  1       -2 0.77484133E+00 0.36391463E+04</pdfrwt>
<totfact> 0.42028936E-03</totfact>
</mgrwt>
<rwgt>
<wgt id='morphing_basis_vector_1'> +4.8014572e-05 </wgt>
<wgt id='morphing_basis_vector_2'> +3.3674720e-05 </wgt>
<wgt id='morphing_basis_vector_3'> +5.2863100e-05 </wgt>
<wgt id='morphing_basis_vector_4'> +3.6291884e-05 </wgt>
<wgt id='morphing_basis_vector_5'> +5.9520554e-05 </wgt>
</rwgt>
</event>
<event>
 4      1 +1.9882500e-09 3.37035400e+03 7.81860800e-03 7.66514900e-02
        2 -1    0    0  501    0 +0.0000000000e+00 +0.0000000000e+00 +2.5383764184e+03 2.5383764184e+03 0.0000000000e+00 0.0000e+00 1.0000e+00
       -2 -1    0    0    0  501 -0.0000000000e+00 -0.0000000000e+00 -1.1187551341e+03 1.1187551341e+03 0.0000000000e+00 0.0000e+00 -1.0000e+00
      -13  1    1    2    0    0 +8.6576743133e+01 +1.6340556910e+03 +2.7281755231e+02 1.6589342815e+03 0.0000000000e+00 0.0000e+00 -1.0000e+00
       13  1    1    2    0    0 -8.6576743133e+01 -1.6340556910e+03 +1.1468037320e+03 1.9981972709e+03 0.0000000000e+00 0.0000e+00 1.0000e+00
<mgrwt>
<rscale>  0 0.33703541E+04</rscale>
<asrwt>0</asrwt>
<pdfrwt beam="1">  1        2 0.39051945E+00 0.33703541E+04</pdfrwt>
<pdfrwt beam="2">  1       -2 0.17211618E+00 0.33703541E+04</pdfrwt>
<totfact> 0.65228127E-01</totfact>
</mgrwt>
<rwgt>
<wgt id='morphing_basis_vector_1'> +3.5528479e-05 </wgt>
<wgt id='morphing_basis_vector_2'> +2.5183411e-05 </wgt>
<wgt id='morphing_basis_vector_3'> +3.9102617e-05 </wgt>
<wgt id='morphing_basis_vector_4'> +2.6372812e-05 </wgt>
<wgt id='morphing_basis_vector_5'> +4.3679877e-05 </wgt>
</rwgt>
</event>
<event>
 4      1 +1.9882500e-09 3.47010800e+03 7.81860800e-03 7.64366000e-02
        2 -1    0    0  501    0 +0.0000000000e+00 +0.0000000000e+00 +1.2818026037e+03 1.2818026037e+03 0.0000000000e+00 0.0000e+00 1.0000e+00
       -2 -1    0    0    0  501 -0.0000000000e+00 -0.0000000000e+00 -2.3485767785e+03 2.3485767785e+03 0.0000000000e+00 0.0000e+00 -1.0000e+00
      -13  1    1    2    0    0 +1.5095514764e+03 -6.6114138247e+02 -1.1011861225e+03 1.9820354346e+03 0.0000000000e+00 0.0000e+00 -1.0000e+00
       13  1    1    2    0    0 -1.5095514764e+03 +6.6114138247e+02 +3.4411947734e+01 1.6483439476e+03 0.0000000000e+00 0.0000e+00 1.0000e+00
<mgrwt>
<rscale>  0 0.34701077E+04</rscale>
<asrwt>0</asrwt>
<pdfrwt beam="1">  1        2 0.19720040E+00 0.34701077E+04</pdfrwt>
<pdfrwt beam="2">  1       -2 0.36131950E+00 0.34701077E+04</pdfrwt>
<totfact> 0.16445597E-01</totfact>
</mgrwt>
<rwgt>
<wgt id='morphing_basis_vector_1'> +3.9738232e-05 </wgt>
<wgt id='morphing_basis_vector_2'> +2.7835539e-05 </wgt>
<wgt id='morphing_basis_vector_3'> +4.3695663e-05 </wgt>
<wgt id='morphing_basis_vector_4'> +2.9983566e-05 </wgt>
<wgt id='morphing_basis_vector_5'> +4.9150960e-05 </wgt>
</rwgt>
</event>
<event>
 4      1 +1.9882500e-09 3.24721400e+03 7.81860800e-03 7.69275600e-02
        2 -1    0    0  501    0 +0.0000000000e+00 +0.0000000000e+00 +1.5603840914e+03 1.5603840914e+03 0.0000000000e+00 0.0000e+00 -1.0000e+00
       -2 -1    0    0    0  501 -0.0000000000e+00 -0.0000000000e+00 -1.6893919861e+03 1.6893919861e+03 0.0000000000e+00 0.0000e+00 1.0000e+00
      -13  1    1    2    0    0 -8.5122832556e+02 +1.2119882606e+03 +6.0129914285e+02 1.5984573392e+03 0.0000000000e+00 0.0000e+00 1.0000e+00
       13  1    1    2    0    0 +8.5122832556e+02 -1.2119882606e+03 -7.3030703758e+02 1.6513187383e+03 0.0000000000e+00 0.0000e+00 -1.0000e+00
<mgrwt>
<rscale>  0 0.32472144E+04</rscale>
<asrwt>0</asrwt>
<pdfrwt beam="1">  1        2 0.24005909E+00 0.32472144E+04</pdfrwt>
<pdfrwt beam="2">  1       -2 0.25990646E+00 0.32472144E+04</pdfrwt>
<totfact> 0.55548931E-01</totfact>
</mgrwt>
<rwgt>
<wgt id='morphing_basis_vector_1'> +3.4519060e-05 </wgt>
<wgt id='morphing_basis_vector_2'> +3.3104132e-05 </wgt>
<wgt id='morphing_basis_vector_3'> +3.9804269e-05 </wgt>
<wgt id='morphing_basis_vector_4'> +1.4598138e-05 </wgt>
<wgt id='morphing_basis_vector_5'> +3.6928123e-05 </wgt>
</rwgt>
</event>
<event>
 4      1 +1.9882500e-09 3.24594600e+03 7.81860800e-03 7.69304700e-02
        2 -1    0    0  501    0 +0.0000000000e+00 +0.0000000000e+00 +3.0576285770e+03 3.0576285770e+03 0.0000000000e+00 0.0000e+00 1.0000e+00
       -2 -1    0    0    0  501 -0.0000000000e+00 -0.0000000000e+00 -8.6146522553e+02 8.6146522553e+02 0.0000000000e+00 0.0000e+00 -1.0000e+00
      -13  1    1    2    0    0 -7.3560096386e+02 -6.3678730976e+02 -4.7032181180e+02 1.0806523320e+03 0.0000000000e+00 0.0000e+00 -1.0000e+00
       13  1    1    2    0    0 +7.3560096386e+02 +6.3678730976e+02 +2.6664851633e+03 2.8384414706e+03 0.0000000000e+00 0.0000e+00 1.0000e+00
<mgrwt>
<rscale>  0 0.32459456E+04</rscale>
<asrwt>0</asrwt>
<pdfrwt beam="1">  1        2 0.47040439E+00 0.32459456E+04</pdfrwt>
<pdfrwt beam="2">  1       -2 0.13253311E+00 0.32459456E+04</pdfrwt>
<totfact> 0.65911852E-01</totfact>
</mgrwt>
<rwgt>
<wgt id='morphing_basis_vector_1'> +3.0169950e-05 </wgt>
<wgt id='morphing_basis_vector_2'> +2.0409780e-05 </wgt>
<wgt id='morphing_basis_vector_3'> +3.2962475e-05 </wgt>
<wgt id='morphing_basis_vector_4'> +2.3566165e-05 </wgt>
<wgt id='morphing_basis_vector_5'> +3.7612334e-05 </wgt>
</rwgt>
</event>
<event>
 4      1 +1.9882500e-09 3.59685200e+03 7.81860800e-03 7.61740400e-02
        2 -1    0    0  501    0 +0.0000000000e+00 +0.0000000000e+00 +1.1700269855e+03 1.1700269855e+03 0.0000000000e+00 0.0000e+00 -1.0000e+00
       -2 -1    0    0    0  501 -0.0000000000e+00 -0.0000000000e+00 -2.7643267552e+03 2.7643267552e+03 0.0000000000e+00 0.0000e+00 1.0000e+00
      -13  1    1    2    0    0 +9.4674040512e+02 -3.6137658711e+02 -2.4223015771e+03 2.6257294916e+03 0.0000000000e+00 0.0000e+00 1.0000e+00
       13  1    1    2    0    0 -9.4674040512e+02 +3.6137658711e+02 +8.2800180737e+02 1.3086242491e+03 0.0000000000e+00 0.0000e+00 -1.0000e+00
<mgrwt>
<rscale>  0 0.35968525E+04</rscale>
<asrwt>0</asrwt>
<pdfrwt beam="1">  1        2 0.18000415E+00 0.35968525E+04</pdfrwt>
<pdfrwt beam="2">  1       -2 0.42528104E+00 0.35968525E+04</pdfrwt>
<totfact> 0.72457216E-02</totfact>
</mgrwt>
<rwgt>
<wgt id='morphing_basis_vector_1'> +4.5351397e-05 </wgt>
<wgt id='morphing_basis_vector_2'> +3.0719537e-05 </wgt>
<wgt id='morphing_basis_vector_3'> +4.9679314e-05 </wgt>
<wgt id='morphing_basis_vector_4'> +3.5641355e-05 </wgt>
<wgt id='morphing_basis_vector_5'> +5.6869740e-05 </wgt>
</rwgt>
</event>
<event>
 4      1 +1.9882500e-09 3.61177500e+03 7.81860800e-03 7.61438500e-02
        2 -1    0    0  501    0 +0.0000000000e+00 +0.0000000000e+00 +1.2571108880e+03 1.2571108880e+03 0.0000000000e+00 0.0000e+00 1.0000e+00
       -2 -1    0    0    0  501 -0.0000000000e+00 -0.0000000000e+00 -2.5942265257e+03 2.5942265257e+03 0.0000000000e+00 0.0000e+00 -1.0000e+00
      -13  1    1    2    0    0 -1.5740823350e+03 -5.5777416101e+02 -1.4014465647e+03 2.1801146039e+03 0.0000000000e+00 0.0000e+00 -1.0000e+00
       13  1    1    2    0    0 +1.5740823350e+03 +5.5777416101e+02 +6.4330927023e+01 1.6712228099e+03 0.0000000000e+00 0.0000e+00 1.0000e+00
<mgrwt>
<rscale>  0 0.36117754E+04</rscale>
<asrwt>0</asrwt>
<pdfrwt beam="1">  1        2 0.19340168E+00 0.36117754E+04</pdfrwt>
<pdfrwt beam="2">  1       -2 0.39911177E+00 0.36117754E+04</pdfrwt>
<totfact> 0.95882212E-02</totfact>
</mgrwt>
<rwgt>
<wgt id='morphing_basis_vector_1'> +4.6457281e-05 </wgt>
<wgt id='morphing_basis_vector_2'> +3.2270510e-05 </wgt>
<wgt id='morphing_basis_vector_3'> +5.1071465e-05 </wgt>
<wgt id='morphing_basis_vector_4'> +3.5496093e-05 </wgt>
<wgt id='morphing_basis_vector_5'> +5.7763533e-05 </wgt>
</rwgt>
</event>
<event>
 4      1 +1.9882500e-09 3.33933700e+03 7.81860800e-03 7.67198700e-02
        2 -1    0    0  501    0 +0.0000000000e+00 +0.0000000000e+00 +1.4568082272e+03 1.4568082272e+03 0.0000000000e+00 0.0000e+00 -1.0000e+00
       -2 -1    0    0    0  501 -0.0000000000e+00 -0.0000000000e+00 -1.9136308606e+03 1.9136308606e+03 0.0000000000e+00 0.0000e+00 1.0000e+00
      -13  1    1    2    0    0 -9.4087425048e+02 +1.2527947012e+03 +3.5407229337e+02 1.6062708699e+03 0.0000000000e+00 0.0000e+00 1.0000e+00
       13  1    1    2    0    0 +9.4087425048e+02 -1.2527947012e+03 -8.1089492673e+02 1.7641682178e+03 0.0000000000e+00 0.0000e+00 -1.0000e+00
<mgrwt>
<rscale>  0 0.33393372E+04</rscale>
<asrwt>0</asrwt>
<pdfrwt beam="1">  1        2 0.22412434E+00 0.33393372E+04</pdfrwt>
<pdfrwt beam="2">  1       -2 0.29440475E+00 0.33393372E+04</pdfrwt>
<totfact> 0.36641580E-01</totfact>
</mgrwt>
<rwgt>
<wgt id='morphing_basis_vector_1'> +3.7722387e-05 </wgt>
<wgt id='morphing_basis_vector_2'> +3.4496442e-05 </wgt>
<wgt id='morphing_basis_vector_3'> +4.3181617e-05 </wgt>
<wgt id='morphing_basis_vector_4'> +1.8123868e-05 </wgt>
<wgt id='morphing_basis_vector_5'> +4.1480702e-05 </wgt>
</rwgt>
</event>
<event>
 4      1 +1.9882500e-09 3.25599900e+03 7.81860800e-03 7.69074500e-02
        2 -1    0    0  501    0 +0.0000000000e+00 +0.0000000000e+00 +1.8614352646e+03 1.8614352646e+03 0.0000000000e+00 0.0000e+00 -1.0000e+00
       -2 -1    0    0    0  501 -0.0000000000e+00 -0.0000000000e+00 -1.4238379013e+03 1.4238379013e+03 0.0000000000e+00 0.0000e+00 1.0000e+00
      -13  1    1    2    0    0 -1.3238219796e+03 -8.3601083338e+02 -2.3126479605e+02 1.5826882678e+03 0.0000000000e+00 0.0000e+00 1.0000e+00
       13  1    1    2    0    0 +1.3238219796e+03 +8.3601083338e+02 +6.6886215939e+02 1.7025848981e+03 0.0000000000e+00 0.0000e+00 -1.0000e+00
<mgrwt>
<rscale>  0 0.32559988E+04</rscale>
<asrwt>0</asrwt>
<pdfrwt beam="1">  1        2 0.28637466E+00 0.32559988E+04</pdfrwt>
<pdfrwt beam="2">  1       -2 0.21905199E+00 0.32559988E+04</pdfrwt>
<totfact> 0.72717494E-01</totfact>
</mgrwt>
<rwgt>
<wgt id='morphing_basis_vector_1'> +3.0917662e-05 </wgt>
<wgt id='morphing_basis_vector_2'> +2.1767080e-05 </wgt>
<wgt id='morphing_basis_vector_3'> +3.3964734e-05 </wgt>
<wgt id='morphing_basis_vector_4'> +2.3076321e-05 </wgt>
<wgt id='morphing_basis_vector_5'> +3.8019170e-05 </wgt>
</rwgt>
</event>
<event>
 4      1 +1.9882500e-09 3.24052600e+03 7.81860800e-03 7.69429200e-02
        2 -1    0    0  501    0 +0.0000000000e+00 +0.0000000000e+00 +1.9490365587e+03 1.9490365587e+03 0.0000000000e+00 0.0000e+00 -1.0000e+00
       -2 -1    0    0    0  501 -0.0000000000e+00 -0.0000000000e+00 -1.3469483963e+03 1.3469483963e+03 0.0000000000e+00 0.0000e+00 1.0000e+00
      -13  1    1    2    0    0 +3.3346118740e+02 -9.0738282578e+02 -1.0214828787e+03 1.4064022282e+03 0.0000000000e+00 0.0000e+00 1.0000e+00
       13  1    1    2    0    0 -3.3346118740e+02 +9.0738282578e+02 +1.6235710411e+03 1.8895827268e+03 0.0000000000e+00 0.0000e+00 -1.0000e+00
<mgrwt>
<rscale>  0 0.32405257E+04</rscale>
<asrwt>0</asrwt>
<pdfrwt beam="1">  1        2 0.29985178E+00 0.32405257E+04</pdfrwt>
<pdfrwt beam="2">  1       -2 0.20722283E+00 0.32405257E+04</pdfrwt>
<totfact> 0.79050385E-01</totfact>
</mgrwt>
<rwgt>
<wgt id='morphing_basis_vector_1'> +2.9970156e-05 </wgt>
<wgt id='morphing_basis_vector_2'> +2.0273196e-05 </wgt>
<wgt id='morphing_basis_vector_3'> +3.2742436e-05 </wgt>
<wgt id='morphing_basis_vector_4'> +2.3408740e-05 </wgt>
<wgt id='morphing_basis_vector_5'> +3.7359920e-05 </wgt>
</rwgt>
</event>
<event>
 4      1 +1.9882500e-09 3.23204600e+03 7.81860800e-03 7.69624400e-02
        2 -1    0    0  501    0 +0.0000000000e+00 +0.0000000000e+00 +2.4419181933e+03 2.4419181933e+03 0.0000000000e+00 0.0000e+00 -1.0000e+00
       -2 -1    0    0    0  501 -0.0000000000e+00 -0.0000000000e+00 -1.0694586403e+03 1.0694586403e+03 0.0000000000e+00 0.0000e+00 1.0000e+00
      -13  1    1    2    0    0 +1.0691013825e+03 -1.0892079163e+02 -6.2501361693e+02 1.2431747771e+03 0.0000000000e+00 0.0000e+00 1.0000e+00
       13  1    1    2    0    0 -1.0691013825e+03 +1.0892079163e+02 +1.9974731699e+03 2.2682020566e+03 0.0000000000e+00 0.0000e+00 -1.0000e+00
<mgrwt>
<rscale>  0 0.32320461E+04</rscale>
<asrwt>0</asrwt>
<pdfrwt beam="1">  1        2 0.37567972E+00 0.32320461E+04</pdfrwt>
<pdfrwt beam="2">  1       -2 0.16453210E+00 0.32320461E+04</pdfrwt>
<totfact> 0.86346550E-01</totfact>
</mgrwt>
<rwgt>
<wgt id='morphing_basis_vector_1'> +2.9670956e-05 </wgt>
<wgt id='morphing_basis_vector_2'> +2.0094389e-05 </wgt>
<wgt id='morphing_basis_vector_3'> +3.2418350e-05 </wgt>
<wgt id='morphing_basis_vector_4'> +2.3140206e-05 </wgt>
<wgt id='morphing_basis_vector_5'> +3.6965592e-05 </wgt>
</rwgt>
</event>
<event>
 4      1 +1.9882500e-09 3.22681900e+03 7.81860800e-03 7.69745000e-02
        2 -1    0    0  501    0 +0.0000000000e+00 +0.0000000000e+00 +2.4984502849e+03 2.4984502849e+03 0.0000000000e+00 0.0000e+00 1.0000e+00
       -2 -1    0    0    0  501 -0.0000000000e+00 -0.0000000000e+00 -1.0418816570e+03 1.0418816570e+03 0.0000000000e+00 0.0000e+00 -1.0000e+00
      -13  1    1    2    0    0 +1.0390885899e+03 -8.4546688256e+02 -2.5828657118e+02 1.3642695115e+03 0.0000000000e+00 0.0000e+00 -1.0000e+00
       13  1    1    2    0    0 -1.0390885899e+03 +8.4546688256e+02 +1.7148551991e+03 2.1760624304e+03 0.0000000000e+00 0.0000e+00 1.0000e+00
<mgrwt>
<rscale>  0 0.32268186E+04</rscale>
<asrwt>0</asrwt>
<pdfrwt beam="1">  1        2 0.38437697E+00 0.32268186E+04</pdfrwt>
<pdfrwt beam="2">  1       -2 0.16028949E+00 0.32268186E+04</pdfrwt>
<totfact> 0.86400999E-01</totfact>
</mgrwt>
<rwgt>
<wgt id='morphing_basis_vector_1'> +2.9551998e-05 </wgt>
<wgt id='morphing_basis_vector_2'> +2.0174205e-05 </wgt>
<wgt id='morphing_basis_vector_3'> +3.2321290e-05 </wgt>
<wgt id='morphing_basis_vector_4'> +2.2841116e-05 </wgt>
<wgt id='morphing_basis_vector_5'> +3.6712934e-05 </wgt>
</rwgt>
</event>
<event>
 4      1 +1.9882500e-09 3.44121500e+03 7.81860800e-03 7.64980700e-02
        2 -1    0    0  501    0 +0.0000000000e+00 +0.0000000000e+00 +1.2416997154e+03 1.2416997154e+03 0.0000000000e+00 0.0000e+00 -1.0000e+00
       -2 -1    0    0    0  501 -0.0000000000e+00 -0.0000000000e+00 -2.3842244039e+03 2.3842244039e+03 0.0000000000e+00 0.0000e+00 1.0000e+00
      -13  1    1    2    0    0 +7.2066389540e+02 -7.5478276903e+02 -2.0126954727e+03 2.2671560477e+03 0.0000000000e+00 0.0000e+00 1.0000e+00
       13  1    1    2    0    0 -7.2066389540e+02 +7.5478276903e+02 +8.7017078426e+02 1.3587680716e+03 0.0000000000e+00 0.0000e+00 -1.0000e+00
<mgrwt>
<rscale>  0 0.34412153E+04</rscale>
<asrwt>0</asrwt>
<pdfrwt beam="1">  1        2 0.19103073E+00 0.34412153E+04</pdfrwt>
<pdfrwt beam="2">  1       -2 0.36680375E+00 0.34412153E+04</pdfrwt>
<totfact> 0.16031351E-01</totfact>
</mgrwt>
<rwgt>
<wgt id='morphing_basis_vector_1'> +3.8047511e-05 </wgt>
<wgt id='morphing_basis_vector_2'> +2.5767920e-05 </wgt>
<wgt id='morphing_basis_vector_3'> +4.1636041e-05 </wgt>
<wgt id='morphing_basis_vector_4'> +2.9815463e-05 </wgt>
<wgt id='morphing_basis_vector_5'> +4.7592054e-05 </wgt>
</rwgt>
</event>
<event>
 4      1 +1.9882500e-09 3.42522800e+03 7.81860800e-03 7.65323500e-02
        2 -1    0    0  501    0 +0.0000000000e+00 +0.0000000000e+00 +2.1339048945e+03 2.1339048945e+03 0.0000000000e+00 0.0000e+00 1.0000e+00
       -2 -1    0    0    0  501 -0.0000000000e+00 -0.0000000000e+00 -1.3744971160e+03 1.3744971160e+03 0.0000000000e+00 0.0000e+00 -1.0000e+00
      -13  1    1    2    0    0 +1.5211616790e+02 -1.6431830822e+03 +8.4892847894e+02 1.8557665619e+03 0.0000000000e+00 0.0000e+00 -1.0000e+00
       13  1    1    2    0    0 -1.5211616790e+02 +1.6431830822e+03 -8.9520700510e+01 1.6526354486e+03 0.0000000000e+00 0.0000e+00 1.0000e+00
<mgrwt>
<rscale>  0 0.34252277E+04</rscale>
<asrwt>0</asrwt>
<pdfrwt beam="1">  1        2 0.32829306E+00 0.34252277E+04</pdfrwt>
<pdfrwt beam="2">  1       -2 0.21146109E+00 0.34252277E+04</pdfrwt>
<totfact> 0.57053317E-01</totfact>
</mgrwt>
<rwgt>
<wgt id='morphing_basis_vector_1'> +4.0760425e-05 </wgt>
<wgt id='morphing_basis_vector_2'> +3.5326882e-05 </wgt>
<wgt id='morphing_basis_vector_3'> +4.6276808e-05 </wgt>
<wgt id='morphing_basis_vector_4'> +2.2101317e-05 </wgt>
<wgt id='morphing_basis_vector_5'> +4.6115107e-05 </wgt>
</rwgt>
</event>
<event>
 4      1 +1.9882500e-09 3.84727500e+03 7.81860800e-03 7.56864000e-02
        2 -1    0    0  501    0 +0.0000000000e+00 +0.0000000000e+00 +1.5851275970e+03 1.5851275970e+03 0.0000000000e+00 0.0000e+00 -1.0000e+00
       -2 -1    0    0    0  501 -0.0000000000e+00 -0.0000000000e+00 -2.3344372281e+03 2.3344372281e+03 0.0000000000e+00 0.0000e+00 1.0000e+00
      -13  1    1    2    0    0 +1.3123613768e+02 +1.9165987186e+03 -2.7376219263e+02 1.9404946045e+03 0.0000000000e+00 0.0000e+00 1.0000e+00
       13  1    1    2    0    0 -1.3123613768e+02 -1.9165987186e+03 -4.7554743841e+02 1.9790702206e+03 0.0000000000e+00 0.0000e+00 -1.0000e+00
<mgrwt>
<rscale>  0 0.38472748E+04</rscale>
<asrwt>0</asrwt>
<pdfrwt beam="1">  1        2 0.24386579E+00 0.38472748E+04</pdfrwt>
<pdfrwt beam="2">  1       -2 0.35914419E+00 0.38472748E+04</pdfrwt>
<totfact> 0.11116845E-01</totfact>
</mgrwt>
<rwgt>
<wgt id='morphing_basis_vector_1'> +6.1864174e-05 </wgt>
<wgt id='morphing_basis_vector_2'> +4.7817504e-05 </wgt>
<wgt id='morphing_basis_vector_3'> +6.9175373e-05 </wgt>
<wgt id='morphing_basis_vector_4'> +4.1240674e-05 </wgt>
<wgt id='morphing_basis_vector_5'> +7.4098692e-05 </wgt>
</rwgt>
</event>
<event>
 4      1 +1.9882500e-09 3.46202300e+03 7.81860800e-03 7.64537400e-02
        2 -1    0    0  501    0 +0.0000000000e+00 +0.0000000000e+00 +2.8764643081e+03 2.8764643081e+03 0.0000000000e+00 0.0000e+00 -1.0000e+00
       -2 -1    0    0    0  501 -0.0000000000e+00 -0.0000000000e+00 -1.0416959098e+03 1.0416959098e+03 0.0000000000e+00 0.0000e+00 1.0000e+00
      -13  1    1    2    0    0 +9.4554597221e+02 +8.4617717457e+02 -4.1517108339e+02 1.3350805312e+03 0.0000000000e+00 0.0000e+00 1.0000e+00
       13  1    1    2    0    0 -9.4554597221e+02 -8.4617717457e+02 +2.2499394818e+03 2.5830796867e+03 0.0000000000e+00 0.0000e+00 -1.0000e+00
<mgrwt>
<rscale>  0 0.34620232E+04</rscale>
<asrwt>0</asrwt>
<pdfrwt beam="1">  1        2 0.44253297E+00 0.34620232E+04</pdfrwt>
<pdfrwt beam="2">  1       -2 0.16026091E+00 0.34620232E+04</pdfrwt>
<totfact> 0.49593684E-01</totfact>
</mgrwt>
<rwgt>
<wgt id='morphing_basis_vector_1'> +3.9006337e-05 </wgt>
<wgt id='morphing_basis_vector_2'> +2.6502944e-05 </wgt>
<wgt id='morphing_basis_vector_3'> +4.2709962e-05 </wgt>
<wgt id='morphing_basis_vector_4'> +3.0470933e-05 </wgt>
<wgt id='morphing_basis_vector_5'> +4.8755097e-05 </wgt>
</rwgt>
</event>
<event>
 4      1 +1.9882500e-09 3.42664600e+03 7.81860800e-03 7.65293000e-02
        2 -1    0    0  501    0 +0.0000000000e+00 +0.0000000000e+00 +2.9987578203e+03 2.9987578203e+03 0.0000000000e+00 0.0000e+00 -1.0000e+00
       -2 -1    0    0    0  501 -0.0000000000e+00 -0.0000000000e+00 -9.7889747167e+02 9.7889747167e+02 0.0000000000e+00 0.0000e+00 1.0000e+00
      -13  1    1    2    0    0 +2.2515473489e+02 +1.6980174326e+03 +9.6469477001e+02 1.9658570282e+03 0.0000000000e+00 0.0000e+00 1.0000e+00
       13  1    1    2    0    0 -2.2515473489e+02 -1.6980174326e+03 +1.0551655786e+03 2.0117982638e+03 0.0000000000e+00 0.0000e+00 -1.0000e+00
<mgrwt>
<rscale>  0 0.34266464E+04</rscale>
<asrwt>0</asrwt>
<pdfrwt beam="1">  1        2 0.46134735E+00 0.34266464E+04</pdfrwt>
<pdfrwt beam="2">  1       -2 0.15059961E+00 0.34266464E+04</pdfrwt>
<totfact> 0.49723893E-01</totfact>
</mgrwt>
<rwgt>
<wgt id='morphing_basis_vector_1'> +3.8657557e-05 </wgt>
<wgt id='morphing_basis_vector_2'> +2.9000973e-05 </wgt>
<wgt id='morphing_basis_vector_3'> +4.2911837e-05 </wgt>
<wgt id='morphing_basis_vector_4'> +2.6694498e-05 </wgt>
<wgt id='morphing_basis_vector_5'> +4.6569275e-05 </wgt>
</rwgt>
</event>
<event>
 4      1 +1.9882500e-09 3.49565900e+03 7.81860800e-03 7.63827500e-02
        2 -1    0    0  501    0 +0.0000000000e+00 +0.0000000000e+00 +3.5205632482e+03 3.5205632482e+03 0.0000000000e+00 0.0000e+00 -1.0000e+00
       -2 -1    0    0    0  501 -0.0000000000e+00 -0.0000000000e+00 -8.6773286390e+02 8.6773286390e+02 0.0000000000e+00 0.0000e+00 1.0000e+00
      -13  1    1    2    0    0 +5.0927094053e+01 -6.8532796994e+02 +3.3438467222e+03 3.4137338644e+03 0.0000000000e+00 0.0000e+00 -1.0000e+00
       13  1    1    2    0    0 -5.0927094053e+01 +6.8532796994e+02 -6.9101633794e+02 9.7456224767e+02 0.0000000000e+00 0.0000e+00 1.0000e+00
<mgrwt>
<rscale>  0 0.34956593E+04</rscale>
<asrwt>0</asrwt>
<pdfrwt beam="1">  1        2 0.54162511E+00 0.34956593E+04</pdfrwt>
<pdfrwt beam="2">  1       -2 0.13349737E+00 0.34956593E+04</pdfrwt>
<totfact> 0.30166943E-01</totfact>
</mgrwt>
<rwgt>
<wgt id='morphing_basis_vector_1'> +5.5245373e-05 </wgt>
<wgt id='morphing_basis_vector_2'> +7.0821647e-05 </wgt>
<wgt id='morphing_basis_vector_3'> +6.7766901e-05 </wgt>
<wgt id='morphing_basis_vector_4'> +7.5710812e-07 </wgt>
<wgt id='morphing_basis_vector_5'> +4.8128071e-05 </wgt>
</rwgt>
</event>
<event>
 4      1 +1.9882500e-09 3.26465500e+03 7.81860800e-03 7.68877000e-02
        2 -1    0    0  501    0 +0.0000000000e+00 +0.0000000000e+00 +1.1260293430e+03 1.1260293430e+03 0.0000000000e+00 0.0000e+00 1.0000e+00
       -2 -1    0    0    0  501 -0.0000000000e+00 -0.0000000000e+00 -2.3662732116e+03 2.3662732116e+03 0.0000000000e+00 0.0000e+00 -1.0000e+00
      -13  1    1    2    0    0 +9.2941150610e+02 -3.0479197181e+02 +7.7782825367e+02 1.2496882355e+03 0.0000000000e+00 0.0000e+00 1.0000e+00
       13  1    1    2    0    0 -9.2941150610e+02 +3.0479197181e+02 -2.0180721222e+03 2.2426143191e+03 0.0000000000e+00 0.0000e+00 -1.0000e+00
<mgrwt>
<rscale>  0 0.32646550E+04</rscale>
<asrwt>0</asrwt>
<pdfrwt beam="1">  1        2 0.17323528E+00 0.32646550E+04</pdfrwt>
<pdfrwt beam="2">  1       -2 0.36404203E+00 0.32646550E+04</pdfrwt>
<totfact> 0.19804725E-01</totfact>
</mgrwt>
<rwgt>
<wgt id='morphing_basis_vector_1'> +4.1140797e-05 </wgt>
<wgt id='morphing_basis_vector_2'> +5.1122355e-05 </wgt>
<wgt id='morphing_basis_vector_3'> +4.9953481e-05 </wgt>
<wgt id='morphing_basis_vector_4'> +2.6050629e-06 </wgt>
<wgt id='morphing_basis_vector_5'> +3.6716973e-05 </wgt>
</rwgt>
</event>
<event>
 4      1 +1.9882500e-09 3.57627500e+03 7.81860800e-03 7.62159000e-02
        2 -1    0    0  501    0 +0.0000000000e+00 +0.0000000000e+00 +1.8784977732e+03 1.8784977732e+03 0.0000000000e+00 0.0000e+00 1.0000e+00
       -2 -1    0    0    0  501 -0.0000000000e+00 -0.0000000000e+00 -1.7021240380e+03 1.7021240380e+03 0.0000000000e+00 0.0000e+00 -1.0000e+00
      -13  1    1    2    0    0 -5.4871150963e+02 +3.1138458302e+02 -1.5869848610e+03 1.7077955464e+03 0.0000000000e+00 0.0000e+00 -1.0000e+00
       13  1    1    2    0    0 +5.4871150963e+02 -3.1138458302e+02 +1.7633585962e+03 1.8728262648e+03 0.0000000000e+00 0.0000e+00 1.0000e+00
<mgrwt>
<rscale>  0 0.35762753E+04</rscale>
<asrwt>0</asrwt>
<pdfrwt beam="1">  1        2 0.28899966E+00 0.35762753E+04</pdfrwt>
<pdfrwt beam="2">  1       -2 0.26186524E+00 0.35762753E+04</pdfrwt>
<totfact> 0.34853040E-01</totfact>
</mgrwt>
<rwgt>
<wgt id='morphing_basis_vector_1'> +4.4314565e-05 </wgt>
<wgt id='morphing_basis_vector_2'> +2.9982029e-05 </wgt>
<wgt id='morphing_basis_vector_3'> +4.8529794e-05 </wgt>
<wgt id='morphing_basis_vector_4'> +3.4858171e-05 </wgt>
<wgt id='morphing_basis_vector_5'> +5.5574110e-05 </wgt>
</rwgt>
</event>
<event>
 4      1 +1.9882500e-09 3.23866900e+03 7.81860800e-03 7.69471800e-02
        2 -1    0    0  501    0 +0.0000000000e+00 +0.0000000000e+00 +2.3334060437e+03 2.3334060437e+03 0.0000000000e+00 0.0000e+00 1.0000e+00
       -2 -1    0    0    0  501 -0.0000000000e+00 -0.0000000000e+00 -1.1237838282e+03 1.1237838282e+03 0.0000000000e+00 0.0000e+00 -1.0000e+00
      -13  1    1    2    0    0 -6.7081691509e+02 +1.8325192060e+02 -9.5628021774e+02 1.1823909907e+03 0.0000000000e+00 0.0000e+00 -1.0000e+00
       13  1    1    2    0    0 +6.7081691509e+02 -1.8325192060e+02 +2.1659024332e+03 2.2747988813e+03 0.0000000000e+00 0.0000e+00 1.0000e+00
<mgrwt>
<rscale>  0 0.32386688E+04</rscale>
<asrwt>0</asrwt>
<pdfrwt beam="1">  1        2 0.35898554E+00 0.32386688E+04</pdfrwt>
<pdfrwt beam="2">  1       -2 0.17288982E+00 0.32386688E+04</pdfrwt>
<totfact> 0.85991243E-01</totfact>
</mgrwt>
<rwgt>
<wgt id='morphing_basis_vector_1'> +2.9890603e-05 </wgt>
<wgt id='morphing_basis_vector_2'> +2.0193201e-05 </wgt>
<wgt id='morphing_basis_vector_3'> +3.2649421e-05 </wgt>
<wgt id='morphing_basis_vector_4'> +2.3378709e-05 </wgt>
<wgt id='morphing_basis_vector_5'> +3.7275695e-05 </wgt>
</rwgt>
</event>
<event>
 4      1 +1.9882500e-09 3.25306500e+03 7.81860800e-03 7.69141600e-02
        2 -1    0    0  501    0 +0.0000000000e+00 +0.0000000000e+00 +3.9819314478e+03 3.9819314478e+03 0.0000000000e+00 0.0000e+00 1.0000e+00
       -2 -1    0    0    0  501 -0.0000000000e+00 -0.0000000000e+00 -6.6440304275e+02 6.6440304275e+02 0.0000000000e+00 0.0000e+00 -1.0000e+00
      -13  1    1    2    0    0 +1.1406390615e+03 +1.2418699903e+02 +1.2114953721e+01 1.1474435286e+03 0.0000000000e+00 0.0000e+00 -1.0000e+00
       13  1    1    2    0    0 -1.1406390615e+03 -1.2418699903e+02 +3.3054134513e+03 3.4988909619e+03 0.0000000000e+00 0.0000e+00 1.0000e+00
<mgrwt>
<rscale>  0 0.32530646E+04</rscale>
<asrwt>0</asrwt>
<pdfrwt beam="1">  1        2 0.61260483E+00 0.32530646E+04</pdfrwt>
<pdfrwt beam="2">  1       -2 0.10221585E+00 0.32530646E+04</pdfrwt>
<totfact> 0.26482682E-01</totfact>
</mgrwt>
<rwgt>
<wgt id='morphing_basis_vector_1'> +3.0454118e-05 </wgt>
<wgt id='morphing_basis_vector_2'> +2.0649744e-05 </wgt>
<wgt id='morphing_basis_vector_3'> +3.3285099e-05 </wgt>
<wgt id='morphing_basis_vector_4'> +2.3731815e-05 </wgt>
<wgt id='morphing_basis_vector_5'> +3.7942320e-05 </wgt>
</rwgt>
</event>
<event>
 4      1 +1.9882500e-09 3.47427400e+03 7.81860800e-03 7.64277900e-02
        2 -1    0    0  501    0 +0.0000000000e+00 +0.0000000000e+00 +3.6938144528e+03 3.6938144528e+03 0.0000000000e+00 0.0000e+00 1.0000e+00
       -2 -1    0    0    0  501 -0.0000000000e+00 -0.0000000000e+00 -8.1694523252e+02 8.1694523252e+02 0.0000000000e+00 0.0000e+00 -1.0000e+00
      -13  1    1    2    0    0 +7.9202822796e+02 -1.5099275878e+03 +1.0069388305e+03 1.9801807601e+03 0.0000000000e+00 0.0000e+00 -1.0000e+00
       13  1    1    2    0    0 -7.9202822796e+02 +1.5099275878e+03 +1.8699303899e+03 2.5305789253e+03 0.0000000000e+00 0.0000e+00 1.0000e+00
<mgrwt>
<rscale>  0 0.34742735E+04</rscale>
<asrwt>0</asrwt>
<pdfrwt beam="1">  1        2 0.56827914E+00 0.34742735E+04</pdfrwt>
<pdfrwt beam="2">  1       -2 0.12568388E+00 0.34742735E+04</pdfrwt>
<totfact> 0.26261453E-01</totfact>
</mgrwt>
<rwgt>
<wgt id='morphing_basis_vector_1'> +4.0206218e-05 </wgt>
<wgt id='morphing_basis_vector_2'> +2.8787227e-05 </wgt>
<wgt id='morphing_basis_vector_3'> +4.4347465e-05 </wgt>
<wgt id='morphing_basis_vector_4'> +2.9544320e-05 </wgt>
<wgt id='morphing_basis_vector_5'> +4.9340552e-05 </wgt>
</rwgt>
</event>
<event>
 4      1 +1.9882500e-09 3.60143600e+03 7.81860800e-03 7.61647500e-02
        2 -1    0    0  501    0 +0.0000000000e+00 +0.0000000000e+00 +2.6732569097e+03 2.6732569097e+03 0.0000000000e+00 0.0000e+00 -1.0000e+00
       -2 -1    0    0    0  501 -0.0000000000e+00 -0.0000000000e+00 -1.2129715092e+03 1.2129715092e+03 0.0000000000e+00 0.0000e+00 1.0000e+00
      -13  1    1    2    0    0 -1.0563177012e+03 -4.2311620774e+02 -7.7583760205e+02 1.3772285199e+03 0.0000000000e+00 0.0000e+00 1.0000e+00
       13  1    1    2    0    0 +1.0563177012e+03 +4.2311620774e+02 +2.2361230025e+03 2.5089998990e+03 0.0000000000e+00 0.0000e+00 -1.0000e+00
<mgrwt>
<rscale>  0 0.36014355E+04</rscale>
<asrwt>0</asrwt>
<pdfrwt beam="1">  1        2 0.41127029E+00 0.36014355E+04</pdfrwt>
<pdfrwt beam="2">  1       -2 0.18661100E+00 0.36014355E+04</pdfrwt>
<totfact> 0.41105295E-01</totfact>
</mgrwt>
<rwgt>
<wgt id='morphing_basis_vector_1'> +4.5594492e-05 </wgt>
<wgt id='morphing_basis_vector_2'> +3.0914177e-05 </wgt>
<wgt id='morphing_basis_vector_3'> +4.9953558e-05 </wgt>
<wgt id='morphing_basis_vector_4'> +3.5797131e-05 </wgt>
<wgt id='morphing_basis_vector_5'> +5.7159666e-05 </wgt>
</rwgt>
</event>
<event>
 4      1 +1.9882500e-09 3.48317200e+03 7.81860800e-03 7.64090100e-02
        2 -1    0    0  501    0 +0.0000000000e+00 +0.0000000000e+00 +3.9426820741e+03 3.9426820741e+03 0.0000000000e+00 0.0000e+00 -1.0000e+00
       -2 -1    0    0    0  501 -0.0000000000e+00 -0.0000000000e+00 -7.6930416035e+02 7.6930416035e+02 0.0000000000e+00 0.0000e+00 1.0000e+00
      -13  1    1    2    0    0 +1.4524134440e+03 +6.0298271816e+02 +5.7433062900e+02 1.6742008966e+03 0.0000000000e+00 0.0000e+00 1.0000e+00
       13  1    1    2    0    0 -1.4524134440e+03 -6.0298271816e+02 +2.5990472848e+03 3.0377853379e+03 0.0000000000e+00 0.0000e+00 -1.0000e+00
<mgrwt>
<rscale>  0 0.34831720E+04</rscale>
<asrwt>0</asrwt>
<pdfrwt beam="1">  1        2 0.60656646E+00 0.34831720E+04</pdfrwt>
<pdfrwt beam="2">  1       -2 0.11835449E+00 0.34831720E+04</pdfrwt>
<totfact> 0.19386362E-01</totfact>
</mgrwt>
<rwgt>
<wgt id='morphing_basis_vector_1'> +4.0157493e-05 </wgt>
<wgt id='morphing_basis_vector_2'> +2.7730891e-05 </wgt>
<wgt id='morphing_basis_vector_3'> +4.4073814e-05 </wgt>
<wgt id='morphing_basis_vector_4'> +3.0815604e-05 </wgt>
<wgt id='morphing_basis_vector_5'> +4.9931320e-05 </wgt>
</rwgt>
</event>
<event>
 4      1 +1.9882500e-09 3.55827400e+03 7.81860800e-03 7.62527700e-02
        2 -1    0    0  501    0 +0.0000000000e+00 +0.0000000000e+00 +1.9596582460e+03 1.9596582460e+03 0.0000000000e+00 0.0000e+00 1.0000e+00
       -2 -1    0    0    0  501 -0.0000000000e+00 -0.0000000000e+00 -1.6152450853e+03 1.6152450853e+03 0.0000000000e+00 0.0000e+00 -1.0000e+00
      -13  1    1    2    0    0 -8.5592479046e+02 -1.2360460680e+03 -7.8350733625e+02 1.6953763225e+03 0.0000000000e+00 0.0000e+00 -1.0000e+00
       13  1    1    2    0    0 +8.5592479046e+02 +1.2360460680e+03 +1.1279204970e+03 1.8795270087e+03 0.0000000000e+00 0.0000e+00 1.0000e+00
<mgrwt>
<rscale>  0 0.35582739E+04</rscale>
<asrwt>0</asrwt>
<pdfrwt beam="1">  1        2 0.30148588E+00 0.35582739E+04</pdfrwt>
<pdfrwt beam="2">  1       -2 0.24849924E+00 0.35582739E+04</pdfrwt>
<totfact> 0.38864589E-01</totfact>
</mgrwt>
<rwgt>
<wgt id='morphing_basis_vector_1'> +4.3594040e-05 </wgt>
<wgt id='morphing_basis_vector_2'> +2.9853146e-05 </wgt>
<wgt id='morphing_basis_vector_3'> +4.7814024e-05 </wgt>
<wgt id='morphing_basis_vector_4'> +3.3822136e-05 </wgt>
<wgt id='morphing_basis_vector_5'> +5.4428916e-05 </wgt>
</rwgt>
</event>
<event>
 4      1 +1.9882500e-09 3.25853100e+03 7.81860800e-03 7.69016700e-02
        2 -1    0    0  501    0 +0.0000000000e+00 +0.0000000000e+00 +2.3497985646e+03 2.3497985646e+03 0.0000000000e+00 0.0000e+00 1.0000e+00
       -2 -1    0    0    0  501 -0.0000000000e+00 -0.0000000000e+00 -1.1296737349e+03 1.1296737349e+03 0.0000000000e+00 0.0000e+00 -1.0000e+00
      -13  1    1    2    0    0 +6.9495662054e+02 -6.9536199066e+02 -7.7726641739e+02 1.2532502089e+03 0.0000000000e+00 0.0000e+00 -1.0000e+00
       13  1    1    2    0    0 -6.9495662054e+02 +6.9536199066e+02 +1.9973912471e+03 2.2262220905e+03 0.0000000000e+00 0.0000e+00 1.0000e+00
<mgrwt>
<rscale>  0 0.32585308E+04</rscale>
<asrwt>0</asrwt>
<pdfrwt beam="1">  1        2 0.36150747E+00 0.32585308E+04</pdfrwt>
<pdfrwt beam="2">  1       -2 0.17379596E+00 0.32585308E+04</pdfrwt>
<totfact> 0.82632657E-01</totfact>
</mgrwt>
<rwgt>
<wgt id='morphing_basis_vector_1'> +3.0637419e-05 </wgt>
<wgt id='morphing_basis_vector_2'> +2.0728657e-05 </wgt>
<wgt id='morphing_basis_vector_3'> +3.3477187e-05 </wgt>
<wgt id='morphing_basis_vector_4'> +2.3935433e-05 </wgt>
<wgt id='morphing_basis_vector_5'> +3.8203422e-05 </wgt>
</rwgt>
</event>
<event>
 4      1 +1.9882500e-09 3.23958900e+03 7.81860800e-03 7.69450700e-02
        2 -1    0    0  501    0 +0.0000000000e+00 +0.0000000000e+00 +2.7084245112e+03 2.7084245112e+03 0.0000000000e+00 0.0000e+00 -1.0000e+00
       -2 -1    0    0    0  501 -0.0000000000e+00 -0.0000000000e+00 -9.6873063279e+02 9.6873063279e+02 0.0000000000e+00 0.0000e+00 1.0000e+00
      -13  1    1    2    0    0 -1.5742427446e+03 +3.5722983885e+02 +7.1806822894e+02 1.7667697524e+03 0.0000000000e+00 0.0000e+00 1.0000e+00
       13  1    1    2    0    0 +1.5742427446e+03 -3.5722983885e+02 +1.0216256495e+03 1.9103853916e+03 0.0000000000e+00 0.0000e+00 -1.0000e+00
<mgrwt>
<rscale>  0 0.32395887E+04</rscale>
<asrwt>0</asrwt>
<pdfrwt beam="1">  1        2 0.41668069E+00 0.32395887E+04</pdfrwt>
<pdfrwt beam="2">  1       -2 0.14903548E+00 0.32395887E+04</pdfrwt>
<totfact> 0.79498572E-01</totfact>
</mgrwt>
<rwgt>
<wgt id='morphing_basis_vector_1'> +3.0733474e-05 </wgt>
<wgt id='morphing_basis_vector_2'> +2.2597661e-05 </wgt>
<wgt id='morphing_basis_vector_3'> +3.3963314e-05 </wgt>
<wgt id='morphing_basis_vector_4'> +2.1712053e-05 </wgt>
<wgt id='morphing_basis_vector_5'> +3.7178587e-05 </wgt>
</rwgt>
</event>
<event>
 4      1 +1.9882500e-09 3.44513100e+03 7.81860800e-03 7.64897100e-02
        2 -1    0    0  501    0 +0.0000000000e+00 +0.0000000000e+00 +2.4988726509e+03 2.4988726509e+03 0.0000000000e+00 0.0000e+00 -1.0000e+00
       -2 -1    0    0    0  501 -0.0000000000e+00 -0.0000000000e+00 -1.1874278869e+03 1.1874278869e+03 0.0000000000e+00 0.0000e+00 1.0000e+00
      -13  1    1    2    0    0 -8.0578993585e+02 +1.1100443821e+03 -4.5920608178e+02 1.4465013573e+03 0.0000000000e+00 0.0000e+00 1.0000e+00
       13  1    1    2    0    0 +8.0578993585e+02 -1.1100443821e+03 +1.7706508458e+03 2.2397991804e+03 0.0000000000e+00 0.0000e+00 -1.0000e+00
<mgrwt>
<rscale>  0 0.34451305E+04</rscale>
<asrwt>0</asrwt>
<pdfrwt beam="1">  1        2 0.38444194E+00 0.34451305E+04</pdfrwt>
<pdfrwt beam="2">  1       -2 0.18268121E+00 0.34451305E+04</pdfrwt>
<totfact> 0.56832493E-01</totfact>
</mgrwt>
<rwgt>
<wgt id='morphing_basis_vector_1'> +3.8293306e-05 </wgt>
<wgt id='morphing_basis_vector_2'> +2.6101439e-05 </wgt>
<wgt id='morphing_basis_vector_3'> +4.1942466e-05 </wgt>
<wgt id='morphing_basis_vector_4'> +2.9797798e-05 </wgt>
<wgt id='morphing_basis_vector_5'> +4.7797678e-05 </wgt>
</rwgt>
</event>
<event>
 4      1 +1.9882500e-09 3.52661100e+03 7.81860800e-03 7.63181500e-02
        2 -1    0    0  501    0 +0.0000000000e+00 +0.0000000000e+00 +1.5101035671e+03 1.5101035671e+03 0.0000000000e+00 0.0000e+00 1.0000e+00
       -2 -1    0    0    0  501 -0.0000000000e+00 -0.0000000000e+00 -2.0589625257e+03 2.0589625257e+03 0.0000000000e+00 0.0000e+00 -1.0000e+00
      -13  1    1    2    0    0 -1.6179911099e+03 -4.9502937743e+02 -7.7668748299e+02 1.8617714045e+03 0.0000000000e+00 0.0000e+00 -1.0000e+00
       13  1    1    2    0    0 +1.6179911099e+03 +4.9502937743e+02 +2.2782852435e+02 1.7072946883e+03 0.0000000000e+00 0.0000e+00 1.0000e+00
<mgrwt>
<rscale>  0 0.35266112E+04</rscale>
<asrwt>0</asrwt>
<pdfrwt beam="1">  1        2 0.23232363E+00 0.35266112E+04</pdfrwt>
<pdfrwt beam="2">  1       -2 0.31676347E+00 0.35266112E+04</pdfrwt>
<totfact> 0.23841416E-01</totfact>
</mgrwt>
<rwgt>
<wgt id='morphing_basis_vector_1'> +4.2436931e-05 </wgt>
<wgt id='morphing_basis_vector_2'> +2.9878571e-05 </wgt>
<wgt id='morphing_basis_vector_3'> +4.6714347e-05 </wgt>
<wgt id='morphing_basis_vector_4'> +3.1861279e-05 </wgt>
<wgt id='morphing_basis_vector_5'> +5.2441942e-05 </wgt>
</rwgt>
</event>
<event>
 4      1 +1.9882500e-09 3.51734400e+03 7.81860800e-03 7.63374200e-02
        2 -1    0    0  501    0 +0.0000000000e+00 +0.0000000000e+00 +2.9154594586e+03 2.9154594586e+03 0.0000000000e+00 0.0000e+00 -1.0000e+00
       -2 -1    0    0    0  501 -0.0000000000e+00 -0.0000000000e+00 -1.0608714533e+03 1.0608714533e+03 0.0000000000e+00 0.0000e+00 1.0000e+00
      -13  1    1    2    0    0 +1.0739415212e+03 +6.2893630743e+02 -4.7743839673e+02 1.3329886318e+03 0.0000000000e+00 0.0000e+00 1.0000e+00
       13  1    1    2    0    0 -1.0739415212e+03 -6.2893630743e+02 +2.3320264021e+03 2.6433422801e+03 0.0000000000e+00 0.0000e+00 -1.0000e+00
<mgrwt>
<rscale>  0 0.35173443E+04</rscale>
<asrwt>0</asrwt>
<pdfrwt beam="1">  1        2 0.44853222E+00 0.35173443E+04</pdfrwt>
<pdfrwt beam="2">  1       -2 0.16321099E+00 0.35173443E+04</pdfrwt>
<totfact> 0.44162119E-01</totfact>
</mgrwt>
<rwgt>
<wgt id='morphing_basis_vector_1'> +4.1531025e-05 </wgt>
<wgt id='morphing_basis_vector_2'> +2.8200221e-05 </wgt>
<wgt id='morphing_basis_vector_3'> +4.5486954e-05 </wgt>
<wgt id='morphing_basis_vector_4'> +3.2502386e-05 </wgt>
<wgt id='morphing_basis_vector_5'> +5.1970372e-05 </wgt>
</rwgt>
</event>
<event>
 4      1 +1.9882500e-09 3.31468600e+03 7.81860800e-03 7.67747600e-02
        2 -1    0    0  501    0 +0.0000000000e+00 +0.0000000000e+00 +2.0126774160e+03 2.0126774160e+03 0.0000000000e+00 0.0000e+00 -1.0000e+00
       -2 -1    0    0    0  501 -0.0000000000e+00 -0.0000000000e+00 -1.3647420999e+03 1.3647420999e+03 0.0000000000e+00 0.0000e+00 1.0000e+00
      -13  1    1    2    0    0 +1.5140400598e+03 +4.9216206338e+02 +7.9338719956e+02 1.7787647534e+03 0.0000000000e+00 0.0000e+00 1.0000e+00
       13  1    1    2    0    0 -1.5140400598e+03 -4.9216206338e+02 -1.4545188346e+02 1.5986547625e+03 0.0000000000e+00 0.0000e+00 -1.0000e+00
<mgrwt>
<rscale>  0 0.33146859E+04</rscale>
<asrwt>0</asrwt>
<pdfrwt beam="1">  1        2 0.30964268E+00 0.33146859E+04</pdfrwt>
<pdfrwt beam="2">  1       -2 0.20996032E+00 0.33146859E+04</pdfrwt>
<totfact> 0.69136028E-01</totfact>
</mgrwt>
<rwgt>
<wgt id='morphing_basis_vector_1'> +3.5885058e-05 </wgt>
<wgt id='morphing_basis_vector_2'> +3.1305405e-05 </wgt>
<wgt id='morphing_basis_vector_3'> +4.0742169e-05 </wgt>
<wgt id='morphing_basis_vector_4'> +1.9149690e-05 </wgt>
<wgt id='morphing_basis_vector_5'> +4.0389840e-05 </wgt>
</rwgt>
</event>
<event>
 4      1 +1.9882500e-09 3.78114900e+03 7.81860800e-03 7.58114000e-02
        2 -1    0    0  501    0 +0.0000000000e+00 +0.0000000000e+00 +3.5600299089e+03 3.5600299089e+03 0.0000000000e+00 0.0000e+00 1.0000e+00
       -2 -1    0    0    0  501 -0.0000000000e+00 -0.0000000000e+00 -1.0040007912e+03 1.0040007912e+03 0.0000000000e+00 0.0000e+00 -1.0000e+00
      -13  1    1    2    0    0 -1.7257454312e+03 +4.7074299075e+02 +5.3936737480e+02 1.8683451024e+03 0.0000000000e+00 0.0000e+00 -1.0000e+00
       13  1    1    2    0    0 +1.7257454312e+03 -4.7074299075e+02 +2.0166617429e+03 2.6956855977e+03 0.0000000000e+00 0.0000e+00 1.0000e+00
<mgrwt>
<rscale>  0 0.37811495E+04</rscale>
<asrwt>0</asrwt>
<pdfrwt beam="1">  1        2 0.54769690E+00 0.37811495E+04</pdfrwt>
<pdfrwt beam="2">  1       -2 0.15446166E+00 0.37811495E+04</pdfrwt>
<totfact> 0.18293532E-01</totfact>
</mgrwt>
<rwgt>
<wgt id='morphing_basis_vector_1'> +5.5871136e-05 </wgt>
<wgt id='morphing_basis_vector_2'> +3.9122421e-05 </wgt>
<wgt id='morphing_basis_vector_3'> +6.1548835e-05 </wgt>
<wgt id='morphing_basis_vector_4'> +4.2411099e-05 </wgt>
<wgt id='morphing_basis_vector_5'> +6.9436531e-05 </wgt>
</rwgt>
</event>
<event>
 4      1 +1.9882500e-09 3.66096900e+03 7.81860800e-03 7.60454000e-02
        2 -1    0    0  501    0 +0.0000000000e+00 +0.0000000000e+00 +1.7704719626e+03 1.7704719626e+03 0.0000000000e+00 0.0000e+00 1.0000e+00
       -2 -1    0    0    0  501 -0.0000000000e+00 -0.0000000000e+00 -1.8925317003e+03 1.8925317003e+03 0.0000000000e+00 0.0000e+00 -1.0000e+00
      -13  1    1    2    0    0 -1.8085459647e+03 -2.8029551752e+02 -9.6689961897e+01 1.8326901081e+03 0.0000000000e+00 0.0000e+00 -1.0000e+00
       13  1    1    2    0    0 +1.8085459647e+03 +2.8029551752e+02 -2.5369775780e+01 1.8303135548e+03 0.0000000000e+00 0.0000e+00 1.0000e+00
<mgrwt>
<rscale>  0 0.36609694E+04</rscale>
<asrwt>0</asrwt>
<pdfrwt beam="1">  1        2 0.27238030E+00 0.36609694E+04</pdfrwt>
<pdfrwt beam="2">  1       -2 0.29115872E+00 0.36609694E+04</pdfrwt>
<totfact> 0.25096602E-01</totfact>
</mgrwt>
<rwgt>
<wgt id='morphing_basis_vector_1'> +5.0299752e-05 </wgt>
<wgt id='morphing_basis_vector_2'> +3.7811509e-05 </wgt>
<wgt id='morphing_basis_vector_3'> +5.5944690e-05 </wgt>
<wgt id='morphing_basis_vector_4'> +3.4794058e-05 </wgt>
<wgt id='morphing_basis_vector_5'> +6.0772119e-05 </wgt>
</rwgt>
</event>
<event>
 4      1 +1.9882500e-09 3.31844900e+03 7.81860800e-03 7.67663500e-02
        2 -1    0    0  501    0 +0.0000000000e+00 +0.0000000000e+00 +2.4952672556e+03 2.4952672556e+03 0.0000000000e+00 0.0000e+00 1.0000e+00
       -2 -1    0    0    0  501 -0.0000000000e+00 -0.0000000000e+00 -1.1032990570e+03 1.1032990570e+03 0.0000000000e+00 0.0000e+00 -1.0000e+00
      -13  1    1    2    0    0 +1.7509297452e+02 -1.3582657421e+03 -3.1982856337e+02 1.4063547511e+03 0.0000000000e+00 0.0000e+00 -1.0000e+00
       13  1    1    2    0    0 -1.7509297452e+02 +1.3582657421e+03 +1.7117967620e+03 2.1922115615e+03 0.0000000000e+00 0.0000e+00 1.0000e+00
<mgrwt>
<rscale>  0 0.33184490E+04</rscale>
<asrwt>0</asrwt>
<pdfrwt beam="1">  1        2 0.38388727E+00 0.33184490E+04</pdfrwt>
<pdfrwt beam="2">  1       -2 0.16973832E+00 0.33184490E+04</pdfrwt>
<totfact> 0.72545904E-01</totfact>
</mgrwt>
<rwgt>
<wgt id='morphing_basis_vector_1'> +3.3021732e-05 </wgt>
<wgt id='morphing_basis_vector_2'> +2.2544313e-05 </wgt>
<wgt id='morphing_basis_vector_3'> +3.6143056e-05 </wgt>
<wgt id='morphing_basis_vector_4'> +2.5578111e-05 </wgt>
<wgt id='morphing_basis_vector_5'> +4.1098978e-05 </wgt>
</rwgt>
</event>
<event>
 4      1 +1.9882500e-09 3.53526200e+03 7.81860800e-03 7.63002200e-02
        2 -1    0    0  501    0 +0.0000000000e+00 +0.0000000000e+00 +1.7875100767e+03 1.7875100767e+03 0.0000000000e+00 0.0000e+00 -1.0000e+00
       -2 -1    0    0    0  501 -0.0000000000e+00 -0.0000000000e+00 -1.7479726675e+03 1.7479726675e+03 0.0000000000e+00 0.0000e+00 1.0000e+00
      -13  1    1    2    0    0 -2.7390492312e+02 -1.1876971947e+03 -1.2604950208e+03 1.7534241446e+03 0.0000000000e+00 0.0000e+00 1.0000e+00
       13  1    1    2    0    0 +2.7390492312e+02 +1.1876971947e+03 +1.3000324300e+03 1.7820585996e+03 0.0000000000e+00 0.0000e+00 -1.0000e+00
<mgrwt>
<rscale>  0 0.35352617E+04</rscale>
<asrwt>0</asrwt>
<pdfrwt beam="1">  1        2 0.27500155E+00 0.35352617E+04</pdfrwt>
<pdfrwt beam="2">  1       -2 0.26891887E+00 0.35352617E+04</pdfrwt>
<totfact> 0.35162748E-01</totfact>
</mgrwt>
<rwgt>
<wgt id='morphing_basis_vector_1'> +4.2371227e-05 </wgt>
<wgt id='morphing_basis_vector_2'> +2.8757535e-05 </wgt>
<wgt id='morphing_basis_vector_3'> +4.6409596e-05 </wgt>
<wgt id='morphing_basis_vector_4'> +3.3188345e-05 </wgt>
<wgt id='morphing_basis_vector_5'> +5.3045529e-05 </wgt>
</rwgt>
</event>
<event>
 4      1 +1.9882500e-09 3.23426200e+03 7.81860800e-03 7.69573300e-02
        2 -1    0    0  501    0 +0.0000000000e+00 +0.0000000000e+00 +2.7824652395e+03 2.7824652395e+03 0.0000000000e+00 0.0000e+00 1.0000e+00
       -2 -1    0    0    0  501 -0.0000000000e+00 -0.0000000000e+00 -9.3985441249e+02 9.3985441249e+02 0.0000000000e+00 0.0000e+00 -1.0000e+00
      -13  1    1    2    0    0 +1.1158300481e+03 -2.3493346418e+02 -3.9839470342e+02 1.2078860744e+03 0.0000000000e+00 0.0000e+00 -1.0000e+00
       13  1    1    2    0    0 -1.1158300481e+03 +2.3493346418e+02 +2.2410055304e+03 2.5144335776e+03 0.0000000000e+00 0.0000e+00 1.0000e+00
<mgrwt>
<rscale>  0 0.32342617E+04</rscale>
<asrwt>0</asrwt>
<pdfrwt beam="1">  1        2 0.42807157E+00 0.32342617E+04</pdfrwt>
<pdfrwt beam="2">  1       -2 0.14459299E+00 0.32342617E+04</pdfrwt>
<totfact> 0.77918409E-01</totfact>
</mgrwt>
<rwgt>
<wgt id='morphing_basis_vector_1'> +2.9761379e-05 </wgt>
<wgt id='morphing_basis_vector_2'> +2.0177678e-05 </wgt>
<wgt id='morphing_basis_vector_3'> +3.2522460e-05 </wgt>
<wgt id='morphing_basis_vector_4'> +2.3184070e-05 </wgt>
<wgt id='morphing_basis_vector_5'> +3.7066171e-05 </wgt>
</rwgt>
</event>
<event>
 4      1 +1.9882500e-09 3.54944700e+03 7.81860800e-03 7.62709200e-02
        2 -1    0    0  501    0 +0.0000000000e+00 +0.0000000000e+00 +2.3839894788e+03 2.3839894788e+03 0.0000000000e+00 0.0000e+00 -1.0000e+00
       -2 -1    0    0    0  501 -0.0000000000e+00 -0.0000000000e+00 -1.3211647582e+03 1.3211647582e+03 0.0000000000e+00 0.0000e+00 1.0000e+00
      -13  1    1    2    0    0 -1.9233695850e+02 -9.9648368292e+02 -9.8836415350e+02 1.4166287220e+03 0.0000000000e+00 0.0000e+00 1.0000e+00
       13  1    1    2    0    0 +1.9233695850e+02 +9.9648368292e+02 +2.0511888741e+03 2.2885255151e+03 0.0000000000e+00 0.0000e+00 -1.0000e+00
<mgrwt>
<rscale>  0 0.35494467E+04</rscale>
<asrwt>0</asrwt>
<pdfrwt beam="1">  1        2 0.36676761E+00 0.35494467E+04</pdfrwt>
<pdfrwt beam="2">  1       -2 0.20325612E+00 0.35494467E+04</pdfrwt>
<totfact> 0.46409778E-01</totfact>
</mgrwt>
<rwgt>
<wgt id='morphing_basis_vector_1'> +4.3023186e-05 </wgt>
<wgt id='morphing_basis_vector_2'> +2.9139194e-05 </wgt>
<wgt id='morphing_basis_vector_3'> +4.7114571e-05 </wgt>
<wgt id='morphing_basis_vector_4'> +3.3785814e-05 </wgt>
<wgt id='morphing_basis_vector_5'> +5.3912334e-05 </wgt>
</rwgt>
</event>
<event>
 4      1 +1.9882500e-09 3.23283600e+03 7.81860800e-03 7.69606200e-02
        2 -1    0    0  501    0 +0.0000000000e+00 +0.0000000000e+00 +2.7515520694e+03 2.7515520694e+03 0.0000000000e+00 0.0000e+00 -1.0000e+00
       -2 -1    0    0    0  501 -0.0000000000e+00 -0.0000000000e+00 -9.4957567573e+02 9.4957567573e+02 0.0000000000e+00 0.0000e+00 1.0000e+00
      -13  1    1    2    0    0 -6.7118048502e+00 +5.4887498210e+02 -8.3960464596e+02 1.0031175184e+03 0.0000000000e+00 0.0000e+00 1.0000e+00
       13  1    1    2    0    0 +6.7118048502e+00 -5.4887498210e+02 +2.6415810397e+03 2.6980102267e+03 0.0000000000e+00 0.0000e+00 -1.0000e+00
<mgrwt>
<rscale>  0 0.32328359E+04</rscale>
<asrwt>0</asrwt>
<pdfrwt beam="1">  1        2 0.42331570E+00 0.32328359E+04</pdfrwt>
<pdfrwt beam="2">  1       -2 0.14608857E+00 0.32328359E+04</pdfrwt>
<totfact> 0.79144957E-01</totfact>
</mgrwt>
<rwgt>
<wgt id='morphing_basis_vector_1'> +2.9675516e-05 </wgt>
<wgt id='morphing_basis_vector_2'> +2.0042677e-05 </wgt>
<wgt id='morphing_basis_vector_3'> +3.2411815e-05 </wgt>
<wgt id='morphing_basis_vector_4'> +2.3213688e-05 </wgt>
<wgt id='morphing_basis_vector_5'> +3.7006194e-05 </wgt>
</rwgt>
</event>
<event>
 4      1 +1.9882500e-09 3.48190800e+03 7.81860800e-03 7.64116800e-02
        2 -1    0    0  501    0 +0.0000000000e+00 +0.0000000000e+00 +3.8102584752e+03 3.8102584752e+03 0.0000000000e+00 0.0000e+00 -1.0000e+00
       -2 -1    0    0    0  501 -0.0000000000e+00 -0.0000000000e+00 -7.9546322430e+02 7.9546322430e+02 0.0000000000e+00 0.0000e+00 1.0000e+00
      -13  1    1    2    0    0 -7.9974492276e+01 -1.4888612278e+03 +3.1852077811e+02 1.5246505046e+03 0.0000000000e+00 0.0000e+00 1.0000e+00
       13  1    1    2    0    0 +7.9974492276e+01 +1.4888612278e+03 +2.6962744728e+03 3.0810711948e+03 0.0000000000e+00 0.0000e+00 -1.0000e+00
<mgrwt>
<rscale>  0 0.34819078E+04</rscale>
<asrwt>0</asrwt>
<pdfrwt beam="1">  1        2 0.58619360E+00 0.34819078E+04</pdfrwt>
<pdfrwt beam="2">  1       -2 0.12237896E+00 0.34819078E+04</pdfrwt>
<totfact> 0.22797891E-01</totfact>
</mgrwt>
<rwgt>
<wgt id='morphing_basis_vector_1'> +4.0009016e-05 </wgt>
<wgt id='morphing_basis_vector_2'> +2.7424235e-05 </wgt>
<wgt id='morphing_basis_vector_3'> +4.3865984e-05 </wgt>
<wgt id='morphing_basis_vector_4'> +3.0961015e-05 </wgt>
<wgt id='morphing_basis_vector_5'> +4.9874174e-05 </wgt>
</rwgt>
</event>
<event>
 4      1 +1.9882500e-09 3.48336300e+03 7.81860800e-03 7.64086100e-02
        2 -1    0    0  501    0 +0.0000000000e+00 +0.0000000000e+00 +9.3074139747e+02 9.3074139747e+02 0.0000000000e+00 0.0000e+00 -1.0000e+00
       -2 -1    0    0    0  501 -0.0000000000e+00 -0.0000000000e+00 -3.2591809496e+03 3.2591809496e+03 0.0000000000e+00 0.0000e+00 1.0000e+00
      -13  1    1    2    0    0 +2.2507699642e+02 +1.5761537857e+03 -3.1493231137e+02 1.6229919197e+03 0.0000000000e+00 0.0000e+00 1.0000e+00
       13  1    1    2    0    0 -2.2507699642e+02 -1.5761537857e+03 -2.0135072407e+03 2.5669304274e+03 0.0000000000e+00 0.0000e+00 -1.0000e+00
<mgrwt>
<rscale>  0 0.34833631E+04</rscale>
<asrwt>0</asrwt>
<pdfrwt beam="1">  1        2 0.14319098E+00 0.34833631E+04</pdfrwt>
<pdfrwt beam="2">  1       -2 0.50141245E+00 0.34833631E+04</pdfrwt>
<totfact> 0.29226755E-02</totfact>
</mgrwt>
<rwgt>
<wgt id='morphing_basis_vector_1'> +4.5545718e-05 </wgt>
<wgt id='morphing_basis_vector_2'> +4.3561999e-05 </wgt>
<wgt id='morphing_basis_vector_3'> +5.2627825e-05 </wgt>
<wgt id='morphing_basis_vector_4'> +1.9517022e-05 </wgt>
<wgt id='morphing_basis_vector_5'> +4.9005679e-05 </wgt>
</rwgt>
</event>
<event>
 4      1 +1.9882500e-09 3.41971200e+03 7.81860800e-03 7.65442200e-02
        2 -1    0    0  501    0 +0.0000000000e+00 +0.0000000000e+00 +2.4086054053e+03 2.4086054053e+03 0.0000000000e+00 0.0000e+00 -1.0000e+00
       -2 -1    0    0    0  501 -0.0000000000e+00 -0.0000000000e+00 -1.2138174058e+03 1.2138174058e+03 0.0000000000e+00 0.0000e+00 1.0000e+00
      -13  1    1    2    0    0 +1.6950945577e+03 -2.2413687610e+02 +6.0261204596e+02 1.8129324799e+03 0.0000000000e+00 0.0000e+00 1.0000e+00
       13  1    1    2    0    0 -1.6950945577e+03 +2.2413687610e+02 +5.9217595356e+02 1.8094903312e+03 0.0000000000e+00 0.0000e+00 -1.0000e+00
<mgrwt>
<rscale>  0 0.34197118E+04</rscale>
<asrwt>0</asrwt>
<pdfrwt beam="1">  1        2 0.37055468E+00 0.34197118E+04</pdfrwt>
<pdfrwt beam="2">  1       -2 0.18674114E+00 0.34197118E+04</pdfrwt>
<totfact> 0.60054519E-01</totfact>
</mgrwt>
<rwgt>
<wgt id='morphing_basis_vector_1'> +3.8469703e-05 </wgt>
<wgt id='morphing_basis_vector_2'> +2.9126564e-05 </wgt>
<wgt id='morphing_basis_vector_3'> +4.2758848e-05 </wgt>
<wgt id='morphing_basis_vector_4'> +2.6221599e-05 </wgt>
<wgt id='morphing_basis_vector_5'> +4.6169725e-05 </wgt>
</rwgt>
</event>
<event>
 4      1 +1.9882500e-09 3.22263800e+03 7.81860800e-03 7.69841700e-02
        2 -1    0    0  501    0 +0.0000000000e+00 +0.0000000000e+00 +1.9232947029e+03 1.9232947029e+03 0.0000000000e+00 0.0000e+00 -1.0000e+00
       -2 -1    0    0    0  501 -0.0000000000e+00 -0.0000000000e+00 -1.3499483612e+03 1.3499483612e+03 0.0000000000e+00 0.0000e+00 1.0000e+00
      -13  1    1    2    0    0 -7.6984941828e+02 -4.9557948055e+02 -1.0600745602e+03 1.4007231067e+03 0.0000000000e+00 0.0000e+00 1.0000e+00
       13  1    1    2    0    0 +7.6984941828e+02 +4.9557948055e+02 +1.6334209019e+03 1.8725199575e+03 0.0000000000e+00 0.0000e+00 -1.0000e+00
<mgrwt>
<rscale>  0 0.32226378E+04</rscale>
<asrwt>0</asrwt>
<pdfrwt beam="1">  1        2 0.29589149E+00 0.32226378E+04</pdfrwt>
<pdfrwt beam="2">  1       -2 0.20768436E+00 0.32226378E+04</pdfrwt>
<totfact> 0.81218986E-01</totfact>
</mgrwt>
<rwgt>
<wgt id='morphing_basis_vector_1'> +2.9315893e-05 </wgt>
<wgt id='morphing_basis_vector_2'> +1.9821635e-05 </wgt>
<wgt id='morphing_basis_vector_3'> +3.2021007e-05 </wgt>
<wgt id='morphing_basis_vector_4'> +2.2898762e-05 </wgt>
<wgt id='morphing_basis_vector_5'> +3.6536167e-05 </wgt>
</rwgt>
</event>
<event>
 4      1 +1.9882500e-09 3.21353900e+03 7.81860800e-03 7.70052600e-02
        2 -1    0    0  501    0 +0.0000000000e+00 +0.0000000000e+00 +2.7075330052e+03 2.7075330052e+03 0.0000000000e+00 0.0000e+00 -1.0000e+00
       -2 -1    0    0    0  501 -0.0000000000e+00 -0.0000000000e+00 -9.5352797362e+02 9.5352797362e+02 0.0000000000e+00 0.0000e+00 1.0000e+00
      -13  1    1    2    0    0 +3.4177201150e+02 +1.0174062482e+03 -4.8525344756e+02 1.1778771117e+03 0.0000000000e+00 0.0000e+00 1.0000e+00
       13  1    1    2    0    0 -3.4177201150e+02 -1.0174062482e+03 +2.2392584792e+03 2.4831838672e+03 0.0000000000e+00 0.0000e+00 -1.0000e+00
<mgrwt>
<rscale>  0 0.32135391E+04</rscale>
<asrwt>0</asrwt>
<pdfrwt beam="1">  1        2 0.41654354E+00 0.32135391E+04</pdfrwt>
<pdfrwt beam="2">  1       -2 0.14669661E+00 0.32135391E+04</pdfrwt>
<totfact> 0.83428282E-01</totfact>
</mgrwt>
<rwgt>
<wgt id='morphing_basis_vector_1'> +2.9003023e-05 </wgt>
<wgt id='morphing_basis_vector_2'> +1.9641277e-05 </wgt>
<wgt id='morphing_basis_vector_3'> +3.1683526e-05 </wgt>
<wgt id='morphing_basis_vector_4'> +2.2609594e-05 </wgt>
<wgt id='morphing_basis_vector_5'> +3.6119699e-05 </wgt>
</rwgt>
</event>
<event>
 4      1 +1.9882500e-09 3.23509000e+03 7.81860800e-03 7.69554200e-02
        2 -1    0    0  501    0 +0.0000000000e+00 +0.0000000000e+00 +2.3742541623e+03 2.3742541623e+03 0.0000000000e+00 0.0000e+00 1.0000e+00
       -2 -1    0    0    0  501 -0.0000000000e+00 -0.0000000000e+00 -1.1020097653e+03 1.1020097653e+03 0.0000000000e+00 0.0000e+00 -1.0000e+00
      -13  1    1    2    0    0 +1.3850336834e+01 -1.0754716161e+03 +1.9343364119e+03 2.2132528964e+03 0.0000000000e+00 0.0000e+00 1.0000e+00
       13  1    1    2    0    0 -1.3850336834e+01 +1.0754716161e+03 -6.6209201487e+02 1.2630110312e+03 0.0000000000e+00 0.0000e+00 -1.0000e+00
<mgrwt>
<rscale>  0 0.32350897E+04</rscale>
<asrwt>0</asrwt>
<pdfrwt beam="1">  1        2 0.36526987E+00 0.32350897E+04</pdfrwt>
<pdfrwt beam="2">  1       -2 0.16953996E+00 0.32350897E+04</pdfrwt>
<totfact> 0.86443019E-01</totfact>
</mgrwt>
<rwgt>
<wgt id='morphing_basis_vector_1'> +3.9020439e-05 </wgt>
<wgt id='morphing_basis_vector_2'> +4.7361431e-05 </wgt>
<wgt id='morphing_basis_vector_3'> +4.7116230e-05 </wgt>
<wgt id='morphing_basis_vector_4'> +3.8954764e-06 </wgt>
<wgt id='morphing_basis_vector_5'> +3.5510234e-05 </wgt>
</rwgt>
</event>
<event>
 4      1 +1.9882500e-09 3.76022800e+03 7.81860800e-03 7.58514900e-02
        2 -1    0    0  501    0 +0.0000000000e+00 +0.0000000000e+00 +3.5319452690e+03 3.5319452690e+03 0.0000000000e+00 0.0000e+00 -1.0000e+00
       -2 -1    0    0    0  501 -0.0000000000e+00 -0.0000000000e+00 -1.0008161493e+03 1.0008161493e+03 0.0000000000e+00 0.0000e+00 1.0000e+00
      -13  1    1    2    0    0 +1.2319363922e+03 +1.0459221491e+03 +2.4238040807e+03 2.9131506377e+03 0.0000000000e+00 0.0000e+00 1.0000e+00
       13  1    1    2    0    0 -1.2319363922e+03 -1.0459221491e+03 +1.0732503897e+02 1.6196107805e+03 0.0000000000e+00 0.0000e+00 -1.0000e+00
<mgrwt>
<rscale>  0 0.37602276E+04</rscale>
<asrwt>0</asrwt>
<pdfrwt beam="1">  1        2 0.54337619E+00 0.37602276E+04</pdfrwt>
<pdfrwt beam="2">  1       -2 0.15397172E+00 0.37602276E+04</pdfrwt>
<totfact> 0.19407912E-01</totfact>
</mgrwt>
<rwgt>
<wgt id='morphing_basis_vector_1'> +6.4371865e-05 </wgt>
<wgt id='morphing_basis_vector_2'> +6.6846382e-05 </wgt>
<wgt id='morphing_basis_vector_3'> +7.5728844e-05 </wgt>
<wgt id='morphing_basis_vector_4'> +2.0969931e-05 </wgt>
<wgt id='morphing_basis_vector_5'> +6.6199557e-05 </wgt>
</rwgt>
</event>
<event>
 4      1 +1.9882500e-09 3.31486700e+03 7.81860800e-03 7.67743600e-02
        2 -1    0    0  501    0 +0.0000000000e+00 +0.0000000000e+00 +1.6758675199e+03 1.6758675199e+03 0.0000000000e+00 0.0000e+00 1.0000e+00
       -2 -1    0    0    0  501 -0.0000000000e+00 -0.0000000000e+00 -1.6392026926e+03 1.6392026926e+03 0.0000000000e+00 0.0000e+00 -1.0000e+00
      -13  1    1    2    0    0 -9.5415020560e+02 -1.3515431074e+03 +1.1841433161e+02 1.6586420168e+03 0.0000000000e+00 0.0000e+00 -1.0000e+00
       13  1    1    2    0    0 +9.5415020560e+02 +1.3515431074e+03 -8.1749504325e+01 1.6564281957e+03 0.0000000000e+00 0.0000e+00 1.0000e+00
<mgrwt>
<rscale>  0 0.33148674E+04</rscale>
<asrwt>0</asrwt>
<pdfrwt beam="1">  1        2 0.25782577E+00 0.33148674E+04</pdfrwt>
<pdfrwt beam="2">  1       -2 0.25218503E+00 0.33148674E+04</pdfrwt>
<totfact> 0.53841975E-01</totfact>
</mgrwt>
<rwgt>
<wgt id='morphing_basis_vector_1'> +3.4271325e-05 </wgt>
<wgt id='morphing_basis_vector_2'> +2.6540431e-05 </wgt>
<wgt id='morphing_basis_vector_3'> +3.8186838e-05 </wgt>
<wgt id='morphing_basis_vector_4'> +2.2552213e-05 </wgt>
<wgt id='morphing_basis_vector_5'> +4.0679632e-05 </wgt>
</rwgt>
</event>
<event>
 4      1 +1.9882500e-09 3.52030100e+03 7.81860800e-03 7.63312700e-02
        2 -1    0    0  501    0 +0.0000000000e+00 +0.0000000000e+00 +2.3354097817e+03 2.3354097817e+03 0.0000000000e+00 0.0000e+00 -1.0000e+00
       -2 -1    0    0    0  501 -0.0000000000e+00 -0.0000000000e+00 -1.3265891842e+03 1.3265891842e+03 0.0000000000e+00 0.0000e+00 1.0000e+00
      -13  1    1    2    0    0 -1.5680494387e+03 +6.9439459858e+02 +9.1681003492e+02 1.9446088401e+03 0.0000000000e+00 0.0000e+00 1.0000e+00
       13  1    1    2    0    0 +1.5680494387e+03 -6.9439459858e+02 +9.2010562555e+01 1.7173901259e+03 0.0000000000e+00 0.0000e+00 -1.0000e+00
<mgrwt>
<rscale>  0 0.35203008E+04</rscale>
<asrwt>0</asrwt>
<pdfrwt beam="1">  1        2 0.35929381E+00 0.35203008E+04</pdfrwt>
<pdfrwt beam="2">  1       -2 0.20409064E+00 0.35203008E+04</pdfrwt>
<totfact> 0.48980700E-01</totfact>
</mgrwt>
<rwgt>
<wgt id='morphing_basis_vector_1'> +4.4950542e-05 </wgt>
<wgt id='morphing_basis_vector_2'> +3.7945024e-05 </wgt>
<wgt id='morphing_basis_vector_3'> +5.0855287e-05 </wgt>
<wgt id='morphing_basis_vector_4'> +2.5714120e-05 </wgt>
<wgt id='morphing_basis_vector_5'> +5.1574632e-05 </wgt>
</rwgt>
</event>
<event>
 4      1 +1.9882500e-09 3.24157600e+03 7.81860800e-03 7.69405000e-02
        2 -1    0    0  501    0 +0.0000000000e+00 +0.0000000000e+00 +1.6566204721e+03 1.6566204721e+03 0.0000000000e+00 0.0000e+00 -1.0000e+00
       -2 -1    0    0    0  501 -0.0000000000e+00 -0.0000000000e+00 -1.5857304146e+03 1.5857304146e+03 0.0000000000e+00 0.0000e+00 1.0000e+00
      -13  1    1    2    0    0 -1.9991858315e+02 +1.5023564798e+03 -5.3907113029e+02 1.6086143465e+03 0.0000000000e+00 0.0000e+00 1.0000e+00
       13  1    1    2    0    0 +1.9991858315e+02 -1.5023564798e+03 +6.0996118775e+02 1.6337365402e+03 0.0000000000e+00 0.0000e+00 -1.0000e+00
<mgrwt>
<rscale>  0 0.32415758E+04</rscale>
<asrwt>0</asrwt>
<pdfrwt beam="1">  1        2 0.25486469E+00 0.32415758E+04</pdfrwt>
<pdfrwt beam="2">  1       -2 0.24395853E+00 0.32415758E+04</pdfrwt>
<totfact> 0.63306493E-01</totfact>
</mgrwt>
<rwgt>
<wgt id='morphing_basis_vector_1'> +3.0265260e-05 </wgt>
<wgt id='morphing_basis_vector_2'> +2.1054463e-05 </wgt>
<wgt id='morphing_basis_vector_3'> +3.3189701e-05 </wgt>
<wgt id='morphing_basis_vector_4'> +2.2902416e-05 </wgt>
<wgt id='morphing_basis_vector_5'> +3.7364415e-05 </wgt>
</rwgt>
</event>
<event>
 4      1 +1.9882500e-09 3.79258500e+03 7.81860800e-03 7.57896000e-02
        2 -1    0    0  501    0 +0.0000000000e+00 +0.0000000000e+00 +2.2103023842e+03 2.2103023842e+03 0.0000000000e+00 0.0000e+00 1.0000e+00
       -2 -1    0    0    0  501 -0.0000000000e+00 -0.0000000000e+00 -1.6268929062e+03 1.6268929062e+03 0.0000000000e+00 0.0000e+00 -1.0000e+00
      -13  1    1    2    0    0 +1.1672802488e+03 +1.8681507379e+02 -1.2084638124e+03 1.6905111171e+03 0.0000000000e+00 0.0000e+00 -1.0000e+00
       13  1    1    2    0    0 -1.1672802488e+03 -1.8681507379e+02 +1.7918732904e+03 2.1466841733e+03 0.0000000000e+00 0.0000e+00 1.0000e+00
<mgrwt>
<rscale>  0 0.37925850E+04</rscale>
<asrwt>0</asrwt>
<pdfrwt beam="1">  1        2 0.34004652E+00 0.37925850E+04</pdfrwt>
<pdfrwt beam="2">  1       -2 0.25029122E+00 0.37925850E+04</pdfrwt>
<totfact> 0.26713270E-01</totfact>
</mgrwt>
<rwgt>
<wgt id='morphing_basis_vector_1'> +5.6000617e-05 </wgt>
<wgt id='morphing_basis_vector_2'> +3.7992536e-05 </wgt>
<wgt id='morphing_basis_vector_3'> +6.1424379e-05 </wgt>
<wgt id='morphing_basis_vector_4'> +4.4080693e-05 </wgt>
<wgt id='morphing_basis_vector_5'> +7.0380784e-05 </wgt>
</rwgt>
</event>
<event>
 4      1 +1.9882500e-09 3.38885800e+03 7.81860800e-03 7.66110600e-02
        2 -1    0    0  501    0 +0.0000000000e+00 +0.0000000000e+00 +1.9030281979e+03 1.9030281979e+03 0.0000000000e+00 0.0000e+00 1.0000e+00
       -2 -1    0    0    0  501 -0.0000000000e+00 -0.0000000000e+00 -1.5086956009e+03 1.5086956009e+03 0.0000000000e+00 0.0000e+00 -1.0000e+00
      -13  1    1    2    0    0 +1.1808934507e+03 +6.6404926835e+02 -8.2735397031e+02 1.5874461770e+03 0.0000000000e+00 0.0000e+00 -1.0000e+00
       13  1    1    2    0    0 -1.1808934507e+03 -6.6404926835e+02 +1.2216865673e+03 1.8242776218e+03 0.0000000000e+00 0.0000e+00 1.0000e+00
<mgrwt>
<rscale>  0 0.33888584E+04</rscale>
<asrwt>0</asrwt>
<pdfrwt beam="1">  1        2 0.29277357E+00 0.33888584E+04</pdfrwt>
<pdfrwt beam="2">  1       -2 0.23210701E+00 0.33888584E+04</pdfrwt>
<totfact> 0.55142555E-01</totfact>
</mgrwt>
<rwgt>
<wgt id='morphing_basis_vector_1'> +3.5870992e-05 </wgt>
<wgt id='morphing_basis_vector_2'> +2.4449063e-05 </wgt>
<wgt id='morphing_basis_vector_3'> +3.9273491e-05 </wgt>
<wgt id='morphing_basis_vector_4'> +2.7880906e-05 </wgt>
<wgt id='morphing_basis_vector_5'> +4.4729994e-05 </wgt>
</rwgt>
</event>
<event>
 4      1 +1.9882500e-09 3.25393700e+03 7.81860800e-03 7.69121600e-02
        2 -1    0    0  501    0 +0.0000000000e+00 +0.0000000000e+00 +3.0663301303e+03 3.0663301303e+03 0.0000000000e+00 0.0000e+00 -1.0000e+00
       -2 -1    0    0    0  501 -0.0000000000e+00 -0.0000000000e+00 -8.6325575936e+02 8.6325575936e+02 0.0000000000e+00 0.0000e+00 1.0000e+00
      -13  1    1    2    0    0 -1.2103322204e+03 +1.8740840543e+02 -1.9182309455e+02 1.2396862885e+03 0.0000000000e+00 0.0000e+00 1.0000e+00
       13  1    1    2    0    0 +1.2103322204e+03 -1.8740840543e+02 +2.3948974655e+03 2.6898996012e+03 0.0000000000e+00 0.0000e+00 -1.0000e+00
<mgrwt>
<rscale>  0 0.32539374E+04</rscale>
<asrwt>0</asrwt>
<pdfrwt beam="1">  1        2 0.47174309E+00 0.32539374E+04</pdfrwt>
<pdfrwt beam="2">  1       -2 0.13280858E+00 0.32539374E+04</pdfrwt>
<totfact> 0.64637999E-01</totfact>
</mgrwt>
<rwgt>
<wgt id='morphing_basis_vector_1'> +3.0503106e-05 </wgt>
<wgt id='morphing_basis_vector_2'> +2.0720541e-05 </wgt>
<wgt id='morphing_basis_vector_3'> +3.3346934e-05 </wgt>
<wgt id='morphing_basis_vector_4'> +2.3722844e-05 </wgt>
<wgt id='morphing_basis_vector_5'> +3.7980501e-05 </wgt>
</rwgt>
</event>
<event>
 4      1 +1.9882500e-09 3.71195700e+03 7.81860800e-03 7.59450200e-02
        2 -1    0    0  501    0 +0.0000000000e+00 +0.0000000000e+00 +1.7465078222e+03 1.7465078222e+03 0.0000000000e+00 0.0000e+00 -1.0000e+00
       -2 -1    0    0    0  501 -0.0000000000e+00 -0.0000000000e+00 -1.9723109188e+03 1.9723109188e+03 0.0000000000e+00 0.0000e+00 1.0000e+00
      -13  1    1    2    0    0 -8.4834735051e+02 +1.6326633168e+03 -3.5701919062e+02 1.8742319589e+03 0.0000000000e+00 0.0000e+00 1.0000e+00
       13  1    1    2    0    0 +8.4834735051e+02 -1.6326633168e+03 +1.3121609401e+02 1.8445867821e+03 0.0000000000e+00 0.0000e+00 -1.0000e+00
<mgrwt>
<rscale>  0 0.37119571E+04</rscale>
<asrwt>0</asrwt>
<pdfrwt beam="1">  1        2 0.26869351E+00 0.37119571E+04</pdfrwt>
<pdfrwt beam="2">  1       -2 0.30343245E+00 0.37119571E+04</pdfrwt>
<totfact> 0.21296856E-01</totfact>
</mgrwt>
<rwgt>
<wgt id='morphing_basis_vector_1'> +5.2543876e-05 </wgt>
<wgt id='morphing_basis_vector_2'> +3.8193029e-05 </wgt>
<wgt id='morphing_basis_vector_3'> +5.8170890e-05 </wgt>
<wgt id='morphing_basis_vector_4'> +3.8048587e-05 </wgt>
<wgt id='morphing_basis_vector_5'> +6.4354698e-05 </wgt>
</rwgt>
</event>
<event>
 4      1 +1.9882500e-09 3.28242600e+03 7.81860800e-03 7.68473500e-02
        2 -1    0    0  501    0 +0.0000000000e+00 +0.0000000000e+00 +1.7061725873e+03 1.7061725873e+03 0.0000000000e+00 0.0000e+00 -1.0000e+00
       -2 -1    0    0    0  501 -0.0000000000e+00 -0.0000000000e+00 -1.5787266443e+03 1.5787266443e+03 0.0000000000e+00 0.0000e+00 1.0000e+00
      -13  1    1    2    0    0 +4.1555322937e+02 +1.5872634220e+03 +1.0235861662e+02 1.6439485830e+03 0.0000000000e+00 0.0000e+00 1.0000e+00
       13  1    1    2    0    0 -4.1555322937e+02 -1.5872634220e+03 +2.5087326352e+01 1.6409506486e+03 0.0000000000e+00 0.0000e+00 -1.0000e+00
<mgrwt>
<rscale>  0 0.32824260E+04</rscale>
<asrwt>0</asrwt>
<pdfrwt beam="1">  1        2 0.26248809E+00 0.32824260E+04</pdfrwt>
<pdfrwt beam="2">  1       -2 0.24288102E+00 0.32824260E+04</pdfrwt>
<totfact> 0.60239841E-01</totfact>
</mgrwt>
<rwgt>
<wgt id='morphing_basis_vector_1'> +3.2783003e-05 </wgt>
<wgt id='morphing_basis_vector_2'> +2.5002633e-05 </wgt>
<wgt id='morphing_basis_vector_3'> +3.6434944e-05 </wgt>
<wgt id='morphing_basis_vector_4'> +2.2044894e-05 </wgt>
<wgt id='morphing_basis_vector_5'> +3.9129717e-05 </wgt>
</rwgt>
</event>
<event>
 4      1 +1.9882500e-09 3.24507900e+03 7.81860800e-03 7.69324600e-02
        2 -1    0    0  501    0 +0.0000000000e+00 +0.0000000000e+00 +3.9888398986e+03 3.9888398986e+03 0.0000000000e+00 0.0000e+00 -1.0000e+00
       -2 -1    0    0    0  501 -0.0000000000e+00 -0.0000000000e+00 -6.5999988054e+02 6.5999988054e+02 0.0000000000e+00 0.0000e+00 1.0000e+00
      -13  1    1    2    0    0 -2.1464967138e+02 -1.0972095805e+03 -2.0121989505e+01 1.1181897153e+03 0.0000000000e+00 0.0000e+00 1.0000e+00
       13  1    1    2    0    0 +2.1464967138e+02 +1.0972095805e+03 +3.3489620076e+03 3.5306500638e+03 0.0000000000e+00 0.0000e+00 -1.0000e+00
<mgrwt>
<rscale>  0 0.32450786E+04</rscale>
<asrwt>0</asrwt>
<pdfrwt beam="1">  1        2 0.61366766E+00 0.32450786E+04</pdfrwt>
<pdfrwt beam="2">  1       -2 0.10153845E+00 0.32450786E+04</pdfrwt>
<totfact> 0.26574058E-01</totfact>
</mgrwt>
<rwgt>
<wgt id='morphing_basis_vector_1'> +3.0154112e-05 </wgt>
<wgt id='morphing_basis_vector_2'> +2.0435529e-05 </wgt>
<wgt id='morphing_basis_vector_3'> +3.2952751e-05 </wgt>
<wgt id='morphing_basis_vector_4'> +2.3507051e-05 </wgt>
<wgt id='morphing_basis_vector_5'> +3.7569076e-05 </wgt>
</rwgt>
</event>
<event>
 4      1 +1.9882500e-09 3.34572400e+03 7.81860800e-03 7.67057300e-02
        2 -1    0    0  501    0 +0.0000000000e+00 +0.0000000000e+00 +4.2088400953e+03 4.2088400953e+03 0.0000000000e+00 0.0000e+00 1.0000e+00
       -2 -1    0    0    0  501 -0.0000000000e+00 -0.0000000000e+00 -6.6490217248e+02 6.6490217248e+02 0.0000000000e+00 0.0000e+00 -1.0000e+00
      -13  1    1    2    0    0 +9.9805682203e+02 +1.1411910832e+03 +7.4188754142e+02 1.6878482256e+03 0.0000000000e+00 0.0000e+00 -1.0000e+00
       13  1    1    2    0    0 -9.9805682203e+02 -1.1411910832e+03 +2.8020503814e+03 3.1858940422e+03 0.0000000000e+00 0.0000e+00 1.0000e+00
<mgrwt>
<rscale>  0 0.33457238E+04</rscale>
<asrwt>0</asrwt>
<pdfrwt beam="1">  1        2 0.64751384E+00 0.33457238E+04</pdfrwt>
<pdfrwt beam="2">  1       -2 0.10229264E+00 0.33457238E+04</pdfrwt>
<totfact> 0.16563544E-01</totfact>
</mgrwt>
<rwgt>
<wgt id='morphing_basis_vector_1'> +3.4230404e-05 </wgt>
<wgt id='morphing_basis_vector_2'> +2.3639029e-05 </wgt>
<wgt id='morphing_basis_vector_3'> +3.7531949e-05 </wgt>
<wgt id='morphing_basis_vector_4'> +2.6188472e-05 </wgt>
<wgt id='morphing_basis_vector_5'> +4.2456454e-05 </wgt>
</rwgt>
</event>
<event>
 4      1 +1.9882500e-09 3.34728400e+03 7.81860800e-03 7.67022800e-02
        2 -1    0    0  501    0 +0.0000000000e+00 +0.0000000000e+00 +2.2702213017e+03 2.2702213017e+03 0.0000000000e+00 0.0000e+00 1.0000e+00
       -2 -1    0    0    0  501 -0.0000000000e+00 -0.0000000000e+00 -1.2338349056e+03 1.2338349056e+03 0.0000000000e+00 0.0000e+00 -1.0000e+00
      -13  1    1    2    0    0 +6.2438150607e+02 +1.4322886050e+03 -1.0971211872e+02 1.5663140369e+03 0.0000000000e+00 0.0000e+00 -1.0000e+00
       13  1    1    2    0    0 -6.2438150607e+02 -1.4322886050e+03 +1.1460985149e+03 1.9377421704e+03 0.0000000000e+00 0.0000e+00 1.0000e+00
<mgrwt>
<rscale>  0 0.33472844E+04</rscale>
<asrwt>0</asrwt>
<pdfrwt beam="1">  1        2 0.34926481E+00 0.33472844E+04</pdfrwt>
<pdfrwt beam="2">  1       -2 0.18982076E+00 0.33472844E+04</pdfrwt>
<totfact> 0.69012174E-01</totfact>
</mgrwt>
<rwgt>
<wgt id='morphing_basis_vector_1'> +3.4371728e-05 </wgt>
<wgt id='morphing_basis_vector_2'> +2.3912190e-05 </wgt>
<wgt id='morphing_basis_vector_3'> +3.7725266e-05 </wgt>
<wgt id='morphing_basis_vector_4'> +2.6074406e-05 </wgt>
<wgt id='morphing_basis_vector_5'> +4.2522786e-05 </wgt>
</rwgt>
</event>
<event>
 4      1 +1.9882500e-09 3.43834500e+03 7.81860800e-03 7.65042100e-02
        2 -1    0    0  501    0 +0.0000000000e+00 +0.0000000000e+00 +1.9796019763e+03 1.9796019763e+03 0.0000000000e+00 0.0000e+00 -1.0000e+00
       -2 -1    0    0    0  501 -0.0000000000e+00 -0.0000000000e+00 -1.4930044579e+03 1.4930044579e+03 0.0000000000e+00 0.0000e+00 1.0000e+00
      -13  1    1    2    0    0 -4.8142235101e+02 +1.4014020922e+02 -1.4175163694e+03 1.5035821946e+03 0.0000000000e+00 0.0000e+00 1.0000e+00
       13  1    1    2    0    0 +4.8142235101e+02 -1.4014020922e+02 +1.9041138879e+03 1.9690242396e+03 0.0000000000e+00 0.0000e+00 -1.0000e+00
<mgrwt>
<rscale>  0 0.34383453E+04</rscale>
<asrwt>0</asrwt>
<pdfrwt beam="1">  1        2 0.30455415E+00 0.34383453E+04</pdfrwt>
<pdfrwt beam="2">  1       -2 0.22969299E+00 0.34383453E+04</pdfrwt>
<totfact> 0.51725186E-01</totfact>
</mgrwt>
<rwgt>
<wgt id='morphing_basis_vector_1'> +3.7902253e-05 </wgt>
<wgt id='morphing_basis_vector_2'> +2.5625337e-05 </wgt>
<wgt id='morphing_basis_vector_3'> +4.1466660e-05 </wgt>
<wgt id='morphing_basis_vector_4'> +2.9756132e-05 </wgt>
<wgt id='morphing_basis_vector_5'> +4.7435783e-05 </wgt>
</rwgt>
</event>
<event>
 4      1 +1.9882500e-09 3.34488500e+03 7.81860800e-03 7.67075800e-02
        2 -1    0    0  501    0 +0.0000000000e+00 +0.0000000000e+00 +4.0391057007e+03 4.0391057007e+03 0.0000000000e+00 0.0000e+00 -1.0000e+00
       -2 -1    0    0    0  501 -0.0000000000e+00 -0.0000000000e+00 -6.9249569930e+02 6.9249569930e+02 0.0000000000e+00 0.0000e+00 1.0000e+00
      -13  1    1    2    0    0 +1.2587388452e+03 -9.5546021482e+02 +8.9885000104e+02 1.8180371357e+03 0.0000000000e+00 0.0000e+00 1.0000e+00
       13  1    1    2    0    0 -1.2587388452e+03 +9.5546021482e+02 +2.4477600004e+03 2.9135642643e+03 0.0000000000e+00 0.0000e+00 -1.0000e+00
<mgrwt>
<rscale>  0 0.33448846E+04</rscale>
<asrwt>0</asrwt>
<pdfrwt beam="1">  1        2 0.62140086E+00 0.33448846E+04</pdfrwt>
<pdfrwt beam="2">  1       -2 0.10653780E+00 0.33448846E+04</pdfrwt>
<totfact> 0.21207039E-01</totfact>
</mgrwt>
<rwgt>
<wgt id='morphing_basis_vector_1'> +3.4318318e-05 </wgt>
<wgt id='morphing_basis_vector_2'> +2.3974365e-05 </wgt>
<wgt id='morphing_basis_vector_3'> +3.7687399e-05 </wgt>
<wgt id='morphing_basis_vector_4'> +2.5906231e-05 </wgt>
<wgt id='morphing_basis_vector_5'> +4.2392422e-05 </wgt>
</rwgt>
</event>
<event>
 4      1 +1.9882500e-09 3.28725200e+03 7.81860800e-03 7.68364300e-02
        2 -1    0    0  501    0 +0.0000000000e+00 +0.0000000000e+00 +2.2345630209e+03 2.2345630209e+03 0.0000000000e+00 0.0000e+00 1.0000e+00
       -2 -1    0    0    0  501 -0.0000000000e+00 -0.0000000000e+00 -1.2089637837e+03 1.2089637837e+03 0.0000000000e+00 0.0000e+00 -1.0000e+00
      -13  1    1    2    0    0 -1.4951235313e+03 +4.4060995377e+02 -3.3504436702e+01 1.5590555001e+03 0.0000000000e+00 0.0000e+00 -1.0000e+00
       13  1    1    2    0    0 +1.4951235313e+03 -4.4060995377e+02 +1.0591036739e+03 1.8844713044e+03 0.0000000000e+00 0.0000e+00 1.0000e+00
<mgrwt>
<rscale>  0 0.32872516E+04</rscale>
<asrwt>0</asrwt>
<pdfrwt beam="1">  1        2 0.34377893E+00 0.32872516E+04</pdfrwt>
<pdfrwt beam="2">  1       -2 0.18599443E+00 0.32872516E+04</pdfrwt>
<totfact> 0.77666909E-01</totfact>
</mgrwt>
<rwgt>
<wgt id='morphing_basis_vector_1'> +3.2044449e-05 </wgt>
<wgt id='morphing_basis_vector_2'> +2.2411602e-05 </wgt>
<wgt id='morphing_basis_vector_3'> +3.5179757e-05 </wgt>
<wgt id='morphing_basis_vector_4'> +2.4124411e-05 </wgt>
<wgt id='morphing_basis_vector_5'> +3.9523011e-05 </wgt>
</rwgt>
</event>
<event>
 4      1 +1.9882500e-09 3.29847900e+03 7.81860800e-03 7.68111200e-02
        2 -1    0    0  501    0 +0.0000000000e+00 +0.0000000000e+00 +2.1144665801e+03 2.1144665801e+03 0.0000000000e+00 0.0000e+00 1.0000e+00
       -2 -1    0    0    0  501 -0.0000000000e+00 -0.0000000000e+00 -1.2863722297e+03 1.2863722297e+03 0.0000000000e+00 0.0000e+00 -1.0000e+00
      -13  1    1    2    0    0 -1.5834411537e+03 -4.4115445987e+02 +2.7538215417e+02 1.6666548759e+03 0.0000000000e+00 0.0000e+00 -1.0000e+00
       13  1    1    2    0    0 +1.5834411537e+03 +4.4115445987e+02 +5.5271219621e+02 1.7341839339e+03 0.0000000000e+00 0.0000e+00 1.0000e+00
<mgrwt>
<rscale>  0 0.32984791E+04</rscale>
<asrwt>0</asrwt>
<pdfrwt beam="1">  1        2 0.32530255E+00 0.32984791E+04</pdfrwt>
<pdfrwt beam="2">  1       -2 0.19790342E+00 0.32984791E+04</pdfrwt>
<totfact> 0.74160187E-01</totfact>
</mgrwt>
<rwgt>
<wgt id='morphing_basis_vector_1'> +3.3015039e-05 </wgt>
<wgt id='morphing_basis_vector_2'> +2.4289528e-05 </wgt>
<wgt id='morphing_basis_vector_3'> +3.6506612e-05 </wgt>
<wgt id='morphing_basis_vector_4'> +2.3339499e-05 </wgt>
<wgt id='morphing_basis_vector_5'> +3.9977314e-05 </wgt>
</rwgt>
</event>
<event>
 4      1 +1.9882500e-09 3.35651900e+03 7.81860800e-03 7.66819000e-02
        2 -1    0    0  501    0 +0.0000000000e+00 +0.0000000000e+00 +2.2401155800e+03 2.2401155800e+03 0.0000000000e+00 0.0000e+00 1.0000e+00
       -2 -1    0    0    0  501 -0.0000000000e+00 -0.0000000000e+00 -1.2573256563e+03 1.2573256563e+03 0.0000000000e+00 0.0000e+00 -1.0000e+00
      -13  1    1    2    0    0 +3.6996813300e+01 +3.7993523739e+02 -1.2114883038e+03 1.2702060695e+03 0.0000000000e+00 0.0000e+00 -1.0000e+00
       13  1    1    2    0    0 -3.6996813300e+01 -3.7993523739e+02 +2.1942782274e+03 2.2272351668e+03 0.0000000000e+00 0.0000e+00 1.0000e+00
<mgrwt>
<rscale>  0 0.33565189E+04</rscale>
<asrwt>0</asrwt>
<pdfrwt beam="1">  1        2 0.34463317E+00 0.33565189E+04</pdfrwt>
<pdfrwt beam="2">  1       -2 0.19343472E+00 0.33565189E+04</pdfrwt>
<totfact> 0.67470853E-01</totfact>
</mgrwt>
<rwgt>
<wgt id='morphing_basis_vector_1'> +3.4444085e-05 </wgt>
<wgt id='morphing_basis_vector_2'> +2.3276733e-05 </wgt>
<wgt id='morphing_basis_vector_3'> +3.7659144e-05 </wgt>
<wgt id='morphing_basis_vector_4'> +2.7006518e-05 </wgt>
<wgt id='morphing_basis_vector_5'> +4.3050355e-05 </wgt>
</rwgt>
</event>
<event>
 4      1 +1.9882500e-09 3.56830700e+03 7.81860800e-03 7.62321900e-02
        2 -1    0    0  501    0 +0.0000000000e+00 +0.0000000000e+00 +1.5186696140e+03 1.5186696140e+03 0.0000000000e+00 0.0000e+00 -1.0000e+00
       -2 -1    0    0    0  501 -0.0000000000e+00 -0.0000000000e+00 -2.0960478932e+03 2.0960478932e+03 0.0000000000e+00 0.0000e+00 1.0000e+00
      -13  1    1    2    0    0 -1.1768210755e+03 -2.9041396811e+02 -1.6148981213e+03 2.0191939131e+03 0.0000000000e+00 0.0000e+00 1.0000e+00
       13  1    1    2    0    0 +1.1768210755e+03 +2.9041396811e+02 +1.0375198421e+03 1.5955235941e+03 0.0000000000e+00 0.0000e+00 -1.0000e+00
<mgrwt>
<rscale>  0 0.35683073E+04</rscale>
<asrwt>0</asrwt>
<pdfrwt beam="1">  1        2 0.23364148E+00 0.35683073E+04</pdfrwt>
<pdfrwt beam="2">  1       -2 0.32246890E+00 0.35683073E+04</pdfrwt>
<totfact> 0.21532548E-01</totfact>
</mgrwt>
<rwgt>
<wgt id='morphing_basis_vector_1'> +4.3963636e-05 </wgt>
<wgt id='morphing_basis_vector_2'> +2.9834552e-05 </wgt>
<wgt id='morphing_basis_vector_3'> +4.8162862e-05 </wgt>
<wgt id='morphing_basis_vector_4'> +3.4462147e-05 </wgt>
<wgt id='morphing_basis_vector_5'> +5.5070410e-05 </wgt>
</rwgt>
</event>
<event>
 4      1 +1.9882500e-09 3.78510000e+03 7.81860800e-03 7.58038600e-02
        2 -1    0    0  501    0 +0.0000000000e+00 +0.0000000000e+00 +2.5885556519e+03 2.5885556519e+03 0.0000000000e+00 0.0000e+00 -1.0000e+00
       -2 -1    0    0    0  501 -0.0000000000e+00 -0.0000000000e+00 -1.3836847270e+03 1.3836847270e+03 0.0000000000e+00 0.0000e+00 1.0000e+00
      -13  1    1    2    0    0 +6.3609653648e+02 -5.3326862597e+02 -1.1824637676e+03 1.4447196243e+03 0.0000000000e+00 0.0000e+00 1.0000e+00
       13  1    1    2    0    0 -6.3609653648e+02 +5.3326862597e+02 +2.3873346925e+03 2.5275207547e+03 0.0000000000e+00 0.0000e+00 -1.0000e+00
<mgrwt>
<rscale>  0 0.37850997E+04</rscale>
<asrwt>0</asrwt>
<pdfrwt beam="1">  1        2 0.39823933E+00 0.37850997E+04</pdfrwt>
<pdfrwt beam="2">  1       -2 0.21287457E+00 0.37850997E+04</pdfrwt>
<totfact> 0.29302204E-01</totfact>
</mgrwt>
<rwgt>
<wgt id='morphing_basis_vector_1'> +5.5534877e-05 </wgt>
<wgt id='morphing_basis_vector_2'> +3.7613460e-05 </wgt>
<wgt id='morphing_basis_vector_3'> +6.0897197e-05 </wgt>
<wgt id='morphing_basis_vector_4'> +4.3789772e-05 </wgt>
<wgt id='morphing_basis_vector_5'> +6.9828553e-05 </wgt>
</rwgt>
</event>
<event>
 4      1 +1.9882500e-09 3.33259600e+03 7.81860800e-03 7.67348300e-02
        2 -1    0    0  501    0 +0.0000000000e+00 +0.0000000000e+00 +3.1730127050e+03 3.1730127050e+03 0.0000000000e+00 0.0000e+00 1.0000e+00
       -2 -1    0    0    0  501 -0.0000000000e+00 -0.0000000000e+00 -8.7505122801e+02 8.7505122801e+02 0.0000000000e+00 0.0000e+00 -1.0000e+00
      -13  1    1    2    0    0 +1.2439764743e+03 +1.0896890992e+03 +1.3968748984e+03 2.1647538620e+03 0.0000000000e+00 0.0000e+00 -1.0000e+00
       13  1    1    2    0    0 -1.2439764743e+03 -1.0896890992e+03 +9.0108657865e+02 1.8833100710e+03 0.0000000000e+00 0.0000e+00 1.0000e+00
<mgrwt>
<rscale>  0 0.33325958E+04</rscale>
<asrwt>0</asrwt>
<pdfrwt beam="1">  1        2 0.48815580E+00 0.33325958E+04</pdfrwt>
<pdfrwt beam="2">  1       -2 0.13462327E+00 0.33325958E+04</pdfrwt>
<totfact> 0.52516516E-01</totfact>
</mgrwt>
<rwgt>
<wgt id='morphing_basis_vector_1'> +3.5373014e-05 </wgt>
<wgt id='morphing_basis_vector_2'> +2.8193848e-05 </wgt>
<wgt id='morphing_basis_vector_3'> +3.9593224e-05 </wgt>
<wgt id='morphing_basis_vector_4'> +2.2270157e-05 </wgt>
<wgt id='morphing_basis_vector_5'> +4.1499385e-05 </wgt>
</rwgt>
</event>
<event>
 4      1 +1.9882500e-09 3.25893000e+03 7.81860800e-03 7.69007600e-02
        2 -1    0    0  501    0 +0.0000000000e+00 +0.0000000000e+00 +7.0475703122e+02 7.0475703122e+02 0.0000000000e+00 0.0000e+00 1.0000e+00
       -2 -1    0    0    0  501 -0.0000000000e+00 -0.0000000000e+00 -3.7674765502e+03 3.7674765502e+03 0.0000000000e+00 0.0000e+00 -1.0000e+00
      -13  1    1    2    0    0 -1.1805197350e+03 -9.1499630341e+02 -2.4252648057e+03 2.8482897426e+03 0.0000000000e+00 0.0000e+00 -1.0000e+00
       13  1    1    2    0    0 +1.1805197350e+03 +9.1499630341e+02 -6.3745471326e+02 1.6239438388e+03 0.0000000000e+00 0.0000e+00 1.0000e+00
<mgrwt>
<rscale>  0 0.32589296E+04</rscale>
<asrwt>0</asrwt>
<pdfrwt beam="1">  1        2 0.10842416E+00 0.32589296E+04</pdfrwt>
<pdfrwt beam="2">  1       -2 0.57961177E+00 0.32589296E+04</pdfrwt>
<totfact> 0.11391087E-02</totfact>
</mgrwt>
<rwgt>
<wgt id='morphing_basis_vector_1'> +3.0861685e-05 </wgt>
<wgt id='morphing_basis_vector_2'> +2.1355005e-05 </wgt>
<wgt id='morphing_basis_vector_3'> +3.3824147e-05 </wgt>
<wgt id='morphing_basis_vector_4'> +2.3508889e-05 </wgt>
<wgt id='morphing_basis_vector_5'> +3.8186071e-05 </wgt>
</rwgt>
</event>
<event>
 4      1 +1.9882500e-09 3.30513600e+03 7.81860800e-03 7.67961600e-02
        2 -1    0    0  501    0 +0.0000000000e+00 +0.0000000000e+00 +2.0904731618e+03 2.0904731618e+03 0.0000000000e+00 0.0000e+00 -1.0000e+00
       -2 -1    0    0    0  501 -0.0000000000e+00 -0.0000000000e+00 -1.3063935468e+03 1.3063935468e+03 0.0000000000e+00 0.0000e+00 1.0000e+00
      -13  1    1    2    0    0 +1.6278494906e+02 +1.6429711112e+03 +3.1844489230e+02 1.6814458544e+03 0.0000000000e+00 0.0000e+00 1.0000e+00
       13  1    1    2    0    0 -1.6278494906e+02 -1.6429711112e+03 +4.6563472265e+02 1.7154208542e+03 0.0000000000e+00 0.0000e+00 -1.0000e+00
<mgrwt>
<rscale>  0 0.33051358E+04</rscale>
<asrwt>0</asrwt>
<pdfrwt beam="1">  1        2 0.32161126E+00 0.33051358E+04</pdfrwt>
<pdfrwt beam="2">  1       -2 0.20098362E+00 0.33051358E+04</pdfrwt>
<totfact> 0.72621108E-01</totfact>
</mgrwt>
<rwgt>
<wgt id='morphing_basis_vector_1'> +3.3414425e-05 </wgt>
<wgt id='morphing_basis_vector_2'> +2.4880049e-05 </wgt>
<wgt id='morphing_basis_vector_3'> +3.7014204e-05 </wgt>
<wgt id='morphing_basis_vector_4'> +2.3248876e-05 </wgt>
<wgt id='morphing_basis_vector_5'> +4.0280147e-05 </wgt>
</rwgt>
</event>
<event>
 4      1 +1.9882500e-09 3.36958100e+03 7.81860800e-03 7.66531800e-02
        2 -1    0    0  501    0 +0.0000000000e+00 +0.0000000000e+00 +2.0412694034e+03 2.0412694034e+03 0.0000000000e+00 0.0000e+00 -1.0000e+00
       -2 -1    0    0    0  501 -0.0000000000e+00 -0.0000000000e+00 -1.3905659635e+03 1.3905659635e+03 0.0000000000e+00 0.0000e+00 1.0000e+00
      -13  1    1    2    0    0 +4.2913154734e+02 +1.4468141246e+03 -4.3755000212e+02 1.5712654138e+03 0.0000000000e+00 0.0000e+00 1.0000e+00
       13  1    1    2    0    0 -4.2913154734e+02 -1.4468141246e+03 +1.0882534420e+03 1.8605699531e+03 0.0000000000e+00 0.0000e+00 -1.0000e+00
<mgrwt>
<rscale>  0 0.33695814E+04</rscale>
<asrwt>0</asrwt>
<pdfrwt beam="1">  1        2 0.31404145E+00 0.33695814E+04</pdfrwt>
<pdfrwt beam="2">  1       -2 0.21393322E+00 0.33695814E+04</pdfrwt>
<totfact> 0.62096657E-01</totfact>
</mgrwt>
<rwgt>
<wgt id='morphing_basis_vector_1'> +3.5186777e-05 </wgt>
<wgt id='morphing_basis_vector_2'> +2.4250109e-05 </wgt>
<wgt id='morphing_basis_vector_3'> +3.8576816e-05 </wgt>
<wgt id='morphing_basis_vector_4'> +2.6997441e-05 </wgt>
<wgt id='morphing_basis_vector_5'> +4.3693240e-05 </wgt>
</rwgt>
</event>
<event>
 4      1 +1.9882500e-09 3.54665900e+03 7.81860800e-03 7.62766700e-02
        2 -1    0    0  501    0 +0.0000000000e+00 +0.0000000000e+00 +1.6909526574e+03 1.6909526574e+03 0.0000000000e+00 0.0000e+00 -1.0000e+00
       -2 -1    0    0    0  501 -0.0000000000e+00 -0.0000000000e+00 -1.8597193973e+03 1.8597193973e+03 0.0000000000e+00 0.0000e+00 1.0000e+00
      -13  1    1    2    0    0 +1.6765171487e+03 +5.7236630846e+02 -1.6437694683e+02 1.7791381964e+03 0.0000000000e+00 0.0000e+00 1.0000e+00
       13  1    1    2    0    0 -1.6765171487e+03 -5.7236630846e+02 -4.3897930370e+00 1.7715338584e+03 0.0000000000e+00 0.0000e+00 -1.0000e+00
<mgrwt>
<rscale>  0 0.35466590E+04</rscale>
<asrwt>0</asrwt>
<pdfrwt beam="1">  1        2 0.26014656E+00 0.35466590E+04</pdfrwt>
<pdfrwt beam="2">  1       -2 0.28611068E+00 0.35466590E+04</pdfrwt>
<totfact> 0.30351832E-01</totfact>
</mgrwt>
<rwgt>
<wgt id='morphing_basis_vector_1'> +4.4209905e-05 </wgt>
<wgt id='morphing_basis_vector_2'> +3.2933124e-05 </wgt>
<wgt id='morphing_basis_vector_3'> +4.9067840e-05 </wgt>
<wgt id='morphing_basis_vector_4'> +3.0900662e-05 </wgt>
<wgt id='morphing_basis_vector_5'> +5.3511708e-05 </wgt>
</rwgt>
</event>
<event>
 4      1 +1.9882500e-09 3.25601000e+03 7.81860800e-03 7.69074200e-02
        2 -1    0    0  501    0 +0.0000000000e+00 +0.0000000000e+00 +2.2308492595e+03 2.2308492595e+03 0.0000000000e+00 0.0000e+00 1.0000e+00
       -2 -1    0    0    0  501 -0.0000000000e+00 -0.0000000000e+00 -1.1880681575e+03 1.1880681575e+03 0.0000000000e+00 0.0000e+00 -1.0000e+00
      -13  1    1    2    0    0 +1.6096922352e+03 +2.3658448786e+02 +4.6089137345e+02 1.6910062596e+03 0.0000000000e+00 0.0000e+00 -1.0000e+00
       13  1    1    2    0    0 -1.6096922352e+03 -2.3658448786e+02 +5.8188972849e+02 1.7279111574e+03 0.0000000000e+00 0.0000e+00 1.0000e+00
<mgrwt>
<rscale>  0 0.32560104E+04</rscale>
<asrwt>0</asrwt>
<pdfrwt beam="1">  1        2 0.34320758E+00 0.32560104E+04</pdfrwt>
<pdfrwt beam="2">  1       -2 0.18277972E+00 0.32560104E+04</pdfrwt>
<totfact> 0.82730408E-01</totfact>
</mgrwt>
<rwgt>
<wgt id='morphing_basis_vector_1'> +3.1514203e-05 </wgt>
<wgt id='morphing_basis_vector_2'> +2.3521816e-05 </wgt>
<wgt id='morphing_basis_vector_3'> +3.4906291e-05 </wgt>
<wgt id='morphing_basis_vector_4'> +2.1828729e-05 </wgt>
<wgt id='morphing_basis_vector_5'> +3.7916668e-05 </wgt>
</rwgt>
</event>
<event>
 4      1 +1.9882500e-09 3.37583000e+03 7.81860800e-03 7.66395000e-02
        2 -1    0    0  501    0 +0.0000000000e+00 +0.0000000000e+00 +1.6374667541e+03 1.6374667541e+03 0.0000000000e+00 0.0000e+00 1.0000e+00
       -2 -1    0    0    0  501 -0.0000000000e+00 -0.0000000000e+00 -1.7399174588e+03 1.7399174588e+03 0.0000000000e+00 0.0000e+00 -1.0000e+00
      -13  1    1    2    0    0 -9.7282186027e+02 +8.7011771193e+02 -1.1220310682e+03 1.7211742859e+03 0.0000000000e+00 0.0000e+00 -1.0000e+00
       13  1    1    2    0    0 +9.7282186027e+02 -8.7011771193e+02 +1.0195803635e+03 1.6562099269e+03 0.0000000000e+00 0.0000e+00 1.0000e+00
<mgrwt>
<rscale>  0 0.33758300E+04</rscale>
<asrwt>0</asrwt>
<pdfrwt beam="1">  1        2 0.25191796E+00 0.33758300E+04</pdfrwt>
<pdfrwt beam="2">  1       -2 0.26767961E+00 0.33758300E+04</pdfrwt>
<totfact> 0.44031677E-01</totfact>
</mgrwt>
<rwgt>
<wgt id='morphing_basis_vector_1'> +3.5309206e-05 </wgt>
<wgt id='morphing_basis_vector_2'> +2.4025633e-05 </wgt>
<wgt id='morphing_basis_vector_3'> +3.8645995e-05 </wgt>
<wgt id='morphing_basis_vector_4'> +2.7487903e-05 </wgt>
<wgt id='morphing_basis_vector_5'> +4.4044369e-05 </wgt>
</rwgt>
</event>
<event>
 4      1 +1.9882500e-09 3.61269700e+03 7.81860800e-03 7.61419900e-02
        2 -1    0    0  501    0 +0.0000000000e+00 +0.0000000000e+00 +3.7885449712e+03 3.7885449712e+03 0.0000000000e+00 0.0000e+00 -1.0000e+00
       -2 -1    0    0    0  501 -0.0000000000e+00 -0.0000000000e+00 -8.6125275214e+02 8.6125275214e+02 0.0000000000e+00 0.0000e+00 1.0000e+00
      -13  1    1    2    0    0 +1.2975839121e+03 +8.9297544592e+01 -1.4966384071e+02 1.3092353973e+03 0.0000000000e+00 0.0000e+00 1.0000e+00
       13  1    1    2    0    0 -1.2975839121e+03 -8.9297544592e+01 +3.0769560597e+03 3.3405623260e+03 0.0000000000e+00 0.0000e+00 -1.0000e+00
<mgrwt>
<rscale>  0 0.36126969E+04</rscale>
<asrwt>0</asrwt>
<pdfrwt beam="1">  1        2 0.58285306E+00 0.36126969E+04</pdfrwt>
<pdfrwt beam="2">  1       -2 0.13250043E+00 0.36126969E+04</pdfrwt>
<totfact> 0.19008781E-01</totfact>
</mgrwt>
<rwgt>
<wgt id='morphing_basis_vector_1'> +4.6194885e-05 </wgt>
<wgt id='morphing_basis_vector_2'> +3.1393026e-05 </wgt>
<wgt id='morphing_basis_vector_3'> +5.0630508e-05 </wgt>
<wgt id='morphing_basis_vector_4'> +3.6184274e-05 </wgt>
<wgt id='morphing_basis_vector_5'> +5.7876951e-05 </wgt>
</rwgt>
</event>
<event>
 4      1 +1.9882500e-09 3.27719100e+03 7.81860800e-03 7.68592100e-02
        2 -1    0    0  501    0 +0.0000000000e+00 +0.0000000000e+00 +1.7674465857e+03 1.7674465857e+03 0.0000000000e+00 0.0000e+00 1.0000e+00
       -2 -1    0    0    0  501 -0.0000000000e+00 -0.0000000000e+00 -1.5191377918e+03 1.5191377918e+03 0.0000000000e+00 0.0000e+00 -1.0000e+00
      -13  1    1    2    0    0 +1.4421924649e+03 +3.4702105473e+02 -5.7401071951e+02 1.5905442541e+03 0.0000000000e+00 0.0000e+00 -1.0000e+00
       13  1    1    2    0    0 -1.4421924649e+03 -3.4702105473e+02 +8.2231951344e+02 1.6960401234e+03 0.0000000000e+00 0.0000e+00 1.0000e+00
<mgrwt>
<rscale>  0 0.32771908E+04</rscale>
<asrwt>0</asrwt>
<pdfrwt beam="1">  1        2 0.27191486E+00 0.32771908E+04</pdfrwt>
<pdfrwt beam="2">  1       -2 0.23371351E+00 0.32771908E+04</pdfrwt>
<totfact> 0.64551589E-01</totfact>
</mgrwt>
<rwgt>
<wgt id='morphing_basis_vector_1'> +3.1528073e-05 </wgt>
<wgt id='morphing_basis_vector_2'> +2.1760253e-05 </wgt>
<wgt id='morphing_basis_vector_3'> +3.4547671e-05 </wgt>
<wgt id='morphing_basis_vector_4'> +2.4098128e-05 </wgt>
<wgt id='morphing_basis_vector_5'> +3.9060138e-05 </wgt>
</rwgt>
</event>
<event>
 4      1 +1.9882500e-09 3.57419000e+03 7.81860800e-03 7.62201600e-02
        2 -1    0    0  501    0 +0.0000000000e+00 +0.0000000000e+00 +3.4556022194e+03 3.4556022194e+03 0.0000000000e+00 0.0000e+00 1.0000e+00
       -2 -1    0    0    0  501 -0.0000000000e+00 -0.0000000000e+00 -9.2421206118e+02 9.2421206118e+02 0.0000000000e+00 0.0000e+00 -1.0000e+00
      -13  1    1    2    0    0 +8.3042327381e+02 +1.3342350639e+03 +2.2307936037e+02 1.5873091761e+03 0.0000000000e+00 0.0000e+00 -1.0000e+00
       13  1    1    2    0    0 -8.3042327381e+02 -1.3342350639e+03 +2.3083107979e+03 2.7925051045e+03 0.0000000000e+00 0.0000e+00 1.0000e+00
<mgrwt>
<rscale>  0 0.35741904E+04</rscale>
<asrwt>0</asrwt>
<pdfrwt beam="1">  1        2 0.53163110E+00 0.35741904E+04</pdfrwt>
<pdfrwt beam="2">  1       -2 0.14218647E+00 0.35741904E+04</pdfrwt>
<totfact> 0.28084308E-01</totfact>
</mgrwt>
<rwgt>
<wgt id='morphing_basis_vector_1'> +4.4434152e-05 </wgt>
<wgt id='morphing_basis_vector_2'> +3.0565821e-05 </wgt>
<wgt id='morphing_basis_vector_3'> +4.8770404e-05 </wgt>
<wgt id='morphing_basis_vector_4'> +3.4308921e-05 </wgt>
<wgt id='morphing_basis_vector_5'> +5.5405043e-05 </wgt>
</rwgt>
</event>
<event>
 4      1 +1.9882500e-09 3.22537400e+03 7.81860800e-03 7.69778400e-02
        2 -1    0    0  501    0 +0.0000000000e+00 +0.0000000000e+00 +2.4067246375e+03 2.4067246375e+03 0.0000000000e+00 0.0000e+00 1.0000e+00
       -2 -1    0    0    0  501 -0.0000000000e+00 -0.0000000000e+00 -1.0806221306e+03 1.0806221306e+03 0.0000000000e+00 0.0000e+00 -1.0000e+00
      -13  1    1    2    0    0 +7.8824646626e+01 +1.5592578005e+03 +1.0999262146e+03 1.9097999610e+03 0.0000000000e+00 0.0000e+00 1.0000e+00
       13  1    1    2    0    0 -7.8824646626e+01 -1.5592578005e+03 +2.2617629231e+02 1.5775468071e+03 0.0000000000e+00 0.0000e+00 -1.0000e+00
<mgrwt>
<rscale>  0 0.32253743E+04</rscale>
<asrwt>0</asrwt>
<pdfrwt beam="1">  1        2 0.37026533E+00 0.32253743E+04</pdfrwt>
<pdfrwt beam="2">  1       -2 0.16624956E+00 0.32253743E+04</pdfrwt>
<totfact> 0.87850656E-01</totfact>
</mgrwt>
<rwgt>
<wgt id='morphing_basis_vector_1'> +3.1959543e-05 </wgt>
<wgt id='morphing_basis_vector_2'> +2.7378912e-05 </wgt>
<wgt id='morphing_basis_vector_3'> +3.6143540e-05 </wgt>
<wgt id='morphing_basis_vector_4'> +1.7653032e-05 </wgt>
<wgt id='morphing_basis_vector_5'> +3.6221955e-05 </wgt>
</rwgt>
</event>
<event>
 4      1 +1.9882500e-09 3.60417600e+03 7.81860800e-03 7.61592100e-02
        2 -1    0    0  501    0 +0.0000000000e+00 +0.0000000000e+00 +2.0598700130e+03 2.0598700130e+03 0.0000000000e+00 0.0000e+00 1.0000e+00
       -2 -1    0    0    0  501 -0.0000000000e+00 -0.0000000000e+00 -1.5765657969e+03 1.5765657969e+03 0.0000000000e+00 0.0000e+00 -1.0000e+00
      -13  1    1    2    0    0 +1.7155515248e+03 +9.9456128423e+01 +7.8919924019e+02 1.8909902159e+03 0.0000000000e+00 0.0000e+00 -1.0000e+00
       13  1    1    2    0    0 -1.7155515248e+03 -9.9456128423e+01 -3.0589502406e+02 1.7454455940e+03 0.0000000000e+00 0.0000e+00 1.0000e+00
<mgrwt>
<rscale>  0 0.36041757E+04</rscale>
<asrwt>0</asrwt>
<pdfrwt beam="1">  1        2 0.31690308E+00 0.36041757E+04</pdfrwt>
<pdfrwt beam="2">  1       -2 0.24254858E+00 0.36041757E+04</pdfrwt>
<totfact> 0.37388805E-01</totfact>
</mgrwt>
<rwgt>
<wgt id='morphing_basis_vector_1'> +5.0382626e-05 </wgt>
<wgt id='morphing_basis_vector_2'> +4.4684521e-05 </wgt>
<wgt id='morphing_basis_vector_3'> +5.7511991e-05 </wgt>
<wgt id='morphing_basis_vector_4'> +2.6117061e-05 </wgt>
<wgt id='morphing_basis_vector_5'> +5.6522557e-05 </wgt>
</rwgt>
</event>
<event>
 4      1 +1.9882500e-09 3.32730800e+03 7.81860800e-03 7.67466000e-02
        2 -1    0    0  501    0 +0.0000000000e+00 +0.0000000000e+00 +4.1576947444e+03 4.1576947444e+03 0.0000000000e+00 0.0000e+00 -1.0000e+00
       -2 -1    0    0    0  501 -0.0000000000e+00 -0.0000000000e+00 -6.6569196114e+02 6.6569196114e+02 0.0000000000e+00 0.0000e+00 1.0000e+00
      -13  1    1    2    0    0 +1.3011659188e+03 +8.0355156568e+02 +7.9649929993e+02 1.7242792702e+03 0.0000000000e+00 0.0000e+00 1.0000e+00
       13  1    1    2    0    0 -1.3011659188e+03 -8.0355156568e+02 +2.6955034833e+03 3.0991074353e+03 0.0000000000e+00 0.0000e+00 -1.0000e+00
<mgrwt>
<rscale>  0 0.33273076E+04</rscale>
<asrwt>0</asrwt>
<pdfrwt beam="1">  1        2 0.63964533E+00 0.33273076E+04</pdfrwt>
<pdfrwt beam="2">  1       -2 0.10241415E+00 0.33273076E+04</pdfrwt>
<totfact> 0.18407540E-01</totfact>
</mgrwt>
<rwgt>
<wgt id='morphing_basis_vector_1'> +3.3520475e-05 </wgt>
<wgt id='morphing_basis_vector_2'> +2.3218905e-05 </wgt>
<wgt id='morphing_basis_vector_3'> +3.6763477e-05 </wgt>
<wgt id='morphing_basis_vector_4'> +2.5545367e-05 </wgt>
<wgt id='morphing_basis_vector_5'> +4.1517246e-05 </wgt>
</rwgt>
</event>
<event>
 4      1 +1.9882500e-09 3.48495100e+03 7.81860800e-03 7.64052600e-02
        2 -1    0    0  501    0 +0.0000000000e+00 +0.0000000000e+00 +1.8449816940e+03 1.8449816940e+03 0.0000000000e+00 0.0000e+00 -1.0000e+00
       -2 -1    0    0    0  501 -0.0000000000e+00 -0.0000000000e+00 -1.6456640644e+03 1.6456640644e+03 0.0000000000e+00 0.0000e+00 1.0000e+00
      -13  1    1    2    0    0 +1.3701696440e+03 -9.9408920654e+02 +5.1342210667e+02 1.7689489714e+03 0.0000000000e+00 0.0000e+00 1.0000e+00
       13  1    1    2    0    0 -1.3701696440e+03 +9.9408920654e+02 -3.1410447715e+02 1.7216967870e+03 0.0000000000e+00 0.0000e+00 -1.0000e+00
<mgrwt>
<rscale>  0 0.34849505E+04</rscale>
<asrwt>0</asrwt>
<pdfrwt beam="1">  1        2 0.28384334E+00 0.34849505E+04</pdfrwt>
<pdfrwt beam="2">  1       -2 0.25317909E+00 0.34849505E+04</pdfrwt>
<totfact> 0.42071289E-01</totfact>
</mgrwt>
<rwgt>
<wgt id='morphing_basis_vector_1'> +4.3310798e-05 </wgt>
<wgt id='morphing_basis_vector_2'> +3.6823774e-05 </wgt>
<wgt id='morphing_basis_vector_3'> +4.9043034e-05 </wgt>
<wgt id='morphing_basis_vector_4'> +2.4423252e-05 </wgt>
<wgt id='morphing_basis_vector_5'> +4.9499169e-05 </wgt>
</rwgt>
</event>
<event>
 4      1 +1.9882500e-09 3.26475200e+03 7.81860800e-03 7.68874800e-02
        2 -1    0    0  501    0 +0.0000000000e+00 +0.0000000000e+00 +1.3712156048e+03 1.3712156048e+03 0.0000000000e+00 0.0000e+00 -1.0000e+00
       -2 -1    0    0    0  501 -0.0000000000e+00 -0.0000000000e+00 -1.9432764678e+03 1.9432764678e+03 0.0000000000e+00 0.0000e+00 1.0000e+00
      -13  1    1    2    0    0 -1.1177968215e+02 -1.4847709377e+03 +3.9320053519e+02 1.5400149661e+03 0.0000000000e+00 0.0000e+00 1.0000e+00
       13  1    1    2    0    0 +1.1177968215e+02 +1.4847709377e+03 -9.6526139816e+02 1.7744771066e+03 0.0000000000e+00 0.0000e+00 -1.0000e+00
<mgrwt>
<rscale>  0 0.32647518E+04</rscale>
<asrwt>0</asrwt>
<pdfrwt beam="1">  1        2 0.21095625E+00 0.32647518E+04</pdfrwt>
<pdfrwt beam="2">  1       -2 0.29896561E+00 0.32647518E+04</pdfrwt>
<totfact> 0.38380921E-01</totfact>
</mgrwt>
<rwgt>
<wgt id='morphing_basis_vector_1'> +3.5266416e-05 </wgt>
<wgt id='morphing_basis_vector_2'> +3.3825269e-05 </wgt>
<wgt id='morphing_basis_vector_3'> +4.0675482e-05 </wgt>
<wgt id='morphing_basis_vector_4'> +1.4915338e-05 </wgt>
<wgt id='morphing_basis_vector_5'> +3.7738003e-05 </wgt>
</rwgt>
</event>
<event>
 4      1 +1.9882500e-09 3.35274500e+03 7.81860800e-03 7.66902200e-02
        2 -1    0    0  501    0 +0.0000000000e+00 +0.0000000000e+00 +2.2123920221e+03 2.2123920221e+03 0.0000000000e+00 0.0000e+00 -1.0000e+00
       -2 -1    0    0    0  501 -0.0000000000e+00 -0.0000000000e+00 -1.2702203651e+03 1.2702203651e+03 0.0000000000e+00 0.0000e+00 1.0000e+00
      -13  1    1    2    0    0 -3.9505601120e+02 -7.4831431994e+01 -1.2193908376e+03 1.2839715768e+03 0.0000000000e+00 0.0000e+00 1.0000e+00
       13  1    1    2    0    0 +3.9505601120e+02 +7.4831431994e+01 +2.1615624946e+03 2.1986408104e+03 0.0000000000e+00 0.0000e+00 -1.0000e+00
<mgrwt>
<rscale>  0 0.33527454E+04</rscale>
<asrwt>0</asrwt>
<pdfrwt beam="1">  1        2 0.34036800E+00 0.33527454E+04</pdfrwt>
<pdfrwt beam="2">  1       -2 0.19541852E+00 0.33527454E+04</pdfrwt>
<totfact> 0.67691388E-01</totfact>
</mgrwt>
<rwgt>
<wgt id='morphing_basis_vector_1'> +3.4290635e-05 </wgt>
<wgt id='morphing_basis_vector_2'> +2.3172715e-05 </wgt>
<wgt id='morphing_basis_vector_3'> +3.7490261e-05 </wgt>
<wgt id='morphing_basis_vector_4'> +2.6884315e-05 </wgt>
<wgt id='morphing_basis_vector_5'> +4.2855712e-05 </wgt>
</rwgt>
</event>
<event>
 4      1 +1.9882500e-09 3.37301200e+03 7.81860800e-03 7.66456700e-02
        2 -1    0    0  501    0 +0.0000000000e+00 +0.0000000000e+00 +2.6684193887e+03 2.6684193887e+03 0.0000000000e+00 0.0000e+00 1.0000e+00
       -2 -1    0    0    0  501 -0.0000000000e+00 -0.0000000000e+00 -1.0659129425e+03 1.0659129425e+03 0.0000000000e+00 0.0000e+00 -1.0000e+00
      -13  1    1    2    0    0 -1.4080819612e+03 -3.3659353601e+02 -1.5646252417e+02 1.4561835528e+03 0.0000000000e+00 0.0000e+00 -1.0000e+00
       13  1    1    2    0    0 +1.4080819612e+03 +3.3659353601e+02 +1.7589689703e+03 2.2781487784e+03 0.0000000000e+00 0.0000e+00 1.0000e+00
<mgrwt>
<rscale>  0 0.33730122E+04</rscale>
<asrwt>0</asrwt>
<pdfrwt beam="1">  1        2 0.41052606E+00 0.33730122E+04</pdfrwt>
<pdfrwt beam="2">  1       -2 0.16398661E+00 0.33730122E+04</pdfrwt>
<totfact> 0.62949413E-01</totfact>
</mgrwt>
<rwgt>
<wgt id='morphing_basis_vector_1'> +3.5267697e-05 </wgt>
<wgt id='morphing_basis_vector_2'> +2.4167575e-05 </wgt>
<wgt id='morphing_basis_vector_3'> +3.8636593e-05 </wgt>
<wgt id='morphing_basis_vector_4'> +2.7237463e-05 </wgt>
<wgt id='morphing_basis_vector_5'> +4.3883390e-05 </wgt>
</rwgt>
</event>
<event>
 4      1 +1.9882500e-09 3.41035400e+03 7.81860800e-03 7.65644200e-02
        2 -1    0    0  501    0 +0.0000000000e+00 +0.0000000000e+00 +1.3405079738e+03 1.3405079738e+03 0.0000000000e+00 0.0000e+00 1.0000e+00
       -2 -1    0    0    0  501 -0.0000000000e+00 -0.0000000000e+00 -2.1690498859e+03 2.1690498859e+03 0.0000000000e+00 0.0000e+00 -1.0000e+00
      -13  1    1    2    0    0 +4.8069632069e+02 -7.7244502353e+01 -2.0960029766e+03 2.1518048572e+03 0.0000000000e+00 0.0000e+00 -1.0000e+00
       13  1    1    2    0    0 -4.8069632069e+02 +7.7244502353e+01 +1.2674610645e+03 1.3577530025e+03 0.0000000000e+00 0.0000e+00 1.0000e+00
<mgrwt>
<rscale>  0 0.34103540E+04</rscale>
<asrwt>0</asrwt>
<pdfrwt beam="1">  1        2 0.20623200E+00 0.34103540E+04</pdfrwt>
<pdfrwt beam="2">  1       -2 0.33369998E+00 0.34103540E+04</pdfrwt>
<totfact> 0.23154270E-01</totfact>
</mgrwt>
<rwgt>
<wgt id='morphing_basis_vector_1'> +3.6691321e-05 </wgt>
<wgt id='morphing_basis_vector_2'> +2.4803092e-05 </wgt>
<wgt id='morphing_basis_vector_3'> +4.0133305e-05 </wgt>
<wgt id='morphing_basis_vector_4'> +2.8792834e-05 </wgt>
<wgt id='morphing_basis_vector_5'> +4.5899688e-05 </wgt>
</rwgt>
</event>
<event>
 4      1 +1.9882500e-09 3.51336500e+03 7.81860800e-03 7.63457100e-02
        2 -1    0    0  501    0 +0.0000000000e+00 +0.0000000000e+00 +3.5393191458e+03 3.5393191458e+03 0.0000000000e+00 0.0000e+00 -1.0000e+00
       -2 -1    0    0    0  501 -0.0000000000e+00 -0.0000000000e+00 -8.7190035414e+02 8.7190035414e+02 0.0000000000e+00 0.0000e+00 1.0000e+00
      -13  1    1    2    0    0 -1.2124515660e+03 -1.4548891501e+01 -2.6221928861e+02 1.2405681865e+03 0.0000000000e+00 0.0000e+00 1.0000e+00
       13  1    1    2    0    0 +1.2124515660e+03 +1.4548891501e+01 +2.9296380803e+03 3.1706513135e+03 0.0000000000e+00 0.0000e+00 -1.0000e+00
<mgrwt>
<rscale>  0 0.35133651E+04</rscale>
<asrwt>0</asrwt>
<pdfrwt beam="1">  1        2 0.54451063E+00 0.35133651E+04</pdfrwt>
<pdfrwt beam="2">  1       -2 0.13413852E+00 0.35133651E+04</pdfrwt>
<totfact> 0.28798140E-01</totfact>
</mgrwt>
<rwgt>
<wgt id='morphing_basis_vector_1'> +4.1338203e-05 </wgt>
<wgt id='morphing_basis_vector_2'> +2.8054204e-05 </wgt>
<wgt id='morphing_basis_vector_3'> +4.5271311e-05 </wgt>
<wgt id='morphing_basis_vector_4'> +3.2368188e-05 </wgt>
<wgt id='morphing_basis_vector_5'> +5.1735210e-05 </wgt>
</rwgt>
</event>
<event>
 4      1 +1.9882500e-09 3.23729700e+03 7.81860800e-03 7.69503400e-02
        2 -1    0    0  501    0 +0.0000000000e+00 +0.0000000000e+00 +3.9232527874e+03 3.9232527874e+03 0.0000000000e+00 0.0000e+00 -1.0000e+00
       -2 -1    0    0    0  501 -0.0000000000e+00 -0.0000000000e+00 -6.6781926031e+02 6.6781926031e+02 0.0000000000e+00 0.0000e+00 1.0000e+00
      -13  1    1    2    0    0 +3.9583248052e+02 +6.1281621370e+02 -4.2144196778e+02 8.4252026481e+02 0.0000000000e+00 0.0000e+00 1.0000e+00
       13  1    1    2    0    0 -3.9583248052e+02 -6.1281621370e+02 +3.6768754949e+03 3.7485517829e+03 0.0000000000e+00 0.0000e+00 -1.0000e+00
<mgrwt>
<rscale>  0 0.32372975E+04</rscale>
<asrwt>0</asrwt>
<pdfrwt beam="1">  1        2 0.60357734E+00 0.32372975E+04</pdfrwt>
<pdfrwt beam="2">  1       -2 0.10274143E+00 0.32372975E+04</pdfrwt>
<totfact> 0.29322133E-01</totfact>
</mgrwt>
<rwgt>
<wgt id='morphing_basis_vector_1'> +2.9841161e-05 </wgt>
<wgt id='morphing_basis_vector_2'> +2.0161358e-05 </wgt>
<wgt id='morphing_basis_vector_3'> +3.2595384e-05 </wgt>
<wgt id='morphing_basis_vector_4'> +2.3337259e-05 </wgt>
<wgt id='morphing_basis_vector_5'> +3.7211991e-05 </wgt>
</rwgt>
</event>
<event>
 4      1 +1.9882500e-09 3.30516700e+03 7.81860800e-03 7.67960900e-02
        2 -1    0    0  501    0 +0.0000000000e+00 +0.0000000000e+00 +4.8125728082e+03 4.8125728082e+03 0.0000000000e+00 0.0000e+00 -1.0000e+00
       -2 -1    0    0    0  501 -0.0000000000e+00 -0.0000000000e+00 -5.6747879113e+02 5.6747879113e+02 0.0000000000e+00 0.0000e+00 1.0000e+00
      -13  1    1    2    0    0 -1.9942486200e+02 -7.7158919771e+02 -2.3401884155e+02 8.3059315179e+02 0.0000000000e+00 0.0000e+00 1.0000e+00
       13  1    1    2    0    0 +1.9942486200e+02 +7.7158919771e+02 +4.4791128586e+03 4.5494584476e+03 0.0000000000e+00 0.0000e+00 -1.0000e+00
<mgrwt>
<rscale>  0 0.33051675E+04</rscale>
<asrwt>0</asrwt>
<pdfrwt beam="1">  1        2 0.74039579E+00 0.33051675E+04</pdfrwt>
<pdfrwt beam="2">  1       -2 0.87304433E-01 0.33051675E+04</pdfrwt>
<totfact> 0.56788455E-02</totfact>
</mgrwt>
<rwgt>
<wgt id='morphing_basis_vector_1'> +3.2404393e-05 </wgt>
<wgt id='morphing_basis_vector_2'> +2.1904911e-05 </wgt>
<wgt id='morphing_basis_vector_3'> +3.5416802e-05 </wgt>
<wgt id='morphing_basis_vector_4'> +2.5368818e-05 </wgt>
<wgt id='morphing_basis_vector_5'> +4.0456821e-05 </wgt>
</rwgt>
</event>
<event>
 4      1 +1.9882500e-09 3.52157900e+03 7.81860800e-03 7.63286100e-02
        2 -1    0    0  501    0 +0.0000000000e+00 +0.0000000000e+00 +4.2256078159e+03 4.2256078159e+03 0.0000000000e+00 0.0000e+00 1.0000e+00
       -2 -1    0    0    0  501 -0.0000000000e+00 -0.0000000000e+00 -7.3371223179e+02 7.3371223179e+02 0.0000000000e+00 0.0000e+00 -1.0000e+00
      -13  1    1    2    0    0 -8.3439078413e+02 +1.3084605222e+03 +5.7437277270e+02 1.6547449957e+03 0.0000000000e+00 0.0000e+00 -1.0000e+00
       13  1    1    2    0    0 +8.3439078413e+02 -1.3084605222e+03 +2.9175228114e+03 3.3045750519e+03 0.0000000000e+00 0.0000e+00 1.0000e+00
<mgrwt>
<rscale>  0 0.35215793E+04</rscale>
<asrwt>0</asrwt>
<pdfrwt beam="1">  1        2 0.65009350E+00 0.35215793E+04</pdfrwt>
<pdfrwt beam="2">  1       -2 0.11287881E+00 0.35215793E+04</pdfrwt>
<totfact> 0.12323579E-01</totfact>
</mgrwt>
<rwgt>
<wgt id='morphing_basis_vector_1'> +4.1895205e-05 </wgt>
<wgt id='morphing_basis_vector_2'> +2.8821649e-05 </wgt>
<wgt id='morphing_basis_vector_3'> +4.5968838e-05 </wgt>
<wgt id='morphing_basis_vector_4'> +3.2312958e-05 </wgt>
<wgt id='morphing_basis_vector_5'> +5.2193950e-05 </wgt>
</rwgt>
</event>
<event>
 4      1 +1.9882500e-09 3.53866200e+03 7.81860800e-03 7.62931800e-02
        2 -1    0    0  501    0 +0.0000000000e+00 +0.0000000000e+00 +1.2226780289e+03 1.2226780289e+03 0.0000000000e+00 0.0000e+00 1.0000e+00
       -2 -1    0    0    0  501 -0.0000000000e+00 -0.0000000000e+00 -2.5603901670e+03 2.5603901670e+03 0.0000000000e+00 0.0000e+00 -1.0000e+00
      -13  1    1    2    0    0 -1.4273214049e+03 -9.9019108256e+02 -3.0978943381e+02 1.7645663111e+03 0.0000000000e+00 0.0000e+00 1.0000e+00
       13  1    1    2    0    0 +1.4273214049e+03 +9.9019108256e+02 -1.0279227043e+03 2.0185018848e+03 0.0000000000e+00 0.0000e+00 -1.0000e+00
<mgrwt>
<rscale>  0 0.35386623E+04</rscale>
<asrwt>0</asrwt>
<pdfrwt beam="1">  1        2 0.18810431E+00 0.35386623E+04</pdfrwt>
<pdfrwt beam="2">  1       -2 0.39390617E+00 0.35386623E+04</pdfrwt>
<totfact> 0.10917350E-01</totfact>
</mgrwt>
<rwgt>
<wgt id='morphing_basis_vector_1'> +4.5511476e-05 </wgt>
<wgt id='morphing_basis_vector_2'> +3.7627825e-05 </wgt>
<wgt id='morphing_basis_vector_3'> +5.1324614e-05 </wgt>
<wgt id='morphing_basis_vector_4'> +2.7053212e-05 </wgt>
<wgt id='morphing_basis_vector_5'> +5.2731890e-05 </wgt>
</rwgt>
</event>
<event>
 4      1 +1.9882500e-09 3.42846700e+03 7.81860800e-03 7.65253900e-02
        2 -1    0    0  501    0 +0.0000000000e+00 +0.0000000000e+00 +1.5033797787e+03 1.5033797787e+03 0.0000000000e+00 0.0000e+00 -1.0000e+00
       -2 -1    0    0    0  501 -0.0000000000e+00 -0.0000000000e+00 -1.9546601885e+03 1.9546601885e+03 0.0000000000e+00 0.0000e+00 1.0000e+00
      -13  1    1    2    0    0 -8.6729475889e+02 +1.2333208306e+03 -1.0483450474e+03 1.8363844392e+03 0.0000000000e+00 0.0000e+00 1.0000e+00
       13  1    1    2    0    0 +8.6729475889e+02 -1.2333208306e+03 +5.9706463755e+02 1.6216555280e+03 0.0000000000e+00 0.0000e+00 -1.0000e+00
<mgrwt>
<rscale>  0 0.34284671E+04</rscale>
<asrwt>0</asrwt>
<pdfrwt beam="1">  1        2 0.23128920E+00 0.34284671E+04</pdfrwt>
<pdfrwt beam="2">  1       -2 0.30071695E+00 0.34284671E+04</pdfrwt>
<totfact> 0.31052505E-01</totfact>
</mgrwt>
<rwgt>
<wgt id='morphing_basis_vector_1'> +3.7661022e-05 </wgt>
<wgt id='morphing_basis_vector_2'> +2.5890352e-05 </wgt>
<wgt id='morphing_basis_vector_3'> +4.1292941e-05 </wgt>
<wgt id='morphing_basis_vector_4'> +2.9015586e-05 </wgt>
<wgt id='morphing_basis_vector_5'> +4.6856424e-05 </wgt>
</rwgt>
</event>
<event>
 4      1 +1.9882500e-09 3.76230900e+03 7.81860800e-03 7.58474900e-02
        2 -1    0    0  501    0 +0.0000000000e+00 +0.0000000000e+00 +1.9713249802e+03 1.9713249802e+03 0.0000000000e+00 0.0000e+00 -1.0000e+00
       -2 -1    0    0    0  501 -0.0000000000e+00 -0.0000000000e+00 -1.7951082413e+03 1.7951082413e+03 0.0000000000e+00 0.0000e+00 1.0000e+00
      -13  1    1    2    0    0 +1.5151643864e+03 +1.0376683891e+03 -3.2009213575e+02 1.8641184992e+03 0.0000000000e+00 0.0000e+00 1.0000e+00
       13  1    1    2    0    0 -1.5151643864e+03 -1.0376683891e+03 +4.9630887462e+02 1.9023147223e+03 0.0000000000e+00 0.0000e+00 -1.0000e+00
<mgrwt>
<rscale>  0 0.37623087E+04</rscale>
<asrwt>0</asrwt>
<pdfrwt beam="1">  1        2 0.30328077E+00 0.37623087E+04</pdfrwt>
<pdfrwt beam="2">  1       -2 0.27617050E+00 0.37623087E+04</pdfrwt>
<totfact> 0.24304785E-01</totfact>
</mgrwt>
<rwgt>
<wgt id='morphing_basis_vector_1'> +5.5087537e-05 </wgt>
<wgt id='morphing_basis_vector_2'> +3.9277718e-05 </wgt>
<wgt id='morphing_basis_vector_3'> +6.0835423e-05 </wgt>
<wgt id='morphing_basis_vector_4'> +4.0902229e-05 </wgt>
<wgt id='morphing_basis_vector_5'> +6.7999999e-05 </wgt>
</rwgt>
</event>
<event>
 4      1 +1.9882500e-09 3.62602700e+03 7.81860800e-03 7.61151700e-02
        2 -1    0    0  501    0 +0.0000000000e+00 +0.0000000000e+00 +3.8331474176e+03 3.8331474176e+03 0.0000000000e+00 0.0000e+00 1.0000e+00
       -2 -1    0    0    0  501 -0.0000000000e+00 -0.0000000000e+00 -8.5752467449e+02 8.5752467449e+02 0.0000000000e+00 0.0000e+00 -1.0000e+00
      -13  1    1    2    0    0 +1.4730476964e+03 +4.2947957303e+02 +2.3849012697e+02 1.5528038383e+03 0.0000000000e+00 0.0000e+00 -1.0000e+00
       13  1    1    2    0    0 -1.4730476964e+03 -4.2947957303e+02 +2.7371326161e+03 3.1378682537e+03 0.0000000000e+00 0.0000e+00 1.0000e+00
<mgrwt>
<rscale>  0 0.36260273E+04</rscale>
<asrwt>0</asrwt>
<pdfrwt beam="1">  1        2 0.58971498E+00 0.36260273E+04</pdfrwt>
<pdfrwt beam="2">  1       -2 0.13192688E+00 0.36260273E+04</pdfrwt>
<totfact> 0.17695643E-01</totfact>
</mgrwt>
<rwgt>
<wgt id='morphing_basis_vector_1'> +4.6989826e-05 </wgt>
<wgt id='morphing_basis_vector_2'> +3.2192050e-05 </wgt>
<wgt id='morphing_basis_vector_3'> +5.1562744e-05 </wgt>
<wgt id='morphing_basis_vector_4'> +3.6485129e-05 </wgt>
<wgt id='morphing_basis_vector_5'> +5.8721307e-05 </wgt>
</rwgt>
</event>
<event>
 4      1 +1.9882500e-09 3.47536300e+03 7.81860800e-03 7.64254900e-02
        2 -1    0    0  501    0 +0.0000000000e+00 +0.0000000000e+00 +3.0085070412e+03 3.0085070412e+03 0.0000000000e+00 0.0000e+00 -1.0000e+00
       -2 -1    0    0    0  501 -0.0000000000e+00 -0.0000000000e+00 -1.0036662234e+03 1.0036662234e+03 0.0000000000e+00 0.0000e+00 1.0000e+00
      -13  1    1    2    0    0 +1.4409293658e+03 +1.6046718091e+02 -1.0340065102e+02 1.4535194694e+03 0.0000000000e+00 0.0000e+00 1.0000e+00
       13  1    1    2    0    0 -1.4409293658e+03 -1.6046718091e+02 +2.1082414688e+03 2.5586537953e+03 0.0000000000e+00 0.0000e+00 -1.0000e+00
<mgrwt>
<rscale>  0 0.34753629E+04</rscale>
<asrwt>0</asrwt>
<pdfrwt beam="1">  1        2 0.46284723E+00 0.34753629E+04</pdfrwt>
<pdfrwt beam="2">  1       -2 0.15441019E+00 0.34753629E+04</pdfrwt>
<totfact> 0.45411182E-01</totfact>
</mgrwt>
<rwgt>
<wgt id='morphing_basis_vector_1'> +3.9682462e-05 </wgt>
<wgt id='morphing_basis_vector_2'> +2.7135037e-05 </wgt>
<wgt id='morphing_basis_vector_3'> +4.3491797e-05 </wgt>
<wgt id='morphing_basis_vector_4'> +3.0787515e-05 </wgt>
<wgt id='morphing_basis_vector_5'> +4.9502774e-05 </wgt>
</rwgt>
</event>
<event>
 4      1 +1.9882500e-09 3.72950000e+03 7.81860800e-03 7.59108600e-02
        2 -1    0    0  501    0 +0.0000000000e+00 +0.0000000000e+00 +4.6616673399e+03 4.6616673399e+03 0.0000000000e+00 0.0000e+00 -1.0000e+00
       -2 -1    0    0    0  501 -0.0000000000e+00 -0.0000000000e+00 -7.4593310820e+02 7.4593310820e+02 0.0000000000e+00 0.0000e+00 1.0000e+00
      -13  1    1    2    0    0 +8.3685916529e+02 -1.1483110217e+03 +2.0687781123e+02 1.4358794845e+03 0.0000000000e+00 0.0000e+00 1.0000e+00
       13  1    1    2    0    0 -8.3685916529e+02 +1.1483110217e+03 +3.7088564205e+03 3.9717209636e+03 0.0000000000e+00 0.0000e+00 -1.0000e+00
<mgrwt>
<rscale>  0 0.37294997E+04</rscale>
<asrwt>0</asrwt>
<pdfrwt beam="1">  1        2 0.71717957E+00 0.37294997E+04</pdfrwt>
<pdfrwt beam="2">  1       -2 0.11475894E+00 0.37294997E+04</pdfrwt>
<totfact> 0.42067876E-02</totfact>
</mgrwt>
<rwgt>
<wgt id='morphing_basis_vector_1'> +5.2452209e-05 </wgt>
<wgt id='morphing_basis_vector_2'> +3.5724622e-05 </wgt>
<wgt id='morphing_basis_vector_3'> +5.7544132e-05 </wgt>
<wgt id='morphing_basis_vector_4'> +4.1067249e-05 </wgt>
<wgt id='morphing_basis_vector_5'> +6.5777268e-05 </wgt>
</rwgt>
</event>
<event>
 4      1 +1.9882500e-09 3.42128000e+03 7.81860800e-03 7.65408500e-02
        2 -1    0    0  501    0 +0.0000000000e+00 +0.0000000000e+00 +1.8880807510e+03 1.8880807510e+03 0.0000000000e+00 0.0000e+00 1.0000e+00
       -2 -1    0    0    0  501 -0.0000000000e+00 -0.0000000000e+00 -1.5498748721e+03 1.5498748721e+03 0.0000000000e+00 0.0000e+00 -1.0000e+00
      -13  1    1    2    0    0 +1.5706339450e+03 -4.9170748679e+02 -2.9967022287e+02 1.6728626615e+03 0.0000000000e+00 0.0000e+00 -1.0000e+00
       13  1    1    2    0    0 -1.5706339450e+03 +4.9170748679e+02 +6.3787610186e+02 1.7650929616e+03 0.0000000000e+00 0.0000e+00 1.0000e+00
<mgrwt>
<rscale>  0 0.34212798E+04</rscale>
<asrwt>0</asrwt>
<pdfrwt beam="1">  1        2 0.29047396E+00 0.34212798E+04</pdfrwt>
<pdfrwt beam="2">  1       -2 0.23844229E+00 0.34212798E+04</pdfrwt>
<totfact> 0.50630970E-01</totfact>
</mgrwt>
<rwgt>
<wgt id='morphing_basis_vector_1'> +3.7637689e-05 </wgt>
<wgt id='morphing_basis_vector_2'> +2.6525677e-05 </wgt>
<wgt id='morphing_basis_vector_3'> +4.1406681e-05 </wgt>
<wgt id='morphing_basis_vector_4'> +2.8164080e-05 </wgt>
<wgt id='morphing_basis_vector_5'> +4.6411828e-05 </wgt>
</rwgt>
</event>
<event>
 4      1 +1.9882500e-09 3.46934100e+03 7.81860800e-03 7.64382300e-02
        2 -1    0    0  501    0 +0.0000000000e+00 +0.0000000000e+00 +3.6706761269e+03 3.6706761269e+03 0.0000000000e+00 0.0000e+00 -1.0000e+00
       -2 -1    0    0    0  501 -0.0000000000e+00 -0.0000000000e+00 -8.1976222081e+02 8.1976222081e+02 0.0000000000e+00 0.0000e+00 1.0000e+00
      -13  1    1    2    0    0 -1.3726906213e+03 -1.9407950513e+02 +7.5923852045e+01 1.3884202633e+03 0.0000000000e+00 0.0000e+00 1.0000e+00
       13  1    1    2    0    0 +1.3726906213e+03 +1.9407950513e+02 +2.7749900540e+03 3.1020180844e+03 0.0000000000e+00 0.0000e+00 -1.0000e+00
<mgrwt>
<rscale>  0 0.34693409E+04</rscale>
<asrwt>0</asrwt>
<pdfrwt beam="1">  1        2 0.56471940E+00 0.34693409E+04</pdfrwt>
<pdfrwt beam="2">  1       -2 0.12611727E+00 0.34693409E+04</pdfrwt>
<totfact> 0.27125872E-01</totfact>
</mgrwt>
<rwgt>
<wgt id='morphing_basis_vector_1'> +3.9375905e-05 </wgt>
<wgt id='morphing_basis_vector_2'> +2.6847701e-05 </wgt>
<wgt id='morphing_basis_vector_3'> +4.3137137e-05 </wgt>
<wgt id='morphing_basis_vector_4'> +3.0644929e-05 </wgt>
<wgt id='morphing_basis_vector_5'> +4.9164241e-05 </wgt>
</rwgt>
</event>
<event>
 4      1 +1.9882500e-09 3.24664100e+03 7.81860800e-03 7.69288800e-02
        2 -1    0    0  501    0 +0.0000000000e+00 +0.0000000000e+00 +2.3777381709e+03 2.3777381709e+03 0.0000000000e+00 0.0000e+00 1.0000e+00
       -2 -1    0    0    0  501 -0.0000000000e+00 -0.0000000000e+00 -1.1082670977e+03 1.1082670977e+03 0.0000000000e+00 0.0000e+00 -1.0000e+00
      -13  1    1    2    0    0 +4.5551267541e+02 -1.1191806651e+03 -5.2921200262e+02 1.3191370294e+03 0.0000000000e+00 0.0000e+00 -1.0000e+00
       13  1    1    2    0    0 -4.5551267541e+02 +1.1191806651e+03 +1.7986830759e+03 2.1668682392e+03 0.0000000000e+00 0.0000e+00 1.0000e+00
<mgrwt>
<rscale>  0 0.32466407E+04</rscale>
<asrwt>0</asrwt>
<pdfrwt beam="1">  1        2 0.36580587E+00 0.32466407E+04</pdfrwt>
<pdfrwt beam="2">  1       -2 0.17050263E+00 0.32466407E+04</pdfrwt>
<totfact> 0.84483892E-01</totfact>
</mgrwt>
<rwgt>
<wgt id='morphing_basis_vector_1'> +3.0229122e-05 </wgt>
<wgt id='morphing_basis_vector_2'> +2.0525874e-05 </wgt>
<wgt id='morphing_basis_vector_3'> +3.3043610e-05 </wgt>
<wgt id='morphing_basis_vector_4'> +2.3516344e-05 </wgt>
<wgt id='morphing_basis_vector_5'> +3.7639014e-05 </wgt>
</rwgt>
</event>
<event>
 4      1 +1.9882500e-09 3.41165800e+03 7.81860800e-03 7.65616000e-02
        2 -1    0    0  501    0 +0.0000000000e+00 +0.0000000000e+00 +3.3448504836e+03 3.3448504836e+03 0.0000000000e+00 0.0000e+00 -1.0000e+00
       -2 -1    0    0    0  501 -0.0000000000e+00 -0.0000000000e+00 -8.6995022092e+02 8.6995022092e+02 0.0000000000e+00 0.0000e+00 1.0000e+00
      -13  1    1    2    0    0 +1.6696982970e+03 -2.7761392987e+01 +1.6675263777e+03 2.3599379904e+03 0.0000000000e+00 0.0000e+00 1.0000e+00
       13  1    1    2    0    0 -1.6696982970e+03 +2.7761392987e+01 +8.0737388491e+02 1.8548627141e+03 0.0000000000e+00 0.0000e+00 -1.0000e+00
<mgrwt>
<rscale>  0 0.34116585E+04</rscale>
<asrwt>0</asrwt>
<pdfrwt beam="1">  1        2 0.51459237E+00 0.34116585E+04</pdfrwt>
<pdfrwt beam="2">  1       -2 0.13383850E+00 0.34116585E+04</pdfrwt>
<totfact> 0.40351577E-01</totfact>
</mgrwt>
<rwgt>
<wgt id='morphing_basis_vector_1'> +3.9487290e-05 </wgt>
<wgt id='morphing_basis_vector_2'> +3.2903053e-05 </wgt>
<wgt id='morphing_basis_vector_3'> +4.4539276e-05 </wgt>
<wgt id='morphing_basis_vector_4'> +2.3085007e-05 </wgt>
<wgt id='morphing_basis_vector_5'> +4.5494321e-05 </wgt>
</rwgt>
</event>
<event>
 4      1 +1.9882500e-09 3.58644700e+03 7.81860800e-03 7.61951700e-02
        2 -1    0    0  501    0 +0.0000000000e+00 +0.0000000000e+00 +2.9976144187e+03 2.9976144187e+03 0.0000000000e+00 0.0000e+00 1.0000e+00
       -2 -1    0    0    0  501 -0.0000000000e+00 -0.0000000000e+00 -1.0727365388e+03 1.0727365388e+03 0.0000000000e+00 0.0000e+00 -1.0000e+00
      -13  1    1    2    0    0 -1.0364495858e+03 +3.3085677886e+02 -6.5536038569e+02 1.2701146354e+03 0.0000000000e+00 0.0000e+00 -1.0000e+00
       13  1    1    2    0    0 +1.0364495858e+03 -3.3085677886e+02 +2.5802382656e+03 2.8002363221e+03 0.0000000000e+00 0.0000e+00 1.0000e+00
<mgrwt>
<rscale>  0 0.35864470E+04</rscale>
<asrwt>0</asrwt>
<pdfrwt beam="1">  1        2 0.46117144E+00 0.35864470E+04</pdfrwt>
<pdfrwt beam="2">  1       -2 0.16503639E+00 0.35864470E+04</pdfrwt>
<totfact> 0.37589150E-01</totfact>
</mgrwt>
<rwgt>
<wgt id='morphing_basis_vector_1'> +4.4839453e-05 </wgt>
<wgt id='morphing_basis_vector_2'> +3.0387899e-05 </wgt>
<wgt id='morphing_basis_vector_3'> +4.9118767e-05 </wgt>
<wgt id='morphing_basis_vector_4'> +3.5212933e-05 </wgt>
<wgt id='morphing_basis_vector_5'> +5.6209222e-05 </wgt>
</rwgt>
</event>
<event>
 4      1 +1.9882500e-09 3.38789700e+03 7.81860800e-03 7.66131500e-02
        2 -1    0    0  501    0 +0.0000000000e+00 +0.0000000000e+00 +3.5859859193e+03 3.5859859193e+03 0.0000000000e+00 0.0000e+00 -1.0000e+00
       -2 -1    0    0    0  501 -0.0000000000e+00 -0.0000000000e+00 -8.0018740238e+02 8.0018740238e+02 0.0000000000e+00 0.0000e+00 1.0000e+00
      -13  1    1    2    0    0 +8.4891231228e+02 +3.9053556731e+02 -4.3632743768e+02 1.0312864666e+03 0.0000000000e+00 0.0000e+00 1.0000e+00
       13  1    1    2    0    0 -8.4891231228e+02 -3.9053556731e+02 +3.2221259546e+03 3.3548868551e+03 0.0000000000e+00 0.0000e+00 -1.0000e+00
<mgrwt>
<rscale>  0 0.33878965E+04</rscale>
<asrwt>0</asrwt>
<pdfrwt beam="1">  1        2 0.55169013E+00 0.33878965E+04</pdfrwt>
<pdfrwt beam="2">  1       -2 0.12310576E+00 0.33878965E+04</pdfrwt>
<totfact> 0.33743991E-01</totfact>
</mgrwt>
<rwgt>
<wgt id='morphing_basis_vector_1'> +3.5752317e-05 </wgt>
<wgt id='morphing_basis_vector_2'> +2.4191138e-05 </wgt>
<wgt id='morphing_basis_vector_3'> +3.9104941e-05 </wgt>
<wgt id='morphing_basis_vector_4'> +2.8013269e-05 </wgt>
<wgt id='morphing_basis_vector_5'> +4.4692471e-05 </wgt>
</rwgt>
</event>
<event>
 4      1 +1.9882500e-09 3.21215100e+03 7.81860800e-03 7.70084800e-02
        2 -1    0    0  501    0 +0.0000000000e+00 +0.0000000000e+00 +1.2380565033e+03 1.2380565033e+03 0.0000000000e+00 0.0000e+00 -1.0000e+00
       -2 -1    0    0    0  501 -0.0000000000e+00 -0.0000000000e+00 -2.0834896022e+03 2.0834896022e+03 0.0000000000e+00 0.0000e+00 1.0000e+00
      -13  1    1    2    0    0 -7.9860672962e+02 -5.8763277604e+01 -1.8623419827e+03 2.0272009007e+03 0.0000000000e+00 0.0000e+00 1.0000e+00
       13  1    1    2    0    0 +7.9860672962e+02 +5.8763277604e+01 +1.0169088838e+03 1.2943452049e+03 0.0000000000e+00 0.0000e+00 -1.0000e+00
<mgrwt>
<rscale>  0 0.32121506E+04</rscale>
<asrwt>0</asrwt>
<pdfrwt beam="1">  1        2 0.19047023E+00 0.32121506E+04</pdfrwt>
<pdfrwt beam="2">  1       -2 0.32053686E+00 0.32121506E+04</pdfrwt>
<totfact> 0.32943003E-01</totfact>
</mgrwt>
<rwgt>
<wgt id='morphing_basis_vector_1'> +2.8934004e-05 </wgt>
<wgt id='morphing_basis_vector_2'> +1.9550593e-05 </wgt>
<wgt id='morphing_basis_vector_3'> +3.1598370e-05 </wgt>
<wgt id='morphing_basis_vector_4'> +2.2610659e-05 </wgt>
<wgt id='morphing_basis_vector_5'> +3.6060165e-05 </wgt>
</rwgt>
</event>
<event>
 4      1 +1.9882500e-09 3.30593600e+03 7.81860800e-03 7.67943700e-02
        2 -1    0    0  501    0 +0.0000000000e+00 +0.0000000000e+00 +2.0888414507e+03 2.0888414507e+03 0.0000000000e+00 0.0000e+00 -1.0000e+00
       -2 -1    0    0    0  501 -0.0000000000e+00 -0.0000000000e+00 -1.3080472733e+03 1.3080472733e+03 0.0000000000e+00 0.0000e+00 1.0000e+00
      -13  1    1    2    0    0 +2.7169145028e+02 +1.5520086479e+03 -1.2310837877e+02 1.5804122121e+03 0.0000000000e+00 0.0000e+00 1.0000e+00
       13  1    1    2    0    0 -2.7169145028e+02 -1.5520086479e+03 +9.0390255612e+02 1.8164765119e+03 0.0000000000e+00 0.0000e+00 -1.0000e+00
<mgrwt>
<rscale>  0 0.33059361E+04</rscale>
<asrwt>0</asrwt>
<pdfrwt beam="1">  1        2 0.32136022E+00 0.33059361E+04</pdfrwt>
<pdfrwt beam="2">  1       -2 0.20123804E+00 0.33059361E+04</pdfrwt>
<totfact> 0.72461344E-01</totfact>
</mgrwt>
<rwgt>
<wgt id='morphing_basis_vector_1'> +3.2796541e-05 </wgt>
<wgt id='morphing_basis_vector_2'> +2.2991180e-05 </wgt>
<wgt id='morphing_basis_vector_3'> +3.6022405e-05 </wgt>
<wgt id='morphing_basis_vector_4'> +2.4633602e-05 </wgt>
<wgt id='morphing_basis_vector_5'> +4.0432017e-05 </wgt>
</rwgt>
</event>
<event>
 4      1 +1.9882500e-09 3.30266600e+03 7.81860800e-03 7.68017100e-02
        2 -1    0    0  501    0 +0.0000000000e+00 +0.0000000000e+00 +3.5405363657e+03 3.5405363657e+03 0.0000000000e+00 0.0000e+00 -1.0000e+00
       -2 -1    0    0    0  501 -0.0000000000e+00 -0.0000000000e+00 -7.7019428122e+02 7.7019428122e+02 0.0000000000e+00 0.0000e+00 1.0000e+00
      -13  1    1    2    0    0 +1.0523615084e+03 +7.5035730360e+02 +4.3640946161e+01 1.2932151250e+03 0.0000000000e+00 0.0000e+00 1.0000e+00
       13  1    1    2    0    0 -1.0523615084e+03 -7.5035730360e+02 +2.7267011383e+03 3.0175155219e+03 0.0000000000e+00 0.0000e+00 -1.0000e+00
<mgrwt>
<rscale>  0 0.33026661E+04</rscale>
<asrwt>0</asrwt>
<pdfrwt beam="1">  1        2 0.54469789E+00 0.33026661E+04</pdfrwt>
<pdfrwt beam="2">  1       -2 0.11849143E+00 0.33026661E+04</pdfrwt>
<totfact> 0.40611204E-01</totfact>
</mgrwt>
<rwgt>
<wgt id='morphing_basis_vector_1'> +3.2372337e-05 </wgt>
<wgt id='morphing_basis_vector_2'> +2.2030730e-05 </wgt>
<wgt id='morphing_basis_vector_3'> +3.5412827e-05 </wgt>
<wgt id='morphing_basis_vector_4'> +2.5154965e-05 </wgt>
<wgt id='morphing_basis_vector_5'> +4.0322309e-05 </wgt>
</rwgt>
</event>
<event>
 4      1 +1.9882500e-09 3.55312400e+03 7.81860800e-03 7.62633500e-02
        2 -1    0    0  501    0 +0.0000000000e+00 +0.0000000000e+00 +2.2657743999e+03 2.2657743999e+03 0.0000000000e+00 0.0000e+00 1.0000e+00
       -2 -1    0    0    0  501 -0.0000000000e+00 -0.0000000000e+00 -1.3929775558e+03 1.3929775558e+03 0.0000000000e+00 0.0000e+00 -1.0000e+00
      -13  1    1    2    0    0 +7.9546507693e+02 -3.2200716224e+02 -1.1653898128e+03 1.4472687093e+03 0.0000000000e+00 0.0000e+00 -1.0000e+00
       13  1    1    2    0    0 -7.9546507693e+02 +3.2200716224e+02 +2.0381866568e+03 2.2114832464e+03 0.0000000000e+00 0.0000e+00 1.0000e+00
<mgrwt>
<rscale>  0 0.35531242E+04</rscale>
<asrwt>0</asrwt>
<pdfrwt beam="1">  1        2 0.34858068E+00 0.35531242E+04</pdfrwt>
<pdfrwt beam="2">  1       -2 0.21430424E+00 0.35531242E+04</pdfrwt>
<totfact> 0.45258162E-01</totfact>
</mgrwt>
<rwgt>
<wgt id='morphing_basis_vector_1'> +4.3191210e-05 </wgt>
<wgt id='morphing_basis_vector_2'> +2.9232199e-05 </wgt>
<wgt id='morphing_basis_vector_3'> +4.7295101e-05 </wgt>
<wgt id='morphing_basis_vector_4'> +3.3946680e-05 </wgt>
<wgt id='morphing_basis_vector_5'> +5.4139167e-05 </wgt>
</rwgt>
</event>
<event>
 4      1 +1.9882500e-09 3.34756200e+03 7.81860800e-03 7.67016600e-02
        2 -1    0    0  501    0 +0.0000000000e+00 +0.0000000000e+00 +2.2681654422e+03 2.2681654422e+03 0.0000000000e+00 0.0000e+00 -1.0000e+00
       -2 -1    0    0    0  501 -0.0000000000e+00 -0.0000000000e+00 -1.2351583287e+03 1.2351583287e+03 0.0000000000e+00 0.0000e+00 1.0000e+00
      -13  1    1    2    0    0 +7.9808885321e+02 +8.6105381901e+02 -7.3197795991e+02 1.3835285435e+03 0.0000000000e+00 0.0000e+00 1.0000e+00
       13  1    1    2    0    0 -7.9808885321e+02 -8.6105381901e+02 +1.7649850734e+03 2.1197952274e+03 0.0000000000e+00 0.0000e+00 -1.0000e+00
<mgrwt>
<rscale>  0 0.33475624E+04</rscale>
<asrwt>0</asrwt>
<pdfrwt beam="1">  1        2 0.34894853E+00 0.33475624E+04</pdfrwt>
<pdfrwt beam="2">  1       -2 0.19002436E+00 0.33475624E+04</pdfrwt>
<totfact> 0.68958552E-01</totfact>
</mgrwt>
<rwgt>
<wgt id='morphing_basis_vector_1'> +3.4119307e-05 </wgt>
<wgt id='morphing_basis_vector_2'> +2.3143997e-05 </wgt>
<wgt id='morphing_basis_vector_3'> +3.7320320e-05 </wgt>
<wgt id='morphing_basis_vector_4'> +2.6636200e-05 </wgt>
<wgt id='morphing_basis_vector_5'> +4.2582745e-05 </wgt>
</rwgt>
</event>
<event>
 4      1 +1.9882500e-09 3.69843300e+03 7.81860800e-03 7.59714800e-02
        2 -1    0    0  501    0 +0.0000000000e+00 +0.0000000000e+00 +3.4964654065e+03 3.4964654065e+03 0.0000000000e+00 0.0000e+00 -1.0000e+00
       -2 -1    0    0    0  501 -0.0000000000e+00 -0.0000000000e+00 -9.7801661951e+02 9.7801661951e+02 0.0000000000e+00 0.0000e+00 1.0000e+00
      -13  1    1    2    0    0 +1.5820850146e+03 +3.6733415192e+02 +1.8958388011e+02 1.6351970585e+03 0.0000000000e+00 0.0000e+00 1.0000e+00
       13  1    1    2    0    0 -1.5820850146e+03 -3.6733415192e+02 +2.3288649069e+03 2.8392849676e+03 0.0000000000e+00 0.0000e+00 -1.0000e+00
<mgrwt>
<rscale>  0 0.36984328E+04</rscale>
<asrwt>0</asrwt>
<pdfrwt beam="1">  1        2 0.53791775E+00 0.36984328E+04</pdfrwt>
<pdfrwt beam="2">  1       -2 0.15046410E+00 0.36984328E+04</pdfrwt>
<totfact> 0.22133373E-01</totfact>
</mgrwt>
<rwgt>
<wgt id='morphing_basis_vector_1'> +5.0896407e-05 </wgt>
<wgt id='morphing_basis_vector_2'> +3.5022673e-05 </wgt>
<wgt id='morphing_basis_vector_3'> +5.5906802e-05 </wgt>
<wgt id='morphing_basis_vector_4'> +3.9370904e-05 </wgt>
<wgt id='morphing_basis_vector_5'> +6.3572494e-05 </wgt>
</rwgt>
</event>
<event>
 4      1 +1.9882500e-09 3.33070600e+03 7.81860800e-03 7.67390300e-02
        2 -1    0    0  501    0 +0.0000000000e+00 +0.0000000000e+00 +2.6252640965e+03 2.6252640965e+03 0.0000000000e+00 0.0000e+00 -1.0000e+00
       -2 -1    0    0    0  501 -0.0000000000e+00 -0.0000000000e+00 -1.0564275499e+03 1.0564275499e+03 0.0000000000e+00 0.0000e+00 1.0000e+00
      -13  1    1    2    0    0 -1.1958664704e+02 +1.6504537976e+03 +9.9151859895e+02 1.9290950822e+03 0.0000000000e+00 0.0000e+00 1.0000e+00
       13  1    1    2    0    0 +1.1958664704e+02 -1.6504537976e+03 +5.7731794770e+02 1.7525965642e+03 0.0000000000e+00 0.0000e+00 -1.0000e+00
<mgrwt>
<rscale>  0 0.33307064E+04</rscale>
<asrwt>0</asrwt>
<pdfrwt beam="1">  1        2 0.40388678E+00 0.33307064E+04</pdfrwt>
<pdfrwt beam="2">  1       -2 0.16252732E+00 0.33307064E+04</pdfrwt>
<totfact> 0.68936461E-01</totfact>
</mgrwt>
<rwgt>
<wgt id='morphing_basis_vector_1'> +3.5229590e-05 </wgt>
<wgt id='morphing_basis_vector_2'> +2.7942298e-05 </wgt>
<wgt id='morphing_basis_vector_3'> +3.9402411e-05 </wgt>
<wgt id='morphing_basis_vector_4'> +2.2353230e-05 </wgt>
<wgt id='morphing_basis_vector_5'> +4.1415759e-05 </wgt>
</rwgt>
</event>
<event>
 4      1 +1.9882500e-09 3.51156800e+03 7.81860800e-03 7.63494600e-02
        2 -1    0    0  501    0 +0.0000000000e+00 +0.0000000000e+00 +1.3347052086e+03 1.3347052086e+03 0.0000000000e+00 0.0000e+00 1.0000e+00
       -2 -1    0    0    0  501 -0.0000000000e+00 -0.0000000000e+00 -2.3097070061e+03 2.3097070061e+03 0.0000000000e+00 0.0000e+00 -1.0000e+00
      -13  1    1    2    0    0 +4.6853330285e+02 -1.4938991419e+02 -2.2367722713e+03 2.2901945324e+03 0.0000000000e+00 0.0000e+00 -1.0000e+00
       13  1    1    2    0    0 -4.6853330285e+02 +1.4938991419e+02 +1.2617704739e+03 1.3542176823e+03 0.0000000000e+00 0.0000e+00 1.0000e+00
<mgrwt>
<rscale>  0 0.35115683E+04</rscale>
<asrwt>0</asrwt>
<pdfrwt beam="1">  1        2 0.20533927E+00 0.35115683E+04</pdfrwt>
<pdfrwt beam="2">  1       -2 0.35533953E+00 0.35115683E+04</pdfrwt>
<totfact> 0.16707782E-01</totfact>
</mgrwt>
<rwgt>
<wgt id='morphing_basis_vector_1'> +4.1211832e-05 </wgt>
<wgt id='morphing_basis_vector_2'> +2.7872198e-05 </wgt>
<wgt id='morphing_basis_vector_3'> +4.5111373e-05 </wgt>
<wgt id='morphing_basis_vector_4'> +3.2390817e-05 </wgt>
<wgt id='morphing_basis_vector_5'> +5.1636169e-05 </wgt>
</rwgt>
</event>
<event>
 4      1 +1.9882500e-09 3.34511700e+03 7.81860800e-03 7.67070700e-02
        2 -1    0    0  501    0 +0.0000000000e+00 +0.0000000000e+00 +3.4608915335e+03 3.4608915335e+03 0.0000000000e+00 0.0000e+00 1.0000e+00
       -2 -1    0    0    0  501 -0.0000000000e+00 -0.0000000000e+00 -8.0830397786e+02 8.0830397786e+02 0.0000000000e+00 0.0000e+00 -1.0000e+00
      -13  1    1    2    0    0 +1.1056966072e+03 -7.1252433806e+02 +7.8643530743e+00 1.3154154353e+03 0.0000000000e+00 0.0000e+00 -1.0000e+00
       13  1    1    2    0    0 -1.1056966072e+03 +7.1252433806e+02 +2.6447232025e+03 2.9537800760e+03 0.0000000000e+00 0.0000e+00 1.0000e+00
<mgrwt>
<rscale>  0 0.33451173E+04</rscale>
<asrwt>0</asrwt>
<pdfrwt beam="1">  1        2 0.53244484E+00 0.33451173E+04</pdfrwt>
<pdfrwt beam="2">  1       -2 0.12435446E+00 0.33451173E+04</pdfrwt>
<totfact> 0.40784186E-01</totfact>
</mgrwt>
<rwgt>
<wgt id='morphing_basis_vector_1'> +3.4058558e-05 </wgt>
<wgt id='morphing_basis_vector_2'> +2.3188761e-05 </wgt>
<wgt id='morphing_basis_vector_3'> +3.7271756e-05 </wgt>
<wgt id='morphing_basis_vector_4'> +2.6478039e-05 </wgt>
<wgt id='morphing_basis_vector_5'> +4.2450983e-05 </wgt>
</rwgt>
</event>
<event>
 4      1 +1.9882500e-09 3.68966900e+03 7.81860800e-03 7.59886900e-02
        2 -1    0    0  501    0 +0.0000000000e+00 +0.0000000000e+00 +3.7934348119e+03 3.7934348119e+03 0.0000000000e+00 0.0000e+00 1.0000e+00
       -2 -1    0    0    0  501 -0.0000000000e+00 -0.0000000000e+00 -8.9718536380e+02 8.9718536380e+02 0.0000000000e+00 0.0000e+00 -1.0000e+00
      -13  1    1    2    0    0 +8.7045128240e+02 -2.0397302223e+02 -6.0338546902e+02 1.0785937386e+03 0.0000000000e+00 0.0000e+00 -1.0000e+00
       13  1    1    2    0    0 -8.7045128240e+02 +2.0397302223e+02 +3.4996349171e+03 3.6120264371e+03 0.0000000000e+00 0.0000e+00 1.0000e+00
<mgrwt>
<rscale>  0 0.36896689E+04</rscale>
<asrwt>0</asrwt>
<pdfrwt beam="1">  1        2 0.58360535E+00 0.36896689E+04</pdfrwt>
<pdfrwt beam="2">  1       -2 0.13802852E+00 0.36896689E+04</pdfrwt>
<totfact> 0.16734775E-01</totfact>
</mgrwt>
<rwgt>
<wgt id='morphing_basis_vector_1'> +5.0175893e-05 </wgt>
<wgt id='morphing_basis_vector_2'> +3.3979070e-05 </wgt>
<wgt id='morphing_basis_vector_3'> +5.4991730e-05 </wgt>
<wgt id='morphing_basis_vector_4'> +3.9508444e-05 </wgt>
<wgt id='morphing_basis_vector_5'> +6.3011071e-05 </wgt>
</rwgt>
</event>
<event>
 4      1 +1.9882500e-09 3.68003200e+03 7.81860800e-03 7.60076800e-02
        2 -1    0    0  501    0 +0.0000000000e+00 +0.0000000000e+00 +3.5054934974e+03 3.5054934974e+03 0.0000000000e+00 0.0000e+00 -1.0000e+00
       -2 -1    0    0    0  501 -0.0000000000e+00 -0.0000000000e+00 -9.6581517784e+02 9.6581517784e+02 0.0000000000e+00 0.0000e+00 1.0000e+00
      -13  1    1    2    0    0 -1.3370776041e+03 +1.2309646741e+03 +1.6190557309e+03 2.4340073968e+03 0.0000000000e+00 0.0000e+00 1.0000e+00
       13  1    1    2    0    0 +1.3370776041e+03 -1.2309646741e+03 +9.2062258863e+02 2.0373012784e+03 0.0000000000e+00 0.0000e+00 -1.0000e+00
<mgrwt>
<rscale>  0 0.36800320E+04</rscale>
<asrwt>0</asrwt>
<pdfrwt beam="1">  1        2 0.53930669E+00 0.36800320E+04</pdfrwt>
<pdfrwt beam="2">  1       -2 0.14858695E+00 0.36800320E+04</pdfrwt>
<totfact> 0.22629141E-01</totfact>
</mgrwt>
<rwgt>
<wgt id='morphing_basis_vector_1'> +5.2800907e-05 </wgt>
<wgt id='morphing_basis_vector_2'> +4.2872081e-05 </wgt>
<wgt id='morphing_basis_vector_3'> +5.9435272e-05 </wgt>
<wgt id='morphing_basis_vector_4'> +3.2469083e-05 </wgt>
<wgt id='morphing_basis_vector_5'> +6.1801235e-05 </wgt>
</rwgt>
</event>
<event>
 4      1 +1.9882500e-09 3.44464300e+03 7.81860800e-03 7.64907500e-02
        2 -1    0    0  501    0 +0.0000000000e+00 +0.0000000000e+00 +2.8649571228e+03 2.8649571228e+03 0.0000000000e+00 0.0000e+00 1.0000e+00
       -2 -1    0    0    0  501 -0.0000000000e+00 -0.0000000000e+00 -1.0354050708e+03 1.0354050708e+03 0.0000000000e+00 0.0000e+00 -1.0000e+00
      -13  1    1    2    0    0 +6.2622432926e+02 +2.6807359482e+02 +2.7059450273e+03 2.7903689458e+03 0.0000000000e+00 0.0000e+00 1.0000e+00
       13  1    1    2    0    0 -6.2622432926e+02 -2.6807359482e+02 -8.7639297536e+02 1.1099932478e+03 0.0000000000e+00 0.0000e+00 -1.0000e+00
<mgrwt>
<rscale>  0 0.34446429E+04</rscale>
<asrwt>0</asrwt>
<pdfrwt beam="1">  1        2 0.44076263E+00 0.34446429E+04</pdfrwt>
<pdfrwt beam="2">  1       -2 0.15929309E+00 0.34446429E+04</pdfrwt>
<totfact> 0.51420263E-01</totfact>
</mgrwt>
<rwgt>
<wgt id='morphing_basis_vector_1'> +5.2104914e-05 </wgt>
<wgt id='morphing_basis_vector_2'> +6.6783342e-05 </wgt>
<wgt id='morphing_basis_vector_3'> +6.3869391e-05 </wgt>
<wgt id='morphing_basis_vector_4'> +7.2694918e-07 </wgt>
<wgt id='morphing_basis_vector_5'> +4.5364524e-05 </wgt>
</rwgt>
</event>
<event>
 4      1 +1.9882500e-09 3.80735000e+03 7.81860800e-03 7.57615600e-02
        2 -1    0    0  501    0 +0.0000000000e+00 +0.0000000000e+00 +4.2290949234e+03 4.2290949234e+03 0.0000000000e+00 0.0000e+00 -1.0000e+00
       -2 -1    0    0    0  501 -0.0000000000e+00 -0.0000000000e+00 -8.5691565851e+02 8.5691565851e+02 0.0000000000e+00 0.0000e+00 1.0000e+00
      -13  1    1    2    0    0 -1.4932282769e+03 +1.0431398451e+02 +1.1492031810e+02 1.5012723849e+03 0.0000000000e+00 0.0000e+00 1.0000e+00
       13  1    1    2    0    0 +1.4932282769e+03 -1.0431398451e+02 +3.2572589468e+03 3.5847381969e+03 0.0000000000e+00 0.0000e+00 -1.0000e+00
<mgrwt>
<rscale>  0 0.38073496E+04</rscale>
<asrwt>0</asrwt>
<pdfrwt beam="1">  1        2 0.65062998E+00 0.38073496E+04</pdfrwt>
<pdfrwt beam="2">  1       -2 0.13183318E+00 0.38073496E+04</pdfrwt>
<totfact> 0.79594479E-02</totfact>
</mgrwt>
<rwgt>
<wgt id='morphing_basis_vector_1'> +5.6966723e-05 </wgt>
<wgt id='morphing_basis_vector_2'> +3.8862567e-05 </wgt>
<wgt id='morphing_basis_vector_3'> +6.2536396e-05 </wgt>
<wgt id='morphing_basis_vector_4'> +4.4576512e-05 </wgt>
<wgt id='morphing_basis_vector_5'> +7.1472788e-05 </wgt>
</rwgt>
</event>
<event>
 4      1 +1.9882500e-09 3.25086500e+03 7.81860800e-03 7.69191900e-02
        2 -1    0    0  501    0 +0.0000000000e+00 +0.0000000000e+00 +2.4161561362e+03 2.4161561362e+03 0.0000000000e+00 0.0000e+00 -1.0000e+00
       -2 -1    0    0    0  501 -0.0000000000e+00 -0.0000000000e+00 -1.0934851804e+03 1.0934851804e+03 0.0000000000e+00 0.0000e+00 1.0000e+00
      -13  1    1    2    0    0 +1.2087742368e+03 -5.5913970573e+02 -3.4464216087e+02 1.3757000345e+03 0.0000000000e+00 0.0000e+00 1.0000e+00
       13  1    1    2    0    0 -1.2087742368e+03 +5.5913970573e+02 +1.6673131167e+03 2.1339412820e+03 0.0000000000e+00 0.0000e+00 -1.0000e+00
<mgrwt>
<rscale>  0 0.32508651E+04</rscale>
<asrwt>0</asrwt>
<pdfrwt beam="1">  1        2 0.37171633E+00 0.32508651E+04</pdfrwt>
<pdfrwt beam="2">  1       -2 0.16822849E+00 0.32508651E+04</pdfrwt>
<totfact> 0.83514520E-01</totfact>
</mgrwt>
<rwgt>
<wgt id='morphing_basis_vector_1'> +3.0426955e-05 </wgt>
<wgt id='morphing_basis_vector_2'> +2.0754480e-05 </wgt>
<wgt id='morphing_basis_vector_3'> +3.3281214e-05 </wgt>
<wgt id='morphing_basis_vector_4'> +2.3553178e-05 </wgt>
<wgt id='morphing_basis_vector_5'> +3.7829618e-05 </wgt>
</rwgt>
</event>
<event>
 4      1 +1.9882500e-09 3.62458600e+03 7.81860800e-03 7.61180600e-02
        2 -1    0    0  501    0 +0.0000000000e+00 +0.0000000000e+00 +1.7203706979e+03 1.7203706979e+03 0.0000000000e+00 0.0000e+00 -1.0000e+00
       -2 -1    0    0    0  501 -0.0000000000e+00 -0.0000000000e+00 -1.9091272564e+03 1.9091272564e+03 0.0000000000e+00 0.0000e+00 1.0000e+00
      -13  1    1    2    0    0 -2.2641350750e+02 +1.6158848357e+03 -8.8415465795e+02 1.8558222808e+03 0.0000000000e+00 0.0000e+00 1.0000e+00
       13  1    1    2    0    0 +2.2641350750e+02 -1.6158848357e+03 +6.9539809944e+02 1.7736756736e+03 0.0000000000e+00 0.0000e+00 -1.0000e+00
<mgrwt>
<rscale>  0 0.36245864E+04</rscale>
<asrwt>0</asrwt>
<pdfrwt beam="1">  1        2 0.26467242E+00 0.36245864E+04</pdfrwt>
<pdfrwt beam="2">  1       -2 0.29371188E+00 0.36245864E+04</pdfrwt>
<totfact> 0.25791488E-01</totfact>
</mgrwt>
<rwgt>
<wgt id='morphing_basis_vector_1'> +4.7030578e-05 </wgt>
<wgt id='morphing_basis_vector_2'> +3.2479061e-05 </wgt>
<wgt id='morphing_basis_vector_3'> +5.1664000e-05 </wgt>
<wgt id='morphing_basis_vector_4'> +3.6184790e-05 </wgt>
<wgt id='morphing_basis_vector_5'> +5.8607370e-05 </wgt>
</rwgt>
</event>
<event>
 4      1 +1.9882500e-09 3.66307900e+03 7.81860800e-03 7.60412100e-02
        2 -1    0    0  501    0 +0.0000000000e+00 +0.0000000000e+00 +3.5328666073e+03 3.5328666073e+03 0.0000000000e+00 0.0000e+00 1.0000e+00
       -2 -1    0    0    0  501 -0.0000000000e+00 -0.0000000000e+00 -9.4952251722e+02 9.4952251722e+02 0.0000000000e+00 0.0000e+00 -1.0000e+00
      -13  1    1    2    0    0 -1.2240750034e+02 +1.4474926884e+03 -7.3316315627e+01 1.4545081509e+03 0.0000000000e+00 0.0000e+00 -1.0000e+00
       13  1    1    2    0    0 +1.2240750034e+02 -1.4474926884e+03 +2.6566604058e+03 3.0278809736e+03 0.0000000000e+00 0.0000e+00 1.0000e+00
<mgrwt>
<rscale>  0 0.36630787E+04</rscale>
<asrwt>0</asrwt>
<pdfrwt beam="1">  1        2 0.54351794E+00 0.36630787E+04</pdfrwt>
<pdfrwt beam="2">  1       -2 0.14608039E+00 0.36630787E+04</pdfrwt>
<totfact> 0.22701390E-01</totfact>
</mgrwt>
<rwgt>
<wgt id='morphing_basis_vector_1'> +4.8861415e-05 </wgt>
<wgt id='morphing_basis_vector_2'> +3.3329472e-05 </wgt>
<wgt id='morphing_basis_vector_3'> +5.3596139e-05 </wgt>
<wgt id='morphing_basis_vector_4'> +3.8148265e-05 </wgt>
<wgt id='morphing_basis_vector_5'> +6.1184933e-05 </wgt>
</rwgt>
</event>
<event>
 4      1 +1.9882500e-09 3.62940400e+03 7.81860800e-03 7.61083900e-02
        2 -1    0    0  501    0 +0.0000000000e+00 +0.0000000000e+00 +1.7671274935e+03 1.7671274935e+03 0.0000000000e+00 0.0000e+00 -1.0000e+00
       -2 -1    0    0    0  501 -0.0000000000e+00 -0.0000000000e+00 -1.8635572234e+03 1.8635572234e+03 0.0000000000e+00 0.0000e+00 1.0000e+00
      -13  1    1    2    0    0 -9.7630911013e+02 -5.7409977471e+01 -1.5773706143e+03 1.8559562061e+03 0.0000000000e+00 0.0000e+00 1.0000e+00
       13  1    1    2    0    0 +9.7630911013e+02 +5.7409977471e+01 +1.4809408844e+03 1.7747285108e+03 0.0000000000e+00 0.0000e+00 -1.0000e+00
<mgrwt>
<rscale>  0 0.36294039E+04</rscale>
<asrwt>0</asrwt>
<pdfrwt beam="1">  1        2 0.27186577E+00 0.36294039E+04</pdfrwt>
<pdfrwt beam="2">  1       -2 0.28670111E+00 0.36294039E+04</pdfrwt>
<totfact> 0.27093091E-01</totfact>
</mgrwt>
<rwgt>
<wgt id='morphing_basis_vector_1'> +4.7001568e-05 </wgt>
<wgt id='morphing_basis_vector_2'> +3.1834086e-05 </wgt>
<wgt id='morphing_basis_vector_3'> +5.1496144e-05 </wgt>
<wgt id='morphing_basis_vector_4'> +3.6964128e-05 </wgt>
<wgt id='morphing_basis_vector_5'> +5.8970062e-05 </wgt>
</rwgt>
</event>
<event>
 4      1 +1.9882500e-09 3.52889500e+03 7.81860800e-03 7.63134100e-02
        2 -1    0    0  501    0 +0.0000000000e+00 +0.0000000000e+00 +2.0141364414e+03 2.0141364414e+03 0.0000000000e+00 0.0000e+00 -1.0000e+00
       -2 -1    0    0    0  501 -0.0000000000e+00 -0.0000000000e+00 -1.5457120167e+03 1.5457120167e+03 0.0000000000e+00 0.0000e+00 1.0000e+00
      -13  1    1    2    0    0 +1.4170752407e+03 -2.4239671220e+02 -7.9770550370e+02 1.6441388246e+03 0.0000000000e+00 0.0000e+00 1.0000e+00
       13  1    1    2    0    0 -1.4170752407e+03 +2.4239671220e+02 +1.2661299284e+03 1.9157096334e+03 0.0000000000e+00 0.0000e+00 -1.0000e+00
<mgrwt>
<rscale>  0 0.35288950E+04</rscale>
<asrwt>0</asrwt>
<pdfrwt beam="1">  1        2 0.30986715E+00 0.35288950E+04</pdfrwt>
<pdfrwt beam="2">  1       -2 0.23780185E+00 0.35288950E+04</pdfrwt>
<totfact> 0.43081255E-01</totfact>
</mgrwt>
<rwgt>
<wgt id='morphing_basis_vector_1'> +4.2145492e-05 </wgt>
<wgt id='morphing_basis_vector_2'> +2.8777026e-05 </wgt>
<wgt id='morphing_basis_vector_3'> +4.6198246e-05 </wgt>
<wgt id='morphing_basis_vector_4'> +3.2787180e-05 </wgt>
<wgt id='morphing_basis_vector_5'> +5.2648649e-05 </wgt>
</rwgt>
</event>
<event>
 4      1 +1.9882500e-09 3.35718100e+03 7.81860800e-03 7.66804400e-02
        2 -1    0    0  501    0 +0.0000000000e+00 +0.0000000000e+00 +2.2930558535e+03 2.2930558535e+03 0.0000000000e+00 0.0000e+00 -1.0000e+00
       -2 -1    0    0    0  501 -0.0000000000e+00 -0.0000000000e+00 -1.2287820938e+03 1.2287820938e+03 0.0000000000e+00 0.0000e+00 1.0000e+00
      -13  1    1    2    0    0 +1.2246359284e+03 -6.8799480281e+02 -4.3195654501e+02 1.4695769672e+03 0.0000000000e+00 0.0000e+00 1.0000e+00
       13  1    1    2    0    0 -1.2246359284e+03 +6.8799480281e+02 +1.4962303046e+03 2.0522609801e+03 0.0000000000e+00 0.0000e+00 -1.0000e+00
<mgrwt>
<rscale>  0 0.33571809E+04</rscale>
<asrwt>0</asrwt>
<pdfrwt beam="1">  1        2 0.35277782E+00 0.33571809E+04</pdfrwt>
<pdfrwt beam="2">  1       -2 0.18904340E+00 0.33571809E+04</pdfrwt>
<totfact> 0.67785103E-01</totfact>
</mgrwt>
<rwgt>
<wgt id='morphing_basis_vector_1'> +3.4589943e-05 </wgt>
<wgt id='morphing_basis_vector_2'> +2.3644830e-05 </wgt>
<wgt id='morphing_basis_vector_3'> +3.7877050e-05 </wgt>
<wgt id='morphing_basis_vector_4'> +2.6778671e-05 </wgt>
<wgt id='morphing_basis_vector_5'> +4.3063951e-05 </wgt>
</rwgt>
</event>
<event>
 4      1 +1.9882500e-09 3.25153300e+03 7.81860800e-03 7.69176600e-02
        2 -1    0    0  501    0 +0.0000000000e+00 +0.0000000000e+00 +2.6246131671e+03 2.6246131671e+03 0.0000000000e+00 0.0000e+00 1.0000e+00
       -2 -1    0    0    0  501 -0.0000000000e+00 -0.0000000000e+00 -1.0070501453e+03 1.0070501453e+03 0.0000000000e+00 0.0000e+00 -1.0000e+00
      -13  1    1    2    0    0 +1.5610907822e+03 +3.0002607620e+02 +4.2821736320e+02 1.6463262699e+03 0.0000000000e+00 0.0000e+00 -1.0000e+00
       13  1    1    2    0    0 -1.5610907822e+03 -3.0002607620e+02 +1.1893456586e+03 1.9853370425e+03 0.0000000000e+00 0.0000e+00 1.0000e+00
<mgrwt>
<rscale>  0 0.32515332E+04</rscale>
<asrwt>0</asrwt>
<pdfrwt beam="1">  1        2 0.40378664E+00 0.32515332E+04</pdfrwt>
<pdfrwt beam="2">  1       -2 0.15493079E+00 0.32515332E+04</pdfrwt>
<totfact> 0.79956191E-01</totfact>
</mgrwt>
<rwgt>
<wgt id='morphing_basis_vector_1'> +3.0866479e-05 </wgt>
<wgt id='morphing_basis_vector_2'> +2.1992019e-05 </wgt>
<wgt id='morphing_basis_vector_3'> +3.3963166e-05 </wgt>
<wgt id='morphing_basis_vector_4'> +2.2704612e-05 </wgt>
<wgt id='morphing_basis_vector_5'> +3.7789285e-05 </wgt>
</rwgt>
</event>
<event>
 4      1 +1.9882500e-09 3.25219100e+03 7.81860800e-03 7.69161600e-02
        2 -1    0    0  501    0 +0.0000000000e+00 +0.0000000000e+00 +1.9243242488e+03 1.9243242488e+03 0.0000000000e+00 0.0000e+00 -1.0000e+00
       -2 -1    0    0    0  501 -0.0000000000e+00 -0.0000000000e+00 -1.3740856699e+03 1.3740856699e+03 0.0000000000e+00 0.0000e+00 1.0000e+00
      -13  1    1    2    0    0 -1.5124835569e+03 +1.8061521285e+02 -3.0214269973e+02 1.5529064930e+03 0.0000000000e+00 0.0000e+00 1.0000e+00
       13  1    1    2    0    0 +1.5124835569e+03 -1.8061521285e+02 +8.5238127860e+02 1.7455034257e+03 0.0000000000e+00 0.0000e+00 -1.0000e+00
<mgrwt>
<rscale>  0 0.32521909E+04</rscale>
<asrwt>0</asrwt>
<pdfrwt beam="1">  1        2 0.29604988E+00 0.32521909E+04</pdfrwt>
<pdfrwt beam="2">  1       -2 0.21139780E+00 0.32521909E+04</pdfrwt>
<totfact> 0.76078113E-01</totfact>
</mgrwt>
<rwgt>
<wgt id='morphing_basis_vector_1'> +3.0665924e-05 </wgt>
<wgt id='morphing_basis_vector_2'> +2.1346536e-05 </wgt>
<wgt id='morphing_basis_vector_3'> +3.3634941e-05 </wgt>
<wgt id='morphing_basis_vector_4'> +2.3194831e-05 </wgt>
<wgt id='morphing_basis_vector_5'> +3.7859046e-05 </wgt>
</rwgt>
</event>
<event>
 4      1 +1.9882500e-09 3.29291300e+03 7.81860800e-03 7.68236600e-02
        2 -1    0    0  501    0 +0.0000000000e+00 +0.0000000000e+00 +2.3417218618e+03 2.3417218618e+03 0.0000000000e+00 0.0000e+00 -1.0000e+00
       -2 -1    0    0    0  501 -0.0000000000e+00 -0.0000000000e+00 -1.1576176383e+03 1.1576176383e+03 0.0000000000e+00 0.0000e+00 1.0000e+00
      -13  1    1    2    0    0 +1.3895723909e+03 +8.5522592182e+02 +3.5802962764e+02 1.6704813741e+03 0.0000000000e+00 0.0000e+00 1.0000e+00
       13  1    1    2    0    0 -1.3895723909e+03 -8.5522592182e+02 +8.2607459587e+02 1.8288581260e+03 0.0000000000e+00 0.0000e+00 -1.0000e+00
<mgrwt>
<rscale>  0 0.32929127E+04</rscale>
<asrwt>0</asrwt>
<pdfrwt beam="1">  1        2 0.36026490E+00 0.32929127E+04</pdfrwt>
<pdfrwt beam="2">  1       -2 0.17809502E+00 0.32929127E+04</pdfrwt>
<totfact> 0.77197661E-01</totfact>
</mgrwt>
<rwgt>
<wgt id='morphing_basis_vector_1'> +3.2638675e-05 </wgt>
<wgt id='morphing_basis_vector_2'> +2.3668266e-05 </wgt>
<wgt id='morphing_basis_vector_3'> +3.6014659e-05 </wgt>
<wgt id='morphing_basis_vector_4'> +2.3507486e-05 </wgt>
<wgt id='morphing_basis_vector_5'> +3.9733143e-05 </wgt>
</rwgt>
</event>
<event>
 4      1 +1.9882500e-09 3.60564100e+03 7.81860800e-03 7.61562400e-02
        2 -1    0    0  501    0 +0.0000000000e+00 +0.0000000000e+00 +3.0676210962e+03 3.0676210962e+03 0.0000000000e+00 0.0000e+00 1.0000e+00
       -2 -1    0    0    0  501 -0.0000000000e+00 -0.0000000000e+00 -1.0595055854e+03 1.0595055854e+03 0.0000000000e+00 0.0000e+00 -1.0000e+00
      -13  1    1    2    0    0 +9.0484529085e+02 -1.5562478218e+03 +1.1156777324e+03 2.1178737181e+03 0.0000000000e+00 0.0000e+00 1.0000e+00
       13  1    1    2    0    0 -9.0484529085e+02 +1.5562478218e+03 +8.9243777828e+02 2.0092529635e+03 0.0000000000e+00 0.0000e+00 -1.0000e+00
<mgrwt>
<rscale>  0 0.36056410E+04</rscale>
<asrwt>0</asrwt>
<pdfrwt beam="1">  1        2 0.47194170E+00 0.36056410E+04</pdfrwt>
<pdfrwt beam="2">  1       -2 0.16300086E+00 0.36056410E+04</pdfrwt>
<totfact> 0.35035796E-01</totfact>
</mgrwt>
<rwgt>
<wgt id='morphing_basis_vector_1'> +4.7817539e-05 </wgt>
<wgt id='morphing_basis_vector_2'> +3.6973171e-05 </wgt>
<wgt id='morphing_basis_vector_3'> +5.3390347e-05 </wgt>
<wgt id='morphing_basis_vector_4'> +3.1731682e-05 </wgt>
<wgt id='morphing_basis_vector_5'> +5.7077429e-05 </wgt>
</rwgt>
</event>
<event>
 4      1 +1.9882500e-09 3.23968600e+03 7.81860800e-03 7.69448500e-02
        2 -1    0    0  501    0 +0.0000000000e+00 +0.0000000000e+00 +2.2881776708e+03 2.2881776708e+03 0.0000000000e+00 0.0000e+00 -1.0000e+00
       -2 -1    0    0    0  501 -0.0000000000e+00 -0.0000000000e+00 -1.1467164118e+03 1.1467164118e+03 0.0000000000e+00 0.0000e+00 1.0000e+00
      -13  1    1    2    0    0 +4.8587356185e+02 -9.3666948273e+02 -7.3233485139e+02 1.2844209483e+03 0.0000000000e+00 0.0000e+00 1.0000e+00
       13  1    1    2    0    0 -4.8587356185e+02 +9.3666948273e+02 +1.8737961104e+03 2.1504731343e+03 0.0000000000e+00 0.0000e+00 -1.0000e+00
<mgrwt>
<rscale>  0 0.32396857E+04</rscale>
<asrwt>0</asrwt>
<pdfrwt beam="1">  1        2 0.35202733E+00 0.32396857E+04</pdfrwt>
<pdfrwt beam="2">  1       -2 0.17641791E+00 0.32396857E+04</pdfrwt>
<totfact> 0.85801797E-01</totfact>
</mgrwt>
<rwgt>
<wgt id='morphing_basis_vector_1'> +2.9947628e-05 </wgt>
<wgt id='morphing_basis_vector_2'> +2.0276654e-05 </wgt>
<wgt id='morphing_basis_vector_3'> +3.2721603e-05 </wgt>
<wgt id='morphing_basis_vector_4'> +2.3366947e-05 </wgt>
<wgt id='morphing_basis_vector_5'> +3.7319474e-05 </wgt>
</rwgt>
</event>
<event>
 4      1 +1.9882500e-09 3.34260200e+03 7.81860800e-03 7.67126400e-02
        2 -1    0    0  501    0 +0.0000000000e+00 +0.0000000000e+00 +2.6879987744e+03 2.6879987744e+03 0.0000000000e+00 0.0000e+00 1.0000e+00
       -2 -1    0    0    0  501 -0.0000000000e+00 -0.0000000000e+00 -1.0391548118e+03 1.0391548118e+03 0.0000000000e+00 0.0000e+00 -1.0000e+00
      -13  1    1    2    0    0 -1.4122062782e+03 +8.6608184031e+02 +1.0708004731e+03 1.9725714130e+03 0.0000000000e+00 0.0000e+00 -1.0000e+00
       13  1    1    2    0    0 +1.4122062782e+03 -8.6608184031e+02 +5.7804348964e+02 1.7545821732e+03 0.0000000000e+00 0.0000e+00 1.0000e+00
<mgrwt>
<rscale>  0 0.33426019E+04</rscale>
<asrwt>0</asrwt>
<pdfrwt beam="1">  1        2 0.41353827E+00 0.33426019E+04</pdfrwt>
<pdfrwt beam="2">  1       -2 0.15986997E+00 0.33426019E+04</pdfrwt>
<totfact> 0.66190855E-01</totfact>
</mgrwt>
<rwgt>
<wgt id='morphing_basis_vector_1'> +3.5861787e-05 </wgt>
<wgt id='morphing_basis_vector_2'> +2.8724359e-05 </wgt>
<wgt id='morphing_basis_vector_3'> +4.0174372e-05 </wgt>
<wgt id='morphing_basis_vector_4'> +2.2404032e-05 </wgt>
<wgt id='morphing_basis_vector_5'> +4.1992289e-05 </wgt>
</rwgt>
</event>
<event>
 4      1 +1.9882500e-09 3.30530900e+03 7.81860800e-03 7.67957700e-02
        2 -1    0    0  501    0 +0.0000000000e+00 +0.0000000000e+00 +2.7268050861e+03 2.7268050861e+03 0.0000000000e+00 0.0000e+00 1.0000e+00
       -2 -1    0    0    0  501 -0.0000000000e+00 -0.0000000000e+00 -1.0016363857e+03 1.0016363857e+03 0.0000000000e+00 0.0000e+00 -1.0000e+00
      -13  1    1    2    0    0 -1.5208354585e+03 -3.3743281689e+01 +1.3399773057e+02 1.5271000271e+03 0.0000000000e+00 0.0000e+00 -1.0000e+00
       13  1    1    2    0    0 +1.5208354585e+03 +3.3743281689e+01 +1.5911709698e+03 2.2013414447e+03 0.0000000000e+00 0.0000e+00 1.0000e+00
<mgrwt>
<rscale>  0 0.33053092E+04</rscale>
<asrwt>0</asrwt>
<pdfrwt beam="1">  1        2 0.41950847E+00 0.33053092E+04</pdfrwt>
<pdfrwt beam="2">  1       -2 0.15409791E+00 0.33053092E+04</pdfrwt>
<totfact> 0.69973113E-01</totfact>
</mgrwt>
<rwgt>
<wgt id='morphing_basis_vector_1'> +3.2652475e-05 </wgt>
<wgt id='morphing_basis_vector_2'> +2.2622483e-05 </wgt>
<wgt id='morphing_basis_vector_3'> +3.5806358e-05 </wgt>
<wgt id='morphing_basis_vector_4'> +2.4864937e-05 </wgt>
<wgt id='morphing_basis_vector_5'> +4.0421807e-05 </wgt>
</rwgt>
</event>
<event>
 4      1 +1.9882500e-09 3.27143100e+03 7.81860800e-03 7.68722800e-02
        2 -1    0    0  501    0 +0.0000000000e+00 +0.0000000000e+00 +2.0884427529e+03 2.0884427529e+03 0.0000000000e+00 0.0000e+00 -1.0000e+00
       -2 -1    0    0    0  501 -0.0000000000e+00 -0.0000000000e+00 -1.2811295071e+03 1.2811295071e+03 0.0000000000e+00 0.0000e+00 1.0000e+00
      -13  1    1    2    0    0 +1.0569389303e+03 -1.7548880793e+01 -8.8204413941e+02 1.3767460657e+03 0.0000000000e+00 0.0000e+00 1.0000e+00
       13  1    1    2    0    0 -1.0569389303e+03 +1.7548880793e+01 +1.6893573852e+03 1.9928261943e+03 0.0000000000e+00 0.0000e+00 -1.0000e+00
<mgrwt>
<rscale>  0 0.32714313E+04</rscale>
<asrwt>0</asrwt>
<pdfrwt beam="1">  1        2 0.32129888E+00 0.32714313E+04</pdfrwt>
<pdfrwt beam="2">  1       -2 0.19709685E+00 0.32714313E+04</pdfrwt>
<totfact> 0.77952881E-01</totfact>
</mgrwt>
<rwgt>
<wgt id='morphing_basis_vector_1'> +3.1128470e-05 </wgt>
<wgt id='morphing_basis_vector_2'> +2.1077753e-05 </wgt>
<wgt id='morphing_basis_vector_3'> +3.4020882e-05 </wgt>
<wgt id='morphing_basis_vector_4'> +2.4305362e-05 </wgt>
<wgt id='morphing_basis_vector_5'> +3.8815423e-05 </wgt>
</rwgt>
</event>
<event>
 4      1 +1.9882500e-09 3.44337100e+03 7.81860800e-03 7.64934600e-02
        2 -1    0    0  501    0 +0.0000000000e+00 +0.0000000000e+00 +1.3933391870e+03 1.3933391870e+03 0.0000000000e+00 0.0000e+00 1.0000e+00
       -2 -1    0    0    0  501 -0.0000000000e+00 -0.0000000000e+00 -2.1274085883e+03 2.1274085883e+03 0.0000000000e+00 0.0000e+00 -1.0000e+00
      -13  1    1    2    0    0 -1.4951280731e+03 -5.4849588530e+02 -1.0359106109e+03 1.8998332782e+03 0.0000000000e+00 0.0000e+00 -1.0000e+00
       13  1    1    2    0    0 +1.4951280731e+03 +5.4849588530e+02 +3.0184120961e+02 1.6209144971e+03 0.0000000000e+00 0.0000e+00 1.0000e+00
<mgrwt>
<rscale>  0 0.34433715E+04</rscale>
<asrwt>0</asrwt>
<pdfrwt beam="1">  1        2 0.21435987E+00 0.34433715E+04</pdfrwt>
<pdfrwt beam="2">  1       -2 0.32729363E+00 0.34433715E+04</pdfrwt>
<totfact> 0.23764189E-01</totfact>
</mgrwt>
<rwgt>
<wgt id='morphing_basis_vector_1'> +3.8429245e-05 </wgt>
<wgt id='morphing_basis_vector_2'> +2.6676577e-05 </wgt>
<wgt id='morphing_basis_vector_3'> +4.2195759e-05 </wgt>
<wgt id='morphing_basis_vector_4'> +2.9288079e-05 </wgt>
<wgt id='morphing_basis_vector_5'> +4.7662339e-05 </wgt>
</rwgt>
</event>
<event>
 4      1 +1.9882500e-09 3.27702300e+03 7.81860800e-03 7.68595900e-02
        2 -1    0    0  501    0 +0.0000000000e+00 +0.0000000000e+00 +2.9182277977e+03 2.9182277977e+03 0.0000000000e+00 0.0000e+00 -1.0000e+00
       -2 -1    0    0    0  501 -0.0000000000e+00 -0.0000000000e+00 -9.1998302754e+02 9.1998302754e+02 0.0000000000e+00 0.0000e+00 1.0000e+00
      -13  1    1    2    0    0 -1.4713897727e+03 +2.3981763515e+02 +2.0282819815e+02 1.5045396769e+03 0.0000000000e+00 0.0000e+00 1.0000e+00
       13  1    1    2    0    0 +1.4713897727e+03 -2.3981763515e+02 +1.7954165720e+03 2.3336711483e+03 0.0000000000e+00 0.0000e+00 -1.0000e+00
<mgrwt>
<rscale>  0 0.32770231E+04</rscale>
<asrwt>0</asrwt>
<pdfrwt beam="1">  1        2 0.44895812E+00 0.32770231E+04</pdfrwt>
<pdfrwt beam="2">  1       -2 0.14153585E+00 0.32770231E+04</pdfrwt>
<totfact> 0.67606006E-01</totfact>
</mgrwt>
<rwgt>
<wgt id='morphing_basis_vector_1'> +3.1531580e-05 </wgt>
<wgt id='morphing_basis_vector_2'> +2.1784986e-05 </wgt>
<wgt id='morphing_basis_vector_3'> +3.4556259e-05 </wgt>
<wgt id='morphing_basis_vector_4'> +2.4072399e-05 </wgt>
<wgt id='morphing_basis_vector_5'> +3.9050367e-05 </wgt>
</rwgt>
</event>
<event>
 4      1 +1.9882500e-09 3.57051300e+03 7.81860800e-03 7.62276800e-02
        2 -1    0    0  501    0 +0.0000000000e+00 +0.0000000000e+00 +1.7219202374e+03 1.7219202374e+03 0.0000000000e+00 0.0000e+00 -1.0000e+00
       -2 -1    0    0    0  501 -0.0000000000e+00 -0.0000000000e+00 -1.8509229310e+03 1.8509229310e+03 0.0000000000e+00 0.0000e+00 1.0000e+00
      -13  1    1    2    0    0 -6.1358912690e+02 +1.5598127454e+03 -6.7942182190e+02 1.8086241814e+03 0.0000000000e+00 0.0000e+00 1.0000e+00
       13  1    1    2    0    0 +6.1358912690e+02 -1.5598127454e+03 +5.5041912832e+02 1.7642189870e+03 0.0000000000e+00 0.0000e+00 -1.0000e+00
<mgrwt>
<rscale>  0 0.35705135E+04</rscale>
<asrwt>0</asrwt>
<pdfrwt beam="1">  1        2 0.26491081E+00 0.35705135E+04</pdfrwt>
<pdfrwt beam="2">  1       -2 0.28475737E+00 0.35705135E+04</pdfrwt>
<totfact> 0.29737876E-01</totfact>
</mgrwt>
<rwgt>
<wgt id='morphing_basis_vector_1'> +4.4446237e-05 </wgt>
<wgt id='morphing_basis_vector_2'> +3.1009643e-05 </wgt>
<wgt id='morphing_basis_vector_3'> +4.8878022e-05 </wgt>
<wgt id='morphing_basis_vector_4'> +3.3759972e-05 </wgt>
<wgt id='morphing_basis_vector_5'> +5.5142223e-05 </wgt>
</rwgt>
</event>
<event>
 4      1 +1.9882500e-09 3.54455200e+03 7.81860800e-03 7.62810200e-02
        2 -1    0    0  501    0 +0.0000000000e+00 +0.0000000000e+00 +3.0753750189e+03 3.0753750189e+03 0.0000000000e+00 0.0000e+00 -1.0000e+00
       -2 -1    0    0    0  501 -0.0000000000e+00 -0.0000000000e+00 -1.0213265929e+03 1.0213265929e+03 0.0000000000e+00 0.0000e+00 1.0000e+00
      -13  1    1    2    0    0 +8.9075480252e+02 +2.2149317023e+02 -7.2520675489e+02 1.1697983502e+03 0.0000000000e+00 0.0000e+00 1.0000e+00
       13  1    1    2    0    0 -8.9075480252e+02 -2.2149317023e+02 +2.7792551809e+03 2.9269032616e+03 0.0000000000e+00 0.0000e+00 -1.0000e+00
<mgrwt>
<rscale>  0 0.35445520E+04</rscale>
<asrwt>0</asrwt>
<pdfrwt beam="1">  1        2 0.47313461E+00 0.35445520E+04</pdfrwt>
<pdfrwt beam="2">  1       -2 0.15712717E+00 0.35445520E+04</pdfrwt>
<totfact> 0.38781257E-01</totfact>
</mgrwt>
<rwgt>
<wgt id='morphing_basis_vector_1'> +4.2781511e-05 </wgt>
<wgt id='morphing_basis_vector_2'> +2.8960414e-05 </wgt>
<wgt id='morphing_basis_vector_3'> +4.6845178e-05 </wgt>
<wgt id='morphing_basis_vector_4'> +3.3612140e-05 </wgt>
<wgt id='morphing_basis_vector_5'> +5.3614817e-05 </wgt>
</rwgt>
</event>
<event>
 4      1 +1.9882500e-09 3.68485000e+03 7.81860800e-03 7.59981800e-02
        2 -1    0    0  501    0 +0.0000000000e+00 +0.0000000000e+00 +3.4582503050e+03 3.4582503050e+03 0.0000000000e+00 0.0000e+00 1.0000e+00
       -2 -1    0    0    0  501 -0.0000000000e+00 -0.0000000000e+00 -9.8157454901e+02 9.8157454901e+02 0.0000000000e+00 0.0000e+00 -1.0000e+00
      -13  1    1    2    0    0 +8.6985836601e+01 -1.3517676140e+03 -2.6641397978e+02 1.3805138995e+03 0.0000000000e+00 0.0000e+00 -1.0000e+00
       13  1    1    2    0    0 -8.6985836601e+01 +1.3517676140e+03 +2.7430897357e+03 3.0593109545e+03 0.0000000000e+00 0.0000e+00 1.0000e+00
<mgrwt>
<rscale>  0 0.36848503E+04</rscale>
<asrwt>0</asrwt>
<pdfrwt beam="1">  1        2 0.53203851E+00 0.36848503E+04</pdfrwt>
<pdfrwt beam="2">  1       -2 0.15101147E+00 0.36848503E+04</pdfrwt>
<totfact> 0.23375014E-01</totfact>
</mgrwt>
<rwgt>
<wgt id='morphing_basis_vector_1'> +4.9981569e-05 </wgt>
<wgt id='morphing_basis_vector_2'> +3.3995550e-05 </wgt>
<wgt id='morphing_basis_vector_3'> +5.4809965e-05 </wgt>
<wgt id='morphing_basis_vector_4'> +3.9162816e-05 </wgt>
<wgt id='morphing_basis_vector_5'> +6.2669136e-05 </wgt>
</rwgt>
</event>
<event>
 4      1 +1.9882500e-09 3.43931200e+03 7.81860800e-03 7.65021400e-02
        2 -1    0    0  501    0 +0.0000000000e+00 +0.0000000000e+00 +2.5466591046e+03 2.5466591046e+03 0.0000000000e+00 0.0000e+00 -1.0000e+00
       -2 -1    0    0    0  501 -0.0000000000e+00 -0.0000000000e+00 -1.1612144882e+03 1.1612144882e+03 0.0000000000e+00 0.0000e+00 1.0000e+00
      -13  1    1    2    0    0 +1.5888937563e+02 -1.1513281167e+03 -6.7369134971e+02 1.3433771997e+03 0.0000000000e+00 0.0000e+00 1.0000e+00
       13  1    1    2    0    0 -1.5888937563e+02 +1.1513281167e+03 +2.0591359661e+03 2.3644963931e+03 0.0000000000e+00 0.0000e+00 -1.0000e+00
<mgrwt>
<rscale>  0 0.34393124E+04</rscale>
<asrwt>0</asrwt>
<pdfrwt beam="1">  1        2 0.39179371E+00 0.34393124E+04</pdfrwt>
<pdfrwt beam="2">  1       -2 0.17864838E+00 0.34393124E+04</pdfrwt>
<totfact> 0.57111363E-01</totfact>
</mgrwt>
<rwgt>
<wgt id='morphing_basis_vector_1'> +3.7979247e-05 </wgt>
<wgt id='morphing_basis_vector_2'> +2.5755974e-05 </wgt>
<wgt id='morphing_basis_vector_3'> +4.1568251e-05 </wgt>
<wgt id='morphing_basis_vector_4'> +2.9717122e-05 </wgt>
<wgt id='morphing_basis_vector_5'> +4.7483513e-05 </wgt>
</rwgt>
</event>
<event>
 4      1 +1.9882500e-09 3.35343600e+03 7.81860800e-03 7.66886900e-02
        2 -1    0    0  501    0 +0.0000000000e+00 +0.0000000000e+00 +2.5596586661e+03 2.5596586661e+03 0.0000000000e+00 0.0000e+00 1.0000e+00
       -2 -1    0    0    0  501 -0.0000000000e+00 -0.0000000000e+00 -1.0983429562e+03 1.0983429562e+03 0.0000000000e+00 0.0000e+00 -1.0000e+00
      -13  1    1    2    0    0 +3.3807881776e+01 -4.9045881511e+02 -1.0179574433e+03 1.1304557393e+03 0.0000000000e+00 0.0000e+00 -1.0000e+00
       13  1    1    2    0    0 -3.3807881776e+01 +4.9045881511e+02 +2.4792731532e+03 2.5275458830e+03 0.0000000000e+00 0.0000e+00 1.0000e+00
<mgrwt>
<rscale>  0 0.33534359E+04</rscale>
<asrwt>0</asrwt>
<pdfrwt beam="1">  1        2 0.39379364E+00 0.33534359E+04</pdfrwt>
<pdfrwt beam="2">  1       -2 0.16897584E+00 0.33534359E+04</pdfrwt>
<totfact> 0.67092025E-01</totfact>
</mgrwt>
<rwgt>
<wgt id='morphing_basis_vector_1'> +3.4319087e-05 </wgt>
<wgt id='morphing_basis_vector_2'> +2.3192931e-05 </wgt>
<wgt id='morphing_basis_vector_3'> +3.7521772e-05 </wgt>
<wgt id='morphing_basis_vector_4'> +2.6905785e-05 </wgt>
<wgt id='morphing_basis_vector_5'> +4.2891209e-05 </wgt>
</rwgt>
</event>
<event>
 4      1 +1.9882500e-09 3.40213100e+03 7.81860800e-03 7.65822200e-02
        2 -1    0    0  501    0 +0.0000000000e+00 +0.0000000000e+00 +2.2964145071e+03 2.2964145071e+03 0.0000000000e+00 0.0000e+00 -1.0000e+00
       -2 -1    0    0    0  501 -0.0000000000e+00 -0.0000000000e+00 -1.2600616547e+03 1.2600616547e+03 0.0000000000e+00 0.0000e+00 1.0000e+00
      -13  1    1    2    0    0 +9.9487443028e+01 +4.4092053824e+02 -1.1961350018e+03 1.2786898040e+03 0.0000000000e+00 0.0000e+00 1.0000e+00
       13  1    1    2    0    0 -9.9487443028e+01 -4.4092053824e+02 +2.2324878542e+03 2.2777863578e+03 0.0000000000e+00 0.0000e+00 -1.0000e+00
<mgrwt>
<rscale>  0 0.34021310E+04</rscale>
<asrwt>0</asrwt>
<pdfrwt beam="1">  1        2 0.35329454E+00 0.34021310E+04</pdfrwt>
<pdfrwt beam="2">  1       -2 0.19385564E+00 0.34021310E+04</pdfrwt>
<totfact> 0.61916150E-01</totfact>
</mgrwt>
<rwgt>
<wgt id='morphing_basis_vector_1'> +3.6341022e-05 </wgt>
<wgt id='morphing_basis_vector_2'> +2.4564894e-05 </wgt>
<wgt id='morphing_basis_vector_3'> +3.9747544e-05 </wgt>
<wgt id='morphing_basis_vector_4'> +2.8514658e-05 </wgt>
<wgt id='morphing_basis_vector_5'> +4.5455613e-05 </wgt>
</rwgt>
</event>
<event>
 4      1 +1.9882500e-09 3.23709200e+03 7.81860800e-03 7.69508100e-02
        2 -1    0    0  501    0 +0.0000000000e+00 +0.0000000000e+00 +2.5271980774e+03 2.5271980774e+03 0.0000000000e+00 0.0000e+00 1.0000e+00
       -2 -1    0    0    0  501 -0.0000000000e+00 -0.0000000000e+00 -1.0365987463e+03 1.0365987463e+03 0.0000000000e+00 0.0000e+00 -1.0000e+00
      -13  1    1    2    0    0 +5.3042906364e+02 -1.0237542159e+03 -5.0523871853e+02 1.2588462371e+03 0.0000000000e+00 0.0000e+00 -1.0000e+00
       13  1    1    2    0    0 -5.3042906364e+02 +1.0237542159e+03 +1.9958380496e+03 2.3049505865e+03 0.0000000000e+00 0.0000e+00 1.0000e+00
<mgrwt>
<rscale>  0 0.32370915E+04</rscale>
<asrwt>0</asrwt>
<pdfrwt beam="1">  1        2 0.38879970E+00 0.32370915E+04</pdfrwt>
<pdfrwt beam="2">  1       -2 0.15947673E+00 0.32370915E+04</pdfrwt>
<totfact> 0.84227532E-01</totfact>
</mgrwt>
<rwgt>
<wgt id='morphing_basis_vector_1'> +2.9866945e-05 </wgt>
<wgt id='morphing_basis_vector_2'> +2.0254310e-05 </wgt>
<wgt id='morphing_basis_vector_3'> +3.2639664e-05 </wgt>
<wgt id='morphing_basis_vector_4'> +2.3261548e-05 </wgt>
<wgt id='morphing_basis_vector_5'> +3.7196692e-05 </wgt>
</rwgt>
</event>
<event>
 4      1 +1.9882500e-09 3.44726400e+03 7.81860800e-03 7.64851500e-02
        2 -1    0    0  501    0 +0.0000000000e+00 +0.0000000000e+00 +3.1471209228e+03 3.1471209228e+03 0.0000000000e+00 0.0000e+00 1.0000e+00
       -2 -1    0    0    0  501 -0.0000000000e+00 -0.0000000000e+00 -9.4400787216e+02 9.4400787216e+02 0.0000000000e+00 0.0000e+00 -1.0000e+00
      -13  1    1    2    0    0 +1.1171699993e+03 -1.0964308356e+03 +2.4520306726e+02 1.5844096468e+03 0.0000000000e+00 0.0000e+00 -1.0000e+00
       13  1    1    2    0    0 -1.1171699993e+03 +1.0964308356e+03 +1.9579099833e+03 2.5067191481e+03 0.0000000000e+00 0.0000e+00 1.0000e+00
<mgrwt>
<rscale>  0 0.34472638E+04</rscale>
<asrwt>0</asrwt>
<pdfrwt beam="1">  1        2 0.48417245E+00 0.34472638E+04</pdfrwt>
<pdfrwt beam="2">  1       -2 0.14523198E+00 0.34472638E+04</pdfrwt>
<totfact> 0.43886423E-01</totfact>
</mgrwt>
<rwgt>
<wgt id='morphing_basis_vector_1'> +3.8551153e-05 </wgt>
<wgt id='morphing_basis_vector_2'> +2.6647173e-05 </wgt>
<wgt id='morphing_basis_vector_3'> +4.2305970e-05 </wgt>
<wgt id='morphing_basis_vector_4'> +2.9528599e-05 </wgt>
<wgt id='morphing_basis_vector_5'> +4.7888521e-05 </wgt>
</rwgt>
</event>
<event>
 4      1 +1.9882500e-09 3.47241300e+03 7.81860800e-03 7.64317300e-02
        2 -1    0    0  501    0 +0.0000000000e+00 +0.0000000000e+00 +2.2986273246e+03 2.2986273246e+03 0.0000000000e+00 0.0000e+00 -1.0000e+00
       -2 -1    0    0    0  501 -0.0000000000e+00 -0.0000000000e+00 -1.3113968051e+03 1.3113968051e+03 0.0000000000e+00 0.0000e+00 1.0000e+00
      -13  1    1    2    0    0 +1.4001973104e+03 +9.6534010949e+02 +1.3052014941e+02 1.7057167246e+03 0.0000000000e+00 0.0000e+00 1.0000e+00
       13  1    1    2    0    0 -1.4001973104e+03 -9.6534010949e+02 +8.5671037011e+02 1.9043074051e+03 0.0000000000e+00 0.0000e+00 -1.0000e+00
<mgrwt>
<rscale>  0 0.34724127E+04</rscale>
<asrwt>0</asrwt>
<pdfrwt beam="1">  1        2 0.35363497E+00 0.34724127E+04</pdfrwt>
<pdfrwt beam="2">  1       -2 0.20175336E+00 0.34724127E+04</pdfrwt>
<totfact> 0.53717037E-01</totfact>
</mgrwt>
<rwgt>
<wgt id='morphing_basis_vector_1'> +4.0093753e-05 </wgt>
<wgt id='morphing_basis_vector_2'> +2.8646421e-05 </wgt>
<wgt id='morphing_basis_vector_3'> +4.4209699e-05 </wgt>
<wgt id='morphing_basis_vector_4'> +2.9537365e-05 </wgt>
<wgt id='morphing_basis_vector_5'> +4.9238936e-05 </wgt>
</rwgt>
</event>
<event>
 4      1 +1.9882500e-09 3.61573400e+03 7.81860800e-03 7.61358700e-02
        2 -1    0    0  501    0 +0.0000000000e+00 +0.0000000000e+00 +2.7476171700e+03 2.7476171700e+03 0.0000000000e+00 0.0000e+00 1.0000e+00
       -2 -1    0    0    0  501 -0.0000000000e+00 -0.0000000000e+00 -1.1895339815e+03 1.1895339815e+03 0.0000000000e+00 0.0000e+00 -1.0000e+00
      -13  1    1    2    0    0 +8.9912231536e+02 +5.6117349506e+02 -8.1575022069e+02 1.3374546916e+03 0.0000000000e+00 0.0000e+00 -1.0000e+00
       13  1    1    2    0    0 -8.9912231536e+02 -5.6117349506e+02 +2.3738334092e+03 2.5996964600e+03 0.0000000000e+00 0.0000e+00 1.0000e+00
<mgrwt>
<rscale>  0 0.36157345E+04</rscale>
<asrwt>0</asrwt>
<pdfrwt beam="1">  1        2 0.42271033E+00 0.36157345E+04</pdfrwt>
<pdfrwt beam="2">  1       -2 0.18300523E+00 0.36157345E+04</pdfrwt>
<totfact> 0.39312144E-01</totfact>
</mgrwt>
<rwgt>
<wgt id='morphing_basis_vector_1'> +4.6308773e-05 </wgt>
<wgt id='morphing_basis_vector_2'> +3.1378791e-05 </wgt>
<wgt id='morphing_basis_vector_3'> +5.0736103e-05 </wgt>
<wgt id='morphing_basis_vector_4'> +3.6392534e-05 </wgt>
<wgt id='morphing_basis_vector_5'> +5.8080148e-05 </wgt>
</rwgt>
</event>
<event>
 4      1 +1.9882500e-09 3.23766400e+03 7.81860800e-03 7.69495000e-02
        2 -1    0    0  501    0 +0.0000000000e+00 +0.0000000000e+00 +1.3873348666e+03 1.3873348666e+03 0.0000000000e+00 0.0000e+00 -1.0000e+00
       -2 -1    0    0    0  501 -0.0000000000e+00 -0.0000000000e+00 -1.8889581640e+03 1.8889581640e+03 0.0000000000e+00 0.0000e+00 1.0000e+00
      -13  1    1    2    0    0 -9.6259676792e+02 +8.0794496433e+02 -1.2834028318e+03 1.7962434222e+03 0.0000000000e+00 0.0000e+00 1.0000e+00
       13  1    1    2    0    0 +9.6259676792e+02 -8.0794496433e+02 +7.8177953446e+02 1.4800496085e+03 0.0000000000e+00 0.0000e+00 -1.0000e+00
<mgrwt>
<rscale>  0 0.32376643E+04</rscale>
<asrwt>0</asrwt>
<pdfrwt beam="1">  1        2 0.21343613E+00 0.32376643E+04</pdfrwt>
<pdfrwt beam="2">  1       -2 0.29060895E+00 0.32376643E+04</pdfrwt>
<totfact> 0.42903866E-01</totfact>
</mgrwt>
<rwgt>
<wgt id='morphing_basis_vector_1'> +2.9912908e-05 </wgt>
<wgt id='morphing_basis_vector_2'> +2.0342137e-05 </wgt>
<wgt id='morphing_basis_vector_3'> +3.2702179e-05 </wgt>
<wgt id='morphing_basis_vector_4'> +2.3225856e-05 </wgt>
<wgt id='morphing_basis_vector_5'> +3.7218910e-05 </wgt>
</rwgt>
</event>
<event>
 4      1 +1.9882500e-09 3.31334400e+03 7.81860800e-03 7.67777600e-02
        2 -1    0    0  501    0 +0.0000000000e+00 +0.0000000000e+00 +1.9565965880e+03 1.9565965880e+03 0.0000000000e+00 0.0000e+00 -1.0000e+00
       -2 -1    0    0    0  501 -0.0000000000e+00 -0.0000000000e+00 -1.4027227815e+03 1.4027227815e+03 0.0000000000e+00 0.0000e+00 1.0000e+00
      -13  1    1    2    0    0 -2.6688556686e+02 +9.6923359493e+02 -1.0581187592e+03 1.4595399878e+03 0.0000000000e+00 0.0000e+00 1.0000e+00
       13  1    1    2    0    0 +2.6688556686e+02 -9.6923359493e+02 +1.6119925657e+03 1.8997793817e+03 0.0000000000e+00 0.0000e+00 -1.0000e+00
<mgrwt>
<rscale>  0 0.33133443E+04</rscale>
<asrwt>0</asrwt>
<pdfrwt beam="1">  1        2 0.30101486E+00 0.33133443E+04</pdfrwt>
<pdfrwt beam="2">  1       -2 0.21580351E+00 0.33133443E+04</pdfrwt>
<totfact> 0.67513119E-01</totfact>
</mgrwt>
<rwgt>
<wgt id='morphing_basis_vector_1'> +3.2735426e-05 </wgt>
<wgt id='morphing_basis_vector_2'> +2.2155934e-05 </wgt>
<wgt id='morphing_basis_vector_3'> +3.5786721e-05 </wgt>
<wgt id='morphing_basis_vector_4'> +2.5598304e-05 </wgt>
<wgt id='morphing_basis_vector_5'> +4.0859590e-05 </wgt>
</rwgt>
</event>
<event>
 4      1 +1.9882500e-09 3.21941900e+03 7.81860800e-03 7.69916200e-02
        2 -1    0    0  501    0 +0.0000000000e+00 +0.0000000000e+00 +2.9130202634e+03 2.9130202634e+03 0.0000000000e+00 0.0000e+00 1.0000e+00
       -2 -1    0    0    0  501 -0.0000000000e+00 -0.0000000000e+00 -8.8951117384e+02 8.8951117384e+02 0.0000000000e+00 0.0000e+00 -1.0000e+00
      -13  1    1    2    0    0 -6.9782434604e-01 +9.9292249421e+02 -4.8471955130e+02 1.1049201826e+03 0.0000000000e+00 0.0000e+00 -1.0000e+00
       13  1    1    2    0    0 +6.9782434604e-01 -9.9292249421e+02 +2.5082286409e+03 2.6976112547e+03 0.0000000000e+00 0.0000e+00 1.0000e+00
<mgrwt>
<rscale>  0 0.32194186E+04</rscale>
<asrwt>0</asrwt>
<pdfrwt beam="1">  1        2 0.44815696E+00 0.32194186E+04</pdfrwt>
<pdfrwt beam="2">  1       -2 0.13684787E+00 0.32194186E+04</pdfrwt>
<totfact> 0.75129230E-01</totfact>
</mgrwt>
<rwgt>
<wgt id='morphing_basis_vector_1'> +2.9205496e-05 </wgt>
<wgt id='morphing_basis_vector_2'> +1.9759413e-05 </wgt>
<wgt id='morphing_basis_vector_3'> +3.1902224e-05 </wgt>
<wgt id='morphing_basis_vector_4'> +2.2794916e-05 </wgt>
<wgt id='morphing_basis_vector_5'> +3.6388309e-05 </wgt>
</rwgt>
</event>
<event>
 4      1 +1.9882500e-09 3.36418200e+03 7.81860800e-03 7.66650400e-02
        2 -1    0    0  501    0 +0.0000000000e+00 +0.0000000000e+00 +1.4119285960e+03 1.4119285960e+03 0.0000000000e+00 0.0000e+00 -1.0000e+00
       -2 -1    0    0    0  501 -0.0000000000e+00 -0.0000000000e+00 -2.0039475369e+03 2.0039475369e+03 0.0000000000e+00 0.0000e+00 1.0000e+00
      -13  1    1    2    0    0 +1.2323876336e+03 -7.9500606852e+02 -1.1324497028e+03 1.8529048162e+03 0.0000000000e+00 0.0000e+00 1.0000e+00
       13  1    1    2    0    0 -1.2323876336e+03 +7.9500606852e+02 +5.4043076182e+02 1.5629713167e+03 0.0000000000e+00 0.0000e+00 -1.0000e+00
<mgrwt>
<rscale>  0 0.33641824E+04</rscale>
<asrwt>0</asrwt>
<pdfrwt beam="1">  1        2 0.21721978E+00 0.33641824E+04</pdfrwt>
<pdfrwt beam="2">  1       -2 0.30829962E+00 0.33641824E+04</pdfrwt>
<totfact> 0.31248593E-01</totfact>
</mgrwt>
<rwgt>
<wgt id='morphing_basis_vector_1'> +3.4921416e-05 </wgt>
<wgt id='morphing_basis_vector_2'> +2.3971931e-05 </wgt>
<wgt id='morphing_basis_vector_3'> +3.8263743e-05 </wgt>
<wgt id='morphing_basis_vector_4'> +2.6911757e-05 </wgt>
<wgt id='morphing_basis_vector_5'> +4.3419213e-05 </wgt>
</rwgt>
</event>
<event>
 4      1 +1.9882500e-09 3.33033100e+03 7.81860800e-03 7.67398700e-02
        2 -1    0    0  501    0 +0.0000000000e+00 +0.0000000000e+00 +2.0839746937e+03 2.0839746937e+03 0.0000000000e+00 0.0000e+00 -1.0000e+00
       -2 -1    0    0    0  501 -0.0000000000e+00 -0.0000000000e+00 -1.3305230475e+03 1.3305230475e+03 0.0000000000e+00 0.0000e+00 1.0000e+00
      -13  1    1    2    0    0 +3.7228302214e+02 +1.2251255029e+03 -7.1471985620e+02 1.4664077261e+03 0.0000000000e+00 0.0000e+00 1.0000e+00
       13  1    1    2    0    0 -3.7228302214e+02 -1.2251255029e+03 +1.4681715024e+03 1.9480900151e+03 0.0000000000e+00 0.0000e+00 -1.0000e+00
<mgrwt>
<rscale>  0 0.33303311E+04</rscale>
<asrwt>0</asrwt>
<pdfrwt beam="1">  1        2 0.32061149E+00 0.33303311E+04</pdfrwt>
<pdfrwt beam="2">  1       -2 0.20469585E+00 0.33303311E+04</pdfrwt>
<totfact> 0.68686647E-01</totfact>
</mgrwt>
<rwgt>
<wgt id='morphing_basis_vector_1'> +3.3454672e-05 </wgt>
<wgt id='morphing_basis_vector_2'> +2.2753144e-05 </wgt>
<wgt id='morphing_basis_vector_3'> +3.6601541e-05 </wgt>
<wgt id='morphing_basis_vector_4'> +2.6030812e-05 </wgt>
<wgt id='morphing_basis_vector_5'> +4.1701837e-05 </wgt>
</rwgt>
</event>
<event>
 4      1 +1.9882500e-09 3.46942300e+03 7.81860800e-03 7.64380500e-02
        2 -1    0    0  501    0 +0.0000000000e+00 +0.0000000000e+00 +3.0865877881e+03 3.0865877881e+03 0.0000000000e+00 0.0000e+00 1.0000e+00
       -2 -1    0    0    0  501 -0.0000000000e+00 -0.0000000000e+00 -9.7493560363e+02 9.7493560363e+02 0.0000000000e+00 0.0000e+00 -1.0000e+00
      -13  1    1    2    0    0 +6.4240971907e+02 -2.2642004516e+01 -8.3036555317e+02 1.0500999283e+03 0.0000000000e+00 0.0000e+00 -1.0000e+00
       13  1    1    2    0    0 -6.4240971907e+02 +2.2642004516e+01 +2.9420177376e+03 3.0114234634e+03 0.0000000000e+00 0.0000e+00 1.0000e+00
<mgrwt>
<rscale>  0 0.34694232E+04</rscale>
<asrwt>0</asrwt>
<pdfrwt beam="1">  1        2 0.47485966E+00 0.34694232E+04</pdfrwt>
<pdfrwt beam="2">  1       -2 0.14999009E+00 0.34694232E+04</pdfrwt>
<totfact> 0.43884093E-01</totfact>
</mgrwt>
<rwgt>
<wgt id='morphing_basis_vector_1'> +3.9282968e-05 </wgt>
<wgt id='morphing_basis_vector_2'> +2.6565922e-05 </wgt>
<wgt id='morphing_basis_vector_3'> +4.2987773e-05 </wgt>
<wgt id='morphing_basis_vector_4'> +3.0850922e-05 </wgt>
<wgt id='morphing_basis_vector_5'> +4.9185756e-05 </wgt>
</rwgt>
</event>
<event>
 4      1 +1.9882500e-09 3.76718400e+03 7.81860800e-03 7.58381300e-02
        2 -1    0    0  501    0 +0.0000000000e+00 +0.0000000000e+00 +2.8463690546e+03 2.8463690546e+03 0.0000000000e+00 0.0000e+00 1.0000e+00
       -2 -1    0    0    0  501 -0.0000000000e+00 -0.0000000000e+00 -1.2464719302e+03 1.2464719302e+03 0.0000000000e+00 0.0000e+00 -1.0000e+00
      -13  1    1    2    0    0 -3.8798186871e+02 +6.5564896992e+02 -1.0716141373e+03 1.3148240800e+03 0.0000000000e+00 0.0000e+00 -1.0000e+00
       13  1    1    2    0    0 +3.8798186871e+02 -6.5564896992e+02 +2.6715112616e+03 2.7780169048e+03 0.0000000000e+00 0.0000e+00 1.0000e+00
<mgrwt>
<rscale>  0 0.37671842E+04</rscale>
<asrwt>0</asrwt>
<pdfrwt beam="1">  1        2 0.43790293E+00 0.37671842E+04</pdfrwt>
<pdfrwt beam="2">  1       -2 0.19176491E+00 0.37671842E+04</pdfrwt>
<totfact> 0.28952023E-01</totfact>
</mgrwt>
<rwgt>
<wgt id='morphing_basis_vector_1'> +5.4494936e-05 </wgt>
<wgt id='morphing_basis_vector_2'> +3.6902384e-05 </wgt>
<wgt id='morphing_basis_vector_3'> +5.9749821e-05 </wgt>
<wgt id='morphing_basis_vector_4'> +4.2966159e-05 </wgt>
<wgt id='morphing_basis_vector_5'> +6.8508954e-05 </wgt>
</rwgt>
</event>
<event>
 4      1 +1.9882500e-09 3.57285500e+03 7.81860800e-03 7.62228900e-02
        2 -1    0    0  501    0 +0.0000000000e+00 +0.0000000000e+00 +2.4769540315e+03 2.4769540315e+03 0.0000000000e+00 0.0000e+00 -1.0000e+00
       -2 -1    0    0    0  501 -0.0000000000e+00 -0.0000000000e+00 -1.2884066225e+03 1.2884066225e+03 0.0000000000e+00 0.0000e+00 1.0000e+00
      -13  1    1    2    0    0 +1.4403159584e+03 -7.0872120469e+02 -2.3188224634e+02 1.6219017178e+03 0.0000000000e+00 0.0000e+00 1.0000e+00
       13  1    1    2    0    0 -1.4403159584e+03 +7.0872120469e+02 +1.4204296554e+03 2.1434589363e+03 0.0000000000e+00 0.0000e+00 -1.0000e+00
<mgrwt>
<rscale>  0 0.35728554E+04</rscale>
<asrwt>0</asrwt>
<pdfrwt beam="1">  1        2 0.38106985E+00 0.35728554E+04</pdfrwt>
<pdfrwt beam="2">  1       -2 0.19821640E+00 0.35728554E+04</pdfrwt>
<totfact> 0.44417847E-01</totfact>
</mgrwt>
<rwgt>
<wgt id='morphing_basis_vector_1'> +4.4413935e-05 </wgt>
<wgt id='morphing_basis_vector_2'> +3.0654735e-05 </wgt>
<wgt id='morphing_basis_vector_3'> +4.8770352e-05 </wgt>
<wgt id='morphing_basis_vector_4'> +3.4161200e-05 </wgt>
<wgt id='morphing_basis_vector_5'> +5.5313822e-05 </wgt>
</rwgt>
</event>
<event>
 4      1 +1.9882500e-09 3.54952300e+03 7.81860800e-03 7.62707700e-02
        2 -1    0    0  501    0 +0.0000000000e+00 +0.0000000000e+00 +3.1939494767e+03 3.1939494767e+03 0.0000000000e+00 0.0000e+00 -1.0000e+00
       -2 -1    0    0    0  501 -0.0000000000e+00 -0.0000000000e+00 -9.8617046668e+02 9.8617046668e+02 0.0000000000e+00 0.0000e+00 1.0000e+00
      -13  1    1    2    0    0 -1.6281190395e+03 +6.7232656716e+02 +8.4862299192e+02 1.9552379912e+03 0.0000000000e+00 0.0000e+00 1.0000e+00
       13  1    1    2    0    0 +1.6281190395e+03 -6.7232656716e+02 +1.3591560181e+03 2.2248819522e+03 0.0000000000e+00 0.0000e+00 -1.0000e+00
<mgrwt>
<rscale>  0 0.35495231E+04</rscale>
<asrwt>0</asrwt>
<pdfrwt beam="1">  1        2 0.49137684E+00 0.35495231E+04</pdfrwt>
<pdfrwt beam="2">  1       -2 0.15171854E+00 0.35495231E+04</pdfrwt>
<totfact> 0.35735489E-01</totfact>
</mgrwt>
<rwgt>
<wgt id='morphing_basis_vector_1'> +4.4016199e-05 </wgt>
<wgt id='morphing_basis_vector_2'> +3.2051697e-05 </wgt>
<wgt id='morphing_basis_vector_3'> +4.8692441e-05 </wgt>
<wgt id='morphing_basis_vector_4'> +3.1707535e-05 </wgt>
<wgt id='morphing_basis_vector_5'> +5.3744432e-05 </wgt>
</rwgt>
</event>
<event>
 4      1 +1.9882500e-09 3.69435000e+03 7.81860800e-03 7.59794900e-02
        2 -1    0    0  501    0 +0.0000000000e+00 +0.0000000000e+00 +1.6499907360e+03 1.6499907360e+03 0.0000000000e+00 0.0000e+00 -1.0000e+00
       -2 -1    0    0    0  501 -0.0000000000e+00 -0.0000000000e+00 -2.0679242954e+03 2.0679242954e+03 0.0000000000e+00 0.0000e+00 1.0000e+00
      -13  1    1    2    0    0 -3.9265531376e+02 -2.0993465853e+02 -2.0131106480e+03 2.0617626531e+03 0.0000000000e+00 0.0000e+00 1.0000e+00
       13  1    1    2    0    0 +3.9265531376e+02 +2.0993465853e+02 +1.5951770886e+03 1.6561523783e+03 0.0000000000e+00 0.0000e+00 -1.0000e+00
<mgrwt>
<rscale>  0 0.36943502E+04</rscale>
<asrwt>0</asrwt>
<pdfrwt beam="1">  1        2 0.25384473E+00 0.36943502E+04</pdfrwt>
<pdfrwt beam="2">  1       -2 0.31814220E+00 0.36943502E+04</pdfrwt>
<totfact> 0.19239818E-01</totfact>
</mgrwt>
<rwgt>
<wgt id='morphing_basis_vector_1'> +5.0420763e-05 </wgt>
<wgt id='morphing_basis_vector_2'> +3.4125777e-05 </wgt>
<wgt id='morphing_basis_vector_3'> +5.5257311e-05 </wgt>
<wgt id='morphing_basis_vector_4'> +3.9728867e-05 </wgt>
<wgt id='morphing_basis_vector_5'> +6.3334865e-05 </wgt>
</rwgt>
</event>
<event>
 4      1 +1.9882500e-09 3.45446300e+03 7.81860800e-03 7.64698100e-02
        2 -1    0    0  501    0 +0.0000000000e+00 +0.0000000000e+00 +1.7465622661e+03 1.7465622661e+03 0.0000000000e+00 0.0000e+00 1.0000e+00
       -2 -1    0    0    0  501 -0.0000000000e+00 -0.0000000000e+00 -1.7081144490e+03 1.7081144490e+03 0.0000000000e+00 0.0000e+00 -1.0000e+00
      -13  1    1    2    0    0 -9.1166776014e+01 +9.4901870480e+02 -1.4211362279e+03 1.7113082894e+03 0.0000000000e+00 0.0000e+00 -1.0000e+00
       13  1    1    2    0    0 +9.1166776014e+01 -9.4901870480e+02 +1.4595840451e+03 1.7433684257e+03 0.0000000000e+00 0.0000e+00 1.0000e+00
<mgrwt>
<rscale>  0 0.34544628E+04</rscale>
<asrwt>0</asrwt>
<pdfrwt beam="1">  1        2 0.26870189E+00 0.34544628E+04</pdfrwt>
<pdfrwt beam="2">  1       -2 0.26278684E+00 0.34544628E+04</pdfrwt>
<totfact> 0.41097094E-01</totfact>
</mgrwt>
<rwgt>
<wgt id='morphing_basis_vector_1'> +3.8625105e-05 </wgt>
<wgt id='morphing_basis_vector_2'> +2.6143583e-05 </wgt>
<wgt id='morphing_basis_vector_3'> +4.2268539e-05 </wgt>
<wgt id='morphing_basis_vector_4'> +3.0296204e-05 </wgt>
<wgt id='morphing_basis_vector_5'> +4.8335435e-05 </wgt>
</rwgt>
</event>
<event>
 4      1 +1.9882500e-09 3.34612900e+03 7.81860800e-03 7.67048300e-02
        2 -1    0    0  501    0 +0.0000000000e+00 +0.0000000000e+00 +2.5358671117e+03 2.5358671117e+03 0.0000000000e+00 0.0000e+00 1.0000e+00
       -2 -1    0    0    0  501 -0.0000000000e+00 -0.0000000000e+00 -1.1038217483e+03 1.1038217483e+03 0.0000000000e+00 0.0000e+00 -1.0000e+00
      -13  1    1    2    0    0 +1.5937796815e+02 -1.4987003464e+03 -7.4093390328e+01 1.5089711380e+03 0.0000000000e+00 0.0000e+00 -1.0000e+00
       13  1    1    2    0    0 -1.5937796815e+02 +1.4987003464e+03 +1.5061387538e+03 2.1307177220e+03 0.0000000000e+00 0.0000e+00 1.0000e+00
<mgrwt>
<rscale>  0 0.33461293E+04</rscale>
<asrwt>0</asrwt>
<pdfrwt beam="1">  1        2 0.39013340E+00 0.33461293E+04</pdfrwt>
<pdfrwt beam="2">  1       -2 0.16981873E+00 0.33461293E+04</pdfrwt>
<totfact> 0.68339972E-01</totfact>
</mgrwt>
<rwgt>
<wgt id='morphing_basis_vector_1'> +3.4234831e-05 </wgt>
<wgt id='morphing_basis_vector_2'> +2.3615000e-05 </wgt>
<wgt id='morphing_basis_vector_3'> +3.7531069e-05 </wgt>
<wgt id='morphing_basis_vector_4'> +2.6226523e-05 </wgt>
<wgt id='morphing_basis_vector_5'> +4.2479275e-05 </wgt>
</rwgt>
</event>
<event>
 4      1 +1.9882500e-09 3.75430100e+03 7.81860800e-03 7.58629000e-02
        2 -1    0    0  501    0 +0.0000000000e+00 +0.0000000000e+00 +3.3929622212e+03 3.3929622212e+03 0.0000000000e+00 0.0000e+00 1.0000e+00
       -2 -1    0    0    0  501 -0.0000000000e+00 -0.0000000000e+00 -1.0385304384e+03 1.0385304384e+03 0.0000000000e+00 0.0000e+00 -1.0000e+00
      -13  1    1    2    0    0 -4.0643931989e+02 -1.0759294358e+03 -5.7391594636e+02 1.2853779931e+03 0.0000000000e+00 0.0000e+00 -1.0000e+00
       13  1    1    2    0    0 +4.0643931989e+02 +1.0759294358e+03 +2.9283477292e+03 3.1461146665e+03 0.0000000000e+00 0.0000e+00 1.0000e+00
<mgrwt>
<rscale>  0 0.37543013E+04</rscale>
<asrwt>0</asrwt>
<pdfrwt beam="1">  1        2 0.52199418E+00 0.37543013E+04</pdfrwt>
<pdfrwt beam="2">  1       -2 0.15977392E+00 0.37543013E+04</pdfrwt>
<totfact> 0.21971507E-01</totfact>
</mgrwt>
<rwgt>
<wgt id='morphing_basis_vector_1'> +5.3783266e-05 </wgt>
<wgt id='morphing_basis_vector_2'> +3.6476849e-05 </wgt>
<wgt id='morphing_basis_vector_3'> +5.8978043e-05 </wgt>
<wgt id='morphing_basis_vector_4'> +4.2324066e-05 </wgt>
<wgt id='morphing_basis_vector_5'> +6.7566907e-05 </wgt>
</rwgt>
</event>
<event>
 4      1 +1.9882500e-09 3.42091400e+03 7.81860800e-03 7.65416300e-02
        2 -1    0    0  501    0 +0.0000000000e+00 +0.0000000000e+00 +1.8850510045e+03 1.8850510045e+03 0.0000000000e+00 0.0000e+00 -1.0000e+00
       -2 -1    0    0    0  501 -0.0000000000e+00 -0.0000000000e+00 -1.5520341860e+03 1.5520341860e+03 0.0000000000e+00 0.0000e+00 1.0000e+00
      -13  1    1    2    0    0 -1.7055079830e+03 -1.0136585676e+02 +2.4832481407e+02 1.7264697304e+03 0.0000000000e+00 0.0000e+00 1.0000e+00
       13  1    1    2    0    0 +1.7055079830e+03 +1.0136585676e+02 +8.4692004439e+01 1.7106154601e+03 0.0000000000e+00 0.0000e+00 -1.0000e+00
<mgrwt>
<rscale>  0 0.34209143E+04</rscale>
<asrwt>0</asrwt>
<pdfrwt beam="1">  1        2 0.29000785E+00 0.34209143E+04</pdfrwt>
<pdfrwt beam="2">  1       -2 0.23877449E+00 0.34209143E+04</pdfrwt>
<totfact> 0.50559907E-01</totfact>
</mgrwt>
<rwgt>
<wgt id='morphing_basis_vector_1'> +3.8762174e-05 </wgt>
<wgt id='morphing_basis_vector_2'> +2.9869721e-05 </wgt>
<wgt id='morphing_basis_vector_3'> +4.3197605e-05 </wgt>
<wgt id='morphing_basis_vector_4'> +2.5757566e-05 </wgt>
<wgt id='morphing_basis_vector_5'> +4.6193648e-05 </wgt>
</rwgt>
</event>
<event>
 4      1 +1.9882500e-09 3.52917300e+03 7.81860800e-03 7.63128300e-02
        2 -1    0    0  501    0 +0.0000000000e+00 +0.0000000000e+00 +3.0121896439e+03 3.0121896439e+03 0.0000000000e+00 0.0000e+00 -1.0000e+00
       -2 -1    0    0    0  501 -0.0000000000e+00 -0.0000000000e+00 -1.0337218370e+03 1.0337218370e+03 0.0000000000e+00 0.0000e+00 1.0000e+00
      -13  1    1    2    0    0 +1.0241688802e+02 -9.7868930170e+02 -6.8996443739e+02 1.2018206576e+03 0.0000000000e+00 0.0000e+00 1.0000e+00
       13  1    1    2    0    0 -1.0241688802e+02 +9.7868930170e+02 +2.6684322443e+03 2.8440908232e+03 0.0000000000e+00 0.0000e+00 -1.0000e+00
<mgrwt>
<rscale>  0 0.35291734E+04</rscale>
<asrwt>0</asrwt>
<pdfrwt beam="1">  1        2 0.46341379E+00 0.35291734E+04</pdfrwt>
<pdfrwt beam="2">  1       -2 0.15903413E+00 0.35291734E+04</pdfrwt>
<totfact> 0.41241975E-01</totfact>
</mgrwt>
<rwgt>
<wgt id='morphing_basis_vector_1'> +4.2053026e-05 </wgt>
<wgt id='morphing_basis_vector_2'> +2.8475222e-05 </wgt>
<wgt id='morphing_basis_vector_3'> +4.6044783e-05 </wgt>
<wgt id='morphing_basis_vector_4'> +3.3019846e-05 </wgt>
<wgt id='morphing_basis_vector_5'> +5.2683799e-05 </wgt>
</rwgt>
</event>
<event>
 4      1 +1.9882500e-09 3.67641200e+03 7.81860800e-03 7.60148200e-02
        2 -1    0    0  501    0 +0.0000000000e+00 +0.0000000000e+00 +1.8928656135e+03 1.8928656135e+03 0.0000000000e+00 0.0000e+00 -1.0000e+00
       -2 -1    0    0    0  501 -0.0000000000e+00 -0.0000000000e+00 -1.7851251987e+03 1.7851251987e+03 0.0000000000e+00 0.0000e+00 1.0000e+00
      -13  1    1    2    0    0 -1.6235618105e+03 -6.8963361390e+01 -8.0573858579e+02 1.8138146450e+03 0.0000000000e+00 0.0000e+00 1.0000e+00
       13  1    1    2    0    0 +1.6235618105e+03 +6.8963361390e+01 +9.1347900059e+02 1.8641761672e+03 0.0000000000e+00 0.0000e+00 -1.0000e+00
<mgrwt>
<rscale>  0 0.36764124E+04</rscale>
<asrwt>0</asrwt>
<pdfrwt beam="1">  1        2 0.29121009E+00 0.36764124E+04</pdfrwt>
<pdfrwt beam="2">  1       -2 0.27463465E+00 0.36764124E+04</pdfrwt>
<totfact> 0.27744826E-01</totfact>
</mgrwt>
<rwgt>
<wgt id='morphing_basis_vector_1'> +4.9716025e-05 </wgt>
<wgt id='morphing_basis_vector_2'> +3.4238693e-05 </wgt>
<wgt id='morphing_basis_vector_3'> +5.4609653e-05 </wgt>
<wgt id='morphing_basis_vector_4'> +3.8407227e-05 </wgt>
<wgt id='morphing_basis_vector_5'> +6.2060851e-05 </wgt>
</rwgt>
</event>
<event>
 4      1 +1.9882500e-09 3.61298200e+03 7.81860800e-03 7.61414200e-02
        2 -1    0    0  501    0 +0.0000000000e+00 +0.0000000000e+00 +1.5005102217e+03 1.5005102217e+03 0.0000000000e+00 0.0000e+00 -1.0000e+00
       -2 -1    0    0    0  501 -0.0000000000e+00 -0.0000000000e+00 -2.1748666574e+03 2.1748666574e+03 0.0000000000e+00 0.0000e+00 1.0000e+00
      -13  1    1    2    0    0 +1.6291322900e+03 -4.6005396112e+02 +3.0433752966e+02 1.7199834294e+03 0.0000000000e+00 0.0000e+00 1.0000e+00
       13  1    1    2    0    0 -1.6291322900e+03 +4.6005396112e+02 -9.7869396540e+02 1.9553934497e+03 0.0000000000e+00 0.0000e+00 -1.0000e+00
<mgrwt>
<rscale>  0 0.36129820E+04</rscale>
<asrwt>0</asrwt>
<pdfrwt beam="1">  1        2 0.23084773E+00 0.36129820E+04</pdfrwt>
<pdfrwt beam="2">  1       -2 0.33459487E+00 0.36129820E+04</pdfrwt>
<totfact> 0.18255609E-01</totfact>
</mgrwt>
<rwgt>
<wgt id='morphing_basis_vector_1'> +5.1641445e-05 </wgt>
<wgt id='morphing_basis_vector_2'> +4.7378945e-05 </wgt>
<wgt id='morphing_basis_vector_3'> +5.9299903e-05 </wgt>
<wgt id='morphing_basis_vector_4'> +2.4758279e-05 </wgt>
<wgt id='morphing_basis_vector_5'> +5.6946172e-05 </wgt>
</rwgt>
</event>
<event>
 4      1 +1.9882500e-09 3.34844900e+03 7.81860800e-03 7.66997000e-02
        2 -1    0    0  501    0 +0.0000000000e+00 +0.0000000000e+00 +1.6607514440e+03 1.6607514440e+03 0.0000000000e+00 0.0000e+00 -1.0000e+00
       -2 -1    0    0    0  501 -0.0000000000e+00 -0.0000000000e+00 -1.6878072108e+03 1.6878072108e+03 0.0000000000e+00 0.0000e+00 1.0000e+00
      -13  1    1    2    0    0 -2.2186032580e+01 -1.4046176803e+03 -9.2437330195e+02 1.6816387987e+03 0.0000000000e+00 0.0000e+00 1.0000e+00
       13  1    1    2    0    0 +2.2186032580e+01 +1.4046176803e+03 +8.9731753512e+02 1.6669198561e+03 0.0000000000e+00 0.0000e+00 -1.0000e+00
<mgrwt>
<rscale>  0 0.33484494E+04</rscale>
<asrwt>0</asrwt>
<pdfrwt beam="1">  1        2 0.25550022E+00 0.33484494E+04</pdfrwt>
<pdfrwt beam="2">  1       -2 0.25966265E+00 0.33484494E+04</pdfrwt>
<totfact> 0.48618354E-01</totfact>
</mgrwt>
<rwgt>
<wgt id='morphing_basis_vector_1'> +3.4236416e-05 </wgt>
<wgt id='morphing_basis_vector_2'> +2.3407389e-05 </wgt>
<wgt id='morphing_basis_vector_3'> +3.7488392e-05 </wgt>
<wgt id='morphing_basis_vector_4'> +2.6494371e-05 </wgt>
<wgt id='morphing_basis_vector_5'> +4.2614136e-05 </wgt>
</rwgt>
</event>
<event>
 4      1 +1.9882500e-09 3.47280600e+03 7.81860800e-03 7.64309000e-02
        2 -1    0    0  501    0 +0.0000000000e+00 +0.0000000000e+00 +1.6608824973e+03 1.6608824973e+03 0.0000000000e+00 0.0000e+00 -1.0000e+00
       -2 -1    0    0    0  501 -0.0000000000e+00 -0.0000000000e+00 -1.8153569245e+03 1.8153569245e+03 0.0000000000e+00 0.0000e+00 1.0000e+00
      -13  1    1    2    0    0 +1.0151383075e+03 -1.0817526798e+03 -9.8057062325e+02 1.7782613393e+03 0.0000000000e+00 0.0000e+00 1.0000e+00
       13  1    1    2    0    0 -1.0151383075e+03 +1.0817526798e+03 +8.2609619603e+02 1.6979780825e+03 0.0000000000e+00 0.0000e+00 -1.0000e+00
<mgrwt>
<rscale>  0 0.34728055E+04</rscale>
<asrwt>0</asrwt>
<pdfrwt beam="1">  1        2 0.25552039E+00 0.34728055E+04</pdfrwt>
<pdfrwt beam="2">  1       -2 0.27928568E+00 0.34728055E+04</pdfrwt>
<totfact> 0.35316175E-01</totfact>
</mgrwt>
<rwgt>
<wgt id='morphing_basis_vector_1'> +3.9592097e-05 </wgt>
<wgt id='morphing_basis_vector_2'> +2.7130555e-05 </wgt>
<wgt id='morphing_basis_vector_3'> +4.3404499e-05 </wgt>
<wgt id='morphing_basis_vector_4'> +3.0642784e-05 </wgt>
<wgt id='morphing_basis_vector_5'> +4.9351824e-05 </wgt>
</rwgt>
</event>
<event>
 4      1 +1.9882500e-09 3.29183900e+03 7.81860800e-03 7.68260800e-02
        2 -1    0    0  501    0 +0.0000000000e+00 +0.0000000000e+00 +1.5747518802e+03 1.5747518802e+03 0.0000000000e+00 0.0000e+00 -1.0000e+00
       -2 -1    0    0    0  501 -0.0000000000e+00 -0.0000000000e+00 -1.7203038011e+03 1.7203038011e+03 0.0000000000e+00 0.0000e+00 1.0000e+00
      -13  1    1    2    0    0 -1.5200447575e+03 +5.4733482738e+02 -3.8763084829e+02 1.6614358708e+03 0.0000000000e+00 0.0000e+00 1.0000e+00
       13  1    1    2    0    0 +1.5200447575e+03 -5.4733482738e+02 +2.4207892741e+02 1.6336198105e+03 0.0000000000e+00 0.0000e+00 -1.0000e+00
<mgrwt>
<rscale>  0 0.32918394E+04</rscale>
<asrwt>0</asrwt>
<pdfrwt beam="1">  1        2 0.24226952E+00 0.32918394E+04</pdfrwt>
<pdfrwt beam="2">  1       -2 0.26466212E+00 0.32918394E+04</pdfrwt>
<totfact> 0.50397980E-01</totfact>
</mgrwt>
<rwgt>
<wgt id='morphing_basis_vector_1'> +3.2453889e-05 </wgt>
<wgt id='morphing_basis_vector_2'> +2.3217950e-05 </wgt>
<wgt id='morphing_basis_vector_3'> +3.5742411e-05 </wgt>
<wgt id='morphing_basis_vector_4'> +2.3775305e-05 </wgt>
<wgt id='morphing_basis_vector_5'> +3.9705664e-05 </wgt>
</rwgt>
</event>
<event>
 4      1 +1.9882500e-09 3.22354600e+03 7.81860800e-03 7.69820700e-02
        2 -1    0    0  501    0 +0.0000000000e+00 +0.0000000000e+00 +2.6015219790e+03 2.6015219790e+03 0.0000000000e+00 0.0000e+00 1.0000e+00
       -2 -1    0    0    0  501 -0.0000000000e+00 -0.0000000000e+00 -9.9857374333e+02 9.9857374333e+02 0.0000000000e+00 0.0000e+00 -1.0000e+00
      -13  1    1    2    0    0 +7.9530755050e+02 -2.5072689149e+02 -7.3893106211e+02 1.1141800521e+03 0.0000000000e+00 0.0000e+00 -1.0000e+00
       13  1    1    2    0    0 -7.9530755050e+02 +2.5072689149e+02 +2.3418792978e+03 2.4859156702e+03 0.0000000000e+00 0.0000e+00 1.0000e+00
<mgrwt>
<rscale>  0 0.32235456E+04</rscale>
<asrwt>0</asrwt>
<pdfrwt beam="1">  1        2 0.40023415E+00 0.32235456E+04</pdfrwt>
<pdfrwt beam="2">  1       -2 0.15362673E+00 0.32235456E+04</pdfrwt>
<totfact> 0.84831120E-01</totfact>
</mgrwt>
<rwgt>
<wgt id='morphing_basis_vector_1'> +2.9344620e-05 </wgt>
<wgt id='morphing_basis_vector_2'> +1.9831958e-05 </wgt>
<wgt id='morphing_basis_vector_3'> +3.2050680e-05 </wgt>
<wgt id='morphing_basis_vector_4'> +2.2933263e-05 </wgt>
<wgt id='morphing_basis_vector_5'> +3.6578371e-05 </wgt>
</rwgt>
</event>
<event>
 4      1 +1.9882500e-09 3.29142400e+03 7.81860800e-03 7.68270100e-02
        2 -1    0    0  501    0 +0.0000000000e+00 +0.0000000000e+00 +1.9880222733e+03 1.9880222733e+03 0.0000000000e+00 0.0000e+00 1.0000e+00
       -2 -1    0    0    0  501 -0.0000000000e+00 -0.0000000000e+00 -1.3623430691e+03 1.3623430691e+03 0.0000000000e+00 0.0000e+00 -1.0000e+00
      -13  1    1    2    0    0 -2.6262200250e+02 -6.7869442314e+02 +1.8153386008e+03 1.9557736760e+03 0.0000000000e+00 0.0000e+00 1.0000e+00
       13  1    1    2    0    0 +2.6262200250e+02 +6.7869442314e+02 -1.1896593966e+03 1.3945916664e+03 0.0000000000e+00 0.0000e+00 -1.0000e+00
<mgrwt>
<rscale>  0 0.32914242E+04</rscale>
<asrwt>0</asrwt>
<pdfrwt beam="1">  1        2 0.30584958E+00 0.32914242E+04</pdfrwt>
<pdfrwt beam="2">  1       -2 0.20959124E+00 0.32914242E+04</pdfrwt>
<totfact> 0.71958501E-01</totfact>
</mgrwt>
<rwgt>
<wgt id='morphing_basis_vector_1'> +4.3372626e-05 </wgt>
<wgt id='morphing_basis_vector_2'> +5.5387017e-05 </wgt>
<wgt id='morphing_basis_vector_3'> +5.3005305e-05 </wgt>
<wgt id='morphing_basis_vector_4'> +8.5619817e-07 </wgt>
<wgt id='morphing_basis_vector_5'> +3.7792854e-05 </wgt>
</rwgt>
</event>
<event>
 4      1 +1.9882500e-09 3.26363800e+03 7.81860800e-03 7.68900200e-02
        2 -1    0    0  501    0 +0.0000000000e+00 +0.0000000000e+00 +2.1568386371e+03 2.1568386371e+03 0.0000000000e+00 0.0000e+00 1.0000e+00
       -2 -1    0    0    0  501 -0.0000000000e+00 -0.0000000000e+00 -1.2345997683e+03 1.2345997683e+03 0.0000000000e+00 0.0000e+00 -1.0000e+00
      -13  1    1    2    0    0 -3.3807790115e+02 +1.2786376394e+03 -5.3214570879e+02 1.4256191411e+03 0.0000000000e+00 0.0000e+00 -1.0000e+00
       13  1    1    2    0    0 +3.3807790115e+02 -1.2786376394e+03 +1.4543845776e+03 1.9658192642e+03 0.0000000000e+00 0.0000e+00 1.0000e+00
<mgrwt>
<rscale>  0 0.32636375E+04</rscale>
<asrwt>0</asrwt>
<pdfrwt beam="1">  1        2 0.33182133E+00 0.32636375E+04</pdfrwt>
<pdfrwt beam="2">  1       -2 0.18993843E+00 0.32636375E+04</pdfrwt>
<totfact> 0.80571020E-01</totfact>
</mgrwt>
<rwgt>
<wgt id='morphing_basis_vector_1'> +3.0897633e-05 </wgt>
<wgt id='morphing_basis_vector_2'> +2.1062133e-05 </wgt>
<wgt id='morphing_basis_vector_3'> +3.3796681e-05 </wgt>
<wgt id='morphing_basis_vector_4'> +2.3942067e-05 </wgt>
<wgt id='morphing_basis_vector_5'> +3.8433313e-05 </wgt>
</rwgt>
</event>
<event>
 4      1 +1.9882500e-09 3.32641100e+03 7.81860800e-03 7.67485900e-02
        2 -1    0    0  501    0 +0.0000000000e+00 +0.0000000000e+00 +1.9614249259e+03 1.9614249259e+03 0.0000000000e+00 0.0000e+00 1.0000e+00
       -2 -1    0    0    0  501 -0.0000000000e+00 -0.0000000000e+00 -1.4103279279e+03 1.4103279279e+03 0.0000000000e+00 0.0000e+00 -1.0000e+00
      -13  1    1    2    0    0 -2.8750618257e+01 -5.6319583890e+02 -1.3104636060e+03 1.4266502773e+03 0.0000000000e+00 0.0000e+00 -1.0000e+00
       13  1    1    2    0    0 +2.8750618257e+01 +5.6319583890e+02 +1.8615606040e+03 1.9451025765e+03 0.0000000000e+00 0.0000e+00 1.0000e+00
<mgrwt>
<rscale>  0 0.33264109E+04</rscale>
<asrwt>0</asrwt>
<pdfrwt beam="1">  1        2 0.30175768E+00 0.33264109E+04</pdfrwt>
<pdfrwt beam="2">  1       -2 0.21697353E+00 0.33264109E+04</pdfrwt>
<totfact> 0.65746362E-01</totfact>
</mgrwt>
<rwgt>
<wgt id='morphing_basis_vector_1'> +3.3234562e-05 </wgt>
<wgt id='morphing_basis_vector_2'> +2.2458115e-05 </wgt>
<wgt id='morphing_basis_vector_3'> +3.6328308e-05 </wgt>
<wgt id='morphing_basis_vector_4'> +2.6041812e-05 </wgt>
<wgt id='morphing_basis_vector_5'> +4.1515519e-05 </wgt>
</rwgt>
</event>
<event>
 4      1 +1.9882500e-09 3.24222000e+03 7.81860800e-03 7.69390200e-02
        2 -1    0    0  501    0 +0.0000000000e+00 +0.0000000000e+00 +2.8083975403e+03 2.8083975403e+03 0.0000000000e+00 0.0000e+00 -1.0000e+00
       -2 -1    0    0    0  501 -0.0000000000e+00 -0.0000000000e+00 -9.3576382937e+02 9.3576382937e+02 0.0000000000e+00 0.0000e+00 1.0000e+00
      -13  1    1    2    0    0 -9.1041601615e+02 +8.7227734866e+02 -2.4038831126e+02 1.2835542979e+03 0.0000000000e+00 0.0000e+00 1.0000e+00
       13  1    1    2    0    0 +9.1041601615e+02 -8.7227734866e+02 +2.1130220222e+03 2.4606070718e+03 0.0000000000e+00 0.0000e+00 -1.0000e+00
<mgrwt>
<rscale>  0 0.32422195E+04</rscale>
<asrwt>0</asrwt>
<pdfrwt beam="1">  1        2 0.43206116E+00 0.32422195E+04</pdfrwt>
<pdfrwt beam="2">  1       -2 0.14396367E+00 0.32422195E+04</pdfrwt>
<totfact> 0.75926407E-01</totfact>
</mgrwt>
<rwgt>
<wgt id='morphing_basis_vector_1'> +3.0081030e-05 </wgt>
<wgt id='morphing_basis_vector_2'> +2.0458676e-05 </wgt>
<wgt id='morphing_basis_vector_3'> +3.2887684e-05 </wgt>
<wgt id='morphing_basis_vector_4'> +2.3356261e-05 </wgt>
<wgt id='morphing_basis_vector_5'> +3.7430281e-05 </wgt>
</rwgt>
</event>
<event>
 4      1 +1.9882500e-09 3.27853300e+03 7.81860800e-03 7.68561600e-02
        2 -1    0    0  501    0 +0.0000000000e+00 +0.0000000000e+00 +2.0319006097e+03 2.0319006097e+03 0.0000000000e+00 0.0000e+00 -1.0000e+00
       -2 -1    0    0    0  501 -0.0000000000e+00 -0.0000000000e+00 -1.3225032075e+03 1.3225032075e+03 0.0000000000e+00 0.0000e+00 1.0000e+00
      -13  1    1    2    0    0 -1.2483506187e+03 -8.9171770821e+02 -2.3629763380e+02 1.5522165796e+03 0.0000000000e+00 0.0000e+00 1.0000e+00
       13  1    1    2    0    0 +1.2483506187e+03 +8.9171770821e+02 +9.4569503599e+02 1.8021872376e+03 0.0000000000e+00 0.0000e+00 -1.0000e+00
<mgrwt>
<rscale>  0 0.32785333E+04</rscale>
<asrwt>0</asrwt>
<pdfrwt beam="1">  1        2 0.31260009E+00 0.32785333E+04</pdfrwt>
<pdfrwt beam="2">  1       -2 0.20346203E+00 0.32785333E+04</pdfrwt>
<totfact> 0.75358669E-01</totfact>
</mgrwt>
<rwgt>
<wgt id='morphing_basis_vector_1'> +3.1660793e-05 </wgt>
<wgt id='morphing_basis_vector_2'> +2.2035442e-05 </wgt>
<wgt id='morphing_basis_vector_3'> +3.4732918e-05 </wgt>
<wgt id='morphing_basis_vector_4'> +2.3967396e-05 </wgt>
<wgt id='morphing_basis_vector_5'> +3.9110566e-05 </wgt>
</rwgt>
</event>
<event>
 4      1 +1.9882500e-09 3.22036800e+03 7.81860800e-03 7.69894200e-02
        2 -1    0    0  501    0 +0.0000000000e+00 +0.0000000000e+00 +3.0041864160e+03 3.0041864160e+03 0.0000000000e+00 0.0000e+00 -1.0000e+00
       -2 -1    0    0    0  501 -0.0000000000e+00 -0.0000000000e+00 -8.6302634696e+02 8.6302634696e+02 0.0000000000e+00 0.0000e+00 1.0000e+00
      -13  1    1    2    0    0 +3.0567588488e+02 -9.1348941843e+02 +2.6200120011e+03 2.7914805301e+03 0.0000000000e+00 0.0000e+00 -1.0000e+00
       13  1    1    2    0    0 -3.0567588488e+02 +9.1348941843e+02 -4.7885193197e+02 1.0757322329e+03 0.0000000000e+00 0.0000e+00 1.0000e+00
<mgrwt>
<rscale>  0 0.32203677E+04</rscale>
<asrwt>0</asrwt>
<pdfrwt beam="1">  1        2 0.46218252E+00 0.32203677E+04</pdfrwt>
<pdfrwt beam="2">  1       -2 0.13277329E+00 0.32203677E+04</pdfrwt>
<totfact> 0.71254745E-01</totfact>
</mgrwt>
<rwgt>
<wgt id='morphing_basis_vector_1'> +3.8977491e-05 </wgt>
<wgt id='morphing_basis_vector_2'> +4.8444941e-05 </wgt>
<wgt id='morphing_basis_vector_3'> +4.7296500e-05 </wgt>
<wgt id='morphing_basis_vector_4'> +2.4501376e-06 </wgt>
<wgt id='morphing_basis_vector_5'> +3.4750340e-05 </wgt>
</rwgt>
</event>
<event>
 4      1 +1.9882500e-09 3.81601900e+03 7.81860800e-03 7.57451600e-02
        2 -1    0    0  501    0 +0.0000000000e+00 +0.0000000000e+00 +2.7470131281e+03 2.7470131281e+03 0.0000000000e+00 0.0000e+00 -1.0000e+00
       -2 -1    0    0    0  501 -0.0000000000e+00 -0.0000000000e+00 -1.3252577505e+03 1.3252577505e+03 0.0000000000e+00 0.0000e+00 1.0000e+00
      -13  1    1    2    0    0 -8.4697107195e+02 -1.7641669684e+02 -1.1039131750e+03 1.4025359695e+03 0.0000000000e+00 0.0000e+00 1.0000e+00
       13  1    1    2    0    0 +8.4697107195e+02 +1.7641669684e+02 +2.5256685526e+03 2.6697349092e+03 0.0000000000e+00 0.0000e+00 -1.0000e+00
<mgrwt>
<rscale>  0 0.38160191E+04</rscale>
<asrwt>0</asrwt>
<pdfrwt beam="1">  1        2 0.42261740E+00 0.38160191E+04</pdfrwt>
<pdfrwt beam="2">  1       -2 0.20388581E+00 0.38160191E+04</pdfrwt>
<totfact> 0.27127561E-01</totfact>
</mgrwt>
<rwgt>
<wgt id='morphing_basis_vector_1'> +5.7362300e-05 </wgt>
<wgt id='morphing_basis_vector_2'> +3.8857907e-05 </wgt>
<wgt id='morphing_basis_vector_3'> +6.2912423e-05 </wgt>
<wgt id='morphing_basis_vector_4'> +4.5243875e-05 </wgt>
<wgt id='morphing_basis_vector_5'> +7.2151031e-05 </wgt>
</rwgt>
</event>
<event>
 4      1 +1.9882500e-09 3.75043600e+03 7.81860800e-03 7.58703500e-02
        2 -1    0    0  501    0 +0.0000000000e+00 +0.0000000000e+00 +2.0539249260e+03 2.0539249260e+03 0.0000000000e+00 0.0000e+00 -1.0000e+00
       -2 -1    0    0    0  501 -0.0000000000e+00 -0.0000000000e+00 -1.7120600313e+03 1.7120600313e+03 0.0000000000e+00 0.0000e+00 1.0000e+00
      -13  1    1    2    0    0 -4.1809965961e+02 -5.5053133120e+02 -1.5794383212e+03 1.7240990350e+03 0.0000000000e+00 0.0000e+00 1.0000e+00
       13  1    1    2    0    0 +4.1809965961e+02 +5.5053133120e+02 +1.9213032160e+03 2.0418859223e+03 0.0000000000e+00 0.0000e+00 -1.0000e+00
<mgrwt>
<rscale>  0 0.37504361E+04</rscale>
<asrwt>0</asrwt>
<pdfrwt beam="1">  1        2 0.31598845E+00 0.37504361E+04</pdfrwt>
<pdfrwt beam="2">  1       -2 0.26339385E+00 0.37504361E+04</pdfrwt>
<totfact> 0.26732129E-01</totfact>
</mgrwt>
<rwgt>
<wgt id='morphing_basis_vector_1'> +5.3536386e-05 </wgt>
<wgt id='morphing_basis_vector_2'> +3.6247762e-05 </wgt>
<wgt id='morphing_basis_vector_3'> +5.8692470e-05 </wgt>
<wgt id='morphing_basis_vector_4'> +4.2206077e-05 </wgt>
<wgt id='morphing_basis_vector_5'> +6.7292259e-05 </wgt>
</rwgt>
</event>
<event>
 4      1 +1.9882500e-09 3.42734100e+03 7.81860800e-03 7.65278100e-02
        2 -1    0    0  501    0 +0.0000000000e+00 +0.0000000000e+00 +1.5936666956e+03 1.5936666956e+03 0.0000000000e+00 0.0000e+00 -1.0000e+00
       -2 -1    0    0    0  501 -0.0000000000e+00 -0.0000000000e+00 -1.8427107177e+03 1.8427107177e+03 0.0000000000e+00 0.0000e+00 1.0000e+00
      -13  1    1    2    0    0 -1.3128730344e+02 +1.2469348773e+03 -1.2957558986e+03 1.8030713499e+03 0.0000000000e+00 0.0000e+00 1.0000e+00
       13  1    1    2    0    0 +1.3128730344e+02 -1.2469348773e+03 +1.0467118765e+03 1.6333060634e+03 0.0000000000e+00 0.0000e+00 -1.0000e+00
<mgrwt>
<rscale>  0 0.34273411E+04</rscale>
<asrwt>0</asrwt>
<pdfrwt beam="1">  1        2 0.24517949E+00 0.34273411E+04</pdfrwt>
<pdfrwt beam="2">  1       -2 0.28349396E+00 0.34273411E+04</pdfrwt>
<totfact> 0.36172829E-01</totfact>
</mgrwt>
<rwgt>
<wgt id='morphing_basis_vector_1'> +3.7476437e-05 </wgt>
<wgt id='morphing_basis_vector_2'> +2.5457870e-05 </wgt>
<wgt id='morphing_basis_vector_3'> +4.1023856e-05 </wgt>
<wgt id='morphing_basis_vector_4'> +2.9261703e-05 </wgt>
<wgt id='morphing_basis_vector_5'> +4.6818034e-05 </wgt>
</rwgt>
</event>
<event>
 4      1 +1.9882500e-09 3.37488700e+03 7.81860800e-03 7.66415600e-02
        2 -1    0    0  501    0 +0.0000000000e+00 +0.0000000000e+00 +2.1545898815e+03 2.1545898815e+03 0.0000000000e+00 0.0000e+00 1.0000e+00
       -2 -1    0    0    0  501 -0.0000000000e+00 -0.0000000000e+00 -1.3215809662e+03 1.3215809662e+03 0.0000000000e+00 0.0000e+00 -1.0000e+00
      -13  1    1    2    0    0 +1.1911844312e+03 +1.1759900490e+03 +6.3643543262e+02 1.7907883751e+03 0.0000000000e+00 0.0000e+00 -1.0000e+00
       13  1    1    2    0    0 -1.1911844312e+03 -1.1759900490e+03 +1.9657348262e+02 1.6853824725e+03 0.0000000000e+00 0.0000e+00 1.0000e+00
<mgrwt>
<rscale>  0 0.33748867E+04</rscale>
<asrwt>0</asrwt>
<pdfrwt beam="1">  1        2 0.33147537E+00 0.33748867E+04</pdfrwt>
<pdfrwt beam="2">  1       -2 0.20332015E+00 0.33748867E+04</pdfrwt>
<totfact> 0.63838521E-01</totfact>
</mgrwt>
<rwgt>
<wgt id='morphing_basis_vector_1'> +3.7217507e-05 </wgt>
<wgt id='morphing_basis_vector_2'> +2.9729064e-05 </wgt>
<wgt id='morphing_basis_vector_3'> +4.1687573e-05 </wgt>
<wgt id='morphing_basis_vector_4'> +2.3371372e-05 </wgt>
<wgt id='morphing_basis_vector_5'> +4.3656825e-05 </wgt>
</rwgt>
</event>
<event>
 4      1 +1.9882500e-09 3.43129900e+03 7.81860800e-03 7.65193100e-02
        2 -1    0    0  501    0 +0.0000000000e+00 +0.0000000000e+00 +1.3465393717e+03 1.3465393717e+03 0.0000000000e+00 0.0000e+00 1.0000e+00
       -2 -1    0    0    0  501 -0.0000000000e+00 -0.0000000000e+00 -2.1859392905e+03 2.1859392905e+03 0.0000000000e+00 0.0000e+00 -1.0000e+00
      -13  1    1    2    0    0 -9.2439094066e+02 -9.9589336560e+02 +6.5863627584e+02 1.5100013082e+03 0.0000000000e+00 0.0000e+00 -1.0000e+00
       13  1    1    2    0    0 +9.2439094066e+02 +9.9589336560e+02 -1.4980361947e+03 2.0224773540e+03 0.0000000000e+00 0.0000e+00 1.0000e+00
<mgrwt>
<rscale>  0 0.34312991E+04</rscale>
<asrwt>0</asrwt>
<pdfrwt beam="1">  1        2 0.20715990E+00 0.34312991E+04</pdfrwt>
<pdfrwt beam="2">  1       -2 0.33629835E+00 0.34312991E+04</pdfrwt>
<totfact> 0.22044476E-01</totfact>
</mgrwt>
<rwgt>
<wgt id='morphing_basis_vector_1'> +4.6695613e-05 </wgt>
<wgt id='morphing_basis_vector_2'> +5.2191937e-05 </wgt>
<wgt id='morphing_basis_vector_3'> +5.5564685e-05 </wgt>
<wgt id='morphing_basis_vector_4'> +1.0400613e-05 </wgt>
<wgt id='morphing_basis_vector_5'> +4.5463283e-05 </wgt>
</rwgt>
</event>
<event>
 4      1 +1.9882500e-09 3.66330800e+03 7.81860800e-03 7.60407600e-02
        2 -1    0    0  501    0 +0.0000000000e+00 +0.0000000000e+00 +2.4073745655e+03 2.4073745655e+03 0.0000000000e+00 0.0000e+00 1.0000e+00
       -2 -1    0    0    0  501 -0.0000000000e+00 -0.0000000000e+00 -1.3936164897e+03 1.3936164897e+03 0.0000000000e+00 0.0000e+00 -1.0000e+00
      -13  1    1    2    0    0 +1.2522293798e+02 +1.7645053008e+03 +1.3838522791e+01 1.7689972429e+03 0.0000000000e+00 0.0000e+00 -1.0000e+00
       13  1    1    2    0    0 -1.2522293798e+02 -1.7645053008e+03 +9.9991955298e+02 2.0319938123e+03 0.0000000000e+00 0.0000e+00 1.0000e+00
<mgrwt>
<rscale>  0 0.36633083E+04</rscale>
<asrwt>0</asrwt>
<pdfrwt beam="1">  1        2 0.37036532E+00 0.36633083E+04</pdfrwt>
<pdfrwt beam="2">  1       -2 0.21440254E+00 0.36633083E+04</pdfrwt>
<totfact> 0.37022513E-01</totfact>
</mgrwt>
<rwgt>
<wgt id='morphing_basis_vector_1'> +4.9419725e-05 </wgt>
<wgt id='morphing_basis_vector_2'> +3.4943883e-05 </wgt>
<wgt id='morphing_basis_vector_3'> +5.4480502e-05 </wgt>
<wgt id='morphing_basis_vector_4'> +3.7007193e-05 </wgt>
<wgt id='morphing_basis_vector_5'> +6.1104817e-05 </wgt>
</rwgt>
</event>
<event>
 4      1 +1.9882500e-09 3.54618300e+03 7.81860800e-03 7.62776500e-02
        2 -1    0    0  501    0 +0.0000000000e+00 +0.0000000000e+00 +1.9654825176e+03 1.9654825176e+03 0.0000000000e+00 0.0000e+00 -1.0000e+00
       -2 -1    0    0    0  501 -0.0000000000e+00 -0.0000000000e+00 -1.5995330355e+03 1.5995330355e+03 0.0000000000e+00 0.0000e+00 1.0000e+00
      -13  1    1    2    0    0 -9.0024583233e+02 +4.1533567910e+02 +1.6607839395e+03 1.9342051542e+03 0.0000000000e+00 0.0000e+00 -1.0000e+00
       13  1    1    2    0    0 +9.0024583233e+02 -4.1533567910e+02 -1.2948344574e+03 1.6308103989e+03 0.0000000000e+00 0.0000e+00 1.0000e+00
<mgrwt>
<rscale>  0 0.35461834E+04</rscale>
<asrwt>0</asrwt>
<pdfrwt beam="1">  1        2 0.30238193E+00 0.35461834E+04</pdfrwt>
<pdfrwt beam="2">  1       -2 0.24608200E+00 0.35461834E+04</pdfrwt>
<totfact> 0.40129175E-01</totfact>
</mgrwt>
<rwgt>
<wgt id='morphing_basis_vector_1'> +5.7569464e-05 </wgt>
<wgt id='morphing_basis_vector_2'> +7.2280655e-05 </wgt>
<wgt id='morphing_basis_vector_3'> +7.0329577e-05 </wgt>
<wgt id='morphing_basis_vector_4'> +2.7318555e-06 </wgt>
<wgt id='morphing_basis_vector_5'> +5.1148485e-05 </wgt>
</rwgt>
</event>
<event>
 4      1 +1.9882500e-09 3.27591000e+03 7.81860800e-03 7.68621100e-02
        2 -1    0    0  501    0 +0.0000000000e+00 +0.0000000000e+00 +1.3575963656e+03 1.3575963656e+03 0.0000000000e+00 0.0000e+00 1.0000e+00
       -2 -1    0    0    0  501 -0.0000000000e+00 -0.0000000000e+00 -1.9762108848e+03 1.9762108848e+03 0.0000000000e+00 0.0000e+00 -1.0000e+00
      -13  1    1    2    0    0 -4.9004345339e+02 -4.9605834726e+02 -1.8176218649e+03 1.9467834276e+03 0.0000000000e+00 0.0000e+00 -1.0000e+00
       13  1    1    2    0    0 +4.9004345339e+02 +4.9605834726e+02 +1.1990073457e+03 1.3870238228e+03 0.0000000000e+00 0.0000e+00 1.0000e+00
<mgrwt>
<rscale>  0 0.32759101E+04</rscale>
<asrwt>0</asrwt>
<pdfrwt beam="1">  1        2 0.20886098E+00 0.32759101E+04</pdfrwt>
<pdfrwt beam="2">  1       -2 0.30403244E+00 0.32759101E+04</pdfrwt>
<totfact> 0.36085738E-01</totfact>
</mgrwt>
<rwgt>
<wgt id='morphing_basis_vector_1'> +3.1278182e-05 </wgt>
<wgt id='morphing_basis_vector_2'> +2.1134793e-05 </wgt>
<wgt id='morphing_basis_vector_3'> +3.4176199e-05 </wgt>
<wgt id='morphing_basis_vector_4'> +2.4481171e-05 </wgt>
<wgt id='morphing_basis_vector_5'> +3.9033435e-05 </wgt>
</rwgt>
</event>
<event>
 4      1 +1.9882500e-09 3.40845600e+03 7.81860800e-03 7.65685200e-02
        2 -1    0    0  501    0 +0.0000000000e+00 +0.0000000000e+00 +1.6855730490e+03 1.6855730490e+03 0.0000000000e+00 0.0000e+00 -1.0000e+00
       -2 -1    0    0    0  501 -0.0000000000e+00 -0.0000000000e+00 -1.7230895523e+03 1.7230895523e+03 0.0000000000e+00 0.0000e+00 1.0000e+00
      -13  1    1    2    0    0 +6.6906762401e+02 -1.9255571229e+02 -1.5743794359e+03 1.7214528155e+03 0.0000000000e+00 0.0000e+00 1.0000e+00
       13  1    1    2    0    0 -6.6906762401e+02 +1.9255571229e+02 +1.5368629326e+03 1.6872097858e+03 0.0000000000e+00 0.0000e+00 -1.0000e+00
<mgrwt>
<rscale>  0 0.34084561E+04</rscale>
<asrwt>0</asrwt>
<pdfrwt beam="1">  1        2 0.25931893E+00 0.34084561E+04</pdfrwt>
<pdfrwt beam="2">  1       -2 0.26509070E+00 0.34084561E+04</pdfrwt>
<totfact> 0.43011289E-01</totfact>
</mgrwt>
<rwgt>
<wgt id='morphing_basis_vector_1'> +3.6612719e-05 </wgt>
<wgt id='morphing_basis_vector_2'> +2.4755237e-05 </wgt>
<wgt id='morphing_basis_vector_3'> +4.0047942e-05 </wgt>
<wgt id='morphing_basis_vector_4'> +2.8723260e-05 </wgt>
<wgt id='morphing_basis_vector_5'> +4.5796477e-05 </wgt>
</rwgt>
</event>
<event>
 4      1 +1.9882500e-09 3.79557600e+03 7.81860800e-03 7.57839100e-02
        2 -1    0    0  501    0 +0.0000000000e+00 +0.0000000000e+00 +3.0518783104e+03 3.0518783104e+03 0.0000000000e+00 0.0000e+00 1.0000e+00
       -2 -1    0    0    0  501 -0.0000000000e+00 -0.0000000000e+00 -1.1801251758e+03 1.1801251758e+03 0.0000000000e+00 0.0000e+00 -1.0000e+00
      -13  1    1    2    0    0 +1.0572577848e+03 -7.7029316050e+02 +2.4689088566e+03 2.7940394627e+03 0.0000000000e+00 0.0000e+00 1.0000e+00
       13  1    1    2    0    0 -1.0572577848e+03 +7.7029316050e+02 -5.9715572204e+02 1.4379640236e+03 0.0000000000e+00 0.0000e+00 -1.0000e+00
<mgrwt>
<rscale>  0 0.37955755E+04</rscale>
<asrwt>0</asrwt>
<pdfrwt beam="1">  1        2 0.46951973E+00 0.37955755E+04</pdfrwt>
<pdfrwt beam="2">  1       -2 0.18155772E+00 0.37955755E+04</pdfrwt>
<totfact> 0.25375922E-01</totfact>
</mgrwt>
<rwgt>
<wgt id='morphing_basis_vector_1'> +7.3043582e-05 </wgt>
<wgt id='morphing_basis_vector_2'> +8.7705011e-05 </wgt>
<wgt id='morphing_basis_vector_3'> +8.8586410e-05 </wgt>
<wgt id='morphing_basis_vector_4'> +8.6230877e-06 </wgt>
<wgt id='morphing_basis_vector_5'> +6.7644219e-05 </wgt>
</rwgt>
</event>
<event>
 4      1 +1.9882500e-09 3.42422600e+03 7.81860800e-03 7.65345100e-02
        2 -1    0    0  501    0 +0.0000000000e+00 +0.0000000000e+00 +3.3344146263e+03 3.3344146263e+03 0.0000000000e+00 0.0000e+00 -1.0000e+00
       -2 -1    0    0    0  501 -0.0000000000e+00 -0.0000000000e+00 -8.7911422653e+02 8.7911422653e+02 0.0000000000e+00 0.0000e+00 1.0000e+00
      -13  1    1    2    0    0 -7.5393129981e+01 +1.5067982757e+03 +2.3161999293e+02 1.5263593905e+03 0.0000000000e+00 0.0000e+00 1.0000e+00
       13  1    1    2    0    0 +7.5393129981e+01 -1.5067982757e+03 +2.2236804068e+03 2.6871694623e+03 0.0000000000e+00 0.0000e+00 -1.0000e+00
<mgrwt>
<rscale>  0 0.34242262E+04</rscale>
<asrwt>0</asrwt>
<pdfrwt beam="1">  1        2 0.51298686E+00 0.34242262E+04</pdfrwt>
<pdfrwt beam="2">  1       -2 0.13524834E+00 0.34242262E+04</pdfrwt>
<totfact> 0.39833908E-01</totfact>
</mgrwt>
<rwgt>
<wgt id='morphing_basis_vector_1'> +3.7479277e-05 </wgt>
<wgt id='morphing_basis_vector_2'> +2.5771553e-05 </wgt>
<wgt id='morphing_basis_vector_3'> +4.1093775e-05 </wgt>
<wgt id='morphing_basis_vector_4'> +2.8865142e-05 </wgt>
<wgt id='morphing_basis_vector_5'> +4.6622942e-05 </wgt>
</rwgt>
</event>
<event>
 4      1 +1.9882500e-09 3.42445400e+03 7.81860800e-03 7.65340100e-02
        2 -1    0    0  501    0 +0.0000000000e+00 +0.0000000000e+00 +1.2362472637e+03 1.2362472637e+03 0.0000000000e+00 0.0000e+00 1.0000e+00
       -2 -1    0    0    0  501 -0.0000000000e+00 -0.0000000000e+00 -2.3714687639e+03 2.3714687639e+03 0.0000000000e+00 0.0000e+00 -1.0000e+00
      -13  1    1    2    0    0 -5.6689661265e+02 +6.9866223544e+02 -2.1023559592e+03 2.2867884178e+03 0.0000000000e+00 0.0000e+00 -1.0000e+00
       13  1    1    2    0    0 +5.6689661265e+02 -6.9866223544e+02 +9.6713445893e+02 1.3209276098e+03 0.0000000000e+00 0.0000e+00 1.0000e+00
<mgrwt>
<rscale>  0 0.34244543E+04</rscale>
<asrwt>0</asrwt>
<pdfrwt beam="1">  1        2 0.19019189E+00 0.34244543E+04</pdfrwt>
<pdfrwt beam="2">  1       -2 0.36484135E+00 0.34244543E+04</pdfrwt>
<totfact> 0.16645885E-01</totfact>
</mgrwt>
<rwgt>
<wgt id='morphing_basis_vector_1'> +3.7306778e-05 </wgt>
<wgt id='morphing_basis_vector_2'> +2.5241722e-05 </wgt>
<wgt id='morphing_basis_vector_3'> +4.0815408e-05 </wgt>
<wgt id='morphing_basis_vector_4'> +2.9255884e-05 </wgt>
<wgt id='morphing_basis_vector_5'> +4.6667154e-05 </wgt>
</rwgt>
</event>
<event>
 4      1 +1.9882500e-09 3.63361200e+03 7.81860800e-03 7.60999500e-02
        2 -1    0    0  501    0 +0.0000000000e+00 +0.0000000000e+00 +1.0441148326e+03 1.0441148326e+03 0.0000000000e+00 0.0000e+00 -1.0000e+00
       -2 -1    0    0    0  501 -0.0000000000e+00 -0.0000000000e+00 -3.1613227061e+03 3.1613227061e+03 0.0000000000e+00 0.0000e+00 1.0000e+00
      -13  1    1    2    0    0 -7.8459681035e+02 +2.5722793838e+02 -2.9316243555e+03 3.0456821451e+03 0.0000000000e+00 0.0000e+00 1.0000e+00
       13  1    1    2    0    0 +7.8459681035e+02 -2.5722793838e+02 +8.1441648199e+02 1.1597553937e+03 0.0000000000e+00 0.0000e+00 -1.0000e+00
<mgrwt>
<rscale>  0 0.36336119E+04</rscale>
<asrwt>0</asrwt>
<pdfrwt beam="1">  1        2 0.16063305E+00 0.36336119E+04</pdfrwt>
<pdfrwt beam="2">  1       -2 0.48635733E+00 0.36336119E+04</pdfrwt>
<totfact> 0.31801506E-02</totfact>
</mgrwt>
<rwgt>
<wgt id='morphing_basis_vector_1'> +4.7210900e-05 </wgt>
<wgt id='morphing_basis_vector_2'> +3.1959066e-05 </wgt>
<wgt id='morphing_basis_vector_3'> +5.1723061e-05 </wgt>
<wgt id='morphing_basis_vector_4'> +3.7153014e-05 </wgt>
<wgt id='morphing_basis_vector_5'> +5.9247019e-05 </wgt>
</rwgt>
</event>
<event>
 4      1 +1.9882500e-09 3.50528000e+03 7.81860800e-03 7.63626000e-02
        2 -1    0    0  501    0 +0.0000000000e+00 +0.0000000000e+00 +4.3844688016e+03 4.3844688016e+03 0.0000000000e+00 0.0000e+00 1.0000e+00
       -2 -1    0    0    0  501 -0.0000000000e+00 -0.0000000000e+00 -7.0059742991e+02 7.0059742991e+02 0.0000000000e+00 0.0000e+00 -1.0000e+00
      -13  1    1    2    0    0 -5.3152182951e+02 -5.1431277250e+02 -4.6311241535e+02 8.7264322174e+02 0.0000000000e+00 0.0000e+00 -1.0000e+00
       13  1    1    2    0    0 +5.3152182951e+02 +5.1431277250e+02 +4.1469837870e+03 4.2124230097e+03 0.0000000000e+00 0.0000e+00 1.0000e+00
<mgrwt>
<rscale>  0 0.35052803E+04</rscale>
<asrwt>0</asrwt>
<pdfrwt beam="1">  1        2 0.67453364E+00 0.35052803E+04</pdfrwt>
<pdfrwt beam="2">  1       -2 0.10778422E+00 0.35052803E+04</pdfrwt>
<totfact> 0.97807666E-02</totfact>
</mgrwt>
<rwgt>
<wgt id='morphing_basis_vector_1'> +4.0922703e-05 </wgt>
<wgt id='morphing_basis_vector_2'> +2.7683360e-05 </wgt>
<wgt id='morphing_basis_vector_3'> +4.4794539e-05 </wgt>
<wgt id='morphing_basis_vector_4'> +3.2151026e-05 </wgt>
<wgt id='morphing_basis_vector_5'> +5.1264363e-05 </wgt>
</rwgt>
</event>
<event>
 4      1 +1.9882500e-09 3.28908100e+03 7.81860800e-03 7.68323000e-02
        2 -1    0    0  501    0 +0.0000000000e+00 +0.0000000000e+00 +3.9160184164e+03 3.9160184164e+03 0.0000000000e+00 0.0000e+00 -1.0000e+00
       -2 -1    0    0    0  501 -0.0000000000e+00 -0.0000000000e+00 -6.9062841358e+02 6.9062841358e+02 0.0000000000e+00 0.0000e+00 1.0000e+00
      -13  1    1    2    0    0 -1.1095562839e+03 -7.1593838941e+02 +2.9855787548e+03 3.2645617510e+03 0.0000000000e+00 0.0000e+00 -1.0000e+00
       13  1    1    2    0    0 +1.1095562839e+03 +7.1593838941e+02 +2.3981124800e+02 1.3420850790e+03 0.0000000000e+00 0.0000e+00 1.0000e+00
<mgrwt>
<rscale>  0 0.32890811E+04</rscale>
<asrwt>0</asrwt>
<pdfrwt beam="1">  1        2 0.60246436E+00 0.32890811E+04</pdfrwt>
<pdfrwt beam="2">  1       -2 0.10625053E+00 0.32890811E+04</pdfrwt>
<totfact> 0.27248228E-01</totfact>
</mgrwt>
<rwgt>
<wgt id='morphing_basis_vector_1'> +3.9222995e-05 </wgt>
<wgt id='morphing_basis_vector_2'> +4.3378820e-05 </wgt>
<wgt id='morphing_basis_vector_3'> +4.6489884e-05 </wgt>
<wgt id='morphing_basis_vector_4'> +9.2897127e-06 </wgt>
<wgt id='morphing_basis_vector_5'> +3.8381609e-05 </wgt>
</rwgt>
</event>
<event>
 4      1 +1.9882500e-09 3.21169300e+03 7.81860800e-03 7.70095500e-02
        2 -1    0    0  501    0 +0.0000000000e+00 +0.0000000000e+00 +1.5796042574e+03 1.5796042574e+03 0.0000000000e+00 0.0000e+00 -1.0000e+00
       -2 -1    0    0    0  501 -0.0000000000e+00 -0.0000000000e+00 -1.6325246864e+03 1.6325246864e+03 0.0000000000e+00 0.0000e+00 1.0000e+00
      -13  1    1    2    0    0 -1.2939652244e+03 -7.9308999351e+02 -5.5132208120e+02 1.6147116699e+03 0.0000000000e+00 0.0000e+00 1.0000e+00
       13  1    1    2    0    0 +1.2939652244e+03 +7.9308999351e+02 +4.9840165219e+02 1.5974172738e+03 0.0000000000e+00 0.0000e+00 -1.0000e+00
<mgrwt>
<rscale>  0 0.32116930E+04</rscale>
<asrwt>0</asrwt>
<pdfrwt beam="1">  1        2 0.24301604E+00 0.32116930E+04</pdfrwt>
<pdfrwt beam="2">  1       -2 0.25115764E+00 0.32116930E+04</pdfrwt>
<totfact> 0.62451179E-01</totfact>
</mgrwt>
<rwgt>
<wgt id='morphing_basis_vector_1'> +2.9206852e-05 </wgt>
<wgt id='morphing_basis_vector_2'> +2.0390744e-05 </wgt>
<wgt id='morphing_basis_vector_3'> +3.2036331e-05 </wgt>
<wgt id='morphing_basis_vector_4'> +2.1992762e-05 </wgt>
<wgt id='morphing_basis_vector_5'> +3.5989547e-05 </wgt>
</rwgt>
</event>
<event>
 4      1 +1.9882500e-09 3.48775100e+03 7.81860800e-03 7.63993700e-02
        2 -1    0    0  501    0 +0.0000000000e+00 +0.0000000000e+00 +2.4115163060e+03 2.4115163060e+03 0.0000000000e+00 0.0000e+00 1.0000e+00
       -2 -1    0    0    0  501 -0.0000000000e+00 -0.0000000000e+00 -1.2610742497e+03 1.2610742497e+03 0.0000000000e+00 0.0000e+00 -1.0000e+00
      -13  1    1    2    0    0 +6.9471147089e+00 -1.0283774594e+03 -9.0778318678e+02 1.3717429699e+03 0.0000000000e+00 0.0000e+00 -1.0000e+00
       13  1    1    2    0    0 -6.9471147089e+00 +1.0283774594e+03 +2.0582252431e+03 2.3008475857e+03 0.0000000000e+00 0.0000e+00 1.0000e+00
<mgrwt>
<rscale>  0 0.34877506E+04</rscale>
<asrwt>0</asrwt>
<pdfrwt beam="1">  1        2 0.37100251E+00 0.34877506E+04</pdfrwt>
<pdfrwt beam="2">  1       -2 0.19401142E+00 0.34877506E+04</pdfrwt>
<totfact> 0.52515079E-01</totfact>
</mgrwt>
<rwgt>
<wgt id='morphing_basis_vector_1'> +4.0130195e-05 </wgt>
<wgt id='morphing_basis_vector_2'> +2.7178106e-05 </wgt>
<wgt id='morphing_basis_vector_3'> +4.3928771e-05 </wgt>
<wgt id='morphing_basis_vector_4'> +3.1478016e-05 </wgt>
<wgt id='morphing_basis_vector_5'> +5.0237452e-05 </wgt>
</rwgt>
</event>
<event>
 4      1 +1.9882500e-09 3.36787700e+03 7.81860800e-03 7.66569200e-02
        2 -1    0    0  501    0 +0.0000000000e+00 +0.0000000000e+00 +2.3415068053e+03 2.3415068053e+03 0.0000000000e+00 0.0000e+00 1.0000e+00
       -2 -1    0    0    0  501 -0.0000000000e+00 -0.0000000000e+00 -1.2110358388e+03 1.2110358388e+03 0.0000000000e+00 0.0000e+00 -1.0000e+00
      -13  1    1    2    0    0 -1.4494601397e+02 +1.1697091797e+03 -7.0338075242e+02 1.3725791033e+03 0.0000000000e+00 0.0000e+00 -1.0000e+00
       13  1    1    2    0    0 +1.4494601397e+02 -1.1697091797e+03 +1.8338517189e+03 2.1799635408e+03 0.0000000000e+00 0.0000e+00 1.0000e+00
<mgrwt>
<rscale>  0 0.33678769E+04</rscale>
<asrwt>0</asrwt>
<pdfrwt beam="1">  1        2 0.36023181E+00 0.33678769E+04</pdfrwt>
<pdfrwt beam="2">  1       -2 0.18631321E+00 0.33678769E+04</pdfrwt>
<totfact> 0.66519912E-01</totfact>
</mgrwt>
<rwgt>
<wgt id='morphing_basis_vector_1'> +3.4948471e-05 </wgt>
<wgt id='morphing_basis_vector_2'> +2.3707861e-05 </wgt>
<wgt id='morphing_basis_vector_3'> +3.8233307e-05 </wgt>
<wgt id='morphing_basis_vector_4'> +2.7294202e-05 </wgt>
<wgt id='morphing_basis_vector_5'> +4.3633371e-05 </wgt>
</rwgt>
</event>
<event>
 4      1 +1.9882500e-09 3.51998600e+03 7.81860800e-03 7.63319200e-02
        2 -1    0    0  501    0 +0.0000000000e+00 +0.0000000000e+00 +2.2398807014e+03 2.2398807014e+03 0.0000000000e+00 0.0000e+00 1.0000e+00
       -2 -1    0    0    0  501 -0.0000000000e+00 -0.0000000000e+00 -1.3829199377e+03 1.3829199377e+03 0.0000000000e+00 0.0000e+00 -1.0000e+00
      -13  1    1    2    0    0 +1.3620833457e+03 -5.2350645441e+02 +1.4412163865e+03 2.0509594636e+03 0.0000000000e+00 0.0000e+00 1.0000e+00
       13  1    1    2    0    0 -1.3620833457e+03 +5.2350645441e+02 -5.8425562285e+02 1.5718411756e+03 0.0000000000e+00 0.0000e+00 -1.0000e+00
<mgrwt>
<rscale>  0 0.35199862E+04</rscale>
<asrwt>0</asrwt>
<pdfrwt beam="1">  1        2 0.34459703E+00 0.35199862E+04</pdfrwt>
<pdfrwt beam="2">  1       -2 0.21275691E+00 0.35199862E+04</pdfrwt>
<totfact> 0.48184541E-01</totfact>
</mgrwt>
<rwgt>
<wgt id='morphing_basis_vector_1'> +5.0539346e-05 </wgt>
<wgt id='morphing_basis_vector_2'> +5.4418179e-05 </wgt>
<wgt id='morphing_basis_vector_3'> +5.9747007e-05 </wgt>
<wgt id='morphing_basis_vector_4'> +1.3919482e-05 </wgt>
<wgt id='morphing_basis_vector_5'> +5.0579174e-05 </wgt>
</rwgt>
</event>
<event>
 4      1 +1.9882500e-09 3.47133100e+03 7.81860800e-03 7.64340100e-02
        2 -1    0    0  501    0 +0.0000000000e+00 +0.0000000000e+00 +2.0563401515e+03 2.0563401515e+03 0.0000000000e+00 0.0000e+00 -1.0000e+00
       -2 -1    0    0    0  501 -0.0000000000e+00 -0.0000000000e+00 -1.4649983741e+03 1.4649983741e+03 0.0000000000e+00 0.0000e+00 1.0000e+00
      -13  1    1    2    0    0 +4.7316832185e+02 +1.1549647541e+03 -9.2781487619e+02 1.5552081174e+03 0.0000000000e+00 0.0000e+00 1.0000e+00
       13  1    1    2    0    0 -4.7316832185e+02 -1.1549647541e+03 +1.5191566536e+03 1.9661304082e+03 0.0000000000e+00 0.0000e+00 -1.0000e+00
<mgrwt>
<rscale>  0 0.34713311E+04</rscale>
<asrwt>0</asrwt>
<pdfrwt beam="1">  1        2 0.31636002E+00 0.34713311E+04</pdfrwt>
<pdfrwt beam="2">  1       -2 0.22538437E+00 0.34713311E+04</pdfrwt>
<totfact> 0.50077132E-01</totfact>
</mgrwt>
<rwgt>
<wgt id='morphing_basis_vector_1'> +3.9418540e-05 </wgt>
<wgt id='morphing_basis_vector_2'> +2.6770392e-05 </wgt>
<wgt id='morphing_basis_vector_3'> +4.3161248e-05 </wgt>
<wgt id='morphing_basis_vector_4'> +3.0814898e-05 </wgt>
<wgt id='morphing_basis_vector_5'> +4.9286110e-05 </wgt>
</rwgt>
</event>
<event>
 4      1 +1.9882500e-09 3.44707500e+03 7.81860800e-03 7.64855500e-02
        2 -1    0    0  501    0 +0.0000000000e+00 +0.0000000000e+00 +1.5525569513e+03 1.5525569513e+03 0.0000000000e+00 0.0000e+00 1.0000e+00
       -2 -1    0    0    0  501 -0.0000000000e+00 -0.0000000000e+00 -1.9133480780e+03 1.9133480780e+03 0.0000000000e+00 0.0000e+00 -1.0000e+00
      -13  1    1    2    0    0 +8.1194243286e+02 -1.0696569900e+03 -1.2666512877e+03 1.8460287309e+03 0.0000000000e+00 0.0000e+00 -1.0000e+00
       13  1    1    2    0    0 -8.1194243286e+02 +1.0696569900e+03 +9.0586016106e+02 1.6198762984e+03 0.0000000000e+00 0.0000e+00 1.0000e+00
<mgrwt>
<rscale>  0 0.34470752E+04</rscale>
<asrwt>0</asrwt>
<pdfrwt beam="1">  1        2 0.23885492E+00 0.34470752E+04</pdfrwt>
<pdfrwt beam="2">  1       -2 0.29436124E+00 0.34470752E+04</pdfrwt>
<totfact> 0.32124074E-01</totfact>
</mgrwt>
<rwgt>
<wgt id='morphing_basis_vector_1'> +3.8366925e-05 </wgt>
<wgt id='morphing_basis_vector_2'> +2.6124014e-05 </wgt>
<wgt id='morphing_basis_vector_3'> +4.2017656e-05 </wgt>
<wgt id='morphing_basis_vector_4'> +2.9891451e-05 </wgt>
<wgt id='morphing_basis_vector_5'> +4.7908559e-05 </wgt>
</rwgt>
</event>
<event>
 4      1 +1.9882500e-09 3.40987800e+03 7.81860800e-03 7.65654500e-02
        2 -1    0    0  501    0 +0.0000000000e+00 +0.0000000000e+00 +1.5215163562e+03 1.5215163562e+03 0.0000000000e+00 0.0000e+00 -1.0000e+00
       -2 -1    0    0    0  501 -0.0000000000e+00 -0.0000000000e+00 -1.9104737207e+03 1.9104737207e+03 0.0000000000e+00 0.0000e+00 1.0000e+00
      -13  1    1    2    0    0 -1.1942962417e+02 +3.6340595248e+02 -1.8667249910e+03 1.9055155506e+03 0.0000000000e+00 0.0000e+00 1.0000e+00
       13  1    1    2    0    0 +1.1942962417e+02 -3.6340595248e+02 +1.4777676265e+03 1.5264745263e+03 0.0000000000e+00 0.0000e+00 -1.0000e+00
<mgrwt>
<rscale>  0 0.34098780E+04</rscale>
<asrwt>0</asrwt>
<pdfrwt beam="1">  1        2 0.23407944E+00 0.34098780E+04</pdfrwt>
<pdfrwt beam="2">  1       -2 0.29391903E+00 0.34098780E+04</pdfrwt>
<totfact> 0.33767285E-01</totfact>
</mgrwt>
<rwgt>
<wgt id='morphing_basis_vector_1'> +3.6670557e-05 </wgt>
<wgt id='morphing_basis_vector_2'> +2.4788031e-05 </wgt>
<wgt id='morphing_basis_vector_3'> +4.0110237e-05 </wgt>
<wgt id='morphing_basis_vector_4'> +2.8777549e-05 </wgt>
<wgt id='morphing_basis_vector_5'> +4.5873964e-05 </wgt>
</rwgt>
</event>
<event>
 4      1 +1.9882500e-09 3.37259300e+03 7.81860800e-03 7.66465800e-02
        2 -1    0    0  501    0 +0.0000000000e+00 +0.0000000000e+00 +2.2073090617e+03 2.2073090617e+03 0.0000000000e+00 0.0000e+00 -1.0000e+00
       -2 -1    0    0    0  501 -0.0000000000e+00 -0.0000000000e+00 -1.2882634119e+03 1.2882634119e+03 0.0000000000e+00 0.0000e+00 1.0000e+00
      -13  1    1    2    0    0 +1.2977966800e+03 -1.0212053904e+03 +1.0581829754e+02 1.6547912812e+03 0.0000000000e+00 0.0000e+00 1.0000e+00
       13  1    1    2    0    0 -1.2977966800e+03 +1.0212053904e+03 +8.1322735227e+02 1.8407811925e+03 0.0000000000e+00 0.0000e+00 -1.0000e+00
<mgrwt>
<rscale>  0 0.33725928E+04</rscale>
<asrwt>0</asrwt>
<pdfrwt beam="1">  1        2 0.33958601E+00 0.33725928E+04</pdfrwt>
<pdfrwt beam="2">  1       -2 0.19819437E+00 0.33725928E+04</pdfrwt>
<totfact> 0.64916392E-01</totfact>
</mgrwt>
<rwgt>
<wgt id='morphing_basis_vector_1'> +3.5704643e-05 </wgt>
<wgt id='morphing_basis_vector_2'> +2.5492490e-05 </wgt>
<wgt id='morphing_basis_vector_3'> +3.9337033e-05 </wgt>
<wgt id='morphing_basis_vector_4'> +2.6270665e-05 </wgt>
<wgt id='morphing_basis_vector_5'> +4.3782566e-05 </wgt>
</rwgt>
</event>
<event>
 4      1 +1.9882500e-09 3.75528600e+03 7.81860800e-03 7.58610000e-02
        2 -1    0    0  501    0 +0.0000000000e+00 +0.0000000000e+00 +2.1714701542e+03 2.1714701542e+03 0.0000000000e+00 0.0000e+00 -1.0000e+00
       -2 -1    0    0    0  501 -0.0000000000e+00 -0.0000000000e+00 -1.6235746338e+03 1.6235746338e+03 0.0000000000e+00 0.0000e+00 1.0000e+00
      -13  1    1    2    0    0 +2.9145190264e+02 +1.8020158219e+03 +7.1830592423e+02 1.9616749564e+03 0.0000000000e+00 0.0000e+00 1.0000e+00
       13  1    1    2    0    0 -2.9145190264e+02 -1.8020158219e+03 -1.7041040383e+02 1.8333698317e+03 0.0000000000e+00 0.0000e+00 -1.0000e+00
<mgrwt>
<rscale>  0 0.37552863E+04</rscale>
<asrwt>0</asrwt>
<pdfrwt beam="1">  1        2 0.33407233E+00 0.37552863E+04</pdfrwt>
<pdfrwt beam="2">  1       -2 0.24978071E+00 0.37552863E+04</pdfrwt>
<totfact> 0.28432271E-01</totfact>
</mgrwt>
<rwgt>
<wgt id='morphing_basis_vector_1'> +5.8245678e-05 </wgt>
<wgt id='morphing_basis_vector_2'> +4.9471172e-05 </wgt>
<wgt id='morphing_basis_vector_3'> +6.6079586e-05 </wgt>
<wgt id='morphing_basis_vector_4'> +3.3073967e-05 </wgt>
<wgt id='morphing_basis_vector_5'> +6.6865680e-05 </wgt>
</rwgt>
</event>
<event>
 4      1 +1.9882500e-09 3.40201500e+03 7.81860800e-03 7.65824700e-02
        2 -1    0    0  501    0 +0.0000000000e+00 +0.0000000000e+00 +3.5183043978e+03 3.5183043978e+03 0.0000000000e+00 0.0000e+00 -1.0000e+00
       -2 -1    0    0    0  501 -0.0000000000e+00 -0.0000000000e+00 -8.2239229499e+02 8.2239229499e+02 0.0000000000e+00 0.0000e+00 1.0000e+00
      -13  1    1    2    0    0 -3.8178328763e+02 +9.9034949891e+02 -3.4804546594e+02 1.1169987713e+03 0.0000000000e+00 0.0000e+00 1.0000e+00
       13  1    1    2    0    0 +3.8178328763e+02 -9.9034949891e+02 +3.0439575687e+03 3.2236979215e+03 0.0000000000e+00 0.0000e+00 -1.0000e+00
<mgrwt>
<rscale>  0 0.34020149E+04</rscale>
<asrwt>0</asrwt>
<pdfrwt beam="1">  1        2 0.54127759E+00 0.34020149E+04</pdfrwt>
<pdfrwt beam="2">  1       -2 0.12652189E+00 0.34020149E+04</pdfrwt>
<totfact> 0.35227160E-01</totfact>
</mgrwt>
<rwgt>
<wgt id='morphing_basis_vector_1'> +3.6357878e-05 </wgt>
<wgt id='morphing_basis_vector_2'> +2.4625633e-05 </wgt>
<wgt id='morphing_basis_vector_3'> +3.9776646e-05 </wgt>
<wgt id='morphing_basis_vector_4'> +2.8465028e-05 </wgt>
<wgt id='morphing_basis_vector_5'> +4.5445585e-05 </wgt>
</rwgt>
</event>
<event>
 4      1 +1.9882500e-09 3.27320500e+03 7.81860800e-03 7.68682500e-02
        2 -1    0    0  501    0 +0.0000000000e+00 +0.0000000000e+00 +1.8527917746e+03 1.8527917746e+03 0.0000000000e+00 0.0000e+00 -1.0000e+00
       -2 -1    0    0    0  501 -0.0000000000e+00 -0.0000000000e+00 -1.4456391861e+03 1.4456391861e+03 0.0000000000e+00 0.0000e+00 1.0000e+00
      -13  1    1    2    0    0 -8.0147957848e+02 +1.7264473326e+02 -1.2237763483e+03 1.4730255494e+03 0.0000000000e+00 0.0000e+00 1.0000e+00
       13  1    1    2    0    0 +8.0147957848e+02 -1.7264473326e+02 +1.6309289367e+03 1.8254054112e+03 0.0000000000e+00 0.0000e+00 -1.0000e+00
<mgrwt>
<rscale>  0 0.32732054E+04</rscale>
<asrwt>0</asrwt>
<pdfrwt beam="1">  1        2 0.28504489E+00 0.32732054E+04</pdfrwt>
<pdfrwt beam="2">  1       -2 0.22240603E+00 0.32732054E+04</pdfrwt>
<totfact> 0.69517808E-01</totfact>
</mgrwt>
<rwgt>
<wgt id='morphing_basis_vector_1'> +3.1179237e-05 </wgt>
<wgt id='morphing_basis_vector_2'> +2.1075410e-05 </wgt>
<wgt id='morphing_basis_vector_3'> +3.4068962e-05 </wgt>
<wgt id='morphing_basis_vector_4'> +2.4392639e-05 </wgt>
<wgt id='morphing_basis_vector_5'> +3.8903137e-05 </wgt>
</rwgt>
</event>
<event>
 4      1 +1.9882500e-09 3.34961700e+03 7.81860800e-03 7.66971200e-02
        2 -1    0    0  501    0 +0.0000000000e+00 +0.0000000000e+00 +1.7517014746e+03 1.7517014746e+03 0.0000000000e+00 0.0000e+00 -1.0000e+00
       -2 -1    0    0    0  501 -0.0000000000e+00 -0.0000000000e+00 -1.6012905455e+03 1.6012905455e+03 0.0000000000e+00 0.0000e+00 1.0000e+00
      -13  1    1    2    0    0 -1.2976907284e+03 -7.1580832587e+02 -7.0570898801e+02 1.6414651875e+03 0.0000000000e+00 0.0000e+00 1.0000e+00
       13  1    1    2    0    0 +1.2976907284e+03 +7.1580832587e+02 +8.5611991709e+02 1.7115268325e+03 0.0000000000e+00 0.0000e+00 -1.0000e+00
<mgrwt>
<rscale>  0 0.33496167E+04</rscale>
<asrwt>0</asrwt>
<pdfrwt beam="1">  1        2 0.26949254E+00 0.33496167E+04</pdfrwt>
<pdfrwt beam="2">  1       -2 0.24635239E+00 0.33496167E+04</pdfrwt>
<totfact> 0.53462062E-01</totfact>
</mgrwt>
<rwgt>
<wgt id='morphing_basis_vector_1'> +3.4345883e-05 </wgt>
<wgt id='morphing_basis_vector_2'> +2.3622529e-05 </wgt>
<wgt id='morphing_basis_vector_3'> +3.7638890e-05 </wgt>
<wgt id='morphing_basis_vector_4'> +2.6401477e-05 </wgt>
<wgt id='morphing_basis_vector_5'> +4.2663254e-05 </wgt>
</rwgt>
</event>
<event>
 4      1 +1.9882500e-09 3.72680500e+03 7.81860800e-03 7.59160900e-02
        2 -1    0    0  501    0 +0.0000000000e+00 +0.0000000000e+00 +2.1928821265e+03 2.1928821265e+03 0.0000000000e+00 0.0000e+00 1.0000e+00
       -2 -1    0    0    0  501 -0.0000000000e+00 -0.0000000000e+00 -1.5834269624e+03 1.5834269624e+03 0.0000000000e+00 0.0000e+00 -1.0000e+00
      -13  1    1    2    0    0 +1.4620654405e+03 -9.0813077281e+02 +1.0283082210e+03 2.0049325800e+03 0.0000000000e+00 0.0000e+00 1.0000e+00
       13  1    1    2    0    0 -1.4620654405e+03 +9.0813077281e+02 -4.1885305688e+02 1.7713765089e+03 0.0000000000e+00 0.0000e+00 -1.0000e+00
<mgrwt>
<rscale>  0 0.37268049E+04</rscale>
<asrwt>0</asrwt>
<pdfrwt beam="1">  1        2 0.33736648E+00 0.37268049E+04</pdfrwt>
<pdfrwt beam="2">  1       -2 0.24360415E+00 0.37268049E+04</pdfrwt>
<totfact> 0.30575357E-01</totfact>
</mgrwt>
<rwgt>
<wgt id='morphing_basis_vector_1'> +5.9103063e-05 </wgt>
<wgt id='morphing_basis_vector_2'> +5.5621305e-05 </wgt>
<wgt id='morphing_basis_vector_3'> +6.8238255e-05 </wgt>
<wgt id='morphing_basis_vector_4'> +2.6605922e-05 </wgt>
<wgt id='morphing_basis_vector_5'> +6.4394545e-05 </wgt>
</rwgt>
</event>
<event>
 4      1 +1.9882500e-09 3.44079700e+03 7.81860800e-03 7.64989700e-02
        2 -1    0    0  501    0 +0.0000000000e+00 +0.0000000000e+00 +1.2770695460e+03 1.2770695460e+03 0.0000000000e+00 0.0000e+00 -1.0000e+00
       -2 -1    0    0    0  501 -0.0000000000e+00 -0.0000000000e+00 -2.3176271999e+03 2.3176271999e+03 0.0000000000e+00 0.0000e+00 1.0000e+00
      -13  1    1    2    0    0 -5.2472759165e+02 +3.0277434054e+02 -2.2025048179e+03 2.2843026988e+03 0.0000000000e+00 0.0000e+00 1.0000e+00
       13  1    1    2    0    0 +5.2472759165e+02 -3.0277434054e+02 +1.1619471640e+03 1.3103940471e+03 0.0000000000e+00 0.0000e+00 -1.0000e+00
<mgrwt>
<rscale>  0 0.34407971E+04</rscale>
<asrwt>0</asrwt>
<pdfrwt beam="1">  1        2 0.19647224E+00 0.34407971E+04</pdfrwt>
<pdfrwt beam="2">  1       -2 0.35655803E+00 0.34407971E+04</pdfrwt>
<totfact> 0.17802387E-01</totfact>
</mgrwt>
<rwgt>
<wgt id='morphing_basis_vector_1'> +3.8010659e-05 </wgt>
<wgt id='morphing_basis_vector_2'> +2.5701044e-05 </wgt>
<wgt id='morphing_basis_vector_3'> +4.1586481e-05 </wgt>
<wgt id='morphing_basis_vector_4'> +2.9839697e-05 </wgt>
<wgt id='morphing_basis_vector_5'> +4.7571978e-05 </wgt>
</rwgt>
</event>
<event>
 4      1 +1.9882500e-09 3.28238500e+03 7.81860800e-03 7.68474400e-02
        2 -1    0    0  501    0 +0.0000000000e+00 +0.0000000000e+00 +1.0467753136e+03 1.0467753136e+03 0.0000000000e+00 0.0000e+00 1.0000e+00
       -2 -1    0    0    0  501 -0.0000000000e+00 -0.0000000000e+00 -2.5731523055e+03 2.5731523055e+03 0.0000000000e+00 0.0000e+00 -1.0000e+00
      -13  1    1    2    0    0 +1.4168159635e+03 -3.4209086264e+01 +1.4955266242e+02 1.4250977983e+03 0.0000000000e+00 0.0000e+00 1.0000e+00
       13  1    1    2    0    0 -1.4168159635e+03 +3.4209086264e+01 -1.6759296543e+03 2.1948298208e+03 0.0000000000e+00 0.0000e+00 -1.0000e+00
<mgrwt>
<rscale>  0 0.32823847E+04</rscale>
<asrwt>0</asrwt>
<pdfrwt beam="1">  1        2 0.16104236E+00 0.32823847E+04</pdfrwt>
<pdfrwt beam="2">  1       -2 0.39586958E+00 0.32823847E+04</pdfrwt>
<totfact> 0.13777027E-01</totfact>
</mgrwt>
<rwgt>
<wgt id='morphing_basis_vector_1'> +3.7402346e-05 </wgt>
<wgt id='morphing_basis_vector_2'> +3.8600815e-05 </wgt>
<wgt id='morphing_basis_vector_3'> +4.3733902e-05 </wgt>
<wgt id='morphing_basis_vector_4'> +1.2365166e-05 </wgt>
<wgt id='morphing_basis_vector_5'> +3.8328176e-05 </wgt>
</rwgt>
</event>
<event>
 4      1 +1.9882500e-09 3.28607700e+03 7.81860800e-03 7.68390900e-02
        2 -1    0    0  501    0 +0.0000000000e+00 +0.0000000000e+00 +6.2394493997e+03 6.2394493997e+03 0.0000000000e+00 0.0000e+00 -1.0000e+00
       -2 -1    0    0    0  501 -0.0000000000e+00 -0.0000000000e+00 -4.3266254991e+02 4.3266254991e+02 0.0000000000e+00 0.0000e+00 1.0000e+00
      -13  1    1    2    0    0 -1.3160696028e+03 -4.2906740751e+02 +4.7005580949e+03 4.9001412676e+03 0.0000000000e+00 0.0000e+00 1.0000e+00
       13  1    1    2    0    0 +1.3160696028e+03 +4.2906740751e+02 +1.1062287549e+03 1.7719706820e+03 0.0000000000e+00 0.0000e+00 -1.0000e+00
<mgrwt>
<rscale>  0 0.32860773E+04</rscale>
<asrwt>0</asrwt>
<pdfrwt beam="1">  1        2 0.95991523E+00 0.32860773E+04</pdfrwt>
<pdfrwt beam="2">  1       -2 0.66563474E-01 0.32860773E+04</pdfrwt>
<totfact> 0.39206373E-05</totfact>
</mgrwt>
<rwgt>
<wgt id='morphing_basis_vector_1'> +3.8122856e-05 </wgt>
<wgt id='morphing_basis_vector_2'> +4.0401816e-05 </wgt>
<wgt id='morphing_basis_vector_3'> +4.4805730e-05 </wgt>
<wgt id='morphing_basis_vector_4'> +1.1262541e-05 </wgt>
<wgt id='morphing_basis_vector_5'> +3.8406430e-05 </wgt>
</rwgt>
</event>
<event>
 4      1 +1.9882500e-09 3.80915300e+03 7.81860800e-03 7.57581500e-02
        2 -1    0    0  501    0 +0.0000000000e+00 +0.0000000000e+00 +3.7452666732e+03 3.7452666732e+03 0.0000000000e+00 0.0000e+00 -1.0000e+00
       -2 -1    0    0    0  501 -0.0000000000e+00 -0.0000000000e+00 -9.6853217801e+02 9.6853217801e+02 0.0000000000e+00 0.0000e+00 1.0000e+00
      -13  1    1    2    0    0 -1.4391253869e+03 -1.2032647075e+03 +9.8077642212e+02 2.1168018863e+03 0.0000000000e+00 0.0000e+00 1.0000e+00
       13  1    1    2    0    0 +1.4391253869e+03 +1.2032647075e+03 +1.7959580731e+03 2.5969969649e+03 0.0000000000e+00 0.0000e+00 -1.0000e+00
<mgrwt>
<rscale>  0 0.38091528E+04</rscale>
<asrwt>0</asrwt>
<pdfrwt beam="1">  1        2 0.57619486E+00 0.38091528E+04</pdfrwt>
<pdfrwt beam="2">  1       -2 0.14900495E+00 0.38091528E+04</pdfrwt>
<totfact> 0.14604918E-01</totfact>
</mgrwt>
<rwgt>
<wgt id='morphing_basis_vector_1'> +5.8041026e-05 </wgt>
<wgt id='morphing_basis_vector_2'> +4.1778939e-05 </wgt>
<wgt id='morphing_basis_vector_3'> +6.4201257e-05 </wgt>
<wgt id='morphing_basis_vector_4'> +4.2620507e-05 </wgt>
<wgt id='morphing_basis_vector_5'> +7.1439297e-05 </wgt>
</rwgt>
</event>
<event>
 4      1 +1.9882500e-09 3.68105200e+03 7.81860800e-03 7.60056600e-02
        2 -1    0    0  501    0 +0.0000000000e+00 +0.0000000000e+00 +3.2176734338e+03 3.2176734338e+03 0.0000000000e+00 0.0000e+00 1.0000e+00
       -2 -1    0    0    0  501 -0.0000000000e+00 -0.0000000000e+00 -1.0527906959e+03 1.0527906959e+03 0.0000000000e+00 0.0000e+00 -1.0000e+00
      -13  1    1    2    0    0 +3.1106573841e+02 +1.7665921942e+03 +6.0421447666e+02 1.8927981952e+03 0.0000000000e+00 0.0000e+00 -1.0000e+00
       13  1    1    2    0    0 -3.1106573841e+02 -1.7665921942e+03 +1.5606682612e+03 2.3776659344e+03 0.0000000000e+00 0.0000e+00 1.0000e+00
<mgrwt>
<rscale>  0 0.36810524E+04</rscale>
<asrwt>0</asrwt>
<pdfrwt beam="1">  1        2 0.49502668E+00 0.36810524E+04</pdfrwt>
<pdfrwt beam="2">  1       -2 0.16196780E+00 0.36810524E+04</pdfrwt>
<totfact> 0.28132904E-01</totfact>
</mgrwt>
<rwgt>
<wgt id='morphing_basis_vector_1'> +5.0483520e-05 </wgt>
<wgt id='morphing_basis_vector_2'> +3.5933441e-05 </wgt>
<wgt id='morphing_basis_vector_3'> +5.5711441e-05 </wgt>
<wgt id='morphing_basis_vector_4'> +3.7511856e-05 </wgt>
<wgt id='morphing_basis_vector_5'> +6.2286007e-05 </wgt>
</rwgt>
</event>
<event>
 4      1 +1.9882500e-09 3.37581700e+03 7.81860800e-03 7.66395300e-02
        2 -1    0    0  501    0 +0.0000000000e+00 +0.0000000000e+00 +1.9387478942e+03 1.9387478942e+03 0.0000000000e+00 0.0000e+00 1.0000e+00
       -2 -1    0    0    0  501 -0.0000000000e+00 -0.0000000000e+00 -1.4695228361e+03 1.4695228361e+03 0.0000000000e+00 0.0000e+00 -1.0000e+00
      -13  1    1    2    0    0 -1.4193799895e+03 -4.7160614209e+01 +1.1556163692e+03 1.8309322409e+03 0.0000000000e+00 0.0000e+00 1.0000e+00
       13  1    1    2    0    0 +1.4193799895e+03 +4.7160614209e+01 -6.8639131112e+02 1.5773384894e+03 0.0000000000e+00 0.0000e+00 -1.0000e+00
<mgrwt>
<rscale>  0 0.33758165E+04</rscale>
<asrwt>0</asrwt>
<pdfrwt beam="1">  1        2 0.29826891E+00 0.33758165E+04</pdfrwt>
<pdfrwt beam="2">  1       -2 0.22608044E+00 0.33758165E+04</pdfrwt>
<totfact> 0.58121829E-01</totfact>
</mgrwt>
<rwgt>
<wgt id='morphing_basis_vector_1'> +4.2459751e-05 </wgt>
<wgt id='morphing_basis_vector_2'> +4.5066503e-05 </wgt>
<wgt id='morphing_basis_vector_3'> +4.9972815e-05 </wgt>
<wgt id='morphing_basis_vector_4'> +1.2484854e-05 </wgt>
<wgt id='morphing_basis_vector_5'> +4.2802522e-05 </wgt>
</rwgt>
</event>
<event>
 4      1 +1.9882500e-09 3.41411100e+03 7.81860800e-03 7.65563000e-02
        2 -1    0    0  501    0 +0.0000000000e+00 +0.0000000000e+00 +1.9041540840e+03 1.9041540840e+03 0.0000000000e+00 0.0000e+00 1.0000e+00
       -2 -1    0    0    0  501 -0.0000000000e+00 -0.0000000000e+00 -1.5303585572e+03 1.5303585572e+03 0.0000000000e+00 0.0000e+00 -1.0000e+00
      -13  1    1    2    0    0 +9.5455170665e+02 -1.3993584217e+03 -2.5707393239e+01 1.6941174171e+03 0.0000000000e+00 0.0000e+00 -1.0000e+00
       13  1    1    2    0    0 -9.5455170665e+02 +1.3993584217e+03 +3.9950292002e+02 1.7403952241e+03 0.0000000000e+00 0.0000e+00 1.0000e+00
<mgrwt>
<rscale>  0 0.34141110E+04</rscale>
<asrwt>0</asrwt>
<pdfrwt beam="1">  1        2 0.29294678E+00 0.34141110E+04</pdfrwt>
<pdfrwt beam="2">  1       -2 0.23543978E+00 0.34141110E+04</pdfrwt>
<totfact> 0.52075953E-01</totfact>
</mgrwt>
<rwgt>
<wgt id='morphing_basis_vector_1'> +3.7708107e-05 </wgt>
<wgt id='morphing_basis_vector_2'> +2.7430672e-05 </wgt>
<wgt id='morphing_basis_vector_3'> +4.1667591e-05 </wgt>
<wgt id='morphing_basis_vector_4'> +2.7123835e-05 </wgt>
<wgt id='morphing_basis_vector_5'> +4.5954930e-05 </wgt>
</rwgt>
</event>
<event>
 4      1 +1.9882500e-09 3.49895900e+03 7.81860800e-03 7.63758300e-02
        2 -1    0    0  501    0 +0.0000000000e+00 +0.0000000000e+00 +1.9539144888e+03 1.9539144888e+03 0.0000000000e+00 0.0000e+00 1.0000e+00
       -2 -1    0    0    0  501 -0.0000000000e+00 -0.0000000000e+00 -1.5664341761e+03 1.5664341761e+03 0.0000000000e+00 0.0000e+00 -1.0000e+00
      -13  1    1    2    0    0 +9.7257781014e+02 +1.3206313013e+03 -4.1883637181e+02 1.6927488110e+03 0.0000000000e+00 0.0000e+00 -1.0000e+00
       13  1    1    2    0    0 -9.7257781014e+02 -1.3206313013e+03 +8.0631668451e+02 1.8275998540e+03 0.0000000000e+00 0.0000e+00 1.0000e+00
<mgrwt>
<rscale>  0 0.34989589E+04</rscale>
<asrwt>0</asrwt>
<pdfrwt beam="1">  1        2 0.30060223E+00 0.34989589E+04</pdfrwt>
<pdfrwt beam="2">  1       -2 0.24098987E+00 0.34989589E+04</pdfrwt>
<totfact> 0.44361365E-01</totfact>
</mgrwt>
<rwgt>
<wgt id='morphing_basis_vector_1'> +4.1004339e-05 </wgt>
<wgt id='morphing_basis_vector_2'> +2.8585143e-05 </wgt>
<wgt id='morphing_basis_vector_3'> +4.5066813e-05 </wgt>
<wgt id='morphing_basis_vector_4'> +3.1131929e-05 </wgt>
<wgt id='morphing_basis_vector_5'> +5.0828016e-05 </wgt>
</rwgt>
</event>
<event>
 4      1 +1.9882500e-09 3.32149600e+03 7.81860800e-03 7.67595500e-02
        2 -1    0    0  501    0 +0.0000000000e+00 +0.0000000000e+00 +2.6028907003e+03 2.6028907003e+03 0.0000000000e+00 0.0000e+00 1.0000e+00
       -2 -1    0    0    0  501 -0.0000000000e+00 -0.0000000000e+00 -1.0596236939e+03 1.0596236939e+03 0.0000000000e+00 0.0000e+00 -1.0000e+00
      -13  1    1    2    0    0 +1.8305699784e+02 -1.5160067132e+03 +1.4915836420e+03 2.1346212732e+03 0.0000000000e+00 0.0000e+00 1.0000e+00
       13  1    1    2    0    0 -1.8305699784e+02 +1.5160067132e+03 +5.1683364344e+01 1.5278931210e+03 0.0000000000e+00 0.0000e+00 -1.0000e+00
<mgrwt>
<rscale>  0 0.33214964E+04</rscale>
<asrwt>0</asrwt>
<pdfrwt beam="1">  1        2 0.40044472E+00 0.33214964E+04</pdfrwt>
<pdfrwt beam="2">  1       -2 0.16301903E+00 0.33214964E+04</pdfrwt>
<totfact> 0.70549041E-01</totfact>
</mgrwt>
<rwgt>
<wgt id='morphing_basis_vector_1'> +3.7534608e-05 </wgt>
<wgt id='morphing_basis_vector_2'> +3.5552335e-05 </wgt>
<wgt id='morphing_basis_vector_3'> +4.3223160e-05 </wgt>
<wgt id='morphing_basis_vector_4'> +1.6466693e-05 </wgt>
<wgt id='morphing_basis_vector_5'> +4.0490255e-05 </wgt>
</rwgt>
</event>
<event>
 4      1 +1.9882500e-09 3.35474800e+03 7.81860800e-03 7.66858000e-02
        2 -1    0    0  501    0 +0.0000000000e+00 +0.0000000000e+00 +3.3070361259e+03 3.3070361259e+03 0.0000000000e+00 0.0000e+00 -1.0000e+00
       -2 -1    0    0    0  501 -0.0000000000e+00 -0.0000000000e+00 -8.5078714549e+02 8.5078714549e+02 0.0000000000e+00 0.0000e+00 1.0000e+00
      -13  1    1    2    0    0 -7.7662638878e+02 -1.4762062834e+03 +1.4472198118e+03 2.2083429812e+03 0.0000000000e+00 0.0000e+00 1.0000e+00
       13  1    1    2    0    0 +7.7662638878e+02 +1.4762062834e+03 +1.0090291686e+03 1.9494802902e+03 0.0000000000e+00 0.0000e+00 -1.0000e+00
<mgrwt>
<rscale>  0 0.33547482E+04</rscale>
<asrwt>0</asrwt>
<pdfrwt beam="1">  1        2 0.50877478E+00 0.33547482E+04</pdfrwt>
<pdfrwt beam="2">  1       -2 0.13089033E+00 0.33547482E+04</pdfrwt>
<totfact> 0.45766599E-01</totfact>
</mgrwt>
<rwgt>
<wgt id='morphing_basis_vector_1'> +3.6204617e-05 </wgt>
<wgt id='morphing_basis_vector_2'> +2.8620327e-05 </wgt>
<wgt id='morphing_basis_vector_3'> +4.0481052e-05 </wgt>
<wgt id='morphing_basis_vector_4'> +2.3105808e-05 </wgt>
<wgt id='morphing_basis_vector_5'> +4.2641084e-05 </wgt>
</rwgt>
</event>
<event>
 4      1 +1.9882500e-09 3.27684700e+03 7.81860800e-03 7.68599900e-02
        2 -1    0    0  501    0 +0.0000000000e+00 +0.0000000000e+00 +1.2122871634e+03 1.2122871634e+03 0.0000000000e+00 0.0000e+00 -1.0000e+00
       -2 -1    0    0    0  501 -0.0000000000e+00 -0.0000000000e+00 -2.2143525383e+03 2.2143525383e+03 0.0000000000e+00 0.0000e+00 1.0000e+00
      -13  1    1    2    0    0 +3.1018813679e+01 -1.2947988923e+03 -1.5503804964e+03 2.0201846505e+03 0.0000000000e+00 0.0000e+00 1.0000e+00
       13  1    1    2    0    0 -3.1018813679e+01 +1.2947988923e+03 +5.4831512151e+02 1.4064550512e+03 0.0000000000e+00 0.0000e+00 -1.0000e+00
<mgrwt>
<rscale>  0 0.32768468E+04</rscale>
<asrwt>0</asrwt>
<pdfrwt beam="1">  1        2 0.18650572E+00 0.32768468E+04</pdfrwt>
<pdfrwt beam="2">  1       -2 0.34066962E+00 0.32768468E+04</pdfrwt>
<totfact> 0.24954999E-01</totfact>
</mgrwt>
<rwgt>
<wgt id='morphing_basis_vector_1'> +3.1383817e-05 </wgt>
<wgt id='morphing_basis_vector_2'> +2.1365262e-05 </wgt>
<wgt id='morphing_basis_vector_3'> +3.4326046e-05 </wgt>
<wgt id='morphing_basis_vector_4'> +2.4362536e-05 </wgt>
<wgt id='morphing_basis_vector_5'> +3.9066299e-05 </wgt>
</rwgt>
</event>
<event>
 4      1 +1.9882500e-09 3.30403000e+03 7.81860800e-03 7.67986400e-02
        2 -1    0    0  501    0 +0.0000000000e+00 +0.0000000000e+00 +1.5100831588e+03 1.5100831588e+03 0.0000000000e+00 0.0000e+00 -1.0000e+00
       -2 -1    0    0    0  501 -0.0000000000e+00 -0.0000000000e+00 -1.8072874408e+03 1.8072874408e+03 0.0000000000e+00 0.0000e+00 1.0000e+00
      -13  1    1    2    0    0 -1.1336342840e+03 +4.5201055805e+02 -1.2665221194e+03 1.7588401045e+03 0.0000000000e+00 0.0000e+00 1.0000e+00
       13  1    1    2    0    0 +1.1336342840e+03 -4.5201055805e+02 +9.6931783738e+02 1.5585304951e+03 0.0000000000e+00 0.0000e+00 -1.0000e+00
<mgrwt>
<rscale>  0 0.33040305E+04</rscale>
<asrwt>0</asrwt>
<pdfrwt beam="1">  1        2 0.23232049E+00 0.33040305E+04</pdfrwt>
<pdfrwt beam="2">  1       -2 0.27804422E+00 0.33040305E+04</pdfrwt>
<totfact> 0.44315849E-01</totfact>
</mgrwt>
<rwgt>
<wgt id='morphing_basis_vector_1'> +3.2404253e-05 </wgt>
<wgt id='morphing_basis_vector_2'> +2.2004632e-05 </wgt>
<wgt id='morphing_basis_vector_3'> +3.5437824e-05 </wgt>
<wgt id='morphing_basis_vector_4'> +2.5241292e-05 </wgt>
<wgt id='morphing_basis_vector_5'> +4.0393139e-05 </wgt>
</rwgt>
</event>
<event>
 4      1 +1.9882500e-09 3.34853600e+03 7.81860800e-03 7.66995100e-02
        2 -1    0    0  501    0 +0.0000000000e+00 +0.0000000000e+00 +2.9770303828e+03 2.9770303828e+03 0.0000000000e+00 0.0000e+00 1.0000e+00
       -2 -1    0    0    0  501 -0.0000000000e+00 -0.0000000000e+00 -9.4160079033e+02 9.4160079033e+02 0.0000000000e+00 0.0000e+00 -1.0000e+00
      -13  1    1    2    0    0 -1.6329597234e+03 +1.4569944583e+02 +6.2019351778e+02 1.7528336448e+03 0.0000000000e+00 0.0000e+00 -1.0000e+00
       13  1    1    2    0    0 +1.6329597234e+03 -1.4569944583e+02 +1.4152360747e+03 2.1657975283e+03 0.0000000000e+00 0.0000e+00 1.0000e+00
<mgrwt>
<rscale>  0 0.33485365E+04</rscale>
<asrwt>0</asrwt>
<pdfrwt beam="1">  1        2 0.45800467E+00 0.33485365E+04</pdfrwt>
<pdfrwt beam="2">  1       -2 0.14486166E+00 0.33485365E+04</pdfrwt>
<totfact> 0.57716616E-01</totfact>
</mgrwt>
<rwgt>
<wgt id='morphing_basis_vector_1'> +3.4702765e-05 </wgt>
<wgt id='morphing_basis_vector_2'> +2.4771662e-05 </wgt>
<wgt id='morphing_basis_vector_3'> +3.8224855e-05 </wgt>
<wgt id='morphing_basis_vector_4'> +2.5526650e-05 </wgt>
<wgt id='morphing_basis_vector_5'> +4.2538348e-05 </wgt>
</rwgt>
</event>
<event>
 4      1 +1.9882500e-09 3.28411900e+03 7.81860800e-03 7.68435200e-02
        2 -1    0    0  501    0 +0.0000000000e+00 +0.0000000000e+00 +2.0354560903e+03 2.0354560903e+03 0.0000000000e+00 0.0000e+00 1.0000e+00
       -2 -1    0    0    0  501 -0.0000000000e+00 -0.0000000000e+00 -1.3246956369e+03 1.3246956369e+03 0.0000000000e+00 0.0000e+00 -1.0000e+00
      -13  1    1    2    0    0 +1.3563864261e+03 +1.3102808161e+02 +1.2927832360e+03 1.8783612513e+03 0.0000000000e+00 0.0000e+00 1.0000e+00
       13  1    1    2    0    0 -1.3563864261e+03 -1.3102808161e+02 -5.8202278255e+02 1.4817904759e+03 0.0000000000e+00 0.0000e+00 -1.0000e+00
<mgrwt>
<rscale>  0 0.32841192E+04</rscale>
<asrwt>0</asrwt>
<pdfrwt beam="1">  1        2 0.31314709E+00 0.32841192E+04</pdfrwt>
<pdfrwt beam="2">  1       -2 0.20379933E+00 0.32841192E+04</pdfrwt>
<totfact> 0.74555235E-01</totfact>
</mgrwt>
<rwgt>
<wgt id='morphing_basis_vector_1'> +3.8349664e-05 </wgt>
<wgt id='morphing_basis_vector_2'> +4.1238828e-05 </wgt>
<wgt id='morphing_basis_vector_3'> +4.5199397e-05 </wgt>
<wgt id='morphing_basis_vector_4'> +1.0571759e-05 </wgt>
<wgt id='morphing_basis_vector_5'> +3.8259494e-05 </wgt>
</rwgt>
</event>
<event>
 4      1 +1.9882500e-09 3.57529500e+03 7.81860800e-03 7.62179000e-02
        2 -1    0    0  501    0 +0.0000000000e+00 +0.0000000000e+00 +3.1196056404e+03 3.1196056404e+03 0.0000000000e+00 0.0000e+00 -1.0000e+00
       -2 -1    0    0    0  501 -0.0000000000e+00 -0.0000000000e+00 -1.0243870973e+03 1.0243870973e+03 0.0000000000e+00 0.0000e+00 1.0000e+00
      -13  1    1    2    0    0 -5.7335674330e+01 -1.7747592484e+03 +8.0830835107e+02 1.9510049102e+03 0.0000000000e+00 0.0000e+00 1.0000e+00
       13  1    1    2    0    0 +5.7335674330e+01 +1.7747592484e+03 +1.2869101921e+03 2.1929878275e+03 0.0000000000e+00 0.0000e+00 -1.0000e+00
<mgrwt>
<rscale>  0 0.35752951E+04</rscale>
<asrwt>0</asrwt>
<pdfrwt beam="1">  1        2 0.47993932E+00 0.35752951E+04</pdfrwt>
<pdfrwt beam="2">  1       -2 0.15759802E+00 0.35752951E+04</pdfrwt>
<totfact> 0.35834107E-01</totfact>
</mgrwt>
<rwgt>
<wgt id='morphing_basis_vector_1'> +4.5326572e-05 </wgt>
<wgt id='morphing_basis_vector_2'> +3.3067742e-05 </wgt>
<wgt id='morphing_basis_vector_3'> +5.0164260e-05 </wgt>
<wgt id='morphing_basis_vector_4'> +3.2588492e-05 </wgt>
<wgt id='morphing_basis_vector_5'> +5.5327750e-05 </wgt>
</rwgt>
</event>
<event>
 4      1 +1.9882500e-09 3.26487400e+03 7.81860800e-03 7.68872000e-02
        2 -1    0    0  501    0 +0.0000000000e+00 +0.0000000000e+00 +3.1637479685e+03 3.1637479685e+03 0.0000000000e+00 0.0000e+00 -1.0000e+00
       -2 -1    0    0    0  501 -0.0000000000e+00 -0.0000000000e+00 -8.4230815247e+02 8.4230815247e+02 0.0000000000e+00 0.0000e+00 1.0000e+00
      -13  1    1    2    0    0 -9.5875525580e+02 -1.0481088455e+03 +1.7367113818e+02 1.4310504732e+03 0.0000000000e+00 0.0000e+00 1.0000e+00
       13  1    1    2    0    0 +9.5875525580e+02 +1.0481088455e+03 +2.1477686778e+03 2.5750056478e+03 0.0000000000e+00 0.0000e+00 -1.0000e+00
<mgrwt>
<rscale>  0 0.32648741E+04</rscale>
<asrwt>0</asrwt>
<pdfrwt beam="1">  1        2 0.48673045E+00 0.32648741E+04</pdfrwt>
<pdfrwt beam="2">  1       -2 0.12958587E+00 0.32648741E+04</pdfrwt>
<totfact> 0.59391732E-01</totfact>
</mgrwt>
<rwgt>
<wgt id='morphing_basis_vector_1'> +3.1002367e-05 </wgt>
<wgt id='morphing_basis_vector_2'> +2.1265376e-05 </wgt>
<wgt id='morphing_basis_vector_3'> +3.3939874e-05 </wgt>
<wgt id='morphing_basis_vector_4'> +2.3856695e-05 </wgt>
<wgt id='morphing_basis_vector_5'> +3.8481958e-05 </wgt>
</rwgt>
</event>
<event>
 4      1 +1.9882500e-09 3.50200000e+03 7.81860800e-03 7.63694600e-02
        2 -1    0    0  501    0 +0.0000000000e+00 +0.0000000000e+00 +1.1563426907e+03 1.1563426907e+03 0.0000000000e+00 0.0000e+00 -1.0000e+00
       -2 -1    0    0    0  501 -0.0000000000e+00 -0.0000000000e+00 -2.6514639633e+03 2.6514639633e+03 0.0000000000e+00 0.0000e+00 1.0000e+00
      -13  1    1    2    0    0 +1.3363331483e+03 -9.6459313727e+02 -1.3906228456e+03 2.1563993375e+03 0.0000000000e+00 0.0000e+00 1.0000e+00
       13  1    1    2    0    0 -1.3363331483e+03 +9.6459313727e+02 -1.0449842700e+02 1.6514073165e+03 0.0000000000e+00 0.0000e+00 -1.0000e+00
<mgrwt>
<rscale>  0 0.35020000E+04</rscale>
<asrwt>0</asrwt>
<pdfrwt beam="1">  1        2 0.17789888E+00 0.35020000E+04</pdfrwt>
<pdfrwt beam="2">  1       -2 0.40791753E+00 0.35020000E+04</pdfrwt>
<totfact> 0.96988188E-02</totfact>
</mgrwt>
<rwgt>
<wgt id='morphing_basis_vector_1'> +4.1163710e-05 </wgt>
<wgt id='morphing_basis_vector_2'> +2.8736102e-05 </wgt>
<wgt id='morphing_basis_vector_3'> +4.5251598e-05 </wgt>
<wgt id='morphing_basis_vector_4'> +3.1204012e-05 </wgt>
<wgt id='morphing_basis_vector_5'> +5.1003034e-05 </wgt>
</rwgt>
</event>
<event>
 4      1 +1.9882500e-09 3.57252700e+03 7.81860800e-03 7.62235600e-02
        2 -1    0    0  501    0 +0.0000000000e+00 +0.0000000000e+00 +2.0907306984e+03 2.0907306984e+03 0.0000000000e+00 0.0000e+00 -1.0000e+00
       -2 -1    0    0    0  501 -0.0000000000e+00 -0.0000000000e+00 -1.5261352182e+03 1.5261352182e+03 0.0000000000e+00 0.0000e+00 1.0000e+00
      -13  1    1    2    0    0 -4.9292710796e+02 +5.1235815832e+02 -1.3767130062e+03 1.5494601375e+03 0.0000000000e+00 0.0000e+00 1.0000e+00
       13  1    1    2    0    0 +4.9292710796e+02 -5.1235815832e+02 +1.9413084864e+03 2.0674057791e+03 0.0000000000e+00 0.0000e+00 -1.0000e+00
<mgrwt>
<rscale>  0 0.35725273E+04</rscale>
<asrwt>0</asrwt>
<pdfrwt beam="1">  1        2 0.32165088E+00 0.35725273E+04</pdfrwt>
<pdfrwt beam="2">  1       -2 0.23479003E+00 0.35725273E+04</pdfrwt>
<totfact> 0.40782247E-01</totfact>
</mgrwt>
<rwgt>
<wgt id='morphing_basis_vector_1'> +4.4131629e-05 </wgt>
<wgt id='morphing_basis_vector_2'> +2.9860847e-05 </wgt>
<wgt id='morphing_basis_vector_3'> +4.8328922e-05 </wgt>
<wgt id='morphing_basis_vector_4'> +3.4708534e-05 </wgt>
<wgt id='morphing_basis_vector_5'> +5.5339822e-05 </wgt>
</rwgt>
</event>
<event>
 4      1 +1.9882500e-09 3.81934700e+03 7.81860800e-03 7.57388800e-02
        2 -1    0    0  501    0 +0.0000000000e+00 +0.0000000000e+00 +1.3055335298e+03 1.3055335298e+03 0.0000000000e+00 0.0000e+00 -1.0000e+00
       -2 -1    0    0    0  501 -0.0000000000e+00 -0.0000000000e+00 -2.7933812689e+03 2.7933812689e+03 0.0000000000e+00 0.0000e+00 1.0000e+00
      -13  1    1    2    0    0 -9.0300252363e+02 -1.2748717315e+03 -1.9225576595e+03 2.4772846916e+03 0.0000000000e+00 0.0000e+00 1.0000e+00
       13  1    1    2    0    0 +9.0300252363e+02 +1.2748717315e+03 +4.3470992030e+02 1.6216301071e+03 0.0000000000e+00 0.0000e+00 -1.0000e+00
<mgrwt>
<rscale>  0 0.38193470E+04</rscale>
<asrwt>0</asrwt>
<pdfrwt beam="1">  1        2 0.20085131E+00 0.38193470E+04</pdfrwt>
<pdfrwt beam="2">  1       -2 0.42975096E+00 0.38193470E+04</pdfrwt>
<totfact> 0.55429878E-02</totfact>
</mgrwt>
<rwgt>
<wgt id='morphing_basis_vector_1'> +5.7723396e-05 </wgt>
<wgt id='morphing_basis_vector_2'> +3.9469220e-05 </wgt>
<wgt id='morphing_basis_vector_3'> +6.3390993e-05 </wgt>
<wgt id='morphing_basis_vector_4'> +4.5061051e-05 </wgt>
<wgt id='morphing_basis_vector_5'> +7.2376006e-05 </wgt>
</rwgt>
</event>
<event>
 4      1 +1.9882500e-09 3.29715700e+03 7.81860800e-03 7.68141000e-02
        2 -1    0    0  501    0 +0.0000000000e+00 +0.0000000000e+00 +1.9318669154e+03 1.9318669154e+03 0.0000000000e+00 0.0000e+00 -1.0000e+00
       -2 -1    0    0    0  501 -0.0000000000e+00 -0.0000000000e+00 -1.4068311061e+03 1.4068311061e+03 0.0000000000e+00 0.0000e+00 1.0000e+00
      -13  1    1    2    0    0 -9.5357618570e+02 -8.9762656889e+02 -7.5148246213e+02 1.5098896946e+03 0.0000000000e+00 0.0000e+00 1.0000e+00
       13  1    1    2    0    0 +9.5357618570e+02 +8.9762656889e+02 +1.2765182714e+03 1.8288083268e+03 0.0000000000e+00 0.0000e+00 -1.0000e+00
<mgrwt>
<rscale>  0 0.32971566E+04</rscale>
<asrwt>0</asrwt>
<pdfrwt beam="1">  1        2 0.29721029E+00 0.32971566E+04</pdfrwt>
<pdfrwt beam="2">  1       -2 0.21643555E+00 0.32971566E+04</pdfrwt>
<totfact> 0.69078250E-01</totfact>
</mgrwt>
<rwgt>
<wgt id='morphing_basis_vector_1'> +3.2165566e-05 </wgt>
<wgt id='morphing_basis_vector_2'> +2.1905398e-05 </wgt>
<wgt id='morphing_basis_vector_3'> +3.5188434e-05 </wgt>
<wgt id='morphing_basis_vector_4'> +2.4971493e-05 </wgt>
<wgt id='morphing_basis_vector_5'> +4.0050739e-05 </wgt>
</rwgt>
</event>
<event>
 4      1 +1.9882500e-09 3.60436100e+03 7.81860800e-03 7.61588300e-02
        2 -1    0    0  501    0 +0.0000000000e+00 +0.0000000000e+00 +2.6022096720e+03 2.6022096720e+03 0.0000000000e+00 0.0000e+00 1.0000e+00
       -2 -1    0    0    0  501 -0.0000000000e+00 -0.0000000000e+00 -1.2481143072e+03 1.2481143072e+03 0.0000000000e+00 0.0000e+00 -1.0000e+00
      -13  1    1    2    0    0 +8.4945662077e+02 -1.5892622442e+03 +6.5259243612e+02 1.9165614833e+03 0.0000000000e+00 0.0000e+00 -1.0000e+00
       13  1    1    2    0    0 -8.4945662077e+02 +1.5892622442e+03 +7.0150292863e+02 1.9337624959e+03 0.0000000000e+00 0.0000e+00 1.0000e+00
<mgrwt>
<rscale>  0 0.36043613E+04</rscale>
<asrwt>0</asrwt>
<pdfrwt beam="1">  1        2 0.40033995E+00 0.36043613E+04</pdfrwt>
<pdfrwt beam="2">  1       -2 0.19201759E+00 0.36043613E+04</pdfrwt>
<totfact> 0.41387178E-01</totfact>
</mgrwt>
<rwgt>
<wgt id='morphing_basis_vector_1'> +4.7317205e-05 </wgt>
<wgt id='morphing_basis_vector_2'> +3.5647641e-05 </wgt>
<wgt id='morphing_basis_vector_3'> +5.2625049e-05 </wgt>
<wgt id='morphing_basis_vector_4'> +3.2597807e-05 </wgt>
<wgt id='morphing_basis_vector_5'> +5.7071582e-05 </wgt>
</rwgt>
</event>
<event>
 4      1 +1.9882500e-09 3.34725100e+03 7.81860800e-03 7.67023500e-02
        2 -1    0    0  501    0 +0.0000000000e+00 +0.0000000000e+00 +1.1303600879e+03 1.1303600879e+03 0.0000000000e+00 0.0000e+00 -1.0000e+00
       -2 -1    0    0    0  501 -0.0000000000e+00 -0.0000000000e+00 -2.4779907733e+03 2.4779907733e+03 0.0000000000e+00 0.0000e+00 1.0000e+00
      -13  1    1    2    0    0 +6.1165199667e+02 -1.0314067375e+03 -1.9324073980e+03 2.2742287429e+03 0.0000000000e+00 0.0000e+00 1.0000e+00
       13  1    1    2    0    0 -6.1165199667e+02 +1.0314067375e+03 +5.8477671255e+02 1.3341221184e+03 0.0000000000e+00 0.0000e+00 -1.0000e+00
<mgrwt>
<rscale>  0 0.33472507E+04</rscale>
<asrwt>0</asrwt>
<pdfrwt beam="1">  1        2 0.17390155E+00 0.33472507E+04</pdfrwt>
<pdfrwt beam="2">  1       -2 0.38122935E+00 0.33472507E+04</pdfrwt>
<totfact> 0.15168705E-01</totfact>
</mgrwt>
<rwgt>
<wgt id='morphing_basis_vector_1'> +3.4111670e-05 </wgt>
<wgt id='morphing_basis_vector_2'> +2.3150040e-05 </wgt>
<wgt id='morphing_basis_vector_3'> +3.7314304e-05 </wgt>
<wgt id='morphing_basis_vector_4'> +2.6615786e-05 </wgt>
<wgt id='morphing_basis_vector_5'> +4.2565916e-05 </wgt>
</rwgt>
</event>
<event>
 4      1 +1.9882500e-09 3.67997000e+03 7.81860800e-03 7.60078000e-02
        2 -1    0    0  501    0 +0.0000000000e+00 +0.0000000000e+00 +1.8474413707e+03 1.8474413707e+03 0.0000000000e+00 0.0000e+00 1.0000e+00
       -2 -1    0    0    0  501 -0.0000000000e+00 -0.0000000000e+00 -1.8325586264e+03 1.8325586264e+03 0.0000000000e+00 0.0000e+00 -1.0000e+00
      -13  1    1    2    0    0 +6.3001713419e+02 -2.1534569593e+02 -1.7078712483e+03 1.8330628901e+03 0.0000000000e+00 0.0000e+00 -1.0000e+00
       13  1    1    2    0    0 -6.3001713419e+02 +2.1534569593e+02 +1.7227539927e+03 1.8469371070e+03 0.0000000000e+00 0.0000e+00 1.0000e+00
<mgrwt>
<rscale>  0 0.36799699E+04</rscale>
<asrwt>0</asrwt>
<pdfrwt beam="1">  1        2 0.28422175E+00 0.36799699E+04</pdfrwt>
<pdfrwt beam="2">  1       -2 0.28193210E+00 0.36799699E+04</pdfrwt>
<totfact> 0.26226025E-01</totfact>
</mgrwt>
<rwgt>
<wgt id='morphing_basis_vector_1'> +4.9646985e-05 </wgt>
<wgt id='morphing_basis_vector_2'> +3.3604779e-05 </wgt>
<wgt id='morphing_basis_vector_3'> +5.4405569e-05 </wgt>
<wgt id='morphing_basis_vector_4'> +3.9106111e-05 </wgt>
<wgt id='morphing_basis_vector_5'> +6.2348434e-05 </wgt>
</rwgt>
</event>
<event>
 4      1 +1.9882500e-09 3.37807200e+03 7.81860800e-03 7.66345900e-02
        2 -1    0    0  501    0 +0.0000000000e+00 +0.0000000000e+00 +2.1698799971e+03 2.1698799971e+03 0.0000000000e+00 0.0000e+00 -1.0000e+00
       -2 -1    0    0    0  501 -0.0000000000e+00 -0.0000000000e+00 -1.3147464107e+03 1.3147464107e+03 0.0000000000e+00 0.0000e+00 1.0000e+00
      -13  1    1    2    0    0 +1.8452912309e+02 -1.0697188037e+03 -9.0727252948e+02 1.4147412339e+03 0.0000000000e+00 0.0000e+00 1.0000e+00
       13  1    1    2    0    0 -1.8452912309e+02 +1.0697188037e+03 +1.7624061158e+03 2.0698851739e+03 0.0000000000e+00 0.0000e+00 -1.0000e+00
<mgrwt>
<rscale>  0 0.33780716E+04</rscale>
<asrwt>0</asrwt>
<pdfrwt beam="1">  1        2 0.33382769E+00 0.33780716E+04</pdfrwt>
<pdfrwt beam="2">  1       -2 0.20226868E+00 0.33780716E+04</pdfrwt>
<totfact> 0.63661526E-01</totfact>
</mgrwt>
<rwgt>
<wgt id='morphing_basis_vector_1'> +3.5355766e-05 </wgt>
<wgt id='morphing_basis_vector_2'> +2.3952082e-05 </wgt>
<wgt id='morphing_basis_vector_3'> +3.8674808e-05 </wgt>
<wgt id='morphing_basis_vector_4'> +2.7659344e-05 </wgt>
<wgt id='morphing_basis_vector_5'> +4.4170385e-05 </wgt>
</rwgt>
</event>
<event>
 4      1 +1.9882500e-09 3.57175200e+03 7.81860800e-03 7.62251400e-02
        2 -1    0    0  501    0 +0.0000000000e+00 +0.0000000000e+00 +2.6344236526e+03 2.6344236526e+03 0.0000000000e+00 0.0000e+00 -1.0000e+00
       -2 -1    0    0    0  501 -0.0000000000e+00 -0.0000000000e+00 -1.2106457158e+03 1.2106457158e+03 0.0000000000e+00 0.0000e+00 1.0000e+00
      -13  1    1    2    0    0 -1.6089413203e+03 -2.3484164871e+02 -8.3216190490e+01 1.6281178417e+03 0.0000000000e+00 0.0000e+00 1.0000e+00
       13  1    1    2    0    0 +1.6089413203e+03 +2.3484164871e+02 +1.5069941273e+03 2.2169515267e+03 0.0000000000e+00 0.0000e+00 -1.0000e+00
<mgrwt>
<rscale>  0 0.35717523E+04</rscale>
<asrwt>0</asrwt>
<pdfrwt beam="1">  1        2 0.40529594E+00 0.35717523E+04</pdfrwt>
<pdfrwt beam="2">  1       -2 0.18625319E+00 0.35717523E+04</pdfrwt>
<totfact> 0.43792584E-01</totfact>
</mgrwt>
<rwgt>
<wgt id='morphing_basis_vector_1'> +4.4394168e-05 </wgt>
<wgt id='morphing_basis_vector_2'> +3.0719076e-05 </wgt>
<wgt id='morphing_basis_vector_3'> +4.8765408e-05 </wgt>
<wgt id='morphing_basis_vector_4'> +3.4045744e-05 </wgt>
<wgt id='morphing_basis_vector_5'> +5.5239061e-05 </wgt>
</rwgt>
</event>
<event>
 4      1 +1.9882500e-09 3.35111200e+03 7.81860800e-03 7.66938200e-02
        2 -1    0    0  501    0 +0.0000000000e+00 +0.0000000000e+00 +1.3573978287e+03 1.3573978287e+03 0.0000000000e+00 0.0000e+00 1.0000e+00
       -2 -1    0    0    0  501 -0.0000000000e+00 -0.0000000000e+00 -2.0682872620e+03 2.0682872620e+03 0.0000000000e+00 0.0000e+00 -1.0000e+00
      -13  1    1    2    0    0 +3.8604339226e+02 -1.4962143153e+03 -1.0177841585e+03 1.8502895371e+03 0.0000000000e+00 0.0000e+00 -1.0000e+00
       13  1    1    2    0    0 -3.8604339226e+02 +1.4962143153e+03 +3.0689472511e+02 1.5753955536e+03 0.0000000000e+00 0.0000e+00 1.0000e+00
<mgrwt>
<rscale>  0 0.33511124E+04</rscale>
<asrwt>0</asrwt>
<pdfrwt beam="1">  1        2 0.20883044E+00 0.33511124E+04</pdfrwt>
<pdfrwt beam="2">  1       -2 0.31819804E+00 0.33511124E+04</pdfrwt>
<totfact> 0.28838944E-01</totfact>
</mgrwt>
<rwgt>
<wgt id='morphing_basis_vector_1'> +3.4491415e-05 </wgt>
<wgt id='morphing_basis_vector_2'> +2.3913536e-05 </wgt>
<wgt id='morphing_basis_vector_3'> +3.7840043e-05 </wgt>
<wgt id='morphing_basis_vector_4'> +2.6271598e-05 </wgt>
<wgt id='morphing_basis_vector_5'> +4.2725379e-05 </wgt>
</rwgt>
</event>
<event>
 4      1 +1.9882500e-09 3.63964900e+03 7.81860800e-03 7.60878700e-02
        2 -1    0    0  501    0 +0.0000000000e+00 +0.0000000000e+00 +2.1861955508e+03 2.1861955508e+03 0.0000000000e+00 0.0000e+00 -1.0000e+00
       -2 -1    0    0    0  501 -0.0000000000e+00 -0.0000000000e+00 -1.5148516143e+03 1.5148516143e+03 0.0000000000e+00 0.0000e+00 1.0000e+00
      -13  1    1    2    0    0 +5.1475478458e+02 +1.4535489604e+03 -6.4705975597e+02 1.6722629567e+03 0.0000000000e+00 0.0000e+00 1.0000e+00
       13  1    1    2    0    0 -5.1475478458e+02 -1.4535489604e+03 +1.3184036924e+03 2.0287842085e+03 0.0000000000e+00 0.0000e+00 -1.0000e+00
<mgrwt>
<rscale>  0 0.36396494E+04</rscale>
<asrwt>0</asrwt>
<pdfrwt beam="1">  1        2 0.33633778E+00 0.36396494E+04</pdfrwt>
<pdfrwt beam="2">  1       -2 0.23305409E+00 0.36396494E+04</pdfrwt>
<totfact> 0.36799030E-01</totfact>
</mgrwt>
<rwgt>
<wgt id='morphing_basis_vector_1'> +4.7697103e-05 </wgt>
<wgt id='morphing_basis_vector_2'> +3.2682027e-05 </wgt>
<wgt id='morphing_basis_vector_3'> +5.2344241e-05 </wgt>
<wgt id='morphing_basis_vector_4'> +3.7036352e-05 </wgt>
<wgt id='morphing_basis_vector_5'> +5.9613795e-05 </wgt>
</rwgt>
</event>
<event>
 4      1 +1.9882500e-09 3.66114800e+03 7.81860800e-03 7.60450500e-02
        2 -1    0    0  501    0 +0.0000000000e+00 +0.0000000000e+00 +2.8896634142e+03 2.8896634142e+03 0.0000000000e+00 0.0000e+00 1.0000e+00
       -2 -1    0    0    0  501 -0.0000000000e+00 -0.0000000000e+00 -1.1596508686e+03 1.1596508686e+03 0.0000000000e+00 0.0000e+00 -1.0000e+00
      -13  1    1    2    0    0 -1.7821476305e+03 +6.2864217613e+01 +4.0764381795e+02 1.8292554685e+03 0.0000000000e+00 0.0000e+00 -1.0000e+00
       13  1    1    2    0    0 +1.7821476305e+03 -6.2864217613e+01 +1.3223687277e+03 2.2200588143e+03 0.0000000000e+00 0.0000e+00 1.0000e+00
<mgrwt>
<rscale>  0 0.36611477E+04</rscale>
<asrwt>0</asrwt>
<pdfrwt beam="1">  1        2 0.44456360E+00 0.36611477E+04</pdfrwt>
<pdfrwt beam="2">  1       -2 0.17840783E+00 0.36611477E+04</pdfrwt>
<totfact> 0.34535425E-01</totfact>
</mgrwt>
<rwgt>
<wgt id='morphing_basis_vector_1'> +4.9400997e-05 </wgt>
<wgt id='morphing_basis_vector_2'> +3.5147136e-05 </wgt>
<wgt id='morphing_basis_vector_3'> +5.4506864e-05 </wgt>
<wgt id='morphing_basis_vector_4'> +3.6714996e-05 </wgt>
<wgt id='morphing_basis_vector_5'> +6.0942963e-05 </wgt>
</rwgt>
</event>
<event>
 4      1 +1.9882500e-09 3.31442200e+03 7.81860800e-03 7.67753500e-02
        2 -1    0    0  501    0 +0.0000000000e+00 +0.0000000000e+00 +3.0414895969e+03 3.0414895969e+03 0.0000000000e+00 0.0000e+00 1.0000e+00
       -2 -1    0    0    0  501 -0.0000000000e+00 -0.0000000000e+00 -9.0296172194e+02 9.0296172194e+02 0.0000000000e+00 0.0000e+00 -1.0000e+00
      -13  1    1    2    0    0 -8.3997644889e+02 -7.5026571824e+02 -3.7750695857e+02 1.1878428290e+03 0.0000000000e+00 0.0000e+00 -1.0000e+00
       13  1    1    2    0    0 +8.3997644889e+02 +7.5026571824e+02 +2.5160348336e+03 2.7566084899e+03 0.0000000000e+00 0.0000e+00 1.0000e+00
<mgrwt>
<rscale>  0 0.33144222E+04</rscale>
<asrwt>0</asrwt>
<pdfrwt beam="1">  1        2 0.46792147E+00 0.33144222E+04</pdfrwt>
<pdfrwt beam="2">  1       -2 0.13891719E+00 0.33144222E+04</pdfrwt>
<totfact> 0.59030408E-01</totfact>
</mgrwt>
<rwgt>
<wgt id='morphing_basis_vector_1'> +3.2791775e-05 </wgt>
<wgt id='morphing_basis_vector_2'> +2.2226030e-05 </wgt>
<wgt id='morphing_basis_vector_3'> +3.5855503e-05 </wgt>
<wgt id='morphing_basis_vector_4'> +2.5602430e-05 </wgt>
<wgt id='morphing_basis_vector_5'> +4.0910741e-05 </wgt>
</rwgt>
</event>
<event>
 4      1 +1.9882500e-09 3.57236200e+03 7.81860800e-03 7.62239000e-02
        2 -1    0    0  501    0 +0.0000000000e+00 +0.0000000000e+00 +2.7611467564e+03 2.7611467564e+03 0.0000000000e+00 0.0000e+00 -1.0000e+00
       -2 -1    0    0    0  501 -0.0000000000e+00 -0.0000000000e+00 -1.1554775490e+03 1.1554775490e+03 0.0000000000e+00 0.0000e+00 1.0000e+00
      -13  1    1    2    0    0 -6.2072459062e+02 -1.7551453957e+02 -1.0233141842e+03 1.2096595763e+03 0.0000000000e+00 0.0000e+00 1.0000e+00
       13  1    1    2    0    0 +6.2072459062e+02 +1.7551453957e+02 +2.6289833916e+03 2.7069647291e+03 0.0000000000e+00 0.0000e+00 -1.0000e+00
<mgrwt>
<rscale>  0 0.35723623E+04</rscale>
<asrwt>0</asrwt>
<pdfrwt beam="1">  1        2 0.42479180E+00 0.35723623E+04</pdfrwt>
<pdfrwt beam="2">  1       -2 0.17776578E+00 0.35723623E+04</pdfrwt>
<totfact> 0.42402636E-01</totfact>
</mgrwt>
<rwgt>
<wgt id='morphing_basis_vector_1'> +4.4122383e-05 </wgt>
<wgt id='morphing_basis_vector_2'> +2.9851971e-05 </wgt>
<wgt id='morphing_basis_vector_3'> +4.8318174e-05 </wgt>
<wgt id='morphing_basis_vector_4'> +3.4704499e-05 </wgt>
<wgt id='morphing_basis_vector_5'> +5.5329738e-05 </wgt>
</rwgt>
</event>
<event>
 4      1 +1.9882500e-09 3.29573500e+03 7.81860800e-03 7.68173000e-02
        2 -1    0    0  501    0 +0.0000000000e+00 +0.0000000000e+00 +2.1792453503e+03 2.1792453503e+03 0.0000000000e+00 0.0000e+00 -1.0000e+00
       -2 -1    0    0    0  501 -0.0000000000e+00 -0.0000000000e+00 -1.2460586789e+03 1.2460586789e+03 0.0000000000e+00 0.0000e+00 1.0000e+00
      -13  1    1    2    0    0 -1.0110738005e+03 +1.4344565033e+02 +1.8107365745e+03 2.0788491592e+03 0.0000000000e+00 0.0000e+00 1.0000e+00
       13  1    1    2    0    0 +1.0110738005e+03 -1.4344565033e+02 -8.7754990298e+02 1.3464548700e+03 0.0000000000e+00 0.0000e+00 -1.0000e+00
<mgrwt>
<rscale>  0 0.32957352E+04</rscale>
<asrwt>0</asrwt>
<pdfrwt beam="1">  1        2 0.33526852E+00 0.32957352E+04</pdfrwt>
<pdfrwt beam="2">  1       -2 0.19170134E+00 0.32957352E+04</pdfrwt>
<totfact> 0.75701084E-01</totfact>
</mgrwt>
<rwgt>
<wgt id='morphing_basis_vector_1'> +4.2523385e-05 </wgt>
<wgt id='morphing_basis_vector_2'> +5.2511566e-05 </wgt>
<wgt id='morphing_basis_vector_3'> +5.1585600e-05 </wgt>
<wgt id='morphing_basis_vector_4'> +3.1132271e-06 </wgt>
<wgt id='morphing_basis_vector_5'> +3.8178686e-05 </wgt>
</rwgt>
</event>
<event>
 4      1 +1.9882500e-09 3.24390500e+03 7.81860800e-03 7.69351500e-02
        2 -1    0    0  501    0 +0.0000000000e+00 +0.0000000000e+00 +2.4103543409e+03 2.4103543409e+03 0.0000000000e+00 0.0000e+00 -1.0000e+00
       -2 -1    0    0    0  501 -0.0000000000e+00 -0.0000000000e+00 -1.0914288628e+03 1.0914288628e+03 0.0000000000e+00 0.0000e+00 1.0000e+00
      -13  1    1    2    0    0 +6.8684300454e+02 -9.9582866126e+02 -5.0684393260e+02 1.3116092434e+03 0.0000000000e+00 0.0000e+00 1.0000e+00
       13  1    1    2    0    0 -6.8684300454e+02 +9.9582866126e+02 +1.8257694107e+03 2.1901739603e+03 0.0000000000e+00 0.0000e+00 -1.0000e+00
<mgrwt>
<rscale>  0 0.32439052E+04</rscale>
<asrwt>0</asrwt>
<pdfrwt beam="1">  1        2 0.37082374E+00 0.32439052E+04</pdfrwt>
<pdfrwt beam="2">  1       -2 0.16791213E+00 0.32439052E+04</pdfrwt>
<totfact> 0.84704559E-01</totfact>
</mgrwt>
<rwgt>
<wgt id='morphing_basis_vector_1'> +3.0128742e-05 </wgt>
<wgt id='morphing_basis_vector_2'> +2.0458712e-05 </wgt>
<wgt id='morphing_basis_vector_3'> +3.2933360e-05 </wgt>
<wgt id='morphing_basis_vector_4'> +2.3435391e-05 </wgt>
<wgt id='morphing_basis_vector_5'> +3.7511266e-05 </wgt>
</rwgt>
</event>
<event>
 4      1 +1.9882500e-09 3.51772600e+03 7.81860800e-03 7.63366300e-02
        2 -1    0    0  501    0 +0.0000000000e+00 +0.0000000000e+00 +4.0472643648e+03 4.0472643648e+03 0.0000000000e+00 0.0000e+00 -1.0000e+00
       -2 -1    0    0    0  501 -0.0000000000e+00 -0.0000000000e+00 -7.6436773117e+02 7.6436773117e+02 0.0000000000e+00 0.0000e+00 1.0000e+00
      -13  1    1    2    0    0 -2.8003672152e+02 -8.2324858928e+02 -4.4977612300e+02 9.7900835848e+02 0.0000000000e+00 0.0000e+00 1.0000e+00
       13  1    1    2    0    0 +2.8003672152e+02 +8.2324858928e+02 +3.7326727567e+03 3.8326237375e+03 0.0000000000e+00 0.0000e+00 -1.0000e+00
<mgrwt>
<rscale>  0 0.35177256E+04</rscale>
<asrwt>0</asrwt>
<pdfrwt beam="1">  1        2 0.62265604E+00 0.35177256E+04</pdfrwt>
<pdfrwt beam="2">  1       -2 0.11759504E+00 0.35177256E+04</pdfrwt>
<totfact> 0.16018982E-01</totfact>
</mgrwt>
<rwgt>
<wgt id='morphing_basis_vector_1'> +4.1507288e-05 </wgt>
<wgt id='morphing_basis_vector_2'> +2.8089967e-05 </wgt>
<wgt id='morphing_basis_vector_3'> +4.5440499e-05 </wgt>
<wgt id='morphing_basis_vector_4'> +3.2604099e-05 </wgt>
<wgt id='morphing_basis_vector_5'> +5.2000309e-05 </wgt>
</rwgt>
</event>
<event>
 4      1 +1.9882500e-09 3.42940800e+03 7.81860800e-03 7.65233700e-02
        2 -1    0    0  501    0 +0.0000000000e+00 +0.0000000000e+00 +2.9483814423e+03 2.9483814423e+03 0.0000000000e+00 0.0000e+00 -1.0000e+00
       -2 -1    0    0    0  501 -0.0000000000e+00 -0.0000000000e+00 -9.9722847046e+02 9.9722847046e+02 0.0000000000e+00 0.0000e+00 1.0000e+00
      -13  1    1    2    0    0 +4.5676586857e+02 +1.5377723849e+03 +2.7874467816e+02 1.6282129965e+03 0.0000000000e+00 0.0000e+00 1.0000e+00
       13  1    1    2    0    0 -4.5676586857e+02 -1.5377723849e+03 +1.6724082937e+03 2.3173969162e+03 0.0000000000e+00 0.0000e+00 -1.0000e+00
<mgrwt>
<rscale>  0 0.34294081E+04</rscale>
<asrwt>0</asrwt>
<pdfrwt beam="1">  1        2 0.45359714E+00 0.34294081E+04</pdfrwt>
<pdfrwt beam="2">  1       -2 0.15341977E+00 0.34294081E+04</pdfrwt>
<totfact> 0.50809538E-01</totfact>
</mgrwt>
<rwgt>
<wgt id='morphing_basis_vector_1'> +3.7852725e-05 </wgt>
<wgt id='morphing_basis_vector_2'> +2.6361861e-05 </wgt>
<wgt id='morphing_basis_vector_3'> +4.1577204e-05 </wgt>
<wgt id='morphing_basis_vector_4'> +2.8731377e-05 </wgt>
<wgt id='morphing_basis_vector_5'> +4.6882049e-05 </wgt>
</rwgt>
</event>
<event>
 4      1 +1.9882500e-09 3.34376600e+03 7.81860800e-03 7.67100600e-02
        2 -1    0    0  501    0 +0.0000000000e+00 +0.0000000000e+00 +2.2996449191e+03 2.2996449191e+03 0.0000000000e+00 0.0000e+00 1.0000e+00
       -2 -1    0    0    0  501 -0.0000000000e+00 -0.0000000000e+00 -1.2154887328e+03 1.2154887328e+03 0.0000000000e+00 0.0000e+00 -1.0000e+00
      -13  1    1    2    0    0 -6.7631346770e+02 -7.3915223588e+02 -8.6496667087e+02 1.3235986084e+03 0.0000000000e+00 0.0000e+00 -1.0000e+00
       13  1    1    2    0    0 +6.7631346770e+02 +7.3915223588e+02 +1.9491228571e+03 2.1915350434e+03 0.0000000000e+00 0.0000e+00 1.0000e+00
<mgrwt>
<rscale>  0 0.33437658E+04</rscale>
<asrwt>0</asrwt>
<pdfrwt beam="1">  1        2 0.35379152E+00 0.33437658E+04</pdfrwt>
<pdfrwt beam="2">  1       -2 0.18699827E+00 0.33437658E+04</pdfrwt>
<totfact> 0.69672274E-01</totfact>
</mgrwt>
<rwgt>
<wgt id='morphing_basis_vector_1'> +3.3944061e-05 </wgt>
<wgt id='morphing_basis_vector_2'> +2.2975181e-05 </wgt>
<wgt id='morphing_basis_vector_3'> +3.7116799e-05 </wgt>
<wgt id='morphing_basis_vector_4'> +2.6560563e-05 </wgt>
<wgt id='morphing_basis_vector_5'> +4.2392320e-05 </wgt>
</rwgt>
</event>
<event>
 4      1 +1.9882500e-09 3.36934000e+03 7.81860800e-03 7.66537100e-02
        2 -1    0    0  501    0 +0.0000000000e+00 +0.0000000000e+00 +3.0201075457e+03 3.0201075457e+03 0.0000000000e+00 0.0000e+00 1.0000e+00
       -2 -1    0    0    0  501 -0.0000000000e+00 -0.0000000000e+00 -9.3973893935e+02 9.3973893935e+02 0.0000000000e+00 0.0000e+00 -1.0000e+00
      -13  1    1    2    0    0 +1.2788088891e+03 +9.3136580483e+02 +3.5963104548e+02 1.6223837173e+03 0.0000000000e+00 0.0000e+00 -1.0000e+00
       13  1    1    2    0    0 -1.2788088891e+03 -9.3136580483e+02 +1.7207375609e+03 2.3374627678e+03 0.0000000000e+00 0.0000e+00 1.0000e+00
<mgrwt>
<rscale>  0 0.33693398E+04</rscale>
<asrwt>0</asrwt>
<pdfrwt beam="1">  1        2 0.46463193E+00 0.33693398E+04</pdfrwt>
<pdfrwt beam="2">  1       -2 0.14457522E+00 0.33693398E+04</pdfrwt>
<totfact> 0.54310882E-01</totfact>
</mgrwt>
<rwgt>
<wgt id='morphing_basis_vector_1'> +3.5300851e-05 </wgt>
<wgt id='morphing_basis_vector_2'> +2.4608310e-05 </wgt>
<wgt id='morphing_basis_vector_3'> +3.8762288e-05 </wgt>
<wgt id='morphing_basis_vector_4'> +2.6729332e-05 </wgt>
<wgt id='morphing_basis_vector_5'> +4.3659087e-05 </wgt>
</rwgt>
</event>
<event>
 4      1 +1.9882500e-09 3.57744500e+03 7.81860800e-03 7.62135100e-02
        2 -1    0    0  501    0 +0.0000000000e+00 +0.0000000000e+00 +1.4590150981e+03 1.4590150981e+03 0.0000000000e+00 0.0000e+00 1.0000e+00
       -2 -1    0    0    0  501 -0.0000000000e+00 -0.0000000000e+00 -2.1929374911e+03 2.1929374911e+03 0.0000000000e+00 0.0000e+00 -1.0000e+00
      -13  1    1    2    0    0 -1.5586850009e+03 +1.2976506223e+02 -1.2529019470e+03 2.0040212554e+03 0.0000000000e+00 0.0000e+00 -1.0000e+00
       13  1    1    2    0    0 +1.5586850009e+03 -1.2976506223e+02 +5.1897955396e+02 1.6479313338e+03 0.0000000000e+00 0.0000e+00 1.0000e+00
<mgrwt>
<rscale>  0 0.35774454E+04</rscale>
<asrwt>0</asrwt>
<pdfrwt beam="1">  1        2 0.22446386E+00 0.35774454E+04</pdfrwt>
<pdfrwt beam="2">  1       -2 0.33737500E+00 0.35774454E+04</pdfrwt>
<totfact> 0.18516302E-01</totfact>
</mgrwt>
<rwgt>
<wgt id='morphing_basis_vector_1'> +4.4584947e-05 </wgt>
<wgt id='morphing_basis_vector_2'> +3.0646872e-05 </wgt>
<wgt id='morphing_basis_vector_3'> +4.8931928e-05 </wgt>
<wgt id='morphing_basis_vector_4'> +3.4456405e-05 </wgt>
<wgt id='morphing_basis_vector_5'> +5.5610195e-05 </wgt>
</rwgt>
</event>
<event>
 4      1 +1.9882500e-09 3.38832400e+03 7.81860800e-03 7.66122200e-02
        2 -1    0    0  501    0 +0.0000000000e+00 +0.0000000000e+00 +9.6551158424e+02 9.6551158424e+02 0.0000000000e+00 0.0000e+00 -1.0000e+00
       -2 -1    0    0    0  501 -0.0000000000e+00 -0.0000000000e+00 -2.9727086306e+03 2.9727086306e+03 0.0000000000e+00 0.0000e+00 1.0000e+00
      -13  1    1    2    0    0 -3.9602531750e+02 -4.8778884656e+02 -2.8322827077e+03 2.9011375954e+03 0.0000000000e+00 0.0000e+00 1.0000e+00
       13  1    1    2    0    0 +3.9602531750e+02 +4.8778884656e+02 +8.2508566138e+02 1.0370826194e+03 0.0000000000e+00 0.0000e+00 -1.0000e+00
<mgrwt>
<rscale>  0 0.33883238E+04</rscale>
<asrwt>0</asrwt>
<pdfrwt beam="1">  1        2 0.14854024E+00 0.33883238E+04</pdfrwt>
<pdfrwt beam="2">  1       -2 0.45733979E+00 0.33883238E+04</pdfrwt>
<totfact> 0.59132811E-02</totfact>
</mgrwt>
<rwgt>
<wgt id='morphing_basis_vector_1'> +3.5760295e-05 </wgt>
<wgt id='morphing_basis_vector_2'> +2.4174084e-05 </wgt>
<wgt id='morphing_basis_vector_3'> +3.9108924e-05 </wgt>
<wgt id='morphing_basis_vector_4'> +2.8048343e-05 </wgt>
<wgt id='morphing_basis_vector_5'> +4.4716904e-05 </wgt>
</rwgt>
</event>
<event>
 4      1 +1.9882500e-09 3.64079300e+03 7.81860800e-03 7.60855900e-02
        2 -1    0    0  501    0 +0.0000000000e+00 +0.0000000000e+00 +1.5953027450e+03 1.5953027450e+03 0.0000000000e+00 0.0000e+00 -1.0000e+00
       -2 -1    0    0    0  501 -0.0000000000e+00 -0.0000000000e+00 -2.0772505156e+03 2.0772505156e+03 0.0000000000e+00 0.0000e+00 1.0000e+00
      -13  1    1    2    0    0 +1.6472594303e+03 -6.2535133330e+02 -7.0247508840e+02 1.8968392580e+03 0.0000000000e+00 0.0000e+00 1.0000e+00
       13  1    1    2    0    0 -1.6472594303e+03 +6.2535133330e+02 +2.2052731782e+02 1.7757140025e+03 0.0000000000e+00 0.0000e+00 -1.0000e+00
<mgrwt>
<rscale>  0 0.36407930E+04</rscale>
<asrwt>0</asrwt>
<pdfrwt beam="1">  1        2 0.24543119E+00 0.36407930E+04</pdfrwt>
<pdfrwt beam="2">  1       -2 0.31957700E+00 0.36407930E+04</pdfrwt>
<totfact> 0.20276118E-01</totfact>
</mgrwt>
<rwgt>
<wgt id='morphing_basis_vector_1'> +4.8245155e-05 </wgt>
<wgt id='morphing_basis_vector_2'> +3.4159496e-05 </wgt>
<wgt id='morphing_basis_vector_3'> +5.3188606e-05 </wgt>
<wgt id='morphing_basis_vector_4'> +3.6054365e-05 </wgt>
<wgt id='morphing_basis_vector_5'> +5.9603801e-05 </wgt>
</rwgt>
</event>
<event>
 4      1 +1.9882500e-09 3.75741500e+03 7.81860800e-03 7.58569000e-02
        2 -1    0    0  501    0 +0.0000000000e+00 +0.0000000000e+00 +1.3903889829e+03 1.3903889829e+03 0.0000000000e+00 0.0000e+00 -1.0000e+00
       -2 -1    0    0    0  501 -0.0000000000e+00 -0.0000000000e+00 -2.5385283348e+03 2.5385283348e+03 0.0000000000e+00 0.0000e+00 1.0000e+00
      -13  1    1    2    0    0 +1.5396617464e+03 +9.7501531645e+02 -9.6806148760e+01 1.8249889290e+03 0.0000000000e+00 0.0000e+00 -1.0000e+00
       13  1    1    2    0    0 -1.5396617464e+03 -9.7501531645e+02 -1.0513332032e+03 2.1039283887e+03 0.0000000000e+00 0.0000e+00 1.0000e+00
<mgrwt>
<rscale>  0 0.37574150E+04</rscale>
<asrwt>0</asrwt>
<pdfrwt beam="1">  1        2 0.21390600E+00 0.37574150E+04</pdfrwt>
<pdfrwt beam="2">  1       -2 0.39054281E+00 0.37574150E+04</pdfrwt>
<totfact> 0.90411402E-02</totfact>
</mgrwt>
<rwgt>
<wgt id='morphing_basis_vector_1'> +5.8507061e-05 </wgt>
<wgt id='morphing_basis_vector_2'> +4.9965209e-05 </wgt>
<wgt id='morphing_basis_vector_3'> +6.6437346e-05 </wgt>
<wgt id='morphing_basis_vector_4'> +3.2875246e-05 </wgt>
<wgt id='morphing_basis_vector_5'> +6.6995465e-05 </wgt>
</rwgt>
</event>
<event>
 4      1 +1.9882500e-09 3.54867500e+03 7.81860800e-03 7.62725200e-02
        2 -1    0    0  501    0 +0.0000000000e+00 +0.0000000000e+00 +2.0456997187e+03 2.0456997187e+03 0.0000000000e+00 0.0000e+00 1.0000e+00
       -2 -1    0    0    0  501 -0.0000000000e+00 -0.0000000000e+00 -1.5389712047e+03 1.5389712047e+03 0.0000000000e+00 0.0000e+00 -1.0000e+00
      -13  1    1    2    0    0 +9.9333974307e+02 -9.1053691017e+02 +1.4194006268e+03 1.9571661783e+03 0.0000000000e+00 0.0000e+00 1.0000e+00
       13  1    1    2    0    0 -9.9333974307e+02 +9.1053691017e+02 -9.1267211284e+02 1.6275047452e+03 0.0000000000e+00 0.0000e+00 -1.0000e+00
<mgrwt>
<rscale>  0 0.35486747E+04</rscale>
<asrwt>0</asrwt>
<pdfrwt beam="1">  1        2 0.31472304E+00 0.35486747E+04</pdfrwt>
<pdfrwt beam="2">  1       -2 0.23676480E+00 0.35486747E+04</pdfrwt>
<totfact> 0.41977368E-01</totfact>
</mgrwt>
<rwgt>
<wgt id='morphing_basis_vector_1'> +5.4291042e-05 </wgt>
<wgt id='morphing_basis_vector_2'> +6.2366427e-05 </wgt>
<wgt id='morphing_basis_vector_3'> +6.5057156e-05 </wgt>
<wgt id='morphing_basis_vector_4'> +9.9746141e-06 </wgt>
<wgt id='morphing_basis_vector_5'> +5.1893138e-05 </wgt>
</rwgt>
</event>
<event>
 4      1 +1.9882500e-09 3.51879400e+03 7.81860800e-03 7.63344000e-02
        2 -1    0    0  501    0 +0.0000000000e+00 +0.0000000000e+00 +1.4347236306e+03 1.4347236306e+03 0.0000000000e+00 0.0000e+00 1.0000e+00
       -2 -1    0    0    0  501 -0.0000000000e+00 -0.0000000000e+00 -2.1575434426e+03 2.1575434426e+03 0.0000000000e+00 0.0000e+00 -1.0000e+00
      -13  1    1    2    0    0 -6.0691840059e+02 -9.6467086421e+02 +1.0069269190e+03 1.5208029594e+03 0.0000000000e+00 0.0000e+00 1.0000e+00
       13  1    1    2    0    0 +6.0691840059e+02 +9.6467086421e+02 -1.7297467310e+03 2.0714641137e+03 0.0000000000e+00 0.0000e+00 -1.0000e+00
<mgrwt>
<rscale>  0 0.35187944E+04</rscale>
<asrwt>0</asrwt>
<pdfrwt beam="1">  1        2 0.22072671E+00 0.35187944E+04</pdfrwt>
<pdfrwt beam="2">  1       -2 0.33192976E+00 0.35187944E+04</pdfrwt>
<totfact> 0.20855751E-01</totfact>
</mgrwt>
<rwgt>
<wgt id='morphing_basis_vector_1'> +5.4761237e-05 </wgt>
<wgt id='morphing_basis_vector_2'> +6.6963720e-05 </wgt>
<wgt id='morphing_basis_vector_3'> +6.6485294e-05 </wgt>
<wgt id='morphing_basis_vector_4'> +4.8802299e-06 </wgt>
<wgt id='morphing_basis_vector_5'> +4.9762601e-05 </wgt>
</rwgt>
</event>
<event>
 4      1 +1.9882500e-09 3.36821200e+03 7.81860800e-03 7.66561900e-02
        2 -1    0    0  501    0 +0.0000000000e+00 +0.0000000000e+00 +2.5372962889e+03 2.5372962889e+03 0.0000000000e+00 0.0000e+00 1.0000e+00
       -2 -1    0    0    0  501 -0.0000000000e+00 -0.0000000000e+00 -1.1178090174e+03 1.1178090174e+03 0.0000000000e+00 0.0000e+00 -1.0000e+00
      -13  1    1    2    0    0 +1.9658420546e+02 -1.4951786721e+03 -1.0378299440e+02 1.5116135489e+03 0.0000000000e+00 0.0000e+00 -1.0000e+00
       13  1    1    2    0    0 -1.9658420546e+02 +1.4951786721e+03 +1.5232702659e+03 2.1434917575e+03 0.0000000000e+00 0.0000e+00 1.0000e+00
<mgrwt>
<rscale>  0 0.33682118E+04</rscale>
<asrwt>0</asrwt>
<pdfrwt beam="1">  1        2 0.39035327E+00 0.33682118E+04</pdfrwt>
<pdfrwt beam="2">  1       -2 0.17197062E+00 0.33682118E+04</pdfrwt>
<totfact> 0.65507439E-01</totfact>
</mgrwt>
<rwgt>
<wgt id='morphing_basis_vector_1'> +3.5129462e-05 </wgt>
<wgt id='morphing_basis_vector_2'> +2.4209202e-05 </wgt>
<wgt id='morphing_basis_vector_3'> +3.8513283e-05 </wgt>
<wgt id='morphing_basis_vector_4'> +2.6954431e-05 </wgt>
<wgt id='morphing_basis_vector_5'> +4.3621842e-05 </wgt>
</rwgt>
</event>
<event>
 4      1 +1.9882500e-09 3.30326000e+03 7.81860800e-03 7.68003700e-02
        2 -1    0    0  501    0 +0.0000000000e+00 +0.0000000000e+00 +2.1729925689e+03 2.1729925689e+03 0.0000000000e+00 0.0000e+00 1.0000e+00
       -2 -1    0    0    0  501 -0.0000000000e+00 -0.0000000000e+00 -1.2553571425e+03 1.2553571425e+03 0.0000000000e+00 0.0000e+00 -1.0000e+00
      -13  1    1    2    0    0 -1.1349917748e+03 -1.1048357948e+03 -2.6892879711e+01 1.5841690848e+03 0.0000000000e+00 0.0000e+00 -1.0000e+00
       13  1    1    2    0    0 +1.1349917748e+03 +1.1048357948e+03 +9.4452830611e+02 1.8441806266e+03 0.0000000000e+00 0.0000e+00 1.0000e+00
<mgrwt>
<rscale>  0 0.33032601E+04</rscale>
<asrwt>0</asrwt>
<pdfrwt beam="1">  1        2 0.33430655E+00 0.33032601E+04</pdfrwt>
<pdfrwt beam="2">  1       -2 0.19313187E+00 0.33032601E+04</pdfrwt>
<totfact> 0.74436924E-01</totfact>
</mgrwt>
<rwgt>
<wgt id='morphing_basis_vector_1'> +3.2721995e-05 </wgt>
<wgt id='morphing_basis_vector_2'> +2.3007484e-05 </wgt>
<wgt id='morphing_basis_vector_3'> +3.5954510e-05 </wgt>
<wgt id='morphing_basis_vector_4'> +2.4489001e-05 </wgt>
<wgt id='morphing_basis_vector_5'> +4.0294994e-05 </wgt>
</rwgt>
</event>
<event>
 4      1 +1.9882500e-09 3.73773800e+03 7.81860800e-03 7.58948900e-02
        2 -1    0    0  501    0 +0.0000000000e+00 +0.0000000000e+00 +2.1351622422e+03 2.1351622422e+03 0.0000000000e+00 0.0000e+00 -1.0000e+00
       -2 -1    0    0    0  501 -0.0000000000e+00 -0.0000000000e+00 -1.6357873025e+03 1.6357873025e+03 0.0000000000e+00 0.0000e+00 1.0000e+00
      -13  1    1    2    0    0 +5.4081972244e+02 +1.7572147512e+03 -8.8524935968e+01 1.8406863715e+03 0.0000000000e+00 0.0000e+00 1.0000e+00
       13  1    1    2    0    0 -5.4081972244e+02 -1.7572147512e+03 +5.8789987562e+02 1.9302631732e+03 0.0000000000e+00 0.0000e+00 -1.0000e+00
<mgrwt>
<rscale>  0 0.37377380E+04</rscale>
<asrwt>0</asrwt>
<pdfrwt beam="1">  1        2 0.32848650E+00 0.37377380E+04</pdfrwt>
<pdfrwt beam="2">  1       -2 0.25165958E+00 0.37377380E+04</pdfrwt>
<totfact> 0.28983646E-01</totfact>
</mgrwt>
<rwgt>
<wgt id='morphing_basis_vector_1'> +5.3807294e-05 </wgt>
<wgt id='morphing_basis_vector_2'> +3.8665920e-05 </wgt>
<wgt id='morphing_basis_vector_3'> +5.9480025e-05 </wgt>
<wgt id='morphing_basis_vector_4'> +3.9550369e-05 </wgt>
<wgt id='morphing_basis_vector_5'> +6.6207248e-05 </wgt>
</rwgt>
</event>
<event>
 4      1 +1.9882500e-09 3.24440700e+03 7.81860800e-03 7.69340000e-02
        2 -1    0    0  501    0 +0.0000000000e+00 +0.0000000000e+00 +2.9022145233e+03 2.9022145233e+03 0.0000000000e+00 0.0000e+00 -1.0000e+00
       -2 -1    0    0    0  501 -0.0000000000e+00 -0.0000000000e+00 -9.0673665165e+02 9.0673665165e+02 0.0000000000e+00 0.0000e+00 1.0000e+00
      -13  1    1    2    0    0 +1.0113843953e+03 -1.2656449497e+03 +1.0944697484e+03 1.9551520565e+03 0.0000000000e+00 0.0000e+00 1.0000e+00
       13  1    1    2    0    0 -1.0113843953e+03 +1.2656449497e+03 +9.0100812325e+02 1.8537991185e+03 0.0000000000e+00 0.0000e+00 -1.0000e+00
<mgrwt>
<rscale>  0 0.32444071E+04</rscale>
<asrwt>0</asrwt>
<pdfrwt beam="1">  1        2 0.44649454E+00 0.32444071E+04</pdfrwt>
<pdfrwt beam="2">  1       -2 0.13949795E+00 0.32444071E+04</pdfrwt>
<totfact> 0.72258509E-01</totfact>
</mgrwt>
<rwgt>
<wgt id='morphing_basis_vector_1'> +3.1423847e-05 </wgt>
<wgt id='morphing_basis_vector_2'> +2.4228674e-05 </wgt>
<wgt id='morphing_basis_vector_3'> +3.4968416e-05 </wgt>
<wgt id='morphing_basis_vector_4'> +2.0778067e-05 </wgt>
<wgt id='morphing_basis_vector_5'> +3.7314063e-05 </wgt>
</rwgt>
</event>
<event>
 4      1 +1.9882500e-09 3.39815200e+03 7.81860800e-03 7.65908500e-02
        2 -1    0    0  501    0 +0.0000000000e+00 +0.0000000000e+00 +2.4473380071e+03 2.4473380071e+03 0.0000000000e+00 0.0000e+00 -1.0000e+00
       -2 -1    0    0    0  501 -0.0000000000e+00 -0.0000000000e+00 -1.1795917219e+03 1.1795917219e+03 0.0000000000e+00 0.0000e+00 1.0000e+00
      -13  1    1    2    0    0 +4.3754590740e+02 -1.0945612418e+03 -6.7217088369e+02 1.3569541002e+03 0.0000000000e+00 0.0000e+00 1.0000e+00
       13  1    1    2    0    0 -4.3754590740e+02 +1.0945612418e+03 +1.9399171689e+03 2.2699756288e+03 0.0000000000e+00 0.0000e+00 -1.0000e+00
<mgrwt>
<rscale>  0 0.33981522E+04</rscale>
<asrwt>0</asrwt>
<pdfrwt beam="1">  1        2 0.37651354E+00 0.33981522E+04</pdfrwt>
<pdfrwt beam="2">  1       -2 0.18147565E+00 0.33981522E+04</pdfrwt>
<totfact> 0.62523457E-01</totfact>
</mgrwt>
<rwgt>
<wgt id='morphing_basis_vector_1'> +3.6210954e-05 </wgt>
<wgt id='morphing_basis_vector_2'> +2.4563600e-05 </wgt>
<wgt id='morphing_basis_vector_3'> +3.9622947e-05 </wgt>
<wgt id='morphing_basis_vector_4'> +2.8299937e-05 </wgt>
<wgt id='morphing_basis_vector_5'> +4.5235212e-05 </wgt>
</rwgt>
</event>
<event>
 4      1 +1.9882500e-09 3.26121400e+03 7.81860800e-03 7.68955400e-02
        2 -1    0    0  501    0 +0.0000000000e+00 +0.0000000000e+00 +2.1111778893e+03 2.1111778893e+03 0.0000000000e+00 0.0000e+00 1.0000e+00
       -2 -1    0    0    0  501 -0.0000000000e+00 -0.0000000000e+00 -1.2594289960e+03 1.2594289960e+03 0.0000000000e+00 0.0000e+00 -1.0000e+00
      -13  1    1    2    0    0 -8.3405193762e+02 +1.8944242666e+02 -1.0089833807e+03 1.3227163453e+03 0.0000000000e+00 0.0000e+00 -1.0000e+00
       13  1    1    2    0    0 +8.3405193762e+02 -1.8944242666e+02 +1.8607322740e+03 2.0478905399e+03 0.0000000000e+00 0.0000e+00 1.0000e+00
<mgrwt>
<rscale>  0 0.32612137E+04</rscale>
<asrwt>0</asrwt>
<pdfrwt beam="1">  1        2 0.32479660E+00 0.32612137E+04</pdfrwt>
<pdfrwt beam="2">  1       -2 0.19375831E+00 0.32612137E+04</pdfrwt>
<totfact> 0.80149507E-01</totfact>
</mgrwt>
<rwgt>
<wgt id='morphing_basis_vector_1'> +3.0729840e-05 </wgt>
<wgt id='morphing_basis_vector_2'> +2.0773768e-05 </wgt>
<wgt id='morphing_basis_vector_3'> +3.3575161e-05 </wgt>
<wgt id='morphing_basis_vector_4'> +2.4031318e-05 </wgt>
<wgt id='morphing_basis_vector_5'> +3.8331693e-05 </wgt>
</rwgt>
</event>
<event>
 4      1 +1.9882500e-09 3.62437900e+03 7.81860800e-03 7.61184800e-02
        2 -1    0    0  501    0 +0.0000000000e+00 +0.0000000000e+00 +3.3849111789e+03 3.3849111789e+03 0.0000000000e+00 0.0000e+00 1.0000e+00
       -2 -1    0    0    0  501 -0.0000000000e+00 -0.0000000000e+00 -9.7019693260e+02 9.7019693260e+02 0.0000000000e+00 0.0000e+00 -1.0000e+00
      -13  1    1    2    0    0 +1.6845308466e+03 -2.5464904744e+02 +1.9495819388e+03 2.5890847894e+03 0.0000000000e+00 0.0000e+00 1.0000e+00
       13  1    1    2    0    0 -1.6845308466e+03 +2.5464904744e+02 +4.6513230746e+02 1.7660233221e+03 0.0000000000e+00 0.0000e+00 -1.0000e+00
<mgrwt>
<rscale>  0 0.36243788E+04</rscale>
<asrwt>0</asrwt>
<pdfrwt beam="1">  1        2 0.52075556E+00 0.36243788E+04</pdfrwt>
<pdfrwt beam="2">  1       -2 0.14926107E+00 0.36243788E+04</pdfrwt>
<totfact> 0.27418003E-01</totfact>
</mgrwt>
<rwgt>
<wgt id='morphing_basis_vector_1'> +5.2151801e-05 </wgt>
<wgt id='morphing_basis_vector_2'> +4.7564645e-05 </wgt>
<wgt id='morphing_basis_vector_3'> +5.9829457e-05 </wgt>
<wgt id='morphing_basis_vector_4'> +2.5369250e-05 </wgt>
<wgt id='morphing_basis_vector_5'> +5.7696893e-05 </wgt>
</rwgt>
</event>
<event>
 4      1 +1.9882500e-09 3.43299200e+03 7.81860800e-03 7.65156800e-02
        2 -1    0    0  501    0 +0.0000000000e+00 +0.0000000000e+00 +1.6742986651e+03 1.6742986651e+03 0.0000000000e+00 0.0000e+00 1.0000e+00
       -2 -1    0    0    0  501 -0.0000000000e+00 -0.0000000000e+00 -1.7597570146e+03 1.7597570146e+03 0.0000000000e+00 0.0000e+00 -1.0000e+00
      -13  1    1    2    0    0 -1.4610373067e+03 -1.2879791460e+02 +8.4925324319e+02 1.6948303707e+03 0.0000000000e+00 0.0000e+00 -1.0000e+00
       13  1    1    2    0    0 +1.4610373067e+03 +1.2879791460e+02 -9.3471159264e+02 1.7392253091e+03 0.0000000000e+00 0.0000e+00 1.0000e+00
<mgrwt>
<rscale>  0 0.34329922E+04</rscale>
<asrwt>0</asrwt>
<pdfrwt beam="1">  1        2 0.25758441E+00 0.34329922E+04</pdfrwt>
<pdfrwt beam="2">  1       -2 0.27073185E+00 0.34329922E+04</pdfrwt>
<totfact> 0.39839184E-01</totfact>
</mgrwt>
<rwgt>
<wgt id='morphing_basis_vector_1'> +4.4984543e-05 </wgt>
<wgt id='morphing_basis_vector_2'> +4.6990935e-05 </wgt>
<wgt id='morphing_basis_vector_3'> +5.2815156e-05 </wgt>
<wgt id='morphing_basis_vector_4'> +1.4206724e-05 </wgt>
<wgt id='morphing_basis_vector_5'> +4.5867069e-05 </wgt>
</rwgt>
</event>
<event>
 4      1 +1.9882500e-09 3.36555800e+03 7.81860800e-03 7.66620100e-02
        2 -1    0    0  501    0 +0.0000000000e+00 +0.0000000000e+00 +1.1306958934e+03 1.1306958934e+03 0.0000000000e+00 0.0000e+00 -1.0000e+00
       -2 -1    0    0    0  501 -0.0000000000e+00 -0.0000000000e+00 -2.5044263348e+03 2.5044263348e+03 0.0000000000e+00 0.0000e+00 1.0000e+00
      -13  1    1    2    0    0 +1.4443505702e+03 +8.5034619891e+02 -5.2482451943e+02 1.7563251418e+03 0.0000000000e+00 0.0000e+00 1.0000e+00
       13  1    1    2    0    0 -1.4443505702e+03 -8.5034619891e+02 -8.4890592201e+02 1.8787970864e+03 0.0000000000e+00 0.0000e+00 -1.0000e+00
<mgrwt>
<rscale>  0 0.33655576E+04</rscale>
<asrwt>0</asrwt>
<pdfrwt beam="1">  1        2 0.17395322E+00 0.33655576E+04</pdfrwt>
<pdfrwt beam="2">  1       -2 0.38529636E+00 0.33655576E+04</pdfrwt>
<totfact> 0.14253542E-01</totfact>
</mgrwt>
<rwgt>
<wgt id='morphing_basis_vector_1'> +3.6568310e-05 </wgt>
<wgt id='morphing_basis_vector_2'> +2.8690019e-05 </wgt>
<wgt id='morphing_basis_vector_3'> +4.0844485e-05 </wgt>
<wgt id='morphing_basis_vector_4'> +2.3620583e-05 </wgt>
<wgt id='morphing_basis_vector_5'> +4.3214853e-05 </wgt>
</rwgt>
</event>
<event>
 4      1 +1.9882500e-09 3.36753900e+03 7.81860800e-03 7.66576600e-02
        2 -1    0    0  501    0 +0.0000000000e+00 +0.0000000000e+00 +8.0122898540e+02 8.0122898540e+02 0.0000000000e+00 0.0000e+00 -1.0000e+00
       -2 -1    0    0    0  501 -0.0000000000e+00 -0.0000000000e+00 -3.5384148855e+03 3.5384148855e+03 0.0000000000e+00 0.0000e+00 1.0000e+00
      -13  1    1    2    0    0 +1.5265436621e+03 +4.2897747481e+02 -2.0983976859e+03 2.6301387937e+03 0.0000000000e+00 0.0000e+00 1.0000e+00
       13  1    1    2    0    0 -1.5265436621e+03 -4.2897747481e+02 -6.3878821418e+02 1.7095050771e+03 0.0000000000e+00 0.0000e+00 -1.0000e+00
<mgrwt>
<rscale>  0 0.33675395E+04</rscale>
<asrwt>0</asrwt>
<pdfrwt beam="1">  1        2 0.12326600E+00 0.33675395E+04</pdfrwt>
<pdfrwt beam="2">  1       -2 0.54437152E+00 0.33675395E+04</pdfrwt>
<totfact> 0.17361552E-02</totfact>
</mgrwt>
<rwgt>
<wgt id='morphing_basis_vector_1'> +3.5236947e-05 </wgt>
<wgt id='morphing_basis_vector_2'> +2.4588110e-05 </wgt>
<wgt id='morphing_basis_vector_3'> +3.8696858e-05 </wgt>
<wgt id='morphing_basis_vector_4'> +2.6648913e-05 </wgt>
<wgt id='morphing_basis_vector_5'> +4.3563301e-05 </wgt>
</rwgt>
</event>
<event>
 4      1 +1.9882500e-09 3.23901100e+03 7.81860800e-03 7.69464000e-02
        2 -1    0    0  501    0 +0.0000000000e+00 +0.0000000000e+00 +9.4378810378e+02 9.4378810378e+02 0.0000000000e+00 0.0000e+00 -1.0000e+00
       -2 -1    0    0    0  501 -0.0000000000e+00 -0.0000000000e+00 -2.7790115006e+03 2.7790115006e+03 0.0000000000e+00 0.0000e+00 1.0000e+00
      -13  1    1    2    0    0 -6.9184244440e+02 +1.4123693629e+03 -1.3618145953e+03 2.0803778929e+03 0.0000000000e+00 0.0000e+00 1.0000e+00
       13  1    1    2    0    0 +6.9184244440e+02 -1.4123693629e+03 -4.7340880150e+02 1.6424217115e+03 0.0000000000e+00 0.0000e+00 -1.0000e+00
<mgrwt>
<rscale>  0 0.32390110E+04</rscale>
<asrwt>0</asrwt>
<pdfrwt beam="1">  1        2 0.14519818E+00 0.32390110E+04</pdfrwt>
<pdfrwt beam="2">  1       -2 0.42754022E+00 0.32390110E+04</pdfrwt>
<totfact> 0.99042091E-02</totfact>
</mgrwt>
<rwgt>
<wgt id='morphing_basis_vector_1'> +3.0342350e-05 </wgt>
<wgt id='morphing_basis_vector_2'> +2.1494432e-05 </wgt>
<wgt id='morphing_basis_vector_3'> +3.3356249e-05 </wgt>
<wgt id='morphing_basis_vector_4'> +2.2469480e-05 </wgt>
<wgt id='morphing_basis_vector_5'> +3.7215686e-05 </wgt>
</rwgt>
</event>
<event>
 4      1 +1.9882500e-09 3.40769300e+03 7.81860800e-03 7.65701700e-02
        2 -1    0    0  501    0 +0.0000000000e+00 +0.0000000000e+00 +3.0139649558e+03 3.0139649558e+03 0.0000000000e+00 0.0000e+00 -1.0000e+00
       -2 -1    0    0    0  501 -0.0000000000e+00 -0.0000000000e+00 -9.6321402451e+02 9.6321402451e+02 0.0000000000e+00 0.0000e+00 1.0000e+00
      -13  1    1    2    0    0 -1.5922234201e+03 -1.1243080239e+02 +3.2971340843e+02 1.6298855900e+03 0.0000000000e+00 0.0000e+00 1.0000e+00
       13  1    1    2    0    0 +1.5922234201e+03 +1.1243080239e+02 +1.7210375229e+03 2.3472933903e+03 0.0000000000e+00 0.0000e+00 -1.0000e+00
<mgrwt>
<rscale>  0 0.34076932E+04</rscale>
<asrwt>0</asrwt>
<pdfrwt beam="1">  1        2 0.46368691E+00 0.34076932E+04</pdfrwt>
<pdfrwt beam="2">  1       -2 0.14818677E+00 0.34076932E+04</pdfrwt>
<totfact> 0.50969900E-01</totfact>
</mgrwt>
<rwgt>
<wgt id='morphing_basis_vector_1'> +3.6914684e-05 </wgt>
<wgt id='morphing_basis_vector_2'> +2.5717311e-05 </wgt>
<wgt id='morphing_basis_vector_3'> +4.0542414e-05 </wgt>
<wgt id='morphing_basis_vector_4'> +2.7995243e-05 </wgt>
<wgt id='morphing_basis_vector_5'> +4.5697096e-05 </wgt>
</rwgt>
</event>
<event>
 4      1 +1.9882500e-09 3.28947400e+03 7.81860800e-03 7.68314200e-02
        2 -1    0    0  501    0 +0.0000000000e+00 +0.0000000000e+00 +1.3602571966e+03 1.3602571966e+03 0.0000000000e+00 0.0000e+00 1.0000e+00
       -2 -1    0    0    0  501 -0.0000000000e+00 -0.0000000000e+00 -1.9887117087e+03 1.9887117087e+03 0.0000000000e+00 0.0000e+00 -1.0000e+00
      -13  1    1    2    0    0 -4.3247842238e+02 -1.2070886629e+03 +7.3448033432e+02 1.4776880548e+03 0.0000000000e+00 0.0000e+00 1.0000e+00
       13  1    1    2    0    0 +4.3247842238e+02 +1.2070886629e+03 -1.3629348465e+03 1.8712808505e+03 0.0000000000e+00 0.0000e+00 -1.0000e+00
<mgrwt>
<rscale>  0 0.32894738E+04</rscale>
<asrwt>0</asrwt>
<pdfrwt beam="1">  1        2 0.20927034E+00 0.32894738E+04</pdfrwt>
<pdfrwt beam="2">  1       -2 0.30595565E+00 0.32894738E+04</pdfrwt>
<totfact> 0.34868429E-01</totfact>
</mgrwt>
<rwgt>
<wgt id='morphing_basis_vector_1'> +3.9756387e-05 </wgt>
<wgt id='morphing_basis_vector_2'> +4.4914427e-05 </wgt>
<wgt id='morphing_basis_vector_3'> +4.7325680e-05 </wgt>
<wgt id='morphing_basis_vector_4'> +8.2157967e-06 </wgt>
<wgt id='morphing_basis_vector_5'> +3.8310973e-05 </wgt>
</rwgt>
</event>
<event>
 4      1 +1.9882500e-09 3.28057900e+03 7.81860800e-03 7.68515300e-02
        2 -1    0    0  501    0 +0.0000000000e+00 +0.0000000000e+00 +1.6935890807e+03 1.6935890807e+03 0.0000000000e+00 0.0000e+00 -1.0000e+00
       -2 -1    0    0    0  501 -0.0000000000e+00 -0.0000000000e+00 -1.5886668846e+03 1.5886668846e+03 0.0000000000e+00 0.0000e+00 1.0000e+00
      -13  1    1    2    0    0 +1.2244032911e+03 +5.5683436037e+02 +9.9172808301e+02 1.6711530495e+03 0.0000000000e+00 0.0000e+00 1.0000e+00
       13  1    1    2    0    0 -1.2244032911e+03 -5.5683436037e+02 -8.8680588692e+02 1.6111029158e+03 0.0000000000e+00 0.0000e+00 -1.0000e+00
<mgrwt>
<rscale>  0 0.32805785E+04</rscale>
<asrwt>0</asrwt>
<pdfrwt beam="1">  1        2 0.26055217E+00 0.32805785E+04</pdfrwt>
<pdfrwt beam="2">  1       -2 0.24441029E+00 0.32805785E+04</pdfrwt>
<totfact> 0.59749129E-01</totfact>
</mgrwt>
<rwgt>
<wgt id='morphing_basis_vector_1'> +3.8424487e-05 </wgt>
<wgt id='morphing_basis_vector_2'> +4.1764814e-05 </wgt>
<wgt id='morphing_basis_vector_3'> +4.5381219e-05 </wgt>
<wgt id='morphing_basis_vector_4'> +1.0026019e-05 </wgt>
<wgt id='morphing_basis_vector_5'> +3.8052320e-05 </wgt>
</rwgt>
</event>
<event>
 4      1 +1.9882500e-09 3.79787300e+03 7.81860800e-03 7.57795400e-02
        2 -1    0    0  501    0 +0.0000000000e+00 +0.0000000000e+00 +1.8338278989e+03 1.8338278989e+03 0.0000000000e+00 0.0000e+00 1.0000e+00
       -2 -1    0    0    0  501 -0.0000000000e+00 -0.0000000000e+00 -1.9663569789e+03 1.9663569789e+03 0.0000000000e+00 0.0000e+00 -1.0000e+00
      -13  1    1    2    0    0 -1.0015333735e+03 +1.5896071126e+03 -3.4218665024e+02 1.9097150506e+03 0.0000000000e+00 0.0000e+00 -1.0000e+00
       13  1    1    2    0    0 +1.0015333735e+03 -1.5896071126e+03 +2.0965757021e+02 1.8904698272e+03 0.0000000000e+00 0.0000e+00 1.0000e+00
<mgrwt>
<rscale>  0 0.37978732E+04</rscale>
<asrwt>0</asrwt>
<pdfrwt beam="1">  1        2 0.28212737E+00 0.37978732E+04</pdfrwt>
<pdfrwt beam="2">  1       -2 0.30251646E+00 0.37978732E+04</pdfrwt>
<totfact> 0.19178338E-01</totfact>
</mgrwt>
<rwgt>
<wgt id='morphing_basis_vector_1'> +5.7483384e-05 </wgt>
<wgt id='morphing_basis_vector_2'> +4.1649006e-05 </wgt>
<wgt id='morphing_basis_vector_3'> +6.3640791e-05 </wgt>
<wgt id='morphing_basis_vector_4'> +4.1855789e-05 </wgt>
<wgt id='morphing_basis_vector_5'> +7.0570717e-05 </wgt>
</rwgt>
</event>
<event>
 4      1 +1.9882500e-09 3.37429900e+03 7.81860800e-03 7.66428500e-02
        2 -1    0    0  501    0 +0.0000000000e+00 +0.0000000000e+00 +1.6050336566e+03 1.6050336566e+03 0.0000000000e+00 0.0000e+00 1.0000e+00
       -2 -1    0    0    0  501 -0.0000000000e+00 -0.0000000000e+00 -1.7734667338e+03 1.7734667338e+03 0.0000000000e+00 0.0000e+00 -1.0000e+00
      -13  1    1    2    0    0 +6.5554814500e+02 -1.4660016910e+03 -6.0213174246e+02 1.7150705419e+03 0.0000000000e+00 0.0000e+00 -1.0000e+00
       13  1    1    2    0    0 -6.5554814500e+02 +1.4660016910e+03 +4.3369866524e+02 1.6634298484e+03 0.0000000000e+00 0.0000e+00 1.0000e+00
<mgrwt>
<rscale>  0 0.33742992E+04</rscale>
<asrwt>0</asrwt>
<pdfrwt beam="1">  1        2 0.24692826E+00 0.33742992E+04</pdfrwt>
<pdfrwt beam="2">  1       -2 0.27284103E+00 0.33742992E+04</pdfrwt>
<totfact> 0.42318486E-01</totfact>
</mgrwt>
<rwgt>
<wgt id='morphing_basis_vector_1'> +3.5566114e-05 </wgt>
<wgt id='morphing_basis_vector_2'> +2.4925094e-05 </wgt>
<wgt id='morphing_basis_vector_3'> +3.9083552e-05 </wgt>
<wgt id='morphing_basis_vector_4'> +2.6765477e-05 </wgt>
<wgt id='morphing_basis_vector_5'> +4.3908365e-05 </wgt>
</rwgt>
</event>
<event>
 4      1 +1.9882500e-09 3.58028400e+03 7.81860800e-03 7.62077200e-02
        2 -1    0    0  501    0 +0.0000000000e+00 +0.0000000000e+00 +3.1264695692e+03 3.1264695692e+03 0.0000000000e+00 0.0000e+00 1.0000e+00
       -2 -1    0    0    0  501 -0.0000000000e+00 -0.0000000000e+00 -1.0249926910e+03 1.0249926910e+03 0.0000000000e+00 0.0000e+00 -1.0000e+00
      -13  1    1    2    0    0 -8.1966218434e+02 +1.5583830651e+03 +1.4250446397e+03 2.2652055313e+03 0.0000000000e+00 0.0000e+00 -1.0000e+00
       13  1    1    2    0    0 +8.1966218434e+02 -1.5583830651e+03 +6.7643223841e+02 1.8862567289e+03 0.0000000000e+00 0.0000e+00 1.0000e+00
<mgrwt>
<rscale>  0 0.35802840E+04</rscale>
<asrwt>0</asrwt>
<pdfrwt beam="1">  1        2 0.48099531E+00 0.35802840E+04</pdfrwt>
<pdfrwt beam="2">  1       -2 0.15769118E+00 0.35802840E+04</pdfrwt>
<totfact> 0.35381621E-01</totfact>
</mgrwt>
<rwgt>
<wgt id='morphing_basis_vector_1'> +4.7577025e-05 </wgt>
<wgt id='morphing_basis_vector_2'> +3.9130336e-05 </wgt>
<wgt id='morphing_basis_vector_3'> +5.3626321e-05 </wgt>
<wgt id='morphing_basis_vector_4'> +2.8565737e-05 </wgt>
<wgt id='morphing_basis_vector_5'> +5.5290214e-05 </wgt>
</rwgt>
</event>
<event>
 4      1 +1.9882500e-09 3.58251000e+03 7.81860800e-03 7.62031900e-02
        2 -1    0    0  501    0 +0.0000000000e+00 +0.0000000000e+00 +2.2242709461e+03 2.2242709461e+03 0.0000000000e+00 0.0000e+00 1.0000e+00
       -2 -1    0    0    0  501 -0.0000000000e+00 -0.0000000000e+00 -1.4425377066e+03 1.4425377066e+03 0.0000000000e+00 0.0000e+00 -1.0000e+00
      -13  1    1    2    0    0 -1.2380374772e+02 +8.5524508071e+02 +1.9968063770e+03 2.1757773837e+03 0.0000000000e+00 0.0000e+00 1.0000e+00
       13  1    1    2    0    0 +1.2380374772e+02 -8.5524508071e+02 -1.2150731375e+03 1.4910312691e+03 0.0000000000e+00 0.0000e+00 -1.0000e+00
<mgrwt>
<rscale>  0 0.35825101E+04</rscale>
<asrwt>0</asrwt>
<pdfrwt beam="1">  1        2 0.34219553E+00 0.35825101E+04</pdfrwt>
<pdfrwt beam="2">  1       -2 0.22192888E+00 0.35825101E+04</pdfrwt>
<totfact> 0.42111388E-01</totfact>
</mgrwt>
<rwgt>
<wgt id='morphing_basis_vector_1'> +6.0533590e-05 </wgt>
<wgt id='morphing_basis_vector_2'> +7.6989279e-05 </wgt>
<wgt id='morphing_basis_vector_3'> +7.4198976e-05 </wgt>
<wgt id='morphing_basis_vector_4'> +1.6158763e-06 </wgt>
<wgt id='morphing_basis_vector_5'> +5.3187098e-05 </wgt>
</rwgt>
</event>
<event>
 4      1 +1.9882500e-09 3.38665100e+03 7.81860800e-03 7.66158700e-02
        2 -1    0    0  501    0 +0.0000000000e+00 +0.0000000000e+00 +2.7074644674e+03 2.7074644674e+03 0.0000000000e+00 0.0000e+00 -1.0000e+00
       -2 -1    0    0    0  501 -0.0000000000e+00 -0.0000000000e+00 -1.0590538571e+03 1.0590538571e+03 0.0000000000e+00 0.0000e+00 1.0000e+00
      -13  1    1    2    0    0 -6.0584074828e+02 +2.8485264183e+02 -9.0562131514e+02 1.1262033592e+03 0.0000000000e+00 0.0000e+00 1.0000e+00
       13  1    1    2    0    0 +6.0584074828e+02 -2.8485264183e+02 +2.5540319254e+03 2.6403149653e+03 0.0000000000e+00 0.0000e+00 -1.0000e+00
<mgrwt>
<rscale>  0 0.33866507E+04</rscale>
<asrwt>0</asrwt>
<pdfrwt beam="1">  1        2 0.41653299E+00 0.33866507E+04</pdfrwt>
<pdfrwt beam="2">  1       -2 0.16293136E+00 0.33866507E+04</pdfrwt>
<totfact> 0.60647563E-01</totfact>
</mgrwt>
<rwgt>
<wgt id='morphing_basis_vector_1'> +3.5690851e-05 </wgt>
<wgt id='morphing_basis_vector_2'> +2.4128373e-05 </wgt>
<wgt id='morphing_basis_vector_3'> +3.9032777e-05 </wgt>
<wgt id='morphing_basis_vector_4'> +2.7991276e-05 </wgt>
<wgt id='morphing_basis_vector_5'> +4.4627921e-05 </wgt>
</rwgt>
</event>
<event>
 4      1 +1.9882500e-09 3.41466500e+03 7.81860800e-03 7.65551100e-02
        2 -1    0    0  501    0 +0.0000000000e+00 +0.0000000000e+00 +1.9636486365e+03 1.9636486365e+03 0.0000000000e+00 0.0000e+00 -1.0000e+00
       -2 -1    0    0    0  501 -0.0000000000e+00 -0.0000000000e+00 -1.4844733352e+03 1.4844733352e+03 0.0000000000e+00 0.0000e+00 1.0000e+00
      -13  1    1    2    0    0 +4.5381621865e+02 -1.5068366435e+03 +9.0825257402e+02 1.8169833705e+03 0.0000000000e+00 0.0000e+00 1.0000e+00
       13  1    1    2    0    0 -4.5381621865e+02 +1.5068366435e+03 -4.2907727270e+02 1.6311386013e+03 0.0000000000e+00 0.0000e+00 -1.0000e+00
<mgrwt>
<rscale>  0 0.34146649E+04</rscale>
<asrwt>0</asrwt>
<pdfrwt beam="1">  1        2 0.30209979E+00 0.34146649E+04</pdfrwt>
<pdfrwt beam="2">  1       -2 0.22838051E+00 0.34146649E+04</pdfrwt>
<totfact> 0.54044342E-01</totfact>
</mgrwt>
<rwgt>
<wgt id='morphing_basis_vector_1'> +4.1814483e-05 </wgt>
<wgt id='morphing_basis_vector_2'> +3.9458463e-05 </wgt>
<wgt id='morphing_basis_vector_3'> +4.8167236e-05 </wgt>
<wgt id='morphing_basis_vector_4'> +1.8572075e-05 </wgt>
<wgt id='morphing_basis_vector_5'> +4.5275627e-05 </wgt>
</rwgt>
</event>
<event>
 4      1 +1.9882500e-09 3.37497200e+03 7.81860800e-03 7.66413700e-02
        2 -1    0    0  501    0 +0.0000000000e+00 +0.0000000000e+00 +1.1974080182e+03 1.1974080182e+03 0.0000000000e+00 0.0000e+00 1.0000e+00
       -2 -1    0    0    0  501 -0.0000000000e+00 -0.0000000000e+00 -2.3781440863e+03 2.3781440863e+03 0.0000000000e+00 0.0000e+00 -1.0000e+00
      -13  1    1    2    0    0 -9.9781837115e+02 +1.3194614549e+03 -2.3741862301e+02 1.6712233948e+03 0.0000000000e+00 0.0000e+00 1.0000e+00
       13  1    1    2    0    0 +9.9781837115e+02 -1.3194614549e+03 -9.4331744503e+02 1.9043287098e+03 0.0000000000e+00 0.0000e+00 -1.0000e+00
<mgrwt>
<rscale>  0 0.33749719E+04</rscale>
<asrwt>0</asrwt>
<pdfrwt beam="1">  1        2 0.18421662E+00 0.33749719E+04</pdfrwt>
<pdfrwt beam="2">  1       -2 0.36586832E+00 0.33749719E+04</pdfrwt>
<totfact> 0.17340413E-01</totfact>
</mgrwt>
<rwgt>
<wgt id='morphing_basis_vector_1'> +3.7769802e-05 </wgt>
<wgt id='morphing_basis_vector_2'> +3.1346136e-05 </wgt>
<wgt id='morphing_basis_vector_3'> +4.2560697e-05 </wgt>
<wgt id='morphing_basis_vector_4'> +2.2222912e-05 </wgt>
<wgt id='morphing_basis_vector_5'> +4.3566060e-05 </wgt>
</rwgt>
</event>
<event>
 4      1 +1.9882500e-09 3.25940800e+03 7.81860800e-03 7.68996600e-02
        2 -1    0    0  501    0 +0.0000000000e+00 +0.0000000000e+00 +1.3803739882e+03 1.3803739882e+03 0.0000000000e+00 0.0000e+00 -1.0000e+00
       -2 -1    0    0    0  501 -0.0000000000e+00 -0.0000000000e+00 -1.9240694509e+03 1.9240694509e+03 0.0000000000e+00 0.0000e+00 1.0000e+00
      -13  1    1    2    0    0 +6.1575613496e+02 +6.5161452914e+02 -1.6515995284e+03 1.8792387061e+03 0.0000000000e+00 0.0000e+00 1.0000e+00
       13  1    1    2    0    0 -6.1575613496e+02 -6.5161452914e+02 +1.1079040657e+03 1.4252047330e+03 0.0000000000e+00 0.0000e+00 -1.0000e+00
<mgrwt>
<rscale>  0 0.32594082E+04</rscale>
<asrwt>0</asrwt>
<pdfrwt beam="1">  1        2 0.21236523E+00 0.32594082E+04</pdfrwt>
<pdfrwt beam="2">  1       -2 0.29601068E+00 0.32594082E+04</pdfrwt>
<totfact> 0.39725483E-01</totfact>
</mgrwt>
<rwgt>
<wgt id='morphing_basis_vector_1'> +3.0664407e-05 </wgt>
<wgt id='morphing_basis_vector_2'> +2.0733944e-05 </wgt>
<wgt id='morphing_basis_vector_3'> +3.3504130e-05 </wgt>
<wgt id='morphing_basis_vector_4'> +2.3973489e-05 </wgt>
<wgt id='morphing_basis_vector_5'> +3.8245891e-05 </wgt>
</rwgt>
</event>
<event>
 4      1 +1.9882500e-09 3.24584500e+03 7.81860800e-03 7.69307000e-02
        2 -1    0    0  501    0 +0.0000000000e+00 +0.0000000000e+00 +1.9866286909e+03 1.9866286909e+03 0.0000000000e+00 0.0000e+00 1.0000e+00
       -2 -1    0    0    0  501 -0.0000000000e+00 -0.0000000000e+00 -1.3258028618e+03 1.3258028618e+03 0.0000000000e+00 0.0000e+00 -1.0000e+00
      -13  1    1    2    0    0 +4.4636066809e+02 -1.2305223507e+03 +1.3094978017e+03 1.8515419505e+03 0.0000000000e+00 0.0000e+00 1.0000e+00
       13  1    1    2    0    0 -4.4636066809e+02 +1.2305223507e+03 -6.4867197268e+02 1.4608896022e+03 0.0000000000e+00 0.0000e+00 -1.0000e+00
<mgrwt>
<rscale>  0 0.32458453E+04</rscale>
<asrwt>0</asrwt>
<pdfrwt beam="1">  1        2 0.30563518E+00 0.32458453E+04</pdfrwt>
<pdfrwt beam="2">  1       -2 0.20396967E+00 0.32458453E+04</pdfrwt>
<totfact> 0.79457157E-01</totfact>
</mgrwt>
<rwgt>
<wgt id='morphing_basis_vector_1'> +3.7136882e-05 </wgt>
<wgt id='morphing_basis_vector_2'> +4.0923392e-05 </wgt>
<wgt id='morphing_basis_vector_3'> +4.3959653e-05 </wgt>
<wgt id='morphing_basis_vector_4'> +8.9732649e-06 </wgt>
<wgt id='morphing_basis_vector_5'> +3.6403078e-05 </wgt>
</rwgt>
</event>
<event>
 4      1 +1.9882500e-09 3.83149100e+03 7.81860800e-03 7.57160100e-02
        2 -1    0    0  501    0 +0.0000000000e+00 +0.0000000000e+00 +2.4620705309e+03 2.4620705309e+03 0.0000000000e+00 0.0000e+00 -1.0000e+00
       -2 -1    0    0    0  501 -0.0000000000e+00 -0.0000000000e+00 -1.4906480423e+03 1.4906480423e+03 0.0000000000e+00 0.0000e+00 1.0000e+00
      -13  1    1    2    0    0 +8.0579551368e+02 -9.9446403977e+02 -9.8480636398e+02 1.6149639967e+03 0.0000000000e+00 0.0000e+00 1.0000e+00
       13  1    1    2    0    0 -8.0579551368e+02 +9.9446403977e+02 +1.9562288525e+03 2.3377545764e+03 0.0000000000e+00 0.0000e+00 -1.0000e+00
<mgrwt>
<rscale>  0 0.38314909E+04</rscale>
<asrwt>0</asrwt>
<pdfrwt beam="1">  1        2 0.37878008E+00 0.38314909E+04</pdfrwt>
<pdfrwt beam="2">  1       -2 0.22933047E+00 0.38314909E+04</pdfrwt>
<totfact> 0.26574211E-01</totfact>
</mgrwt>
<rwgt>
<wgt id='morphing_basis_vector_1'> +5.8336234e-05 </wgt>
<wgt id='morphing_basis_vector_2'> +3.9617714e-05 </wgt>
<wgt id='morphing_basis_vector_3'> +6.4007761e-05 </wgt>
<wgt id='morphing_basis_vector_4'> +4.5894702e-05 </wgt>
<wgt id='morphing_basis_vector_5'> +7.3327145e-05 </wgt>
</rwgt>
</event>
<event>
 4      1 +1.9882500e-09 3.81653200e+03 7.81860800e-03 7.57441900e-02
        2 -1    0    0  501    0 +0.0000000000e+00 +0.0000000000e+00 +2.3924290157e+03 2.3924290157e+03 0.0000000000e+00 0.0000e+00 -1.0000e+00
       -2 -1    0    0    0  501 -0.0000000000e+00 -0.0000000000e+00 -1.5220846679e+03 1.5220846679e+03 0.0000000000e+00 0.0000e+00 1.0000e+00
      -13  1    1    2    0    0 +1.4801642876e+03 +6.2742918620e+02 -6.1929032222e+02 1.7228099736e+03 0.0000000000e+00 0.0000e+00 1.0000e+00
       13  1    1    2    0    0 -1.4801642876e+03 -6.2742918620e+02 +1.4896346701e+03 2.1917037100e+03 0.0000000000e+00 0.0000e+00 -1.0000e+00
<mgrwt>
<rscale>  0 0.38165322E+04</rscale>
<asrwt>0</asrwt>
<pdfrwt beam="1">  1        2 0.36806600E+00 0.38165322E+04</pdfrwt>
<pdfrwt beam="2">  1       -2 0.23416687E+00 0.38165322E+04</pdfrwt>
<totfact> 0.27053439E-01</totfact>
</mgrwt>
<rwgt>
<wgt id='morphing_basis_vector_1'> +5.7593685e-05 </wgt>
<wgt id='morphing_basis_vector_2'> +3.9468846e-05 </wgt>
<wgt id='morphing_basis_vector_3'> +6.3267269e-05 </wgt>
<wgt id='morphing_basis_vector_4'> +4.4844667e-05 </wgt>
<wgt id='morphing_basis_vector_5'> +7.2154820e-05 </wgt>
</rwgt>
</event>
<event>
 4      1 +1.9882500e-09 3.39748400e+03 7.81860800e-03 7.65923000e-02
        2 -1    0    0  501    0 +0.0000000000e+00 +0.0000000000e+00 +2.0873829719e+03 2.0873829719e+03 0.0000000000e+00 0.0000e+00 -1.0000e+00
       -2 -1    0    0    0  501 -0.0000000000e+00 -0.0000000000e+00 -1.3824604411e+03 1.3824604411e+03 0.0000000000e+00 0.0000e+00 1.0000e+00
      -13  1    1    2    0    0 +5.8128569911e+02 -1.1582998189e+03 -7.6918839807e+02 1.5070508705e+03 0.0000000000e+00 0.0000e+00 1.0000e+00
       13  1    1    2    0    0 -5.8128569911e+02 +1.1582998189e+03 +1.4741109288e+03 1.9627925425e+03 0.0000000000e+00 0.0000e+00 -1.0000e+00
<mgrwt>
<rscale>  0 0.33974840E+04</rscale>
<asrwt>0</asrwt>
<pdfrwt beam="1">  1        2 0.32113584E+00 0.33974840E+04</pdfrwt>
<pdfrwt beam="2">  1       -2 0.21268622E+00 0.33974840E+04</pdfrwt>
<totfact> 0.59554381E-01</totfact>
</mgrwt>
<rwgt>
<wgt id='morphing_basis_vector_1'> +3.6211402e-05 </wgt>
<wgt id='morphing_basis_vector_2'> +2.4628842e-05 </wgt>
<wgt id='morphing_basis_vector_3'> +3.9637324e-05 </wgt>
<wgt id='morphing_basis_vector_4'> +2.8217258e-05 </wgt>
<wgt id='morphing_basis_vector_5'> +4.5194408e-05 </wgt>
</rwgt>
</event>
<event>
 4      1 +1.9882500e-09 3.57593800e+03 7.81860800e-03 7.62165900e-02
        2 -1    0    0  501    0 +0.0000000000e+00 +0.0000000000e+00 +2.3164305867e+03 2.3164305867e+03 0.0000000000e+00 0.0000e+00 -1.0000e+00
       -2 -1    0    0    0  501 -0.0000000000e+00 -0.0000000000e+00 -1.3800686973e+03 1.3800686973e+03 0.0000000000e+00 0.0000e+00 1.0000e+00
      -13  1    1    2    0    0 +2.5287736479e+02 -5.9763379464e+02 -1.2540384584e+03 1.4119934736e+03 0.0000000000e+00 0.0000e+00 1.0000e+00
       13  1    1    2    0    0 -2.5287736479e+02 +5.9763379464e+02 +2.1904003479e+03 2.2845058105e+03 0.0000000000e+00 0.0000e+00 -1.0000e+00
<mgrwt>
<rscale>  0 0.35759381E+04</rscale>
<asrwt>0</asrwt>
<pdfrwt beam="1">  1        2 0.35637394E+00 0.35759381E+04</pdfrwt>
<pdfrwt beam="2">  1       -2 0.21231826E+00 0.35759381E+04</pdfrwt>
<totfact> 0.43625484E-01</totfact>
</mgrwt>
<rwgt>
<wgt id='morphing_basis_vector_1'> +4.4298219e-05 </wgt>
<wgt id='morphing_basis_vector_2'> +2.9971508e-05 </wgt>
<wgt id='morphing_basis_vector_3'> +4.8511912e-05 </wgt>
<wgt id='morphing_basis_vector_4'> +3.4844407e-05 </wgt>
<wgt id='morphing_basis_vector_5'> +5.5552980e-05 </wgt>
</rwgt>
</event>
<event>
 4      1 +1.9882500e-09 3.22158800e+03 7.81860800e-03 7.69866000e-02
        2 -1    0    0  501    0 +0.0000000000e+00 +0.0000000000e+00 +2.1128836593e+03 2.1128836593e+03 0.0000000000e+00 0.0000e+00 -1.0000e+00
       -2 -1    0    0    0  501 -0.0000000000e+00 -0.0000000000e+00 -1.2280174111e+03 1.2280174111e+03 0.0000000000e+00 0.0000e+00 1.0000e+00
      -13  1    1    2    0    0 -1.2866615470e+03 +3.8083678653e+02 -4.8170639473e+02 1.4256842726e+03 0.0000000000e+00 0.0000e+00 1.0000e+00
       13  1    1    2    0    0 +1.2866615470e+03 -3.8083678653e+02 +1.3665726429e+03 1.9152167979e+03 0.0000000000e+00 0.0000e+00 -1.0000e+00
<mgrwt>
<rscale>  0 0.32215884E+04</rscale>
<asrwt>0</asrwt>
<pdfrwt beam="1">  1        2 0.32505902E+00 0.32215884E+04</pdfrwt>
<pdfrwt beam="2">  1       -2 0.18892576E+00 0.32215884E+04</pdfrwt>
<totfact> 0.87153794E-01</totfact>
</mgrwt>
<rwgt>
<wgt id='morphing_basis_vector_1'> +2.9364639e-05 </wgt>
<wgt id='morphing_basis_vector_2'> +2.0050842e-05 </wgt>
<wgt id='morphing_basis_vector_3'> +3.2115935e-05 </wgt>
<wgt id='morphing_basis_vector_4'> +2.2687530e-05 </wgt>
<wgt id='morphing_basis_vector_5'> +3.6473283e-05 </wgt>
</rwgt>
</event>
<event>
 4      1 +1.9882500e-09 3.53787200e+03 7.81860800e-03 7.62948200e-02
        2 -1    0    0  501    0 +0.0000000000e+00 +0.0000000000e+00 +1.9352260289e+03 1.9352260289e+03 0.0000000000e+00 0.0000e+00 1.0000e+00
       -2 -1    0    0    0  501 -0.0000000000e+00 -0.0000000000e+00 -1.6169348384e+03 1.6169348384e+03 0.0000000000e+00 0.0000e+00 -1.0000e+00
      -13  1    1    2    0    0 +8.9689745198e+02 +1.5024596870e+03 -1.0137150746e+02 1.7527368122e+03 0.0000000000e+00 0.0000e+00 -1.0000e+00
       13  1    1    2    0    0 -8.9689745198e+02 -1.5024596870e+03 +4.1966269797e+02 1.7994240552e+03 0.0000000000e+00 0.0000e+00 1.0000e+00
<mgrwt>
<rscale>  0 0.35378719E+04</rscale>
<asrwt>0</asrwt>
<pdfrwt beam="1">  1        2 0.29772708E+00 0.35378719E+04</pdfrwt>
<pdfrwt beam="2">  1       -2 0.24875921E+00 0.35378719E+04</pdfrwt>
<totfact> 0.40011918E-01</totfact>
</mgrwt>
<rwgt>
<wgt id='morphing_basis_vector_1'> +4.3355720e-05 </wgt>
<wgt id='morphing_basis_vector_2'> +3.1372094e-05 </wgt>
<wgt id='morphing_basis_vector_3'> +4.7914524e-05 </wgt>
<wgt id='morphing_basis_vector_4'> +3.1478162e-05 </wgt>
<wgt id='morphing_basis_vector_5'> +5.3053386e-05 </wgt>
</rwgt>
</event>
<event>
 4      1 +1.9882500e-09 3.80533800e+03 7.81860800e-03 7.57653700e-02
        2 -1    0    0  501    0 +0.0000000000e+00 +0.0000000000e+00 +2.4946491496e+03 2.4946491496e+03 0.0000000000e+00 0.0000e+00 1.0000e+00
       -2 -1    0    0    0  501 -0.0000000000e+00 -0.0000000000e+00 -1.4511656803e+03 1.4511656803e+03 0.0000000000e+00 0.0000e+00 -1.0000e+00
      -13  1    1    2    0    0 -5.5864142880e+02 -1.3658302896e+03 -7.2366987716e+02 1.6435542939e+03 0.0000000000e+00 0.0000e+00 -1.0000e+00
       13  1    1    2    0    0 +5.5864142880e+02 +1.3658302896e+03 +1.7671533465e+03 2.3022605360e+03 0.0000000000e+00 0.0000e+00 1.0000e+00
<mgrwt>
<rscale>  0 0.38053380E+04</rscale>
<asrwt>0</asrwt>
<pdfrwt beam="1">  1        2 0.38379218E+00 0.38053380E+04</pdfrwt>
<pdfrwt beam="2">  1       -2 0.22325626E+00 0.38053380E+04</pdfrwt>
<totfact> 0.28109251E-01</totfact>
</mgrwt>
<rwgt>
<wgt id='morphing_basis_vector_1'> +5.6836349e-05 </wgt>
<wgt id='morphing_basis_vector_2'> +3.8749062e-05 </wgt>
<wgt id='morphing_basis_vector_3'> +6.2387182e-05 </wgt>
<wgt id='morphing_basis_vector_4'> +4.4504580e-05 </wgt>
<wgt id='morphing_basis_vector_5'> +7.1322919e-05 </wgt>
</rwgt>
</event>
<event>
 4      1 +1.9882500e-09 3.47204300e+03 7.81860800e-03 7.64325100e-02
        2 -1    0    0  501    0 +0.0000000000e+00 +0.0000000000e+00 +3.2901054184e+03 3.2901054184e+03 0.0000000000e+00 0.0000e+00 -1.0000e+00
       -2 -1    0    0    0  501 -0.0000000000e+00 -0.0000000000e+00 -9.1601025317e+02 9.1601025317e+02 0.0000000000e+00 0.0000e+00 1.0000e+00
      -13  1    1    2    0    0 +1.6180804170e+03 +4.7719498304e+02 +6.9070219168e+02 1.8229012056e+03 0.0000000000e+00 0.0000e+00 1.0000e+00
       13  1    1    2    0    0 -1.6180804170e+03 -4.7719498304e+02 +1.6833929735e+03 2.3832144660e+03 0.0000000000e+00 0.0000e+00 -1.0000e+00
<mgrwt>
<rscale>  0 0.34720428E+04</rscale>
<asrwt>0</asrwt>
<pdfrwt beam="1">  1        2 0.50617006E+00 0.34720428E+04</pdfrwt>
<pdfrwt beam="2">  1       -2 0.14092466E+00 0.34720428E+04</pdfrwt>
<totfact> 0.38038381E-01</totfact>
</mgrwt>
<rwgt>
<wgt id='morphing_basis_vector_1'> +3.9988160e-05 </wgt>
<wgt id='morphing_basis_vector_2'> +2.8373529e-05 </wgt>
<wgt id='morphing_basis_vector_3'> +4.4050134e-05 </wgt>
<wgt id='morphing_basis_vector_4'> +2.9710925e-05 </wgt>
<wgt id='morphing_basis_vector_5'> +4.9233246e-05 </wgt>
</rwgt>
</event>
<event>
 4      1 +1.9882500e-09 3.21597900e+03 7.81860800e-03 7.69996000e-02
        2 -1    0    0  501    0 +0.0000000000e+00 +0.0000000000e+00 +2.3335225852e+03 2.3335225852e+03 0.0000000000e+00 0.0000e+00 -1.0000e+00
       -2 -1    0    0    0  501 -0.0000000000e+00 -0.0000000000e+00 -1.1080376054e+03 1.1080376054e+03 0.0000000000e+00 0.0000e+00 1.0000e+00
      -13  1    1    2    0    0 -1.3064395761e+03 -1.4431302535e+02 -3.7852500694e+02 1.3678054672e+03 0.0000000000e+00 0.0000e+00 1.0000e+00
       13  1    1    2    0    0 +1.3064395761e+03 +1.4431302535e+02 +1.6040099868e+03 2.0737547234e+03 0.0000000000e+00 0.0000e+00 -1.0000e+00
<mgrwt>
<rscale>  0 0.32159793E+04</rscale>
<asrwt>0</asrwt>
<pdfrwt beam="1">  1        2 0.35900347E+00 0.32159793E+04</pdfrwt>
<pdfrwt beam="2">  1       -2 0.17046732E+00 0.32159793E+04</pdfrwt>
<totfact> 0.89953628E-01</totfact>
</mgrwt>
<rwgt>
<wgt id='morphing_basis_vector_1'> +2.9150172e-05 </wgt>
<wgt id='morphing_basis_vector_2'> +1.9876400e-05 </wgt>
<wgt id='morphing_basis_vector_3'> +3.1873880e-05 </wgt>
<wgt id='morphing_basis_vector_4'> +2.2554075e-05 </wgt>
<wgt id='morphing_basis_vector_5'> +3.6220084e-05 </wgt>
</rwgt>
</event>
<event>
 4      1 +1.9882500e-09 3.45213100e+03 7.81860800e-03 7.64747800e-02
        2 -1    0    0  501    0 +0.0000000000e+00 +0.0000000000e+00 +1.6676547864e+03 1.6676547864e+03 0.0000000000e+00 0.0000e+00 -1.0000e+00
       -2 -1    0    0    0  501 -0.0000000000e+00 -0.0000000000e+00 -1.7865219856e+03 1.7865219856e+03 0.0000000000e+00 0.0000e+00 1.0000e+00
      -13  1    1    2    0    0 +1.3798336649e+03 -8.5260649263e+02 +5.3119002646e+02 1.7067634922e+03 0.0000000000e+00 0.0000e+00 1.0000e+00
       13  1    1    2    0    0 -1.3798336649e+03 +8.5260649263e+02 -6.5005722567e+02 1.7474132799e+03 0.0000000000e+00 0.0000e+00 -1.0000e+00
<mgrwt>
<rscale>  0 0.34521309E+04</rscale>
<asrwt>0</asrwt>
<pdfrwt beam="1">  1        2 0.25656228E+00 0.34521309E+04</pdfrwt>
<pdfrwt beam="2">  1       -2 0.27484953E+00 0.34521309E+04</pdfrwt>
<totfact> 0.37598561E-01</totfact>
</mgrwt>
<rwgt>
<wgt id='morphing_basis_vector_1'> +4.2991877e-05 </wgt>
<wgt id='morphing_basis_vector_2'> +3.9224376e-05 </wgt>
<wgt id='morphing_basis_vector_3'> +4.9249359e-05 </wgt>
<wgt id='morphing_basis_vector_4'> +2.0823942e-05 </wgt>
<wgt id='morphing_basis_vector_5'> +4.7426532e-05 </wgt>
</rwgt>
</event>
<event>
 4      1 +1.9882500e-09 3.41641500e+03 7.81860800e-03 7.65513300e-02
        2 -1    0    0  501    0 +0.0000000000e+00 +0.0000000000e+00 +1.8787660550e+03 1.8787660550e+03 0.0000000000e+00 0.0000e+00 1.0000e+00
       -2 -1    0    0    0  501 -0.0000000000e+00 -0.0000000000e+00 -1.5531322235e+03 1.5531322235e+03 0.0000000000e+00 0.0000e+00 -1.0000e+00
      -13  1    1    2    0    0 -1.1462971056e+03 -4.9861019522e+01 -1.1084180022e+03 1.5953286944e+03 0.0000000000e+00 0.0000e+00 -1.0000e+00
       13  1    1    2    0    0 +1.1462971056e+03 +4.9861019522e+01 +1.4340518337e+03 1.8365695841e+03 0.0000000000e+00 0.0000e+00 1.0000e+00
<mgrwt>
<rscale>  0 0.34164146E+04</rscale>
<asrwt>0</asrwt>
<pdfrwt beam="1">  1        2 0.28904093E+00 0.34164146E+04</pdfrwt>
<pdfrwt beam="2">  1       -2 0.23894342E+00 0.34164146E+04</pdfrwt>
<totfact> 0.50851295E-01</totfact>
</mgrwt>
<rwgt>
<wgt id='morphing_basis_vector_1'> +3.6983639e-05 </wgt>
<wgt id='morphing_basis_vector_2'> +2.5075436e-05 </wgt>
<wgt id='morphing_basis_vector_3'> +4.0470979e-05 </wgt>
<wgt id='morphing_basis_vector_4'> +2.8930877e-05 </wgt>
<wgt id='morphing_basis_vector_5'> +4.6223399e-05 </wgt>
</rwgt>
</event>
<event>
 4      1 +1.9882500e-09 3.56469700e+03 7.81860800e-03 7.62395900e-02
        2 -1    0    0  501    0 +0.0000000000e+00 +0.0000000000e+00 +2.4232540536e+03 2.4232540536e+03 0.0000000000e+00 0.0000e+00 1.0000e+00
       -2 -1    0    0    0  501 -0.0000000000e+00 -0.0000000000e+00 -1.3109508903e+03 1.3109508903e+03 0.0000000000e+00 0.0000e+00 -1.0000e+00
      -13  1    1    2    0    0 +1.7583059682e+03 -2.6920974172e+02 +6.7398739419e+02 1.9022020846e+03 0.0000000000e+00 0.0000e+00 -1.0000e+00
       13  1    1    2    0    0 -1.7583059682e+03 +2.6920974172e+02 +4.3831576919e+02 1.8320028593e+03 0.0000000000e+00 0.0000e+00 1.0000e+00
<mgrwt>
<rscale>  0 0.35646975E+04</rscale>
<asrwt>0</asrwt>
<pdfrwt beam="1">  1        2 0.37280832E+00 0.35646975E+04</pdfrwt>
<pdfrwt beam="2">  1       -2 0.20168475E+00 0.35646975E+04</pdfrwt>
<totfact> 0.45120700E-01</totfact>
</mgrwt>
<rwgt>
<wgt id='morphing_basis_vector_1'> +4.5758488e-05 </wgt>
<wgt id='morphing_basis_vector_2'> +3.5512634e-05 </wgt>
<wgt id='morphing_basis_vector_3'> +5.1105407e-05 </wgt>
<wgt id='morphing_basis_vector_4'> +3.0174124e-05 </wgt>
<wgt id='morphing_basis_vector_5'> +5.4502495e-05 </wgt>
</rwgt>
</event>
<event>
 4      1 +1.9882500e-09 3.45372900e+03 7.81860800e-03 7.64713700e-02
        2 -1    0    0  501    0 +0.0000000000e+00 +0.0000000000e+00 +2.3853627603e+03 2.3853627603e+03 0.0000000000e+00 0.0000e+00 -1.0000e+00
       -2 -1    0    0    0  501 -0.0000000000e+00 -0.0000000000e+00 -1.2501495620e+03 1.2501495620e+03 0.0000000000e+00 0.0000e+00 1.0000e+00
      -13  1    1    2    0    0 -1.8646895573e+02 +1.3145925577e+03 -5.9465393100e+02 1.4548324858e+03 0.0000000000e+00 0.0000e+00 1.0000e+00
       13  1    1    2    0    0 +1.8646895573e+02 -1.3145925577e+03 +1.7298671293e+03 2.1806798364e+03 0.0000000000e+00 0.0000e+00 -1.0000e+00
<mgrwt>
<rscale>  0 0.34537285E+04</rscale>
<asrwt>0</asrwt>
<pdfrwt beam="1">  1        2 0.36697889E+00 0.34537285E+04</pdfrwt>
<pdfrwt beam="2">  1       -2 0.19233070E+00 0.34537285E+04</pdfrwt>
<totfact> 0.56148539E-01</totfact>
</mgrwt>
<rwgt>
<wgt id='morphing_basis_vector_1'> +3.8655354e-05 </wgt>
<wgt id='morphing_basis_vector_2'> +2.6306327e-05 </wgt>
<wgt id='morphing_basis_vector_3'> +4.2332388e-05 </wgt>
<wgt id='morphing_basis_vector_4'> +3.0138262e-05 </wgt>
<wgt id='morphing_basis_vector_5'> +4.8283147e-05 </wgt>
</rwgt>
</event>
<event>
 4      1 +1.9882500e-09 3.25483800e+03 7.81860800e-03 7.69101000e-02
        2 -1    0    0  501    0 +0.0000000000e+00 +0.0000000000e+00 +3.3499339657e+03 3.3499339657e+03 0.0000000000e+00 0.0000e+00 -1.0000e+00
       -2 -1    0    0    0  501 -0.0000000000e+00 -0.0000000000e+00 -7.9061061130e+02 7.9061061130e+02 0.0000000000e+00 0.0000e+00 1.0000e+00
      -13  1    1    2    0    0 +1.8215929109e+02 +8.3292868940e+02 -4.8374657533e+02 9.8028718145e+02 0.0000000000e+00 0.0000e+00 1.0000e+00
       13  1    1    2    0    0 -1.8215929109e+02 -8.3292868940e+02 +3.0430699298e+03 3.1602573956e+03 0.0000000000e+00 0.0000e+00 -1.0000e+00
<mgrwt>
<rscale>  0 0.32548385E+04</rscale>
<asrwt>0</asrwt>
<pdfrwt beam="1">  1        2 0.51537445E+00 0.32548385E+04</pdfrwt>
<pdfrwt beam="2">  1       -2 0.12163240E+00 0.32548385E+04</pdfrwt>
<totfact> 0.52272961E-01</totfact>
</mgrwt>
<rwgt>
<wgt id='morphing_basis_vector_1'> +3.0492049e-05 </wgt>
<wgt id='morphing_basis_vector_2'> +2.0612172e-05 </wgt>
<wgt id='morphing_basis_vector_3'> +3.3313464e-05 </wgt>
<wgt id='morphing_basis_vector_4'> +2.3842685e-05 </wgt>
<wgt id='morphing_basis_vector_5'> +3.8030613e-05 </wgt>
</rwgt>
</event>
<event>
 4      1 +1.9882500e-09 3.24804300e+03 7.81860800e-03 7.69256600e-02
        2 -1    0    0  501    0 +0.0000000000e+00 +0.0000000000e+00 +2.9075210266e+03 2.9075210266e+03 0.0000000000e+00 0.0000e+00 -1.0000e+00
       -2 -1    0    0    0  501 -0.0000000000e+00 -0.0000000000e+00 -9.0711162652e+02 9.0711162652e+02 0.0000000000e+00 0.0000e+00 1.0000e+00
      -13  1    1    2    0    0 +9.8483517759e+02 -1.2847435199e+03 +1.1532423711e+03 1.9875699246e+03 0.0000000000e+00 0.0000e+00 1.0000e+00
       13  1    1    2    0    0 -9.8483517759e+02 +1.2847435199e+03 +8.4716702899e+02 1.8270627285e+03 0.0000000000e+00 0.0000e+00 -1.0000e+00
<mgrwt>
<rscale>  0 0.32480432E+04</rscale>
<asrwt>0</asrwt>
<pdfrwt beam="1">  1        2 0.44731092E+00 0.32480432E+04</pdfrwt>
<pdfrwt beam="2">  1       -2 0.13955564E+00 0.32480432E+04</pdfrwt>
<totfact> 0.71592235E-01</totfact>
</mgrwt>
<rwgt>
<wgt id='morphing_basis_vector_1'> +3.1709056e-05 </wgt>
<wgt id='morphing_basis_vector_2'> +2.4764369e-05 </wgt>
<wgt id='morphing_basis_vector_3'> +3.5354687e-05 </wgt>
<wgt id='morphing_basis_vector_4'> +2.0568133e-05 </wgt>
<wgt id='morphing_basis_vector_5'> +3.7457784e-05 </wgt>
</rwgt>
</event>
<event>
 4      1 +1.9882500e-09 3.21224600e+03 7.81860800e-03 7.70082600e-02
        2 -1    0    0  501    0 +0.0000000000e+00 +0.0000000000e+00 +1.1548077345e+03 1.1548077345e+03 0.0000000000e+00 0.0000e+00 -1.0000e+00
       -2 -1    0    0    0  501 -0.0000000000e+00 -0.0000000000e+00 -2.2338181321e+03 2.2338181321e+03 0.0000000000e+00 0.0000e+00 1.0000e+00
      -13  1    1    2    0    0 -2.5304821695e+02 -1.2573521929e+03 +4.8035887137e+02 1.3695665674e+03 0.0000000000e+00 0.0000e+00 1.0000e+00
       13  1    1    2    0    0 +2.5304821695e+02 +1.2573521929e+03 -1.5593692689e+03 2.0190592993e+03 0.0000000000e+00 0.0000e+00 -1.0000e+00
<mgrwt>
<rscale>  0 0.32122456E+04</rscale>
<asrwt>0</asrwt>
<pdfrwt beam="1">  1        2 0.17766273E+00 0.32122456E+04</pdfrwt>
<pdfrwt beam="2">  1       -2 0.34366432E+00 0.32122456E+04</pdfrwt>
<totfact> 0.25913643E-01</totfact>
</mgrwt>
<rwgt>
<wgt id='morphing_basis_vector_1'> +3.5801017e-05 </wgt>
<wgt id='morphing_basis_vector_2'> +3.9755668e-05 </wgt>
<wgt id='morphing_basis_vector_3'> +4.2423420e-05 </wgt>
<wgt id='morphing_basis_vector_4'> +8.2566910e-06 </wgt>
<wgt id='morphing_basis_vector_5'> +3.4879817e-05 </wgt>
</rwgt>
</event>
<event>
 4      1 +1.9882500e-09 3.41088700e+03 7.81860800e-03 7.65632700e-02
        2 -1    0    0  501    0 +0.0000000000e+00 +0.0000000000e+00 +3.1408517344e+03 3.1408517344e+03 0.0000000000e+00 0.0000e+00 1.0000e+00
       -2 -1    0    0    0  501 -0.0000000000e+00 -0.0000000000e+00 -9.2603448100e+02 9.2603448100e+02 0.0000000000e+00 0.0000e+00 -1.0000e+00
      -13  1    1    2    0    0 -8.6690148080e+02 +5.9228655657e+02 -4.9502299742e+02 1.1607623833e+03 0.0000000000e+00 0.0000e+00 -1.0000e+00
       13  1    1    2    0    0 +8.6690148080e+02 -5.9228655657e+02 +2.7098402509e+03 2.9061238321e+03 0.0000000000e+00 0.0000e+00 1.0000e+00
<mgrwt>
<rscale>  0 0.34108867E+04</rscale>
<asrwt>0</asrwt>
<pdfrwt beam="1">  1        2 0.48320795E+00 0.34108867E+04</pdfrwt>
<pdfrwt beam="2">  1       -2 0.14246685E+00 0.34108867E+04</pdfrwt>
<totfact> 0.46904091E-01</totfact>
</mgrwt>
<rwgt>
<wgt id='morphing_basis_vector_1'> +3.6734428e-05 </wgt>
<wgt id='morphing_basis_vector_2'> +2.4878391e-05 </wgt>
<wgt id='morphing_basis_vector_3'> +4.0190620e-05 </wgt>
<wgt id='morphing_basis_vector_4'> +2.8768249e-05 </wgt>
<wgt id='morphing_basis_vector_5'> +4.5925032e-05 </wgt>
</rwgt>
</event>
<event>
 4      1 +1.9882500e-09 3.45513700e+03 7.81860800e-03 7.64683800e-02
        2 -1    0    0  501    0 +0.0000000000e+00 +0.0000000000e+00 +1.6230272159e+03 1.6230272159e+03 0.0000000000e+00 0.0000e+00 -1.0000e+00
       -2 -1    0    0    0  501 -0.0000000000e+00 -0.0000000000e+00 -1.8388434484e+03 1.8388434484e+03 0.0000000000e+00 0.0000e+00 1.0000e+00
      -13  1    1    2    0    0 +9.9953148695e+02 -1.2344582311e+03 +5.7278519097e+02 1.6885002792e+03 0.0000000000e+00 0.0000e+00 1.0000e+00
       13  1    1    2    0    0 -9.9953148695e+02 +1.2344582311e+03 -7.8860142343e+02 1.7733703851e+03 0.0000000000e+00 0.0000e+00 -1.0000e+00
<mgrwt>
<rscale>  0 0.34551370E+04</rscale>
<asrwt>0</asrwt>
<pdfrwt beam="1">  1        2 0.24969650E+00 0.34551370E+04</pdfrwt>
<pdfrwt beam="2">  1       -2 0.28289899E+00 0.34551370E+04</pdfrwt>
<totfact> 0.35082050E-01</totfact>
</mgrwt>
<rwgt>
<wgt id='morphing_basis_vector_1'> +4.3903059e-05 </wgt>
<wgt id='morphing_basis_vector_2'> +4.1603060e-05 </wgt>
<wgt id='morphing_basis_vector_3'> +5.0631313e-05 </wgt>
<wgt id='morphing_basis_vector_4'> +1.9295771e-05 </wgt>
<wgt id='morphing_basis_vector_5'> +4.7460400e-05 </wgt>
</rwgt>
</event>
<event>
 4      1 +1.9882500e-09 3.37386400e+03 7.81860800e-03 7.66438000e-02
        2 -1    0    0  501    0 +0.0000000000e+00 +0.0000000000e+00 +1.4911460272e+03 1.4911460272e+03 0.0000000000e+00 0.0000e+00 -1.0000e+00
       -2 -1    0    0    0  501 -0.0000000000e+00 -0.0000000000e+00 -1.9084246859e+03 1.9084246859e+03 0.0000000000e+00 0.0000e+00 1.0000e+00
      -13  1    1    2    0    0 +4.2894008264e+02 -3.9472023997e+02 -1.8037189140e+03 1.8955726267e+03 0.0000000000e+00 0.0000e+00 1.0000e+00
       13  1    1    2    0    0 -4.2894008264e+02 +3.9472023997e+02 +1.3864402553e+03 1.5039980864e+03 0.0000000000e+00 0.0000e+00 -1.0000e+00
<mgrwt>
<rscale>  0 0.33738642E+04</rscale>
<asrwt>0</asrwt>
<pdfrwt beam="1">  1        2 0.22940708E+00 0.33738642E+04</pdfrwt>
<pdfrwt beam="2">  1       -2 0.29360380E+00 0.33738642E+04</pdfrwt>
<totfact> 0.35392734E-01</totfact>
</mgrwt>
<rwgt>
<wgt id='morphing_basis_vector_1'> +3.5157558e-05 </wgt>
<wgt id='morphing_basis_vector_2'> +2.3763722e-05 </wgt>
<wgt id='morphing_basis_vector_3'> +3.8445119e-05 </wgt>
<wgt id='morphing_basis_vector_4'> +2.7570488e-05 </wgt>
<wgt id='morphing_basis_vector_5'> +4.3953313e-05 </wgt>
</rwgt>
</event>
<event>
 4      1 +1.9882500e-09 3.26425100e+03 7.81860800e-03 7.68886200e-02
        2 -1    0    0  501    0 +0.0000000000e+00 +0.0000000000e+00 +2.4570480731e+03 2.4570480731e+03 0.0000000000e+00 0.0000e+00 1.0000e+00
       -2 -1    0    0    0  501 -0.0000000000e+00 -0.0000000000e+00 -1.0841599670e+03 1.0841599670e+03 0.0000000000e+00 0.0000e+00 -1.0000e+00
      -13  1    1    2    0    0 -8.4119648778e+02 -1.2067964396e+03 +1.4534413919e+03 2.0679606034e+03 0.0000000000e+00 0.0000e+00 -1.0000e+00
       13  1    1    2    0    0 +8.4119648778e+02 +1.2067964396e+03 -8.0553285829e+01 1.4732474367e+03 0.0000000000e+00 0.0000e+00 1.0000e+00
<mgrwt>
<rscale>  0 0.32642507E+04</rscale>
<asrwt>0</asrwt>
<pdfrwt beam="1">  1        2 0.37800739E+00 0.32642507E+04</pdfrwt>
<pdfrwt beam="2">  1       -2 0.16679384E+00 0.32642507E+04</pdfrwt>
<totfact> 0.80969055E-01</totfact>
</mgrwt>
<rwgt>
<wgt id='morphing_basis_vector_1'> +3.5556034e-05 </wgt>
<wgt id='morphing_basis_vector_2'> +3.4720213e-05 </wgt>
<wgt id='morphing_basis_vector_3'> +4.1141709e-05 </wgt>
<wgt id='morphing_basis_vector_4'> +1.4254746e-05 </wgt>
<wgt id='morphing_basis_vector_5'> +3.7660879e-05 </wgt>
</rwgt>
</event>
<event>
 4      1 +1.9882500e-09 3.78453500e+03 7.81860800e-03 7.58049300e-02
        2 -1    0    0  501    0 +0.0000000000e+00 +0.0000000000e+00 +2.7817929107e+03 2.7817929107e+03 0.0000000000e+00 0.0000e+00 -1.0000e+00
       -2 -1    0    0    0  501 -0.0000000000e+00 -0.0000000000e+00 -1.2871832118e+03 1.2871832118e+03 0.0000000000e+00 0.0000e+00 1.0000e+00
      -13  1    1    2    0    0 -3.4363912976e+02 -9.1156951507e+02 -9.9684985382e+02 1.3938279892e+03 0.0000000000e+00 0.0000e+00 1.0000e+00
       13  1    1    2    0    0 +3.4363912976e+02 +9.1156951507e+02 +2.4914595527e+03 2.6751481333e+03 0.0000000000e+00 0.0000e+00 -1.0000e+00
<mgrwt>
<rscale>  0 0.37845354E+04</rscale>
<asrwt>0</asrwt>
<pdfrwt beam="1">  1        2 0.42796814E+00 0.37845354E+04</pdfrwt>
<pdfrwt beam="2">  1       -2 0.19802819E+00 0.37845354E+04</pdfrwt>
<totfact> 0.28542761E-01</totfact>
</mgrwt>
<rwgt>
<wgt id='morphing_basis_vector_1'> +5.5508876e-05 </wgt>
<wgt id='morphing_basis_vector_2'> +3.7611426e-05 </wgt>
<wgt id='morphing_basis_vector_3'> +6.0871965e-05 </wgt>
<wgt id='morphing_basis_vector_4'> +4.3748928e-05 </wgt>
<wgt id='morphing_basis_vector_5'> +6.9785481e-05 </wgt>
</rwgt>
</event>
<event>
 4      1 +1.9882500e-09 3.22713200e+03 7.81860800e-03 7.69737800e-02
        2 -1    0    0  501    0 +0.0000000000e+00 +0.0000000000e+00 +3.1372277620e+03 3.1372277620e+03 0.0000000000e+00 0.0000e+00 1.0000e+00
       -2 -1    0    0    0  501 -0.0000000000e+00 -0.0000000000e+00 -8.2990322416e+02 8.2990322416e+02 0.0000000000e+00 0.0000e+00 -1.0000e+00
      -13  1    1    2    0    0 -2.8678802043e+02 +6.8529520682e+02 +2.9144973654e+03 3.0076854527e+03 0.0000000000e+00 0.0000e+00 1.0000e+00
       13  1    1    2    0    0 +2.8678802043e+02 -6.8529520682e+02 -6.0717282759e+02 9.5944553348e+02 0.0000000000e+00 0.0000e+00 -1.0000e+00
<mgrwt>
<rscale>  0 0.32271321E+04</rscale>
<asrwt>0</asrwt>
<pdfrwt beam="1">  1        2 0.48265042E+00 0.32271321E+04</pdfrwt>
<pdfrwt beam="2">  1       -2 0.12767742E+00 0.32271321E+04</pdfrwt>
<totfact> 0.64571129E-01</totfact>
</mgrwt>
<rwgt>
<wgt id='morphing_basis_vector_1'> +4.0050806e-05 </wgt>
<wgt id='morphing_basis_vector_2'> +5.1050180e-05 </wgt>
<wgt id='morphing_basis_vector_3'> +4.8876046e-05 </wgt>
<wgt id='morphing_basis_vector_4'> +9.0712584e-07 </wgt>
<wgt id='morphing_basis_vector_5'> +3.4916228e-05 </wgt>
</rwgt>
</event>
<event>
 4      1 +1.9882500e-09 3.30420700e+03 7.81860800e-03 7.67982500e-02
        2 -1    0    0  501    0 +0.0000000000e+00 +0.0000000000e+00 +1.6738083264e+03 1.6738083264e+03 0.0000000000e+00 0.0000e+00 1.0000e+00
       -2 -1    0    0    0  501 -0.0000000000e+00 -0.0000000000e+00 -1.6306799540e+03 1.6306799540e+03 0.0000000000e+00 0.0000e+00 -1.0000e+00
      -13  1    1    2    0    0 -3.9202682737e+02 +1.3305245617e+03 -8.7598930447e+02 1.6405297633e+03 0.0000000000e+00 0.0000e+00 -1.0000e+00
       13  1    1    2    0    0 +3.9202682737e+02 -1.3305245617e+03 +9.1911767696e+02 1.6639585171e+03 0.0000000000e+00 0.0000e+00 1.0000e+00
<mgrwt>
<rscale>  0 0.33042068E+04</rscale>
<asrwt>0</asrwt>
<pdfrwt beam="1">  1        2 0.25750897E+00 0.33042068E+04</pdfrwt>
<pdfrwt beam="2">  1       -2 0.25087384E+00 0.33042068E+04</pdfrwt>
<totfact> 0.55171426E-01</totfact>
</mgrwt>
<rwgt>
<wgt id='morphing_basis_vector_1'> +3.2475797e-05 </wgt>
<wgt id='morphing_basis_vector_2'> +2.2199649e-05 </wgt>
<wgt id='morphing_basis_vector_3'> +3.5547635e-05 </wgt>
<wgt id='morphing_basis_vector_4'> +2.5111201e-05 </wgt>
<wgt id='morphing_basis_vector_5'> +4.0390628e-05 </wgt>
</rwgt>
</event>
<event>
 4      1 +1.9882500e-09 3.79787800e+03 7.81860800e-03 7.57795300e-02
        2 -1    0    0  501    0 +0.0000000000e+00 +0.0000000000e+00 +2.3520070422e+03 2.3520070422e+03 0.0000000000e+00 0.0000e+00 -1.0000e+00
       -2 -1    0    0    0  501 -0.0000000000e+00 -0.0000000000e+00 -1.5331458843e+03 1.5331458843e+03 0.0000000000e+00 0.0000e+00 1.0000e+00
      -13  1    1    2    0    0 -1.2978521162e+03 -5.2551193004e+02 +1.7216338175e+03 2.2191453098e+03 0.0000000000e+00 0.0000e+00 1.0000e+00
       13  1    1    2    0    0 +1.2978521162e+03 +5.2551193004e+02 -9.0277265963e+02 1.6660076168e+03 0.0000000000e+00 0.0000e+00 -1.0000e+00
<mgrwt>
<rscale>  0 0.37978783E+04</rscale>
<asrwt>0</asrwt>
<pdfrwt beam="1">  1        2 0.36184724E+00 0.37978783E+04</pdfrwt>
<pdfrwt beam="2">  1       -2 0.23586860E+00 0.37978783E+04</pdfrwt>
<totfact> 0.27840843E-01</totfact>
</mgrwt>
<rwgt>
<wgt id='morphing_basis_vector_1'> +7.1843940e-05 </wgt>
<wgt id='morphing_basis_vector_2'> +8.3871116e-05 </wgt>
<wgt id='morphing_basis_vector_3'> +8.6602102e-05 </wgt>
<wgt id='morphing_basis_vector_4'> +1.1548329e-05 </wgt>
<wgt id='morphing_basis_vector_5'> +6.8050862e-05 </wgt>
</rwgt>
</event>
<event>
 4      1 +1.9882500e-09 3.24189700e+03 7.81860800e-03 7.69397600e-02
        2 -1    0    0  501    0 +0.0000000000e+00 +0.0000000000e+00 +2.2553922279e+03 2.2553922279e+03 0.0000000000e+00 0.0000e+00 1.0000e+00
       -2 -1    0    0    0  501 -0.0000000000e+00 -0.0000000000e+00 -1.1649741068e+03 1.1649741068e+03 0.0000000000e+00 0.0000e+00 -1.0000e+00
      -13  1    1    2    0    0 -1.3549383689e+02 -1.4563371756e+03 -1.9196662684e+02 1.4751704087e+03 0.0000000000e+00 0.0000e+00 -1.0000e+00
       13  1    1    2    0    0 +1.3549383689e+02 +1.4563371756e+03 +1.2823847480e+03 1.9451959260e+03 0.0000000000e+00 0.0000e+00 1.0000e+00
<mgrwt>
<rscale>  0 0.32418967E+04</rscale>
<asrwt>0</asrwt>
<pdfrwt beam="1">  1        2 0.34698342E+00 0.32418967E+04</pdfrwt>
<pdfrwt beam="2">  1       -2 0.17922679E+00 0.32418967E+04</pdfrwt>
<totfact> 0.85298316E-01</totfact>
</mgrwt>
<rwgt>
<wgt id='morphing_basis_vector_1'> +3.0195980e-05 </wgt>
<wgt id='morphing_basis_vector_2'> +2.0823865e-05 </wgt>
<wgt id='morphing_basis_vector_3'> +3.3074747e-05 </wgt>
<wgt id='morphing_basis_vector_4'> +2.3081436e-05 </wgt>
<wgt id='morphing_basis_vector_5'> +3.7393348e-05 </wgt>
</rwgt>
</event>
<event>
 4      1 +1.9882500e-09 3.44094700e+03 7.81860800e-03 7.64986500e-02
        2 -1    0    0  501    0 +0.0000000000e+00 +0.0000000000e+00 +4.2145005500e+03 4.2145005500e+03 0.0000000000e+00 0.0000e+00 1.0000e+00
       -2 -1    0    0    0  501 -0.0000000000e+00 -0.0000000000e+00 -7.0234391896e+02 7.0234391896e+02 0.0000000000e+00 0.0000e+00 -1.0000e+00
      -13  1    1    2    0    0 -2.5448740467e+02 +1.6451011731e+03 +1.1350195834e+03 2.0147930820e+03 0.0000000000e+00 0.0000e+00 -1.0000e+00
       13  1    1    2    0    0 +2.5448740467e+02 -1.6451011731e+03 +2.3771370477e+03 2.9020513870e+03 0.0000000000e+00 0.0000e+00 1.0000e+00
<mgrwt>
<rscale>  0 0.34409469E+04</rscale>
<asrwt>0</asrwt>
<pdfrwt beam="1">  1        2 0.64838468E+00 0.34409469E+04</pdfrwt>
<pdfrwt beam="2">  1       -2 0.10805291E+00 0.34409469E+04</pdfrwt>
<totfact> 0.14179634E-01</totfact>
</mgrwt>
<rwgt>
<wgt id='morphing_basis_vector_1'> +3.8546884e-05 </wgt>
<wgt id='morphing_basis_vector_2'> +2.7263738e-05 </wgt>
<wgt id='morphing_basis_vector_3'> +4.2434103e-05 </wgt>
<wgt id='morphing_basis_vector_4'> +2.8732560e-05 </wgt>
<wgt id='morphing_basis_vector_5'> +4.7488210e-05 </wgt>
</rwgt>
</event>
<event>
 4      1 +1.9882500e-09 3.39821000e+03 7.81860800e-03 7.65907200e-02
        2 -1    0    0  501    0 +0.0000000000e+00 +0.0000000000e+00 +2.4391965130e+03 2.4391965130e+03 0.0000000000e+00 0.0000e+00 -1.0000e+00
       -2 -1    0    0    0  501 -0.0000000000e+00 -0.0000000000e+00 -1.1835692024e+03 1.1835692024e+03 0.0000000000e+00 0.0000e+00 1.0000e+00
      -13  1    1    2    0    0 -4.7236023970e+02 +5.3157414067e+02 -1.0172915499e+03 1.2411999680e+03 0.0000000000e+00 0.0000e+00 1.0000e+00
       13  1    1    2    0    0 +4.7236023970e+02 -5.3157414067e+02 +2.2729188604e+03 2.3815657474e+03 0.0000000000e+00 0.0000e+00 -1.0000e+00
<mgrwt>
<rscale>  0 0.33982100E+04</rscale>
<asrwt>0</asrwt>
<pdfrwt beam="1">  1        2 0.37526100E+00 0.33982100E+04</pdfrwt>
<pdfrwt beam="2">  1       -2 0.18208757E+00 0.33982100E+04</pdfrwt>
<totfact> 0.62551193E-01</totfact>
</mgrwt>
<rwgt>
<wgt id='morphing_basis_vector_1'> +3.6177880e-05 </wgt>
<wgt id='morphing_basis_vector_2'> +2.4460756e-05 </wgt>
<wgt id='morphing_basis_vector_3'> +3.9569343e-05 </wgt>
<wgt id='morphing_basis_vector_4'> +2.8376425e-05 </wgt>
<wgt id='morphing_basis_vector_5'> +4.5244480e-05 </wgt>
</rwgt>
</event>
<event>
 4      1 +1.9882500e-09 3.82999600e+03 7.81860800e-03 7.57188200e-02
        2 -1    0    0  501    0 +0.0000000000e+00 +0.0000000000e+00 +2.2192946961e+03 2.2192946961e+03 0.0000000000e+00 0.0000e+00 1.0000e+00
       -2 -1    0    0    0  501 -0.0000000000e+00 -0.0000000000e+00 -1.6524248694e+03 1.6524248694e+03 0.0000000000e+00 0.0000e+00 -1.0000e+00
      -13  1    1    2    0    0 +1.0429495726e+02 +1.8297645003e+03 +8.4473337146e+02 2.0180411377e+03 0.0000000000e+00 0.0000e+00 1.0000e+00
       13  1    1    2    0    0 -1.0429495726e+02 -1.8297645003e+03 -2.7786354476e+02 1.8536784279e+03 0.0000000000e+00 0.0000e+00 -1.0000e+00
<mgrwt>
<rscale>  0 0.38299962E+04</rscale>
<asrwt>0</asrwt>
<pdfrwt beam="1">  1        2 0.34142995E+00 0.38299962E+04</pdfrwt>
<pdfrwt beam="2">  1       -2 0.25421921E+00 0.38299962E+04</pdfrwt>
<totfact> 0.24723509E-01</totfact>
</mgrwt>
<rwgt>
<wgt id='morphing_basis_vector_1'> +6.3945993e-05 </wgt>
<wgt id='morphing_basis_vector_2'> +5.6315037e-05 </wgt>
<wgt id='morphing_basis_vector_3'> +7.3027573e-05 </wgt>
<wgt id='morphing_basis_vector_4'> +3.3787755e-05 </wgt>
<wgt id='morphing_basis_vector_5'> +7.2211081e-05 </wgt>
</rwgt>
</event>
<event>
 4      1 +1.9882500e-09 3.81740400e+03 7.81860800e-03 7.57425500e-02
        2 -1    0    0  501    0 +0.0000000000e+00 +0.0000000000e+00 +3.8472162194e+03 3.8472162194e+03 0.0000000000e+00 0.0000e+00 1.0000e+00
       -2 -1    0    0    0  501 -0.0000000000e+00 -0.0000000000e+00 -9.4695590709e+02 9.4695590709e+02 0.0000000000e+00 0.0000e+00 -1.0000e+00
      -13  1    1    2    0    0 +1.5758719675e+03 +8.9389161402e+02 +2.2044165088e+03 2.8533956648e+03 0.0000000000e+00 0.0000e+00 -1.0000e+00
       13  1    1    2    0    0 -1.5758719675e+03 -8.9389161402e+02 +6.9584380355e+02 1.9407764617e+03 0.0000000000e+00 0.0000e+00 1.0000e+00
<mgrwt>
<rscale>  0 0.38174044E+04</rscale>
<asrwt>0</asrwt>
<pdfrwt beam="1">  1        2 0.59187941E+00 0.38174044E+04</pdfrwt>
<pdfrwt beam="2">  1       -2 0.14568553E+00 0.38174044E+04</pdfrwt>
<totfact> 0.12900310E-01</totfact>
</mgrwt>
<rwgt>
<wgt id='morphing_basis_vector_1'> +6.3578287e-05 </wgt>
<wgt id='morphing_basis_vector_2'> +5.6946250e-05 </wgt>
<wgt id='morphing_basis_vector_3'> +7.2813708e-05 </wgt>
<wgt id='morphing_basis_vector_4'> +3.2362891e-05 </wgt>
<wgt id='morphing_basis_vector_5'> +7.1179607e-05 </wgt>
</rwgt>
</event>
<event>
 4      1 +1.9882500e-09 3.41889200e+03 7.81860800e-03 7.65459900e-02
        2 -1    0    0  501    0 +0.0000000000e+00 +0.0000000000e+00 +3.3780115724e+03 3.3780115724e+03 0.0000000000e+00 0.0000e+00 1.0000e+00
       -2 -1    0    0    0  501 -0.0000000000e+00 -0.0000000000e+00 -8.6506686086e+02 8.6506686086e+02 0.0000000000e+00 0.0000e+00 -1.0000e+00
      -13  1    1    2    0    0 +1.2601914963e+03 +6.7884596142e+02 +9.6693313377e+01 1.4346651329e+03 0.0000000000e+00 0.0000e+00 -1.0000e+00
       13  1    1    2    0    0 -1.2601914963e+03 -6.7884596142e+02 +2.4162513982e+03 2.8084133004e+03 0.0000000000e+00 0.0000e+00 1.0000e+00
<mgrwt>
<rscale>  0 0.34188921E+04</rscale>
<asrwt>0</asrwt>
<pdfrwt beam="1">  1        2 0.51969408E+00 0.34188921E+04</pdfrwt>
<pdfrwt beam="2">  1       -2 0.13308721E+00 0.34188921E+04</pdfrwt>
<totfact> 0.38799694E-01</totfact>
</mgrwt>
<rwgt>
<wgt id='morphing_basis_vector_1'> +3.7185526e-05 </wgt>
<wgt id='morphing_basis_vector_2'> +2.5428262e-05 </wgt>
<wgt id='morphing_basis_vector_3'> +4.0739482e-05 </wgt>
<wgt id='morphing_basis_vector_4'> +2.8815495e-05 </wgt>
<wgt id='morphing_basis_vector_5'> +4.6341993e-05 </wgt>
</rwgt>
</event>
<event>
 4      1 +1.9882500e-09 3.43591800e+03 7.81860800e-03 7.65094100e-02
        2 -1    0    0  501    0 +0.0000000000e+00 +0.0000000000e+00 +3.7924137040e+03 3.7924137040e+03 0.0000000000e+00 0.0000e+00 1.0000e+00
       -2 -1    0    0    0  501 -0.0000000000e+00 -0.0000000000e+00 -7.7823332034e+02 7.7823332034e+02 0.0000000000e+00 0.0000e+00 -1.0000e+00
      -13  1    1    2    0    0 -4.4693932121e+02 -1.5109581793e+03 +5.9644015117e+02 1.6847819533e+03 0.0000000000e+00 0.0000e+00 -1.0000e+00
       13  1    1    2    0    0 +4.4693932121e+02 +1.5109581793e+03 +2.4177402325e+03 2.8858650710e+03 0.0000000000e+00 0.0000e+00 1.0000e+00
<mgrwt>
<rscale>  0 0.34359178E+04</rscale>
<asrwt>0</asrwt>
<pdfrwt beam="1">  1        2 0.58344825E+00 0.34359178E+04</pdfrwt>
<pdfrwt beam="2">  1       -2 0.11972820E+00 0.34359178E+04</pdfrwt>
<totfact> 0.25040296E-01</totfact>
</mgrwt>
<rwgt>
<wgt id='morphing_basis_vector_1'> +3.8074913e-05 </wgt>
<wgt id='morphing_basis_vector_2'> +2.6373611e-05 </wgt>
<wgt id='morphing_basis_vector_3'> +4.1792115e-05 </wgt>
<wgt id='morphing_basis_vector_4'> +2.9086059e-05 </wgt>
<wgt id='morphing_basis_vector_5'> +4.7252578e-05 </wgt>
</rwgt>
</event>
<event>
 4      1 +1.9882500e-09 3.33625900e+03 7.81860800e-03 7.67267000e-02
        2 -1    0    0  501    0 +0.0000000000e+00 +0.0000000000e+00 +2.7762021065e+03 2.7762021065e+03 0.0000000000e+00 0.0000e+00 -1.0000e+00
       -2 -1    0    0    0  501 -0.0000000000e+00 -0.0000000000e+00 -1.0023245289e+03 1.0023245289e+03 0.0000000000e+00 0.0000e+00 1.0000e+00
      -13  1    1    2    0    0 +2.3607053216e+01 -1.0688340790e+03 -5.6331462765e+02 1.2084233328e+03 0.0000000000e+00 0.0000e+00 1.0000e+00
       13  1    1    2    0    0 -2.3607053216e+01 +1.0688340790e+03 +2.3371922053e+03 2.5701033026e+03 0.0000000000e+00 0.0000e+00 -1.0000e+00
<mgrwt>
<rscale>  0 0.33362587E+04</rscale>
<asrwt>0</asrwt>
<pdfrwt beam="1">  1        2 0.42710801E+00 0.33362587E+04</pdfrwt>
<pdfrwt beam="2">  1       -2 0.15420378E+00 0.33362587E+04</pdfrwt>
<totfact> 0.64896032E-01</totfact>
</mgrwt>
<rwgt>
<wgt id='morphing_basis_vector_1'> +3.3649324e-05 </wgt>
<wgt id='morphing_basis_vector_2'> +2.2790318e-05 </wgt>
<wgt id='morphing_basis_vector_3'> +3.6795607e-05 </wgt>
<wgt id='morphing_basis_vector_4'> +2.6306822e-05 </wgt>
<wgt id='morphing_basis_vector_5'> +4.2009013e-05 </wgt>
</rwgt>
</event>
<event>
 4      1 +1.9882500e-09 3.21602000e+03 7.81860800e-03 7.69995000e-02
        2 -1    0    0  501    0 +0.0000000000e+00 +0.0000000000e+00 +2.1416532509e+03 2.1416532509e+03 0.0000000000e+00 0.0000e+00 -1.0000e+00
       -2 -1    0    0    0  501 -0.0000000000e+00 -0.0000000000e+00 -1.2073364372e+03 1.2073364372e+03 0.0000000000e+00 0.0000e+00 1.0000e+00
      -13  1    1    2    0    0 -1.4349348248e+03 -2.5503979007e+02 -2.4035387748e+02 1.4771097564e+03 0.0000000000e+00 0.0000e+00 1.0000e+00
       13  1    1    2    0    0 +1.4349348248e+03 +2.5503979007e+02 +1.1746706911e+03 1.8718799317e+03 0.0000000000e+00 0.0000e+00 -1.0000e+00
<mgrwt>
<rscale>  0 0.32160199E+04</rscale>
<asrwt>0</asrwt>
<pdfrwt beam="1">  1        2 0.32948511E+00 0.32160199E+04</pdfrwt>
<pdfrwt beam="2">  1       -2 0.18574407E+00 0.32160199E+04</pdfrwt>
<totfact> 0.88692325E-01</totfact>
</mgrwt>
<rwgt>
<wgt id='morphing_basis_vector_1'> +2.9258417e-05 </wgt>
<wgt id='morphing_basis_vector_2'> +2.0191716e-05 </wgt>
<wgt id='morphing_basis_vector_3'> +3.2043868e-05 </wgt>
<wgt id='morphing_basis_vector_4'> +2.2331841e-05 </wgt>
<wgt id='morphing_basis_vector_5'> +3.6203492e-05 </wgt>
</rwgt>
</event>
<event>
 4      1 +1.9882500e-09 3.26049800e+03 7.81860800e-03 7.68971800e-02
        2 -1    0    0  501    0 +0.0000000000e+00 +0.0000000000e+00 +2.9077777702e+03 2.9077777702e+03 0.0000000000e+00 0.0000e+00 -1.0000e+00
       -2 -1    0    0    0  501 -0.0000000000e+00 -0.0000000000e+00 -9.1400072845e+02 9.1400072845e+02 0.0000000000e+00 0.0000e+00 1.0000e+00
      -13  1    1    2    0    0 -3.4081057654e+02 -6.1297623174e+02 -7.2812597480e+02 1.0109694085e+03 0.0000000000e+00 0.0000e+00 1.0000e+00
       13  1    1    2    0    0 +3.4081057654e+02 +6.1297623174e+02 +2.7219030166e+03 2.8108090902e+03 0.0000000000e+00 0.0000e+00 -1.0000e+00
<mgrwt>
<rscale>  0 0.32604975E+04</rscale>
<asrwt>0</asrwt>
<pdfrwt beam="1">  1        2 0.44735042E+00 0.32604975E+04</pdfrwt>
<pdfrwt beam="2">  1       -2 0.14061550E+00 0.32604975E+04</pdfrwt>
<totfact> 0.70007742E-01</totfact>
</mgrwt>
<rwgt>
<wgt id='morphing_basis_vector_1'> +3.0698274e-05 </wgt>
<wgt id='morphing_basis_vector_2'> +2.0741486e-05 </wgt>
<wgt id='morphing_basis_vector_3'> +3.3538132e-05 </wgt>
<wgt id='morphing_basis_vector_4'> +2.4020090e-05 </wgt>
<wgt id='morphing_basis_vector_5'> +3.8298610e-05 </wgt>
</rwgt>
</event>
<event>
 4      1 +1.9882500e-09 3.28582000e+03 7.81860800e-03 7.68396700e-02
        2 -1    0    0  501    0 +0.0000000000e+00 +0.0000000000e+00 +1.5773284745e+03 1.5773284745e+03 0.0000000000e+00 0.0000e+00 -1.0000e+00
       -2 -1    0    0    0  501 -0.0000000000e+00 -0.0000000000e+00 -1.7112181647e+03 1.7112181647e+03 0.0000000000e+00 0.0000e+00 1.0000e+00
      -13  1    1    2    0    0 -3.1742490887e+02 -1.4578041123e+02 -1.6736251696e+03 1.7096876058e+03 0.0000000000e+00 0.0000e+00 1.0000e+00
       13  1    1    2    0    0 +3.1742490887e+02 +1.4578041123e+02 +1.5397354794e+03 1.5788590334e+03 0.0000000000e+00 0.0000e+00 -1.0000e+00
<mgrwt>
<rscale>  0 0.32858199E+04</rscale>
<asrwt>0</asrwt>
<pdfrwt beam="1">  1        2 0.24266592E+00 0.32858199E+04</pdfrwt>
<pdfrwt beam="2">  1       -2 0.26326434E+00 0.32858199E+04</pdfrwt>
<totfact> 0.51378688E-01</totfact>
</mgrwt>
<rwgt>
<wgt id='morphing_basis_vector_1'> +3.1652423e-05 </wgt>
<wgt id='morphing_basis_vector_2'> +2.1381938e-05 </wgt>
<wgt id='morphing_basis_vector_3'> +3.4586578e-05 </wgt>
<wgt id='morphing_basis_vector_4'> +2.4787287e-05 </wgt>
<wgt id='morphing_basis_vector_5'> +3.9511956e-05 </wgt>
</rwgt>
</event>
<event>
 4      1 +1.9882500e-09 3.84778700e+03 7.81860800e-03 7.56854500e-02
        2 -1    0    0  501    0 +0.0000000000e+00 +0.0000000000e+00 +2.6720519137e+03 2.6720519137e+03 0.0000000000e+00 0.0000e+00 1.0000e+00
       -2 -1    0    0    0  501 -0.0000000000e+00 -0.0000000000e+00 -1.3852151193e+03 1.3852151193e+03 0.0000000000e+00 0.0000e+00 -1.0000e+00
      -13  1    1    2    0    0 +3.6509523411e+02 -8.3811000607e+02 -1.1415627861e+03 1.4624939340e+03 0.0000000000e+00 0.0000e+00 -1.0000e+00
       13  1    1    2    0    0 -3.6509523411e+02 +8.3811000607e+02 +2.4283995806e+03 2.5947730990e+03 0.0000000000e+00 0.0000e+00 1.0000e+00
<mgrwt>
<rscale>  0 0.38477873E+04</rscale>
<asrwt>0</asrwt>
<pdfrwt beam="1">  1        2 0.41108491E+00 0.38477873E+04</pdfrwt>
<pdfrwt beam="2">  1       -2 0.21311002E+00 0.38477873E+04</pdfrwt>
<totfact> 0.25827511E-01</totfact>
</mgrwt>
<rwgt>
<wgt id='morphing_basis_vector_1'> +5.9287343e-05 </wgt>
<wgt id='morphing_basis_vector_2'> +4.0170695e-05 </wgt>
<wgt id='morphing_basis_vector_3'> +6.5035880e-05 </wgt>
<wgt id='morphing_basis_vector_4'> +4.6773623e-05 </wgt>
<wgt id='morphing_basis_vector_5'> +7.4596872e-05 </wgt>
</rwgt>
</event>
<event>
 4      1 +1.9882500e-09 3.27188700e+03 7.81860800e-03 7.68712500e-02
        2 -1    0    0  501    0 +0.0000000000e+00 +0.0000000000e+00 +5.3215045408e+02 5.3215045408e+02 0.0000000000e+00 0.0000e+00 -1.0000e+00
       -2 -1    0    0    0  501 -0.0000000000e+00 -0.0000000000e+00 -5.0292382929e+03 5.0292382929e+03 0.0000000000e+00 0.0000e+00 1.0000e+00
      -13  1    1    2    0    0 +1.0166878891e+03 +7.4112331739e+02 -4.0258947355e+03 4.2179078293e+03 0.0000000000e+00 0.0000e+00 1.0000e+00
       13  1    1    2    0    0 -1.0166878891e+03 -7.4112331739e+02 -4.7119310334e+02 1.3434809177e+03 0.0000000000e+00 0.0000e+00 -1.0000e+00
<mgrwt>
<rscale>  0 0.32718872E+04</rscale>
<asrwt>0</asrwt>
<pdfrwt beam="1">  1        2 0.81869303E-01 0.32718872E+04</pdfrwt>
<pdfrwt beam="2">  1       -2 0.77372895E+00 0.32718872E+04</pdfrwt>
<totfact> 0.55034528E-03</totfact>
</mgrwt>
<rwgt>
<wgt id='morphing_basis_vector_1'> +3.1184012e-05 </wgt>
<wgt id='morphing_basis_vector_2'> +2.1202240e-05 </wgt>
<wgt id='morphing_basis_vector_3'> +3.4100362e-05 </wgt>
<wgt id='morphing_basis_vector_4'> +2.4238771e-05 </wgt>
<wgt id='morphing_basis_vector_5'> +3.8830599e-05 </wgt>
</rwgt>
</event>
<event>
 4      1 +1.9882500e-09 3.29846600e+03 7.81860800e-03 7.68111500e-02
        2 -1    0    0  501    0 +0.0000000000e+00 +0.0000000000e+00 +1.2483722955e+03 1.2483722955e+03 0.0000000000e+00 0.0000e+00 1.0000e+00
       -2 -1    0    0    0  501 -0.0000000000e+00 -0.0000000000e+00 -2.1788131053e+03 2.1788131053e+03 0.0000000000e+00 0.0000e+00 -1.0000e+00
      -13  1    1    2    0    0 -9.9110423402e+02 -5.6037186545e+02 -1.7049574023e+03 2.0501668161e+03 0.0000000000e+00 0.0000e+00 -1.0000e+00
       13  1    1    2    0    0 +9.9110423402e+02 +5.6037186545e+02 +7.7451659249e+02 1.3770185846e+03 0.0000000000e+00 0.0000e+00 1.0000e+00
<mgrwt>
<rscale>  0 0.32984663E+04</rscale>
<asrwt>0</asrwt>
<pdfrwt beam="1">  1        2 0.19205728E+00 0.32984663E+04</pdfrwt>
<pdfrwt beam="2">  1       -2 0.33520201E+00 0.32984663E+04</pdfrwt>
<totfact> 0.25792155E-01</totfact>
</mgrwt>
<rwgt>
<wgt id='morphing_basis_vector_1'> +3.2172284e-05 </wgt>
<wgt id='morphing_basis_vector_2'> +2.1810534e-05 </wgt>
<wgt id='morphing_basis_vector_3'> +3.5174748e-05 </wgt>
<wgt id='morphing_basis_vector_4'> +2.5103727e-05 </wgt>
<wgt id='morphing_basis_vector_5'> +4.0122499e-05 </wgt>
</rwgt>
</event>
<event>
 4      1 +1.9882500e-09 3.47860900e+03 7.81860800e-03 7.64186300e-02
        2 -1    0    0  501    0 +0.0000000000e+00 +0.0000000000e+00 +2.7776618990e+03 2.7776618990e+03 0.0000000000e+00 0.0000e+00 1.0000e+00
       -2 -1    0    0    0  501 -0.0000000000e+00 -0.0000000000e+00 -1.0891105128e+03 1.0891105128e+03 0.0000000000e+00 0.0000e+00 -1.0000e+00
      -13  1    1    2    0    0 +1.4441908395e+03 -8.5654277835e+02 +1.3485829800e+03 2.1536083130e+03 0.0000000000e+00 0.0000e+00 1.0000e+00
       13  1    1    2    0    0 -1.4441908395e+03 +8.5654277835e+02 +3.3996840624e+02 1.7131640987e+03 0.0000000000e+00 0.0000e+00 -1.0000e+00
<mgrwt>
<rscale>  0 0.34786094E+04</rscale>
<asrwt>0</asrwt>
<pdfrwt beam="1">  1        2 0.42733260E+00 0.34786094E+04</pdfrwt>
<pdfrwt beam="2">  1       -2 0.16755547E+00 0.34786094E+04</pdfrwt>
<totfact> 0.50059843E-01</totfact>
</mgrwt>
<rwgt>
<wgt id='morphing_basis_vector_1'> +4.3265439e-05 </wgt>
<wgt id='morphing_basis_vector_2'> +3.7342761e-05 </wgt>
<wgt id='morphing_basis_vector_3'> +4.9110531e-05 </wgt>
<wgt id='morphing_basis_vector_4'> +2.3683993e-05 </wgt>
<wgt id='morphing_basis_vector_5'> +4.9091112e-05 </wgt>
</rwgt>
</event>
<event>
 4      1 +1.9882500e-09 3.63004300e+03 7.81860800e-03 7.61071100e-02
        2 -1    0    0  501    0 +0.0000000000e+00 +0.0000000000e+00 +2.3944867700e+03 2.3944867700e+03 0.0000000000e+00 0.0000e+00 -1.0000e+00
       -2 -1    0    0    0  501 -0.0000000000e+00 -0.0000000000e+00 -1.3757869714e+03 1.3757869714e+03 0.0000000000e+00 0.0000e+00 1.0000e+00
      -13  1    1    2    0    0 +1.6239126741e+03 +1.8089692493e+02 -3.1142296731e+02 1.6633701739e+03 0.0000000000e+00 0.0000e+00 1.0000e+00
       13  1    1    2    0    0 -1.6239126741e+03 -1.8089692493e+02 +1.3301227659e+03 2.1069035676e+03 0.0000000000e+00 0.0000e+00 -1.0000e+00
<mgrwt>
<rscale>  0 0.36300434E+04</rscale>
<asrwt>0</asrwt>
<pdfrwt beam="1">  1        2 0.36838258E+00 0.36300434E+04</pdfrwt>
<pdfrwt beam="2">  1       -2 0.21165953E+00 0.36300434E+04</pdfrwt>
<totfact> 0.39527362E-01</totfact>
</mgrwt>
<rwgt>
<wgt id='morphing_basis_vector_1'> +4.7312401e-05 </wgt>
<wgt id='morphing_basis_vector_2'> +3.2673787e-05 </wgt>
<wgt id='morphing_basis_vector_3'> +5.1975302e-05 </wgt>
<wgt id='morphing_basis_vector_4'> +3.6405057e-05 </wgt>
<wgt id='morphing_basis_vector_5'> +5.8963302e-05 </wgt>
</rwgt>
</event>
<event>
 4      1 +1.9882500e-09 3.31361300e+03 7.81860800e-03 7.67771600e-02
        2 -1    0    0  501    0 +0.0000000000e+00 +0.0000000000e+00 +2.2915158732e+03 2.2915158732e+03 0.0000000000e+00 0.0000e+00 -1.0000e+00
       -2 -1    0    0    0  501 -0.0000000000e+00 -0.0000000000e+00 -1.1979003952e+03 1.1979003952e+03 0.0000000000e+00 0.0000e+00 1.0000e+00
      -13  1    1    2    0    0 +8.3374834866e+02 +4.9704950844e+01 -9.5998125557e+02 1.2724664640e+03 0.0000000000e+00 0.0000e+00 1.0000e+00
       13  1    1    2    0    0 -8.3374834866e+02 -4.9704950844e+01 +2.0535967336e+03 2.2169498044e+03 0.0000000000e+00 0.0000e+00 -1.0000e+00
<mgrwt>
<rscale>  0 0.33136130E+04</rscale>
<asrwt>0</asrwt>
<pdfrwt beam="1">  1        2 0.35254090E+00 0.33136130E+04</pdfrwt>
<pdfrwt beam="2">  1       -2 0.18429237E+00 0.33136130E+04</pdfrwt>
<totfact> 0.73985337E-01</totfact>
</mgrwt>
<rwgt>
<wgt id='morphing_basis_vector_1'> +3.2735691e-05 </wgt>
<wgt id='morphing_basis_vector_2'> +2.2132863e-05 </wgt>
<wgt id='morphing_basis_vector_3'> +3.5782077e-05 </wgt>
<wgt id='morphing_basis_vector_4'> +2.5628201e-05 </wgt>
<wgt id='morphing_basis_vector_5'> +4.0874722e-05 </wgt>
</rwgt>
</event>
<event>
 4      1 +1.9882500e-09 3.26373800e+03 7.81860800e-03 7.68897900e-02
        2 -1    0    0  501    0 +0.0000000000e+00 +0.0000000000e+00 +2.4017736078e+03 2.4017736078e+03 0.0000000000e+00 0.0000e+00 -1.0000e+00
       -2 -1    0    0    0  501 -0.0000000000e+00 -0.0000000000e+00 -1.1087625433e+03 1.1087625433e+03 0.0000000000e+00 0.0000e+00 1.0000e+00
      -13  1    1    2    0    0 +2.3786379374e+02 +1.5420176655e+03 +1.3223071156e+02 1.5658488516e+03 0.0000000000e+00 0.0000e+00 1.0000e+00
       13  1    1    2    0    0 -2.3786379374e+02 -1.5420176655e+03 +1.1607803529e+03 1.9446872995e+03 0.0000000000e+00 0.0000e+00 -1.0000e+00
<mgrwt>
<rscale>  0 0.32637381E+04</rscale>
<asrwt>0</asrwt>
<pdfrwt beam="1">  1        2 0.36950363E+00 0.32637381E+04</pdfrwt>
<pdfrwt beam="2">  1       -2 0.17057885E+00 0.32637381E+04</pdfrwt>
<totfact> 0.81554241E-01</totfact>
</mgrwt>
<rwgt>
<wgt id='morphing_basis_vector_1'> +3.1180124e-05 </wgt>
<wgt id='morphing_basis_vector_2'> +2.1884995e-05 </wgt>
<wgt id='morphing_basis_vector_3'> +3.4240948e-05 </wgt>
<wgt id='morphing_basis_vector_4'> +2.3361484e-05 </wgt>
<wgt id='morphing_basis_vector_5'> +3.8389893e-05 </wgt>
</rwgt>
</event>
<event>
 4      1 +1.9882500e-09 3.21366300e+03 7.81860800e-03 7.70049700e-02
        2 -1    0    0  501    0 +0.0000000000e+00 +0.0000000000e+00 +2.1588261892e+03 2.1588261892e+03 0.0000000000e+00 0.0000e+00 -1.0000e+00
       -2 -1    0    0    0  501 -0.0000000000e+00 -0.0000000000e+00 -1.1959773521e+03 1.1959773521e+03 0.0000000000e+00 0.0000e+00 1.0000e+00
      -13  1    1    2    0    0 -7.8625802254e+02 -1.2620022293e+03 -1.5447212670e+02 1.4948956294e+03 0.0000000000e+00 0.0000e+00 1.0000e+00
       13  1    1    2    0    0 +7.8625802254e+02 +1.2620022293e+03 +1.1173209638e+03 1.8599079120e+03 0.0000000000e+00 0.0000e+00 -1.0000e+00
<mgrwt>
<rscale>  0 0.32136629E+04</rscale>
<asrwt>0</asrwt>
<pdfrwt beam="1">  1        2 0.33212711E+00 0.32136629E+04</pdfrwt>
<pdfrwt beam="2">  1       -2 0.18399652E+00 0.32136629E+04</pdfrwt>
<totfact> 0.89391298E-01</totfact>
</mgrwt>
<rwgt>
<wgt id='morphing_basis_vector_1'> +2.9216459e-05 </wgt>
<wgt id='morphing_basis_vector_2'> +2.0259487e-05 </wgt>
<wgt id='morphing_basis_vector_3'> +3.2017937e-05 </wgt>
<wgt id='morphing_basis_vector_4'> +2.2175913e-05 </wgt>
<wgt id='morphing_basis_vector_5'> +3.6089228e-05 </wgt>
</rwgt>
</event>
<event>
 4      1 +1.9882500e-09 3.24708900e+03 7.81860800e-03 7.69278500e-02
        2 -1    0    0  501    0 +0.0000000000e+00 +0.0000000000e+00 +2.3468483984e+03 2.3468483984e+03 0.0000000000e+00 0.0000e+00 1.0000e+00
       -2 -1    0    0    0  501 -0.0000000000e+00 -0.0000000000e+00 -1.1231644778e+03 1.1231644778e+03 0.0000000000e+00 0.0000e+00 -1.0000e+00
      -13  1    1    2    0    0 +8.5313634783e+02 +1.1920367246e+03 -1.3400126853e+02 1.4719882883e+03 0.0000000000e+00 0.0000e+00 -1.0000e+00
       13  1    1    2    0    0 -8.5313634783e+02 -1.1920367246e+03 +1.3576851891e+03 1.9980245879e+03 0.0000000000e+00 0.0000e+00 1.0000e+00
<mgrwt>
<rscale>  0 0.32470890E+04</rscale>
<asrwt>0</asrwt>
<pdfrwt beam="1">  1        2 0.36105360E+00 0.32470890E+04</pdfrwt>
<pdfrwt beam="2">  1       -2 0.17279454E+00 0.32470890E+04</pdfrwt>
<totfact> 0.84536097E-01</totfact>
</mgrwt>
<rwgt>
<wgt id='morphing_basis_vector_1'> +3.0389472e-05 </wgt>
<wgt id='morphing_basis_vector_2'> +2.0960352e-05 </wgt>
<wgt id='morphing_basis_vector_3'> +3.3288780e-05 </wgt>
<wgt id='morphing_basis_vector_4'> +2.3228484e-05 </wgt>
<wgt id='morphing_basis_vector_5'> +3.7635117e-05 </wgt>
</rwgt>
</event>
<event>
 4      1 +1.9882500e-09 3.44499800e+03 7.81860800e-03 7.64899900e-02
        2 -1    0    0  501    0 +0.0000000000e+00 +0.0000000000e+00 +1.8504984543e+03 1.8504984543e+03 0.0000000000e+00 0.0000e+00 -1.0000e+00
       -2 -1    0    0    0  501 -0.0000000000e+00 -0.0000000000e+00 -1.6033536352e+03 1.6033536352e+03 0.0000000000e+00 0.0000e+00 1.0000e+00
      -13  1    1    2    0    0 +7.9556600663e+02 -1.1605132940e+03 -8.7260441822e+02 1.6556433333e+03 0.0000000000e+00 0.0000e+00 1.0000e+00
       13  1    1    2    0    0 -7.9556600663e+02 +1.1605132940e+03 +1.1197492373e+03 1.7982087562e+03 0.0000000000e+00 0.0000e+00 -1.0000e+00
<mgrwt>
<rscale>  0 0.34449984E+04</rscale>
<asrwt>0</asrwt>
<pdfrwt beam="1">  1        2 0.28469207E+00 0.34449984E+04</pdfrwt>
<pdfrwt beam="2">  1       -2 0.24666979E+00 0.34449984E+04</pdfrwt>
<totfact> 0.46490803E-01</totfact>
</mgrwt>
<rwgt>
<wgt id='morphing_basis_vector_1'> +3.8304992e-05 </wgt>
<wgt id='morphing_basis_vector_2'> +2.6148991e-05 </wgt>
<wgt id='morphing_basis_vector_3'> +4.1963835e-05 </wgt>
<wgt id='morphing_basis_vector_4'> +2.9756397e-05 </wgt>
<wgt id='morphing_basis_vector_5'> +4.7787248e-05 </wgt>
</rwgt>
</event>
<event>
 4      1 +1.9882500e-09 3.38503800e+03 7.81860800e-03 7.66193800e-02
        2 -1    0    0  501    0 +0.0000000000e+00 +0.0000000000e+00 +1.7693852818e+03 1.7693852818e+03 0.0000000000e+00 0.0000e+00 1.0000e+00
       -2 -1    0    0    0  501 -0.0000000000e+00 -0.0000000000e+00 -1.6189918646e+03 1.6189918646e+03 0.0000000000e+00 0.0000e+00 -1.0000e+00
      -13  1    1    2    0    0 -5.3216619064e+02 +1.5256445514e+03 -4.2911397201e+02 1.6718046993e+03 0.0000000000e+00 0.0000e+00 -1.0000e+00
       13  1    1    2    0    0 +5.3216619064e+02 -1.5256445514e+03 +5.7950738922e+02 1.7165724470e+03 0.0000000000e+00 0.0000e+00 1.0000e+00
<mgrwt>
<rscale>  0 0.33850379E+04</rscale>
<asrwt>0</asrwt>
<pdfrwt beam="1">  1        2 0.27221312E+00 0.33850379E+04</pdfrwt>
<pdfrwt beam="2">  1       -2 0.24907567E+00 0.33850379E+04</pdfrwt>
<totfact> 0.49896570E-01</totfact>
</mgrwt>
<rwgt>
<wgt id='morphing_basis_vector_1'> +3.6033169e-05 </wgt>
<wgt id='morphing_basis_vector_2'> +2.5288255e-05 </wgt>
<wgt id='morphing_basis_vector_3'> +3.9607756e-05 </wgt>
<wgt id='morphing_basis_vector_4'> +2.7077824e-05 </wgt>
<wgt id='morphing_basis_vector_5'> +4.4471242e-05 </wgt>
</rwgt>
</event>
<event>
 4      1 +1.9882500e-09 3.71943900e+03 7.81860800e-03 7.59304300e-02
        2 -1    0    0  501    0 +0.0000000000e+00 +0.0000000000e+00 +2.0254018398e+03 2.0254018398e+03 0.0000000000e+00 0.0000e+00 -1.0000e+00
       -2 -1    0    0    0  501 -0.0000000000e+00 -0.0000000000e+00 -1.7075900149e+03 1.7075900149e+03 0.0000000000e+00 0.0000e+00 1.0000e+00
      -13  1    1    2    0    0 -6.7234867413e+02 +1.6329173332e+02 -1.5736052653e+03 1.7189969345e+03 0.0000000000e+00 0.0000e+00 1.0000e+00
       13  1    1    2    0    0 +6.7234867413e+02 -1.6329173332e+02 +1.8914170902e+03 2.0139949202e+03 0.0000000000e+00 0.0000e+00 -1.0000e+00
<mgrwt>
<rscale>  0 0.37194386E+04</rscale>
<asrwt>0</asrwt>
<pdfrwt beam="1">  1        2 0.31160029E+00 0.37194386E+04</pdfrwt>
<pdfrwt beam="2">  1       -2 0.26270615E+00 0.37194386E+04</pdfrwt>
<totfact> 0.28115594E-01</totfact>
</mgrwt>
<rwgt>
<wgt id='morphing_basis_vector_1'> +5.1798504e-05 </wgt>
<wgt id='morphing_basis_vector_2'> +3.5067231e-05 </wgt>
<wgt id='morphing_basis_vector_3'> +5.6776965e-05 </wgt>
<wgt id='morphing_basis_vector_4'> +4.0820168e-05 </wgt>
<wgt id='morphing_basis_vector_5'> +6.5082665e-05 </wgt>
</rwgt>
</event>
<event>
 4      1 +1.9882500e-09 3.25363200e+03 7.81860800e-03 7.69128600e-02
        2 -1    0    0  501    0 +0.0000000000e+00 +0.0000000000e+00 +1.5923206679e+03 1.5923206679e+03 0.0000000000e+00 0.0000e+00 1.0000e+00
       -2 -1    0    0    0  501 -0.0000000000e+00 -0.0000000000e+00 -1.6620581162e+03 1.6620581162e+03 0.0000000000e+00 0.0000e+00 -1.0000e+00
      -13  1    1    2    0    0 -5.2325375806e+02 -1.0678587096e+03 -1.1452645755e+03 1.6509838482e+03 0.0000000000e+00 0.0000e+00 -1.0000e+00
       13  1    1    2    0    0 +5.2325375806e+02 +1.0678587096e+03 +1.0755271272e+03 1.6033949359e+03 0.0000000000e+00 0.0000e+00 1.0000e+00
<mgrwt>
<rscale>  0 0.32536315E+04</rscale>
<asrwt>0</asrwt>
<pdfrwt beam="1">  1        2 0.24497241E+00 0.32536315E+04</pdfrwt>
<pdfrwt beam="2">  1       -2 0.25570125E+00 0.32536315E+04</pdfrwt>
<totfact> 0.56959353E-01</totfact>
</mgrwt>
<rwgt>
<wgt id='morphing_basis_vector_1'> +3.0483318e-05 </wgt>
<wgt id='morphing_basis_vector_2'> +2.0688026e-05 </wgt>
<wgt id='morphing_basis_vector_3'> +3.3321128e-05 </wgt>
<wgt id='morphing_basis_vector_4'> +2.3731463e-05 </wgt>
<wgt id='morphing_basis_vector_5'> +3.7967567e-05 </wgt>
</rwgt>
</event>
<event>
 4      1 +1.9882500e-09 3.42161900e+03 7.81860800e-03 7.65401100e-02
        2 -1    0    0  501    0 +0.0000000000e+00 +0.0000000000e+00 +3.0752896198e+03 3.0752896198e+03 0.0000000000e+00 0.0000e+00 -1.0000e+00
       -2 -1    0    0    0  501 -0.0000000000e+00 -0.0000000000e+00 -9.5173797914e+02 9.5173797914e+02 0.0000000000e+00 0.0000e+00 1.0000e+00
      -13  1    1    2    0    0 -1.0563698987e+03 +3.9906279209e+02 -4.5080529720e+02 1.2158922201e+03 0.0000000000e+00 0.0000e+00 1.0000e+00
       13  1    1    2    0    0 +1.0563698987e+03 -3.9906279209e+02 +2.5743569379e+03 2.8111353789e+03 0.0000000000e+00 0.0000e+00 -1.0000e+00
<mgrwt>
<rscale>  0 0.34216195E+04</rscale>
<asrwt>0</asrwt>
<pdfrwt beam="1">  1        2 0.47312147E+00 0.34216195E+04</pdfrwt>
<pdfrwt beam="2">  1       -2 0.14642123E+00 0.34216195E+04</pdfrwt>
<totfact> 0.47993953E-01</totfact>
</mgrwt>
<rwgt>
<wgt id='morphing_basis_vector_1'> +3.7204955e-05 </wgt>
<wgt id='morphing_basis_vector_2'> +2.5219364e-05 </wgt>
<wgt id='morphing_basis_vector_3'> +4.0713312e-05 </wgt>
<wgt id='morphing_basis_vector_4'> +2.9115041e-05 </wgt>
<wgt id='morphing_basis_vector_5'> +4.6508176e-05 </wgt>
</rwgt>
</event>
<event>
 4      1 +1.9882500e-09 3.41098400e+03 7.81860800e-03 7.65630500e-02
        2 -1    0    0  501    0 +0.0000000000e+00 +0.0000000000e+00 +3.3092756852e+03 3.3092756852e+03 0.0000000000e+00 0.0000e+00 1.0000e+00
       -2 -1    0    0    0  501 -0.0000000000e+00 -0.0000000000e+00 -8.7895472811e+02 8.7895472811e+02 0.0000000000e+00 0.0000e+00 -1.0000e+00
      -13  1    1    2    0    0 +1.0143036802e+03 -1.0661981507e+03 +2.2736298350e+03 2.7083173889e+03 0.0000000000e+00 0.0000e+00 -1.0000e+00
       13  1    1    2    0    0 -1.0143036802e+03 +1.0661981507e+03 +1.5669112207e+02 1.4799130244e+03 0.0000000000e+00 0.0000e+00 1.0000e+00
<mgrwt>
<rscale>  0 0.34109843E+04</rscale>
<asrwt>0</asrwt>
<pdfrwt beam="1">  1        2 0.50911933E+00 0.34109843E+04</pdfrwt>
<pdfrwt beam="2">  1       -2 0.13522381E+00 0.34109843E+04</pdfrwt>
<totfact> 0.41546808E-01</totfact>
</mgrwt>
<rwgt>
<wgt id='morphing_basis_vector_1'> +4.3590737e-05 </wgt>
<wgt id='morphing_basis_vector_2'> +4.5041341e-05 </wgt>
<wgt id='morphing_basis_vector_3'> +5.1059046e-05 </wgt>
<wgt id='morphing_basis_vector_4'> +1.4387773e-05 </wgt>
<wgt id='morphing_basis_vector_5'> +4.4739779e-05 </wgt>
</rwgt>
</event>
<event>
 4      1 +1.9882500e-09 3.84394800e+03 7.81860800e-03 7.56926300e-02
        2 -1    0    0  501    0 +0.0000000000e+00 +0.0000000000e+00 +3.1763125914e+03 3.1763125914e+03 0.0000000000e+00 0.0000e+00 1.0000e+00
       -2 -1    0    0    0  501 -0.0000000000e+00 -0.0000000000e+00 -1.1629788829e+03 1.1629788829e+03 0.0000000000e+00 0.0000e+00 -1.0000e+00
      -13  1    1    2    0    0 +4.4318935437e+02 +3.6126492148e+02 -1.0647448262e+03 1.2085572772e+03 0.0000000000e+00 0.0000e+00 -1.0000e+00
       13  1    1    2    0    0 -4.4318935437e+02 -3.6126492148e+02 +3.0780785347e+03 3.1307341971e+03 0.0000000000e+00 0.0000e+00 1.0000e+00
<mgrwt>
<rscale>  0 0.38439482E+04</rscale>
<asrwt>0</asrwt>
<pdfrwt beam="1">  1        2 0.48866347E+00 0.38439482E+04</pdfrwt>
<pdfrwt beam="2">  1       -2 0.17891983E+00 0.38439482E+04</pdfrwt>
<totfact> 0.21859943E-01</totfact>
</mgrwt>
<rwgt>
<wgt id='morphing_basis_vector_1'> +5.9043851e-05 </wgt>
<wgt id='morphing_basis_vector_2'> +3.9985856e-05 </wgt>
<wgt id='morphing_basis_vector_3'> +6.4763146e-05 </wgt>
<wgt id='morphing_basis_vector_4'> +4.6604294e-05 </wgt>
<wgt id='morphing_basis_vector_5'> +7.4299514e-05 </wgt>
</rwgt>
</event>
<event>
 4      1 +1.9882500e-09 3.57802500e+03 7.81860800e-03 7.62123300e-02
        2 -1    0    0  501    0 +0.0000000000e+00 +0.0000000000e+00 +2.0032860661e+03 2.0032860661e+03 0.0000000000e+00 0.0000e+00 1.0000e+00
       -2 -1    0    0    0  501 -0.0000000000e+00 -0.0000000000e+00 -1.5976582736e+03 1.5976582736e+03 0.0000000000e+00 0.0000e+00 -1.0000e+00
      -13  1    1    2    0    0 +1.0048423870e+03 +3.6934351112e+02 -1.2397003272e+03 1.6379803885e+03 0.0000000000e+00 0.0000e+00 -1.0000e+00
       13  1    1    2    0    0 -1.0048423870e+03 -3.6934351112e+02 +1.6453281198e+03 1.9629639512e+03 0.0000000000e+00 0.0000e+00 1.0000e+00
<mgrwt>
<rscale>  0 0.35780255E+04</rscale>
<asrwt>0</asrwt>
<pdfrwt beam="1">  1        2 0.30819786E+00 0.35780255E+04</pdfrwt>
<pdfrwt beam="2">  1       -2 0.24579358E+00 0.35780255E+04</pdfrwt>
<totfact> 0.38288507E-01</totfact>
</mgrwt>
<rwgt>
<wgt id='morphing_basis_vector_1'> +4.4420867e-05 </wgt>
<wgt id='morphing_basis_vector_2'> +3.0099574e-05 </wgt>
<wgt id='morphing_basis_vector_3'> +4.8656730e-05 </wgt>
<wgt id='morphing_basis_vector_4'> +3.4884685e-05 </wgt>
<wgt id='morphing_basis_vector_5'> +5.5680157e-05 </wgt>
</rwgt>
</event>
<event>
 4      1 +1.9882500e-09 3.40135500e+03 7.81860800e-03 7.65839000e-02
        2 -1    0    0  501    0 +0.0000000000e+00 +0.0000000000e+00 +1.4631082602e+03 1.4631082602e+03 0.0000000000e+00 0.0000e+00 1.0000e+00
       -2 -1    0    0    0  501 -0.0000000000e+00 -0.0000000000e+00 -1.9768218259e+03 1.9768218259e+03 0.0000000000e+00 0.0000e+00 -1.0000e+00
      -13  1    1    2    0    0 -1.2657860406e+03 -2.9210045050e+02 +8.5321029729e+02 1.5541894303e+03 0.0000000000e+00 0.0000e+00 1.0000e+00
       13  1    1    2    0    0 +1.2657860406e+03 +2.9210045050e+02 -1.3669238630e+03 1.8857406558e+03 0.0000000000e+00 0.0000e+00 -1.0000e+00
<mgrwt>
<rscale>  0 0.34013552E+04</rscale>
<asrwt>0</asrwt>
<pdfrwt beam="1">  1        2 0.22509358E+00 0.34013552E+04</pdfrwt>
<pdfrwt beam="2">  1       -2 0.30412643E+00 0.34013552E+04</pdfrwt>
<totfact> 0.31095246E-01</totfact>
</mgrwt>
<rwgt>
<wgt id='morphing_basis_vector_1'> +4.5773833e-05 </wgt>
<wgt id='morphing_basis_vector_2'> +5.2392799e-05 </wgt>
<wgt id='morphing_basis_vector_3'> +5.4715162e-05 </wgt>
<wgt id='morphing_basis_vector_4'> +8.6214868e-06 </wgt>
<wgt id='morphing_basis_vector_5'> +4.3769714e-05 </wgt>
</rwgt>
</event>
<event>
 4      1 +1.9882500e-09 3.52622800e+03 7.81860800e-03 7.63189500e-02
        2 -1    0    0  501    0 +0.0000000000e+00 +0.0000000000e+00 +1.8741903961e+03 1.8741903961e+03 0.0000000000e+00 0.0000e+00 -1.0000e+00
       -2 -1    0    0    0  501 -0.0000000000e+00 -0.0000000000e+00 -1.6586208772e+03 1.6586208772e+03 0.0000000000e+00 0.0000e+00 1.0000e+00
      -13  1    1    2    0    0 +1.6179724955e+03 -4.2473504074e+02 -4.5033375612e+02 1.7323496596e+03 0.0000000000e+00 0.0000e+00 1.0000e+00
       13  1    1    2    0    0 -1.6179724955e+03 +4.2473504074e+02 +6.6590327504e+02 1.8004616138e+03 0.0000000000e+00 0.0000e+00 -1.0000e+00
<mgrwt>
<rscale>  0 0.35262282E+04</rscale>
<asrwt>0</asrwt>
<pdfrwt beam="1">  1        2 0.28833699E+00 0.35262282E+04</pdfrwt>
<pdfrwt beam="2">  1       -2 0.25517244E+00 0.35262282E+04</pdfrwt>
<totfact> 0.39124566E-01</totfact>
</mgrwt>
<rwgt>
<wgt id='morphing_basis_vector_1'> +4.2347640e-05 </wgt>
<wgt id='morphing_basis_vector_2'> +2.9656844e-05 </wgt>
<wgt id='morphing_basis_vector_3'> +4.6581208e-05 </wgt>
<wgt id='morphing_basis_vector_4'> +3.1996619e-05 </wgt>
<wgt id='morphing_basis_vector_5'> +5.2431392e-05 </wgt>
</rwgt>
</event>
<event>
 4      1 +1.9882500e-09 3.38743600e+03 7.81860800e-03 7.66141500e-02
        2 -1    0    0  501    0 +0.0000000000e+00 +0.0000000000e+00 +2.3781505062e+03 2.3781505062e+03 0.0000000000e+00 0.0000e+00 -1.0000e+00
       -2 -1    0    0    0  501 -0.0000000000e+00 -0.0000000000e+00 -1.2062652206e+03 1.2062652206e+03 0.0000000000e+00 0.0000e+00 1.0000e+00
      -13  1    1    2    0    0 +7.9064970347e+02 -1.4950168212e+03 +6.8337291266e+02 1.8240616182e+03 0.0000000000e+00 0.0000e+00 1.0000e+00
       13  1    1    2    0    0 -7.9064970347e+02 +1.4950168212e+03 +4.8851237295e+02 1.7603541086e+03 0.0000000000e+00 0.0000e+00 -1.0000e+00
<mgrwt>
<rscale>  0 0.33874358E+04</rscale>
<asrwt>0</asrwt>
<pdfrwt beam="1">  1        2 0.36586931E+00 0.33874358E+04</pdfrwt>
<pdfrwt beam="2">  1       -2 0.18557927E+00 0.33874358E+04</pdfrwt>
<totfact> 0.64017898E-01</totfact>
</mgrwt>
<rwgt>
<wgt id='morphing_basis_vector_1'> +3.7314799e-05 </wgt>
<wgt id='morphing_basis_vector_2'> +2.8832130e-05 </wgt>
<wgt id='morphing_basis_vector_3'> +4.1590024e-05 </wgt>
<wgt id='morphing_basis_vector_4'> +2.4678774e-05 </wgt>
<wgt id='morphing_basis_vector_5'> +4.4393358e-05 </wgt>
</rwgt>
</event>
<event>
 4      1 +1.9882500e-09 3.25936800e+03 7.81860800e-03 7.68997600e-02
        2 -1    0    0  501    0 +0.0000000000e+00 +0.0000000000e+00 +1.4907032639e+03 1.4907032639e+03 0.0000000000e+00 0.0000e+00 -1.0000e+00
       -2 -1    0    0    0  501 -0.0000000000e+00 -0.0000000000e+00 -1.7816219141e+03 1.7816219141e+03 0.0000000000e+00 0.0000e+00 1.0000e+00
      -13  1    1    2    0    0 -6.9588188789e+02 -3.2041726432e+02 -1.5895623023e+03 1.7645472898e+03 0.0000000000e+00 0.0000e+00 1.0000e+00
       13  1    1    2    0    0 +6.9588188789e+02 +3.2041726432e+02 +1.2986436520e+03 1.5077778882e+03 0.0000000000e+00 0.0000e+00 -1.0000e+00
<mgrwt>
<rscale>  0 0.32593678E+04</rscale>
<asrwt>0</asrwt>
<pdfrwt beam="1">  1        2 0.22933896E+00 0.32593678E+04</pdfrwt>
<pdfrwt beam="2">  1       -2 0.27409568E+00 0.32593678E+04</pdfrwt>
<totfact> 0.48522050E-01</totfact>
</mgrwt>
<rwgt>
<wgt id='morphing_basis_vector_1'> +3.0657669e-05 </wgt>
<wgt id='morphing_basis_vector_2'> +2.0717529e-05 </wgt>
<wgt id='morphing_basis_vector_3'> +3.3494214e-05 </wgt>
<wgt id='morphing_basis_vector_4'> +2.3983241e-05 </wgt>
<wgt id='morphing_basis_vector_5'> +3.8244885e-05 </wgt>
</rwgt>
</event>
<event>
 4      1 +1.9882500e-09 3.54495900e+03 7.81860800e-03 7.62801800e-02
        2 -1    0    0  501    0 +0.0000000000e+00 +0.0000000000e+00 +1.8993714966e+03 1.8993714966e+03 0.0000000000e+00 0.0000e+00 1.0000e+00
       -2 -1    0    0    0  501 -0.0000000000e+00 -0.0000000000e+00 -1.6540645820e+03 1.6540645820e+03 0.0000000000e+00 0.0000e+00 -1.0000e+00
      -13  1    1    2    0    0 -6.8602791843e+02 +1.3717218991e+03 +1.0132757132e+03 1.8382010076e+03 0.0000000000e+00 0.0000e+00 -1.0000e+00
       13  1    1    2    0    0 +6.8602791843e+02 -1.3717218991e+03 -7.6796879849e+02 1.7152350710e+03 0.0000000000e+00 0.0000e+00 1.0000e+00
<mgrwt>
<rscale>  0 0.35449587E+04</rscale>
<asrwt>0</asrwt>
<pdfrwt beam="1">  1        2 0.29221100E+00 0.35449587E+04</pdfrwt>
<pdfrwt beam="2">  1       -2 0.25447147E+00 0.35449587E+04</pdfrwt>
<totfact> 0.38242162E-01</totfact>
</mgrwt>
<rwgt>
<wgt id='morphing_basis_vector_1'> +5.0712802e-05 </wgt>
<wgt id='morphing_basis_vector_2'> +5.2245468e-05 </wgt>
<wgt id='morphing_basis_vector_3'> +5.9451317e-05 </wgt>
<wgt id='morphing_basis_vector_4'> +1.6985080e-05 </wgt>
<wgt id='morphing_basis_vector_5'> +5.2259618e-05 </wgt>
</rwgt>
</event>
<event>
 4      1 +1.9882500e-09 3.32312600e+03 7.81860800e-03 7.67559100e-02
        2 -1    0    0  501    0 +0.0000000000e+00 +0.0000000000e+00 +3.1932862470e+03 3.1932862470e+03 0.0000000000e+00 0.0000e+00 -1.0000e+00
       -2 -1    0    0    0  501 -0.0000000000e+00 -0.0000000000e+00 -8.6456131265e+02 8.6456131265e+02 0.0000000000e+00 0.0000e+00 1.0000e+00
      -13  1    1    2    0    0 +4.2708200017e+02 +6.2511268858e+02 -6.4171148757e+02 9.9245077539e+02 0.0000000000e+00 0.0000e+00 1.0000e+00
       13  1    1    2    0    0 -4.2708200017e+02 -6.2511268858e+02 +2.9704364220e+03 3.0653967843e+03 0.0000000000e+00 0.0000e+00 -1.0000e+00
<mgrwt>
<rscale>  0 0.33231261E+04</rscale>
<asrwt>0</asrwt>
<pdfrwt beam="1">  1        2 0.49127480E+00 0.33231261E+04</pdfrwt>
<pdfrwt beam="2">  1       -2 0.13300943E+00 0.33231261E+04</pdfrwt>
<totfact> 0.52624419E-01</totfact>
</mgrwt>
<rwgt>
<wgt id='morphing_basis_vector_1'> +3.3107749e-05 </wgt>
<wgt id='morphing_basis_vector_2'> +2.2379511e-05 </wgt>
<wgt id='morphing_basis_vector_3'> +3.6190321e-05 </wgt>
<wgt id='morphing_basis_vector_4'> +2.5931462e-05 </wgt>
<wgt id='morphing_basis_vector_5'> +4.1350028e-05 </wgt>
</rwgt>
</event>
<event>
 4      1 +1.9882500e-09 3.38914200e+03 7.81860800e-03 7.66104400e-02
        2 -1    0    0  501    0 +0.0000000000e+00 +0.0000000000e+00 +1.1651858161e+03 1.1651858161e+03 0.0000000000e+00 0.0000e+00 1.0000e+00
       -2 -1    0    0    0  501 -0.0000000000e+00 -0.0000000000e+00 -2.4644745255e+03 2.4644745255e+03 0.0000000000e+00 0.0000e+00 -1.0000e+00
      -13  1    1    2    0    0 -6.3171286838e+01 +1.6930982687e+03 -6.1580446047e+02 1.8027166978e+03 0.0000000000e+00 0.0000e+00 -1.0000e+00
       13  1    1    2    0    0 +6.3171286838e+01 -1.6930982687e+03 -6.8348424898e+02 1.8269436438e+03 0.0000000000e+00 0.0000e+00 1.0000e+00
<mgrwt>
<rscale>  0 0.33891419E+04</rscale>
<asrwt>0</asrwt>
<pdfrwt beam="1">  1        2 0.17925936E+00 0.33891419E+04</pdfrwt>
<pdfrwt beam="2">  1       -2 0.37914992E+00 0.33891419E+04</pdfrwt>
<totfact> 0.14867522E-01</totfact>
</mgrwt>
<rwgt>
<wgt id='morphing_basis_vector_1'> +3.7199183e-05 </wgt>
<wgt id='morphing_basis_vector_2'> +2.8330079e-05 </wgt>
<wgt id='morphing_basis_vector_3'> +4.1372350e-05 </wgt>
<wgt id='morphing_basis_vector_4'> +2.5128225e-05 </wgt>
<wgt id='morphing_basis_vector_5'> +4.4516525e-05 </wgt>
</rwgt>
</event>
<event>
 4      1 +1.9882500e-09 3.34397700e+03 7.81860800e-03 7.67095900e-02
        2 -1    0    0  501    0 +0.0000000000e+00 +0.0000000000e+00 +2.5927866388e+03 2.5927866388e+03 0.0000000000e+00 0.0000e+00 1.0000e+00
       -2 -1    0    0    0  501 -0.0000000000e+00 -0.0000000000e+00 -1.0782014070e+03 1.0782014070e+03 0.0000000000e+00 0.0000e+00 -1.0000e+00
      -13  1    1    2    0    0 +1.1663760695e+03 +6.1449871153e+02 -3.7162104643e+02 1.3697240613e+03 0.0000000000e+00 0.0000e+00 -1.0000e+00
       13  1    1    2    0    0 -1.1663760695e+03 -6.1449871153e+02 +1.8862062782e+03 2.3012639844e+03 0.0000000000e+00 0.0000e+00 1.0000e+00
<mgrwt>
<rscale>  0 0.33439774E+04</rscale>
<asrwt>0</asrwt>
<pdfrwt beam="1">  1        2 0.39889025E+00 0.33439774E+04</pdfrwt>
<pdfrwt beam="2">  1       -2 0.16587714E+00 0.33439774E+04</pdfrwt>
<totfact> 0.67803792E-01</totfact>
</mgrwt>
<rwgt>
<wgt id='morphing_basis_vector_1'> +3.4013790e-05 </wgt>
<wgt id='morphing_basis_vector_2'> +2.3161068e-05 </wgt>
<wgt id='morphing_basis_vector_3'> +3.7223049e-05 </wgt>
<wgt id='morphing_basis_vector_4'> +2.6439006e-05 </wgt>
<wgt id='morphing_basis_vector_5'> +4.2392515e-05 </wgt>
</rwgt>
</event>
<event>
 4      1 +1.9882500e-09 3.76064100e+03 7.81860800e-03 7.58507000e-02
        2 -1    0    0  501    0 +0.0000000000e+00 +0.0000000000e+00 +2.7049813070e+03 2.7049813070e+03 0.0000000000e+00 0.0000e+00 -1.0000e+00
       -2 -1    0    0    0  501 -0.0000000000e+00 -0.0000000000e+00 -1.3070720156e+03 1.3070720156e+03 0.0000000000e+00 0.0000e+00 1.0000e+00
      -13  1    1    2    0    0 +2.6990254652e+02 -1.0416819838e+03 -9.4609639140e+02 1.4328458123e+03 0.0000000000e+00 0.0000e+00 1.0000e+00
       13  1    1    2    0    0 -2.6990254652e+02 +1.0416819838e+03 +2.3440056828e+03 2.5792075103e+03 0.0000000000e+00 0.0000e+00 -1.0000e+00
<mgrwt>
<rscale>  0 0.37606411E+04</rscale>
<asrwt>0</asrwt>
<pdfrwt beam="1">  1        2 0.41615097E+00 0.37606411E+04</pdfrwt>
<pdfrwt beam="2">  1       -2 0.20108800E+00 0.37606411E+04</pdfrwt>
<totfact> 0.30320306E-01</totfact>
</mgrwt>
<rwgt>
<wgt id='morphing_basis_vector_1'> +5.4136669e-05 </wgt>
<wgt id='morphing_basis_vector_2'> +3.6697747e-05 </wgt>
<wgt id='morphing_basis_vector_3'> +5.9363394e-05 </wgt>
<wgt id='morphing_basis_vector_4'> +4.2630584e-05 </wgt>
<wgt id='morphing_basis_vector_5'> +6.8028567e-05 </wgt>
</rwgt>
</event>
<event>
 4      1 +1.9882500e-09 3.27380000e+03 7.81860800e-03 7.68669000e-02
        2 -1    0    0  501    0 +0.0000000000e+00 +0.0000000000e+00 +1.7740061840e+03 1.7740061840e+03 0.0000000000e+00 0.0000e+00 -1.0000e+00
       -2 -1    0    0    0  501 -0.0000000000e+00 -0.0000000000e+00 -1.5103901707e+03 1.5103901707e+03 0.0000000000e+00 0.0000e+00 1.0000e+00
      -13  1    1    2    0    0 +1.2275048567e+03 +1.3134046393e+02 -9.4657722658e+02 1.5556435763e+03 0.0000000000e+00 0.0000e+00 1.0000e+00
       13  1    1    2    0    0 -1.2275048567e+03 -1.3134046393e+02 +1.2101932399e+03 1.7287527783e+03 0.0000000000e+00 0.0000e+00 -1.0000e+00
<mgrwt>
<rscale>  0 0.32737999E+04</rscale>
<asrwt>0</asrwt>
<pdfrwt beam="1">  1        2 0.27292403E+00 0.32737999E+04</pdfrwt>
<pdfrwt beam="2">  1       -2 0.23236772E+00 0.32737999E+04</pdfrwt>
<totfact> 0.65433368E-01</totfact>
</mgrwt>
<rwgt>
<wgt id='morphing_basis_vector_1'> +3.1249501e-05 </wgt>
<wgt id='morphing_basis_vector_2'> +2.1231292e-05 </wgt>
<wgt id='morphing_basis_vector_3'> +3.4169175e-05 </wgt>
<wgt id='morphing_basis_vector_4'> +2.4310440e-05 </wgt>
<wgt id='morphing_basis_vector_5'> +3.8923356e-05 </wgt>
</rwgt>
</event>
<event>
 4      1 +1.9882500e-09 3.35222800e+03 7.81860800e-03 7.66913600e-02
        2 -1    0    0  501    0 +0.0000000000e+00 +0.0000000000e+00 +2.3812749596e+03 2.3812749596e+03 0.0000000000e+00 0.0000e+00 1.0000e+00
       -2 -1    0    0    0  501 -0.0000000000e+00 -0.0000000000e+00 -1.1797706790e+03 1.1797706790e+03 0.0000000000e+00 0.0000e+00 -1.0000e+00
      -13  1    1    2    0    0 +4.2758459898e+02 +1.4458014696e+03 -1.7710971584e+02 1.5180705947e+03 0.0000000000e+00 0.0000e+00 -1.0000e+00
       13  1    1    2    0    0 -4.2758459898e+02 -1.4458014696e+03 +1.3786139965e+03 2.0429750440e+03 0.0000000000e+00 0.0000e+00 1.0000e+00
<mgrwt>
<rscale>  0 0.33522281E+04</rscale>
<asrwt>0</asrwt>
<pdfrwt beam="1">  1        2 0.36634999E+00 0.33522281E+04</pdfrwt>
<pdfrwt beam="2">  1       -2 0.18150318E+00 0.33522281E+04</pdfrwt>
<totfact> 0.68617321E-01</totfact>
</mgrwt>
<rwgt>
<wgt id='morphing_basis_vector_1'> +3.4480486e-05 </wgt>
<wgt id='morphing_basis_vector_2'> +2.3778900e-05 </wgt>
<wgt id='morphing_basis_vector_3'> +3.7800925e-05 </wgt>
<wgt id='morphing_basis_vector_4'> +2.6425435e-05 </wgt>
<wgt id='morphing_basis_vector_5'> +4.2792517e-05 </wgt>
</rwgt>
</event>
<event>
 4      1 +1.9882500e-09 3.35244900e+03 7.81860800e-03 7.66908700e-02
        2 -1    0    0  501    0 +0.0000000000e+00 +0.0000000000e+00 +3.5260609311e+03 3.5260609311e+03 0.0000000000e+00 0.0000e+00 1.0000e+00
       -2 -1    0    0    0  501 -0.0000000000e+00 -0.0000000000e+00 -7.9684620868e+02 7.9684620868e+02 0.0000000000e+00 0.0000e+00 -1.0000e+00
      -13  1    1    2    0    0 +5.9933519677e+02 +1.3063674794e+03 +2.4767991213e+03 2.8636222790e+03 0.0000000000e+00 0.0000e+00 -1.0000e+00
       13  1    1    2    0    0 -5.9933519677e+02 -1.3063674794e+03 +2.5241560110e+02 1.4592848608e+03 0.0000000000e+00 0.0000e+00 1.0000e+00
<mgrwt>
<rscale>  0 0.33524488E+04</rscale>
<asrwt>0</asrwt>
<pdfrwt beam="1">  1        2 0.54247090E+00 0.33524488E+04</pdfrwt>
<pdfrwt beam="2">  1       -2 0.12259173E+00 0.33524488E+04</pdfrwt>
<totfact> 0.37934081E-01</totfact>
</mgrwt>
<rwgt>
<wgt id='morphing_basis_vector_1'> +4.0850738e-05 </wgt>
<wgt id='morphing_basis_vector_2'> +4.2503231e-05 </wgt>
<wgt id='morphing_basis_vector_3'> +4.7880848e-05 </wgt>
<wgt id='morphing_basis_vector_4'> +1.3092250e-05 </wgt>
<wgt id='morphing_basis_vector_5'> +4.1700635e-05 </wgt>
</rwgt>
</event>
<event>
 4      1 +1.9882500e-09 3.28288200e+03 7.81860800e-03 7.68463100e-02
        2 -1    0    0  501    0 +0.0000000000e+00 +0.0000000000e+00 +3.8242481960e+03 3.8242481960e+03 0.0000000000e+00 0.0000e+00 1.0000e+00
       -2 -1    0    0    0  501 -0.0000000000e+00 -0.0000000000e+00 -7.0453829768e+02 7.0453829768e+02 0.0000000000e+00 0.0000e+00 -1.0000e+00
      -13  1    1    2    0    0 -7.6326680214e+02 +7.6937304732e+02 -1.4082399873e+02 1.0928597787e+03 0.0000000000e+00 0.0000e+00 -1.0000e+00
       13  1    1    2    0    0 +7.6326680214e+02 -7.6937304732e+02 +3.2605338971e+03 3.4359267150e+03 0.0000000000e+00 0.0000e+00 1.0000e+00
<mgrwt>
<rscale>  0 0.32828825E+04</rscale>
<asrwt>0</asrwt>
<pdfrwt beam="1">  1        2 0.58834586E+00 0.32828825E+04</pdfrwt>
<pdfrwt beam="2">  1       -2 0.10839051E+00 0.32828825E+04</pdfrwt>
<totfact> 0.30819302E-01</totfact>
</mgrwt>
<rwgt>
<wgt id='morphing_basis_vector_1'> +3.1566017e-05 </wgt>
<wgt id='morphing_basis_vector_2'> +2.1381662e-05 </wgt>
<wgt id='morphing_basis_vector_3'> +3.4503853e-05 </wgt>
<wgt id='morphing_basis_vector_4'> +2.4644150e-05 </wgt>
<wgt id='morphing_basis_vector_5'> +3.9365354e-05 </wgt>
</rwgt>
</event>
<event>
 4      1 +1.9882500e-09 3.58992400e+03 7.81860800e-03 7.61881000e-02
        2 -1    0    0  501    0 +0.0000000000e+00 +0.0000000000e+00 +2.6437225892e+03 2.6437225892e+03 0.0000000000e+00 0.0000e+00 -1.0000e+00
       -2 -1    0    0    0  501 -0.0000000000e+00 -0.0000000000e+00 -1.2186940399e+03 1.2186940399e+03 0.0000000000e+00 0.0000e+00 1.0000e+00
      -13  1    1    2    0    0 -3.0481879054e+02 +1.2180722199e+03 -6.6753001981e+02 1.4220445687e+03 0.0000000000e+00 0.0000e+00 1.0000e+00
       13  1    1    2    0    0 +3.0481879054e+02 -1.2180722199e+03 +2.0925585691e+03 2.4403720604e+03 0.0000000000e+00 0.0000e+00 -1.0000e+00
<mgrwt>
<rscale>  0 0.35899242E+04</rscale>
<asrwt>0</asrwt>
<pdfrwt beam="1">  1        2 0.40672655E+00 0.35899242E+04</pdfrwt>
<pdfrwt beam="2">  1       -2 0.18749139E+00 0.35899242E+04</pdfrwt>
<totfact> 0.42248991E-01</totfact>
</mgrwt>
<rwgt>
<wgt id='morphing_basis_vector_1'> +4.5039271e-05 </wgt>
<wgt id='morphing_basis_vector_2'> +3.0584385e-05 </wgt>
<wgt id='morphing_basis_vector_3'> +4.9352092e-05 </wgt>
<wgt id='morphing_basis_vector_4'> +3.5294150e-05 </wgt>
<wgt id='morphing_basis_vector_5'> +5.6424202e-05 </wgt>
</rwgt>
</event>
<event>
 4      1 +1.9882500e-09 3.82490000e+03 7.81860800e-03 7.57284100e-02
        2 -1    0    0  501    0 +0.0000000000e+00 +0.0000000000e+00 +2.2261537351e+03 2.2261537351e+03 0.0000000000e+00 0.0000e+00 -1.0000e+00
       -2 -1    0    0    0  501 -0.0000000000e+00 -0.0000000000e+00 -1.6429526961e+03 1.6429526961e+03 0.0000000000e+00 0.0000e+00 1.0000e+00
      -13  1    1    2    0    0 +1.5981833486e+03 +2.2724468225e+02 -7.4574423501e+02 1.7781913917e+03 0.0000000000e+00 0.0000e+00 1.0000e+00
       13  1    1    2    0    0 -1.5981833486e+03 -2.2724468225e+02 +1.3289452740e+03 2.0909150396e+03 0.0000000000e+00 0.0000e+00 -1.0000e+00
<mgrwt>
<rscale>  0 0.38249001E+04</rscale>
<asrwt>0</asrwt>
<pdfrwt beam="1">  1        2 0.34248519E+00 0.38249001E+04</pdfrwt>
<pdfrwt beam="2">  1       -2 0.25276195E+00 0.38249001E+04</pdfrwt>
<totfact> 0.25084633E-01</totfact>
</mgrwt>
<rwgt>
<wgt id='morphing_basis_vector_1'> +5.8100580e-05 </wgt>
<wgt id='morphing_basis_vector_2'> +3.9824096e-05 </wgt>
<wgt id='morphing_basis_vector_3'> +6.3828550e-05 </wgt>
<wgt id='morphing_basis_vector_4'> +4.5235071e-05 </wgt>
<wgt id='morphing_basis_vector_5'> +7.2792661e-05 </wgt>
</rwgt>
</event>
<event>
 4      1 +1.9882500e-09 3.34212400e+03 7.81860800e-03 7.67137000e-02
        2 -1    0    0  501    0 +0.0000000000e+00 +0.0000000000e+00 +1.9008842040e+03 1.9008842040e+03 0.0000000000e+00 0.0000e+00 -1.0000e+00
       -2 -1    0    0    0  501 -0.0000000000e+00 -0.0000000000e+00 -1.4690257662e+03 1.4690257662e+03 0.0000000000e+00 0.0000e+00 1.0000e+00
      -13  1    1    2    0    0 -7.9337488650e+02 +1.4414577926e+03 -7.8394137617e+01 1.6472370561e+03 0.0000000000e+00 0.0000e+00 1.0000e+00
       13  1    1    2    0    0 +7.9337488650e+02 -1.4414577926e+03 +5.1025257539e+02 1.7226729141e+03 0.0000000000e+00 0.0000e+00 -1.0000e+00
<mgrwt>
<rscale>  0 0.33421238E+04</rscale>
<asrwt>0</asrwt>
<pdfrwt beam="1">  1        2 0.29244372E+00 0.33421238E+04</pdfrwt>
<pdfrwt beam="2">  1       -2 0.22600396E+00 0.33421238E+04</pdfrwt>
<totfact> 0.61278226E-01</totfact>
</mgrwt>
<rwgt>
<wgt id='morphing_basis_vector_1'> +3.4507750e-05 </wgt>
<wgt id='morphing_basis_vector_2'> +2.4783544e-05 </wgt>
<wgt id='morphing_basis_vector_3'> +3.8040734e-05 </wgt>
<wgt id='morphing_basis_vector_4'> +2.5187485e-05 </wgt>
<wgt id='morphing_basis_vector_5'> +4.2199323e-05 </wgt>
</rwgt>
</event>
<event>
 4      1 +1.9882500e-09 3.28177700e+03 7.81860800e-03 7.68488200e-02
        2 -1    0    0  501    0 +0.0000000000e+00 +0.0000000000e+00 +2.1879813521e+03 2.1879813521e+03 0.0000000000e+00 0.0000e+00 -1.0000e+00
       -2 -1    0    0    0  501 -0.0000000000e+00 -0.0000000000e+00 -1.2305929063e+03 1.2305929063e+03 0.0000000000e+00 0.0000e+00 1.0000e+00
      -13  1    1    2    0    0 -7.9195933019e+01 +1.5720837347e+03 +9.6147299013e+02 1.8444916849e+03 0.0000000000e+00 0.0000e+00 1.0000e+00
       13  1    1    2    0    0 +7.9195933019e+01 -1.5720837347e+03 -4.0845442392e+00 1.5740825735e+03 0.0000000000e+00 0.0000e+00 -1.0000e+00
<mgrwt>
<rscale>  0 0.32817765E+04</rscale>
<asrwt>0</asrwt>
<pdfrwt beam="1">  1        2 0.33661251E+00 0.32817765E+04</pdfrwt>
<pdfrwt beam="2">  1       -2 0.18932199E+00 0.32817765E+04</pdfrwt>
<totfact> 0.78040074E-01</totfact>
</mgrwt>
<rwgt>
<wgt id='morphing_basis_vector_1'> +3.4534614e-05 </wgt>
<wgt id='morphing_basis_vector_2'> +3.0213640e-05 </wgt>
<wgt id='morphing_basis_vector_3'> +3.9214135e-05 </wgt>
<wgt id='morphing_basis_vector_4'> +1.8304719e-05 </wgt>
<wgt id='morphing_basis_vector_5'> +3.8791007e-05 </wgt>
</rwgt>
</event>
<event>
 4      1 +1.9882500e-09 3.52794300e+03 7.81860800e-03 7.63153900e-02
        2 -1    0    0  501    0 +0.0000000000e+00 +0.0000000000e+00 +1.9386212185e+03 1.9386212185e+03 0.0000000000e+00 0.0000e+00 -1.0000e+00
       -2 -1    0    0    0  501 -0.0000000000e+00 -0.0000000000e+00 -1.6050556460e+03 1.6050556460e+03 0.0000000000e+00 0.0000e+00 1.0000e+00
      -13  1    1    2    0    0 +1.0174312618e+03 -1.3614881457e+03 +6.4088208638e+02 1.8164653016e+03 0.0000000000e+00 0.0000e+00 1.0000e+00
       13  1    1    2    0    0 -1.0174312618e+03 +1.3614881457e+03 -3.0731651389e+02 1.7272115629e+03 0.0000000000e+00 0.0000e+00 -1.0000e+00
<mgrwt>
<rscale>  0 0.35279427E+04</rscale>
<asrwt>0</asrwt>
<pdfrwt beam="1">  1        2 0.29824942E+00 0.35279427E+04</pdfrwt>
<pdfrwt beam="2">  1       -2 0.24693164E+00 0.35279427E+04</pdfrwt>
<totfact> 0.41048381E-01</totfact>
</mgrwt>
<rwgt>
<wgt id='morphing_basis_vector_1'> +4.5838956e-05 </wgt>
<wgt id='morphing_basis_vector_2'> +3.9743268e-05 </wgt>
<wgt id='morphing_basis_vector_3'> +5.2092847e-05 </wgt>
<wgt id='morphing_basis_vector_4'> +2.4889253e-05 </wgt>
<wgt id='morphing_basis_vector_5'> +5.1939695e-05 </wgt>
</rwgt>
</event>
<event>
 4      1 +1.9882500e-09 3.40056900e+03 7.81860800e-03 7.65856000e-02
        2 -1    0    0  501    0 +0.0000000000e+00 +0.0000000000e+00 +2.2873926194e+03 2.2873926194e+03 0.0000000000e+00 0.0000e+00 -1.0000e+00
       -2 -1    0    0    0  501 -0.0000000000e+00 -0.0000000000e+00 -1.2638701925e+03 1.2638701925e+03 0.0000000000e+00 0.0000e+00 1.0000e+00
      -13  1    1    2    0    0 -1.4847084119e+03 -6.6529052823e+02 +1.0276110358e+03 1.9243063675e+03 0.0000000000e+00 0.0000e+00 1.0000e+00
       13  1    1    2    0    0 +1.4847084119e+03 +6.6529052823e+02 -4.0886089676e+00 1.6269564444e+03 0.0000000000e+00 0.0000e+00 -1.0000e+00
<mgrwt>
<rscale>  0 0.34005690E+04</rscale>
<asrwt>0</asrwt>
<pdfrwt beam="1">  1        2 0.35190656E+00 0.34005690E+04</pdfrwt>
<pdfrwt beam="2">  1       -2 0.19444157E+00 0.34005690E+04</pdfrwt>
<totfact> 0.62052667E-01</totfact>
</mgrwt>
<rwgt>
<wgt id='morphing_basis_vector_1'> +3.9863915e-05 </wgt>
<wgt id='morphing_basis_vector_2'> +3.5079937e-05 </wgt>
<wgt id='morphing_basis_vector_3'> +4.5363528e-05 </wgt>
<wgt id='morphing_basis_vector_4'> +2.0929099e-05 </wgt>
<wgt id='morphing_basis_vector_5'> +4.4748212e-05 </wgt>
</rwgt>
</event>
<event>
 4      1 +1.9882500e-09 3.38269800e+03 7.81860800e-03 7.66244900e-02
        2 -1    0    0  501    0 +0.0000000000e+00 +0.0000000000e+00 +2.3230507074e+03 2.3230507074e+03 0.0000000000e+00 0.0000e+00 -1.0000e+00
       -2 -1    0    0    0  501 -0.0000000000e+00 -0.0000000000e+00 -1.2314243936e+03 1.2314243936e+03 0.0000000000e+00 0.0000e+00 1.0000e+00
      -13  1    1    2    0    0 +3.5971832859e+02 +1.5254924289e+03 -1.2218690541e+02 1.5720858966e+03 0.0000000000e+00 0.0000e+00 1.0000e+00
       13  1    1    2    0    0 -3.5971832859e+02 -1.5254924289e+03 +1.2138132191e+03 1.9823892043e+03 0.0000000000e+00 0.0000e+00 -1.0000e+00
<mgrwt>
<rscale>  0 0.33826979E+04</rscale>
<asrwt>0</asrwt>
<pdfrwt beam="1">  1        2 0.35739242E+00 0.33826979E+04</pdfrwt>
<pdfrwt beam="2">  1       -2 0.18944991E+00 0.33826979E+04</pdfrwt>
<totfact> 0.64529354E-01</totfact>
</mgrwt>
<rwgt>
<wgt id='morphing_basis_vector_1'> +3.5814712e-05 </wgt>
<wgt id='morphing_basis_vector_2'> +2.4866612e-05 </wgt>
<wgt id='morphing_basis_vector_3'> +3.9308839e-05 </wgt>
<wgt id='morphing_basis_vector_4'> +2.7253544e-05 </wgt>
<wgt id='morphing_basis_vector_5'> +4.4368322e-05 </wgt>
</rwgt>
</event>
<event>
 4      1 +1.9882500e-09 3.52546500e+03 7.81860800e-03 7.63205300e-02
        2 -1    0    0  501    0 +0.0000000000e+00 +0.0000000000e+00 +2.4540229377e+03 2.4540229377e+03 0.0000000000e+00 0.0000e+00 -1.0000e+00
       -2 -1    0    0    0  501 -0.0000000000e+00 -0.0000000000e+00 -1.2661765967e+03 1.2661765967e+03 0.0000000000e+00 0.0000e+00 1.0000e+00
      -13  1    1    2    0    0 +1.3584277684e+02 +1.7563216395e+03 +5.2629371028e+02 1.8385059236e+03 0.0000000000e+00 0.0000e+00 1.0000e+00
       13  1    1    2    0    0 -1.3584277684e+02 -1.7563216395e+03 +6.6155263071e+02 1.8816936108e+03 0.0000000000e+00 0.0000e+00 -1.0000e+00
<mgrwt>
<rscale>  0 0.35254653E+04</rscale>
<asrwt>0</asrwt>
<pdfrwt beam="1">  1        2 0.37754199E+00 0.35254653E+04</pdfrwt>
<pdfrwt beam="2">  1       -2 0.19479640E+00 0.35254653E+04</pdfrwt>
<totfact> 0.48753098E-01</totfact>
</mgrwt>
<rwgt>
<wgt id='morphing_basis_vector_1'> +4.3211658e-05 </wgt>
<wgt id='morphing_basis_vector_2'> +3.2279837e-05 </wgt>
<wgt id='morphing_basis_vector_3'> +4.7972492e-05 </wgt>
<wgt id='morphing_basis_vector_4'> +3.0075274e-05 </wgt>
<wgt id='morphing_basis_vector_5'> +5.2228779e-05 </wgt>
</rwgt>
</event>
<event>
 4      1 +1.9882500e-09 3.32369500e+03 7.81860800e-03 7.67546400e-02
        2 -1    0    0  501    0 +0.0000000000e+00 +0.0000000000e+00 +3.3035807382e+03 3.3035807382e+03 0.0000000000e+00 0.0000e+00 -1.0000e+00
       -2 -1    0    0    0  501 -0.0000000000e+00 -0.0000000000e+00 -8.3598294974e+02 8.3598294974e+02 0.0000000000e+00 0.0000e+00 1.0000e+00
      -13  1    1    2    0    0 +1.4841990326e+03 -7.4148041108e+02 +1.3525909280e+03 2.1405938865e+03 0.0000000000e+00 0.0000e+00 1.0000e+00
       13  1    1    2    0    0 -1.4841990326e+03 +7.4148041108e+02 +1.1150068605e+03 1.9989698015e+03 0.0000000000e+00 0.0000e+00 -1.0000e+00
<mgrwt>
<rscale>  0 0.33236950E+04</rscale>
<asrwt>0</asrwt>
<pdfrwt beam="1">  1        2 0.50824318E+00 0.33236950E+04</pdfrwt>
<pdfrwt beam="2">  1       -2 0.12861276E+00 0.33236950E+04</pdfrwt>
<totfact> 0.48351765E-01</totfact>
</mgrwt>
<rwgt>
<wgt id='morphing_basis_vector_1'> +3.4619335e-05 </wgt>
<wgt id='morphing_basis_vector_2'> +2.6776706e-05 </wgt>
<wgt id='morphing_basis_vector_3'> +3.8570477e-05 </wgt>
<wgt id='morphing_basis_vector_4'> +2.2828170e-05 </wgt>
<wgt id='morphing_basis_vector_5'> +4.1120548e-05 </wgt>
</rwgt>
</event>
<event>
 4      1 +1.9882500e-09 3.24820200e+03 7.81860800e-03 7.69253000e-02
        2 -1    0    0  501    0 +0.0000000000e+00 +0.0000000000e+00 +1.7991600300e+03 1.7991600300e+03 0.0000000000e+00 0.0000e+00 -1.0000e+00
       -2 -1    0    0    0  501 -0.0000000000e+00 -0.0000000000e+00 -1.4660751507e+03 1.4660751507e+03 0.0000000000e+00 0.0000e+00 1.0000e+00
      -13  1    1    2    0    0 -2.8805250039e+02 +5.2388002318e+02 -1.3514355674e+03 1.4777694727e+03 0.0000000000e+00 0.0000e+00 1.0000e+00
       13  1    1    2    0    0 +2.8805250039e+02 -5.2388002318e+02 +1.6845204467e+03 1.7874657079e+03 0.0000000000e+00 0.0000e+00 -1.0000e+00
<mgrwt>
<rscale>  0 0.32482018E+04</rscale>
<asrwt>0</asrwt>
<pdfrwt beam="1">  1        2 0.27679385E+00 0.32482018E+04</pdfrwt>
<pdfrwt beam="2">  1       -2 0.22555002E+00 0.32482018E+04</pdfrwt>
<totfact> 0.70906230E-01</totfact>
</mgrwt>
<rwgt>
<wgt id='morphing_basis_vector_1'> +3.0239762e-05 </wgt>
<wgt id='morphing_basis_vector_2'> +2.0426656e-05 </wgt>
<wgt id='morphing_basis_vector_3'> +3.3032851e-05 </wgt>
<wgt id='morphing_basis_vector_4'> +2.3660513e-05 </wgt>
<wgt id='morphing_basis_vector_5'> +3.7720146e-05 </wgt>
</rwgt>
</event>
<event>
 4      1 +1.9882500e-09 3.29051500e+03 7.81860800e-03 7.68290700e-02
        2 -1    0    0  501    0 +0.0000000000e+00 +0.0000000000e+00 +2.5263171501e+03 2.5263171501e+03 0.0000000000e+00 0.0000e+00 -1.0000e+00
       -2 -1    0    0    0  501 -0.0000000000e+00 -0.0000000000e+00 -1.0714695506e+03 1.0714695506e+03 0.0000000000e+00 0.0000e+00 1.0000e+00
      -13  1    1    2    0    0 -3.0311024336e+02 +8.4006714912e+02 -7.8337540525e+02 1.1879670283e+03 0.0000000000e+00 0.0000e+00 1.0000e+00
       13  1    1    2    0    0 +3.0311024336e+02 -8.4006714912e+02 +2.2382230048e+03 2.4098196725e+03 0.0000000000e+00 0.0000e+00 -1.0000e+00
<mgrwt>
<rscale>  0 0.32905148E+04</rscale>
<asrwt>0</asrwt>
<pdfrwt beam="1">  1        2 0.38866417E+00 0.32905148E+04</pdfrwt>
<pdfrwt beam="2">  1       -2 0.16484147E+00 0.32905148E+04</pdfrwt>
<totfact> 0.76103240E-01</totfact>
</mgrwt>
<rwgt>
<wgt id='morphing_basis_vector_1'> +3.1841995e-05 </wgt>
<wgt id='morphing_basis_vector_2'> +2.1532451e-05 </wgt>
<wgt id='morphing_basis_vector_3'> +3.4799828e-05 </wgt>
<wgt id='morphing_basis_vector_4'> +2.4910052e-05 </wgt>
<wgt id='morphing_basis_vector_5'> +3.9738263e-05 </wgt>
</rwgt>
</event>
<event>
 4      1 +1.9882500e-09 3.31454100e+03 7.81860800e-03 7.67750900e-02
        2 -1    0    0  501    0 +0.0000000000e+00 +0.0000000000e+00 +2.0419642415e+03 2.0419642415e+03 0.0000000000e+00 0.0000e+00 -1.0000e+00
       -2 -1    0    0    0  501 -0.0000000000e+00 -0.0000000000e+00 -1.3450507967e+03 1.3450507967e+03 0.0000000000e+00 0.0000e+00 1.0000e+00
      -13  1    1    2    0    0 +4.9723903848e+02 +9.3048215725e+02 +1.6544879015e+03 1.9622369690e+03 0.0000000000e+00 0.0000e+00 1.0000e+00
       13  1    1    2    0    0 -4.9723903848e+02 -9.3048215725e+02 -9.5757445664e+02 1.4247780692e+03 0.0000000000e+00 0.0000e+00 -1.0000e+00
<mgrwt>
<rscale>  0 0.33145411E+04</rscale>
<asrwt>0</asrwt>
<pdfrwt beam="1">  1        2 0.31414834E+00 0.33145411E+04</pdfrwt>
<pdfrwt beam="2">  1       -2 0.20693089E+00 0.33145411E+04</pdfrwt>
<totfact> 0.69990821E-01</totfact>
</mgrwt>
<rwgt>
<wgt id='morphing_basis_vector_1'> +4.3312671e-05 </wgt>
<wgt id='morphing_basis_vector_2'> +5.3175995e-05 </wgt>
<wgt id='morphing_basis_vector_3'> +5.2490678e-05 </wgt>
<wgt id='morphing_basis_vector_4'> +3.5671353e-06 </wgt>
<wgt id='morphing_basis_vector_5'> +3.9095077e-05 </wgt>
</rwgt>
</event>
<event>
 4      1 +1.9882500e-09 3.53023300e+03 7.81860800e-03 7.63106400e-02
        2 -1    0    0  501    0 +0.0000000000e+00 +0.0000000000e+00 +1.4045677305e+03 1.4045677305e+03 0.0000000000e+00 0.0000e+00 -1.0000e+00
       -2 -1    0    0    0  501 -0.0000000000e+00 -0.0000000000e+00 -2.2182168464e+03 2.2182168464e+03 0.0000000000e+00 0.0000e+00 1.0000e+00
      -13  1    1    2    0    0 +2.1032587649e+01 -1.5423633722e+03 -1.2874051835e+03 2.0091638181e+03 0.0000000000e+00 0.0000e+00 1.0000e+00
       13  1    1    2    0    0 -2.1032587649e+01 +1.5423633722e+03 +4.7375606758e+02 1.6136207587e+03 0.0000000000e+00 0.0000e+00 -1.0000e+00
<mgrwt>
<rscale>  0 0.35302327E+04</rscale>
<asrwt>0</asrwt>
<pdfrwt beam="1">  1        2 0.21608734E+00 0.35302327E+04</pdfrwt>
<pdfrwt beam="2">  1       -2 0.34126413E+00 0.35302327E+04</pdfrwt>
<totfact> 0.18805764E-01</totfact>
</mgrwt>
<rwgt>
<wgt id='morphing_basis_vector_1'> +4.2291090e-05 </wgt>
<wgt id='morphing_basis_vector_2'> +2.9061989e-05 </wgt>
<wgt id='morphing_basis_vector_3'> +4.6398815e-05 </wgt>
<wgt id='morphing_basis_vector_4'> +3.2664630e-05 </wgt>
<wgt id='morphing_basis_vector_5'> +5.2714730e-05 </wgt>
</rwgt>
</event>
<event>
 4      1 +1.9882500e-09 3.51311300e+03 7.81860800e-03 7.63462400e-02
        2 -1    0    0  501    0 +0.0000000000e+00 +0.0000000000e+00 +1.7624683659e+03 1.7624683659e+03 0.0000000000e+00 0.0000e+00 1.0000e+00
       -2 -1    0    0    0  501 -0.0000000000e+00 -0.0000000000e+00 -1.7506641475e+03 1.7506641475e+03 0.0000000000e+00 0.0000e+00 -1.0000e+00
      -13  1    1    2    0    0 +1.0604112743e+03 +1.2386626653e+03 -6.4734954836e+02 1.7543713138e+03 0.0000000000e+00 0.0000e+00 -1.0000e+00
       13  1    1    2    0    0 -1.0604112743e+03 -1.2386626653e+03 +6.5915376676e+02 1.7587611996e+03 0.0000000000e+00 0.0000e+00 1.0000e+00
<mgrwt>
<rscale>  0 0.35131127E+04</rscale>
<asrwt>0</asrwt>
<pdfrwt beam="1">  1        2 0.27114898E+00 0.35131127E+04</pdfrwt>
<pdfrwt beam="2">  1       -2 0.26933295E+00 0.35131127E+04</pdfrwt>
<totfact> 0.36139022E-01</totfact>
</mgrwt>
<rwgt>
<wgt id='morphing_basis_vector_1'> +4.1628355e-05 </wgt>
<wgt id='morphing_basis_vector_2'> +2.8934384e-05 </wgt>
<wgt id='morphing_basis_vector_3'> +4.5738246e-05 </wgt>
<wgt id='morphing_basis_vector_4'> +3.1723963e-05 </wgt>
<wgt id='morphing_basis_vector_5'> +5.1667627e-05 </wgt>
</rwgt>
</event>
<event>
 4      1 +1.9882500e-09 3.35505500e+03 7.81860800e-03 7.66851200e-02
        2 -1    0    0  501    0 +0.0000000000e+00 +0.0000000000e+00 +2.2274160473e+03 2.2274160473e+03 0.0000000000e+00 0.0000e+00 1.0000e+00
       -2 -1    0    0    0  501 -0.0000000000e+00 -0.0000000000e+00 -1.2633913188e+03 1.2633913188e+03 0.0000000000e+00 0.0000e+00 -1.0000e+00
      -13  1    1    2    0    0 +5.5551448154e+02 -1.4692658952e+03 -1.3067715057e+02 1.5762027559e+03 0.0000000000e+00 0.0000e+00 -1.0000e+00
       13  1    1    2    0    0 -5.5551448154e+02 +1.4692658952e+03 +1.0947018791e+03 1.9146046103e+03 0.0000000000e+00 0.0000e+00 1.0000e+00
<mgrwt>
<rscale>  0 0.33550548E+04</rscale>
<asrwt>0</asrwt>
<pdfrwt beam="1">  1        2 0.34267939E+00 0.33550548E+04</pdfrwt>
<pdfrwt beam="2">  1       -2 0.19436790E+00 0.33550548E+04</pdfrwt>
<totfact> 0.67541715E-01</totfact>
</mgrwt>
<rwgt>
<wgt id='morphing_basis_vector_1'> +3.4699858e-05 </wgt>
<wgt id='morphing_basis_vector_2'> +2.4164321e-05 </wgt>
<wgt id='morphing_basis_vector_3'> +3.8092827e-05 </wgt>
<wgt id='morphing_basis_vector_4'> +2.6297651e-05 </wgt>
<wgt id='morphing_basis_vector_5'> +4.2920054e-05 </wgt>
</rwgt>
</event>
<event>
 4      1 +1.9882500e-09 3.54645200e+03 7.81860800e-03 7.62771000e-02
        2 -1    0    0  501    0 +0.0000000000e+00 +0.0000000000e+00 +2.5451959641e+03 2.5451959641e+03 0.0000000000e+00 0.0000e+00 -1.0000e+00
       -2 -1    0    0    0  501 -0.0000000000e+00 -0.0000000000e+00 -1.2353983573e+03 1.2353983573e+03 0.0000000000e+00 0.0000e+00 1.0000e+00
      -13  1    1    2    0    0 +1.5703868586e+03 -5.9225014716e+02 +4.4881299796e+01 1.6789548694e+03 0.0000000000e+00 0.0000e+00 1.0000e+00
       13  1    1    2    0    0 -1.5703868586e+03 +5.9225014716e+02 +1.2649163070e+03 2.1016394520e+03 0.0000000000e+00 0.0000e+00 -1.0000e+00
<mgrwt>
<rscale>  0 0.35464523E+04</rscale>
<asrwt>0</asrwt>
<pdfrwt beam="1">  1        2 0.39156861E+00 0.35464523E+04</pdfrwt>
<pdfrwt beam="2">  1       -2 0.19006129E+00 0.35464523E+04</pdfrwt>
<totfact> 0.46550988E-01</totfact>
</mgrwt>
<rwgt>
<wgt id='morphing_basis_vector_1'> +4.3307856e-05 </wgt>
<wgt id='morphing_basis_vector_2'> +3.0302300e-05 </wgt>
<wgt id='morphing_basis_vector_3'> +4.7637820e-05 </wgt>
<wgt id='morphing_basis_vector_4'> +3.2769395e-05 </wgt>
<wgt id='morphing_basis_vector_5'> +5.3654711e-05 </wgt>
</rwgt>
</event>
<event>
 4      1 +1.9882500e-09 3.58252400e+03 7.81860800e-03 7.62031600e-02
        2 -1    0    0  501    0 +0.0000000000e+00 +0.0000000000e+00 +1.8151547299e+03 1.8151547299e+03 0.0000000000e+00 0.0000e+00 -1.0000e+00
       -2 -1    0    0    0  501 -0.0000000000e+00 -0.0000000000e+00 -1.7676838378e+03 1.7676838378e+03 0.0000000000e+00 0.0000e+00 1.0000e+00
      -13  1    1    2    0    0 +1.2431457317e+03 +6.4015120527e+02 -1.0959229297e+03 1.7765843475e+03 0.0000000000e+00 0.0000e+00 1.0000e+00
       13  1    1    2    0    0 -1.2431457317e+03 -6.4015120527e+02 +1.1433938218e+03 1.8062542201e+03 0.0000000000e+00 0.0000e+00 -1.0000e+00
<mgrwt>
<rscale>  0 0.35825241E+04</rscale>
<asrwt>0</asrwt>
<pdfrwt beam="1">  1        2 0.27925457E+00 0.35825241E+04</pdfrwt>
<pdfrwt beam="2">  1       -2 0.27195136E+00 0.35825241E+04</pdfrwt>
<totfact> 0.32227483E-01</totfact>
</mgrwt>
<rwgt>
<wgt id='morphing_basis_vector_1'> +4.4717500e-05 </wgt>
<wgt id='morphing_basis_vector_2'> +3.0469222e-05 </wgt>
<wgt id='morphing_basis_vector_3'> +4.9019984e-05 </wgt>
<wgt id='morphing_basis_vector_4'> +3.4905258e-05 </wgt>
<wgt id='morphing_basis_vector_5'> +5.5949491e-05 </wgt>
</rwgt>
</event>
<event>
 4      1 +1.9882500e-09 3.50533500e+03 7.81860800e-03 7.63624800e-02
        2 -1    0    0  501    0 +0.0000000000e+00 +0.0000000000e+00 +2.4686588146e+03 2.4686588146e+03 0.0000000000e+00 0.0000e+00 1.0000e+00
       -2 -1    0    0    0  501 -0.0000000000e+00 -0.0000000000e+00 -1.2443369802e+03 1.2443369802e+03 0.0000000000e+00 0.0000e+00 -1.0000e+00
      -13  1    1    2    0    0 +1.0315812506e+02 -1.6721027200e+03 +6.6600878887e+01 1.6766051360e+03 0.0000000000e+00 0.0000e+00 -1.0000e+00
       13  1    1    2    0    0 -1.0315812506e+02 +1.6721027200e+03 +1.1577209555e+03 2.0363906589e+03 0.0000000000e+00 0.0000e+00 1.0000e+00
<mgrwt>
<rscale>  0 0.35053351E+04</rscale>
<asrwt>0</asrwt>
<pdfrwt beam="1">  1        2 0.37979366E+00 0.35053351E+04</pdfrwt>
<pdfrwt beam="2">  1       -2 0.19143646E+00 0.35053351E+04</pdfrwt>
<totfact> 0.50691292E-01</totfact>
</mgrwt>
<rwgt>
<wgt id='morphing_basis_vector_1'> +4.1402800e-05 </wgt>
<wgt id='morphing_basis_vector_2'> +2.9089884e-05 </wgt>
<wgt id='morphing_basis_vector_3'> +4.5556250e-05 </wgt>
<wgt id='morphing_basis_vector_4'> +3.1149081e-05 </wgt>
<wgt id='morphing_basis_vector_5'> +5.1184379e-05 </wgt>
</rwgt>
</event>
<event>
 4      1 +1.9882500e-09 3.26114000e+03 7.81860800e-03 7.68957100e-02
        2 -1    0    0  501    0 +0.0000000000e+00 +0.0000000000e+00 +1.9545263143e+03 1.9545263143e+03 0.0000000000e+00 0.0000e+00 1.0000e+00
       -2 -1    0    0    0  501 -0.0000000000e+00 -0.0000000000e+00 -1.3603084056e+03 1.3603084056e+03 0.0000000000e+00 0.0000e+00 -1.0000e+00
      -13  1    1    2    0    0 -3.4970671548e+02 +5.3393624250e+01 -1.3208316083e+03 1.3673850238e+03 0.0000000000e+00 0.0000e+00 -1.0000e+00
       13  1    1    2    0    0 +3.4970671548e+02 -5.3393624250e+01 +1.9150495170e+03 1.9474496960e+03 0.0000000000e+00 0.0000e+00 1.0000e+00
<mgrwt>
<rscale>  0 0.32611400E+04</rscale>
<asrwt>0</asrwt>
<pdfrwt beam="1">  1        2 0.30069636E+00 0.32611400E+04</pdfrwt>
<pdfrwt beam="2">  1       -2 0.20927821E+00 0.32611400E+04</pdfrwt>
<totfact> 0.75727105E-01</totfact>
</mgrwt>
<rwgt>
<wgt id='morphing_basis_vector_1'> +3.0719201e-05 </wgt>
<wgt id='morphing_basis_vector_2'> +2.0748691e-05 </wgt>
<wgt id='morphing_basis_vector_3'> +3.3559681e-05 </wgt>
<wgt id='morphing_basis_vector_4'> +2.4045640e-05 </wgt>
<wgt id='morphing_basis_vector_5'> +3.8329569e-05 </wgt>
</rwgt>
</event>
<event>
 4      1 +1.9882500e-09 3.69999200e+03 7.81860800e-03 7.59684200e-02
        2 -1    0    0  501    0 +0.0000000000e+00 +0.0000000000e+00 +2.1507219308e+03 2.1507219308e+03 0.0000000000e+00 0.0000e+00 1.0000e+00
       -2 -1    0    0    0  501 -0.0000000000e+00 -0.0000000000e+00 -1.5913196160e+03 1.5913196160e+03 0.0000000000e+00 0.0000e+00 -1.0000e+00
      -13  1    1    2    0    0 -1.2003099154e+03 -2.0102168188e+02 -1.1294504469e+03 1.6603649965e+03 0.0000000000e+00 0.0000e+00 -1.0000e+00
       13  1    1    2    0    0 +1.2003099154e+03 +2.0102168188e+02 +1.6888527617e+03 2.0816765503e+03 0.0000000000e+00 0.0000e+00 1.0000e+00
<mgrwt>
<rscale>  0 0.36999924E+04</rscale>
<asrwt>0</asrwt>
<pdfrwt beam="1">  1        2 0.33088030E+00 0.36999924E+04</pdfrwt>
<pdfrwt beam="2">  1       -2 0.24481840E+00 0.36999924E+04</pdfrwt>
<totfact> 0.31767686E-01</totfact>
</mgrwt>
<rwgt>
<wgt id='morphing_basis_vector_1'> +5.0768130e-05 </wgt>
<wgt id='morphing_basis_vector_2'> +3.4453319e-05 </wgt>
<wgt id='morphing_basis_vector_3'> +5.5660140e-05 </wgt>
<wgt id='morphing_basis_vector_4'> +3.9888143e-05 </wgt>
<wgt id='morphing_basis_vector_5'> +6.3717835e-05 </wgt>
</rwgt>
</event>
<event>
 4      1 +1.9882500e-09 3.38471400e+03 7.81860800e-03 7.66200900e-02
        2 -1    0    0  501    0 +0.0000000000e+00 +0.0000000000e+00 +2.6544347966e+03 2.6544347966e+03 0.0000000000e+00 0.0000e+00 -1.0000e+00
       -2 -1    0    0    0  501 -0.0000000000e+00 -0.0000000000e+00 -1.0789763629e+03 1.0789763629e+03 0.0000000000e+00 0.0000e+00 1.0000e+00
      -13  1    1    2    0    0 -1.5837181878e+03 +5.2509739456e+02 +1.1000650499e+03 1.9985078649e+03 0.0000000000e+00 0.0000e+00 -1.0000e+00
       13  1    1    2    0    0 +1.5837181878e+03 -5.2509739456e+02 +4.7539338386e+02 1.7349032946e+03 0.0000000000e+00 0.0000e+00 1.0000e+00
<mgrwt>
<rscale>  0 0.33847141E+04</rscale>
<asrwt>0</asrwt>
<pdfrwt beam="1">  1        2 0.40837458E+00 0.33847141E+04</pdfrwt>
<pdfrwt beam="2">  1       -2 0.16599636E+00 0.33847141E+04</pdfrwt>
<totfact> 0.61844541E-01</totfact>
</mgrwt>
<rwgt>
<wgt id='morphing_basis_vector_1'> +3.7954550e-05 </wgt>
<wgt id='morphing_basis_vector_2'> +3.0972204e-05 </wgt>
<wgt id='morphing_basis_vector_3'> +4.2658497e-05 </wgt>
<wgt id='morphing_basis_vector_4'> +2.3007129e-05 </wgt>
<wgt id='morphing_basis_vector_5'> +4.4118170e-05 </wgt>
</rwgt>
</event>
<event>
 4      1 +1.9882500e-09 3.32924300e+03 7.81860800e-03 7.67422900e-02
        2 -1    0    0  501    0 +0.0000000000e+00 +0.0000000000e+00 +1.6154008657e+03 1.6154008657e+03 0.0000000000e+00 0.0000e+00 -1.0000e+00
       -2 -1    0    0    0  501 -0.0000000000e+00 -0.0000000000e+00 -1.7153421638e+03 1.7153421638e+03 0.0000000000e+00 0.0000e+00 1.0000e+00
      -13  1    1    2    0    0 -4.1587038355e+02 +7.4760910349e+02 -1.4785836861e+03 1.7082380584e+03 0.0000000000e+00 0.0000e+00 1.0000e+00
       13  1    1    2    0    0 +4.1587038355e+02 -7.4760910349e+02 +1.3786423880e+03 1.6225049711e+03 0.0000000000e+00 0.0000e+00 -1.0000e+00
<mgrwt>
<rscale>  0 0.33292433E+04</rscale>
<asrwt>0</asrwt>
<pdfrwt beam="1">  1        2 0.24852321E+00 0.33292433E+04</pdfrwt>
<pdfrwt beam="2">  1       -2 0.26389879E+00 0.33292433E+04</pdfrwt>
<totfact> 0.48267368E-01</totfact>
</mgrwt>
<rwgt>
<wgt id='morphing_basis_vector_1'> +3.3353756e-05 </wgt>
<wgt id='morphing_basis_vector_2'> +2.2554174e-05 </wgt>
<wgt id='morphing_basis_vector_3'> +3.6462722e-05 </wgt>
<wgt id='morphing_basis_vector_4'> +2.6117215e-05 </wgt>
<wgt id='morphing_basis_vector_5'> +4.1656959e-05 </wgt>
</rwgt>
</event>
<event>
 4      1 +1.9882500e-09 3.27463600e+03 7.81860800e-03 7.68650000e-02
        2 -1    0    0  501    0 +0.0000000000e+00 +0.0000000000e+00 +3.2195528705e+03 3.2195528705e+03 0.0000000000e+00 0.0000e+00 -1.0000e+00
       -2 -1    0    0    0  501 -0.0000000000e+00 -0.0000000000e+00 -8.3266519332e+02 8.3266519332e+02 0.0000000000e+00 0.0000e+00 1.0000e+00
      -13  1    1    2    0    0 -8.3303335828e+02 +8.9522880149e+02 -1.5386718196e+02 1.2324992060e+03 0.0000000000e+00 0.0000e+00 1.0000e+00
       13  1    1    2    0    0 +8.3303335828e+02 -8.9522880149e+02 +2.5407548591e+03 2.8197188578e+03 0.0000000000e+00 0.0000e+00 -1.0000e+00
<mgrwt>
<rscale>  0 0.32746356E+04</rscale>
<asrwt>0</asrwt>
<pdfrwt beam="1">  1        2 0.49531582E+00 0.32746356E+04</pdfrwt>
<pdfrwt beam="2">  1       -2 0.12810234E+00 0.32746356E+04</pdfrwt>
<totfact> 0.56074053E-01</totfact>
</mgrwt>
<rwgt>
<wgt id='morphing_basis_vector_1'> +3.1278074e-05 </wgt>
<wgt id='morphing_basis_vector_2'> +2.1243778e-05 </wgt>
<wgt id='morphing_basis_vector_3'> +3.4199157e-05 </wgt>
<wgt id='morphing_basis_vector_4'> +2.4341951e-05 </wgt>
<wgt id='morphing_basis_vector_5'> +3.8963946e-05 </wgt>
</rwgt>
</event>
<event>
 4      1 +1.9882500e-09 3.74458700e+03 7.81860800e-03 7.58816400e-02
        2 -1    0    0  501    0 +0.0000000000e+00 +0.0000000000e+00 +1.8231450597e+03 1.8231450597e+03 0.0000000000e+00 0.0000e+00 1.0000e+00
       -2 -1    0    0    0  501 -0.0000000000e+00 -0.0000000000e+00 -1.9227670719e+03 1.9227670719e+03 0.0000000000e+00 0.0000e+00 -1.0000e+00
      -13  1    1    2    0    0 +1.7567070547e+03 +4.2874496574e+02 +4.3578980773e+02 1.8600415797e+03 0.0000000000e+00 0.0000e+00 -1.0000e+00
       13  1    1    2    0    0 -1.7567070547e+03 -4.2874496574e+02 -5.3541181995e+02 1.8858705519e+03 0.0000000000e+00 0.0000e+00 1.0000e+00
<mgrwt>
<rscale>  0 0.37445872E+04</rscale>
<asrwt>0</asrwt>
<pdfrwt beam="1">  1        2 0.28048385E+00 0.37445872E+04</pdfrwt>
<pdfrwt beam="2">  1       -2 0.29581032E+00 0.37445872E+04</pdfrwt>
<totfact> 0.21668631E-01</totfact>
</mgrwt>
<rwgt>
<wgt id='morphing_basis_vector_1'> +5.7963860e-05 </wgt>
<wgt id='morphing_basis_vector_2'> +5.0015378e-05 </wgt>
<wgt id='morphing_basis_vector_3'> +6.5928511e-05 </wgt>
<wgt id='morphing_basis_vector_4'> +3.1905024e-05 </wgt>
<wgt id='morphing_basis_vector_5'> +6.6036939e-05 </wgt>
</rwgt>
</event>
<event>
 4      1 +1.9882500e-09 3.40331300e+03 7.81860800e-03 7.65796500e-02
        2 -1    0    0  501    0 +0.0000000000e+00 +0.0000000000e+00 +3.4890525081e+03 3.4890525081e+03 0.0000000000e+00 0.0000e+00 1.0000e+00
       -2 -1    0    0    0  501 -0.0000000000e+00 -0.0000000000e+00 -8.2992033031e+02 8.2992033031e+02 0.0000000000e+00 0.0000e+00 -1.0000e+00
      -13  1    1    2    0    0 +1.6645276891e+03 -3.0477544715e+02 +1.5569176556e+03 2.2994636521e+03 0.0000000000e+00 0.0000e+00 -1.0000e+00
       13  1    1    2    0    0 -1.6645276891e+03 +3.0477544715e+02 +1.1022145222e+03 2.0195091864e+03 0.0000000000e+00 0.0000e+00 1.0000e+00
<mgrwt>
<rscale>  0 0.34033135E+04</rscale>
<asrwt>0</asrwt>
<pdfrwt beam="1">  1        2 0.53677730E+00 0.34033135E+04</pdfrwt>
<pdfrwt beam="2">  1       -2 0.12768005E+00 0.34033135E+04</pdfrwt>
<totfact> 0.36119245E-01</totfact>
</mgrwt>
<rwgt>
<wgt id='morphing_basis_vector_1'> +3.8330671e-05 </wgt>
<wgt id='morphing_basis_vector_2'> +3.0305262e-05 </wgt>
<wgt id='morphing_basis_vector_3'> +4.2877141e-05 </wgt>
<wgt id='morphing_basis_vector_4'> +2.4483847e-05 </wgt>
<wgt id='morphing_basis_vector_5'> +4.5182376e-05 </wgt>
</rwgt>
</event>
<event>
 4      1 +1.9882500e-09 3.69725900e+03 7.81860800e-03 7.59737800e-02
        2 -1    0    0  501    0 +0.0000000000e+00 +0.0000000000e+00 +2.6408952986e+03 2.6408952986e+03 0.0000000000e+00 0.0000e+00 -1.0000e+00
       -2 -1    0    0    0  501 -0.0000000000e+00 -0.0000000000e+00 -1.2940424963e+03 1.2940424963e+03 0.0000000000e+00 0.0000e+00 1.0000e+00
      -13  1    1    2    0    0 -4.7961853053e+02 -1.7522852574e+03 +1.0373017320e+03 2.0920163578e+03 0.0000000000e+00 0.0000e+00 1.0000e+00
       13  1    1    2    0    0 +4.7961853053e+02 +1.7522852574e+03 +3.0955107024e+02 1.8429214371e+03 0.0000000000e+00 0.0000e+00 -1.0000e+00
<mgrwt>
<rscale>  0 0.36972588E+04</rscale>
<asrwt>0</asrwt>
<pdfrwt beam="1">  1        2 0.40629158E+00 0.36972588E+04</pdfrwt>
<pdfrwt beam="2">  1       -2 0.19908346E+00 0.36972588E+04</pdfrwt>
<totfact> 0.34510514E-01</totfact>
</mgrwt>
<rwgt>
<wgt id='morphing_basis_vector_1'> +5.4118198e-05 </wgt>
<wgt id='morphing_basis_vector_2'> +4.4641292e-05 </wgt>
<wgt id='morphing_basis_vector_3'> +6.1079742e-05 </wgt>
<wgt id='morphing_basis_vector_4'> +3.2394080e-05 </wgt>
<wgt id='morphing_basis_vector_5'> +6.2915982e-05 </wgt>
</rwgt>
</event>
<event>
 4      1 +1.9882500e-09 3.22984500e+03 7.81860800e-03 7.69675100e-02
        2 -1    0    0  501    0 +0.0000000000e+00 +0.0000000000e+00 +1.6212456641e+03 1.6212456641e+03 0.0000000000e+00 0.0000e+00 1.0000e+00
       -2 -1    0    0    0  501 -0.0000000000e+00 -0.0000000000e+00 -1.6086240400e+03 1.6086240400e+03 0.0000000000e+00 0.0000e+00 -1.0000e+00
      -13  1    1    2    0    0 +1.4511066947e+03 -7.0741814602e+02 +4.9015672929e+01 1.6151017333e+03 0.0000000000e+00 0.0000e+00 -1.0000e+00
       13  1    1    2    0    0 -1.4511066947e+03 +7.0741814602e+02 -3.6394048755e+01 1.6147679708e+03 0.0000000000e+00 0.0000e+00 1.0000e+00
<mgrwt>
<rscale>  0 0.32298450E+04</rscale>
<asrwt>0</asrwt>
<pdfrwt beam="1">  1        2 0.24942241E+00 0.32298450E+04</pdfrwt>
<pdfrwt beam="2">  1       -2 0.24748062E+00 0.32298450E+04</pdfrwt>
<totfact> 0.62680622E-01</totfact>
</mgrwt>
<rwgt>
<wgt id='morphing_basis_vector_1'> +3.0759939e-05 </wgt>
<wgt id='morphing_basis_vector_2'> +2.3480914e-05 </wgt>
<wgt id='morphing_basis_vector_3'> +3.4174388e-05 </wgt>
<wgt id='morphing_basis_vector_4'> +2.0630530e-05 </wgt>
<wgt id='morphing_basis_vector_5'> +3.6662320e-05 </wgt>
</rwgt>
</event>
<event>
 4      1 +1.9882500e-09 3.21628700e+03 7.81860800e-03 7.69988800e-02
        2 -1    0    0  501    0 +0.0000000000e+00 +0.0000000000e+00 +1.2013251624e+03 1.2013251624e+03 0.0000000000e+00 0.0000e+00 -1.0000e+00
       -2 -1    0    0    0  501 -0.0000000000e+00 -0.0000000000e+00 -2.1527276604e+03 2.1527276604e+03 0.0000000000e+00 0.0000e+00 1.0000e+00
      -13  1    1    2    0    0 +7.0878387841e+02 +1.1664453906e+03 +4.1111003029e+02 1.4254756724e+03 0.0000000000e+00 0.0000e+00 1.0000e+00
       13  1    1    2    0    0 -7.0878387841e+02 -1.1664453906e+03 -1.3625125282e+03 1.9285771504e+03 0.0000000000e+00 0.0000e+00 -1.0000e+00
<mgrwt>
<rscale>  0 0.32162872E+04</rscale>
<asrwt>0</asrwt>
<pdfrwt beam="1">  1        2 0.18481926E+00 0.32162872E+04</pdfrwt>
<pdfrwt beam="2">  1       -2 0.33118887E+00 0.32162872E+04</pdfrwt>
<totfact> 0.29396316E-01</totfact>
</mgrwt>
<rwgt>
<wgt id='morphing_basis_vector_1'> +3.4860439e-05 </wgt>
<wgt id='morphing_basis_vector_2'> +3.6659154e-05 </wgt>
<wgt id='morphing_basis_vector_3'> +4.0872656e-05 </wgt>
<wgt id='morphing_basis_vector_4'> +1.0640810e-05 </wgt>
<wgt id='morphing_basis_vector_5'> +3.5250249e-05 </wgt>
</rwgt>
</event>
<event>
 4      1 +1.9882500e-09 3.26644200e+03 7.81860800e-03 7.68836300e-02
        2 -1    0    0  501    0 +0.0000000000e+00 +0.0000000000e+00 +2.9918187875e+03 2.9918187875e+03 0.0000000000e+00 0.0000e+00 1.0000e+00
       -2 -1    0    0    0  501 -0.0000000000e+00 -0.0000000000e+00 -8.9156833467e+02 8.9156833467e+02 0.0000000000e+00 0.0000e+00 -1.0000e+00
      -13  1    1    2    0    0 +8.4772687560e+02 -8.1342079375e+02 -2.9866585138e+02 1.2122275092e+03 0.0000000000e+00 0.0000e+00 -1.0000e+00
       13  1    1    2    0    0 -8.4772687560e+02 +8.1342079375e+02 +2.3989163042e+03 2.6711596130e+03 0.0000000000e+00 0.0000e+00 1.0000e+00
<mgrwt>
<rscale>  0 0.32664420E+04</rscale>
<asrwt>0</asrwt>
<pdfrwt beam="1">  1        2 0.46027981E+00 0.32664420E+04</pdfrwt>
<pdfrwt beam="2">  1       -2 0.13716436E+00 0.32664420E+04</pdfrwt>
<totfact> 0.66140826E-01</totfact>
</mgrwt>
<rwgt>
<wgt id='morphing_basis_vector_1'> +3.0958536e-05 </wgt>
<wgt id='morphing_basis_vector_2'> +2.1003072e-05 </wgt>
<wgt id='morphing_basis_vector_3'> +3.3842479e-05 </wgt>
<wgt id='morphing_basis_vector_4'> +2.4118499e-05 </wgt>
<wgt id='morphing_basis_vector_5'> +3.8574294e-05 </wgt>
</rwgt>
</event>
<event>
 4      1 +1.9882500e-09 3.57707000e+03 7.81860800e-03 7.62142800e-02
        2 -1    0    0  501    0 +0.0000000000e+00 +0.0000000000e+00 +4.5117040586e+03 4.5117040586e+03 0.0000000000e+00 0.0000e+00 -1.0000e+00
       -2 -1    0    0    0  501 -0.0000000000e+00 -0.0000000000e+00 -7.0901297446e+02 7.0901297446e+02 0.0000000000e+00 0.0000e+00 1.0000e+00
      -13  1    1    2    0    0 +1.5617729301e+03 -7.4114714830e+02 +1.2318475157e+03 2.1227063110e+03 0.0000000000e+00 0.0000e+00 1.0000e+00
       13  1    1    2    0    0 -1.5617729301e+03 +7.4114714830e+02 +2.5708435685e+03 3.0980107221e+03 0.0000000000e+00 0.0000e+00 -1.0000e+00
<mgrwt>
<rscale>  0 0.35770696E+04</rscale>
<asrwt>0</asrwt>
<pdfrwt beam="1">  1        2 0.69410830E+00 0.35770696E+04</pdfrwt>
<pdfrwt beam="2">  1       -2 0.10907892E+00 0.35770696E+04</pdfrwt>
<totfact> 0.70183340E-02</totfact>
</mgrwt>
<rwgt>
<wgt id='morphing_basis_vector_1'> +4.4961979e-05 </wgt>
<wgt id='morphing_basis_vector_2'> +3.1797716e-05 </wgt>
<wgt id='morphing_basis_vector_3'> +4.9541153e-05 </wgt>
<wgt id='morphing_basis_vector_4'> +3.3609211e-05 </wgt>
<wgt id='morphing_basis_vector_5'> +5.5517619e-05 </wgt>
</rwgt>
</event>
<event>
 4      1 +1.9882500e-09 3.24668100e+03 7.81860800e-03 7.69287800e-02
        2 -1    0    0  501    0 +0.0000000000e+00 +0.0000000000e+00 +2.5325794147e+03 2.5325794147e+03 0.0000000000e+00 0.0000e+00 1.0000e+00
       -2 -1    0    0    0  501 -0.0000000000e+00 -0.0000000000e+00 -1.0405337572e+03 1.0405337572e+03 0.0000000000e+00 0.0000e+00 -1.0000e+00
      -13  1    1    2    0    0 -6.8381290800e+02 +1.3641933900e+03 +1.3662515976e+02 1.5320868555e+03 0.0000000000e+00 0.0000e+00 -1.0000e+00
       13  1    1    2    0    0 +6.8381290800e+02 -1.3641933900e+03 +1.3554204977e+03 2.0410263164e+03 0.0000000000e+00 0.0000e+00 1.0000e+00
<mgrwt>
<rscale>  0 0.32466810E+04</rscale>
<asrwt>0</asrwt>
<pdfrwt beam="1">  1        2 0.38962760E+00 0.32466810E+04</pdfrwt>
<pdfrwt beam="2">  1       -2 0.16008212E+00 0.32466810E+04</pdfrwt>
<totfact> 0.82607830E-01</totfact>
</mgrwt>
<rwgt>
<wgt id='morphing_basis_vector_1'> +3.0471444e-05 </wgt>
<wgt id='morphing_basis_vector_2'> +2.1235714e-05 </wgt>
<wgt id='morphing_basis_vector_3'> +3.3425348e-05 </wgt>
<wgt id='morphing_basis_vector_4'> +2.3013434e-05 </wgt>
<wgt id='morphing_basis_vector_5'> +3.7599277e-05 </wgt>
</rwgt>
</event>
<event>
 4      1 +1.9882500e-09 3.22864800e+03 7.81860800e-03 7.69702800e-02
        2 -1    0    0  501    0 +0.0000000000e+00 +0.0000000000e+00 +1.6276861413e+03 1.6276861413e+03 0.0000000000e+00 0.0000e+00 1.0000e+00
       -2 -1    0    0    0  501 -0.0000000000e+00 -0.0000000000e+00 -1.6010717474e+03 1.6010717474e+03 0.0000000000e+00 0.0000e+00 -1.0000e+00
      -13  1    1    2    0    0 -1.0199722859e+03 -3.2588694326e+02 -1.1948300899e+03 1.6044203650e+03 0.0000000000e+00 0.0000e+00 -1.0000e+00
       13  1    1    2    0    0 +1.0199722859e+03 +3.2588694326e+02 +1.2214444838e+03 1.6243375237e+03 0.0000000000e+00 0.0000e+00 1.0000e+00
<mgrwt>
<rscale>  0 0.32286482E+04</rscale>
<asrwt>0</asrwt>
<pdfrwt beam="1">  1        2 0.25041325E+00 0.32286482E+04</pdfrwt>
<pdfrwt beam="2">  1       -2 0.24631873E+00 0.32286482E+04</pdfrwt>
<totfact> 0.63334827E-01</totfact>
</mgrwt>
<rwgt>
<wgt id='morphing_basis_vector_1'> +2.9547011e-05 </wgt>
<wgt id='morphing_basis_vector_2'> +2.0009280e-05 </wgt>
<wgt id='morphing_basis_vector_3'> +3.2281772e-05 </wgt>
<wgt id='morphing_basis_vector_4'> +2.3043042e-05 </wgt>
<wgt id='morphing_basis_vector_5'> +3.6809263e-05 </wgt>
</rwgt>
</event>
<event>
 4      1 +1.9882500e-09 3.77028500e+03 7.81860800e-03 7.58321800e-02
        2 -1    0    0  501    0 +0.0000000000e+00 +0.0000000000e+00 +2.6869064429e+03 2.6869064429e+03 0.0000000000e+00 0.0000e+00 -1.0000e+00
       -2 -1    0    0    0  501 -0.0000000000e+00 -0.0000000000e+00 -1.3226220365e+03 1.3226220365e+03 0.0000000000e+00 0.0000e+00 1.0000e+00
      -13  1    1    2    0    0 -1.6242753081e+03 -5.1098454507e+01 -3.3393354356e+02 1.6590337369e+03 0.0000000000e+00 0.0000e+00 1.0000e+00
       13  1    1    2    0    0 +1.6242753081e+03 +5.1098454507e+01 +1.6982179500e+03 2.3504947425e+03 0.0000000000e+00 0.0000e+00 -1.0000e+00
<mgrwt>
<rscale>  0 0.37702847E+04</rscale>
<asrwt>0</asrwt>
<pdfrwt beam="1">  1        2 0.41337022E+00 0.37702847E+04</pdfrwt>
<pdfrwt beam="2">  1       -2 0.20348031E+00 0.37702847E+04</pdfrwt>
<totfact> 0.29863713E-01</totfact>
</mgrwt>
<rwgt>
<wgt id='morphing_basis_vector_1'> +5.4905341e-05 </wgt>
<wgt id='morphing_basis_vector_2'> +3.7705355e-05 </wgt>
<wgt id='morphing_basis_vector_3'> +6.0317156e-05 </wgt>
<wgt id='morphing_basis_vector_4'> +4.2619466e-05 </wgt>
<wgt id='morphing_basis_vector_5'> +6.8695381e-05 </wgt>
</rwgt>
</event>
<event>
 4      1 +1.9882500e-09 3.21075700e+03 7.81860800e-03 7.70117200e-02
        2 -1    0    0  501    0 +0.0000000000e+00 +0.0000000000e+00 +2.3564581730e+03 2.3564581730e+03 0.0000000000e+00 0.0000e+00 -1.0000e+00
       -2 -1    0    0    0  501 -0.0000000000e+00 -0.0000000000e+00 -1.0936922853e+03 1.0936922853e+03 0.0000000000e+00 0.0000e+00 1.0000e+00
      -13  1    1    2    0    0 -4.1262198547e+02 -8.4310217577e+02 -7.6808918684e+02 1.2128640405e+03 0.0000000000e+00 0.0000e+00 1.0000e+00
       13  1    1    2    0    0 +4.1262198547e+02 +8.4310217577e+02 +2.0308550745e+03 2.2372864178e+03 0.0000000000e+00 0.0000e+00 -1.0000e+00
<mgrwt>
<rscale>  0 0.32107570E+04</rscale>
<asrwt>0</asrwt>
<pdfrwt beam="1">  1        2 0.36253203E+00 0.32107570E+04</pdfrwt>
<pdfrwt beam="2">  1       -2 0.16826035E+00 0.32107570E+04</pdfrwt>
<totfact> 0.90785752E-01</totfact>
</mgrwt>
<rwgt>
<wgt id='morphing_basis_vector_1'> +2.8891008e-05 </wgt>
<wgt id='morphing_basis_vector_2'> +1.9536768e-05 </wgt>
<wgt id='morphing_basis_vector_3'> +3.1554299e-05 </wgt>
<wgt id='morphing_basis_vector_4'> +2.2556958e-05 </wgt>
<wgt id='morphing_basis_vector_5'> +3.5995973e-05 </wgt>
</rwgt>
</event>
<event>
 4      1 +1.9882500e-09 3.31508600e+03 7.81860800e-03 7.67738700e-02
        2 -1    0    0  501    0 +0.0000000000e+00 +0.0000000000e+00 +2.3038558325e+03 2.3038558325e+03 0.0000000000e+00 0.0000e+00 1.0000e+00
       -2 -1    0    0    0  501 -0.0000000000e+00 -0.0000000000e+00 -1.1925439847e+03 1.1925439847e+03 0.0000000000e+00 0.0000e+00 -1.0000e+00
      -13  1    1    2    0    0 -1.4016879203e+03 -6.8207614073e+02 -3.8626648308e+01 1.5593103943e+03 0.0000000000e+00 0.0000e+00 -1.0000e+00
       13  1    1    2    0    0 +1.4016879203e+03 +6.8207614073e+02 +1.1499384961e+03 1.9370894230e+03 0.0000000000e+00 0.0000e+00 1.0000e+00
<mgrwt>
<rscale>  0 0.33150864E+04</rscale>
<asrwt>0</asrwt>
<pdfrwt beam="1">  1        2 0.35443936E+00 0.33150864E+04</pdfrwt>
<pdfrwt beam="2">  1       -2 0.18346830E+00 0.33150864E+04</pdfrwt>
<totfact> 0.73812802E-01</totfact>
</mgrwt>
<rwgt>
<wgt id='morphing_basis_vector_1'> +3.3102462e-05 </wgt>
<wgt id='morphing_basis_vector_2'> +2.3081283e-05 </wgt>
<wgt id='morphing_basis_vector_3'> +3.6334288e-05 </wgt>
<wgt id='morphing_basis_vector_4'> +2.5026672e-05 </wgt>
<wgt id='morphing_basis_vector_5'> +4.0894482e-05 </wgt>
</rwgt>
</event>
<event>
 4      1 +1.9882500e-09 3.27147900e+03 7.81860800e-03 7.68721700e-02
        2 -1    0    0  501    0 +0.0000000000e+00 +0.0000000000e+00 +1.5971159940e+03 1.5971159940e+03 0.0000000000e+00 0.0000e+00 1.0000e+00
       -2 -1    0    0    0  501 -0.0000000000e+00 -0.0000000000e+00 -1.6752972311e+03 1.6752972311e+03 0.0000000000e+00 0.0000e+00 -1.0000e+00
      -13  1    1    2    0    0 +1.3478084770e+03 +8.1773235765e+02 -4.7552941697e+02 1.6466335736e+03 0.0000000000e+00 0.0000e+00 1.0000e+00
       13  1    1    2    0    0 -1.3478084770e+03 -8.1773235765e+02 +3.9734817983e+02 1.6257796515e+03 0.0000000000e+00 0.0000e+00 -1.0000e+00
<mgrwt>
<rscale>  0 0.32714792E+04</rscale>
<asrwt>0</asrwt>
<pdfrwt beam="1">  1        2 0.24571015E+00 0.32714792E+04</pdfrwt>
<pdfrwt beam="2">  1       -2 0.25773804E+00 0.32714792E+04</pdfrwt>
<totfact> 0.54729835E-01</totfact>
</mgrwt>
<rwgt>
<wgt id='morphing_basis_vector_1'> +3.1517465e-05 </wgt>
<wgt id='morphing_basis_vector_2'> +2.2218488e-05 </wgt>
<wgt id='morphing_basis_vector_3'> +3.4634402e-05 </wgt>
<wgt id='morphing_basis_vector_4'> +2.3496004e-05 </wgt>
<wgt id='morphing_basis_vector_5'> +3.8750745e-05 </wgt>
</rwgt>
</event>
<event>
 4      1 +1.9882500e-09 3.22086800e+03 7.81860800e-03 7.69882700e-02
        2 -1    0    0  501    0 +0.0000000000e+00 +0.0000000000e+00 +1.8194321705e+03 1.8194321705e+03 0.0000000000e+00 0.0000e+00 1.0000e+00
       -2 -1    0    0    0  501 -0.0000000000e+00 -0.0000000000e+00 -1.4254437448e+03 1.4254437448e+03 0.0000000000e+00 0.0000e+00 -1.0000e+00
      -13  1    1    2    0    0 +1.3841258533e+03 -7.4840591478e+02 +5.4245305361e+02 1.6643831008e+03 0.0000000000e+00 0.0000e+00 -1.0000e+00
       13  1    1    2    0    0 -1.3841258533e+03 +7.4840591478e+02 -1.4846462791e+02 1.5804928145e+03 0.0000000000e+00 0.0000e+00 1.0000e+00
<mgrwt>
<rscale>  0 0.32208683E+04</rscale>
<asrwt>0</asrwt>
<pdfrwt beam="1">  1        2 0.27991264E+00 0.32208683E+04</pdfrwt>
<pdfrwt beam="2">  1       -2 0.21929904E+00 0.32208683E+04</pdfrwt>
<totfact> 0.76664352E-01</totfact>
</mgrwt>
<rwgt>
<wgt id='morphing_basis_vector_1'> +3.1486344e-05 </wgt>
<wgt id='morphing_basis_vector_2'> +2.6354637e-05 </wgt>
<wgt id='morphing_basis_vector_3'> +3.5474315e-05 </wgt>
<wgt id='morphing_basis_vector_4'> +1.8173902e-05 </wgt>
<wgt id='morphing_basis_vector_5'> +3.6069623e-05 </wgt>
</rwgt>
</event>
<event>
 4      1 +1.9882500e-09 3.33224800e+03 7.81860800e-03 7.67356100e-02
        2 -1    0    0  501    0 +0.0000000000e+00 +0.0000000000e+00 +1.0339451747e+03 1.0339451747e+03 0.0000000000e+00 0.0000e+00 1.0000e+00
       -2 -1    0    0    0  501 -0.0000000000e+00 -0.0000000000e+00 -2.6848321292e+03 2.6848321292e+03 0.0000000000e+00 0.0000e+00 -1.0000e+00
      -13  1    1    2    0    0 -4.0842302293e+02 -1.3582942667e+03 -1.8010290905e+03 2.2924830349e+03 0.0000000000e+00 0.0000e+00 -1.0000e+00
       13  1    1    2    0    0 +4.0842302293e+02 +1.3582942667e+03 +1.5014213603e+02 1.4262942690e+03 0.0000000000e+00 0.0000e+00 1.0000e+00
<mgrwt>
<rscale>  0 0.33322480E+04</rscale>
<asrwt>0</asrwt>
<pdfrwt beam="1">  1        2 0.15906849E+00 0.33322480E+04</pdfrwt>
<pdfrwt beam="2">  1       -2 0.41305110E+00 0.33322480E+04</pdfrwt>
<totfact> 0.10778441E-01</totfact>
</mgrwt>
<rwgt>
<wgt id='morphing_basis_vector_1'> +3.3596725e-05 </wgt>
<wgt id='morphing_basis_vector_2'> +2.2998253e-05 </wgt>
<wgt id='morphing_basis_vector_3'> +3.6789523e-05 </wgt>
<wgt id='morphing_basis_vector_4'> +2.5953838e-05 </wgt>
<wgt id='morphing_basis_vector_5'> +4.1787264e-05 </wgt>
</rwgt>
</event>
<event>
 4      1 +1.9882500e-09 3.50436600e+03 7.81860800e-03 7.63645100e-02
        2 -1    0    0  501    0 +0.0000000000e+00 +0.0000000000e+00 +2.4338878983e+03 2.4338878983e+03 0.0000000000e+00 0.0000e+00 -1.0000e+00
       -2 -1    0    0    0  501 -0.0000000000e+00 -0.0000000000e+00 -1.2614159463e+03 1.2614159463e+03 0.0000000000e+00 0.0000e+00 1.0000e+00
      -13  1    1    2    0    0 -1.1668169345e+03 -2.8101808751e+02 -7.5992239684e+02 1.4205333411e+03 0.0000000000e+00 0.0000e+00 1.0000e+00
       13  1    1    2    0    0 +1.1668169345e+03 +2.8101808751e+02 +1.9323943489e+03 2.2747705035e+03 0.0000000000e+00 0.0000e+00 -1.0000e+00
<mgrwt>
<rscale>  0 0.35043659E+04</rscale>
<asrwt>0</asrwt>
<pdfrwt beam="1">  1        2 0.37444429E+00 0.35043659E+04</pdfrwt>
<pdfrwt beam="2">  1       -2 0.19406399E+00 0.35043659E+04</pdfrwt>
<totfact> 0.50826865E-01</totfact>
</mgrwt>
<rwgt>
<wgt id='morphing_basis_vector_1'> +4.0917310e-05 </wgt>
<wgt id='morphing_basis_vector_2'> +2.7763431e-05 </wgt>
<wgt id='morphing_basis_vector_3'> +4.4806648e-05 </wgt>
<wgt id='morphing_basis_vector_4'> +3.2039470e-05 </wgt>
<wgt id='morphing_basis_vector_5'> +5.1204092e-05 </wgt>
</rwgt>
</event>
<event>
 4      1 +1.9882500e-09 3.25079900e+03 7.81860800e-03 7.69193500e-02
        2 -1    0    0  501    0 +0.0000000000e+00 +0.0000000000e+00 +1.8841995721e+03 1.8841995721e+03 0.0000000000e+00 0.0000e+00 1.0000e+00
       -2 -1    0    0    0  501 -0.0000000000e+00 -0.0000000000e+00 -1.4021465706e+03 1.4021465706e+03 0.0000000000e+00 0.0000e+00 -1.0000e+00
      -13  1    1    2    0    0 -8.1941758985e+02 -5.7564031957e+01 -1.1768668439e+03 1.4351914063e+03 0.0000000000e+00 0.0000e+00 -1.0000e+00
       13  1    1    2    0    0 +8.1941758985e+02 +5.7564031957e+01 +1.6589198455e+03 1.8511547364e+03 0.0000000000e+00 0.0000e+00 1.0000e+00
<mgrwt>
<rscale>  0 0.32507993E+04</rscale>
<asrwt>0</asrwt>
<pdfrwt beam="1">  1        2 0.28987686E+00 0.32507993E+04</pdfrwt>
<pdfrwt beam="2">  1       -2 0.21571486E+00 0.32507993E+04</pdfrwt>
<totfact> 0.74617329E-01</totfact>
</mgrwt>
<rwgt>
<wgt id='morphing_basis_vector_1'> +3.0340911e-05 </wgt>
<wgt id='morphing_basis_vector_2'> +2.0506758e-05 </wgt>
<wgt id='morphing_basis_vector_3'> +3.3146564e-05 </wgt>
<wgt id='morphing_basis_vector_4'> +2.3726251e-05 </wgt>
<wgt id='morphing_basis_vector_5'> +3.7840981e-05 </wgt>
</rwgt>
</event>
<event>
 4      1 +1.9882500e-09 3.48325700e+03 7.81860800e-03 7.64088300e-02
        2 -1    0    0  501    0 +0.0000000000e+00 +0.0000000000e+00 +1.9095122643e+03 1.9095122643e+03 0.0000000000e+00 0.0000e+00 -1.0000e+00
       -2 -1    0    0    0  501 -0.0000000000e+00 -0.0000000000e+00 -1.5885053658e+03 1.5885053658e+03 0.0000000000e+00 0.0000e+00 1.0000e+00
      -13  1    1    2    0    0 -3.2785618858e+02 -1.5029056900e+03 -6.5969197814e+02 1.6737409296e+03 0.0000000000e+00 0.0000e+00 1.0000e+00
       13  1    1    2    0    0 +3.2785618858e+02 +1.5029056900e+03 +9.8069887672e+02 1.8242767005e+03 0.0000000000e+00 0.0000e+00 -1.0000e+00
<mgrwt>
<rscale>  0 0.34832574E+04</rscale>
<asrwt>0</asrwt>
<pdfrwt beam="1">  1        2 0.29377112E+00 0.34832574E+04</pdfrwt>
<pdfrwt beam="2">  1       -2 0.24438544E+00 0.34832574E+04</pdfrwt>
<totfact> 0.44551468E-01</totfact>
</mgrwt>
<rwgt>
<wgt id='morphing_basis_vector_1'> +4.0116559e-05 </wgt>
<wgt id='morphing_basis_vector_2'> +2.7601679e-05 </wgt>
<wgt id='morphing_basis_vector_3'> +4.4006907e-05 </wgt>
<wgt id='morphing_basis_vector_4'> +3.0912893e-05 </wgt>
<wgt id='morphing_basis_vector_5'> +4.9944059e-05 </wgt>
</rwgt>
</event>
<event>
 4      1 +1.9882500e-09 3.37384800e+03 7.81860800e-03 7.66438300e-02
        2 -1    0    0  501    0 +0.0000000000e+00 +0.0000000000e+00 +1.7033445480e+03 1.7033445480e+03 0.0000000000e+00 0.0000e+00 -1.0000e+00
       -2 -1    0    0    0  501 -0.0000000000e+00 -0.0000000000e+00 -1.6706622280e+03 1.6706622280e+03 0.0000000000e+00 0.0000e+00 1.0000e+00
      -13  1    1    2    0    0 -6.0633428477e+02 -4.2503331406e+02 -1.4994538122e+03 1.6723206385e+03 0.0000000000e+00 0.0000e+00 1.0000e+00
       13  1    1    2    0    0 +6.0633428477e+02 +4.2503331406e+02 +1.5321361322e+03 1.7016861375e+03 0.0000000000e+00 0.0000e+00 -1.0000e+00
<mgrwt>
<rscale>  0 0.33738485E+04</rscale>
<asrwt>0</asrwt>
<pdfrwt beam="1">  1        2 0.26205301E+00 0.33738485E+04</pdfrwt>
<pdfrwt beam="2">  1       -2 0.25702496E+00 0.33738485E+04</pdfrwt>
<totfact> 0.47898556E-01</totfact>
</mgrwt>
<rwgt>
<wgt id='morphing_basis_vector_1'> +3.5159557e-05 </wgt>
<wgt id='morphing_basis_vector_2'> +2.3771074e-05 </wgt>
<wgt id='morphing_basis_vector_3'> +3.8448600e-05 </wgt>
<wgt id='morphing_basis_vector_4'> +2.7564414e-05 </wgt>
<wgt id='morphing_basis_vector_5'> +4.3952029e-05 </wgt>
</rwgt>
</event>
<event>
 4      1 +1.9882500e-09 3.52403300e+03 7.81860800e-03 7.63235100e-02
        2 -1    0    0  501    0 +0.0000000000e+00 +0.0000000000e+00 +2.5050683557e+03 2.5050683557e+03 0.0000000000e+00 0.0000e+00 -1.0000e+00
       -2 -1    0    0    0  501 -0.0000000000e+00 -0.0000000000e+00 -1.2393683740e+03 1.2393683740e+03 0.0000000000e+00 0.0000e+00 1.0000e+00
      -13  1    1    2    0    0 +2.6723549995e+02 -1.5463417912e+03 -2.1858761452e+02 1.5844141797e+03 0.0000000000e+00 0.0000e+00 1.0000e+00
       13  1    1    2    0    0 -2.6723549995e+02 +1.5463417912e+03 +1.4842875963e+03 2.1600225499e+03 0.0000000000e+00 0.0000e+00 -1.0000e+00
<mgrwt>
<rscale>  0 0.35240332E+04</rscale>
<asrwt>0</asrwt>
<pdfrwt beam="1">  1        2 0.38539513E+00 0.35240332E+04</pdfrwt>
<pdfrwt beam="2">  1       -2 0.19067206E+00 0.35240332E+04</pdfrwt>
<totfact> 0.48780781E-01</totfact>
</mgrwt>
<rwgt>
<wgt id='morphing_basis_vector_1'> +4.2031392e-05 </wgt>
<wgt id='morphing_basis_vector_2'> +2.8960861e-05 </wgt>
<wgt id='morphing_basis_vector_3'> +4.6128952e-05 </wgt>
<wgt id='morphing_basis_vector_4'> +3.2361493e-05 </wgt>
<wgt id='morphing_basis_vector_5'> +5.2337019e-05 </wgt>
</rwgt>
</event>
<event>
 4      1 +1.9882500e-09 3.64492600e+03 7.81860800e-03 7.60773300e-02
        2 -1    0    0  501    0 +0.0000000000e+00 +0.0000000000e+00 +3.2728812396e+03 3.2728812396e+03 0.0000000000e+00 0.0000e+00 1.0000e+00
       -2 -1    0    0    0  501 -0.0000000000e+00 -0.0000000000e+00 -1.0148155975e+03 1.0148155975e+03 0.0000000000e+00 0.0000e+00 -1.0000e+00
      -13  1    1    2    0    0 -6.4160344088e+02 +8.2320681422e+02 -6.2843346934e+02 1.2182992488e+03 0.0000000000e+00 0.0000e+00 -1.0000e+00
       13  1    1    2    0    0 +6.4160344088e+02 -8.2320681422e+02 +2.8864991114e+03 3.0693975882e+03 0.0000000000e+00 0.0000e+00 1.0000e+00
<mgrwt>
<rscale>  0 0.36449257E+04</rscale>
<asrwt>0</asrwt>
<pdfrwt beam="1">  1        2 0.50352018E+00 0.36449257E+04</pdfrwt>
<pdfrwt beam="2">  1       -2 0.15612548E+00 0.36449257E+04</pdfrwt>
<totfact> 0.28808385E-01</totfact>
</mgrwt>
<rwgt>
<wgt id='morphing_basis_vector_1'> +4.7810572e-05 </wgt>
<wgt id='morphing_basis_vector_2'> +3.2395041e-05 </wgt>
<wgt id='morphing_basis_vector_3'> +5.2390077e-05 </wgt>
<wgt id='morphing_basis_vector_4'> +3.7594098e-05 </wgt>
<wgt id='morphing_basis_vector_5'> +5.9990646e-05 </wgt>
</rwgt>
</event>
<event>
 4      1 +1.9882500e-09 3.25857100e+03 7.81860800e-03 7.69015700e-02
        2 -1    0    0  501    0 +0.0000000000e+00 +0.0000000000e+00 +1.6704698046e+03 1.6704698046e+03 0.0000000000e+00 0.0000e+00 -1.0000e+00
       -2 -1    0    0    0  501 -0.0000000000e+00 -0.0000000000e+00 -1.5891167986e+03 1.5891167986e+03 0.0000000000e+00 0.0000e+00 1.0000e+00
      -13  1    1    2    0    0 +1.0252660199e+03 +1.0036681194e+03 -7.3160779544e+02 1.6105185723e+03 0.0000000000e+00 0.0000e+00 1.0000e+00
       13  1    1    2    0    0 -1.0252660199e+03 -1.0036681194e+03 +8.1296080149e+02 1.6490680308e+03 0.0000000000e+00 0.0000e+00 -1.0000e+00
<mgrwt>
<rscale>  0 0.32585712E+04</rscale>
<asrwt>0</asrwt>
<pdfrwt beam="1">  1        2 0.25699535E+00 0.32585712E+04</pdfrwt>
<pdfrwt beam="2">  1       -2 0.24447951E+00 0.32585712E+04</pdfrwt>
<totfact> 0.61590237E-01</totfact>
</mgrwt>
<rwgt>
<wgt id='morphing_basis_vector_1'> +3.0780065e-05 </wgt>
<wgt id='morphing_basis_vector_2'> +2.1145067e-05 </wgt>
<wgt id='morphing_basis_vector_3'> +3.3701678e-05 </wgt>
<wgt id='morphing_basis_vector_4'> +2.3641152e-05 </wgt>
<wgt id='morphing_basis_vector_5'> +3.8180933e-05 </wgt>
</rwgt>
</event>
<event>
 4      1 +1.9882500e-09 3.52816300e+03 7.81860800e-03 7.63149300e-02
        2 -1    0    0  501    0 +0.0000000000e+00 +0.0000000000e+00 +1.4380569337e+03 1.4380569337e+03 0.0000000000e+00 0.0000e+00 1.0000e+00
       -2 -1    0    0    0  501 -0.0000000000e+00 -0.0000000000e+00 -2.1640197077e+03 2.1640197077e+03 0.0000000000e+00 0.0000e+00 -1.0000e+00
      -13  1    1    2    0    0 +1.5755314652e+03 +2.6873181081e+02 +3.9929774378e+02 1.6474085323e+03 0.0000000000e+00 0.0000e+00 1.0000e+00
       13  1    1    2    0    0 -1.5755314652e+03 -2.6873181081e+02 -1.1252605178e+03 1.9546681092e+03 0.0000000000e+00 0.0000e+00 -1.0000e+00
<mgrwt>
<rscale>  0 0.35281630E+04</rscale>
<asrwt>0</asrwt>
<pdfrwt beam="1">  1        2 0.22123953E+00 0.35281630E+04</pdfrwt>
<pdfrwt beam="2">  1       -2 0.33292611E+00 0.35281630E+04</pdfrwt>
<totfact> 0.20437613E-01</totfact>
</mgrwt>
<rwgt>
<wgt id='morphing_basis_vector_1'> +4.8237886e-05 </wgt>
<wgt id='morphing_basis_vector_2'> +4.6776148e-05 </wgt>
<wgt id='morphing_basis_vector_3'> +5.5902104e-05 </wgt>
<wgt id='morphing_basis_vector_4'> +1.9874479e-05 </wgt>
<wgt id='morphing_basis_vector_5'> +5.1536506e-05 </wgt>
</rwgt>
</event>
<event>
 4      1 +1.9882500e-09 3.63851900e+03 7.81860800e-03 7.60901300e-02
        2 -1    0    0  501    0 +0.0000000000e+00 +0.0000000000e+00 +1.7870786261e+03 1.7870786261e+03 0.0000000000e+00 0.0000e+00 1.0000e+00
       -2 -1    0    0    0  501 -0.0000000000e+00 -0.0000000000e+00 -1.8520195184e+03 1.8520195184e+03 0.0000000000e+00 0.0000e+00 -1.0000e+00
      -13  1    1    2    0    0 +1.2193865263e+03 -1.0272459687e+03 -9.0871882971e+02 1.8351860102e+03 0.0000000000e+00 0.0000e+00 -1.0000e+00
       13  1    1    2    0    0 -1.2193865263e+03 +1.0272459687e+03 +8.4377793739e+02 1.8039121343e+03 0.0000000000e+00 0.0000e+00 1.0000e+00
<mgrwt>
<rscale>  0 0.36385187E+04</rscale>
<asrwt>0</asrwt>
<pdfrwt beam="1">  1        2 0.27493517E+00 0.36385187E+04</pdfrwt>
<pdfrwt beam="2">  1       -2 0.28492608E+00 0.36385187E+04</pdfrwt>
<totfact> 0.27132767E-01</totfact>
</mgrwt>
<rwgt>
<wgt id='morphing_basis_vector_1'> +4.7692381e-05 </wgt>
<wgt id='morphing_basis_vector_2'> +3.2800801e-05 </wgt>
<wgt id='morphing_basis_vector_3'> +5.2365566e-05 </wgt>
<wgt id='morphing_basis_vector_4'> +3.6876017e-05 </wgt>
<wgt id='morphing_basis_vector_5'> +5.9529838e-05 </wgt>
</rwgt>
</event>
<event>
 4      1 +1.9882500e-09 3.35554800e+03 7.81860800e-03 7.66840400e-02
        2 -1    0    0  501    0 +0.0000000000e+00 +0.0000000000e+00 +2.0722482727e+03 2.0722482727e+03 0.0000000000e+00 0.0000e+00 -1.0000e+00
       -2 -1    0    0    0  501 -0.0000000000e+00 -0.0000000000e+00 -1.3583921830e+03 1.3583921830e+03 0.0000000000e+00 0.0000e+00 1.0000e+00
      -13  1    1    2    0    0 +1.5605992888e+03 -5.5345044099e+02 +8.0416085833e+01 1.6577829405e+03 0.0000000000e+00 0.0000e+00 -1.0000e+00
       13  1    1    2    0    0 -1.5605992888e+03 +5.5345044099e+02 +6.3344000385e+02 1.7728575152e+03 0.0000000000e+00 0.0000e+00 1.0000e+00
<mgrwt>
<rscale>  0 0.33555482E+04</rscale>
<asrwt>0</asrwt>
<pdfrwt beam="1">  1        2 0.31880743E+00 0.33555482E+04</pdfrwt>
<pdfrwt beam="2">  1       -2 0.20898341E+00 0.33555482E+04</pdfrwt>
<totfact> 0.64808207E-01</totfact>
</mgrwt>
<rwgt>
<wgt id='morphing_basis_vector_1'> +3.5096889e-05 </wgt>
<wgt id='morphing_basis_vector_2'> +2.5287119e-05 </wgt>
<wgt id='morphing_basis_vector_3'> +3.8711706e-05 </wgt>
<wgt id='morphing_basis_vector_4'> +2.5523078e-05 </wgt>
<wgt id='morphing_basis_vector_5'> +4.2880137e-05 </wgt>
</rwgt>
</event>
<event>
 4      1 +1.9882500e-09 3.55720000e+03 7.81860800e-03 7.62549700e-02
        2 -1    0    0  501    0 +0.0000000000e+00 +0.0000000000e+00 +1.5188166785e+03 1.5188166785e+03 0.0000000000e+00 0.0000e+00 -1.0000e+00
       -2 -1    0    0    0  501 -0.0000000000e+00 -0.0000000000e+00 -2.0828179863e+03 2.0828179863e+03 0.0000000000e+00 0.0000e+00 1.0000e+00
      -13  1    1    2    0    0 +1.4118034785e+03 +9.6871854068e+02 +2.0548425446e+02 1.7244791828e+03 0.0000000000e+00 0.0000e+00 -1.0000e+00
       13  1    1    2    0    0 -1.4118034785e+03 -9.6871854068e+02 -7.6948556225e+02 1.8771554820e+03 0.0000000000e+00 0.0000e+00 1.0000e+00
<mgrwt>
<rscale>  0 0.35572004E+04</rscale>
<asrwt>0</asrwt>
<pdfrwt beam="1">  1        2 0.23366411E+00 0.35572004E+04</pdfrwt>
<pdfrwt beam="2">  1       -2 0.32043353E+00 0.35572004E+04</pdfrwt>
<totfact> 0.22229901E-01</totfact>
</mgrwt>
<rwgt>
<wgt id='morphing_basis_vector_1'> +4.7409090e-05 </wgt>
<wgt id='morphing_basis_vector_2'> +4.1192282e-05 </wgt>
<wgt id='morphing_basis_vector_3'> +5.3909482e-05 </wgt>
<wgt id='morphing_basis_vector_4'> +2.5644715e-05 </wgt>
<wgt id='morphing_basis_vector_5'> +5.3688096e-05 </wgt>
</rwgt>
</event>
<event>
 4      1 +1.9882500e-09 3.45345800e+03 7.81860800e-03 7.64719500e-02
        2 -1    0    0  501    0 +0.0000000000e+00 +0.0000000000e+00 +2.1750615306e+03 2.1750615306e+03 0.0000000000e+00 0.0000e+00 -1.0000e+00
       -2 -1    0    0    0  501 -0.0000000000e+00 -0.0000000000e+00 -1.3708085491e+03 1.3708085491e+03 0.0000000000e+00 0.0000e+00 1.0000e+00
      -13  1    1    2    0    0 -4.2156034476e+02 +3.8526843967e+00 -1.3171558218e+03 1.3829777389e+03 0.0000000000e+00 0.0000e+00 1.0000e+00
       13  1    1    2    0    0 +4.2156034476e+02 -3.8526843967e+00 +2.1214088033e+03 2.1628923408e+03 0.0000000000e+00 0.0000e+00 -1.0000e+00
<mgrwt>
<rscale>  0 0.34534579E+04</rscale>
<asrwt>0</asrwt>
<pdfrwt beam="1">  1        2 0.33462485E+00 0.34534579E+04</pdfrwt>
<pdfrwt beam="2">  1       -2 0.21089362E+00 0.34534579E+04</pdfrwt>
<totfact> 0.54433330E-01</totfact>
</mgrwt>
<rwgt>
<wgt id='morphing_basis_vector_1'> +3.8567960e-05 </wgt>
<wgt id='morphing_basis_vector_2'> +2.6076392e-05 </wgt>
<wgt id='morphing_basis_vector_3'> +4.2199514e-05 </wgt>
<wgt id='morphing_basis_vector_4'> +3.0287067e-05 </wgt>
<wgt id='morphing_basis_vector_5'> +4.8281027e-05 </wgt>
</rwgt>
</event>
<event>
 4      1 +1.9882500e-09 3.35544800e+03 7.81860800e-03 7.66842600e-02
        2 -1    0    0  501    0 +0.0000000000e+00 +0.0000000000e+00 +1.0014432704e+03 1.0014432704e+03 0.0000000000e+00 0.0000e+00 -1.0000e+00
       -2 -1    0    0    0  501 -0.0000000000e+00 -0.0000000000e+00 -2.8107008467e+03 2.8107008467e+03 0.0000000000e+00 0.0000e+00 1.0000e+00
      -13  1    1    2    0    0 +3.3612575763e+02 -1.4495145824e+03 -1.7851544198e+03 2.3239727520e+03 0.0000000000e+00 0.0000e+00 1.0000e+00
       13  1    1    2    0    0 -3.3612575763e+02 +1.4495145824e+03 -2.4103156499e+01 1.4881713650e+03 0.0000000000e+00 0.0000e+00 -1.0000e+00
<mgrwt>
<rscale>  0 0.33554478E+04</rscale>
<asrwt>0</asrwt>
<pdfrwt beam="1">  1        2 0.15406820E+00 0.33554478E+04</pdfrwt>
<pdfrwt beam="2">  1       -2 0.43241551E+00 0.33554478E+04</pdfrwt>
<totfact> 0.83650689E-02</totfact>
</mgrwt>
<rwgt>
<wgt id='morphing_basis_vector_1'> +3.4587498e-05 </wgt>
<wgt id='morphing_basis_vector_2'> +2.3797486e-05 </wgt>
<wgt id='morphing_basis_vector_3'> +3.7907232e-05 </wgt>
<wgt id='morphing_basis_vector_4'> +2.6579562e-05 </wgt>
<wgt id='morphing_basis_vector_5'> +4.2962599e-05 </wgt>
</rwgt>
</event>
<event>
 4      1 +1.9882500e-09 3.84373800e+03 7.81860800e-03 7.56930300e-02
        2 -1    0    0  501    0 +0.0000000000e+00 +0.0000000000e+00 +1.4247462457e+03 1.4247462457e+03 0.0000000000e+00 0.0000e+00 -1.0000e+00
       -2 -1    0    0    0  501 -0.0000000000e+00 -0.0000000000e+00 -2.5924478419e+03 2.5924478419e+03 0.0000000000e+00 0.0000e+00 1.0000e+00
      -13  1    1    2    0    0 +5.0865079944e+02 +3.8062078895e+02 -2.4795343389e+03 2.5596266053e+03 0.0000000000e+00 0.0000e+00 1.0000e+00
       13  1    1    2    0    0 -5.0865079944e+02 -3.8062078895e+02 +1.3118327427e+03 1.4575674824e+03 0.0000000000e+00 0.0000e+00 -1.0000e+00
<mgrwt>
<rscale>  0 0.38437379E+04</rscale>
<asrwt>0</asrwt>
<pdfrwt beam="1">  1        2 0.21919173E+00 0.38437379E+04</pdfrwt>
<pdfrwt beam="2">  1       -2 0.39883813E+00 0.38437379E+04</pdfrwt>
<totfact> 0.75843784E-02</totfact>
</mgrwt>
<rwgt>
<wgt id='morphing_basis_vector_1'> +5.9031727e-05 </wgt>
<wgt id='morphing_basis_vector_2'> +3.9979251e-05 </wgt>
<wgt id='morphing_basis_vector_3'> +6.4750138e-05 </wgt>
<wgt id='morphing_basis_vector_4'> +4.6592518e-05 </wgt>
<wgt id='morphing_basis_vector_5'> +7.4283043e-05 </wgt>
</rwgt>
</event>
<event>
 4      1 +1.9882500e-09 3.44953000e+03 7.81860800e-03 7.64803200e-02
        2 -1    0    0  501    0 +0.0000000000e+00 +0.0000000000e+00 +2.3011398033e+03 2.3011398033e+03 0.0000000000e+00 0.0000e+00 -1.0000e+00
       -2 -1    0    0    0  501 -0.0000000000e+00 -0.0000000000e+00 -1.2927570280e+03 1.2927570280e+03 0.0000000000e+00 0.0000e+00 1.0000e+00
      -13  1    1    2    0    0 -4.1958794868e+02 +4.2598509818e+02 -1.1813219090e+03 1.3240237170e+03 0.0000000000e+00 0.0000e+00 1.0000e+00
       13  1    1    2    0    0 +4.1958794868e+02 -4.2598509818e+02 +2.1897046843e+03 2.2698731143e+03 0.0000000000e+00 0.0000e+00 -1.0000e+00
<mgrwt>
<rscale>  0 0.34495302E+04</rscale>
<asrwt>0</asrwt>
<pdfrwt beam="1">  1        2 0.35402151E+00 0.34495302E+04</pdfrwt>
<pdfrwt beam="2">  1       -2 0.19888570E+00 0.34495302E+04</pdfrwt>
<totfact> 0.56283362E-01</totfact>
</mgrwt>
<rwgt>
<wgt id='morphing_basis_vector_1'> +3.8395235e-05 </wgt>
<wgt id='morphing_basis_vector_2'> +2.5961918e-05 </wgt>
<wgt id='morphing_basis_vector_3'> +4.2009912e-05 </wgt>
<wgt id='morphing_basis_vector_4'> +3.0146029e-05 </wgt>
<wgt id='morphing_basis_vector_5'> +4.8060078e-05 </wgt>
</rwgt>
</event>
<event>
 4      1 +1.9882500e-09 3.25174600e+03 7.81860800e-03 7.69171800e-02
        2 -1    0    0  501    0 +0.0000000000e+00 +0.0000000000e+00 +1.9485262249e+03 1.9485262249e+03 0.0000000000e+00 0.0000e+00 1.0000e+00
       -2 -1    0    0    0  501 -0.0000000000e+00 -0.0000000000e+00 -1.3566472150e+03 1.3566472150e+03 0.0000000000e+00 0.0000e+00 -1.0000e+00
      -13  1    1    2    0    0 -9.9004288213e+02 +1.0712208939e+03 -4.3402710718e+02 1.5218668278e+03 0.0000000000e+00 0.0000e+00 -1.0000e+00
       13  1    1    2    0    0 +9.9004288213e+02 -1.0712208939e+03 +1.0259061171e+03 1.7833066122e+03 0.0000000000e+00 0.0000e+00 1.0000e+00
<mgrwt>
<rscale>  0 0.32517458E+04</rscale>
<asrwt>0</asrwt>
<pdfrwt beam="1">  1        2 0.29977327E+00 0.32517458E+04</pdfrwt>
<pdfrwt beam="2">  1       -2 0.20871496E+00 0.32517458E+04</pdfrwt>
<totfact> 0.77093594E-01</totfact>
</mgrwt>
<rwgt>
<wgt id='morphing_basis_vector_1'> +3.0552017e-05 </wgt>
<wgt id='morphing_basis_vector_2'> +2.1048658e-05 </wgt>
<wgt id='morphing_basis_vector_3'> +3.3463024e-05 </wgt>
<wgt id='morphing_basis_vector_4'> +2.3385623e-05 </wgt>
<wgt id='morphing_basis_vector_5'> +3.7854979e-05 </wgt>
</rwgt>
</event>
<event>
 4      1 +1.9882500e-09 3.49147800e+03 7.81860800e-03 7.63915300e-02
        2 -1    0    0  501    0 +0.0000000000e+00 +0.0000000000e+00 +1.5314961811e+03 1.5314961811e+03 0.0000000000e+00 0.0000e+00 -1.0000e+00
       -2 -1    0    0    0  501 -0.0000000000e+00 -0.0000000000e+00 -1.9899530519e+03 1.9899530519e+03 0.0000000000e+00 0.0000e+00 1.0000e+00
      -13  1    1    2    0    0 -1.0847441706e+03 +2.1853134314e+01 -1.6086151698e+03 1.9403067386e+03 0.0000000000e+00 0.0000e+00 1.0000e+00
       13  1    1    2    0    0 +1.0847441706e+03 -2.1853134314e+01 +1.1501582990e+03 1.5811424945e+03 0.0000000000e+00 0.0000e+00 -1.0000e+00
<mgrwt>
<rscale>  0 0.34914785E+04</rscale>
<asrwt>0</asrwt>
<pdfrwt beam="1">  1        2 0.23561480E+00 0.34914785E+04</pdfrwt>
<pdfrwt beam="2">  1       -2 0.30614662E+00 0.34914785E+04</pdfrwt>
<totfact> 0.27393042E-01</totfact>
</mgrwt>
<rwgt>
<wgt id='morphing_basis_vector_1'> +4.0306487e-05 </wgt>
<wgt id='morphing_basis_vector_2'> +2.7310661e-05 </wgt>
<wgt id='morphing_basis_vector_3'> +4.4125699e-05 </wgt>
<wgt id='morphing_basis_vector_4'> +3.1601893e-05 </wgt>
<wgt id='morphing_basis_vector_5'> +5.0453012e-05 </wgt>
</rwgt>
</event>
<event>
 4      1 +1.9882500e-09 3.46372700e+03 7.81860800e-03 7.64501300e-02
        2 -1    0    0  501    0 +0.0000000000e+00 +0.0000000000e+00 +1.3158285321e+03 1.3158285321e+03 0.0000000000e+00 0.0000e+00 -1.0000e+00
       -2 -1    0    0    0  501 -0.0000000000e+00 -0.0000000000e+00 -2.2794388483e+03 2.2794388483e+03 0.0000000000e+00 0.0000e+00 1.0000e+00
      -13  1    1    2    0    0 -6.8643168313e+02 -1.5855092921e+03 -6.0602673488e+02 1.8309277906e+03 0.0000000000e+00 0.0000e+00 1.0000e+00
       13  1    1    2    0    0 +6.8643168313e+02 +1.5855092921e+03 -3.5758358129e+02 1.7643395899e+03 0.0000000000e+00 0.0000e+00 -1.0000e+00
<mgrwt>
<rscale>  0 0.34637267E+04</rscale>
<asrwt>0</asrwt>
<pdfrwt beam="1">  1        2 0.20243516E+00 0.34637267E+04</pdfrwt>
<pdfrwt beam="2">  1       -2 0.35068290E+00 0.34637267E+04</pdfrwt>
<totfact> 0.18429914E-01</totfact>
</mgrwt>
<rwgt>
<wgt id='morphing_basis_vector_1'> +4.0139469e-05 </wgt>
<wgt id='morphing_basis_vector_2'> +2.9664032e-05 </wgt>
<wgt id='morphing_basis_vector_3'> +4.4471830e-05 </wgt>
<wgt id='morphing_basis_vector_4'> +2.8311013e-05 </wgt>
<wgt id='morphing_basis_vector_5'> +4.8667858e-05 </wgt>
</rwgt>
</event>
<event>
 4      1 +1.9882500e-09 3.36552100e+03 7.81860800e-03 7.66620900e-02
        2 -1    0    0  501    0 +0.0000000000e+00 +0.0000000000e+00 +2.8762927485e+03 2.8762927485e+03 0.0000000000e+00 0.0000e+00 1.0000e+00
       -2 -1    0    0    0  501 -0.0000000000e+00 -0.0000000000e+00 -9.8449070229e+02 9.8449070229e+02 0.0000000000e+00 0.0000e+00 -1.0000e+00
      -13  1    1    2    0    0 -1.3162885856e+03 +3.3932319371e+02 -1.9200046569e+02 1.3728146449e+03 0.0000000000e+00 0.0000e+00 -1.0000e+00
       13  1    1    2    0    0 +1.3162885856e+03 -3.3932319371e+02 +2.0838025119e+03 2.4879688058e+03 0.0000000000e+00 0.0000e+00 1.0000e+00
<mgrwt>
<rscale>  0 0.33655213E+04</rscale>
<asrwt>0</asrwt>
<pdfrwt beam="1">  1        2 0.44250657E+00 0.33655213E+04</pdfrwt>
<pdfrwt beam="2">  1       -2 0.15146011E+00 0.33655213E+04</pdfrwt>
<totfact> 0.58956490E-01</totfact>
</mgrwt>
<rwgt>
<wgt id='morphing_basis_vector_1'> +3.4906200e-05 </wgt>
<wgt id='morphing_basis_vector_2'> +2.3802734e-05 </wgt>
<wgt id='morphing_basis_vector_3'> +3.8213121e-05 </wgt>
<wgt id='morphing_basis_vector_4'> +2.7102674e-05 </wgt>
<wgt id='morphing_basis_vector_5'> +4.3501084e-05 </wgt>
</rwgt>
</event>
<event>
 4      1 +1.9882500e-09 3.46560600e+03 7.81860800e-03 7.64461400e-02
        2 -1    0    0  501    0 +0.0000000000e+00 +0.0000000000e+00 +1.5503634231e+03 1.5503634231e+03 0.0000000000e+00 0.0000e+00 -1.0000e+00
       -2 -1    0    0    0  501 -0.0000000000e+00 -0.0000000000e+00 -1.9367111659e+03 1.9367111659e+03 0.0000000000e+00 0.0000e+00 1.0000e+00
      -13  1    1    2    0    0 -5.1855495327e+02 -8.3627716432e+02 -1.6283150218e+03 1.9025426527e+03 0.0000000000e+00 0.0000e+00 1.0000e+00
       13  1    1    2    0    0 +5.1855495327e+02 +8.3627716432e+02 +1.2419672790e+03 1.5845319363e+03 0.0000000000e+00 0.0000e+00 -1.0000e+00
<mgrwt>
<rscale>  0 0.34656060E+04</rscale>
<asrwt>0</asrwt>
<pdfrwt beam="1">  1        2 0.23851745E+00 0.34656060E+04</pdfrwt>
<pdfrwt beam="2">  1       -2 0.29795556E+00 0.34656060E+04</pdfrwt>
<totfact> 0.30416858E-01</totfact>
</mgrwt>
<rwgt>
<wgt id='morphing_basis_vector_1'> +3.9124373e-05 </wgt>
<wgt id='morphing_basis_vector_2'> +2.6487263e-05 </wgt>
<wgt id='morphing_basis_vector_3'> +4.2819358e-05 </wgt>
<wgt id='morphing_basis_vector_4'> +3.0687538e-05 </wgt>
<wgt id='morphing_basis_vector_5'> +4.8965986e-05 </wgt>
</rwgt>
</event>
<event>
 4      1 +1.9882500e-09 3.47891000e+03 7.81860800e-03 7.64180000e-02
        2 -1    0    0  501    0 +0.0000000000e+00 +0.0000000000e+00 +1.9007582159e+03 1.9007582159e+03 0.0000000000e+00 0.0000e+00 1.0000e+00
       -2 -1    0    0    0  501 -0.0000000000e+00 -0.0000000000e+00 -1.5918407503e+03 1.5918407503e+03 0.0000000000e+00 0.0000e+00 -1.0000e+00
      -13  1    1    2    0    0 +5.2576032634e+02 -1.6206472050e+03 +5.0624167473e+02 1.7774143909e+03 0.0000000000e+00 0.0000e+00 1.0000e+00
       13  1    1    2    0    0 -5.2576032634e+02 +1.6206472050e+03 -1.9732420906e+02 1.7151845753e+03 0.0000000000e+00 0.0000e+00 -1.0000e+00
<mgrwt>
<rscale>  0 0.34789104E+04</rscale>
<asrwt>0</asrwt>
<pdfrwt beam="1">  1        2 0.29242434E+00 0.34789104E+04</pdfrwt>
<pdfrwt beam="2">  1       -2 0.24489858E+00 0.34789104E+04</pdfrwt>
<totfact> 0.44704990E-01</totfact>
</mgrwt>
<rwgt>
<wgt id='morphing_basis_vector_1'> +4.2645500e-05 </wgt>
<wgt id='morphing_basis_vector_2'> +3.5488149e-05 </wgt>
<wgt id='morphing_basis_vector_3'> +4.8119369e-05 </wgt>
<wgt id='morphing_basis_vector_4'> +2.5026270e-05 </wgt>
<wgt id='morphing_basis_vector_5'> +4.9218736e-05 </wgt>
</rwgt>
</event>
<event>
 4      1 +1.9882500e-09 3.32163200e+03 7.81860800e-03 7.67592500e-02
        2 -1    0    0  501    0 +0.0000000000e+00 +0.0000000000e+00 +2.0402505524e+03 2.0402505524e+03 0.0000000000e+00 0.0000e+00 -1.0000e+00
       -2 -1    0    0    0  501 -0.0000000000e+00 -0.0000000000e+00 -1.3519462749e+03 1.3519462749e+03 0.0000000000e+00 0.0000e+00 1.0000e+00
      -13  1    1    2    0    0 -1.2354804361e+03 +4.3562688860e+02 -6.9838080271e+02 1.4845600155e+03 0.0000000000e+00 0.0000e+00 1.0000e+00
       13  1    1    2    0    0 +1.2354804361e+03 -4.3562688860e+02 +1.3866850802e+03 1.9076368118e+03 0.0000000000e+00 0.0000e+00 -1.0000e+00
<mgrwt>
<rscale>  0 0.33216316E+04</rscale>
<asrwt>0</asrwt>
<pdfrwt beam="1">  1        2 0.31388470E+00 0.33216316E+04</pdfrwt>
<pdfrwt beam="2">  1       -2 0.20799173E+00 0.33216316E+04</pdfrwt>
<totfact> 0.68880257E-01</totfact>
</mgrwt>
<rwgt>
<wgt id='morphing_basis_vector_1'> +3.3120415e-05 </wgt>
<wgt id='morphing_basis_vector_2'> +2.2550514e-05 </wgt>
<wgt id='morphing_basis_vector_3'> +3.6238769e-05 </wgt>
<wgt id='morphing_basis_vector_4'> +2.5734150e-05 </wgt>
<wgt id='morphing_basis_vector_5'> +4.1262729e-05 </wgt>
</rwgt>
</event>
<event>
 4      1 +1.9882500e-09 3.44400200e+03 7.81860800e-03 7.64921100e-02
        2 -1    0    0  501    0 +0.0000000000e+00 +0.0000000000e+00 +2.5845025704e+03 2.5845025704e+03 0.0000000000e+00 0.0000e+00 -1.0000e+00
       -2 -1    0    0    0  501 -0.0000000000e+00 -0.0000000000e+00 -1.1473341709e+03 1.1473341709e+03 0.0000000000e+00 0.0000e+00 1.0000e+00
      -13  1    1    2    0    0 -1.6157137792e+03 -4.6200753552e+02 +3.1126048073e+02 1.7090538511e+03 0.0000000000e+00 0.0000e+00 1.0000e+00
       13  1    1    2    0    0 +1.6157137792e+03 +4.6200753552e+02 +1.1259079187e+03 2.0227828901e+03 0.0000000000e+00 0.0000e+00 -1.0000e+00
<mgrwt>
<rscale>  0 0.34440024E+04</rscale>
<asrwt>0</asrwt>
<pdfrwt beam="1">  1        2 0.39761578E+00 0.34440024E+04</pdfrwt>
<pdfrwt beam="2">  1       -2 0.17651295E+00 0.34440024E+04</pdfrwt>
<totfact> 0.56239382E-01</totfact>
</mgrwt>
<rwgt>
<wgt id='morphing_basis_vector_1'> +3.8762867e-05 </wgt>
<wgt id='morphing_basis_vector_2'> +2.7595271e-05 </wgt>
<wgt id='morphing_basis_vector_3'> +4.2711676e-05 </wgt>
<wgt id='morphing_basis_vector_4'> +2.8667752e-05 </wgt>
<wgt id='morphing_basis_vector_5'> +4.7644358e-05 </wgt>
</rwgt>
</event>
<event>
 4      1 +1.9882500e-09 3.44916000e+03 7.81860800e-03 7.64811100e-02
        2 -1    0    0  501    0 +0.0000000000e+00 +0.0000000000e+00 +2.4161338287e+03 2.4161338287e+03 0.0000000000e+00 0.0000e+00 -1.0000e+00
       -2 -1    0    0    0  501 -0.0000000000e+00 -0.0000000000e+00 -1.2309652647e+03 1.2309652647e+03 0.0000000000e+00 0.0000e+00 1.0000e+00
      -13  1    1    2    0    0 +1.0859663962e+03 +1.0913537069e+03 -2.2905472754e+02 1.5565481025e+03 0.0000000000e+00 0.0000e+00 1.0000e+00
       13  1    1    2    0    0 -1.0859663962e+03 -1.0913537069e+03 +1.4142232915e+03 2.0905509909e+03 0.0000000000e+00 0.0000e+00 -1.0000e+00
<mgrwt>
<rscale>  0 0.34491604E+04</rscale>
<asrwt>0</asrwt>
<pdfrwt beam="1">  1        2 0.37171290E+00 0.34491604E+04</pdfrwt>
<pdfrwt beam="2">  1       -2 0.18937927E+00 0.34491604E+04</pdfrwt>
<totfact> 0.56670710E-01</totfact>
</mgrwt>
<rwgt>
<wgt id='morphing_basis_vector_1'> +3.8598436e-05 </wgt>
<wgt id='morphing_basis_vector_2'> +2.6596721e-05 </wgt>
<wgt id='morphing_basis_vector_3'> +4.2340334e-05 </wgt>
<wgt id='morphing_basis_vector_4'> +2.9671862e-05 </wgt>
<wgt id='morphing_basis_vector_5'> +4.8001143e-05 </wgt>
</rwgt>
</event>
<event>
 4      1 +1.9882500e-09 3.28933200e+03 7.81860800e-03 7.68317400e-02
        2 -1    0    0  501    0 +0.0000000000e+00 +0.0000000000e+00 +1.9132610037e+03 1.9132610037e+03 0.0000000000e+00 0.0000e+00 -1.0000e+00
       -2 -1    0    0    0  501 -0.0000000000e+00 -0.0000000000e+00 -1.4137777862e+03 1.4137777862e+03 0.0000000000e+00 0.0000e+00 1.0000e+00
      -13  1    1    2    0    0 -8.0976917511e+02 -2.8198120711e+02 -1.1698019514e+03 1.4504055031e+03 0.0000000000e+00 0.0000e+00 1.0000e+00
       13  1    1    2    0    0 +8.0976917511e+02 +2.8198120711e+02 +1.6692851689e+03 1.8766332868e+03 0.0000000000e+00 0.0000e+00 -1.0000e+00
<mgrwt>
<rscale>  0 0.32893318E+04</rscale>
<asrwt>0</asrwt>
<pdfrwt beam="1">  1        2 0.29434785E+00 0.32893318E+04</pdfrwt>
<pdfrwt beam="2">  1       -2 0.21750427E+00 0.32893318E+04</pdfrwt>
<totfact> 0.69574020E-01</totfact>
</mgrwt>
<rwgt>
<wgt id='morphing_basis_vector_1'> +3.1794872e-05 </wgt>
<wgt id='morphing_basis_vector_2'> +2.1496587e-05 </wgt>
<wgt id='morphing_basis_vector_3'> +3.4747147e-05 </wgt>
<wgt id='morphing_basis_vector_4'> +2.4877558e-05 </wgt>
<wgt id='morphing_basis_vector_5'> +3.9681022e-05 </wgt>
</rwgt>
</event>
<event>
 4      1 +1.9882500e-09 3.63500600e+03 7.81860800e-03 7.60971600e-02
        2 -1    0    0  501    0 +0.0000000000e+00 +0.0000000000e+00 +3.3576706829e+03 3.3576706829e+03 0.0000000000e+00 0.0000e+00 -1.0000e+00
       -2 -1    0    0    0  501 -0.0000000000e+00 -0.0000000000e+00 -9.8381210007e+02 9.8381210007e+02 0.0000000000e+00 0.0000e+00 1.0000e+00
      -13  1    1    2    0    0 +2.3617821411e+02 -1.2678092902e+03 -3.4268135850e+02 1.3343729084e+03 0.0000000000e+00 0.0000e+00 1.0000e+00
       13  1    1    2    0    0 -2.3617821411e+02 +1.2678092902e+03 +2.7165399414e+03 3.0071098747e+03 0.0000000000e+00 0.0000e+00 -1.0000e+00
<mgrwt>
<rscale>  0 0.36350059E+04</rscale>
<asrwt>0</asrwt>
<pdfrwt beam="1">  1        2 0.51656471E+00 0.36350059E+04</pdfrwt>
<pdfrwt beam="2">  1       -2 0.15135571E+00 0.36350059E+04</pdfrwt>
<totfact> 0.27519237E-01</totfact>
</mgrwt>
<rwgt>
<wgt id='morphing_basis_vector_1'> +4.7334234e-05 </wgt>
<wgt id='morphing_basis_vector_2'> +3.2158869e-05 </wgt>
<wgt id='morphing_basis_vector_3'> +5.1884196e-05 </wgt>
<wgt id='morphing_basis_vector_4'> +3.7102362e-05 </wgt>
<wgt id='morphing_basis_vector_5'> +5.9329570e-05 </wgt>
</rwgt>
</event>
<event>
 4      1 +1.9882500e-09 3.44733800e+03 7.81860800e-03 7.64849900e-02
        2 -1    0    0  501    0 +0.0000000000e+00 +0.0000000000e+00 +3.6761241053e+03 3.6761241053e+03 0.0000000000e+00 0.0000e+00 1.0000e+00
       -2 -1    0    0    0  501 -0.0000000000e+00 -0.0000000000e+00 -8.0819777573e+02 8.0819777573e+02 0.0000000000e+00 0.0000e+00 -1.0000e+00
      -13  1    1    2    0    0 +7.5538052736e+02 +2.0898137720e+02 -5.6300330266e+02 9.6501071286e+02 0.0000000000e+00 0.0000e+00 -1.0000e+00
       13  1    1    2    0    0 -7.5538052736e+02 -2.0898137720e+02 +3.4309296322e+03 3.5193111681e+03 0.0000000000e+00 0.0000e+00 1.0000e+00
<mgrwt>
<rscale>  0 0.34473383E+04</rscale>
<asrwt>0</asrwt>
<pdfrwt beam="1">  1        2 0.56555755E+00 0.34473383E+04</pdfrwt>
<pdfrwt beam="2">  1       -2 0.12433812E+00 0.34473383E+04</pdfrwt>
<totfact> 0.27940985E-01</totfact>
</mgrwt>
<rwgt>
<wgt id='morphing_basis_vector_1'> +3.8302036e-05 </wgt>
<wgt id='morphing_basis_vector_2'> +2.5906842e-05 </wgt>
<wgt id='morphing_basis_vector_3'> +4.1909044e-05 </wgt>
<wgt id='morphing_basis_vector_4'> +3.0061366e-05 </wgt>
<wgt id='morphing_basis_vector_5'> +4.7936595e-05 </wgt>
</rwgt>
</event>
<event>
 4      1 +1.9882500e-09 3.76140300e+03 7.81860800e-03 7.58492300e-02
        2 -1    0    0  501    0 +0.0000000000e+00 +0.0000000000e+00 +4.9090509554e+03 4.9090509554e+03 0.0000000000e+00 0.0000e+00 -1.0000e+00
       -2 -1    0    0    0  501 -0.0000000000e+00 -0.0000000000e+00 -7.2051348566e+02 7.2051348566e+02 0.0000000000e+00 0.0000e+00 1.0000e+00
      -13  1    1    2    0    0 -9.2611303496e+01 -1.8706806206e+03 +1.8393316018e+03 2.6251025845e+03 0.0000000000e+00 0.0000e+00 -1.0000e+00
       13  1    1    2    0    0 +9.2611303496e+01 +1.8706806206e+03 +2.3492058680e+03 3.0044618566e+03 0.0000000000e+00 0.0000e+00 1.0000e+00
<mgrwt>
<rscale>  0 0.37614026E+04</rscale>
<asrwt>0</asrwt>
<pdfrwt beam="1">  1        2 0.75523859E+00 0.37614026E+04</pdfrwt>
<pdfrwt beam="2">  1       -2 0.11084823E+00 0.37614026E+04</pdfrwt>
<totfact> 0.23338193E-02</totfact>
</mgrwt>
<rwgt>
<wgt id='morphing_basis_vector_1'> +5.5586724e-05 </wgt>
<wgt id='morphing_basis_vector_2'> +4.0862858e-05 </wgt>
<wgt id='morphing_basis_vector_3'> +6.1658733e-05 </wgt>
<wgt id='morphing_basis_vector_4'> +3.9698276e-05 </wgt>
<wgt id='morphing_basis_vector_5'> +6.7837364e-05 </wgt>
</rwgt>
</event>
<event>
 4      1 +1.9882500e-09 3.46481200e+03 7.81860800e-03 7.64478200e-02
        2 -1    0    0  501    0 +0.0000000000e+00 +0.0000000000e+00 +1.9205563281e+03 1.9205563281e+03 0.0000000000e+00 0.0000e+00 1.0000e+00
       -2 -1    0    0    0  501 -0.0000000000e+00 -0.0000000000e+00 -1.5626880652e+03 1.5626880652e+03 0.0000000000e+00 0.0000e+00 -1.0000e+00
      -13  1    1    2    0    0 +3.4014437284e+02 +5.3699345268e+02 -1.4412131333e+03 1.5751683904e+03 0.0000000000e+00 0.0000e+00 -1.0000e+00
       13  1    1    2    0    0 -3.4014437284e+02 -5.3699345268e+02 +1.7990813962e+03 1.9080760029e+03 0.0000000000e+00 0.0000e+00 1.0000e+00
<mgrwt>
<rscale>  0 0.34648119E+04</rscale>
<asrwt>0</asrwt>
<pdfrwt beam="1">  1        2 0.29547020E+00 0.34648119E+04</pdfrwt>
<pdfrwt beam="2">  1       -2 0.24041355E+00 0.34648119E+04</pdfrwt>
<totfact> 0.46875490E-01</totfact>
</mgrwt>
<rwgt>
<wgt id='morphing_basis_vector_1'> +3.9075864e-05 </wgt>
<wgt id='morphing_basis_vector_2'> +2.6425084e-05 </wgt>
<wgt id='morphing_basis_vector_3'> +4.2759652e-05 </wgt>
<wgt id='morphing_basis_vector_4'> +3.0686367e-05 </wgt>
<wgt id='morphing_basis_vector_5'> +4.8923077e-05 </wgt>
</rwgt>
</event>
<event>
 4      1 +1.9882500e-09 3.34346800e+03 7.81860800e-03 7.67107200e-02
        2 -1    0    0  501    0 +0.0000000000e+00 +0.0000000000e+00 +1.4473615308e+03 1.4473615308e+03 0.0000000000e+00 0.0000e+00 -1.0000e+00
       -2 -1    0    0    0  501 -0.0000000000e+00 -0.0000000000e+00 -1.9308885773e+03 1.9308885773e+03 0.0000000000e+00 0.0000e+00 1.0000e+00
      -13  1    1    2    0    0 -8.2216640362e+02 +1.1785135951e+03 -1.1049588845e+03 1.8126737228e+03 0.0000000000e+00 0.0000e+00 1.0000e+00
       13  1    1    2    0    0 +8.2216640362e+02 -1.1785135951e+03 +6.2143183790e+02 1.5655763853e+03 0.0000000000e+00 0.0000e+00 -1.0000e+00
<mgrwt>
<rscale>  0 0.33434676E+04</rscale>
<asrwt>0</asrwt>
<pdfrwt beam="1">  1        2 0.22267101E+00 0.33434676E+04</pdfrwt>
<pdfrwt beam="2">  1       -2 0.29705978E+00 0.33434676E+04</pdfrwt>
<totfact> 0.35578594E-01</totfact>
</mgrwt>
<rwgt>
<wgt id='morphing_basis_vector_1'> +3.4058319e-05 </wgt>
<wgt id='morphing_basis_vector_2'> +2.3338594e-05 </wgt>
<wgt id='morphing_basis_vector_3'> +3.7303417e-05 </wgt>
<wgt id='morphing_basis_vector_4'> +2.6286243e-05 </wgt>
<wgt id='morphing_basis_vector_5'> +4.2355195e-05 </wgt>
</rwgt>
</event>
<event>
 4      1 +1.9882500e-09 3.38747200e+03 7.81860800e-03 7.66140800e-02
        2 -1    0    0  501    0 +0.0000000000e+00 +0.0000000000e+00 +3.1061700689e+03 3.1061700689e+03 0.0000000000e+00 0.0000e+00 -1.0000e+00
       -2 -1    0    0    0  501 -0.0000000000e+00 -0.0000000000e+00 -9.2356248987e+02 9.2356248987e+02 0.0000000000e+00 0.0000e+00 1.0000e+00
      -13  1    1    2    0    0 +8.2257455643e+02 +9.8387506398e+02 -2.2485858972e+02 1.3019986282e+03 0.0000000000e+00 0.0000e+00 1.0000e+00
       13  1    1    2    0    0 -8.2257455643e+02 -9.8387506398e+02 +2.4074661687e+03 2.7277339306e+03 0.0000000000e+00 0.0000e+00 -1.0000e+00
<mgrwt>
<rscale>  0 0.33874723E+04</rscale>
<asrwt>0</asrwt>
<pdfrwt beam="1">  1        2 0.47787231E+00 0.33874723E+04</pdfrwt>
<pdfrwt beam="2">  1       -2 0.14208654E+00 0.33874723E+04</pdfrwt>
<totfact> 0.49942390E-01</totfact>
</mgrwt>
<rwgt>
<wgt id='morphing_basis_vector_1'> +3.5786438e-05 </wgt>
<wgt id='morphing_basis_vector_2'> +2.4331756e-05 </wgt>
<wgt id='morphing_basis_vector_3'> +3.9167599e-05 </wgt>
<wgt id='morphing_basis_vector_4'> +2.7890246e-05 </wgt>
<wgt id='morphing_basis_vector_5'> +4.4660924e-05 </wgt>
</rwgt>
</event>
<event>
 4      1 +1.9882500e-09 3.52657700e+03 7.81860800e-03 7.63182200e-02
        2 -1    0    0  501    0 +0.0000000000e+00 +0.0000000000e+00 +1.5023219665e+03 1.5023219665e+03 0.0000000000e+00 0.0000e+00 -1.0000e+00
       -2 -1    0    0    0  501 -0.0000000000e+00 -0.0000000000e+00 -2.0695870499e+03 2.0695870499e+03 0.0000000000e+00 0.0000e+00 1.0000e+00
      -13  1    1    2    0    0 -7.3213175227e+02 -7.3984985113e+02 -1.7252312820e+03 2.0148989258e+03 0.0000000000e+00 0.0000e+00 1.0000e+00
       13  1    1    2    0    0 +7.3213175227e+02 +7.3984985113e+02 +1.1579661986e+03 1.5570100905e+03 0.0000000000e+00 0.0000e+00 -1.0000e+00
<mgrwt>
<rscale>  0 0.35265769E+04</rscale>
<asrwt>0</asrwt>
<pdfrwt beam="1">  1        2 0.23112646E+00 0.35265769E+04</pdfrwt>
<pdfrwt beam="2">  1       -2 0.31839800E+00 0.35265769E+04</pdfrwt>
<totfact> 0.23485475E-01</totfact>
</mgrwt>
<rwgt>
<wgt id='morphing_basis_vector_1'> +4.1934928e-05 </wgt>
<wgt id='morphing_basis_vector_2'> +2.8405596e-05 </wgt>
<wgt id='morphing_basis_vector_3'> +4.5916981e-05 </wgt>
<wgt id='morphing_basis_vector_4'> +3.2912263e-05 </wgt>
<wgt id='morphing_basis_vector_5'> +5.2527115e-05 </wgt>
</rwgt>
</event>
<event>
 4      1 +1.9882500e-09 3.45625200e+03 7.81860800e-03 7.64660000e-02
        2 -1    0    0  501    0 +0.0000000000e+00 +0.0000000000e+00 +2.9544663093e+03 2.9544663093e+03 0.0000000000e+00 0.0000e+00 -1.0000e+00
       -2 -1    0    0    0  501 -0.0000000000e+00 -0.0000000000e+00 -1.0108149800e+03 1.0108149800e+03 0.0000000000e+00 0.0000e+00 1.0000e+00
      -13  1    1    2    0    0 -1.1734947307e+03 -4.8372004590e+02 -3.7364518310e+02 1.3231347961e+03 0.0000000000e+00 0.0000e+00 1.0000e+00
       13  1    1    2    0    0 +1.1734947307e+03 +4.8372004590e+02 +2.3172965124e+03 2.6421464933e+03 0.0000000000e+00 0.0000e+00 -1.0000e+00
<mgrwt>
<rscale>  0 0.34562516E+04</rscale>
<asrwt>0</asrwt>
<pdfrwt beam="1">  1        2 0.45453327E+00 0.34562516E+04</pdfrwt>
<pdfrwt beam="2">  1       -2 0.15551000E+00 0.34562516E+04</pdfrwt>
<totfact> 0.48305129E-01</totfact>
</mgrwt>
<rwgt>
<wgt id='morphing_basis_vector_1'> +3.8749311e-05 </wgt>
<wgt id='morphing_basis_vector_2'> +2.6329093e-05 </wgt>
<wgt id='morphing_basis_vector_3'> +4.2427049e-05 </wgt>
<wgt id='morphing_basis_vector_4'> +3.0265542e-05 </wgt>
<wgt id='morphing_basis_vector_5'> +4.8428526e-05 </wgt>
</rwgt>
</event>
<event>
 4      1 +1.9882500e-09 3.43672500e+03 7.81860800e-03 7.65076800e-02
        2 -1    0    0  501    0 +0.0000000000e+00 +0.0000000000e+00 +3.2195287608e+03 3.2195287608e+03 0.0000000000e+00 0.0000e+00 -1.0000e+00
       -2 -1    0    0    0  501 -0.0000000000e+00 -0.0000000000e+00 -9.1714338737e+02 9.1714338737e+02 0.0000000000e+00 0.0000e+00 1.0000e+00
      -13  1    1    2    0    0 +3.5315798161e+02 +1.6264301236e+03 +6.3660007273e+02 1.7819245662e+03 0.0000000000e+00 0.0000e+00 1.0000e+00
       13  1    1    2    0    0 -3.5315798161e+02 -1.6264301236e+03 +1.6657853007e+03 2.3547475820e+03 0.0000000000e+00 0.0000e+00 -1.0000e+00
<mgrwt>
<rscale>  0 0.34367249E+04</rscale>
<asrwt>0</asrwt>
<pdfrwt beam="1">  1        2 0.49531211E+00 0.34367249E+04</pdfrwt>
<pdfrwt beam="2">  1       -2 0.14109898E+00 0.34367249E+04</pdfrwt>
<totfact> 0.42524779E-01</totfact>
</mgrwt>
<rwgt>
<wgt id='morphing_basis_vector_1'> +3.8367728e-05 </wgt>
<wgt id='morphing_basis_vector_2'> +2.7155233e-05 </wgt>
<wgt id='morphing_basis_vector_3'> +4.2239552e-05 </wgt>
<wgt id='morphing_basis_vector_4'> +2.8573292e-05 </wgt>
<wgt id='morphing_basis_vector_5'> +4.7252558e-05 </wgt>
</rwgt>
</event>
<event>
 4      1 +1.9882500e-09 3.35090700e+03 7.81860800e-03 7.66942700e-02
        2 -1    0    0  501    0 +0.0000000000e+00 +0.0000000000e+00 +2.1081118374e+03 2.1081118374e+03 0.0000000000e+00 0.0000e+00 -1.0000e+00
       -2 -1    0    0    0  501 -0.0000000000e+00 -0.0000000000e+00 -1.3315918256e+03 1.3315918256e+03 0.0000000000e+00 0.0000e+00 1.0000e+00
      -13  1    1    2    0    0 +1.6420171786e+03 +2.2370179824e+02 +1.3497959070e+02 1.6626732690e+03 0.0000000000e+00 0.0000e+00 1.0000e+00
       13  1    1    2    0    0 -1.6420171786e+03 -2.2370179824e+02 +6.4154042114e+02 1.7770303940e+03 0.0000000000e+00 0.0000e+00 -1.0000e+00
<mgrwt>
<rscale>  0 0.33509070E+04</rscale>
<asrwt>0</asrwt>
<pdfrwt beam="1">  1        2 0.32432490E+00 0.33509070E+04</pdfrwt>
<pdfrwt beam="2">  1       -2 0.20486028E+00 0.33509070E+04</pdfrwt>
<totfact> 0.66259299E-01</totfact>
</mgrwt>
<rwgt>
<wgt id='morphing_basis_vector_1'> +3.4942668e-05 </wgt>
<wgt id='morphing_basis_vector_2'> +2.5260218e-05 </wgt>
<wgt id='morphing_basis_vector_3'> +3.8558370e-05 </wgt>
<wgt id='morphing_basis_vector_4'> +2.5301210e-05 </wgt>
<wgt id='morphing_basis_vector_5'> +4.2635118e-05 </wgt>
</rwgt>
</event>
<event>
 4      1 +1.9882500e-09 3.48768600e+03 7.81860800e-03 7.63995100e-02
        2 -1    0    0  501    0 +0.0000000000e+00 +0.0000000000e+00 +2.9388427688e+03 2.9388427688e+03 0.0000000000e+00 0.0000e+00 -1.0000e+00
       -2 -1    0    0    0  501 -0.0000000000e+00 -0.0000000000e+00 -1.0347573840e+03 1.0347573840e+03 0.0000000000e+00 0.0000e+00 1.0000e+00
      -13  1    1    2    0    0 +8.6692609190e+02 -1.6726052626e+02 -7.6128503493e+02 1.1658009422e+03 0.0000000000e+00 0.0000e+00 1.0000e+00
       13  1    1    2    0    0 -8.6692609190e+02 +1.6726052626e+02 +2.6653704198e+03 2.8077992106e+03 0.0000000000e+00 0.0000e+00 -1.0000e+00
<mgrwt>
<rscale>  0 0.34876865E+04</rscale>
<asrwt>0</asrwt>
<pdfrwt beam="1">  1        2 0.45212965E+00 0.34876865E+04</pdfrwt>
<pdfrwt beam="2">  1       -2 0.15919345E+00 0.34876865E+04</pdfrwt>
<totfact> 0.46040020E-01</totfact>
</mgrwt>
<rwgt>
<wgt id='morphing_basis_vector_1'> +4.0117680e-05 </wgt>
<wgt id='morphing_basis_vector_2'> +2.7147922e-05 </wgt>
<wgt id='morphing_basis_vector_3'> +4.3910319e-05 </wgt>
<wgt id='morphing_basis_vector_4'> +3.1495825e-05 </wgt>
<wgt id='morphing_basis_vector_5'> +5.0235400e-05 </wgt>
</rwgt>
</event>
<event>
 4      1 +1.9882500e-09 3.55714600e+03 7.81860800e-03 7.62550800e-02
        2 -1    0    0  501    0 +0.0000000000e+00 +0.0000000000e+00 +3.7124157516e+03 3.7124157516e+03 0.0000000000e+00 0.0000e+00 -1.0000e+00
       -2 -1    0    0    0  501 -0.0000000000e+00 -0.0000000000e+00 -8.5209256774e+02 8.5209256774e+02 0.0000000000e+00 0.0000e+00 1.0000e+00
      -13  1    1    2    0    0 -1.6342513268e+03 -2.5719206250e+01 +2.3301216170e+03 2.8462089921e+03 0.0000000000e+00 0.0000e+00 1.0000e+00
       13  1    1    2    0    0 +1.6342513268e+03 +2.5719206250e+01 +5.3020156690e+02 1.7182993273e+03 0.0000000000e+00 0.0000e+00 -1.0000e+00
<mgrwt>
<rscale>  0 0.35571460E+04</rscale>
<asrwt>0</asrwt>
<pdfrwt beam="1">  1        2 0.57114088E+00 0.35571460E+04</pdfrwt>
<pdfrwt beam="2">  1       -2 0.13109117E+00 0.35571460E+04</pdfrwt>
<totfact> 0.22559729E-01</totfact>
</mgrwt>
<rwgt>
<wgt id='morphing_basis_vector_1'> +4.9303539e-05 </wgt>
<wgt id='morphing_basis_vector_2'> +4.6770482e-05 </wgt>
<wgt id='morphing_basis_vector_3'> +5.6924951e-05 </wgt>
<wgt id='morphing_basis_vector_4'> +2.1651355e-05 </wgt>
<wgt id='morphing_basis_vector_5'> +5.3353749e-05 </wgt>
</rwgt>
</event>
<event>
 4      1 +1.9882500e-09 3.45604800e+03 7.81860800e-03 7.64664400e-02
        2 -1    0    0  501    0 +0.0000000000e+00 +0.0000000000e+00 +3.0928977423e+03 3.0928977423e+03 0.0000000000e+00 0.0000e+00 1.0000e+00
       -2 -1    0    0    0  501 -0.0000000000e+00 -0.0000000000e+00 -9.6545919194e+02 9.6545919194e+02 0.0000000000e+00 0.0000e+00 -1.0000e+00
      -13  1    1    2    0    0 -5.1471492960e+02 +5.2813073148e+02 -7.7139145738e+02 1.0671917863e+03 0.0000000000e+00 0.0000e+00 -1.0000e+00
       13  1    1    2    0    0 +5.1471492960e+02 -5.2813073148e+02 +2.8988300077e+03 2.9911651479e+03 0.0000000000e+00 0.0000e+00 1.0000e+00
<mgrwt>
<rscale>  0 0.34560478E+04</rscale>
<asrwt>0</asrwt>
<pdfrwt beam="1">  1        2 0.47583042E+00 0.34560478E+04</pdfrwt>
<pdfrwt beam="2">  1       -2 0.14853219E+00 0.34560478E+04</pdfrwt>
<totfact> 0.44738671E-01</totfact>
</mgrwt>
<rwgt>
<wgt id='morphing_basis_vector_1'> +3.8686594e-05 </wgt>
<wgt id='morphing_basis_vector_2'> +2.6165098e-05 </wgt>
<wgt id='morphing_basis_vector_3'> +4.2331906e-05 </wgt>
<wgt id='morphing_basis_vector_4'> +3.0371036e-05 </wgt>
<wgt id='morphing_basis_vector_5'> +4.8426359e-05 </wgt>
</rwgt>
</event>
<event>
 4      1 +1.9882500e-09 3.46166100e+03 7.81860800e-03 7.64545100e-02
        2 -1    0    0  501    0 +0.0000000000e+00 +0.0000000000e+00 +2.2945011541e+03 2.2945011541e+03 0.0000000000e+00 0.0000e+00 1.0000e+00
       -2 -1    0    0    0  501 -0.0000000000e+00 -0.0000000000e+00 -1.3056321076e+03 1.3056321076e+03 0.0000000000e+00 0.0000e+00 -1.0000e+00
      -13  1    1    2    0    0 +1.1701382308e+03 +7.9011982698e+02 -5.4674247883e+02 1.5140806314e+03 0.0000000000e+00 0.0000e+00 -1.0000e+00
       13  1    1    2    0    0 -1.1701382308e+03 -7.9011982698e+02 +1.5356115253e+03 2.0860526304e+03 0.0000000000e+00 0.0000e+00 1.0000e+00
<mgrwt>
<rscale>  0 0.34616611E+04</rscale>
<asrwt>0</asrwt>
<pdfrwt beam="1">  1        2 0.35300018E+00 0.34616611E+04</pdfrwt>
<pdfrwt beam="2">  1       -2 0.20086648E+00 0.34616611E+04</pdfrwt>
<totfact> 0.54871674E-01</totfact>
</mgrwt>
<rwgt>
<wgt id='morphing_basis_vector_1'> +3.9045257e-05 </wgt>
<wgt id='morphing_basis_vector_2'> +2.6654056e-05 </wgt>
<wgt id='morphing_basis_vector_3'> +4.2779614e-05 </wgt>
<wgt id='morphing_basis_vector_4'> +3.0342297e-05 </wgt>
<wgt id='morphing_basis_vector_5'> +4.8724977e-05 </wgt>
</rwgt>
</event>
<event>
 4      1 +1.9882500e-09 3.25918300e+03 7.81860800e-03 7.69001800e-02
        2 -1    0    0  501    0 +0.0000000000e+00 +0.0000000000e+00 +2.3282050398e+03 2.3282050398e+03 0.0000000000e+00 0.0000e+00 1.0000e+00
       -2 -1    0    0    0  501 -0.0000000000e+00 -0.0000000000e+00 -1.1406078122e+03 1.1406078122e+03 0.0000000000e+00 0.0000e+00 -1.0000e+00
      -13  1    1    2    0    0 +4.5257596652e+02 +1.0952376836e+02 -1.0682954134e+03 1.1653649864e+03 0.0000000000e+00 0.0000e+00 -1.0000e+00
       13  1    1    2    0    0 -4.5257596652e+02 -1.0952376836e+02 +2.2558926410e+03 2.3034478655e+03 0.0000000000e+00 0.0000e+00 1.0000e+00
<mgrwt>
<rscale>  0 0.32591832E+04</rscale>
<asrwt>0</asrwt>
<pdfrwt beam="1">  1        2 0.35818539E+00 0.32591832E+04</pdfrwt>
<pdfrwt beam="2">  1       -2 0.17547813E+00 0.32591832E+04</pdfrwt>
<totfact> 0.82556624E-01</totfact>
</mgrwt>
<rwgt>
<wgt id='morphing_basis_vector_1'> +3.0646489e-05 </wgt>
<wgt id='morphing_basis_vector_2'> +2.0700223e-05 </wgt>
<wgt id='morphing_basis_vector_3'> +3.3479858e-05 </wgt>
<wgt id='morphing_basis_vector_4'> +2.3986753e-05 </wgt>
<wgt id='morphing_basis_vector_5'> +3.8236901e-05 </wgt>
</rwgt>
</event>
<event>
 4      1 +1.9882500e-09 3.22793100e+03 7.81860800e-03 7.69719300e-02
        2 -1    0    0  501    0 +0.0000000000e+00 +0.0000000000e+00 +2.7667522891e+03 2.7667522891e+03 0.0000000000e+00 0.0000e+00 -1.0000e+00
       -2 -1    0    0    0  501 -0.0000000000e+00 -0.0000000000e+00 -9.4149526601e+02 9.4149526601e+02 0.0000000000e+00 0.0000e+00 1.0000e+00
      -13  1    1    2    0    0 -5.8903417104e+02 -1.0699181683e+03 -2.9944994114e+02 1.2575199437e+03 0.0000000000e+00 0.0000e+00 1.0000e+00
       13  1    1    2    0    0 +5.8903417104e+02 +1.0699181683e+03 +2.1247069642e+03 2.4507276114e+03 0.0000000000e+00 0.0000e+00 -1.0000e+00
<mgrwt>
<rscale>  0 0.32279307E+04</rscale>
<asrwt>0</asrwt>
<pdfrwt beam="1">  1        2 0.42565419E+00 0.32279307E+04</pdfrwt>
<pdfrwt beam="2">  1       -2 0.14484543E+00 0.32279307E+04</pdfrwt>
<totfact> 0.79352959E-01</totfact>
</mgrwt>
<rwgt>
<wgt id='morphing_basis_vector_1'> +2.9548591e-05 </wgt>
<wgt id='morphing_basis_vector_2'> +2.0072880e-05 </wgt>
<wgt id='morphing_basis_vector_3'> +3.2296685e-05 </wgt>
<wgt id='morphing_basis_vector_4'> +2.2964603e-05 </wgt>
<wgt id='morphing_basis_vector_5'> +3.6771534e-05 </wgt>
</rwgt>
</event>
<event>
 4      1 +1.9882500e-09 3.47409900e+03 7.81860800e-03 7.64281600e-02
        2 -1    0    0  501    0 +0.0000000000e+00 +0.0000000000e+00 +2.4466071962e+03 2.4466071962e+03 0.0000000000e+00 0.0000e+00 -1.0000e+00
       -2 -1    0    0    0  501 -0.0000000000e+00 -0.0000000000e+00 -1.2332753105e+03 1.2332753105e+03 0.0000000000e+00 0.0000e+00 1.0000e+00
      -13  1    1    2    0    0 +2.9651881048e+02 -1.1504239765e+03 -7.3565596070e+02 1.3973505012e+03 0.0000000000e+00 0.0000e+00 1.0000e+00
       13  1    1    2    0    0 -2.9651881048e+02 +1.1504239765e+03 +1.9489878464e+03 2.2825320055e+03 0.0000000000e+00 0.0000e+00 -1.0000e+00
<mgrwt>
<rscale>  0 0.34740986E+04</rscale>
<asrwt>0</asrwt>
<pdfrwt beam="1">  1        2 0.37640111E+00 0.34740986E+04</pdfrwt>
<pdfrwt beam="2">  1       -2 0.18973466E+00 0.34740986E+04</pdfrwt>
<totfact> 0.53926568E-01</totfact>
</mgrwt>
<rwgt>
<wgt id='morphing_basis_vector_1'> +3.9530803e-05 </wgt>
<wgt id='morphing_basis_vector_2'> +2.6818169e-05 </wgt>
<wgt id='morphing_basis_vector_3'> +4.3278767e-05 </wgt>
<wgt id='morphing_basis_vector_4'> +3.0940672e-05 </wgt>
<wgt id='morphing_basis_vector_5'> +4.9446723e-05 </wgt>
</rwgt>
</event>
<event>
 4      1 +1.9882500e-09 3.32250200e+03 7.81860800e-03 7.67573000e-02
        2 -1    0    0  501    0 +0.0000000000e+00 +0.0000000000e+00 +2.4301273567e+03 2.4301273567e+03 0.0000000000e+00 0.0000e+00 1.0000e+00
       -2 -1    0    0    0  501 -0.0000000000e+00 -0.0000000000e+00 -1.1356421815e+03 1.1356421815e+03 0.0000000000e+00 0.0000e+00 -1.0000e+00
      -13  1    1    2    0    0 -9.2312044493e+02 +1.3063864348e+03 +1.1283487620e+03 1.9575412643e+03 0.0000000000e+00 0.0000e+00 1.0000e+00
       13  1    1    2    0    0 +9.2312044493e+02 -1.3063864348e+03 +1.6613641321e+02 1.6082282738e+03 0.0000000000e+00 0.0000e+00 -1.0000e+00
<mgrwt>
<rscale>  0 0.33225021E+04</rscale>
<asrwt>0</asrwt>
<pdfrwt beam="1">  1        2 0.37386575E+00 0.33225021E+04</pdfrwt>
<pdfrwt beam="2">  1       -2 0.17471418E+00 0.33225021E+04</pdfrwt>
<totfact> 0.72536276E-01</totfact>
</mgrwt>
<rwgt>
<wgt id='morphing_basis_vector_1'> +3.6140768e-05 </wgt>
<wgt id='morphing_basis_vector_2'> +3.1360669e-05 </wgt>
<wgt id='morphing_basis_vector_3'> +4.0999576e-05 </wgt>
<wgt id='morphing_basis_vector_4'> +1.9502905e-05 </wgt>
<wgt id='morphing_basis_vector_5'> +4.0788979e-05 </wgt>
</rwgt>
</event>
<event>
 4      1 +1.9882500e-09 3.65898200e+03 7.81860800e-03 7.60493500e-02
        2 -1    0    0  501    0 +0.0000000000e+00 +0.0000000000e+00 +1.4434097362e+03 1.4434097362e+03 0.0000000000e+00 0.0000e+00 1.0000e+00
       -2 -1    0    0    0  501 -0.0000000000e+00 -0.0000000000e+00 -2.3188409151e+03 2.3188409151e+03 0.0000000000e+00 0.0000e+00 -1.0000e+00
      -13  1    1    2    0    0 -8.0499527474e+02 -8.9416142714e+02 -1.8548354112e+03 2.2108723285e+03 0.0000000000e+00 0.0000e+00 -1.0000e+00
       13  1    1    2    0    0 +8.0499527474e+02 +8.9416142714e+02 +9.7940423233e+02 1.5513783228e+03 0.0000000000e+00 0.0000e+00 1.0000e+00
<mgrwt>
<rscale>  0 0.36589821E+04</rscale>
<asrwt>0</asrwt>
<pdfrwt beam="1">  1        2 0.22206304E+00 0.36589821E+04</pdfrwt>
<pdfrwt beam="2">  1       -2 0.35674475E+00 0.36589821E+04</pdfrwt>
<totfact> 0.14035661E-01</totfact>
</mgrwt>
<rwgt>
<wgt id='morphing_basis_vector_1'> +4.8567477e-05 </wgt>
<wgt id='morphing_basis_vector_2'> +3.2954373e-05 </wgt>
<wgt id='morphing_basis_vector_3'> +5.3233998e-05 </wgt>
<wgt id='morphing_basis_vector_4'> +3.8139272e-05 </wgt>
<wgt id='morphing_basis_vector_5'> +6.0923554e-05 </wgt>
</rwgt>
</event>
<event>
 4      1 +1.9882500e-09 3.56925400e+03 7.81860800e-03 7.62302500e-02
        2 -1    0    0  501    0 +0.0000000000e+00 +0.0000000000e+00 +1.4998387469e+03 1.4998387469e+03 0.0000000000e+00 0.0000e+00 -1.0000e+00
       -2 -1    0    0    0  501 -0.0000000000e+00 -0.0000000000e+00 -2.1234910385e+03 2.1234910385e+03 0.0000000000e+00 0.0000e+00 1.0000e+00
      -13  1    1    2    0    0 -7.7411579352e+01 +1.3027365002e+03 -1.5475519462e+03 2.0243596439e+03 0.0000000000e+00 0.0000e+00 1.0000e+00
       13  1    1    2    0    0 +7.7411579352e+01 -1.3027365002e+03 +9.2389965464e+02 1.5989701415e+03 0.0000000000e+00 0.0000e+00 -1.0000e+00
<mgrwt>
<rscale>  0 0.35692543E+04</rscale>
<asrwt>0</asrwt>
<pdfrwt beam="1">  1        2 0.23074442E+00 0.35692543E+04</pdfrwt>
<pdfrwt beam="2">  1       -2 0.32669093E+00 0.35692543E+04</pdfrwt>
<totfact> 0.20681980E-01</totfact>
</mgrwt>
<rwgt>
<wgt id='morphing_basis_vector_1'> +4.4031672e-05 </wgt>
<wgt id='morphing_basis_vector_2'> +2.9929820e-05 </wgt>
<wgt id='morphing_basis_vector_3'> +4.8248439e-05 </wgt>
<wgt id='morphing_basis_vector_4'> +3.4453423e-05 </wgt>
<wgt id='morphing_basis_vector_5'> +5.5125484e-05 </wgt>
</rwgt>
</event>
<event>
 4      1 +1.9882500e-09 3.37687800e+03 7.81860800e-03 7.66372100e-02
        2 -1    0    0  501    0 +0.0000000000e+00 +0.0000000000e+00 +1.8146599001e+03 1.8146599001e+03 0.0000000000e+00 0.0000e+00 -1.0000e+00
       -2 -1    0    0    0  501 -0.0000000000e+00 -0.0000000000e+00 -1.5709970961e+03 1.5709970961e+03 0.0000000000e+00 0.0000e+00 1.0000e+00
      -13  1    1    2    0    0 +4.8341053094e+02 -7.8405343727e+02 -1.2969093926e+03 1.5907229509e+03 0.0000000000e+00 0.0000e+00 1.0000e+00
       13  1    1    2    0    0 -4.8341053094e+02 +7.8405343727e+02 +1.5405721966e+03 1.7949340453e+03 0.0000000000e+00 0.0000e+00 -1.0000e+00
<mgrwt>
<rscale>  0 0.33768775E+04</rscale>
<asrwt>0</asrwt>
<pdfrwt beam="1">  1        2 0.27917845E+00 0.33768775E+04</pdfrwt>
<pdfrwt beam="2">  1       -2 0.24169186E+00 0.33768775E+04</pdfrwt>
<totfact> 0.53009986E-01</totfact>
</mgrwt>
<rwgt>
<wgt id='morphing_basis_vector_1'> +3.5292129e-05 </wgt>
<wgt id='morphing_basis_vector_2'> +2.3877045e-05 </wgt>
<wgt id='morphing_basis_vector_3'> +3.8597954e-05 </wgt>
<wgt id='morphing_basis_vector_4'> +2.7649428e-05 </wgt>
<wgt id='morphing_basis_vector_5'> +4.4109965e-05 </wgt>
</rwgt>
</event>
<event>
 4      1 +1.9882500e-09 3.27311600e+03 7.81860800e-03 7.68684500e-02
        2 -1    0    0  501    0 +0.0000000000e+00 +0.0000000000e+00 +3.3977829688e+03 3.3977829688e+03 0.0000000000e+00 0.0000e+00 1.0000e+00
       -2 -1    0    0    0  501 -0.0000000000e+00 -0.0000000000e+00 -7.8825581831e+02 7.8825581831e+02 0.0000000000e+00 0.0000e+00 -1.0000e+00
      -13  1    1    2    0    0 -3.7355889563e+02 +1.4285793108e+03 +4.0230124170e+02 1.5304350312e+03 0.0000000000e+00 0.0000e+00 1.0000e+00
       13  1    1    2    0    0 +3.7355889563e+02 -1.4285793108e+03 +2.2072259088e+03 2.6556037559e+03 0.0000000000e+00 0.0000e+00 -1.0000e+00
<mgrwt>
<rscale>  0 0.32731161E+04</rscale>
<asrwt>0</asrwt>
<pdfrwt beam="1">  1        2 0.52273583E+00 0.32731161E+04</pdfrwt>
<pdfrwt beam="2">  1       -2 0.12127013E+00 0.32731161E+04</pdfrwt>
<totfact> 0.48651282E-01</totfact>
</mgrwt>
<rwgt>
<wgt id='morphing_basis_vector_1'> +3.1366655e-05 </wgt>
<wgt id='morphing_basis_vector_2'> +2.1634635e-05 </wgt>
<wgt id='morphing_basis_vector_3'> +3.4366606e-05 </wgt>
<wgt id='morphing_basis_vector_4'> +2.3990406e-05 </wgt>
<wgt id='morphing_basis_vector_5'> +3.8865857e-05 </wgt>
</rwgt>
</event>
<event>
 4      1 +1.9882500e-09 3.23291200e+03 7.81860800e-03 7.69604400e-02
        2 -1    0    0  501    0 +0.0000000000e+00 +0.0000000000e+00 +3.0495887720e+03 3.0495887720e+03 0.0000000000e+00 0.0000e+00 -1.0000e+00
       -2 -1    0    0    0  501 -0.0000000000e+00 -0.0000000000e+00 -8.5681393418e+02 8.5681393418e+02 0.0000000000e+00 0.0000e+00 1.0000e+00
      -13  1    1    2    0    0 -1.2615840835e+03 +8.1402373058e+02 +3.7270256685e+02 1.5469764824e+03 0.0000000000e+00 0.0000e+00 1.0000e+00
       13  1    1    2    0    0 +1.2615840835e+03 -8.1402373058e+02 +1.8200722709e+03 2.3594262237e+03 0.0000000000e+00 0.0000e+00 -1.0000e+00
<mgrwt>
<rscale>  0 0.32329121E+04</rscale>
<asrwt>0</asrwt>
<pdfrwt beam="1">  1        2 0.46916750E+00 0.32329121E+04</pdfrwt>
<pdfrwt beam="2">  1       -2 0.13181753E+00 0.32329121E+04</pdfrwt>
<totfact> 0.67776819E-01</totfact>
</mgrwt>
<rwgt>
<wgt id='morphing_basis_vector_1'> +2.9926720e-05 </wgt>
<wgt id='morphing_basis_vector_2'> +2.0775758e-05 </wgt>
<wgt id='morphing_basis_vector_3'> +3.2806792e-05 </wgt>
<wgt id='morphing_basis_vector_4'> +2.2696051e-05 </wgt>
<wgt id='morphing_basis_vector_5'> +3.6966802e-05 </wgt>
</rwgt>
</event>
<event>
 4      1 +1.9882500e-09 3.41126500e+03 7.81860800e-03 7.65624500e-02
        2 -1    0    0  501    0 +0.0000000000e+00 +0.0000000000e+00 +2.3308594679e+03 2.3308594679e+03 0.0000000000e+00 0.0000e+00 1.0000e+00
       -2 -1    0    0    0  501 -0.0000000000e+00 -0.0000000000e+00 -1.2481159868e+03 1.2481159868e+03 0.0000000000e+00 0.0000e+00 -1.0000e+00
      -13  1    1    2    0    0 +9.0687455195e+02 +1.1375620716e+03 -3.9274570457e+02 1.5068902111e+03 0.0000000000e+00 0.0000e+00 -1.0000e+00
       13  1    1    2    0    0 -9.0687455195e+02 -1.1375620716e+03 +1.4754891856e+03 2.0720852436e+03 0.0000000000e+00 0.0000e+00 1.0000e+00
<mgrwt>
<rscale>  0 0.34112654E+04</rscale>
<asrwt>0</asrwt>
<pdfrwt beam="1">  1        2 0.35859376E+00 0.34112654E+04</pdfrwt>
<pdfrwt beam="2">  1       -2 0.19201784E+00 0.34112654E+04</pdfrwt>
<totfact> 0.60963899E-01</totfact>
</mgrwt>
<rwgt>
<wgt id='morphing_basis_vector_1'> +3.6875823e-05 </wgt>
<wgt id='morphing_basis_vector_2'> +2.5257746e-05 </wgt>
<wgt id='morphing_basis_vector_3'> +4.0406953e-05 </wgt>
<wgt id='morphing_basis_vector_4'> +2.8518315e-05 </wgt>
<wgt id='morphing_basis_vector_5'> +4.5923821e-05 </wgt>
</rwgt>
</event>
<event>
 4      1 +1.9882500e-09 3.21798500e+03 7.81860800e-03 7.69949400e-02
        2 -1    0    0  501    0 +0.0000000000e+00 +0.0000000000e+00 +2.8174986418e+03 2.8174986418e+03 0.0000000000e+00 0.0000e+00 -1.0000e+00
       -2 -1    0    0    0  501 -0.0000000000e+00 -0.0000000000e+00 -9.1884956980e+02 9.1884956980e+02 0.0000000000e+00 0.0000e+00 1.0000e+00
      -13  1    1    2    0    0 +7.7472937053e+02 +6.2345716725e+02 +2.4179697415e+03 2.6144754938e+03 0.0000000000e+00 0.0000e+00 1.0000e+00
       13  1    1    2    0    0 -7.7472937053e+02 -6.2345716725e+02 -5.1932066955e+02 1.1218727177e+03 0.0000000000e+00 0.0000e+00 -1.0000e+00
<mgrwt>
<rscale>  0 0.32179853E+04</rscale>
<asrwt>0</asrwt>
<pdfrwt beam="1">  1        2 0.43346133E+00 0.32179853E+04</pdfrwt>
<pdfrwt beam="2">  1       -2 0.14136147E+00 0.32179853E+04</pdfrwt>
<totfact> 0.79000888E-01</totfact>
</mgrwt>
<rwgt>
<wgt id='morphing_basis_vector_1'> +3.8693419e-05 </wgt>
<wgt id='morphing_basis_vector_2'> +4.7803059e-05 </wgt>
<wgt id='morphing_basis_vector_3'> +4.6888282e-05 </wgt>
<wgt id='morphing_basis_vector_4'> +2.7980077e-06 </wgt>
<wgt id='morphing_basis_vector_5'> +3.4676212e-05 </wgt>
</rwgt>
</event>
<event>
 4      1 +1.9882500e-09 3.33014300e+03 7.81860800e-03 7.67402900e-02
        2 -1    0    0  501    0 +0.0000000000e+00 +0.0000000000e+00 +2.0827700965e+03 2.0827700965e+03 0.0000000000e+00 0.0000e+00 -1.0000e+00
       -2 -1    0    0    0  501 -0.0000000000e+00 -0.0000000000e+00 -1.3311421484e+03 1.3311421484e+03 0.0000000000e+00 0.0000e+00 1.0000e+00
      -13  1    1    2    0    0 -1.3946483136e+03 -3.3524348388e+02 -4.9105187393e+02 1.5161015979e+03 0.0000000000e+00 0.0000e+00 1.0000e+00
       13  1    1    2    0    0 +1.3946483136e+03 +3.3524348388e+02 +1.2426798220e+03 1.8978106471e+03 0.0000000000e+00 0.0000e+00 -1.0000e+00
<mgrwt>
<rscale>  0 0.33301430E+04</rscale>
<asrwt>0</asrwt>
<pdfrwt beam="1">  1        2 0.32042617E+00 0.33301430E+04</pdfrwt>
<pdfrwt beam="2">  1       -2 0.20479110E+00 0.33301430E+04</pdfrwt>
<totfact> 0.68686562E-01</totfact>
</mgrwt>
<rwgt>
<wgt id='morphing_basis_vector_1'> +3.3524983e-05 </wgt>
<wgt id='morphing_basis_vector_2'> +2.2977002e-05 </wgt>
<wgt id='morphing_basis_vector_3'> +3.6716382e-05 </wgt>
<wgt id='morphing_basis_vector_4'> +2.5861765e-05 </wgt>
<wgt id='morphing_basis_vector_5'> +4.1678860e-05 </wgt>
</rwgt>
</event>
<event>
 4      1 +1.9882500e-09 3.21645000e+03 7.81860800e-03 7.69985100e-02
        2 -1    0    0  501    0 +0.0000000000e+00 +0.0000000000e+00 +2.4775404173e+03 2.4775404173e+03 0.0000000000e+00 0.0000e+00 1.0000e+00
       -2 -1    0    0    0  501 -0.0000000000e+00 -0.0000000000e+00 -1.0439333101e+03 1.0439333101e+03 0.0000000000e+00 0.0000e+00 -1.0000e+00
      -13  1    1    2    0    0 -5.6835033706e+02 +3.0173183338e+02 -8.9684845096e+02 1.1038121891e+03 0.0000000000e+00 0.0000e+00 -1.0000e+00
       13  1    1    2    0    0 +5.6835033706e+02 -3.0173183338e+02 +2.3304555582e+03 2.4176615382e+03 0.0000000000e+00 0.0000e+00 1.0000e+00
<mgrwt>
<rscale>  0 0.32164496E+04</rscale>
<asrwt>0</asrwt>
<pdfrwt beam="1">  1        2 0.38116006E+00 0.32164496E+04</pdfrwt>
<pdfrwt beam="2">  1       -2 0.16060512E+00 0.32164496E+04</pdfrwt>
<totfact> 0.88477983E-01</totfact>
</mgrwt>
<rwgt>
<wgt id='morphing_basis_vector_1'> +2.9084201e-05 </wgt>
<wgt id='morphing_basis_vector_2'> +1.9644011e-05 </wgt>
<wgt id='morphing_basis_vector_3'> +3.1761815e-05 </wgt>
<wgt id='morphing_basis_vector_4'> +2.2740763e-05 </wgt>
<wgt id='morphing_basis_vector_5'> +3.6255744e-05 </wgt>
</rwgt>
</event>
<event>
 4      1 +1.9882500e-09 3.84343700e+03 7.81860800e-03 7.56935900e-02
        2 -1    0    0  501    0 +0.0000000000e+00 +0.0000000000e+00 +3.0819149014e+03 3.0819149014e+03 0.0000000000e+00 0.0000e+00 1.0000e+00
       -2 -1    0    0    0  501 -0.0000000000e+00 -0.0000000000e+00 -1.1982813853e+03 1.1982813853e+03 0.0000000000e+00 0.0000e+00 -1.0000e+00
      -13  1    1    2    0    0 -7.8293293803e+02 +4.7528948232e+02 -9.3957770839e+02 1.3121319856e+03 0.0000000000e+00 0.0000e+00 -1.0000e+00
       13  1    1    2    0    0 +7.8293293803e+02 -4.7528948232e+02 +2.8232112245e+03 2.9680643012e+03 0.0000000000e+00 0.0000e+00 1.0000e+00
<mgrwt>
<rscale>  0 0.38434366E+04</rscale>
<asrwt>0</asrwt>
<pdfrwt beam="1">  1        2 0.47414075E+00 0.38434366E+04</pdfrwt>
<pdfrwt beam="2">  1       -2 0.18435098E+00 0.38434366E+04</pdfrwt>
<totfact> 0.23003970E-01</totfact>
</mgrwt>
<rwgt>
<wgt id='morphing_basis_vector_1'> +5.9021271e-05 </wgt>
<wgt id='morphing_basis_vector_2'> +3.9990118e-05 </wgt>
<wgt id='morphing_basis_vector_3'> +6.4742567e-05 </wgt>
<wgt id='morphing_basis_vector_4'> +4.6561045e-05 </wgt>
<wgt id='morphing_basis_vector_5'> +7.4258231e-05 </wgt>
</rwgt>
</event>
<event>
 4      1 +1.9882500e-09 3.53860600e+03 7.81860800e-03 7.62933000e-02
        2 -1    0    0  501    0 +0.0000000000e+00 +0.0000000000e+00 +2.4841240408e+03 2.4841240408e+03 0.0000000000e+00 0.0000e+00 -1.0000e+00
       -2 -1    0    0    0  501 -0.0000000000e+00 -0.0000000000e+00 -1.2601756946e+03 1.2601756946e+03 0.0000000000e+00 0.0000e+00 1.0000e+00
      -13  1    1    2    0    0 +1.4534993571e+03 +5.2510720133e+01 -4.5406864693e+02 1.5236784742e+03 0.0000000000e+00 0.0000e+00 1.0000e+00
       13  1    1    2    0    0 -1.4534993571e+03 -5.2510720133e+01 +1.6780169931e+03 2.2206212612e+03 0.0000000000e+00 0.0000e+00 -1.0000e+00
<mgrwt>
<rscale>  0 0.35386058E+04</rscale>
<asrwt>0</asrwt>
<pdfrwt beam="1">  1        2 0.38217293E+00 0.35386058E+04</pdfrwt>
<pdfrwt beam="2">  1       -2 0.19387318E+00 0.35386058E+04</pdfrwt>
<totfact> 0.47475208E-01</totfact>
</mgrwt>
<rwgt>
<wgt id='morphing_basis_vector_1'> +4.2615930e-05 </wgt>
<wgt id='morphing_basis_vector_2'> +2.9116843e-05 </wgt>
<wgt id='morphing_basis_vector_3'> +4.6720881e-05 </wgt>
<wgt id='morphing_basis_vector_4'> +3.3135664e-05 </wgt>
<wgt id='morphing_basis_vector_5'> +5.3232945e-05 </wgt>
</rwgt>
</event>
<event>
 4      1 +1.9882500e-09 3.46256100e+03 7.81860800e-03 7.64526000e-02
        2 -1    0    0  501    0 +0.0000000000e+00 +0.0000000000e+00 +1.5344160554e+03 1.5344160554e+03 0.0000000000e+00 0.0000e+00 -1.0000e+00
       -2 -1    0    0    0  501 -0.0000000000e+00 -0.0000000000e+00 -1.9534030547e+03 1.9534030547e+03 0.0000000000e+00 0.0000e+00 1.0000e+00
      -13  1    1    2    0    0 +9.7050414272e+01 -1.1927758141e+03 -1.4696990562e+03 1.8952963466e+03 0.0000000000e+00 0.0000e+00 1.0000e+00
       13  1    1    2    0    0 -9.7050414272e+01 +1.1927758141e+03 +1.0507120570e+03 1.5925227635e+03 0.0000000000e+00 0.0000e+00 -1.0000e+00
<mgrwt>
<rscale>  0 0.34625615E+04</rscale>
<asrwt>0</asrwt>
<pdfrwt beam="1">  1        2 0.23606401E+00 0.34625615E+04</pdfrwt>
<pdfrwt beam="2">  1       -2 0.30052355E+00 0.34625615E+04</pdfrwt>
<totfact> 0.29841622E-01</totfact>
</mgrwt>
<rwgt>
<wgt id='morphing_basis_vector_1'> +3.9014165e-05 </wgt>
<wgt id='morphing_basis_vector_2'> +2.6471514e-05 </wgt>
<wgt id='morphing_basis_vector_3'> +4.2710687e-05 </wgt>
<wgt id='morphing_basis_vector_4'> +3.0524200e-05 </wgt>
<wgt id='morphing_basis_vector_5'> +4.8788461e-05 </wgt>
</rwgt>
</event>
<event>
 4      1 +1.9882500e-09 3.43129200e+03 7.81860800e-03 7.65193300e-02
        2 -1    0    0  501    0 +0.0000000000e+00 +0.0000000000e+00 +1.8990733354e+03 1.8990733354e+03 0.0000000000e+00 0.0000e+00 -1.0000e+00
       -2 -1    0    0    0  501 -0.0000000000e+00 -0.0000000000e+00 -1.5499351146e+03 1.5499351146e+03 0.0000000000e+00 0.0000e+00 1.0000e+00
      -13  1    1    2    0    0 +2.5380288299e+01 -1.6750547709e+03 -1.9746056779e+02 1.6868441897e+03 0.0000000000e+00 0.0000e+00 1.0000e+00
       13  1    1    2    0    0 -2.5380288299e+01 +1.6750547709e+03 +5.4659878859e+02 1.7621642603e+03 0.0000000000e+00 0.0000e+00 -1.0000e+00
<mgrwt>
<rscale>  0 0.34312916E+04</rscale>
<asrwt>0</asrwt>
<pdfrwt beam="1">  1        2 0.29216513E+00 0.34312916E+04</pdfrwt>
<pdfrwt beam="2">  1       -2 0.23845156E+00 0.34312916E+04</pdfrwt>
<totfact> 0.49870800E-01</totfact>
</mgrwt>
<rwgt>
<wgt id='morphing_basis_vector_1'> +3.8203932e-05 </wgt>
<wgt id='morphing_basis_vector_2'> +2.7209764e-05 </wgt>
<wgt id='morphing_basis_vector_3'> +4.2094605e-05 </wgt>
<wgt id='morphing_basis_vector_4'> +2.8231026e-05 </wgt>
<wgt id='morphing_basis_vector_5'> +4.6939134e-05 </wgt>
</rwgt>
</event>
<event>
 4      1 +1.9882500e-09 3.32026100e+03 7.81860800e-03 7.67623100e-02
        2 -1    0    0  501    0 +0.0000000000e+00 +0.0000000000e+00 +2.3488411261e+03 2.3488411261e+03 0.0000000000e+00 0.0000e+00 -1.0000e+00
       -2 -1    0    0    0  501 -0.0000000000e+00 -0.0000000000e+00 -1.1733586493e+03 1.1733586493e+03 0.0000000000e+00 0.0000e+00 1.0000e+00
      -13  1    1    2    0    0 -1.2638694273e+03 -1.6829449198e+02 -5.4009777115e+02 1.3847001725e+03 0.0000000000e+00 0.0000e+00 1.0000e+00
       13  1    1    2    0    0 +1.2638694273e+03 +1.6829449198e+02 +1.7155802480e+03 2.1374996029e+03 0.0000000000e+00 0.0000e+00 -1.0000e+00
<mgrwt>
<rscale>  0 0.33202609E+04</rscale>
<asrwt>0</asrwt>
<pdfrwt beam="1">  1        2 0.36136017E+00 0.33202609E+04</pdfrwt>
<pdfrwt beam="2">  1       -2 0.18051672E+00 0.33202609E+04</pdfrwt>
<totfact> 0.73121976E-01</totfact>
</mgrwt>
<rwgt>
<wgt id='morphing_basis_vector_1'> +3.3054338e-05 </wgt>
<wgt id='morphing_basis_vector_2'> +2.2478573e-05 </wgt>
<wgt id='morphing_basis_vector_3'> +3.6160283e-05 </wgt>
<wgt id='morphing_basis_vector_4'> +2.5716223e-05 </wgt>
<wgt id='morphing_basis_vector_5'> +4.1196221e-05 </wgt>
</rwgt>
</event>
<event>
 4      1 +1.9882500e-09 3.25264400e+03 7.81860800e-03 7.69151200e-02
        2 -1    0    0  501    0 +0.0000000000e+00 +0.0000000000e+00 +3.1257624937e+03 3.1257624937e+03 0.0000000000e+00 0.0000e+00 -1.0000e+00
       -2 -1    0    0    0  501 -0.0000000000e+00 -0.0000000000e+00 -8.4616886658e+02 8.4616886658e+02 0.0000000000e+00 0.0000e+00 1.0000e+00
      -13  1    1    2    0    0 -1.4601553632e+03 +5.8130385242e+02 +6.2902317453e+02 1.6928195437e+03 0.0000000000e+00 0.0000e+00 1.0000e+00
       13  1    1    2    0    0 +1.4601553632e+03 -5.8130385242e+02 +1.6505704526e+03 2.2791118166e+03 0.0000000000e+00 0.0000e+00 -1.0000e+00
<mgrwt>
<rscale>  0 0.32526438E+04</rscale>
<asrwt>0</asrwt>
<pdfrwt beam="1">  1        2 0.48088653E+00 0.32526438E+04</pdfrwt>
<pdfrwt beam="2">  1       -2 0.13017983E+00 0.32526438E+04</pdfrwt>
<totfact> 0.62285017E-01</totfact>
</mgrwt>
<rwgt>
<wgt id='morphing_basis_vector_1'> +3.0819475e-05 </wgt>
<wgt id='morphing_basis_vector_2'> +2.1760417e-05 </wgt>
<wgt id='morphing_basis_vector_3'> +3.3869299e-05 </wgt>
<wgt id='morphing_basis_vector_4'> +2.2921907e-05 </wgt>
<wgt id='morphing_basis_vector_5'> +3.7856688e-05 </wgt>
</rwgt>
</event>
<event>
 4      1 +1.9882500e-09 3.27671500e+03 7.81860800e-03 7.68602900e-02
        2 -1    0    0  501    0 +0.0000000000e+00 +0.0000000000e+00 +3.0021005459e+03 3.0021005459e+03 0.0000000000e+00 0.0000e+00 -1.0000e+00
       -2 -1    0    0    0  501 -0.0000000000e+00 -0.0000000000e+00 -8.9411247015e+02 8.9411247015e+02 0.0000000000e+00 0.0000e+00 1.0000e+00
      -13  1    1    2    0    0 +9.2628122782e+02 +8.6038110965e+02 -1.8512067112e+02 1.2777019330e+03 0.0000000000e+00 0.0000e+00 1.0000e+00
       13  1    1    2    0    0 -9.2628122782e+02 -8.6038110965e+02 +2.2931087469e+03 2.6185110830e+03 0.0000000000e+00 0.0000e+00 -1.0000e+00
<mgrwt>
<rscale>  0 0.32767151E+04</rscale>
<asrwt>0</asrwt>
<pdfrwt beam="1">  1        2 0.46186162E+00 0.32767151E+04</pdfrwt>
<pdfrwt beam="2">  1       -2 0.13755577E+00 0.32767151E+04</pdfrwt>
<totfact> 0.64565016E-01</totfact>
</mgrwt>
<rwgt>
<wgt id='morphing_basis_vector_1'> +3.1368366e-05 </wgt>
<wgt id='morphing_basis_vector_2'> +2.1331093e-05 </wgt>
<wgt id='morphing_basis_vector_3'> +3.4304031e-05 </wgt>
<wgt id='morphing_basis_vector_4'> +2.4380474e-05 </wgt>
<wgt id='morphing_basis_vector_5'> +3.9061784e-05 </wgt>
</rwgt>
</event>
<event>
 4      1 +1.9882500e-09 3.46114200e+03 7.81860800e-03 7.64556100e-02
        2 -1    0    0  501    0 +0.0000000000e+00 +0.0000000000e+00 +2.3727856862e+03 2.3727856862e+03 0.0000000000e+00 0.0000e+00 1.0000e+00
       -2 -1    0    0    0  501 -0.0000000000e+00 -0.0000000000e+00 -1.2621774853e+03 1.2621774853e+03 0.0000000000e+00 0.0000e+00 -1.0000e+00
      -13  1    1    2    0    0 +7.8329974644e+02 +1.9263219065e+02 +2.1632776455e+03 2.3087736626e+03 0.0000000000e+00 0.0000e+00 1.0000e+00
       13  1    1    2    0    0 -7.8329974644e+02 -1.9263219065e+02 -1.0526694447e+03 1.3261895088e+03 0.0000000000e+00 0.0000e+00 -1.0000e+00
<mgrwt>
<rscale>  0 0.34611424E+04</rscale>
<asrwt>0</asrwt>
<pdfrwt beam="1">  1        2 0.36504395E+00 0.34611424E+04</pdfrwt>
<pdfrwt beam="2">  1       -2 0.19418115E+00 0.34611424E+04</pdfrwt>
<totfact> 0.55301831E-01</totfact>
</mgrwt>
<rwgt>
<wgt id='morphing_basis_vector_1'> +5.2862295e-05 </wgt>
<wgt id='morphing_basis_vector_2'> +6.7354457e-05 </wgt>
<wgt id='morphing_basis_vector_3'> +6.4724947e-05 </wgt>
<wgt id='morphing_basis_vector_4'> +1.2475619e-06 </wgt>
<wgt id='morphing_basis_vector_5'> +4.6287260e-05 </wgt>
</rwgt>
</event>
<event>
 4      1 +1.9882500e-09 3.25091100e+03 7.81860800e-03 7.69190900e-02
        2 -1    0    0  501    0 +0.0000000000e+00 +0.0000000000e+00 +3.0838753641e+03 3.0838753641e+03 0.0000000000e+00 0.0000e+00 -1.0000e+00
       -2 -1    0    0    0  501 -0.0000000000e+00 -0.0000000000e+00 -8.5674848307e+02 8.5674848307e+02 0.0000000000e+00 0.0000e+00 1.0000e+00
      -13  1    1    2    0    0 +1.5946204481e+03 +2.4573356048e+02 +1.3526577408e+03 2.1054411224e+03 0.0000000000e+00 0.0000e+00 -1.0000e+00
       13  1    1    2    0    0 -1.5946204481e+03 -2.4573356048e+02 +8.7446914020e+02 1.8351827248e+03 0.0000000000e+00 0.0000e+00 1.0000e+00
<mgrwt>
<rscale>  0 0.32509110E+04</rscale>
<asrwt>0</asrwt>
<pdfrwt beam="1">  1        2 0.47444236E+00 0.32509110E+04</pdfrwt>
<pdfrwt beam="2">  1       -2 0.13180746E+00 0.32509110E+04</pdfrwt>
<totfact> 0.64248216E-01</totfact>
</mgrwt>
<rwgt>
<wgt id='morphing_basis_vector_1'> +3.2047503e-05 </wgt>
<wgt id='morphing_basis_vector_2'> +2.5520209e-05 </wgt>
<wgt id='morphing_basis_vector_3'> +3.5838383e-05 </wgt>
<wgt id='morphing_basis_vector_4'> +2.0165853e-05 </wgt>
<wgt id='morphing_basis_vector_5'> +3.7551973e-05 </wgt>
</rwgt>
</event>
<event>
 4      1 +1.9882500e-09 3.77548700e+03 7.81860800e-03 7.58222200e-02
        2 -1    0    0  501    0 +0.0000000000e+00 +0.0000000000e+00 +1.7583007023e+03 1.7583007023e+03 0.0000000000e+00 0.0000e+00 -1.0000e+00
       -2 -1    0    0    0  501 -0.0000000000e+00 -0.0000000000e+00 -2.0267159800e+03 2.0267159800e+03 0.0000000000e+00 0.0000e+00 1.0000e+00
      -13  1    1    2    0    0 +1.6188528638e+03 -3.1155669627e+02 -1.0562158180e+03 1.9578927509e+03 0.0000000000e+00 0.0000e+00 1.0000e+00
       13  1    1    2    0    0 -1.6188528638e+03 +3.1155669627e+02 +7.8780054030e+02 1.8271239315e+03 0.0000000000e+00 0.0000e+00 -1.0000e+00
<mgrwt>
<rscale>  0 0.37754873E+04</rscale>
<asrwt>0</asrwt>
<pdfrwt beam="1">  1        2 0.27050780E+00 0.37754873E+04</pdfrwt>
<pdfrwt beam="2">  1       -2 0.31180246E+00 0.37754873E+04</pdfrwt>
<totfact> 0.18340477E-01</totfact>
</mgrwt>
<rwgt>
<wgt id='morphing_basis_vector_1'> +5.5233066e-05 </wgt>
<wgt id='morphing_basis_vector_2'> +3.7989250e-05 </wgt>
<wgt id='morphing_basis_vector_3'> +6.0691890e-05 </wgt>
<wgt id='morphing_basis_vector_4'> +4.2802060e-05 </wgt>
<wgt id='morphing_basis_vector_5'> +6.9072939e-05 </wgt>
</rwgt>
</event>
<event>
 4      1 +1.9882500e-09 3.49226300e+03 7.81860800e-03 7.63898800e-02
        2 -1    0    0  501    0 +0.0000000000e+00 +0.0000000000e+00 +1.9014153758e+03 1.9014153758e+03 0.0000000000e+00 0.0000e+00 1.0000e+00
       -2 -1    0    0    0  501 -0.0000000000e+00 -0.0000000000e+00 -1.6035289376e+03 1.6035289376e+03 0.0000000000e+00 0.0000e+00 -1.0000e+00
      -13  1    1    2    0    0 -6.0873566690e+02 +9.9690734774e+02 -1.1536880216e+03 1.6417610737e+03 0.0000000000e+00 0.0000e+00 -1.0000e+00
       13  1    1    2    0    0 +6.0873566690e+02 -9.9690734774e+02 +1.4515744598e+03 1.8631832396e+03 0.0000000000e+00 0.0000e+00 1.0000e+00
<mgrwt>
<rscale>  0 0.34922626E+04</rscale>
<asrwt>0</asrwt>
<pdfrwt beam="1">  1        2 0.29252544E+00 0.34922626E+04</pdfrwt>
<pdfrwt beam="2">  1       -2 0.24669676E+00 0.34922626E+04</pdfrwt>
<totfact> 0.43355377E-01</totfact>
</mgrwt>
<rwgt>
<wgt id='morphing_basis_vector_1'> +4.0353826e-05 </wgt>
<wgt id='morphing_basis_vector_2'> +2.7368554e-05 </wgt>
<wgt id='morphing_basis_vector_3'> +4.4183382e-05 </wgt>
<wgt id='morphing_basis_vector_4'> +3.1606597e-05 </wgt>
<wgt id='morphing_basis_vector_5'> +5.0496670e-05 </wgt>
</rwgt>
</event>
<event>
 4      1 +1.9882500e-09 3.61422300e+03 7.81860800e-03 7.61389200e-02
        2 -1    0    0  501    0 +0.0000000000e+00 +0.0000000000e+00 +2.3975231163e+03 2.3975231163e+03 0.0000000000e+00 0.0000e+00 -1.0000e+00
       -2 -1    0    0    0  501 -0.0000000000e+00 -0.0000000000e+00 -1.3620941208e+03 1.3620941208e+03 0.0000000000e+00 0.0000e+00 1.0000e+00
      -13  1    1    2    0    0 -1.2199807464e+03 +1.2953182411e+03 +8.4575734730e+02 1.9701542725e+03 0.0000000000e+00 0.0000e+00 1.0000e+00
       13  1    1    2    0    0 +1.2199807464e+03 -1.2953182411e+03 +1.8967164821e+02 1.7894629645e+03 0.0000000000e+00 0.0000e+00 -1.0000e+00
<mgrwt>
<rscale>  0 0.36142231E+04</rscale>
<asrwt>0</asrwt>
<pdfrwt beam="1">  1        2 0.36884971E+00 0.36142231E+04</pdfrwt>
<pdfrwt beam="2">  1       -2 0.20955294E+00 0.36142231E+04</pdfrwt>
<totfact> 0.40816250E-01</totfact>
</mgrwt>
<rwgt>
<wgt id='morphing_basis_vector_1'> +4.9333381e-05 </wgt>
<wgt id='morphing_basis_vector_2'> +4.0448173e-05 </wgt>
<wgt id='morphing_basis_vector_3'> +5.5592265e-05 </wgt>
<wgt id='morphing_basis_vector_4'> +2.9800886e-05 </wgt>
<wgt id='morphing_basis_vector_5'> +5.7440557e-05 </wgt>
</rwgt>
</event>
<event>
 4      1 +1.9882500e-09 3.80936900e+03 7.81860800e-03 7.57577400e-02
        2 -1    0    0  501    0 +0.0000000000e+00 +0.0000000000e+00 +2.2397696879e+03 2.2397696879e+03 0.0000000000e+00 0.0000e+00 -1.0000e+00
       -2 -1    0    0    0  501 -0.0000000000e+00 -0.0000000000e+00 -1.6197303010e+03 1.6197303010e+03 0.0000000000e+00 0.0000e+00 1.0000e+00
      -13  1    1    2    0    0 -5.5079077904e+02 +1.9957588387e+02 -1.5261833379e+03 1.6347588803e+03 0.0000000000e+00 0.0000e+00 1.0000e+00
       13  1    1    2    0    0 +5.5079077904e+02 -1.9957588387e+02 +2.1462227248e+03 2.2247411086e+03 0.0000000000e+00 0.0000e+00 -1.0000e+00
<mgrwt>
<rscale>  0 0.38093689E+04</rscale>
<asrwt>0</asrwt>
<pdfrwt beam="1">  1        2 0.34457995E+00 0.38093689E+04</pdfrwt>
<pdfrwt beam="2">  1       -2 0.24918928E+00 0.38093689E+04</pdfrwt>
<totfact> 0.26110821E-01</totfact>
</mgrwt>
<rwgt>
<wgt id='morphing_basis_vector_1'> +5.6959478e-05 </wgt>
<wgt id='morphing_basis_vector_2'> +3.8569985e-05 </wgt>
<wgt id='morphing_basis_vector_3'> +6.2465199e-05 </wgt>
<wgt id='morphing_basis_vector_4'> +4.4940819e-05 </wgt>
<wgt id='morphing_basis_vector_5'> +7.1647755e-05 </wgt>
</rwgt>
</event>
<event>
 4      1 +1.9882500e-09 3.65744500e+03 7.81860800e-03 7.60524000e-02
        2 -1    0    0  501    0 +0.0000000000e+00 +0.0000000000e+00 +1.6202797250e+03 1.6202797250e+03 0.0000000000e+00 0.0000e+00 -1.0000e+00
       -2 -1    0    0    0  501 -0.0000000000e+00 -0.0000000000e+00 -2.0639801758e+03 2.0639801758e+03 0.0000000000e+00 0.0000e+00 1.0000e+00
      -13  1    1    2    0    0 +4.6647118108e+02 +1.2015552988e+03 -1.5286257136e+03 1.9995067069e+03 0.0000000000e+00 0.0000e+00 1.0000e+00
       13  1    1    2    0    0 -4.6647118108e+02 -1.2015552988e+03 +1.0849252627e+03 1.6847531939e+03 0.0000000000e+00 0.0000e+00 -1.0000e+00
<mgrwt>
<rscale>  0 0.36574446E+04</rscale>
<asrwt>0</asrwt>
<pdfrwt beam="1">  1        2 0.24927380E+00 0.36574446E+04</pdfrwt>
<pdfrwt beam="2">  1       -2 0.31753541E+00 0.36574446E+04</pdfrwt>
<totfact> 0.20233847E-01</totfact>
</mgrwt>
<rwgt>
<wgt id='morphing_basis_vector_1'> +4.8504316e-05 </wgt>
<wgt id='morphing_basis_vector_2'> +3.2951861e-05 </wgt>
<wgt id='morphing_basis_vector_3'> +5.3173192e-05 </wgt>
<wgt id='morphing_basis_vector_4'> +3.8037075e-05 </wgt>
<wgt id='morphing_basis_vector_5'> +6.0817473e-05 </wgt>
</rwgt>
</event>
<event>
 4      1 +1.9882500e-09 3.65733900e+03 7.81860800e-03 7.60526100e-02
        2 -1    0    0  501    0 +0.0000000000e+00 +0.0000000000e+00 +2.6595592241e+03 2.6595592241e+03 0.0000000000e+00 0.0000e+00 1.0000e+00
       -2 -1    0    0    0  501 -0.0000000000e+00 -0.0000000000e+00 -1.2573631465e+03 1.2573631465e+03 0.0000000000e+00 0.0000e+00 -1.0000e+00
      -13  1    1    2    0    0 +1.7889969924e+03 -2.2429829410e+02 +1.0280735280e+03 2.0755132239e+03 0.0000000000e+00 0.0000e+00 1.0000e+00
       13  1    1    2    0    0 -1.7889969924e+03 +2.2429829410e+02 +3.7412254959e+02 1.8414091467e+03 0.0000000000e+00 0.0000e+00 -1.0000e+00
<mgrwt>
<rscale>  0 0.36573388E+04</rscale>
<asrwt>0</asrwt>
<pdfrwt beam="1">  1        2 0.40916296E+00 0.36573388E+04</pdfrwt>
<pdfrwt beam="2">  1       -2 0.19344048E+00 0.36573388E+04</pdfrwt>
<totfact> 0.37106785E-01</totfact>
</mgrwt>
<rwgt>
<wgt id='morphing_basis_vector_1'> +5.1632409e-05 </wgt>
<wgt id='morphing_basis_vector_2'> +4.2163677e-05 </wgt>
<wgt id='morphing_basis_vector_3'> +5.8163746e-05 </wgt>
<wgt id='morphing_basis_vector_4'> +3.1430600e-05 </wgt>
<wgt id='morphing_basis_vector_5'> +6.0262231e-05 </wgt>
</rwgt>
</event>
<event>
 4      1 +1.9882500e-09 3.25281600e+03 7.81860800e-03 7.69147300e-02
        2 -1    0    0  501    0 +0.0000000000e+00 +0.0000000000e+00 +2.1974572957e+03 2.1974572957e+03 0.0000000000e+00 0.0000e+00 -1.0000e+00
       -2 -1    0    0    0  501 -0.0000000000e+00 -0.0000000000e+00 -1.2037565055e+03 1.2037565055e+03 0.0000000000e+00 0.0000e+00 1.0000e+00
      -13  1    1    2    0    0 +3.3991641203e+02 -1.5265716315e+03 +3.0124382825e+01 1.5642479316e+03 0.0000000000e+00 0.0000e+00 1.0000e+00
       13  1    1    2    0    0 -3.3991641203e+02 +1.5265716315e+03 +9.6357640736e+02 1.8369658696e+03 0.0000000000e+00 0.0000e+00 -1.0000e+00
<mgrwt>
<rscale>  0 0.32528163E+04</rscale>
<asrwt>0</asrwt>
<pdfrwt beam="1">  1        2 0.33807035E+00 0.32528163E+04</pdfrwt>
<pdfrwt beam="2">  1       -2 0.18519331E+00 0.32528163E+04</pdfrwt>
<totfact> 0.82945930E-01</totfact>
</mgrwt>
<rwgt>
<wgt id='morphing_basis_vector_1'> +3.0797145e-05 </wgt>
<wgt id='morphing_basis_vector_2'> +2.1680198e-05 </wgt>
<wgt id='morphing_basis_vector_3'> +3.3830992e-05 </wgt>
<wgt id='morphing_basis_vector_4'> +2.2987136e-05 </wgt>
<wgt id='morphing_basis_vector_5'> +3.7869763e-05 </wgt>
</rwgt>
</event>
<event>
 4      1 +1.9882500e-09 3.28491700e+03 7.81860800e-03 7.68417100e-02
        2 -1    0    0  501    0 +0.0000000000e+00 +0.0000000000e+00 +2.0754821193e+03 2.0754821193e+03 0.0000000000e+00 0.0000e+00 -1.0000e+00
       -2 -1    0    0    0  501 -0.0000000000e+00 -0.0000000000e+00 -1.2997801246e+03 1.2997801246e+03 0.0000000000e+00 0.0000e+00 1.0000e+00
      -13  1    1    2    0    0 -1.5794760123e+03 -2.1824783543e+02 -1.7060551281e+01 1.5945744427e+03 0.0000000000e+00 0.0000e+00 1.0000e+00
       13  1    1    2    0    0 +1.5794760123e+03 +2.1824783543e+02 +7.9276254592e+02 1.7806878012e+03 0.0000000000e+00 0.0000e+00 -1.0000e+00
<mgrwt>
<rscale>  0 0.32849173E+04</rscale>
<asrwt>0</asrwt>
<pdfrwt beam="1">  1        2 0.31930494E+00 0.32849173E+04</pdfrwt>
<pdfrwt beam="2">  1       -2 0.19996617E+00 0.32849173E+04</pdfrwt>
<totfact> 0.75457524E-01</totfact>
</mgrwt>
<rwgt>
<wgt id='morphing_basis_vector_1'> +3.2083125e-05 </wgt>
<wgt id='morphing_basis_vector_2'> +2.2727603e-05 </wgt>
<wgt id='morphing_basis_vector_3'> +3.5283652e-05 </wgt>
<wgt id='morphing_basis_vector_4'> +2.3785452e-05 </wgt>
<wgt id='morphing_basis_vector_5'> +3.9387737e-05 </wgt>
</rwgt>
</event>
<event>
 4      1 +1.9882500e-09 3.79236900e+03 7.81860800e-03 7.57900100e-02
        2 -1    0    0  501    0 +0.0000000000e+00 +0.0000000000e+00 +1.8374107170e+03 1.8374107170e+03 0.0000000000e+00 0.0000e+00 -1.0000e+00
       -2 -1    0    0    0  501 -0.0000000000e+00 -0.0000000000e+00 -1.9568382619e+03 1.9568382619e+03 0.0000000000e+00 0.0000e+00 1.0000e+00
      -13  1    1    2    0    0 +7.1438423286e+02 +1.7496758918e+03 +9.4651518526e+01 1.8922656972e+03 0.0000000000e+00 0.0000e+00 1.0000e+00
       13  1    1    2    0    0 -7.1438423286e+02 -1.7496758918e+03 -2.1407906351e+02 1.9019832818e+03 0.0000000000e+00 0.0000e+00 -1.0000e+00
<mgrwt>
<rscale>  0 0.37923690E+04</rscale>
<asrwt>0</asrwt>
<pdfrwt beam="1">  1        2 0.28267857E+00 0.37923690E+04</pdfrwt>
<pdfrwt beam="2">  1       -2 0.30105204E+00 0.37923690E+04</pdfrwt>
<totfact> 0.19536965E-01</totfact>
</mgrwt>
<rwgt>
<wgt id='morphing_basis_vector_1'> +5.8699954e-05 </wgt>
<wgt id='morphing_basis_vector_2'> +4.5957832e-05 </wgt>
<wgt id='morphing_basis_vector_3'> +6.5746269e-05 </wgt>
<wgt id='morphing_basis_vector_4'> +3.8347174e-05 </wgt>
<wgt id='morphing_basis_vector_5'> +6.9888755e-05 </wgt>
</rwgt>
</event>
<event>
 4      1 +1.9882500e-09 3.63300700e+03 7.81860800e-03 7.61011700e-02
        2 -1    0    0  501    0 +0.0000000000e+00 +0.0000000000e+00 +2.8954774528e+03 2.8954774528e+03 0.0000000000e+00 0.0000e+00 -1.0000e+00
       -2 -1    0    0    0  501 -0.0000000000e+00 -0.0000000000e+00 -1.1395994404e+03 1.1395994404e+03 0.0000000000e+00 0.0000e+00 1.0000e+00
      -13  1    1    2    0    0 -1.4018201656e+03 +9.5756892642e+02 +1.6016121920e+02 1.7051948984e+03 0.0000000000e+00 0.0000e+00 1.0000e+00
       13  1    1    2    0    0 +1.4018201656e+03 -9.5756892642e+02 +1.5957167932e+03 2.3298819948e+03 0.0000000000e+00 0.0000e+00 -1.0000e+00
<mgrwt>
<rscale>  0 0.36330067E+04</rscale>
<asrwt>0</asrwt>
<pdfrwt beam="1">  1        2 0.44545807E+00 0.36330067E+04</pdfrwt>
<pdfrwt beam="2">  1       -2 0.17532299E+00 0.36330067E+04</pdfrwt>
<totfact> 0.36239301E-01</totfact>
</mgrwt>
<rwgt>
<wgt id='morphing_basis_vector_1'> +4.7597400e-05 </wgt>
<wgt id='morphing_basis_vector_2'> +3.3166417e-05 </wgt>
<wgt id='morphing_basis_vector_3'> +5.2354397e-05 </wgt>
<wgt id='morphing_basis_vector_4'> +3.6248290e-05 </wgt>
<wgt id='morphing_basis_vector_5'> +5.9134288e-05 </wgt>
</rwgt>
</event>
<event>
 4      1 +1.9882500e-09 3.31461800e+03 7.81860800e-03 7.67749200e-02
        2 -1    0    0  501    0 +0.0000000000e+00 +0.0000000000e+00 +1.5142600102e+03 1.5142600102e+03 0.0000000000e+00 0.0000e+00 1.0000e+00
       -2 -1    0    0    0  501 -0.0000000000e+00 -0.0000000000e+00 -1.8138710087e+03 1.8138710087e+03 0.0000000000e+00 0.0000e+00 -1.0000e+00
      -13  1    1    2    0    0 +5.8438536378e+02 -1.3750977469e+03 -8.6985697457e+02 1.7288872789e+03 0.0000000000e+00 0.0000e+00 -1.0000e+00
       13  1    1    2    0    0 -5.8438536378e+02 +1.3750977469e+03 +5.7024597605e+02 1.5992437400e+03 0.0000000000e+00 0.0000e+00 1.0000e+00
<mgrwt>
<rscale>  0 0.33146175E+04</rscale>
<asrwt>0</asrwt>
<pdfrwt beam="1">  1        2 0.23296308E+00 0.33146175E+04</pdfrwt>
<pdfrwt beam="2">  1       -2 0.27905708E+00 0.33146175E+04</pdfrwt>
<totfact> 0.43345591E-01</totfact>
</mgrwt>
<rwgt>
<wgt id='morphing_basis_vector_1'> +3.2973972e-05 </wgt>
<wgt id='morphing_basis_vector_2'> +2.2744841e-05 </wgt>
<wgt id='morphing_basis_vector_3'> +3.6139940e-05 </wgt>
<wgt id='morphing_basis_vector_4'> +2.5242751e-05 </wgt>
<wgt id='morphing_basis_vector_5'> +4.0890223e-05 </wgt>
</rwgt>
</event>
<event>
 4      1 +1.9882500e-09 3.46462900e+03 7.81860800e-03 7.64482100e-02
        2 -1    0    0  501    0 +0.0000000000e+00 +0.0000000000e+00 +2.0200838633e+03 2.0200838633e+03 0.0000000000e+00 0.0000e+00 -1.0000e+00
       -2 -1    0    0    0  501 -0.0000000000e+00 -0.0000000000e+00 -1.4855395070e+03 1.4855395070e+03 0.0000000000e+00 0.0000e+00 1.0000e+00
      -13  1    1    2    0    0 +1.5832119253e+03 +6.7801406291e+00 +9.7866169194e+02 1.8612857594e+03 0.0000000000e+00 0.0000e+00 -1.0000e+00
       13  1    1    2    0    0 -1.5832119253e+03 -6.7801406291e+00 -4.4411733562e+02 1.6443376109e+03 0.0000000000e+00 0.0000e+00 1.0000e+00
<mgrwt>
<rscale>  0 0.34646295E+04</rscale>
<asrwt>0</asrwt>
<pdfrwt beam="1">  1        2 0.31078214E+00 0.34646295E+04</pdfrwt>
<pdfrwt beam="2">  1       -2 0.22854454E+00 0.34646295E+04</pdfrwt>
<totfact> 0.49894636E-01</totfact>
</mgrwt>
<rwgt>
<wgt id='morphing_basis_vector_1'> +4.4587745e-05 </wgt>
<wgt id='morphing_basis_vector_2'> +4.2658723e-05 </wgt>
<wgt id='morphing_basis_vector_3'> +5.1514296e-05 </wgt>
<wgt id='morphing_basis_vector_4'> +1.9082385e-05 </wgt>
<wgt id='morphing_basis_vector_5'> +4.7952071e-05 </wgt>
</rwgt>
</event>
<event>
 4      1 +1.9882500e-09 3.26027100e+03 7.81860800e-03 7.68976900e-02
        2 -1    0    0  501    0 +0.0000000000e+00 +0.0000000000e+00 +2.5487043778e+03 2.5487043778e+03 0.0000000000e+00 0.0000e+00 -1.0000e+00
       -2 -1    0    0    0  501 -0.0000000000e+00 -0.0000000000e+00 -1.0426247493e+03 1.0426247493e+03 0.0000000000e+00 0.0000e+00 1.0000e+00
      -13  1    1    2    0    0 +3.5450333028e+02 -5.4512977536e+02 -8.9357475349e+02 1.1051311792e+03 0.0000000000e+00 0.0000e+00 1.0000e+00
       13  1    1    2    0    0 -3.5450333028e+02 +5.4512977536e+02 +2.3996543820e+03 2.4861979479e+03 0.0000000000e+00 0.0000e+00 -1.0000e+00
<mgrwt>
<rscale>  0 0.32602713E+04</rscale>
<asrwt>0</asrwt>
<pdfrwt beam="1">  1        2 0.39210836E+00 0.32602713E+04</pdfrwt>
<pdfrwt beam="2">  1       -2 0.16040381E+00 0.32602713E+04</pdfrwt>
<totfact> 0.80216429E-01</totfact>
</mgrwt>
<rwgt>
<wgt id='morphing_basis_vector_1'> +3.0688898e-05 </wgt>
<wgt id='morphing_basis_vector_2'> +2.0733030e-05 </wgt>
<wgt id='morphing_basis_vector_3'> +3.3527373e-05 </wgt>
<wgt id='morphing_basis_vector_4'> +2.4015311e-05 </wgt>
<wgt id='morphing_basis_vector_5'> +3.8288064e-05 </wgt>
</rwgt>
</event>
<event>
 4      1 +1.9882500e-09 3.31330100e+03 7.81860800e-03 7.67778600e-02
        2 -1    0    0  501    0 +0.0000000000e+00 +0.0000000000e+00 +2.6768463684e+03 2.6768463684e+03 0.0000000000e+00 0.0000e+00 1.0000e+00
       -2 -1    0    0    0  501 -0.0000000000e+00 -0.0000000000e+00 -1.0252704691e+03 1.0252704691e+03 0.0000000000e+00 0.0000e+00 -1.0000e+00
      -13  1    1    2    0    0 -1.2881388920e+03 +1.0264896571e+03 +1.0241252939e+03 1.9395400070e+03 0.0000000000e+00 0.0000e+00 -1.0000e+00
       13  1    1    2    0    0 +1.2881388920e+03 -1.0264896571e+03 +6.2745060548e+02 1.7625768305e+03 0.0000000000e+00 0.0000e+00 1.0000e+00
<mgrwt>
<rscale>  0 0.33133014E+04</rscale>
<asrwt>0</asrwt>
<pdfrwt beam="1">  1        2 0.41182252E+00 0.33133014E+04</pdfrwt>
<pdfrwt beam="2">  1       -2 0.15773392E+00 0.33133014E+04</pdfrwt>
<totfact> 0.70131658E-01</totfact>
</mgrwt>
<rwgt>
<wgt id='morphing_basis_vector_1'> +3.4471468e-05 </wgt>
<wgt id='morphing_basis_vector_2'> +2.7268521e-05 </wgt>
<wgt id='morphing_basis_vector_3'> +3.8532758e-05 </wgt>
<wgt id='morphing_basis_vector_4'> +2.1955277e-05 </wgt>
<wgt id='morphing_basis_vector_5'> +4.0556470e-05 </wgt>
</rwgt>
</event>
<event>
 4      1 +1.9882500e-09 3.27937900e+03 7.81860800e-03 7.68542500e-02
        2 -1    0    0  501    0 +0.0000000000e+00 +0.0000000000e+00 +3.5669149267e+03 3.5669149267e+03 0.0000000000e+00 0.0000e+00 1.0000e+00
       -2 -1    0    0    0  501 -0.0000000000e+00 -0.0000000000e+00 -7.5375556821e+02 7.5375556821e+02 0.0000000000e+00 0.0000e+00 -1.0000e+00
      -13  1    1    2    0    0 +1.8450513788e+02 -1.5462898123e+03 +7.3022794126e+02 1.7199672019e+03 0.0000000000e+00 0.0000e+00 -1.0000e+00
       13  1    1    2    0    0 -1.8450513788e+02 +1.5462898123e+03 +2.0829314172e+03 2.6007032930e+03 0.0000000000e+00 0.0000e+00 1.0000e+00
<mgrwt>
<rscale>  0 0.32793792E+04</rscale>
<asrwt>0</asrwt>
<pdfrwt beam="1">  1        2 0.54875614E+00 0.32793792E+04</pdfrwt>
<pdfrwt beam="2">  1       -2 0.11596240E+00 0.32793792E+04</pdfrwt>
<totfact> 0.41105356E-01</totfact>
</mgrwt>
<rwgt>
<wgt id='morphing_basis_vector_1'> +3.1747024e-05 </wgt>
<wgt id='morphing_basis_vector_2'> +2.2216425e-05 </wgt>
<wgt id='morphing_basis_vector_3'> +3.4853746e-05 </wgt>
<wgt id='morphing_basis_vector_4'> +2.3879663e-05 </wgt>
<wgt id='morphing_basis_vector_5'> +3.9141940e-05 </wgt>
</rwgt>
</event>
<event>
 4      1 +1.9882500e-09 3.84115200e+03 7.81860800e-03 7.56978700e-02
        2 -1    0    0  501    0 +0.0000000000e+00 +0.0000000000e+00 +1.7182531658e+03 1.7182531658e+03 0.0000000000e+00 0.0000e+00 -1.0000e+00
       -2 -1    0    0    0  501 -0.0000000000e+00 -0.0000000000e+00 -2.1467221018e+03 2.1467221018e+03 0.0000000000e+00 0.0000e+00 1.0000e+00
      -13  1    1    2    0    0 -1.2437990852e+03 +1.1351224538e+03 -1.1435823334e+03 2.0355146039e+03 0.0000000000e+00 0.0000e+00 1.0000e+00
       13  1    1    2    0    0 +1.2437990852e+03 -1.1351224538e+03 +7.1511339733e+02 1.8294606638e+03 0.0000000000e+00 0.0000e+00 -1.0000e+00
<mgrwt>
<rscale>  0 0.38411519E+04</rscale>
<asrwt>0</asrwt>
<pdfrwt beam="1">  1        2 0.26434664E+00 0.38411519E+04</pdfrwt>
<pdfrwt beam="2">  1       -2 0.33026494E+00 0.38411519E+04</pdfrwt>
<totfact> 0.14476742E-01</totfact>
</mgrwt>
<rwgt>
<wgt id='morphing_basis_vector_1'> +5.9163249e-05 </wgt>
<wgt id='morphing_basis_vector_2'> +4.0722679e-05 </wgt>
<wgt id='morphing_basis_vector_3'> +6.5039133e-05 </wgt>
<wgt id='morphing_basis_vector_4'> +4.5855625e-05 </wgt>
<wgt id='morphing_basis_vector_5'> +7.4031438e-05 </wgt>
</rwgt>
</event>
<event>
 4      1 +1.9882500e-09 3.49323900e+03 7.81860800e-03 7.63878300e-02
        2 -1    0    0  501    0 +0.0000000000e+00 +0.0000000000e+00 +2.4053353809e+03 2.4053353809e+03 0.0000000000e+00 0.0000e+00 -1.0000e+00
       -2 -1    0    0    0  501 -0.0000000000e+00 -0.0000000000e+00 -1.2682966854e+03 1.2682966854e+03 0.0000000000e+00 0.0000e+00 1.0000e+00
      -13  1    1    2    0    0 +9.2814001105e+02 +4.5032017453e+02 -9.1367747172e+02 1.3780561172e+03 0.0000000000e+00 0.0000e+00 1.0000e+00
       13  1    1    2    0    0 -9.2814001105e+02 -4.5032017453e+02 +2.0507161673e+03 2.2955759492e+03 0.0000000000e+00 0.0000e+00 -1.0000e+00
<mgrwt>
<rscale>  0 0.34932385E+04</rscale>
<asrwt>0</asrwt>
<pdfrwt beam="1">  1        2 0.37005160E+00 0.34932385E+04</pdfrwt>
<pdfrwt beam="2">  1       -2 0.19512257E+00 0.34932385E+04</pdfrwt>
<totfact> 0.51942230E-01</totfact>
</mgrwt>
<rwgt>
<wgt id='morphing_basis_vector_1'> +4.0381805e-05 </wgt>
<wgt id='morphing_basis_vector_2'> +2.7349527e-05 </wgt>
<wgt id='morphing_basis_vector_3'> +4.4206008e-05 </wgt>
<wgt id='morphing_basis_vector_4'> +3.1677571e-05 </wgt>
<wgt id='morphing_basis_vector_5'> +5.0556441e-05 </wgt>
</rwgt>
</event>
<event>
 4      1 +1.9882500e-09 3.62351900e+03 7.81860800e-03 7.61202100e-02
        2 -1    0    0  501    0 +0.0000000000e+00 +0.0000000000e+00 +1.4243555374e+03 1.4243555374e+03 0.0000000000e+00 0.0000e+00 -1.0000e+00
       -2 -1    0    0    0  501 -0.0000000000e+00 -0.0000000000e+00 -2.3045314463e+03 2.3045314463e+03 0.0000000000e+00 0.0000e+00 1.0000e+00
      -13  1    1    2    0    0 +4.3410815598e+02 +4.2038208614e+02 -2.1977660169e+03 2.2793302644e+03 0.0000000000e+00 0.0000e+00 1.0000e+00
       13  1    1    2    0    0 -4.3410815598e+02 -4.2038208614e+02 +1.3175901081e+03 1.4495567192e+03 0.0000000000e+00 0.0000e+00 -1.0000e+00
<mgrwt>
<rscale>  0 0.36235188E+04</rscale>
<asrwt>0</asrwt>
<pdfrwt beam="1">  1        2 0.21913162E+00 0.36235188E+04</pdfrwt>
<pdfrwt beam="2">  1       -2 0.35454330E+00 0.36235188E+04</pdfrwt>
<totfact> 0.14908721E-01</totfact>
</mgrwt>
<rwgt>
<wgt id='morphing_basis_vector_1'> +4.6687058e-05 </wgt>
<wgt id='morphing_basis_vector_2'> +3.1592491e-05 </wgt>
<wgt id='morphing_basis_vector_3'> +5.1143518e-05 </wgt>
<wgt id='morphing_basis_vector_4'> +3.6749423e-05 </wgt>
<wgt id='morphing_basis_vector_5'> +5.8588356e-05 </wgt>
</rwgt>
</event>
<event>
 4      1 +1.9882500e-09 3.83777900e+03 7.81860800e-03 7.57042000e-02
        2 -1    0    0  501    0 +0.0000000000e+00 +0.0000000000e+00 +2.7120987726e+03 2.7120987726e+03 0.0000000000e+00 0.0000e+00 1.0000e+00
       -2 -1    0    0    0  501 -0.0000000000e+00 -0.0000000000e+00 -1.3576706267e+03 1.3576706267e+03 0.0000000000e+00 0.0000e+00 -1.0000e+00
      -13  1    1    2    0    0 +7.4122423636e+02 -7.5899350432e+02 -1.0183948031e+03 1.4705823619e+03 0.0000000000e+00 0.0000e+00 -1.0000e+00
       13  1    1    2    0    0 -7.4122423636e+02 +7.5899350432e+02 +2.3728229489e+03 2.5991870374e+03 0.0000000000e+00 0.0000e+00 1.0000e+00
<mgrwt>
<rscale>  0 0.38377790E+04</rscale>
<asrwt>0</asrwt>
<pdfrwt beam="1">  1        2 0.41724597E+00 0.38377790E+04</pdfrwt>
<pdfrwt beam="2">  1       -2 0.20887240E+00 0.38377790E+04</pdfrwt>
<totfact> 0.26195944E-01</totfact>
</mgrwt>
<rwgt>
<wgt id='morphing_basis_vector_1'> +5.8686320e-05 </wgt>
<wgt id='morphing_basis_vector_2'> +3.9784749e-05 </wgt>
<wgt id='morphing_basis_vector_3'> +6.4378157e-05 </wgt>
<wgt id='morphing_basis_vector_4'> +4.6265187e-05 </wgt>
<wgt id='morphing_basis_vector_5'> +7.3817874e-05 </wgt>
</rwgt>
</event>
<event>
 4      1 +1.9882500e-09 3.54337700e+03 7.81860800e-03 7.62834400e-02
        2 -1    0    0  501    0 +0.0000000000e+00 +0.0000000000e+00 +3.8989079143e+03 3.8989079143e+03 0.0000000000e+00 0.0000e+00 1.0000e+00
       -2 -1    0    0    0  501 -0.0000000000e+00 -0.0000000000e+00 -8.0506645198e+02 8.0506645198e+02 0.0000000000e+00 0.0000e+00 -1.0000e+00
      -13  1    1    2    0    0 +3.2969632619e+02 -1.5490317697e+03 +2.6011921333e+03 3.0453898938e+03 0.0000000000e+00 0.0000e+00 1.0000e+00
       13  1    1    2    0    0 -3.2969632619e+02 +1.5490317697e+03 +4.9264932901e+02 1.6585844725e+03 0.0000000000e+00 0.0000e+00 -1.0000e+00
<mgrwt>
<rscale>  0 0.35433769E+04</rscale>
<asrwt>0</asrwt>
<pdfrwt beam="1">  1        2 0.59983198E+00 0.35433769E+04</pdfrwt>
<pdfrwt beam="2">  1       -2 0.12385638E+00 0.35433769E+04</pdfrwt>
<totfact> 0.18622093E-01</totfact>
</mgrwt>
<rwgt>
<wgt id='morphing_basis_vector_1'> +4.9544898e-05 </wgt>
<wgt id='morphing_basis_vector_2'> +4.8981790e-05 </wgt>
<wgt id='morphing_basis_vector_3'> +5.7630317e-05 </wgt>
<wgt id='morphing_basis_vector_4'> +1.9222224e-05 </wgt>
<wgt id='morphing_basis_vector_5'> +5.2353862e-05 </wgt>
</rwgt>
</event>
<event>
 4      1 +1.9882500e-09 3.35128500e+03 7.81860800e-03 7.66934400e-02
        2 -1    0    0  501    0 +0.0000000000e+00 +0.0000000000e+00 +9.5052435574e+02 9.5052435574e+02 0.0000000000e+00 0.0000e+00 -1.0000e+00
       -2 -1    0    0    0  501 -0.0000000000e+00 -0.0000000000e+00 -2.9539250309e+03 2.9539250309e+03 0.0000000000e+00 0.0000e+00 1.0000e+00
      -13  1    1    2    0    0 -7.4260789352e+02 +3.1078287233e+02 -2.7138735237e+03 2.8307528998e+03 0.0000000000e+00 0.0000e+00 1.0000e+00
       13  1    1    2    0    0 +7.4260789352e+02 -3.1078287233e+02 +7.1047284854e+02 1.0736964868e+03 0.0000000000e+00 0.0000e+00 -1.0000e+00
<mgrwt>
<rscale>  0 0.33512849E+04</rscale>
<asrwt>0</asrwt>
<pdfrwt beam="1">  1        2 0.14623452E+00 0.33512849E+04</pdfrwt>
<pdfrwt beam="2">  1       -2 0.45445000E+00 0.33512849E+04</pdfrwt>
<totfact> 0.63544741E-02</totfact>
</mgrwt>
<rwgt>
<wgt id='morphing_basis_vector_1'> +3.4237045e-05 </wgt>
<wgt id='morphing_basis_vector_2'> +2.3149207e-05 </wgt>
<wgt id='morphing_basis_vector_3'> +3.7434012e-05 </wgt>
<wgt id='morphing_basis_vector_4'> +2.6825261e-05 </wgt>
<wgt id='morphing_basis_vector_5'> +4.2779576e-05 </wgt>
</rwgt>
</event>
<event>
 4      1 +1.9882500e-09 3.25071300e+03 7.81860800e-03 7.69195400e-02
        2 -1    0    0  501    0 +0.0000000000e+00 +0.0000000000e+00 +2.1476381461e+03 2.1476381461e+03 0.0000000000e+00 0.0000e+00 -1.0000e+00
       -2 -1    0    0    0  501 -0.0000000000e+00 -0.0000000000e+00 -1.2300878175e+03 1.2300878175e+03 0.0000000000e+00 0.0000e+00 1.0000e+00
      -13  1    1    2    0    0 +4.8342717293e+02 +1.1295010294e+03 -6.4690190927e+02 1.3885087278e+03 0.0000000000e+00 0.0000e+00 1.0000e+00
       13  1    1    2    0    0 -4.8342717293e+02 -1.1295010294e+03 +1.5644522378e+03 1.9892172358e+03 0.0000000000e+00 0.0000e+00 -1.0000e+00
<mgrwt>
<rscale>  0 0.32507129E+04</rscale>
<asrwt>0</asrwt>
<pdfrwt beam="1">  1        2 0.33040587E+00 0.32507129E+04</pdfrwt>
<pdfrwt beam="2">  1       -2 0.18924428E+00 0.32507129E+04</pdfrwt>
<totfact> 0.82616668E-01</totfact>
</mgrwt>
<rwgt>
<wgt id='morphing_basis_vector_1'> +3.0384634e-05 </wgt>
<wgt id='morphing_basis_vector_2'> +2.0642690e-05 </wgt>
<wgt id='morphing_basis_vector_3'> +3.3217109e-05 </wgt>
<wgt id='morphing_basis_vector_4'> +2.3625486e-05 </wgt>
<wgt id='morphing_basis_vector_5'> +3.7828817e-05 </wgt>
</rwgt>
</event>
<event>
 4      1 +1.9882500e-09 3.31514600e+03 7.81860800e-03 7.67737300e-02
        2 -1    0    0  501    0 +0.0000000000e+00 +0.0000000000e+00 +2.2694769576e+03 2.2694769576e+03 0.0000000000e+00 0.0000e+00 1.0000e+00
       -2 -1    0    0    0  501 -0.0000000000e+00 -0.0000000000e+00 -1.2106524044e+03 1.2106524044e+03 0.0000000000e+00 0.0000e+00 -1.0000e+00
      -13  1    1    2    0    0 +1.6462841120e+03 -6.7664412054e+01 +7.1929496910e+02 1.7978362280e+03 0.0000000000e+00 0.0000e+00 -1.0000e+00
       13  1    1    2    0    0 -1.6462841120e+03 +6.7664412054e+01 +3.3952958416e+02 1.6822931340e+03 0.0000000000e+00 0.0000e+00 1.0000e+00
<mgrwt>
<rscale>  0 0.33151457E+04</rscale>
<asrwt>0</asrwt>
<pdfrwt beam="1">  1        2 0.34915030E+00 0.33151457E+04</pdfrwt>
<pdfrwt beam="2">  1       -2 0.18625422E+00 0.33151457E+04</pdfrwt>
<totfact> 0.73644526E-01</totfact>
</mgrwt>
<rwgt>
<wgt id='morphing_basis_vector_1'> +3.4559782e-05 </wgt>
<wgt id='morphing_basis_vector_2'> +2.7364554e-05 </wgt>
<wgt id='morphing_basis_vector_3'> +3.8637768e-05 </wgt>
<wgt id='morphing_basis_vector_4'> +2.1979248e-05 </wgt>
<wgt id='morphing_basis_vector_5'> +4.0645402e-05 </wgt>
</rwgt>
</event>
<event>
 4      1 +1.9882500e-09 3.35367800e+03 7.81860800e-03 7.66881600e-02
        2 -1    0    0  501    0 +0.0000000000e+00 +0.0000000000e+00 +9.3947024673e+02 9.3947024673e+02 0.0000000000e+00 0.0000e+00 -1.0000e+00
       -2 -1    0    0    0  501 -0.0000000000e+00 -0.0000000000e+00 -2.9929512349e+03 2.9929512349e+03 0.0000000000e+00 0.0000e+00 1.0000e+00
      -13  1    1    2    0    0 +5.4206756319e+02 -1.5856789413e+03 -1.0968371019e+03 2.0028146634e+03 0.0000000000e+00 0.0000e+00 1.0000e+00
       13  1    1    2    0    0 -5.4206756319e+02 +1.5856789413e+03 -9.5664388620e+02 1.9296068182e+03 0.0000000000e+00 0.0000e+00 -1.0000e+00
<mgrwt>
<rscale>  0 0.33536778E+04</rscale>
<asrwt>0</asrwt>
<pdfrwt beam="1">  1        2 0.14453388E+00 0.33536778E+04</pdfrwt>
<pdfrwt beam="2">  1       -2 0.46045404E+00 0.33536778E+04</pdfrwt>
<totfact> 0.58545382E-02</totfact>
</mgrwt>
<rwgt>
<wgt id='morphing_basis_vector_1'> +3.5436689e-05 </wgt>
<wgt id='morphing_basis_vector_2'> +2.6459239e-05 </wgt>
<wgt id='morphing_basis_vector_3'> +3.9286276e-05 </wgt>
<wgt id='morphing_basis_vector_4'> +2.4590437e-05 </wgt>
<wgt id='morphing_basis_vector_5'> +4.2711543e-05 </wgt>
</rwgt>
</event>
<event>
 4      1 +1.9882500e-09 3.27546800e+03 7.81860800e-03 7.68631200e-02
        2 -1    0    0  501    0 +0.0000000000e+00 +0.0000000000e+00 +1.8370670022e+03 1.8370670022e+03 0.0000000000e+00 0.0000e+00 1.0000e+00
       -2 -1    0    0    0  501 -0.0000000000e+00 -0.0000000000e+00 -1.4600297326e+03 1.4600297326e+03 0.0000000000e+00 0.0000e+00 -1.0000e+00
      -13  1    1    2    0    0 +1.1977527055e+03 -3.3316818072e+02 -8.8461672011e+02 1.5258306989e+03 0.0000000000e+00 0.0000e+00 -1.0000e+00
       13  1    1    2    0    0 -1.1977527055e+03 +3.3316818072e+02 +1.2616539897e+03 1.7712660359e+03 0.0000000000e+00 0.0000e+00 1.0000e+00
<mgrwt>
<rscale>  0 0.32754679E+04</rscale>
<asrwt>0</asrwt>
<pdfrwt beam="1">  1        2 0.28262569E+00 0.32754679E+04</pdfrwt>
<pdfrwt beam="2">  1       -2 0.22461996E+00 0.32754679E+04</pdfrwt>
<totfact> 0.68411972E-01</totfact>
</mgrwt>
<rwgt>
<wgt id='morphing_basis_vector_1'> +3.1314956e-05 </wgt>
<wgt id='morphing_basis_vector_2'> +2.1280960e-05 </wgt>
<wgt id='morphing_basis_vector_3'> +3.4242316e-05 </wgt>
<wgt id='morphing_basis_vector_4'> +2.4355753e-05 </wgt>
<wgt id='morphing_basis_vector_5'> +3.9002947e-05 </wgt>
</rwgt>
</event>
<event>
 4      1 +1.9882500e-09 3.79137100e+03 7.81860800e-03 7.57919100e-02
        2 -1    0    0  501    0 +0.0000000000e+00 +0.0000000000e+00 +2.6938691811e+03 2.6938691811e+03 0.0000000000e+00 0.0000e+00 1.0000e+00
       -2 -1    0    0    0  501 -0.0000000000e+00 -0.0000000000e+00 -1.3340005796e+03 1.3340005796e+03 0.0000000000e+00 0.0000e+00 -1.0000e+00
      -13  1    1    2    0    0 -6.5313903866e+02 -1.3608418866e+03 +1.8982657506e+03 2.4252616569e+03 0.0000000000e+00 0.0000e+00 1.0000e+00
       13  1    1    2    0    0 +6.5313903866e+02 +1.3608418866e+03 -5.3839714907e+02 1.6026081038e+03 0.0000000000e+00 0.0000e+00 -1.0000e+00
<mgrwt>
<rscale>  0 0.37913708E+04</rscale>
<asrwt>0</asrwt>
<pdfrwt beam="1">  1        2 0.41444141E+00 0.37913708E+04</pdfrwt>
<pdfrwt beam="2">  1       -2 0.20523086E+00 0.37913708E+04</pdfrwt>
<totfact> 0.28669707E-01</totfact>
</mgrwt>
<rwgt>
<wgt id='morphing_basis_vector_1'> +6.9265014e-05 </wgt>
<wgt id='morphing_basis_vector_2'> +7.7153824e-05 </wgt>
<wgt id='morphing_basis_vector_3'> +8.2665952e-05 </wgt>
<wgt id='morphing_basis_vector_4'> +1.5880854e-05 </wgt>
<wgt id='morphing_basis_vector_5'> +6.7950112e-05 </wgt>
</rwgt>
</event>
<event>
 4      1 +1.9882500e-09 3.21429900e+03 7.81860800e-03 7.70035000e-02
        2 -1    0    0  501    0 +0.0000000000e+00 +0.0000000000e+00 +1.8708723438e+03 1.8708723438e+03 0.0000000000e+00 0.0000e+00 1.0000e+00
       -2 -1    0    0    0  501 -0.0000000000e+00 -0.0000000000e+00 -1.3806012890e+03 1.3806012890e+03 0.0000000000e+00 0.0000e+00 -1.0000e+00
      -13  1    1    2    0    0 -6.9100351077e+02 -4.9026269575e+02 -1.1363406113e+03 1.4174319552e+03 0.0000000000e+00 0.0000e+00 -1.0000e+00
       13  1    1    2    0    0 +6.9100351077e+02 +4.9026269575e+02 +1.6266116662e+03 1.8340416776e+03 0.0000000000e+00 0.0000e+00 1.0000e+00
<mgrwt>
<rscale>  0 0.32142985E+04</rscale>
<asrwt>0</asrwt>
<pdfrwt beam="1">  1        2 0.28782651E+00 0.32142985E+04</pdfrwt>
<pdfrwt beam="2">  1       -2 0.21240020E+00 0.32142985E+04</pdfrwt>
<totfact> 0.80414467E-01</totfact>
</mgrwt>
<rwgt>
<wgt id='morphing_basis_vector_1'> +2.9012643e-05 </wgt>
<wgt id='morphing_basis_vector_2'> +1.9608022e-05 </wgt>
<wgt id='morphing_basis_vector_3'> +3.1685738e-05 </wgt>
<wgt id='morphing_basis_vector_4'> +2.2667923e-05 </wgt>
<wgt id='morphing_basis_vector_5'> +3.6157152e-05 </wgt>
</rwgt>
</event>
<event>
 4      1 +1.9882500e-09 3.41484200e+03 7.81860800e-03 7.65547200e-02
        2 -1    0    0  501    0 +0.0000000000e+00 +0.0000000000e+00 +3.0791600813e+03 3.0791600813e+03 0.0000000000e+00 0.0000e+00 -1.0000e+00
       -2 -1    0    0    0  501 -0.0000000000e+00 -0.0000000000e+00 -9.4677992045e+02 9.4677992045e+02 0.0000000000e+00 0.0000e+00 1.0000e+00
      -13  1    1    2    0    0 +1.3901414462e+03 -9.9094764198e+02 +1.0325027927e+03 1.9951271856e+03 0.0000000000e+00 0.0000e+00 1.0000e+00
       13  1    1    2    0    0 -1.3901414462e+03 +9.9094764198e+02 +1.0998773682e+03 2.0308128162e+03 0.0000000000e+00 0.0000e+00 -1.0000e+00
<mgrwt>
<rscale>  0 0.34148423E+04</rscale>
<asrwt>0</asrwt>
<pdfrwt beam="1">  1        2 0.47371693E+00 0.34148423E+04</pdfrwt>
<pdfrwt beam="2">  1       -2 0.14565845E+00 0.34148423E+04</pdfrwt>
<totfact> 0.48445568E-01</totfact>
</mgrwt>
<rwgt>
<wgt id='morphing_basis_vector_1'> +3.8158842e-05 </wgt>
<wgt id='morphing_basis_vector_2'> +2.8685817e-05 </wgt>
<wgt id='morphing_basis_vector_3'> +4.2367115e-05 </wgt>
<wgt id='morphing_basis_vector_4'> +2.6268372e-05 </wgt>
<wgt id='morphing_basis_vector_5'> +4.5921835e-05 </wgt>
</rwgt>
</event>
<event>
 4      1 +1.9882500e-09 3.71038000e+03 7.81860800e-03 7.59481000e-02
        2 -1    0    0  501    0 +0.0000000000e+00 +0.0000000000e+00 +1.1930776864e+03 1.1930776864e+03 0.0000000000e+00 0.0000e+00 -1.0000e+00
       -2 -1    0    0    0  501 -0.0000000000e+00 -0.0000000000e+00 -2.8847497731e+03 2.8847497731e+03 0.0000000000e+00 0.0000e+00 1.0000e+00
      -13  1    1    2    0    0 -6.3125453507e+02 -3.2452876652e+02 -2.7296199860e+03 2.8203947377e+03 0.0000000000e+00 0.0000e+00 1.0000e+00
       13  1    1    2    0    0 +6.3125453507e+02 +3.2452876652e+02 +1.0379478992e+03 1.2574327218e+03 0.0000000000e+00 0.0000e+00 -1.0000e+00
<mgrwt>
<rscale>  0 0.37103803E+04</rscale>
<asrwt>0</asrwt>
<pdfrwt beam="1">  1        2 0.18355041E+00 0.37103803E+04</pdfrwt>
<pdfrwt beam="2">  1       -2 0.44380765E+00 0.37103803E+04</pdfrwt>
<totfact> 0.52114069E-02</totfact>
</mgrwt>
<rwgt>
<wgt id='morphing_basis_vector_1'> +5.1299089e-05 </wgt>
<wgt id='morphing_basis_vector_2'> +3.4728762e-05 </wgt>
<wgt id='morphing_basis_vector_3'> +5.6226707e-05 </wgt>
<wgt id='morphing_basis_vector_4'> +4.0420964e-05 </wgt>
<wgt id='morphing_basis_vector_5'> +6.4447284e-05 </wgt>
</rwgt>
</event>
<event>
 4      1 +1.9882500e-09 3.27118400e+03 7.81860800e-03 7.68728400e-02
        2 -1    0    0  501    0 +0.0000000000e+00 +0.0000000000e+00 +2.5516819274e+03 2.5516819274e+03 0.0000000000e+00 0.0000e+00 1.0000e+00
       -2 -1    0    0    0  501 -0.0000000000e+00 -0.0000000000e+00 -1.0483911889e+03 1.0483911889e+03 0.0000000000e+00 0.0000e+00 -1.0000e+00
      -13  1    1    2    0    0 +6.5524499411e+02 -1.0627549344e+03 -4.1116750409e+02 1.3144781357e+03 0.0000000000e+00 0.0000e+00 -1.0000e+00
       13  1    1    2    0    0 -6.5524499411e+02 +1.0627549344e+03 +1.9144582426e+03 2.2855949806e+03 0.0000000000e+00 0.0000e+00 1.0000e+00
<mgrwt>
<rscale>  0 0.32711838E+04</rscale>
<asrwt>0</asrwt>
<pdfrwt beam="1">  1        2 0.39256645E+00 0.32711838E+04</pdfrwt>
<pdfrwt beam="2">  1       -2 0.16129095E+00 0.32711838E+04</pdfrwt>
<totfact> 0.78522343E-01</totfact>
</mgrwt>
<rwgt>
<wgt id='morphing_basis_vector_1'> +3.1154648e-05 </wgt>
<wgt id='morphing_basis_vector_2'> +2.1175944e-05 </wgt>
<wgt id='morphing_basis_vector_3'> +3.4066701e-05 </wgt>
<wgt id='morphing_basis_vector_4'> +2.4223566e-05 </wgt>
<wgt id='morphing_basis_vector_5'> +3.8797447e-05 </wgt>
</rwgt>
</event>
<event>
 4      1 +1.9882500e-09 3.24981800e+03 7.81860800e-03 7.69215900e-02
        2 -1    0    0  501    0 +0.0000000000e+00 +0.0000000000e+00 +2.9678612265e+03 2.9678612265e+03 0.0000000000e+00 0.0000e+00 1.0000e+00
       -2 -1    0    0    0  501 -0.0000000000e+00 -0.0000000000e+00 -8.8964043162e+02 8.8964043162e+02 0.0000000000e+00 0.0000e+00 -1.0000e+00
      -13  1    1    2    0    0 -3.8723987254e+02 +1.1487788473e+03 -2.4518966891e+02 1.2368369062e+03 0.0000000000e+00 0.0000e+00 -1.0000e+00
       13  1    1    2    0    0 +3.8723987254e+02 -1.1487788473e+03 +2.3234104638e+03 2.6206647520e+03 0.0000000000e+00 0.0000e+00 1.0000e+00
<mgrwt>
<rscale>  0 0.32498181E+04</rscale>
<asrwt>0</asrwt>
<pdfrwt beam="1">  1        2 0.45659403E+00 0.32498181E+04</pdfrwt>
<pdfrwt beam="2">  1       -2 0.13686776E+00 0.32498181E+04</pdfrwt>
<totfact> 0.69057790E-01</totfact>
</mgrwt>
<rwgt>
<wgt id='morphing_basis_vector_1'> +3.0347385e-05 </wgt>
<wgt id='morphing_basis_vector_2'> +2.0608073e-05 </wgt>
<wgt id='morphing_basis_vector_3'> +3.3174150e-05 </wgt>
<wgt id='morphing_basis_vector_4'> +2.3607805e-05 </wgt>
<wgt id='morphing_basis_vector_5'> +3.7787572e-05 </wgt>
</rwgt>
</event>
<event>
 4      1 +1.9882500e-09 3.67207900e+03 7.81860800e-03 7.60233900e-02
        2 -1    0    0  501    0 +0.0000000000e+00 +0.0000000000e+00 +2.2808581351e+03 2.2808581351e+03 0.0000000000e+00 0.0000e+00 -1.0000e+00
       -2 -1    0    0    0  501 -0.0000000000e+00 -0.0000000000e+00 -1.4779703892e+03 1.4779703892e+03 0.0000000000e+00 0.0000e+00 1.0000e+00
      -13  1    1    2    0    0 +1.4075656613e+03 +1.1140209065e+03 +6.6418330713e+00 1.7950843392e+03 0.0000000000e+00 0.0000e+00 1.0000e+00
       13  1    1    2    0    0 -1.4075656613e+03 -1.1140209065e+03 +7.9624591281e+02 1.9637441851e+03 0.0000000000e+00 0.0000e+00 -1.0000e+00
<mgrwt>
<rscale>  0 0.36720789E+04</rscale>
<asrwt>0</asrwt>
<pdfrwt beam="1">  1        2 0.35090125E+00 0.36720789E+04</pdfrwt>
<pdfrwt beam="2">  1       -2 0.22738006E+00 0.36720789E+04</pdfrwt>
<totfact> 0.35485609E-01</totfact>
</mgrwt>
<rwgt>
<wgt id='morphing_basis_vector_1'> +5.0040397e-05 </wgt>
<wgt id='morphing_basis_vector_2'> +3.5715818e-05 </wgt>
<wgt id='morphing_basis_vector_3'> +5.5241050e-05 </wgt>
<wgt id='morphing_basis_vector_4'> +3.7051798e-05 </wgt>
<wgt id='morphing_basis_vector_5'> +6.1669575e-05 </wgt>
</rwgt>
</event>
<event>
 4      1 +1.9882500e-09 3.30245300e+03 7.81860800e-03 7.68021900e-02
        2 -1    0    0  501    0 +0.0000000000e+00 +0.0000000000e+00 +1.3694511411e+03 1.3694511411e+03 0.0000000000e+00 0.0000e+00 -1.0000e+00
       -2 -1    0    0    0  501 -0.0000000000e+00 -0.0000000000e+00 -1.9909798488e+03 1.9909798488e+03 0.0000000000e+00 0.0000e+00 1.0000e+00
      -13  1    1    2    0    0 -1.1185488106e+03 -1.1445845042e+03 +1.0297505252e+02 1.6036922992e+03 0.0000000000e+00 0.0000e+00 1.0000e+00
       13  1    1    2    0    0 +1.1185488106e+03 +1.1445845042e+03 -7.2450376030e+02 1.7567386908e+03 0.0000000000e+00 0.0000e+00 -1.0000e+00
<mgrwt>
<rscale>  0 0.33024534E+04</rscale>
<asrwt>0</asrwt>
<pdfrwt beam="1">  1        2 0.21068479E+00 0.33024534E+04</pdfrwt>
<pdfrwt beam="2">  1       -2 0.30630459E+00 0.33024534E+04</pdfrwt>
<totfact> 0.34230750E-01</totfact>
</mgrwt>
<rwgt>
<wgt id='morphing_basis_vector_1'> +3.5061461e-05 </wgt>
<wgt id='morphing_basis_vector_2'> +2.9963099e-05 </wgt>
<wgt id='morphing_basis_vector_3'> +3.9667841e-05 </wgt>
<wgt id='morphing_basis_vector_4'> +1.9496690e-05 </wgt>
<wgt id='morphing_basis_vector_5'> +3.9844804e-05 </wgt>
</rwgt>
</event>
<event>
 4      1 +1.9882500e-09 3.82149600e+03 7.81860800e-03 7.57348200e-02
        2 -1    0    0  501    0 +0.0000000000e+00 +0.0000000000e+00 +2.1463156224e+03 2.1463156224e+03 0.0000000000e+00 0.0000e+00 -1.0000e+00
       -2 -1    0    0    0  501 -0.0000000000e+00 -0.0000000000e+00 -1.7010354013e+03 1.7010354013e+03 0.0000000000e+00 0.0000e+00 1.0000e+00
      -13  1    1    2    0    0 -1.5910042494e+03 -1.5335706205e+02 -8.3141310648e+02 1.8016827312e+03 0.0000000000e+00 0.0000e+00 1.0000e+00
       13  1    1    2    0    0 +1.5910042494e+03 +1.5335706205e+02 +1.2766933277e+03 2.0456682925e+03 0.0000000000e+00 0.0000e+00 -1.0000e+00
<mgrwt>
<rscale>  0 0.38214965E+04</rscale>
<asrwt>0</asrwt>
<pdfrwt beam="1">  1        2 0.33020241E+00 0.38214965E+04</pdfrwt>
<pdfrwt beam="2">  1       -2 0.26169775E+00 0.38214965E+04</pdfrwt>
<totfact> 0.24194851E-01</totfact>
</mgrwt>
<rwgt>
<wgt id='morphing_basis_vector_1'> +5.7881684e-05 </wgt>
<wgt id='morphing_basis_vector_2'> +3.9643106e-05 </wgt>
<wgt id='morphing_basis_vector_3'> +6.3580103e-05 </wgt>
<wgt id='morphing_basis_vector_4'> +4.5101964e-05 </wgt>
<wgt id='morphing_basis_vector_5'> +7.2534875e-05 </wgt>
</rwgt>
</event>
<event>
 4      1 +1.9882500e-09 3.36600800e+03 7.81860800e-03 7.66610200e-02
        2 -1    0    0  501    0 +0.0000000000e+00 +0.0000000000e+00 +2.7872881765e+03 2.7872881765e+03 0.0000000000e+00 0.0000e+00 1.0000e+00
       -2 -1    0    0    0  501 -0.0000000000e+00 -0.0000000000e+00 -1.0162218623e+03 1.0162218623e+03 0.0000000000e+00 0.0000e+00 -1.0000e+00
      -13  1    1    2    0    0 -1.3963344336e+02 +1.6667087438e+03 +6.7386940724e+02 1.8031959165e+03 0.0000000000e+00 0.0000e+00 -1.0000e+00
       13  1    1    2    0    0 +1.3963344336e+02 -1.6667087438e+03 +1.0971969070e+03 2.0003141223e+03 0.0000000000e+00 0.0000e+00 1.0000e+00
<mgrwt>
<rscale>  0 0.33660084E+04</rscale>
<asrwt>0</asrwt>
<pdfrwt beam="1">  1        2 0.42881356E+00 0.33660084E+04</pdfrwt>
<pdfrwt beam="2">  1       -2 0.15634183E+00 0.33660084E+04</pdfrwt>
<totfact> 0.61206879E-01</totfact>
</mgrwt>
<rwgt>
<wgt id='morphing_basis_vector_1'> +3.5681172e-05 </wgt>
<wgt id='morphing_basis_vector_2'> +2.6037741e-05 </wgt>
<wgt id='morphing_basis_vector_3'> +3.9430707e-05 </wgt>
<wgt id='morphing_basis_vector_4'> +2.5534988e-05 </wgt>
<wgt id='morphing_basis_vector_5'> +4.3395469e-05 </wgt>
</rwgt>
</event>
<event>
 4      1 +1.9882500e-09 3.33948400e+03 7.81860800e-03 7.67195400e-02
        2 -1    0    0  501    0 +0.0000000000e+00 +0.0000000000e+00 +1.6511283839e+03 1.6511283839e+03 0.0000000000e+00 0.0000e+00 1.0000e+00
       -2 -1    0    0    0  501 -0.0000000000e+00 -0.0000000000e+00 -1.6885650318e+03 1.6885650318e+03 0.0000000000e+00 0.0000e+00 -1.0000e+00
      -13  1    1    2    0    0 +1.0371910190e+03 +1.2126450724e+03 -5.1044462308e+02 1.6753587660e+03 0.0000000000e+00 0.0000e+00 -1.0000e+00
       13  1    1    2    0    0 -1.0371910190e+03 -1.2126450724e+03 +4.7300797516e+02 1.6643346497e+03 0.0000000000e+00 0.0000e+00 1.0000e+00
<mgrwt>
<rscale>  0 0.33394836E+04</rscale>
<asrwt>0</asrwt>
<pdfrwt beam="1">  1        2 0.25401975E+00 0.33394836E+04</pdfrwt>
<pdfrwt beam="2">  1       -2 0.25977923E+00 0.33394836E+04</pdfrwt>
<totfact> 0.49167170E-01</totfact>
</mgrwt>
<rwgt>
<wgt id='morphing_basis_vector_1'> +3.4151009e-05 </wgt>
<wgt id='morphing_basis_vector_2'> +2.3973980e-05 </wgt>
<wgt id='morphing_basis_vector_3'> +3.7527240e-05 </wgt>
<wgt id='morphing_basis_vector_4'> +2.5628716e-05 </wgt>
<wgt id='morphing_basis_vector_5'> +4.2108292e-05 </wgt>
</rwgt>
</event>
<event>
 4      1 +1.9882500e-09 3.67792700e+03 7.81860800e-03 7.60118300e-02
        2 -1    0    0  501    0 +0.0000000000e+00 +0.0000000000e+00 +3.6701388999e+03 3.6701388999e+03 0.0000000000e+00 0.0000e+00 -1.0000e+00
       -2 -1    0    0    0  501 -0.0000000000e+00 -0.0000000000e+00 -9.2143276934e+02 9.2143276934e+02 0.0000000000e+00 0.0000e+00 1.0000e+00
      -13  1    1    2    0    0 +2.5067803306e+02 +8.0119307589e+02 -6.6825684853e+02 1.0729944253e+03 0.0000000000e+00 0.0000e+00 1.0000e+00
       13  1    1    2    0    0 -2.5067803306e+02 -8.0119307589e+02 +3.4169629791e+03 3.5185772440e+03 0.0000000000e+00 0.0000e+00 -1.0000e+00
<mgrwt>
<rscale>  0 0.36779267E+04</rscale>
<asrwt>0</asrwt>
<pdfrwt beam="1">  1        2 0.56463675E+00 0.36779267E+04</pdfrwt>
<pdfrwt beam="2">  1       -2 0.14175889E+00 0.36779267E+04</pdfrwt>
<totfact> 0.19427152E-01</totfact>
</mgrwt>
<rwgt>
<wgt id='morphing_basis_vector_1'> +4.9541880e-05 </wgt>
<wgt id='morphing_basis_vector_2'> +3.3543317e-05 </wgt>
<wgt id='morphing_basis_vector_3'> +5.4291906e-05 </wgt>
<wgt id='morphing_basis_vector_4'> +3.9009573e-05 </wgt>
<wgt id='morphing_basis_vector_5'> +6.2208500e-05 </wgt>
</rwgt>
</event>
<event>
 4      1 +1.9882500e-09 3.48084500e+03 7.81860800e-03 7.64139200e-02
        2 -1    0    0  501    0 +0.0000000000e+00 +0.0000000000e+00 +9.9662150468e+02 9.9662150468e+02 0.0000000000e+00 0.0000e+00 -1.0000e+00
       -2 -1    0    0    0  501 -0.0000000000e+00 -0.0000000000e+00 -3.0393385106e+03 3.0393385106e+03 0.0000000000e+00 0.0000e+00 1.0000e+00
      -13  1    1    2    0    0 +1.5001786460e+03 -8.7287496876e+02 -8.7186489293e+02 1.9423169341e+03 0.0000000000e+00 0.0000e+00 1.0000e+00
       13  1    1    2    0    0 -1.5001786460e+03 +8.7287496876e+02 -1.1708521130e+03 2.0936430812e+03 0.0000000000e+00 0.0000e+00 -1.0000e+00
<mgrwt>
<rscale>  0 0.34808448E+04</rscale>
<asrwt>0</asrwt>
<pdfrwt beam="1">  1        2 0.15332639E+00 0.34808448E+04</pdfrwt>
<pdfrwt beam="2">  1       -2 0.46759053E+00 0.34808448E+04</pdfrwt>
<totfact> 0.47364913E-02</totfact>
</mgrwt>
<rwgt>
<wgt id='morphing_basis_vector_1'> +4.1700350e-05 </wgt>
<wgt id='morphing_basis_vector_2'> +3.2509050e-05 </wgt>
<wgt id='morphing_basis_vector_3'> +4.6575724e-05 </wgt>
<wgt id='morphing_basis_vector_4'> +2.7266706e-05 </wgt>
<wgt id='morphing_basis_vector_5'> +4.9509978e-05 </wgt>
</rwgt>
</event>
<event>
 4      1 +1.9882500e-09 3.27527200e+03 7.81860800e-03 7.68635600e-02
        2 -1    0    0  501    0 +0.0000000000e+00 +0.0000000000e+00 +1.4335259537e+03 1.4335259537e+03 0.0000000000e+00 0.0000e+00 -1.0000e+00
       -2 -1    0    0    0  501 -0.0000000000e+00 -0.0000000000e+00 -1.8708073620e+03 1.8708073620e+03 0.0000000000e+00 0.0000e+00 1.0000e+00
      -13  1    1    2    0    0 +1.0267390450e+03 +1.2197479803e+03 +1.5867338823e+02 1.6022345166e+03 0.0000000000e+00 0.0000e+00 -1.0000e+00
       13  1    1    2    0    0 -1.0267390450e+03 -1.2197479803e+03 -5.9595479659e+02 1.7020987990e+03 0.0000000000e+00 0.0000e+00 1.0000e+00
<mgrwt>
<rscale>  0 0.32752715E+04</rscale>
<asrwt>0</asrwt>
<pdfrwt beam="1">  1        2 0.22054246E+00 0.32752715E+04</pdfrwt>
<pdfrwt beam="2">  1       -2 0.28781652E+00 0.32752715E+04</pdfrwt>
<totfact> 0.42077177E-01</totfact>
</mgrwt>
<rwgt>
<wgt id='morphing_basis_vector_1'> +3.3776878e-05 </wgt>
<wgt id='morphing_basis_vector_2'> +2.8543295e-05 </wgt>
<wgt id='morphing_basis_vector_3'> +3.8134725e-05 </wgt>
<wgt id='morphing_basis_vector_4'> +1.9178469e-05 </wgt>
<wgt id='morphing_basis_vector_5'> +3.8566362e-05 </wgt>
</rwgt>
</event>
<event>
 4      1 +1.9882500e-09 3.32215900e+03 7.81860800e-03 7.67580700e-02
        2 -1    0    0  501    0 +0.0000000000e+00 +0.0000000000e+00 +4.2686909601e+03 4.2686909601e+03 0.0000000000e+00 0.0000e+00 1.0000e+00
       -2 -1    0    0    0  501 -0.0000000000e+00 -0.0000000000e+00 -6.4637751059e+02 6.4637751059e+02 0.0000000000e+00 0.0000e+00 -1.0000e+00
      -13  1    1    2    0    0 -1.4509129404e+03 -7.9918771111e+02 +1.6279371299e+03 2.3225048239e+03 0.0000000000e+00 0.0000e+00 -1.0000e+00
       13  1    1    2    0    0 +1.4509129404e+03 +7.9918771111e+02 +1.9943763197e+03 2.5925636468e+03 0.0000000000e+00 0.0000e+00 1.0000e+00
<mgrwt>
<rscale>  0 0.33221594E+04</rscale>
<asrwt>0</asrwt>
<pdfrwt beam="1">  1        2 0.65672167E+00 0.33221594E+04</pdfrwt>
<pdfrwt beam="2">  1       -2 0.99442697E-01 0.33221594E+04</pdfrwt>
<totfact> 0.15641862E-01</totfact>
</mgrwt>
<rwgt>
<wgt id='morphing_basis_vector_1'> +3.3989942e-05 </wgt>
<wgt id='morphing_basis_vector_2'> +2.5062073e-05 </wgt>
<wgt id='morphing_basis_vector_3'> +3.7604074e-05 </wgt>
<wgt id='morphing_basis_vector_4'> +2.3971910e-05 </wgt>
<wgt id='morphing_basis_vector_5'> +4.1142120e-05 </wgt>
</rwgt>
</event>
<event>
 4      1 +1.9882500e-09 3.23410900e+03 7.81860800e-03 7.69576800e-02
        2 -1    0    0  501    0 +0.0000000000e+00 +0.0000000000e+00 +1.2743998225e+03 1.2743998225e+03 0.0000000000e+00 0.0000e+00 -1.0000e+00
       -2 -1    0    0    0  501 -0.0000000000e+00 -0.0000000000e+00 -2.0518401938e+03 2.0518401938e+03 0.0000000000e+00 0.0000e+00 1.0000e+00
      -13  1    1    2    0    0 -1.2774666678e+02 +7.5462086291e+02 -1.8537617246e+03 2.0055434149e+03 0.0000000000e+00 0.0000e+00 1.0000e+00
       13  1    1    2    0    0 +1.2774666678e+02 -7.5462086291e+02 +1.0763213532e+03 1.3206966014e+03 0.0000000000e+00 0.0000e+00 -1.0000e+00
<mgrwt>
<rscale>  0 0.32341087E+04</rscale>
<asrwt>0</asrwt>
<pdfrwt beam="1">  1        2 0.19606151E+00 0.32341087E+04</pdfrwt>
<pdfrwt beam="2">  1       -2 0.31566772E+00 0.32341087E+04</pdfrwt>
<totfact> 0.33763596E-01</totfact>
</mgrwt>
<rwgt>
<wgt id='morphing_basis_vector_1'> +2.9725636e-05 </wgt>
<wgt id='morphing_basis_vector_2'> +2.0085116e-05 </wgt>
<wgt id='morphing_basis_vector_3'> +3.2468734e-05 </wgt>
<wgt id='morphing_basis_vector_4'> +2.3242753e-05 </wgt>
<wgt id='morphing_basis_vector_5'> +3.7064312e-05 </wgt>
</rwgt>
</event>
<event>
 4      1 +1.9882500e-09 3.58724000e+03 7.81860800e-03 7.61935600e-02
        2 -1    0    0  501    0 +0.0000000000e+00 +0.0000000000e+00 +1.0294999363e+03 1.0294999363e+03 0.0000000000e+00 0.0000e+00 -1.0000e+00
       -2 -1    0    0    0  501 -0.0000000000e+00 -0.0000000000e+00 -3.1248885977e+03 3.1248885977e+03 0.0000000000e+00 0.0000e+00 1.0000e+00
      -13  1    1    2    0    0 +5.8203100495e+01 -1.3359082701e+03 -2.4321146997e+03 2.7754676038e+03 0.0000000000e+00 0.0000e+00 1.0000e+00
       13  1    1    2    0    0 -5.8203100495e+01 +1.3359082701e+03 +3.3672603825e+02 1.3789209302e+03 0.0000000000e+00 0.0000e+00 -1.0000e+00
<mgrwt>
<rscale>  0 0.35872399E+04</rscale>
<asrwt>0</asrwt>
<pdfrwt beam="1">  1        2 0.15838460E+00 0.35872399E+04</pdfrwt>
<pdfrwt beam="2">  1       -2 0.48075209E+00 0.35872399E+04</pdfrwt>
<totfact> 0.35868139E-02</totfact>
</mgrwt>
<rwgt>
<wgt id='morphing_basis_vector_1'> +4.4928002e-05 </wgt>
<wgt id='morphing_basis_vector_2'> +3.0559223e-05 </wgt>
<wgt id='morphing_basis_vector_3'> +4.9240428e-05 </wgt>
<wgt id='morphing_basis_vector_4'> +3.5140859e-05 </wgt>
<wgt id='morphing_basis_vector_5'> +5.6250677e-05 </wgt>
</rwgt>
</event>
<event>
 4      1 +1.9882500e-09 3.33069500e+03 7.81860800e-03 7.67390600e-02
        2 -1    0    0  501    0 +0.0000000000e+00 +0.0000000000e+00 +2.0660111894e+03 2.0660111894e+03 0.0000000000e+00 0.0000e+00 1.0000e+00
       -2 -1    0    0    0  501 -0.0000000000e+00 -0.0000000000e+00 -1.3423845616e+03 1.3423845616e+03 0.0000000000e+00 0.0000e+00 -1.0000e+00
      -13  1    1    2    0    0 +2.5276153027e+02 +1.0809457025e+03 -9.0853702578e+02 1.4344934751e+03 0.0000000000e+00 0.0000e+00 -1.0000e+00
       13  1    1    2    0    0 -2.5276153027e+02 -1.0809457025e+03 +1.6321636536e+03 1.9739022759e+03 0.0000000000e+00 0.0000e+00 1.0000e+00
<mgrwt>
<rscale>  0 0.33306945E+04</rscale>
<asrwt>0</asrwt>
<pdfrwt beam="1">  1        2 0.31784788E+00 0.33306945E+04</pdfrwt>
<pdfrwt beam="2">  1       -2 0.20652070E+00 0.33306945E+04</pdfrwt>
<totfact> 0.68206959E-01</totfact>
</mgrwt>
<rwgt>
<wgt id='morphing_basis_vector_1'> +3.3432467e-05 </wgt>
<wgt id='morphing_basis_vector_2'> +2.2655046e-05 </wgt>
<wgt id='morphing_basis_vector_3'> +3.6559446e-05 </wgt>
<wgt id='morphing_basis_vector_4'> +2.6119193e-05 </wgt>
<wgt id='morphing_basis_vector_5'> +4.1726533e-05 </wgt>
</rwgt>
</event>
<event>
 4      1 +1.9882500e-09 3.39927200e+03 7.81860800e-03 7.65884200e-02
        2 -1    0    0  501    0 +0.0000000000e+00 +0.0000000000e+00 +1.8069280711e+03 1.8069280711e+03 0.0000000000e+00 0.0000e+00 1.0000e+00
       -2 -1    0    0    0  501 -0.0000000000e+00 -0.0000000000e+00 -1.5987144513e+03 1.5987144513e+03 0.0000000000e+00 0.0000e+00 -1.0000e+00
      -13  1    1    2    0    0 -1.2117704188e+03 +1.1505810905e+03 +4.1539417170e+02 1.7218526974e+03 0.0000000000e+00 0.0000e+00 -1.0000e+00
       13  1    1    2    0    0 +1.2117704188e+03 -1.1505810905e+03 -2.0718055184e+02 1.6837898250e+03 0.0000000000e+00 0.0000e+00 1.0000e+00
<mgrwt>
<rscale>  0 0.33992717E+04</rscale>
<asrwt>0</asrwt>
<pdfrwt beam="1">  1        2 0.27798893E+00 0.33992717E+04</pdfrwt>
<pdfrwt beam="2">  1       -2 0.24595607E+00 0.33992717E+04</pdfrwt>
<totfact> 0.49917651E-01</totfact>
</mgrwt>
<rwgt>
<wgt id='morphing_basis_vector_1'> +3.8735139e-05 </wgt>
<wgt id='morphing_basis_vector_2'> +3.1883170e-05 </wgt>
<wgt id='morphing_basis_vector_3'> +4.3600829e-05 </wgt>
<wgt id='morphing_basis_vector_4'> +2.3139312e-05 </wgt>
<wgt id='morphing_basis_vector_5'> +4.4865077e-05 </wgt>
</rwgt>
</event>
<event>
 4      1 +1.9882500e-09 3.46203400e+03 7.81860800e-03 7.64537200e-02
        2 -1    0    0  501    0 +0.0000000000e+00 +0.0000000000e+00 +2.0124368595e+03 2.0124368595e+03 0.0000000000e+00 0.0000e+00 -1.0000e+00
       -2 -1    0    0    0  501 -0.0000000000e+00 -0.0000000000e+00 -1.4889513493e+03 1.4889513493e+03 0.0000000000e+00 0.0000e+00 1.0000e+00
      -13  1    1    2    0    0 -4.7206370457e+02 +1.5802807851e+03 -2.6986430624e+02 1.6712146017e+03 0.0000000000e+00 0.0000e+00 1.0000e+00
       13  1    1    2    0    0 +4.7206370457e+02 -1.5802807851e+03 +7.9334981646e+02 1.8301736071e+03 0.0000000000e+00 0.0000e+00 -1.0000e+00
<mgrwt>
<rscale>  0 0.34620344E+04</rscale>
<asrwt>0</asrwt>
<pdfrwt beam="1">  1        2 0.30960567E+00 0.34620344E+04</pdfrwt>
<pdfrwt beam="2">  1       -2 0.22906944E+00 0.34620344E+04</pdfrwt>
<totfact> 0.49975920E-01</totfact>
</mgrwt>
<rwgt>
<wgt id='morphing_basis_vector_1'> +3.9389123e-05 </wgt>
<wgt id='morphing_basis_vector_2'> +2.7627909e-05 </wgt>
<wgt id='morphing_basis_vector_3'> +4.3317389e-05 </wgt>
<wgt id='morphing_basis_vector_4'> +2.9668201e-05 </wgt>
<wgt id='morphing_basis_vector_5'> +4.8689213e-05 </wgt>
</rwgt>
</event>
<event>
 4      1 +1.9882500e-09 3.29233700e+03 7.81860800e-03 7.68249600e-02
        2 -1    0    0  501    0 +0.0000000000e+00 +0.0000000000e+00 +2.2014201525e+03 2.2014201525e+03 0.0000000000e+00 0.0000e+00 1.0000e+00
       -2 -1    0    0    0  501 -0.0000000000e+00 -0.0000000000e+00 -1.2309648304e+03 1.2309648304e+03 0.0000000000e+00 0.0000e+00 -1.0000e+00
      -13  1    1    2    0    0 -1.3850395208e+03 +8.6717742497e+02 +6.9253180103e+02 1.7748046247e+03 0.0000000000e+00 0.0000e+00 -1.0000e+00
       13  1    1    2    0    0 +1.3850395208e+03 -8.6717742497e+02 +2.7792352103e+02 1.6575803582e+03 0.0000000000e+00 0.0000e+00 1.0000e+00
<mgrwt>
<rscale>  0 0.32923370E+04</rscale>
<asrwt>0</asrwt>
<pdfrwt beam="1">  1        2 0.33868002E+00 0.32923370E+04</pdfrwt>
<pdfrwt beam="2">  1       -2 0.18937921E+00 0.32923370E+04</pdfrwt>
<totfact> 0.76526172E-01</totfact>
</mgrwt>
<rwgt>
<wgt id='morphing_basis_vector_1'> +3.3696150e-05 </wgt>
<wgt id='morphing_basis_vector_2'> +2.6830477e-05 </wgt>
<wgt id='morphing_basis_vector_3'> +3.7696477e-05 </wgt>
<wgt id='morphing_basis_vector_4'> +2.1228218e-05 </wgt>
<wgt id='morphing_basis_vector_5'> +3.9518208e-05 </wgt>
</rwgt>
</event>
<event>
 4      1 +1.9882500e-09 3.31603500e+03 7.81860800e-03 7.67717500e-02
        2 -1    0    0  501    0 +0.0000000000e+00 +0.0000000000e+00 +2.3517181019e+03 2.3517181019e+03 0.0000000000e+00 0.0000e+00 1.0000e+00
       -2 -1    0    0    0  501 -0.0000000000e+00 -0.0000000000e+00 -1.1689418864e+03 1.1689418864e+03 0.0000000000e+00 0.0000e+00 -1.0000e+00
      -13  1    1    2    0    0 +7.5071588849e+02 +2.2159603920e+02 +2.1432049189e+03 2.2816674767e+03 0.0000000000e+00 0.0000e+00 1.0000e+00
       13  1    1    2    0    0 -7.5071588849e+02 -2.2159603920e+02 -9.6042870333e+02 1.2389925117e+03 0.0000000000e+00 0.0000e+00 -1.0000e+00
<mgrwt>
<rscale>  0 0.33160349E+04</rscale>
<asrwt>0</asrwt>
<pdfrwt beam="1">  1        2 0.36180278E+00 0.33160349E+04</pdfrwt>
<pdfrwt beam="2">  1       -2 0.17983721E+00 0.33160349E+04</pdfrwt>
<totfact> 0.73734930E-01</totfact>
</mgrwt>
<rwgt>
<wgt id='morphing_basis_vector_1'> +4.4569698e-05 </wgt>
<wgt id='morphing_basis_vector_2'> +5.6742192e-05 </wgt>
<wgt id='morphing_basis_vector_3'> +5.4451072e-05 </wgt>
<wgt id='morphing_basis_vector_4'> +1.1016959e-06 </wgt>
<wgt id='morphing_basis_vector_5'> +3.8961757e-05 </wgt>
</rwgt>
</event>
<event>
 4      1 +1.9882500e-09 3.27020900e+03 7.81860800e-03 7.68750600e-02
        2 -1    0    0  501    0 +0.0000000000e+00 +0.0000000000e+00 +1.7914987257e+03 1.7914987257e+03 0.0000000000e+00 0.0000e+00 -1.0000e+00
       -2 -1    0    0    0  501 -0.0000000000e+00 -0.0000000000e+00 -1.4923629784e+03 1.4923629784e+03 0.0000000000e+00 0.0000e+00 1.0000e+00
      -13  1    1    2    0    0 -3.9285872590e+02 +1.5841954816e+03 +5.1420000738e+01 1.6329902997e+03 0.0000000000e+00 0.0000e+00 1.0000e+00
       13  1    1    2    0    0 +3.9285872590e+02 -1.5841954816e+03 +2.4771574658e+02 1.6508714043e+03 0.0000000000e+00 0.0000e+00 -1.0000e+00
<mgrwt>
<rscale>  0 0.32702088E+04</rscale>
<asrwt>0</asrwt>
<pdfrwt beam="1">  1        2 0.27561519E+00 0.32702088E+04</pdfrwt>
<pdfrwt beam="2">  1       -2 0.22959430E+00 0.32702088E+04</pdfrwt>
<totfact> 0.66934419E-01</totfact>
</mgrwt>
<rwgt>
<wgt id='morphing_basis_vector_1'> +3.1977202e-05 </wgt>
<wgt id='morphing_basis_vector_2'> +2.3680042e-05 </wgt>
<wgt id='morphing_basis_vector_3'> +3.5383425e-05 </wgt>
<wgt id='morphing_basis_vector_4'> +2.2394894e-05 </wgt>
<wgt id='morphing_basis_vector_5'> +3.8602232e-05 </wgt>
</rwgt>
</event>
<event>
 4      1 +1.9882500e-09 3.38425500e+03 7.81860800e-03 7.66210900e-02
        2 -1    0    0  501    0 +0.0000000000e+00 +0.0000000000e+00 +3.6577454170e+03 3.6577454170e+03 0.0000000000e+00 0.0000e+00 -1.0000e+00
       -2 -1    0    0    0  501 -0.0000000000e+00 -0.0000000000e+00 -7.8280334971e+02 7.8280334971e+02 0.0000000000e+00 0.0000e+00 1.0000e+00
      -13  1    1    2    0    0 -1.5124232161e+03 +7.2119275236e+02 +1.1276539694e+03 2.0196896903e+03 0.0000000000e+00 0.0000e+00 1.0000e+00
       13  1    1    2    0    0 +1.5124232161e+03 -7.2119275236e+02 +1.7472880979e+03 2.4208590763e+03 0.0000000000e+00 0.0000e+00 -1.0000e+00
<mgrwt>
<rscale>  0 0.33842549E+04</rscale>
<asrwt>0</asrwt>
<pdfrwt beam="1">  1        2 0.56273005E+00 0.33842549E+04</pdfrwt>
<pdfrwt beam="2">  1       -2 0.12043129E+00 0.33842549E+04</pdfrwt>
<totfact> 0.31547875E-01</totfact>
</mgrwt>
<rwgt>
<wgt id='morphing_basis_vector_1'> +3.6367021e-05 </wgt>
<wgt id='morphing_basis_vector_2'> +2.6344597e-05 </wgt>
<wgt id='morphing_basis_vector_3'> +4.0152500e-05 </wgt>
<wgt id='morphing_basis_vector_4'> +2.6282683e-05 </wgt>
<wgt id='morphing_basis_vector_5'> +4.4366125e-05 </wgt>
</rwgt>
</event>
<event>
 4      1 +1.9882500e-09 3.67625400e+03 7.81860800e-03 7.60151300e-02
        2 -1    0    0  501    0 +0.0000000000e+00 +0.0000000000e+00 +3.3780612048e+03 3.3780612048e+03 0.0000000000e+00 0.0000e+00 -1.0000e+00
       -2 -1    0    0    0  501 -0.0000000000e+00 -0.0000000000e+00 -1.0001925060e+03 1.0001925060e+03 0.0000000000e+00 0.0000e+00 1.0000e+00
      -13  1    1    2    0    0 +1.1411700854e+03 +1.4409573156e+03 +1.1779961828e+03 2.1831862394e+03 0.0000000000e+00 0.0000e+00 1.0000e+00
       13  1    1    2    0    0 -1.1411700854e+03 -1.4409573156e+03 +1.1998725160e+03 2.1950674714e+03 0.0000000000e+00 0.0000e+00 -1.0000e+00
<mgrwt>
<rscale>  0 0.36762543E+04</rscale>
<asrwt>0</asrwt>
<pdfrwt beam="1">  1        2 0.51970172E+00 0.36762543E+04</pdfrwt>
<pdfrwt beam="2">  1       -2 0.15387577E+00 0.36762543E+04</pdfrwt>
<totfact> 0.25295307E-01</totfact>
</mgrwt>
<rwgt>
<wgt id='morphing_basis_vector_1'> +5.1231069e-05 </wgt>
<wgt id='morphing_basis_vector_2'> +3.8713176e-05 </wgt>
<wgt id='morphing_basis_vector_3'> +5.7030534e-05 </wgt>
<wgt id='morphing_basis_vector_4'> +3.5189966e-05 </wgt>
<wgt id='morphing_basis_vector_5'> +6.1783482e-05 </wgt>
</rwgt>
</event>
<event>
 4      1 +1.9882500e-09 3.38431400e+03 7.81860800e-03 7.66209600e-02
        2 -1    0    0  501    0 +0.0000000000e+00 +0.0000000000e+00 +1.7931911569e+03 1.7931911569e+03 0.0000000000e+00 0.0000e+00 1.0000e+00
       -2 -1    0    0    0  501 -0.0000000000e+00 -0.0000000000e+00 -1.5968154122e+03 1.5968154122e+03 0.0000000000e+00 0.0000e+00 -1.0000e+00
      -13  1    1    2    0    0 -1.5905982135e+03 +2.8723158878e+02 +5.9992021688e+02 1.7240675535e+03 0.0000000000e+00 0.0000e+00 -1.0000e+00
       13  1    1    2    0    0 +1.5905982135e+03 -2.8723158878e+02 -4.0354447223e+02 1.6659390155e+03 0.0000000000e+00 0.0000e+00 1.0000e+00
<mgrwt>
<rscale>  0 0.33843140E+04</rscale>
<asrwt>0</asrwt>
<pdfrwt beam="1">  1        2 0.27587556E+00 0.33843140E+04</pdfrwt>
<pdfrwt beam="2">  1       -2 0.24566391E+00 0.33843140E+04</pdfrwt>
<totfact> 0.51106274E-01</totfact>
</mgrwt>
<rwgt>
<wgt id='morphing_basis_vector_1'> +3.9174786e-05 </wgt>
<wgt id='morphing_basis_vector_2'> +3.4600375e-05 </wgt>
<wgt id='morphing_basis_vector_3'> +4.4599841e-05 </wgt>
<wgt id='morphing_basis_vector_4'> +2.0398444e-05 </wgt>
<wgt id='morphing_basis_vector_5'> +4.3882236e-05 </wgt>
</rwgt>
</event>
<event>
 4      1 +1.9882500e-09 3.58129100e+03 7.81860800e-03 7.62056700e-02
        2 -1    0    0  501    0 +0.0000000000e+00 +0.0000000000e+00 +3.2780709961e+03 3.2780709961e+03 0.0000000000e+00 0.0000e+00 -1.0000e+00
       -2 -1    0    0    0  501 -0.0000000000e+00 -0.0000000000e+00 -9.7813949112e+02 9.7813949112e+02 0.0000000000e+00 0.0000e+00 1.0000e+00
      -13  1    1    2    0    0 +1.3907954993e+03 +7.2219626564e+02 +1.2036729703e+02 1.5717403899e+03 0.0000000000e+00 0.0000e+00 1.0000e+00
       13  1    1    2    0    0 -1.3907954993e+03 -7.2219626564e+02 +2.1795642079e+03 2.6844700973e+03 0.0000000000e+00 0.0000e+00 -1.0000e+00
<mgrwt>
<rscale>  0 0.35812907E+04</rscale>
<asrwt>0</asrwt>
<pdfrwt beam="1">  1        2 0.50431861E+00 0.35812907E+04</pdfrwt>
<pdfrwt beam="2">  1       -2 0.15048300E+00 0.35812907E+04</pdfrwt>
<totfact> 0.31946602E-01</totfact>
</mgrwt>
<rwgt>
<wgt id='morphing_basis_vector_1'> +4.4777255e-05 </wgt>
<wgt id='morphing_basis_vector_2'> +3.0783024e-05 </wgt>
<wgt id='morphing_basis_vector_3'> +4.9145023e-05 </wgt>
<wgt id='morphing_basis_vector_4'> +3.4602448e-05 </wgt>
<wgt id='morphing_basis_vector_5'> +5.5850893e-05 </wgt>
</rwgt>
</event>
<event>
 4      1 +1.9882500e-09 3.25214400e+03 7.81860800e-03 7.69162700e-02
        2 -1    0    0  501    0 +0.0000000000e+00 +0.0000000000e+00 +3.4792480298e+03 3.4792480298e+03 0.0000000000e+00 0.0000e+00 1.0000e+00
       -2 -1    0    0    0  501 -0.0000000000e+00 -0.0000000000e+00 -7.5996576376e+02 7.5996576376e+02 0.0000000000e+00 0.0000e+00 -1.0000e+00
      -13  1    1    2    0    0 -6.7511774860e+02 +3.3064157706e+02 -5.1986186394e+02 9.1398259532e+02 0.0000000000e+00 0.0000e+00 -1.0000e+00
       13  1    1    2    0    0 +6.7511774860e+02 -3.3064157706e+02 +3.2391441300e+03 3.3252311983e+03 0.0000000000e+00 0.0000e+00 1.0000e+00
<mgrwt>
<rscale>  0 0.32521435E+04</rscale>
<asrwt>0</asrwt>
<pdfrwt beam="1">  1        2 0.53526892E+00 0.32521435E+04</pdfrwt>
<pdfrwt beam="2">  1       -2 0.11691781E+00 0.32521435E+04</pdfrwt>
<totfact> 0.46812965E-01</totfact>
</mgrwt>
<rwgt>
<wgt id='morphing_basis_vector_1'> +3.0388497e-05 </wgt>
<wgt id='morphing_basis_vector_2'> +2.0533992e-05 </wgt>
<wgt id='morphing_basis_vector_3'> +3.3197854e-05 </wgt>
<wgt id='morphing_basis_vector_4'> +2.3770504e-05 </wgt>
<wgt id='morphing_basis_vector_5'> +3.7904471e-05 </wgt>
</rwgt>
</event>
<event>
 4      1 +1.9882500e-09 3.62319900e+03 7.81860800e-03 7.61208500e-02
        2 -1    0    0  501    0 +0.0000000000e+00 +0.0000000000e+00 +1.9099397832e+03 1.9099397832e+03 0.0000000000e+00 0.0000e+00 1.0000e+00
       -2 -1    0    0    0  501 -0.0000000000e+00 -0.0000000000e+00 -1.7183222541e+03 1.7183222541e+03 0.0000000000e+00 0.0000e+00 -1.0000e+00
      -13  1    1    2    0    0 -1.3129359478e+03 +1.2306198729e+03 -1.1344727658e+02 1.8030796874e+03 0.0000000000e+00 0.0000e+00 1.0000e+00
       13  1    1    2    0    0 +1.3129359478e+03 -1.2306198729e+03 +3.0506480575e+02 1.8251823499e+03 0.0000000000e+00 0.0000e+00 -1.0000e+00
<mgrwt>
<rscale>  0 0.36231986E+04</rscale>
<asrwt>0</asrwt>
<pdfrwt beam="1">  1        2 0.29383689E+00 0.36231986E+04</pdfrwt>
<pdfrwt beam="2">  1       -2 0.26435727E+00 0.36231986E+04</pdfrwt>
<totfact> 0.32054827E-01</totfact>
</mgrwt>
<rwgt>
<wgt id='morphing_basis_vector_1'> +4.7789656e-05 </wgt>
<wgt id='morphing_basis_vector_2'> +3.4872325e-05 </wgt>
<wgt id='morphing_basis_vector_3'> +5.2908428e-05 </wgt>
<wgt id='morphing_basis_vector_4'> +3.4379932e-05 </wgt>
<wgt id='morphing_basis_vector_5'> +5.8371950e-05 </wgt>
</rwgt>
</event>
<event>
 4      1 +1.9882500e-09 3.52912100e+03 7.81860800e-03 7.63129400e-02
        2 -1    0    0  501    0 +0.0000000000e+00 +0.0000000000e+00 +1.3294267551e+03 1.3294267551e+03 0.0000000000e+00 0.0000e+00 -1.0000e+00
       -2 -1    0    0    0  501 -0.0000000000e+00 -0.0000000000e+00 -2.3421178991e+03 2.3421178991e+03 0.0000000000e+00 0.0000e+00 1.0000e+00
      -13  1    1    2    0    0 +7.0845181395e+02 -1.5871792482e+03 -1.8970733027e+02 1.7484366759e+03 0.0000000000e+00 0.0000e+00 1.0000e+00
       13  1    1    2    0    0 -7.0845181395e+02 +1.5871792482e+03 -8.2298381376e+02 1.9231079783e+03 0.0000000000e+00 0.0000e+00 -1.0000e+00
<mgrwt>
<rscale>  0 0.35291212E+04</rscale>
<asrwt>0</asrwt>
<pdfrwt beam="1">  1        2 0.20452719E+00 0.35291212E+04</pdfrwt>
<pdfrwt beam="2">  1       -2 0.36032583E+00 0.35291212E+04</pdfrwt>
<totfact> 0.15600092E-01</totfact>
</mgrwt>
<rwgt>
<wgt id='morphing_basis_vector_1'> +4.4856235e-05 </wgt>
<wgt id='morphing_basis_vector_2'> +3.6726431e-05 </wgt>
<wgt id='morphing_basis_vector_3'> +5.0503208e-05 </wgt>
<wgt id='morphing_basis_vector_4'> +2.7117456e-05 </wgt>
<wgt id='morphing_basis_vector_5'> +5.2191513e-05 </wgt>
</rwgt>
</event>
<event>
 4      1 +1.9882500e-09 3.54848200e+03 7.81860800e-03 7.62729100e-02
        2 -1    0    0  501    0 +0.0000000000e+00 +0.0000000000e+00 +1.8290620032e+03 1.8290620032e+03 0.0000000000e+00 0.0000e+00 -1.0000e+00
       -2 -1    0    0    0  501 -0.0000000000e+00 -0.0000000000e+00 -1.7210628305e+03 1.7210628305e+03 0.0000000000e+00 0.0000e+00 1.0000e+00
      -13  1    1    2    0    0 +2.2201935475e+02 +1.6665856408e+03 +6.2094561753e+02 1.7923096139e+03 0.0000000000e+00 0.0000e+00 1.0000e+00
       13  1    1    2    0    0 -2.2201935475e+02 -1.6665856408e+03 -5.1294644484e+02 1.7578152199e+03 0.0000000000e+00 0.0000e+00 -1.0000e+00
<mgrwt>
<rscale>  0 0.35484817E+04</rscale>
<asrwt>0</asrwt>
<pdfrwt beam="1">  1        2 0.28139415E+00 0.35484817E+04</pdfrwt>
<pdfrwt beam="2">  1       -2 0.26477890E+00 0.35484817E+04</pdfrwt>
<totfact> 0.35549465E-01</totfact>
</mgrwt>
<rwgt>
<wgt id='morphing_basis_vector_1'> +4.7620292e-05 </wgt>
<wgt id='morphing_basis_vector_2'> +4.2766152e-05 </wgt>
<wgt id='morphing_basis_vector_3'> +5.4450130e-05 </wgt>
<wgt id='morphing_basis_vector_4'> +2.3980530e-05 </wgt>
<wgt id='morphing_basis_vector_5'> +5.3043359e-05 </wgt>
</rwgt>
</event>
<event>
 4      1 +1.9882500e-09 3.26927800e+03 7.81860800e-03 7.68771800e-02
        2 -1    0    0  501    0 +0.0000000000e+00 +0.0000000000e+00 +2.3387268723e+03 2.3387268723e+03 0.0000000000e+00 0.0000e+00 1.0000e+00
       -2 -1    0    0    0  501 -0.0000000000e+00 -0.0000000000e+00 -1.1425210433e+03 1.1425210433e+03 0.0000000000e+00 0.0000e+00 -1.0000e+00
      -13  1    1    2    0    0 -1.0520067716e+03 +1.0817812710e+03 -7.1200837103e+01 1.5106417593e+03 0.0000000000e+00 0.0000e+00 -1.0000e+00
       13  1    1    2    0    0 +1.0520067716e+03 -1.0817812710e+03 +1.2674066661e+03 1.9706061563e+03 0.0000000000e+00 0.0000e+00 1.0000e+00
<mgrwt>
<rscale>  0 0.32692780E+04</rscale>
<asrwt>0</asrwt>
<pdfrwt beam="1">  1        2 0.35980413E+00 0.32692780E+04</pdfrwt>
<pdfrwt beam="2">  1       -2 0.17577247E+00 0.32692780E+04</pdfrwt>
<totfact> 0.80907338E-01</totfact>
</mgrwt>
<rwgt>
<wgt id='morphing_basis_vector_1'> +3.1269181e-05 </wgt>
<wgt id='morphing_basis_vector_2'> +2.1675727e-05 </wgt>
<wgt id='morphing_basis_vector_3'> +3.4281993e-05 </wgt>
<wgt id='morphing_basis_vector_4'> +2.3776190e-05 </wgt>
<wgt id='morphing_basis_vector_5'> +3.8674183e-05 </wgt>
</rwgt>
</event>
<event>
 4      1 +1.9882500e-09 3.48811800e+03 7.81860800e-03 7.63986000e-02
        2 -1    0    0  501    0 +0.0000000000e+00 +0.0000000000e+00 +3.3262014894e+03 3.3262014894e+03 0.0000000000e+00 0.0000e+00 -1.0000e+00
       -2 -1    0    0    0  501 -0.0000000000e+00 -0.0000000000e+00 -9.1447917848e+02 9.1447917848e+02 0.0000000000e+00 0.0000e+00 1.0000e+00
      -13  1    1    2    0    0 +1.4200215455e+03 +9.0208337446e+02 +6.4671328189e+02 1.8023467128e+03 0.0000000000e+00 0.0000e+00 1.0000e+00
       13  1    1    2    0    0 -1.4200215455e+03 -9.0208337446e+02 +1.7650090290e+03 2.4383339551e+03 0.0000000000e+00 0.0000e+00 -1.0000e+00
<mgrwt>
<rscale>  0 0.34881181E+04</rscale>
<asrwt>0</asrwt>
<pdfrwt beam="1">  1        2 0.51172330E+00 0.34881181E+04</pdfrwt>
<pdfrwt beam="2">  1       -2 0.14068911E+00 0.34881181E+04</pdfrwt>
<totfact> 0.36014426E-01</totfact>
</mgrwt>
<rwgt>
<wgt id='morphing_basis_vector_1'> +4.0664314e-05 </wgt>
<wgt id='morphing_basis_vector_2'> +2.8711334e-05 </wgt>
<wgt id='morphing_basis_vector_3'> +4.4769041e-05 </wgt>
<wgt id='morphing_basis_vector_4'> +3.0404106e-05 </wgt>
<wgt id='morphing_basis_vector_5'> +5.0168679e-05 </wgt>
</rwgt>
</event>
<event>
 4      1 +1.9882500e-09 3.35164900e+03 7.81860800e-03 7.66926400e-02
        2 -1    0    0  501    0 +0.0000000000e+00 +0.0000000000e+00 +8.6063233742e+02 8.6063233742e+02 0.0000000000e+00 0.0000e+00 -1.0000e+00
       -2 -1    0    0    0  501 -0.0000000000e+00 -0.0000000000e+00 -3.2631671989e+03 3.2631671989e+03 0.0000000000e+00 0.0000e+00 1.0000e+00
      -13  1    1    2    0    0 +1.1842626122e+02 +5.3262089795e+02 -3.1508180415e+03 3.1977123278e+03 0.0000000000e+00 0.0000e+00 1.0000e+00
       13  1    1    2    0    0 -1.1842626122e+02 -5.3262089795e+02 +7.4828318006e+02 9.2608720855e+02 0.0000000000e+00 0.0000e+00 -1.0000e+00
<mgrwt>
<rscale>  0 0.33516487E+04</rscale>
<asrwt>0</asrwt>
<pdfrwt beam="1">  1        2 0.13240498E+00 0.33516487E+04</pdfrwt>
<pdfrwt beam="2">  1       -2 0.50202572E+00 0.33516487E+04</pdfrwt>
<totfact> 0.32493866E-02</totfact>
</mgrwt>
<rwgt>
<wgt id='morphing_basis_vector_1'> +3.4246906e-05 </wgt>
<wgt id='morphing_basis_vector_2'> +2.3144821e-05 </wgt>
<wgt id='morphing_basis_vector_3'> +3.7442506e-05 </wgt>
<wgt id='morphing_basis_vector_4'> +2.6847259e-05 </wgt>
<wgt id='morphing_basis_vector_5'> +4.2799132e-05 </wgt>
</rwgt>
</event>
<event>
 4      1 +1.9882500e-09 3.21831900e+03 7.81860800e-03 7.69941700e-02
        2 -1    0    0  501    0 +0.0000000000e+00 +0.0000000000e+00 +3.4936058523e+03 3.4936058523e+03 0.0000000000e+00 0.0000e+00 -1.0000e+00
       -2 -1    0    0    0  501 -0.0000000000e+00 -0.0000000000e+00 -7.4118108999e+02 7.4118108999e+02 0.0000000000e+00 0.0000e+00 1.0000e+00
      -13  1    1    2    0    0 +1.0683911211e+03 -5.3698452988e+02 -4.0733620442e+01 1.1964410561e+03 0.0000000000e+00 0.0000e+00 1.0000e+00
       13  1    1    2    0    0 -1.0683911211e+03 +5.3698452988e+02 +2.7931583828e+03 3.0383458862e+03 0.0000000000e+00 0.0000e+00 -1.0000e+00
<mgrwt>
<rscale>  0 0.32183192E+04</rscale>
<asrwt>0</asrwt>
<pdfrwt beam="1">  1        2 0.53747781E+00 0.32183192E+04</pdfrwt>
<pdfrwt beam="2">  1       -2 0.11402786E+00 0.32183192E+04</pdfrwt>
<totfact> 0.48865475E-01</totfact>
</mgrwt>
<rwgt>
<wgt id='morphing_basis_vector_1'> +2.9195581e-05 </wgt>
<wgt id='morphing_basis_vector_2'> +1.9819780e-05 </wgt>
<wgt id='morphing_basis_vector_3'> +3.1905440e-05 </wgt>
<wgt id='morphing_basis_vector_4'> +2.2701544e-05 </wgt>
<wgt id='morphing_basis_vector_5'> +3.6333128e-05 </wgt>
</rwgt>
</event>
<event>
 4      1 +1.9882500e-09 3.38035400e+03 7.81860800e-03 7.66296100e-02
        2 -1    0    0  501    0 +0.0000000000e+00 +0.0000000000e+00 +1.7908832208e+03 1.7908832208e+03 0.0000000000e+00 0.0000e+00 -1.0000e+00
       -2 -1    0    0    0  501 -0.0000000000e+00 -0.0000000000e+00 -1.5951335822e+03 1.5951335822e+03 0.0000000000e+00 0.0000e+00 1.0000e+00
      -13  1    1    2    0    0 +1.9834083156e+02 -8.3771400832e+02 -1.3590700764e+03 1.6087806928e+03 0.0000000000e+00 0.0000e+00 1.0000e+00
       13  1    1    2    0    0 -1.9834083156e+02 +8.3771400832e+02 +1.5548197149e+03 1.7772361101e+03 0.0000000000e+00 0.0000e+00 -1.0000e+00
<mgrwt>
<rscale>  0 0.33803538E+04</rscale>
<asrwt>0</asrwt>
<pdfrwt beam="1">  1        2 0.27552050E+00 0.33803538E+04</pdfrwt>
<pdfrwt beam="2">  1       -2 0.24540517E+00 0.33803538E+04</pdfrwt>
<totfact> 0.51486929E-01</totfact>
</mgrwt>
<rwgt>
<wgt id='morphing_basis_vector_1'> +3.5433540e-05 </wgt>
<wgt id='morphing_basis_vector_2'> +2.3966134e-05 </wgt>
<wgt id='morphing_basis_vector_3'> +3.8752157e-05 </wgt>
<wgt id='morphing_basis_vector_4'> +2.7770723e-05 </wgt>
<wgt id='morphing_basis_vector_5'> +4.4293688e-05 </wgt>
</rwgt>
</event>
<event>
 4      1 +1.9882500e-09 3.32311200e+03 7.81860800e-03 7.67559400e-02
        2 -1    0    0  501    0 +0.0000000000e+00 +0.0000000000e+00 +2.0787890289e+03 2.0787890289e+03 0.0000000000e+00 0.0000e+00 1.0000e+00
       -2 -1    0    0    0  501 -0.0000000000e+00 -0.0000000000e+00 -1.3280660592e+03 1.3280660592e+03 0.0000000000e+00 0.0000e+00 -1.0000e+00
      -13  1    1    2    0    0 -1.6749997597e+01 +1.6565790838e+03 +2.4473663471e+02 1.6746434975e+03 0.0000000000e+00 0.0000e+00 -1.0000e+00
       13  1    1    2    0    0 +1.6749997597e+01 -1.6565790838e+03 +5.0598633506e+02 1.7322115906e+03 0.0000000000e+00 0.0000e+00 1.0000e+00
<mgrwt>
<rscale>  0 0.33231125E+04</rscale>
<asrwt>0</asrwt>
<pdfrwt beam="1">  1        2 0.31981370E+00 0.33231125E+04</pdfrwt>
<pdfrwt beam="2">  1       -2 0.20431786E+00 0.33231125E+04</pdfrwt>
<totfact> 0.69632087E-01</totfact>
</mgrwt>
<rwgt>
<wgt id='morphing_basis_vector_1'> +3.4021367e-05 </wgt>
<wgt id='morphing_basis_vector_2'> +2.5069241e-05 </wgt>
<wgt id='morphing_basis_vector_3'> +3.7635692e-05 </wgt>
<wgt id='morphing_basis_vector_4'> +2.4014936e-05 </wgt>
<wgt id='morphing_basis_vector_5'> +4.1190955e-05 </wgt>
</rwgt>
</event>
<event>
 4      1 +1.9882500e-09 3.74059500e+03 7.81860800e-03 7.58893500e-02
        2 -1    0    0  501    0 +0.0000000000e+00 +0.0000000000e+00 +1.6413615541e+03 1.6413615541e+03 0.0000000000e+00 0.0000e+00 -1.0000e+00
       -2 -1    0    0    0  501 -0.0000000000e+00 -0.0000000000e+00 -2.1311652485e+03 2.1311652485e+03 0.0000000000e+00 0.0000e+00 1.0000e+00
      -13  1    1    2    0    0 -8.7494238637e+02 -1.7840432113e+01 -1.9119399470e+03 2.1027022665e+03 0.0000000000e+00 0.0000e+00 1.0000e+00
       13  1    1    2    0    0 +8.7494238637e+02 +1.7840432113e+01 +1.4221362526e+03 1.6698245361e+03 0.0000000000e+00 0.0000e+00 -1.0000e+00
<mgrwt>
<rscale>  0 0.37405950E+04</rscale>
<asrwt>0</asrwt>
<pdfrwt beam="1">  1        2 0.25251716E+00 0.37405950E+04</pdfrwt>
<pdfrwt beam="2">  1       -2 0.32787158E+00 0.37405950E+04</pdfrwt>
<totfact> 0.16702836E-01</totfact>
</mgrwt>
<rwgt>
<wgt id='morphing_basis_vector_1'> +5.2985276e-05 </wgt>
<wgt id='morphing_basis_vector_2'> +3.5885398e-05 </wgt>
<wgt id='morphing_basis_vector_3'> +5.8087643e-05 </wgt>
<wgt id='morphing_basis_vector_4'> +4.1751119e-05 </wgt>
<wgt id='morphing_basis_vector_5'> +6.6583833e-05 </wgt>
</rwgt>
</event>
<event>
 4      1 +1.9882500e-09 3.48112300e+03 7.81860800e-03 7.64133300e-02
        2 -1    0    0  501    0 +0.0000000000e+00 +0.0000000000e+00 +3.4215313356e+03 3.4215313356e+03 0.0000000000e+00 0.0000e+00 -1.0000e+00
       -2 -1    0    0    0  501 -0.0000000000e+00 -0.0000000000e+00 -8.8543837563e+02 8.8543837563e+02 0.0000000000e+00 0.0000e+00 1.0000e+00
      -13  1    1    2    0    0 -8.3704351693e+02 -1.4459476649e+03 +1.8718233223e+03 2.5090095753e+03 0.0000000000e+00 0.0000e+00 1.0000e+00
       13  1    1    2    0    0 +8.3704351693e+02 +1.4459476649e+03 +6.6426963770e+02 1.7979601360e+03 0.0000000000e+00 0.0000e+00 -1.0000e+00
<mgrwt>
<rscale>  0 0.34811235E+04</rscale>
<asrwt>0</asrwt>
<pdfrwt beam="1">  1        2 0.52638943E+00 0.34811235E+04</pdfrwt>
<pdfrwt beam="2">  1       -2 0.13622129E+00 0.34811235E+04</pdfrwt>
<totfact> 0.33713889E-01</totfact>
</mgrwt>
<rwgt>
<wgt id='morphing_basis_vector_1'> +4.3623346e-05 </wgt>
<wgt id='morphing_basis_vector_2'> +3.8137391e-05 </wgt>
<wgt id='morphing_basis_vector_3'> +4.9623755e-05 </wgt>
<wgt id='morphing_basis_vector_4'> +2.3262180e-05 </wgt>
<wgt id='morphing_basis_vector_5'> +4.9193436e-05 </wgt>
</rwgt>
</event>
<event>
 4      1 +1.9882500e-09 3.37222500e+03 7.81860800e-03 7.66473900e-02
        2 -1    0    0  501    0 +0.0000000000e+00 +0.0000000000e+00 +2.7009476826e+03 2.7009476826e+03 0.0000000000e+00 0.0000e+00 -1.0000e+00
       -2 -1    0    0    0  501 -0.0000000000e+00 -0.0000000000e+00 -1.0525846781e+03 1.0525846781e+03 0.0000000000e+00 0.0000e+00 1.0000e+00
      -13  1    1    2    0    0 -7.7283326460e+02 +4.8386780193e+02 -7.5449038244e+02 1.1834927299e+03 0.0000000000e+00 0.0000e+00 1.0000e+00
       13  1    1    2    0    0 +7.7283326460e+02 -4.8386780193e+02 +2.4028533870e+03 2.5700396308e+03 0.0000000000e+00 0.0000e+00 -1.0000e+00
<mgrwt>
<rscale>  0 0.33722255E+04</rscale>
<asrwt>0</asrwt>
<pdfrwt beam="1">  1        2 0.41553041E+00 0.33722255E+04</pdfrwt>
<pdfrwt beam="2">  1       -2 0.16193611E+00 0.33722255E+04</pdfrwt>
<totfact> 0.62410098E-01</totfact>
</mgrwt>
<rwgt>
<wgt id='morphing_basis_vector_1'> +3.5098992e-05 </wgt>
<wgt id='morphing_basis_vector_2'> +2.3744786e-05 </wgt>
<wgt id='morphing_basis_vector_3'> +3.8385089e-05 </wgt>
<wgt id='morphing_basis_vector_4'> +2.7497299e-05 </wgt>
<wgt id='morphing_basis_vector_5'> +4.3865788e-05 </wgt>
</rwgt>
</event>
<event>
 4      1 +1.9882500e-09 3.74025400e+03 7.81860800e-03 7.58900200e-02
        2 -1    0    0  501    0 +0.0000000000e+00 +0.0000000000e+00 +2.6063432947e+03 2.6063432947e+03 0.0000000000e+00 0.0000e+00 1.0000e+00
       -2 -1    0    0    0  501 -0.0000000000e+00 -0.0000000000e+00 -1.3418703210e+03 1.3418703210e+03 0.0000000000e+00 0.0000e+00 -1.0000e+00
      -13  1    1    2    0    0 +1.0077223313e+03 -1.5731922642e+03 +5.4432001157e+02 1.9459502748e+03 0.0000000000e+00 0.0000e+00 -1.0000e+00
       13  1    1    2    0    0 -1.0077223313e+03 +1.5731922642e+03 +7.2015296215e+02 2.0022633408e+03 0.0000000000e+00 0.0000e+00 1.0000e+00
<mgrwt>
<rscale>  0 0.37402538E+04</rscale>
<asrwt>0</asrwt>
<pdfrwt beam="1">  1        2 0.40097589E+00 0.37402538E+04</pdfrwt>
<pdfrwt beam="2">  1       -2 0.20644159E+00 0.37402538E+04</pdfrwt>
<totfact> 0.31916984E-01</totfact>
</mgrwt>
<rwgt>
<wgt id='morphing_basis_vector_1'> +5.4614035e-05 </wgt>
<wgt id='morphing_basis_vector_2'> +4.0718115e-05 </wgt>
<wgt id='morphing_basis_vector_3'> +6.0698570e-05 </wgt>
<wgt id='morphing_basis_vector_4'> +3.8260148e-05 </wgt>
<wgt id='morphing_basis_vector_5'> +6.6270564e-05 </wgt>
</rwgt>
</event>
<event>
 4      1 +1.9882500e-09 3.51204500e+03 7.81860800e-03 7.63484700e-02
        2 -1    0    0  501    0 +0.0000000000e+00 +0.0000000000e+00 +2.1800523733e+03 2.1800523733e+03 0.0000000000e+00 0.0000e+00 -1.0000e+00
       -2 -1    0    0    0  501 -0.0000000000e+00 -0.0000000000e+00 -1.4144679567e+03 1.4144679567e+03 0.0000000000e+00 0.0000e+00 1.0000e+00
      -13  1    1    2    0    0 +1.2465573859e+03 -1.7044805570e+02 +1.6365728392e+03 2.0642985525e+03 0.0000000000e+00 0.0000e+00 -1.0000e+00
       13  1    1    2    0    0 -1.2465573859e+03 +1.7044805570e+02 -8.7098842256e+02 1.5302217775e+03 0.0000000000e+00 0.0000e+00 1.0000e+00
<mgrwt>
<rscale>  0 0.35120445E+04</rscale>
<asrwt>0</asrwt>
<pdfrwt beam="1">  1        2 0.33539267E+00 0.35120445E+04</pdfrwt>
<pdfrwt beam="2">  1       -2 0.21761045E+00 0.35120445E+04</pdfrwt>
<totfact> 0.48180154E-01</totfact>
</mgrwt>
<rwgt>
<wgt id='morphing_basis_vector_1'> +5.3100722e-05 </wgt>
<wgt id='morphing_basis_vector_2'> +6.2794158e-05 </wgt>
<wgt id='morphing_basis_vector_3'> +6.3996835e-05 </wgt>
<wgt id='morphing_basis_vector_4'> +7.4588595e-06 </wgt>
<wgt id='morphing_basis_vector_5'> +4.9596465e-05 </wgt>
</rwgt>
</event>
<event>
 4      1 +1.9882500e-09 3.22915100e+03 7.81860800e-03 7.69691200e-02
        2 -1    0    0  501    0 +0.0000000000e+00 +0.0000000000e+00 +1.2270524145e+03 1.2270524145e+03 0.0000000000e+00 0.0000e+00 -1.0000e+00
       -2 -1    0    0    0  501 -0.0000000000e+00 -0.0000000000e+00 -2.1244847234e+03 2.1244847234e+03 0.0000000000e+00 0.0000e+00 1.0000e+00
      -13  1    1    2    0    0 +7.1091402210e+02 +4.6894062792e+02 -1.8724000245e+03 2.0569846648e+03 0.0000000000e+00 0.0000e+00 1.0000e+00
       13  1    1    2    0    0 -7.1091402210e+02 -4.6894062792e+02 +9.7496771553e+02 1.2945524731e+03 0.0000000000e+00 0.0000e+00 -1.0000e+00
<mgrwt>
<rscale>  0 0.32291510E+04</rscale>
<asrwt>0</asrwt>
<pdfrwt beam="1">  1        2 0.18877730E+00 0.32291510E+04</pdfrwt>
<pdfrwt beam="2">  1       -2 0.32684380E+00 0.32291510E+04</pdfrwt>
<totfact> 0.30313571E-01</totfact>
</mgrwt>
<rwgt>
<wgt id='morphing_basis_vector_1'> +2.9548340e-05 </wgt>
<wgt id='morphing_basis_vector_2'> +1.9971855e-05 </wgt>
<wgt id='morphing_basis_vector_3'> +3.2275158e-05 </wgt>
<wgt id='morphing_basis_vector_4'> +2.3092948e-05 </wgt>
<wgt id='morphing_basis_vector_5'> +3.6835300e-05 </wgt>
</rwgt>
</event>
<event>
 4      1 +1.9882500e-09 3.69569000e+03 7.81860800e-03 7.59768600e-02
        2 -1    0    0  501    0 +0.0000000000e+00 +0.0000000000e+00 +2.6617405092e+03 2.6617405092e+03 0.0000000000e+00 0.0000e+00 1.0000e+00
       -2 -1    0    0    0  501 -0.0000000000e+00 -0.0000000000e+00 -1.2828192297e+03 1.2828192297e+03 0.0000000000e+00 0.0000e+00 -1.0000e+00
      -13  1    1    2    0    0 -6.4616334421e+02 +1.7299496575e+03 +7.5927991758e+02 1.9966869755e+03 0.0000000000e+00 0.0000e+00 -1.0000e+00
       13  1    1    2    0    0 +6.4616334421e+02 -1.7299496575e+03 +6.1964136197e+02 1.9478727634e+03 0.0000000000e+00 0.0000e+00 1.0000e+00
<mgrwt>
<rscale>  0 0.36956904E+04</rscale>
<asrwt>0</asrwt>
<pdfrwt beam="1">  1        2 0.40949854E+00 0.36956904E+04</pdfrwt>
<pdfrwt beam="2">  1       -2 0.19735680E+00 0.36956904E+04</pdfrwt>
<totfact> 0.34505732E-01</totfact>
</mgrwt>
<rwgt>
<wgt id='morphing_basis_vector_1'> +5.2600407e-05 </wgt>
<wgt id='morphing_basis_vector_2'> +4.0370813e-05 </wgt>
<wgt id='morphing_basis_vector_3'> +5.8699604e-05 </wgt>
<wgt id='morphing_basis_vector_4'> +3.5345853e-05 </wgt>
<wgt id='morphing_basis_vector_5'> +6.3058459e-05 </wgt>
</rwgt>
</event>
<event>
 4      1 +1.9882500e-09 3.34699700e+03 7.81860800e-03 7.67029100e-02
        2 -1    0    0  501    0 +0.0000000000e+00 +0.0000000000e+00 +3.2275289551e+03 3.2275289551e+03 0.0000000000e+00 0.0000e+00 -1.0000e+00
       -2 -1    0    0    0  501 -0.0000000000e+00 -0.0000000000e+00 -8.6772166949e+02 8.6772166949e+02 0.0000000000e+00 0.0000e+00 1.0000e+00
      -13  1    1    2    0    0 +3.9542880413e+02 +9.5846089585e+02 -4.2738341065e+02 1.1214578939e+03 0.0000000000e+00 0.0000e+00 1.0000e+00
       13  1    1    2    0    0 -3.9542880413e+02 -9.5846089585e+02 +2.7871906963e+03 2.9737927308e+03 0.0000000000e+00 0.0000e+00 -1.0000e+00
<mgrwt>
<rscale>  0 0.33469968E+04</rscale>
<asrwt>0</asrwt>
<pdfrwt beam="1">  1        2 0.49654291E+00 0.33469968E+04</pdfrwt>
<pdfrwt beam="2">  1       -2 0.13349564E+00 0.33469968E+04</pdfrwt>
<totfact> 0.49279201E-01</totfact>
</mgrwt>
<rwgt>
<wgt id='morphing_basis_vector_1'> +3.4077595e-05 </wgt>
<wgt id='morphing_basis_vector_2'> +2.3073006e-05 </wgt>
<wgt id='morphing_basis_vector_3'> +3.7265316e-05 </wgt>
<wgt id='morphing_basis_vector_4'> +2.6657557e-05 </wgt>
<wgt id='morphing_basis_vector_5'> +4.2557034e-05 </wgt>
</rwgt>
</event>
<event>
 4      1 +1.9882500e-09 3.82161900e+03 7.81860800e-03 7.57345900e-02
        2 -1    0    0  501    0 +0.0000000000e+00 +0.0000000000e+00 +4.2093287952e+03 4.2093287952e+03 0.0000000000e+00 0.0000e+00 -1.0000e+00
       -2 -1    0    0    0  501 -0.0000000000e+00 -0.0000000000e+00 -8.6740510606e+02 8.6740510606e+02 0.0000000000e+00 0.0000e+00 1.0000e+00
      -13  1    1    2    0    0 -4.7359791217e+01 -1.6931760807e+03 +4.9614665982e+02 1.7650069966e+03 0.0000000000e+00 0.0000e+00 1.0000e+00
       13  1    1    2    0    0 +4.7359791217e+01 +1.6931760807e+03 +2.8457770293e+03 3.3117269046e+03 0.0000000000e+00 0.0000e+00 -1.0000e+00
<mgrwt>
<rscale>  0 0.38216192E+04</rscale>
<asrwt>0</asrwt>
<pdfrwt beam="1">  1        2 0.64758903E+00 0.38216192E+04</pdfrwt>
<pdfrwt beam="2">  1       -2 0.13344694E+00 0.38216192E+04</pdfrwt>
<totfact> 0.80219441E-02</totfact>
</mgrwt>
<rwgt>
<wgt id='morphing_basis_vector_1'> +5.8003019e-05 </wgt>
<wgt id='morphing_basis_vector_2'> +3.9983190e-05 </wgt>
<wgt id='morphing_basis_vector_3'> +6.3770532e-05 </wgt>
<wgt id='morphing_basis_vector_4'> +4.4867240e-05 </wgt>
<wgt id='morphing_basis_vector_5'> +7.2524233e-05 </wgt>
</rwgt>
</event>
<event>
 4      1 +1.9882500e-09 3.31462400e+03 7.81860800e-03 7.67749000e-02
        2 -1    0    0  501    0 +0.0000000000e+00 +0.0000000000e+00 +1.7983225284e+03 1.7983225284e+03 0.0000000000e+00 0.0000e+00 1.0000e+00
       -2 -1    0    0    0  501 -0.0000000000e+00 -0.0000000000e+00 -1.5273586686e+03 1.5273586686e+03 0.0000000000e+00 0.0000e+00 -1.0000e+00
      -13  1    1    2    0    0 -3.0436775959e+02 -1.3998821605e+03 -7.0058865359e+02 1.5947207460e+03 0.0000000000e+00 0.0000e+00 -1.0000e+00
       13  1    1    2    0    0 +3.0436775959e+02 +1.3998821605e+03 +9.7155251338e+02 1.7309604509e+03 0.0000000000e+00 0.0000e+00 1.0000e+00
<mgrwt>
<rscale>  0 0.33146243E+04</rscale>
<asrwt>0</asrwt>
<pdfrwt beam="1">  1        2 0.27666500E+00 0.33146243E+04</pdfrwt>
<pdfrwt beam="2">  1       -2 0.23497826E+00 0.33146243E+04</pdfrwt>
<totfact> 0.60606240E-01</totfact>
</mgrwt>
<rwgt>
<wgt id='morphing_basis_vector_1'> +3.2912798e-05 </wgt>
<wgt id='morphing_basis_vector_2'> +2.2564220e-05 </wgt>
<wgt id='morphing_basis_vector_3'> +3.6043073e-05 </wgt>
<wgt id='morphing_basis_vector_4'> +2.5371720e-05 </wgt>
<wgt id='morphing_basis_vector_5'> +4.0901200e-05 </wgt>
</rwgt>
</event>
<event>
 4      1 +1.9882500e-09 3.30585000e+03 7.81860800e-03 7.67945600e-02
        2 -1    0    0  501    0 +0.0000000000e+00 +0.0000000000e+00 +2.5161904157e+03 2.5161904157e+03 0.0000000000e+00 0.0000e+00 1.0000e+00
       -2 -1    0    0    0  501 -0.0000000000e+00 -0.0000000000e+00 -1.0858325106e+03 1.0858325106e+03 0.0000000000e+00 0.0000e+00 -1.0000e+00
      -13  1    1    2    0    0 +1.4779934234e+03 +4.0098187491e+02 +3.7430602924e+01 1.5318786093e+03 0.0000000000e+00 0.0000e+00 -1.0000e+00
       13  1    1    2    0    0 -1.4779934234e+03 -4.0098187491e+02 +1.3929273022e+03 2.0701443170e+03 0.0000000000e+00 0.0000e+00 1.0000e+00
<mgrwt>
<rscale>  0 0.33058502E+04</rscale>
<asrwt>0</asrwt>
<pdfrwt beam="1">  1        2 0.38710622E+00 0.33058502E+04</pdfrwt>
<pdfrwt beam="2">  1       -2 0.16705116E+00 0.33058502E+04</pdfrwt>
<totfact> 0.74053993E-01</totfact>
</mgrwt>
<rwgt>
<wgt id='morphing_basis_vector_1'> +3.2690812e-05 </wgt>
<wgt id='morphing_basis_vector_2'> +2.2687617e-05 </wgt>
<wgt id='morphing_basis_vector_3'> +3.5856856e-05 </wgt>
<wgt id='morphing_basis_vector_4'> +2.4845474e-05 </wgt>
<wgt id='morphing_basis_vector_5'> +4.0445507e-05 </wgt>
</rwgt>
</event>
<event>
 4      1 +1.9882500e-09 3.34140200e+03 7.81860800e-03 7.67152900e-02
        2 -1    0    0  501    0 +0.0000000000e+00 +0.0000000000e+00 +2.0945003297e+03 2.0945003297e+03 0.0000000000e+00 0.0000e+00 1.0000e+00
       -2 -1    0    0    0  501 -0.0000000000e+00 -0.0000000000e+00 -1.3326526017e+03 1.3326526017e+03 0.0000000000e+00 0.0000e+00 -1.0000e+00
      -13  1    1    2    0    0 +1.3365547188e+03 +8.9138062529e+02 -8.9433471052e+01 1.6090171787e+03 0.0000000000e+00 0.0000e+00 -1.0000e+00
       13  1    1    2    0    0 -1.3365547188e+03 -8.9138062529e+02 +8.5128119900e+02 1.8181357527e+03 0.0000000000e+00 0.0000e+00 1.0000e+00
<mgrwt>
<rscale>  0 0.33414017E+04</rscale>
<asrwt>0</asrwt>
<pdfrwt beam="1">  1        2 0.32223082E+00 0.33414017E+04</pdfrwt>
<pdfrwt beam="2">  1       -2 0.20502348E+00 0.33414017E+04</pdfrwt>
<totfact> 0.67318409E-01</totfact>
</mgrwt>
<rwgt>
<wgt id='morphing_basis_vector_1'> +3.4263800e-05 </wgt>
<wgt id='morphing_basis_vector_2'> +2.4131446e-05 </wgt>
<wgt id='morphing_basis_vector_3'> +3.7668645e-05 </wgt>
<wgt id='morphing_basis_vector_4'> +2.5615011e-05 </wgt>
<wgt id='morphing_basis_vector_5'> +4.2199768e-05 </wgt>
</rwgt>
</event>
<event>
 4      1 +1.9882500e-09 3.38457500e+03 7.81860800e-03 7.66203900e-02
        2 -1    0    0  501    0 +0.0000000000e+00 +0.0000000000e+00 +1.4629998551e+03 1.4629998551e+03 0.0000000000e+00 0.0000e+00 -1.0000e+00
       -2 -1    0    0    0  501 -0.0000000000e+00 -0.0000000000e+00 -1.9575099839e+03 1.9575099839e+03 0.0000000000e+00 0.0000e+00 1.0000e+00
      -13  1    1    2    0    0 -1.2589715312e+03 -1.1438194832e+02 -1.3842530624e+03 1.8746330540e+03 0.0000000000e+00 0.0000e+00 1.0000e+00
       13  1    1    2    0    0 +1.2589715312e+03 +1.1438194832e+02 +8.8974293358e+02 1.5458767849e+03 0.0000000000e+00 0.0000e+00 -1.0000e+00
<mgrwt>
<rscale>  0 0.33845749E+04</rscale>
<asrwt>0</asrwt>
<pdfrwt beam="1">  1        2 0.22507690E+00 0.33845749E+04</pdfrwt>
<pdfrwt beam="2">  1       -2 0.30115538E+00 0.33845749E+04</pdfrwt>
<totfact> 0.32608375E-01</totfact>
</mgrwt>
<rwgt>
<wgt id='morphing_basis_vector_1'> +3.5660048e-05 </wgt>
<wgt id='morphing_basis_vector_2'> +2.4234201e-05 </wgt>
<wgt id='morphing_basis_vector_3'> +3.9025937e-05 </wgt>
<wgt id='morphing_basis_vector_4'> +2.7804754e-05 </wgt>
<wgt id='morphing_basis_vector_5'> +4.4508128e-05 </wgt>
</rwgt>
</event>
<event>
 4      1 +1.9882500e-09 3.39335900e+03 7.81860800e-03 7.66012600e-02
        2 -1    0    0  501    0 +0.0000000000e+00 +0.0000000000e+00 +2.5520820946e+03 2.5520820946e+03 0.0000000000e+00 0.0000e+00 -1.0000e+00
       -2 -1    0    0    0  501 -0.0000000000e+00 -0.0000000000e+00 -1.1279890859e+03 1.1279890859e+03 0.0000000000e+00 0.0000e+00 1.0000e+00
      -13  1    1    2    0    0 -1.0681166864e+03 -1.0146053922e+03 -2.0074775600e+02 1.4868076604e+03 0.0000000000e+00 0.0000e+00 1.0000e+00
       13  1    1    2    0    0 +1.0681166864e+03 +1.0146053922e+03 +1.6248407647e+03 2.1932635200e+03 0.0000000000e+00 0.0000e+00 -1.0000e+00
<mgrwt>
<rscale>  0 0.33933587E+04</rscale>
<asrwt>0</asrwt>
<pdfrwt beam="1">  1        2 0.39262801E+00 0.33933587E+04</pdfrwt>
<pdfrwt beam="2">  1       -2 0.17353678E+00 0.33933587E+04</pdfrwt>
<totfact> 0.62281162E-01</totfact>
</mgrwt>
<rwgt>
<wgt id='morphing_basis_vector_1'> +3.6134234e-05 </wgt>
<wgt id='morphing_basis_vector_2'> +2.4795610e-05 </wgt>
<wgt id='morphing_basis_vector_3'> +3.9599197e-05 </wgt>
<wgt id='morphing_basis_vector_4'> +2.7875675e-05 </wgt>
<wgt id='morphing_basis_vector_5'> +4.4956923e-05 </wgt>
</rwgt>
</event>
<event>
 4      1 +1.9882500e-09 3.27239000e+03 7.81860800e-03 7.68701000e-02
        2 -1    0    0  501    0 +0.0000000000e+00 +0.0000000000e+00 +3.5039562533e+03 3.5039562533e+03 0.0000000000e+00 0.0000e+00 -1.0000e+00
       -2 -1    0    0    0  501 -0.0000000000e+00 -0.0000000000e+00 -7.6403202892e+02 7.6403202892e+02 0.0000000000e+00 0.0000e+00 1.0000e+00
      -13  1    1    2    0    0 +1.6147918712e+03 +2.6311433986e+02 +1.3944618045e+03 2.1497222303e+03 0.0000000000e+00 0.0000e+00 1.0000e+00
       13  1    1    2    0    0 -1.6147918712e+03 -2.6311433986e+02 +1.3454624198e+03 2.1182660518e+03 0.0000000000e+00 0.0000e+00 -1.0000e+00
<mgrwt>
<rscale>  0 0.32723904E+04</rscale>
<asrwt>0</asrwt>
<pdfrwt beam="1">  1        2 0.53907018E+00 0.32723904E+04</pdfrwt>
<pdfrwt beam="2">  1       -2 0.11754339E+00 0.32723904E+04</pdfrwt>
<totfact> 0.44226000E-01</totfact>
</mgrwt>
<rwgt>
<wgt id='morphing_basis_vector_1'> +3.2334397e-05 </wgt>
<wgt id='morphing_basis_vector_2'> +2.4544834e-05 </wgt>
<wgt id='morphing_basis_vector_3'> +3.5908250e-05 </wgt>
<wgt id='morphing_basis_vector_4'> +2.1884647e-05 </wgt>
<wgt id='morphing_basis_vector_5'> +3.8658987e-05 </wgt>
</rwgt>
</event>
<event>
 4      1 +1.9882500e-09 3.29947100e+03 7.81860800e-03 7.68088900e-02
        2 -1    0    0  501    0 +0.0000000000e+00 +0.0000000000e+00 +2.0034012286e+03 2.0034012286e+03 0.0000000000e+00 0.0000e+00 -1.0000e+00
       -2 -1    0    0    0  501 -0.0000000000e+00 -0.0000000000e+00 -1.3585031971e+03 1.3585031971e+03 0.0000000000e+00 0.0000e+00 1.0000e+00
      -13  1    1    2    0    0 -1.1952493893e+03 -1.8218098759e+01 -8.3602305822e+02 1.4587280609e+03 0.0000000000e+00 0.0000e+00 1.0000e+00
       13  1    1    2    0    0 +1.1952493893e+03 +1.8218098759e+01 +1.4809210897e+03 1.9031763649e+03 0.0000000000e+00 0.0000e+00 -1.0000e+00
<mgrwt>
<rscale>  0 0.32994709E+04</rscale>
<asrwt>0</asrwt>
<pdfrwt beam="1">  1        2 0.30821557E+00 0.32994709E+04</pdfrwt>
<pdfrwt beam="2">  1       -2 0.20900049E+00 0.32994709E+04</pdfrwt>
<totfact> 0.71185778E-01</totfact>
</mgrwt>
<rwgt>
<wgt id='morphing_basis_vector_1'> +3.2221784e-05 </wgt>
<wgt id='morphing_basis_vector_2'> +2.1868181e-05 </wgt>
<wgt id='morphing_basis_vector_3'> +3.5234326e-05 </wgt>
<wgt id='morphing_basis_vector_4'> +2.5112369e-05 </wgt>
<wgt id='morphing_basis_vector_5'> +4.0169926e-05 </wgt>
</rwgt>
</event>
<event>
 4      1 +1.9882500e-09 3.70774100e+03 7.81860800e-03 7.59532500e-02
        2 -1    0    0  501    0 +0.0000000000e+00 +0.0000000000e+00 +3.5249644706e+03 3.5249644706e+03 0.0000000000e+00 0.0000e+00 1.0000e+00
       -2 -1    0    0    0  501 -0.0000000000e+00 -0.0000000000e+00 -9.7499864400e+02 9.7499864400e+02 0.0000000000e+00 0.0000e+00 -1.0000e+00
      -13  1    1    2    0    0 +1.5181411884e+03 -8.3036916058e+02 +4.6757955660e+02 1.7924553698e+03 0.0000000000e+00 0.0000e+00 -1.0000e+00
       13  1    1    2    0    0 -1.5181411884e+03 +8.3036916058e+02 +2.0823862700e+03 2.7075077448e+03 0.0000000000e+00 0.0000e+00 1.0000e+00
<mgrwt>
<rscale>  0 0.37077409E+04</rscale>
<asrwt>0</asrwt>
<pdfrwt beam="1">  1        2 0.54230222E+00 0.37077409E+04</pdfrwt>
<pdfrwt beam="2">  1       -2 0.14999979E+00 0.37077409E+04</pdfrwt>
<totfact> 0.21265656E-01</totfact>
</mgrwt>
<rwgt>
<wgt id='morphing_basis_vector_1'> +5.1604565e-05 </wgt>
<wgt id='morphing_basis_vector_2'> +3.5954801e-05 </wgt>
<wgt id='morphing_basis_vector_3'> +5.6785900e-05 </wgt>
<wgt id='morphing_basis_vector_4'> +3.9355838e-05 </wgt>
<wgt id='morphing_basis_vector_5'> +6.4184149e-05 </wgt>
</rwgt>
</event>
<event>
 4      1 +1.9882500e-09 3.38676200e+03 7.81860800e-03 7.66156200e-02
        2 -1    0    0  501    0 +0.0000000000e+00 +0.0000000000e+00 +1.3708539958e+03 1.3708539958e+03 0.0000000000e+00 0.0000e+00 -1.0000e+00
       -2 -1    0    0    0  501 -0.0000000000e+00 -0.0000000000e+00 -2.0917900548e+03 2.0917900548e+03 0.0000000000e+00 0.0000e+00 1.0000e+00
      -13  1    1    2    0    0 +6.9365742422e+02 -7.3288654000e+01 -1.9380921349e+03 2.0597895457e+03 0.0000000000e+00 0.0000e+00 1.0000e+00
       13  1    1    2    0    0 -6.9365742422e+02 +7.3288654000e+01 +1.2171560759e+03 1.4028545050e+03 0.0000000000e+00 0.0000e+00 -1.0000e+00
<mgrwt>
<rscale>  0 0.33867617E+04</rscale>
<asrwt>0</asrwt>
<pdfrwt beam="1">  1        2 0.21090062E+00 0.33867617E+04</pdfrwt>
<pdfrwt beam="2">  1       -2 0.32181385E+00 0.33867617E+04</pdfrwt>
<totfact> 0.26731329E-01</totfact>
</mgrwt>
<rwgt>
<wgt id='morphing_basis_vector_1'> +3.5696015e-05 </wgt>
<wgt id='morphing_basis_vector_2'> +2.4133046e-05 </wgt>
<wgt id='morphing_basis_vector_3'> +3.9038712e-05 </wgt>
<wgt id='morphing_basis_vector_4'> +2.7993891e-05 </wgt>
<wgt id='morphing_basis_vector_5'> +4.4633727e-05 </wgt>
</rwgt>
</event>
<event>
 4      1 +1.9882500e-09 3.45270300e+03 7.81860800e-03 7.64735600e-02
        2 -1    0    0  501    0 +0.0000000000e+00 +0.0000000000e+00 +2.8677247128e+03 2.8677247128e+03 0.0000000000e+00 0.0000e+00 -1.0000e+00
       -2 -1    0    0    0  501 -0.0000000000e+00 -0.0000000000e+00 -1.0392521112e+03 1.0392521112e+03 0.0000000000e+00 0.0000e+00 1.0000e+00
      -13  1    1    2    0    0 +7.4291002174e+02 -9.3551451538e+02 -4.9600497342e+02 1.2934928073e+03 0.0000000000e+00 0.0000e+00 1.0000e+00
       13  1    1    2    0    0 -7.4291002174e+02 +9.3551451538e+02 +2.3244775750e+03 2.6134840167e+03 0.0000000000e+00 0.0000e+00 -1.0000e+00
<mgrwt>
<rscale>  0 0.34527027E+04</rscale>
<asrwt>0</asrwt>
<pdfrwt beam="1">  1        2 0.44118841E+00 0.34527027E+04</pdfrwt>
<pdfrwt beam="2">  1       -2 0.15988494E+00 0.34527027E+04</pdfrwt>
<totfact> 0.50621416E-01</totfact>
</mgrwt>
<rwgt>
<wgt id='morphing_basis_vector_1'> +3.8574984e-05 </wgt>
<wgt id='morphing_basis_vector_2'> +2.6172859e-05 </wgt>
<wgt id='morphing_basis_vector_3'> +4.2226940e-05 </wgt>
<wgt id='morphing_basis_vector_4'> +3.0175292e-05 </wgt>
<wgt id='morphing_basis_vector_5'> +4.8231474e-05 </wgt>
</rwgt>
</event>
<event>
 4      1 +1.9882500e-09 3.29323800e+03 7.81860800e-03 7.68229200e-02
        2 -1    0    0  501    0 +0.0000000000e+00 +0.0000000000e+00 +2.4714400706e+03 2.4714400706e+03 0.0000000000e+00 0.0000e+00 -1.0000e+00
       -2 -1    0    0    0  501 -0.0000000000e+00 -0.0000000000e+00 -1.0970746016e+03 1.0970746016e+03 0.0000000000e+00 0.0000e+00 1.0000e+00
      -13  1    1    2    0    0 +1.1890375859e+03 -5.8098413751e+02 -3.7451344037e+02 1.3753593224e+03 0.0000000000e+00 0.0000e+00 1.0000e+00
       13  1    1    2    0    0 -1.1890375859e+03 +5.8098413751e+02 +1.7488789094e+03 2.1931553498e+03 0.0000000000e+00 0.0000e+00 -1.0000e+00
<mgrwt>
<rscale>  0 0.32932380E+04</rscale>
<asrwt>0</asrwt>
<pdfrwt beam="1">  1        2 0.38022155E+00 0.32932380E+04</pdfrwt>
<pdfrwt beam="2">  1       -2 0.16878071E+00 0.32932380E+04</pdfrwt>
<totfact> 0.76415579E-01</totfact>
</mgrwt>
<rwgt>
<wgt id='morphing_basis_vector_1'> +3.2020257e-05 </wgt>
<wgt id='morphing_basis_vector_2'> +2.1819967e-05 </wgt>
<wgt id='morphing_basis_vector_3'> +3.5031303e-05 </wgt>
<wgt id='morphing_basis_vector_4'> +2.4839190e-05 </wgt>
<wgt id='morphing_basis_vector_5'> +3.9858219e-05 </wgt>
</rwgt>
</event>
<event>
 4      1 +1.9882500e-09 3.38971700e+03 7.81860800e-03 7.66091900e-02
        2 -1    0    0  501    0 +0.0000000000e+00 +0.0000000000e+00 +2.6602641907e+03 2.6602641907e+03 0.0000000000e+00 0.0000e+00 1.0000e+00
       -2 -1    0    0    0  501 -0.0000000000e+00 -0.0000000000e+00 -1.0797967901e+03 1.0797967901e+03 0.0000000000e+00 0.0000e+00 -1.0000e+00
      -13  1    1    2    0    0 -1.2129528892e+03 +8.0300666123e+02 -1.6941269262e+02 1.4645050597e+03 0.0000000000e+00 0.0000e+00 -1.0000e+00
       13  1    1    2    0    0 +1.2129528892e+03 -8.0300666123e+02 +1.7498800932e+03 2.2755559211e+03 0.0000000000e+00 0.0000e+00 1.0000e+00
<mgrwt>
<rscale>  0 0.33897166E+04</rscale>
<asrwt>0</asrwt>
<pdfrwt beam="1">  1        2 0.40927141E+00 0.33897166E+04</pdfrwt>
<pdfrwt beam="2">  1       -2 0.16612258E+00 0.33897166E+04</pdfrwt>
<totfact> 0.61173009E-01</totfact>
</mgrwt>
<rwgt>
<wgt id='morphing_basis_vector_1'> +3.5966260e-05 </wgt>
<wgt id='morphing_basis_vector_2'> +2.4647877e-05 </wgt>
<wgt id='morphing_basis_vector_3'> +3.9407041e-05 </wgt>
<wgt id='morphing_basis_vector_4'> +2.7785179e-05 </wgt>
<wgt id='morphing_basis_vector_5'> +4.4765365e-05 </wgt>
</rwgt>
</event>
<event>
 4      1 +1.9882500e-09 3.81065800e+03 7.81860800e-03 7.57553000e-02
        2 -1    0    0  501    0 +0.0000000000e+00 +0.0000000000e+00 +1.8176941517e+03 1.8176941517e+03 0.0000000000e+00 0.0000e+00 -1.0000e+00
       -2 -1    0    0    0  501 -0.0000000000e+00 -0.0000000000e+00 -1.9971885099e+03 1.9971885099e+03 0.0000000000e+00 0.0000e+00 1.0000e+00
      -13  1    1    2    0    0 -3.6642822736e+02 +4.6491945910e+01 -1.9610030626e+03 1.9954859454e+03 0.0000000000e+00 0.0000e+00 1.0000e+00
       13  1    1    2    0    0 +3.6642822736e+02 -4.6491945910e+01 +1.7815087044e+03 1.8193967161e+03 0.0000000000e+00 0.0000e+00 -1.0000e+00
<mgrwt>
<rscale>  0 0.38106576E+04</rscale>
<asrwt>0</asrwt>
<pdfrwt beam="1">  1        2 0.27964525E+00 0.38106576E+04</pdfrwt>
<pdfrwt beam="2">  1       -2 0.30725977E+00 0.38106576E+04</pdfrwt>
<totfact> 0.18176958E-01</totfact>
</mgrwt>
<rwgt>
<wgt id='morphing_basis_vector_1'> +5.7034937e-05 </wgt>
<wgt id='morphing_basis_vector_2'> +3.8618493e-05 </wgt>
<wgt id='morphing_basis_vector_3'> +6.2547782e-05 </wgt>
<wgt id='morphing_basis_vector_4'> +4.5004572e-05 </wgt>
<wgt id='morphing_basis_vector_5'> +7.1745506e-05 </wgt>
</rwgt>
</event>
<event>
 4      1 +1.9882500e-09 3.38696400e+03 7.81860800e-03 7.66151800e-02
        2 -1    0    0  501    0 +0.0000000000e+00 +0.0000000000e+00 +1.4078994243e+03 1.4078994243e+03 0.0000000000e+00 0.0000e+00 -1.0000e+00
       -2 -1    0    0    0  501 -0.0000000000e+00 -0.0000000000e+00 -2.0369929358e+03 2.0369929358e+03 0.0000000000e+00 0.0000e+00 1.0000e+00
      -13  1    1    2    0    0 +1.3612952535e+03 -9.0657087239e+01 +7.0587593703e+02 1.5361003591e+03 0.0000000000e+00 0.0000e+00 1.0000e+00
       13  1    1    2    0    0 -1.3612952535e+03 +9.0657087239e+01 -1.3349694486e+03 1.9087920010e+03 0.0000000000e+00 0.0000e+00 -1.0000e+00
<mgrwt>
<rscale>  0 0.33869639E+04</rscale>
<asrwt>0</asrwt>
<pdfrwt beam="1">  1        2 0.21659991E+00 0.33869639E+04</pdfrwt>
<pdfrwt beam="2">  1       -2 0.31338353E+00 0.33869639E+04</pdfrwt>
<totfact> 0.28990363E-01</totfact>
</mgrwt>
<rwgt>
<wgt id='morphing_basis_vector_1'> +4.3998521e-05 </wgt>
<wgt id='morphing_basis_vector_2'> +4.8542436e-05 </wgt>
<wgt id='morphing_basis_vector_3'> +5.2189757e-05 </wgt>
<wgt id='morphing_basis_vector_4'> +1.0596937e-05 </wgt>
<wgt id='morphing_basis_vector_5'> +4.3204451e-05 </wgt>
</rwgt>
</event>
<event>
 4      1 +1.9882500e-09 3.22368200e+03 7.81860800e-03 7.69817500e-02
        2 -1    0    0  501    0 +0.0000000000e+00 +0.0000000000e+00 +3.2515524223e+03 3.2515524223e+03 0.0000000000e+00 0.0000e+00 -1.0000e+00
       -2 -1    0    0    0  501 -0.0000000000e+00 -0.0000000000e+00 -7.9901238121e+02 7.9901238121e+02 0.0000000000e+00 0.0000e+00 1.0000e+00
      -13  1    1    2    0    0 +8.7191316261e+02 -2.4990768074e+02 -4.4791996998e+02 1.0115921666e+03 0.0000000000e+00 0.0000e+00 1.0000e+00
       13  1    1    2    0    0 -8.7191316261e+02 +2.4990768074e+02 +2.9004600111e+03 3.0389726369e+03 0.0000000000e+00 0.0000e+00 -1.0000e+00
<mgrwt>
<rscale>  0 0.32236815E+04</rscale>
<asrwt>0</asrwt>
<pdfrwt beam="1">  1        2 0.50023883E+00 0.32236815E+04</pdfrwt>
<pdfrwt beam="2">  1       -2 0.12292498E+00 0.32236815E+04</pdfrwt>
<totfact> 0.59686858E-01</totfact>
</mgrwt>
<rwgt>
<wgt id='morphing_basis_vector_1'> +2.9353074e-05 </wgt>
<wgt id='morphing_basis_vector_2'> +1.9845720e-05 </wgt>
<wgt id='morphing_basis_vector_3'> +3.2061671e-05 </wgt>
<wgt id='morphing_basis_vector_4'> +2.2929749e-05 </wgt>
<wgt id='morphing_basis_vector_5'> +3.6583977e-05 </wgt>
</rwgt>
</event>
<event>
 4      1 +1.9882500e-09 3.42354300e+03 7.81860800e-03 7.65359700e-02
        2 -1    0    0  501    0 +0.0000000000e+00 +0.0000000000e+00 +1.9815740051e+03 1.9815740051e+03 0.0000000000e+00 0.0000e+00 -1.0000e+00
       -2 -1    0    0    0  501 -0.0000000000e+00 -0.0000000000e+00 -1.4787043842e+03 1.4787043842e+03 0.0000000000e+00 0.0000e+00 1.0000e+00
      -13  1    1    2    0    0 -5.3864179061e+02 -3.0061228073e+02 -1.3624640113e+03 1.4955971730e+03 0.0000000000e+00 0.0000e+00 1.0000e+00
       13  1    1    2    0    0 +5.3864179061e+02 +3.0061228073e+02 +1.8653336322e+03 1.9646812162e+03 0.0000000000e+00 0.0000e+00 -1.0000e+00
<mgrwt>
<rscale>  0 0.34235433E+04</rscale>
<asrwt>0</asrwt>
<pdfrwt beam="1">  1        2 0.30485754E+00 0.34235433E+04</pdfrwt>
<pdfrwt beam="2">  1       -2 0.22749298E+00 0.34235433E+04</pdfrwt>
<totfact> 0.53532080E-01</totfact>
</mgrwt>
<rwgt>
<wgt id='morphing_basis_vector_1'> +3.7259340e-05 </wgt>
<wgt id='morphing_basis_vector_2'> +2.5191313e-05 </wgt>
<wgt id='morphing_basis_vector_3'> +4.0759275e-05 </wgt>
<wgt id='morphing_basis_vector_4'> +2.9241427e-05 </wgt>
<wgt id='morphing_basis_vector_5'> +4.6618576e-05 </wgt>
</rwgt>
</event>
<event>
 4      1 +1.9882500e-09 3.29793000e+03 7.81860800e-03 7.68123600e-02
        2 -1    0    0  501    0 +0.0000000000e+00 +0.0000000000e+00 +2.9600144493e+03 2.9600144493e+03 0.0000000000e+00 0.0000e+00 -1.0000e+00
       -2 -1    0    0    0  501 -0.0000000000e+00 -0.0000000000e+00 -9.1860568177e+02 9.1860568177e+02 0.0000000000e+00 0.0000e+00 1.0000e+00
      -13  1    1    2    0    0 +1.5206109605e+02 -1.6276061347e+03 +1.2752966364e+03 2.0733079408e+03 0.0000000000e+00 0.0000e+00 1.0000e+00
       13  1    1    2    0    0 -1.5206109605e+02 +1.6276061347e+03 +7.6611213113e+02 1.8053121902e+03 0.0000000000e+00 0.0000e+00 -1.0000e+00
<mgrwt>
<rscale>  0 0.32979303E+04</rscale>
<asrwt>0</asrwt>
<pdfrwt beam="1">  1        2 0.45538683E+00 0.32979303E+04</pdfrwt>
<pdfrwt beam="2">  1       -2 0.14132395E+00 0.32979303E+04</pdfrwt>
<totfact> 0.63698836E-01</totfact>
</mgrwt>
<rwgt>
<wgt id='morphing_basis_vector_1'> +3.3990280e-05 </wgt>
<wgt id='morphing_basis_vector_2'> +2.7207593e-05 </wgt>
<wgt id='morphing_basis_vector_3'> +3.8058272e-05 </wgt>
<wgt id='morphing_basis_vector_4'> +2.1234972e-05 </wgt>
<wgt id='morphing_basis_vector_5'> +3.9777916e-05 </wgt>
</rwgt>
</event>
<event>
 4      1 +1.9882500e-09 3.63303900e+03 7.81860800e-03 7.61011000e-02
        2 -1    0    0  501    0 +0.0000000000e+00 +0.0000000000e+00 +2.2638623184e+03 2.2638623184e+03 0.0000000000e+00 0.0000e+00 -1.0000e+00
       -2 -1    0    0    0  501 -0.0000000000e+00 -0.0000000000e+00 -1.4575721874e+03 1.4575721874e+03 0.0000000000e+00 0.0000e+00 1.0000e+00
      -13  1    1    2    0    0 -1.2974257660e+03 -8.5019214390e+02 -5.6516070167e+02 1.6509230505e+03 0.0000000000e+00 0.0000e+00 1.0000e+00
       13  1    1    2    0    0 +1.2974257660e+03 +8.5019214390e+02 +1.3714508327e+03 2.0705114552e+03 0.0000000000e+00 0.0000e+00 -1.0000e+00
<mgrwt>
<rscale>  0 0.36330388E+04</rscale>
<asrwt>0</asrwt>
<pdfrwt beam="1">  1        2 0.34828651E+00 0.36330388E+04</pdfrwt>
<pdfrwt beam="2">  1       -2 0.22424187E+00 0.36330388E+04</pdfrwt>
<totfact> 0.38320348E-01</totfact>
</mgrwt>
<rwgt>
<wgt id='morphing_basis_vector_1'> +4.7364393e-05 </wgt>
<wgt id='morphing_basis_vector_2'> +3.2477408e-05 </wgt>
<wgt id='morphing_basis_vector_3'> +5.1982238e-05 </wgt>
<wgt id='morphing_basis_vector_4'> +3.6743838e-05 </wgt>
<wgt id='morphing_basis_vector_5'> +5.9177415e-05 </wgt>
</rwgt>
</event>
<event>
 4      1 +1.9882500e-09 3.58111600e+03 7.81860800e-03 7.62060300e-02
        2 -1    0    0  501    0 +0.0000000000e+00 +0.0000000000e+00 +2.2284011411e+03 2.2284011411e+03 0.0000000000e+00 0.0000e+00 -1.0000e+00
       -2 -1    0    0    0  501 -0.0000000000e+00 -0.0000000000e+00 -1.4387434625e+03 1.4387434625e+03 0.0000000000e+00 0.0000e+00 1.0000e+00
      -13  1    1    2    0    0 +7.4684435777e+02 +7.4922024663e+02 -1.0845175180e+03 1.5150200393e+03 0.0000000000e+00 0.0000e+00 1.0000e+00
       13  1    1    2    0    0 -7.4684435777e+02 -7.4922024663e+02 +1.8741751966e+03 2.1521245643e+03 0.0000000000e+00 0.0000e+00 -1.0000e+00
<mgrwt>
<rscale>  0 0.35811158E+04</rscale>
<asrwt>0</asrwt>
<pdfrwt beam="1">  1        2 0.34283095E+00 0.35811158E+04</pdfrwt>
<pdfrwt beam="2">  1       -2 0.22134515E+00 0.35811158E+04</pdfrwt>
<totfact> 0.42286700E-01</totfact>
</mgrwt>
<rwgt>
<wgt id='morphing_basis_vector_1'> +4.4572184e-05 </wgt>
<wgt id='morphing_basis_vector_2'> +3.0199424e-05 </wgt>
<wgt id='morphing_basis_vector_3'> +4.8822804e-05 </wgt>
<wgt id='morphing_basis_vector_4'> +3.5008958e-05 </wgt>
<wgt id='morphing_basis_vector_5'> +5.5874204e-05 </wgt>
</rwgt>
</event>
<event>
 4      1 +1.9882500e-09 3.52142500e+03 7.81860800e-03 7.63289300e-02
        2 -1    0    0  501    0 +0.0000000000e+00 +0.0000000000e+00 +2.9089126062e+03 2.9089126062e+03 0.0000000000e+00 0.0000e+00 -1.0000e+00
       -2 -1    0    0    0  501 -0.0000000000e+00 -0.0000000000e+00 -1.0657273818e+03 1.0657273818e+03 0.0000000000e+00 0.0000e+00 1.0000e+00
      -13  1    1    2    0    0 -1.3298868263e+03 -1.1294607215e+03 +6.5490502259e+02 1.8636472523e+03 0.0000000000e+00 0.0000e+00 1.0000e+00
       13  1    1    2    0    0 +1.3298868263e+03 +1.1294607215e+03 +1.1882802019e+03 2.1109927358e+03 0.0000000000e+00 0.0000e+00 -1.0000e+00
<mgrwt>
<rscale>  0 0.35214246E+04</rscale>
<asrwt>0</asrwt>
<pdfrwt beam="1">  1        2 0.44752501E+00 0.35214246E+04</pdfrwt>
<pdfrwt beam="2">  1       -2 0.16395806E+00 0.35214246E+04</pdfrwt>
<totfact> 0.43973309E-01</totfact>
</mgrwt>
<rwgt>
<wgt id='morphing_basis_vector_1'> +4.2603890e-05 </wgt>
<wgt id='morphing_basis_vector_2'> +3.0922728e-05 </wgt>
<wgt id='morphing_basis_vector_3'> +4.7099025e-05 </wgt>
<wgt id='morphing_basis_vector_4'> +3.0801657e-05 </wgt>
<wgt id='morphing_basis_vector_5'> +5.2059920e-05 </wgt>
</rwgt>
</event>
<event>
 4      1 +1.9882500e-09 3.22516800e+03 7.81860800e-03 7.69783200e-02
        2 -1    0    0  501    0 +0.0000000000e+00 +0.0000000000e+00 +2.6358652867e+03 2.6358652867e+03 0.0000000000e+00 0.0000e+00 -1.0000e+00
       -2 -1    0    0    0  501 -0.0000000000e+00 -0.0000000000e+00 -9.8655524479e+02 9.8655524479e+02 0.0000000000e+00 0.0000e+00 1.0000e+00
      -13  1    1    2    0    0 -1.3015765350e+03 +8.1142395557e+02 +2.6541376948e+02 1.5565843315e+03 0.0000000000e+00 0.0000e+00 1.0000e+00
       13  1    1    2    0    0 +1.3015765350e+03 -8.1142395557e+02 +1.3838962724e+03 2.0658361999e+03 0.0000000000e+00 0.0000e+00 -1.0000e+00
<mgrwt>
<rscale>  0 0.32251677E+04</rscale>
<asrwt>0</asrwt>
<pdfrwt beam="1">  1        2 0.40551773E+00 0.32251677E+04</pdfrwt>
<pdfrwt beam="2">  1       -2 0.15177773E+00 0.32251677E+04</pdfrwt>
<totfact> 0.83707991E-01</totfact>
</mgrwt>
<rwgt>
<wgt id='morphing_basis_vector_1'> +2.9720509e-05 </wgt>
<wgt id='morphing_basis_vector_2'> +2.0805543e-05 </wgt>
<wgt id='morphing_basis_vector_3'> +3.2615576e-05 </wgt>
<wgt id='morphing_basis_vector_4'> +2.2316059e-05 </wgt>
<wgt id='morphing_basis_vector_5'> +3.6597838e-05 </wgt>
</rwgt>
</event>
<event>
 4      1 +1.9882500e-09 3.44361700e+03 7.81860800e-03 7.64929400e-02
        2 -1    0    0  501    0 +0.0000000000e+00 +0.0000000000e+00 +2.3627915177e+03 2.3627915177e+03 0.0000000000e+00 0.0000e+00 1.0000e+00
       -2 -1    0    0    0  501 -0.0000000000e+00 -0.0000000000e+00 -1.2547125489e+03 1.2547125489e+03 0.0000000000e+00 0.0000e+00 -1.0000e+00
      -13  1    1    2    0    0 +1.6270427005e+03 -5.6295946109e+02 +5.3218353311e+02 1.8020573290e+03 0.0000000000e+00 0.0000e+00 1.0000e+00
       13  1    1    2    0    0 -1.6270427005e+03 +5.6295946109e+02 +5.7589543568e+02 1.8154467376e+03 0.0000000000e+00 0.0000e+00 -1.0000e+00
<mgrwt>
<rscale>  0 0.34436168E+04</rscale>
<asrwt>0</asrwt>
<pdfrwt beam="1">  1        2 0.36350639E+00 0.34436168E+04</pdfrwt>
<pdfrwt beam="2">  1       -2 0.19303270E+00 0.34436168E+04</pdfrwt>
<totfact> 0.57243422E-01</totfact>
</mgrwt>
<rwgt>
<wgt id='morphing_basis_vector_1'> +3.9474614e-05 </wgt>
<wgt id='morphing_basis_vector_2'> +2.9727603e-05 </wgt>
<wgt id='morphing_basis_vector_3'> +4.3849288e-05 </wgt>
<wgt id='morphing_basis_vector_4'> +2.7123766e-05 </wgt>
<wgt id='morphing_basis_vector_5'> +4.7496098e-05 </wgt>
</rwgt>
</event>
<event>
 4      1 +1.9882500e-09 3.45461100e+03 7.81860800e-03 7.64695000e-02
        2 -1    0    0  501    0 +0.0000000000e+00 +0.0000000000e+00 +2.2458006958e+03 2.2458006958e+03 0.0000000000e+00 0.0000e+00 -1.0000e+00
       -2 -1    0    0    0  501 -0.0000000000e+00 -0.0000000000e+00 -1.3285170027e+03 1.3285170027e+03 0.0000000000e+00 0.0000e+00 1.0000e+00
      -13  1    1    2    0    0 -2.1179763480e+02 -1.3034707657e+03 -6.9335307317e+02 1.4915202845e+03 0.0000000000e+00 0.0000e+00 1.0000e+00
       13  1    1    2    0    0 +2.1179763480e+02 +1.3034707657e+03 +1.6106367663e+03 2.0827974140e+03 0.0000000000e+00 0.0000e+00 -1.0000e+00
<mgrwt>
<rscale>  0 0.34546111E+04</rscale>
<asrwt>0</asrwt>
<pdfrwt beam="1">  1        2 0.34550780E+00 0.34546111E+04</pdfrwt>
<pdfrwt beam="2">  1       -2 0.20438723E+00 0.34546111E+04</pdfrwt>
<totfact> 0.55231738E-01</totfact>
</mgrwt>
<rwgt>
<wgt id='morphing_basis_vector_1'> +3.8691984e-05 </wgt>
<wgt id='morphing_basis_vector_2'> +2.6325430e-05 </wgt>
<wgt id='morphing_basis_vector_3'> +4.2371489e-05 </wgt>
<wgt id='morphing_basis_vector_4'> +3.0174792e-05 </wgt>
<wgt id='morphing_basis_vector_5'> +4.8333302e-05 </wgt>
</rwgt>
</event>
<event>
 4      1 +1.9882500e-09 3.57355400e+03 7.81860800e-03 7.62214600e-02
        2 -1    0    0  501    0 +0.0000000000e+00 +0.0000000000e+00 +1.8838262344e+03 1.8838262344e+03 0.0000000000e+00 0.0000e+00 1.0000e+00
       -2 -1    0    0    0  501 -0.0000000000e+00 -0.0000000000e+00 -1.6947271174e+03 1.6947271174e+03 0.0000000000e+00 0.0000e+00 -1.0000e+00
      -13  1    1    2    0    0 +3.5794067026e+02 -4.5273622171e+02 -1.5988159403e+03 1.6997952880e+03 0.0000000000e+00 0.0000e+00 -1.0000e+00
       13  1    1    2    0    0 -3.5794067026e+02 +4.5273622171e+02 +1.7879150574e+03 1.8787580638e+03 0.0000000000e+00 0.0000e+00 1.0000e+00
<mgrwt>
<rscale>  0 0.35735536E+04</rscale>
<asrwt>0</asrwt>
<pdfrwt beam="1">  1        2 0.28981942E+00 0.35735536E+04</pdfrwt>
<pdfrwt beam="2">  1       -2 0.26072725E+00 0.35735536E+04</pdfrwt>
<totfact> 0.35250946E-01</totfact>
</mgrwt>
<rwgt>
<wgt id='morphing_basis_vector_1'> +4.4180060e-05 </wgt>
<wgt id='morphing_basis_vector_2'> +2.9889266e-05 </wgt>
<wgt id='morphing_basis_vector_3'> +4.8381308e-05 </wgt>
<wgt id='morphing_basis_vector_4'> +3.4752848e-05 </wgt>
<wgt id='morphing_basis_vector_5'> +5.5404188e-05 </wgt>
</rwgt>
</event>
<event>
 4      1 +1.9882500e-09 3.48704500e+03 7.81860800e-03 7.64008600e-02
        2 -1    0    0  501    0 +0.0000000000e+00 +0.0000000000e+00 +1.8985667153e+03 1.8985667153e+03 0.0000000000e+00 0.0000e+00 1.0000e+00
       -2 -1    0    0    0  501 -0.0000000000e+00 -0.0000000000e+00 -1.6011393991e+03 1.6011393991e+03 0.0000000000e+00 0.0000e+00 -1.0000e+00
      -13  1    1    2    0    0 +9.6269765327e+02 +5.2235462800e+02 +1.5101896689e+03 1.8655599602e+03 0.0000000000e+00 0.0000e+00 1.0000e+00
       13  1    1    2    0    0 -9.6269765327e+02 -5.2235462800e+02 -1.2127623527e+03 1.6341461542e+03 0.0000000000e+00 0.0000e+00 -1.0000e+00
<mgrwt>
<rscale>  0 0.34870446E+04</rscale>
<asrwt>0</asrwt>
<pdfrwt beam="1">  1        2 0.29208719E+00 0.34870446E+04</pdfrwt>
<pdfrwt beam="2">  1       -2 0.24632914E+00 0.34870446E+04</pdfrwt>
<totfact> 0.43789577E-01</totfact>
</mgrwt>
<rwgt>
<wgt id='morphing_basis_vector_1'> +5.3097162e-05 </wgt>
<wgt id='morphing_basis_vector_2'> +6.5396354e-05 </wgt>
<wgt id='morphing_basis_vector_3'> +6.4542049e-05 </wgt>
<wgt id='morphing_basis_vector_4'> +4.1318835e-06 </wgt>
<wgt id='morphing_basis_vector_5'> +4.7932851e-05 </wgt>
</rwgt>
</event>
<event>
 4      1 +1.9882500e-09 3.50268700e+03 7.81860800e-03 7.63680300e-02
        2 -1    0    0  501    0 +0.0000000000e+00 +0.0000000000e+00 +2.9441125890e+03 2.9441125890e+03 0.0000000000e+00 0.0000e+00 1.0000e+00
       -2 -1    0    0    0  501 -0.0000000000e+00 -0.0000000000e+00 -1.0418092680e+03 1.0418092680e+03 0.0000000000e+00 0.0000e+00 -1.0000e+00
      -13  1    1    2    0    0 -1.0795337473e+03 -3.1520207834e+02 -5.7662575056e+02 1.2638206827e+03 0.0000000000e+00 0.0000e+00 -1.0000e+00
       13  1    1    2    0    0 +1.0795337473e+03 +3.1520207834e+02 +2.4789290716e+03 2.7221011744e+03 0.0000000000e+00 0.0000e+00 1.0000e+00
<mgrwt>
<rscale>  0 0.35026868E+04</rscale>
<asrwt>0</asrwt>
<pdfrwt beam="1">  1        2 0.45294039E+00 0.35026868E+04</pdfrwt>
<pdfrwt beam="2">  1       -2 0.16027835E+00 0.35026868E+04</pdfrwt>
<totfact> 0.44719622E-01</totfact>
</mgrwt>
<rwgt>
<wgt id='morphing_basis_vector_1'> +4.0827544e-05 </wgt>
<wgt id='morphing_basis_vector_2'> +2.7675317e-05 </wgt>
<wgt id='morphing_basis_vector_3'> +4.4701923e-05 </wgt>
<wgt id='morphing_basis_vector_4'> +3.2002798e-05 </wgt>
<wgt id='morphing_basis_vector_5'> +5.1107474e-05 </wgt>
</rwgt>
</event>
<event>
 4      1 +1.9882500e-09 3.51332100e+03 7.81860800e-03 7.63458100e-02
        2 -1    0    0  501    0 +0.0000000000e+00 +0.0000000000e+00 +2.7440336417e+03 2.7440336417e+03 0.0000000000e+00 0.0000e+00 1.0000e+00
       -2 -1    0    0    0  501 -0.0000000000e+00 -0.0000000000e+00 -1.1245690752e+03 1.1245690752e+03 0.0000000000e+00 0.0000e+00 -1.0000e+00
      -13  1    1    2    0    0 -7.6607769030e+02 +3.7169818695e+02 -8.8214112566e+02 1.2260536429e+03 0.0000000000e+00 0.0000e+00 -1.0000e+00
       13  1    1    2    0    0 +7.6607769030e+02 -3.7169818695e+02 +2.5016056921e+03 2.6425490740e+03 0.0000000000e+00 0.0000e+00 1.0000e+00
<mgrwt>
<rscale>  0 0.35133206E+04</rscale>
<asrwt>0</asrwt>
<pdfrwt beam="1">  1        2 0.42215902E+00 0.35133206E+04</pdfrwt>
<pdfrwt beam="2">  1       -2 0.17301063E+00 0.35133206E+04</pdfrwt>
<totfact> 0.47505408E-01</totfact>
</mgrwt>
<rwgt>
<wgt id='morphing_basis_vector_1'> +4.1300431e-05 </wgt>
<wgt id='morphing_basis_vector_2'> +2.7947801e-05 </wgt>
<wgt id='morphing_basis_vector_3'> +4.5212289e-05 </wgt>
<wgt id='morphing_basis_vector_4'> +3.2441576e-05 </wgt>
<wgt id='morphing_basis_vector_5'> +5.1738790e-05 </wgt>
</rwgt>
</event>
<event>
 4      1 +1.9882500e-09 3.40423100e+03 7.81860800e-03 7.65776600e-02
        2 -1    0    0  501    0 +0.0000000000e+00 +0.0000000000e+00 +2.1795728094e+03 2.1795728094e+03 0.0000000000e+00 0.0000e+00 -1.0000e+00
       -2 -1    0    0    0  501 -0.0000000000e+00 -0.0000000000e+00 -1.3292502581e+03 1.3292502581e+03 0.0000000000e+00 0.0000e+00 1.0000e+00
      -13  1    1    2    0    0 +1.3539951662e+03 -6.3507245311e+02 -4.1256934474e+02 1.5513972396e+03 0.0000000000e+00 0.0000e+00 1.0000e+00
       13  1    1    2    0    0 -1.3539951662e+03 +6.3507245311e+02 +1.2628918960e+03 1.9574258279e+03 0.0000000000e+00 0.0000e+00 -1.0000e+00
<mgrwt>
<rscale>  0 0.34042313E+04</rscale>
<asrwt>0</asrwt>
<pdfrwt beam="1">  1        2 0.33531889E+00 0.34042313E+04</pdfrwt>
<pdfrwt beam="2">  1       -2 0.20450004E+00 0.34042313E+04</pdfrwt>
<totfact> 0.60422809E-01</totfact>
</mgrwt>
<rwgt>
<wgt id='morphing_basis_vector_1'> +3.6613064e-05 </wgt>
<wgt id='morphing_basis_vector_2'> +2.5163432e-05 </wgt>
<wgt id='morphing_basis_vector_3'> +4.0135596e-05 </wgt>
<wgt id='morphing_basis_vector_4'> +2.8201812e-05 </wgt>
<wgt id='morphing_basis_vector_5'> +4.5536974e-05 </wgt>
</rwgt>
</event>
<event>
 4      1 +1.9882500e-09 3.24165200e+03 7.81860800e-03 7.69403300e-02
        2 -1    0    0  501    0 +0.0000000000e+00 +0.0000000000e+00 +1.4821494680e+03 1.4821494680e+03 0.0000000000e+00 0.0000e+00 -1.0000e+00
       -2 -1    0    0    0  501 -0.0000000000e+00 -0.0000000000e+00 -1.7724782677e+03 1.7724782677e+03 0.0000000000e+00 0.0000e+00 1.0000e+00
      -13  1    1    2    0    0 +1.1152353316e+03 -1.2259241945e+02 -1.3195896111e+03 1.7320783723e+03 0.0000000000e+00 0.0000e+00 1.0000e+00
       13  1    1    2    0    0 -1.1152353316e+03 +1.2259241945e+02 +1.0292608114e+03 1.5225493634e+03 0.0000000000e+00 0.0000e+00 -1.0000e+00
<mgrwt>
<rscale>  0 0.32416525E+04</rscale>
<asrwt>0</asrwt>
<pdfrwt beam="1">  1        2 0.22802299E+00 0.32416525E+04</pdfrwt>
<pdfrwt beam="2">  1       -2 0.27268896E+00 0.32416525E+04</pdfrwt>
<totfact> 0.50232139E-01</totfact>
</mgrwt>
<rwgt>
<wgt id='morphing_basis_vector_1'> +3.0028748e-05 </wgt>
<wgt id='morphing_basis_vector_2'> +2.0351971e-05 </wgt>
<wgt id='morphing_basis_vector_3'> +3.2815133e-05 </wgt>
<wgt id='morphing_basis_vector_4'> +2.3405540e-05 </wgt>
<wgt id='morphing_basis_vector_5'> +3.7409332e-05 </wgt>
</rwgt>
</event>
<event>
 4      1 +1.9882500e-09 3.35774100e+03 7.81860800e-03 7.66792000e-02
        2 -1    0    0  501    0 +0.0000000000e+00 +0.0000000000e+00 +1.7469918830e+03 1.7469918830e+03 0.0000000000e+00 0.0000e+00 -1.0000e+00
       -2 -1    0    0    0  501 -0.0000000000e+00 -0.0000000000e+00 -1.6134058741e+03 1.6134058741e+03 0.0000000000e+00 0.0000e+00 1.0000e+00
      -13  1    1    2    0    0 +1.3269763267e+03 -9.8453677253e+02 +3.6439693981e+02 1.6920295381e+03 0.0000000000e+00 0.0000e+00 1.0000e+00
       13  1    1    2    0    0 -1.3269763267e+03 +9.8453677253e+02 -2.3081093094e+02 1.6683682190e+03 0.0000000000e+00 0.0000e+00 -1.0000e+00
<mgrwt>
<rscale>  0 0.33577415E+04</rscale>
<asrwt>0</asrwt>
<pdfrwt beam="1">  1        2 0.26876798E+00 0.33577415E+04</pdfrwt>
<pdfrwt beam="2">  1       -2 0.24821629E+00 0.33577415E+04</pdfrwt>
<totfact> 0.52174806E-01</totfact>
</mgrwt>
<rwgt>
<wgt id='morphing_basis_vector_1'> +3.6844032e-05 </wgt>
<wgt id='morphing_basis_vector_2'> +3.0225714e-05 </wgt>
<wgt id='morphing_basis_vector_3'> +4.1434803e-05 </wgt>
<wgt id='morphing_basis_vector_4'> +2.2117298e-05 </wgt>
<wgt id='morphing_basis_vector_5'> +4.2705908e-05 </wgt>
</rwgt>
</event>
<event>
 4      1 +1.9882500e-09 3.43451900e+03 7.81860800e-03 7.65124100e-02
        2 -1    0    0  501    0 +0.0000000000e+00 +0.0000000000e+00 +2.1915253101e+03 2.1915253101e+03 0.0000000000e+00 0.0000e+00 1.0000e+00
       -2 -1    0    0    0  501 -0.0000000000e+00 -0.0000000000e+00 -1.3456293481e+03 1.3456293481e+03 0.0000000000e+00 0.0000e+00 -1.0000e+00
      -13  1    1    2    0    0 -1.1229124049e+03 -1.0554873875e+03 -3.5731695782e+02 1.5819801840e+03 0.0000000000e+00 0.0000e+00 -1.0000e+00
       13  1    1    2    0    0 +1.1229124049e+03 +1.0554873875e+03 +1.2032129198e+03 1.9551744742e+03 0.0000000000e+00 0.0000e+00 1.0000e+00
<mgrwt>
<rscale>  0 0.34345193E+04</rscale>
<asrwt>0</asrwt>
<pdfrwt beam="1">  1        2 0.33715774E+00 0.34345193E+04</pdfrwt>
<pdfrwt beam="2">  1       -2 0.20701990E+00 0.34345193E+04</pdfrwt>
<totfact> 0.56891147E-01</totfact>
</mgrwt>
<rwgt>
<wgt id='morphing_basis_vector_1'> +3.7961948e-05 </wgt>
<wgt id='morphing_basis_vector_2'> +2.6179473e-05 </wgt>
<wgt id='morphing_basis_vector_3'> +4.1642528e-05 </wgt>
<wgt id='morphing_basis_vector_4'> +2.9146459e-05 </wgt>
<wgt id='morphing_basis_vector_5'> +4.7184125e-05 </wgt>
</rwgt>
</event>
<event>
 4      1 +1.9882500e-09 3.42881400e+03 7.81860800e-03 7.65246500e-02
        2 -1    0    0  501    0 +0.0000000000e+00 +0.0000000000e+00 +9.5046985989e+02 9.5046985989e+02 0.0000000000e+00 0.0000e+00 -1.0000e+00
       -2 -1    0    0    0  501 -0.0000000000e+00 -0.0000000000e+00 -3.0923559066e+03 3.0923559066e+03 0.0000000000e+00 0.0000e+00 1.0000e+00
      -13  1    1    2    0    0 +1.5269000483e+03 +6.6946895754e+02 -1.5419512599e+03 2.2709526923e+03 0.0000000000e+00 0.0000e+00 1.0000e+00
       13  1    1    2    0    0 -1.5269000483e+03 -6.6946895754e+02 -5.9993478679e+02 1.7718730742e+03 0.0000000000e+00 0.0000e+00 -1.0000e+00
<mgrwt>
<rscale>  0 0.34288138E+04</rscale>
<asrwt>0</asrwt>
<pdfrwt beam="1">  1        2 0.14622614E+00 0.34288138E+04</pdfrwt>
<pdfrwt beam="2">  1       -2 0.47574705E+00 0.34288138E+04</pdfrwt>
<totfact> 0.44335466E-02</totfact>
</mgrwt>
<rwgt>
<wgt id='morphing_basis_vector_1'> +3.8053492e-05 </wgt>
<wgt id='morphing_basis_vector_2'> +2.7010946e-05 </wgt>
<wgt id='morphing_basis_vector_3'> +4.1908170e-05 </wgt>
<wgt id='morphing_basis_vector_4'> +2.8235081e-05 </wgt>
<wgt id='morphing_basis_vector_5'> +4.6809915e-05 </wgt>
</rwgt>
</event>
<event>
 4      1 +1.9882500e-09 3.31992200e+03 7.81860800e-03 7.67630600e-02
        2 -1    0    0  501    0 +0.0000000000e+00 +0.0000000000e+00 +2.3525606267e+03 2.3525606267e+03 0.0000000000e+00 0.0000e+00 1.0000e+00
       -2 -1    0    0    0  501 -0.0000000000e+00 -0.0000000000e+00 -1.1712644871e+03 1.1712644871e+03 0.0000000000e+00 0.0000e+00 -1.0000e+00
      -13  1    1    2    0    0 +1.1153215406e+03 +1.1529181097e+03 +1.3744817356e+02 1.6099858095e+03 0.0000000000e+00 0.0000e+00 1.0000e+00
       13  1    1    2    0    0 -1.1153215406e+03 -1.1529181097e+03 +1.0438479661e+03 1.9138393043e+03 0.0000000000e+00 0.0000e+00 -1.0000e+00
<mgrwt>
<rscale>  0 0.33199221E+04</rscale>
<asrwt>0</asrwt>
<pdfrwt beam="1">  1        2 0.36193240E+00 0.33199221E+04</pdfrwt>
<pdfrwt beam="2">  1       -2 0.18019454E+00 0.33199221E+04</pdfrwt>
<totfact> 0.73169304E-01</totfact>
</mgrwt>
<rwgt>
<wgt id='morphing_basis_vector_1'> +3.3428841e-05 </wgt>
<wgt id='morphing_basis_vector_2'> +2.3610885e-05 </wgt>
<wgt id='morphing_basis_vector_3'> +3.6759025e-05 </wgt>
<wgt id='morphing_basis_vector_4'> +2.4892672e-05 </wgt>
<wgt id='morphing_basis_vector_5'> +4.1112089e-05 </wgt>
</rwgt>
</event>
<event>
 4      1 +1.9882500e-09 3.81686900e+03 7.81860800e-03 7.57435600e-02
        2 -1    0    0  501    0 +0.0000000000e+00 +0.0000000000e+00 +2.7394047810e+03 2.7394047810e+03 0.0000000000e+00 0.0000e+00 -1.0000e+00
       -2 -1    0    0    0  501 -0.0000000000e+00 -0.0000000000e+00 -1.3295303031e+03 1.3295303031e+03 0.0000000000e+00 0.0000e+00 1.0000e+00
      -13  1    1    2    0    0 +5.3886264415e+02 -1.4274907499e+03 -5.1707158819e+02 1.6110449459e+03 0.0000000000e+00 0.0000e+00 1.0000e+00
       13  1    1    2    0    0 -5.3886264415e+02 +1.4274907499e+03 +1.9269460661e+03 2.4578901383e+03 0.0000000000e+00 0.0000e+00 -1.0000e+00
<mgrwt>
<rscale>  0 0.38168687E+04</rscale>
<asrwt>0</asrwt>
<pdfrwt beam="1">  1        2 0.42144689E+00 0.38168687E+04</pdfrwt>
<pdfrwt beam="2">  1       -2 0.20454312E+00 0.38168687E+04</pdfrwt>
<totfact> 0.27123295E-01</totfact>
</mgrwt>
<rwgt>
<wgt id='morphing_basis_vector_1'> +5.7550250e-05 </wgt>
<wgt id='morphing_basis_vector_2'> +3.9295641e-05 </wgt>
<wgt id='morphing_basis_vector_3'> +6.3187794e-05 </wgt>
<wgt id='morphing_basis_vector_4'> +4.4994901e-05 </wgt>
<wgt id='morphing_basis_vector_5'> +7.2191581e-05 </wgt>
</rwgt>
</event>
<event>
 4      1 +1.9882500e-09 3.23799000e+03 7.81860800e-03 7.69487500e-02
        2 -1    0    0  501    0 +0.0000000000e+00 +0.0000000000e+00 +3.6722803479e+03 3.6722803479e+03 0.0000000000e+00 0.0000e+00 -1.0000e+00
       -2 -1    0    0    0  501 -0.0000000000e+00 -0.0000000000e+00 -7.1376472202e+02 7.1376472202e+02 0.0000000000e+00 0.0000e+00 1.0000e+00
      -13  1    1    2    0    0 +9.5842686981e+02 -1.1004256788e+03 +2.4290198511e+03 2.8336647960e+03 0.0000000000e+00 0.0000e+00 1.0000e+00
       13  1    1    2    0    0 -9.5842686981e+02 +1.1004256788e+03 +5.2949577484e+02 1.5523802739e+03 0.0000000000e+00 0.0000e+00 -1.0000e+00
<mgrwt>
<rscale>  0 0.32379896E+04</rscale>
<asrwt>0</asrwt>
<pdfrwt beam="1">  1        2 0.56496620E+00 0.32379896E+04</pdfrwt>
<pdfrwt beam="2">  1       -2 0.10980996E+00 0.32379896E+04</pdfrwt>
<totfact> 0.39416111E-01</totfact>
</mgrwt>
<rwgt>
<wgt id='morphing_basis_vector_1'> +3.4432675e-05 </wgt>
<wgt id='morphing_basis_vector_2'> +3.3618105e-05 </wgt>
<wgt id='morphing_basis_vector_3'> +3.9828038e-05 </wgt>
<wgt id='morphing_basis_vector_4'> +1.3801488e-05 </wgt>
<wgt id='morphing_basis_vector_5'> +3.6455216e-05 </wgt>
</rwgt>
</event>
<event>
 4      1 +1.9882500e-09 3.21264400e+03 7.81860800e-03 7.70073400e-02
        2 -1    0    0  501    0 +0.0000000000e+00 +0.0000000000e+00 +1.0626264473e+03 1.0626264473e+03 0.0000000000e+00 0.0000e+00 -1.0000e+00
       -2 -1    0    0    0  501 -0.0000000000e+00 -0.0000000000e+00 -2.4282002231e+03 2.4282002231e+03 0.0000000000e+00 0.0000e+00 1.0000e+00
      -13  1    1    2    0    0 +8.5056606067e+02 +1.0467017853e+03 -1.6308157244e+03 2.1162719999e+03 0.0000000000e+00 0.0000e+00 1.0000e+00
       13  1    1    2    0    0 -8.5056606067e+02 -1.0467017853e+03 +2.6524194849e+02 1.3745546705e+03 0.0000000000e+00 0.0000e+00 -1.0000e+00
<mgrwt>
<rscale>  0 0.32126436E+04</rscale>
<asrwt>0</asrwt>
<pdfrwt beam="1">  1        2 0.16348099E+00 0.32126436E+04</pdfrwt>
<pdfrwt beam="2">  1       -2 0.37356926E+00 0.32126436E+04</pdfrwt>
<totfact> 0.18864089E-01</totfact>
</mgrwt>
<rwgt>
<wgt id='morphing_basis_vector_1'> +2.9048107e-05 </wgt>
<wgt id='morphing_basis_vector_2'> +1.9846530e-05 </wgt>
<wgt id='morphing_basis_vector_3'> +3.1769870e-05 </wgt>
<wgt id='morphing_basis_vector_4'> +2.2422851e-05 </wgt>
<wgt id='morphing_basis_vector_5'> +3.6065829e-05 </wgt>
</rwgt>
</event>
<event>
 4      1 +1.9882500e-09 3.37018300e+03 7.81860800e-03 7.66518600e-02
        2 -1    0    0  501    0 +0.0000000000e+00 +0.0000000000e+00 +1.4858904571e+03 1.4858904571e+03 0.0000000000e+00 0.0000e+00 -1.0000e+00
       -2 -1    0    0    0  501 -0.0000000000e+00 -0.0000000000e+00 -1.9109980235e+03 1.9109980235e+03 0.0000000000e+00 0.0000e+00 1.0000e+00
      -13  1    1    2    0    0 -8.6151989341e+02 +1.3593700835e+03 +2.9083353985e+02 1.6354472473e+03 0.0000000000e+00 0.0000e+00 1.0000e+00
       13  1    1    2    0    0 +8.6151989341e+02 -1.3593700835e+03 -7.1594110625e+02 1.7614412333e+03 0.0000000000e+00 0.0000e+00 -1.0000e+00
<mgrwt>
<rscale>  0 0.33701832E+04</rscale>
<asrwt>0</asrwt>
<pdfrwt beam="1">  1        2 0.22859853E+00 0.33701832E+04</pdfrwt>
<pdfrwt beam="2">  1       -2 0.29399970E+00 0.33701832E+04</pdfrwt>
<totfact> 0.35424916E-01</totfact>
</mgrwt>
<rwgt>
<wgt id='morphing_basis_vector_1'> +3.8533371e-05 </wgt>
<wgt id='morphing_basis_vector_2'> +3.4040998e-05 </wgt>
<wgt id='morphing_basis_vector_3'> +4.3865089e-05 </wgt>
<wgt id='morphing_basis_vector_4'> +2.0048934e-05 </wgt>
<wgt id='morphing_basis_vector_5'> +4.3148283e-05 </wgt>
</rwgt>
</event>
<event>
 4      1 +1.9882500e-09 3.30400500e+03 7.81860800e-03 7.67987000e-02
        2 -1    0    0  501    0 +0.0000000000e+00 +0.0000000000e+00 +2.5487151342e+03 2.5487151342e+03 0.0000000000e+00 0.0000e+00 1.0000e+00
       -2 -1    0    0    0  501 -0.0000000000e+00 -0.0000000000e+00 -1.0707798112e+03 1.0707798112e+03 0.0000000000e+00 0.0000e+00 -1.0000e+00
      -13  1    1    2    0    0 +2.2349562245e+01 -1.5502955714e+03 +1.3636804650e+03 2.0648341997e+03 0.0000000000e+00 0.0000e+00 -1.0000e+00
       13  1    1    2    0    0 -2.2349562245e+01 +1.5502955714e+03 +1.1425485799e+02 1.5546607457e+03 0.0000000000e+00 0.0000e+00 1.0000e+00
<mgrwt>
<rscale>  0 0.33040053E+04</rscale>
<asrwt>0</asrwt>
<pdfrwt beam="1">  1        2 0.39211002E+00 0.33040053E+04</pdfrwt>
<pdfrwt beam="2">  1       -2 0.16473536E+00 0.33040053E+04</pdfrwt>
<totfact> 0.73840956E-01</totfact>
</mgrwt>
<rwgt>
<wgt id='morphing_basis_vector_1'> +3.6156969e-05 </wgt>
<wgt id='morphing_basis_vector_2'> +3.3050467e-05 </wgt>
<wgt id='morphing_basis_vector_3'> +4.1370961e-05 </wgt>
<wgt id='morphing_basis_vector_4'> +1.7375333e-05 </wgt>
<wgt id='morphing_basis_vector_5'> +3.9741929e-05 </wgt>
</rwgt>
</event>
<event>
 4      1 +1.9882500e-09 3.36043100e+03 7.81860800e-03 7.66732800e-02
        2 -1    0    0  501    0 +0.0000000000e+00 +0.0000000000e+00 +3.4718419454e+03 3.4718419454e+03 0.0000000000e+00 0.0000e+00 1.0000e+00
       -2 -1    0    0    0  501 -0.0000000000e+00 -0.0000000000e+00 -8.1314897731e+02 8.1314897731e+02 0.0000000000e+00 0.0000e+00 -1.0000e+00
      -13  1    1    2    0    0 -5.3164499028e+02 -8.9952838597e+02 -3.4846989753e+02 1.1014667414e+03 0.0000000000e+00 0.0000e+00 -1.0000e+00
       13  1    1    2    0    0 +5.3164499028e+02 +8.9952838597e+02 +3.0071628656e+03 3.1835241814e+03 0.0000000000e+00 0.0000e+00 1.0000e+00
<mgrwt>
<rscale>  0 0.33604314E+04</rscale>
<asrwt>0</asrwt>
<pdfrwt beam="1">  1        2 0.53412952E+00 0.33604314E+04</pdfrwt>
<pdfrwt beam="2">  1       -2 0.12509985E+00 0.33604314E+04</pdfrwt>
<totfact> 0.39371171E-01</totfact>
</mgrwt>
<rwgt>
<wgt id='morphing_basis_vector_1'> +3.4624395e-05 </wgt>
<wgt id='morphing_basis_vector_2'> +2.3445757e-05 </wgt>
<wgt id='morphing_basis_vector_3'> +3.7867567e-05 </wgt>
<wgt id='morphing_basis_vector_4'> +2.7090315e-05 </wgt>
<wgt id='morphing_basis_vector_5'> +4.3249277e-05 </wgt>
</rwgt>
</event>
<event>
 4      1 +1.9882500e-09 3.50580400e+03 7.81860800e-03 7.63615000e-02
        2 -1    0    0  501    0 +0.0000000000e+00 +0.0000000000e+00 +1.9641667736e+03 1.9641667736e+03 0.0000000000e+00 0.0000e+00 -1.0000e+00
       -2 -1    0    0    0  501 -0.0000000000e+00 -0.0000000000e+00 -1.5643606312e+03 1.5643606312e+03 0.0000000000e+00 0.0000e+00 1.0000e+00
      -13  1    1    2    0    0 -5.7805249320e+02 -1.8209060049e+02 -1.4555569358e+03 1.5766888295e+03 0.0000000000e+00 0.0000e+00 1.0000e+00
       13  1    1    2    0    0 +5.7805249320e+02 +1.8209060049e+02 +1.8553630783e+03 1.9518385753e+03 0.0000000000e+00 0.0000e+00 -1.0000e+00
<mgrwt>
<rscale>  0 0.35058039E+04</rscale>
<asrwt>0</asrwt>
<pdfrwt beam="1">  1        2 0.30217950E+00 0.35058039E+04</pdfrwt>
<pdfrwt beam="2">  1       -2 0.24067087E+00 0.35058039E+04</pdfrwt>
<totfact> 0.43977047E-01</totfact>
</mgrwt>
<rwgt>
<wgt id='morphing_basis_vector_1'> +4.0944675e-05 </wgt>
<wgt id='morphing_basis_vector_2'> +2.7693040e-05 </wgt>
<wgt id='morphing_basis_vector_3'> +4.4817609e-05 </wgt>
<wgt id='morphing_basis_vector_4'> +3.2175231e-05 </wgt>
<wgt id='morphing_basis_vector_5'> +5.1295597e-05 </wgt>
</rwgt>
</event>
<event>
 4      1 +1.9882500e-09 3.37656600e+03 7.81860800e-03 7.66378900e-02
        2 -1    0    0  501    0 +0.0000000000e+00 +0.0000000000e+00 +3.4737353345e+03 3.4737353345e+03 0.0000000000e+00 0.0000e+00 -1.0000e+00
       -2 -1    0    0    0  501 -0.0000000000e+00 -0.0000000000e+00 -8.2052870043e+02 8.2052870043e+02 0.0000000000e+00 0.0000e+00 1.0000e+00
      -13  1    1    2    0    0 -1.3971890387e+03 -8.2687992189e+02 +7.3768072030e+02 1.7832667945e+03 0.0000000000e+00 0.0000e+00 1.0000e+00
       13  1    1    2    0    0 +1.3971890387e+03 +8.2687992189e+02 +1.9155259137e+03 2.5109972404e+03 0.0000000000e+00 0.0000e+00 -1.0000e+00
<mgrwt>
<rscale>  0 0.33765660E+04</rscale>
<asrwt>0</asrwt>
<pdfrwt beam="1">  1        2 0.53442081E+00 0.33765660E+04</pdfrwt>
<pdfrwt beam="2">  1       -2 0.12623519E+00 0.33765660E+04</pdfrwt>
<totfact> 0.38272265E-01</totfact>
</mgrwt>
<rwgt>
<wgt id='morphing_basis_vector_1'> +3.5718636e-05 </wgt>
<wgt id='morphing_basis_vector_2'> +2.5161238e-05 </wgt>
<wgt id='morphing_basis_vector_3'> +3.9279803e-05 </wgt>
<wgt id='morphing_basis_vector_4'> +2.6717241e-05 </wgt>
<wgt id='morphing_basis_vector_5'> +4.4017309e-05 </wgt>
</rwgt>
</event>
<event>
 4      1 +1.9882500e-09 3.47573700e+03 7.81860800e-03 7.64247000e-02
        2 -1    0    0  501    0 +0.0000000000e+00 +0.0000000000e+00 +4.1212983654e+03 4.1212983654e+03 0.0000000000e+00 0.0000e+00 -1.0000e+00
       -2 -1    0    0    0  501 -0.0000000000e+00 -0.0000000000e+00 -7.3282415578e+02 7.3282415578e+02 0.0000000000e+00 0.0000e+00 1.0000e+00
      -13  1    1    2    0    0 +1.4860566818e+03 +2.7749602312e+02 +4.9707252236e+02 1.5913672099e+03 0.0000000000e+00 0.0000e+00 1.0000e+00
       13  1    1    2    0    0 -1.4860566818e+03 -2.7749602312e+02 +2.8914016873e+03 3.2627553113e+03 0.0000000000e+00 0.0000e+00 -1.0000e+00
<mgrwt>
<rscale>  0 0.34757370E+04</rscale>
<asrwt>0</asrwt>
<pdfrwt beam="1">  1        2 0.63404589E+00 0.34757370E+04</pdfrwt>
<pdfrwt beam="2">  1       -2 0.11274218E+00 0.34757370E+04</pdfrwt>
<totfact> 0.15422395E-01</totfact>
</mgrwt>
<rwgt>
<wgt id='morphing_basis_vector_1'> +3.9749144e-05 </wgt>
<wgt id='morphing_basis_vector_2'> +2.7292925e-05 </wgt>
<wgt id='morphing_basis_vector_3'> +4.3589459e-05 </wgt>
<wgt id='morphing_basis_vector_4'> +3.0696402e-05 </wgt>
<wgt id='morphing_basis_vector_5'> +4.9515579e-05 </wgt>
</rwgt>
</event>
<event>
 4      1 +1.9882500e-09 3.64541100e+03 7.81860800e-03 7.60763700e-02
        2 -1    0    0  501    0 +0.0000000000e+00 +0.0000000000e+00 +3.3619363249e+03 3.3619363249e+03 0.0000000000e+00 0.0000e+00 -1.0000e+00
       -2 -1    0    0    0  501 -0.0000000000e+00 -0.0000000000e+00 -9.8819702629e+02 9.8819702629e+02 0.0000000000e+00 0.0000e+00 1.0000e+00
      -13  1    1    2    0    0 +4.5568870347e+02 +8.7123001650e+02 -6.4461502592e+02 1.1756795770e+03 0.0000000000e+00 0.0000e+00 1.0000e+00
       13  1    1    2    0    0 -4.5568870347e+02 -8.7123001650e+02 +3.0183543245e+03 3.1744537741e+03 0.0000000000e+00 0.0000e+00 -1.0000e+00
<mgrwt>
<rscale>  0 0.36454111E+04</rscale>
<asrwt>0</asrwt>
<pdfrwt beam="1">  1        2 0.51722097E+00 0.36454111E+04</pdfrwt>
<pdfrwt beam="2">  1       -2 0.15203031E+00 0.36454111E+04</pdfrwt>
<totfact> 0.26958580E-01</totfact>
</mgrwt>
<rwgt>
<wgt id='morphing_basis_vector_1'> +4.7831103e-05 </wgt>
<wgt id='morphing_basis_vector_2'> +3.2398193e-05 </wgt>
<wgt id='morphing_basis_vector_3'> +5.2410352e-05 </wgt>
<wgt id='morphing_basis_vector_4'> +3.7624314e-05 </wgt>
<wgt id='morphing_basis_vector_5'> +6.0023631e-05 </wgt>
</rwgt>
</event>
<event>
 4      1 +1.9882500e-09 3.84091300e+03 7.81860800e-03 7.56983200e-02
        2 -1    0    0  501    0 +0.0000000000e+00 +0.0000000000e+00 +3.1384201653e+03 3.1384201653e+03 0.0000000000e+00 0.0000e+00 1.0000e+00
       -2 -1    0    0    0  501 -0.0000000000e+00 -0.0000000000e+00 -1.1751620691e+03 1.1751620691e+03 0.0000000000e+00 0.0000e+00 -1.0000e+00
      -13  1    1    2    0    0 -4.1403040004e+02 -1.7268886146e+03 +1.6049736962e+02 1.7830661415e+03 0.0000000000e+00 0.0000e+00 -1.0000e+00
       13  1    1    2    0    0 +4.1403040004e+02 +1.7268886146e+03 +1.8027607266e+03 2.5305160930e+03 0.0000000000e+00 0.0000e+00 1.0000e+00
<mgrwt>
<rscale>  0 0.38409126E+04</rscale>
<asrwt>0</asrwt>
<pdfrwt beam="1">  1        2 0.48283387E+00 0.38409126E+04</pdfrwt>
<pdfrwt beam="2">  1       -2 0.18079417E+00 0.38409126E+04</pdfrwt>
<totfact> 0.22442092E-01</totfact>
</mgrwt>
<rwgt>
<wgt id='morphing_basis_vector_1'> +5.9330199e-05 </wgt>
<wgt id='morphing_basis_vector_2'> +4.1246502e-05 </wgt>
<wgt id='morphing_basis_vector_3'> +6.5313544e-05 </wgt>
<wgt id='morphing_basis_vector_4'> +4.5460641e-05 </wgt>
<wgt id='morphing_basis_vector_5'> +7.3980984e-05 </wgt>
</rwgt>
</event>
<event>
 4      1 +1.9882500e-09 3.31067100e+03 7.81860800e-03 7.67837500e-02
        2 -1    0    0  501    0 +0.0000000000e+00 +0.0000000000e+00 +3.1512086060e+03 3.1512086060e+03 0.0000000000e+00 0.0000e+00 -1.0000e+00
       -2 -1    0    0    0  501 -0.0000000000e+00 -0.0000000000e+00 -8.6955080766e+02 8.6955080766e+02 0.0000000000e+00 0.0000e+00 1.0000e+00
      -13  1    1    2    0    0 +1.3495012195e+03 -1.9685801717e+02 +1.3928364220e+00 1.3637846459e+03 0.0000000000e+00 0.0000e+00 1.0000e+00
       13  1    1    2    0    0 -1.3495012195e+03 +1.9685801717e+02 +2.2802649619e+03 2.6569747678e+03 0.0000000000e+00 0.0000e+00 -1.0000e+00
<mgrwt>
<rscale>  0 0.33106712E+04</rscale>
<asrwt>0</asrwt>
<pdfrwt beam="1">  1        2 0.48480132E+00 0.33106712E+04</pdfrwt>
<pdfrwt beam="2">  1       -2 0.13377705E+00 0.33106712E+04</pdfrwt>
<totfact> 0.55371673E-01</totfact>
</mgrwt>
<rwgt>
<wgt id='morphing_basis_vector_1'> +3.2714208e-05 </wgt>
<wgt id='morphing_basis_vector_2'> +2.2330481e-05 </wgt>
<wgt id='morphing_basis_vector_3'> +3.5803477e-05 </wgt>
<wgt id='morphing_basis_vector_4'> +2.5340219e-05 </wgt>
<wgt id='morphing_basis_vector_5'> +4.0712477e-05 </wgt>
</rwgt>
</event>
<event>
 4      1 +1.9882500e-09 3.24115300e+03 7.81860800e-03 7.69414700e-02
        2 -1    0    0  501    0 +0.0000000000e+00 +0.0000000000e+00 +1.8740876419e+03 1.8740876419e+03 0.0000000000e+00 0.0000e+00 -1.0000e+00
       -2 -1    0    0    0  501 -0.0000000000e+00 -0.0000000000e+00 -1.4013585684e+03 1.4013585684e+03 0.0000000000e+00 0.0000e+00 1.0000e+00
      -13  1    1    2    0    0 -4.8974672226e+02 -1.4136898855e+03 -3.9303956141e+02 1.5468843012e+03 0.0000000000e+00 0.0000e+00 1.0000e+00
       13  1    1    2    0    0 +4.8974672226e+02 +1.4136898855e+03 +8.6576863495e+02 1.7285619091e+03 0.0000000000e+00 0.0000e+00 -1.0000e+00
<mgrwt>
<rscale>  0 0.32411534E+04</rscale>
<asrwt>0</asrwt>
<pdfrwt beam="1">  1        2 0.28832118E+00 0.32411534E+04</pdfrwt>
<pdfrwt beam="2">  1       -2 0.21559362E+00 0.32411534E+04</pdfrwt>
<totfact> 0.75806105E-01</totfact>
</mgrwt>
<rwgt>
<wgt id='morphing_basis_vector_1'> +3.0215257e-05 </wgt>
<wgt id='morphing_basis_vector_2'> +2.0942421e-05 </wgt>
<wgt id='morphing_basis_vector_3'> +3.3118201e-05 </wgt>
<wgt id='morphing_basis_vector_4'> +2.2962284e-05 </wgt>
<wgt id='morphing_basis_vector_5'> +3.7350728e-05 </wgt>
</rwgt>
</event>
<event>
 4      1 +1.9882500e-09 3.39774600e+03 7.81860800e-03 7.65917300e-02
        2 -1    0    0  501    0 +0.0000000000e+00 +0.0000000000e+00 +1.2952330078e+03 1.2952330078e+03 0.0000000000e+00 0.0000e+00 -1.0000e+00
       -2 -1    0    0    0  501 -0.0000000000e+00 -0.0000000000e+00 -2.2283007147e+03 2.2283007147e+03 0.0000000000e+00 0.0000e+00 1.0000e+00
      -13  1    1    2    0    0 -1.1723740566e+03 +6.5365508028e+02 +6.1338444191e+02 1.4757934700e+03 0.0000000000e+00 0.0000e+00 1.0000e+00
       13  1    1    2    0    0 +1.1723740566e+03 -6.5365508028e+02 -1.5464521489e+03 2.0477402524e+03 0.0000000000e+00 0.0000e+00 -1.0000e+00
<mgrwt>
<rscale>  0 0.33977455E+04</rscale>
<asrwt>0</asrwt>
<pdfrwt beam="1">  1        2 0.19926662E+00 0.33977455E+04</pdfrwt>
<pdfrwt beam="2">  1       -2 0.34281549E+00 0.33977455E+04</pdfrwt>
<totfact> 0.21424226E-01</totfact>
</mgrwt>
<rwgt>
<wgt id='morphing_basis_vector_1'> +4.4955257e-05 </wgt>
<wgt id='morphing_basis_vector_2'> +5.0330391e-05 </wgt>
<wgt id='morphing_basis_vector_3'> +5.3490323e-05 </wgt>
<wgt id='morphing_basis_vector_4'> +9.8984029e-06 </wgt>
<wgt id='morphing_basis_vector_5'> +4.3691729e-05 </wgt>
</rwgt>
</event>
<event>
 4      1 +1.9882500e-09 3.52301500e+03 7.81860800e-03 7.63256200e-02
        2 -1    0    0  501    0 +0.0000000000e+00 +0.0000000000e+00 +3.0779391384e+03 3.0779391384e+03 0.0000000000e+00 0.0000e+00 -1.0000e+00
       -2 -1    0    0    0  501 -0.0000000000e+00 -0.0000000000e+00 -1.0081125511e+03 1.0081125511e+03 0.0000000000e+00 0.0000e+00 1.0000e+00
      -13  1    1    2    0    0 -7.4803949979e+02 +1.2549724388e+03 -1.0642534474e+02 1.4648703934e+03 0.0000000000e+00 0.0000e+00 1.0000e+00
       13  1    1    2    0    0 +7.4803949979e+02 -1.2549724388e+03 +2.1762519321e+03 2.6211812961e+03 0.0000000000e+00 0.0000e+00 -1.0000e+00
<mgrwt>
<rscale>  0 0.35230152E+04</rscale>
<asrwt>0</asrwt>
<pdfrwt beam="1">  1        2 0.47352909E+00 0.35230152E+04</pdfrwt>
<pdfrwt beam="2">  1       -2 0.15509424E+00 0.35230152E+04</pdfrwt>
<totfact> 0.40198563E-01</totfact>
</mgrwt>
<rwgt>
<wgt id='morphing_basis_vector_1'> +4.1882920e-05 </wgt>
<wgt id='morphing_basis_vector_2'> +2.8632623e-05 </wgt>
<wgt id='morphing_basis_vector_3'> +4.5916318e-05 </wgt>
<wgt id='morphing_basis_vector_4'> +3.2534688e-05 </wgt>
<wgt id='morphing_basis_vector_5'> +5.2293660e-05 </wgt>
</rwgt>
</event>
<event>
 4      1 +1.9882500e-09 3.40995100e+03 7.81860800e-03 7.65652900e-02
        2 -1    0    0  501    0 +0.0000000000e+00 +0.0000000000e+00 +1.8522626159e+03 1.8522626159e+03 0.0000000000e+00 0.0000e+00 -1.0000e+00
       -2 -1    0    0    0  501 -0.0000000000e+00 -0.0000000000e+00 -1.5694005305e+03 1.5694005305e+03 0.0000000000e+00 0.0000e+00 1.0000e+00
      -13  1    1    2    0    0 +1.3763126458e+03 -3.7559341831e+02 -7.9538951607e+02 1.6333864813e+03 0.0000000000e+00 0.0000e+00 1.0000e+00
       13  1    1    2    0    0 -1.3763126458e+03 +3.7559341831e+02 +1.0782516015e+03 1.7882766651e+03 0.0000000000e+00 0.0000e+00 -1.0000e+00
<mgrwt>
<rscale>  0 0.34099513E+04</rscale>
<asrwt>0</asrwt>
<pdfrwt beam="1">  1        2 0.28496348E+00 0.34099513E+04</pdfrwt>
<pdfrwt beam="2">  1       -2 0.24144623E+00 0.34099513E+04</pdfrwt>
<totfact> 0.50571348E-01</totfact>
</mgrwt>
<rwgt>
<wgt id='morphing_basis_vector_1'> +3.6800117e-05 </wgt>
<wgt id='morphing_basis_vector_2'> +2.5162136e-05 </wgt>
<wgt id='morphing_basis_vector_3'> +4.0314129e-05 </wgt>
<wgt id='morphing_basis_vector_4'> +2.8514644e-05 </wgt>
<wgt id='morphing_basis_vector_5'> +4.5855968e-05 </wgt>
</rwgt>
</event>
<event>
 4      1 +1.9882500e-09 3.54051100e+03 7.81860800e-03 7.62893600e-02
        2 -1    0    0  501    0 +0.0000000000e+00 +0.0000000000e+00 +2.1816902073e+03 2.1816902073e+03 0.0000000000e+00 0.0000e+00 1.0000e+00
       -2 -1    0    0    0  501 -0.0000000000e+00 -0.0000000000e+00 -1.4364115024e+03 1.4364115024e+03 0.0000000000e+00 0.0000e+00 -1.0000e+00
      -13  1    1    2    0    0 +1.4569985066e+02 +1.7486310929e+03 +1.3327167398e+02 1.7597444373e+03 0.0000000000e+00 0.0000e+00 -1.0000e+00
       13  1    1    2    0    0 -1.4569985066e+02 -1.7486310929e+03 +6.1200703088e+02 1.8583572723e+03 0.0000000000e+00 0.0000e+00 1.0000e+00
<mgrwt>
<rscale>  0 0.35405112E+04</rscale>
<asrwt>0</asrwt>
<pdfrwt beam="1">  1        2 0.33564465E+00 0.35405112E+04</pdfrwt>
<pdfrwt beam="2">  1       -2 0.22098638E+00 0.35405112E+04</pdfrwt>
<totfact> 0.45392406E-01</totfact>
</mgrwt>
<rwgt>
<wgt id='morphing_basis_vector_1'> +4.3535806e-05 </wgt>
<wgt id='morphing_basis_vector_2'> +3.1616753e-05 </wgt>
<wgt id='morphing_basis_vector_3'> +4.8139429e-05 </wgt>
<wgt id='morphing_basis_vector_4'> +3.1464642e-05 </wgt>
<wgt id='morphing_basis_vector_5'> +5.3203914e-05 </wgt>
</rwgt>
</event>
<event>
 4      1 +1.9882500e-09 3.25139900e+03 7.81860800e-03 7.69179700e-02
        2 -1    0    0  501    0 +0.0000000000e+00 +0.0000000000e+00 +2.8310063790e+03 2.8310063790e+03 0.0000000000e+00 0.0000e+00 -1.0000e+00
       -2 -1    0    0    0  501 -0.0000000000e+00 -0.0000000000e+00 -9.3355451826e+02 9.3355451826e+02 0.0000000000e+00 0.0000e+00 1.0000e+00
      -13  1    1    2    0    0 +3.4147552871e+02 +1.5688908890e+03 +6.5382133604e+02 1.7336396678e+03 0.0000000000e+00 0.0000e+00 1.0000e+00
       13  1    1    2    0    0 -3.4147552871e+02 -1.5688908890e+03 +1.2436305247e+03 2.0309212295e+03 0.0000000000e+00 0.0000e+00 -1.0000e+00
<mgrwt>
<rscale>  0 0.32513990E+04</rscale>
<asrwt>0</asrwt>
<pdfrwt beam="1">  1        2 0.43553944E+00 0.32513990E+04</pdfrwt>
<pdfrwt beam="2">  1       -2 0.14362377E+00 0.32513990E+04</pdfrwt>
<totfact> 0.73908185E-01</totfact>
</mgrwt>
<rwgt>
<wgt id='morphing_basis_vector_1'> +3.0978245e-05 </wgt>
<wgt id='morphing_basis_vector_2'> +2.2332237e-05 </wgt>
<wgt id='morphing_basis_vector_3'> +3.4141964e-05 </wgt>
<wgt id='morphing_basis_vector_4'> +2.2456288e-05 </wgt>
<wgt id='morphing_basis_vector_5'> +3.7762805e-05 </wgt>
</rwgt>
</event>
<event>
 4      1 +1.9882500e-09 3.27650000e+03 7.81860800e-03 7.68607700e-02
        2 -1    0    0  501    0 +0.0000000000e+00 +0.0000000000e+00 +3.5639663012e+03 3.5639663012e+03 0.0000000000e+00 0.0000e+00 1.0000e+00
       -2 -1    0    0    0  501 -0.0000000000e+00 -0.0000000000e+00 -7.5305524076e+02 7.5305524076e+02 0.0000000000e+00 0.0000e+00 -1.0000e+00
      -13  1    1    2    0    0 -6.8547028259e+00 -1.6018181600e+03 +9.5286445268e+02 1.8638184111e+03 0.0000000000e+00 0.0000e+00 -1.0000e+00
       13  1    1    2    0    0 +6.8547028259e+00 +1.6018181600e+03 +1.8580466078e+03 2.4532031309e+03 0.0000000000e+00 0.0000e+00 1.0000e+00
<mgrwt>
<rscale>  0 0.32765003E+04</rscale>
<asrwt>0</asrwt>
<pdfrwt beam="1">  1        2 0.54830250E+00 0.32765003E+04</pdfrwt>
<pdfrwt beam="2">  1       -2 0.11585466E+00 0.32765003E+04</pdfrwt>
<totfact> 0.41425093E-01</totfact>
</mgrwt>
<rwgt>
<wgt id='morphing_basis_vector_1'> +3.1817840e-05 </wgt>
<wgt id='morphing_basis_vector_2'> +2.2672352e-05 </wgt>
<wgt id='morphing_basis_vector_3'> +3.5017948e-05 </wgt>
<wgt id='morphing_basis_vector_4'> +2.3415617e-05 </wgt>
<wgt id='morphing_basis_vector_5'> +3.8972295e-05 </wgt>
</rwgt>
</event>
<event>
 4      1 +1.9882500e-09 3.28258500e+03 7.81860800e-03 7.68469900e-02
        2 -1    0    0  501    0 +0.0000000000e+00 +0.0000000000e+00 +2.1103564099e+03 2.1103564099e+03 0.0000000000e+00 0.0000e+00 1.0000e+00
       -2 -1    0    0    0  501 -0.0000000000e+00 -0.0000000000e+00 -1.2764862470e+03 1.2764862470e+03 0.0000000000e+00 0.0000e+00 -1.0000e+00
      -13  1    1    2    0    0 +8.3951168990e+02 -1.2576215158e+03 -2.4165589357e+02 1.5312704938e+03 0.0000000000e+00 0.0000e+00 -1.0000e+00
       13  1    1    2    0    0 -8.3951168990e+02 +1.2576215158e+03 +1.0755260564e+03 1.8555721631e+03 0.0000000000e+00 0.0000e+00 1.0000e+00
<mgrwt>
<rscale>  0 0.32825849E+04</rscale>
<asrwt>0</asrwt>
<pdfrwt beam="1">  1        2 0.32467022E+00 0.32825849E+04</pdfrwt>
<pdfrwt beam="2">  1       -2 0.19638250E+00 0.32825849E+04</pdfrwt>
<totfact> 0.76601699E-01</totfact>
</mgrwt>
<rwgt>
<wgt id='morphing_basis_vector_1'> +3.1772487e-05 </wgt>
<wgt id='morphing_basis_vector_2'> +2.2014988e-05 </wgt>
<wgt id='morphing_basis_vector_3'> +3.4835501e-05 </wgt>
<wgt id='morphing_basis_vector_4'> +2.4178918e-05 </wgt>
<wgt id='morphing_basis_vector_5'> +3.9313289e-05 </wgt>
</rwgt>
</event>
<event>
 4      1 +1.9882500e-09 3.21913100e+03 7.81860800e-03 7.69922900e-02
        2 -1    0    0  501    0 +0.0000000000e+00 +0.0000000000e+00 +2.4130216280e+03 2.4130216280e+03 0.0000000000e+00 0.0000e+00 -1.0000e+00
       -2 -1    0    0    0  501 -0.0000000000e+00 -0.0000000000e+00 -1.0736338086e+03 1.0736338086e+03 0.0000000000e+00 0.0000e+00 1.0000e+00
      -13  1    1    2    0    0 +1.4127427349e+03 -1.0313605651e+02 -1.5817101993e+02 1.4253059857e+03 0.0000000000e+00 0.0000e+00 1.0000e+00
       13  1    1    2    0    0 -1.4127427349e+03 +1.0313605651e+02 +1.4975588394e+03 2.0613494509e+03 0.0000000000e+00 0.0000e+00 -1.0000e+00
<mgrwt>
<rscale>  0 0.32191313E+04</rscale>
<asrwt>0</asrwt>
<pdfrwt beam="1">  1        2 0.37123410E+00 0.32191313E+04</pdfrwt>
<pdfrwt beam="2">  1       -2 0.16517443E+00 0.32191313E+04</pdfrwt>
<totfact> 0.88862645E-01</totfact>
</mgrwt>
<rwgt>
<wgt id='morphing_basis_vector_1'> +2.9327074e-05 </wgt>
<wgt id='morphing_basis_vector_2'> +2.0140676e-05 </wgt>
<wgt id='morphing_basis_vector_3'> +3.2098874e-05 </wgt>
<wgt id='morphing_basis_vector_4'> +2.2510745e-05 </wgt>
<wgt id='morphing_basis_vector_5'> +3.6352446e-05 </wgt>
</rwgt>
</event>
<event>
 4      1 +1.9882500e-09 3.34288200e+03 7.81860800e-03 7.67120200e-02
        2 -1    0    0  501    0 +0.0000000000e+00 +0.0000000000e+00 +2.6779555580e+03 2.6779555580e+03 0.0000000000e+00 0.0000e+00 1.0000e+00
       -2 -1    0    0    0  501 -0.0000000000e+00 -0.0000000000e+00 -1.0432270681e+03 1.0432270681e+03 0.0000000000e+00 0.0000e+00 -1.0000e+00
      -13  1    1    2    0    0 +4.2632605887e+02 +1.1499749756e+03 -4.4671359561e+02 1.3052775144e+03 0.0000000000e+00 0.0000e+00 -1.0000e+00
       13  1    1    2    0    0 -4.2632605887e+02 -1.1499749756e+03 +2.0814420856e+03 2.4159051117e+03 0.0000000000e+00 0.0000e+00 1.0000e+00
<mgrwt>
<rscale>  0 0.33428824E+04</rscale>
<asrwt>0</asrwt>
<pdfrwt beam="1">  1        2 0.41199316E+00 0.33428824E+04</pdfrwt>
<pdfrwt beam="2">  1       -2 0.16049647E+00 0.33428824E+04</pdfrwt>
<totfact> 0.66366492E-01</totfact>
</mgrwt>
<rwgt>
<wgt id='morphing_basis_vector_1'> +3.3941713e-05 </wgt>
<wgt id='morphing_basis_vector_2'> +2.3048814e-05 </wgt>
<wgt id='morphing_basis_vector_3'> +3.7130227e-05 </wgt>
<wgt id='morphing_basis_vector_4'> +2.6462600e-05 </wgt>
<wgt id='morphing_basis_vector_5'> +4.2341455e-05 </wgt>
</rwgt>
</event>
<event>
 4      1 +1.9882500e-09 3.31488300e+03 7.81860800e-03 7.67743200e-02
        2 -1    0    0  501    0 +0.0000000000e+00 +0.0000000000e+00 +2.6463061217e+03 2.6463061217e+03 0.0000000000e+00 0.0000e+00 -1.0000e+00
       -2 -1    0    0    0  501 -0.0000000000e+00 -0.0000000000e+00 -1.0380933120e+03 1.0380933120e+03 0.0000000000e+00 0.0000e+00 1.0000e+00
      -13  1    1    2    0    0 +4.7002216617e+02 -8.4805003512e+02 -6.8998755236e+02 1.1900388738e+03 0.0000000000e+00 0.0000e+00 1.0000e+00
       13  1    1    2    0    0 -4.7002216617e+02 +8.4805003512e+02 +2.2982003621e+03 2.4943605599e+03 0.0000000000e+00 0.0000e+00 -1.0000e+00
<mgrwt>
<rscale>  0 0.33148832E+04</rscale>
<asrwt>0</asrwt>
<pdfrwt beam="1">  1        2 0.40712402E+00 0.33148832E+04</pdfrwt>
<pdfrwt beam="2">  1       -2 0.15970666E+00 0.33148832E+04</pdfrwt>
<totfact> 0.70580164E-01</totfact>
</mgrwt>
<rwgt>
<wgt id='morphing_basis_vector_1'> +3.2792925e-05 </wgt>
<wgt id='morphing_basis_vector_2'> +2.2188448e-05 </wgt>
<wgt id='morphing_basis_vector_3'> +3.5848623e-05 </wgt>
<wgt id='morphing_basis_vector_4'> +2.5652323e-05 </wgt>
<wgt id='morphing_basis_vector_5'> +4.0936608e-05 </wgt>
</rwgt>
</event>
<event>
 4      1 +1.9882500e-09 3.51230400e+03 7.81860800e-03 7.63479300e-02
        2 -1    0    0  501    0 +0.0000000000e+00 +0.0000000000e+00 +2.9478597180e+03 2.9478597180e+03 0.0000000000e+00 0.0000e+00 1.0000e+00
       -2 -1    0    0    0  501 -0.0000000000e+00 -0.0000000000e+00 -1.0462064944e+03 1.0462064944e+03 0.0000000000e+00 0.0000e+00 -1.0000e+00
      -13  1    1    2    0    0 +1.4449209582e+03 +8.4865703340e+01 +2.0817597624e+03 2.5354925501e+03 0.0000000000e+00 0.0000e+00 -1.0000e+00
       13  1    1    2    0    0 -1.4449209582e+03 -8.4865703340e+01 -1.8010653879e+02 1.4585736623e+03 0.0000000000e+00 0.0000e+00 1.0000e+00
<mgrwt>
<rscale>  0 0.35123041E+04</rscale>
<asrwt>0</asrwt>
<pdfrwt beam="1">  1        2 0.45351688E+00 0.35123041E+04</pdfrwt>
<pdfrwt beam="2">  1       -2 0.16095485E+00 0.35123041E+04</pdfrwt>
<totfact> 0.43886384E-01</totfact>
</mgrwt>
<rwgt>
<wgt id='morphing_basis_vector_1'> +5.0259340e-05 </wgt>
<wgt id='morphing_basis_vector_2'> +5.4408573e-05 </wgt>
<wgt id='morphing_basis_vector_3'> +5.9474897e-05 </wgt>
<wgt id='morphing_basis_vector_4'> +1.3467880e-05 </wgt>
<wgt id='morphing_basis_vector_5'> +5.0109079e-05 </wgt>
</rwgt>
</event>
<event>
 4      1 +1.9882500e-09 3.46335000e+03 7.81860800e-03 7.64509300e-02
        2 -1    0    0  501    0 +0.0000000000e+00 +0.0000000000e+00 +2.6032432840e+03 2.6032432840e+03 0.0000000000e+00 0.0000e+00 -1.0000e+00
       -2 -1    0    0    0  501 -0.0000000000e+00 -0.0000000000e+00 -1.1519083026e+03 1.1519083026e+03 0.0000000000e+00 0.0000e+00 1.0000e+00
      -13  1    1    2    0    0 +2.5325857265e+02 -1.3593072332e+03 -4.0468592297e+02 1.4407035625e+03 0.0000000000e+00 0.0000e+00 1.0000e+00
       13  1    1    2    0    0 -2.5325857265e+02 +1.3593072332e+03 +1.8560209044e+03 2.3144480241e+03 0.0000000000e+00 0.0000e+00 -1.0000e+00
<mgrwt>
<rscale>  0 0.34633496E+04</rscale>
<asrwt>0</asrwt>
<pdfrwt beam="1">  1        2 0.40049896E+00 0.34633496E+04</pdfrwt>
<pdfrwt beam="2">  1       -2 0.17721666E+00 0.34633496E+04</pdfrwt>
<totfact> 0.54025141E-01</totfact>
</mgrwt>
<rwgt>
<wgt id='morphing_basis_vector_1'> +3.9105866e-05 </wgt>
<wgt id='morphing_basis_vector_2'> +2.6661515e-05 </wgt>
<wgt id='morphing_basis_vector_3'> +4.2839125e-05 </wgt>
<wgt id='morphing_basis_vector_4'> +3.0433658e-05 </wgt>
<wgt id='morphing_basis_vector_5'> +4.8823372e-05 </wgt>
</rwgt>
</event>
<event>
 4      1 +1.9882500e-09 3.48329100e+03 7.81860800e-03 7.64087600e-02
        2 -1    0    0  501    0 +0.0000000000e+00 +0.0000000000e+00 +2.4899728789e+03 2.4899728789e+03 0.0000000000e+00 0.0000e+00 1.0000e+00
       -2 -1    0    0    0  501 -0.0000000000e+00 -0.0000000000e+00 -1.2182173665e+03 1.2182173665e+03 0.0000000000e+00 0.0000e+00 -1.0000e+00
      -13  1    1    2    0    0 -1.5476100020e+02 +4.0962576667e+02 -1.1586598210e+03 1.2386431353e+03 0.0000000000e+00 0.0000e+00 -1.0000e+00
       13  1    1    2    0    0 +1.5476100020e+02 -4.0962576667e+02 +2.4304153334e+03 2.4695471100e+03 0.0000000000e+00 0.0000e+00 1.0000e+00
<mgrwt>
<rscale>  0 0.34832905E+04</rscale>
<asrwt>0</asrwt>
<pdfrwt beam="1">  1        2 0.38307275E+00 0.34832905E+04</pdfrwt>
<pdfrwt beam="2">  1       -2 0.18741806E+00 0.34832905E+04</pdfrwt>
<totfact> 0.52842567E-01</totfact>
</mgrwt>
<rwgt>
<wgt id='morphing_basis_vector_1'> +3.9908702e-05 </wgt>
<wgt id='morphing_basis_vector_2'> +2.6986800e-05 </wgt>
<wgt id='morphing_basis_vector_3'> +4.3676028e-05 </wgt>
<wgt id='morphing_basis_vector_4'> +3.1354094e-05 </wgt>
<wgt id='morphing_basis_vector_5'> +4.9982428e-05 </wgt>
</rwgt>
</event>
<event>
 4      1 +1.9882500e-09 3.40107300e+03 7.81860800e-03 7.65845100e-02
        2 -1    0    0  501    0 +0.0000000000e+00 +0.0000000000e+00 +1.3283177241e+03 1.3283177241e+03 0.0000000000e+00 0.0000e+00 -1.0000e+00
       -2 -1    0    0    0  501 -0.0000000000e+00 -0.0000000000e+00 -2.1770581999e+03 2.1770581999e+03 0.0000000000e+00 0.0000e+00 1.0000e+00
      -13  1    1    2    0    0 -1.3132627504e+03 +8.9807491490e+02 -1.0433093877e+03 1.9025488385e+03 0.0000000000e+00 0.0000e+00 1.0000e+00
       13  1    1    2    0    0 +1.3132627504e+03 -8.9807491490e+02 +1.9456891198e+02 1.6028270855e+03 0.0000000000e+00 0.0000e+00 -1.0000e+00
<mgrwt>
<rscale>  0 0.34010734E+04</rscale>
<asrwt>0</asrwt>
<pdfrwt beam="1">  1        2 0.20435657E+00 0.34010734E+04</pdfrwt>
<pdfrwt beam="2">  1       -2 0.33493203E+00 0.34010734E+04</pdfrwt>
<totfact> 0.23107835E-01</totfact>
</mgrwt>
<rwgt>
<wgt id='morphing_basis_vector_1'> +3.6625781e-05 </wgt>
<wgt id='morphing_basis_vector_2'> +2.5504233e-05 </wgt>
<wgt id='morphing_basis_vector_3'> +4.0220616e-05 </wgt>
<wgt id='morphing_basis_vector_4'> +2.7787184e-05 </wgt>
<wgt id='morphing_basis_vector_5'> +4.5341474e-05 </wgt>
</rwgt>
</event>
<event>
 4      1 +1.9882500e-09 3.30197500e+03 7.81860800e-03 7.68032600e-02
        2 -1    0    0  501    0 +0.0000000000e+00 +0.0000000000e+00 +9.7904896445e+02 9.7904896445e+02 0.0000000000e+00 0.0000e+00 1.0000e+00
       -2 -1    0    0    0  501 -0.0000000000e+00 -0.0000000000e+00 -2.7840893934e+03 2.7840893934e+03 0.0000000000e+00 0.0000e+00 -1.0000e+00
      -13  1    1    2    0    0 +1.3792816195e+03 +8.9000412605e+01 -1.9316433380e+03 2.3752020639e+03 0.0000000000e+00 0.0000e+00 -1.0000e+00
       13  1    1    2    0    0 -1.3792816195e+03 -8.9000412605e+01 +1.2660290906e+02 1.3879362939e+03 0.0000000000e+00 0.0000e+00 1.0000e+00
<mgrwt>
<rscale>  0 0.33019751E+04</rscale>
<asrwt>0</asrwt>
<pdfrwt beam="1">  1        2 0.15062292E+00 0.33019751E+04</pdfrwt>
<pdfrwt beam="2">  1       -2 0.42832144E+00 0.33019751E+04</pdfrwt>
<totfact> 0.92464556E-02</totfact>
</mgrwt>
<rwgt>
<wgt id='morphing_basis_vector_1'> +3.2386434e-05 </wgt>
<wgt id='morphing_basis_vector_2'> +2.2132947e-05 </wgt>
<wgt id='morphing_basis_vector_3'> +3.5447992e-05 </wgt>
<wgt id='morphing_basis_vector_4'> +2.5047909e-05 </wgt>
<wgt id='morphing_basis_vector_5'> +4.0281231e-05 </wgt>
</rwgt>
</event>
<event>
 4      1 +1.9882500e-09 3.41261400e+03 7.81860800e-03 7.65595300e-02
        2 -1    0    0  501    0 +0.0000000000e+00 +0.0000000000e+00 +2.5194974421e+03 2.5194974421e+03 0.0000000000e+00 0.0000e+00 -1.0000e+00
       -2 -1    0    0    0  501 -0.0000000000e+00 -0.0000000000e+00 -1.1555810321e+03 1.1555810321e+03 0.0000000000e+00 0.0000e+00 1.0000e+00
      -13  1    1    2    0    0 -1.0678971524e+03 -2.8316697687e+02 +2.0823122617e+03 2.3572467457e+03 0.0000000000e+00 0.0000e+00 1.0000e+00
       13  1    1    2    0    0 +1.0678971524e+03 +2.8316697687e+02 -7.1839585170e+02 1.3178317285e+03 0.0000000000e+00 0.0000e+00 -1.0000e+00
<mgrwt>
<rscale>  0 0.34126139E+04</rscale>
<asrwt>0</asrwt>
<pdfrwt beam="1">  1        2 0.38761499E+00 0.34126139E+04</pdfrwt>
<pdfrwt beam="2">  1       -2 0.17778170E+00 0.34126139E+04</pdfrwt>
<totfact> 0.60338924E-01</totfact>
</mgrwt>
<rwgt>
<wgt id='morphing_basis_vector_1'> +4.8488340e-05 </wgt>
<wgt id='morphing_basis_vector_2'> +5.9292977e-05 </wgt>
<wgt id='morphing_basis_vector_3'> +5.8791027e-05 </wgt>
<wgt id='morphing_basis_vector_4'> +4.3080532e-06 </wgt>
<wgt id='morphing_basis_vector_5'> +4.3989286e-05 </wgt>
</rwgt>
</event>
<event>
 4      1 +1.9882500e-09 3.79643200e+03 7.81860800e-03 7.57822800e-02
        2 -1    0    0  501    0 +0.0000000000e+00 +0.0000000000e+00 +3.8391371722e+03 3.8391371722e+03 0.0000000000e+00 0.0000e+00 -1.0000e+00
       -2 -1    0    0    0  501 -0.0000000000e+00 -0.0000000000e+00 -9.3855059472e+02 9.3855059472e+02 0.0000000000e+00 0.0000e+00 1.0000e+00
      -13  1    1    2    0    0 +1.6753703087e+03 -2.6629540280e+01 +3.2775011512e+02 1.7073356266e+03 0.0000000000e+00 0.0000e+00 1.0000e+00
       13  1    1    2    0    0 -1.6753703087e+03 +2.6629540280e+01 +2.5728364624e+03 3.0703521404e+03 0.0000000000e+00 0.0000e+00 -1.0000e+00
<mgrwt>
<rscale>  0 0.37964323E+04</rscale>
<asrwt>0</asrwt>
<pdfrwt beam="1">  1        2 0.59063648E+00 0.37964323E+04</pdfrwt>
<pdfrwt beam="2">  1       -2 0.14439240E+00 0.37964323E+04</pdfrwt>
<totfact> 0.13451213E-01</totfact>
</mgrwt>
<rwgt>
<wgt id='morphing_basis_vector_1'> +5.6486703e-05 </wgt>
<wgt id='morphing_basis_vector_2'> +3.8910464e-05 </wgt>
<wgt id='morphing_basis_vector_3'> +6.2089302e-05 </wgt>
<wgt id='morphing_basis_vector_4'> +4.3712477e-05 </wgt>
<wgt id='morphing_basis_vector_5'> +7.0622786e-05 </wgt>
</rwgt>
</event>
<event>
 4      1 +1.9882500e-09 3.39069200e+03 7.81860800e-03 7.66070600e-02
        2 -1    0    0  501    0 +0.0000000000e+00 +0.0000000000e+00 +1.9828811746e+03 1.9828811746e+03 0.0000000000e+00 0.0000e+00 -1.0000e+00
       -2 -1    0    0    0  501 -0.0000000000e+00 -0.0000000000e+00 -1.4495056831e+03 1.4495056831e+03 0.0000000000e+00 0.0000e+00 1.0000e+00
      -13  1    1    2    0    0 -1.4110484180e+03 -5.9062450234e+02 -4.7326088142e+02 1.6012091689e+03 0.0000000000e+00 0.0000e+00 1.0000e+00
       13  1    1    2    0    0 +1.4110484180e+03 +5.9062450234e+02 +1.0066363729e+03 1.8311776888e+03 0.0000000000e+00 0.0000e+00 -1.0000e+00
<mgrwt>
<rscale>  0 0.33906917E+04</rscale>
<asrwt>0</asrwt>
<pdfrwt beam="1">  1        2 0.30505864E+00 0.33906917E+04</pdfrwt>
<pdfrwt beam="2">  1       -2 0.22300088E+00 0.33906917E+04</pdfrwt>
<totfact> 0.57648710E-01</totfact>
</mgrwt>
<rwgt>
<wgt id='morphing_basis_vector_1'> +3.6084813e-05 </wgt>
<wgt id='morphing_basis_vector_2'> +2.4904039e-05 </wgt>
<wgt id='morphing_basis_vector_3'> +3.9575110e-05 </wgt>
<wgt id='morphing_basis_vector_4'> +2.7654856e-05 </wgt>
<wgt id='morphing_basis_vector_5'> +4.4803802e-05 </wgt>
</rwgt>
</event>
<event>
 4      1 +1.9882500e-09 3.44957600e+03 7.81860800e-03 7.64802200e-02
        2 -1    0    0  501    0 +0.0000000000e+00 +0.0000000000e+00 +1.0848590234e+03 1.0848590234e+03 0.0000000000e+00 0.0000e+00 1.0000e+00
       -2 -1    0    0    0  501 -0.0000000000e+00 -0.0000000000e+00 -2.7421941072e+03 2.7421941072e+03 0.0000000000e+00 0.0000e+00 -1.0000e+00
      -13  1    1    2    0    0 +4.5797778096e+02 -1.5969077867e+03 -3.1420444743e+02 1.6907343263e+03 0.0000000000e+00 0.0000e+00 1.0000e+00
       13  1    1    2    0    0 -4.5797778096e+02 +1.5969077867e+03 -1.3431306364e+03 2.1363188043e+03 0.0000000000e+00 0.0000e+00 -1.0000e+00
<mgrwt>
<rscale>  0 0.34495762E+04</rscale>
<asrwt>0</asrwt>
<pdfrwt beam="1">  1        2 0.16690139E+00 0.34495762E+04</pdfrwt>
<pdfrwt beam="2">  1       -2 0.42187602E+00 0.34495762E+04</pdfrwt>
<totfact> 0.86848541E-02</totfact>
</mgrwt>
<rwgt>
<wgt id='morphing_basis_vector_1'> +4.1939418e-05 </wgt>
<wgt id='morphing_basis_vector_2'> +3.6384082e-05 </wgt>
<wgt id='morphing_basis_vector_3'> +4.7633584e-05 </wgt>
<wgt id='morphing_basis_vector_4'> +2.2707459e-05 </wgt>
<wgt id='morphing_basis_vector_5'> +4.7446505e-05 </wgt>
</rwgt>
</event>
<event>
 4      1 +1.9882500e-09 3.36197200e+03 7.81860800e-03 7.66698900e-02
        2 -1    0    0  501    0 +0.0000000000e+00 +0.0000000000e+00 +1.7364132793e+03 1.7364132793e+03 0.0000000000e+00 0.0000e+00 -1.0000e+00
       -2 -1    0    0    0  501 -0.0000000000e+00 -0.0000000000e+00 -1.6273276900e+03 1.6273276900e+03 0.0000000000e+00 0.0000e+00 1.0000e+00
      -13  1    1    2    0    0 -4.8401831127e+02 -1.3173815850e+03 -8.7111728633e+02 1.6518514742e+03 0.0000000000e+00 0.0000e+00 1.0000e+00
       13  1    1    2    0    0 +4.8401831127e+02 +1.3173815850e+03 +9.8020287563e+02 1.7118894951e+03 0.0000000000e+00 0.0000e+00 -1.0000e+00
<mgrwt>
<rscale>  0 0.33619717E+04</rscale>
<asrwt>0</asrwt>
<pdfrwt beam="1">  1        2 0.26714050E+00 0.33619717E+04</pdfrwt>
<pdfrwt beam="2">  1       -2 0.25035811E+00 0.33619717E+04</pdfrwt>
<totfact> 0.51094092E-01</totfact>
</mgrwt>
<rwgt>
<wgt id='morphing_basis_vector_1'> +3.4784428e-05 </wgt>
<wgt id='morphing_basis_vector_2'> +2.3773969e-05 </wgt>
<wgt id='morphing_basis_vector_3'> +3.8090549e-05 </wgt>
<wgt id='morphing_basis_vector_4'> +2.6936979e-05 </wgt>
<wgt id='morphing_basis_vector_5'> +4.3312367e-05 </wgt>
</rwgt>
</event>
<event>
 4      1 +1.9882500e-09 3.33069600e+03 7.81860800e-03 7.67390600e-02
        2 -1    0    0  501    0 +0.0000000000e+00 +0.0000000000e+00 +1.2561616855e+03 1.2561616855e+03 0.0000000000e+00 0.0000e+00 -1.0000e+00
       -2 -1    0    0    0  501 -0.0000000000e+00 -0.0000000000e+00 -2.2078236512e+03 2.2078236512e+03 0.0000000000e+00 0.0000e+00 1.0000e+00
      -13  1    1    2    0    0 +2.6224109912e+02 +1.3433101424e+03 -1.4625509888e+03 2.0030746185e+03 0.0000000000e+00 0.0000e+00 1.0000e+00
       13  1    1    2    0    0 -2.6224109912e+02 -1.3433101424e+03 +5.1088902308e+02 1.4609107182e+03 0.0000000000e+00 0.0000e+00 -1.0000e+00
<mgrwt>
<rscale>  0 0.33306957E+04</rscale>
<asrwt>0</asrwt>
<pdfrwt beam="1">  1        2 0.19325564E+00 0.33306957E+04</pdfrwt>
<pdfrwt beam="2">  1       -2 0.33966518E+00 0.33306957E+04</pdfrwt>
<totfact> 0.23791733E-01</totfact>
</mgrwt>
<rwgt>
<wgt id='morphing_basis_vector_1'> +3.3505151e-05 </wgt>
<wgt id='morphing_basis_vector_2'> +2.2868825e-05 </wgt>
<wgt id='morphing_basis_vector_3'> +3.6674416e-05 </wgt>
<wgt id='morphing_basis_vector_4'> +2.5966960e-05 </wgt>
<wgt id='morphing_basis_vector_5'> +4.1714004e-05 </wgt>
</rwgt>
</event>
<event>
 4      1 +1.9882500e-09 3.50520400e+03 7.81860800e-03 7.63627600e-02
        2 -1    0    0  501    0 +0.0000000000e+00 +0.0000000000e+00 +2.8632841775e+03 2.8632841775e+03 0.0000000000e+00 0.0000e+00 -1.0000e+00
       -2 -1    0    0    0  501 -0.0000000000e+00 -0.0000000000e+00 -1.0727588438e+03 1.0727588438e+03 0.0000000000e+00 0.0000e+00 1.0000e+00
      -13  1    1    2    0    0 -9.8679365739e+02 -4.6858114476e+02 -6.4369659657e+02 1.2679413709e+03 0.0000000000e+00 0.0000e+00 1.0000e+00
       13  1    1    2    0    0 +9.8679365739e+02 +4.6858114476e+02 +2.4342219302e+03 2.6681016504e+03 0.0000000000e+00 0.0000e+00 -1.0000e+00
<mgrwt>
<rscale>  0 0.35052038E+04</rscale>
<asrwt>0</asrwt>
<pdfrwt beam="1">  1        2 0.44050525E+00 0.35052038E+04</pdfrwt>
<pdfrwt beam="2">  1       -2 0.16503982E+00 0.35052038E+04</pdfrwt>
<totfact> 0.46167838E-01</totfact>
</mgrwt>
<rwgt>
<wgt id='morphing_basis_vector_1'> +4.0940096e-05 </wgt>
<wgt id='morphing_basis_vector_2'> +2.7742556e-05 </wgt>
<wgt id='morphing_basis_vector_3'> +4.4823910e-05 </wgt>
<wgt id='morphing_basis_vector_4'> +3.2104172e-05 </wgt>
<wgt id='morphing_basis_vector_5'> +5.1256207e-05 </wgt>
</rwgt>
</event>
<event>
 4      1 +1.9882500e-09 3.66457700e+03 7.81860800e-03 7.60382400e-02
        2 -1    0    0  501    0 +0.0000000000e+00 +0.0000000000e+00 +2.3518445118e+03 2.3518445118e+03 0.0000000000e+00 0.0000e+00 -1.0000e+00
       -2 -1    0    0    0  501 -0.0000000000e+00 -0.0000000000e+00 -1.4275094724e+03 1.4275094724e+03 0.0000000000e+00 0.0000e+00 1.0000e+00
      -13  1    1    2    0    0 +4.9406418923e+02 +1.7588036386e+03 +3.1708206714e+02 1.8541927352e+03 0.0000000000e+00 0.0000e+00 1.0000e+00
       13  1    1    2    0    0 -4.9406418923e+02 -1.7588036386e+03 +6.0725297222e+02 1.9251612489e+03 0.0000000000e+00 0.0000e+00 -1.0000e+00
<mgrwt>
<rscale>  0 0.36645765E+04</rscale>
<asrwt>0</asrwt>
<pdfrwt beam="1">  1        2 0.36182223E+00 0.36645765E+04</pdfrwt>
<pdfrwt beam="2">  1       -2 0.21961684E+00 0.36645765E+04</pdfrwt>
<totfact> 0.36634936E-01</totfact>
</mgrwt>
<rwgt>
<wgt id='morphing_basis_vector_1'> +5.0179264e-05 </wgt>
<wgt id='morphing_basis_vector_2'> +3.7025685e-05 </wgt>
<wgt id='morphing_basis_vector_3'> +5.5658725e-05 </wgt>
<wgt id='morphing_basis_vector_4'> +3.5601801e-05 </wgt>
<wgt id='morphing_basis_vector_5'> +6.1069000e-05 </wgt>
</rwgt>
</event>
<event>
 4      1 +1.9882500e-09 3.23815900e+03 7.81860800e-03 7.69483600e-02
        2 -1    0    0  501    0 +0.0000000000e+00 +0.0000000000e+00 +1.3876171897e+03 1.3876171897e+03 0.0000000000e+00 0.0000e+00 1.0000e+00
       -2 -1    0    0    0  501 -0.0000000000e+00 -0.0000000000e+00 -1.8891512743e+03 1.8891512743e+03 0.0000000000e+00 0.0000e+00 -1.0000e+00
      -13  1    1    2    0    0 -3.0623644394e+02 -6.7376802301e+02 -1.7079626986e+03 1.8614189986e+03 0.0000000000e+00 0.0000e+00 -1.0000e+00
       13  1    1    2    0    0 +3.0623644394e+02 +6.7376802301e+02 +1.2064286140e+03 1.4153494654e+03 0.0000000000e+00 0.0000e+00 1.0000e+00
<mgrwt>
<rscale>  0 0.32381592E+04</rscale>
<asrwt>0</asrwt>
<pdfrwt beam="1">  1        2 0.21347957E+00 0.32381592E+04</pdfrwt>
<pdfrwt beam="2">  1       -2 0.29063866E+00 0.32381592E+04</pdfrwt>
<totfact> 0.42866443E-01</totfact>
</mgrwt>
<rwgt>
<wgt id='morphing_basis_vector_1'> +2.9872955e-05 </wgt>
<wgt id='morphing_basis_vector_2'> +2.0183519e-05 </wgt>
<wgt id='morphing_basis_vector_3'> +3.2630488e-05 </wgt>
<wgt id='morphing_basis_vector_4'> +2.3361765e-05 </wgt>
<wgt id='morphing_basis_vector_5'> +3.7251885e-05 </wgt>
</rwgt>
</event>
<event>
 4      1 +1.9882500e-09 3.23034000e+03 7.81860800e-03 7.69663700e-02
        2 -1    0    0  501    0 +0.0000000000e+00 +0.0000000000e+00 +3.3212472961e+03 3.3212472961e+03 0.0000000000e+00 0.0000e+00 1.0000e+00
       -2 -1    0    0    0  501 -0.0000000000e+00 -0.0000000000e+00 -7.8548007195e+02 7.8548007195e+02 0.0000000000e+00 0.0000e+00 -1.0000e+00
      -13  1    1    2    0    0 +9.2342076833e+02 +1.1188115737e+02 +2.9465520280e+03 3.0898854610e+03 0.0000000000e+00 0.0000e+00 1.0000e+00
       13  1    1    2    0    0 -9.2342076833e+02 -1.1188115737e+02 -4.1078480385e+02 1.0168419070e+03 0.0000000000e+00 0.0000e+00 -1.0000e+00
<mgrwt>
<rscale>  0 0.32303397E+04</rscale>
<asrwt>0</asrwt>
<pdfrwt beam="1">  1        2 0.51096112E+00 0.32303397E+04</pdfrwt>
<pdfrwt beam="2">  1       -2 0.12084309E+00 0.32303397E+04</pdfrwt>
<totfact> 0.55806238E-01</totfact>
</mgrwt>
<rwgt>
<wgt id='morphing_basis_vector_1'> +3.9630268e-05 </wgt>
<wgt id='morphing_basis_vector_2'> +4.9548521e-05 </wgt>
<wgt id='morphing_basis_vector_3'> +4.8158713e-05 </wgt>
<wgt id='morphing_basis_vector_4'> +2.1217439e-06 </wgt>
<wgt id='morphing_basis_vector_5'> +3.5156174e-05 </wgt>
</rwgt>
</event>
<event>
 4      1 +1.9882500e-09 3.61750900e+03 7.81860800e-03 7.61323000e-02
        2 -1    0    0  501    0 +0.0000000000e+00 +0.0000000000e+00 +2.4099522653e+03 2.4099522653e+03 0.0000000000e+00 0.0000e+00 1.0000e+00
       -2 -1    0    0    0  501 -0.0000000000e+00 -0.0000000000e+00 -1.3575342267e+03 1.3575342267e+03 0.0000000000e+00 0.0000e+00 -1.0000e+00
      -13  1    1    2    0    0 +1.0659342324e+03 +1.3696152840e+03 -4.3535481260e+00 1.7355347208e+03 0.0000000000e+00 0.0000e+00 -1.0000e+00
       13  1    1    2    0    0 -1.0659342324e+03 -1.3696152840e+03 +1.0567715868e+03 2.0319517712e+03 0.0000000000e+00 0.0000e+00 1.0000e+00
<mgrwt>
<rscale>  0 0.36175089E+04</rscale>
<asrwt>0</asrwt>
<pdfrwt beam="1">  1        2 0.37076189E+00 0.36175089E+04</pdfrwt>
<pdfrwt beam="2">  1       -2 0.20885142E+00 0.36175089E+04</pdfrwt>
<totfact> 0.40593440E-01</totfact>
</mgrwt>
<rwgt>
<wgt id='morphing_basis_vector_1'> +4.6953109e-05 </wgt>
<wgt id='morphing_basis_vector_2'> +3.3069422e-05 </wgt>
<wgt id='morphing_basis_vector_3'> +5.1718247e-05 </wgt>
<wgt id='morphing_basis_vector_4'> +3.5298039e-05 </wgt>
<wgt id='morphing_basis_vector_5'> +5.8098136e-05 </wgt>
</rwgt>
</event>
<event>
 4      1 +1.9882500e-09 3.63277800e+03 7.81860800e-03 7.61016300e-02
        2 -1    0    0  501    0 +0.0000000000e+00 +0.0000000000e+00 +2.0965178838e+03 2.0965178838e+03 0.0000000000e+00 0.0000e+00 -1.0000e+00
       -2 -1    0    0    0  501 -0.0000000000e+00 -0.0000000000e+00 -1.5736897100e+03 1.5736897100e+03 0.0000000000e+00 0.0000e+00 1.0000e+00
      -13  1    1    2    0    0 +1.3828914770e+02 +6.0436831671e+02 -1.4634799037e+03 1.5893893101e+03 0.0000000000e+00 0.0000e+00 1.0000e+00
       13  1    1    2    0    0 -1.3828914770e+02 -6.0436831671e+02 +1.9863080775e+03 2.0808182836e+03 0.0000000000e+00 0.0000e+00 -1.0000e+00
<mgrwt>
<rscale>  0 0.36327778E+04</rscale>
<asrwt>0</asrwt>
<pdfrwt beam="1">  1        2 0.32254121E+00 0.36327778E+04</pdfrwt>
<pdfrwt beam="2">  1       -2 0.24210611E+00 0.36327778E+04</pdfrwt>
<totfact> 0.35813370E-01</totfact>
</mgrwt>
<rwgt>
<wgt id='morphing_basis_vector_1'> +4.7163254e-05 </wgt>
<wgt id='morphing_basis_vector_2'> +3.1916338e-05 </wgt>
<wgt id='morphing_basis_vector_3'> +5.1668307e-05 </wgt>
<wgt id='morphing_basis_vector_4'> +3.7128352e-05 </wgt>
<wgt id='morphing_basis_vector_5'> +5.9193107e-05 </wgt>
</rwgt>
</event>
<event>
 4      1 +1.9882500e-09 3.25202300e+03 7.81860800e-03 7.69165400e-02
        2 -1    0    0  501    0 +0.0000000000e+00 +0.0000000000e+00 +3.6383068698e+03 3.6383068698e+03 0.0000000000e+00 0.0000e+00 -1.0000e+00
       -2 -1    0    0    0  501 -0.0000000000e+00 -0.0000000000e+00 -7.2668767830e+02 7.2668767830e+02 0.0000000000e+00 0.0000e+00 1.0000e+00
      -13  1    1    2    0    0 -7.0242733992e+02 +5.0600578699e+02 -3.9164443954e+02 9.5017440050e+02 0.0000000000e+00 0.0000e+00 1.0000e+00
       13  1    1    2    0    0 +7.0242733992e+02 -5.0600578699e+02 +3.3032636310e+03 3.4148201476e+03 0.0000000000e+00 0.0000e+00 -1.0000e+00
<mgrwt>
<rscale>  0 0.32520226E+04</rscale>
<asrwt>0</asrwt>
<pdfrwt beam="1">  1        2 0.55973951E+00 0.32520226E+04</pdfrwt>
<pdfrwt beam="2">  1       -2 0.11179811E+00 0.32520226E+04</pdfrwt>
<totfact> 0.39950656E-01</totfact>
</mgrwt>
<rwgt>
<wgt id='morphing_basis_vector_1'> +3.0388106e-05 </wgt>
<wgt id='morphing_basis_vector_2'> +2.0542996e-05 </wgt>
<wgt id='morphing_basis_vector_3'> +3.3199381e-05 </wgt>
<wgt id='morphing_basis_vector_4'> +2.3758374e-05 </wgt>
<wgt id='morphing_basis_vector_5'> +3.7898084e-05 </wgt>
</rwgt>
</event>
<event>
 4      1 +1.9882500e-09 3.23437800e+03 7.81860800e-03 7.69570600e-02
        2 -1    0    0  501    0 +0.0000000000e+00 +0.0000000000e+00 +1.5730693786e+03 1.5730693786e+03 0.0000000000e+00 0.0000e+00 -1.0000e+00
       -2 -1    0    0    0  501 -0.0000000000e+00 -0.0000000000e+00 -1.6625462841e+03 1.6625462841e+03 0.0000000000e+00 0.0000e+00 1.0000e+00
      -13  1    1    2    0    0 +3.8711759803e+02 +8.0550682296e+02 -1.3930669159e+03 1.6550941691e+03 0.0000000000e+00 0.0000e+00 1.0000e+00
       13  1    1    2    0    0 -3.8711759803e+02 -8.0550682296e+02 +1.3035900103e+03 1.5805214936e+03 0.0000000000e+00 0.0000e+00 -1.0000e+00
<mgrwt>
<rscale>  0 0.32343782E+04</rscale>
<asrwt>0</asrwt>
<pdfrwt beam="1">  1        2 0.24201067E+00 0.32343782E+04</pdfrwt>
<pdfrwt beam="2">  1       -2 0.25577635E+00 0.32343782E+04</pdfrwt>
<totfact> 0.58408401E-01</totfact>
</mgrwt>
<rwgt>
<wgt id='morphing_basis_vector_1'> +2.9740609e-05 </wgt>
<wgt id='morphing_basis_vector_2'> +2.0106920e-05 </wgt>
<wgt id='morphing_basis_vector_3'> +3.2487662e-05 </wgt>
<wgt id='morphing_basis_vector_4'> +2.3239804e-05 </wgt>
<wgt id='morphing_basis_vector_5'> +3.7075875e-05 </wgt>
</rwgt>
</event>
<event>
 4      1 +1.9882500e-09 3.29382200e+03 7.81860800e-03 7.68216100e-02
        2 -1    0    0  501    0 +0.0000000000e+00 +0.0000000000e+00 +3.5965597927e+03 3.5965597927e+03 0.0000000000e+00 0.0000e+00 -1.0000e+00
       -2 -1    0    0    0  501 -0.0000000000e+00 -0.0000000000e+00 -7.5414163106e+02 7.5414163106e+02 0.0000000000e+00 0.0000e+00 1.0000e+00
      -13  1    1    2    0    0 +7.6537308419e+02 +3.7298690707e+02 -4.4088601771e+02 9.5879907774e+02 0.0000000000e+00 0.0000e+00 1.0000e+00
       13  1    1    2    0    0 -7.6537308419e+02 -3.7298690707e+02 +3.2833041793e+03 3.3919023460e+03 0.0000000000e+00 0.0000e+00 -1.0000e+00
<mgrwt>
<rscale>  0 0.32938218E+04</rscale>
<asrwt>0</asrwt>
<pdfrwt beam="1">  1        2 0.55331689E+00 0.32938218E+04</pdfrwt>
<pdfrwt beam="2">  1       -2 0.11602179E+00 0.32938218E+04</pdfrwt>
<totfact> 0.38955499E-01</totfact>
</mgrwt>
<rwgt>
<wgt id='morphing_basis_vector_1'> +3.1967197e-05 </wgt>
<wgt id='morphing_basis_vector_2'> +2.1612914e-05 </wgt>
<wgt id='morphing_basis_vector_3'> +3.4936656e-05 </wgt>
<wgt id='morphing_basis_vector_4'> +2.5015308e-05 </wgt>
<wgt id='morphing_basis_vector_5'> +3.9899781e-05 </wgt>
</rwgt>
</event>
<event>
 4      1 +1.9882500e-09 3.33059200e+03 7.81860800e-03 7.67392900e-02
        2 -1    0    0  501    0 +0.0000000000e+00 +0.0000000000e+00 +3.6255020857e+03 3.6255020857e+03 0.0000000000e+00 0.0000e+00 1.0000e+00
       -2 -1    0    0    0  501 -0.0000000000e+00 -0.0000000000e+00 -7.6491792414e+02 7.6491792414e+02 0.0000000000e+00 0.0000e+00 -1.0000e+00
      -13  1    1    2    0    0 -8.9172628372e+02 -8.8750444322e+01 -4.1997842862e+02 9.8966372418e+02 0.0000000000e+00 0.0000e+00 -1.0000e+00
       13  1    1    2    0    0 +8.9172628372e+02 +8.8750444322e+01 +3.2805625902e+03 3.4007562857e+03 0.0000000000e+00 0.0000e+00 1.0000e+00
<mgrwt>
<rscale>  0 0.33305925E+04</rscale>
<asrwt>0</asrwt>
<pdfrwt beam="1">  1        2 0.55776954E+00 0.33305925E+04</pdfrwt>
<pdfrwt beam="2">  1       -2 0.11767968E+00 0.33305925E+04</pdfrwt>
<totfact> 0.35606093E-01</totfact>
</mgrwt>
<rwgt>
<wgt id='morphing_basis_vector_1'> +3.3409380e-05 </wgt>
<wgt id='morphing_basis_vector_2'> +2.2596311e-05 </wgt>
<wgt id='morphing_basis_vector_3'> +3.6524878e-05 </wgt>
<wgt id='morphing_basis_vector_4'> +2.6155839e-05 </wgt>
<wgt id='morphing_basis_vector_5'> +4.1724677e-05 </wgt>
</rwgt>
</event>
<event>
 4      1 +1.9882500e-09 3.33303000e+03 7.81860800e-03 7.67338700e-02
        2 -1    0    0  501    0 +0.0000000000e+00 +0.0000000000e+00 +1.9646475157e+03 1.9646475157e+03 0.0000000000e+00 0.0000e+00 -1.0000e+00
       -2 -1    0    0    0  501 -0.0000000000e+00 -0.0000000000e+00 -1.4136235506e+03 1.4136235506e+03 0.0000000000e+00 0.0000e+00 1.0000e+00
      -13  1    1    2    0    0 -3.6234463201e+02 +8.4409731457e+02 -1.1338576762e+03 1.4592556797e+03 0.0000000000e+00 0.0000e+00 1.0000e+00
       13  1    1    2    0    0 +3.6234463201e+02 -8.4409731457e+02 +1.6848816413e+03 1.9190153866e+03 0.0000000000e+00 0.0000e+00 -1.0000e+00
<mgrwt>
<rscale>  0 0.33330299E+04</rscale>
<asrwt>0</asrwt>
<pdfrwt beam="1">  1        2 0.30225347E+00 0.33330299E+04</pdfrwt>
<pdfrwt beam="2">  1       -2 0.21748054E+00 0.33330299E+04</pdfrwt>
<totfact> 0.64896015E-01</totfact>
</mgrwt>
<rwgt>
<wgt id='morphing_basis_vector_1'> +3.3507766e-05 </wgt>
<wgt id='morphing_basis_vector_2'> +2.2665875e-05 </wgt>
<wgt id='morphing_basis_vector_3'> +3.6633762e-05 </wgt>
<wgt id='morphing_basis_vector_4'> +2.6230502e-05 </wgt>
<wgt id='morphing_basis_vector_5'> +4.1847621e-05 </wgt>
</rwgt>
</event>
<event>
 4      1 +1.9882500e-09 3.25416000e+03 7.81860800e-03 7.69116500e-02
        2 -1    0    0  501    0 +0.0000000000e+00 +0.0000000000e+00 +8.6905384127e+02 8.6905384127e+02 0.0000000000e+00 0.0000e+00 1.0000e+00
       -2 -1    0    0    0  501 -0.0000000000e+00 -0.0000000000e+00 -3.0462895183e+03 3.0462895183e+03 0.0000000000e+00 0.0000e+00 -1.0000e+00
      -13  1    1    2    0    0 +2.6888361930e+02 +1.6043676464e+03 -1.1284440734e+03 1.9798181665e+03 0.0000000000e+00 0.0000e+00 -1.0000e+00
       13  1    1    2    0    0 -2.6888361930e+02 -1.6043676464e+03 -1.0487916036e+03 1.9355251931e+03 0.0000000000e+00 0.0000e+00 1.0000e+00
<mgrwt>
<rscale>  0 0.32541602E+04</rscale>
<asrwt>0</asrwt>
<pdfrwt beam="1">  1        2 0.13370059E+00 0.32541602E+04</pdfrwt>
<pdfrwt beam="2">  1       -2 0.46865993E+00 0.32541602E+04</pdfrwt>
<totfact> 0.57259101E-02</totfact>
</mgrwt>
<rwgt>
<wgt id='morphing_basis_vector_1'> +3.1498666e-05 </wgt>
<wgt id='morphing_basis_vector_2'> +2.3631897e-05 </wgt>
<wgt id='morphing_basis_vector_3'> +3.4914585e-05 </wgt>
<wgt id='morphing_basis_vector_4'> +2.1662646e-05 </wgt>
<wgt id='morphing_basis_vector_5'> +3.7820324e-05 </wgt>
</rwgt>
</event>
<event>
 4      1 +1.9882500e-09 3.24160000e+03 7.81860800e-03 7.69404500e-02
        2 -1    0    0  501    0 +0.0000000000e+00 +0.0000000000e+00 +2.9845969331e+03 2.9845969331e+03 0.0000000000e+00 0.0000e+00 1.0000e+00
       -2 -1    0    0    0  501 -0.0000000000e+00 -0.0000000000e+00 -8.8018341962e+02 8.8018341962e+02 0.0000000000e+00 0.0000e+00 -1.0000e+00
      -13  1    1    2    0    0 -4.6171485079e+02 +9.1517240791e+02 -4.4465230182e+02 1.1173346899e+03 0.0000000000e+00 0.0000e+00 -1.0000e+00
       13  1    1    2    0    0 +4.6171485079e+02 -9.1517240791e+02 +2.5490658153e+03 2.7474456628e+03 0.0000000000e+00 0.0000e+00 1.0000e+00
<mgrwt>
<rscale>  0 0.32416001E+04</rscale>
<asrwt>0</asrwt>
<pdfrwt beam="1">  1        2 0.45916875E+00 0.32416001E+04</pdfrwt>
<pdfrwt beam="2">  1       -2 0.13541284E+00 0.32416001E+04</pdfrwt>
<totfact> 0.69410977E-01</totfact>
</mgrwt>
<rwgt>
<wgt id='morphing_basis_vector_1'> +3.0014644e-05 </wgt>
<wgt id='morphing_basis_vector_2'> +2.0314821e-05 </wgt>
<wgt id='morphing_basis_vector_3'> +3.2793796e-05 </wgt>
<wgt id='morphing_basis_vector_4'> +2.3429498e-05 </wgt>
<wgt id='morphing_basis_vector_5'> +3.7408997e-05 </wgt>
</rwgt>
</event>
<event>
 4      1 +1.9882500e-09 3.54582500e+03 7.81860800e-03 7.62783900e-02
        2 -1    0    0  501    0 +0.0000000000e+00 +0.0000000000e+00 +1.9660246082e+03 1.9660246082e+03 0.0000000000e+00 0.0000e+00 -1.0000e+00
       -2 -1    0    0    0  501 -0.0000000000e+00 -0.0000000000e+00 -1.5987685798e+03 1.5987685798e+03 0.0000000000e+00 0.0000e+00 1.0000e+00
      -13  1    1    2    0    0 -9.7555340876e+02 -6.6603308137e+02 +1.5127874497e+03 1.9193307133e+03 0.0000000000e+00 0.0000e+00 1.0000e+00
       13  1    1    2    0    0 +9.7555340876e+02 +6.6603308137e+02 -1.1455314213e+03 1.6454624748e+03 0.0000000000e+00 0.0000e+00 -1.0000e+00
<mgrwt>
<rscale>  0 0.35458248E+04</rscale>
<asrwt>0</asrwt>
<pdfrwt beam="1">  1        2 0.30246532E+00 0.35458248E+04</pdfrwt>
<pdfrwt beam="2">  1       -2 0.24596440E+00 0.35458248E+04</pdfrwt>
<totfact> 0.40177593E-01</totfact>
</mgrwt>
<rwgt>
<wgt id='morphing_basis_vector_1'> +5.6147044e-05 </wgt>
<wgt id='morphing_basis_vector_2'> +6.8135723e-05 </wgt>
<wgt id='morphing_basis_vector_3'> +6.8075231e-05 </wgt>
<wgt id='morphing_basis_vector_4'> +5.6742107e-06 </wgt>
<wgt id='morphing_basis_vector_5'> +5.1371746e-05 </wgt>
</rwgt>
</event>
<event>
 4      1 +1.9882500e-09 3.61094400e+03 7.81860800e-03 7.61455300e-02
        2 -1    0    0  501    0 +0.0000000000e+00 +0.0000000000e+00 +3.8205748108e+03 3.8205748108e+03 0.0000000000e+00 0.0000e+00 -1.0000e+00
       -2 -1    0    0    0  501 -0.0000000000e+00 -0.0000000000e+00 -8.5320363728e+02 8.5320363728e+02 0.0000000000e+00 0.0000e+00 1.0000e+00
      -13  1    1    2    0    0 +1.2394564747e+03 -5.4945795721e+02 +3.0269197960e+03 3.3166850696e+03 0.0000000000e+00 0.0000e+00 1.0000e+00
       13  1    1    2    0    0 -1.2394564747e+03 +5.4945795721e+02 -5.9548622523e+01 1.3570933784e+03 0.0000000000e+00 0.0000e+00 -1.0000e+00
<mgrwt>
<rscale>  0 0.36109435E+04</rscale>
<asrwt>0</asrwt>
<pdfrwt beam="1">  1        2 0.58778073E+00 0.36109435E+04</pdfrwt>
<pdfrwt beam="2">  1       -2 0.13126210E+00 0.36109435E+04</pdfrwt>
<totfact> 0.18383447E-01</totfact>
</mgrwt>
<rwgt>
<wgt id='morphing_basis_vector_1'> +5.8415927e-05 </wgt>
<wgt id='morphing_basis_vector_2'> +6.7537109e-05 </wgt>
<wgt id='morphing_basis_vector_3'> +7.0141749e-05 </wgt>
<wgt id='morphing_basis_vector_4'> +1.0194901e-05 </wgt>
<wgt id='morphing_basis_vector_5'> +5.5613133e-05 </wgt>
</rwgt>
</event>
<event>
 4      1 +1.9882500e-09 3.40026600e+03 7.81860800e-03 7.65862600e-02
        2 -1    0    0  501    0 +0.0000000000e+00 +0.0000000000e+00 +3.0412564863e+03 3.0412564863e+03 0.0000000000e+00 0.0000e+00 1.0000e+00
       -2 -1    0    0    0  501 -0.0000000000e+00 -0.0000000000e+00 -9.5041376628e+02 9.5041376628e+02 0.0000000000e+00 0.0000e+00 -1.0000e+00
      -13  1    1    2    0    0 +1.6443514371e+03 -6.9051884364e+01 +5.4489215255e+02 1.7336571949e+03 0.0000000000e+00 0.0000e+00 -1.0000e+00
       13  1    1    2    0    0 -1.6443514371e+03 +6.9051884364e+01 +1.5459505674e+03 2.2580130576e+03 0.0000000000e+00 0.0000e+00 1.0000e+00
<mgrwt>
<rscale>  0 0.34002659E+04</rscale>
<asrwt>0</asrwt>
<pdfrwt beam="1">  1        2 0.46788561E+00 0.34002659E+04</pdfrwt>
<pdfrwt beam="2">  1       -2 0.14621750E+00 0.34002659E+04</pdfrwt>
<totfact> 0.50829161E-01</totfact>
</mgrwt>
<rwgt>
<wgt id='morphing_basis_vector_1'> +3.6772104e-05 </wgt>
<wgt id='morphing_basis_vector_2'> +2.6012188e-05 </wgt>
<wgt id='morphing_basis_vector_3'> +4.0469092e-05 </wgt>
<wgt id='morphing_basis_vector_4'> +2.7381068e-05 </wgt>
<wgt id='morphing_basis_vector_5'> +4.5266724e-05 </wgt>
</rwgt>
</event>
<event>
 4      1 +1.9882500e-09 3.46587600e+03 7.81860800e-03 7.64455700e-02
        2 -1    0    0  501    0 +0.0000000000e+00 +0.0000000000e+00 +1.9648811672e+03 1.9648811672e+03 0.0000000000e+00 0.0000e+00 -1.0000e+00
       -2 -1    0    0    0  501 -0.0000000000e+00 -0.0000000000e+00 -1.5283745514e+03 1.5283745514e+03 0.0000000000e+00 0.0000e+00 1.0000e+00
      -13  1    1    2    0    0 +7.9407548040e+01 -9.9976316938e+02 -1.2061492004e+03 1.5686388518e+03 0.0000000000e+00 0.0000e+00 1.0000e+00
       13  1    1    2    0    0 -7.9407548040e+01 +9.9976316938e+02 +1.6426558162e+03 1.9246168668e+03 0.0000000000e+00 0.0000e+00 -1.0000e+00
<mgrwt>
<rscale>  0 0.34658762E+04</rscale>
<asrwt>0</asrwt>
<pdfrwt beam="1">  1        2 0.30228941E+00 0.34658762E+04</pdfrwt>
<pdfrwt beam="2">  1       -2 0.23513455E+00 0.34658762E+04</pdfrwt>
<totfact> 0.48179771E-01</totfact>
</mgrwt>
<rwgt>
<wgt id='morphing_basis_vector_1'> +3.9137946e-05 </wgt>
<wgt id='morphing_basis_vector_2'> +2.6499779e-05 </wgt>
<wgt id='morphing_basis_vector_3'> +4.2835015e-05 </wgt>
<wgt id='morphing_basis_vector_4'> +3.0694117e-05 </wgt>
<wgt id='morphing_basis_vector_5'> +4.8981107e-05 </wgt>
</rwgt>
</event>
<event>
 4      1 +1.9882500e-09 3.33566700e+03 7.81860800e-03 7.67280100e-02
        2 -1    0    0  501    0 +0.0000000000e+00 +0.0000000000e+00 +3.4355700628e+03 3.4355700628e+03 0.0000000000e+00 0.0000e+00 1.0000e+00
       -2 -1    0    0    0  501 -0.0000000000e+00 -0.0000000000e+00 -8.0966737237e+02 8.0966737237e+02 0.0000000000e+00 0.0000e+00 -1.0000e+00
      -13  1    1    2    0    0 -3.2664835722e+02 +1.5869360921e+03 +8.0931131537e+02 1.8110908632e+03 0.0000000000e+00 0.0000e+00 -1.0000e+00
       13  1    1    2    0    0 +3.2664835722e+02 -1.5869360921e+03 +1.8165913750e+03 2.4341465719e+03 0.0000000000e+00 0.0000e+00 1.0000e+00
<mgrwt>
<rscale>  0 0.33356672E+04</rscale>
<asrwt>0</asrwt>
<pdfrwt beam="1">  1        2 0.52854923E+00 0.33356672E+04</pdfrwt>
<pdfrwt beam="2">  1       -2 0.12456421E+00 0.33356672E+04</pdfrwt>
<totfact> 0.42383776E-01</totfact>
</mgrwt>
<rwgt>
<wgt id='morphing_basis_vector_1'> +3.4102009e-05 </wgt>
<wgt id='morphing_basis_vector_2'> +2.4175971e-05 </wgt>
<wgt id='morphing_basis_vector_3'> +3.7523284e-05 </wgt>
<wgt id='morphing_basis_vector_4'> +2.5289350e-05 </wgt>
<wgt id='morphing_basis_vector_5'> +4.1896449e-05 </wgt>
</rwgt>
</event>
<event>
 4      1 +1.9882500e-09 3.27617600e+03 7.81860800e-03 7.68615100e-02
        2 -1    0    0  501    0 +0.0000000000e+00 +0.0000000000e+00 +1.7032175371e+03 1.7032175371e+03 0.0000000000e+00 0.0000e+00 -1.0000e+00
       -2 -1    0    0    0  501 -0.0000000000e+00 -0.0000000000e+00 -1.5754488115e+03 1.5754488115e+03 0.0000000000e+00 0.0000e+00 1.0000e+00
      -13  1    1    2    0    0 -8.0122260692e+01 +1.5607144024e+03 +5.5525967475e+02 1.6584819350e+03 0.0000000000e+00 0.0000e+00 1.0000e+00
       13  1    1    2    0    0 +8.0122260692e+01 -1.5607144024e+03 -4.2749094915e+02 1.6201844136e+03 0.0000000000e+00 0.0000e+00 -1.0000e+00
<mgrwt>
<rscale>  0 0.32761758E+04</rscale>
<asrwt>0</asrwt>
<pdfrwt beam="1">  1        2 0.26203347E+00 0.32761758E+04</pdfrwt>
<pdfrwt beam="2">  1       -2 0.24237674E+00 0.32761758E+04</pdfrwt>
<totfact> 0.60989985E-01</totfact>
</mgrwt>
<rwgt>
<wgt id='morphing_basis_vector_1'> +3.4472969e-05 </wgt>
<wgt id='morphing_basis_vector_2'> +3.0514297e-05 </wgt>
<wgt id='morphing_basis_vector_3'> +3.9217981e-05 </wgt>
<wgt id='morphing_basis_vector_4'> +1.7819579e-05 </wgt>
<wgt id='morphing_basis_vector_5'> +3.8495272e-05 </wgt>
</rwgt>
</event>
<event>
 4      1 +1.9882500e-09 3.56207800e+03 7.81860800e-03 7.62449600e-02
        2 -1    0    0  501    0 +0.0000000000e+00 +0.0000000000e+00 +1.8358182134e+03 1.8358182134e+03 0.0000000000e+00 0.0000e+00 -1.0000e+00
       -2 -1    0    0    0  501 -0.0000000000e+00 -0.0000000000e+00 -1.7278947803e+03 1.7278947803e+03 0.0000000000e+00 0.0000e+00 1.0000e+00
      -13  1    1    2    0    0 +1.7062167563e+03 -4.4096734222e+02 +3.1190339903e+02 1.7896679990e+03 0.0000000000e+00 0.0000e+00 -1.0000e+00
       13  1    1    2    0    0 -1.7062167563e+03 +4.4096734222e+02 -2.0397996594e+02 1.7740449946e+03 0.0000000000e+00 0.0000e+00 1.0000e+00
<mgrwt>
<rscale>  0 0.35620784E+04</rscale>
<asrwt>0</asrwt>
<pdfrwt beam="1">  1        2 0.28243357E+00 0.35620784E+04</pdfrwt>
<pdfrwt beam="2">  1       -2 0.26582997E+00 0.35620784E+04</pdfrwt>
<totfact> 0.34623569E-01</totfact>
</mgrwt>
<rwgt>
<wgt id='morphing_basis_vector_1'> +4.6281420e-05 </wgt>
<wgt id='morphing_basis_vector_2'> +3.7339419e-05 </wgt>
<wgt id='morphing_basis_vector_3'> +5.1999802e-05 </wgt>
<wgt id='morphing_basis_vector_4'> +2.8703919e-05 </wgt>
<wgt id='morphing_basis_vector_5'> +5.4226964e-05 </wgt>
</rwgt>
</event>
<event>
 4      1 +1.9882500e-09 3.36058300e+03 7.81860800e-03 7.66729500e-02
        2 -1    0    0  501    0 +0.0000000000e+00 +0.0000000000e+00 +1.6347450172e+03 1.6347450172e+03 0.0000000000e+00 0.0000e+00 1.0000e+00
       -2 -1    0    0    0  501 -0.0000000000e+00 -0.0000000000e+00 -1.7271064763e+03 1.7271064763e+03 0.0000000000e+00 0.0000e+00 -1.0000e+00
      -13  1    1    2    0    0 -2.6727329509e+02 +6.0832670736e+02 -1.5900983055e+03 1.7233423973e+03 0.0000000000e+00 0.0000e+00 -1.0000e+00
       13  1    1    2    0    0 +2.6727329509e+02 -6.0832670736e+02 +1.4977368464e+03 1.6385090962e+03 0.0000000000e+00 0.0000e+00 1.0000e+00
<mgrwt>
<rscale>  0 0.33605825E+04</rscale>
<asrwt>0</asrwt>
<pdfrwt beam="1">  1        2 0.25149923E+00 0.33605825E+04</pdfrwt>
<pdfrwt beam="2">  1       -2 0.26570869E+00 0.33605825E+04</pdfrwt>
<totfact> 0.45639736E-01</totfact>
</mgrwt>
<rwgt>
<wgt id='morphing_basis_vector_1'> +3.4612273e-05 </wgt>
<wgt id='morphing_basis_vector_2'> +2.3396096e-05 </wgt>
<wgt id='morphing_basis_vector_3'> +3.7845391e-05 </wgt>
<wgt id='morphing_basis_vector_4'> +2.7133620e-05 </wgt>
<wgt id='morphing_basis_vector_5'> +4.3260290e-05 </wgt>
</rwgt>
</event>
<event>
 4      1 +1.9882500e-09 3.30917300e+03 7.81860800e-03 7.67871100e-02
        2 -1    0    0  501    0 +0.0000000000e+00 +0.0000000000e+00 +2.6213672285e+03 2.6213672285e+03 0.0000000000e+00 0.0000e+00 -1.0000e+00
       -2 -1    0    0    0  501 -0.0000000000e+00 -0.0000000000e+00 -1.0443621504e+03 1.0443621504e+03 0.0000000000e+00 0.0000e+00 1.0000e+00
      -13  1    1    2    0    0 -1.3494289799e+03 +9.5136889892e+02 +9.0778677873e+02 1.8841810394e+03 0.0000000000e+00 0.0000e+00 1.0000e+00
       13  1    1    2    0    0 +1.3494289799e+03 -9.5136889892e+02 +6.6921829942e+02 1.7815483395e+03 0.0000000000e+00 0.0000e+00 -1.0000e+00
<mgrwt>
<rscale>  0 0.33091731E+04</rscale>
<asrwt>0</asrwt>
<pdfrwt beam="1">  1        2 0.40328726E+00 0.33091731E+04</pdfrwt>
<pdfrwt beam="2">  1       -2 0.16067110E+00 0.33091731E+04</pdfrwt>
<totfact> 0.71841980E-01</totfact>
</mgrwt>
<rwgt>
<wgt id='morphing_basis_vector_1'> +3.4062913e-05 </wgt>
<wgt id='morphing_basis_vector_2'> +2.6432017e-05 </wgt>
<wgt id='morphing_basis_vector_3'> +3.7964087e-05 </wgt>
<wgt id='morphing_basis_vector_4'> +2.2344761e-05 </wgt>
<wgt id='morphing_basis_vector_5'> +4.0394557e-05 </wgt>
</rwgt>
</event>
<event>
 4      1 +1.9882500e-09 3.59935700e+03 7.81860800e-03 7.61689600e-02
        2 -1    0    0  501    0 +0.0000000000e+00 +0.0000000000e+00 +2.7890167378e+03 2.7890167378e+03 0.0000000000e+00 0.0000e+00 1.0000e+00
       -2 -1    0    0    0  501 -0.0000000000e+00 -0.0000000000e+00 -1.1612845016e+03 1.1612845016e+03 0.0000000000e+00 0.0000e+00 -1.0000e+00
      -13  1    1    2    0    0 -1.6141400673e+03 -7.9494420521e+02 +8.5576520778e+02 1.9924152522e+03 0.0000000000e+00 0.0000e+00 -1.0000e+00
       13  1    1    2    0    0 +1.6141400673e+03 +7.9494420521e+02 +7.7196702840e+02 1.9578859873e+03 0.0000000000e+00 0.0000e+00 1.0000e+00
<mgrwt>
<rscale>  0 0.35993566E+04</rscale>
<asrwt>0</asrwt>
<pdfrwt beam="1">  1        2 0.42907949E+00 0.35993566E+04</pdfrwt>
<pdfrwt beam="2">  1       -2 0.17865916E+00 0.35993566E+04</pdfrwt>
<totfact> 0.40012702E-01</totfact>
</mgrwt>
<rwgt>
<wgt id='morphing_basis_vector_1'> +4.7263746e-05 </wgt>
<wgt id='morphing_basis_vector_2'> +3.6059942e-05 </wgt>
<wgt id='morphing_basis_vector_3'> +5.2663199e-05 </wgt>
<wgt id='morphing_basis_vector_4'> +3.1979984e-05 </wgt>
<wgt id='morphing_basis_vector_5'> +5.6717161e-05 </wgt>
</rwgt>
</event>
<event>
 4      1 +1.9882500e-09 3.81179400e+03 7.81860800e-03 7.57531500e-02
        2 -1    0    0  501    0 +0.0000000000e+00 +0.0000000000e+00 +3.3261396275e+03 3.3261396275e+03 0.0000000000e+00 0.0000e+00 1.0000e+00
       -2 -1    0    0    0  501 -0.0000000000e+00 -0.0000000000e+00 -1.0920896239e+03 1.0920896239e+03 0.0000000000e+00 0.0000e+00 -1.0000e+00
      -13  1    1    2    0    0 +1.1516280216e+03 -1.3295608831e+03 +2.6648069928e+02 1.7790422157e+03 0.0000000000e+00 0.0000e+00 -1.0000e+00
       13  1    1    2    0    0 -1.1516280216e+03 +1.3295608831e+03 +1.9675693043e+03 2.6391870357e+03 0.0000000000e+00 0.0000e+00 1.0000e+00
<mgrwt>
<rscale>  0 0.38117936E+04</rscale>
<asrwt>0</asrwt>
<pdfrwt beam="1">  1        2 0.51171379E+00 0.38117936E+04</pdfrwt>
<pdfrwt beam="2">  1       -2 0.16801379E+00 0.38117936E+04</pdfrwt>
<totfact> 0.20982254E-01</totfact>
</mgrwt>
<rwgt>
<wgt id='morphing_basis_vector_1'> +5.7552206e-05 </wgt>
<wgt id='morphing_basis_vector_2'> +3.9986383e-05 </wgt>
<wgt id='morphing_basis_vector_3'> +6.3341452e-05 </wgt>
<wgt id='morphing_basis_vector_4'> +4.4109468e-05 </wgt>
<wgt id='morphing_basis_vector_5'> +7.1752631e-05 </wgt>
</rwgt>
</event>
<event>
 4      1 +1.9882500e-09 3.44983800e+03 7.81860800e-03 7.64796600e-02
        2 -1    0    0  501    0 +0.0000000000e+00 +0.0000000000e+00 +1.2393382982e+03 1.2393382982e+03 0.0000000000e+00 0.0000e+00 -1.0000e+00
       -2 -1    0    0    0  501 -0.0000000000e+00 -0.0000000000e+00 -2.4007535618e+03 2.4007535618e+03 0.0000000000e+00 0.0000e+00 1.0000e+00
      -13  1    1    2    0    0 +8.7987831696e+02 -1.3796686692e+03 -5.0234126846e+00 1.6363669283e+03 0.0000000000e+00 0.0000e+00 -1.0000e+00
       13  1    1    2    0    0 -8.7987831696e+02 +1.3796686692e+03 -1.1563918509e+03 2.0037249318e+03 0.0000000000e+00 0.0000e+00 1.0000e+00
<mgrwt>
<rscale>  0 0.34498382E+04</rscale>
<asrwt>0</asrwt>
<pdfrwt beam="1">  1        2 0.19066743E+00 0.34498382E+04</pdfrwt>
<pdfrwt beam="2">  1       -2 0.36934670E+00 0.34498382E+04</pdfrwt>
<totfact> 0.15477438E-01</totfact>
</mgrwt>
<rwgt>
<wgt id='morphing_basis_vector_1'> +4.2533014e-05 </wgt>
<wgt id='morphing_basis_vector_2'> +3.8104188e-05 </wgt>
<wgt id='morphing_basis_vector_3'> +4.8570043e-05 </wgt>
<wgt id='morphing_basis_vector_4'> +2.1494138e-05 </wgt>
<wgt id='morphing_basis_vector_5'> +4.7359957e-05 </wgt>
</rwgt>
</event>
<event>
 4      1 +1.9882500e-09 3.39006900e+03 7.81860800e-03 7.66084200e-02
        2 -1    0    0  501    0 +0.0000000000e+00 +0.0000000000e+00 +2.2592462455e+03 2.2592462455e+03 0.0000000000e+00 0.0000e+00 1.0000e+00
       -2 -1    0    0    0  501 -0.0000000000e+00 -0.0000000000e+00 -1.2717261651e+03 1.2717261651e+03 0.0000000000e+00 0.0000e+00 -1.0000e+00
      -13  1    1    2    0    0 +4.6827862569e+02 +5.2291052478e+02 +2.1007484459e+03 2.2149185812e+03 0.0000000000e+00 0.0000e+00 1.0000e+00
       13  1    1    2    0    0 -4.6827862569e+02 -5.2291052478e+02 -1.1132283655e+03 1.3160538294e+03 0.0000000000e+00 0.0000e+00 -1.0000e+00
<mgrwt>
<rscale>  0 0.33900694E+04</rscale>
<asrwt>0</asrwt>
<pdfrwt beam="1">  1        2 0.34757634E+00 0.33900694E+04</pdfrwt>
<pdfrwt beam="2">  1       -2 0.19565018E+00 0.33900694E+04</pdfrwt>
<totfact> 0.63169895E-01</totfact>
</mgrwt>
<rwgt>
<wgt id='morphing_basis_vector_1'> +4.8855117e-05 </wgt>
<wgt id='morphing_basis_vector_2'> +6.2537139e-05 </wgt>
<wgt id='morphing_basis_vector_3'> +5.9823654e-05 </wgt>
<wgt id='morphing_basis_vector_4'> +7.8146203e-07 </wgt>
<wgt id='morphing_basis_vector_5'> +4.2548732e-05 </wgt>
</rwgt>
</event>
<event>
 4      1 +1.9882500e-09 3.39713400e+03 7.81860800e-03 7.65930600e-02
        2 -1    0    0  501    0 +0.0000000000e+00 +0.0000000000e+00 +1.4608535632e+03 1.4608535632e+03 0.0000000000e+00 0.0000e+00 1.0000e+00
       -2 -1    0    0    0  501 -0.0000000000e+00 -0.0000000000e+00 -1.9749615659e+03 1.9749615659e+03 0.0000000000e+00 0.0000e+00 -1.0000e+00
      -13  1    1    2    0    0 -1.1413045029e+03 -1.2047047858e+03 +1.0934165945e+02 1.6630830369e+03 0.0000000000e+00 0.0000e+00 1.0000e+00
       13  1    1    2    0    0 +1.1413045029e+03 +1.2047047858e+03 -6.2344966214e+02 1.7727320921e+03 0.0000000000e+00 0.0000e+00 -1.0000e+00
<mgrwt>
<rscale>  0 0.33971339E+04</rscale>
<asrwt>0</asrwt>
<pdfrwt beam="1">  1        2 0.22474670E+00 0.33971339E+04</pdfrwt>
<pdfrwt beam="2">  1       -2 0.30384024E+00 0.33971339E+04</pdfrwt>
<totfact> 0.31335133E-01</totfact>
</mgrwt>
<rwgt>
<wgt id='morphing_basis_vector_1'> +3.8907538e-05 </wgt>
<wgt id='morphing_basis_vector_2'> +3.2595023e-05 </wgt>
<wgt id='morphing_basis_vector_3'> +4.3917584e-05 </wgt>
<wgt id='morphing_basis_vector_4'> +2.2516093e-05 </wgt>
<wgt id='morphing_basis_vector_5'> +4.4704828e-05 </wgt>
</rwgt>
</event>
<event>
 4      1 +1.9882500e-09 3.27463200e+03 7.81860800e-03 7.68650100e-02
        2 -1    0    0  501    0 +0.0000000000e+00 +0.0000000000e+00 +1.4600292965e+03 1.4600292965e+03 0.0000000000e+00 0.0000e+00 -1.0000e+00
       -2 -1    0    0    0  501 -0.0000000000e+00 -0.0000000000e+00 -1.8361304847e+03 1.8361304847e+03 0.0000000000e+00 0.0000e+00 1.0000e+00
      -13  1    1    2    0    0 -7.8048110426e+02 -3.0237644021e+02 -1.6045051607e+03 1.8097013777e+03 0.0000000000e+00 0.0000e+00 1.0000e+00
       13  1    1    2    0    0 +7.8048110426e+02 +3.0237644021e+02 +1.2284039725e+03 1.4864584035e+03 0.0000000000e+00 0.0000e+00 -1.0000e+00
<mgrwt>
<rscale>  0 0.32746324E+04</rscale>
<asrwt>0</asrwt>
<pdfrwt beam="1">  1        2 0.22461989E+00 0.32746324E+04</pdfrwt>
<pdfrwt beam="2">  1       -2 0.28248161E+00 0.32746324E+04</pdfrwt>
<totfact> 0.44203129E-01</totfact>
</mgrwt>
<rwgt>
<wgt id='morphing_basis_vector_1'> +3.1233880e-05 </wgt>
<wgt id='morphing_basis_vector_2'> +2.1113992e-05 </wgt>
<wgt id='morphing_basis_vector_3'> +3.4129408e-05 </wgt>
<wgt id='morphing_basis_vector_4'> +2.4434147e-05 </wgt>
<wgt id='morphing_basis_vector_5'> +3.8971414e-05 </wgt>
</rwgt>
</event>
<event>
 4      1 +1.9882500e-09 3.24213100e+03 7.81860800e-03 7.69392300e-02
        2 -1    0    0  501    0 +0.0000000000e+00 +0.0000000000e+00 +1.3028430445e+03 1.3028430445e+03 0.0000000000e+00 0.0000e+00 -1.0000e+00
       -2 -1    0    0    0  501 -0.0000000000e+00 -0.0000000000e+00 -2.0170141598e+03 2.0170141598e+03 0.0000000000e+00 0.0000e+00 1.0000e+00
      -13  1    1    2    0    0 -1.6111217649e+03 +1.7646130565e+02 -3.2468952520e+02 1.6529595341e+03 0.0000000000e+00 0.0000e+00 1.0000e+00
       13  1    1    2    0    0 +1.6111217649e+03 -1.7646130565e+02 -3.8948159018e+02 1.6668976702e+03 0.0000000000e+00 0.0000e+00 -1.0000e+00
<mgrwt>
<rscale>  0 0.32421307E+04</rscale>
<asrwt>0</asrwt>
<pdfrwt beam="1">  1        2 0.20043739E+00 0.32421307E+04</pdfrwt>
<pdfrwt beam="2">  1       -2 0.31030987E+00 0.32421307E+04</pdfrwt>
<totfact> 0.35290995E-01</totfact>
</mgrwt>
<rwgt>
<wgt id='morphing_basis_vector_1'> +3.1197327e-05 </wgt>
<wgt id='morphing_basis_vector_2'> +2.3751609e-05 </wgt>
<wgt id='morphing_basis_vector_3'> +3.4650820e-05 </wgt>
<wgt id='morphing_basis_vector_4'> +2.1010523e-05 </wgt>
<wgt id='morphing_basis_vector_5'> +3.7232705e-05 </wgt>
</rwgt>
</event>
<event>
 4      1 +1.9882500e-09 3.24588400e+03 7.81860800e-03 7.69306100e-02
        2 -1    0    0  501    0 +0.0000000000e+00 +0.0000000000e+00 +2.5210637911e+03 2.5210637911e+03 0.0000000000e+00 0.0000e+00 -1.0000e+00
       -2 -1    0    0    0  501 -0.0000000000e+00 -0.0000000000e+00 -1.0447736239e+03 1.0447736239e+03 0.0000000000e+00 0.0000e+00 1.0000e+00
      -13  1    1    2    0    0 +8.9543478050e+02 +5.3680286600e+02 -6.2690751600e+02 1.2177741156e+03 0.0000000000e+00 0.0000e+00 1.0000e+00
       13  1    1    2    0    0 -8.9543478050e+02 -5.3680286600e+02 +2.1031976832e+03 2.3480632993e+03 0.0000000000e+00 0.0000e+00 -1.0000e+00
<mgrwt>
<rscale>  0 0.32458841E+04</rscale>
<asrwt>0</asrwt>
<pdfrwt beam="1">  1        2 0.38785597E+00 0.32458841E+04</pdfrwt>
<pdfrwt beam="2">  1       -2 0.16073440E+00 0.32458841E+04</pdfrwt>
<totfact> 0.82935399E-01</totfact>
</mgrwt>
<rwgt>
<wgt id='morphing_basis_vector_1'> +3.0174214e-05 </wgt>
<wgt id='morphing_basis_vector_2'> +2.0427462e-05 </wgt>
<wgt id='morphing_basis_vector_3'> +3.2970288e-05 </wgt>
<wgt id='morphing_basis_vector_4'> +2.3550697e-05 </wgt>
<wgt id='morphing_basis_vector_5'> +3.7608335e-05 </wgt>
</rwgt>
</event>
<event>
 4      1 +1.9882500e-09 3.41392800e+03 7.81860800e-03 7.65567000e-02
        2 -1    0    0  501    0 +0.0000000000e+00 +0.0000000000e+00 +2.6207081359e+03 2.6207081359e+03 0.0000000000e+00 0.0000e+00 -1.0000e+00
       -2 -1    0    0    0  501 -0.0000000000e+00 -0.0000000000e+00 -1.1118086284e+03 1.1118086284e+03 0.0000000000e+00 0.0000e+00 1.0000e+00
      -13  1    1    2    0    0 -2.0018440712e+02 +8.4184134261e+02 -8.5423848706e+02 1.2159334010e+03 0.0000000000e+00 0.0000e+00 1.0000e+00
       13  1    1    2    0    0 +2.0018440712e+02 -8.4184134261e+02 +2.3631379945e+03 2.5165833632e+03 0.0000000000e+00 0.0000e+00 -1.0000e+00
<mgrwt>
<rscale>  0 0.34139279E+04</rscale>
<asrwt>0</asrwt>
<pdfrwt beam="1">  1        2 0.40318586E+00 0.34139279E+04</pdfrwt>
<pdfrwt beam="2">  1       -2 0.17104748E+00 0.34139279E+04</pdfrwt>
<totfact> 0.59071649E-01</totfact>
</mgrwt>
<rwgt>
<wgt id='morphing_basis_vector_1'> +3.6851854e-05 </wgt>
<wgt id='morphing_basis_vector_2'> +2.4929217e-05 </wgt>
<wgt id='morphing_basis_vector_3'> +4.0313725e-05 </wgt>
<wgt id='morphing_basis_vector_4'> +2.8898623e-05 </wgt>
<wgt id='morphing_basis_vector_5'> +4.6092395e-05 </wgt>
</rwgt>
</event>
<event>
 4      1 +1.9882500e-09 3.28622000e+03 7.81860800e-03 7.68387700e-02
        2 -1    0    0  501    0 +0.0000000000e+00 +0.0000000000e+00 +3.2068204018e+03 3.2068204018e+03 0.0000000000e+00 0.0000e+00 1.0000e+00
       -2 -1    0    0    0  501 -0.0000000000e+00 -0.0000000000e+00 -8.4189612884e+02 8.4189612884e+02 0.0000000000e+00 0.0000e+00 -1.0000e+00
      -13  1    1    2    0    0 -8.7063555855e+02 -4.0762565102e+02 -4.5925691844e+02 1.0654022078e+03 0.0000000000e+00 0.0000e+00 -1.0000e+00
       13  1    1    2    0    0 +8.7063555855e+02 +4.0762565102e+02 +2.8241811913e+03 2.9833143228e+03 0.0000000000e+00 0.0000e+00 1.0000e+00
<mgrwt>
<rscale>  0 0.32862195E+04</rscale>
<asrwt>0</asrwt>
<pdfrwt beam="1">  1        2 0.49335698E+00 0.32862195E+04</pdfrwt>
<pdfrwt beam="2">  1       -2 0.12952248E+00 0.32862195E+04</pdfrwt>
<totfact> 0.55502263E-01</totfact>
</mgrwt>
<rwgt>
<wgt id='morphing_basis_vector_1'> +3.1681588e-05 </wgt>
<wgt id='morphing_basis_vector_2'> +2.1433163e-05 </wgt>
<wgt id='morphing_basis_vector_3'> +3.4625332e-05 </wgt>
<wgt id='morphing_basis_vector_4'> +2.4770356e-05 </wgt>
<wgt id='morphing_basis_vector_5'> +3.9528919e-05 </wgt>
</rwgt>
</event>
<event>
 4      1 +1.9882500e-09 3.44928200e+03 7.81860800e-03 7.64808500e-02
        2 -1    0    0  501    0 +0.0000000000e+00 +0.0000000000e+00 +2.4683834015e+03 2.4683834015e+03 0.0000000000e+00 0.0000e+00 -1.0000e+00
       -2 -1    0    0    0  501 -0.0000000000e+00 -0.0000000000e+00 -1.2049937865e+03 1.2049937865e+03 0.0000000000e+00 0.0000e+00 1.0000e+00
      -13  1    1    2    0    0 +1.6584835970e+03 -4.3272969531e+02 +4.2805500810e+02 1.7666504806e+03 0.0000000000e+00 0.0000e+00 1.0000e+00
       13  1    1    2    0    0 -1.6584835970e+03 +4.3272969531e+02 +8.3533460692e+02 1.9067267073e+03 0.0000000000e+00 0.0000e+00 -1.0000e+00
<mgrwt>
<rscale>  0 0.34492820E+04</rscale>
<asrwt>0</asrwt>
<pdfrwt beam="1">  1        2 0.37975129E+00 0.34492820E+04</pdfrwt>
<pdfrwt beam="2">  1       -2 0.18538366E+00 0.34492820E+04</pdfrwt>
<totfact> 0.56530074E-01</totfact>
</mgrwt>
<rwgt>
<wgt id='morphing_basis_vector_1'> +3.9319848e-05 </wgt>
<wgt id='morphing_basis_vector_2'> +2.8706902e-05 </wgt>
<wgt id='morphing_basis_vector_3'> +4.3482603e-05 </wgt>
<wgt id='morphing_basis_vector_4'> +2.8172138e-05 </wgt>
<wgt id='morphing_basis_vector_5'> +4.7883415e-05 </wgt>
</rwgt>
</event>
<event>
 4      1 +1.9882500e-09 3.42564400e+03 7.81860800e-03 7.65314600e-02
        2 -1    0    0  501    0 +0.0000000000e+00 +0.0000000000e+00 +1.6863676238e+03 1.6863676238e+03 0.0000000000e+00 0.0000e+00 -1.0000e+00
       -2 -1    0    0    0  501 -0.0000000000e+00 -0.0000000000e+00 -1.7396911879e+03 1.7396911879e+03 0.0000000000e+00 0.0000e+00 1.0000e+00
      -13  1    1    2    0    0 -1.7396357279e+02 -8.4900063844e+02 -1.5042349116e+03 1.7360265200e+03 0.0000000000e+00 0.0000e+00 1.0000e+00
       13  1    1    2    0    0 +1.7396357279e+02 +8.4900063844e+02 +1.4509113475e+03 1.6900322917e+03 0.0000000000e+00 0.0000e+00 -1.0000e+00
<mgrwt>
<rscale>  0 0.34256438E+04</rscale>
<asrwt>0</asrwt>
<pdfrwt beam="1">  1        2 0.25944117E+00 0.34256438E+04</pdfrwt>
<pdfrwt beam="2">  1       -2 0.26764480E+00 0.34256438E+04</pdfrwt>
<totfact> 0.41210576E-01</totfact>
</mgrwt>
<rwgt>
<wgt id='morphing_basis_vector_1'> +3.7356680e-05 </wgt>
<wgt id='morphing_basis_vector_2'> +2.5272007e-05 </wgt>
<wgt id='morphing_basis_vector_3'> +4.0869584e-05 </wgt>
<wgt id='morphing_basis_vector_4'> +2.9300185e-05 </wgt>
<wgt id='morphing_basis_vector_5'> +4.6732749e-05 </wgt>
</rwgt>
</event>
<event>
 4      1 +1.9882500e-09 3.29494600e+03 7.81860800e-03 7.68190800e-02
        2 -1    0    0  501    0 +0.0000000000e+00 +0.0000000000e+00 +1.7856957131e+03 1.7856957131e+03 0.0000000000e+00 0.0000e+00 1.0000e+00
       -2 -1    0    0    0  501 -0.0000000000e+00 -0.0000000000e+00 -1.5199493193e+03 1.5199493193e+03 0.0000000000e+00 0.0000e+00 -1.0000e+00
      -13  1    1    2    0    0 -1.5171905301e+03 -5.9535090728e+02 -1.0844304604e+02 1.6334226954e+03 0.0000000000e+00 0.0000e+00 -1.0000e+00
       13  1    1    2    0    0 +1.5171905301e+03 +5.9535090728e+02 +3.7418943983e+02 1.6722223370e+03 0.0000000000e+00 0.0000e+00 1.0000e+00
<mgrwt>
<rscale>  0 0.32949458E+04</rscale>
<asrwt>0</asrwt>
<pdfrwt beam="1">  1        2 0.27472242E+00 0.32949458E+04</pdfrwt>
<pdfrwt beam="2">  1       -2 0.23383836E+00 0.32949458E+04</pdfrwt>
<totfact> 0.62839426E-01</totfact>
</mgrwt>
<rwgt>
<wgt id='morphing_basis_vector_1'> +3.2685851e-05 </wgt>
<wgt id='morphing_basis_vector_2'> +2.3629752e-05 </wgt>
<wgt id='morphing_basis_vector_3'> +3.6051691e-05 </wgt>
<wgt id='morphing_basis_vector_4'> +2.3634928e-05 </wgt>
<wgt id='morphing_basis_vector_5'> +3.9837774e-05 </wgt>
</rwgt>
</event>
<event>
 4      1 +1.9882500e-09 3.24329300e+03 7.81860800e-03 7.69365600e-02
        2 -1    0    0  501    0 +0.0000000000e+00 +0.0000000000e+00 +2.8140317568e+03 2.8140317568e+03 0.0000000000e+00 0.0000e+00 -1.0000e+00
       -2 -1    0    0    0  501 -0.0000000000e+00 -0.0000000000e+00 -9.3450860076e+02 9.3450860076e+02 0.0000000000e+00 0.0000e+00 1.0000e+00
      -13  1    1    2    0    0 -1.4476035179e+03 +1.4164174691e+02 +1.1104183815e+02 1.4587489912e+03 0.0000000000e+00 0.0000e+00 1.0000e+00
       13  1    1    2    0    0 +1.4476035179e+03 -1.4164174691e+02 +1.7684813179e+03 2.2897913663e+03 0.0000000000e+00 0.0000e+00 -1.0000e+00
<mgrwt>
<rscale>  0 0.32432927E+04</rscale>
<asrwt>0</asrwt>
<pdfrwt beam="1">  1        2 0.43292796E+00 0.32432927E+04</pdfrwt>
<pdfrwt beam="2">  1       -2 0.14377056E+00 0.32432927E+04</pdfrwt>
<totfact> 0.75586000E-01</totfact>
</mgrwt>
<rwgt>
<wgt id='morphing_basis_vector_1'> +3.0237613e-05 </wgt>
<wgt id='morphing_basis_vector_2'> +2.0830186e-05 </wgt>
<wgt id='morphing_basis_vector_3'> +3.3115939e-05 </wgt>
<wgt id='morphing_basis_vector_4'> +2.3142456e-05 </wgt>
<wgt id='morphing_basis_vector_5'> +3.7460015e-05 </wgt>
</rwgt>
</event>
<event>
 4      1 +1.9882500e-09 3.29579700e+03 7.81860800e-03 7.68171600e-02
        2 -1    0    0  501    0 +0.0000000000e+00 +0.0000000000e+00 +1.7844755707e+03 1.7844755707e+03 0.0000000000e+00 0.0000e+00 -1.0000e+00
       -2 -1    0    0    0  501 -0.0000000000e+00 -0.0000000000e+00 -1.5217741724e+03 1.5217741724e+03 0.0000000000e+00 0.0000e+00 1.0000e+00
      -13  1    1    2    0    0 -4.1700412349e+02 +1.4011594564e+03 +8.9430780319e+02 1.7137463955e+03 0.0000000000e+00 0.0000e+00 1.0000e+00
       13  1    1    2    0    0 +4.1700412349e+02 -1.4011594564e+03 -6.3160640486e+02 1.5925033476e+03 0.0000000000e+00 0.0000e+00 -1.0000e+00
<mgrwt>
<rscale>  0 0.32957966E+04</rscale>
<asrwt>0</asrwt>
<pdfrwt beam="1">  1        2 0.27453470E+00 0.32957966E+04</pdfrwt>
<pdfrwt beam="2">  1       -2 0.23411910E+00 0.32957966E+04</pdfrwt>
<totfact> 0.62649525E-01</totfact>
</mgrwt>
<rwgt>
<wgt id='morphing_basis_vector_1'> +3.7352476e-05 </wgt>
<wgt id='morphing_basis_vector_2'> +3.7288792e-05 </wgt>
<wgt id='morphing_basis_vector_3'> +4.3411709e-05 </wgt>
<wgt id='morphing_basis_vector_4'> +1.3953138e-05 </wgt>
<wgt id='morphing_basis_vector_5'> +3.9077216e-05 </wgt>
</rwgt>
</event>
<event>
 4      1 +1.9882500e-09 3.37517400e+03 7.81860800e-03 7.66409300e-02
        2 -1    0    0  501    0 +0.0000000000e+00 +0.0000000000e+00 +1.7733903085e+03 1.7733903085e+03 0.0000000000e+00 0.0000e+00 1.0000e+00
       -2 -1    0    0    0  501 -0.0000000000e+00 -0.0000000000e+00 -1.6059347127e+03 1.6059347127e+03 0.0000000000e+00 0.0000e+00 -1.0000e+00
      -13  1    1    2    0    0 -9.6290140517e+02 -1.3395026583e+03 -2.7238167876e+02 1.6720162279e+03 0.0000000000e+00 0.0000e+00 -1.0000e+00
       13  1    1    2    0    0 +9.6290140517e+02 +1.3395026583e+03 +4.3983727450e+02 1.7073087933e+03 0.0000000000e+00 0.0000e+00 1.0000e+00
<mgrwt>
<rscale>  0 0.33751735E+04</rscale>
<asrwt>0</asrwt>
<pdfrwt beam="1">  1        2 0.27282928E+00 0.33751735E+04</pdfrwt>
<pdfrwt beam="2">  1       -2 0.24706688E+00 0.33751735E+04</pdfrwt>
<totfact> 0.51298742E-01</totfact>
</mgrwt>
<rwgt>
<wgt id='morphing_basis_vector_1'> +3.5793438e-05 </wgt>
<wgt id='morphing_basis_vector_2'> +2.5512008e-05 </wgt>
<wgt id='morphing_basis_vector_3'> +3.9426152e-05 </wgt>
<wgt id='morphing_basis_vector_4'> +2.6393315e-05 </wgt>
<wgt id='morphing_basis_vector_5'> +4.3921108e-05 </wgt>
</rwgt>
</event>
<event>
 4      1 +1.9882500e-09 3.32555600e+03 7.81860800e-03 7.67505000e-02
        2 -1    0    0  501    0 +0.0000000000e+00 +0.0000000000e+00 +2.2265661810e+03 2.2265661810e+03 0.0000000000e+00 0.0000e+00 -1.0000e+00
       -2 -1    0    0    0  501 -0.0000000000e+00 -0.0000000000e+00 -1.2417467409e+03 1.2417467409e+03 0.0000000000e+00 0.0000e+00 1.0000e+00
      -13  1    1    2    0    0 -2.3939951330e+02 +5.2631681920e+02 -1.1335232813e+03 1.2724765422e+03 0.0000000000e+00 0.0000e+00 1.0000e+00
       13  1    1    2    0    0 +2.3939951330e+02 -5.2631681920e+02 +2.1183427215e+03 2.1958363798e+03 0.0000000000e+00 0.0000e+00 -1.0000e+00
<mgrwt>
<rscale>  0 0.33255564E+04</rscale>
<asrwt>0</asrwt>
<pdfrwt beam="1">  1        2 0.34254864E+00 0.33255564E+04</pdfrwt>
<pdfrwt beam="2">  1       -2 0.19103796E+00 0.33255564E+04</pdfrwt>
<totfact> 0.71749886E-01</totfact>
</mgrwt>
<rwgt>
<wgt id='morphing_basis_vector_1'> +3.3200820e-05 </wgt>
<wgt id='morphing_basis_vector_2'> +2.2435537e-05 </wgt>
<wgt id='morphing_basis_vector_3'> +3.6291239e-05 </wgt>
<wgt id='morphing_basis_vector_4'> +2.6014575e-05 </wgt>
<wgt id='morphing_basis_vector_5'> +4.1472544e-05 </wgt>
</rwgt>
</event>
<event>
 4      1 +1.9882500e-09 3.24159600e+03 7.81860800e-03 7.69404500e-02
        2 -1    0    0  501    0 +0.0000000000e+00 +0.0000000000e+00 +1.0923203071e+03 1.0923203071e+03 0.0000000000e+00 0.0000e+00 1.0000e+00
       -2 -1    0    0    0  501 -0.0000000000e+00 -0.0000000000e+00 -2.4049600034e+03 2.4049600034e+03 0.0000000000e+00 0.0000e+00 -1.0000e+00
      -13  1    1    2    0    0 +8.8482617723e+01 +1.2073243488e+03 -1.8190685642e+03 2.1850564519e+03 0.0000000000e+00 0.0000e+00 -1.0000e+00
       13  1    1    2    0    0 -8.8482617723e+01 -1.2073243488e+03 +5.0642886784e+02 1.3122238586e+03 0.0000000000e+00 0.0000e+00 1.0000e+00
<mgrwt>
<rscale>  0 0.32415963E+04</rscale>
<asrwt>0</asrwt>
<pdfrwt beam="1">  1        2 0.16804928E+00 0.32415963E+04</pdfrwt>
<pdfrwt beam="2">  1       -2 0.36999385E+00 0.32415963E+04</pdfrwt>
<totfact> 0.19035389E-01</totfact>
</mgrwt>
<rwgt>
<wgt id='morphing_basis_vector_1'> +3.0044132e-05 </wgt>
<wgt id='morphing_basis_vector_2'> +2.0401925e-05 </wgt>
<wgt id='morphing_basis_vector_3'> +3.2840396e-05 </wgt>
<wgt id='morphing_basis_vector_4'> +2.3367384e-05 </wgt>
<wgt id='morphing_basis_vector_5'> +3.7403704e-05 </wgt>
</rwgt>
</event>
<event>
 4      1 +1.9882500e-09 3.66451600e+03 7.81860800e-03 7.60383600e-02
        2 -1    0    0  501    0 +0.0000000000e+00 +0.0000000000e+00 +2.6216186656e+03 2.6216186656e+03 0.0000000000e+00 0.0000e+00 1.0000e+00
       -2 -1    0    0    0  501 -0.0000000000e+00 -0.0000000000e+00 -1.2805710450e+03 1.2805710450e+03 0.0000000000e+00 0.0000e+00 -1.0000e+00
      -13  1    1    2    0    0 -1.2714381223e+02 -8.6841673603e+02 -1.0421627625e+03 1.3625037247e+03 0.0000000000e+00 0.0000e+00 -1.0000e+00
       13  1    1    2    0    0 +1.2714381223e+02 +8.6841673603e+02 +2.3832103831e+03 2.5396859858e+03 0.0000000000e+00 0.0000e+00 1.0000e+00
<mgrwt>
<rscale>  0 0.36645158E+04</rscale>
<asrwt>0</asrwt>
<pdfrwt beam="1">  1        2 0.40332595E+00 0.36645158E+04</pdfrwt>
<pdfrwt beam="2">  1       -2 0.19701093E+00 0.36645158E+04</pdfrwt>
<totfact> 0.36816474E-01</totfact>
</mgrwt>
<rwgt>
<wgt id='morphing_basis_vector_1'> +4.8829225e-05 </wgt>
<wgt id='morphing_basis_vector_2'> +3.3062767e-05 </wgt>
<wgt id='morphing_basis_vector_3'> +5.3507323e-05 </wgt>
<wgt id='morphing_basis_vector_4'> +3.8437000e-05 </wgt>
<wgt id='morphing_basis_vector_5'> +6.1300546e-05 </wgt>
</rwgt>
</event>
<event>
 4      1 +1.9882500e-09 3.34586900e+03 7.81860800e-03 7.67054100e-02
        2 -1    0    0  501    0 +0.0000000000e+00 +0.0000000000e+00 +1.7480665005e+03 1.7480665005e+03 0.0000000000e+00 0.0000e+00 -1.0000e+00
       -2 -1    0    0    0  501 -0.0000000000e+00 -0.0000000000e+00 -1.6010321309e+03 1.6010321309e+03 0.0000000000e+00 0.0000e+00 1.0000e+00
      -13  1    1    2    0    0 -2.6918340971e+02 -1.6498339066e+03 +1.3914727785e+02 1.6774306520e+03 0.0000000000e+00 0.0000e+00 -1.0000e+00
       13  1    1    2    0    0 +2.6918340971e+02 +1.6498339066e+03 +7.8870918114e+00 1.6716679794e+03 0.0000000000e+00 0.0000e+00 1.0000e+00
<mgrwt>
<rscale>  0 0.33458695E+04</rscale>
<asrwt>0</asrwt>
<pdfrwt beam="1">  1        2 0.26893331E+00 0.33458695E+04</pdfrwt>
<pdfrwt beam="2">  1       -2 0.24631263E+00 0.33458695E+04</pdfrwt>
<totfact> 0.53762359E-01</totfact>
</mgrwt>
<rwgt>
<wgt id='morphing_basis_vector_1'> +3.5449964e-05 </wgt>
<wgt id='morphing_basis_vector_2'> +2.7214353e-05 </wgt>
<wgt id='morphing_basis_vector_3'> +3.9459361e-05 </wgt>
<wgt id='morphing_basis_vector_4'> +2.3648219e-05 </wgt>
<wgt id='morphing_basis_vector_5'> +4.2253464e-05 </wgt>
</rwgt>
</event>
<event>
 4      1 +1.9882500e-09 3.24486400e+03 7.81860800e-03 7.69329500e-02
        2 -1    0    0  501    0 +0.0000000000e+00 +0.0000000000e+00 +2.2313338053e+03 2.2313338053e+03 0.0000000000e+00 0.0000e+00 -1.0000e+00
       -2 -1    0    0    0  501 -0.0000000000e+00 -0.0000000000e+00 -1.1796914530e+03 1.1796914530e+03 0.0000000000e+00 0.0000e+00 1.0000e+00
      -13  1    1    2    0    0 +1.6205408031e+03 +7.5429674609e+01 +5.0368861007e+02 1.6986890081e+03 0.0000000000e+00 0.0000e+00 1.0000e+00
       13  1    1    2    0    0 -1.6205408031e+03 -7.5429674609e+01 +5.4795374217e+02 1.7123362502e+03 0.0000000000e+00 0.0000e+00 -1.0000e+00
<mgrwt>
<rscale>  0 0.32448639E+04</rscale>
<asrwt>0</asrwt>
<pdfrwt beam="1">  1        2 0.34328212E+00 0.32448639E+04</pdfrwt>
<pdfrwt beam="2">  1       -2 0.18149099E+00 0.32448639E+04</pdfrwt>
<totfact> 0.84630408E-01</totfact>
</mgrwt>
<rwgt>
<wgt id='morphing_basis_vector_1'> +3.1170858e-05 </wgt>
<wgt id='morphing_basis_vector_2'> +2.3445965e-05 </wgt>
<wgt id='morphing_basis_vector_3'> +3.4561143e-05 </wgt>
<wgt id='morphing_basis_vector_4'> +2.1356133e-05 </wgt>
<wgt id='morphing_basis_vector_5'> +3.7381994e-05 </wgt>
</rwgt>
</event>
<event>
 4      1 +1.9882500e-09 3.31677000e+03 7.81860800e-03 7.67701000e-02
        2 -1    0    0  501    0 +0.0000000000e+00 +0.0000000000e+00 +1.4430086732e+03 1.4430086732e+03 0.0000000000e+00 0.0000e+00 -1.0000e+00
       -2 -1    0    0    0  501 -0.0000000000e+00 -0.0000000000e+00 -1.9059069038e+03 1.9059069038e+03 0.0000000000e+00 0.0000e+00 1.0000e+00
      -13  1    1    2    0    0 -3.8425148104e+02 -1.5291088388e+03 -7.5064794202e+02 1.7462231743e+03 0.0000000000e+00 0.0000e+00 1.0000e+00
       13  1    1    2    0    0 +3.8425148104e+02 +1.5291088388e+03 +2.8774971147e+02 1.6026924028e+03 0.0000000000e+00 0.0000e+00 -1.0000e+00
<mgrwt>
<rscale>  0 0.33167696E+04</rscale>
<asrwt>0</asrwt>
<pdfrwt beam="1">  1        2 0.22200133E+00 0.33167696E+04</pdfrwt>
<pdfrwt beam="2">  1       -2 0.29321645E+00 0.33167696E+04</pdfrwt>
<totfact> 0.38069666E-01</totfact>
</mgrwt>
<rwgt>
<wgt id='morphing_basis_vector_1'> +3.3213180e-05 </wgt>
<wgt id='morphing_basis_vector_2'> +2.3257338e-05 </wgt>
<wgt id='morphing_basis_vector_3'> +3.6477600e-05 </wgt>
<wgt id='morphing_basis_vector_4'> +2.4985819e-05 </wgt>
<wgt id='morphing_basis_vector_5'> +4.0970593e-05 </wgt>
</rwgt>
</event>
<event>
 4      1 +1.9882500e-09 3.32990400e+03 7.81860800e-03 7.67408200e-02
        2 -1    0    0  501    0 +0.0000000000e+00 +0.0000000000e+00 +1.2738863216e+03 1.2738863216e+03 0.0000000000e+00 0.0000e+00 -1.0000e+00
       -2 -1    0    0    0  501 -0.0000000000e+00 -0.0000000000e+00 -2.1760694669e+03 2.1760694669e+03 0.0000000000e+00 0.0000e+00 1.0000e+00
      -13  1    1    2    0    0 +7.8469291899e+02 +1.0170258058e+03 -1.5485157020e+03 2.0119605727e+03 0.0000000000e+00 0.0000e+00 1.0000e+00
       13  1    1    2    0    0 -7.8469291899e+02 -1.0170258058e+03 +6.4633255674e+02 1.4379952158e+03 0.0000000000e+00 0.0000e+00 -1.0000e+00
<mgrwt>
<rscale>  0 0.33299040E+04</rscale>
<asrwt>0</asrwt>
<pdfrwt beam="1">  1        2 0.19598251E+00 0.33299040E+04</pdfrwt>
<pdfrwt beam="2">  1       -2 0.33477992E+00 0.33299040E+04</pdfrwt>
<totfact> 0.25029813E-01</totfact>
</mgrwt>
<rwgt>
<wgt id='morphing_basis_vector_1'> +3.3439017e-05 </wgt>
<wgt id='morphing_basis_vector_2'> +2.2745567e-05 </wgt>
<wgt id='morphing_basis_vector_3'> +3.6584957e-05 </wgt>
<wgt id='morphing_basis_vector_4'> +2.6014475e-05 </wgt>
<wgt id='morphing_basis_vector_5'> +4.1680054e-05 </wgt>
</rwgt>
</event>
<event>
 4      1 +1.9882500e-09 3.75250500e+03 7.81860800e-03 7.58663600e-02
        2 -1    0    0  501    0 +0.0000000000e+00 +0.0000000000e+00 +3.8006182421e+03 3.8006182421e+03 0.0000000000e+00 0.0000e+00 1.0000e+00
       -2 -1    0    0    0  501 -0.0000000000e+00 -0.0000000000e+00 -9.2625007926e+02 9.2625007926e+02 0.0000000000e+00 0.0000e+00 -1.0000e+00
      -13  1    1    2    0    0 -2.6095092118e+02 +1.7905837791e+03 +2.0620009222e+03 2.7433799329e+03 0.0000000000e+00 0.0000e+00 1.0000e+00
       13  1    1    2    0    0 +2.6095092118e+02 -1.7905837791e+03 +8.1236724063e+02 1.9834883884e+03 0.0000000000e+00 0.0000e+00 -1.0000e+00
<mgrwt>
<rscale>  0 0.37525047E+04</rscale>
<asrwt>0</asrwt>
<pdfrwt beam="1">  1        2 0.58471049E+00 0.37525047E+04</pdfrwt>
<pdfrwt beam="2">  1       -2 0.14250001E+00 0.37525047E+04</pdfrwt>
<totfact> 0.15040829E-01</totfact>
</mgrwt>
<rwgt>
<wgt id='morphing_basis_vector_1'> +5.8533025e-05 </wgt>
<wgt id='morphing_basis_vector_2'> +5.0674129e-05 </wgt>
<wgt id='morphing_basis_vector_3'> +6.6616679e-05 </wgt>
<wgt id='morphing_basis_vector_4'> +3.2007920e-05 </wgt>
<wgt id='morphing_basis_vector_5'> +6.6586269e-05 </wgt>
</rwgt>
</event>
<event>
 4      1 +1.9882500e-09 3.74328800e+03 7.81860800e-03 7.58841500e-02
        2 -1    0    0  501    0 +0.0000000000e+00 +0.0000000000e+00 +1.9582309564e+03 1.9582309564e+03 0.0000000000e+00 0.0000e+00 1.0000e+00
       -2 -1    0    0    0  501 -0.0000000000e+00 -0.0000000000e+00 -1.7888854600e+03 1.7888854600e+03 0.0000000000e+00 0.0000e+00 -1.0000e+00
      -13  1    1    2    0    0 -6.4916378802e+02 +8.1064131482e+01 -1.6707073851e+03 1.7942263468e+03 0.0000000000e+00 0.0000e+00 -1.0000e+00
       13  1    1    2    0    0 +6.4916378802e+02 -8.1064131482e+01 +1.8400528815e+03 1.9528900696e+03 0.0000000000e+00 0.0000e+00 1.0000e+00
<mgrwt>
<rscale>  0 0.37432878E+04</rscale>
<asrwt>0</asrwt>
<pdfrwt beam="1">  1        2 0.30126630E+00 0.37432878E+04</pdfrwt>
<pdfrwt beam="2">  1       -2 0.27521315E+00 0.37432878E+04</pdfrwt>
<totfact> 0.25132904E-01</totfact>
</mgrwt>
<rwgt>
<wgt id='morphing_basis_vector_1'> +5.3131168e-05 </wgt>
<wgt id='morphing_basis_vector_2'> +3.5971102e-05 </wgt>
<wgt id='morphing_basis_vector_3'> +5.8245516e-05 </wgt>
<wgt id='morphing_basis_vector_4'> +4.1884694e-05 </wgt>
<wgt id='morphing_basis_vector_5'> +6.6777907e-05 </wgt>
</rwgt>
</event>
<event>
 4      1 +1.9882500e-09 3.76402200e+03 7.81860800e-03 7.58442000e-02
        2 -1    0    0  501    0 +0.0000000000e+00 +0.0000000000e+00 +1.8455372867e+03 1.8455372867e+03 0.0000000000e+00 0.0000e+00 -1.0000e+00
       -2 -1    0    0    0  501 -0.0000000000e+00 -0.0000000000e+00 -1.9192057580e+03 1.9192057580e+03 0.0000000000e+00 0.0000e+00 1.0000e+00
      -13  1    1    2    0    0 +1.2184603012e+03 -4.5899972125e+02 -1.3960056371e+03 1.9089677809e+03 0.0000000000e+00 0.0000e+00 1.0000e+00
       13  1    1    2    0    0 -1.2184603012e+03 +4.5899972125e+02 +1.3223371657e+03 1.8557752638e+03 0.0000000000e+00 0.0000e+00 -1.0000e+00
<mgrwt>
<rscale>  0 0.37640222E+04</rscale>
<asrwt>0</asrwt>
<pdfrwt beam="1">  1        2 0.28392881E+00 0.37640222E+04</pdfrwt>
<pdfrwt beam="2">  1       -2 0.29526242E+00 0.37640222E+04</pdfrwt>
<totfact> 0.21201220E-01</totfact>
</mgrwt>
<rwgt>
<wgt id='morphing_basis_vector_1'> +5.4366435e-05 </wgt>
<wgt id='morphing_basis_vector_2'> +3.6935276e-05 </wgt>
<wgt id='morphing_basis_vector_3'> +5.9634518e-05 </wgt>
<wgt id='morphing_basis_vector_4'> +4.2709122e-05 </wgt>
<wgt id='morphing_basis_vector_5'> +6.8268623e-05 </wgt>
</rwgt>
</event>
<event>
 4      1 +1.9882500e-09 3.23535000e+03 7.81860800e-03 7.69548200e-02
        2 -1    0    0  501    0 +0.0000000000e+00 +0.0000000000e+00 +1.6453287676e+03 1.6453287676e+03 0.0000000000e+00 0.0000e+00 -1.0000e+00
       -2 -1    0    0    0  501 -0.0000000000e+00 -0.0000000000e+00 -1.5904855858e+03 1.5904855858e+03 0.0000000000e+00 0.0000e+00 1.0000e+00
      -13  1    1    2    0    0 +1.0646281769e+03 -8.3198144411e+02 -8.6222596320e+02 1.6028287151e+03 0.0000000000e+00 0.0000e+00 1.0000e+00
       13  1    1    2    0    0 -1.0646281769e+03 +8.3198144411e+02 +9.1706914496e+02 1.6329856383e+03 0.0000000000e+00 0.0000e+00 -1.0000e+00
<mgrwt>
<rscale>  0 0.32353496E+04</rscale>
<asrwt>0</asrwt>
<pdfrwt beam="1">  1        2 0.25312750E+00 0.32353496E+04</pdfrwt>
<pdfrwt beam="2">  1       -2 0.24469009E+00 0.32353496E+04</pdfrwt>
<totfact> 0.63515167E-01</totfact>
</mgrwt>
<rwgt>
<wgt id='morphing_basis_vector_1'> +2.9867519e-05 </wgt>
<wgt id='morphing_basis_vector_2'> +2.0400167e-05 </wgt>
<wgt id='morphing_basis_vector_3'> +3.2670964e-05 </wgt>
<wgt id='morphing_basis_vector_4'> +2.3076572e-05 </wgt>
<wgt id='morphing_basis_vector_5'> +3.7104975e-05 </wgt>
</rwgt>
</event>
<event>
 4      1 +1.9882500e-09 3.39125200e+03 7.81860800e-03 7.66058400e-02
        2 -1    0    0  501    0 +0.0000000000e+00 +0.0000000000e+00 +2.2993768054e+03 2.2993768054e+03 0.0000000000e+00 0.0000e+00 1.0000e+00
       -2 -1    0    0    0  501 -0.0000000000e+00 -0.0000000000e+00 -1.2504031479e+03 1.2504031479e+03 0.0000000000e+00 0.0000e+00 -1.0000e+00
      -13  1    1    2    0    0 +1.1271264816e+02 +1.5371827091e+03 +1.2642876477e+03 1.9935039700e+03 0.0000000000e+00 0.0000e+00 1.0000e+00
       13  1    1    2    0    0 -1.1271264816e+02 -1.5371827091e+03 -2.1531399023e+02 1.5562759834e+03 0.0000000000e+00 0.0000e+00 -1.0000e+00
<mgrwt>
<rscale>  0 0.33912523E+04</rscale>
<asrwt>0</asrwt>
<pdfrwt beam="1">  1        2 0.35375028E+00 0.33912523E+04</pdfrwt>
<pdfrwt beam="2">  1       -2 0.19236972E+00 0.33912523E+04</pdfrwt>
<totfact> 0.63312390E-01</totfact>
</mgrwt>
<rwgt>
<wgt id='morphing_basis_vector_1'> +4.1119312e-05 </wgt>
<wgt id='morphing_basis_vector_2'> +3.9663659e-05 </wgt>
<wgt id='morphing_basis_vector_3'> +4.7541672e-05 </wgt>
<wgt id='morphing_basis_vector_4'> +1.7158178e-05 </wgt>
<wgt id='morphing_basis_vector_5'> +4.3963554e-05 </wgt>
</rwgt>
</event>
<event>
 4      1 +1.9882500e-09 3.81433600e+03 7.81860800e-03 7.57483400e-02
        2 -1    0    0  501    0 +0.0000000000e+00 +0.0000000000e+00 +2.3148742641e+03 2.3148742641e+03 0.0000000000e+00 0.0000e+00 1.0000e+00
       -2 -1    0    0    0  501 -0.0000000000e+00 -0.0000000000e+00 -1.5712685206e+03 1.5712685206e+03 0.0000000000e+00 0.0000e+00 -1.0000e+00
      -13  1    1    2    0    0 +3.9529226461e+02 +1.1435744369e+03 -1.1301515414e+03 1.6556753830e+03 0.0000000000e+00 0.0000e+00 -1.0000e+00
       13  1    1    2    0    0 -3.9529226461e+02 -1.1435744369e+03 +1.8737572850e+03 2.2304674017e+03 0.0000000000e+00 0.0000e+00 1.0000e+00
<mgrwt>
<rscale>  0 0.38143356E+04</rscale>
<asrwt>0</asrwt>
<pdfrwt beam="1">  1        2 0.35613450E+00 0.38143356E+04</pdfrwt>
<pdfrwt beam="2">  1       -2 0.24173362E+00 0.38143356E+04</pdfrwt>
<totfact> 0.26599839E-01</totfact>
</mgrwt>
<rwgt>
<wgt id='morphing_basis_vector_1'> +5.7292245e-05 </wgt>
<wgt id='morphing_basis_vector_2'> +3.8879304e-05 </wgt>
<wgt id='morphing_basis_vector_3'> +6.2850355e-05 </wgt>
<wgt id='morphing_basis_vector_4'> +4.5099212e-05 </wgt>
<wgt id='morphing_basis_vector_5'> +7.2017741e-05 </wgt>
</rwgt>
</event>
<event>
 4      1 +1.9882500e-09 3.30684600e+03 7.81860800e-03 7.67923200e-02
        2 -1    0    0  501    0 +0.0000000000e+00 +0.0000000000e+00 +2.0165398678e+03 2.0165398678e+03 0.0000000000e+00 0.0000e+00 -1.0000e+00
       -2 -1    0    0    0  501 -0.0000000000e+00 -0.0000000000e+00 -1.3556924306e+03 1.3556924306e+03 0.0000000000e+00 0.0000e+00 1.0000e+00
      -13  1    1    2    0    0 +1.0296114773e+03 +5.9330545835e+02 -8.4195896337e+02 1.4563674183e+03 0.0000000000e+00 0.0000e+00 1.0000e+00
       13  1    1    2    0    0 -1.0296114773e+03 -5.9330545835e+02 +1.5028064006e+03 1.9158648801e+03 0.0000000000e+00 0.0000e+00 -1.0000e+00
<mgrwt>
<rscale>  0 0.33068461E+04</rscale>
<asrwt>0</asrwt>
<pdfrwt beam="1">  1        2 0.31023690E+00 0.33068461E+04</pdfrwt>
<pdfrwt beam="2">  1       -2 0.20856807E+00 0.33068461E+04</pdfrwt>
<totfact> 0.70443942E-01</totfact>
</mgrwt>
<rwgt>
<wgt id='morphing_basis_vector_1'> +3.2506624e-05 </wgt>
<wgt id='morphing_basis_vector_2'> +2.2057734e-05 </wgt>
<wgt id='morphing_basis_vector_3'> +3.5547019e-05 </wgt>
<wgt id='morphing_basis_vector_4'> +2.5343561e-05 </wgt>
<wgt id='morphing_basis_vector_5'> +4.0533293e-05 </wgt>
</rwgt>
</event>
</LesHouchesEvents>
