<LesHouchesEvents version="3.0">
<header>
<!--
#*********************************************************************
#                                                                    *
#                        MadGraph5_aMC@NLO                           *
#                                                                    *
#                           Going Beyond                             *
#                                                                    *
#                   http://madgraph.hep.uiuc.edu                     *
#                   http://madgraph.phys.ucl.ac.be                   *
#                   http://amcatnlo.cern.ch                          *
#                                                                    *
#                     The MadGraph5_aMC@NLO team                     *
#                                                                    *
#....................................................................*
#                                                                    *
# This file contains all the information necessary to reproduce      *
# the events generated:                                              *
#                                                                    *
# 1. software version                                                *
# 2. proc_card          : code generation info including model       *
# 3. param_card         : model primary parameters in the LH format  *
# 4. run_card           : running parameters (collider and cuts)     *
# 5. pythia_card        : present only if pythia has been run        *
# 6. pgs_card           : present only if pgs has been run           *
# 7. delphes_cards      : present only if delphes has been run       *
#                                                                    *
#                                                                    *
#*********************************************************************
-->
<MGVersion>
2.6.4
</MGVersion>
<MG5ProcCard>
<![CDATA[
#************************************************************
#*                     MadGraph5_aMC@NLO                    *
#*                                                          *
#*                *                       *                 *
#*                  *        * *        *                   *
#*                    * * * * 5 * * * *                     *
#*                  *        * *        *                   *
#*                *                       *                 *
#*                                                          *
#*                                                          *
#*         VERSION 2.6.4                 2018-11-09         *
#*                                                          *
#*    The MadGraph5_aMC@NLO Development Team - Find us at   *
#*    https://server06.fynu.ucl.ac.be/projects/madgraph     *
#*                                                          *
#************************************************************
#*                                                          *
#*               Command File for MadGraph5_aMC@NLO         *
#*                                                          *
#*     run as ./bin/mg5_aMC  filename                       *
#*                                                          *
#************************************************************
set default_unset_couplings 99
set group_subprocesses Auto
set ignore_six_quark_processes False
set loop_optimized_output True
set loop_color_flows False
set gauge unitary
set complex_mass_scheme False
set max_npoint_for_channel 0
import model SM4fLL_UFO
define p = g u c d s u~ c~ d~ s~
define j = g u c d s u~ c~ d~ s~
define l+ = e+ mu+
define l- = e- mu-
define vl = ve vm vt
define vl~ = ve~ vm~ vt~
generate u u~ > mu+ mu- NP=2 QED=99 QCD=0
output /Users/dpappadopulo/Projects/~Physics/madminer/examples/example\
4_systematics_DY/data/mg_processes/DY_sys/
]]>
</MG5ProcCard>
<MGProcCard>
#*********************************************************************
#                        MadGraph/MadEvent                           *
#                   http://madgraph.hep.uiuc.edu                     *
#                                                                    *
#                          proc_card.dat                             *
#*********************************************************************
#                                                                    *
#            This Files is generated by MADGRAPH 5                   *
#                                                                    *
# WARNING: This Files is generated for MADEVENT (compatibility issue)*
#          This files is NOT a valid MG4 proc_card.dat               *
#          Running this in MG4 will NEVER reproduce the result of MG5*
#                                                                    *
#*********************************************************************
#*********************************************************************
# Process(es) requested : mg2 input                                  *
#*********************************************************************
# Begin PROCESS # This is TAG. Do not modify this line
u u~ > mu+ mu-           #Process
# Be carefull the coupling are here in MG5 convention
NP=2
QED=99
QCD=0
          
end_coup           # End the couplings input

done               # this tells MG there are no more procs
# End PROCESS  # This is TAG. Do not modify this line
#*********************************************************************
# Model information                                                  *
#*********************************************************************
# Begin MODEL  # This is TAG. Do not modify this line
SM4fLL_UFO
# End   MODEL  # This is TAG. Do not modify this line
#*********************************************************************
# Start multiparticle definitions                                    *
#*********************************************************************
# Begin MULTIPARTICLES # This is TAG. Do not modify this line

# End  MULTIPARTICLES # This is TAG. Do not modify this line
</MGProcCard>
<MGRunCard>
<![CDATA[
#*********************************************************************
#                       MadGraph5_aMC@NLO                            *
#                                                                    *
#                     run_card.dat MadEvent                          *
#                                                                    *
#  This file is used to set the parameters of the run.               *
#                                                                    *
#  Some notation/conventions:                                        *
#                                                                    *
#   Lines starting with a '# ' are info or comments                  *
#                                                                    *
#   mind the format:   value    = variable     ! comment             *
#*********************************************************************
#
#*******************                                                 
# Running parameters
#*******************                                                 
#                                                                    
#*********************************************************************
# Tag name for the run (one word)                                    *
#*********************************************************************
  tag_1     = run_tag ! name of the run 
#*********************************************************************
# Run to generate the grid pack                                      *
#*********************************************************************
  False     = gridpack  !True = setting up the grid pack
#*********************************************************************
# Number of events and rnd seed                                      *
# Warning: Do not generate more than 1M events in a single run       *
# If you want to run Pythia, avoid more than 50k events in a run.    *
#*********************************************************************
  1000 = nevents ! Number of unweighted events requested
 75 = iseed   ! rnd seed (0=assigned automatically=default))
#*********************************************************************
# Collider type and energy                                           *
# lpp: 0=No PDF, 1=proton, -1=antiproton, 2=photon from proton,      *
#                                         3=photon from electron     *
#*********************************************************************
     1        = lpp1    ! beam 1 type 
     1        = lpp2    ! beam 2 type
     6500.0     = ebeam1  ! beam 1 total energy in GeV
     6500.0     = ebeam2  ! beam 2 total energy in GeV
#*********************************************************************
# Beam polarization from -100 (left-handed) to 100 (right-handed)    *
#*********************************************************************
     0.0     = polbeam1 ! beam polarization for beam 1
     0.0     = polbeam2 ! beam polarization for beam 2
#*********************************************************************
# PDF CHOICE: this automatically fixes also alpha_s and its evol.    *
#*********************************************************************
     lhapdf    = pdlabel     ! PDF set
     90900   = lhaid     ! if pdlabel=lhapdf, this is the lhapdf number
#*********************************************************************
# Renormalization and factorization scales                           *
#*********************************************************************
 False = fixed_ren_scale  ! if .true. use fixed ren scale
 False        = fixed_fac_scale  ! if .true. use fixed fac scale
 91.188  = scale            ! fixed ren scale
 91.188  = dsqrt_q2fact1    ! fixed fact scale for pdf1
 91.188  = dsqrt_q2fact2    ! fixed fact scale for pdf2
 -1 = dynamical_scale_choice ! Choose one of the preselected dynamical choices
 1.0  = scalefact        ! scale factor for event-by-event scales
#*********************************************************************
# Type and output format
#*********************************************************************
  False     = gridpack  !True = setting up the grid pack
  -1.0 = time_of_flight ! threshold (in mm) below which the invariant livetime is not written (-1 means not written)
  3.0 = lhe_version       ! Change the way clustering information pass to shower.        
  True = clusinfo         ! include clustering tag in output
  sum =  event_norm       ! average/sum. Normalization of the weight in the LHEF
#*********************************************************************
# Matching - Warning! ickkw > 1 is still beta
#*********************************************************************
 0 = ickkw            ! 0 no matching, 1 MLM, 2 CKKW matching
 1 = highestmult      ! for ickkw=2, highest mult group
 1 = ktscheme         ! for ickkw=1, 1 Durham kT, 2 Pythia pTE
 1.0 = alpsfact         ! scale factor for QCD emission vx
 False = chcluster        ! cluster only according to channel diag
 True = pdfwgt           ! for ickkw=1, perform pdf reweighting
 4 = asrwgtflavor     ! highest quark flavor for a_s reweight    
#*********************************************************************
#**********************************************************
#
#**********************************************************
# Automatic ptj and mjj cuts if xqcut > 0
# (turn off for VBF and single top processes)
#**********************************************************
   False  = auto_ptj_mjj  ! Automatic setting of ptj and mjj
#**********************************************************
#                                                                    
#**********************************
# BW cutoff (M+/-bwcutoff*Gamma)
#**********************************
  15.0  = bwcutoff      ! (M+/-bwcutoff*Gamma)
#**********************************************************
# Apply pt/E/eta/dr/mij/kt_durham cuts on decay products or not
# (note that etmiss/ptll/ptheavy/ht/sorted cuts always apply)
#*************************************************************
   False  = cut_decays    ! Cut decay products 
#*************************************************************
# Number of helicities to sum per event (0 = all helicities)
# 0 gives more stable result, but longer run time (needed for
# long decay chains e.g.).
# Use >=2 if most helicities contribute, e.g. pure QCD.
#*************************************************************
   0  = nhel          ! Number of helicities used per event
#*******************                                                 
# Standard Cuts
#*******************                                                 
#                                                                    
#*********************************************************************
# Minimum and maximum pt's (for max, -1 means no cut)                *
#*********************************************************************
 15.0  = ptj       ! minimum pt for the jets
 0.0  = ptb       ! minimum pt for the b 
 0.0 = pta       ! minimum pt for the photons
 25.0  = ptl       ! minimum pt for the charged leptons
 0.0  = misset    ! minimum missing Et (sum of neutrino's momenta)
 0.0  = ptheavy   ! minimum pt for one heavy final state
 -1.0  = ptjmax    ! maximum pt for the jets
 -1.0  = ptbmax    ! maximum pt for the b
 -1.0 = ptamax       ! maximum pt for the photons
 -1.0  = ptlmax    ! maximum pt for the charged leptons
 -1.0  = missetmax ! maximum missing Et (sum of neutrino's momenta)
#*********************************************************************
# Minimum and maximum E's (in the center of mass frame)              *
#*********************************************************************
  0.0  = ej     ! minimum E for the jets 
  0.0  = eb     ! minimum E for the b 
  0.0  = ea     ! minimum E for the photons 
  0.0  = el     ! minimum E for the charged leptons 
  -1.0   = ejmax ! maximum E for the jets
 -1.0   = ebmax ! maximum E for the b
 -1.0   = eamax ! maximum E for the photons
 -1.0   = elmax ! maximum E for the charged leptons
#*********************************************************************
# Maximum and minimum absolute rapidity (for max, -1 means no cut)   *
#*********************************************************************
 2.5 = etaj    ! max rap for the jets
  -1.0  = etab    ! max rap for the b
 3.0  = etaa    ! max rap for the photons
 2.5  = etal    ! max rap for the charged leptons
 0.0  = etajmin ! min rap for the jets
 0.0  = etabmin ! min rap for the b
 0.0  = etaamin ! min rap for the photons
 0.0  = etalmin ! main rap for the charged leptons
#*********************************************************************
# Minimum and maximum DeltaR distance                                *
#*********************************************************************
 0.0 = drjj    ! min distance between jets
 0.0 = drbb    ! min distance between b's
 0.0 = drll    ! min distance between leptons
 0.0 = draa    ! min distance between gammas
 0.0 = drbj    ! min distance between b and jet
 0.0 = draj    ! min distance between gamma and jet
 0.0 = drjl    ! min distance between jet and lepton
 0.0 = drab    ! min distance between gamma and b
 0.0 = drbl    ! min distance between b and lepton
 0.0 = dral    ! min distance between gamma and lepton
 -1.0  = drjjmax ! max distance between jets
 -1.0  = drbbmax ! max distance between b's
 -1.0  = drllmax ! max distance between leptons
 -1.0  = draamax ! max distance between gammas
 -1.0  = drbjmax ! max distance between b and jet
 -1.0  = drajmax ! max distance between gamma and jet
 -1.0  = drjlmax ! max distance between jet and lepton
 -1.0  = drabmax ! max distance between gamma and b
 -1.0  = drblmax ! max distance between b and lepton
 -1.0  = dralmax ! maxdistance between gamma and lepton
#*********************************************************************
# Minimum and maximum invariant mass for pairs                       *
# WARNING: for four lepton final state mmll cut require to have      *
#          different lepton masses for each flavor!                  *           
#*********************************************************************
 0.0   = mmjj    ! min invariant mass of a jet pair 
 0.0   = mmbb    ! min invariant mass of a b pair 
 0.0   = mmaa    ! min invariant mass of gamma gamma pair
 900   = mmll    ! min invariant mass of l+l- (same flavour) lepton pair
 -1.0  = mmjjmax ! max invariant mass of a jet pair
 -1.0  = mmbbmax ! max invariant mass of a b pair
 -1.0  = mmaamax ! max invariant mass of gamma gamma pair
 1070  = mmllmax ! max invariant mass of l+l- (same flavour) lepton pair
#*********************************************************************
# Minimum and maximum invariant mass for all letpons                 *
#*********************************************************************
 0.0   = mmnl    ! min invariant mass for all letpons (l+- and vl) 
 -1.0  = mmnlmax ! max invariant mass for all letpons (l+- and vl) 
#*********************************************************************
# Minimum and maximum pt for 4-momenta sum of leptons                *
#*********************************************************************
 0.0   = ptllmin  ! Minimum pt for 4-momenta sum of leptons(l and vl)
 -1.0  = ptllmax  ! Maximum pt for 4-momenta sum of leptons(l and vl)
#*********************************************************************
# Inclusive cuts                                                     *
#*********************************************************************
 0.0  = xptj ! minimum pt for at least one jet  
 0.0  = xptb ! minimum pt for at least one b 
 0.0  = xpta ! minimum pt for at least one photon 
 0.0  = xptl ! minimum pt for at least one charged lepton 
#*********************************************************************
# Control the pt's of the jets sorted by pt                          *
#*********************************************************************
 0.0   = ptj1min ! minimum pt for the leading jet in pt
 0.0   = ptj2min ! minimum pt for the second jet in pt
 0.0   = ptj3min ! minimum pt for the third jet in pt
 0.0   = ptj4min ! minimum pt for the fourth jet in pt
 -1.0  = ptj1max ! maximum pt for the leading jet in pt 
 -1.0  = ptj2max ! maximum pt for the second jet in pt
 -1.0  = ptj3max ! maximum pt for the third jet in pt
 -1.0  = ptj4max ! maximum pt for the fourth jet in pt
 0   = cutuse  ! reject event if fails any (0) / all (1) jet pt cuts
#*********************************************************************
# Control the pt's of leptons sorted by pt                           *
#*********************************************************************
 0.0   = ptl1min ! minimum pt for the leading lepton in pt
 0.0   = ptl2min ! minimum pt for the second lepton in pt
 0.0   = ptl3min ! minimum pt for the third lepton in pt
 0.0   = ptl4min ! minimum pt for the fourth lepton in pt
 -1.0  = ptl1max ! maximum pt for the leading lepton in pt 
 -1.0  = ptl2max ! maximum pt for the second lepton in pt
 -1.0  = ptl3max ! maximum pt for the third lepton in pt
 -1.0  = ptl4max ! maximum pt for the fourth lepton in pt
#*********************************************************************
# Control the Ht(k)=Sum of k leading jets                            *
#*********************************************************************
 0.0   = htjmin ! minimum jet HT=Sum(jet pt)
 -1.0  = htjmax ! maximum jet HT=Sum(jet pt)
 0.0   = ihtmin  !inclusive Ht for all partons (including b)
 -1.0  = ihtmax  !inclusive Ht for all partons (including b)
 0.0   = ht2min ! minimum Ht for the two leading jets
 0.0   = ht3min ! minimum Ht for the three leading jets
 0.0   = ht4min ! minimum Ht for the four leading jets
 -1.0  = ht2max ! maximum Ht for the two leading jets
 -1.0  = ht3max ! maximum Ht for the three leading jets
 -1.0  = ht4max ! maximum Ht for the four leading jets
#***********************************************************************
# Photon-isolation cuts, according to hep-ph/9801442                   *
# When ptgmin=0, all the other parameters are ignored                  *
# When ptgmin>0, pta and draj are not going to be used                 *
#***********************************************************************
 0.0 = ptgmin ! Min photon transverse momentum
 0.4 = R0gamma ! Radius of isolation code
 1.0 = xn ! n parameter of eq.(3.4) in hep-ph/9801442
 1.0 = epsgamma ! epsilon_gamma parameter of eq.(3.4) in hep-ph/9801442
 True = isoEM ! isolate photons from EM energy (photons and leptons)
#*********************************************************************
# WBF cuts                                                           *
#*********************************************************************
 0.0   = xetamin ! minimum rapidity for two jets in the WBF case  
 0.0   = deltaeta ! minimum rapidity for two jets in the WBF case 
#*********************************************************************
# KT DURHAM CUT                                                      *
#*********************************************************************
 -1.0    =  ktdurham        
 0.4  =  dparameter 
#*********************************************************************
# maximal pdg code for quark to be considered as a light jet         *
# (otherwise b cuts are applied)                                     *
#*********************************************************************
 4 = maxjetflavor    ! Maximum jet pdg code
#*********************************************************************
# Jet measure cuts                                                   *
#*********************************************************************
 0.0   = xqcut   ! minimum kt jet measure between partons
#*********************************************************************
#
#*********************************************************************
# Store info for systematics studies                                 *
# WARNING: If use_syst is T, matched Pythia output is                *
#          meaningful ONLY if plotted taking matchscale              *
#          reweighting into account!                                 *
#*********************************************************************
#    False  = use_syst      ! Enable systematics studies # Commented out by MadMiner
#
#**************************************
# Parameter of the systematics study
#  will be used by SysCalc (if installed)
#**************************************                                  
#
0.5 1 2 = sys_scalefact  # factorization/renormalization scale factor
None = sys_alpsfact  # \alpha_s emission scale factors
30 50 = sys_matchscale # variation of merging scale
# PDF sets and number of members (0 or none for all members).
NNPDF23_lo_as_0130_qed = sys_pdf # matching scales
# MSTW2008nlo68cl.LHgrid 1  = sys_pdf


#*********************************************************************
# MadMiner systematics setup                                         *
#*********************************************************************
True = use_syst
systematics = systematics_program
['--pdf=90900'] = systematics_arguments
]]>
</MGRunCard>
<slha>
######################################################################
## PARAM_CARD AUTOMATICALY GENERATED BY MG5 FOLLOWING UFO MODEL   ####
######################################################################
##                                                                  ##
##  Width set on Auto will be computed following the information    ##
##        present in the decay.py files of the model.               ##
##        See  arXiv:1402.1178 for more details.                    ##
##                                                                  ##
######################################################################

###################################
## INFORMATION FOR CKMBLOCK
###################################
Block ckmblock 
    1 2.277360e-01 # cabi 

###################################
## INFORMATION FOR MASS
###################################
Block mass 
    5 4.700000e+00 # MB 
    6 1.720000e+02 # MT 
   15 1.777000e+00 # MTA 
   23 9.118760e+01 # MZ 
   25 1.250000e+02 # MH 
## Dependent parameters, given by model restrictions.
## Those values should be edited following the 
## analytical expression. MG5 ignores those values 
## but they are important for interfacing the output of MG5
## to external program such as Pythia.
  1 0.000000 # d : 0.0 
  2 0.000000 # u : 0.0 
  3 0.000000 # s : 0.0 
  4 0.000000 # c : 0.0 
  11 0.000000 # e- : 0.0 
  12 0.000000 # ve : 0.0 
  13 0.000000 # mu- : 0.0 
  14 0.000000 # vm : 0.0 
  16 0.000000 # vt : 0.0 
  21 0.000000 # g : 0.0 
  22 0.000000 # a : 0.0 
  24 79.824360 # w+ : cmath.sqrt(MZ__exp__2/2. + cmath.sqrt(MZ__exp__4/4. - (aEW*cmath.pi*MZ__exp__2)/(Gf*sqrt__2))) 

###################################
## INFORMATION FOR OBLIQUE
###################################
Block oblique 
    1    0.0    # MadMiner
    2    0.0    # MadMiner

###################################
## INFORMATION FOR SMINPUTS
###################################
Block sminputs 
    1 1.279000e+02 # aEWM1 
    2 1.166370e-05 # Gf 
    3 1.184000e-01 # aS 

###################################
## INFORMATION FOR YUKAWA
###################################
Block yukawa 
    5 4.700000e+00 # ymb 
    6 1.720000e+02 # ymt 
   15 1.777000e+00 # ymtau 

###################################
## INFORMATION FOR DECAY
###################################
DECAY   6 1.508336e+00 # WT 
DECAY  23 2.495200e+00 # WZ 
DECAY  24 2.085000e+00 # WW 
DECAY  25 4.070000e-03 # WH 
## Dependent parameters, given by model restrictions.
## Those values should be edited following the 
## analytical expression. MG5 ignores those values 
## but they are important for interfacing the output of MG5
## to external program such as Pythia.
DECAY  1 0.000000 # d : 0.0 
DECAY  2 0.000000 # u : 0.0 
DECAY  3 0.000000 # s : 0.0 
DECAY  4 0.000000 # c : 0.0 
DECAY  5 0.000000 # b : 0.0 
DECAY  11 0.000000 # e- : 0.0 
DECAY  12 0.000000 # ve : 0.0 
DECAY  13 0.000000 # mu- : 0.0 
DECAY  14 0.000000 # vm : 0.0 
DECAY  15 0.000000 # ta- : 0.0 
DECAY  16 0.000000 # vt : 0.0 
DECAY  21 0.000000 # g : 0.0 
DECAY  22 0.000000 # a : 0.0
</slha>
<initrwgt>
<weightgroup name='mg_reweighting' weight_name_strategy='includeIdInWeightName'>
<weight id='morphing_basis_vector_1'>set param_card oblique 1 -0.06391685 # orig: 0.0
set param_card oblique 2 -0.08653588 # orig: 0.0
</weight>
<weight id='morphing_basis_vector_2'>set param_card oblique 1 0.0342439 # orig: 0.0
set param_card oblique 2 -0.09831893 # orig: 0.0
</weight>
<weight id='morphing_basis_vector_3'>set param_card oblique 1 -0.08145691 # orig: 0.0
set param_card oblique 2 0.09700122 # orig: 0.0
</weight>
<weight id='morphing_basis_vector_4'>set param_card oblique 1 0.09132942 # orig: 0.0
set param_card oblique 2 -0.005442744 # orig: 0.0
</weight>
<weight id='morphing_basis_vector_5'>set param_card oblique 1 0.08535809 # orig: 0.0
set param_card oblique 2 0.08156918 # orig: 0.0
</weight>
</weightgroup>
</initrwgt>
<MGGenerationInfo>
#  Number of Events        :       1000
#  Integrated weight (pb)  :       0.00147869
</MGGenerationInfo>
</header>
<init>
2212 2212 6.500000e+03 6.500000e+03 0 0 90900 90900 -3 1
1.478690e-03 6.503794e-06 1.478690e-06 1
<generator name='MadGraph5_aMC@NLO' version='2.6.4'>please cite 1405.0301 </generator>
</init>
<event>
 4      1 +1.4786900e-06 9.15061500e+02 7.81860800e-03 8.76975900e-02
        2 -1    0    0  501    0 +0.0000000000e+00 +0.0000000000e+00 +1.9595929431e+03 1.9595929431e+03 0.0000000000e+00 0.0000e+00 -1.0000e+00
       -2 -1    0    0    0  501 -0.0000000000e+00 -0.0000000000e+00 -1.0682544919e+02 1.0682544919e+02 0.0000000000e+00 0.0000e+00 1.0000e+00
      -13  1    1    2    0    0 -3.8858104949e+02 +6.8112465976e+01 +4.0307917668e+02 5.6401007324e+02 0.0000000000e+00 0.0000e+00 1.0000e+00
       13  1    1    2    0    0 +3.8858104949e+02 -6.8112465976e+01 +1.4496883173e+03 1.5024083191e+03 0.0000000000e+00 0.0000e+00 -1.0000e+00
<mgrwt>
<rscale>  0 0.91506152E+03</rscale>
<asrwt>0</asrwt>
<pdfrwt beam="1">  1        2 0.30147581E+00 0.91506152E+03</pdfrwt>
<pdfrwt beam="2">  1       -2 0.16434686E-01 0.91506152E+03</pdfrwt>
<totfact> 0.24381856E+02</totfact>
</mgrwt>
<rwgt>
<wgt id='morphing_basis_vector_1'> +1.6898235e-04 </wgt>
<wgt id='morphing_basis_vector_2'> +1.0589299e-04 </wgt>
<wgt id='morphing_basis_vector_3'> +1.5855223e-04 </wgt>
<wgt id='morphing_basis_vector_4'> +9.2211303e-05 </wgt>
<wgt id='morphing_basis_vector_5'> +1.4704231e-04 </wgt>
</rwgt>
</event>
<event>
 4      1 +1.4786900e-06 9.38947000e+02 7.81860800e-03 8.74481500e-02
        2 -1    0    0  501    0 +0.0000000000e+00 +0.0000000000e+00 +5.0617664260e+02 5.0617664260e+02 0.0000000000e+00 0.0000e+00 -1.0000e+00
       -2 -1    0    0    0  501 -0.0000000000e+00 -0.0000000000e+00 -4.3543176467e+02 4.3543176467e+02 0.0000000000e+00 0.0000e+00 1.0000e+00
      -13  1    1    2    0    0 +9.5520702833e+01 +3.8794434307e+02 -2.1186310071e+02 4.5222891486e+02 0.0000000000e+00 0.0000e+00 1.0000e+00
       13  1    1    2    0    0 -9.5520702833e+01 -3.8794434307e+02 +2.8260797864e+02 4.8937949240e+02 0.0000000000e+00 0.0000e+00 -1.0000e+00
<mgrwt>
<rscale>  0 0.93894705E+03</rscale>
<asrwt>0</asrwt>
<pdfrwt beam="1">  1        2 0.77873330E-01 0.93894705E+03</pdfrwt>
<pdfrwt beam="2">  1       -2 0.66989502E-01 0.93894705E+03</pdfrwt>
<totfact> 0.15382374E+02</totfact>
</mgrwt>
<rwgt>
<wgt id='morphing_basis_vector_1'> +1.8557182e-04 </wgt>
<wgt id='morphing_basis_vector_2'> +1.1658631e-04 </wgt>
<wgt id='morphing_basis_vector_3'> +1.7545781e-04 </wgt>
<wgt id='morphing_basis_vector_4'> +1.0330739e-04 </wgt>
<wgt id='morphing_basis_vector_5'> +1.6472274e-04 </wgt>
</rwgt>
</event>
<event>
 4      1 +1.4786900e-06 9.68769600e+02 7.81860800e-03 8.71473900e-02
        2 -1    0    0  501    0 +0.0000000000e+00 +0.0000000000e+00 +1.0309766857e+03 1.0309766857e+03 0.0000000000e+00 0.0000e+00 -1.0000e+00
       -2 -1    0    0    0  501 -0.0000000000e+00 -0.0000000000e+00 -2.2757898656e+02 2.2757898656e+02 0.0000000000e+00 0.0000e+00 1.0000e+00
      -13  1    1    2    0    0 -2.1788057329e+02 +4.1873525078e+02 +5.4292472554e+02 7.1942922659e+02 0.0000000000e+00 0.0000e+00 1.0000e+00
       13  1    1    2    0    0 +2.1788057329e+02 -4.1873525078e+02 +2.6047297364e+02 5.3912644571e+02 0.0000000000e+00 0.0000e+00 -1.0000e+00
<mgrwt>
<rscale>  0 0.96876959E+03</rscale>
<asrwt>0</asrwt>
<pdfrwt beam="1">  1        2 0.15861180E+00 0.96876959E+03</pdfrwt>
<pdfrwt beam="2">  1       -2 0.35012152E-01 0.96876959E+03</pdfrwt>
<totfact> 0.22223545E+02</totfact>
</mgrwt>
<rwgt>
<wgt id='morphing_basis_vector_1'> +2.2343486e-04 </wgt>
<wgt id='morphing_basis_vector_2'> +1.7782340e-04 </wgt>
<wgt id='morphing_basis_vector_3'> +2.1212623e-04 </wgt>
<wgt id='morphing_basis_vector_4'> +9.5232063e-05 </wgt>
<wgt id='morphing_basis_vector_5'> +1.8756772e-04 </wgt>
</rwgt>
</event>
<event>
 4      1 +1.4786900e-06 9.37549200e+02 7.81860800e-03 8.74625400e-02
        2 -1    0    0  501    0 +0.0000000000e+00 +0.0000000000e+00 +1.3262784668e+03 1.3262784668e+03 0.0000000000e+00 0.0000e+00 -1.0000e+00
       -2 -1    0    0    0  501 -0.0000000000e+00 -0.0000000000e+00 -1.6568891619e+02 1.6568891619e+02 0.0000000000e+00 0.0000e+00 1.0000e+00
      -13  1    1    2    0    0 +2.4037204361e+02 -3.1865460291e+01 -5.8142412666e+01 2.4934848518e+02 0.0000000000e+00 0.0000e+00 1.0000e+00
       13  1    1    2    0    0 -2.4037204361e+02 +3.1865460291e+01 +1.2187319633e+03 1.2426188978e+03 0.0000000000e+00 0.0000e+00 -1.0000e+00
<mgrwt>
<rscale>  0 0.93754923E+03</rscale>
<asrwt>0</asrwt>
<pdfrwt beam="1">  1        2 0.20404283E+00 0.93754923E+03</pdfrwt>
<pdfrwt beam="2">  1       -2 0.25490603E-01 0.93754923E+03</pdfrwt>
<totfact> 0.26180633E+02</totfact>
</mgrwt>
<rwgt>
<wgt id='morphing_basis_vector_1'> +1.8391128e-04 </wgt>
<wgt id='morphing_basis_vector_2'> +1.1394490e-04 </wgt>
<wgt id='morphing_basis_vector_3'> +1.7387889e-04 </wgt>
<wgt id='morphing_basis_vector_4'> +1.0359839e-04 </wgt>
<wgt id='morphing_basis_vector_5'> +1.6370130e-04 </wgt>
</rwgt>
</event>
<event>
 4      1 +1.4786900e-06 9.11506600e+02 7.81860800e-03 8.77354000e-02
        2 -1    0    0  501    0 +0.0000000000e+00 +0.0000000000e+00 +4.1033910688e+02 4.1033910688e+02 0.0000000000e+00 0.0000e+00 -1.0000e+00
       -2 -1    0    0    0  501 -0.0000000000e+00 -0.0000000000e+00 -5.0619372163e+02 5.0619372163e+02 0.0000000000e+00 0.0000e+00 1.0000e+00
      -13  1    1    2    0    0 -5.8671478008e+01 -2.5988837522e+02 -4.1973209237e+02 4.9715122374e+02 0.0000000000e+00 0.0000e+00 1.0000e+00
       13  1    1    2    0    0 +5.8671478008e+01 +2.5988837522e+02 +3.2387747761e+02 4.1938160476e+02 0.0000000000e+00 0.0000e+00 -1.0000e+00
<mgrwt>
<rscale>  0 0.91150662E+03</rscale>
<asrwt>0</asrwt>
<pdfrwt beam="1">  1        2 0.63129093E-01 0.91150662E+03</pdfrwt>
<pdfrwt beam="2">  1       -2 0.77875957E-01 0.91150662E+03</pdfrwt>
<totfact> 0.14104265E+02</totfact>
</mgrwt>
<rwgt>
<wgt id='morphing_basis_vector_1'> +1.6598273e-04 </wgt>
<wgt id='morphing_basis_vector_2'> +1.0244517e-04 </wgt>
<wgt id='morphing_basis_vector_3'> +1.5563747e-04 </wgt>
<wgt id='morphing_basis_vector_4'> +9.1547148e-05 </wgt>
<wgt id='morphing_basis_vector_5'> +1.4458313e-04 </wgt>
</rwgt>
</event>
<event>
 4      1 +1.4786900e-06 1.00372900e+03 7.81860800e-03 8.68088700e-02
        2 -1    0    0  501    0 +0.0000000000e+00 +0.0000000000e+00 +2.6216446759e+03 2.6216446759e+03 0.0000000000e+00 0.0000e+00 -1.0000e+00
       -2 -1    0    0    0  501 -0.0000000000e+00 -0.0000000000e+00 -9.6072443964e+01 9.6072443964e+01 0.0000000000e+00 0.0000e+00 1.0000e+00
      -13  1    1    2    0    0 +3.9551627157e+02 -1.9518721673e+02 +6.1444428645e+02 7.5635504349e+02 0.0000000000e+00 0.0000e+00 1.0000e+00
       13  1    1    2    0    0 -3.9551627157e+02 +1.9518721673e+02 +1.9111279455e+03 1.9613620764e+03 0.0000000000e+00 0.0000e+00 -1.0000e+00
<mgrwt>
<rscale>  0 0.10037287E+04</rscale>
<asrwt>0</asrwt>
<pdfrwt beam="1">  1        2 0.40332990E+00 0.10037287E+04</pdfrwt>
<pdfrwt beam="2">  1       -2 0.14780378E-01 0.10037287E+04</pdfrwt>
<totfact> 0.11996890E+02</totfact>
</mgrwt>
<rwgt>
<wgt id='morphing_basis_vector_1'> +2.3744283e-04 </wgt>
<wgt id='morphing_basis_vector_2'> +1.5129397e-04 </wgt>
<wgt id='morphing_basis_vector_3'> +2.2864585e-04 </wgt>
<wgt id='morphing_basis_vector_4'> +1.3756297e-04 </wgt>
<wgt id='morphing_basis_vector_5'> +2.2040396e-04 </wgt>
</rwgt>
</event>
<event>
 4      1 +1.4786900e-06 9.64213500e+02 7.81860800e-03 8.71926000e-02
        2 -1    0    0  501    0 +0.0000000000e+00 +0.0000000000e+00 +4.0111907545e+02 4.0111907545e+02 0.0000000000e+00 0.0000e+00 -1.0000e+00
       -2 -1    0    0    0  501 -0.0000000000e+00 -0.0000000000e+00 -5.7944619865e+02 5.7944619865e+02 0.0000000000e+00 0.0000e+00 1.0000e+00
      -13  1    1    2    0    0 +1.8043352161e+02 -1.0748554367e+02 -5.3047853827e+02 5.7054086391e+02 0.0000000000e+00 0.0000e+00 1.0000e+00
       13  1    1    2    0    0 -1.8043352161e+02 +1.0748554367e+02 +3.5215141507e+02 4.1002441019e+02 0.0000000000e+00 0.0000e+00 -1.0000e+00
<mgrwt>
<rscale>  0 0.96421351E+03</rscale>
<asrwt>0</asrwt>
<pdfrwt beam="1">  1        2 0.61710627E-01 0.96421351E+03</pdfrwt>
<pdfrwt beam="2">  1       -2 0.89145569E-01 0.96421351E+03</pdfrwt>
<totfact> 0.10586919E+02</totfact>
</mgrwt>
<rwgt>
<wgt id='morphing_basis_vector_1'> +2.0379516e-04 </wgt>
<wgt id='morphing_basis_vector_2'> +1.2675599e-04 </wgt>
<wgt id='morphing_basis_vector_3'> +1.9419700e-04 </wgt>
<wgt id='morphing_basis_vector_4'> +1.1708487e-04 </wgt>
<wgt id='morphing_basis_vector_5'> +1.8511601e-04 </wgt>
</rwgt>
</event>
<event>
 4      1 +1.4786900e-06 9.54113100e+02 7.81860800e-03 8.72937700e-02
        2 -1    0    0  501    0 +0.0000000000e+00 +0.0000000000e+00 +9.3910119256e+02 9.3910119256e+02 0.0000000000e+00 0.0000e+00 -1.0000e+00
       -2 -1    0    0    0  501 -0.0000000000e+00 -0.0000000000e+00 -2.4234124523e+02 2.4234124523e+02 0.0000000000e+00 0.0000e+00 1.0000e+00
      -13  1    1    2    0    0 +2.8088202636e+02 -3.4159305158e+02 +5.6989549591e+02 7.2136079868e+02 0.0000000000e+00 0.0000e+00 1.0000e+00
       13  1    1    2    0    0 -2.8088202636e+02 +3.4159305158e+02 +1.2686445142e+02 4.6008163911e+02 0.0000000000e+00 0.0000e+00 -1.0000e+00
<mgrwt>
<rscale>  0 0.95411310E+03</rscale>
<asrwt>0</asrwt>
<pdfrwt beam="1">  1        2 0.14447710E+00 0.95411310E+03</pdfrwt>
<pdfrwt beam="2">  1       -2 0.37283269E-01 0.95411310E+03</pdfrwt>
<totfact> 0.22639240E+02</totfact>
</mgrwt>
<rwgt>
<wgt id='morphing_basis_vector_1'> +2.2067094e-04 </wgt>
<wgt id='morphing_basis_vector_2'> +1.9641938e-04 </wgt>
<wgt id='morphing_basis_vector_3'> +2.0764122e-04 </wgt>
<wgt id='morphing_basis_vector_4'> +7.5131924e-05 </wgt>
<wgt id='morphing_basis_vector_5'> +1.7469397e-04 </wgt>
</rwgt>
</event>
<event>
 4      1 +1.4786900e-06 9.32462100e+02 7.81860800e-03 8.75151000e-02
        2 -1    0    0  501    0 +0.0000000000e+00 +0.0000000000e+00 +8.8833021107e+02 8.8833021107e+02 0.0000000000e+00 0.0000e+00 1.0000e+00
       -2 -1    0    0    0  501 -0.0000000000e+00 -0.0000000000e+00 -2.4469662365e+02 2.4469662365e+02 0.0000000000e+00 0.0000e+00 -1.0000e+00
      -13  1    1    2    0    0 -8.7711667712e+00 +4.4910172218e+02 +4.7359195622e+02 6.5273166863e+02 0.0000000000e+00 0.0000e+00 -1.0000e+00
       13  1    1    2    0    0 +8.7711667712e+00 -4.4910172218e+02 +1.7004163120e+02 4.8029516610e+02 0.0000000000e+00 0.0000e+00 1.0000e+00
<mgrwt>
<rscale>  0 0.93246212E+03</rscale>
<asrwt>0</asrwt>
<pdfrwt beam="1">  1        2 0.13666618E+00 0.93246212E+03</pdfrwt>
<pdfrwt beam="2">  1       -2 0.37645635E-01 0.93246212E+03</pdfrwt>
<totfact> 0.24022591E+02</totfact>
</mgrwt>
<rwgt>
<wgt id='morphing_basis_vector_1'> +1.9636066e-04 </wgt>
<wgt id='morphing_basis_vector_2'> +1.6043231e-04 </wgt>
<wgt id='morphing_basis_vector_3'> +1.8362399e-04 </wgt>
<wgt id='morphing_basis_vector_4'> +7.7617889e-05 </wgt>
<wgt id='morphing_basis_vector_5'> +1.5852864e-04 </wgt>
</rwgt>
</event>
<event>
 4      1 +1.4786900e-06 1.04534300e+03 7.81860800e-03 8.64241100e-02
        2 -1    0    0  501    0 +0.0000000000e+00 +0.0000000000e+00 +3.9034519040e+02 3.9034519040e+02 0.0000000000e+00 0.0000e+00 -1.0000e+00
       -2 -1    0    0    0  501 -0.0000000000e+00 -0.0000000000e+00 -6.9985591180e+02 6.9985591180e+02 0.0000000000e+00 0.0000e+00 1.0000e+00
      -13  1    1    2    0    0 -3.7323069125e+02 +3.5121436317e+02 -4.7722291667e+01 5.1471360475e+02 0.0000000000e+00 0.0000e+00 1.0000e+00
       13  1    1    2    0    0 +3.7323069125e+02 -3.5121436317e+02 -2.6178842973e+02 5.7548749746e+02 0.0000000000e+00 0.0000e+00 -1.0000e+00
<mgrwt>
<rscale>  0 0.10453428E+04</rscale>
<asrwt>0</asrwt>
<pdfrwt beam="1">  1        2 0.60053107E-01 0.10453428E+04</pdfrwt>
<pdfrwt beam="2">  1       -2 0.10767014E+00 0.10453428E+04</pdfrwt>
<totfact> 0.69035381E+01</totfact>
</mgrwt>
<rwgt>
<wgt id='morphing_basis_vector_1'> +2.9420479e-04 </wgt>
<wgt id='morphing_basis_vector_2'> +2.3174725e-04 </wgt>
<wgt id='morphing_basis_vector_3'> +2.8643137e-04 </wgt>
<wgt id='morphing_basis_vector_4'> +1.3494277e-04 </wgt>
<wgt id='morphing_basis_vector_5'> +2.6095615e-04 </wgt>
</rwgt>
</event>
<event>
 4      1 +1.4786900e-06 9.20723500e+02 7.81860800e-03 8.76377500e-02
        2 -1    0    0  501    0 +0.0000000000e+00 +0.0000000000e+00 +3.1404025125e+02 3.1404025125e+02 0.0000000000e+00 0.0000e+00 1.0000e+00
       -2 -1    0    0    0  501 -0.0000000000e+00 -0.0000000000e+00 -6.7485921774e+02 6.7485921774e+02 0.0000000000e+00 0.0000e+00 -1.0000e+00
      -13  1    1    2    0    0 +2.9465063416e+02 -3.3176147912e+02 -4.8654705193e+01 4.4637647292e+02 0.0000000000e+00 0.0000e+00 -1.0000e+00
       13  1    1    2    0    0 -2.9465063416e+02 +3.3176147912e+02 -3.1216426130e+02 5.4252299608e+02 0.0000000000e+00 0.0000e+00 1.0000e+00
<mgrwt>
<rscale>  0 0.92072354E+03</rscale>
<asrwt>0</asrwt>
<pdfrwt beam="1">  1        2 0.48313886E-01 0.92072354E+03</pdfrwt>
<pdfrwt beam="2">  1       -2 0.10382449E+00 0.92072354E+03</pdfrwt>
<totfact> 0.97318267E+01</totfact>
</mgrwt>
<rwgt>
<wgt id='morphing_basis_vector_1'> +1.8740539e-04 </wgt>
<wgt id='morphing_basis_vector_2'> +1.5274098e-04 </wgt>
<wgt id='morphing_basis_vector_3'> +1.7438528e-04 </wgt>
<wgt id='morphing_basis_vector_4'> +7.3587741e-05 </wgt>
<wgt id='morphing_basis_vector_5'> +1.4994952e-04 </wgt>
</rwgt>
</event>
<event>
 4      1 +1.4786900e-06 9.05104800e+02 7.81860800e-03 8.78039300e-02
        2 -1    0    0  501    0 +0.0000000000e+00 +0.0000000000e+00 +5.0264157840e+02 5.0264157840e+02 0.0000000000e+00 0.0000e+00 -1.0000e+00
       -2 -1    0    0    0  501 -0.0000000000e+00 -0.0000000000e+00 -4.0745467680e+02 4.0745467680e+02 0.0000000000e+00 0.0000e+00 1.0000e+00
      -13  1    1    2    0    0 +3.6977028900e+02 +2.2320946291e+02 -8.8248328999e+01 4.4084044567e+02 0.0000000000e+00 0.0000e+00 1.0000e+00
       13  1    1    2    0    0 -3.6977028900e+02 -2.2320946291e+02 +1.8343523060e+02 4.6925580954e+02 0.0000000000e+00 0.0000e+00 -1.0000e+00
<mgrwt>
<rscale>  0 0.90510477E+03</rscale>
<asrwt>0</asrwt>
<pdfrwt beam="1">  1        2 0.77329473E-01 0.90510477E+03</pdfrwt>
<pdfrwt beam="2">  1       -2 0.62685335E-01 0.90510477E+03</pdfrwt>
<totfact> 0.17850815E+02</totfact>
</mgrwt>
<rwgt>
<wgt id='morphing_basis_vector_1'> +1.6351413e-04 </wgt>
<wgt id='morphing_basis_vector_2'> +1.0500518e-04 </wgt>
<wgt id='morphing_basis_vector_3'> +1.5275166e-04 </wgt>
<wgt id='morphing_basis_vector_4'> +8.6286078e-05 </wgt>
<wgt id='morphing_basis_vector_5'> +1.4001275e-04 </wgt>
</rwgt>
</event>
<event>
 4      1 +1.4786900e-06 1.01329700e+03 7.81860800e-03 8.67187100e-02
        2 -1    0    0  501    0 +0.0000000000e+00 +0.0000000000e+00 +1.6765062461e+03 1.6765062461e+03 0.0000000000e+00 0.0000e+00 -1.0000e+00
       -2 -1    0    0    0  501 -0.0000000000e+00 -0.0000000000e+00 -1.5311171322e+02 1.5311171322e+02 0.0000000000e+00 0.0000e+00 1.0000e+00
      -13  1    1    2    0    0 +4.9768949164e+02 +8.9880430501e+01 +7.0694766079e+02 8.6922282354e+02 0.0000000000e+00 0.0000e+00 1.0000e+00
       13  1    1    2    0    0 -4.9768949164e+02 -8.9880430501e+01 +8.1644687213e+02 9.6039513581e+02 0.0000000000e+00 0.0000e+00 -1.0000e+00
<mgrwt>
<rscale>  0 0.10132971E+04</rscale>
<asrwt>0</asrwt>
<pdfrwt beam="1">  1        2 0.25792403E+00 0.10132971E+04</pdfrwt>
<pdfrwt beam="2">  1       -2 0.23555649E-01 0.10132971E+04</pdfrwt>
<totfact> 0.19025780E+02</totfact>
</mgrwt>
<rwgt>
<wgt id='morphing_basis_vector_1'> +2.5176351e-04 </wgt>
<wgt id='morphing_basis_vector_2'> +1.7457394e-04 </wgt>
<wgt id='morphing_basis_vector_3'> +2.4292118e-04 </wgt>
<wgt id='morphing_basis_vector_4'> +1.3420687e-04 </wgt>
<wgt id='morphing_basis_vector_5'> +2.2911303e-04 </wgt>
</rwgt>
</event>
<event>
 4      1 +1.4786900e-06 9.54209700e+02 7.81860800e-03 8.72928000e-02
        2 -1    0    0  501    0 +0.0000000000e+00 +0.0000000000e+00 +2.2564185048e+02 2.2564185048e+02 0.0000000000e+00 0.0000e+00 1.0000e+00
       -2 -1    0    0    0  501 -0.0000000000e+00 -0.0000000000e+00 -1.0088067740e+03 1.0088067740e+03 0.0000000000e+00 0.0000e+00 -1.0000e+00
      -13  1    1    2    0    0 -1.7164193668e+02 -4.3815876695e+02 -4.9332391194e+02 6.8177161981e+02 0.0000000000e+00 0.0000e+00 -1.0000e+00
       13  1    1    2    0    0 +1.7164193668e+02 +4.3815876695e+02 -2.8984101154e+02 5.5267700463e+02 0.0000000000e+00 0.0000e+00 1.0000e+00
<mgrwt>
<rscale>  0 0.95420968E+03</rscale>
<asrwt>0</asrwt>
<pdfrwt beam="1">  1        2 0.34714130E-01 0.95420968E+03</pdfrwt>
<pdfrwt beam="2">  1       -2 0.15520105E+00 0.95420968E+03</pdfrwt>
<totfact> 0.48465188E+01</totfact>
</mgrwt>
<rwgt>
<wgt id='morphing_basis_vector_1'> +1.9989176e-04 </wgt>
<wgt id='morphing_basis_vector_2'> +1.3318268e-04 </wgt>
<wgt id='morphing_basis_vector_3'> +1.8962200e-04 </wgt>
<wgt id='morphing_basis_vector_4'> +1.0629847e-04 </wgt>
<wgt id='morphing_basis_vector_5'> +1.7653936e-04 </wgt>
</rwgt>
</event>
<event>
 4      1 +1.4786900e-06 9.18216300e+02 7.81860800e-03 8.76641900e-02
        2 -1    0    0  501    0 +0.0000000000e+00 +0.0000000000e+00 +2.5056260380e+03 2.5056260380e+03 0.0000000000e+00 0.0000e+00 1.0000e+00
       -2 -1    0    0    0  501 -0.0000000000e+00 -0.0000000000e+00 -8.4122807721e+01 8.4122807721e+01 0.0000000000e+00 0.0000e+00 -1.0000e+00
      -13  1    1    2    0    0 +2.6952046543e+01 +4.5399067781e+02 +1.3879298597e+03 1.4605421062e+03 0.0000000000e+00 0.0000e+00 -1.0000e+00
       13  1    1    2    0    0 -2.6952046543e+01 -4.5399067781e+02 +1.0335733705e+03 1.1292067395e+03 0.0000000000e+00 0.0000e+00 1.0000e+00
<mgrwt>
<rscale>  0 0.91821631E+03</rscale>
<asrwt>0</asrwt>
<pdfrwt beam="1">  1        2 0.38548087E+00 0.91821631E+03</pdfrwt>
<pdfrwt beam="2">  1       -2 0.12941972E-01 0.91821631E+03</pdfrwt>
<totfact> 0.17561403E+02</totfact>
</mgrwt>
<rwgt>
<wgt id='morphing_basis_vector_1'> +1.8021282e-04 </wgt>
<wgt id='morphing_basis_vector_2'> +1.3495445e-04 </wgt>
<wgt id='morphing_basis_vector_3'> +1.6812619e-04 </wgt>
<wgt id='morphing_basis_vector_4'> +8.0446550e-05 </wgt>
<wgt id='morphing_basis_vector_5'> +1.4857951e-04 </wgt>
</rwgt>
</event>
<event>
 4      1 +1.4786900e-06 1.06982300e+03 7.81860800e-03 8.62063300e-02
        2 -1    0    0  501    0 +0.0000000000e+00 +0.0000000000e+00 +2.4004116947e+03 2.4004116947e+03 0.0000000000e+00 0.0000e+00 -1.0000e+00
       -2 -1    0    0    0  501 -0.0000000000e+00 -0.0000000000e+00 -1.1920053894e+02 1.1920053894e+02 0.0000000000e+00 0.0000e+00 1.0000e+00
      -13  1    1    2    0    0 +2.9690445271e+01 -4.7193512103e+02 +5.5169092476e+02 7.2661348561e+02 0.0000000000e+00 0.0000e+00 1.0000e+00
       13  1    1    2    0    0 -2.9690445271e+01 +4.7193512103e+02 +1.7295202310e+03 1.7929987481e+03 0.0000000000e+00 0.0000e+00 -1.0000e+00
<mgrwt>
<rscale>  0 0.10698231E+04</rscale>
<asrwt>0</asrwt>
<pdfrwt beam="1">  1        2 0.36929407E+00 0.10698231E+04</pdfrwt>
<pdfrwt beam="2">  1       -2 0.18338546E-01 0.10698231E+04</pdfrwt>
<totfact> 0.11312965E+02</totfact>
</mgrwt>
<rwgt>
<wgt id='morphing_basis_vector_1'> +3.0098696e-04 </wgt>
<wgt id='morphing_basis_vector_2'> +1.9363798e-04 </wgt>
<wgt id='morphing_basis_vector_3'> +2.9445894e-04 </wgt>
<wgt id='morphing_basis_vector_4'> +1.8077435e-04 </wgt>
<wgt id='morphing_basis_vector_5'> +2.9026218e-04 </wgt>
</rwgt>
</event>
<event>
 4      1 +1.4786900e-06 9.24765700e+02 7.81860800e-03 8.75953000e-02
        2 -1    0    0  501    0 +0.0000000000e+00 +0.0000000000e+00 +2.5508122294e+03 2.5508122294e+03 0.0000000000e+00 0.0000e+00 -1.0000e+00
       -2 -1    0    0    0  501 -0.0000000000e+00 -0.0000000000e+00 -8.3815613678e+01 8.3815613678e+01 0.0000000000e+00 0.0000e+00 1.0000e+00
      -13  1    1    2    0    0 +6.6043557582e+01 +4.4752457595e+02 +9.6086092946e+02 1.0620234100e+03 0.0000000000e+00 0.0000e+00 1.0000e+00
       13  1    1    2    0    0 -6.6043557582e+01 -4.4752457595e+02 +1.5061356863e+03 1.5726044331e+03 0.0000000000e+00 0.0000e+00 -1.0000e+00
<mgrwt>
<rscale>  0 0.92476568E+03</rscale>
<asrwt>0</asrwt>
<pdfrwt beam="1">  1        2 0.39243259E+00 0.92476568E+03</pdfrwt>
<pdfrwt beam="2">  1       -2 0.12894712E-01 0.92476568E+03</pdfrwt>
<totfact> 0.16602351E+02</totfact>
</mgrwt>
<rwgt>
<wgt id='morphing_basis_vector_1'> +1.7771818e-04 </wgt>
<wgt id='morphing_basis_vector_2'> +1.1664895e-04 </wgt>
<wgt id='morphing_basis_vector_3'> +1.6702935e-04 </wgt>
<wgt id='morphing_basis_vector_4'> +9.3492362e-05 </wgt>
<wgt id='morphing_basis_vector_5'> +1.5387918e-04 </wgt>
</rwgt>
</event>
<event>
 4      1 +1.4786900e-06 1.06450900e+03 7.81860800e-03 8.62530900e-02
        2 -1    0    0  501    0 +0.0000000000e+00 +0.0000000000e+00 +6.2122398631e+02 6.2122398631e+02 0.0000000000e+00 0.0000e+00 -1.0000e+00
       -2 -1    0    0    0  501 -0.0000000000e+00 -0.0000000000e+00 -4.5602669440e+02 4.5602669440e+02 0.0000000000e+00 0.0000e+00 1.0000e+00
      -13  1    1    2    0    0 -3.8752545783e+02 +5.4659787098e+01 -2.8245610477e+02 4.8264388933e+02 0.0000000000e+00 0.0000e+00 1.0000e+00
       13  1    1    2    0    0 +3.8752545783e+02 -5.4659787098e+01 +4.4765339668e+02 5.9460679137e+02 0.0000000000e+00 0.0000e+00 -1.0000e+00
<mgrwt>
<rscale>  0 0.10645088E+04</rscale>
<asrwt>0</asrwt>
<pdfrwt beam="1">  1        2 0.95572921E-01 0.10645088E+04</pdfrwt>
<pdfrwt beam="2">  1       -2 0.70157953E-01 0.10645088E+04</pdfrwt>
<totfact> 0.10893338E+02</totfact>
</mgrwt>
<rwgt>
<wgt id='morphing_basis_vector_1'> +2.9435958e-04 </wgt>
<wgt id='morphing_basis_vector_2'> +1.8666529e-04 </wgt>
<wgt id='morphing_basis_vector_3'> +2.8760595e-04 </wgt>
<wgt id='morphing_basis_vector_4'> +1.7871562e-04 </wgt>
<wgt id='morphing_basis_vector_5'> +2.8422557e-04 </wgt>
</rwgt>
</event>
<event>
 4      1 +1.4786900e-06 1.03580200e+03 7.81860800e-03 8.65106600e-02
        2 -1    0    0  501    0 +0.0000000000e+00 +0.0000000000e+00 +6.4862427505e+02 6.4862427505e+02 0.0000000000e+00 0.0000e+00 1.0000e+00
       -2 -1    0    0    0  501 -0.0000000000e+00 -0.0000000000e+00 -4.1352391549e+02 4.1352391549e+02 0.0000000000e+00 0.0000e+00 -1.0000e+00
      -13  1    1    2    0    0 -1.5598112636e+02 -2.4443601782e+02 +5.5758323790e+02 6.2847286797e+02 0.0000000000e+00 0.0000e+00 1.0000e+00
       13  1    1    2    0    0 +1.5598112636e+02 +2.4443601782e+02 -3.2248287833e+02 4.3367532257e+02 0.0000000000e+00 0.0000e+00 -1.0000e+00
<mgrwt>
<rscale>  0 0.10358024E+04</rscale>
<asrwt>0</asrwt>
<pdfrwt beam="1">  1        2 0.99788350E-01 0.10358024E+04</pdfrwt>
<pdfrwt beam="2">  1       -2 0.63619064E-01 0.10358024E+04</pdfrwt>
<totfact> 0.12744196E+02</totfact>
</mgrwt>
<rwgt>
<wgt id='morphing_basis_vector_1'> +3.5561184e-04 </wgt>
<wgt id='morphing_basis_vector_2'> +4.3922573e-04 </wgt>
<wgt id='morphing_basis_vector_3'> +3.4540210e-04 </wgt>
<wgt id='morphing_basis_vector_4'> +1.7044433e-05 </wgt>
<wgt id='morphing_basis_vector_5'> +2.4392150e-04 </wgt>
</rwgt>
</event>
<event>
 4      1 +1.4786900e-06 9.07702800e+02 7.81860800e-03 8.77760500e-02
        2 -1    0    0  501    0 +0.0000000000e+00 +0.0000000000e+00 +2.0588894983e+03 2.0588894983e+03 0.0000000000e+00 0.0000e+00 1.0000e+00
       -2 -1    0    0    0  501 -0.0000000000e+00 -0.0000000000e+00 -1.0004476213e+02 1.0004476213e+02 0.0000000000e+00 0.0000e+00 -1.0000e+00
      -13  1    1    2    0    0 +3.3207169140e+01 -3.2468568823e+02 +2.2933006625e+02 3.9889320815e+02 0.0000000000e+00 0.0000e+00 -1.0000e+00
       13  1    1    2    0    0 -3.3207169140e+01 +3.2468568823e+02 +1.7295146700e+03 1.7600410523e+03 0.0000000000e+00 0.0000e+00 1.0000e+00
<mgrwt>
<rscale>  0 0.90770284E+03</rscale>
<asrwt>0</asrwt>
<pdfrwt beam="1">  1        2 0.31675220E+00 0.90770284E+03</pdfrwt>
<pdfrwt beam="2">  1       -2 0.15391503E-01 0.90770284E+03</pdfrwt>
<totfact> 0.23907981E+02</totfact>
</mgrwt>
<rwgt>
<wgt id='morphing_basis_vector_1'> +1.6361519e-04 </wgt>
<wgt id='morphing_basis_vector_2'> +1.0124908e-04 </wgt>
<wgt id='morphing_basis_vector_3'> +1.5320603e-04 </wgt>
<wgt id='morphing_basis_vector_4'> +8.9686073e-05 </wgt>
<wgt id='morphing_basis_vector_5'> +1.4192314e-04 </wgt>
</rwgt>
</event>
<event>
 4      1 +1.4786900e-06 9.62246100e+02 7.81860800e-03 8.72122100e-02
        2 -1    0    0  501    0 +0.0000000000e+00 +0.0000000000e+00 +2.6395085315e+02 2.6395085315e+02 0.0000000000e+00 0.0000e+00 1.0000e+00
       -2 -1    0    0    0  501 -0.0000000000e+00 -0.0000000000e+00 -8.7697919108e+02 8.7697919108e+02 0.0000000000e+00 0.0000e+00 -1.0000e+00
      -13  1    1    2    0    0 -2.4182032009e+02 +8.8369749710e+01 -7.8842737449e+02 8.2939978582e+02 0.0000000000e+00 0.0000e+00 -1.0000e+00
       13  1    1    2    0    0 +2.4182032009e+02 -8.8369749710e+01 +1.7539903656e+02 3.1153025840e+02 0.0000000000e+00 0.0000e+00 1.0000e+00
<mgrwt>
<rscale>  0 0.96224613E+03</rscale>
<asrwt>0</asrwt>
<pdfrwt beam="1">  1        2 0.40607824E-01 0.96224613E+03</pdfrwt>
<pdfrwt beam="2">  1       -2 0.13491987E+00 0.96224613E+03</pdfrwt>
<totfact> 0.60033207E+01</totfact>
</mgrwt>
<rwgt>
<wgt id='morphing_basis_vector_1'> +2.0230634e-04 </wgt>
<wgt id='morphing_basis_vector_2'> +1.2587354e-04 </wgt>
<wgt id='morphing_basis_vector_3'> +1.9266800e-04 </wgt>
<wgt id='morphing_basis_vector_4'> +1.1599919e-04 </wgt>
<wgt id='morphing_basis_vector_5'> +1.8346713e-04 </wgt>
</rwgt>
</event>
<event>
 4      1 +1.4786900e-06 1.06429400e+03 7.81860800e-03 8.62549900e-02
        2 -1    0    0  501    0 +0.0000000000e+00 +0.0000000000e+00 +3.9665246289e+02 3.9665246289e+02 0.0000000000e+00 0.0000e+00 -1.0000e+00
       -2 -1    0    0    0  501 -0.0000000000e+00 -0.0000000000e+00 -7.1392585394e+02 7.1392585394e+02 0.0000000000e+00 0.0000e+00 1.0000e+00
      -13  1    1    2    0    0 +1.4552830587e+02 -2.9929411189e+01 -6.9184406891e+02 7.0761746244e+02 0.0000000000e+00 0.0000e+00 1.0000e+00
       13  1    1    2    0    0 -1.4552830587e+02 +2.9929411189e+01 +3.7457067786e+02 4.0296085440e+02 0.0000000000e+00 0.0000e+00 -1.0000e+00
<mgrwt>
<rscale>  0 0.10642940E+04</rscale>
<asrwt>0</asrwt>
<pdfrwt beam="1">  1        2 0.61023456E-01 0.10642940E+04</pdfrwt>
<pdfrwt beam="2">  1       -2 0.10983475E+00 0.10642940E+04</pdfrwt>
<totfact> 0.64422946E+01</totfact>
</mgrwt>
<rwgt>
<wgt id='morphing_basis_vector_1'> +2.9371396e-04 </wgt>
<wgt id='morphing_basis_vector_2'> +1.8523882e-04 </wgt>
<wgt id='morphing_basis_vector_3'> +2.8694968e-04 </wgt>
<wgt id='morphing_basis_vector_4'> +1.7924398e-04 </wgt>
<wgt id='morphing_basis_vector_5'> +2.8402201e-04 </wgt>
</rwgt>
</event>
<event>
 4      1 +1.4786900e-06 1.05069900e+03 7.81860800e-03 8.63759400e-02
        2 -1    0    0  501    0 +0.0000000000e+00 +0.0000000000e+00 +1.2125256084e+03 1.2125256084e+03 0.0000000000e+00 0.0000e+00 -1.0000e+00
       -2 -1    0    0    0  501 -0.0000000000e+00 -0.0000000000e+00 -2.2761758889e+02 2.2761758889e+02 0.0000000000e+00 0.0000e+00 1.0000e+00
      -13  1    1    2    0    0 +3.2073302295e+02 +4.1293127163e+02 +4.2242657322e+02 6.7218012233e+02 0.0000000000e+00 0.0000e+00 1.0000e+00
       13  1    1    2    0    0 -3.2073302295e+02 -4.1293127163e+02 +5.6248144634e+02 7.6796307501e+02 0.0000000000e+00 0.0000e+00 -1.0000e+00
<mgrwt>
<rscale>  0 0.10506991E+04</rscale>
<asrwt>0</asrwt>
<pdfrwt beam="1">  1        2 0.18654240E+00 0.10506991E+04</pdfrwt>
<pdfrwt beam="2">  1       -2 0.35018091E-01 0.10506991E+04</pdfrwt>
<totfact> 0.17225601E+02</totfact>
</mgrwt>
<rwgt>
<wgt id='morphing_basis_vector_1'> +2.8699061e-04 </wgt>
<wgt id='morphing_basis_vector_2'> +1.9744939e-04 </wgt>
<wgt id='morphing_basis_vector_3'> +2.7964790e-04 </wgt>
<wgt id='morphing_basis_vector_4'> +1.5845075e-04 </wgt>
<wgt id='morphing_basis_vector_5'> +2.6803649e-04 </wgt>
</rwgt>
</event>
<event>
 4      1 +1.4786900e-06 9.41155500e+02 7.81860800e-03 8.74254800e-02
        2 -1    0    0  501    0 +0.0000000000e+00 +0.0000000000e+00 +2.3968657718e+02 2.3968657718e+02 0.0000000000e+00 0.0000e+00 1.0000e+00
       -2 -1    0    0    0  501 -0.0000000000e+00 -0.0000000000e+00 -9.2388744095e+02 9.2388744095e+02 0.0000000000e+00 0.0000e+00 -1.0000e+00
      -13  1    1    2    0    0 -4.4337821864e+02 +1.1984157638e+02 -4.6876896783e+02 6.5627021371e+02 0.0000000000e+00 0.0000e+00 -1.0000e+00
       13  1    1    2    0    0 +4.4337821864e+02 -1.1984157638e+02 -2.1543189593e+02 5.0730380442e+02 0.0000000000e+00 0.0000e+00 1.0000e+00
<mgrwt>
<rscale>  0 0.94115550E+03</rscale>
<asrwt>0</asrwt>
<pdfrwt beam="1">  1        2 0.36874858E-01 0.94115550E+03</pdfrwt>
<pdfrwt beam="2">  1       -2 0.14213653E+00 0.94115550E+03</pdfrwt>
<totfact> 0.58122626E+01</totfact>
</mgrwt>
<rwgt>
<wgt id='morphing_basis_vector_1'> +1.8937493e-04 </wgt>
<wgt id='morphing_basis_vector_2'> +1.2432075e-04 </wgt>
<wgt id='morphing_basis_vector_3'> +1.7896130e-04 </wgt>
<wgt id='morphing_basis_vector_4'> +1.0112079e-04 </wgt>
<wgt id='morphing_basis_vector_5'> +1.6624971e-04 </wgt>
</rwgt>
</event>
<event>
 4      1 +1.4786900e-06 9.34660100e+02 7.81860800e-03 8.74923500e-02
        2 -1    0    0  501    0 +0.0000000000e+00 +0.0000000000e+00 +1.2081993407e+03 1.2081993407e+03 0.0000000000e+00 0.0000e+00 1.0000e+00
       -2 -1    0    0    0  501 -0.0000000000e+00 -0.0000000000e+00 -1.8076271331e+02 1.8076271331e+02 0.0000000000e+00 0.0000e+00 -1.0000e+00
      -13  1    1    2    0    0 +1.3696431247e+02 -2.7789369509e+02 -6.2188953110e+00 3.0987546421e+02 0.0000000000e+00 0.0000e+00 -1.0000e+00
       13  1    1    2    0    0 -1.3696431247e+02 +2.7789369509e+02 +1.0336555227e+03 1.0790865898e+03 0.0000000000e+00 0.0000e+00 1.0000e+00
<mgrwt>
<rscale>  0 0.93466013E+03</rscale>
<asrwt>0</asrwt>
<pdfrwt beam="1">  1        2 0.18587682E+00 0.93466013E+03</pdfrwt>
<pdfrwt beam="2">  1       -2 0.27809649E-01 0.93466013E+03</pdfrwt>
<totfact> 0.26312143E+02</totfact>
</mgrwt>
<rwgt>
<wgt id='morphing_basis_vector_1'> +1.8195245e-04 </wgt>
<wgt id='morphing_basis_vector_2'> +1.1292866e-04 </wgt>
<wgt id='morphing_basis_vector_3'> +1.7186381e-04 </wgt>
<wgt id='morphing_basis_vector_4'> +1.0205923e-04 </wgt>
<wgt id='morphing_basis_vector_5'> +1.6148643e-04 </wgt>
</rwgt>
</event>
<event>
 4      1 +1.4786900e-06 9.19586500e+02 7.81860800e-03 8.76497300e-02
        2 -1    0    0  501    0 +0.0000000000e+00 +0.0000000000e+00 +1.2341774213e+03 1.2341774213e+03 0.0000000000e+00 0.0000e+00 -1.0000e+00
       -2 -1    0    0    0  501 -0.0000000000e+00 -0.0000000000e+00 -1.7129613840e+02 1.7129613840e+02 0.0000000000e+00 0.0000e+00 1.0000e+00
      -13  1    1    2    0    0 +1.3874472776e+02 +3.6028864485e+02 +1.4979995853e+02 4.1412321194e+02 0.0000000000e+00 0.0000e+00 1.0000e+00
       13  1    1    2    0    0 -1.3874472776e+02 -3.6028864485e+02 +9.1308132436e+02 9.9135034775e+02 0.0000000000e+00 0.0000e+00 -1.0000e+00
<mgrwt>
<rscale>  0 0.91958649E+03</rscale>
<asrwt>0</asrwt>
<pdfrwt beam="1">  1        2 0.18987344E+00 0.91958649E+03</pdfrwt>
<pdfrwt beam="2">  1       -2 0.26353253E-01 0.91958649E+03</pdfrwt>
<totfact> 0.27934342E+02</totfact>
</mgrwt>
<rwgt>
<wgt id='morphing_basis_vector_1'> +1.7191672e-04 </wgt>
<wgt id='morphing_basis_vector_2'> +1.0750389e-04 </wgt>
<wgt id='morphing_basis_vector_3'> +1.6156097e-04 </wgt>
<wgt id='morphing_basis_vector_4'> +9.4411639e-05 </wgt>
<wgt id='morphing_basis_vector_5'> +1.5028949e-04 </wgt>
</rwgt>
</event>
<event>
 4      1 +1.4786900e-06 1.05998500e+03 7.81860800e-03 8.62931200e-02
        2 -1    0    0  501    0 +0.0000000000e+00 +0.0000000000e+00 +2.7269738483e+03 2.7269738483e+03 0.0000000000e+00 0.0000e+00 -1.0000e+00
       -2 -1    0    0    0  501 -0.0000000000e+00 -0.0000000000e+00 -1.0300497887e+02 1.0300497887e+02 0.0000000000e+00 0.0000e+00 1.0000e+00
      -13  1    1    2    0    0 +5.1911287323e+02 -7.7517371619e+01 +1.1157062529e+03 1.2329994164e+03 0.0000000000e+00 0.0000e+00 1.0000e+00
       13  1    1    2    0    0 -5.1911287323e+02 +7.7517371619e+01 +1.5082626165e+03 1.5969794108e+03 0.0000000000e+00 0.0000e+00 -1.0000e+00
<mgrwt>
<rscale>  0 0.10599847E+04</rscale>
<asrwt>0</asrwt>
<pdfrwt beam="1">  1        2 0.41953438E+00 0.10599847E+04</pdfrwt>
<pdfrwt beam="2">  1       -2 0.15846922E-01 0.10599847E+04</pdfrwt>
<totfact> 0.91990654E+01</totfact>
</mgrwt>
<rwgt>
<wgt id='morphing_basis_vector_1'> +2.9549629e-04 </wgt>
<wgt id='morphing_basis_vector_2'> +2.0105344e-04 </wgt>
<wgt id='morphing_basis_vector_3'> +2.8856859e-04 </wgt>
<wgt id='morphing_basis_vector_4'> +1.6622342e-04 </wgt>
<wgt id='morphing_basis_vector_5'> +2.7848628e-04 </wgt>
</rwgt>
</event>
<event>
 4      1 +1.4786900e-06 1.02828200e+03 7.81860800e-03 8.65795700e-02
        2 -1    0    0  501    0 +0.0000000000e+00 +0.0000000000e+00 +3.0298953978e+03 3.0298953978e+03 0.0000000000e+00 0.0000e+00 -1.0000e+00
       -2 -1    0    0    0  501 -0.0000000000e+00 -0.0000000000e+00 -8.7244187438e+01 8.7244187438e+01 0.0000000000e+00 0.0000e+00 1.0000e+00
      -13  1    1    2    0    0 -4.6344661789e+02 +2.2220710936e+02 +1.5122209442e+03 1.5971759300e+03 0.0000000000e+00 0.0000e+00 1.0000e+00
       13  1    1    2    0    0 +4.6344661789e+02 -2.2220710936e+02 +1.4304302661e+03 1.5199636552e+03 0.0000000000e+00 0.0000e+00 -1.0000e+00
<mgrwt>
<rscale>  0 0.10282816E+04</rscale>
<asrwt>0</asrwt>
<pdfrwt beam="1">  1        2 0.46613767E+00 0.10282816E+04</pdfrwt>
<pdfrwt beam="2">  1       -2 0.13422185E-01 0.10282816E+04</pdfrwt>
<totfact> 0.77962327E+01</totfact>
</mgrwt>
<rwgt>
<wgt id='morphing_basis_vector_1'> +2.6857961e-04 </wgt>
<wgt id='morphing_basis_vector_2'> +1.9294014e-04 </wgt>
<wgt id='morphing_basis_vector_3'> +2.6019352e-04 </wgt>
<wgt id='morphing_basis_vector_4'> +1.3863907e-04 </wgt>
<wgt id='morphing_basis_vector_5'> +2.4387054e-04 </wgt>
</rwgt>
</event>
<event>
 4      1 +1.4786900e-06 1.06111900e+03 7.81860800e-03 8.62830600e-02
        2 -1    0    0  501    0 +0.0000000000e+00 +0.0000000000e+00 +9.3978360217e+02 9.3978360217e+02 0.0000000000e+00 0.0000e+00 1.0000e+00
       -2 -1    0    0    0  501 -0.0000000000e+00 -0.0000000000e+00 -2.9953005470e+02 2.9953005470e+02 0.0000000000e+00 0.0000e+00 -1.0000e+00
      -13  1    1    2    0    0 -2.9791613475e+02 +2.5088077069e+02 -1.0064977089e+02 4.0227547878e+02 0.0000000000e+00 0.0000e+00 -1.0000e+00
       13  1    1    2    0    0 +2.9791613475e+02 -2.5088077069e+02 +7.4090331836e+02 8.3703817810e+02 0.0000000000e+00 0.0000e+00 1.0000e+00
<mgrwt>
<rscale>  0 0.10611191E+04</rscale>
<asrwt>0</asrwt>
<pdfrwt beam="1">  1        2 0.14458209E+00 0.10611191E+04</pdfrwt>
<pdfrwt beam="2">  1       -2 0.46081547E-01 0.10611191E+04</pdfrwt>
<totfact> 0.15084096E+02</totfact>
</mgrwt>
<rwgt>
<wgt id='morphing_basis_vector_1'> +2.9087656e-04 </wgt>
<wgt id='morphing_basis_vector_2'> +1.8436804e-04 </wgt>
<wgt id='morphing_basis_vector_3'> +2.8399030e-04 </wgt>
<wgt id='morphing_basis_vector_4'> +1.7629914e-04 </wgt>
<wgt id='morphing_basis_vector_5'> +2.8035387e-04 </wgt>
</rwgt>
</event>
<event>
 4      1 +1.4786900e-06 9.49404200e+02 7.81860800e-03 8.73413800e-02
        2 -1    0    0  501    0 +0.0000000000e+00 +0.0000000000e+00 +2.8627960712e+02 2.8627960712e+02 0.0000000000e+00 0.0000e+00 -1.0000e+00
       -2 -1    0    0    0  501 -0.0000000000e+00 -0.0000000000e+00 -7.8713982336e+02 7.8713982336e+02 0.0000000000e+00 0.0000e+00 1.0000e+00
      -13  1    1    2    0    0 +2.5048678845e+02 +3.0255617012e+02 +5.0957537580e+01 3.9608147886e+02 0.0000000000e+00 0.0000e+00 -1.0000e+00
       13  1    1    2    0    0 -2.5048678845e+02 -3.0255617012e+02 -5.5181775382e+02 6.7733795161e+02 0.0000000000e+00 0.0000e+00 1.0000e+00
<mgrwt>
<rscale>  0 0.94940419E+03</rscale>
<asrwt>0</asrwt>
<pdfrwt beam="1">  1        2 0.44043017E-01 0.94940419E+03</pdfrwt>
<pdfrwt beam="2">  1       -2 0.12109843E+00 0.94940419E+03</pdfrwt>
<totfact> 0.73058125E+01</totfact>
</mgrwt>
<rwgt>
<wgt id='morphing_basis_vector_1'> +2.3325120e-04 </wgt>
<wgt id='morphing_basis_vector_2'> +2.4304428e-04 </wgt>
<wgt id='morphing_basis_vector_3'> +2.1773979e-04 </wgt>
<wgt id='morphing_basis_vector_4'> +4.8949976e-05 </wgt>
<wgt id='morphing_basis_vector_5'> +1.6956958e-04 </wgt>
</rwgt>
</event>
<event>
 4      1 +1.4786900e-06 1.02617600e+03 7.81860800e-03 8.65989700e-02
        2 -1    0    0  501    0 +0.0000000000e+00 +0.0000000000e+00 +8.3153327611e+02 8.3153327611e+02 0.0000000000e+00 0.0000e+00 -1.0000e+00
       -2 -1    0    0    0  501 -0.0000000000e+00 -0.0000000000e+00 -3.1659510583e+02 3.1659510583e+02 0.0000000000e+00 0.0000e+00 1.0000e+00
      -13  1    1    2    0    0 +4.7143705240e+02 +3.4260977758e+00 +3.0935512980e+01 4.7246337264e+02 0.0000000000e+00 0.0000e+00 1.0000e+00
       13  1    1    2    0    0 -4.7143705240e+02 -3.4260977758e+00 +4.8400265729e+02 6.7566500930e+02 0.0000000000e+00 0.0000e+00 -1.0000e+00
<mgrwt>
<rscale>  0 0.10261761E+04</rscale>
<asrwt>0</asrwt>
<pdfrwt beam="1">  1        2 0.12792820E+00 0.10261761E+04</pdfrwt>
<pdfrwt beam="2">  1       -2 0.48706940E-01 0.10261761E+04</pdfrwt>
<totfact> 0.16008007E+02</totfact>
</mgrwt>
<rwgt>
<wgt id='morphing_basis_vector_1'> +2.5833307e-04 </wgt>
<wgt id='morphing_basis_vector_2'> +1.6659907e-04 </wgt>
<wgt id='morphing_basis_vector_3'> +2.5017389e-04 </wgt>
<wgt id='morphing_basis_vector_4'> +1.5033341e-04 </wgt>
<wgt id='morphing_basis_vector_5'> +2.4250761e-04 </wgt>
</rwgt>
</event>
<event>
 4      1 +1.4786900e-06 1.01132600e+03 7.81860800e-03 8.67372000e-02
        2 -1    0    0  501    0 +0.0000000000e+00 +0.0000000000e+00 +4.4511010984e+02 4.4511010984e+02 0.0000000000e+00 0.0000e+00 -1.0000e+00
       -2 -1    0    0    0  501 -0.0000000000e+00 -0.0000000000e+00 -5.7445330321e+02 5.7445330321e+02 0.0000000000e+00 0.0000e+00 1.0000e+00
      -13  1    1    2    0    0 -3.8467284857e+02 -9.9570916141e+01 +2.5061754953e+02 4.6978369906e+02 0.0000000000e+00 0.0000e+00 -1.0000e+00
       13  1    1    2    0    0 +3.8467284857e+02 +9.9570916141e+01 -3.7996074291e+02 5.4977971399e+02 0.0000000000e+00 0.0000e+00 1.0000e+00
<mgrwt>
<rscale>  0 0.10113258E+04</rscale>
<asrwt>0</asrwt>
<pdfrwt beam="1">  1        2 0.68478478E-01 0.10113258E+04</pdfrwt>
<pdfrwt beam="2">  1       -2 0.88377432E-01 0.10113258E+04</pdfrwt>
<totfact> 0.95737606E+01</totfact>
</mgrwt>
<rwgt>
<wgt id='morphing_basis_vector_1'> +3.0182893e-04 </wgt>
<wgt id='morphing_basis_vector_2'> +3.3026969e-04 </wgt>
<wgt id='morphing_basis_vector_3'> +2.8999857e-04 </wgt>
<wgt id='morphing_basis_vector_4'> +5.2335100e-05 </wgt>
<wgt id='morphing_basis_vector_5'> +2.2232786e-04 </wgt>
</rwgt>
</event>
<event>
 4      1 +1.4786900e-06 9.97523900e+02 7.81860800e-03 8.68679000e-02
        2 -1    0    0  501    0 +0.0000000000e+00 +0.0000000000e+00 +5.6515761887e+02 5.6515761887e+02 0.0000000000e+00 0.0000e+00 -1.0000e+00
       -2 -1    0    0    0  501 -0.0000000000e+00 -0.0000000000e+00 -4.4016654181e+02 4.4016654181e+02 0.0000000000e+00 0.0000e+00 1.0000e+00
      -13  1    1    2    0    0 -9.3000182039e+01 -4.8495219974e+02 -8.3091153651e+00 4.9385899940e+02 0.0000000000e+00 0.0000e+00 1.0000e+00
       13  1    1    2    0    0 +9.3000182039e+01 +4.8495219974e+02 +1.3330019242e+02 5.1146516127e+02 0.0000000000e+00 0.0000e+00 -1.0000e+00
<mgrwt>
<rscale>  0 0.99752388E+03</rscale>
<asrwt>0</asrwt>
<pdfrwt beam="1">  1        2 0.86947326E-01 0.99752388E+03</pdfrwt>
<pdfrwt beam="2">  1       -2 0.67717929E-01 0.99752388E+03</pdfrwt>
<totfact> 0.13189003E+02</totfact>
</mgrwt>
<rwgt>
<wgt id='morphing_basis_vector_1'> +2.3582024e-04 </wgt>
<wgt id='morphing_basis_vector_2'> +1.5911259e-04 </wgt>
<wgt id='morphing_basis_vector_3'> +2.2658236e-04 </wgt>
<wgt id='morphing_basis_vector_4'> +1.2813735e-04 </wgt>
<wgt id='morphing_basis_vector_5'> +2.1420396e-04 </wgt>
</rwgt>
</event>
<event>
 4      1 +1.4786900e-06 9.41373100e+02 7.81860800e-03 8.74232500e-02
        2 -1    0    0  501    0 +0.0000000000e+00 +0.0000000000e+00 +5.5739830038e+02 5.5739830038e+02 0.0000000000e+00 0.0000e+00 -1.0000e+00
       -2 -1    0    0    0  501 -0.0000000000e+00 -0.0000000000e+00 -3.9746416529e+02 3.9746416529e+02 0.0000000000e+00 0.0000e+00 1.0000e+00
      -13  1    1    2    0    0 +2.4559639126e+01 -4.4490523387e+02 -7.3870315756e+01 4.5166432951e+02 0.0000000000e+00 0.0000e+00 1.0000e+00
       13  1    1    2    0    0 -2.4559639126e+01 +4.4490523387e+02 +2.3380445085e+02 5.0319813616e+02 0.0000000000e+00 0.0000e+00 -1.0000e+00
<mgrwt>
<rscale>  0 0.94137315E+03</rscale>
<asrwt>0</asrwt>
<pdfrwt beam="1">  1        2 0.85753584E-01 0.94137315E+03</pdfrwt>
<pdfrwt beam="2">  1       -2 0.61148333E-01 0.94137315E+03</pdfrwt>
<totfact> 0.16641854E+02</totfact>
</mgrwt>
<rwgt>
<wgt id='morphing_basis_vector_1'> +1.8850738e-04 </wgt>
<wgt id='morphing_basis_vector_2'> +1.2130862e-04 </wgt>
<wgt id='morphing_basis_vector_3'> +1.7825239e-04 </wgt>
<wgt id='morphing_basis_vector_4'> +1.0274046e-04 </wgt>
<wgt id='morphing_basis_vector_5'> +1.6650344e-04 </wgt>
</rwgt>
</event>
<event>
 4      1 +1.4786900e-06 9.46808000e+02 7.81860800e-03 8.73677600e-02
        2 -1    0    0  501    0 +0.0000000000e+00 +0.0000000000e+00 +1.5933619953e+02 1.5933619953e+02 0.0000000000e+00 0.0000e+00 -1.0000e+00
       -2 -1    0    0    0  501 -0.0000000000e+00 -0.0000000000e+00 -1.4065312527e+03 1.4065312527e+03 0.0000000000e+00 0.0000e+00 1.0000e+00
      -13  1    1    2    0    0 -4.3755525625e+02 +5.0365906018e+01 -9.1062316491e+02 1.0115462793e+03 0.0000000000e+00 0.0000e+00 1.0000e+00
       13  1    1    2    0    0 +4.3755525625e+02 -5.0365906018e+01 -3.3657188829e+02 5.5432117292e+02 0.0000000000e+00 0.0000e+00 -1.0000e+00
<mgrwt>
<rscale>  0 0.94680799E+03</rscale>
<asrwt>0</asrwt>
<pdfrwt beam="1">  1        2 0.24513261E-01 0.94680799E+03</pdfrwt>
<pdfrwt beam="2">  1       -2 0.21638943E+00 0.94680799E+03</pdfrwt>
<totfact> 0.25146652E+01</totfact>
</mgrwt>
<rwgt>
<wgt id='morphing_basis_vector_1'> +1.9218033e-04 </wgt>
<wgt id='morphing_basis_vector_2'> +1.2295944e-04 </wgt>
<wgt id='morphing_basis_vector_3'> +1.8206469e-04 </wgt>
<wgt id='morphing_basis_vector_4'> +1.0585591e-04 </wgt>
<wgt id='morphing_basis_vector_5'> +1.7079180e-04 </wgt>
</rwgt>
</event>
<event>
 4      1 +1.4786900e-06 9.15170200e+02 7.81860800e-03 8.76964400e-02
        2 -1    0    0  501    0 +0.0000000000e+00 +0.0000000000e+00 +1.4736508765e+02 1.4736508765e+02 0.0000000000e+00 0.0000e+00 1.0000e+00
       -2 -1    0    0    0  501 -0.0000000000e+00 -0.0000000000e+00 -1.4208530209e+03 1.4208530209e+03 0.0000000000e+00 0.0000e+00 -1.0000e+00
      -13  1    1    2    0    0 +1.1704695008e+02 -2.3372491851e+02 -1.2803225857e+03 1.3067338097e+03 0.0000000000e+00 0.0000e+00 -1.0000e+00
       13  1    1    2    0    0 -1.1704695008e+02 +2.3372491851e+02 +6.8346524340e+00 2.6148429882e+02 0.0000000000e+00 0.0000e+00 1.0000e+00
<mgrwt>
<rscale>  0 0.91517021E+03</rscale>
<asrwt>0</asrwt>
<pdfrwt beam="1">  1        2 0.22671552E-01 0.91517021E+03</pdfrwt>
<pdfrwt beam="2">  1       -2 0.21859277E+00 0.91517021E+03</pdfrwt>
<totfact> 0.26674003E+01</totfact>
</mgrwt>
<rwgt>
<wgt id='morphing_basis_vector_1'> +1.6841629e-04 </wgt>
<wgt id='morphing_basis_vector_2'> +1.0399700e-04 </wgt>
<wgt id='morphing_basis_vector_3'> +1.5810922e-04 </wgt>
<wgt id='morphing_basis_vector_4'> +9.3181444e-05 </wgt>
<wgt id='morphing_basis_vector_5'> +1.4716928e-04 </wgt>
</rwgt>
</event>
<event>
 4      1 +1.4786900e-06 1.02320300e+03 7.81860800e-03 8.66264500e-02
        2 -1    0    0  501    0 +0.0000000000e+00 +0.0000000000e+00 +7.4789872042e+02 7.4789872042e+02 0.0000000000e+00 0.0000e+00 -1.0000e+00
       -2 -1    0    0    0  501 -0.0000000000e+00 -0.0000000000e+00 -3.4996213438e+02 3.4996213438e+02 0.0000000000e+00 0.0000e+00 1.0000e+00
      -13  1    1    2    0    0 -3.6703587423e+02 -1.9862805056e+02 -1.1854184247e+02 4.3384398562e+02 0.0000000000e+00 0.0000e+00 1.0000e+00
       13  1    1    2    0    0 +3.6703587423e+02 +1.9862805056e+02 +5.1647842850e+02 6.6401686918e+02 0.0000000000e+00 0.0000e+00 -1.0000e+00
<mgrwt>
<rscale>  0 0.10232033E+04</rscale>
<asrwt>0</asrwt>
<pdfrwt beam="1">  1        2 0.11506134E+00 0.10232033E+04</pdfrwt>
<pdfrwt beam="2">  1       -2 0.53840329E-01 0.10232033E+04</pdfrwt>
<totfact> 0.15049382E+02</totfact>
</mgrwt>
<rwgt>
<wgt id='morphing_basis_vector_1'> +2.5442195e-04 </wgt>
<wgt id='morphing_basis_vector_2'> +1.6128349e-04 </wgt>
<wgt id='morphing_basis_vector_3'> +2.4621497e-04 </wgt>
<wgt id='morphing_basis_vector_4'> +1.5026803e-04 </wgt>
<wgt id='morphing_basis_vector_5'> +2.3959303e-04 </wgt>
</rwgt>
</event>
<event>
 4      1 +1.4786900e-06 9.83036400e+02 7.81860800e-03 8.70074700e-02
        2 -1    0    0  501    0 +0.0000000000e+00 +0.0000000000e+00 +4.9666170935e+02 4.9666170935e+02 0.0000000000e+00 0.0000e+00 -1.0000e+00
       -2 -1    0    0    0  501 -0.0000000000e+00 -0.0000000000e+00 -4.8642791630e+02 4.8642791630e+02 0.0000000000e+00 0.0000e+00 1.0000e+00
      -13  1    1    2    0    0 -2.7885230547e+02 +4.0330711794e+02 -2.9161494077e+01 4.9118798071e+02 0.0000000000e+00 0.0000e+00 1.0000e+00
       13  1    1    2    0    0 +2.7885230547e+02 -4.0330711794e+02 +3.9395287134e+01 4.9190164495e+02 0.0000000000e+00 0.0000e+00 -1.0000e+00
<mgrwt>
<rscale>  0 0.98303636E+03</rscale>
<asrwt>0</asrwt>
<pdfrwt beam="1">  1        2 0.76409493E-01 0.98303636E+03</pdfrwt>
<pdfrwt beam="2">  1       -2 0.74835064E-01 0.98303636E+03</pdfrwt>
<totfact> 0.12352808E+02</totfact>
</mgrwt>
<rwgt>
<wgt id='morphing_basis_vector_1'> +2.2485107e-04 </wgt>
<wgt id='morphing_basis_vector_2'> +1.5477525e-04 </wgt>
<wgt id='morphing_basis_vector_3'> +2.1507548e-04 </wgt>
<wgt id='morphing_basis_vector_4'> +1.1811991e-04 </wgt>
<wgt id='morphing_basis_vector_5'> +2.0087325e-04 </wgt>
</rwgt>
</event>
<event>
 4      1 +1.4786900e-06 1.01943400e+03 7.81860800e-03 8.66614300e-02
        2 -1    0    0  501    0 +0.0000000000e+00 +0.0000000000e+00 +5.5528217340e+02 5.5528217340e+02 0.0000000000e+00 0.0000e+00 1.0000e+00
       -2 -1    0    0    0  501 -0.0000000000e+00 -0.0000000000e+00 -4.6789088400e+02 4.6789088400e+02 0.0000000000e+00 0.0000e+00 -1.0000e+00
      -13  1    1    2    0    0 +4.5610442860e+02 +7.4293229579e+01 -1.7217629727e+02 4.9314846760e+02 0.0000000000e+00 0.0000e+00 -1.0000e+00
       13  1    1    2    0    0 -4.5610442860e+02 -7.4293229579e+01 +2.5956758666e+02 5.3002458980e+02 0.0000000000e+00 0.0000e+00 1.0000e+00
<mgrwt>
<rscale>  0 0.10194341E+04</rscale>
<asrwt>0</asrwt>
<pdfrwt beam="1">  1        2 0.85428027E-01 0.10194341E+04</pdfrwt>
<pdfrwt beam="2">  1       -2 0.71983213E-01 0.10194341E+04</pdfrwt>
<totfact> 0.11795383E+02</totfact>
</mgrwt>
<rwgt>
<wgt id='morphing_basis_vector_1'> +2.5187375e-04 </wgt>
<wgt id='morphing_basis_vector_2'> +1.6175858e-04 </wgt>
<wgt id='morphing_basis_vector_3'> +2.4351055e-04 </wgt>
<wgt id='morphing_basis_vector_4'> +1.4647822e-04 </wgt>
<wgt id='morphing_basis_vector_5'> +2.3571049e-04 </wgt>
</rwgt>
</event>
<event>
 4      1 +1.4786900e-06 9.21527000e+02 7.81860800e-03 8.76292900e-02
        2 -1    0    0  501    0 +0.0000000000e+00 +0.0000000000e+00 +7.4736005896e+02 7.4736005896e+02 0.0000000000e+00 0.0000e+00 -1.0000e+00
       -2 -1    0    0    0  501 -0.0000000000e+00 -0.0000000000e+00 -2.8407055500e+02 2.8407055500e+02 0.0000000000e+00 0.0000e+00 1.0000e+00
      -13  1    1    2    0    0 +1.3271229432e+02 +2.8822756089e+02 -1.4228829522e+02 3.4775514213e+02 0.0000000000e+00 0.0000e+00 1.0000e+00
       13  1    1    2    0    0 -1.3271229432e+02 -2.8822756089e+02 +6.0557779919e+02 6.8367547183e+02 0.0000000000e+00 0.0000e+00 -1.0000e+00
<mgrwt>
<rscale>  0 0.92152696E+03</rscale>
<asrwt>0</asrwt>
<pdfrwt beam="1">  1        2 0.11497847E+00 0.92152696E+03</pdfrwt>
<pdfrwt beam="2">  1       -2 0.43703162E-01 0.92152696E+03</pdfrwt>
<totfact> 0.22747347E+02</totfact>
</mgrwt>
<rwgt>
<wgt id='morphing_basis_vector_1'> +1.7282428e-04 </wgt>
<wgt id='morphing_basis_vector_2'> +1.0709730e-04 </wgt>
<wgt id='morphing_basis_vector_3'> +1.6256664e-04 </wgt>
<wgt id='morphing_basis_vector_4'> +9.5893591e-05 </wgt>
<wgt id='morphing_basis_vector_5'> +1.5172659e-04 </wgt>
</rwgt>
</event>
<event>
 4      1 +1.4786900e-06 9.08273000e+02 7.81860800e-03 8.77699400e-02
        2 -1    0    0  501    0 +0.0000000000e+00 +0.0000000000e+00 +4.4707945275e+02 4.4707945275e+02 0.0000000000e+00 0.0000e+00 -1.0000e+00
       -2 -1    0    0    0  501 -0.0000000000e+00 -0.0000000000e+00 -4.6130494781e+02 4.6130494781e+02 0.0000000000e+00 0.0000e+00 1.0000e+00
      -13  1    1    2    0    0 +1.0769878421e+02 -4.0773266284e+02 +1.6141611208e+02 4.5155300210e+02 0.0000000000e+00 0.0000e+00 1.0000e+00
       13  1    1    2    0    0 -1.0769878421e+02 +4.0773266284e+02 -1.7564160713e+02 4.5683139846e+02 0.0000000000e+00 0.0000e+00 -1.0000e+00
<mgrwt>
<rscale>  0 0.90827301E+03</rscale>
<asrwt>0</asrwt>
<pdfrwt beam="1">  1        2 0.68781454E-01 0.90827301E+03</pdfrwt>
<pdfrwt beam="2">  1       -2 0.70969992E-01 0.90827301E+03</pdfrwt>
<totfact> 0.15695033E+02</totfact>
</mgrwt>
<rwgt>
<wgt id='morphing_basis_vector_1'> +1.8405083e-04 </wgt>
<wgt id='morphing_basis_vector_2'> +1.6252584e-04 </wgt>
<wgt id='morphing_basis_vector_3'> +1.6960143e-04 </wgt>
<wgt id='morphing_basis_vector_4'> +6.1175412e-05 </wgt>
<wgt id='morphing_basis_vector_5'> +1.4077986e-04 </wgt>
</rwgt>
</event>
<event>
 4      1 +1.4786900e-06 1.06219400e+03 7.81860800e-03 8.62735400e-02
        2 -1    0    0  501    0 +0.0000000000e+00 +0.0000000000e+00 +8.5557877902e+02 8.5557877902e+02 0.0000000000e+00 0.0000e+00 1.0000e+00
       -2 -1    0    0    0  501 -0.0000000000e+00 -0.0000000000e+00 -3.2967646246e+02 3.2967646246e+02 0.0000000000e+00 0.0000e+00 -1.0000e+00
      -13  1    1    2    0    0 +2.6091675716e+02 -2.5500076061e+02 +6.9362109854e+02 7.8371753229e+02 0.0000000000e+00 0.0000e+00 1.0000e+00
       13  1    1    2    0    0 -2.6091675716e+02 +2.5500076061e+02 -1.6771878198e+02 4.0153770920e+02 0.0000000000e+00 0.0000e+00 -1.0000e+00
<mgrwt>
<rscale>  0 0.10621943E+04</rscale>
<asrwt>0</asrwt>
<pdfrwt beam="1">  1        2 0.13162750E+00 0.10621943E+04</pdfrwt>
<pdfrwt beam="2">  1       -2 0.50719456E-01 0.10621943E+04</pdfrwt>
<totfact> 0.14210774E+02</totfact>
</mgrwt>
<rwgt>
<wgt id='morphing_basis_vector_1'> +3.7849390e-04 </wgt>
<wgt id='morphing_basis_vector_2'> +4.4633240e-04 </wgt>
<wgt id='morphing_basis_vector_3'> +3.7189373e-04 </wgt>
<wgt id='morphing_basis_vector_4'> +3.8053960e-05 </wgt>
<wgt id='morphing_basis_vector_5'> +2.7286078e-04 </wgt>
</rwgt>
</event>
<event>
 4      1 +1.4786900e-06 9.12707300e+02 7.81860800e-03 8.77226100e-02
        2 -1    0    0  501    0 +0.0000000000e+00 +0.0000000000e+00 +1.3396516295e+03 1.3396516295e+03 0.0000000000e+00 0.0000e+00 1.0000e+00
       -2 -1    0    0    0  501 -0.0000000000e+00 -0.0000000000e+00 -1.5545733362e+02 1.5545733362e+02 0.0000000000e+00 0.0000e+00 -1.0000e+00
      -13  1    1    2    0    0 -4.5493555405e+02 -1.5466222222e+01 +5.3893803222e+02 7.0545004425e+02 0.0000000000e+00 0.0000e+00 -1.0000e+00
       13  1    1    2    0    0 +4.5493555405e+02 +1.5466222222e+01 +6.4525626366e+02 7.8965891887e+02 0.0000000000e+00 0.0000e+00 1.0000e+00
<mgrwt>
<rscale>  0 0.91270734E+03</rscale>
<asrwt>0</asrwt>
<pdfrwt beam="1">  1        2 0.20610024E+00 0.91270734E+03</pdfrwt>
<pdfrwt beam="2">  1       -2 0.23916514E-01 0.91270734E+03</pdfrwt>
<totfact> 0.28744377E+02</totfact>
</mgrwt>
<rwgt>
<wgt id='morphing_basis_vector_1'> +1.7127526e-04 </wgt>
<wgt id='morphing_basis_vector_2'> +1.1663290e-04 </wgt>
<wgt id='morphing_basis_vector_3'> +1.6006709e-04 </wgt>
<wgt id='morphing_basis_vector_4'> +8.5605682e-05 </wgt>
<wgt id='morphing_basis_vector_5'> +1.4507852e-04 </wgt>
</rwgt>
</event>
<event>
 4      1 +1.4786900e-06 9.78790000e+02 7.81860800e-03 8.70488600e-02
        2 -1    0    0  501    0 +0.0000000000e+00 +0.0000000000e+00 +2.7663156209e+03 2.7663156209e+03 0.0000000000e+00 0.0000e+00 -1.0000e+00
       -2 -1    0    0    0  501 -0.0000000000e+00 -0.0000000000e+00 -8.6579943027e+01 8.6579943027e+01 0.0000000000e+00 0.0000e+00 1.0000e+00
      -13  1    1    2    0    0 -1.1082255199e+02 -3.8801129826e+02 +5.3278573721e+02 6.6835248737e+02 0.0000000000e+00 0.0000e+00 1.0000e+00
       13  1    1    2    0    0 +1.1082255199e+02 +3.8801129826e+02 +2.1469499407e+03 2.1845430766e+03 0.0000000000e+00 0.0000e+00 -1.0000e+00
<mgrwt>
<rscale>  0 0.97878996E+03</rscale>
<asrwt>0</asrwt>
<pdfrwt beam="1">  1        2 0.42558695E+00 0.97878996E+03</pdfrwt>
<pdfrwt beam="2">  1       -2 0.13319993E-01 0.97878996E+03</pdfrwt>
<totfact> 0.11623027E+02</totfact>
</mgrwt>
<rwgt>
<wgt id='morphing_basis_vector_1'> +2.1598537e-04 </wgt>
<wgt id='morphing_basis_vector_2'> +1.3615312e-04 </wgt>
<wgt id='morphing_basis_vector_3'> +2.0661446e-04 </wgt>
<wgt id='morphing_basis_vector_4'> +1.2400433e-04 </wgt>
<wgt id='morphing_basis_vector_5'> +1.9759252e-04 </wgt>
</rwgt>
</event>
<event>
 4      1 +1.4786900e-06 9.06289000e+02 7.81860800e-03 8.77912100e-02
        2 -1    0    0  501    0 +0.0000000000e+00 +0.0000000000e+00 +4.0590416656e+02 4.0590416656e+02 0.0000000000e+00 0.0000e+00 1.0000e+00
       -2 -1    0    0    0  501 -0.0000000000e+00 -0.0000000000e+00 -5.0588277344e+02 5.0588277344e+02 0.0000000000e+00 0.0000e+00 -1.0000e+00
      -13  1    1    2    0    0 -2.0923441776e+02 -2.9711581197e+02 -3.2234002063e+02 4.8575707529e+02 0.0000000000e+00 0.0000e+00 -1.0000e+00
       13  1    1    2    0    0 +2.0923441776e+02 +2.9711581197e+02 +2.2236141376e+02 4.2602986471e+02 0.0000000000e+00 0.0000e+00 1.0000e+00
<mgrwt>
<rscale>  0 0.90628897E+03</rscale>
<asrwt>0</asrwt>
<pdfrwt beam="1">  1        2 0.62446794E-01 0.90628897E+03</pdfrwt>
<pdfrwt beam="2">  1       -2 0.77828120E-01 0.90628897E+03</pdfrwt>
<totfact> 0.14302525E+02</totfact>
</mgrwt>
<rwgt>
<wgt id='morphing_basis_vector_1'> +1.6288747e-04 </wgt>
<wgt id='morphing_basis_vector_2'> +1.0125010e-04 </wgt>
<wgt id='morphing_basis_vector_3'> +1.5242503e-04 </wgt>
<wgt id='morphing_basis_vector_4'> +8.8793200e-05 </wgt>
<wgt id='morphing_basis_vector_5'> +1.4093247e-04 </wgt>
</rwgt>
</event>
<event>
 4      1 +1.4786900e-06 1.01511300e+03 7.81860800e-03 8.67017200e-02
        2 -1    0    0  501    0 +0.0000000000e+00 +0.0000000000e+00 +6.2932261669e+02 6.2932261669e+02 0.0000000000e+00 0.0000e+00 1.0000e+00
       -2 -1    0    0    0  501 -0.0000000000e+00 -0.0000000000e+00 -4.0935042751e+02 4.0935042751e+02 0.0000000000e+00 0.0000e+00 -1.0000e+00
      -13  1    1    2    0    0 +4.1909991223e+02 -1.6981615838e+02 +3.4583803716e+02 5.6928570334e+02 0.0000000000e+00 0.0000e+00 -1.0000e+00
       13  1    1    2    0    0 -4.1909991223e+02 +1.6981615838e+02 -1.2586584797e+02 4.6938734086e+02 0.0000000000e+00 0.0000e+00 1.0000e+00
<mgrwt>
<rscale>  0 0.10151128E+04</rscale>
<asrwt>0</asrwt>
<pdfrwt beam="1">  1        2 0.96818864E-01 0.10151128E+04</pdfrwt>
<pdfrwt beam="2">  1       -2 0.62976989E-01 0.10151128E+04</pdfrwt>
<totfact> 0.13512859E+02</totfact>
</mgrwt>
<rwgt>
<wgt id='morphing_basis_vector_1'> +2.8558488e-04 </wgt>
<wgt id='morphing_basis_vector_2'> +2.7304486e-04 </wgt>
<wgt id='morphing_basis_vector_3'> +2.7514739e-04 </wgt>
<wgt id='morphing_basis_vector_4'> +8.5075076e-05 </wgt>
<wgt id='morphing_basis_vector_5'> +2.2786610e-04 </wgt>
</rwgt>
</event>
<event>
 4      1 +1.4786900e-06 1.01078100e+03 7.81860800e-03 8.67423200e-02
        2 -1    0    0  501    0 +0.0000000000e+00 +0.0000000000e+00 +6.6112602849e+02 6.6112602849e+02 0.0000000000e+00 0.0000e+00 -1.0000e+00
       -2 -1    0    0    0  501 -0.0000000000e+00 -0.0000000000e+00 -3.8634030477e+02 3.8634030477e+02 0.0000000000e+00 0.0000e+00 1.0000e+00
      -13  1    1    2    0    0 -4.9749489214e+02 -2.8466314754e+01 +5.0023190958e+01 5.0081315719e+02 0.0000000000e+00 0.0000e+00 1.0000e+00
       13  1    1    2    0    0 +4.9749489214e+02 +2.8466314754e+01 +2.2476253276e+02 5.4665317607e+02 0.0000000000e+00 0.0000e+00 -1.0000e+00
<mgrwt>
<rscale>  0 0.10107811E+04</rscale>
<asrwt>0</asrwt>
<pdfrwt beam="1">  1        2 0.10171170E+00 0.10107811E+04</pdfrwt>
<pdfrwt beam="2">  1       -2 0.59436970E-01 0.10107811E+04</pdfrwt>
<totfact> 0.14351715E+02</totfact>
</mgrwt>
<rwgt>
<wgt id='morphing_basis_vector_1'> +2.4713042e-04 </wgt>
<wgt id='morphing_basis_vector_2'> +1.6588065e-04 </wgt>
<wgt id='morphing_basis_vector_3'> +2.3833295e-04 </wgt>
<wgt id='morphing_basis_vector_4'> +1.3639934e-04 </wgt>
<wgt id='morphing_basis_vector_5'> +2.2687677e-04 </wgt>
</rwgt>
</event>
<event>
 4      1 +1.4786900e-06 9.11430800e+02 7.81860800e-03 8.77362000e-02
        2 -1    0    0  501    0 +0.0000000000e+00 +0.0000000000e+00 +1.4283789246e+03 1.4283789246e+03 0.0000000000e+00 0.0000e+00 1.0000e+00
       -2 -1    0    0    0  501 -0.0000000000e+00 -0.0000000000e+00 -1.4539315028e+02 1.4539315028e+02 0.0000000000e+00 0.0000e+00 -1.0000e+00
      -13  1    1    2    0    0 -4.4516662823e+02 +2.2832492401e+01 +8.0513735924e+02 9.2029387527e+02 0.0000000000e+00 0.0000e+00 -1.0000e+00
       13  1    1    2    0    0 +4.4516662823e+02 -2.2832492401e+01 +4.7784841511e+02 6.5347819965e+02 0.0000000000e+00 0.0000e+00 1.0000e+00
<mgrwt>
<rscale>  0 0.91143077E+03</rscale>
<asrwt>0</asrwt>
<pdfrwt beam="1">  1        2 0.21975059E+00 0.91143077E+03</pdfrwt>
<pdfrwt beam="2">  1       -2 0.22368178E-01 0.91143077E+03</pdfrwt>
<totfact> 0.28713499E+02</totfact>
</mgrwt>
<rwgt>
<wgt id='morphing_basis_vector_1'> +1.7800946e-04 </wgt>
<wgt id='morphing_basis_vector_2'> +1.3914891e-04 </wgt>
<wgt id='morphing_basis_vector_3'> +1.6528905e-04 </wgt>
<wgt id='morphing_basis_vector_4'> +7.4149900e-05 </wgt>
<wgt id='morphing_basis_vector_5'> +1.4359696e-04 </wgt>
</rwgt>
</event>
<event>
 4      1 +1.4786900e-06 1.04684300e+03 7.81860800e-03 8.64105900e-02
        2 -1    0    0  501    0 +0.0000000000e+00 +0.0000000000e+00 +1.4983067801e+03 1.4983067801e+03 0.0000000000e+00 0.0000e+00 -1.0000e+00
       -2 -1    0    0    0  501 -0.0000000000e+00 -0.0000000000e+00 -1.8285309039e+02 1.8285309039e+02 0.0000000000e+00 0.0000e+00 1.0000e+00
      -13  1    1    2    0    0 +2.6906374204e+01 +5.0450587174e+02 +4.3800196911e+02 6.6865226578e+02 0.0000000000e+00 0.0000e+00 1.0000e+00
       13  1    1    2    0    0 -2.6906374204e+01 -5.0450587174e+02 +8.7745172056e+02 1.0125076047e+03 0.0000000000e+00 0.0000e+00 -1.0000e+00
<mgrwt>
<rscale>  0 0.10468429E+04</rscale>
<asrwt>0</asrwt>
<pdfrwt beam="1">  1        2 0.23050873E+00 0.10468429E+04</pdfrwt>
<pdfrwt beam="2">  1       -2 0.28131246E-01 0.10468429E+04</pdfrwt>
<totfact> 0.17534107E+02</totfact>
</mgrwt>
<rwgt>
<wgt id='morphing_basis_vector_1'> +2.7979727e-04 </wgt>
<wgt id='morphing_basis_vector_2'> +1.8473003e-04 </wgt>
<wgt id='morphing_basis_vector_3'> +2.7233560e-04 </wgt>
<wgt id='morphing_basis_vector_4'> +1.6121900e-04 </wgt>
<wgt id='morphing_basis_vector_5'> +2.6414974e-04 </wgt>
</rwgt>
</event>
<event>
 4      1 +1.4786900e-06 9.38251900e+02 7.81860800e-03 8.74553000e-02
        2 -1    0    0  501    0 +0.0000000000e+00 +0.0000000000e+00 +1.5309661781e+03 1.5309661781e+03 0.0000000000e+00 0.0000e+00 1.0000e+00
       -2 -1    0    0    0  501 -0.0000000000e+00 -0.0000000000e+00 -1.4375180260e+02 1.4375180260e+02 0.0000000000e+00 0.0000e+00 -1.0000e+00
      -13  1    1    2    0    0 -4.5266324406e+02 -1.1590314838e+02 +7.6809682945e+02 8.9906078312e+02 0.0000000000e+00 0.0000e+00 -1.0000e+00
       13  1    1    2    0    0 +4.5266324406e+02 +1.1590314838e+02 +6.1911754606e+02 7.7565719758e+02 0.0000000000e+00 0.0000e+00 1.0000e+00
<mgrwt>
<rscale>  0 0.93825188E+03</rscale>
<asrwt>0</asrwt>
<pdfrwt beam="1">  1        2 0.23553325E+00 0.93825188E+03</pdfrwt>
<pdfrwt beam="2">  1       -2 0.22115663E-01 0.93825188E+03</pdfrwt>
<totfact> 0.25619703E+02</totfact>
</mgrwt>
<rwgt>
<wgt id='morphing_basis_vector_1'> +1.9337725e-04 </wgt>
<wgt id='morphing_basis_vector_2'> +1.4149071e-04 </wgt>
<wgt id='morphing_basis_vector_3'> +1.8196253e-04 </wgt>
<wgt id='morphing_basis_vector_4'> +9.0739575e-05 </wgt>
<wgt id='morphing_basis_vector_5'> +1.6350596e-04 </wgt>
</rwgt>
</event>
<event>
 4      1 +1.4786900e-06 1.01337200e+03 7.81860800e-03 8.67180000e-02
        2 -1    0    0  501    0 +0.0000000000e+00 +0.0000000000e+00 +1.6906854899e+03 1.6906854899e+03 0.0000000000e+00 0.0000e+00 1.0000e+00
       -2 -1    0    0    0  501 -0.0000000000e+00 -0.0000000000e+00 -1.5185021074e+02 1.5185021074e+02 0.0000000000e+00 0.0000e+00 -1.0000e+00
      -13  1    1    2    0    0 +3.9930841088e+02 -2.0516740141e+02 +1.1965645887e+03 1.2780092662e+03 0.0000000000e+00 0.0000e+00 -1.0000e+00
       13  1    1    2    0    0 -3.9930841088e+02 +2.0516740141e+02 +3.4227069047e+02 5.6452643442e+02 0.0000000000e+00 0.0000e+00 1.0000e+00
<mgrwt>
<rscale>  0 0.10133725E+04</rscale>
<asrwt>0</asrwt>
<pdfrwt beam="1">  1        2 0.26010545E+00 0.10133725E+04</pdfrwt>
<pdfrwt beam="2">  1       -2 0.23361572E-01 0.10133725E+04</pdfrwt>
<totfact> 0.18950723E+02</totfact>
</mgrwt>
<rwgt>
<wgt id='morphing_basis_vector_1'> +2.8483938e-04 </wgt>
<wgt id='morphing_basis_vector_2'> +2.7450474e-04 </wgt>
<wgt id='morphing_basis_vector_3'> +2.7422549e-04 </wgt>
<wgt id='morphing_basis_vector_4'> +8.2798291e-05 </wgt>
<wgt id='morphing_basis_vector_5'> +2.2608420e-04 </wgt>
</rwgt>
</event>
<event>
 4      1 +1.4786900e-06 1.04813500e+03 7.81860800e-03 8.63989600e-02
        2 -1    0    0  501    0 +0.0000000000e+00 +0.0000000000e+00 +2.0114548369e+03 2.0114548369e+03 0.0000000000e+00 0.0000e+00 -1.0000e+00
       -2 -1    0    0    0  501 -0.0000000000e+00 -0.0000000000e+00 -1.3654145194e+02 1.3654145194e+02 0.0000000000e+00 0.0000e+00 1.0000e+00
      -13  1    1    2    0    0 -3.8013847367e+02 +3.6071762995e+02 +9.2731370881e+02 1.0651446767e+03 0.0000000000e+00 0.0000e+00 1.0000e+00
       13  1    1    2    0    0 +3.8013847367e+02 -3.6071762995e+02 +9.4759967618e+02 1.0828516122e+03 0.0000000000e+00 0.0000e+00 -1.0000e+00
<mgrwt>
<rscale>  0 0.10481354E+04</rscale>
<asrwt>0</asrwt>
<pdfrwt beam="1">  1        2 0.30945457E+00 0.10481354E+04</pdfrwt>
<pdfrwt beam="2">  1       -2 0.21006379E-01 0.10481354E+04</pdfrwt>
<totfact> 0.15025579E+02</totfact>
</mgrwt>
<rwgt>
<wgt id='morphing_basis_vector_1'> +2.8705269e-04 </wgt>
<wgt id='morphing_basis_vector_2'> +2.0364078e-04 </wgt>
<wgt id='morphing_basis_vector_3'> +2.7956525e-04 </wgt>
<wgt id='morphing_basis_vector_4'> +1.5256373e-04 </wgt>
<wgt id='morphing_basis_vector_5'> +2.6496793e-04 </wgt>
</rwgt>
</event>
<event>
 4      1 +1.4786900e-06 1.06124300e+03 7.81860800e-03 8.62819700e-02
        2 -1    0    0  501    0 +0.0000000000e+00 +0.0000000000e+00 +5.6404028724e+02 5.6404028724e+02 0.0000000000e+00 0.0000e+00 1.0000e+00
       -2 -1    0    0    0  501 -0.0000000000e+00 -0.0000000000e+00 -4.9918257449e+02 4.9918257449e+02 0.0000000000e+00 0.0000e+00 -1.0000e+00
      -13  1    1    2    0    0 -2.4628873184e+02 -3.7112119237e+01 -4.3697881350e+02 5.0297706933e+02 0.0000000000e+00 0.0000e+00 -1.0000e+00
       13  1    1    2    0    0 +2.4628873184e+02 +3.7112119237e+01 +5.0183652625e+02 5.6024579240e+02 0.0000000000e+00 0.0000e+00 1.0000e+00
<mgrwt>
<rscale>  0 0.10612428E+04</rscale>
<asrwt>0</asrwt>
<pdfrwt beam="1">  1        2 0.86775429E-01 0.10612428E+04</pdfrwt>
<pdfrwt beam="2">  1       -2 0.76797319E-01 0.10612428E+04</pdfrwt>
<totfact> 0.10021148E+02</totfact>
</mgrwt>
<rwgt>
<wgt id='morphing_basis_vector_1'> +2.9062714e-04 </wgt>
<wgt id='morphing_basis_vector_2'> +1.8331614e-04 </wgt>
<wgt id='morphing_basis_vector_3'> +2.8374501e-04 </wgt>
<wgt id='morphing_basis_vector_4'> +1.7699072e-04 </wgt>
<wgt id='morphing_basis_vector_5'> +2.8053235e-04 </wgt>
</rwgt>
</event>
<event>
 4      1 +1.4786900e-06 1.03216500e+03 7.81860800e-03 8.65439200e-02
        2 -1    0    0  501    0 +0.0000000000e+00 +0.0000000000e+00 +5.1768629385e+02 5.1768629385e+02 0.0000000000e+00 0.0000e+00 -1.0000e+00
       -2 -1    0    0    0  501 -0.0000000000e+00 -0.0000000000e+00 -5.1448319305e+02 5.1448319305e+02 0.0000000000e+00 0.0000e+00 1.0000e+00
      -13  1    1    2    0    0 +4.6738599654e+02 -3.3870247670e+01 -2.1460317707e+02 5.1541380176e+02 0.0000000000e+00 0.0000e+00 1.0000e+00
       13  1    1    2    0    0 -4.6738599654e+02 +3.3870247670e+01 +2.1780627787e+02 5.1675568514e+02 0.0000000000e+00 0.0000e+00 -1.0000e+00
<mgrwt>
<rscale>  0 0.10321645E+04</rscale>
<asrwt>0</asrwt>
<pdfrwt beam="1">  1        2 0.79644045E-01 0.10321645E+04</pdfrwt>
<pdfrwt beam="2">  1       -2 0.79151261E-01 0.10321645E+04</pdfrwt>
<totfact> 0.10362331E+02</totfact>
</mgrwt>
<rwgt>
<wgt id='morphing_basis_vector_1'> +2.6376491e-04 </wgt>
<wgt id='morphing_basis_vector_2'> +1.6974346e-04 </wgt>
<wgt id='morphing_basis_vector_3'> +2.5581096e-04 </wgt>
<wgt id='morphing_basis_vector_4'> +1.5446711e-04 </wgt>
<wgt id='morphing_basis_vector_5'> +2.4870362e-04 </wgt>
</rwgt>
</event>
<event>
 4      1 +1.4786900e-06 1.02804400e+03 7.81860800e-03 8.65817500e-02
        2 -1    0    0  501    0 +0.0000000000e+00 +0.0000000000e+00 +4.5499081232e+02 4.5499081232e+02 0.0000000000e+00 0.0000e+00 1.0000e+00
       -2 -1    0    0    0  501 -0.0000000000e+00 -0.0000000000e+00 -5.8071241201e+02 5.8071241201e+02 0.0000000000e+00 0.0000e+00 -1.0000e+00
      -13  1    1    2    0    0 +3.8707672152e+02 -4.5177874024e+01 -4.0054349972e+02 5.5884212781e+02 0.0000000000e+00 0.0000e+00 -1.0000e+00
       13  1    1    2    0    0 -3.8707672152e+02 +4.5177874024e+01 +2.7482190004e+02 4.7686109653e+02 0.0000000000e+00 0.0000e+00 1.0000e+00
<mgrwt>
<rscale>  0 0.10280444E+04</rscale>
<asrwt>0</asrwt>
<pdfrwt beam="1">  1        2 0.69998586E-01 0.10280444E+04</pdfrwt>
<pdfrwt beam="2">  1       -2 0.89340371E-01 0.10280444E+04</pdfrwt>
<totfact> 0.90954641E+01</totfact>
</mgrwt>
<rwgt>
<wgt id='morphing_basis_vector_1'> +2.5864257e-04 </wgt>
<wgt id='morphing_basis_vector_2'> +1.6341481e-04 </wgt>
<wgt id='morphing_basis_vector_3'> +2.5059643e-04 </wgt>
<wgt id='morphing_basis_vector_4'> +1.5377939e-04 </wgt>
<wgt id='morphing_basis_vector_5'> +2.4456057e-04 </wgt>
</rwgt>
</event>
<event>
 4      1 +1.4786900e-06 9.25471900e+02 7.81860800e-03 8.75879100e-02
        2 -1    0    0  501    0 +0.0000000000e+00 +0.0000000000e+00 +1.7856069392e+03 1.7856069392e+03 0.0000000000e+00 0.0000e+00 1.0000e+00
       -2 -1    0    0    0  501 -0.0000000000e+00 -0.0000000000e+00 -1.1991695783e+02 1.1991695783e+02 0.0000000000e+00 0.0000e+00 -1.0000e+00
      -13  1    1    2    0    0 -3.7819273239e+02 +9.7123581328e+01 +1.3441256173e+03 1.3996915403e+03 0.0000000000e+00 0.0000e+00 -1.0000e+00
       13  1    1    2    0    0 +3.7819273239e+02 -9.7123581328e+01 +3.2156436406e+02 5.0583235674e+02 0.0000000000e+00 0.0000e+00 1.0000e+00
<mgrwt>
<rscale>  0 0.92547188E+03</rscale>
<asrwt>0</asrwt>
<pdfrwt beam="1">  1        2 0.27470874E+00 0.92547188E+03</pdfrwt>
<pdfrwt beam="2">  1       -2 0.18448764E-01 0.92547188E+03</pdfrwt>
<totfact> 0.25130448E+02</totfact>
</mgrwt>
<rwgt>
<wgt id='morphing_basis_vector_1'> +2.1016346e-04 </wgt>
<wgt id='morphing_basis_vector_2'> +2.1409822e-04 </wgt>
<wgt id='morphing_basis_vector_3'> +1.9390472e-04 </wgt>
<wgt id='morphing_basis_vector_4'> +4.7273664e-05 </wgt>
<wgt id='morphing_basis_vector_5'> +1.5184799e-04 </wgt>
</rwgt>
</event>
<event>
 4      1 +1.4786900e-06 9.26222000e+02 7.81860800e-03 8.75800600e-02
        2 -1    0    0  501    0 +0.0000000000e+00 +0.0000000000e+00 +1.4709635637e+03 1.4709635637e+03 0.0000000000e+00 0.0000e+00 1.0000e+00
       -2 -1    0    0    0  501 -0.0000000000e+00 -0.0000000000e+00 -1.4580361361e+02 1.4580361361e+02 0.0000000000e+00 0.0000e+00 -1.0000e+00
      -13  1    1    2    0    0 -3.8806707124e+02 -6.7528237891e+01 +2.3745445704e+02 4.5993557578e+02 0.0000000000e+00 0.0000e+00 -1.0000e+00
       13  1    1    2    0    0 +3.8806707124e+02 +6.7528237891e+01 +1.0877054930e+03 1.1568316015e+03 0.0000000000e+00 0.0000e+00 1.0000e+00
<mgrwt>
<rscale>  0 0.92622201E+03</rscale>
<asrwt>0</asrwt>
<pdfrwt beam="1">  1        2 0.22630208E+00 0.92622201E+03</pdfrwt>
<pdfrwt beam="2">  1       -2 0.22431326E-01 0.92622201E+03</pdfrwt>
<totfact> 0.27030211E+02</totfact>
</mgrwt>
<rwgt>
<wgt id='morphing_basis_vector_1'> +1.7654437e-04 </wgt>
<wgt id='morphing_basis_vector_2'> +1.1066987e-04 </wgt>
<wgt id='morphing_basis_vector_3'> +1.6625754e-04 </wgt>
<wgt id='morphing_basis_vector_4'> +9.7338950e-05 </wgt>
<wgt id='morphing_basis_vector_5'> +1.5512510e-04 </wgt>
</rwgt>
</event>
<event>
 4      1 +1.4786900e-06 9.19897700e+02 7.81860800e-03 8.76464500e-02
        2 -1    0    0  501    0 +0.0000000000e+00 +0.0000000000e+00 +8.7309826376e+02 8.7309826376e+02 0.0000000000e+00 0.0000e+00 -1.0000e+00
       -2 -1    0    0    0  501 -0.0000000000e+00 -0.0000000000e+00 -2.4230140030e+02 2.4230140030e+02 0.0000000000e+00 0.0000e+00 1.0000e+00
      -13  1    1    2    0    0 +1.6658167249e+02 +7.5139380390e+01 -1.9639311394e+02 2.6826411481e+02 0.0000000000e+00 0.0000e+00 1.0000e+00
       13  1    1    2    0    0 -1.6658167249e+02 -7.5139380390e+01 +8.2718997739e+02 8.4713554924e+02 0.0000000000e+00 0.0000e+00 -1.0000e+00
<mgrwt>
<rscale>  0 0.91989767E+03</rscale>
<asrwt>0</asrwt>
<pdfrwt beam="1">  1        2 0.13432281E+00 0.91989767E+03</pdfrwt>
<pdfrwt beam="2">  1       -2 0.37277139E-01 0.91989767E+03</pdfrwt>
<totfact> 0.25050383E+02</totfact>
</mgrwt>
<rwgt>
<wgt id='morphing_basis_vector_1'> +1.7155433e-04 </wgt>
<wgt id='morphing_basis_vector_2'> +1.0589560e-04 </wgt>
<wgt id='morphing_basis_vector_3'> +1.6130743e-04 </wgt>
<wgt id='morphing_basis_vector_4'> +9.5384011e-05 </wgt>
<wgt id='morphing_basis_vector_5'> +1.5055928e-04 </wgt>
</rwgt>
</event>
<event>
 4      1 +1.4786900e-06 1.02667500e+03 7.81860800e-03 8.65943700e-02
        2 -1    0    0  501    0 +0.0000000000e+00 +0.0000000000e+00 +2.7917787112e+02 2.7917787112e+02 0.0000000000e+00 0.0000e+00 1.0000e+00
       -2 -1    0    0    0  501 -0.0000000000e+00 -0.0000000000e+00 -9.4389720452e+02 9.4389720452e+02 0.0000000000e+00 0.0000e+00 -1.0000e+00
      -13  1    1    2    0    0 +2.2021122521e+02 -9.1085262445e+01 -8.7400812825e+02 9.0591374699e+02 0.0000000000e+00 0.0000e+00 -1.0000e+00
       13  1    1    2    0    0 -2.2021122521e+02 +9.1085262445e+01 +2.0928879485e+02 3.1716132865e+02 0.0000000000e+00 0.0000e+00 1.0000e+00
<mgrwt>
<rscale>  0 0.10266747E+04</rscale>
<asrwt>0</asrwt>
<pdfrwt beam="1">  1        2 0.42950441E-01 0.10266747E+04</pdfrwt>
<pdfrwt beam="2">  1       -2 0.14521496E+00 0.10266747E+04</pdfrwt>
<totfact> 0.45746806E+01</totfact>
</mgrwt>
<rwgt>
<wgt id='morphing_basis_vector_1'> +2.5695385e-04 </wgt>
<wgt id='morphing_basis_vector_2'> +1.6133049e-04 </wgt>
<wgt id='morphing_basis_vector_3'> +2.4888040e-04 </wgt>
<wgt id='morphing_basis_vector_4'> +1.5354898e-04 </wgt>
<wgt id='morphing_basis_vector_5'> +2.4319439e-04 </wgt>
</rwgt>
</event>
<event>
 4      1 +1.4786900e-06 9.41936600e+02 7.81860800e-03 8.74174800e-02
        2 -1    0    0  501    0 +0.0000000000e+00 +0.0000000000e+00 +1.3047650113e+03 1.3047650113e+03 0.0000000000e+00 0.0000e+00 1.0000e+00
       -2 -1    0    0    0  501 -0.0000000000e+00 -0.0000000000e+00 -1.7000082832e+02 1.7000082832e+02 0.0000000000e+00 0.0000e+00 -1.0000e+00
      -13  1    1    2    0    0 +3.3534060996e+02 +1.3976993416e+02 +9.8144081990e+01 3.7632594916e+02 0.0000000000e+00 0.0000e+00 -1.0000e+00
       13  1    1    2    0    0 -3.3534060996e+02 -1.3976993416e+02 +1.0366201010e+03 1.0984398904e+03 0.0000000000e+00 0.0000e+00 1.0000e+00
<mgrwt>
<rscale>  0 0.94193659E+03</rscale>
<asrwt>0</asrwt>
<pdfrwt beam="1">  1        2 0.20073307E+00 0.94193659E+03</pdfrwt>
<pdfrwt beam="2">  1       -2 0.26153974E-01 0.94193659E+03</pdfrwt>
<totfact> 0.25752325E+02</totfact>
</mgrwt>
<rwgt>
<wgt id='morphing_basis_vector_1'> +1.8739732e-04 </wgt>
<wgt id='morphing_basis_vector_2'> +1.1695943e-04 </wgt>
<wgt id='morphing_basis_vector_3'> +1.7737980e-04 </wgt>
<wgt id='morphing_basis_vector_4'> +1.0525903e-04 </wgt>
<wgt id='morphing_basis_vector_5'> +1.6706737e-04 </wgt>
</rwgt>
</event>
<event>
 4      1 +1.4786900e-06 9.20010400e+02 7.81860800e-03 8.76452600e-02
        2 -1    0    0  501    0 +0.0000000000e+00 +0.0000000000e+00 +1.5900247486e+02 1.5900247486e+02 0.0000000000e+00 0.0000e+00 -1.0000e+00
       -2 -1    0    0    0  501 -0.0000000000e+00 -0.0000000000e+00 -1.3308269533e+03 1.3308269533e+03 0.0000000000e+00 0.0000e+00 1.0000e+00
      -13  1    1    2    0    0 +4.5987574575e+02 +6.8381185026e-01 -6.0354842191e+02 7.5878644342e+02 0.0000000000e+00 0.0000e+00 1.0000e+00
       13  1    1    2    0    0 -4.5987574575e+02 -6.8381185026e-01 -5.6827605655e+02 7.3104298477e+02 0.0000000000e+00 0.0000e+00 -1.0000e+00
<mgrwt>
<rscale>  0 0.92001039E+03</rscale>
<asrwt>0</asrwt>
<pdfrwt beam="1">  1        2 0.24461919E-01 0.92001039E+03</pdfrwt>
<pdfrwt beam="2">  1       -2 0.20474261E+00 0.92001039E+03</pdfrwt>
<totfact> 0.30616307E+01</totfact>
</mgrwt>
<rwgt>
<wgt id='morphing_basis_vector_1'> +1.7721975e-04 </wgt>
<wgt id='morphing_basis_vector_2'> +1.2293717e-04 </wgt>
<wgt id='morphing_basis_vector_3'> +1.6595082e-04 </wgt>
<wgt id='morphing_basis_vector_4'> +8.7335771e-05 </wgt>
<wgt id='morphing_basis_vector_5'> +1.5020019e-04 </wgt>
</rwgt>
</event>
<event>
 4      1 +1.4786900e-06 1.05596200e+03 7.81860800e-03 8.63288900e-02
        2 -1    0    0  501    0 +0.0000000000e+00 +0.0000000000e+00 +1.9680184311e+03 1.9680184311e+03 0.0000000000e+00 0.0000e+00 1.0000e+00
       -2 -1    0    0    0  501 -0.0000000000e+00 -0.0000000000e+00 -1.4164705780e+02 1.4164705780e+02 0.0000000000e+00 0.0000e+00 -1.0000e+00
      -13  1    1    2    0    0 -3.7110111434e+02 +2.3133157222e+02 +3.2209671813e+02 5.4311750957e+02 0.0000000000e+00 0.0000e+00 -1.0000e+00
       13  1    1    2    0    0 +3.7110111434e+02 -2.3133157222e+02 +1.5042746552e+03 1.5665479794e+03 0.0000000000e+00 0.0000e+00 1.0000e+00
<mgrwt>
<rscale>  0 0.10559622E+04</rscale>
<asrwt>0</asrwt>
<pdfrwt beam="1">  1        2 0.30277205E+00 0.10559622E+04</pdfrwt>
<pdfrwt beam="2">  1       -2 0.21791856E-01 0.10559622E+04</pdfrwt>
<totfact> 0.14924841E+02</totfact>
</mgrwt>
<rwgt>
<wgt id='morphing_basis_vector_1'> +2.8612416e-04 </wgt>
<wgt id='morphing_basis_vector_2'> +1.8238159e-04 </wgt>
<wgt id='morphing_basis_vector_3'> +2.7903935e-04 </wgt>
<wgt id='morphing_basis_vector_4'> +1.7189129e-04 </wgt>
<wgt id='morphing_basis_vector_5'> +2.7448928e-04 </wgt>
</rwgt>
</event>
<event>
 4      1 +1.4786900e-06 1.04778100e+03 7.81860800e-03 8.64021400e-02
        2 -1    0    0  501    0 +0.0000000000e+00 +0.0000000000e+00 +4.0366255145e+02 4.0366255145e+02 0.0000000000e+00 0.0000e+00 -1.0000e+00
       -2 -1    0    0    0  501 -0.0000000000e+00 -0.0000000000e+00 -6.7992785189e+02 6.7992785189e+02 0.0000000000e+00 0.0000e+00 1.0000e+00
      -13  1    1    2    0    0 -3.3428405299e+02 +6.2370614353e+01 -5.5028199141e+02 6.4687416991e+02 0.0000000000e+00 0.0000e+00 1.0000e+00
       13  1    1    2    0    0 +3.3428405299e+02 -6.2370614353e+01 +2.7401669097e+02 4.3671623344e+02 0.0000000000e+00 0.0000e+00 -1.0000e+00
<mgrwt>
<rscale>  0 0.10477813E+04</rscale>
<asrwt>0</asrwt>
<pdfrwt beam="1">  1        2 0.62101932E-01 0.10477813E+04</pdfrwt>
<pdfrwt beam="2">  1       -2 0.10460428E+00 0.10477813E+04</pdfrwt>
<totfact> 0.71379735E+01</totfact>
</mgrwt>
<rwgt>
<wgt id='morphing_basis_vector_1'> +2.7729543e-04 </wgt>
<wgt id='morphing_basis_vector_2'> +1.7498625e-04 </wgt>
<wgt id='morphing_basis_vector_3'> +2.6991574e-04 </wgt>
<wgt id='morphing_basis_vector_4'> +1.6731364e-04 </wgt>
<wgt id='morphing_basis_vector_5'> +2.6551129e-04 </wgt>
</rwgt>
</event>
<event>
 4      1 +1.4786900e-06 1.02217900e+03 7.81860800e-03 8.66359400e-02
        2 -1    0    0  501    0 +0.0000000000e+00 +0.0000000000e+00 +4.7258256882e+02 4.7258256882e+02 0.0000000000e+00 0.0000e+00 -1.0000e+00
       -2 -1    0    0    0  501 -0.0000000000e+00 -0.0000000000e+00 -5.5273389995e+02 5.5273389995e+02 0.0000000000e+00 0.0000e+00 1.0000e+00
      -13  1    1    2    0    0 +4.9704751432e+02 -4.9557302788e+01 +6.8424045480e+01 5.0417656406e+02 0.0000000000e+00 0.0000e+00 1.0000e+00
       13  1    1    2    0    0 -4.9704751432e+02 +4.9557302788e+01 -1.4857537660e+02 5.2113990471e+02 0.0000000000e+00 0.0000e+00 -1.0000e+00
<mgrwt>
<rscale>  0 0.10221789E+04</rscale>
<asrwt>0</asrwt>
<pdfrwt beam="1">  1        2 0.72705011E-01 0.10221789E+04</pdfrwt>
<pdfrwt beam="2">  1       -2 0.85035984E-01 0.10221789E+04</pdfrwt>
<totfact> 0.97730493E+01</totfact>
</mgrwt>
<rwgt>
<wgt id='morphing_basis_vector_1'> +2.7163542e-04 </wgt>
<wgt id='morphing_basis_vector_2'> +2.1558451e-04 </wgt>
<wgt id='morphing_basis_vector_3'> +2.6261559e-04 </wgt>
<wgt id='morphing_basis_vector_4'> +1.2115403e-04 </wgt>
<wgt id='morphing_basis_vector_5'> +2.3682698e-04 </wgt>
</rwgt>
</event>
<event>
 4      1 +1.4786900e-06 9.26758600e+02 7.81860800e-03 8.75744600e-02
        2 -1    0    0  501    0 +0.0000000000e+00 +0.0000000000e+00 +1.3722569872e+03 1.3722569872e+03 0.0000000000e+00 0.0000e+00 -1.0000e+00
       -2 -1    0    0    0  501 -0.0000000000e+00 -0.0000000000e+00 -1.5647243192e+02 1.5647243192e+02 0.0000000000e+00 0.0000e+00 1.0000e+00
      -13  1    1    2    0    0 +3.3468239754e+02 +2.0549012490e+02 +2.0221875744e+02 4.4173626127e+02 0.0000000000e+00 0.0000e+00 1.0000e+00
       13  1    1    2    0    0 -3.3468239754e+02 -2.0549012490e+02 +1.0135657978e+03 1.0869931579e+03 0.0000000000e+00 0.0000e+00 -1.0000e+00
<mgrwt>
<rscale>  0 0.92675863E+03</rscale>
<asrwt>0</asrwt>
<pdfrwt beam="1">  1        2 0.21111645E+00 0.92675863E+03</pdfrwt>
<pdfrwt beam="2">  1       -2 0.24072683E-01 0.92675863E+03</pdfrwt>
<totfact> 0.27224341E+02</totfact>
</mgrwt>
<rwgt>
<wgt id='morphing_basis_vector_1'> +1.7690053e-04 </wgt>
<wgt id='morphing_basis_vector_2'> +1.1086136e-04 </wgt>
<wgt id='morphing_basis_vector_3'> +1.6662347e-04 </wgt>
<wgt id='morphing_basis_vector_4'> +9.7610958e-05 </wgt>
<wgt id='morphing_basis_vector_5'> +1.5552281e-04 </wgt>
</rwgt>
</event>
<event>
 4      1 +1.4786900e-06 1.03857900e+03 7.81860800e-03 8.64853700e-02
        2 -1    0    0  501    0 +0.0000000000e+00 +0.0000000000e+00 +1.9189910082e+03 1.9189910082e+03 0.0000000000e+00 0.0000e+00 -1.0000e+00
       -2 -1    0    0    0  501 -0.0000000000e+00 -0.0000000000e+00 -1.4052259455e+02 1.4052259455e+02 0.0000000000e+00 0.0000e+00 1.0000e+00
      -13  1    1    2    0    0 -3.6631535166e+02 +2.3585078875e+02 +3.2888335813e+02 5.4587250771e+02 0.0000000000e+00 0.0000e+00 1.0000e+00
       13  1    1    2    0    0 +3.6631535166e+02 -2.3585078875e+02 +1.4495850555e+03 1.5136410951e+03 0.0000000000e+00 0.0000e+00 -1.0000e+00
<mgrwt>
<rscale>  0 0.10385790E+04</rscale>
<asrwt>0</asrwt>
<pdfrwt beam="1">  1        2 0.29522937E+00 0.10385790E+04</pdfrwt>
<pdfrwt beam="2">  1       -2 0.21618862E-01 0.10385790E+04</pdfrwt>
<totfact> 0.16128537E+02</totfact>
</mgrwt>
<rwgt>
<wgt id='morphing_basis_vector_1'> +2.6907077e-04 </wgt>
<wgt id='morphing_basis_vector_2'> +1.7131879e-04 </wgt>
<wgt id='morphing_basis_vector_3'> +2.6135704e-04 </wgt>
<wgt id='morphing_basis_vector_4'> +1.5995331e-04 </wgt>
<wgt id='morphing_basis_vector_5'> +2.5552790e-04 </wgt>
</rwgt>
</event>
<event>
 4      1 +1.4786900e-06 9.53954800e+02 7.81860800e-03 8.72953700e-02
        2 -1    0    0  501    0 +0.0000000000e+00 +0.0000000000e+00 +2.7461595803e+03 2.7461595803e+03 0.0000000000e+00 0.0000e+00 -1.0000e+00
       -2 -1    0    0    0  501 -0.0000000000e+00 -0.0000000000e+00 -8.2845666339e+01 8.2845666339e+01 0.0000000000e+00 0.0000e+00 1.0000e+00
      -13  1    1    2    0    0 +4.7494540876e+02 +6.4650531371e+00 +1.4606665075e+03 1.5359562443e+03 0.0000000000e+00 0.0000e+00 1.0000e+00
       13  1    1    2    0    0 -4.7494540876e+02 -6.4650531371e+00 +1.2026474064e+03 1.2930490023e+03 0.0000000000e+00 0.0000e+00 -1.0000e+00
<mgrwt>
<rscale>  0 0.95395476E+03</rscale>
<asrwt>0</asrwt>
<pdfrwt beam="1">  1        2 0.42248602E+00 0.95395476E+03</pdfrwt>
<pdfrwt beam="2">  1       -2 0.12745489E-01 0.95395476E+03</pdfrwt>
<totfact> 0.12868155E+02</totfact>
</mgrwt>
<rwgt>
<wgt id='morphing_basis_vector_1'> +2.0558222e-04 </wgt>
<wgt id='morphing_basis_vector_2'> +1.5091165e-04 </wgt>
<wgt id='morphing_basis_vector_3'> +1.9452750e-04 </wgt>
<wgt id='morphing_basis_vector_4'> +9.7392147e-05 </wgt>
<wgt id='morphing_basis_vector_5'> +1.7583429e-04 </wgt>
</rwgt>
</event>
<event>
 4      1 +1.4786900e-06 1.01070300e+03 7.81860800e-03 8.67430600e-02
        2 -1    0    0  501    0 +0.0000000000e+00 +0.0000000000e+00 +1.2912653291e+02 1.2912653291e+02 0.0000000000e+00 0.0000e+00 1.0000e+00
       -2 -1    0    0    0  501 -0.0000000000e+00 -0.0000000000e+00 -1.9777491785e+03 1.9777491785e+03 0.0000000000e+00 0.0000e+00 -1.0000e+00
      -13  1    1    2    0    0 -1.8900253956e+02 -3.2217986365e+02 -1.6338543131e+03 1.6760076792e+03 0.0000000000e+00 0.0000e+00 -1.0000e+00
       13  1    1    2    0    0 +1.8900253956e+02 +3.2217986365e+02 -2.1476833252e+02 4.3086803218e+02 0.0000000000e+00 0.0000e+00 1.0000e+00
<mgrwt>
<rscale>  0 0.10107025E+04</rscale>
<asrwt>0</asrwt>
<pdfrwt beam="1">  1        2 0.19865619E-01 0.10107025E+04</pdfrwt>
<pdfrwt beam="2">  1       -2 0.30426912E+00 0.10107025E+04</pdfrwt>
<totfact> 0.80047751E+00</totfact>
</mgrwt>
<rwgt>
<wgt id='morphing_basis_vector_1'> +2.4277951e-04 </wgt>
<wgt id='morphing_basis_vector_2'> +1.5287862e-04 </wgt>
<wgt id='morphing_basis_vector_3'> +2.3422366e-04 </wgt>
<wgt id='morphing_basis_vector_4'> +1.4301314e-04 </wgt>
<wgt id='morphing_basis_vector_5'> +2.2720093e-04 </wgt>
</rwgt>
</event>
<event>
 4      1 +1.4786900e-06 9.23555200e+02 7.81860800e-03 8.76079900e-02
        2 -1    0    0  501    0 +0.0000000000e+00 +0.0000000000e+00 +1.4737729960e+03 1.4737729960e+03 0.0000000000e+00 0.0000e+00 -1.0000e+00
       -2 -1    0    0    0  501 -0.0000000000e+00 -0.0000000000e+00 -1.4468886387e+02 1.4468886387e+02 0.0000000000e+00 0.0000e+00 1.0000e+00
      -13  1    1    2    0    0 -3.6565618224e+02 +2.4547711055e+02 +4.2124449461e+02 6.0943447528e+02 0.0000000000e+00 0.0000e+00 1.0000e+00
       13  1    1    2    0    0 +3.6565618224e+02 -2.4547711055e+02 +9.0783963750e+02 1.0090273846e+03 0.0000000000e+00 0.0000e+00 -1.0000e+00
<mgrwt>
<rscale>  0 0.92355518E+03</rscale>
<asrwt>0</asrwt>
<pdfrwt beam="1">  1        2 0.22673430E+00 0.92355518E+03</pdfrwt>
<pdfrwt beam="2">  1       -2 0.22259826E-01 0.92355518E+03</pdfrwt>
<totfact> 0.27289678E+02</totfact>
</mgrwt>
<rwgt>
<wgt id='morphing_basis_vector_1'> +1.7596452e-04 </wgt>
<wgt id='morphing_basis_vector_2'> +1.1331482e-04 </wgt>
<wgt id='morphing_basis_vector_3'> +1.6541967e-04 </wgt>
<wgt id='morphing_basis_vector_4'> +9.4277043e-05 </wgt>
<wgt id='morphing_basis_vector_5'> +1.5306567e-04 </wgt>
</rwgt>
</event>
<event>
 4      1 +1.4786900e-06 9.48571100e+02 7.81860800e-03 8.73498400e-02
        2 -1    0    0  501    0 +0.0000000000e+00 +0.0000000000e+00 +1.9640442391e+02 1.9640442391e+02 0.0000000000e+00 0.0000e+00 1.0000e+00
       -2 -1    0    0    0  501 -0.0000000000e+00 -0.0000000000e+00 -1.1453244019e+03 1.1453244019e+03 0.0000000000e+00 0.0000e+00 -1.0000e+00
      -13  1    1    2    0    0 -3.0658759018e+02 -2.1714634042e+02 -8.8392090897e+02 9.6045023657e+02 0.0000000000e+00 0.0000e+00 -1.0000e+00
       13  1    1    2    0    0 +3.0658759018e+02 +2.1714634042e+02 -6.4999068976e+01 3.8127858919e+02 0.0000000000e+00 0.0000e+00 1.0000e+00
<mgrwt>
<rscale>  0 0.94857109E+03</rscale>
<asrwt>0</asrwt>
<pdfrwt beam="1">  1        2 0.30216065E-01 0.94857109E+03</pdfrwt>
<pdfrwt beam="2">  1       -2 0.17620376E+00 0.94857109E+03</pdfrwt>
<totfact> 0.38859449E+01</totfact>
</mgrwt>
<rwgt>
<wgt id='morphing_basis_vector_1'> +1.9234496e-04 </wgt>
<wgt id='morphing_basis_vector_2'> +1.2034462e-04 </wgt>
<wgt id='morphing_basis_vector_3'> +1.8242048e-04 </wgt>
<wgt id='morphing_basis_vector_4'> +1.0842436e-04 </wgt>
<wgt id='morphing_basis_vector_5'> +1.7228724e-04 </wgt>
</rwgt>
</event>
<event>
 4      1 +1.4786900e-06 9.34742300e+02 7.81860800e-03 8.74915000e-02
        2 -1    0    0  501    0 +0.0000000000e+00 +0.0000000000e+00 +1.1614418743e+03 1.1614418743e+03 0.0000000000e+00 0.0000e+00 -1.0000e+00
       -2 -1    0    0    0  501 -0.0000000000e+00 -0.0000000000e+00 -1.8807294038e+02 1.8807294038e+02 0.0000000000e+00 0.0000e+00 1.0000e+00
      -13  1    1    2    0    0 -3.3989640250e+02 +2.5761618546e+02 +2.1070880890e+02 4.7570354801e+02 0.0000000000e+00 0.0000e+00 1.0000e+00
       13  1    1    2    0    0 +3.3989640250e+02 -2.5761618546e+02 +7.6266012507e+02 8.7381126671e+02 0.0000000000e+00 0.0000e+00 -1.0000e+00
<mgrwt>
<rscale>  0 0.93474229E+03</rscale>
<asrwt>0</asrwt>
<pdfrwt beam="1">  1        2 0.17868336E+00 0.93474229E+03</pdfrwt>
<pdfrwt beam="2">  1       -2 0.28934299E-01 0.93474229E+03</pdfrwt>
<totfact> 0.26139720E+02</totfact>
</mgrwt>
<rwgt>
<wgt id='morphing_basis_vector_1'> +1.8310148e-04 </wgt>
<wgt id='morphing_basis_vector_2'> +1.1627966e-04 </wgt>
<wgt id='morphing_basis_vector_3'> +1.7283882e-04 </wgt>
<wgt id='morphing_basis_vector_4'> +1.0049710e-04 </wgt>
<wgt id='morphing_basis_vector_5'> +1.6146006e-04 </wgt>
</rwgt>
</event>
<event>
 4      1 +1.4786900e-06 9.57575400e+02 7.81860800e-03 8.72589400e-02
        2 -1    0    0  501    0 +0.0000000000e+00 +0.0000000000e+00 +1.8237147611e+02 1.8237147611e+02 0.0000000000e+00 0.0000e+00 1.0000e+00
       -2 -1    0    0    0  501 -0.0000000000e+00 -0.0000000000e+00 -1.2569819295e+03 1.2569819295e+03 0.0000000000e+00 0.0000e+00 -1.0000e+00
      -13  1    1    2    0    0 +4.0149387095e+02 +2.0021877870e+02 -7.8861352830e+02 9.0730159527e+02 0.0000000000e+00 0.0000e+00 -1.0000e+00
       13  1    1    2    0    0 -4.0149387095e+02 -2.0021877870e+02 -2.8599692514e+02 5.3205181039e+02 0.0000000000e+00 0.0000e+00 1.0000e+00
<mgrwt>
<rscale>  0 0.95757538E+03</rscale>
<asrwt>0</asrwt>
<pdfrwt beam="1">  1        2 0.28057151E-01 0.95757538E+03</pdfrwt>
<pdfrwt beam="2">  1       -2 0.19338183E+00 0.95757538E+03</pdfrwt>
<totfact> 0.31453979E+01</totfact>
</mgrwt>
<rwgt>
<wgt id='morphing_basis_vector_1'> +2.0045033e-04 </wgt>
<wgt id='morphing_basis_vector_2'> +1.2878886e-04 </wgt>
<wgt id='morphing_basis_vector_3'> +1.9050934e-04 </wgt>
<wgt id='morphing_basis_vector_4'> +1.1098978e-04 </wgt>
<wgt id='morphing_basis_vector_5'> +1.7945512e-04 </wgt>
</rwgt>
</event>
<event>
 4      1 +1.4786900e-06 1.01499200e+03 7.81860800e-03 8.67028500e-02
        2 -1    0    0  501    0 +0.0000000000e+00 +0.0000000000e+00 +2.0566154099e+03 2.0566154099e+03 0.0000000000e+00 0.0000e+00 1.0000e+00
       -2 -1    0    0    0  501 -0.0000000000e+00 -0.0000000000e+00 -1.2523101952e+02 1.2523101952e+02 0.0000000000e+00 0.0000e+00 -1.0000e+00
      -13  1    1    2    0    0 -4.7488860179e+02 +1.6155422890e+01 +5.8252967463e+02 7.5174530502e+02 0.0000000000e+00 0.0000e+00 -1.0000e+00
       13  1    1    2    0    0 +4.7488860179e+02 -1.6155422890e+01 +1.3488547158e+03 1.4301011244e+03 0.0000000000e+00 0.0000e+00 1.0000e+00
<mgrwt>
<rscale>  0 0.10149917E+04</rscale>
<asrwt>0</asrwt>
<pdfrwt beam="1">  1        2 0.31640235E+00 0.10149917E+04</pdfrwt>
<pdfrwt beam="2">  1       -2 0.19266312E-01 0.10149917E+04</pdfrwt>
<totfact> 0.16430697E+02</totfact>
</mgrwt>
<rwgt>
<wgt id='morphing_basis_vector_1'> +2.4844214e-04 </wgt>
<wgt id='morphing_basis_vector_2'> +1.6091451e-04 </wgt>
<wgt id='morphing_basis_vector_3'> +2.3991254e-04 </wgt>
<wgt id='morphing_basis_vector_4'> +1.4279687e-04 </wgt>
<wgt id='morphing_basis_vector_5'> +2.3123719e-04 </wgt>
</rwgt>
</event>
<event>
 4      1 +1.4786900e-06 9.10324000e+02 7.81860800e-03 8.77480100e-02
        2 -1    0    0  501    0 +0.0000000000e+00 +0.0000000000e+00 +4.3148173840e+02 4.3148173840e+02 0.0000000000e+00 0.0000e+00 1.0000e+00
       -2 -1    0    0    0  501 -0.0000000000e+00 -0.0000000000e+00 -4.8014185526e+02 4.8014185526e+02 0.0000000000e+00 0.0000e+00 -1.0000e+00
      -13  1    1    2    0    0 -2.5700654901e+02 +3.4962578569e+02 -1.6193760604e+02 4.6315693291e+02 0.0000000000e+00 0.0000e+00 -1.0000e+00
       13  1    1    2    0    0 +2.5700654901e+02 -3.4962578569e+02 +1.1327748918e+02 4.4846666075e+02 0.0000000000e+00 0.0000e+00 1.0000e+00
<mgrwt>
<rscale>  0 0.91032399E+03</rscale>
<asrwt>0</asrwt>
<pdfrwt beam="1">  1        2 0.66381806E-01 0.91032399E+03</pdfrwt>
<pdfrwt beam="2">  1       -2 0.73867977E-01 0.91032399E+03</pdfrwt>
<totfact> 0.14979764E+02</totfact>
</mgrwt>
<rwgt>
<wgt id='morphing_basis_vector_1'> +1.6694300e-04 </wgt>
<wgt id='morphing_basis_vector_2'> +1.0724114e-04 </wgt>
<wgt id='morphing_basis_vector_3'> +1.5624068e-04 </wgt>
<wgt id='morphing_basis_vector_4'> +8.8525010e-05 </wgt>
<wgt id='morphing_basis_vector_5'> +1.4362133e-04 </wgt>
</rwgt>
</event>
<event>
 4      1 +1.4786900e-06 9.15866500e+02 7.81860800e-03 8.76890600e-02
        2 -1    0    0  501    0 +0.0000000000e+00 +0.0000000000e+00 +7.5349131406e+02 7.5349131406e+02 0.0000000000e+00 0.0000e+00 -1.0000e+00
       -2 -1    0    0    0  501 -0.0000000000e+00 -0.0000000000e+00 -2.7830824710e+02 2.7830824710e+02 0.0000000000e+00 0.0000e+00 1.0000e+00
      -13  1    1    2    0    0 -9.7786057931e+01 +4.4736929763e+02 +2.3894588819e+02 5.1652351260e+02 0.0000000000e+00 0.0000e+00 1.0000e+00
       13  1    1    2    0    0 +9.7786057931e+01 -4.4736929763e+02 +2.3623717878e+02 5.1527604856e+02 0.0000000000e+00 0.0000e+00 -1.0000e+00
<mgrwt>
<rscale>  0 0.91586647E+03</rscale>
<asrwt>0</asrwt>
<pdfrwt beam="1">  1        2 0.11592174E+00 0.91586647E+03</pdfrwt>
<pdfrwt beam="2">  1       -2 0.42816654E-01 0.91586647E+03</pdfrwt>
<totfact> 0.23414814E+02</totfact>
</mgrwt>
<rwgt>
<wgt id='morphing_basis_vector_1'> +1.7487839e-04 </wgt>
<wgt id='morphing_basis_vector_2'> +1.2252984e-04 </wgt>
<wgt id='morphing_basis_vector_3'> +1.6344198e-04 </wgt>
<wgt id='morphing_basis_vector_4'> +8.4837173e-05 </wgt>
<wgt id='morphing_basis_vector_5'> +1.4719643e-04 </wgt>
</rwgt>
</event>
<event>
 4      1 +1.4786900e-06 1.05981800e+03 7.81860800e-03 8.62946000e-02
        2 -1    0    0  501    0 +0.0000000000e+00 +0.0000000000e+00 +7.6411409194e+02 7.6411409194e+02 0.0000000000e+00 0.0000e+00 1.0000e+00
       -2 -1    0    0    0  501 -0.0000000000e+00 -0.0000000000e+00 -3.6748888822e+02 3.6748888822e+02 0.0000000000e+00 0.0000e+00 -1.0000e+00
      -13  1    1    2    0    0 -3.4364755085e+02 +1.4566597811e+02 -2.0331876633e+02 4.2503027789e+02 0.0000000000e+00 0.0000e+00 -1.0000e+00
       13  1    1    2    0    0 +3.4364755085e+02 -1.4566597811e+02 +5.9994397005e+02 7.0657270226e+02 0.0000000000e+00 0.0000e+00 1.0000e+00
<mgrwt>
<rscale>  0 0.10598178E+04</rscale>
<asrwt>0</asrwt>
<pdfrwt beam="1">  1        2 0.11755601E+00 0.10598178E+04</pdfrwt>
<pdfrwt beam="2">  1       -2 0.56536752E-01 0.10598178E+04</pdfrwt>
<totfact> 0.13246954E+02</totfact>
</mgrwt>
<rwgt>
<wgt id='morphing_basis_vector_1'> +2.8946105e-04 </wgt>
<wgt id='morphing_basis_vector_2'> +1.8322973e-04 </wgt>
<wgt id='morphing_basis_vector_3'> +2.8252458e-04 </wgt>
<wgt id='morphing_basis_vector_4'> +1.7551714e-04 </wgt>
<wgt id='morphing_basis_vector_5'> +2.7888654e-04 </wgt>
</rwgt>
</event>
<event>
 4      1 +1.4786900e-06 1.02577600e+03 7.81860800e-03 8.66026700e-02
        2 -1    0    0  501    0 +0.0000000000e+00 +0.0000000000e+00 +2.8687733336e+02 2.8687733336e+02 0.0000000000e+00 0.0000e+00 -1.0000e+00
       -2 -1    0    0    0  501 -0.0000000000e+00 -0.0000000000e+00 -9.1695592631e+02 9.1695592631e+02 0.0000000000e+00 0.0000e+00 1.0000e+00
      -13  1    1    2    0    0 -1.9246187805e+02 +1.1796923268e+02 -8.5551948427e+02 8.8480048730e+02 0.0000000000e+00 0.0000e+00 1.0000e+00
       13  1    1    2    0    0 +1.9246187805e+02 -1.1796923268e+02 +2.2544089132e+02 3.1903277236e+02 0.0000000000e+00 0.0000e+00 -1.0000e+00
<mgrwt>
<rscale>  0 0.10257756E+04</rscale>
<asrwt>0</asrwt>
<pdfrwt beam="1">  1        2 0.44134975E-01 0.10257756E+04</pdfrwt>
<pdfrwt beam="2">  1       -2 0.14107014E+00 0.10257756E+04</pdfrwt>
<totfact> 0.48101910E+01</totfact>
</mgrwt>
<rwgt>
<wgt id='morphing_basis_vector_1'> +2.5611220e-04 </wgt>
<wgt id='morphing_basis_vector_2'> +1.6076309e-04 </wgt>
<wgt id='morphing_basis_vector_3'> +2.4801154e-04 </wgt>
<wgt id='morphing_basis_vector_4'> +1.5298390e-04 </wgt>
<wgt id='morphing_basis_vector_5'> +2.4227544e-04 </wgt>
</rwgt>
</event>
<event>
 4      1 +1.4786900e-06 9.14607400e+02 7.81860800e-03 8.77024100e-02
        2 -1    0    0  501    0 +0.0000000000e+00 +0.0000000000e+00 +5.5754101450e+02 5.5754101450e+02 0.0000000000e+00 0.0000e+00 1.0000e+00
       -2 -1    0    0    0  501 -0.0000000000e+00 -0.0000000000e+00 -3.7508752567e+02 3.7508752567e+02 0.0000000000e+00 0.0000e+00 -1.0000e+00
      -13  1    1    2    0    0 -2.8965629194e+02 +2.7574841431e+02 +3.1738204122e+02 5.1055784740e+02 0.0000000000e+00 0.0000e+00 1.0000e+00
       13  1    1    2    0    0 +2.8965629194e+02 -2.7574841431e+02 -1.3492855239e+02 4.2207069278e+02 0.0000000000e+00 0.0000e+00 -1.0000e+00
<mgrwt>
<rscale>  0 0.91460741E+03</rscale>
<asrwt>0</asrwt>
<pdfrwt beam="1">  1        2 0.85775540E-01 0.91460741E+03</pdfrwt>
<pdfrwt beam="2">  1       -2 0.57705773E-01 0.91460741E+03</pdfrwt>
<totfact> 0.18757921E+02</totfact>
</mgrwt>
<rwgt>
<wgt id='morphing_basis_vector_1'> +1.9700081e-04 </wgt>
<wgt id='morphing_basis_vector_2'> +1.9183394e-04 </wgt>
<wgt id='morphing_basis_vector_3'> +1.8113991e-04 </wgt>
<wgt id='morphing_basis_vector_4'> +5.1167394e-05 </wgt>
<wgt id='morphing_basis_vector_5'> +1.4451569e-04 </wgt>
</rwgt>
</event>
<event>
 4      1 +1.4786900e-06 9.41116200e+02 7.81860800e-03 8.74258900e-02
        2 -1    0    0  501    0 +0.0000000000e+00 +0.0000000000e+00 +3.1452881646e+02 3.1452881646e+02 0.0000000000e+00 0.0000e+00 -1.0000e+00
       -2 -1    0    0    0  501 -0.0000000000e+00 -0.0000000000e+00 -7.0398930027e+02 7.0398930027e+02 0.0000000000e+00 0.0000e+00 1.0000e+00
      -13  1    1    2    0    0 -2.1180806128e+02 -2.1956922874e+02 -5.8245737236e+02 6.5751797819e+02 0.0000000000e+00 0.0000e+00 1.0000e+00
       13  1    1    2    0    0 +2.1180806128e+02 +2.1956922874e+02 +1.9299688854e+02 3.6100013853e+02 0.0000000000e+00 0.0000e+00 -1.0000e+00
<mgrwt>
<rscale>  0 0.94111619E+03</rscale>
<asrwt>0</asrwt>
<pdfrwt beam="1">  1        2 0.48389049E-01 0.94111619E+03</pdfrwt>
<pdfrwt beam="2">  1       -2 0.10830604E+00 0.94111619E+03</pdfrwt>
<totfact> 0.87394990E+01</totfact>
</mgrwt>
<rwgt>
<wgt id='morphing_basis_vector_1'> +1.8657412e-04 </wgt>
<wgt id='morphing_basis_vector_2'> +1.1588296e-04 </wgt>
<wgt id='morphing_basis_vector_3'> +1.7657867e-04 </wgt>
<wgt id='morphing_basis_vector_4'> +1.0519461e-04 </wgt>
<wgt id='morphing_basis_vector_5'> +1.6644801e-04 </wgt>
</rwgt>
</event>
<event>
 4      1 +1.4786900e-06 9.30614400e+02 7.81860800e-03 8.75342800e-02
        2 -1    0    0  501    0 +0.0000000000e+00 +0.0000000000e+00 +7.6587217274e+02 7.6587217274e+02 0.0000000000e+00 0.0000e+00 -1.0000e+00
       -2 -1    0    0    0  501 -0.0000000000e+00 -0.0000000000e+00 -2.8269831384e+02 2.8269831384e+02 0.0000000000e+00 0.0000e+00 1.0000e+00
      -13  1    1    2    0    0 -1.3825192802e+02 -3.3506157080e+02 -8.7167447336e+01 3.7279755324e+02 0.0000000000e+00 0.0000e+00 1.0000e+00
       13  1    1    2    0    0 +1.3825192802e+02 +3.3506157080e+02 +5.7034130624e+02 6.7577293334e+02 0.0000000000e+00 0.0000e+00 -1.0000e+00
<mgrwt>
<rscale>  0 0.93061436E+03</rscale>
<asrwt>0</asrwt>
<pdfrwt beam="1">  1        2 0.11782649E+00 0.93061436E+03</pdfrwt>
<pdfrwt beam="2">  1       -2 0.43492048E-01 0.93061436E+03</pdfrwt>
<totfact> 0.22250419E+02</totfact>
</mgrwt>
<rwgt>
<wgt id='morphing_basis_vector_1'> +1.7931464e-04 </wgt>
<wgt id='morphing_basis_vector_2'> +1.1175414e-04 </wgt>
<wgt id='morphing_basis_vector_3'> +1.6913550e-04 </wgt>
<wgt id='morphing_basis_vector_4'> +9.9818129e-05 </wgt>
<wgt id='morphing_basis_vector_5'> +1.5841540e-04 </wgt>
</rwgt>
</event>
<event>
 4      1 +1.4786900e-06 1.00578800e+03 7.81860800e-03 8.67893800e-02
        2 -1    0    0  501    0 +0.0000000000e+00 +0.0000000000e+00 +1.5408960461e+03 1.5408960461e+03 0.0000000000e+00 0.0000e+00 -1.0000e+00
       -2 -1    0    0    0  501 -0.0000000000e+00 -0.0000000000e+00 -1.6412675613e+02 1.6412675613e+02 0.0000000000e+00 0.0000e+00 1.0000e+00
      -13  1    1    2    0    0 -1.9066080939e+02 -4.4827163188e+02 +4.7663063869e+02 6.8152458937e+02 0.0000000000e+00 0.0000e+00 1.0000e+00
       13  1    1    2    0    0 +1.9066080939e+02 +4.4827163188e+02 +9.0013865123e+02 1.0234982128e+03 0.0000000000e+00 0.0000e+00 -1.0000e+00
<mgrwt>
<rscale>  0 0.10057878E+04</rscale>
<asrwt>0</asrwt>
<pdfrwt beam="1">  1        2 0.23706092E+00 0.10057878E+04</pdfrwt>
<pdfrwt beam="2">  1       -2 0.25250271E-01 0.10057878E+04</pdfrwt>
<totfact> 0.20087620E+02</totfact>
</mgrwt>
<rwgt>
<wgt id='morphing_basis_vector_1'> +2.4137387e-04 </wgt>
<wgt id='morphing_basis_vector_2'> +1.5892130e-04 </wgt>
<wgt id='morphing_basis_vector_3'> +2.3249896e-04 </wgt>
<wgt id='morphing_basis_vector_4'> +1.3548909e-04 </wgt>
<wgt id='morphing_basis_vector_5'> +2.2217540e-04 </wgt>
</rwgt>
</event>
<event>
 4      1 +1.4786900e-06 9.32193100e+02 7.81860800e-03 8.75178900e-02
        2 -1    0    0  501    0 +0.0000000000e+00 +0.0000000000e+00 +5.9742428704e+02 5.9742428704e+02 0.0000000000e+00 0.0000e+00 1.0000e+00
       -2 -1    0    0    0  501 -0.0000000000e+00 -0.0000000000e+00 -3.6363773757e+02 3.6363773757e+02 0.0000000000e+00 0.0000e+00 -1.0000e+00
      -13  1    1    2    0    0 -3.8023045691e+02 -5.4770831374e+01 +3.8902015623e+02 5.4672820147e+02 0.0000000000e+00 0.0000e+00 1.0000e+00
       13  1    1    2    0    0 +3.8023045691e+02 +5.4770831374e+01 -1.5523360675e+02 4.1433382314e+02 0.0000000000e+00 0.0000e+00 -1.0000e+00
<mgrwt>
<rscale>  0 0.93219315E+03</rscale>
<asrwt>0</asrwt>
<pdfrwt beam="1">  1        2 0.91911429E-01 0.93219315E+03</pdfrwt>
<pdfrwt beam="2">  1       -2 0.55944267E-01 0.93219315E+03</pdfrwt>
<totfact> 0.18401609E+02</totfact>
</mgrwt>
<rwgt>
<wgt id='morphing_basis_vector_1'> +2.1856686e-04 </wgt>
<wgt id='morphing_basis_vector_2'> +2.2835867e-04 </wgt>
<wgt id='morphing_basis_vector_3'> +2.0213786e-04 </wgt>
<wgt id='morphing_basis_vector_4'> +4.4684489e-05 </wgt>
<wgt id='morphing_basis_vector_5'> +1.5651281e-04 </wgt>
</rwgt>
</event>
<event>
 4      1 +1.4786900e-06 9.30097300e+02 7.81860800e-03 8.75396600e-02
        2 -1    0    0  501    0 +0.0000000000e+00 +0.0000000000e+00 +3.0926526763e+02 3.0926526763e+02 0.0000000000e+00 0.0000e+00 -1.0000e+00
       -2 -1    0    0    0  501 -0.0000000000e+00 -0.0000000000e+00 -6.9930336916e+02 6.9930336916e+02 0.0000000000e+00 0.0000e+00 1.0000e+00
      -13  1    1    2    0    0 +3.7149059486e+02 -2.2443136756e+02 -3.7612990823e+02 5.7432430619e+02 0.0000000000e+00 0.0000e+00 1.0000e+00
       13  1    1    2    0    0 -3.7149059486e+02 +2.2443136756e+02 -1.3908193301e+01 4.3424433060e+02 0.0000000000e+00 0.0000e+00 -1.0000e+00
<mgrwt>
<rscale>  0 0.93009729E+03</rscale>
<asrwt>0</asrwt>
<pdfrwt beam="1">  1        2 0.47579272E-01 0.93009729E+03</pdfrwt>
<pdfrwt beam="2">  1       -2 0.10758513E+00 0.93009729E+03</pdfrwt>
<totfact> 0.90625019E+01</totfact>
</mgrwt>
<rwgt>
<wgt id='morphing_basis_vector_1'> +1.8011190e-04 </wgt>
<wgt id='morphing_basis_vector_2'> +1.1504519e-04 </wgt>
<wgt id='morphing_basis_vector_3'> +1.6973151e-04 </wgt>
<wgt id='morphing_basis_vector_4'> +9.7878577e-05 </wgt>
<wgt id='morphing_basis_vector_5'> +1.5793473e-04 </wgt>
</rwgt>
</event>
<event>
 4      1 +1.4786900e-06 1.00412000e+03 7.81860800e-03 8.68051600e-02
        2 -1    0    0  501    0 +0.0000000000e+00 +0.0000000000e+00 +1.4265147808e+03 1.4265147808e+03 0.0000000000e+00 0.0000e+00 -1.0000e+00
       -2 -1    0    0    0  501 -0.0000000000e+00 -0.0000000000e+00 -1.7669949658e+02 1.7669949658e+02 0.0000000000e+00 0.0000e+00 1.0000e+00
      -13  1    1    2    0    0 -3.9805242717e+02 +1.5694498264e+02 +2.0554537366e+02 4.7468554116e+02 0.0000000000e+00 0.0000e+00 1.0000e+00
       13  1    1    2    0    0 +3.9805242717e+02 -1.5694498264e+02 +1.0442699106e+03 1.1285287362e+03 0.0000000000e+00 0.0000e+00 -1.0000e+00
<mgrwt>
<rscale>  0 0.10041204E+04</rscale>
<asrwt>0</asrwt>
<pdfrwt beam="1">  1        2 0.21946380E+00 0.10041204E+04</pdfrwt>
<pdfrwt beam="2">  1       -2 0.27184539E-01 0.10041204E+04</pdfrwt>
<totfact> 0.20474776E+02</totfact>
</mgrwt>
<rwgt>
<wgt id='morphing_basis_vector_1'> +2.3753580e-04 </wgt>
<wgt id='morphing_basis_vector_2'> +1.5076443e-04 </wgt>
<wgt id='morphing_basis_vector_3'> +2.2876577e-04 </wgt>
<wgt id='morphing_basis_vector_4'> +1.3818173e-04 </wgt>
<wgt id='morphing_basis_vector_5'> +2.2080066e-04 </wgt>
</rwgt>
</event>
<event>
 4      1 +1.4786900e-06 9.72298700e+02 7.81860800e-03 8.71125500e-02
        2 -1    0    0  501    0 +0.0000000000e+00 +0.0000000000e+00 +2.5543998754e+02 2.5543998754e+02 0.0000000000e+00 0.0000e+00 -1.0000e+00
       -2 -1    0    0    0  501 -0.0000000000e+00 -0.0000000000e+00 -9.2523168017e+02 9.2523168017e+02 0.0000000000e+00 0.0000e+00 1.0000e+00
      -13  1    1    2    0    0 -4.5981385359e+02 -1.2168254816e+02 -4.5696716997e+02 6.5958654998e+02 0.0000000000e+00 0.0000e+00 1.0000e+00
       13  1    1    2    0    0 +4.5981385359e+02 +1.2168254816e+02 -2.1282452266e+02 5.2108511774e+02 0.0000000000e+00 0.0000e+00 -1.0000e+00
<mgrwt>
<rscale>  0 0.97229866E+03</rscale>
<asrwt>0</asrwt>
<pdfrwt beam="1">  1        2 0.39298460E-01 0.97229866E+03</pdfrwt>
<pdfrwt beam="2">  1       -2 0.14234333E+00 0.97229866E+03</pdfrwt>
<totfact> 0.53714338E+01</totfact>
</mgrwt>
<rwgt>
<wgt id='morphing_basis_vector_1'> +2.1355562e-04 </wgt>
<wgt id='morphing_basis_vector_2'> +1.4120541e-04 </wgt>
<wgt id='morphing_basis_vector_3'> +2.0374853e-04 </wgt>
<wgt id='morphing_basis_vector_4'> +1.1624722e-04 </wgt>
<wgt id='morphing_basis_vector_5'> +1.9169438e-04 </wgt>
</rwgt>
</event>
<event>
 4      1 +1.4786900e-06 9.26707700e+02 7.81860800e-03 8.75749900e-02
        2 -1    0    0  501    0 +0.0000000000e+00 +0.0000000000e+00 +1.8118926223e+02 1.8118926223e+02 0.0000000000e+00 0.0000e+00 -1.0000e+00
       -2 -1    0    0    0  501 -0.0000000000e+00 -0.0000000000e+00 -1.1849311672e+03 1.1849311672e+03 0.0000000000e+00 0.0000e+00 1.0000e+00
      -13  1    1    2    0    0 +1.1348768573e+02 -4.2750404803e+02 -2.9836330301e+02 5.3353521578e+02 0.0000000000e+00 0.0000e+00 1.0000e+00
       13  1    1    2    0    0 -1.1348768573e+02 +4.2750404803e+02 -7.0537860199e+02 8.3258521368e+02 0.0000000000e+00 0.0000e+00 -1.0000e+00
<mgrwt>
<rscale>  0 0.92670773E+03</rscale>
<asrwt>0</asrwt>
<pdfrwt beam="1">  1        2 0.27875271E-01 0.92670773E+03</pdfrwt>
<pdfrwt beam="2">  1       -2 0.18229710E+00 0.92670773E+03</pdfrwt>
<totfact> 0.38427973E+01</totfact>
</mgrwt>
<rwgt>
<wgt id='morphing_basis_vector_1'> +1.9357176e-04 </wgt>
<wgt id='morphing_basis_vector_2'> +1.6161472e-04 </wgt>
<wgt id='morphing_basis_vector_3'> +1.8040791e-04 </wgt>
<wgt id='morphing_basis_vector_4'> +7.3229384e-05 </wgt>
<wgt id='morphing_basis_vector_5'> +1.5414835e-04 </wgt>
</rwgt>
</event>
<event>
 4      1 +1.4786900e-06 9.27895400e+02 7.81860800e-03 8.75625900e-02
        2 -1    0    0  501    0 +0.0000000000e+00 +0.0000000000e+00 +5.7163305430e+02 5.7163305430e+02 0.0000000000e+00 0.0000e+00 -1.0000e+00
       -2 -1    0    0    0  501 -0.0000000000e+00 -0.0000000000e+00 -3.7654833729e+02 3.7654833729e+02 0.0000000000e+00 0.0000e+00 1.0000e+00
      -13  1    1    2    0    0 -4.2490076897e+02 -1.0657374540e+02 -5.8601584020e+01 4.4196467317e+02 0.0000000000e+00 0.0000e+00 1.0000e+00
       13  1    1    2    0    0 +4.2490076897e+02 +1.0657374540e+02 +2.5368630102e+02 5.0621671842e+02 0.0000000000e+00 0.0000e+00 -1.0000e+00
<mgrwt>
<rscale>  0 0.92789542E+03</rscale>
<asrwt>0</asrwt>
<pdfrwt beam="1">  1        2 0.87943547E-01 0.92789542E+03</pdfrwt>
<pdfrwt beam="2">  1       -2 0.57930514E-01 0.92789542E+03</pdfrwt>
<totfact> 0.18063335E+02</totfact>
</mgrwt>
<rwgt>
<wgt id='morphing_basis_vector_1'> +1.7877331e-04 </wgt>
<wgt id='morphing_basis_vector_2'> +1.1466080e-04 </wgt>
<wgt id='morphing_basis_vector_3'> +1.6832619e-04 </wgt>
<wgt id='morphing_basis_vector_4'> +9.6559583e-05 </wgt>
<wgt id='morphing_basis_vector_5'> +1.5627822e-04 </wgt>
</rwgt>
</event>
<event>
 4      1 +1.4786900e-06 9.23910100e+02 7.81860800e-03 8.76042700e-02
        2 -1    0    0  501    0 +0.0000000000e+00 +0.0000000000e+00 +1.4172142746e+03 1.4172142746e+03 0.0000000000e+00 0.0000e+00 -1.0000e+00
       -2 -1    0    0    0  501 -0.0000000000e+00 -0.0000000000e+00 -1.5057881556e+02 1.5057881556e+02 0.0000000000e+00 0.0000e+00 1.0000e+00
      -13  1    1    2    0    0 -1.1952456547e+01 -3.4525722787e+02 +1.1289687828e+02 3.6344342027e+02 0.0000000000e+00 0.0000e+00 1.0000e+00
       13  1    1    2    0    0 +1.1952456547e+01 +3.4525722787e+02 +1.1537385808e+03 1.2043496699e+03 0.0000000000e+00 0.0000e+00 -1.0000e+00
<mgrwt>
<rscale>  0 0.92391005E+03</rscale>
<asrwt>0</asrwt>
<pdfrwt beam="1">  1        2 0.21803296E+00 0.92391005E+03</pdfrwt>
<pdfrwt beam="2">  1       -2 0.23165973E-01 0.92391005E+03</pdfrwt>
<totfact> 0.27428249E+02</totfact>
</mgrwt>
<rwgt>
<wgt id='morphing_basis_vector_1'> +1.7456471e-04 </wgt>
<wgt id='morphing_basis_vector_2'> +1.0847523e-04 </wgt>
<wgt id='morphing_basis_vector_3'> +1.6431608e-04 </wgt>
<wgt id='morphing_basis_vector_4'> +9.6830092e-05 </wgt>
<wgt id='morphing_basis_vector_5'> +1.5345599e-04 </wgt>
</rwgt>
</event>
<event>
 4      1 +1.4786900e-06 9.50280200e+02 7.81860800e-03 8.73325000e-02
        2 -1    0    0  501    0 +0.0000000000e+00 +0.0000000000e+00 +4.2778080198e+02 4.2778080198e+02 0.0000000000e+00 0.0000e+00 -1.0000e+00
       -2 -1    0    0    0  501 -0.0000000000e+00 -0.0000000000e+00 -5.2774254319e+02 5.2774254319e+02 0.0000000000e+00 0.0000e+00 1.0000e+00
      -13  1    1    2    0    0 +4.3586654406e+02 +1.8787301799e+02 -2.7900356803e+01 4.7545172734e+02 0.0000000000e+00 0.0000e+00 1.0000e+00
       13  1    1    2    0    0 -4.3586654406e+02 -1.8787301799e+02 -7.2061384402e+01 4.8007161783e+02 0.0000000000e+00 0.0000e+00 -1.0000e+00
<mgrwt>
<rscale>  0 0.95028023E+03</rscale>
<asrwt>0</asrwt>
<pdfrwt beam="1">  1        2 0.65812432E-01 0.95028023E+03</pdfrwt>
<pdfrwt beam="2">  1       -2 0.81191160E-01 0.95028023E+03</pdfrwt>
<totfact> 0.12219052E+02</totfact>
</mgrwt>
<rwgt>
<wgt id='morphing_basis_vector_1'> +2.0129787e-04 </wgt>
<wgt id='morphing_basis_vector_2'> +1.4448707e-04 </wgt>
<wgt id='morphing_basis_vector_3'> +1.9034328e-04 </wgt>
<wgt id='morphing_basis_vector_4'> +9.7852205e-05 </wgt>
<wgt id='morphing_basis_vector_5'> +1.7300655e-04 </wgt>
</rwgt>
</event>
<event>
 4      1 +1.4786900e-06 1.06364700e+03 7.81860800e-03 8.62607000e-02
        2 -1    0    0  501    0 +0.0000000000e+00 +0.0000000000e+00 +4.8179323041e+02 4.8179323041e+02 0.0000000000e+00 0.0000e+00 1.0000e+00
       -2 -1    0    0    0  501 -0.0000000000e+00 -0.0000000000e+00 -5.8704900903e+02 5.8704900903e+02 0.0000000000e+00 0.0000e+00 -1.0000e+00
      -13  1    1    2    0    0 +6.2677576366e+01 +3.8824103776e+02 +3.0713847357e+02 4.9899260909e+02 0.0000000000e+00 0.0000e+00 1.0000e+00
       13  1    1    2    0    0 -6.2677576366e+01 -3.8824103776e+02 -4.1239425219e+02 5.6984963036e+02 0.0000000000e+00 0.0000e+00 -1.0000e+00
<mgrwt>
<rscale>  0 0.10636470E+04</rscale>
<asrwt>0</asrwt>
<pdfrwt beam="1">  1        2 0.74122036E-01 0.10636470E+04</pdfrwt>
<pdfrwt beam="2">  1       -2 0.90315232E-01 0.10636470E+04</pdfrwt>
<totfact> 0.82891204E+01</totfact>
</mgrwt>
<rwgt>
<wgt id='morphing_basis_vector_1'> +3.7261189e-04 </wgt>
<wgt id='morphing_basis_vector_2'> +4.2503292e-04 </wgt>
<wgt id='morphing_basis_vector_3'> +3.6617307e-04 </wgt>
<wgt id='morphing_basis_vector_4'> +5.0833801e-05 </wgt>
<wgt id='morphing_basis_vector_5'> +2.7524865e-04 </wgt>
</rwgt>
</event>
<event>
 4      1 +1.4786900e-06 9.48963700e+02 7.81860800e-03 8.73458500e-02
        2 -1    0    0  501    0 +0.0000000000e+00 +0.0000000000e+00 +5.3839620352e+02 5.3839620352e+02 0.0000000000e+00 0.0000e+00 1.0000e+00
       -2 -1    0    0    0  501 -0.0000000000e+00 -0.0000000000e+00 -4.1815491193e+02 4.1815491193e+02 0.0000000000e+00 0.0000e+00 -1.0000e+00
      -13  1    1    2    0    0 +4.2200993991e+02 +1.7990542914e+02 +1.8222824086e+02 4.9362484194e+02 0.0000000000e+00 0.0000e+00 1.0000e+00
       13  1    1    2    0    0 -4.2200993991e+02 -1.7990542914e+02 -6.1986949271e+01 4.6292627350e+02 0.0000000000e+00 0.0000e+00 -1.0000e+00
<mgrwt>
<rscale>  0 0.94896368E+03</rscale>
<asrwt>0</asrwt>
<pdfrwt beam="1">  1        2 0.82830185E-01 0.94896368E+03</pdfrwt>
<pdfrwt beam="2">  1       -2 0.64331525E-01 0.94896368E+03</pdfrwt>
<totfact> 0.15589165E+02</totfact>
</mgrwt>
<rwgt>
<wgt id='morphing_basis_vector_1'> +2.0870093e-04 </wgt>
<wgt id='morphing_basis_vector_2'> +1.6930103e-04 </wgt>
<wgt id='morphing_basis_vector_3'> +1.9653943e-04 </wgt>
<wgt id='morphing_basis_vector_4'> +8.4747738e-05 </wgt>
<wgt id='morphing_basis_vector_5'> +1.7125271e-04 </wgt>
</rwgt>
</event>
<event>
 4      1 +1.4786900e-06 1.06874000e+03 7.81860800e-03 8.62158400e-02
        2 -1    0    0  501    0 +0.0000000000e+00 +0.0000000000e+00 +1.9657239481e+03 1.9657239481e+03 0.0000000000e+00 0.0000e+00 -1.0000e+00
       -2 -1    0    0    0  501 -0.0000000000e+00 -0.0000000000e+00 -1.4526515969e+02 1.4526515969e+02 0.0000000000e+00 0.0000e+00 1.0000e+00
      -13  1    1    2    0    0 +2.8740567253e+02 +3.6805843447e+02 +3.9712170369e+02 6.1300463238e+02 0.0000000000e+00 0.0000e+00 1.0000e+00
       13  1    1    2    0    0 -2.8740567253e+02 -3.6805843447e+02 +1.4233370847e+03 1.4979844754e+03 0.0000000000e+00 0.0000e+00 -1.0000e+00
<mgrwt>
<rscale>  0 0.10687398E+04</rscale>
<asrwt>0</asrwt>
<pdfrwt beam="1">  1        2 0.30241905E+00 0.10687398E+04</pdfrwt>
<pdfrwt beam="2">  1       -2 0.22348487E-01 0.10687398E+04</pdfrwt>
<totfact> 0.14329456E+02</totfact>
</mgrwt>
<rwgt>
<wgt id='morphing_basis_vector_1'> +2.9971131e-04 </wgt>
<wgt id='morphing_basis_vector_2'> +1.9245903e-04 </wgt>
<wgt id='morphing_basis_vector_3'> +2.9313655e-04 </wgt>
<wgt id='morphing_basis_vector_4'> +1.8021895e-04 </wgt>
<wgt id='morphing_basis_vector_5'> +2.8901567e-04 </wgt>
</rwgt>
</event>
<event>
 4      1 +1.4786900e-06 9.48660700e+02 7.81860800e-03 8.73489300e-02
        2 -1    0    0  501    0 +0.0000000000e+00 +0.0000000000e+00 +8.4347198643e+02 8.4347198643e+02 0.0000000000e+00 0.0000e+00 -1.0000e+00
       -2 -1    0    0    0  501 -0.0000000000e+00 -0.0000000000e+00 -2.6674183387e+02 2.6674183387e+02 0.0000000000e+00 0.0000e+00 1.0000e+00
      -13  1    1    2    0    0 +3.2116483156e+02 -2.4270130053e+02 -5.2334759201e+00 4.0258931876e+02 0.0000000000e+00 0.0000e+00 1.0000e+00
       13  1    1    2    0    0 -3.2116483156e+02 +2.4270130053e+02 +5.8196362847e+02 7.0762450154e+02 0.0000000000e+00 0.0000e+00 -1.0000e+00
<mgrwt>
<rscale>  0 0.94866067E+03</rscale>
<asrwt>0</asrwt>
<pdfrwt beam="1">  1        2 0.12976492E+00 0.94866067E+03</pdfrwt>
<pdfrwt beam="2">  1       -2 0.41037206E-01 0.94866067E+03</pdfrwt>
<totfact> 0.21901360E+02</totfact>
</mgrwt>
<rwgt>
<wgt id='morphing_basis_vector_1'> +1.9268283e-04 </wgt>
<wgt id='morphing_basis_vector_2'> +1.2121166e-04 </wgt>
<wgt id='morphing_basis_vector_3'> +1.8272179e-04 </wgt>
<wgt id='morphing_basis_vector_4'> +1.0806585e-04 </wgt>
<wgt id='morphing_basis_vector_5'> +1.7233585e-04 </wgt>
</rwgt>
</event>
<event>
 4      1 +1.4786900e-06 9.08522700e+02 7.81860800e-03 8.77672700e-02
        2 -1    0    0  501    0 +0.0000000000e+00 +0.0000000000e+00 +4.8042564244e+02 4.8042564244e+02 0.0000000000e+00 0.0000e+00 1.0000e+00
       -2 -1    0    0    0  501 -0.0000000000e+00 -0.0000000000e+00 -4.2952196946e+02 4.2952196946e+02 0.0000000000e+00 0.0000e+00 -1.0000e+00
      -13  1    1    2    0    0 -2.0010515312e+02 -3.3024865054e+02 -2.1418713778e+02 4.4156808476e+02 0.0000000000e+00 0.0000e+00 -1.0000e+00
       13  1    1    2    0    0 +2.0010515312e+02 +3.3024865054e+02 +2.6509081075e+02 4.6837952713e+02 0.0000000000e+00 0.0000e+00 1.0000e+00
<mgrwt>
<rscale>  0 0.90852269E+03</rscale>
<asrwt>0</asrwt>
<pdfrwt beam="1">  1        2 0.73911638E-01 0.90852269E+03</pdfrwt>
<pdfrwt beam="2">  1       -2 0.66080303E-01 0.90852269E+03</pdfrwt>
<totfact> 0.16835646E+02</totfact>
</mgrwt>
<rwgt>
<wgt id='morphing_basis_vector_1'> +1.6455854e-04 </wgt>
<wgt id='morphing_basis_vector_2'> +1.0283032e-04 </wgt>
<wgt id='morphing_basis_vector_3'> +1.5407545e-04 </wgt>
<wgt id='morphing_basis_vector_4'> +8.9460676e-05 </wgt>
<wgt id='morphing_basis_vector_5'> +1.4246002e-04 </wgt>
</rwgt>
</event>
<event>
 4      1 +1.4786900e-06 9.49552400e+02 7.81860800e-03 8.73398800e-02
        2 -1    0    0  501    0 +0.0000000000e+00 +0.0000000000e+00 +1.1522769806e+03 1.1522769806e+03 0.0000000000e+00 0.0000e+00 -1.0000e+00
       -2 -1    0    0    0  501 -0.0000000000e+00 -0.0000000000e+00 -1.9562348052e+02 1.9562348052e+02 0.0000000000e+00 0.0000e+00 1.0000e+00
      -13  1    1    2    0    0 -3.4307214839e+02 -3.1550959217e+02 +3.5003847492e+02 5.8289942158e+02 0.0000000000e+00 0.0000e+00 1.0000e+00
       13  1    1    2    0    0 +3.4307214839e+02 +3.1550959217e+02 +6.0661502520e+02 7.6500103958e+02 0.0000000000e+00 0.0000e+00 -1.0000e+00
<mgrwt>
<rscale>  0 0.94955239E+03</rscale>
<asrwt>0</asrwt>
<pdfrwt beam="1">  1        2 0.17727338E+00 0.94955239E+03</pdfrwt>
<pdfrwt beam="2">  1       -2 0.30095921E-01 0.94955239E+03</pdfrwt>
<totfact> 0.24668954E+02</totfact>
</mgrwt>
<rwgt>
<wgt id='morphing_basis_vector_1'> +1.9598404e-04 </wgt>
<wgt id='morphing_basis_vector_2'> +1.2965123e-04 </wgt>
<wgt id='morphing_basis_vector_3'> +1.8567170e-04 </wgt>
<wgt id='morphing_basis_vector_4'> +1.0458848e-04 </wgt>
<wgt id='morphing_basis_vector_5'> +1.7282581e-04 </wgt>
</rwgt>
</event>
<event>
 4      1 +1.4786900e-06 9.82707700e+02 7.81860800e-03 8.70106700e-02
        2 -1    0    0  501    0 +0.0000000000e+00 +0.0000000000e+00 +5.9235803269e+02 5.9235803269e+02 0.0000000000e+00 0.0000e+00 -1.0000e+00
       -2 -1    0    0    0  501 -0.0000000000e+00 -0.0000000000e+00 -4.0757207298e+02 4.0757207298e+02 0.0000000000e+00 0.0000e+00 1.0000e+00
      -13  1    1    2    0    0 +3.6061922824e+02 +2.8214601505e+01 -2.4598022272e+02 4.3743406530e+02 0.0000000000e+00 0.0000e+00 1.0000e+00
       13  1    1    2    0    0 -3.6061922824e+02 -2.8214601505e+01 +4.3076618243e+02 5.6249604038e+02 0.0000000000e+00 0.0000e+00 -1.0000e+00
<mgrwt>
<rscale>  0 0.98270767E+03</rscale>
<asrwt>0</asrwt>
<pdfrwt beam="1">  1        2 0.91132005E-01 0.98270767E+03</pdfrwt>
<pdfrwt beam="2">  1       -2 0.62703396E-01 0.98270767E+03</pdfrwt>
<totfact> 0.14679145E+02</totfact>
</mgrwt>
<rwgt>
<wgt id='morphing_basis_vector_1'> +2.1884801e-04 </wgt>
<wgt id='morphing_basis_vector_2'> +1.3722481e-04 </wgt>
<wgt id='morphing_basis_vector_3'> +2.0959534e-04 </wgt>
<wgt id='morphing_basis_vector_4'> +1.2668537e-04 </wgt>
<wgt id='morphing_basis_vector_5'> +2.0109272e-04 </wgt>
</rwgt>
</event>
<event>
 4      1 +1.4786900e-06 9.01964100e+02 7.81860800e-03 8.78377800e-02
        2 -1    0    0  501    0 +0.0000000000e+00 +0.0000000000e+00 +1.0365976660e+03 1.0365976660e+03 0.0000000000e+00 0.0000e+00 -1.0000e+00
       -2 -1    0    0    0  501 -0.0000000000e+00 -0.0000000000e+00 -1.9620419451e+02 1.9620419451e+02 0.0000000000e+00 0.0000e+00 1.0000e+00
      -13  1    1    2    0    0 -1.7531296705e+02 -2.8683911021e+02 +9.3076780356e+00 3.3630037828e+02 0.0000000000e+00 0.0000e+00 1.0000e+00
       13  1    1    2    0    0 +1.7531296705e+02 +2.8683911021e+02 +8.3108579345e+02 8.9650148222e+02 0.0000000000e+00 0.0000e+00 -1.0000e+00
<mgrwt>
<rscale>  0 0.90196410E+03</rscale>
<asrwt>0</asrwt>
<pdfrwt beam="1">  1        2 0.15947656E+00 0.90196410E+03</pdfrwt>
<pdfrwt beam="2">  1       -2 0.30185261E-01 0.90196410E+03</pdfrwt>
<totfact> 0.28872117E+02</totfact>
</mgrwt>
<rwgt>
<wgt id='morphing_basis_vector_1'> +1.5993490e-04 </wgt>
<wgt id='morphing_basis_vector_2'> +9.8983005e-05 </wgt>
<wgt id='morphing_basis_vector_3'> +1.4946502e-04 </wgt>
<wgt id='morphing_basis_vector_4'> +8.7156634e-05 </wgt>
<wgt id='morphing_basis_vector_5'> +1.3798972e-04 </wgt>
</rwgt>
</event>
<event>
 4      1 +1.4786900e-06 1.01281400e+03 7.81860800e-03 8.67232300e-02
        2 -1    0    0  501    0 +0.0000000000e+00 +0.0000000000e+00 +2.9546212073e+02 2.9546212073e+02 0.0000000000e+00 0.0000e+00 1.0000e+00
       -2 -1    0    0    0  501 -0.0000000000e+00 -0.0000000000e+00 -8.6795641725e+02 8.6795641725e+02 0.0000000000e+00 0.0000e+00 -1.0000e+00
      -13  1    1    2    0    0 -2.2176771843e+02 -3.4526073035e+02 -6.2712694078e+02 7.4944919288e+02 0.0000000000e+00 0.0000e+00 -1.0000e+00
       13  1    1    2    0    0 +2.2176771843e+02 +3.4526073035e+02 +5.4632644255e+01 4.1396934510e+02 0.0000000000e+00 0.0000e+00 1.0000e+00
<mgrwt>
<rscale>  0 0.10128144E+04</rscale>
<asrwt>0</asrwt>
<pdfrwt beam="1">  1        2 0.45455712E-01 0.10128144E+04</pdfrwt>
<pdfrwt beam="2">  1       -2 0.13353175E+00 0.10128144E+04</pdfrwt>
<totfact> 0.54171216E+01</totfact>
</mgrwt>
<rwgt>
<wgt id='morphing_basis_vector_1'> +2.4495079e-04 </wgt>
<wgt id='morphing_basis_vector_2'> +1.5498251e-04 </wgt>
<wgt id='morphing_basis_vector_3'> +2.3643825e-04 </wgt>
<wgt id='morphing_basis_vector_4'> +1.4385643e-04 </wgt>
<wgt id='morphing_basis_vector_5'> +2.2923888e-04 </wgt>
</rwgt>
</event>
<event>
 4      1 +1.4786900e-06 9.78957300e+02 7.81860800e-03 8.70472200e-02
        2 -1    0    0  501    0 +0.0000000000e+00 +0.0000000000e+00 +4.0650503826e+02 4.0650503826e+02 0.0000000000e+00 0.0000e+00 -1.0000e+00
       -2 -1    0    0    0  501 -0.0000000000e+00 -0.0000000000e+00 -5.8938841864e+02 5.8938841864e+02 0.0000000000e+00 0.0000e+00 1.0000e+00
      -13  1    1    2    0    0 +4.4563839545e+02 +1.6681334592e+02 -2.0818365477e+02 5.1938493046e+02 0.0000000000e+00 0.0000e+00 1.0000e+00
       13  1    1    2    0    0 -4.4563839545e+02 -1.6681334592e+02 +2.5300274384e+01 4.7650852643e+02 0.0000000000e+00 0.0000e+00 -1.0000e+00
<mgrwt>
<rscale>  0 0.97895733E+03</rscale>
<asrwt>0</asrwt>
<pdfrwt beam="1">  1        2 0.62539237E-01 0.97895733E+03</pdfrwt>
<pdfrwt beam="2">  1       -2 0.90675141E-01 0.97895733E+03</pdfrwt>
<totfact> 0.10012893E+02</totfact>
</mgrwt>
<rwgt>
<wgt id='morphing_basis_vector_1'> +2.1861911e-04 </wgt>
<wgt id='morphing_basis_vector_2'> +1.4381312e-04 </wgt>
<wgt id='morphing_basis_vector_3'> +2.0900728e-04 </wgt>
<wgt id='morphing_basis_vector_4'> +1.2029615e-04 </wgt>
<wgt id='morphing_basis_vector_5'> +1.9751811e-04 </wgt>
</rwgt>
</event>
<event>
 4      1 +1.4786900e-06 9.90949400e+02 7.81860800e-03 8.69309300e-02
        2 -1    0    0  501    0 +0.0000000000e+00 +0.0000000000e+00 +1.9919787339e+03 1.9919787339e+03 0.0000000000e+00 0.0000e+00 1.0000e+00
       -2 -1    0    0    0  501 -0.0000000000e+00 -0.0000000000e+00 -1.2324186089e+02 1.2324186089e+02 0.0000000000e+00 0.0000e+00 -1.0000e+00
      -13  1    1    2    0    0 +2.2163333622e+02 -4.4305276188e+02 +9.5322990297e+02 1.0742738633e+03 0.0000000000e+00 0.0000e+00 -1.0000e+00
       13  1    1    2    0    0 -2.2163333622e+02 +4.4305276188e+02 +9.1550697003e+02 1.0409467314e+03 0.0000000000e+00 0.0000e+00 1.0000e+00
<mgrwt>
<rscale>  0 0.99094938E+03</rscale>
<asrwt>0</asrwt>
<pdfrwt beam="1">  1        2 0.30645824E+00 0.99094938E+03</pdfrwt>
<pdfrwt beam="2">  1       -2 0.18960288E-01 0.99094938E+03</pdfrwt>
<totfact> 0.18370447E+02</totfact>
</mgrwt>
<rwgt>
<wgt id='morphing_basis_vector_1'> +2.3394960e-04 </wgt>
<wgt id='morphing_basis_vector_2'> +1.6670410e-04 </wgt>
<wgt id='morphing_basis_vector_3'> +2.2420836e-04 </wgt>
<wgt id='morphing_basis_vector_4'> +1.1867342e-04 </wgt>
<wgt id='morphing_basis_vector_5'> +2.0779016e-04 </wgt>
</rwgt>
</event>
<event>
 4      1 +1.4786900e-06 1.01516800e+03 7.81860800e-03 8.67012100e-02
        2 -1    0    0  501    0 +0.0000000000e+00 +0.0000000000e+00 +1.4540325048e+03 1.4540325048e+03 0.0000000000e+00 0.0000e+00 -1.0000e+00
       -2 -1    0    0    0  501 -0.0000000000e+00 -0.0000000000e+00 -1.7719086557e+02 1.7719086557e+02 0.0000000000e+00 0.0000e+00 1.0000e+00
      -13  1    1    2    0    0 +4.2509401605e+02 -2.7372651989e+02 +5.6637816235e+02 7.5922022692e+02 0.0000000000e+00 0.0000e+00 1.0000e+00
       13  1    1    2    0    0 -4.2509401605e+02 +2.7372651989e+02 +7.1046347685e+02 8.7200314341e+02 0.0000000000e+00 0.0000e+00 -1.0000e+00
<mgrwt>
<rscale>  0 0.10151675E+04</rscale>
<asrwt>0</asrwt>
<pdfrwt beam="1">  1        2 0.22369730E+00 0.10151675E+04</pdfrwt>
<pdfrwt beam="2">  1       -2 0.27260134E-01 0.10151675E+04</pdfrwt>
<totfact> 0.19651291E+02</totfact>
</mgrwt>
<rwgt>
<wgt id='morphing_basis_vector_1'> +2.5277657e-04 </wgt>
<wgt id='morphing_basis_vector_2'> +1.7365453e-04 </wgt>
<wgt id='morphing_basis_vector_3'> +2.4403711e-04 </wgt>
<wgt id='morphing_basis_vector_4'> +1.3638749e-04 </wgt>
<wgt id='morphing_basis_vector_5'> +2.3101719e-04 </wgt>
</rwgt>
</event>
<event>
 4      1 +1.4786900e-06 9.47684900e+02 7.81860800e-03 8.73588400e-02
        2 -1    0    0  501    0 +0.0000000000e+00 +0.0000000000e+00 +1.0274173235e+03 1.0274173235e+03 0.0000000000e+00 0.0000e+00 1.0000e+00
       -2 -1    0    0    0  501 -0.0000000000e+00 -0.0000000000e+00 -2.1853503360e+02 2.1853503360e+02 0.0000000000e+00 0.0000e+00 -1.0000e+00
      -13  1    1    2    0    0 -4.3733993166e+02 +7.6470154536e+01 +1.8676341700e+02 4.8165804705e+02 0.0000000000e+00 0.0000e+00 -1.0000e+00
       13  1    1    2    0    0 +4.3733993166e+02 -7.6470154536e+01 +6.2211887293e+02 7.6429431008e+02 0.0000000000e+00 0.0000e+00 1.0000e+00
<mgrwt>
<rscale>  0 0.94768493E+03</rscale>
<asrwt>0</asrwt>
<pdfrwt beam="1">  1        2 0.15806420E+00 0.94768493E+03</pdfrwt>
<pdfrwt beam="2">  1       -2 0.33620775E-01 0.94768493E+03</pdfrwt>
<totfact> 0.24065622E+02</totfact>
</mgrwt>
<rwgt>
<wgt id='morphing_basis_vector_1'> +1.9296014e-04 </wgt>
<wgt id='morphing_basis_vector_2'> +1.2377968e-04 </wgt>
<wgt id='morphing_basis_vector_3'> +1.8284137e-04 </wgt>
<wgt id='morphing_basis_vector_4'> +1.0609480e-04 </wgt>
<wgt id='morphing_basis_vector_5'> +1.7147602e-04 </wgt>
</rwgt>
</event>
<event>
 4      1 +1.4786900e-06 9.78668100e+02 7.81860800e-03 8.70500500e-02
        2 -1    0    0  501    0 +0.0000000000e+00 +0.0000000000e+00 +8.5759465945e+02 8.5759465945e+02 0.0000000000e+00 0.0000e+00 1.0000e+00
       -2 -1    0    0    0  501 -0.0000000000e+00 -0.0000000000e+00 -2.7920858325e+02 2.7920858325e+02 0.0000000000e+00 0.0000e+00 -1.0000e+00
      -13  1    1    2    0    0 -1.8326925029e+02 -3.2266100464e+02 -8.1331694687e+01 3.7988496493e+02 0.0000000000e+00 0.0000e+00 -1.0000e+00
       13  1    1    2    0    0 +1.8326925029e+02 +3.2266100464e+02 +6.5971777088e+02 7.5691827777e+02 0.0000000000e+00 0.0000e+00 1.0000e+00
<mgrwt>
<rscale>  0 0.97866805E+03</rscale>
<asrwt>0</asrwt>
<pdfrwt beam="1">  1        2 0.13193764E+00 0.97866805E+03</pdfrwt>
<pdfrwt beam="2">  1       -2 0.42955167E-01 0.97866805E+03</pdfrwt>
<totfact> 0.19625385E+02</totfact>
</mgrwt>
<rwgt>
<wgt id='morphing_basis_vector_1'> +2.1561330e-04 </wgt>
<wgt id='morphing_basis_vector_2'> +1.3526064e-04 </wgt>
<wgt id='morphing_basis_vector_3'> +2.0626659e-04 </wgt>
<wgt id='morphing_basis_vector_4'> +1.2435272e-04 </wgt>
<wgt id='morphing_basis_vector_5'> +1.9750947e-04 </wgt>
</rwgt>
</event>
<event>
 4      1 +1.4786900e-06 9.59481700e+02 7.81860800e-03 8.72398300e-02
        2 -1    0    0  501    0 +0.0000000000e+00 +0.0000000000e+00 +6.9414754209e+02 6.9414754209e+02 0.0000000000e+00 0.0000e+00 -1.0000e+00
       -2 -1    0    0    0  501 -0.0000000000e+00 -0.0000000000e+00 -3.3155960808e+02 3.3155960808e+02 0.0000000000e+00 0.0000e+00 1.0000e+00
      -13  1    1    2    0    0 +2.5812379090e+02 +1.7857817369e+02 +5.6914902093e+02 6.4996050924e+02 0.0000000000e+00 0.0000e+00 1.0000e+00
       13  1    1    2    0    0 -2.5812379090e+02 -1.7857817369e+02 -2.0656108692e+02 3.7574664094e+02 0.0000000000e+00 0.0000e+00 -1.0000e+00
<mgrwt>
<rscale>  0 0.95948171E+03</rscale>
<asrwt>0</asrwt>
<pdfrwt beam="1">  1        2 0.10679193E+00 0.95948171E+03</pdfrwt>
<pdfrwt beam="2">  1       -2 0.51009171E-01 0.95948171E+03</pdfrwt>
<totfact> 0.18444981E+02</totfact>
</mgrwt>
<rwgt>
<wgt id='morphing_basis_vector_1'> +2.6233543e-04 </wgt>
<wgt id='morphing_basis_vector_2'> +3.1307806e-04 </wgt>
<wgt id='morphing_basis_vector_3'> +2.4489978e-04 </wgt>
<wgt id='morphing_basis_vector_4'> +2.1402883e-05 </wgt>
<wgt id='morphing_basis_vector_5'> +1.7584994e-04 </wgt>
</rwgt>
</event>
<event>
 4      1 +1.4786900e-06 9.58626900e+02 7.81860800e-03 8.72484000e-02
        2 -1    0    0  501    0 +0.0000000000e+00 +0.0000000000e+00 +7.5617369073e+02 7.5617369073e+02 0.0000000000e+00 0.0000e+00 1.0000e+00
       -2 -1    0    0    0  501 -0.0000000000e+00 -0.0000000000e+00 -3.0382090369e+02 3.0382090369e+02 0.0000000000e+00 0.0000e+00 -1.0000e+00
      -13  1    1    2    0    0 -2.9463536539e+02 +2.5138700554e+02 -8.6058281299e+01 3.9675112208e+02 0.0000000000e+00 0.0000e+00 -1.0000e+00
       13  1    1    2    0    0 +2.9463536539e+02 -2.5138700554e+02 +5.3841106834e+02 6.6324347234e+02 0.0000000000e+00 0.0000e+00 1.0000e+00
<mgrwt>
<rscale>  0 0.95862688E+03</rscale>
<asrwt>0</asrwt>
<pdfrwt beam="1">  1        2 0.11633441E+00 0.95862688E+03</pdfrwt>
<pdfrwt beam="2">  1       -2 0.46741678E-01 0.95862688E+03</pdfrwt>
<totfact> 0.19665606E+02</totfact>
</mgrwt>
<rwgt>
<wgt id='morphing_basis_vector_1'> +1.9999382e-04 </wgt>
<wgt id='morphing_basis_vector_2'> +1.2548956e-04 </wgt>
<wgt id='morphing_basis_vector_3'> +1.9023211e-04 </wgt>
<wgt id='morphing_basis_vector_4'> +1.1341566e-04 </wgt>
<wgt id='morphing_basis_vector_5'> +1.8042725e-04 </wgt>
</rwgt>
</event>
<event>
 4      1 +1.4786900e-06 9.43787800e+02 7.81860800e-03 8.73985500e-02
        2 -1    0    0  501    0 +0.0000000000e+00 +0.0000000000e+00 +4.7144672040e+02 4.7144672040e+02 0.0000000000e+00 0.0000e+00 1.0000e+00
       -2 -1    0    0    0  501 -0.0000000000e+00 -0.0000000000e+00 -4.7234145558e+02 4.7234145558e+02 0.0000000000e+00 0.0000e+00 -1.0000e+00
      -13  1    1    2    0    0 +2.2740708246e+02 +3.1990331110e+02 -2.6242405018e+02 4.7214244854e+02 0.0000000000e+00 0.0000e+00 -1.0000e+00
       13  1    1    2    0    0 -2.2740708246e+02 -3.1990331110e+02 +2.6152931501e+02 4.7164572744e+02 0.0000000000e+00 0.0000e+00 1.0000e+00
<mgrwt>
<rscale>  0 0.94378775E+03</rscale>
<asrwt>0</asrwt>
<pdfrwt beam="1">  1        2 0.72530265E-01 0.94378775E+03</pdfrwt>
<pdfrwt beam="2">  1       -2 0.72667916E-01 0.94378775E+03</pdfrwt>
<totfact> 0.14012475E+02</totfact>
</mgrwt>
<rwgt>
<wgt id='morphing_basis_vector_1'> +1.8898669e-04 </wgt>
<wgt id='morphing_basis_vector_2'> +1.1856125e-04 </wgt>
<wgt id='morphing_basis_vector_3'> +1.7896206e-04 </wgt>
<wgt id='morphing_basis_vector_4'> +1.0581151e-04 </wgt>
<wgt id='morphing_basis_vector_5'> +1.6849392e-04 </wgt>
</rwgt>
</event>
<event>
 4      1 +1.4786900e-06 9.84991900e+02 7.81860800e-03 8.69884900e-02
        2 -1    0    0  501    0 +0.0000000000e+00 +0.0000000000e+00 +1.7689451844e+03 1.7689451844e+03 0.0000000000e+00 0.0000e+00 -1.0000e+00
       -2 -1    0    0    0  501 -0.0000000000e+00 -0.0000000000e+00 -1.3711689927e+02 1.3711689927e+02 0.0000000000e+00 0.0000e+00 1.0000e+00
      -13  1    1    2    0    0 +1.2039242965e+02 -4.6000100297e+02 +1.0641588224e+03 1.1655596334e+03 0.0000000000e+00 0.0000e+00 -1.0000e+00
       13  1    1    2    0    0 -1.2039242965e+02 +4.6000100297e+02 +5.6766946278e+02 7.4050245025e+02 0.0000000000e+00 0.0000e+00 1.0000e+00
<mgrwt>
<rscale>  0 0.98499194E+03</rscale>
<asrwt>0</asrwt>
<pdfrwt beam="1">  1        2 0.27214540E+00 0.98499194E+03</pdfrwt>
<pdfrwt beam="2">  1       -2 0.21094909E-01 0.98499194E+03</pdfrwt>
<totfact> 0.20431212E+02</totfact>
</mgrwt>
<rwgt>
<wgt id='morphing_basis_vector_1'> +2.3969762e-04 </wgt>
<wgt id='morphing_basis_vector_2'> +1.9593109e-04 </wgt>
<wgt id='morphing_basis_vector_3'> +2.2879087e-04 </wgt>
<wgt id='morphing_basis_vector_4'> +9.8976470e-05 </wgt>
<wgt id='morphing_basis_vector_5'> +2.0143472e-04 </wgt>
</rwgt>
</event>
<event>
 4      1 +1.4786900e-06 1.05744600e+03 7.81860800e-03 8.63156700e-02
        2 -1    0    0  501    0 +0.0000000000e+00 +0.0000000000e+00 +1.1219277099e+03 1.1219277099e+03 0.0000000000e+00 0.0000e+00 -1.0000e+00
       -2 -1    0    0    0  501 -0.0000000000e+00 -0.0000000000e+00 -2.4916768546e+02 2.4916768546e+02 0.0000000000e+00 0.0000e+00 1.0000e+00
      -13  1    1    2    0    0 +4.1678832045e+02 -5.2112785277e+01 +2.0008901660e+01 4.2050993162e+02 0.0000000000e+00 0.0000e+00 1.0000e+00
       13  1    1    2    0    0 -4.1678832045e+02 +5.2112785277e+01 +8.5275112279e+02 9.5058546374e+02 0.0000000000e+00 0.0000e+00 -1.0000e+00
<mgrwt>
<rscale>  0 0.10574462E+04</rscale>
<asrwt>0</asrwt>
<pdfrwt beam="1">  1        2 0.17260426E+00 0.10574462E+04</pdfrwt>
<pdfrwt beam="2">  1       -2 0.38333491E-01 0.10574462E+04</pdfrwt>
<totfact> 0.16490598E+02</totfact>
</mgrwt>
<rwgt>
<wgt id='morphing_basis_vector_1'> +2.8740362e-04 </wgt>
<wgt id='morphing_basis_vector_2'> +1.8270438e-04 </wgt>
<wgt id='morphing_basis_vector_3'> +2.8037608e-04 </wgt>
<wgt id='morphing_basis_vector_4'> +1.7328292e-04 </wgt>
<wgt id='morphing_basis_vector_5'> +2.7617587e-04 </wgt>
</rwgt>
</event>
<event>
 4      1 +1.4786900e-06 1.03277600e+03 7.81860800e-03 8.65383200e-02
        2 -1    0    0  501    0 +0.0000000000e+00 +0.0000000000e+00 +7.9618694379e+02 7.9618694379e+02 0.0000000000e+00 0.0000e+00 -1.0000e+00
       -2 -1    0    0    0  501 -0.0000000000e+00 -0.0000000000e+00 -3.3491711796e+02 3.3491711796e+02 0.0000000000e+00 0.0000e+00 1.0000e+00
      -13  1    1    2    0    0 +2.9491654955e+02 +3.6059863705e+02 -1.3401007608e+01 4.6603297657e+02 0.0000000000e+00 0.0000e+00 1.0000e+00
       13  1    1    2    0    0 -2.9491654955e+02 -3.6059863705e+02 +4.7467083344e+02 6.6507108519e+02 0.0000000000e+00 0.0000e+00 -1.0000e+00
<mgrwt>
<rscale>  0 0.10327761E+04</rscale>
<asrwt>0</asrwt>
<pdfrwt beam="1">  1        2 0.12249030E+00 0.10327761E+04</pdfrwt>
<pdfrwt beam="2">  1       -2 0.51525711E-01 0.10327761E+04</pdfrwt>
<totfact> 0.15159992E+02</totfact>
</mgrwt>
<rwgt>
<wgt id='morphing_basis_vector_1'> +2.6424522e-04 </wgt>
<wgt id='morphing_basis_vector_2'> +1.6982714e-04 </wgt>
<wgt id='morphing_basis_vector_3'> +2.5631496e-04 </wgt>
<wgt id='morphing_basis_vector_4'> +1.5501928e-04 </wgt>
<wgt id='morphing_basis_vector_5'> +2.4935059e-04 </wgt>
</rwgt>
</event>
<event>
 4      1 +1.4786900e-06 9.73941500e+02 7.81860800e-03 8.70963800e-02
        2 -1    0    0  501    0 +0.0000000000e+00 +0.0000000000e+00 +4.4541205814e+02 4.4541205814e+02 0.0000000000e+00 0.0000e+00 1.0000e+00
       -2 -1    0    0    0  501 -0.0000000000e+00 -0.0000000000e+00 -5.3240704581e+02 5.3240704581e+02 0.0000000000e+00 0.0000e+00 -1.0000e+00
      -13  1    1    2    0    0 -2.6806823970e+02 -1.0418720090e+02 +3.5103646894e+02 4.5380850200e+02 0.0000000000e+00 0.0000e+00 1.0000e+00
       13  1    1    2    0    0 +2.6806823970e+02 +1.0418720090e+02 -4.3803145661e+02 5.2401060194e+02 0.0000000000e+00 0.0000e+00 -1.0000e+00
<mgrwt>
<rscale>  0 0.97394151E+03</rscale>
<asrwt>0</asrwt>
<pdfrwt beam="1">  1        2 0.68524932E-01 0.97394151E+03</pdfrwt>
<pdfrwt beam="2">  1       -2 0.81908776E-01 0.97394151E+03</pdfrwt>
<totfact> 0.11424532E+02</totfact>
</mgrwt>
<rwgt>
<wgt id='morphing_basis_vector_1'> +2.8151536e-04 </wgt>
<wgt id='morphing_basis_vector_2'> +3.4412790e-04 </wgt>
<wgt id='morphing_basis_vector_3'> +2.6477209e-04 </wgt>
<wgt id='morphing_basis_vector_4'> +1.6111597e-05 </wgt>
<wgt id='morphing_basis_vector_5'> +1.8724943e-04 </wgt>
</rwgt>
</event>
<event>
 4      1 +1.4786900e-06 9.02993800e+02 7.81860800e-03 8.78266600e-02
        2 -1    0    0  501    0 +0.0000000000e+00 +0.0000000000e+00 +9.9654123508e+02 9.9654123508e+02 0.0000000000e+00 0.0000e+00 -1.0000e+00
       -2 -1    0    0    0  501 -0.0000000000e+00 -0.0000000000e+00 -2.0455698686e+02 2.0455698686e+02 0.0000000000e+00 0.0000e+00 1.0000e+00
      -13  1    1    2    0    0 +3.0384393391e+02 +1.1013982553e+02 -2.3362642120e+01 3.2403353281e+02 0.0000000000e+00 0.0000e+00 1.0000e+00
       13  1    1    2    0    0 -3.0384393391e+02 -1.1013982553e+02 +8.1534689033e+02 8.7706468913e+02 0.0000000000e+00 0.0000e+00 -1.0000e+00
<mgrwt>
<rscale>  0 0.90299385E+03</rscale>
<asrwt>0</asrwt>
<pdfrwt beam="1">  1        2 0.15331403E+00 0.90299385E+03</pdfrwt>
<pdfrwt beam="2">  1       -2 0.31470306E-01 0.90299385E+03</pdfrwt>
<totfact> 0.28380153E+02</totfact>
</mgrwt>
<rwgt>
<wgt id='morphing_basis_vector_1'> +1.6054615e-04 </wgt>
<wgt id='morphing_basis_vector_2'> +9.9251714e-05 </wgt>
<wgt id='morphing_basis_vector_3'> +1.5009616e-04 </wgt>
<wgt id='morphing_basis_vector_4'> +8.7669862e-05 </wgt>
<wgt id='morphing_basis_vector_5'> +1.3869298e-04 </wgt>
</rwgt>
</event>
<event>
 4      1 +1.4786900e-06 9.27194200e+02 7.81860800e-03 8.75699100e-02
        2 -1    0    0  501    0 +0.0000000000e+00 +0.0000000000e+00 +3.0349238108e+02 3.0349238108e+02 0.0000000000e+00 0.0000e+00 1.0000e+00
       -2 -1    0    0    0  501 -0.0000000000e+00 -0.0000000000e+00 -7.0816360560e+02 7.0816360560e+02 0.0000000000e+00 0.0000e+00 -1.0000e+00
      -13  1    1    2    0    0 -1.6875643741e+02 +1.0139109624e+02 +2.5561639406e+02 3.2264319376e+02 0.0000000000e+00 0.0000e+00 1.0000e+00
       13  1    1    2    0    0 +1.6875643741e+02 -1.0139109624e+02 -6.6028761858e+02 6.8901279293e+02 0.0000000000e+00 0.0000e+00 -1.0000e+00
<mgrwt>
<rscale>  0 0.92719417E+03</rscale>
<asrwt>0</asrwt>
<pdfrwt beam="1">  1        2 0.46691136E-01 0.92719417E+03</pdfrwt>
<pdfrwt beam="2">  1       -2 0.10894825E+00 0.92719417E+03</pdfrwt>
<totfact> 0.89722468E+01</totfact>
</mgrwt>
<rwgt>
<wgt id='morphing_basis_vector_1'> +2.3974302e-04 </wgt>
<wgt id='morphing_basis_vector_2'> +3.0112900e-04 </wgt>
<wgt id='morphing_basis_vector_3'> +2.1871419e-04 </wgt>
<wgt id='morphing_basis_vector_4'> +6.5911216e-06 </wgt>
<wgt id='morphing_basis_vector_5'> +1.5083536e-04 </wgt>
</rwgt>
</event>
<event>
 4      1 +1.4786900e-06 1.00861800e+03 7.81860800e-03 8.67626700e-02
        2 -1    0    0  501    0 +0.0000000000e+00 +0.0000000000e+00 +6.5053530706e+02 6.5053530706e+02 0.0000000000e+00 0.0000e+00 -1.0000e+00
       -2 -1    0    0    0  501 -0.0000000000e+00 -0.0000000000e+00 -3.9095093682e+02 3.9095093682e+02 0.0000000000e+00 0.0000e+00 1.0000e+00
      -13  1    1    2    0    0 +2.9235968901e+01 -4.6886308923e+02 -5.9597049816e+01 4.7353896003e+02 0.0000000000e+00 0.0000e+00 1.0000e+00
       13  1    1    2    0    0 -2.9235968901e+01 +4.6886308923e+02 +3.1918142005e+02 5.6794728385e+02 0.0000000000e+00 0.0000e+00 -1.0000e+00
<mgrwt>
<rscale>  0 0.10086176E+04</rscale>
<asrwt>0</asrwt>
<pdfrwt beam="1">  1        2 0.10008235E+00 0.10086176E+04</pdfrwt>
<pdfrwt beam="2">  1       -2 0.60146298E-01 0.10086176E+04</pdfrwt>
<totfact> 0.14284474E+02</totfact>
</mgrwt>
<rwgt>
<wgt id='morphing_basis_vector_1'> +2.4259840e-04 </wgt>
<wgt id='morphing_basis_vector_2'> +1.5671544e-04 </wgt>
<wgt id='morphing_basis_vector_3'> +2.3388580e-04 </wgt>
<wgt id='morphing_basis_vector_4'> +1.3915547e-04 </wgt>
<wgt id='morphing_basis_vector_5'> +2.2502014e-04 </wgt>
</rwgt>
</event>
<event>
 4      1 +1.4786900e-06 9.10556700e+02 7.81860800e-03 8.77455300e-02
        2 -1    0    0  501    0 +0.0000000000e+00 +0.0000000000e+00 +8.9832711055e+02 8.9832711055e+02 0.0000000000e+00 0.0000e+00 -1.0000e+00
       -2 -1    0    0    0  501 -0.0000000000e+00 -0.0000000000e+00 -2.3073817772e+02 2.3073817772e+02 0.0000000000e+00 0.0000e+00 1.0000e+00
      -13  1    1    2    0    0 +2.0392225473e+02 -3.2132018297e+02 +2.3931760707e+01 3.8131833830e+02 0.0000000000e+00 0.0000e+00 1.0000e+00
       13  1    1    2    0    0 -2.0392225473e+02 +3.2132018297e+02 +6.4365717212e+02 7.4774694997e+02 0.0000000000e+00 0.0000e+00 -1.0000e+00
<mgrwt>
<rscale>  0 0.91055667E+03</rscale>
<asrwt>0</asrwt>
<pdfrwt beam="1">  1        2 0.13820417E+00 0.91055667E+03</pdfrwt>
<pdfrwt beam="2">  1       -2 0.35498182E-01 0.91055667E+03</pdfrwt>
<totfact> 0.26381284E+02</totfact>
</mgrwt>
<rwgt>
<wgt id='morphing_basis_vector_1'> +1.6583063e-04 </wgt>
<wgt id='morphing_basis_vector_2'> +1.0348895e-04 </wgt>
<wgt id='morphing_basis_vector_3'> +1.5538186e-04 </wgt>
<wgt id='morphing_basis_vector_4'> +9.0445264e-05 </wgt>
<wgt id='morphing_basis_vector_5'> +1.4388140e-04 </wgt>
</rwgt>
</event>
<event>
 4      1 +1.4786900e-06 9.00880400e+02 7.81860800e-03 8.78494900e-02
        2 -1    0    0  501    0 +0.0000000000e+00 +0.0000000000e+00 +2.2500887740e+02 2.2500887740e+02 0.0000000000e+00 0.0000e+00 -1.0000e+00
       -2 -1    0    0    0  501 -0.0000000000e+00 -0.0000000000e+00 -9.0172604112e+02 9.0172604112e+02 0.0000000000e+00 0.0000e+00 1.0000e+00
      -13  1    1    2    0    0 -2.3078956801e+02 +3.3933898125e+02 -5.7060461299e+02 7.0285446094e+02 0.0000000000e+00 0.0000e+00 1.0000e+00
       13  1    1    2    0    0 +2.3078956801e+02 -3.3933898125e+02 -1.0611255074e+02 4.2388045758e+02 0.0000000000e+00 0.0000e+00 -1.0000e+00
<mgrwt>
<rscale>  0 0.90088038E+03</rscale>
<asrwt>0</asrwt>
<pdfrwt beam="1">  1        2 0.34616750E-01 0.90088038E+03</pdfrwt>
<pdfrwt beam="2">  1       -2 0.13872708E+00 0.90088038E+03</pdfrwt>
<totfact> 0.67004101E+01</totfact>
</mgrwt>
<rwgt>
<wgt id='morphing_basis_vector_1'> +1.6005232e-04 </wgt>
<wgt id='morphing_basis_vector_2'> +1.0101010e-04 </wgt>
<wgt id='morphing_basis_vector_3'> +1.4939946e-04 </wgt>
<wgt id='morphing_basis_vector_4'> +8.5538936e-05 </wgt>
<wgt id='morphing_basis_vector_5'> +1.3719529e-04 </wgt>
</rwgt>
</event>
<event>
 4      1 +1.4786900e-06 9.55179300e+02 7.81860800e-03 8.72830300e-02
        2 -1    0    0  501    0 +0.0000000000e+00 +0.0000000000e+00 +1.2035002301e+03 1.2035002301e+03 0.0000000000e+00 0.0000e+00 -1.0000e+00
       -2 -1    0    0    0  501 -0.0000000000e+00 -0.0000000000e+00 -1.8952373151e+02 1.8952373151e+02 0.0000000000e+00 0.0000e+00 1.0000e+00
      -13  1    1    2    0    0 -2.5693889278e+01 -4.7630098247e+02 +4.7219860990e+02 6.7118874323e+02 0.0000000000e+00 0.0000e+00 1.0000e+00
       13  1    1    2    0    0 +2.5693889278e+01 +4.7630098247e+02 +5.4177788873e+02 7.2183521843e+02 0.0000000000e+00 0.0000e+00 -1.0000e+00
<mgrwt>
<rscale>  0 0.95517926E+03</rscale>
<asrwt>0</asrwt>
<pdfrwt beam="1">  1        2 0.18515388E+00 0.95517926E+03</pdfrwt>
<pdfrwt beam="2">  1       -2 0.29157498E-01 0.95517926E+03</pdfrwt>
<totfact> 0.24338521E+02</totfact>
</mgrwt>
<rwgt>
<wgt id='morphing_basis_vector_1'> +2.0270064e-04 </wgt>
<wgt id='morphing_basis_vector_2'> +1.3995877e-04 </wgt>
<wgt id='morphing_basis_vector_3'> +1.9218082e-04 </wgt>
<wgt id='morphing_basis_vector_4'> +1.0368737e-04 </wgt>
<wgt id='morphing_basis_vector_5'> +1.7715084e-04 </wgt>
</rwgt>
</event>
<event>
 4      1 +1.4786900e-06 9.57857800e+02 7.81860800e-03 8.72561100e-02
        2 -1    0    0  501    0 +0.0000000000e+00 +0.0000000000e+00 +7.3196956304e+02 7.3196956304e+02 0.0000000000e+00 0.0000e+00 1.0000e+00
       -2 -1    0    0    0  501 -0.0000000000e+00 -0.0000000000e+00 -3.1336395879e+02 3.1336395879e+02 0.0000000000e+00 0.0000e+00 -1.0000e+00
      -13  1    1    2    0    0 -2.1754153663e+02 +1.4503105914e+02 -2.2860875980e+02 3.4730432380e+02 0.0000000000e+00 0.0000e+00 -1.0000e+00
       13  1    1    2    0    0 +2.1754153663e+02 -1.4503105914e+02 +6.4721436405e+02 6.9802919803e+02 0.0000000000e+00 0.0000e+00 1.0000e+00
<mgrwt>
<rscale>  0 0.95785778E+03</rscale>
<asrwt>0</asrwt>
<pdfrwt beam="1">  1        2 0.11261070E+00 0.95785778E+03</pdfrwt>
<pdfrwt beam="2">  1       -2 0.48209840E-01 0.95785778E+03</pdfrwt>
<totfact> 0.19293043E+02</totfact>
</mgrwt>
<rwgt>
<wgt id='morphing_basis_vector_1'> +1.9894516e-04 </wgt>
<wgt id='morphing_basis_vector_2'> +1.2370817e-04 </wgt>
<wgt id='morphing_basis_vector_3'> +1.8922814e-04 </wgt>
<wgt id='morphing_basis_vector_4'> +1.1370988e-04 </wgt>
<wgt id='morphing_basis_vector_5'> +1.7983386e-04 </wgt>
</rwgt>
</event>
<event>
 4      1 +1.4786900e-06 1.01412900e+03 7.81860800e-03 8.67109200e-02
        2 -1    0    0  501    0 +0.0000000000e+00 +0.0000000000e+00 +1.3502073100e+03 1.3502073100e+03 0.0000000000e+00 0.0000e+00 -1.0000e+00
       -2 -1    0    0    0  501 -0.0000000000e+00 -0.0000000000e+00 -1.9042577028e+02 1.9042577028e+02 0.0000000000e+00 0.0000e+00 1.0000e+00
      -13  1    1    2    0    0 +1.2239173380e+01 +3.0705396963e+02 -3.2849362844e+01 3.0904856943e+02 0.0000000000e+00 0.0000e+00 1.0000e+00
       13  1    1    2    0    0 -1.2239173380e+01 -3.0705396963e+02 +1.1926309025e+03 1.2315845108e+03 0.0000000000e+00 0.0000e+00 -1.0000e+00
<mgrwt>
<rscale>  0 0.10141287E+04</rscale>
<asrwt>0</asrwt>
<pdfrwt beam="1">  1        2 0.20772420E+00 0.10141287E+04</pdfrwt>
<pdfrwt beam="2">  1       -2 0.29296273E-01 0.10141287E+04</pdfrwt>
<totfact> 0.19812944E+02</totfact>
</mgrwt>
<rwgt>
<wgt id='morphing_basis_vector_1'> +2.4559768e-04 </wgt>
<wgt id='morphing_basis_vector_2'> +1.5414689e-04 </wgt>
<wgt id='morphing_basis_vector_3'> +2.3715083e-04 </wgt>
<wgt id='morphing_basis_vector_4'> +1.4549240e-04 </wgt>
<wgt id='morphing_basis_vector_5'> +2.3058086e-04 </wgt>
</rwgt>
</event>
<event>
 4      1 +1.4786900e-06 9.00231600e+02 7.81860800e-03 8.78565100e-02
        2 -1    0    0  501    0 +0.0000000000e+00 +0.0000000000e+00 +5.2802037866e+02 5.2802037866e+02 0.0000000000e+00 0.0000e+00 1.0000e+00
       -2 -1    0    0    0  501 -0.0000000000e+00 -0.0000000000e+00 -3.8370529543e+02 3.8370529543e+02 0.0000000000e+00 0.0000e+00 -1.0000e+00
      -13  1    1    2    0    0 +1.8127555746e+02 +4.4984766861e+00 -3.4507722939e+02 3.8981964838e+02 0.0000000000e+00 0.0000e+00 -1.0000e+00
       13  1    1    2    0    0 -1.8127555746e+02 -4.4984766861e+00 +4.8939231262e+02 5.2190602571e+02 0.0000000000e+00 0.0000e+00 1.0000e+00
<mgrwt>
<rscale>  0 0.90023156E+03</rscale>
<asrwt>0</asrwt>
<pdfrwt beam="1">  1        2 0.81233904E-01 0.90023156E+03</pdfrwt>
<pdfrwt beam="2">  1       -2 0.59031584E-01 0.90023156E+03</pdfrwt>
<totfact> 0.19089828E+02</totfact>
</mgrwt>
<rwgt>
<wgt id='morphing_basis_vector_1'> +1.5858587e-04 </wgt>
<wgt id='morphing_basis_vector_2'> +9.7543733e-05 </wgt>
<wgt id='morphing_basis_vector_3'> +1.4815236e-04 </wgt>
<wgt id='morphing_basis_vector_4'> +8.6759943e-05 </wgt>
<wgt id='morphing_basis_vector_5'> +1.3683678e-04 </wgt>
</rwgt>
</event>
<event>
 4      1 +1.4786900e-06 9.27031500e+02 7.81860800e-03 8.75716100e-02
        2 -1    0    0  501    0 +0.0000000000e+00 +0.0000000000e+00 +2.0574878413e+02 2.0574878413e+02 0.0000000000e+00 0.0000e+00 1.0000e+00
       -2 -1    0    0    0  501 -0.0000000000e+00 -0.0000000000e+00 -1.0442193803e+03 1.0442193803e+03 0.0000000000e+00 0.0000e+00 -1.0000e+00
      -13  1    1    2    0    0 +2.0984303799e+02 +3.6782294142e+02 -6.7335311763e+02 7.9544467931e+02 0.0000000000e+00 0.0000e+00 -1.0000e+00
       13  1    1    2    0    0 -2.0984303799e+02 -3.6782294142e+02 -1.6511747857e+02 4.5452348515e+02 0.0000000000e+00 0.0000e+00 1.0000e+00
<mgrwt>
<rscale>  0 0.92703154E+03</rscale>
<asrwt>0</asrwt>
<pdfrwt beam="1">  1        2 0.31653659E-01 0.92703154E+03</pdfrwt>
<pdfrwt beam="2">  1       -2 0.16064914E+00 0.92703154E+03</pdfrwt>
<totfact> 0.48792721E+01</totfact>
</mgrwt>
<rwgt>
<wgt id='morphing_basis_vector_1'> +1.7765813e-04 </wgt>
<wgt id='morphing_basis_vector_2'> +1.1271022e-04 </wgt>
<wgt id='morphing_basis_vector_3'> +1.6728678e-04 </wgt>
<wgt id='morphing_basis_vector_4'> +9.6909097e-05 </wgt>
<wgt id='morphing_basis_vector_5'> +1.5567922e-04 </wgt>
</rwgt>
</event>
<event>
 4      1 +1.4786900e-06 9.37636400e+02 7.81860800e-03 8.74616400e-02
        2 -1    0    0  501    0 +0.0000000000e+00 +0.0000000000e+00 +6.6008219854e+02 6.6008219854e+02 0.0000000000e+00 0.0000e+00 -1.0000e+00
       -2 -1    0    0    0  501 -0.0000000000e+00 -0.0000000000e+00 -3.3297442008e+02 3.3297442008e+02 0.0000000000e+00 0.0000e+00 1.0000e+00
      -13  1    1    2    0    0 +1.1339624410e+02 -1.3745846243e+02 -2.9570880373e+02 3.4524952379e+02 0.0000000000e+00 0.0000e+00 1.0000e+00
       13  1    1    2    0    0 -1.1339624410e+02 +1.3745846243e+02 +6.2281658219e+02 6.4780709484e+02 0.0000000000e+00 0.0000e+00 -1.0000e+00
<mgrwt>
<rscale>  0 0.93763636E+03</rscale>
<asrwt>0</asrwt>
<pdfrwt beam="1">  1        2 0.10155111E+00 0.93763636E+03</pdfrwt>
<pdfrwt beam="2">  1       -2 0.51226834E-01 0.93763636E+03</pdfrwt>
<totfact> 0.19468458E+02</totfact>
</mgrwt>
<rwgt>
<wgt id='morphing_basis_vector_1'> +1.8394106e-04 </wgt>
<wgt id='morphing_basis_vector_2'> +1.1388590e-04 </wgt>
<wgt id='morphing_basis_vector_3'> +1.7391499e-04 </wgt>
<wgt id='morphing_basis_vector_4'> +1.0368857e-04 </wgt>
<wgt id='morphing_basis_vector_5'> +1.6377086e-04 </wgt>
</rwgt>
</event>
<event>
 4      1 +1.4786900e-06 9.69218000e+02 7.81860800e-03 8.71429500e-02
        2 -1    0    0  501    0 +0.0000000000e+00 +0.0000000000e+00 +7.5227125746e+02 7.5227125746e+02 0.0000000000e+00 0.0000e+00 -1.0000e+00
       -2 -1    0    0    0  501 -0.0000000000e+00 -0.0000000000e+00 -3.1218244175e+02 3.1218244175e+02 0.0000000000e+00 0.0000e+00 1.0000e+00
      -13  1    1    2    0    0 +1.3081936544e+00 +3.5922681996e+02 -1.3718620882e+02 3.8453306157e+02 0.0000000000e+00 0.0000e+00 1.0000e+00
       13  1    1    2    0    0 -1.3081936544e+00 -3.5922681996e+02 +5.7727502452e+02 6.7992063764e+02 0.0000000000e+00 0.0000e+00 -1.0000e+00
<mgrwt>
<rscale>  0 0.96921799E+03</rscale>
<asrwt>0</asrwt>
<pdfrwt beam="1">  1        2 0.11573404E+00 0.96921799E+03</pdfrwt>
<pdfrwt beam="2">  1       -2 0.48028068E-01 0.96921799E+03</pdfrwt>
<totfact> 0.18768857E+02</totfact>
</mgrwt>
<rwgt>
<wgt id='morphing_basis_vector_1'> +2.0800379e-04 </wgt>
<wgt id='morphing_basis_vector_2'> +1.3018458e-04 </wgt>
<wgt id='morphing_basis_vector_3'> +1.9846772e-04 </wgt>
<wgt id='morphing_basis_vector_4'> +1.1930152e-04 </wgt>
<wgt id='morphing_basis_vector_5'> +1.8932562e-04 </wgt>
</rwgt>
</event>
<event>
 4      1 +1.4786900e-06 9.95878800e+02 7.81860800e-03 8.68836200e-02
        2 -1    0    0  501    0 +0.0000000000e+00 +0.0000000000e+00 +5.4771500230e+02 5.4771500230e+02 0.0000000000e+00 0.0000e+00 1.0000e+00
       -2 -1    0    0    0  501 -0.0000000000e+00 -0.0000000000e+00 -4.5268733743e+02 4.5268733743e+02 0.0000000000e+00 0.0000e+00 -1.0000e+00
      -13  1    1    2    0    0 +1.5334452844e+02 -1.6726852185e+02 -3.9772661187e+02 4.5790802635e+02 0.0000000000e+00 0.0000e+00 -1.0000e+00
       13  1    1    2    0    0 -1.5334452844e+02 +1.6726852185e+02 +4.9275427674e+02 5.4249431338e+02 0.0000000000e+00 0.0000e+00 1.0000e+00
<mgrwt>
<rscale>  0 0.99587880E+03</rscale>
<asrwt>0</asrwt>
<pdfrwt beam="1">  1        2 0.84263847E-01 0.99587880E+03</pdfrwt>
<pdfrwt beam="2">  1       -2 0.69644206E-01 0.99587880E+03</pdfrwt>
<totfact> 0.12886454E+02</totfact>
</mgrwt>
<rwgt>
<wgt id='morphing_basis_vector_1'> +2.2955958e-04 </wgt>
<wgt id='morphing_basis_vector_2'> +1.4349123e-04 </wgt>
<wgt id='morphing_basis_vector_3'> +2.2063885e-04 </wgt>
<wgt id='morphing_basis_vector_4'> +1.3466337e-04 </wgt>
<wgt id='morphing_basis_vector_5'> +2.1311492e-04 </wgt>
</rwgt>
</event>
<event>
 4      1 +1.4786900e-06 1.04695800e+03 7.81860800e-03 8.64095500e-02
        2 -1    0    0  501    0 +0.0000000000e+00 +0.0000000000e+00 +1.2604043843e+03 1.2604043843e+03 0.0000000000e+00 0.0000e+00 -1.0000e+00
       -2 -1    0    0    0  501 -0.0000000000e+00 -0.0000000000e+00 -2.1741465719e+02 2.1741465719e+02 0.0000000000e+00 0.0000e+00 1.0000e+00
      -13  1    1    2    0    0 -3.9219059406e+02 -7.9869358975e+01 +4.5244667477e+01 4.0278984161e+02 0.0000000000e+00 0.0000e+00 1.0000e+00
       13  1    1    2    0    0 +3.9219059406e+02 +7.9869358975e+01 +9.9774505962e+02 1.0750291999e+03 0.0000000000e+00 0.0000e+00 -1.0000e+00
<mgrwt>
<rscale>  0 0.10469582E+04</rscale>
<asrwt>0</asrwt>
<pdfrwt beam="1">  1        2 0.19390836E+00 0.10469582E+04</pdfrwt>
<pdfrwt beam="2">  1       -2 0.33448410E-01 0.10469582E+04</pdfrwt>
<totfact> 0.17564655E+02</totfact>
</mgrwt>
<rwgt>
<wgt id='morphing_basis_vector_1'> +2.7679383e-04 </wgt>
<wgt id='morphing_basis_vector_2'> +1.7538688e-04 </wgt>
<wgt id='morphing_basis_vector_3'> +2.6938068e-04 </wgt>
<wgt id='morphing_basis_vector_4'> +1.6626042e-04 </wgt>
<wgt id='morphing_basis_vector_5'> +2.6458301e-04 </wgt>
</rwgt>
</event>
<event>
 4      1 +1.4786900e-06 9.37496300e+02 7.81860800e-03 8.74630800e-02
        2 -1    0    0  501    0 +0.0000000000e+00 +0.0000000000e+00 +2.6376228437e+03 2.6376228437e+03 0.0000000000e+00 0.0000e+00 -1.0000e+00
       -2 -1    0    0    0  501 -0.0000000000e+00 -0.0000000000e+00 -8.3304106815e+01 8.3304106815e+01 0.0000000000e+00 0.0000e+00 1.0000e+00
      -13  1    1    2    0    0 +1.6854378833e+02 -4.2511242075e+02 +9.7838479094e+02 1.0799835082e+03 0.0000000000e+00 0.0000e+00 1.0000e+00
       13  1    1    2    0    0 -1.6854378833e+02 +4.2511242075e+02 +1.5759339459e+03 1.6409434423e+03 0.0000000000e+00 0.0000e+00 -1.0000e+00
<mgrwt>
<rscale>  0 0.93749627E+03</rscale>
<asrwt>0</asrwt>
<pdfrwt beam="1">  1        2 0.40578807E+00 0.93749627E+03</pdfrwt>
<pdfrwt beam="2">  1       -2 0.12816018E-01 0.93749627E+03</pdfrwt>
<totfact> 0.14863937E+02</totfact>
</mgrwt>
<rwgt>
<wgt id='morphing_basis_vector_1'> +1.8667307e-04 </wgt>
<wgt id='morphing_basis_vector_2'> +1.2242476e-04 </wgt>
<wgt id='morphing_basis_vector_3'> +1.7620185e-04 </wgt>
<wgt id='morphing_basis_vector_4'> +9.9452183e-05 </wgt>
<wgt id='morphing_basis_vector_5'> +1.6343132e-04 </wgt>
</rwgt>
</event>
<event>
 4      1 +1.4786900e-06 9.70096900e+02 7.81860800e-03 8.71342700e-02
        2 -1    0    0  501    0 +0.0000000000e+00 +0.0000000000e+00 +1.9033326082e+03 1.9033326082e+03 0.0000000000e+00 0.0000e+00 1.0000e+00
       -2 -1    0    0    0  501 -0.0000000000e+00 -0.0000000000e+00 -1.2361054278e+02 1.2361054278e+02 0.0000000000e+00 0.0000e+00 -1.0000e+00
      -13  1    1    2    0    0 +3.0771701992e+02 +1.2073051574e+02 +1.4817056682e+02 3.6224320373e+02 0.0000000000e+00 0.0000e+00 -1.0000e+00
       13  1    1    2    0    0 -3.0771701992e+02 -1.2073051574e+02 +1.6315514986e+03 1.6646999473e+03 0.0000000000e+00 0.0000e+00 1.0000e+00
<mgrwt>
<rscale>  0 0.97009685E+03</rscale>
<asrwt>0</asrwt>
<pdfrwt beam="1">  1        2 0.29282038E+00 0.97009685E+03</pdfrwt>
<pdfrwt beam="2">  1       -2 0.19017008E-01 0.97009685E+03</pdfrwt>
<totfact> 0.20505662E+02</totfact>
</mgrwt>
<rwgt>
<wgt id='morphing_basis_vector_1'> +2.0857769e-04 </wgt>
<wgt id='morphing_basis_vector_2'> +1.3027161e-04 </wgt>
<wgt id='morphing_basis_vector_3'> +1.9907222e-04 </wgt>
<wgt id='morphing_basis_vector_4'> +1.1995364e-04 </wgt>
<wgt id='morphing_basis_vector_5'> +1.9008702e-04 </wgt>
</rwgt>
</event>
<event>
 4      1 +1.4786900e-06 9.42823000e+02 7.81860800e-03 8.74084100e-02
        2 -1    0    0  501    0 +0.0000000000e+00 +0.0000000000e+00 +1.3129510357e+03 1.3129510357e+03 0.0000000000e+00 0.0000e+00 -1.0000e+00
       -2 -1    0    0    0  501 -0.0000000000e+00 -0.0000000000e+00 -1.6925900253e+02 1.6925900253e+02 0.0000000000e+00 0.0000e+00 1.0000e+00
      -13  1    1    2    0    0 +1.3837764615e+02 +2.9076126110e+02 +3.0582261845e+01 3.2345905251e+02 0.0000000000e+00 0.0000e+00 1.0000e+00
       13  1    1    2    0    0 -1.3837764615e+02 -2.9076126110e+02 +1.1131097713e+03 1.1587509857e+03 0.0000000000e+00 0.0000e+00 -1.0000e+00
<mgrwt>
<rscale>  0 0.94282296E+03</rscale>
<asrwt>0</asrwt>
<pdfrwt beam="1">  1        2 0.20199246E+00 0.94282296E+03</pdfrwt>
<pdfrwt beam="2">  1       -2 0.26039847E-01 0.94282296E+03</pdfrwt>
<totfact> 0.25669643E+02</totfact>
</mgrwt>
<rwgt>
<wgt id='morphing_basis_vector_1'> +1.8785913e-04 </wgt>
<wgt id='morphing_basis_vector_2'> +1.1682004e-04 </wgt>
<wgt id='morphing_basis_vector_3'> +1.7788229e-04 </wgt>
<wgt id='morphing_basis_vector_4'> +1.0596398e-04 </wgt>
<wgt id='morphing_basis_vector_5'> +1.6777402e-04 </wgt>
</rwgt>
</event>
<event>
 4      1 +1.4786900e-06 9.13016000e+02 7.81860800e-03 8.77193200e-02
        2 -1    0    0  501    0 +0.0000000000e+00 +0.0000000000e+00 +8.7234813007e+02 8.7234813007e+02 0.0000000000e+00 0.0000e+00 1.0000e+00
       -2 -1    0    0    0  501 -0.0000000000e+00 -0.0000000000e+00 -2.3889493902e+02 2.3889493902e+02 0.0000000000e+00 0.0000e+00 -1.0000e+00
      -13  1    1    2    0    0 -9.1640436225e+01 -3.2712059945e+02 -5.4430215798e+01 3.4404724171e+02 0.0000000000e+00 0.0000e+00 -1.0000e+00
       13  1    1    2    0    0 +9.1640436225e+01 +3.2712059945e+02 +6.8788340684e+02 7.6719582738e+02 0.0000000000e+00 0.0000e+00 1.0000e+00
<mgrwt>
<rscale>  0 0.91301600E+03</rscale>
<asrwt>0</asrwt>
<pdfrwt beam="1">  1        2 0.13420740E+00 0.91301600E+03</pdfrwt>
<pdfrwt beam="2">  1       -2 0.36753068E-01 0.91301600E+03</pdfrwt>
<totfact> 0.25749183E+02</totfact>
</mgrwt>
<rwgt>
<wgt id='morphing_basis_vector_1'> +1.6717318e-04 </wgt>
<wgt id='morphing_basis_vector_2'> +1.0366378e-04 </wgt>
<wgt id='morphing_basis_vector_3'> +1.5680631e-04 </wgt>
<wgt id='morphing_basis_vector_4'> +9.1942646e-05 </wgt>
<wgt id='morphing_basis_vector_5'> +1.4562975e-04 </wgt>
</rwgt>
</event>
<event>
 4      1 +1.4786900e-06 9.50155800e+02 7.81860800e-03 8.73337600e-02
        2 -1    0    0  501    0 +0.0000000000e+00 +0.0000000000e+00 +2.3746656443e+02 2.3746656443e+02 0.0000000000e+00 0.0000e+00 -1.0000e+00
       -2 -1    0    0    0  501 -0.0000000000e+00 -0.0000000000e+00 -9.5044535950e+02 9.5044535950e+02 0.0000000000e+00 0.0000e+00 1.0000e+00
      -13  1    1    2    0    0 -6.4254634793e+01 -3.0793412251e+02 -8.0158994482e+02 8.6110308415e+02 0.0000000000e+00 0.0000e+00 1.0000e+00
       13  1    1    2    0    0 +6.4254634793e+01 +3.0793412251e+02 +8.8611149751e+01 3.2680883978e+02 0.0000000000e+00 0.0000e+00 -1.0000e+00
<mgrwt>
<rscale>  0 0.95015576E+03</rscale>
<asrwt>0</asrwt>
<pdfrwt beam="1">  1        2 0.36533318E-01 0.95015576E+03</pdfrwt>
<pdfrwt beam="2">  1       -2 0.14622236E+00 0.95015576E+03</pdfrwt>
<totfact> 0.54230254E+01</totfact>
</mgrwt>
<rwgt>
<wgt id='morphing_basis_vector_1'> +1.9323772e-04 </wgt>
<wgt id='morphing_basis_vector_2'> +1.2024192e-04 </wgt>
<wgt id='morphing_basis_vector_3'> +1.8337864e-04 </wgt>
<wgt id='morphing_basis_vector_4'> +1.0964240e-04 </wgt>
<wgt id='morphing_basis_vector_5'> +1.7357690e-04 </wgt>
</rwgt>
</event>
<event>
 4      1 +1.4786900e-06 9.37199100e+02 7.81860800e-03 8.74661400e-02
        2 -1    0    0  501    0 +0.0000000000e+00 +0.0000000000e+00 +3.4499360936e+02 3.4499360936e+02 0.0000000000e+00 0.0000e+00 1.0000e+00
       -2 -1    0    0    0  501 -0.0000000000e+00 -0.0000000000e+00 -6.3649155864e+02 6.3649155864e+02 0.0000000000e+00 0.0000e+00 -1.0000e+00
      -13  1    1    2    0    0 -2.9739894604e+02 +1.0200440968e+02 +2.1813888579e+02 3.8266905570e+02 0.0000000000e+00 0.0000e+00 1.0000e+00
       13  1    1    2    0    0 +2.9739894604e+02 -1.0200440968e+02 -5.0963683507e+02 5.9881611231e+02 0.0000000000e+00 0.0000e+00 -1.0000e+00
<mgrwt>
<rscale>  0 0.93719906E+03</rscale>
<asrwt>0</asrwt>
<pdfrwt beam="1">  1        2 0.53075941E-01 0.93719906E+03</pdfrwt>
<pdfrwt beam="2">  1       -2 0.97921777E-01 0.93719906E+03</pdfrwt>
<totfact> 0.10078942E+02</totfact>
</mgrwt>
<rwgt>
<wgt id='morphing_basis_vector_1'> +2.3943622e-04 </wgt>
<wgt id='morphing_basis_vector_2'> +2.8320716e-04 </wgt>
<wgt id='morphing_basis_vector_3'> +2.2064702e-04 </wgt>
<wgt id='morphing_basis_vector_4'> +2.1359920e-05 </wgt>
<wgt id='morphing_basis_vector_5'> +1.5886679e-04 </wgt>
</rwgt>
</event>
<event>
 4      1 +1.4786900e-06 9.99178600e+02 7.81860800e-03 8.68521100e-02
        2 -1    0    0  501    0 +0.0000000000e+00 +0.0000000000e+00 +8.3821590942e+01 8.3821590942e+01 0.0000000000e+00 0.0000e+00 -1.0000e+00
       -2 -1    0    0    0  501 -0.0000000000e+00 -0.0000000000e+00 -2.9776276125e+03 2.9776276125e+03 0.0000000000e+00 0.0000e+00 1.0000e+00
      -13  1    1    2    0    0 +1.3519658927e+02 -4.6425027828e+02 -1.8318308479e+03 1.8945740139e+03 0.0000000000e+00 0.0000e+00 1.0000e+00
       13  1    1    2    0    0 -1.3519658927e+02 +4.6425027828e+02 -1.0619751737e+03 1.1668751896e+03 0.0000000000e+00 0.0000e+00 -1.0000e+00
<mgrwt>
<rscale>  0 0.99917863E+03</rscale>
<asrwt>0</asrwt>
<pdfrwt beam="1">  1        2 0.12895630E-01 0.99917863E+03</pdfrwt>
<pdfrwt beam="2">  1       -2 0.45809654E+00 0.99917863E+03</pdfrwt>
<totfact> 0.13385270E+00</totfact>
</mgrwt>
<rwgt>
<wgt id='morphing_basis_vector_1'> +2.3552096e-04 </wgt>
<wgt id='morphing_basis_vector_2'> +1.5483194e-04 </wgt>
<wgt id='morphing_basis_vector_3'> +2.2645739e-04 </wgt>
<wgt id='morphing_basis_vector_4'> +1.3175491e-04 </wgt>
<wgt id='morphing_basis_vector_5'> +2.1591191e-04 </wgt>
</rwgt>
</event>
<event>
 4      1 +1.4786900e-06 9.77641300e+02 7.81860800e-03 8.70600900e-02
        2 -1    0    0  501    0 +0.0000000000e+00 +0.0000000000e+00 +7.1423451015e+02 7.1423451015e+02 0.0000000000e+00 0.0000e+00 -1.0000e+00
       -2 -1    0    0    0  501 -0.0000000000e+00 -0.0000000000e+00 -3.3454786895e+02 3.3454786895e+02 0.0000000000e+00 0.0000e+00 1.0000e+00
      -13  1    1    2    0    0 -1.0530290057e+02 +3.8552337554e+02 -1.1211499271e+02 4.1507438556e+02 0.0000000000e+00 0.0000e+00 1.0000e+00
       13  1    1    2    0    0 +1.0530290057e+02 -3.8552337554e+02 +4.9180163391e+02 6.3370799354e+02 0.0000000000e+00 0.0000e+00 -1.0000e+00
<mgrwt>
<rscale>  0 0.97764131E+03</rscale>
<asrwt>0</asrwt>
<pdfrwt beam="1">  1        2 0.10988223E+00 0.97764131E+03</pdfrwt>
<pdfrwt beam="2">  1       -2 0.51468903E-01 0.97764131E+03</pdfrwt>
<totfact> 0.17477996E+02</totfact>
</mgrwt>
<rwgt>
<wgt id='morphing_basis_vector_1'> +2.1501632e-04 </wgt>
<wgt id='morphing_basis_vector_2'> +1.3542953e-04 </wgt>
<wgt id='morphing_basis_vector_3'> +2.0562425e-04 </wgt>
<wgt id='morphing_basis_vector_4'> +1.2343167e-04 </wgt>
<wgt id='morphing_basis_vector_5'> +1.9658679e-04 </wgt>
</rwgt>
</event>
<event>
 4      1 +1.4786900e-06 9.72714200e+02 7.81860800e-03 8.71084500e-02
        2 -1    0    0  501    0 +0.0000000000e+00 +0.0000000000e+00 +1.3062964670e+03 1.3062964670e+03 0.0000000000e+00 0.0000e+00 1.0000e+00
       -2 -1    0    0    0  501 -0.0000000000e+00 -0.0000000000e+00 -1.8107927427e+02 1.8107927427e+02 0.0000000000e+00 0.0000e+00 -1.0000e+00
      -13  1    1    2    0    0 +2.6498078169e+02 +4.0741573999e+02 +5.9083760798e+02 7.6504344900e+02 0.0000000000e+00 0.0000e+00 -1.0000e+00
       13  1    1    2    0    0 -2.6498078169e+02 -4.0741573999e+02 +5.3437958474e+02 7.2233229226e+02 0.0000000000e+00 0.0000e+00 1.0000e+00
<mgrwt>
<rscale>  0 0.97271417E+03</rscale>
<asrwt>0</asrwt>
<pdfrwt beam="1">  1        2 0.20096868E+00 0.97271417E+03</pdfrwt>
<pdfrwt beam="2">  1       -2 0.27858351E-01 0.97271417E+03</pdfrwt>
<totfact> 0.22983941E+02</totfact>
</mgrwt>
<rwgt>
<wgt id='morphing_basis_vector_1'> +2.1906296e-04 </wgt>
<wgt id='morphing_basis_vector_2'> +1.5711569e-04 </wgt>
<wgt id='morphing_basis_vector_3'> +2.0871558e-04 </wgt>
<wgt id='morphing_basis_vector_4'> +1.0863170e-04 </wgt>
<wgt id='morphing_basis_vector_5'> +1.9159812e-04 </wgt>
</rwgt>
</event>
<event>
 4      1 +1.4786900e-06 9.40240500e+02 7.81860800e-03 8.74348700e-02
        2 -1    0    0  501    0 +0.0000000000e+00 +0.0000000000e+00 +2.0369525785e+03 2.0369525785e+03 0.0000000000e+00 0.0000e+00 1.0000e+00
       -2 -1    0    0    0  501 -0.0000000000e+00 -0.0000000000e+00 -1.0850180381e+02 1.0850180381e+02 0.0000000000e+00 0.0000e+00 -1.0000e+00
      -13  1    1    2    0    0 -1.4799877147e+02 -2.8263427198e+02 +1.7633076865e+02 3.6452477011e+02 0.0000000000e+00 0.0000e+00 -1.0000e+00
       13  1    1    2    0    0 +1.4799877147e+02 +2.8263427198e+02 +1.7521200060e+03 1.7809296122e+03 0.0000000000e+00 0.0000e+00 1.0000e+00
<mgrwt>
<rscale>  0 0.94024046E+03</rscale>
<asrwt>0</asrwt>
<pdfrwt beam="1">  1        2 0.31337729E+00 0.94024046E+03</pdfrwt>
<pdfrwt beam="2">  1       -2 0.16692587E-01 0.94024046E+03</pdfrwt>
<totfact> 0.21485369E+02</totfact>
</mgrwt>
<rwgt>
<wgt id='morphing_basis_vector_1'> +1.8597674e-04 </wgt>
<wgt id='morphing_basis_vector_2'> +1.1558444e-04 </wgt>
<wgt id='morphing_basis_vector_3'> +1.7596295e-04 </wgt>
<wgt id='morphing_basis_vector_4'> +1.0471390e-04 </wgt>
<wgt id='morphing_basis_vector_5'> +1.6576571e-04 </wgt>
</rwgt>
</event>
<event>
 4      1 +1.4786900e-06 1.02888900e+03 7.81860800e-03 8.65739800e-02
        2 -1    0    0  501    0 +0.0000000000e+00 +0.0000000000e+00 +9.0779929085e+02 9.0779929085e+02 0.0000000000e+00 0.0000e+00 -1.0000e+00
       -2 -1    0    0    0  501 -0.0000000000e+00 -0.0000000000e+00 -2.9153266615e+02 2.9153266615e+02 0.0000000000e+00 0.0000e+00 1.0000e+00
      -13  1    1    2    0    0 -1.2388566194e+02 -1.1025322826e+02 -2.5951870150e+02 3.0798277225e+02 0.0000000000e+00 0.0000e+00 1.0000e+00
       13  1    1    2    0    0 +1.2388566194e+02 +1.1025322826e+02 +8.7578532620e+02 8.9134918475e+02 0.0000000000e+00 0.0000e+00 -1.0000e+00
<mgrwt>
<rscale>  0 0.10288890E+04</rscale>
<asrwt>0</asrwt>
<pdfrwt beam="1">  1        2 0.13966143E+00 0.10288890E+04</pdfrwt>
<pdfrwt beam="2">  1       -2 0.44851180E-01 0.10288890E+04</pdfrwt>
<totfact> 0.16697074E+02</totfact>
</mgrwt>
<rwgt>
<wgt id='morphing_basis_vector_1'> +2.5898608e-04 </wgt>
<wgt id='morphing_basis_vector_2'> +1.6258410e-04 </wgt>
<wgt id='morphing_basis_vector_3'> +2.5098218e-04 </wgt>
<wgt id='morphing_basis_vector_4'> +1.5502544e-04 </wgt>
<wgt id='morphing_basis_vector_5'> +2.4547327e-04 </wgt>
</rwgt>
</event>
<event>
 4      1 +1.4786900e-06 9.13716400e+02 7.81860800e-03 8.77118700e-02
        2 -1    0    0  501    0 +0.0000000000e+00 +0.0000000000e+00 +1.6562380813e+03 1.6562380813e+03 0.0000000000e+00 0.0000e+00 1.0000e+00
       -2 -1    0    0    0  501 -0.0000000000e+00 -0.0000000000e+00 -1.2602017186e+02 1.2602017186e+02 0.0000000000e+00 0.0000e+00 -1.0000e+00
      -13  1    1    2    0    0 +3.1511142994e+02 -9.7168897063e+01 +1.3818757723e+03 1.4206750712e+03 0.0000000000e+00 0.0000e+00 1.0000e+00
       13  1    1    2    0    0 -3.1511142994e+02 +9.7168897063e+01 +1.4834213717e+02 3.6158318199e+02 0.0000000000e+00 0.0000e+00 -1.0000e+00
<mgrwt>
<rscale>  0 0.91371638E+03</rscale>
<asrwt>0</asrwt>
<pdfrwt beam="1">  1        2 0.25480584E+00 0.91371638E+03</pdfrwt>
<pdfrwt beam="2">  1       -2 0.19387720E-01 0.91371638E+03</pdfrwt>
<totfact> 0.27289218E+02</totfact>
</mgrwt>
<rwgt>
<wgt id='morphing_basis_vector_1'> +2.1422087e-04 </wgt>
<wgt id='morphing_basis_vector_2'> +2.4563847e-04 </wgt>
<wgt id='morphing_basis_vector_3'> +1.9487219e-04 </wgt>
<wgt id='morphing_basis_vector_4'> +2.5137024e-05 </wgt>
<wgt id='morphing_basis_vector_5'> +1.4250598e-04 </wgt>
</rwgt>
</event>
<event>
 4      1 +1.4786900e-06 9.71033700e+02 7.81860800e-03 8.71250200e-02
        2 -1    0    0  501    0 +0.0000000000e+00 +0.0000000000e+00 +1.5557046342e+03 1.5557046342e+03 0.0000000000e+00 0.0000e+00 -1.0000e+00
       -2 -1    0    0    0  501 -0.0000000000e+00 -0.0000000000e+00 -1.5152400631e+02 1.5152400631e+02 0.0000000000e+00 0.0000e+00 1.0000e+00
      -13  1    1    2    0    0 +2.6413973444e+02 +2.9272737632e+01 -1.2292191650e+01 2.6604095635e+02 0.0000000000e+00 0.0000e+00 1.0000e+00
       13  1    1    2    0    0 -2.6413973444e+02 -2.9272737632e+01 +1.4164728196e+03 1.4411876842e+03 0.0000000000e+00 0.0000e+00 -1.0000e+00
<mgrwt>
<rscale>  0 0.97103367E+03</rscale>
<asrwt>0</asrwt>
<pdfrwt beam="1">  1        2 0.23933916E+00 0.97103367E+03</pdfrwt>
<pdfrwt beam="2">  1       -2 0.23311387E-01 0.97103367E+03</pdfrwt>
<totfact> 0.22653607E+02</totfact>
</mgrwt>
<rwgt>
<wgt id='morphing_basis_vector_1'> +2.0918685e-04 </wgt>
<wgt id='morphing_basis_vector_2'> +1.3035195e-04 </wgt>
<wgt id='morphing_basis_vector_3'> +1.9971433e-04 </wgt>
<wgt id='morphing_basis_vector_4'> +1.2065740e-04 </wgt>
<wgt id='morphing_basis_vector_5'> +1.9090146e-04 </wgt>
</rwgt>
</event>
<event>
 4      1 +1.4786900e-06 9.13848200e+02 7.81860800e-03 8.77104700e-02
        2 -1    0    0  501    0 +0.0000000000e+00 +0.0000000000e+00 +1.6759486424e+03 1.6759486424e+03 0.0000000000e+00 0.0000e+00 -1.0000e+00
       -2 -1    0    0    0  501 -0.0000000000e+00 -0.0000000000e+00 -1.2457400659e+02 1.2457400659e+02 0.0000000000e+00 0.0000e+00 1.0000e+00
      -13  1    1    2    0    0 +5.8727914870e+01 -3.8258277678e+02 +2.9726958493e+02 4.8804482909e+02 0.0000000000e+00 0.0000e+00 1.0000e+00
       13  1    1    2    0    0 -5.8727914870e+01 +3.8258277678e+02 +1.2541050509e+03 1.3124778199e+03 0.0000000000e+00 0.0000e+00 -1.0000e+00
<mgrwt>
<rscale>  0 0.91384821E+03</rscale>
<asrwt>0</asrwt>
<pdfrwt beam="1">  1        2 0.25783824E+00 0.91384821E+03</pdfrwt>
<pdfrwt beam="2">  1       -2 0.19165233E-01 0.91384821E+03</pdfrwt>
<totfact> 0.27131594E+02</totfact>
</mgrwt>
<rwgt>
<wgt id='morphing_basis_vector_1'> +1.6807958e-04 </wgt>
<wgt id='morphing_basis_vector_2'> +1.0509132e-04 </wgt>
<wgt id='morphing_basis_vector_3'> +1.5765351e-04 </wgt>
<wgt id='morphing_basis_vector_4'> +9.1804486e-05 </wgt>
<wgt id='morphing_basis_vector_5'> +1.4618991e-04 </wgt>
</rwgt>
</event>
<event>
 4      1 +1.4786900e-06 1.04527000e+03 7.81860800e-03 8.64247700e-02
        2 -1    0    0  501    0 +0.0000000000e+00 +0.0000000000e+00 +1.4204768394e+03 1.4204768394e+03 0.0000000000e+00 0.0000e+00 -1.0000e+00
       -2 -1    0    0    0  501 -0.0000000000e+00 -0.0000000000e+00 -1.9229268513e+02 1.9229268513e+02 0.0000000000e+00 0.0000e+00 1.0000e+00
      -13  1    1    2    0    0 +4.0315065860e+02 -1.9569525042e+02 +1.0290210152e+03 1.1223686268e+03 0.0000000000e+00 0.0000e+00 1.0000e+00
       13  1    1    2    0    0 -4.0315065860e+02 +1.9569525042e+02 +1.9916313904e+02 4.9040089776e+02 0.0000000000e+00 0.0000e+00 -1.0000e+00
<mgrwt>
<rscale>  0 0.10452699E+04</rscale>
<asrwt>0</asrwt>
<pdfrwt beam="1">  1        2 0.21853489E+00 0.10452699E+04</pdfrwt>
<pdfrwt beam="2">  1       -2 0.29583491E-01 0.10452699E+04</pdfrwt>
<totfact> 0.17740736E+02</totfact>
</mgrwt>
<rwgt>
<wgt id='morphing_basis_vector_1'> +3.2634212e-04 </wgt>
<wgt id='morphing_basis_vector_2'> +3.2902699e-04 </wgt>
<wgt id='morphing_basis_vector_3'> +3.1804808e-04 </wgt>
<wgt id='morphing_basis_vector_4'> +8.3657948e-05 </wgt>
<wgt id='morphing_basis_vector_5'> +2.5770489e-04 </wgt>
</rwgt>
</event>
<event>
 4      1 +1.4786900e-06 9.55893100e+02 7.81860800e-03 8.72758500e-02
        2 -1    0    0  501    0 +0.0000000000e+00 +0.0000000000e+00 +5.8265461171e+02 5.8265461171e+02 0.0000000000e+00 0.0000e+00 -1.0000e+00
       -2 -1    0    0    0  501 -0.0000000000e+00 -0.0000000000e+00 -3.9205539669e+02 3.9205539669e+02 0.0000000000e+00 0.0000e+00 1.0000e+00
      -13  1    1    2    0    0 +3.2756669683e+02 -1.6785492428e+02 -2.1559180683e+02 4.2656188725e+02 0.0000000000e+00 0.0000e+00 1.0000e+00
       13  1    1    2    0    0 -3.2756669683e+02 +1.6785492428e+02 +4.0619102185e+02 5.4814812114e+02 0.0000000000e+00 0.0000e+00 -1.0000e+00
<mgrwt>
<rscale>  0 0.95589306E+03</rscale>
<asrwt>0</asrwt>
<pdfrwt beam="1">  1        2 0.89639170E-01 0.95589306E+03</pdfrwt>
<pdfrwt beam="2">  1       -2 0.60316215E-01 0.95589306E+03</pdfrwt>
<totfact> 0.16239989E+02</totfact>
</mgrwt>
<rwgt>
<wgt id='morphing_basis_vector_1'> +1.9777029e-04 </wgt>
<wgt id='morphing_basis_vector_2'> +1.2370668e-04 </wgt>
<wgt id='morphing_basis_vector_3'> +1.8797815e-04 </wgt>
<wgt id='morphing_basis_vector_4'> +1.1222363e-04 </wgt>
<wgt id='morphing_basis_vector_5'> +1.7819746e-04 </wgt>
</rwgt>
</event>
<event>
 4      1 +1.4786900e-06 1.00329700e+03 7.81860800e-03 8.68129600e-02
        2 -1    0    0  501    0 +0.0000000000e+00 +0.0000000000e+00 +9.7827095034e+02 9.7827095034e+02 0.0000000000e+00 0.0000e+00 -1.0000e+00
       -2 -1    0    0    0  501 -0.0000000000e+00 -0.0000000000e+00 -2.5724102509e+02 2.5724102509e+02 0.0000000000e+00 0.0000e+00 1.0000e+00
      -13  1    1    2    0    0 +2.0002829575e+02 -3.9655180075e+02 +7.3328534698e+01 4.5015744332e+02 0.0000000000e+00 0.0000e+00 1.0000e+00
       13  1    1    2    0    0 -2.0002829575e+02 +3.9655180075e+02 +6.4770139056e+02 7.8535453211e+02 0.0000000000e+00 0.0000e+00 -1.0000e+00
<mgrwt>
<rscale>  0 0.10032974E+04</rscale>
<asrwt>0</asrwt>
<pdfrwt beam="1">  1        2 0.15050322E+00 0.10032974E+04</pdfrwt>
<pdfrwt beam="2">  1       -2 0.39575543E-01 0.10032974E+04</pdfrwt>
<totfact> 0.19089394E+02</totfact>
</mgrwt>
<rwgt>
<wgt id='morphing_basis_vector_1'> +2.3713980e-04 </wgt>
<wgt id='morphing_basis_vector_2'> +1.5126840e-04 </wgt>
<wgt id='morphing_basis_vector_3'> +2.2832624e-04 </wgt>
<wgt id='morphing_basis_vector_4'> +1.3719370e-04 </wgt>
<wgt id='morphing_basis_vector_5'> +2.1998639e-04 </wgt>
</rwgt>
</event>
<event>
 4      1 +1.4786900e-06 9.81574000e+02 7.81860800e-03 8.70217000e-02
        2 -1    0    0  501    0 +0.0000000000e+00 +0.0000000000e+00 +4.6019200407e+02 4.6019200407e+02 0.0000000000e+00 0.0000e+00 -1.0000e+00
       -2 -1    0    0    0  501 -0.0000000000e+00 -0.0000000000e+00 -5.2341606217e+02 5.2341606217e+02 0.0000000000e+00 0.0000e+00 1.0000e+00
      -13  1    1    2    0    0 +3.5508216515e+02 -3.2013041681e+02 -1.4277006795e+02 4.9894901551e+02 0.0000000000e+00 0.0000e+00 1.0000e+00
       13  1    1    2    0    0 -3.5508216515e+02 +3.2013041681e+02 +7.9546009848e+01 4.8465905073e+02 0.0000000000e+00 0.0000e+00 -1.0000e+00
<mgrwt>
<rscale>  0 0.98157401E+03</rscale>
<asrwt>0</asrwt>
<pdfrwt beam="1">  1        2 0.70798770E-01 0.98157401E+03</pdfrwt>
<pdfrwt beam="2">  1       -2 0.80525548E-01 0.98157401E+03</pdfrwt>
<totfact> 0.11438382E+02</totfact>
</mgrwt>
<rwgt>
<wgt id='morphing_basis_vector_1'> +2.2089041e-04 </wgt>
<wgt id='morphing_basis_vector_2'> +1.4562388e-04 </wgt>
<wgt id='morphing_basis_vector_3'> +2.1133216e-04 </wgt>
<wgt id='morphing_basis_vector_4'> +1.2152462e-04 </wgt>
<wgt id='morphing_basis_vector_5'> +1.9981893e-04 </wgt>
</rwgt>
</event>
<event>
 4      1 +1.4786900e-06 1.01363300e+03 7.81860800e-03 8.67155600e-02
        2 -1    0    0  501    0 +0.0000000000e+00 +0.0000000000e+00 +1.7679657522e+03 1.7679657522e+03 0.0000000000e+00 0.0000e+00 -1.0000e+00
       -2 -1    0    0    0  501 -0.0000000000e+00 -0.0000000000e+00 -1.4528732900e+02 1.4528732900e+02 0.0000000000e+00 0.0000e+00 1.0000e+00
      -13  1    1    2    0    0 +2.6473163256e+02 -2.5078191576e+02 +1.4697331431e+02 3.9316098696e+02 0.0000000000e+00 0.0000e+00 1.0000e+00
       13  1    1    2    0    0 -2.6473163256e+02 +2.5078191576e+02 +1.4757051089e+03 1.5200920942e+03 0.0000000000e+00 0.0000e+00 -1.0000e+00
<mgrwt>
<rscale>  0 0.10136331E+04</rscale>
<asrwt>0</asrwt>
<pdfrwt beam="1">  1        2 0.27199472E+00 0.10136331E+04</pdfrwt>
<pdfrwt beam="2">  1       -2 0.22351898E-01 0.10136331E+04</pdfrwt>
<totfact> 0.18514956E+02</totfact>
</mgrwt>
<rwgt>
<wgt id='morphing_basis_vector_1'> +2.4534231e-04 </wgt>
<wgt id='morphing_basis_vector_2'> +1.5442854e-04 </wgt>
<wgt id='morphing_basis_vector_3'> +2.3687143e-04 </wgt>
<wgt id='morphing_basis_vector_4'> +1.4489199e-04 </wgt>
<wgt id='morphing_basis_vector_5'> +2.3007521e-04 </wgt>
</rwgt>
</event>
<event>
 4      1 +1.4786900e-06 9.29753700e+02 7.81860800e-03 8.75432300e-02
        2 -1    0    0  501    0 +0.0000000000e+00 +0.0000000000e+00 +1.5832201358e+03 1.5832201358e+03 0.0000000000e+00 0.0000e+00 -1.0000e+00
       -2 -1    0    0    0  501 -0.0000000000e+00 -0.0000000000e+00 -1.3650058753e+02 1.3650058753e+02 0.0000000000e+00 0.0000e+00 1.0000e+00
      -13  1    1    2    0    0 +3.4114257727e+02 +9.5217691198e+01 +1.6641543505e+02 3.9132948237e+02 0.0000000000e+00 0.0000e+00 1.0000e+00
       13  1    1    2    0    0 -3.4114257727e+02 -9.5217691198e+01 +1.2803041132e+03 1.3283912410e+03 0.0000000000e+00 0.0000e+00 -1.0000e+00
<mgrwt>
<rscale>  0 0.92975369E+03</rscale>
<asrwt>0</asrwt>
<pdfrwt beam="1">  1        2 0.24357232E+00 0.92975369E+03</pdfrwt>
<pdfrwt beam="2">  1       -2 0.21000092E-01 0.92975369E+03</pdfrwt>
<totfact> 0.26166498E+02</totfact>
</mgrwt>
<rwgt>
<wgt id='morphing_basis_vector_1'> +1.7866225e-04 </wgt>
<wgt id='morphing_basis_vector_2'> +1.1121637e-04 </wgt>
<wgt id='morphing_basis_vector_3'> +1.6847995e-04 </wgt>
<wgt id='morphing_basis_vector_4'> +9.9485069e-05 </wgt>
<wgt id='morphing_basis_vector_5'> +1.5777530e-04 </wgt>
</rwgt>
</event>
<event>
 4      1 +1.4786900e-06 1.00550700e+03 7.81860800e-03 8.67920400e-02
        2 -1    0    0  501    0 +0.0000000000e+00 +0.0000000000e+00 +7.2991119652e+02 7.2991119652e+02 0.0000000000e+00 0.0000e+00 1.0000e+00
       -2 -1    0    0    0  501 -0.0000000000e+00 -0.0000000000e+00 -3.4628989499e+02 3.4628989499e+02 0.0000000000e+00 0.0000e+00 -1.0000e+00
      -13  1    1    2    0    0 +2.6174470040e+02 +2.4389537709e+02 -1.8624522269e+02 4.0333921967e+02 0.0000000000e+00 0.0000e+00 -1.0000e+00
       13  1    1    2    0    0 -2.6174470040e+02 -2.4389537709e+02 +5.6986652422e+02 6.7286187184e+02 0.0000000000e+00 0.0000e+00 1.0000e+00
<mgrwt>
<rscale>  0 0.10055066E+04</rscale>
<asrwt>0</asrwt>
<pdfrwt beam="1">  1        2 0.11229403E+00 0.10055066E+04</pdfrwt>
<pdfrwt beam="2">  1       -2 0.53275369E-01 0.10055066E+04</pdfrwt>
<totfact> 0.15861581E+02</totfact>
</mgrwt>
<rwgt>
<wgt id='morphing_basis_vector_1'> +2.3812331e-04 </wgt>
<wgt id='morphing_basis_vector_2'> +1.4966620e-04 </wgt>
<wgt id='morphing_basis_vector_3'> +2.2943067e-04 </wgt>
<wgt id='morphing_basis_vector_4'> +1.3997920e-04 </wgt>
<wgt id='morphing_basis_vector_5'> +2.2218470e-04 </wgt>
</rwgt>
</event>
<event>
 4      1 +1.4786900e-06 9.02023200e+02 7.81860800e-03 8.78371400e-02
        2 -1    0    0  501    0 +0.0000000000e+00 +0.0000000000e+00 +2.3348547109e+03 2.3348547109e+03 0.0000000000e+00 0.0000e+00 -1.0000e+00
       -2 -1    0    0    0  501 -0.0000000000e+00 -0.0000000000e+00 -8.7119541250e+01 8.7119541250e+01 0.0000000000e+00 0.0000e+00 1.0000e+00
      -13  1    1    2    0    0 -7.3712728753e+01 +4.4488882804e+02 +1.1431990997e+03 1.2289279137e+03 0.0000000000e+00 0.0000e+00 1.0000e+00
       13  1    1    2    0    0 +7.3712728753e+01 -4.4488882804e+02 +1.1045360700e+03 1.1930463384e+03 0.0000000000e+00 0.0000e+00 -1.0000e+00
<mgrwt>
<rscale>  0 0.90202322E+03</rscale>
<asrwt>0</asrwt>
<pdfrwt beam="1">  1        2 0.35920837E+00 0.90202322E+03</pdfrwt>
<pdfrwt beam="2">  1       -2 0.13403008E-01 0.90202322E+03</pdfrwt>
<totfact> 0.20889686E+02</totfact>
</mgrwt>
<rwgt>
<wgt id='morphing_basis_vector_1'> +1.6573102e-04 </wgt>
<wgt id='morphing_basis_vector_2'> +1.1653184e-04 </wgt>
<wgt id='morphing_basis_vector_3'> +1.5404223e-04 </wgt>
<wgt id='morphing_basis_vector_4'> +7.8977072e-05 </wgt>
<wgt id='morphing_basis_vector_5'> +1.3759505e-04 </wgt>
</rwgt>
</event>
<event>
 4      1 +1.4786900e-06 9.21581300e+02 7.81860800e-03 8.76287200e-02
        2 -1    0    0  501    0 +0.0000000000e+00 +0.0000000000e+00 +1.1358718156e+03 1.1358718156e+03 0.0000000000e+00 0.0000e+00 1.0000e+00
       -2 -1    0    0    0  501 -0.0000000000e+00 -0.0000000000e+00 -1.8692956510e+02 1.8692956510e+02 0.0000000000e+00 0.0000e+00 -1.0000e+00
      -13  1    1    2    0    0 +3.2503732857e+02 +1.5359740882e+02 +6.0732119539e+01 3.6459541866e+02 0.0000000000e+00 0.0000e+00 -1.0000e+00
       13  1    1    2    0    0 -3.2503732857e+02 -1.5359740882e+02 +8.8821013097e+02 9.5820596205e+02 0.0000000000e+00 0.0000e+00 1.0000e+00
<mgrwt>
<rscale>  0 0.92158130E+03</rscale>
<asrwt>0</asrwt>
<pdfrwt beam="1">  1        2 0.17474951E+00 0.92158130E+03</pdfrwt>
<pdfrwt beam="2">  1       -2 0.28758395E-01 0.92158130E+03</pdfrwt>
<totfact> 0.27376182E+02</totfact>
</mgrwt>
<rwgt>
<wgt id='morphing_basis_vector_1'> +1.7304807e-04 </wgt>
<wgt id='morphing_basis_vector_2'> +1.0768875e-04 </wgt>
<wgt id='morphing_basis_vector_3'> +1.6275734e-04 </wgt>
<wgt id='morphing_basis_vector_4'> +9.5647465e-05 </wgt>
<wgt id='morphing_basis_vector_5'> +1.5175129e-04 </wgt>
</rwgt>
</event>
<event>
 4      1 +1.4786900e-06 1.03640300e+03 7.81860800e-03 8.65051800e-02
        2 -1    0    0  501    0 +0.0000000000e+00 +0.0000000000e+00 +7.0306225285e+02 7.0306225285e+02 0.0000000000e+00 0.0000e+00 -1.0000e+00
       -2 -1    0    0    0  501 -0.0000000000e+00 -0.0000000000e+00 -3.8194760978e+02 3.8194760978e+02 0.0000000000e+00 0.0000e+00 1.0000e+00
      -13  1    1    2    0    0 +1.3752581183e+02 -2.6599314927e+02 -2.8220464454e+02 4.1146708954e+02 0.0000000000e+00 0.0000e+00 1.0000e+00
       13  1    1    2    0    0 -1.3752581183e+02 +2.6599314927e+02 +6.0331928760e+02 6.7354277308e+02 0.0000000000e+00 0.0000e+00 -1.0000e+00
<mgrwt>
<rscale>  0 0.10364033E+04</rscale>
<asrwt>0</asrwt>
<pdfrwt beam="1">  1        2 0.10816342E+00 0.10364033E+04</pdfrwt>
<pdfrwt beam="2">  1       -2 0.58761171E-01 0.10364033E+04</pdfrwt>
<totfact> 0.13608643E+02</totfact>
</mgrwt>
<rwgt>
<wgt id='morphing_basis_vector_1'> +2.6617861e-04 </wgt>
<wgt id='morphing_basis_vector_2'> +1.6751030e-04 </wgt>
<wgt id='morphing_basis_vector_3'> +2.5841208e-04 </wgt>
<wgt id='morphing_basis_vector_4'> +1.5979131e-04 </wgt>
<wgt id='morphing_basis_vector_5'> +2.5330331e-04 </wgt>
</rwgt>
</event>
<event>
 4      1 +1.4786900e-06 9.32009700e+02 7.81860800e-03 8.75197900e-02
        2 -1    0    0  501    0 +0.0000000000e+00 +0.0000000000e+00 +1.4373152509e+03 1.4373152509e+03 0.0000000000e+00 0.0000e+00 -1.0000e+00
       -2 -1    0    0    0  501 -0.0000000000e+00 -0.0000000000e+00 -1.5108759612e+02 1.5108759612e+02 0.0000000000e+00 0.0000e+00 1.0000e+00
      -13  1    1    2    0    0 -1.8632342775e+02 -4.2661444292e+02 +6.0719424999e+02 7.6511512850e+02 0.0000000000e+00 0.0000e+00 1.0000e+00
       13  1    1    2    0    0 +1.8632342775e+02 +4.2661444292e+02 +6.7903340478e+02 8.2328771851e+02 0.0000000000e+00 0.0000e+00 -1.0000e+00
<mgrwt>
<rscale>  0 0.93200967E+03</rscale>
<asrwt>0</asrwt>
<pdfrwt beam="1">  1        2 0.22112541E+00 0.93200967E+03</pdfrwt>
<pdfrwt beam="2">  1       -2 0.23244247E-01 0.93200967E+03</pdfrwt>
<totfact> 0.26560456E+02</totfact>
</mgrwt>
<rwgt>
<wgt id='morphing_basis_vector_1'> +1.8535961e-04 </wgt>
<wgt id='morphing_basis_vector_2'> +1.2777163e-04 </wgt>
<wgt id='morphing_basis_vector_3'> +1.7436529e-04 </wgt>
<wgt id='morphing_basis_vector_4'> +9.3059764e-05 </wgt>
<wgt id='morphing_basis_vector_5'> +1.5905367e-04 </wgt>
</rwgt>
</event>
<event>
 4      1 +1.4786900e-06 1.04393800e+03 7.81860800e-03 8.64367900e-02
        2 -1    0    0  501    0 +0.0000000000e+00 +0.0000000000e+00 +8.6081935195e+02 8.6081935195e+02 0.0000000000e+00 0.0000e+00 -1.0000e+00
       -2 -1    0    0    0  501 -0.0000000000e+00 -0.0000000000e+00 -3.1650274145e+02 3.1650274145e+02 0.0000000000e+00 0.0000e+00 1.0000e+00
      -13  1    1    2    0    0 +1.1569448287e+02 +1.8042077635e+02 -2.6458774249e+02 3.4050483606e+02 0.0000000000e+00 0.0000e+00 1.0000e+00
       13  1    1    2    0    0 -1.1569448287e+02 -1.8042077635e+02 +8.0890435299e+02 8.3681725735e+02 0.0000000000e+00 0.0000e+00 -1.0000e+00
<mgrwt>
<rscale>  0 0.10439381E+04</rscale>
<asrwt>0</asrwt>
<pdfrwt beam="1">  1        2 0.13243375E+00 0.10439381E+04</pdfrwt>
<pdfrwt beam="2">  1       -2 0.48692730E-01 0.10439381E+04</pdfrwt>
<totfact> 0.15285776E+02</totfact>
</mgrwt>
<rwgt>
<wgt id='morphing_basis_vector_1'> +2.7335412e-04 </wgt>
<wgt id='morphing_basis_vector_2'> +1.7198858e-04 </wgt>
<wgt id='morphing_basis_vector_3'> +2.6584290e-04 </wgt>
<wgt id='morphing_basis_vector_4'> +1.6497836e-04 </wgt>
<wgt id='morphing_basis_vector_5'> +2.6135515e-04 </wgt>
</rwgt>
</event>
<event>
 4      1 +1.4786900e-06 9.25351400e+02 7.81860800e-03 8.75891700e-02
        2 -1    0    0  501    0 +0.0000000000e+00 +0.0000000000e+00 +5.5715598157e+02 5.5715598157e+02 0.0000000000e+00 0.0000e+00 1.0000e+00
       -2 -1    0    0    0  501 -0.0000000000e+00 -0.0000000000e+00 -3.8421701778e+02 3.8421701778e+02 0.0000000000e+00 0.0000e+00 -1.0000e+00
      -13  1    1    2    0    0 +4.2644088067e+02 -4.6086439113e+01 -9.0007459630e+01 4.3826604633e+02 0.0000000000e+00 0.0000e+00 -1.0000e+00
       13  1    1    2    0    0 -4.2644088067e+02 +4.6086439113e+01 +2.6294642342e+02 5.0310695301e+02 0.0000000000e+00 0.0000e+00 1.0000e+00
<mgrwt>
<rscale>  0 0.92535141E+03</rscale>
<asrwt>0</asrwt>
<pdfrwt beam="1">  1        2 0.85716305E-01 0.92535141E+03</pdfrwt>
<pdfrwt beam="2">  1       -2 0.59110310E-01 0.92535141E+03</pdfrwt>
<totfact> 0.17864983E+02</totfact>
</mgrwt>
<rwgt>
<wgt id='morphing_basis_vector_1'> +1.7667617e-04 </wgt>
<wgt id='morphing_basis_vector_2'> +1.1251310e-04 </wgt>
<wgt id='morphing_basis_vector_3'> +1.6624970e-04 </wgt>
<wgt id='morphing_basis_vector_4'> +9.5867171e-05 </wgt>
<wgt id='morphing_basis_vector_5'> +1.5442492e-04 </wgt>
</rwgt>
</event>
<event>
 4      1 +1.4786900e-06 9.05148700e+02 7.81860800e-03 8.78034600e-02
        2 -1    0    0  501    0 +0.0000000000e+00 +0.0000000000e+00 +6.4655335252e+02 6.4655335252e+02 0.0000000000e+00 0.0000e+00 -1.0000e+00
       -2 -1    0    0    0  501 -0.0000000000e+00 -0.0000000000e+00 -3.1679291855e+02 3.1679291855e+02 0.0000000000e+00 0.0000e+00 1.0000e+00
      -13  1    1    2    0    0 -1.4341130631e+02 -2.8335579153e+02 -1.7828924008e+02 3.6420373488e+02 0.0000000000e+00 0.0000e+00 1.0000e+00
       13  1    1    2    0    0 +1.4341130631e+02 +2.8335579153e+02 +5.0804967405e+02 5.9914253619e+02 0.0000000000e+00 0.0000e+00 -1.0000e+00
<mgrwt>
<rscale>  0 0.90514866E+03</rscale>
<asrwt>0</asrwt>
<pdfrwt beam="1">  1        2 0.99469746E-01 0.90514866E+03</pdfrwt>
<pdfrwt beam="2">  1       -2 0.48737372E-01 0.90514866E+03</pdfrwt>
<totfact> 0.22045437E+02</totfact>
</mgrwt>
<rwgt>
<wgt id='morphing_basis_vector_1'> +1.6192119e-04 </wgt>
<wgt id='morphing_basis_vector_2'> +1.0008964e-04 </wgt>
<wgt id='morphing_basis_vector_3'> +1.5149437e-04 </wgt>
<wgt id='morphing_basis_vector_4'> +8.8622258e-05 </wgt>
<wgt id='morphing_basis_vector_5'> +1.4016619e-04 </wgt>
</rwgt>
</event>
<event>
 4      1 +1.4786900e-06 1.04871300e+03 7.81860800e-03 8.63937700e-02
        2 -1    0    0  501    0 +0.0000000000e+00 +0.0000000000e+00 +1.4448189693e+03 1.4448189693e+03 0.0000000000e+00 0.0000e+00 1.0000e+00
       -2 -1    0    0    0  501 -0.0000000000e+00 -0.0000000000e+00 -1.9030036880e+02 1.9030036880e+02 0.0000000000e+00 0.0000e+00 -1.0000e+00
      -13  1    1    2    0    0 +4.3664674799e+02 -1.7290425716e+02 +2.6362427919e+02 5.3856663956e+02 0.0000000000e+00 0.0000e+00 -1.0000e+00
       13  1    1    2    0    0 -4.3664674799e+02 +1.7290425716e+02 +9.9089432130e+02 1.0965526985e+03 0.0000000000e+00 0.0000e+00 1.0000e+00
<mgrwt>
<rscale>  0 0.10487127E+04</rscale>
<asrwt>0</asrwt>
<pdfrwt beam="1">  1        2 0.22227983E+00 0.10487127E+04</pdfrwt>
<pdfrwt beam="2">  1       -2 0.29276981E-01 0.10487127E+04</pdfrwt>
<totfact> 0.17506664E+02</totfact>
</mgrwt>
<rwgt>
<wgt id='morphing_basis_vector_1'> +2.7961553e-04 </wgt>
<wgt id='morphing_basis_vector_2'> +1.7982252e-04 </wgt>
<wgt id='morphing_basis_vector_3'> +2.7225195e-04 </wgt>
<wgt id='morphing_basis_vector_4'> +1.6571770e-04 </wgt>
<wgt id='morphing_basis_vector_5'> +2.6639132e-04 </wgt>
</rwgt>
</event>
<event>
 4      1 +1.4786900e-06 1.03025100e+03 7.81860800e-03 8.65614700e-02
        2 -1    0    0  501    0 +0.0000000000e+00 +0.0000000000e+00 +4.3059824009e+02 4.3059824009e+02 0.0000000000e+00 0.0000e+00 1.0000e+00
       -2 -1    0    0    0  501 -0.0000000000e+00 -0.0000000000e+00 -6.1624512577e+02 6.1624512577e+02 0.0000000000e+00 0.0000e+00 -1.0000e+00
      -13  1    1    2    0    0 -9.3664925657e+01 -1.3796717854e+02 -5.8806000711e+02 6.1124678536e+02 0.0000000000e+00 0.0000e+00 -1.0000e+00
       13  1    1    2    0    0 +9.3664925657e+01 +1.3796717854e+02 +4.0241312142e+02 4.3559658050e+02 0.0000000000e+00 0.0000e+00 1.0000e+00
<mgrwt>
<rscale>  0 0.10302506E+04</rscale>
<asrwt>0</asrwt>
<pdfrwt beam="1">  1        2 0.66245883E-01 0.10302506E+04</pdfrwt>
<pdfrwt beam="2">  1       -2 0.94806942E-01 0.10302506E+04</pdfrwt>
<totfact> 0.84207946E+01</totfact>
</mgrwt>
<rwgt>
<wgt id='morphing_basis_vector_1'> +2.6026042e-04 </wgt>
<wgt id='morphing_basis_vector_2'> +1.6341493e-04 </wgt>
<wgt id='morphing_basis_vector_3'> +2.5229910e-04 </wgt>
<wgt id='morphing_basis_vector_4'> +1.5590913e-04 </wgt>
<wgt id='morphing_basis_vector_5'> +2.4688046e-04 </wgt>
</rwgt>
</event>
<event>
 4      1 +1.4786900e-06 1.05874800e+03 7.81860800e-03 8.63041000e-02
        2 -1    0    0  501    0 +0.0000000000e+00 +0.0000000000e+00 +1.9244746510e+03 1.9244746510e+03 0.0000000000e+00 0.0000e+00 1.0000e+00
       -2 -1    0    0    0  501 -0.0000000000e+00 -0.0000000000e+00 -1.4561739071e+02 1.4561739071e+02 0.0000000000e+00 0.0000e+00 -1.0000e+00
      -13  1    1    2    0    0 +6.2281740212e+01 -4.0506231171e+02 +2.3426021975e+02 4.7205120706e+02 0.0000000000e+00 0.0000e+00 -1.0000e+00
       13  1    1    2    0    0 -6.2281740212e+01 +4.0506231171e+02 +1.5445970406e+03 1.5980408347e+03 0.0000000000e+00 0.0000e+00 1.0000e+00
<mgrwt>
<rscale>  0 0.10587483E+04</rscale>
<asrwt>0</asrwt>
<pdfrwt beam="1">  1        2 0.29607301E+00 0.10587483E+04</pdfrwt>
<pdfrwt beam="2">  1       -2 0.22402677E-01 0.10587483E+04</pdfrwt>
<totfact> 0.15056693E+02</totfact>
</mgrwt>
<rwgt>
<wgt id='morphing_basis_vector_1'> +2.8862063e-04 </wgt>
<wgt id='morphing_basis_vector_2'> +1.8326130e-04 </wgt>
<wgt id='morphing_basis_vector_3'> +2.8164307e-04 </wgt>
<wgt id='morphing_basis_vector_4'> +1.7436464e-04 </wgt>
<wgt id='morphing_basis_vector_5'> +2.7765276e-04 </wgt>
</rwgt>
</event>
<event>
 4      1 +1.4786900e-06 9.60141400e+02 7.81860800e-03 8.72332300e-02
        2 -1    0    0  501    0 +0.0000000000e+00 +0.0000000000e+00 +1.5949909796e+03 1.5949909796e+03 0.0000000000e+00 0.0000e+00 -1.0000e+00
       -2 -1    0    0    0  501 -0.0000000000e+00 -0.0000000000e+00 -1.4449476913e+02 1.4449476913e+02 0.0000000000e+00 0.0000e+00 1.0000e+00
      -13  1    1    2    0    0 +2.7116181230e+02 +1.3504427514e+02 +5.0522289988e+01 3.0711266090e+02 0.0000000000e+00 0.0000e+00 1.0000e+00
       13  1    1    2    0    0 -2.7116181230e+02 -1.3504427514e+02 +1.3999739204e+03 1.4323730878e+03 0.0000000000e+00 0.0000e+00 -1.0000e+00
<mgrwt>
<rscale>  0 0.96014135E+03</rscale>
<asrwt>0</asrwt>
<pdfrwt beam="1">  1        2 0.24538321E+00 0.96014135E+03</pdfrwt>
<pdfrwt beam="2">  1       -2 0.22229966E-01 0.96014135E+03</pdfrwt>
<totfact> 0.23371964E+02</totfact>
</mgrwt>
<rwgt>
<wgt id='morphing_basis_vector_1'> +2.0075621e-04 </wgt>
<wgt id='morphing_basis_vector_2'> +1.2503590e-04 </wgt>
<wgt id='morphing_basis_vector_3'> +1.9107137e-04 </wgt>
<wgt id='morphing_basis_vector_4'> +1.1479590e-04 </wgt>
<wgt id='morphing_basis_vector_5'> +1.8171212e-04 </wgt>
</rwgt>
</event>
<event>
 4      1 +1.4786900e-06 1.04893500e+03 7.81860800e-03 8.63917700e-02
        2 -1    0    0  501    0 +0.0000000000e+00 +0.0000000000e+00 +2.3452969744e+03 2.3452969744e+03 0.0000000000e+00 0.0000e+00 1.0000e+00
       -2 -1    0    0    0  501 -0.0000000000e+00 -0.0000000000e+00 -1.1728409133e+02 1.1728409133e+02 0.0000000000e+00 0.0000e+00 -1.0000e+00
      -13  1    1    2    0    0 -1.3304865986e+02 +3.9913943301e+02 +1.8491460655e+03 1.8964059176e+03 0.0000000000e+00 0.0000e+00 1.0000e+00
       13  1    1    2    0    0 +1.3304865986e+02 -3.9913943301e+02 +3.7886681757e+02 5.6617514811e+02 0.0000000000e+00 0.0000e+00 -1.0000e+00
<mgrwt>
<rscale>  0 0.10489347E+04</rscale>
<asrwt>0</asrwt>
<pdfrwt beam="1">  1        2 0.36081488E+00 0.10489347E+04</pdfrwt>
<pdfrwt beam="2">  1       -2 0.18043708E-01 0.10489347E+04</pdfrwt>
<totfact> 0.12529793E+02</totfact>
</mgrwt>
<rwgt>
<wgt id='morphing_basis_vector_1'> +3.4253653e-04 </wgt>
<wgt id='morphing_basis_vector_2'> +3.6940432e-04 </wgt>
<wgt id='morphing_basis_vector_3'> +3.3443594e-04 </wgt>
<wgt id='morphing_basis_vector_4'> +6.5905209e-05 </wgt>
<wgt id='morphing_basis_vector_5'> +2.6042750e-04 </wgt>
</rwgt>
</event>
<event>
 4      1 +1.4786900e-06 9.75003500e+02 7.81860800e-03 8.70859500e-02
        2 -1    0    0  501    0 +0.0000000000e+00 +0.0000000000e+00 +7.8881411205e+02 7.8881411205e+02 0.0000000000e+00 0.0000e+00 -1.0000e+00
       -2 -1    0    0    0  501 -0.0000000000e+00 -0.0000000000e+00 -3.0128510753e+02 3.0128510753e+02 0.0000000000e+00 0.0000e+00 1.0000e+00
      -13  1    1    2    0    0 +4.3918532117e+01 +4.8500614611e+02 +2.1881063271e+02 5.3388940074e+02 0.0000000000e+00 0.0000e+00 1.0000e+00
       13  1    1    2    0    0 -4.3918532117e+01 -4.8500614611e+02 +2.6871837180e+02 5.5620981884e+02 0.0000000000e+00 0.0000e+00 -1.0000e+00
<mgrwt>
<rscale>  0 0.97500348E+03</rscale>
<asrwt>0</asrwt>
<pdfrwt beam="1">  1        2 0.12135602E+00 0.97500348E+03</pdfrwt>
<pdfrwt beam="2">  1       -2 0.46351555E-01 0.97500348E+03</pdfrwt>
<totfact> 0.18925087E+02</totfact>
</mgrwt>
<rwgt>
<wgt id='morphing_basis_vector_1'> +2.1869855e-04 </wgt>
<wgt id='morphing_basis_vector_2'> +1.5165020e-04 </wgt>
<wgt id='morphing_basis_vector_3'> +2.0865057e-04 </wgt>
<wgt id='morphing_basis_vector_4'> +1.1318157e-04 </wgt>
<wgt id='morphing_basis_vector_5'> +1.9377164e-04 </wgt>
</rwgt>
</event>
<event>
 4      1 +1.4786900e-06 1.02908400e+03 7.81860800e-03 8.65721900e-02
        2 -1    0    0  501    0 +0.0000000000e+00 +0.0000000000e+00 +1.7838594799e+02 1.7838594799e+02 0.0000000000e+00 0.0000e+00 -1.0000e+00
       -2 -1    0    0    0  501 -0.0000000000e+00 -0.0000000000e+00 -1.4841597893e+03 1.4841597893e+03 0.0000000000e+00 0.0000e+00 1.0000e+00
      -13  1    1    2    0    0 -2.5534784125e+02 -1.8094675202e+01 -1.3739828351e+03 1.3976261190e+03 0.0000000000e+00 0.0000e+00 1.0000e+00
       13  1    1    2    0    0 +2.5534784125e+02 +1.8094675202e+01 +6.8208993834e+01 2.6491961826e+02 0.0000000000e+00 0.0000e+00 -1.0000e+00
<mgrwt>
<rscale>  0 0.10290836E+04</rscale>
<asrwt>0</asrwt>
<pdfrwt beam="1">  1        2 0.27443992E-01 0.10290836E+04</pdfrwt>
<pdfrwt beam="2">  1       -2 0.22833228E+00 0.10290836E+04</pdfrwt>
<totfact> 0.18016277E+01</totfact>
</mgrwt>
<rwgt>
<wgt id='morphing_basis_vector_1'> +2.5921191e-04 </wgt>
<wgt id='morphing_basis_vector_2'> +1.6283575e-04 </wgt>
<wgt id='morphing_basis_vector_3'> +2.5121254e-04 </wgt>
<wgt id='morphing_basis_vector_4'> +1.5508216e-04 </wgt>
<wgt id='morphing_basis_vector_5'> +2.4566975e-04 </wgt>
</rwgt>
</event>
<event>
 4      1 +1.4786900e-06 1.04609400e+03 7.81860800e-03 8.64173300e-02
        2 -1    0    0  501    0 +0.0000000000e+00 +0.0000000000e+00 +3.1821601598e+03 3.1821601598e+03 0.0000000000e+00 0.0000e+00 -1.0000e+00
       -2 -1    0    0    0  501 -0.0000000000e+00 -0.0000000000e+00 -8.5972483601e+01 8.5972483601e+01 0.0000000000e+00 0.0000e+00 1.0000e+00
      -13  1    1    2    0    0 -1.2521406654e+02 -4.3855413781e+02 +7.4810994009e+02 8.7617165939e+02 0.0000000000e+00 0.0000e+00 1.0000e+00
       13  1    1    2    0    0 +1.2521406654e+02 +4.3855413781e+02 +2.3480777361e+03 2.3919609841e+03 0.0000000000e+00 0.0000e+00 -1.0000e+00
<mgrwt>
<rscale>  0 0.10460941E+04</rscale>
<asrwt>0</asrwt>
<pdfrwt beam="1">  1        2 0.48956301E+00 0.10460941E+04</pdfrwt>
<pdfrwt beam="2">  1       -2 0.13226538E-01 0.10460941E+04</pdfrwt>
<totfact> 0.63311091E+01</totfact>
</mgrwt>
<rwgt>
<wgt id='morphing_basis_vector_1'> +2.7670494e-04 </wgt>
<wgt id='morphing_basis_vector_2'> +1.7712571e-04 </wgt>
<wgt id='morphing_basis_vector_3'> +2.6924962e-04 </wgt>
<wgt id='morphing_basis_vector_4'> +1.6446307e-04 </wgt>
<wgt id='morphing_basis_vector_5'> +2.6356789e-04 </wgt>
</rwgt>
</event>
<event>
 4      1 +1.4786900e-06 9.36864400e+02 7.81860800e-03 8.74695900e-02
        2 -1    0    0  501    0 +0.0000000000e+00 +0.0000000000e+00 +1.3830954941e+03 1.3830954941e+03 0.0000000000e+00 0.0000e+00 1.0000e+00
       -2 -1    0    0    0  501 -0.0000000000e+00 -0.0000000000e+00 -1.5865045071e+02 1.5865045071e+02 0.0000000000e+00 0.0000e+00 -1.0000e+00
      -13  1    1    2    0    0 -4.0073291613e+01 +4.6642684890e+02 +5.8523949623e+02 7.4944322135e+02 0.0000000000e+00 0.0000e+00 -1.0000e+00
       13  1    1    2    0    0 +4.0073291613e+01 -4.6642684890e+02 +6.3920554712e+02 7.9230272342e+02 0.0000000000e+00 0.0000e+00 1.0000e+00
<mgrwt>
<rscale>  0 0.93686439E+03</rscale>
<asrwt>0</asrwt>
<pdfrwt beam="1">  1        2 0.21278391E+00 0.93686439E+03</pdfrwt>
<pdfrwt beam="2">  1       -2 0.24407763E-01 0.93686439E+03</pdfrwt>
<totfact> 0.26201060E+02</totfact>
</mgrwt>
<rwgt>
<wgt id='morphing_basis_vector_1'> +1.8912633e-04 </wgt>
<wgt id='morphing_basis_vector_2'> +1.3095977e-04 </wgt>
<wgt id='morphing_basis_vector_3'> +1.7818630e-04 </wgt>
<wgt id='morphing_basis_vector_4'> +9.4875512e-05 </wgt>
<wgt id='morphing_basis_vector_5'> +1.6270957e-04 </wgt>
</rwgt>
</event>
<event>
 4      1 +1.4786900e-06 9.35100200e+02 7.81860800e-03 8.74878000e-02
        2 -1    0    0  501    0 +0.0000000000e+00 +0.0000000000e+00 +5.9256556315e+02 5.9256556315e+02 0.0000000000e+00 0.0000e+00 1.0000e+00
       -2 -1    0    0    0  501 -0.0000000000e+00 -0.0000000000e+00 -3.6890958407e+02 3.6890958407e+02 0.0000000000e+00 0.0000e+00 -1.0000e+00
      -13  1    1    2    0    0 +4.6412666049e+02 +4.8554911346e+01 +8.2170383726e+01 4.7383869444e+02 0.0000000000e+00 0.0000e+00 -1.0000e+00
       13  1    1    2    0    0 -4.6412666049e+02 -4.8554911346e+01 +1.4148559535e+02 4.8763645278e+02 0.0000000000e+00 0.0000e+00 1.0000e+00
<mgrwt>
<rscale>  0 0.93510024E+03</rscale>
<asrwt>0</asrwt>
<pdfrwt beam="1">  1        2 0.91163933E-01 0.93510024E+03</pdfrwt>
<pdfrwt beam="2">  1       -2 0.56755321E-01 0.93510024E+03</pdfrwt>
<totfact> 0.18044414E+02</totfact>
</mgrwt>
<rwgt>
<wgt id='morphing_basis_vector_1'> +1.8729253e-04 </wgt>
<wgt id='morphing_basis_vector_2'> +1.2840248e-04 </wgt>
<wgt id='morphing_basis_vector_3'> +1.7640533e-04 </wgt>
<wgt id='morphing_basis_vector_4'> +9.4886035e-05 </wgt>
<wgt id='morphing_basis_vector_5'> +1.6141145e-04 </wgt>
</rwgt>
</event>
<event>
 4      1 +1.4786900e-06 1.01932500e+03 7.81860800e-03 8.66624400e-02
        2 -1    0    0  501    0 +0.0000000000e+00 +0.0000000000e+00 +3.2600631382e+03 3.2600631382e+03 0.0000000000e+00 0.0000e+00 -1.0000e+00
       -2 -1    0    0    0  501 -0.0000000000e+00 -0.0000000000e+00 -7.9678184247e+01 7.9678184247e+01 0.0000000000e+00 0.0000e+00 1.0000e+00
      -13  1    1    2    0    0 +1.9023538851e+02 +3.9898490319e+02 +7.5887479536e+02 8.7821945495e+02 0.0000000000e+00 0.0000e+00 1.0000e+00
       13  1    1    2    0    0 -1.9023538851e+02 -3.9898490319e+02 +2.4215101586e+03 2.4615218675e+03 0.0000000000e+00 0.0000e+00 -1.0000e+00
<mgrwt>
<rscale>  0 0.10193251E+04</rscale>
<asrwt>0</asrwt>
<pdfrwt beam="1">  1        2 0.50154807E+00 0.10193251E+04</pdfrwt>
<pdfrwt beam="2">  1       -2 0.12258185E-01 0.10193251E+04</pdfrwt>
<totfact> 0.63587303E+01</totfact>
</mgrwt>
<rwgt>
<wgt id='morphing_basis_vector_1'> +2.5126502e-04 </wgt>
<wgt id='morphing_basis_vector_2'> +1.6015242e-04 </wgt>
<wgt id='morphing_basis_vector_3'> +2.4292212e-04 </wgt>
<wgt id='morphing_basis_vector_4'> +1.4720731e-04 </wgt>
<wgt id='morphing_basis_vector_5'> +2.3564969e-04 </wgt>
</rwgt>
</event>
<event>
 4      1 +1.4786900e-06 9.78340100e+02 7.81860800e-03 8.70532600e-02
        2 -1    0    0  501    0 +0.0000000000e+00 +0.0000000000e+00 +2.6997610594e+02 2.6997610594e+02 0.0000000000e+00 0.0000e+00 -1.0000e+00
       -2 -1    0    0    0  501 -0.0000000000e+00 -0.0000000000e+00 -8.8632775729e+02 8.8632775729e+02 0.0000000000e+00 0.0000e+00 1.0000e+00
      -13  1    1    2    0    0 -1.6980257200e+02 -2.2475951684e+02 -7.8084510639e+02 8.3010170103e+02 0.0000000000e+00 0.0000e+00 1.0000e+00
       13  1    1    2    0    0 +1.6980257200e+02 +2.2475951684e+02 +1.6449345505e+02 3.2620216220e+02 0.0000000000e+00 0.0000e+00 -1.0000e+00
<mgrwt>
<rscale>  0 0.97834006E+03</rscale>
<asrwt>0</asrwt>
<pdfrwt beam="1">  1        2 0.41534786E-01 0.97834006E+03</pdfrwt>
<pdfrwt beam="2">  1       -2 0.13635811E+00 0.97834006E+03</pdfrwt>
<totfact> 0.56769854E+01</totfact>
</mgrwt>
<rwgt>
<wgt id='morphing_basis_vector_1'> +2.1505699e-04 </wgt>
<wgt id='morphing_basis_vector_2'> +1.3420699e-04 </wgt>
<wgt id='morphing_basis_vector_3'> +2.0573190e-04 </wgt>
<wgt id='morphing_basis_vector_4'> +1.2461380e-04 </wgt>
<wgt id='morphing_basis_vector_5'> +1.9724678e-04 </wgt>
</rwgt>
</event>
<event>
 4      1 +1.4786900e-06 9.17692000e+02 7.81860800e-03 8.76697300e-02
        2 -1    0    0  501    0 +0.0000000000e+00 +0.0000000000e+00 +3.0914279662e+03 3.0914279662e+03 0.0000000000e+00 0.0000e+00 1.0000e+00
       -2 -1    0    0    0  501 -0.0000000000e+00 -0.0000000000e+00 -6.8104337585e+01 6.8104337585e+01 0.0000000000e+00 0.0000e+00 -1.0000e+00
      -13  1    1    2    0    0 -7.6379685595e+01 +4.2971056339e+02 +1.0240960869e+03 1.1132195739e+03 0.0000000000e+00 0.0000e+00 -1.0000e+00
       13  1    1    2    0    0 +7.6379685595e+01 -4.2971056339e+02 +1.9992275418e+03 2.0463127299e+03 0.0000000000e+00 0.0000e+00 1.0000e+00
<mgrwt>
<rscale>  0 0.91769200E+03</rscale>
<asrwt>0</asrwt>
<pdfrwt beam="1">  1        2 0.47560420E+00 0.91769200E+03</pdfrwt>
<pdfrwt beam="2">  1       -2 0.10477593E-01 0.91769200E+03</pdfrwt>
<totfact> 0.10680034E+02</totfact>
</mgrwt>
<rwgt>
<wgt id='morphing_basis_vector_1'> +1.7186274e-04 </wgt>
<wgt id='morphing_basis_vector_2'> +1.1041328e-04 </wgt>
<wgt id='morphing_basis_vector_3'> +1.6125540e-04 </wgt>
<wgt id='morphing_basis_vector_4'> +9.1780257e-05 </wgt>
<wgt id='morphing_basis_vector_5'> +1.4883124e-04 </wgt>
</rwgt>
</event>
<event>
 4      1 +1.4786900e-06 9.00978700e+02 7.81860800e-03 8.78484200e-02
        2 -1    0    0  501    0 +0.0000000000e+00 +0.0000000000e+00 +1.6946315561e+03 1.6946315561e+03 0.0000000000e+00 0.0000e+00 -1.0000e+00
       -2 -1    0    0    0  501 -0.0000000000e+00 -0.0000000000e+00 -1.1975503076e+02 1.1975503076e+02 0.0000000000e+00 0.0000e+00 1.0000e+00
      -13  1    1    2    0    0 +4.2061801768e+02 -1.5923586686e+02 +7.3550436092e+02 8.6211498248e+02 0.0000000000e+00 0.0000e+00 1.0000e+00
       13  1    1    2    0    0 -4.2061801768e+02 +1.5923586686e+02 +8.3937216437e+02 9.5227160433e+02 0.0000000000e+00 0.0000e+00 -1.0000e+00
<mgrwt>
<rscale>  0 0.90097870E+03</rscale>
<asrwt>0</asrwt>
<pdfrwt beam="1">  1        2 0.26071253E+00 0.90097870E+03</pdfrwt>
<pdfrwt beam="2">  1       -2 0.18423852E-01 0.90097870E+03</pdfrwt>
<totfact> 0.28314956E+02</totfact>
</mgrwt>
<rwgt>
<wgt id='morphing_basis_vector_1'> +1.6363450e-04 </wgt>
<wgt id='morphing_basis_vector_2'> +1.1176158e-04 </wgt>
<wgt id='morphing_basis_vector_3'> +1.5223133e-04 </wgt>
<wgt id='morphing_basis_vector_4'> +8.0571158e-05 </wgt>
<wgt id='morphing_basis_vector_5'> +1.3699667e-04 </wgt>
</rwgt>
</event>
<event>
 4      1 +1.4786900e-06 9.64121100e+02 7.81860800e-03 8.71935200e-02
        2 -1    0    0  501    0 +0.0000000000e+00 +0.0000000000e+00 +1.3668804614e+03 1.3668804614e+03 0.0000000000e+00 0.0000e+00 1.0000e+00
       -2 -1    0    0    0  501 -0.0000000000e+00 -0.0000000000e+00 -1.7000928150e+02 1.7000928150e+02 0.0000000000e+00 0.0000e+00 -1.0000e+00
      -13  1    1    2    0    0 -7.1479595495e+00 +4.7040956117e+02 +4.3089658041e+02 6.3797187366e+02 0.0000000000e+00 0.0000e+00 -1.0000e+00
       13  1    1    2    0    0 +7.1479595495e+00 -4.7040956117e+02 +7.6597459949e+02 8.9891786924e+02 0.0000000000e+00 0.0000e+00 1.0000e+00
<mgrwt>
<rscale>  0 0.96412108E+03</rscale>
<asrwt>0</asrwt>
<pdfrwt beam="1">  1        2 0.21028929E+00 0.96412108E+03</pdfrwt>
<pdfrwt beam="2">  1       -2 0.26155275E-01 0.96412108E+03</pdfrwt>
<totfact> 0.23712735E+02</totfact>
</mgrwt>
<rwgt>
<wgt id='morphing_basis_vector_1'> +2.0687817e-04 </wgt>
<wgt id='morphing_basis_vector_2'> +1.3627902e-04 </wgt>
<wgt id='morphing_basis_vector_3'> +1.9690552e-04 </wgt>
<wgt id='morphing_basis_vector_4'> +1.1229056e-04 </wgt>
<wgt id='morphing_basis_vector_5'> +1.8476588e-04 </wgt>
</rwgt>
</event>
<event>
 4      1 +1.4786900e-06 9.69122700e+02 7.81860800e-03 8.71439000e-02
        2 -1    0    0  501    0 +0.0000000000e+00 +0.0000000000e+00 +6.1324548137e+02 6.1324548137e+02 0.0000000000e+00 0.0000e+00 -1.0000e+00
       -2 -1    0    0    0  501 -0.0000000000e+00 -0.0000000000e+00 -3.8288042275e+02 3.8288042275e+02 0.0000000000e+00 0.0000e+00 1.0000e+00
      -13  1    1    2    0    0 +2.5058102751e+02 -4.1441580404e+02 +9.8343777956e+01 4.9416880582e+02 0.0000000000e+00 0.0000e+00 1.0000e+00
       13  1    1    2    0    0 -2.5058102751e+02 +4.1441580404e+02 +1.3202128067e+02 5.0195709830e+02 0.0000000000e+00 0.0000e+00 -1.0000e+00
<mgrwt>
<rscale>  0 0.96912267E+03</rscale>
<asrwt>0</asrwt>
<pdfrwt beam="1">  1        2 0.94345458E-01 0.96912267E+03</pdfrwt>
<pdfrwt beam="2">  1       -2 0.58904681E-01 0.96912267E+03</pdfrwt>
<totfact> 0.16034878E+02</totfact>
</mgrwt>
<rwgt>
<wgt id='morphing_basis_vector_1'> +2.1416424e-04 </wgt>
<wgt id='morphing_basis_vector_2'> +1.4904572e-04 </wgt>
<wgt id='morphing_basis_vector_3'> +2.0393255e-04 </wgt>
<wgt id='morphing_basis_vector_4'> +1.0983408e-04 </wgt>
<wgt id='morphing_basis_vector_5'> +1.8870052e-04 </wgt>
</rwgt>
</event>
<event>
 4      1 +1.4786900e-06 9.18548800e+02 7.81860800e-03 8.76606800e-02
        2 -1    0    0  501    0 +0.0000000000e+00 +0.0000000000e+00 +9.8974489950e+02 9.8974489950e+02 0.0000000000e+00 0.0000e+00 -1.0000e+00
       -2 -1    0    0    0  501 -0.0000000000e+00 -0.0000000000e+00 -2.1311851257e+02 2.1311851257e+02 0.0000000000e+00 0.0000e+00 1.0000e+00
      -13  1    1    2    0    0 -3.0572651342e+02 +2.4028075593e+02 +6.8270264064e+01 3.9479662059e+02 0.0000000000e+00 0.0000e+00 1.0000e+00
       13  1    1    2    0    0 +3.0572651342e+02 -2.4028075593e+02 +7.0835612287e+02 8.0806679148e+02 0.0000000000e+00 0.0000e+00 -1.0000e+00
<mgrwt>
<rscale>  0 0.91854877E+03</rscale>
<asrwt>0</asrwt>
<pdfrwt beam="1">  1        2 0.15226844E+00 0.91854877E+03</pdfrwt>
<pdfrwt beam="2">  1       -2 0.32787464E-01 0.91854877E+03</pdfrwt>
<totfact> 0.26610255E+02</totfact>
</mgrwt>
<rwgt>
<wgt id='morphing_basis_vector_1'> +1.7124749e-04 </wgt>
<wgt id='morphing_basis_vector_2'> +1.0715463e-04 </wgt>
<wgt id='morphing_basis_vector_3'> +1.6087316e-04 </wgt>
<wgt id='morphing_basis_vector_4'> +9.3893257e-05 </wgt>
<wgt id='morphing_basis_vector_5'> +1.4953968e-04 </wgt>
</rwgt>
</event>
<event>
 4      1 +1.4786900e-06 1.00041800e+03 7.81860800e-03 8.68403100e-02
        2 -1    0    0  501    0 +0.0000000000e+00 +0.0000000000e+00 +2.7857495082e+02 2.7857495082e+02 0.0000000000e+00 0.0000e+00 -1.0000e+00
       -2 -1    0    0    0  501 -0.0000000000e+00 -0.0000000000e+00 -8.9817530053e+02 8.9817530053e+02 0.0000000000e+00 0.0000e+00 1.0000e+00
      -13  1    1    2    0    0 -7.4662175577e+01 -3.9400735027e+02 -6.6148550311e+02 7.7354980664e+02 0.0000000000e+00 0.0000e+00 1.0000e+00
       13  1    1    2    0    0 +7.4662175577e+01 +3.9400735027e+02 +4.1885153399e+01 4.0320044470e+02 0.0000000000e+00 0.0000e+00 -1.0000e+00
<mgrwt>
<rscale>  0 0.10004182E+04</rscale>
<asrwt>0</asrwt>
<pdfrwt beam="1">  1        2 0.42857685E-01 0.10004182E+04</pdfrwt>
<pdfrwt beam="2">  1       -2 0.13818082E+00 0.10004182E+04</pdfrwt>
<totfact> 0.52746242E+01</totfact>
</mgrwt>
<rwgt>
<wgt id='morphing_basis_vector_1'> +2.3399976e-04 </wgt>
<wgt id='morphing_basis_vector_2'> +1.4768825e-04 </wgt>
<wgt id='morphing_basis_vector_3'> +2.2515338e-04 </wgt>
<wgt id='morphing_basis_vector_4'> +1.3648301e-04 </wgt>
<wgt id='morphing_basis_vector_5'> +2.1731708e-04 </wgt>
</rwgt>
</event>
<event>
 4      1 +1.4786900e-06 1.06807100e+03 7.81860800e-03 8.62217200e-02
        2 -1    0    0  501    0 +0.0000000000e+00 +0.0000000000e+00 +1.5125883808e+03 1.5125883808e+03 0.0000000000e+00 0.0000e+00 1.0000e+00
       -2 -1    0    0    0  501 -0.0000000000e+00 -0.0000000000e+00 -1.8854690296e+02 1.8854690296e+02 0.0000000000e+00 0.0000e+00 -1.0000e+00
      -13  1    1    2    0    0 +1.9862316859e+02 -4.0401190233e+02 +2.0450010422e+02 4.9446645280e+02 0.0000000000e+00 0.0000e+00 -1.0000e+00
       13  1    1    2    0    0 -1.9862316859e+02 +4.0401190233e+02 +1.1195413736e+03 1.2066688309e+03 0.0000000000e+00 0.0000e+00 1.0000e+00
<mgrwt>
<rscale>  0 0.10680709E+04</rscale>
<asrwt>0</asrwt>
<pdfrwt beam="1">  1        2 0.23270590E+00 0.10680709E+04</pdfrwt>
<pdfrwt beam="2">  1       -2 0.29007217E-01 0.10680709E+04</pdfrwt>
<totfact> 0.16288622E+02</totfact>
</mgrwt>
<rwgt>
<wgt id='morphing_basis_vector_1'> +2.9867329e-04 </wgt>
<wgt id='morphing_basis_vector_2'> +1.9097156e-04 </wgt>
<wgt id='morphing_basis_vector_3'> +2.9206765e-04 </wgt>
<wgt id='morphing_basis_vector_4'> +1.8028324e-04 </wgt>
<wgt id='morphing_basis_vector_5'> +2.8827350e-04 </wgt>
</rwgt>
</event>
<event>
 4      1 +1.4786900e-06 1.02911200e+03 7.81860800e-03 8.65719300e-02
        2 -1    0    0  501    0 +0.0000000000e+00 +0.0000000000e+00 +5.0804895427e+02 5.0804895427e+02 0.0000000000e+00 0.0000e+00 -1.0000e+00
       -2 -1    0    0    0  501 -0.0000000000e+00 -0.0000000000e+00 -5.2114620890e+02 5.2114620890e+02 0.0000000000e+00 0.0000e+00 1.0000e+00
      -13  1    1    2    0    0 -1.5280451903e+02 +3.2292037178e+02 -3.7690414797e+02 5.1931062410e+02 0.0000000000e+00 0.0000e+00 1.0000e+00
       13  1    1    2    0    0 +1.5280451903e+02 -3.2292037178e+02 +3.6380689334e+02 5.0988453908e+02 0.0000000000e+00 0.0000e+00 -1.0000e+00
<mgrwt>
<rscale>  0 0.10291118E+04</rscale>
<asrwt>0</asrwt>
<pdfrwt beam="1">  1        2 0.78161378E-01 0.10291118E+04</pdfrwt>
<pdfrwt beam="2">  1       -2 0.80176340E-01 0.10291118E+04</pdfrwt>
<totfact> 0.10286917E+02</totfact>
</mgrwt>
<rwgt>
<wgt id='morphing_basis_vector_1'> +2.5945901e-04 </wgt>
<wgt id='morphing_basis_vector_2'> +1.6352033e-04 </wgt>
<wgt id='morphing_basis_vector_3'> +2.5145284e-04 </wgt>
<wgt id='morphing_basis_vector_4'> +1.5475289e-04 </wgt>
<wgt id='morphing_basis_vector_5'> +2.4567766e-04 </wgt>
</rwgt>
</event>
<event>
 4      1 +1.4786900e-06 9.16894400e+02 7.81860800e-03 8.76781700e-02
        2 -1    0    0  501    0 +0.0000000000e+00 +0.0000000000e+00 +8.5094922503e+02 8.5094922503e+02 0.0000000000e+00 0.0000e+00 1.0000e+00
       -2 -1    0    0    0  501 -0.0000000000e+00 -0.0000000000e+00 -2.4698754105e+02 2.4698754105e+02 0.0000000000e+00 0.0000e+00 -1.0000e+00
      -13  1    1    2    0    0 +7.9151146433e+01 -3.1938846128e+02 -8.0266962877e+01 3.3869850680e+02 0.0000000000e+00 0.0000e+00 -1.0000e+00
       13  1    1    2    0    0 -7.9151146433e+01 +3.1938846128e+02 +6.8422864685e+02 7.5923825928e+02 0.0000000000e+00 0.0000e+00 1.0000e+00
<mgrwt>
<rscale>  0 0.91689445E+03</rscale>
<asrwt>0</asrwt>
<pdfrwt beam="1">  1        2 0.13091526E+00 0.91689445E+03</pdfrwt>
<pdfrwt beam="2">  1       -2 0.37998084E-01 0.91689445E+03</pdfrwt>
<totfact> 0.25022929E+02</totfact>
</mgrwt>
<rwgt>
<wgt id='morphing_basis_vector_1'> +1.6972340e-04 </wgt>
<wgt id='morphing_basis_vector_2'> +1.0519659e-04 </wgt>
<wgt id='morphing_basis_vector_3'> +1.5940639e-04 </wgt>
<wgt id='morphing_basis_vector_4'> +9.3737939e-05 </wgt>
<wgt id='morphing_basis_vector_5'> +1.4838607e-04 </wgt>
</rwgt>
</event>
<event>
 4      1 +1.4786900e-06 9.99817600e+02 7.81860800e-03 8.68460300e-02
        2 -1    0    0  501    0 +0.0000000000e+00 +0.0000000000e+00 +1.0894055734e+03 1.0894055734e+03 0.0000000000e+00 0.0000e+00 -1.0000e+00
       -2 -1    0    0    0  501 -0.0000000000e+00 -0.0000000000e+00 -2.2939922183e+02 2.2939922183e+02 0.0000000000e+00 0.0000e+00 1.0000e+00
      -13  1    1    2    0    0 +2.0937976936e+02 -4.0383131079e+02 +1.5651452249e+02 4.8105759649e+02 0.0000000000e+00 0.0000e+00 1.0000e+00
       13  1    1    2    0    0 -2.0937976936e+02 +4.0383131079e+02 +7.0349182906e+02 8.3774719871e+02 0.0000000000e+00 0.0000e+00 -1.0000e+00
<mgrwt>
<rscale>  0 0.99981756E+03</rscale>
<asrwt>0</asrwt>
<pdfrwt beam="1">  1        2 0.16760085E+00 0.99981756E+03</pdfrwt>
<pdfrwt beam="2">  1       -2 0.35292189E-01 0.99981756E+03</pdfrwt>
<totfact> 0.20145797E+02</totfact>
</mgrwt>
<rwgt>
<wgt id='morphing_basis_vector_1'> +2.3445033e-04 </wgt>
<wgt id='morphing_basis_vector_2'> +1.5028310e-04 </wgt>
<wgt id='morphing_basis_vector_3'> +2.2551992e-04 </wgt>
<wgt id='morphing_basis_vector_4'> +1.3463260e-04 </wgt>
<wgt id='morphing_basis_vector_5'> +2.1666183e-04 </wgt>
</rwgt>
</event>
<event>
 4      1 +1.4786900e-06 9.05846500e+02 7.81860800e-03 8.77959600e-02
        2 -1    0    0  501    0 +0.0000000000e+00 +0.0000000000e+00 +3.4419005101e+02 3.4419005101e+02 0.0000000000e+00 0.0000e+00 -1.0000e+00
       -2 -1    0    0    0  501 -0.0000000000e+00 -0.0000000000e+00 -5.9600633829e+02 5.9600633829e+02 0.0000000000e+00 0.0000e+00 1.0000e+00
      -13  1    1    2    0    0 -2.8469396992e+02 -3.3710177443e+02 -2.3201582916e+02 4.9851740974e+02 0.0000000000e+00 0.0000e+00 1.0000e+00
       13  1    1    2    0    0 +2.8469396992e+02 +3.3710177443e+02 -1.9800458125e+01 4.4167897955e+02 0.0000000000e+00 0.0000e+00 -1.0000e+00
<mgrwt>
<rscale>  0 0.90584646E+03</rscale>
<asrwt>0</asrwt>
<pdfrwt beam="1">  1        2 0.52952316E-01 0.90584646E+03</pdfrwt>
<pdfrwt beam="2">  1       -2 0.91693282E-01 0.90584646E+03</pdfrwt>
<totfact> 0.11826335E+02</totfact>
</mgrwt>
<rwgt>
<wgt id='morphing_basis_vector_1'> +1.6463787e-04 </wgt>
<wgt id='morphing_basis_vector_2'> +1.0726757e-04 </wgt>
<wgt id='morphing_basis_vector_3'> +1.5375216e-04 </wgt>
<wgt id='morphing_basis_vector_4'> +8.5686618e-05 </wgt>
<wgt id='morphing_basis_vector_5'> +1.4047272e-04 </wgt>
</rwgt>
</event>
<event>
 4      1 +1.4786900e-06 1.01638100e+03 7.81860800e-03 8.66898700e-02
        2 -1    0    0  501    0 +0.0000000000e+00 +0.0000000000e+00 +2.3019427657e+03 2.3019427657e+03 0.0000000000e+00 0.0000e+00 1.0000e+00
       -2 -1    0    0    0  501 -0.0000000000e+00 -0.0000000000e+00 -1.1219121557e+02 1.1219121557e+02 0.0000000000e+00 0.0000e+00 -1.0000e+00
      -13  1    1    2    0    0 -1.9466914022e+02 -4.6103626652e+02 +8.8500423055e+02 1.0167020219e+03 0.0000000000e+00 0.0000e+00 -1.0000e+00
       13  1    1    2    0    0 +1.9466914022e+02 +4.6103626652e+02 +1.3047473196e+03 1.3974319594e+03 0.0000000000e+00 0.0000e+00 1.0000e+00
<mgrwt>
<rscale>  0 0.10163813E+04</rscale>
<asrwt>0</asrwt>
<pdfrwt beam="1">  1        2 0.35414500E+00 0.10163813E+04</pdfrwt>
<pdfrwt beam="2">  1       -2 0.17260189E-01 0.10163813E+04</pdfrwt>
<totfact> 0.14319186E+02</totfact>
</mgrwt>
<rwgt>
<wgt id='morphing_basis_vector_1'> +2.5211092e-04 </wgt>
<wgt id='morphing_basis_vector_2'> +1.6904377e-04 </wgt>
<wgt id='morphing_basis_vector_3'> +2.4350341e-04 </wgt>
<wgt id='morphing_basis_vector_4'> +1.3988155e-04 </wgt>
<wgt id='morphing_basis_vector_5'> +2.3238423e-04 </wgt>
</rwgt>
</event>
<event>
 4      1 +1.4786900e-06 9.89575800e+02 7.81860800e-03 8.69441600e-02
        2 -1    0    0  501    0 +0.0000000000e+00 +0.0000000000e+00 +1.1118197343e+03 1.1118197343e+03 0.0000000000e+00 0.0000e+00 -1.0000e+00
       -2 -1    0    0    0  501 -0.0000000000e+00 -0.0000000000e+00 -2.2019312439e+02 2.2019312439e+02 0.0000000000e+00 0.0000e+00 1.0000e+00
      -13  1    1    2    0    0 +3.9379740011e+01 +2.5383693601e+02 -1.2340766124e+02 2.8497965692e+02 0.0000000000e+00 0.0000e+00 1.0000e+00
       13  1    1    2    0    0 -3.9379740011e+01 -2.5383693601e+02 +1.0150342711e+03 1.0470332017e+03 0.0000000000e+00 0.0000e+00 -1.0000e+00
<mgrwt>
<rscale>  0 0.98957579E+03</rscale>
<asrwt>0</asrwt>
<pdfrwt beam="1">  1        2 0.17104919E+00 0.98957579E+03</pdfrwt>
<pdfrwt beam="2">  1       -2 0.33875866E-01 0.98957579E+03</pdfrwt>
<totfact> 0.21050458E+02</totfact>
</mgrwt>
<rwgt>
<wgt id='morphing_basis_vector_1'> +2.2426691e-04 </wgt>
<wgt id='morphing_basis_vector_2'> +1.4011000e-04 </wgt>
<wgt id='morphing_basis_vector_3'> +2.1519404e-04 </wgt>
<wgt id='morphing_basis_vector_4'> +1.3098059e-04 </wgt>
<wgt id='morphing_basis_vector_5'> +2.0730865e-04 </wgt>
</rwgt>
</event>
<event>
 4      1 +1.4786900e-06 1.06711600e+03 7.81860800e-03 8.62301100e-02
        2 -1    0    0  501    0 +0.0000000000e+00 +0.0000000000e+00 +1.5490331797e+03 1.5490331797e+03 0.0000000000e+00 0.0000e+00 1.0000e+00
       -2 -1    0    0    0  501 -0.0000000000e+00 -0.0000000000e+00 -1.8378193091e+02 1.8378193091e+02 0.0000000000e+00 0.0000e+00 -1.0000e+00
      -13  1    1    2    0    0 -4.3716665489e+02 +7.8072083954e+01 +2.0236067956e+02 4.8801616681e+02 0.0000000000e+00 0.0000e+00 -1.0000e+00
       13  1    1    2    0    0 +4.3716665489e+02 -7.8072083954e+01 +1.1628905692e+03 1.2447989438e+03 0.0000000000e+00 0.0000e+00 1.0000e+00
<mgrwt>
<rscale>  0 0.10671163E+04</rscale>
<asrwt>0</asrwt>
<pdfrwt beam="1">  1        2 0.23831279E+00 0.10671163E+04</pdfrwt>
<pdfrwt beam="2">  1       -2 0.28274144E-01 0.10671163E+04</pdfrwt>
<totfact> 0.16262020E+02</totfact>
</mgrwt>
<rwgt>
<wgt id='morphing_basis_vector_1'> +2.9758540e-04 </wgt>
<wgt id='morphing_basis_vector_2'> +1.9003128e-04 </wgt>
<wgt id='morphing_basis_vector_3'> +2.9093992e-04 </wgt>
<wgt id='morphing_basis_vector_4'> +1.7974562e-04 </wgt>
<wgt id='morphing_basis_vector_5'> +2.8717731e-04 </wgt>
</rwgt>
</event>
<event>
 4      1 +1.4786900e-06 9.75157500e+02 7.81860800e-03 8.70844300e-02
        2 -1    0    0  501    0 +0.0000000000e+00 +0.0000000000e+00 +1.3308442106e+03 1.3308442106e+03 0.0000000000e+00 0.0000e+00 1.0000e+00
       -2 -1    0    0    0  501 -0.0000000000e+00 -0.0000000000e+00 -1.7863327403e+02 1.7863327403e+02 0.0000000000e+00 0.0000e+00 -1.0000e+00
      -13  1    1    2    0    0 -4.5540916165e+02 +1.6157212149e+01 +3.0766310576e+02 5.4983192583e+02 0.0000000000e+00 0.0000e+00 -1.0000e+00
       13  1    1    2    0    0 +4.5540916165e+02 -1.6157212149e+01 +8.4454783080e+02 9.5964555880e+02 0.0000000000e+00 0.0000e+00 1.0000e+00
<mgrwt>
<rscale>  0 0.97515754E+03</rscale>
<asrwt>0</asrwt>
<pdfrwt beam="1">  1        2 0.20474526E+00 0.97515754E+03</pdfrwt>
<pdfrwt beam="2">  1       -2 0.27482043E-01 0.97515754E+03</pdfrwt>
<totfact> 0.22788456E+02</totfact>
</mgrwt>
<rwgt>
<wgt id='morphing_basis_vector_1'> +2.1426064e-04 </wgt>
<wgt id='morphing_basis_vector_2'> +1.3790144e-04 </wgt>
<wgt id='morphing_basis_vector_3'> +2.0468710e-04 </wgt>
<wgt id='morphing_basis_vector_4'> +1.2018468e-04 </wgt>
<wgt id='morphing_basis_vector_5'> +1.9430769e-04 </wgt>
</rwgt>
</event>
<event>
 4      1 +1.4786900e-06 1.04575700e+03 7.81860800e-03 8.64203800e-02
        2 -1    0    0  501    0 +0.0000000000e+00 +0.0000000000e+00 +2.7468400573e+03 2.7468400573e+03 0.0000000000e+00 0.0000e+00 1.0000e+00
       -2 -1    0    0    0  501 -0.0000000000e+00 -0.0000000000e+00 -9.9533220909e+01 9.9533220909e+01 0.0000000000e+00 0.0000e+00 -1.0000e+00
      -13  1    1    2    0    0 -4.8073078845e+02 -1.0951239440e+02 +8.4981413726e+02 9.8248619501e+02 0.0000000000e+00 0.0000e+00 -1.0000e+00
       13  1    1    2    0    0 +4.8073078845e+02 +1.0951239440e+02 +1.7974926992e+03 1.8638870832e+03 0.0000000000e+00 0.0000e+00 1.0000e+00
<mgrwt>
<rscale>  0 0.10457568E+04</rscale>
<asrwt>0</asrwt>
<pdfrwt beam="1">  1        2 0.42259072E+00 0.10457568E+04</pdfrwt>
<pdfrwt beam="2">  1       -2 0.15312805E-01 0.10457568E+04</pdfrwt>
<totfact> 0.94721002E+01</totfact>
</mgrwt>
<rwgt>
<wgt id='morphing_basis_vector_1'> +2.7777068e-04 </wgt>
<wgt id='morphing_basis_vector_2'> +1.8112828e-04 </wgt>
<wgt id='morphing_basis_vector_3'> +2.7028153e-04 </wgt>
<wgt id='morphing_basis_vector_4'> +1.6201215e-04 </wgt>
<wgt id='morphing_basis_vector_5'> +2.6306401e-04 </wgt>
</rwgt>
</event>
<event>
 4      1 +1.4786900e-06 1.00079900e+03 7.81860800e-03 8.68366800e-02
        2 -1    0    0  501    0 +0.0000000000e+00 +0.0000000000e+00 +6.5689412730e+02 6.5689412730e+02 0.0000000000e+00 0.0000e+00 -1.0000e+00
       -2 -1    0    0    0  501 -0.0000000000e+00 -0.0000000000e+00 -3.8118758302e+02 3.8118758302e+02 0.0000000000e+00 0.0000e+00 1.0000e+00
      -13  1    1    2    0    0 +2.8881151487e+02 +1.6528112584e+02 -2.4979331022e+02 4.1608489460e+02 0.0000000000e+00 0.0000e+00 1.0000e+00
       13  1    1    2    0    0 -2.8881151487e+02 -1.6528112584e+02 +5.2549985451e+02 6.2199681572e+02 0.0000000000e+00 0.0000e+00 -1.0000e+00
<mgrwt>
<rscale>  0 0.10007994E+04</rscale>
<asrwt>0</asrwt>
<pdfrwt beam="1">  1        2 0.10106064E+00 0.10007994E+04</pdfrwt>
<pdfrwt beam="2">  1       -2 0.58644243E-01 0.10007994E+04</pdfrwt>
<totfact> 0.14874781E+02</totfact>
</mgrwt>
<rwgt>
<wgt id='morphing_basis_vector_1'> +2.3394047e-04 </wgt>
<wgt id='morphing_basis_vector_2'> +1.4672661e-04 </wgt>
<wgt id='morphing_basis_vector_3'> +2.2513098e-04 </wgt>
<wgt id='morphing_basis_vector_4'> +1.3730890e-04 </wgt>
<wgt id='morphing_basis_vector_5'> +2.1771281e-04 </wgt>
</rwgt>
</event>
<event>
 4      1 +1.4786900e-06 1.02705800e+03 7.81860800e-03 8.65908400e-02
        2 -1    0    0  501    0 +0.0000000000e+00 +0.0000000000e+00 +4.7750500293e+02 4.7750500293e+02 0.0000000000e+00 0.0000e+00 -1.0000e+00
       -2 -1    0    0    0  501 -0.0000000000e+00 -0.0000000000e+00 -5.5227024191e+02 5.5227024191e+02 0.0000000000e+00 0.0000e+00 1.0000e+00
      -13  1    1    2    0    0 -4.9977832216e+02 +8.6021893954e+01 -1.1842760148e+02 5.2077176799e+02 0.0000000000e+00 0.0000e+00 1.0000e+00
       13  1    1    2    0    0 +4.9977832216e+02 -8.6021893954e+01 +4.3662362506e+01 5.0900347685e+02 0.0000000000e+00 0.0000e+00 -1.0000e+00
<mgrwt>
<rscale>  0 0.10270576E+04</rscale>
<asrwt>0</asrwt>
<pdfrwt beam="1">  1        2 0.73462308E-01 0.10270576E+04</pdfrwt>
<pdfrwt beam="2">  1       -2 0.84964652E-01 0.10270576E+04</pdfrwt>
<totfact> 0.96739796E+01</totfact>
</mgrwt>
<rwgt>
<wgt id='morphing_basis_vector_1'> +2.6238920e-04 </wgt>
<wgt id='morphing_basis_vector_2'> +1.7692428e-04 </wgt>
<wgt id='morphing_basis_vector_3'> +2.5413851e-04 </wgt>
<wgt id='morphing_basis_vector_4'> +1.4580590e-04 </wgt>
<wgt id='morphing_basis_vector_5'> +2.4309934e-04 </wgt>
</rwgt>
</event>
<event>
 4      1 +1.4786900e-06 9.41703500e+02 7.81860800e-03 8.74198700e-02
        2 -1    0    0  501    0 +0.0000000000e+00 +0.0000000000e+00 +1.8796231161e+03 1.8796231161e+03 0.0000000000e+00 0.0000e+00 -1.0000e+00
       -2 -1    0    0    0  501 -0.0000000000e+00 -0.0000000000e+00 -1.1794991472e+02 1.1794991472e+02 0.0000000000e+00 0.0000e+00 1.0000e+00
      -13  1    1    2    0    0 +3.0041888706e+02 +2.4545562163e+02 +3.1481529038e+02 4.9960848366e+02 0.0000000000e+00 0.0000e+00 1.0000e+00
       13  1    1    2    0    0 -3.0041888706e+02 -2.4545562163e+02 +1.4468579110e+03 1.4979645471e+03 0.0000000000e+00 0.0000e+00 -1.0000e+00
<mgrwt>
<rscale>  0 0.94170353E+03</rscale>
<asrwt>0</asrwt>
<pdfrwt beam="1">  1        2 0.28917276E+00 0.94170353E+03</pdfrwt>
<pdfrwt beam="2">  1       -2 0.18146142E-01 0.94170353E+03</pdfrwt>
<totfact> 0.22892182E+02</totfact>
</mgrwt>
<rwgt>
<wgt id='morphing_basis_vector_1'> +1.8742484e-04 </wgt>
<wgt id='morphing_basis_vector_2'> +1.1744772e-04 </wgt>
<wgt id='morphing_basis_vector_3'> +1.7737423e-04 </wgt>
<wgt id='morphing_basis_vector_4'> +1.0485439e-04 </wgt>
<wgt id='morphing_basis_vector_5'> +1.6686964e-04 </wgt>
</rwgt>
</event>
<event>
 4      1 +1.4786900e-06 1.03359400e+03 7.81860800e-03 8.65308300e-02
        2 -1    0    0  501    0 +0.0000000000e+00 +0.0000000000e+00 +9.2473131288e+02 9.2473131288e+02 0.0000000000e+00 0.0000e+00 1.0000e+00
       -2 -1    0    0    0  501 -0.0000000000e+00 -0.0000000000e+00 -2.8881819995e+02 2.8881819995e+02 0.0000000000e+00 0.0000e+00 -1.0000e+00
      -13  1    1    2    0    0 +4.8251836958e+02 +1.2946182060e+02 +1.6265954700e+02 5.2539743833e+02 0.0000000000e+00 0.0000e+00 -1.0000e+00
       13  1    1    2    0    0 -4.8251836958e+02 -1.2946182060e+02 +4.7325356592e+02 6.8815207449e+02 0.0000000000e+00 0.0000e+00 1.0000e+00
<mgrwt>
<rscale>  0 0.10335942E+04</rscale>
<asrwt>0</asrwt>
<pdfrwt beam="1">  1        2 0.14226635E+00 0.10335942E+04</pdfrwt>
<pdfrwt beam="2">  1       -2 0.44433570E-01 0.10335942E+04</pdfrwt>
<totfact> 0.16569005E+02</totfact>
</mgrwt>
<rwgt>
<wgt id='morphing_basis_vector_1'> +2.6693740e-04 </wgt>
<wgt id='morphing_basis_vector_2'> +1.7613257e-04 </wgt>
<wgt id='morphing_basis_vector_3'> +2.5897829e-04 </wgt>
<wgt id='morphing_basis_vector_4'> +1.5252424e-04 </wgt>
<wgt id='morphing_basis_vector_5'> +2.5001936e-04 </wgt>
</rwgt>
</event>
<event>
 4      1 +1.4786900e-06 1.00848900e+03 7.81860800e-03 8.67638900e-02
        2 -1    0    0  501    0 +0.0000000000e+00 +0.0000000000e+00 +1.9356759525e+03 1.9356759525e+03 0.0000000000e+00 0.0000e+00 -1.0000e+00
       -2 -1    0    0    0  501 -0.0000000000e+00 -0.0000000000e+00 -1.3135593219e+02 1.3135593219e+02 0.0000000000e+00 0.0000e+00 1.0000e+00
      -13  1    1    2    0    0 +1.6105345671e+02 +4.2895727599e+02 +4.7066509675e+02 6.5686238577e+02 0.0000000000e+00 0.0000e+00 1.0000e+00
       13  1    1    2    0    0 -1.6105345671e+02 -4.2895727599e+02 +1.3336549236e+03 1.4101694990e+03 0.0000000000e+00 0.0000e+00 -1.0000e+00
<mgrwt>
<rscale>  0 0.10084890E+04</rscale>
<asrwt>0</asrwt>
<pdfrwt beam="1">  1        2 0.29779628E+00 0.10084890E+04</pdfrwt>
<pdfrwt beam="2">  1       -2 0.20208606E-01 0.10084890E+04</pdfrwt>
<totfact> 0.17724702E+02</totfact>
</mgrwt>
<rwgt>
<wgt id='morphing_basis_vector_1'> +2.4203713e-04 </wgt>
<wgt id='morphing_basis_vector_2'> +1.5528635e-04 </wgt>
<wgt id='morphing_basis_vector_3'> +2.3334752e-04 </wgt>
<wgt id='morphing_basis_vector_4'> +1.3977321e-04 </wgt>
<wgt id='morphing_basis_vector_5'> +2.2493740e-04 </wgt>
</rwgt>
</event>
<event>
 4      1 +1.4786900e-06 9.21960800e+02 7.81860800e-03 8.76247300e-02
        2 -1    0    0  501    0 +0.0000000000e+00 +0.0000000000e+00 +1.1212511021e+03 1.1212511021e+03 0.0000000000e+00 0.0000e+00 -1.0000e+00
       -2 -1    0    0    0  501 -0.0000000000e+00 -0.0000000000e+00 -1.8952303376e+02 1.8952303376e+02 0.0000000000e+00 0.0000e+00 1.0000e+00
      -13  1    1    2    0    0 +3.1511695285e+02 +3.7645227184e+01 -9.4834291484e+00 3.1749927958e+02 0.0000000000e+00 0.0000e+00 1.0000e+00
       13  1    1    2    0    0 -3.1511695285e+02 -3.7645227184e+01 +9.4121149746e+02 9.9327485624e+02 0.0000000000e+00 0.0000e+00 -1.0000e+00
<mgrwt>
<rscale>  0 0.92196076E+03</rscale>
<asrwt>0</asrwt>
<pdfrwt beam="1">  1        2 0.17250017E+00 0.92196076E+03</pdfrwt>
<pdfrwt beam="2">  1       -2 0.29157390E-01 0.92196076E+03</pdfrwt>
<totfact> 0.27258831E+02</totfact>
</mgrwt>
<rwgt>
<wgt id='morphing_basis_vector_1'> +1.7312077e-04 </wgt>
<wgt id='morphing_basis_vector_2'> +1.0728844e-04 </wgt>
<wgt id='morphing_basis_vector_3'> +1.6286814e-04 </wgt>
<wgt id='morphing_basis_vector_4'> +9.6091661e-05 </wgt>
<wgt id='morphing_basis_vector_5'> +1.5204187e-04 </wgt>
</rwgt>
</event>
<event>
 4      1 +1.4786900e-06 9.94178700e+02 7.81860800e-03 8.68999100e-02
        2 -1    0    0  501    0 +0.0000000000e+00 +0.0000000000e+00 +1.6201449381e+03 1.6201449381e+03 0.0000000000e+00 0.0000e+00 -1.0000e+00
       -2 -1    0    0    0  501 -0.0000000000e+00 -0.0000000000e+00 -1.5251587717e+02 1.5251587717e+02 0.0000000000e+00 0.0000e+00 1.0000e+00
      -13  1    1    2    0    0 +4.8041912949e+02 +1.1737126030e+02 +6.4431951254e+02 8.1223530271e+02 0.0000000000e+00 0.0000e+00 1.0000e+00
       13  1    1    2    0    0 -4.8041912949e+02 -1.1737126030e+02 +8.2330954834e+02 9.6042551253e+02 0.0000000000e+00 0.0000e+00 -1.0000e+00
<mgrwt>
<rscale>  0 0.99417871E+03</rscale>
<asrwt>0</asrwt>
<pdfrwt beam="1">  1        2 0.24925306E+00 0.99417871E+03</pdfrwt>
<pdfrwt beam="2">  1       -2 0.23463982E-01 0.99417871E+03</pdfrwt>
<totfact> 0.20604189E+02</totfact>
</mgrwt>
<rwgt>
<wgt id='morphing_basis_vector_1'> +2.3370358e-04 </wgt>
<wgt id='morphing_basis_vector_2'> +1.5947704e-04 </wgt>
<wgt id='morphing_basis_vector_3'> +2.2430624e-04 </wgt>
<wgt id='morphing_basis_vector_4'> +1.2507709e-04 </wgt>
<wgt id='morphing_basis_vector_5'> +2.1102863e-04 </wgt>
</rwgt>
</event>
<event>
 4      1 +1.4786900e-06 9.68635100e+02 7.81860800e-03 8.71487200e-02
        2 -1    0    0  501    0 +0.0000000000e+00 +0.0000000000e+00 +1.9378232119e+03 1.9378232119e+03 0.0000000000e+00 0.0000e+00 -1.0000e+00
       -2 -1    0    0    0  501 -0.0000000000e+00 -0.0000000000e+00 -1.2104484333e+02 1.2104484333e+02 0.0000000000e+00 0.0000e+00 1.0000e+00
      -13  1    1    2    0    0 -1.3455861426e+02 +4.2355618783e+02 +4.9921597716e+02 6.6837299225e+02 0.0000000000e+00 0.0000e+00 1.0000e+00
       13  1    1    2    0    0 +1.3455861426e+02 -4.2355618783e+02 +1.3175623914e+03 1.3904950630e+03 0.0000000000e+00 0.0000e+00 -1.0000e+00
<mgrwt>
<rscale>  0 0.96863514E+03</rscale>
<asrwt>0</asrwt>
<pdfrwt beam="1">  1        2 0.29812663E+00 0.96863514E+03</pdfrwt>
<pdfrwt beam="2">  1       -2 0.18622285E-01 0.96863514E+03</pdfrwt>
<totfact> 0.20320763E+02</totfact>
</mgrwt>
<rwgt>
<wgt id='morphing_basis_vector_1'> +2.0872143e-04 </wgt>
<wgt id='morphing_basis_vector_2'> +1.3345515e-04 </wgt>
<wgt id='morphing_basis_vector_3'> +1.9904218e-04 </wgt>
<wgt id='morphing_basis_vector_4'> +1.1721356e-04 </wgt>
<wgt id='morphing_basis_vector_5'> +1.8872628e-04 </wgt>
</rwgt>
</event>
<event>
 4      1 +1.4786900e-06 9.12144600e+02 7.81860800e-03 8.77286000e-02
        2 -1    0    0  501    0 +0.0000000000e+00 +0.0000000000e+00 +5.3854354107e+02 5.3854354107e+02 0.0000000000e+00 0.0000e+00 -1.0000e+00
       -2 -1    0    0    0  501 -0.0000000000e+00 -0.0000000000e+00 -3.8623049400e+02 3.8623049400e+02 0.0000000000e+00 0.0000e+00 1.0000e+00
      -13  1    1    2    0    0 -2.8081285307e+02 +3.0194431678e+02 -1.2141524474e+02 4.2984635690e+02 0.0000000000e+00 0.0000e+00 1.0000e+00
       13  1    1    2    0    0 +2.8081285307e+02 -3.0194431678e+02 +2.7372829181e+02 4.9492767817e+02 0.0000000000e+00 0.0000e+00 -1.0000e+00
<mgrwt>
<rscale>  0 0.91214459E+03</rscale>
<asrwt>0</asrwt>
<pdfrwt beam="1">  1        2 0.82852852E-01 0.91214459E+03</pdfrwt>
<pdfrwt beam="2">  1       -2 0.59420076E-01 0.91214459E+03</pdfrwt>
<totfact> 0.18399089E+02</totfact>
</mgrwt>
<rwgt>
<wgt id='morphing_basis_vector_1'> +1.6737128e-04 </wgt>
<wgt id='morphing_basis_vector_2'> +1.0565469e-04 </wgt>
<wgt id='morphing_basis_vector_3'> +1.5684356e-04 </wgt>
<wgt id='morphing_basis_vector_4'> +9.0439327e-05 </wgt>
<wgt id='morphing_basis_vector_5'> +1.4495627e-04 </wgt>
</rwgt>
</event>
<event>
 4      1 +1.4786900e-06 9.05976900e+02 7.81860800e-03 8.77945600e-02
        2 -1    0    0  501    0 +0.0000000000e+00 +0.0000000000e+00 +5.1803069480e+02 5.1803069480e+02 0.0000000000e+00 0.0000e+00 -1.0000e+00
       -2 -1    0    0    0  501 -0.0000000000e+00 -0.0000000000e+00 -3.9611272955e+02 3.9611272955e+02 0.0000000000e+00 0.0000e+00 1.0000e+00
      -13  1    1    2    0    0 -1.2765485441e+02 -1.4934818628e+02 -3.5088428577e+02 4.0214478064e+02 0.0000000000e+00 0.0000e+00 1.0000e+00
       13  1    1    2    0    0 +1.2765485441e+02 +1.4934818628e+02 +4.7280225102e+02 5.1199864372e+02 0.0000000000e+00 0.0000e+00 -1.0000e+00
<mgrwt>
<rscale>  0 0.90597694E+03</rscale>
<asrwt>0</asrwt>
<pdfrwt beam="1">  1        2 0.79697030E-01 0.90597694E+03</pdfrwt>
<pdfrwt beam="2">  1       -2 0.60940420E-01 0.90597694E+03</pdfrwt>
<totfact> 0.18276844E+02</totfact>
</mgrwt>
<rwgt>
<wgt id='morphing_basis_vector_1'> +1.6229814e-04 </wgt>
<wgt id='morphing_basis_vector_2'> +9.9944544e-05 </wgt>
<wgt id='morphing_basis_vector_3'> +1.5191202e-04 </wgt>
<wgt id='morphing_basis_vector_4'> +8.9210662e-05 </wgt>
<wgt id='morphing_basis_vector_5'> +1.4074723e-04 </wgt>
</rwgt>
</event>
<event>
 4      1 +1.4786900e-06 1.03373500e+03 7.81860800e-03 8.65295400e-02
        2 -1    0    0  501    0 +0.0000000000e+00 +0.0000000000e+00 +1.1027443021e+03 1.1027443021e+03 0.0000000000e+00 0.0000e+00 -1.0000e+00
       -2 -1    0    0    0  501 -0.0000000000e+00 -0.0000000000e+00 -2.4226125955e+02 2.4226125955e+02 0.0000000000e+00 0.0000e+00 1.0000e+00
      -13  1    1    2    0    0 -2.3284219603e+02 +1.6224542558e+02 -1.3182254131e+02 3.1291572151e+02 0.0000000000e+00 0.0000e+00 1.0000e+00
       13  1    1    2    0    0 +2.3284219603e+02 -1.6224542558e+02 +9.9230558381e+02 1.0320898401e+03 0.0000000000e+00 0.0000e+00 -1.0000e+00
<mgrwt>
<rscale>  0 0.10337354E+04</rscale>
<asrwt>0</asrwt>
<pdfrwt beam="1">  1        2 0.16965297E+00 0.10337354E+04</pdfrwt>
<pdfrwt beam="2">  1       -2 0.37270964E-01 0.10337354E+04</pdfrwt>
<totfact> 0.17860506E+02</totfact>
</mgrwt>
<rwgt>
<wgt id='morphing_basis_vector_1'> +2.6361922e-04 </wgt>
<wgt id='morphing_basis_vector_2'> +1.6578369e-04 </wgt>
<wgt id='morphing_basis_vector_3'> +2.5576650e-04 </wgt>
<wgt id='morphing_basis_vector_4'> +1.5806882e-04 </wgt>
<wgt id='morphing_basis_vector_5'> +2.5050160e-04 </wgt>
</rwgt>
</event>
<event>
 4      1 +1.4786900e-06 9.26843200e+02 7.81860800e-03 8.75735700e-02
        2 -1    0    0  501    0 +0.0000000000e+00 +0.0000000000e+00 +8.9217365376e+02 8.9217365376e+02 0.0000000000e+00 0.0000e+00 -1.0000e+00
       -2 -1    0    0    0  501 -0.0000000000e+00 -0.0000000000e+00 -2.4071501390e+02 2.4071501390e+02 0.0000000000e+00 0.0000e+00 1.0000e+00
      -13  1    1    2    0    0 -3.9850313051e+01 +4.3449365571e+02 +1.3485019285e+02 4.5668080627e+02 0.0000000000e+00 0.0000e+00 1.0000e+00
       13  1    1    2    0    0 +3.9850313051e+01 -4.3449365571e+02 +5.1660844700e+02 6.7620786139e+02 0.0000000000e+00 0.0000e+00 -1.0000e+00
<mgrwt>
<rscale>  0 0.92684323E+03</rscale>
<asrwt>0</asrwt>
<pdfrwt beam="1">  1        2 0.13725748E+00 0.92684323E+03</pdfrwt>
<pdfrwt beam="2">  1       -2 0.37033079E-01 0.92684323E+03</pdfrwt>
<totfact> 0.24622722E+02</totfact>
</mgrwt>
<rwgt>
<wgt id='morphing_basis_vector_1'> +1.7797785e-04 </wgt>
<wgt id='morphing_basis_vector_2'> +1.1399502e-04 </wgt>
<wgt id='morphing_basis_vector_3'> +1.6752614e-04 </wgt>
<wgt id='morphing_basis_vector_4'> +9.6164944e-05 </wgt>
<wgt id='morphing_basis_vector_5'> +1.5550385e-04 </wgt>
</rwgt>
</event>
<event>
 4      1 +1.4786900e-06 1.03775600e+03 7.81860800e-03 8.64928600e-02
        2 -1    0    0  501    0 +0.0000000000e+00 +0.0000000000e+00 +8.6752167892e+02 8.6752167892e+02 0.0000000000e+00 0.0000e+00 -1.0000e+00
       -2 -1    0    0    0  501 -0.0000000000e+00 -0.0000000000e+00 -3.1034874324e+02 3.1034874324e+02 0.0000000000e+00 0.0000e+00 1.0000e+00
      -13  1    1    2    0    0 +3.0769182780e+02 +2.0100312425e+02 -1.3714244850e+02 3.9228123589e+02 0.0000000000e+00 0.0000e+00 1.0000e+00
       13  1    1    2    0    0 -3.0769182780e+02 -2.0100312425e+02 +6.9431538418e+02 7.8558918626e+02 0.0000000000e+00 0.0000e+00 -1.0000e+00
<mgrwt>
<rscale>  0 0.10377558E+04</rscale>
<asrwt>0</asrwt>
<pdfrwt beam="1">  1        2 0.13346487E+00 0.10377558E+04</pdfrwt>
<pdfrwt beam="2">  1       -2 0.47745961E-01 0.10377558E+04</pdfrwt>
<totfact> 0.15724162E+02</totfact>
</mgrwt>
<rwgt>
<wgt id='morphing_basis_vector_1'> +2.6767718e-04 </wgt>
<wgt id='morphing_basis_vector_2'> +1.6897664e-04 </wgt>
<wgt id='morphing_basis_vector_3'> +2.5995021e-04 </wgt>
<wgt id='morphing_basis_vector_4'> +1.6036285e-04 </wgt>
<wgt id='morphing_basis_vector_5'> +2.5471346e-04 </wgt>
</rwgt>
</event>
<event>
 4      1 +1.4786900e-06 1.04923800e+03 7.81860800e-03 8.63890500e-02
        2 -1    0    0  501    0 +0.0000000000e+00 +0.0000000000e+00 +2.0629378777e+03 2.0629378777e+03 0.0000000000e+00 0.0000e+00 1.0000e+00
       -2 -1    0    0    0  501 -0.0000000000e+00 -0.0000000000e+00 -1.3341412322e+02 1.3341412322e+02 0.0000000000e+00 0.0000e+00 -1.0000e+00
      -13  1    1    2    0    0 +3.2482027137e+02 -2.5811526987e+02 +2.9264733845e+02 5.0771465011e+02 0.0000000000e+00 0.0000e+00 -1.0000e+00
       13  1    1    2    0    0 -3.2482027137e+02 +2.5811526987e+02 +1.6368764161e+03 1.6886373509e+03 0.0000000000e+00 0.0000e+00 1.0000e+00
<mgrwt>
<rscale>  0 0.10492379E+04</rscale>
<asrwt>0</asrwt>
<pdfrwt beam="1">  1        2 0.31737503E+00 0.10492379E+04</pdfrwt>
<pdfrwt beam="2">  1       -2 0.20525251E-01 0.10492379E+04</pdfrwt>
<totfact> 0.14619253E+02</totfact>
</mgrwt>
<rwgt>
<wgt id='morphing_basis_vector_1'> +2.7916549e-04 </wgt>
<wgt id='morphing_basis_vector_2'> +1.7723480e-04 </wgt>
<wgt id='morphing_basis_vector_3'> +2.7183269e-04 </wgt>
<wgt id='morphing_basis_vector_4'> +1.6762288e-04 </wgt>
<wgt id='morphing_basis_vector_5'> +2.6706290e-04 </wgt>
</rwgt>
</event>
<event>
 4      1 +1.4786900e-06 9.90777500e+02 7.81860800e-03 8.69325800e-02
        2 -1    0    0  501    0 +0.0000000000e+00 +0.0000000000e+00 +4.7640519481e+02 4.7640519481e+02 0.0000000000e+00 0.0000e+00 1.0000e+00
       -2 -1    0    0    0  501 -0.0000000000e+00 -0.0000000000e+00 -5.1512874678e+02 5.1512874678e+02 0.0000000000e+00 0.0000e+00 -1.0000e+00
      -13  1    1    2    0    0 +4.8806470349e+02 +6.7029144814e+01 -7.1458700302e+01 4.9780157382e+02 0.0000000000e+00 0.0000e+00 1.0000e+00
       13  1    1    2    0    0 -4.8806470349e+02 -6.7029144814e+01 +3.2735148332e+01 4.9373236777e+02 0.0000000000e+00 0.0000e+00 -1.0000e+00
<mgrwt>
<rscale>  0 0.99077749E+03</rscale>
<asrwt>0</asrwt>
<pdfrwt beam="1">  1        2 0.73293107E-01 0.99077749E+03</pdfrwt>
<pdfrwt beam="2">  1       -2 0.79250576E-01 0.99077749E+03</pdfrwt>
<totfact> 0.11394458E+02</totfact>
</mgrwt>
<rwgt>
<wgt id='morphing_basis_vector_1'> +2.3067968e-04 </wgt>
<wgt id='morphing_basis_vector_2'> +1.5714178e-04 </wgt>
<wgt id='morphing_basis_vector_3'> +2.2118981e-04 </wgt>
<wgt id='morphing_basis_vector_4'> +1.2337302e-04 </wgt>
<wgt id='morphing_basis_vector_5'> +2.0791630e-04 </wgt>
</rwgt>
</event>
<event>
 4      1 +1.4786900e-06 9.29457000e+02 7.81860800e-03 8.75463200e-02
        2 -1    0    0  501    0 +0.0000000000e+00 +0.0000000000e+00 +5.9917839232e+02 5.9917839232e+02 0.0000000000e+00 0.0000e+00 -1.0000e+00
       -2 -1    0    0    0  501 -0.0000000000e+00 -0.0000000000e+00 -3.6044786900e+02 3.6044786900e+02 0.0000000000e+00 0.0000e+00 1.0000e+00
      -13  1    1    2    0    0 +3.1574939001e+02 +3.0022035845e+02 -4.7569774364e+01 4.3828395402e+02 0.0000000000e+00 0.0000e+00 1.0000e+00
       13  1    1    2    0    0 -3.1574939001e+02 -3.0022035845e+02 +2.8630029769e+02 5.2134230730e+02 0.0000000000e+00 0.0000e+00 -1.0000e+00
<mgrwt>
<rscale>  0 0.92945699E+03</rscale>
<asrwt>0</asrwt>
<pdfrwt beam="1">  1        2 0.92181291E-01 0.92945699E+03</pdfrwt>
<pdfrwt beam="2">  1       -2 0.55453518E-01 0.92945699E+03</pdfrwt>
<totfact> 0.18669176E+02</totfact>
</mgrwt>
<rwgt>
<wgt id='morphing_basis_vector_1'> +1.7973782e-04 </wgt>
<wgt id='morphing_basis_vector_2'> +1.1498202e-04 </wgt>
<wgt id='morphing_basis_vector_3'> +1.6933534e-04 </wgt>
<wgt id='morphing_basis_vector_4'> +9.7470362e-05 </wgt>
<wgt id='morphing_basis_vector_5'> +1.5745042e-04 </wgt>
</rwgt>
</event>
<event>
 4      1 +1.4786900e-06 1.06962700e+03 7.81860800e-03 8.62080500e-02
        2 -1    0    0  501    0 +0.0000000000e+00 +0.0000000000e+00 +8.9561568132e+02 8.9561568132e+02 0.0000000000e+00 0.0000e+00 -1.0000e+00
       -2 -1    0    0    0  501 -0.0000000000e+00 -0.0000000000e+00 -3.1936207976e+02 3.1936207976e+02 0.0000000000e+00 0.0000e+00 1.0000e+00
      -13  1    1    2    0    0 -2.2693800925e+01 +3.2948675877e+02 -1.8968850763e+02 3.8086515033e+02 0.0000000000e+00 0.0000e+00 1.0000e+00
       13  1    1    2    0    0 +2.2693800925e+01 -3.2948675877e+02 +7.6594210918e+02 8.3411261075e+02 0.0000000000e+00 0.0000e+00 -1.0000e+00
<mgrwt>
<rscale>  0 0.10696274E+04</rscale>
<asrwt>0</asrwt>
<pdfrwt beam="1">  1        2 0.13778703E+00 0.10696274E+04</pdfrwt>
<pdfrwt beam="2">  1       -2 0.49132628E-01 0.10696274E+04</pdfrwt>
<totfact> 0.14221336E+02</totfact>
</mgrwt>
<rwgt>
<wgt id='morphing_basis_vector_1'> +2.9940592e-04 </wgt>
<wgt id='morphing_basis_vector_2'> +1.8934876e-04 </wgt>
<wgt id='morphing_basis_vector_3'> +2.9285474e-04 </wgt>
<wgt id='morphing_basis_vector_4'> +1.8285266e-04 </wgt>
<wgt id='morphing_basis_vector_5'> +2.9017404e-04 </wgt>
</rwgt>
</event>
<event>
 4      1 +1.4786900e-06 1.00145300e+03 7.81860800e-03 8.68304700e-02
        2 -1    0    0  501    0 +0.0000000000e+00 +0.0000000000e+00 +8.4471320690e+02 8.4471320690e+02 0.0000000000e+00 0.0000e+00 -1.0000e+00
       -2 -1    0    0    0  501 -0.0000000000e+00 -0.0000000000e+00 -2.9681886707e+02 2.9681886707e+02 0.0000000000e+00 0.0000e+00 1.0000e+00
      -13  1    1    2    0    0 -3.0561071191e+02 +4.0557231010e+01 -1.7581171231e+02 3.5489794929e+02 0.0000000000e+00 0.0000e+00 1.0000e+00
       13  1    1    2    0    0 +3.0561071191e+02 -4.0557231010e+01 +7.2370605214e+02 7.8663412469e+02 0.0000000000e+00 0.0000e+00 -1.0000e+00
<mgrwt>
<rscale>  0 0.10014526E+04</rscale>
<asrwt>0</asrwt>
<pdfrwt beam="1">  1        2 0.12995588E+00 0.10014526E+04</pdfrwt>
<pdfrwt beam="2">  1       -2 0.45664441E-01 0.10014526E+04</pdfrwt>
<totfact> 0.17792103E+02</totfact>
</mgrwt>
<rwgt>
<wgt id='morphing_basis_vector_1'> +2.3444102e-04 </wgt>
<wgt id='morphing_basis_vector_2'> +1.4690046e-04 </wgt>
<wgt id='morphing_basis_vector_3'> +2.2565267e-04 </wgt>
<wgt id='morphing_basis_vector_4'> +1.3779537e-04 </wgt>
<wgt id='morphing_basis_vector_5'> +2.1833639e-04 </wgt>
</rwgt>
</event>
<event>
 4      1 +1.4786900e-06 9.94041400e+02 7.81860800e-03 8.69012200e-02
        2 -1    0    0  501    0 +0.0000000000e+00 +0.0000000000e+00 +1.1641899685e+03 1.1641899685e+03 0.0000000000e+00 0.0000e+00 1.0000e+00
       -2 -1    0    0    0  501 -0.0000000000e+00 -0.0000000000e+00 -2.1219010400e+02 2.1219010400e+02 0.0000000000e+00 0.0000e+00 -1.0000e+00
      -13  1    1    2    0    0 -1.1927367462e+02 +1.8140800728e+02 -1.4306233090e+02 2.6000366360e+02 0.0000000000e+00 0.0000e+00 -1.0000e+00
       13  1    1    2    0    0 +1.1927367462e+02 -1.8140800728e+02 +1.0950621954e+03 1.1163764090e+03 0.0000000000e+00 0.0000e+00 1.0000e+00
<mgrwt>
<rscale>  0 0.99404143E+03</rscale>
<asrwt>0</asrwt>
<pdfrwt beam="1">  1        2 0.17910615E+00 0.99404143E+03</pdfrwt>
<pdfrwt beam="2">  1       -2 0.32644632E-01 0.99404143E+03</pdfrwt>
<totfact> 0.20943504E+02</totfact>
</mgrwt>
<rwgt>
<wgt id='morphing_basis_vector_1'> +2.2799441e-04 </wgt>
<wgt id='morphing_basis_vector_2'> +1.4246137e-04 </wgt>
<wgt id='morphing_basis_vector_3'> +2.1902954e-04 </wgt>
<wgt id='morphing_basis_vector_4'> +1.3360126e-04 </wgt>
<wgt id='morphing_basis_vector_5'> +2.1141139e-04 </wgt>
</rwgt>
</event>
<event>
 4      1 +1.4786900e-06 9.03854000e+02 7.81860800e-03 8.78173900e-02
        2 -1    0    0  501    0 +0.0000000000e+00 +0.0000000000e+00 +2.8654935059e+02 2.8654935059e+02 0.0000000000e+00 0.0000e+00 -1.0000e+00
       -2 -1    0    0    0  501 -0.0000000000e+00 -0.0000000000e+00 -7.1274989626e+02 7.1274989626e+02 0.0000000000e+00 0.0000e+00 1.0000e+00
      -13  1    1    2    0    0 +2.8806124385e+02 -3.3351750494e+02 -3.2379716338e+02 5.4686178265e+02 0.0000000000e+00 0.0000e+00 1.0000e+00
       13  1    1    2    0    0 -2.8806124385e+02 +3.3351750494e+02 -1.0240338229e+02 4.5243746420e+02 0.0000000000e+00 0.0000e+00 -1.0000e+00
<mgrwt>
<rscale>  0 0.90385401E+03</rscale>
<asrwt>0</asrwt>
<pdfrwt beam="1">  1        2 0.44084516E-01 0.90385401E+03</pdfrwt>
<pdfrwt beam="2">  1       -2 0.10965383E+00 0.90385401E+03</pdfrwt>
<totfact> 0.94329061E+01</totfact>
</mgrwt>
<rwgt>
<wgt id='morphing_basis_vector_1'> +1.6336646e-04 </wgt>
<wgt id='morphing_basis_vector_2'> +1.0650104e-04 </wgt>
<wgt id='morphing_basis_vector_3'> +1.5245116e-04 </wgt>
<wgt id='morphing_basis_vector_4'> +8.4805296e-05 </wgt>
<wgt id='morphing_basis_vector_5'> +1.3910735e-04 </wgt>
</rwgt>
</event>
<event>
 4      1 +1.4786900e-06 9.00918600e+02 7.81860800e-03 8.78490700e-02
        2 -1    0    0  501    0 +0.0000000000e+00 +0.0000000000e+00 +2.1755552120e+03 2.1755552120e+03 0.0000000000e+00 0.0000e+00 1.0000e+00
       -2 -1    0    0    0  501 -0.0000000000e+00 -0.0000000000e+00 -9.3269801663e+01 9.3269801663e+01 0.0000000000e+00 0.0000e+00 -1.0000e+00
      -13  1    1    2    0    0 +3.3149522134e+02 +2.8235088100e+02 +7.5068554925e+02 8.6783632997e+02 0.0000000000e+00 0.0000e+00 -1.0000e+00
       13  1    1    2    0    0 -3.3149522134e+02 -2.8235088100e+02 +1.3315998611e+03 1.4009886837e+03 0.0000000000e+00 0.0000e+00 1.0000e+00
<mgrwt>
<rscale>  0 0.90091865E+03</rscale>
<asrwt>0</asrwt>
<pdfrwt beam="1">  1        2 0.33470076E+00 0.90091865E+03</pdfrwt>
<pdfrwt beam="2">  1       -2 0.14349202E-01 0.90091865E+03</pdfrwt>
<totfact> 0.23053640E+02</totfact>
</mgrwt>
<rwgt>
<wgt id='morphing_basis_vector_1'> +1.6112791e-04 </wgt>
<wgt id='morphing_basis_vector_2'> +1.0422492e-04 </wgt>
<wgt id='morphing_basis_vector_3'> +1.5025095e-04 </wgt>
<wgt id='morphing_basis_vector_4'> +8.4059063e-05 </wgt>
<wgt id='morphing_basis_vector_5'> +1.3714199e-04 </wgt>
</rwgt>
</event>
<event>
 4      1 +1.4786900e-06 9.27074500e+02 7.81860800e-03 8.75711600e-02
        2 -1    0    0  501    0 +0.0000000000e+00 +0.0000000000e+00 +7.1187614324e+02 7.1187614324e+02 0.0000000000e+00 0.0000e+00 -1.0000e+00
       -2 -1    0    0    0  501 -0.0000000000e+00 -0.0000000000e+00 -3.0183169619e+02 3.0183169619e+02 0.0000000000e+00 0.0000e+00 1.0000e+00
      -13  1    1    2    0    0 +7.1038866871e+01 +1.7551132046e+02 -2.5761880017e+02 3.1971579632e+02 0.0000000000e+00 0.0000e+00 1.0000e+00
       13  1    1    2    0    0 -7.1038866871e+01 -1.7551132046e+02 +6.6766324722e+02 6.9399204311e+02 0.0000000000e+00 0.0000e+00 -1.0000e+00
<mgrwt>
<rscale>  0 0.92707450E+03</rscale>
<asrwt>0</asrwt>
<pdfrwt beam="1">  1        2 0.10951941E+00 0.92707450E+03</pdfrwt>
<pdfrwt beam="2">  1       -2 0.46435646E-01 0.92707450E+03</pdfrwt>
<totfact> 0.21511256E+02</totfact>
</mgrwt>
<rwgt>
<wgt id='morphing_basis_vector_1'> +1.7648800e-04 </wgt>
<wgt id='morphing_basis_vector_2'> +1.0908244e-04 </wgt>
<wgt id='morphing_basis_vector_3'> +1.6632388e-04 </wgt>
<wgt id='morphing_basis_vector_4'> +9.8679151e-05 </wgt>
<wgt id='morphing_basis_vector_5'> +1.5580711e-04 </wgt>
</rwgt>
</event>
<event>
 4      1 +1.4786900e-06 1.04895000e+03 7.81860800e-03 8.63916300e-02
        2 -1    0    0  501    0 +0.0000000000e+00 +0.0000000000e+00 +1.9065592654e+03 1.9065592654e+03 0.0000000000e+00 0.0000e+00 -1.0000e+00
       -2 -1    0    0    0  501 -0.0000000000e+00 -0.0000000000e+00 -1.4427780336e+02 1.4427780336e+02 0.0000000000e+00 0.0000e+00 1.0000e+00
      -13  1    1    2    0    0 +1.7364147687e+02 -4.1793773736e+02 +3.6293513973e+02 5.8012518516e+02 0.0000000000e+00 0.0000e+00 1.0000e+00
       13  1    1    2    0    0 -1.7364147687e+02 +4.1793773736e+02 +1.3993463223e+03 1.4707118836e+03 0.0000000000e+00 0.0000e+00 -1.0000e+00
<mgrwt>
<rscale>  0 0.10489503E+04</rscale>
<asrwt>0</asrwt>
<pdfrwt beam="1">  1        2 0.29331679E+00 0.10489503E+04</pdfrwt>
<pdfrwt beam="2">  1       -2 0.22196586E-01 0.10489503E+04</pdfrwt>
<totfact> 0.15660413E+02</totfact>
</mgrwt>
<rwgt>
<wgt id='morphing_basis_vector_1'> +2.7942425e-04 </wgt>
<wgt id='morphing_basis_vector_2'> +1.7868927e-04 </wgt>
<wgt id='morphing_basis_vector_3'> +2.7207458e-04 </wgt>
<wgt id='morphing_basis_vector_4'> +1.6655961e-04 </wgt>
<wgt id='morphing_basis_vector_5'> +2.6669378e-04 </wgt>
</rwgt>
</event>
<event>
 4      1 +1.4786900e-06 9.19807000e+02 7.81860800e-03 8.76474000e-02
        2 -1    0    0  501    0 +0.0000000000e+00 +0.0000000000e+00 +2.2289398807e+03 2.2289398807e+03 0.0000000000e+00 0.0000e+00 -1.0000e+00
       -2 -1    0    0    0  501 -0.0000000000e+00 -0.0000000000e+00 -9.4893198828e+01 9.4893198828e+01 0.0000000000e+00 0.0000e+00 1.0000e+00
      -13  1    1    2    0    0 +3.9776630530e+02 -2.2398633768e+02 +1.2082174591e+03 1.2915793981e+03 0.0000000000e+00 0.0000e+00 1.0000e+00
       13  1    1    2    0    0 -3.9776630530e+02 +2.2398633768e+02 +9.2582922278e+02 1.0322536814e+03 0.0000000000e+00 0.0000e+00 -1.0000e+00
<mgrwt>
<rscale>  0 0.91980701E+03</rscale>
<asrwt>0</asrwt>
<pdfrwt beam="1">  1        2 0.34291379E+00 0.91980701E+03</pdfrwt>
<pdfrwt beam="2">  1       -2 0.14598955E-01 0.91980701E+03</pdfrwt>
<totfact> 0.20881999E+02</totfact>
</mgrwt>
<rwgt>
<wgt id='morphing_basis_vector_1'> +1.8084690e-04 </wgt>
<wgt id='morphing_basis_vector_2'> +1.3429664e-04 </wgt>
<wgt id='morphing_basis_vector_3'> +1.6888335e-04 </wgt>
<wgt id='morphing_basis_vector_4'> +8.1789104e-05 </wgt>
<wgt id='morphing_basis_vector_5'> +1.4975688e-04 </wgt>
</rwgt>
</event>
<event>
 4      1 +1.4786900e-06 9.15850900e+02 7.81860800e-03 8.76892200e-02
        2 -1    0    0  501    0 +0.0000000000e+00 +0.0000000000e+00 +1.1942210503e+03 1.1942210503e+03 0.0000000000e+00 0.0000e+00 -1.0000e+00
       -2 -1    0    0    0  501 -0.0000000000e+00 -0.0000000000e+00 -1.7559204884e+02 1.7559204884e+02 0.0000000000e+00 0.0000e+00 1.0000e+00
      -13  1    1    2    0    0 +3.1112021058e+02 +3.5943174366e+01 +1.0089856154e+03 1.0564751153e+03 0.0000000000e+00 0.0000e+00 1.0000e+00
       13  1    1    2    0    0 -3.1112021058e+02 -3.5943174366e+01 +9.6433860797e+00 3.1333798383e+02 0.0000000000e+00 0.0000e+00 -1.0000e+00
<mgrwt>
<rscale>  0 0.91585091E+03</rscale>
<asrwt>0</asrwt>
<pdfrwt beam="1">  1        2 0.18372631E+00 0.91585091E+03</pdfrwt>
<pdfrwt beam="2">  1       -2 0.27014162E-01 0.91585091E+03</pdfrwt>
<totfact> 0.28231585E+02</totfact>
</mgrwt>
<rwgt>
<wgt id='morphing_basis_vector_1'> +2.1914846e-04 </wgt>
<wgt id='morphing_basis_vector_2'> +2.5718425e-04 </wgt>
<wgt id='morphing_basis_vector_3'> +1.9931585e-04 </wgt>
<wgt id='morphing_basis_vector_4'> +2.0902565e-05 </wgt>
<wgt id='morphing_basis_vector_5'> +1.4372868e-04 </wgt>
</rwgt>
</event>
<event>
 4      1 +1.4786900e-06 1.04677700e+03 7.81860800e-03 8.64111900e-02
        2 -1    0    0  501    0 +0.0000000000e+00 +0.0000000000e+00 +1.2470230217e+03 1.2470230217e+03 0.0000000000e+00 0.0000e+00 1.0000e+00
       -2 -1    0    0    0  501 -0.0000000000e+00 -0.0000000000e+00 -2.1967137922e+02 2.1967137922e+02 0.0000000000e+00 0.0000e+00 -1.0000e+00
      -13  1    1    2    0    0 +3.3393909704e+02 +3.8558765889e+02 +3.4942321171e+02 6.1829583866e+02 0.0000000000e+00 0.0000e+00 1.0000e+00
       13  1    1    2    0    0 -3.3393909704e+02 -3.8558765889e+02 +6.7792843079e+02 8.4839856228e+02 0.0000000000e+00 0.0000e+00 -1.0000e+00
<mgrwt>
<rscale>  0 0.10467765E+04</rscale>
<asrwt>0</asrwt>
<pdfrwt beam="1">  1        2 0.19184969E+00 0.10467765E+04</pdfrwt>
<pdfrwt beam="2">  1       -2 0.33795597E-01 0.10467765E+04</pdfrwt>
<totfact> 0.17549341E+02</totfact>
</mgrwt>
<rwgt>
<wgt id='morphing_basis_vector_1'> +2.8033037e-04 </wgt>
<wgt id='morphing_basis_vector_2'> +1.8649523e-04 </wgt>
<wgt id='morphing_basis_vector_3'> +2.7285753e-04 </wgt>
<wgt id='morphing_basis_vector_4'> +1.6022123e-04 </wgt>
<wgt id='morphing_basis_vector_5'> +2.6401840e-04 </wgt>
</rwgt>
</event>
<event>
 4      1 +1.4786900e-06 9.01473900e+02 7.81860800e-03 8.78430700e-02
        2 -1    0    0  501    0 +0.0000000000e+00 +0.0000000000e+00 +1.1669326521e+03 1.1669326521e+03 0.0000000000e+00 0.0000e+00 -1.0000e+00
       -2 -1    0    0    0  501 -0.0000000000e+00 -0.0000000000e+00 -1.7410071315e+02 1.7410071315e+02 0.0000000000e+00 0.0000e+00 1.0000e+00
      -13  1    1    2    0    0 +2.0803845801e+02 +2.1802413793e+02 -2.2061812442e+00 3.0136255900e+02 0.0000000000e+00 0.0000e+00 1.0000e+00
       13  1    1    2    0    0 -2.0803845801e+02 -2.1802413793e+02 +9.9503812018e+02 1.0396708062e+03 0.0000000000e+00 0.0000e+00 -1.0000e+00
<mgrwt>
<rscale>  0 0.90147392E+03</rscale>
<asrwt>0</asrwt>
<pdfrwt beam="1">  1        2 0.17952810E+00 0.90147392E+03</pdfrwt>
<pdfrwt beam="2">  1       -2 0.26784726E-01 0.90147392E+03</pdfrwt>
<totfact> 0.29749940E+02</totfact>
</mgrwt>
<rwgt>
<wgt id='morphing_basis_vector_1'> +1.5950487e-04 </wgt>
<wgt id='morphing_basis_vector_2'> +9.8430085e-05 </wgt>
<wgt id='morphing_basis_vector_3'> +1.4905525e-04 </wgt>
<wgt id='morphing_basis_vector_4'> +8.7112052e-05 </wgt>
<wgt id='morphing_basis_vector_5'> +1.3766640e-04 </wgt>
</rwgt>
</event>
<event>
 4      1 +1.4786900e-06 1.01635300e+03 7.81860800e-03 8.66901300e-02
        2 -1    0    0  501    0 +0.0000000000e+00 +0.0000000000e+00 +9.9332147666e+02 9.9332147666e+02 0.0000000000e+00 0.0000e+00 1.0000e+00
       -2 -1    0    0    0  501 -0.0000000000e+00 -0.0000000000e+00 -2.5997972489e+02 2.5997972489e+02 0.0000000000e+00 0.0000e+00 -1.0000e+00
      -13  1    1    2    0    0 +1.5406622716e+02 -1.4147081080e+02 -2.0443604307e+02 2.9247989395e+02 0.0000000000e+00 0.0000e+00 -1.0000e+00
       13  1    1    2    0    0 -1.5406622716e+02 +1.4147081080e+02 +9.3777779483e+02 9.6082130760e+02 0.0000000000e+00 0.0000e+00 1.0000e+00
<mgrwt>
<rscale>  0 0.10163532E+04</rscale>
<asrwt>0</asrwt>
<pdfrwt beam="1">  1        2 0.15281869E+00 0.10163532E+04</pdfrwt>
<pdfrwt beam="2">  1       -2 0.39996881E-01 0.10163532E+04</pdfrwt>
<totfact> 0.18299713E+02</totfact>
</mgrwt>
<rwgt>
<wgt id='morphing_basis_vector_1'> +2.4749264e-04 </wgt>
<wgt id='morphing_basis_vector_2'> +1.5513066e-04 </wgt>
<wgt id='morphing_basis_vector_3'> +2.3911429e-04 </wgt>
<wgt id='morphing_basis_vector_4'> +1.4703785e-04 </wgt>
<wgt id='morphing_basis_vector_5'> +2.3279004e-04 </wgt>
</rwgt>
</event>
<event>
 4      1 +1.4786900e-06 1.05423000e+03 7.81860800e-03 8.63443400e-02
        2 -1    0    0  501    0 +0.0000000000e+00 +0.0000000000e+00 +4.0994429181e+02 4.0994429181e+02 0.0000000000e+00 0.0000e+00 -1.0000e+00
       -2 -1    0    0    0  501 -0.0000000000e+00 -0.0000000000e+00 -6.7777550108e+02 6.7777550108e+02 0.0000000000e+00 0.0000e+00 1.0000e+00
      -13  1    1    2    0    0 +1.8997611322e+02 -5.5719748106e+01 -6.3795742421e+02 6.6797102409e+02 0.0000000000e+00 0.0000e+00 1.0000e+00
       13  1    1    2    0    0 -1.8997611322e+02 +5.5719748106e+01 +3.7012621494e+02 4.1974876880e+02 0.0000000000e+00 0.0000e+00 -1.0000e+00
<mgrwt>
<rscale>  0 0.10542300E+04</rscale>
<asrwt>0</asrwt>
<pdfrwt beam="1">  1        2 0.63068353E-01 0.10542300E+04</pdfrwt>
<pdfrwt beam="2">  1       -2 0.10427315E+00 0.10542300E+04</pdfrwt>
<totfact> 0.70662906E+01</totfact>
</mgrwt>
<rwgt>
<wgt id='morphing_basis_vector_1'> +2.8350961e-04 </wgt>
<wgt id='morphing_basis_vector_2'> +1.7860057e-04 </wgt>
<wgt id='morphing_basis_vector_3'> +2.7636441e-04 </wgt>
<wgt id='morphing_basis_vector_4'> +1.7207881e-04 </wgt>
<wgt id='morphing_basis_vector_5'> +2.7264266e-04 </wgt>
</rwgt>
</event>
<event>
 4      1 +1.4786900e-06 1.04271200e+03 7.81860800e-03 8.64478800e-02
        2 -1    0    0  501    0 +0.0000000000e+00 +0.0000000000e+00 +3.1820104062e+02 3.1820104062e+02 0.0000000000e+00 0.0000e+00 1.0000e+00
       -2 -1    0    0    0  501 -0.0000000000e+00 -0.0000000000e+00 -8.5421569987e+02 8.5421569987e+02 0.0000000000e+00 0.0000e+00 -1.0000e+00
      -13  1    1    2    0    0 +3.3487386215e+02 -2.3131681833e+02 +9.8351612827e+01 4.1871352228e+02 0.0000000000e+00 0.0000e+00 1.0000e+00
       13  1    1    2    0    0 -3.3487386215e+02 +2.3131681833e+02 -6.3436627208e+02 7.5370321822e+02 0.0000000000e+00 0.0000e+00 -1.0000e+00
<mgrwt>
<rscale>  0 0.10427125E+04</rscale>
<asrwt>0</asrwt>
<pdfrwt beam="1">  1        2 0.48954006E-01 0.10427125E+04</pdfrwt>
<pdfrwt beam="2">  1       -2 0.13141780E+00 0.10427125E+04</pdfrwt>
<totfact> 0.51926058E+01</totfact>
</mgrwt>
<rwgt>
<wgt id='morphing_basis_vector_1'> +3.3907485e-04 </wgt>
<wgt id='morphing_basis_vector_2'> +3.7342524e-04 </wgt>
<wgt id='morphing_basis_vector_3'> +3.3025346e-04 </wgt>
<wgt id='morphing_basis_vector_4'> +5.7871962e-05 </wgt>
<wgt id='morphing_basis_vector_5'> +2.5346690e-04 </wgt>
</rwgt>
</event>
<event>
 4      1 +1.4786900e-06 9.18728900e+02 7.81860800e-03 8.76587800e-02
        2 -1    0    0  501    0 +0.0000000000e+00 +0.0000000000e+00 +5.7852174798e+02 5.7852174798e+02 0.0000000000e+00 0.0000e+00 -1.0000e+00
       -2 -1    0    0    0  501 -0.0000000000e+00 -0.0000000000e+00 -3.6474984033e+02 3.6474984033e+02 0.0000000000e+00 0.0000e+00 1.0000e+00
      -13  1    1    2    0    0 +4.2494577332e+02 -5.0109698778e+01 -6.4688390752e+01 4.3275221556e+02 0.0000000000e+00 0.0000e+00 1.0000e+00
       13  1    1    2    0    0 -4.2494577332e+02 +5.0109698778e+01 +2.7846029840e+02 5.1051937275e+02 0.0000000000e+00 0.0000e+00 -1.0000e+00
<mgrwt>
<rscale>  0 0.91872894E+03</rscale>
<asrwt>0</asrwt>
<pdfrwt beam="1">  1        2 0.89003346E-01 0.91872894E+03</pdfrwt>
<pdfrwt beam="2">  1       -2 0.56115360E-01 0.91872894E+03</pdfrwt>
<totfact> 0.19007782E+02</totfact>
</mgrwt>
<rwgt>
<wgt id='morphing_basis_vector_1'> +1.7217917e-04 </wgt>
<wgt id='morphing_basis_vector_2'> +1.0969526e-04 </wgt>
<wgt id='morphing_basis_vector_3'> +1.6165710e-04 </wgt>
<wgt id='morphing_basis_vector_4'> +9.2802443e-05 </wgt>
<wgt id='morphing_basis_vector_5'> +1.4960556e-04 </wgt>
</rwgt>
</event>
<event>
 4      1 +1.4786900e-06 9.34372800e+02 7.81860800e-03 8.74953200e-02
        2 -1    0    0  501    0 +0.0000000000e+00 +0.0000000000e+00 +1.2293823007e+03 1.2293823007e+03 0.0000000000e+00 0.0000e+00 -1.0000e+00
       -2 -1    0    0    0  501 -0.0000000000e+00 -0.0000000000e+00 -1.7753887443e+02 1.7753887443e+02 0.0000000000e+00 0.0000e+00 1.0000e+00
      -13  1    1    2    0    0 -1.7116140520e+02 -4.0875723602e+02 +3.0317190814e+02 5.3692821728e+02 0.0000000000e+00 0.0000e+00 1.0000e+00
       13  1    1    2    0    0 +1.7116140520e+02 +4.0875723602e+02 +7.4867151811e+02 8.6999295782e+02 0.0000000000e+00 0.0000e+00 -1.0000e+00
<mgrwt>
<rscale>  0 0.93437284E+03</rscale>
<asrwt>0</asrwt>
<pdfrwt beam="1">  1        2 0.18913573E+00 0.93437284E+03</pdfrwt>
<pdfrwt beam="2">  1       -2 0.27313674E-01 0.93437284E+03</pdfrwt>
<totfact> 0.26395016E+02</totfact>
</mgrwt>
<rwgt>
<wgt id='morphing_basis_vector_1'> +1.8347528e-04 </wgt>
<wgt id='morphing_basis_vector_2'> +1.1804350e-04 </wgt>
<wgt id='morphing_basis_vector_3'> +1.7310446e-04 </wgt>
<wgt id='morphing_basis_vector_4'> +9.9387213e-05 </wgt>
<wgt id='morphing_basis_vector_5'> +1.6112770e-04 </wgt>
</rwgt>
</event>
<event>
 4      1 +1.4786900e-06 9.41870200e+02 7.81860800e-03 8.74181600e-02
        2 -1    0    0  501    0 +0.0000000000e+00 +0.0000000000e+00 +9.1753111352e+02 9.1753111352e+02 0.0000000000e+00 0.0000e+00 -1.0000e+00
       -2 -1    0    0    0  501 -0.0000000000e+00 -0.0000000000e+00 -2.4171372118e+02 2.4171372118e+02 0.0000000000e+00 0.0000e+00 1.0000e+00
      -13  1    1    2    0    0 -8.7560969787e+01 +1.6554897085e+02 -1.9391025703e+02 2.6958221930e+02 0.0000000000e+00 0.0000e+00 1.0000e+00
       13  1    1    2    0    0 +8.7560969787e+01 -1.6554897085e+02 +8.6972764937e+02 8.8966261541e+02 0.0000000000e+00 0.0000e+00 -1.0000e+00
<mgrwt>
<rscale>  0 0.94187018E+03</rscale>
<asrwt>0</asrwt>
<pdfrwt beam="1">  1        2 0.14115863E+00 0.94187018E+03</pdfrwt>
<pdfrwt beam="2">  1       -2 0.37186727E-01 0.94187018E+03</pdfrwt>
<totfact> 0.23503028E+02</totfact>
</mgrwt>
<rwgt>
<wgt id='morphing_basis_vector_1'> +1.8700017e-04 </wgt>
<wgt id='morphing_basis_vector_2'> +1.1586870e-04 </wgt>
<wgt id='morphing_basis_vector_3'> +1.7703398e-04 </wgt>
<wgt id='morphing_basis_vector_4'> +1.0574198e-04 </wgt>
<wgt id='morphing_basis_vector_5'> +1.6704449e-04 </wgt>
</rwgt>
</event>
<event>
 4      1 +1.4786900e-06 1.04536200e+03 7.81860800e-03 8.64239400e-02
        2 -1    0    0  501    0 +0.0000000000e+00 +0.0000000000e+00 +1.5453470117e+03 1.5453470117e+03 0.0000000000e+00 0.0000e+00 1.0000e+00
       -2 -1    0    0    0  501 -0.0000000000e+00 -0.0000000000e+00 -1.7678566014e+02 1.7678566014e+02 0.0000000000e+00 0.0000e+00 -1.0000e+00
      -13  1    1    2    0    0 +3.5342963403e+02 -3.4867696162e+02 +9.5350428424e+02 1.0750156045e+03 0.0000000000e+00 0.0000e+00 -1.0000e+00
       13  1    1    2    0    0 -3.5342963403e+02 +3.4867696162e+02 +4.1505706734e+02 6.4711706740e+02 0.0000000000e+00 0.0000e+00 1.0000e+00
<mgrwt>
<rscale>  0 0.10453615E+04</rscale>
<asrwt>0</asrwt>
<pdfrwt beam="1">  1        2 0.23774569E+00 0.10453615E+04</pdfrwt>
<pdfrwt beam="2">  1       -2 0.27197795E-01 0.10453615E+04</pdfrwt>
<totfact> 0.17512779E+02</totfact>
</mgrwt>
<rwgt>
<wgt id='morphing_basis_vector_1'> +3.0325598e-04 </wgt>
<wgt id='morphing_basis_vector_2'> +2.5905408e-04 </wgt>
<wgt id='morphing_basis_vector_3'> +2.9533973e-04 </wgt>
<wgt id='morphing_basis_vector_4'> +1.2058513e-04 </wgt>
<wgt id='morphing_basis_vector_5'> +2.6008662e-04 </wgt>
</rwgt>
</event>
<event>
 4      1 +1.4786900e-06 1.06899500e+03 7.81860800e-03 8.62136000e-02
        2 -1    0    0  501    0 +0.0000000000e+00 +0.0000000000e+00 +1.0479152617e+03 1.0479152617e+03 0.0000000000e+00 0.0000e+00 1.0000e+00
       -2 -1    0    0    0  501 -0.0000000000e+00 -0.0000000000e+00 -2.7262474088e+02 2.7262474088e+02 0.0000000000e+00 0.0000e+00 -1.0000e+00
      -13  1    1    2    0    0 +4.9814284705e+02 -4.6830339951e+00 +1.4836669753e+02 5.1978928789e+02 0.0000000000e+00 0.0000e+00 -1.0000e+00
       13  1    1    2    0    0 -4.9814284705e+02 +4.6830339951e+00 +6.2692382327e+02 8.0075071468e+02 0.0000000000e+00 0.0000e+00 1.0000e+00
<mgrwt>
<rscale>  0 0.10689951E+04</rscale>
<asrwt>0</asrwt>
<pdfrwt beam="1">  1        2 0.16121773E+00 0.10689951E+04</pdfrwt>
<pdfrwt beam="2">  1       -2 0.41942268E-01 0.10689951E+04</pdfrwt>
<totfact> 0.15438066E+02</totfact>
</mgrwt>
<rwgt>
<wgt id='morphing_basis_vector_1'> +3.0111747e-04 </wgt>
<wgt id='morphing_basis_vector_2'> +1.9607485e-04 </wgt>
<wgt id='morphing_basis_vector_3'> +2.9456493e-04 </wgt>
<wgt id='morphing_basis_vector_4'> +1.7856590e-04 </wgt>
<wgt id='morphing_basis_vector_5'> +2.8919665e-04 </wgt>
</rwgt>
</event>
<event>
 4      1 +1.4786900e-06 9.78059500e+02 7.81860800e-03 8.70560000e-02
        2 -1    0    0  501    0 +0.0000000000e+00 +0.0000000000e+00 +6.1731127835e+02 6.1731127835e+02 0.0000000000e+00 0.0000e+00 -1.0000e+00
       -2 -1    0    0    0  501 -0.0000000000e+00 -0.0000000000e+00 -3.8740601773e+02 3.8740601773e+02 0.0000000000e+00 0.0000e+00 1.0000e+00
      -13  1    1    2    0    0 -2.4934170371e+02 -1.4447153274e+02 -2.9091975111e+02 4.0948456695e+02 0.0000000000e+00 0.0000e+00 1.0000e+00
       13  1    1    2    0    0 +2.4934170371e+02 +1.4447153274e+02 +5.2082501173e+02 5.9523272913e+02 0.0000000000e+00 0.0000e+00 -1.0000e+00
<mgrwt>
<rscale>  0 0.97805952E+03</rscale>
<asrwt>0</asrwt>
<pdfrwt beam="1">  1        2 0.94970966E-01 0.97805952E+03</pdfrwt>
<pdfrwt beam="2">  1       -2 0.59600926E-01 0.97805952E+03</pdfrwt>
<totfact> 0.15523708E+02</totfact>
</mgrwt>
<rwgt>
<wgt id='morphing_basis_vector_1'> +2.1484023e-04 </wgt>
<wgt id='morphing_basis_vector_2'> +1.3409060e-04 </wgt>
<wgt id='morphing_basis_vector_3'> +2.0550821e-04 </wgt>
<wgt id='morphing_basis_vector_4'> +1.2444350e-04 </wgt>
<wgt id='morphing_basis_vector_5'> +1.9699937e-04 </wgt>
</rwgt>
</event>
<event>
 4      1 +1.4786900e-06 9.46358600e+02 7.81860800e-03 8.73723300e-02
        2 -1    0    0  501    0 +0.0000000000e+00 +0.0000000000e+00 +4.7326038707e+02 4.7326038707e+02 0.0000000000e+00 0.0000e+00 1.0000e+00
       -2 -1    0    0    0  501 -0.0000000000e+00 -0.0000000000e+00 -4.7309822720e+02 4.7309822720e+02 0.0000000000e+00 0.0000e+00 -1.0000e+00
      -13  1    1    2    0    0 -3.7776671050e+02 -2.7256922364e+02 +8.3129144920e+01 4.7319353754e+02 0.0000000000e+00 0.0000e+00 -1.0000e+00
       13  1    1    2    0    0 +3.7776671050e+02 +2.7256922364e+02 -8.2966985053e+01 4.7316507673e+02 0.0000000000e+00 0.0000e+00 1.0000e+00
<mgrwt>
<rscale>  0 0.94635860E+03</rscale>
<asrwt>0</asrwt>
<pdfrwt beam="1">  1        2 0.72809290E-01 0.94635860E+03</pdfrwt>
<pdfrwt beam="2">  1       -2 0.72784343E-01 0.94635860E+03</pdfrwt>
<totfact> 0.13900831E+02</totfact>
</mgrwt>
<rwgt>
<wgt id='morphing_basis_vector_1'> +2.0279272e-04 </wgt>
<wgt id='morphing_basis_vector_2'> +1.5597139e-04 </wgt>
<wgt id='morphing_basis_vector_3'> +1.9109953e-04 </wgt>
<wgt id='morphing_basis_vector_4'> +8.9405711e-05 </wgt>
<wgt id='morphing_basis_vector_5'> +1.6952321e-04 </wgt>
</rwgt>
</event>
<event>
 4      1 +1.4786900e-06 1.04125800e+03 7.81860800e-03 8.64610500e-02
        2 -1    0    0  501    0 +0.0000000000e+00 +0.0000000000e+00 +2.2738675248e+03 2.2738675248e+03 0.0000000000e+00 0.0000e+00 1.0000e+00
       -2 -1    0    0    0  501 -0.0000000000e+00 -0.0000000000e+00 -1.1920417585e+02 1.1920417585e+02 0.0000000000e+00 0.0000e+00 -1.0000e+00
      -13  1    1    2    0    0 -3.5829928892e+02 -3.7694674998e+02 +1.0216365889e+03 1.1463893547e+03 0.0000000000e+00 0.0000e+00 -1.0000e+00
       13  1    1    2    0    0 +3.5829928892e+02 +3.7694674998e+02 +1.1330267601e+03 1.2466823460e+03 0.0000000000e+00 0.0000e+00 1.0000e+00
<mgrwt>
<rscale>  0 0.10412579E+04</rscale>
<asrwt>0</asrwt>
<pdfrwt beam="1">  1        2 0.34982574E+00 0.10412579E+04</pdfrwt>
<pdfrwt beam="2">  1       -2 0.18339106E-01 0.10412579E+04</pdfrwt>
<totfact> 0.13414556E+02</totfact>
</mgrwt>
<rwgt>
<wgt id='morphing_basis_vector_1'> +2.7891937e-04 </wgt>
<wgt id='morphing_basis_vector_2'> +1.9496989e-04 </wgt>
<wgt id='morphing_basis_vector_3'> +2.7114834e-04 </wgt>
<wgt id='morphing_basis_vector_4'> +1.5021072e-04 </wgt>
<wgt id='morphing_basis_vector_5'> +2.5767312e-04 </wgt>
</rwgt>
</event>
<event>
 4      1 +1.4786900e-06 9.24574700e+02 7.81860800e-03 8.75973000e-02
        2 -1    0    0  501    0 +0.0000000000e+00 +0.0000000000e+00 +3.1686125323e+02 3.1686125323e+02 0.0000000000e+00 0.0000e+00 1.0000e+00
       -2 -1    0    0    0  501 -0.0000000000e+00 -0.0000000000e+00 -6.7445802798e+02 6.7445802798e+02 0.0000000000e+00 0.0000e+00 -1.0000e+00
      -13  1    1    2    0    0 +3.0170758078e+02 -3.4766581846e+02 -1.3317511557e+02 4.7920204197e+02 0.0000000000e+00 0.0000e+00 -1.0000e+00
       13  1    1    2    0    0 -3.0170758078e+02 +3.4766581846e+02 -2.2442165917e+02 5.1211723924e+02 0.0000000000e+00 0.0000e+00 1.0000e+00
<mgrwt>
<rscale>  0 0.92457475E+03</rscale>
<asrwt>0</asrwt>
<pdfrwt beam="1">  1        2 0.48747885E-01 0.92457475E+03</pdfrwt>
<pdfrwt beam="2">  1       -2 0.10376277E+00 0.92457475E+03</pdfrwt>
<totfact> 0.96462481E+01</totfact>
</mgrwt>
<rwgt>
<wgt id='morphing_basis_vector_1'> +1.8336282e-04 </wgt>
<wgt id='morphing_basis_vector_2'> +1.3412205e-04 </wgt>
<wgt id='morphing_basis_vector_3'> +1.7165411e-04 </wgt>
<wgt id='morphing_basis_vector_4'> +8.4999197e-05 </wgt>
<wgt id='morphing_basis_vector_5'> +1.5327907e-04 </wgt>
</rwgt>
</event>
<event>
 4      1 +1.4786900e-06 9.13563800e+02 7.81860800e-03 8.77135000e-02
        2 -1    0    0  501    0 +0.0000000000e+00 +0.0000000000e+00 +9.6785530600e+02 9.6785530600e+02 0.0000000000e+00 0.0000e+00 1.0000e+00
       -2 -1    0    0    0  501 -0.0000000000e+00 -0.0000000000e+00 -2.1557945715e+02 2.1557945715e+02 0.0000000000e+00 0.0000e+00 -1.0000e+00
      -13  1    1    2    0    0 -9.8274434746e+01 +2.3821717830e+02 -1.1242787388e+02 2.8114998735e+02 0.0000000000e+00 0.0000e+00 -1.0000e+00
       13  1    1    2    0    0 +9.8274434746e+01 -2.3821717830e+02 +8.6470372272e+02 9.0228477580e+02 0.0000000000e+00 0.0000e+00 1.0000e+00
<mgrwt>
<rscale>  0 0.91356384E+03</rscale>
<asrwt>0</asrwt>
<pdfrwt beam="1">  1        2 0.14890081E+00 0.91356384E+03</pdfrwt>
<pdfrwt beam="2">  1       -2 0.33166071E-01 0.91356384E+03</pdfrwt>
<totfact> 0.26912226E+02</totfact>
</mgrwt>
<rwgt>
<wgt id='morphing_basis_vector_1'> +1.6733877e-04 </wgt>
<wgt id='morphing_basis_vector_2'> +1.0329278e-04 </wgt>
<wgt id='morphing_basis_vector_3'> +1.5701608e-04 </wgt>
<wgt id='morphing_basis_vector_4'> +9.2472465e-05 </wgt>
<wgt id='morphing_basis_vector_5'> +1.4603178e-04 </wgt>
</rwgt>
</event>
<event>
 4      1 +1.4786900e-06 9.67262800e+02 7.81860800e-03 8.71623100e-02
        2 -1    0    0  501    0 +0.0000000000e+00 +0.0000000000e+00 +9.4017157170e+02 9.4017157170e+02 0.0000000000e+00 0.0000e+00 -1.0000e+00
       -2 -1    0    0    0  501 -0.0000000000e+00 -0.0000000000e+00 -2.4878366366e+02 2.4878366366e+02 0.0000000000e+00 0.0000e+00 1.0000e+00
      -13  1    1    2    0    0 -4.8300411983e+02 +2.2709233095e+01 +3.3399145375e+02 5.8767251103e+02 0.0000000000e+00 0.0000e+00 1.0000e+00
       13  1    1    2    0    0 +4.8300411983e+02 -2.2709233095e+01 +3.5739645429e+02 6.0128272433e+02 0.0000000000e+00 0.0000e+00 -1.0000e+00
<mgrwt>
<rscale>  0 0.96726279E+03</rscale>
<asrwt>0</asrwt>
<pdfrwt beam="1">  1        2 0.14464178E+00 0.96726279E+03</pdfrwt>
<pdfrwt beam="2">  1       -2 0.38274410E-01 0.96726279E+03</pdfrwt>
<totfact> 0.21519389E+02</totfact>
</mgrwt>
<rwgt>
<wgt id='morphing_basis_vector_1'> +2.1300034e-04 </wgt>
<wgt id='morphing_basis_vector_2'> +1.4900204e-04 </wgt>
<wgt id='morphing_basis_vector_3'> +2.0268240e-04 </wgt>
<wgt id='morphing_basis_vector_4'> +1.0840636e-04 </wgt>
<wgt id='morphing_basis_vector_5'> +1.8709499e-04 </wgt>
</rwgt>
</event>
<event>
 4      1 +1.4786900e-06 9.05442800e+02 7.81860800e-03 8.78003000e-02
        2 -1    0    0  501    0 +0.0000000000e+00 +0.0000000000e+00 +6.8358621703e+02 6.8358621703e+02 0.0000000000e+00 0.0000e+00 -1.0000e+00
       -2 -1    0    0    0  501 -0.0000000000e+00 -0.0000000000e+00 -2.9982564163e+02 2.9982564163e+02 0.0000000000e+00 0.0000e+00 1.0000e+00
      -13  1    1    2    0    0 +3.9514319093e+02 +2.1846622475e+02 +1.5600499681e+02 4.7770617719e+02 0.0000000000e+00 0.0000e+00 1.0000e+00
       13  1    1    2    0    0 -3.9514319093e+02 -2.1846622475e+02 +2.2775557858e+02 5.0570568147e+02 0.0000000000e+00 0.0000e+00 -1.0000e+00
<mgrwt>
<rscale>  0 0.90544282E+03</rscale>
<asrwt>0</asrwt>
<pdfrwt beam="1">  1        2 0.10516711E+00 0.90544282E+03</pdfrwt>
<pdfrwt beam="2">  1       -2 0.46127022E-01 0.90544282E+03</pdfrwt>
<totfact> 0.22926592E+02</totfact>
</mgrwt>
<rwgt>
<wgt id='morphing_basis_vector_1'> +1.6633627e-04 </wgt>
<wgt id='morphing_basis_vector_2'> +1.1306553e-04 </wgt>
<wgt id='morphing_basis_vector_3'> +1.5504105e-04 </wgt>
<wgt id='morphing_basis_vector_4'> +8.2710365e-05 </wgt>
<wgt id='morphing_basis_vector_5'> +1.4004636e-04 </wgt>
</rwgt>
</event>
<event>
 4      1 +1.4786900e-06 9.60179500e+02 7.81860800e-03 8.72328500e-02
        2 -1    0    0  501    0 +0.0000000000e+00 +0.0000000000e+00 +3.6220689115e+02 3.6220689115e+02 0.0000000000e+00 0.0000e+00 -1.0000e+00
       -2 -1    0    0    0  501 -0.0000000000e+00 -0.0000000000e+00 -6.3633850022e+02 6.3633850022e+02 0.0000000000e+00 0.0000e+00 1.0000e+00
      -13  1    1    2    0    0 -3.9709496911e+02 -2.5724299770e+02 -2.2173015242e+02 5.2251567905e+02 0.0000000000e+00 0.0000e+00 1.0000e+00
       13  1    1    2    0    0 +3.9709496911e+02 +2.5724299770e+02 -5.2401456660e+01 4.7602971233e+02 0.0000000000e+00 0.0000e+00 -1.0000e+00
<mgrwt>
<rscale>  0 0.96017955E+03</rscale>
<asrwt>0</asrwt>
<pdfrwt beam="1">  1        2 0.55724138E-01 0.96017955E+03</pdfrwt>
<pdfrwt beam="2">  1       -2 0.97898230E-01 0.96017955E+03</pdfrwt>
<totfact> 0.95321768E+01</totfact>
</mgrwt>
<rwgt>
<wgt id='morphing_basis_vector_1'> +2.0445015e-04 </wgt>
<wgt id='morphing_basis_vector_2'> +1.3617324e-04 </wgt>
<wgt id='morphing_basis_vector_3'> +1.9431278e-04 </wgt>
<wgt id='morphing_basis_vector_4'> +1.0932031e-04 </wgt>
<wgt id='morphing_basis_vector_5'> +1.8142951e-04 </wgt>
</rwgt>
</event>
<event>
 4      1 +1.4786900e-06 9.60315800e+02 7.81860800e-03 8.72314900e-02
        2 -1    0    0  501    0 +0.0000000000e+00 +0.0000000000e+00 +1.6246633679e+03 1.6246633679e+03 0.0000000000e+00 0.0000e+00 1.0000e+00
       -2 -1    0    0    0  501 -0.0000000000e+00 -0.0000000000e+00 -1.4190731203e+02 1.4190731203e+02 0.0000000000e+00 0.0000e+00 -1.0000e+00
      -13  1    1    2    0    0 +4.4059102251e+02 -2.7991577088e+01 +1.0887000305e+03 1.1748071050e+03 0.0000000000e+00 0.0000e+00 1.0000e+00
       13  1    1    2    0    0 -4.4059102251e+02 +2.7991577088e+01 +3.9405602536e+02 5.9176357495e+02 0.0000000000e+00 0.0000e+00 -1.0000e+00
<mgrwt>
<rscale>  0 0.96031581E+03</rscale>
<asrwt>0</asrwt>
<pdfrwt beam="1">  1        2 0.24994820E+00 0.96031581E+03</pdfrwt>
<pdfrwt beam="2">  1       -2 0.21831895E-01 0.96031581E+03</pdfrwt>
<totfact> 0.23203145E+02</totfact>
</mgrwt>
<rwgt>
<wgt id='morphing_basis_vector_1'> +2.2742549e-04 </wgt>
<wgt id='morphing_basis_vector_2'> +2.0562941e-04 </wgt>
<wgt id='morphing_basis_vector_3'> +2.1446717e-04 </wgt>
<wgt id='morphing_basis_vector_4'> +7.5090073e-05 </wgt>
<wgt id='morphing_basis_vector_5'> +1.7958065e-04 </wgt>
</rwgt>
</event>
<event>
 4      1 +1.4786900e-06 9.57233800e+02 7.81860800e-03 8.72623700e-02
        2 -1    0    0  501    0 +0.0000000000e+00 +0.0000000000e+00 +1.6692034963e+03 1.6692034963e+03 0.0000000000e+00 0.0000e+00 1.0000e+00
       -2 -1    0    0    0  501 -0.0000000000e+00 -0.0000000000e+00 -1.3723560976e+02 1.3723560976e+02 0.0000000000e+00 0.0000e+00 -1.0000e+00
      -13  1    1    2    0    0 +2.5431750998e+02 -1.5880208176e+02 +6.1953224313e+01 3.0615959736e+02 0.0000000000e+00 0.0000e+00 -1.0000e+00
       13  1    1    2    0    0 -2.5431750998e+02 +1.5880208176e+02 +1.4700146622e+03 1.5002795087e+03 0.0000000000e+00 0.0000e+00 1.0000e+00
<mgrwt>
<rscale>  0 0.95723385E+03</rscale>
<asrwt>0</asrwt>
<pdfrwt beam="1">  1        2 0.25680052E+00 0.95723385E+03</pdfrwt>
<pdfrwt beam="2">  1       -2 0.21113172E-01 0.95723385E+03</pdfrwt>
<totfact> 0.23202765E+02</totfact>
</mgrwt>
<rwgt>
<wgt id='morphing_basis_vector_1'> +1.9852923e-04 </wgt>
<wgt id='morphing_basis_vector_2'> +1.2357992e-04 </wgt>
<wgt id='morphing_basis_vector_3'> +1.8879383e-04 </wgt>
<wgt id='morphing_basis_vector_4'> +1.1329969e-04 </wgt>
<wgt id='morphing_basis_vector_5'> +1.7931660e-04 </wgt>
</rwgt>
</event>
<event>
 4      1 +1.4786900e-06 9.67801800e+02 7.81860800e-03 8.71569700e-02
        2 -1    0    0  501    0 +0.0000000000e+00 +0.0000000000e+00 +7.0380487558e+02 7.0380487558e+02 0.0000000000e+00 0.0000e+00 1.0000e+00
       -2 -1    0    0    0  501 -0.0000000000e+00 -0.0000000000e+00 -3.3270594963e+02 3.3270594963e+02 0.0000000000e+00 0.0000e+00 -1.0000e+00
      -13  1    1    2    0    0 +7.1715693270e+01 +1.3900656011e+02 -3.0488450047e+02 3.4266678135e+02 0.0000000000e+00 0.0000e+00 -1.0000e+00
       13  1    1    2    0    0 -7.1715693270e+01 -1.3900656011e+02 +6.7598342642e+02 6.9384404387e+02 0.0000000000e+00 0.0000e+00 1.0000e+00
<mgrwt>
<rscale>  0 0.96780178E+03</rscale>
<asrwt>0</asrwt>
<pdfrwt beam="1">  1        2 0.10827767E+00 0.96780178E+03</pdfrwt>
<pdfrwt beam="2">  1       -2 0.51185531E-01 0.96780178E+03</pdfrwt>
<totfact> 0.18003291E+02</totfact>
</mgrwt>
<rwgt>
<wgt id='morphing_basis_vector_1'> +2.0657993e-04 </wgt>
<wgt id='morphing_basis_vector_2'> +1.2852193e-04 </wgt>
<wgt id='morphing_basis_vector_3'> +1.9705108e-04 </wgt>
<wgt id='morphing_basis_vector_4'> +1.1901263e-04 </wgt>
<wgt id='morphing_basis_vector_5'> +1.8814705e-04 </wgt>
</rwgt>
</event>
<event>
 4      1 +1.4786900e-06 9.18993400e+02 7.81860800e-03 8.76559900e-02
        2 -1    0    0  501    0 +0.0000000000e+00 +0.0000000000e+00 +1.2247292121e+03 1.2247292121e+03 0.0000000000e+00 0.0000e+00 -1.0000e+00
       -2 -1    0    0    0  501 -0.0000000000e+00 -0.0000000000e+00 -1.7239503101e+02 1.7239503101e+02 0.0000000000e+00 0.0000e+00 1.0000e+00
      -13  1    1    2    0    0 +1.2452131671e+01 -4.5183485035e+02 +4.0054915205e+02 6.0394487396e+02 0.0000000000e+00 0.0000e+00 1.0000e+00
       13  1    1    2    0    0 -1.2452131671e+01 +4.5183485035e+02 +6.5178502901e+02 7.9317936913e+02 0.0000000000e+00 0.0000e+00 -1.0000e+00
<mgrwt>
<rscale>  0 0.91899343E+03</rscale>
<asrwt>0</asrwt>
<pdfrwt beam="1">  1        2 0.18841987E+00 0.91899343E+03</pdfrwt>
<pdfrwt beam="2">  1       -2 0.26522313E-01 0.91899343E+03</pdfrwt>
<totfact> 0.27976818E+02</totfact>
</mgrwt>
<rwgt>
<wgt id='morphing_basis_vector_1'> +1.7402102e-04 </wgt>
<wgt id='morphing_basis_vector_2'> +1.1486614e-04 </wgt>
<wgt id='morphing_basis_vector_3'> +1.6319534e-04 </wgt>
<wgt id='morphing_basis_vector_4'> +9.0514222e-05 </wgt>
<wgt id='morphing_basis_vector_5'> +1.4966507e-04 </wgt>
</rwgt>
</event>
<event>
 4      1 +1.4786900e-06 9.76657700e+02 7.81860800e-03 8.70697200e-02
        2 -1    0    0  501    0 +0.0000000000e+00 +0.0000000000e+00 +1.4480917434e+03 1.4480917434e+03 0.0000000000e+00 0.0000e+00 -1.0000e+00
       -2 -1    0    0    0  501 -0.0000000000e+00 -0.0000000000e+00 -1.6467539223e+02 1.6467539223e+02 0.0000000000e+00 0.0000e+00 1.0000e+00
      -13  1    1    2    0    0 -2.8444751021e+02 +3.3526282561e+02 +2.9081484026e+02 5.2714781572e+02 0.0000000000e+00 0.0000e+00 1.0000e+00
       13  1    1    2    0    0 +2.8444751021e+02 -3.3526282561e+02 +9.9260151090e+02 1.0856193199e+03 0.0000000000e+00 0.0000e+00 -1.0000e+00
<mgrwt>
<rscale>  0 0.97665772E+03</rscale>
<asrwt>0</asrwt>
<pdfrwt beam="1">  1        2 0.22278334E+00 0.97665772E+03</pdfrwt>
<pdfrwt beam="2">  1       -2 0.25334677E-01 0.97665772E+03</pdfrwt>
<totfact> 0.22540014E+02</totfact>
</mgrwt>
<rwgt>
<wgt id='morphing_basis_vector_1'> +2.1490083e-04 </wgt>
<wgt id='morphing_basis_vector_2'> +1.3696948e-04 </wgt>
<wgt id='morphing_basis_vector_3'> +2.0541903e-04 </wgt>
<wgt id='morphing_basis_vector_4'> +1.2186194e-04 </wgt>
<wgt id='morphing_basis_vector_5'> +1.9566563e-04 </wgt>
</rwgt>
</event>
<event>
 4      1 +1.4786900e-06 9.61443100e+02 7.81860800e-03 8.72202200e-02
        2 -1    0    0  501    0 +0.0000000000e+00 +0.0000000000e+00 +9.7238393071e+02 9.7238393071e+02 0.0000000000e+00 0.0000e+00 1.0000e+00
       -2 -1    0    0    0  501 -0.0000000000e+00 -0.0000000000e+00 -2.3765633691e+02 2.3765633691e+02 0.0000000000e+00 0.0000e+00 -1.0000e+00
      -13  1    1    2    0    0 -3.4443445368e+02 +1.4964528380e+02 -1.0341277373e+01 3.7568037727e+02 0.0000000000e+00 0.0000e+00 -1.0000e+00
       13  1    1    2    0    0 +3.4443445368e+02 -1.4964528380e+02 +7.4506887117e+02 8.3435989035e+02 0.0000000000e+00 0.0000e+00 1.0000e+00
<mgrwt>
<rscale>  0 0.96144309E+03</rscale>
<asrwt>0</asrwt>
<pdfrwt beam="1">  1        2 0.14959753E+00 0.96144309E+03</pdfrwt>
<pdfrwt beam="2">  1       -2 0.36562514E-01 0.96144309E+03</pdfrwt>
<totfact> 0.22341186E+02</totfact>
</mgrwt>
<rwgt>
<wgt id='morphing_basis_vector_1'> +2.0205446e-04 </wgt>
<wgt id='morphing_basis_vector_2'> +1.2658687e-04 </wgt>
<wgt id='morphing_basis_vector_3'> +1.9235680e-04 </wgt>
<wgt id='morphing_basis_vector_4'> +1.1502767e-04 </wgt>
<wgt id='morphing_basis_vector_5'> +1.8276680e-04 </wgt>
</rwgt>
</event>
<event>
 4      1 +1.4786900e-06 9.73463100e+02 7.81860800e-03 8.71010800e-02
        2 -1    0    0  501    0 +0.0000000000e+00 +0.0000000000e+00 +4.1861911414e+02 4.1861911414e+02 0.0000000000e+00 0.0000e+00 -1.0000e+00
       -2 -1    0    0    0  501 -0.0000000000e+00 -0.0000000000e+00 -5.6592640478e+02 5.6592640478e+02 0.0000000000e+00 0.0000e+00 1.0000e+00
      -13  1    1    2    0    0 -3.5710593000e+02 -5.6272573543e-01 -4.0814932693e+02 5.4231986408e+02 0.0000000000e+00 0.0000e+00 1.0000e+00
       13  1    1    2    0    0 +3.5710593000e+02 +5.6272573543e-01 +2.6084203628e+02 4.4222565484e+02 0.0000000000e+00 0.0000e+00 -1.0000e+00
<mgrwt>
<rscale>  0 0.97346312E+03</rscale>
<asrwt>0</asrwt>
<pdfrwt beam="1">  1        2 0.64402941E-01 0.97346312E+03</pdfrwt>
<pdfrwt beam="2">  1       -2 0.87065600E-01 0.97346312E+03</pdfrwt>
<totfact> 0.10651249E+02</totfact>
</mgrwt>
<rwgt>
<wgt id='morphing_basis_vector_1'> +2.1135575e-04 </wgt>
<wgt id='morphing_basis_vector_2'> +1.3232441e-04 </wgt>
<wgt id='morphing_basis_vector_3'> +2.0190681e-04 </wgt>
<wgt id='morphing_basis_vector_4'> +1.2161270e-04 </wgt>
<wgt id='morphing_basis_vector_5'> +1.9297427e-04 </wgt>
</rwgt>
</event>
<event>
 4      1 +1.4786900e-06 9.63227800e+02 7.81860800e-03 8.72024200e-02
        2 -1    0    0  501    0 +0.0000000000e+00 +0.0000000000e+00 +3.7186091238e+02 3.7186091238e+02 0.0000000000e+00 0.0000e+00 1.0000e+00
       -2 -1    0    0    0  501 -0.0000000000e+00 -0.0000000000e+00 -6.2375995523e+02 6.2375995523e+02 0.0000000000e+00 0.0000e+00 -1.0000e+00
      -13  1    1    2    0    0 +3.4261250493e+02 -2.8260179638e+02 -3.1850683648e+02 5.4652878126e+02 0.0000000000e+00 0.0000e+00 -1.0000e+00
       13  1    1    2    0    0 -3.4261250493e+02 +2.8260179638e+02 +6.6607793629e+01 4.4909208635e+02 0.0000000000e+00 0.0000e+00 1.0000e+00
<mgrwt>
<rscale>  0 0.96322779E+03</rscale>
<asrwt>0</asrwt>
<pdfrwt beam="1">  1        2 0.57209372E-01 0.96322779E+03</pdfrwt>
<pdfrwt beam="2">  1       -2 0.95963069E-01 0.96322779E+03</pdfrwt>
<totfact> 0.97014578E+01</totfact>
</mgrwt>
<rwgt>
<wgt id='morphing_basis_vector_1'> +2.0454479e-04 </wgt>
<wgt id='morphing_basis_vector_2'> +1.3085329e-04 </wgt>
<wgt id='morphing_basis_vector_3'> +1.9474772e-04 </wgt>
<wgt id='morphing_basis_vector_4'> +1.1429023e-04 </wgt>
<wgt id='morphing_basis_vector_5'> +1.8415944e-04 </wgt>
</rwgt>
</event>
<event>
 4      1 +1.4786900e-06 1.05081700e+03 7.81860800e-03 8.63748800e-02
        2 -1    0    0  501    0 +0.0000000000e+00 +0.0000000000e+00 +1.1269746237e+03 1.1269746237e+03 0.0000000000e+00 0.0000e+00 1.0000e+00
       -2 -1    0    0    0  501 -0.0000000000e+00 -0.0000000000e+00 -2.4495124906e+02 2.4495124906e+02 0.0000000000e+00 0.0000e+00 -1.0000e+00
      -13  1    1    2    0    0 +3.2334234333e+02 -2.8575387988e+02 +4.9667702233e+01 4.3436439945e+02 0.0000000000e+00 0.0000e+00 -1.0000e+00
       13  1    1    2    0    0 -3.2334234333e+02 +2.8575387988e+02 +8.3235567246e+02 9.3756147336e+02 0.0000000000e+00 0.0000e+00 1.0000e+00
<mgrwt>
<rscale>  0 0.10508165E+04</rscale>
<asrwt>0</asrwt>
<pdfrwt beam="1">  1        2 0.17338071E+00 0.10508165E+04</pdfrwt>
<pdfrwt beam="2">  1       -2 0.37684808E-01 0.10508165E+04</pdfrwt>
<totfact> 0.16908961E+02</totfact>
</mgrwt>
<rwgt>
<wgt id='morphing_basis_vector_1'> +2.8091687e-04 </wgt>
<wgt id='morphing_basis_vector_2'> +1.7882464e-04 </wgt>
<wgt id='morphing_basis_vector_3'> +2.7363978e-04 </wgt>
<wgt id='morphing_basis_vector_4'> +1.6841131e-04 </wgt>
<wgt id='morphing_basis_vector_5'> +2.6878015e-04 </wgt>
</rwgt>
</event>
<event>
 4      1 +1.4786900e-06 1.05346000e+03 7.81860800e-03 8.63512200e-02
        2 -1    0    0  501    0 +0.0000000000e+00 +0.0000000000e+00 +7.0138647322e+02 7.0138647322e+02 0.0000000000e+00 0.0000e+00 -1.0000e+00
       -2 -1    0    0    0  501 -0.0000000000e+00 -0.0000000000e+00 -3.9556543888e+02 3.9556543888e+02 0.0000000000e+00 0.0000e+00 1.0000e+00
      -13  1    1    2    0    0 -9.0995834827e+01 -1.3376123367e+02 -3.6905489569e+02 4.0295635697e+02 0.0000000000e+00 0.0000e+00 1.0000e+00
       13  1    1    2    0    0 +9.0995834827e+01 +1.3376123367e+02 +6.7487593004e+02 6.9399555513e+02 0.0000000000e+00 0.0000e+00 -1.0000e+00
<mgrwt>
<rscale>  0 0.10534595E+04</rscale>
<asrwt>0</asrwt>
<pdfrwt beam="1">  1        2 0.10790561E+00 0.10534595E+04</pdfrwt>
<pdfrwt beam="2">  1       -2 0.60856221E-01 0.10534595E+04</pdfrwt>
<totfact> 0.12689308E+02</totfact>
</mgrwt>
<rwgt>
<wgt id='morphing_basis_vector_1'> +2.8272961e-04 </wgt>
<wgt id='morphing_basis_vector_2'> +1.7806911e-04 </wgt>
<wgt id='morphing_basis_vector_3'> +2.7555627e-04 </wgt>
<wgt id='morphing_basis_vector_4'> +1.7155547e-04 </wgt>
<wgt id='morphing_basis_vector_5'> +2.7178656e-04 </wgt>
</rwgt>
</event>
<event>
 4      1 +1.4786900e-06 1.05781200e+03 7.81860800e-03 8.63124200e-02
        2 -1    0    0  501    0 +0.0000000000e+00 +0.0000000000e+00 +1.3183687713e+03 1.3183687713e+03 0.0000000000e+00 0.0000e+00 -1.0000e+00
       -2 -1    0    0    0  501 -0.0000000000e+00 -0.0000000000e+00 -2.1218747970e+02 2.1218747970e+02 0.0000000000e+00 0.0000e+00 1.0000e+00
      -13  1    1    2    0    0 +2.5280622004e+02 +1.9051870224e+02 -5.9983633335e+01 3.2219000149e+02 0.0000000000e+00 0.0000e+00 1.0000e+00
       13  1    1    2    0    0 -2.5280622004e+02 -1.9051870224e+02 +1.1661649250e+03 1.2083662495e+03 0.0000000000e+00 0.0000e+00 -1.0000e+00
<mgrwt>
<rscale>  0 0.10578116E+04</rscale>
<asrwt>0</asrwt>
<pdfrwt beam="1">  1        2 0.20282596E+00 0.10578116E+04</pdfrwt>
<pdfrwt beam="2">  1       -2 0.32644229E-01 0.10578116E+04</pdfrwt>
<totfact> 0.16988448E+02</totfact>
</mgrwt>
<rwgt>
<wgt id='morphing_basis_vector_1'> +2.8723613e-04 </wgt>
<wgt id='morphing_basis_vector_2'> +1.8132452e-04 </wgt>
<wgt id='morphing_basis_vector_3'> +2.8022362e-04 </wgt>
<wgt id='morphing_basis_vector_4'> +1.7440110e-04 </wgt>
<wgt id='morphing_basis_vector_5'> +2.7664067e-04 </wgt>
</rwgt>
</event>
<event>
 4      1 +1.4786900e-06 9.39367700e+02 7.81860800e-03 8.74438300e-02
        2 -1    0    0  501    0 +0.0000000000e+00 +0.0000000000e+00 +2.0036317425e+03 2.0036317425e+03 0.0000000000e+00 0.0000e+00 1.0000e+00
       -2 -1    0    0    0  501 -0.0000000000e+00 -0.0000000000e+00 -1.1010151890e+02 1.1010151890e+02 0.0000000000e+00 0.0000e+00 -1.0000e+00
      -13  1    1    2    0    0 -4.3600354388e+02 +6.1771568108e+01 +5.7916701463e+02 7.2756391316e+02 0.0000000000e+00 0.0000e+00 -1.0000e+00
       13  1    1    2    0    0 +4.3600354388e+02 -6.1771568108e+01 +1.3143632090e+03 1.3861693483e+03 0.0000000000e+00 0.0000e+00 1.0000e+00
<mgrwt>
<rscale>  0 0.93936766E+03</rscale>
<asrwt>0</asrwt>
<pdfrwt beam="1">  1        2 0.30825101E+00 0.93936766E+03</pdfrwt>
<pdfrwt beam="2">  1       -2 0.16938697E-01 0.93936766E+03</pdfrwt>
<totfact> 0.21892256E+02</totfact>
</mgrwt>
<rwgt>
<wgt id='morphing_basis_vector_1'> +1.8684360e-04 </wgt>
<wgt id='morphing_basis_vector_2'> +1.1972418e-04 </wgt>
<wgt id='morphing_basis_vector_3'> +1.7658709e-04 </wgt>
<wgt id='morphing_basis_vector_4'> +1.0208302e-04 </wgt>
<wgt id='morphing_basis_vector_5'> +1.6496761e-04 </wgt>
</rwgt>
</event>
<event>
 4      1 +1.4786900e-06 1.06383000e+03 7.81860800e-03 8.62590800e-02
        2 -1    0    0  501    0 +0.0000000000e+00 +0.0000000000e+00 +7.3388989734e+02 7.3388989734e+02 0.0000000000e+00 0.0000e+00 1.0000e+00
       -2 -1    0    0    0  501 -0.0000000000e+00 -0.0000000000e+00 -3.8552608464e+02 3.8552608464e+02 0.0000000000e+00 0.0000e+00 -1.0000e+00
      -13  1    1    2    0    0 -3.4438326326e+02 -4.0419237366e+02 +1.4153852707e+02 5.4954932589e+02 0.0000000000e+00 0.0000e+00 -1.0000e+00
       13  1    1    2    0    0 +3.4438326326e+02 +4.0419237366e+02 +2.0682528564e+02 5.6986665609e+02 0.0000000000e+00 0.0000e+00 1.0000e+00
<mgrwt>
<rscale>  0 0.10638302E+04</rscale>
<asrwt>0</asrwt>
<pdfrwt beam="1">  1        2 0.11290614E+00 0.10638302E+04</pdfrwt>
<pdfrwt beam="2">  1       -2 0.59311705E-01 0.10638302E+04</pdfrwt>
<totfact> 0.12637971E+02</totfact>
</mgrwt>
<rwgt>
<wgt id='morphing_basis_vector_1'> +3.0173396e-04 </wgt>
<wgt id='morphing_basis_vector_2'> +2.1058211e-04 </wgt>
<wgt id='morphing_basis_vector_3'> +2.9499075e-04 </wgt>
<wgt id='morphing_basis_vector_4'> +1.6524474e-04 </wgt>
<wgt id='morphing_basis_vector_5'> +2.8263222e-04 </wgt>
</rwgt>
</event>
<event>
 4      1 +1.4786900e-06 1.06394800e+03 7.81860800e-03 8.62580400e-02
        2 -1    0    0  501    0 +0.0000000000e+00 +0.0000000000e+00 +5.9499516204e+02 5.9499516204e+02 0.0000000000e+00 0.0000e+00 1.0000e+00
       -2 -1    0    0    0  501 -0.0000000000e+00 -0.0000000000e+00 -4.7562788625e+02 4.7562788625e+02 0.0000000000e+00 0.0000e+00 -1.0000e+00
      -13  1    1    2    0    0 +2.9032808134e+02 +1.6261451434e+02 +4.7733267850e+02 5.8187658576e+02 0.0000000000e+00 0.0000e+00 1.0000e+00
       13  1    1    2    0    0 -2.9032808134e+02 -1.6261451434e+02 -3.5796540272e+02 4.8874646253e+02 0.0000000000e+00 0.0000e+00 -1.0000e+00
<mgrwt>
<rscale>  0 0.10639479E+04</rscale>
<asrwt>0</asrwt>
<pdfrwt beam="1">  1        2 0.91537717E-01 0.10639479E+04</pdfrwt>
<pdfrwt beam="2">  1       -2 0.73173521E-01 0.10639479E+04</pdfrwt>
<totfact> 0.10468356E+02</totfact>
</mgrwt>
<rwgt>
<wgt id='morphing_basis_vector_1'> +3.8777571e-04 </wgt>
<wgt id='morphing_basis_vector_2'> +4.7008262e-04 </wgt>
<wgt id='morphing_basis_vector_3'> +3.8144497e-04 </wgt>
<wgt id='morphing_basis_vector_4'> +2.7136697e-05 </wgt>
<wgt id='morphing_basis_vector_5'> +2.7409023e-04 </wgt>
</rwgt>
</event>
<event>
 4      1 +1.4786900e-06 9.14861000e+02 7.81860800e-03 8.76997200e-02
        2 -1    0    0  501    0 +0.0000000000e+00 +0.0000000000e+00 +1.0368069256e+03 1.0368069256e+03 0.0000000000e+00 0.0000e+00 -1.0000e+00
       -2 -1    0    0    0  501 -0.0000000000e+00 -0.0000000000e+00 -2.0181448603e+02 2.0181448603e+02 0.0000000000e+00 0.0000e+00 1.0000e+00
      -13  1    1    2    0    0 +4.2061902539e+02 +1.6939424893e+02 +3.3594884689e+02 5.6433713666e+02 0.0000000000e+00 0.0000e+00 1.0000e+00
       13  1    1    2    0    0 -4.2061902539e+02 -1.6939424893e+02 +4.9904359273e+02 6.7428427501e+02 0.0000000000e+00 0.0000e+00 -1.0000e+00
<mgrwt>
<rscale>  0 0.91486099E+03</rscale>
<asrwt>0</asrwt>
<pdfrwt beam="1">  1        2 0.15950875E+00 0.91486099E+03</pdfrwt>
<pdfrwt beam="2">  1       -2 0.31048383E-01 0.91486099E+03</pdfrwt>
<totfact> 0.27435671E+02</totfact>
</mgrwt>
<rwgt>
<wgt id='morphing_basis_vector_1'> +1.7181093e-04 </wgt>
<wgt id='morphing_basis_vector_2'> +1.1481721e-04 </wgt>
<wgt id='morphing_basis_vector_3'> +1.6081214e-04 </wgt>
<wgt id='morphing_basis_vector_4'> +8.7848535e-05 </wgt>
<wgt id='morphing_basis_vector_5'> +1.4666925e-04 </wgt>
</rwgt>
</event>
<event>
 4      1 +1.4786900e-06 9.29071600e+02 7.81860800e-03 8.75503300e-02
        2 -1    0    0  501    0 +0.0000000000e+00 +0.0000000000e+00 +1.8718092559e+03 1.8718092559e+03 0.0000000000e+00 0.0000e+00 1.0000e+00
       -2 -1    0    0    0  501 -0.0000000000e+00 -0.0000000000e+00 -1.1528605542e+02 1.1528605542e+02 0.0000000000e+00 0.0000e+00 -1.0000e+00
      -13  1    1    2    0    0 +3.6947282968e+02 +2.2861497624e+02 +5.2670087880e+02 6.8278019520e+02 0.0000000000e+00 0.0000e+00 -1.0000e+00
       13  1    1    2    0    0 -3.6947282968e+02 -2.2861497624e+02 +1.2298223217e+03 1.3043151162e+03 0.0000000000e+00 0.0000e+00 1.0000e+00
<mgrwt>
<rscale>  0 0.92907159E+03</rscale>
<asrwt>0</asrwt>
<pdfrwt beam="1">  1        2 0.28797063E+00 0.92907159E+03</pdfrwt>
<pdfrwt beam="2">  1       -2 0.17736318E-01 0.92907159E+03</pdfrwt>
<totfact> 0.24032467E+02</totfact>
</mgrwt>
<rwgt>
<wgt id='morphing_basis_vector_1'> +1.7942413e-04 </wgt>
<wgt id='morphing_basis_vector_2'> +1.1467401e-04 </wgt>
<wgt id='morphing_basis_vector_3'> +1.6902337e-04 </wgt>
<wgt id='morphing_basis_vector_4'> +9.7354978e-05 </wgt>
<wgt id='morphing_basis_vector_5'> +1.5716657e-04 </wgt>
</rwgt>
</event>
<event>
 4      1 +1.4786900e-06 1.01611500e+03 7.81860800e-03 8.66923500e-02
        2 -1    0    0  501    0 +0.0000000000e+00 +0.0000000000e+00 +6.3927345102e+02 6.3927345102e+02 0.0000000000e+00 0.0000e+00 -1.0000e+00
       -2 -1    0    0    0  501 -0.0000000000e+00 -0.0000000000e+00 -4.0377473675e+02 4.0377473675e+02 0.0000000000e+00 0.0000e+00 1.0000e+00
      -13  1    1    2    0    0 +2.9038583212e+02 -9.1509090392e+01 -2.9975551704e+02 4.2726012581e+02 0.0000000000e+00 0.0000e+00 1.0000e+00
       13  1    1    2    0    0 -2.9038583212e+02 +9.1509090392e+01 +5.3525423131e+02 6.1578806196e+02 0.0000000000e+00 0.0000e+00 -1.0000e+00
<mgrwt>
<rscale>  0 0.10161151E+04</rscale>
<asrwt>0</asrwt>
<pdfrwt beam="1">  1        2 0.98349762E-01 0.10161151E+04</pdfrwt>
<pdfrwt beam="2">  1       -2 0.62119190E-01 0.10161151E+04</pdfrwt>
<totfact> 0.13642896E+02</totfact>
</mgrwt>
<rwgt>
<wgt id='morphing_basis_vector_1'> +2.4737703e-04 </wgt>
<wgt id='morphing_basis_vector_2'> +1.5529065e-04 </wgt>
<wgt id='morphing_basis_vector_3'> +2.3898691e-04 </wgt>
<wgt id='morphing_basis_vector_4'> +1.4673483e-04 </wgt>
<wgt id='morphing_basis_vector_5'> +2.3254457e-04 </wgt>
</rwgt>
</event>
<event>
 4      1 +1.4786900e-06 9.70006800e+02 7.81860800e-03 8.71351600e-02
        2 -1    0    0  501    0 +0.0000000000e+00 +0.0000000000e+00 +5.2151710886e+02 5.2151710886e+02 0.0000000000e+00 0.0000e+00 1.0000e+00
       -2 -1    0    0    0  501 -0.0000000000e+00 -0.0000000000e+00 -4.5104615481e+02 4.5104615481e+02 0.0000000000e+00 0.0000e+00 -1.0000e+00
      -13  1    1    2    0    0 -3.7756387531e+02 -2.7620514149e+02 -9.3103933521e+01 4.7698228747e+02 0.0000000000e+00 0.0000e+00 -1.0000e+00
       13  1    1    2    0    0 +3.7756387531e+02 +2.7620514149e+02 +1.6357488757e+02 4.9558097620e+02 0.0000000000e+00 0.0000e+00 1.0000e+00
<mgrwt>
<rscale>  0 0.97000678E+03</rscale>
<asrwt>0</asrwt>
<pdfrwt beam="1">  1        2 0.80233401E-01 0.97000678E+03</pdfrwt>
<pdfrwt beam="2">  1       -2 0.69391716E-01 0.97000678E+03</pdfrwt>
<totfact> 0.13765680E+02</totfact>
</mgrwt>
<rwgt>
<wgt id='morphing_basis_vector_1'> +2.1100430e-04 </wgt>
<wgt id='morphing_basis_vector_2'> +1.3779983e-04 </wgt>
<wgt id='morphing_basis_vector_3'> +2.0122219e-04 </wgt>
<wgt id='morphing_basis_vector_4'> +1.1613076e-04 </wgt>
<wgt id='morphing_basis_vector_5'> +1.8979177e-04 </wgt>
</rwgt>
</event>
<event>
 4      1 +1.4786900e-06 9.32584300e+02 7.81860800e-03 8.75138400e-02
        2 -1    0    0  501    0 +0.0000000000e+00 +0.0000000000e+00 +2.0113737672e+03 2.0113737672e+03 0.0000000000e+00 0.0000e+00 -1.0000e+00
       -2 -1    0    0    0  501 -0.0000000000e+00 -0.0000000000e+00 -1.0809942486e+02 1.0809942486e+02 0.0000000000e+00 0.0000e+00 1.0000e+00
      -13  1    1    2    0    0 -3.2596784993e+02 +3.2669543385e+02 +1.1031319408e+03 1.1957779997e+03 0.0000000000e+00 0.0000e+00 1.0000e+00
       13  1    1    2    0    0 +3.2596784993e+02 -3.2669543385e+02 +8.0014240151e+02 9.2369519235e+02 0.0000000000e+00 0.0000e+00 -1.0000e+00
<mgrwt>
<rscale>  0 0.93258425E+03</rscale>
<asrwt>0</asrwt>
<pdfrwt beam="1">  1        2 0.30944209E+00 0.93258425E+03</pdfrwt>
<pdfrwt beam="2">  1       -2 0.16630682E-01 0.93258425E+03</pdfrwt>
<totfact> 0.22350648E+02</totfact>
</mgrwt>
<rwgt>
<wgt id='morphing_basis_vector_1'> +1.9094716e-04 </wgt>
<wgt id='morphing_basis_vector_2'> +1.4377756e-04 </wgt>
<wgt id='morphing_basis_vector_3'> +1.7911606e-04 </wgt>
<wgt id='morphing_basis_vector_4'> +8.5733478e-05 </wgt>
<wgt id='morphing_basis_vector_5'> +1.5906622e-04 </wgt>
</rwgt>
</event>
<event>
 4      1 +1.4786900e-06 9.74597300e+02 7.81860800e-03 8.70899300e-02
        2 -1    0    0  501    0 +0.0000000000e+00 +0.0000000000e+00 +4.5158533978e+02 4.5158533978e+02 0.0000000000e+00 0.0000e+00 -1.0000e+00
       -2 -1    0    0    0  501 -0.0000000000e+00 -0.0000000000e+00 -5.2583635631e+02 5.2583635631e+02 0.0000000000e+00 0.0000e+00 1.0000e+00
      -13  1    1    2    0    0 -3.5071026301e+02 -1.9466210777e+01 -3.7586663165e+02 5.1444372553e+02 0.0000000000e+00 0.0000e+00 1.0000e+00
       13  1    1    2    0    0 +3.5071026301e+02 +1.9466210777e+01 +3.0161561512e+02 4.6297797056e+02 0.0000000000e+00 0.0000e+00 -1.0000e+00
<mgrwt>
<rscale>  0 0.97459733E+03</rscale>
<asrwt>0</asrwt>
<pdfrwt beam="1">  1        2 0.69474667E-01 0.97459733E+03</pdfrwt>
<pdfrwt beam="2">  1       -2 0.80897901E-01 0.97459733E+03</pdfrwt>
<totfact> 0.11569359E+02</totfact>
</mgrwt>
<rwgt>
<wgt id='morphing_basis_vector_1'> +2.1223371e-04 </wgt>
<wgt id='morphing_basis_vector_2'> +1.3282598e-04 </wgt>
<wgt id='morphing_basis_vector_3'> +2.0281114e-04 </wgt>
<wgt id='morphing_basis_vector_4'> +1.2227310e-04 </wgt>
<wgt id='morphing_basis_vector_5'> +1.9395991e-04 </wgt>
</rwgt>
</event>
<event>
 4      1 +1.4786900e-06 1.04200600e+03 7.81860800e-03 8.64542800e-02
        2 -1    0    0  501    0 +0.0000000000e+00 +0.0000000000e+00 +3.0586427525e+03 3.0586427525e+03 0.0000000000e+00 0.0000e+00 -1.0000e+00
       -2 -1    0    0    0  501 -0.0000000000e+00 -0.0000000000e+00 -8.8746527403e+01 8.8746527403e+01 0.0000000000e+00 0.0000e+00 1.0000e+00
      -13  1    1    2    0    0 +5.6941341019e+01 +4.9634538798e+02 +1.9313594118e+03 1.9949311362e+03 0.0000000000e+00 0.0000e+00 1.0000e+00
       13  1    1    2    0    0 -5.6941341019e+01 -4.9634538798e+02 +1.0385368132e+03 1.1524581437e+03 0.0000000000e+00 0.0000e+00 -1.0000e+00
<mgrwt>
<rscale>  0 0.10420056E+04</rscale>
<asrwt>0</asrwt>
<pdfrwt beam="1">  1        2 0.47056034E+00 0.10420056E+04</pdfrwt>
<pdfrwt beam="2">  1       -2 0.13653314E-01 0.10420056E+04</pdfrwt>
<totfact> 0.72557441E+01</totfact>
</mgrwt>
<rwgt>
<wgt id='morphing_basis_vector_1'> +2.9714658e-04 </wgt>
<wgt id='morphing_basis_vector_2'> +2.4834064e-04 </wgt>
<wgt id='morphing_basis_vector_3'> +2.8906199e-04 </wgt>
<wgt id='morphing_basis_vector_4'> +1.2291897e-04 </wgt>
<wgt id='morphing_basis_vector_5'> +2.5675773e-04 </wgt>
</rwgt>
</event>
<event>
 4      1 +1.4786900e-06 9.07282200e+02 7.81860800e-03 8.77805600e-02
        2 -1    0    0  501    0 +0.0000000000e+00 +0.0000000000e+00 +1.8101542712e+03 1.8101542712e+03 0.0000000000e+00 0.0000e+00 -1.0000e+00
       -2 -1    0    0    0  501 -0.0000000000e+00 -0.0000000000e+00 -1.1368659195e+02 1.1368659195e+02 0.0000000000e+00 0.0000e+00 1.0000e+00
      -13  1    1    2    0    0 -5.1063863859e+01 -4.4627166745e+02 +7.1371762491e+02 8.4330229898e+02 0.0000000000e+00 0.0000e+00 1.0000e+00
       13  1    1    2    0    0 +5.1063863859e+01 +4.4627166745e+02 +9.8275005433e+02 1.0805385642e+03 0.0000000000e+00 0.0000e+00 -1.0000e+00
<mgrwt>
<rscale>  0 0.90728225E+03</rscale>
<asrwt>0</asrwt>
<pdfrwt beam="1">  1        2 0.27848525E+00 0.90728225E+03</pdfrwt>
<pdfrwt beam="2">  1       -2 0.17490246E-01 0.90728225E+03</pdfrwt>
<totfact> 0.26638243E+02</totfact>
</mgrwt>
<rwgt>
<wgt id='morphing_basis_vector_1'> +1.6657718e-04 </wgt>
<wgt id='morphing_basis_vector_2'> +1.1092099e-04 </wgt>
<wgt id='morphing_basis_vector_3'> +1.5550613e-04 </wgt>
<wgt id='morphing_basis_vector_4'> +8.4867468e-05 </wgt>
<wgt id='morphing_basis_vector_5'> +1.4138478e-04 </wgt>
</rwgt>
</event>
<event>
 4      1 +1.4786900e-06 9.64373000e+02 7.81860800e-03 8.71910100e-02
        2 -1    0    0  501    0 +0.0000000000e+00 +0.0000000000e+00 +2.0945654220e+03 2.0945654220e+03 0.0000000000e+00 0.0000e+00 -1.0000e+00
       -2 -1    0    0    0  501 -0.0000000000e+00 -0.0000000000e+00 -1.1100336730e+02 1.1100336730e+02 0.0000000000e+00 0.0000e+00 1.0000e+00
      -13  1    1    2    0    0 -2.9372780485e+02 +2.5710069646e+02 +3.4439238622e+02 5.2056018591e+02 0.0000000000e+00 0.0000e+00 1.0000e+00
       13  1    1    2    0    0 +2.9372780485e+02 -2.5710069646e+02 +1.6391696684e+03 1.6850086034e+03 0.0000000000e+00 0.0000e+00 -1.0000e+00
<mgrwt>
<rscale>  0 0.96437299E+03</rscale>
<asrwt>0</asrwt>
<pdfrwt beam="1">  1        2 0.32224081E+00 0.96437299E+03</pdfrwt>
<pdfrwt beam="2">  1       -2 0.17077443E-01 0.96437299E+03</pdfrwt>
<totfact> 0.19180530E+02</totfact>
</mgrwt>
<rwgt>
<wgt id='morphing_basis_vector_1'> +2.0443841e-04 </wgt>
<wgt id='morphing_basis_vector_2'> +1.2841172e-04 </wgt>
<wgt id='morphing_basis_vector_3'> +1.9478201e-04 </wgt>
<wgt id='morphing_basis_vector_4'> +1.1638754e-04 </wgt>
<wgt id='morphing_basis_vector_5'> +1.8520500e-04 </wgt>
</rwgt>
</event>
<event>
 4      1 +1.4786900e-06 9.21431500e+02 7.81860800e-03 8.76303000e-02
        2 -1    0    0  501    0 +0.0000000000e+00 +0.0000000000e+00 +6.3534895617e+02 6.3534895617e+02 0.0000000000e+00 0.0000e+00 1.0000e+00
       -2 -1    0    0    0  501 -0.0000000000e+00 -0.0000000000e+00 -3.3408257163e+02 3.3408257163e+02 0.0000000000e+00 0.0000e+00 -1.0000e+00
      -13  1    1    2    0    0 -6.6085461611e+01 +4.5375053418e+02 +1.0355656092e+02 4.7008594620e+02 0.0000000000e+00 0.0000e+00 -1.0000e+00
       13  1    1    2    0    0 +6.6085461611e+01 -4.5375053418e+02 +1.9770982362e+02 4.9934558160e+02 0.0000000000e+00 0.0000e+00 1.0000e+00
<mgrwt>
<rscale>  0 0.92143152E+03</rscale>
<asrwt>0</asrwt>
<pdfrwt beam="1">  1        2 0.97745993E-01 0.92143152E+03</pdfrwt>
<pdfrwt beam="2">  1       -2 0.51397319E-01 0.92143152E+03</pdfrwt>
<totfact> 0.20267718E+02</totfact>
</mgrwt>
<rwgt>
<wgt id='morphing_basis_vector_1'> +1.7687888e-04 </wgt>
<wgt id='morphing_basis_vector_2'> +1.1958006e-04 </wgt>
<wgt id='morphing_basis_vector_3'> +1.6587494e-04 </wgt>
<wgt id='morphing_basis_vector_4'> +8.9871871e-05 </wgt>
<wgt id='morphing_basis_vector_5'> +1.5133152e-04 </wgt>
</rwgt>
</event>
<event>
 4      1 +1.4786900e-06 9.38099700e+02 7.81860800e-03 8.74568700e-02
        2 -1    0    0  501    0 +0.0000000000e+00 +0.0000000000e+00 +2.0397441738e+03 2.0397441738e+03 0.0000000000e+00 0.0000e+00 -1.0000e+00
       -2 -1    0    0    0  501 -0.0000000000e+00 -0.0000000000e+00 -1.0786047762e+02 1.0786047762e+02 0.0000000000e+00 0.0000e+00 1.0000e+00
      -13  1    1    2    0    0 +2.1590941418e+02 -4.0547638182e+02 +7.4900222509e+02 8.7865368863e+02 0.0000000000e+00 0.0000e+00 1.0000e+00
       13  1    1    2    0    0 -2.1590941418e+02 +4.0547638182e+02 +1.1828814711e+03 1.2689509628e+03 0.0000000000e+00 0.0000e+00 -1.0000e+00
<mgrwt>
<rscale>  0 0.93809974E+03</rscale>
<asrwt>0</asrwt>
<pdfrwt beam="1">  1        2 0.31380677E+00 0.93809974E+03</pdfrwt>
<pdfrwt beam="2">  1       -2 0.16593921E-01 0.93809974E+03</pdfrwt>
<totfact> 0.21621258E+02</totfact>
</mgrwt>
<rwgt>
<wgt id='morphing_basis_vector_1'> +1.8732083e-04 </wgt>
<wgt id='morphing_basis_vector_2'> +1.2335631e-04 </wgt>
<wgt id='morphing_basis_vector_3'> +1.7682716e-04 </wgt>
<wgt id='morphing_basis_vector_4'> +9.9425204e-05 </wgt>
<wgt id='morphing_basis_vector_5'> +1.6387695e-04 </wgt>
</rwgt>
</event>
<event>
 4      1 +1.4786900e-06 9.45658500e+02 7.81860800e-03 8.73794600e-02
        2 -1    0    0  501    0 +0.0000000000e+00 +0.0000000000e+00 +7.2800037300e+02 7.2800037300e+02 0.0000000000e+00 0.0000e+00 -1.0000e+00
       -2 -1    0    0    0  501 -0.0000000000e+00 -0.0000000000e+00 -3.0709803338e+02 3.0709803338e+02 0.0000000000e+00 0.0000e+00 1.0000e+00
      -13  1    1    2    0    0 +3.1378656420e+02 -2.4690137469e+02 -6.6771895087e+01 4.0482191476e+02 0.0000000000e+00 0.0000e+00 1.0000e+00
       13  1    1    2    0    0 -3.1378656420e+02 +2.4690137469e+02 +4.8767423471e+02 6.3027649163e+02 0.0000000000e+00 0.0000e+00 -1.0000e+00
<mgrwt>
<rscale>  0 0.94565846E+03</rscale>
<asrwt>0</asrwt>
<pdfrwt beam="1">  1        2 0.11200006E+00 0.94565846E+03</pdfrwt>
<pdfrwt beam="2">  1       -2 0.47245851E-01 0.94565846E+03</pdfrwt>
<totfact> 0.20213991E+02</totfact>
</mgrwt>
<rwgt>
<wgt id='morphing_basis_vector_1'> +1.9043267e-04 </wgt>
<wgt id='morphing_basis_vector_2'> +1.1967547e-04 </wgt>
<wgt id='morphing_basis_vector_3'> +1.8042700e-04 </wgt>
<wgt id='morphing_basis_vector_4'> +1.0662318e-04 </wgt>
<wgt id='morphing_basis_vector_5'> +1.6995860e-04 </wgt>
</rwgt>
</event>
<event>
 4      1 +1.4786900e-06 9.42516500e+02 7.81860800e-03 8.74115500e-02
        2 -1    0    0  501    0 +0.0000000000e+00 +0.0000000000e+00 +2.6418765455e+02 2.6418765455e+02 0.0000000000e+00 0.0000e+00 -1.0000e+00
       -2 -1    0    0    0  501 -0.0000000000e+00 -0.0000000000e+00 -8.4063105105e+02 8.4063105105e+02 0.0000000000e+00 0.0000e+00 1.0000e+00
      -13  1    1    2    0    0 +2.0017476401e+02 +4.1036209997e+02 -4.2500984096e+02 6.2377909082e+02 0.0000000000e+00 0.0000e+00 1.0000e+00
       13  1    1    2    0    0 -2.0017476401e+02 -4.1036209997e+02 -1.5143355555e+02 4.8103961478e+02 0.0000000000e+00 0.0000e+00 -1.0000e+00
<mgrwt>
<rscale>  0 0.94251652E+03</rscale>
<asrwt>0</asrwt>
<pdfrwt beam="1">  1        2 0.40644254E-01 0.94251652E+03</pdfrwt>
<pdfrwt beam="2">  1       -2 0.12932786E+00 0.94251652E+03</pdfrwt>
<totfact> 0.67321523E+01</totfact>
</mgrwt>
<rwgt>
<wgt id='morphing_basis_vector_1'> +1.9004527e-04 </wgt>
<wgt id='morphing_basis_vector_2'> +1.2399226e-04 </wgt>
<wgt id='morphing_basis_vector_3'> +1.7970475e-04 </wgt>
<wgt id='morphing_basis_vector_4'> +1.0225249e-04 </wgt>
<wgt id='morphing_basis_vector_5'> +1.6733527e-04 </wgt>
</rwgt>
</event>
<event>
 4      1 +1.4786900e-06 1.06034500e+03 7.81860800e-03 8.62899300e-02
        2 -1    0    0  501    0 +0.0000000000e+00 +0.0000000000e+00 +1.0250214265e+03 1.0250214265e+03 0.0000000000e+00 0.0000e+00 1.0000e+00
       -2 -1    0    0    0  501 -0.0000000000e+00 -0.0000000000e+00 -2.7422145403e+02 2.7422145403e+02 0.0000000000e+00 0.0000e+00 -1.0000e+00
      -13  1    1    2    0    0 -1.4085305722e+02 -4.6543633450e+02 +6.3420368224e+02 7.9917762467e+02 0.0000000000e+00 0.0000e+00 -1.0000e+00
       13  1    1    2    0    0 +1.4085305722e+02 +4.6543633450e+02 +1.1659629020e+02 5.0006525583e+02 0.0000000000e+00 0.0000e+00 1.0000e+00
<mgrwt>
<rscale>  0 0.10603450E+04</rscale>
<asrwt>0</asrwt>
<pdfrwt beam="1">  1        2 0.15769560E+00 0.10603450E+04</pdfrwt>
<pdfrwt beam="2">  1       -2 0.42187917E-01 0.10603450E+04</pdfrwt>
<totfact> 0.15779967E+02</totfact>
</mgrwt>
<rwgt>
<wgt id='morphing_basis_vector_1'> +3.2892057e-04 </wgt>
<wgt id='morphing_basis_vector_2'> +3.0111934e-04 </wgt>
<wgt id='morphing_basis_vector_3'> +3.2203549e-04 </wgt>
<wgt id='morphing_basis_vector_4'> +1.1341926e-04 </wgt>
<wgt id='morphing_basis_vector_5'> +2.7557167e-04 </wgt>
</rwgt>
</event>
<event>
 4      1 +1.4786900e-06 1.03979000e+03 7.81860800e-03 8.64743600e-02
        2 -1    0    0  501    0 +0.0000000000e+00 +0.0000000000e+00 +3.9672250249e+02 3.9672250249e+02 0.0000000000e+00 0.0000e+00 -1.0000e+00
       -2 -1    0    0    0  501 -0.0000000000e+00 -0.0000000000e+00 -6.8130995561e+02 6.8130995561e+02 0.0000000000e+00 0.0000e+00 1.0000e+00
      -13  1    1    2    0    0 -9.6453929666e+01 -3.7695876005e+02 -4.9977904831e+02 6.3338800467e+02 0.0000000000e+00 0.0000e+00 1.0000e+00
       13  1    1    2    0    0 +9.6453929666e+01 +3.7695876005e+02 +2.1519159519e+02 4.4464445343e+02 0.0000000000e+00 0.0000e+00 -1.0000e+00
<mgrwt>
<rscale>  0 0.10397903E+04</rscale>
<asrwt>0</asrwt>
<pdfrwt beam="1">  1        2 0.61034232E-01 0.10397903E+04</pdfrwt>
<pdfrwt beam="2">  1       -2 0.10481692E+00 0.10397903E+04</pdfrwt>
<totfact> 0.72469436E+01</totfact>
</mgrwt>
<rwgt>
<wgt id='morphing_basis_vector_1'> +2.6975219e-04 </wgt>
<wgt id='morphing_basis_vector_2'> +1.7061900e-04 </wgt>
<wgt id='morphing_basis_vector_3'> +2.6209089e-04 </wgt>
<wgt id='morphing_basis_vector_4'> +1.6152729e-04 </wgt>
<wgt id='morphing_basis_vector_5'> +2.5686416e-04 </wgt>
</rwgt>
</event>
<event>
 4      1 +1.4786900e-06 9.93403300e+02 7.81860800e-03 8.69073400e-02
        2 -1    0    0  501    0 +0.0000000000e+00 +0.0000000000e+00 +2.0531839940e+03 2.0531839940e+03 0.0000000000e+00 0.0000e+00 -1.0000e+00
       -2 -1    0    0    0  501 -0.0000000000e+00 -0.0000000000e+00 -1.2016094176e+02 1.2016094176e+02 0.0000000000e+00 0.0000e+00 1.0000e+00
      -13  1    1    2    0    0 +2.1660741491e+01 -3.4830943222e+02 +1.9325109191e+02 3.9891682444e+02 0.0000000000e+00 0.0000e+00 1.0000e+00
       13  1    1    2    0    0 -2.1660741491e+01 +3.4830943222e+02 +1.7397719603e+03 1.7744281113e+03 0.0000000000e+00 0.0000e+00 -1.0000e+00
<mgrwt>
<rscale>  0 0.99340329E+03</rscale>
<asrwt>0</asrwt>
<pdfrwt beam="1">  1        2 0.31587444E+00 0.99340329E+03</pdfrwt>
<pdfrwt beam="2">  1       -2 0.18486300E-01 0.99340329E+03</pdfrwt>
<totfact> 0.17708093E+02</totfact>
</mgrwt>
<rwgt>
<wgt id='morphing_basis_vector_1'> +2.2768432e-04 </wgt>
<wgt id='morphing_basis_vector_2'> +1.4280649e-04 </wgt>
<wgt id='morphing_basis_vector_3'> +2.1868600e-04 </wgt>
<wgt id='morphing_basis_vector_4'> +1.3287774e-04 </wgt>
<wgt id='morphing_basis_vector_5'> +2.1080098e-04 </wgt>
</rwgt>
</event>
<event>
 4      1 +1.4786900e-06 1.06505100e+03 7.81860800e-03 8.62483000e-02
        2 -1    0    0  501    0 +0.0000000000e+00 +0.0000000000e+00 +2.1000834176e+03 2.1000834176e+03 0.0000000000e+00 0.0000e+00 -1.0000e+00
       -2 -1    0    0    0  501 -0.0000000000e+00 -0.0000000000e+00 -1.3503441291e+02 1.3503441291e+02 0.0000000000e+00 0.0000e+00 1.0000e+00
      -13  1    1    2    0    0 +2.6397603988e+01 -4.1438627272e+02 +2.8280315545e+02 5.0238475419e+02 0.0000000000e+00 0.0000e+00 1.0000e+00
       13  1    1    2    0    0 -2.6397603988e+01 +4.1438627272e+02 +1.6822458492e+03 1.7327330763e+03 0.0000000000e+00 0.0000e+00 -1.0000e+00
<mgrwt>
<rscale>  0 0.10650512E+04</rscale>
<asrwt>0</asrwt>
<pdfrwt beam="1">  1        2 0.32308973E+00 0.10650512E+04</pdfrwt>
<pdfrwt beam="2">  1       -2 0.20774527E-01 0.10650512E+04</pdfrwt>
<totfact> 0.13637339E+02</totfact>
</mgrwt>
<rwgt>
<wgt id='morphing_basis_vector_1'> +2.9510456e-04 </wgt>
<wgt id='morphing_basis_vector_2'> +1.8759227e-04 </wgt>
<wgt id='morphing_basis_vector_3'> +2.8837349e-04 </wgt>
<wgt id='morphing_basis_vector_4'> +1.7880752e-04 </wgt>
<wgt id='morphing_basis_vector_5'> +2.8483015e-04 </wgt>
</rwgt>
</event>
<event>
 4      1 +1.4786900e-06 9.60522200e+02 7.81860800e-03 8.72294200e-02
        2 -1    0    0  501    0 +0.0000000000e+00 +0.0000000000e+00 +8.1402971039e+02 8.1402971039e+02 0.0000000000e+00 0.0000e+00 -1.0000e+00
       -2 -1    0    0    0  501 -0.0000000000e+00 -0.0000000000e+00 -2.8334436681e+02 2.8334436681e+02 0.0000000000e+00 0.0000e+00 1.0000e+00
      -13  1    1    2    0    0 -1.9351313488e+02 +4.3935302933e+02 +2.5034551433e+02 5.4143447830e+02 0.0000000000e+00 0.0000e+00 1.0000e+00
       13  1    1    2    0    0 +1.9351313488e+02 -4.3935302933e+02 +2.8033982926e+02 5.5593959889e+02 0.0000000000e+00 0.0000e+00 -1.0000e+00
<mgrwt>
<rscale>  0 0.96052222E+03</rscale>
<asrwt>0</asrwt>
<pdfrwt beam="1">  1        2 0.12523534E+00 0.96052222E+03</pdfrwt>
<pdfrwt beam="2">  1       -2 0.43591441E-01 0.96052222E+03</pdfrwt>
<totfact> 0.20456944E+02</totfact>
</mgrwt>
<rwgt>
<wgt id='morphing_basis_vector_1'> +2.0741155e-04 </wgt>
<wgt id='morphing_basis_vector_2'> +1.4452991e-04 </wgt>
<wgt id='morphing_basis_vector_3'> +1.9694969e-04 </wgt>
<wgt id='morphing_basis_vector_4'> +1.0544966e-04 </wgt>
<wgt id='morphing_basis_vector_5'> +1.8148173e-04 </wgt>
</rwgt>
</event>
<event>
 4      1 +1.4786900e-06 1.04585500e+03 7.81860800e-03 8.64194900e-02
        2 -1    0    0  501    0 +0.0000000000e+00 +0.0000000000e+00 +5.5506269012e+02 5.5506269012e+02 0.0000000000e+00 0.0000e+00 1.0000e+00
       -2 -1    0    0    0  501 -0.0000000000e+00 -0.0000000000e+00 -4.9265282457e+02 4.9265282457e+02 0.0000000000e+00 0.0000e+00 -1.0000e+00
      -13  1    1    2    0    0 -1.5863974270e+02 -2.6452970768e+02 +4.5422457744e+02 5.4905600894e+02 0.0000000000e+00 0.0000e+00 1.0000e+00
       13  1    1    2    0    0 +1.5863974270e+02 +2.6452970768e+02 -3.9181471189e+02 4.9865950574e+02 0.0000000000e+00 0.0000e+00 -1.0000e+00
<mgrwt>
<rscale>  0 0.10458551E+04</rscale>
<asrwt>0</asrwt>
<pdfrwt beam="1">  1        2 0.85394260E-01 0.10458551E+04</pdfrwt>
<pdfrwt beam="2">  1       -2 0.75792742E-01 0.10458551E+04</pdfrwt>
<totfact> 0.10523822E+02</totfact>
</mgrwt>
<rwgt>
<wgt id='morphing_basis_vector_1'> +3.6663647e-04 </wgt>
<wgt id='morphing_basis_vector_2'> +4.4942346e-04 </wgt>
<wgt id='morphing_basis_vector_3'> +3.5778661e-04 </wgt>
<wgt id='morphing_basis_vector_4'> +2.0816280e-05 </wgt>
<wgt id='morphing_basis_vector_5'> +2.5442001e-04 </wgt>
</rwgt>
</event>
<event>
 4      1 +1.4786900e-06 1.04627000e+03 7.81860800e-03 8.64157500e-02
        2 -1    0    0  501    0 +0.0000000000e+00 +0.0000000000e+00 +1.8633870179e+03 1.8633870179e+03 0.0000000000e+00 0.0000e+00 1.0000e+00
       -2 -1    0    0    0  501 -0.0000000000e+00 -0.0000000000e+00 -1.4686710068e+02 1.4686710068e+02 0.0000000000e+00 0.0000e+00 -1.0000e+00
      -13  1    1    2    0    0 -2.1899143371e+02 +2.6349966533e+02 +9.8703325247e+01 3.5655528054e+02 0.0000000000e+00 0.0000e+00 -1.0000e+00
       13  1    1    2    0    0 +2.1899143371e+02 -2.6349966533e+02 +1.6178165920e+03 1.6536988380e+03 0.0000000000e+00 0.0000e+00 1.0000e+00
<mgrwt>
<rscale>  0 0.10462700E+04</rscale>
<asrwt>0</asrwt>
<pdfrwt beam="1">  1        2 0.28667491E+00 0.10462700E+04</pdfrwt>
<pdfrwt beam="2">  1       -2 0.22594940E-01 0.10462700E+04</pdfrwt>
<totfact> 0.16059653E+02</totfact>
</mgrwt>
<rwgt>
<wgt id='morphing_basis_vector_1'> +2.7582024e-04 </wgt>
<wgt id='morphing_basis_vector_2'> +1.7404414e-04 </wgt>
<wgt id='morphing_basis_vector_3'> +2.6838707e-04 </wgt>
<wgt id='morphing_basis_vector_4'> +1.6626555e-04 </wgt>
<wgt id='morphing_basis_vector_5'> +2.6386340e-04 </wgt>
</rwgt>
</event>
<event>
 4      1 +1.4786900e-06 9.65059900e+02 7.81860800e-03 8.71841800e-02
        2 -1    0    0  501    0 +0.0000000000e+00 +0.0000000000e+00 +5.9590507236e+02 5.9590507236e+02 0.0000000000e+00 0.0000e+00 -1.0000e+00
       -2 -1    0    0    0  501 -0.0000000000e+00 -0.0000000000e+00 -3.9072523845e+02 3.9072523845e+02 0.0000000000e+00 0.0000e+00 1.0000e+00
      -13  1    1    2    0    0 +4.6427251152e+02 -4.4779318336e+01 +2.2896925045e+02 5.1959702651e+02 0.0000000000e+00 0.0000e+00 1.0000e+00
       13  1    1    2    0    0 -4.6427251152e+02 +4.4779318336e+01 -2.3789416528e+01 4.6703328430e+02 0.0000000000e+00 0.0000e+00 -1.0000e+00
<mgrwt>
<rscale>  0 0.96505990E+03</rscale>
<asrwt>0</asrwt>
<pdfrwt beam="1">  1        2 0.91677704E-01 0.96505990E+03</pdfrwt>
<pdfrwt beam="2">  1       -2 0.60111575E-01 0.96505990E+03</pdfrwt>
<totfact> 0.15917827E+02</totfact>
</mgrwt>
<rwgt>
<wgt id='morphing_basis_vector_1'> +2.2205464e-04 </wgt>
<wgt id='morphing_basis_vector_2'> +1.8057123e-04 </wgt>
<wgt id='morphing_basis_vector_3'> +2.1041528e-04 </wgt>
<wgt id='morphing_basis_vector_4'> +9.1035176e-05 </wgt>
<wgt id='morphing_basis_vector_5'> +1.8430402e-04 </wgt>
</rwgt>
</event>
<event>
 4      1 +1.4786900e-06 9.53135800e+02 7.81860800e-03 8.73036300e-02
        2 -1    0    0  501    0 +0.0000000000e+00 +0.0000000000e+00 +2.3511005626e+03 2.3511005626e+03 0.0000000000e+00 0.0000e+00 -1.0000e+00
       -2 -1    0    0    0  501 -0.0000000000e+00 -0.0000000000e+00 -9.6600279933e+01 9.6600279933e+01 0.0000000000e+00 0.0000e+00 1.0000e+00
      -13  1    1    2    0    0 +4.7632813704e+02 +9.5113178529e+00 +1.0970809377e+03 1.1960625164e+03 0.0000000000e+00 0.0000e+00 1.0000e+00
       13  1    1    2    0    0 -4.7632813704e+02 -9.5113178529e+00 +1.1574193450e+03 1.2516383261e+03 0.0000000000e+00 0.0000e+00 -1.0000e+00
<mgrwt>
<rscale>  0 0.95313582E+03</rscale>
<asrwt>0</asrwt>
<pdfrwt beam="1">  1        2 0.36170773E+00 0.95313582E+03</pdfrwt>
<pdfrwt beam="2">  1       -2 0.14861583E-01 0.95313582E+03</pdfrwt>
<totfact> 0.17225938E+02</totfact>
</mgrwt>
<rwgt>
<wgt id='morphing_basis_vector_1'> +2.0167775e-04 </wgt>
<wgt id='morphing_basis_vector_2'> +1.4053388e-04 </wgt>
<wgt id='morphing_basis_vector_3'> +1.9103767e-04 </wgt>
<wgt id='morphing_basis_vector_4'> +1.0188822e-04 </wgt>
<wgt id='morphing_basis_vector_5'> +1.7545033e-04 </wgt>
</rwgt>
</event>
<event>
 4      1 +1.4786900e-06 9.47744100e+02 7.81860800e-03 8.73582400e-02
        2 -1    0    0  501    0 +0.0000000000e+00 +0.0000000000e+00 +2.0120836561e+03 2.0120836561e+03 0.0000000000e+00 0.0000e+00 1.0000e+00
       -2 -1    0    0    0  501 -0.0000000000e+00 -0.0000000000e+00 -1.1160306276e+02 1.1160306276e+02 0.0000000000e+00 0.0000e+00 -1.0000e+00
      -13  1    1    2    0    0 +3.3612286050e+02 -6.1007960892e+01 +1.6861386179e+03 1.7203964622e+03 0.0000000000e+00 0.0000e+00 1.0000e+00
       13  1    1    2    0    0 -3.3612286050e+02 +6.1007960892e+01 +2.1434197550e+02 4.0329025664e+02 0.0000000000e+00 0.0000e+00 -1.0000e+00
<mgrwt>
<rscale>  0 0.94774406E+03</rscale>
<asrwt>0</asrwt>
<pdfrwt beam="1">  1        2 0.30955130E+00 0.94774406E+03</pdfrwt>
<pdfrwt beam="2">  1       -2 0.17169703E-01 0.94774406E+03</pdfrwt>
<totfact> 0.21165912E+02</totfact>
</mgrwt>
<rwgt>
<wgt id='morphing_basis_vector_1'> +2.4498168e-04 </wgt>
<wgt id='morphing_basis_vector_2'> +2.8160772e-04 </wgt>
<wgt id='morphing_basis_vector_3'> +2.2751346e-04 </wgt>
<wgt id='morphing_basis_vector_4'> +2.8960361e-05 </wgt>
<wgt id='morphing_basis_vector_5'> +1.6717395e-04 </wgt>
</rwgt>
</event>
<event>
 4      1 +1.4786900e-06 9.59706700e+02 7.81860800e-03 8.72375800e-02
        2 -1    0    0  501    0 +0.0000000000e+00 +0.0000000000e+00 +3.1030158970e+02 3.1030158970e+02 0.0000000000e+00 0.0000e+00 -1.0000e+00
       -2 -1    0    0    0  501 -0.0000000000e+00 -0.0000000000e+00 -7.4204977736e+02 7.4204977736e+02 0.0000000000e+00 0.0000e+00 1.0000e+00
      -13  1    1    2    0    0 +3.0464357363e+02 -2.8967216636e+02 -4.6960171206e+02 6.3027251160e+02 0.0000000000e+00 0.0000e+00 1.0000e+00
       13  1    1    2    0    0 -3.0464357363e+02 +2.8967216636e+02 +3.7853524398e+01 4.2207885545e+02 0.0000000000e+00 0.0000e+00 -1.0000e+00
<mgrwt>
<rscale>  0 0.95970668E+03</rscale>
<asrwt>0</asrwt>
<pdfrwt beam="1">  1        2 0.47738706E-01 0.95970668E+03</pdfrwt>
<pdfrwt beam="2">  1       -2 0.11416150E+00 0.95970668E+03</pdfrwt>
<totfact> 0.77624554E+01</totfact>
</mgrwt>
<rwgt>
<wgt id='morphing_basis_vector_1'> +2.0124999e-04 </wgt>
<wgt id='morphing_basis_vector_2'> +1.2732939e-04 </wgt>
<wgt id='morphing_basis_vector_3'> +1.9145455e-04 </wgt>
<wgt id='morphing_basis_vector_4'> +1.1333020e-04 </wgt>
<wgt id='morphing_basis_vector_5'> +1.8128158e-04 </wgt>
</rwgt>
</event>
<event>
 4      1 +1.4786900e-06 9.09186900e+02 7.81860800e-03 8.77601600e-02
        2 -1    0    0  501    0 +0.0000000000e+00 +0.0000000000e+00 +1.8210501848e+02 1.8210501848e+02 0.0000000000e+00 0.0000e+00 -1.0000e+00
       -2 -1    0    0    0  501 -0.0000000000e+00 -0.0000000000e+00 -1.1348132190e+03 1.1348132190e+03 0.0000000000e+00 0.0000e+00 1.0000e+00
      -13  1    1    2    0    0 +2.0815777725e+02 -1.1455581648e+02 -1.0377176734e+03 1.0645706482e+03 0.0000000000e+00 0.0000e+00 1.0000e+00
       13  1    1    2    0    0 -2.0815777725e+02 +1.1455581648e+02 +8.5009472906e+01 2.5234758926e+02 0.0000000000e+00 0.0000e+00 -1.0000e+00
<mgrwt>
<rscale>  0 0.90918685E+03</rscale>
<asrwt>0</asrwt>
<pdfrwt beam="1">  1        2 0.28016157E-01 0.90918685E+03</pdfrwt>
<pdfrwt beam="2">  1       -2 0.17458664E+00 0.90918685E+03</pdfrwt>
<totfact> 0.43785474E+01</totfact>
</mgrwt>
<rwgt>
<wgt id='morphing_basis_vector_1'> +1.6442203e-04 </wgt>
<wgt id='morphing_basis_vector_2'> +1.0136862e-04 </wgt>
<wgt id='morphing_basis_vector_3'> +1.5406043e-04 </wgt>
<wgt id='morphing_basis_vector_4'> +9.0571911e-05 </wgt>
<wgt id='morphing_basis_vector_5'> +1.4296536e-04 </wgt>
</rwgt>
</event>
<event>
 4      1 +1.4786900e-06 9.22232500e+02 7.81860800e-03 8.76218800e-02
        2 -1    0    0  501    0 +0.0000000000e+00 +0.0000000000e+00 +6.6209397456e+02 6.6209397456e+02 0.0000000000e+00 0.0000e+00 -1.0000e+00
       -2 -1    0    0    0  501 -0.0000000000e+00 -0.0000000000e+00 -3.2114500826e+02 3.2114500826e+02 0.0000000000e+00 0.0000e+00 1.0000e+00
      -13  1    1    2    0    0 -2.9717639372e+02 +1.9382168343e+02 -1.4353822453e+02 3.8273212022e+02 0.0000000000e+00 0.0000e+00 1.0000e+00
       13  1    1    2    0    0 +2.9717639372e+02 -1.9382168343e+02 +4.8448719083e+02 6.0050686260e+02 0.0000000000e+00 0.0000e+00 -1.0000e+00
<mgrwt>
<rscale>  0 0.92223245E+03</rscale>
<asrwt>0</asrwt>
<pdfrwt beam="1">  1        2 0.10186061E+00 0.92223245E+03</pdfrwt>
<pdfrwt beam="2">  1       -2 0.49406925E-01 0.92223245E+03</pdfrwt>
<totfact> 0.20841750E+02</totfact>
</mgrwt>
<rwgt>
<wgt id='morphing_basis_vector_1'> +1.7346420e-04 </wgt>
<wgt id='morphing_basis_vector_2'> +1.0788720e-04 </wgt>
<wgt id='morphing_basis_vector_3'> +1.6318643e-04 </wgt>
<wgt id='morphing_basis_vector_4'> +9.5987107e-05 </wgt>
<wgt id='morphing_basis_vector_5'> +1.5222710e-04 </wgt>
</rwgt>
</event>
<event>
 4      1 +1.4786900e-06 9.02321200e+02 7.81860800e-03 8.78339200e-02
        2 -1    0    0  501    0 +0.0000000000e+00 +0.0000000000e+00 +2.0138282081e+03 2.0138282081e+03 0.0000000000e+00 0.0000e+00 1.0000e+00
       -2 -1    0    0    0  501 -0.0000000000e+00 -0.0000000000e+00 -1.0107410789e+02 1.0107410789e+02 0.0000000000e+00 0.0000e+00 -1.0000e+00
      -13  1    1    2    0    0 -4.2503366660e+02 -1.3713641340e+02 +8.0655637900e+02 9.2195076123e+02 0.0000000000e+00 0.0000e+00 -1.0000e+00
       13  1    1    2    0    0 +4.2503366660e+02 +1.3713641340e+02 +1.1061977212e+03 1.1929515548e+03 0.0000000000e+00 0.0000e+00 1.0000e+00
<mgrwt>
<rscale>  0 0.90232121E+03</rscale>
<asrwt>0</asrwt>
<pdfrwt beam="1">  1        2 0.30981969E+00 0.90232121E+03</pdfrwt>
<pdfrwt beam="2">  1       -2 0.15549864E-01 0.90232121E+03</pdfrwt>
<totfact> 0.24922275E+02</totfact>
</mgrwt>
<rwgt>
<wgt id='morphing_basis_vector_1'> +1.6326604e-04 </wgt>
<wgt id='morphing_basis_vector_2'> +1.0856955e-04 </wgt>
<wgt id='morphing_basis_vector_3'> +1.5214396e-04 </wgt>
<wgt id='morphing_basis_vector_4'> +8.2888286e-05 </wgt>
<wgt id='morphing_basis_vector_5'> +1.3799762e-04 </wgt>
</rwgt>
</event>
<event>
 4      1 +1.4786900e-06 9.07138800e+02 7.81860800e-03 8.77820900e-02
        2 -1    0    0  501    0 +0.0000000000e+00 +0.0000000000e+00 +1.6640660226e+03 1.6640660226e+03 0.0000000000e+00 0.0000e+00 1.0000e+00
       -2 -1    0    0    0  501 -0.0000000000e+00 -0.0000000000e+00 -1.2362803708e+02 1.2362803708e+02 0.0000000000e+00 0.0000e+00 -1.0000e+00
      -13  1    1    2    0    0 -1.4224778926e+02 +3.9639154356e+02 +4.3831902697e+02 6.0785216851e+02 0.0000000000e+00 0.0000e+00 -1.0000e+00
       13  1    1    2    0    0 +1.4224778926e+02 -3.9639154356e+02 +1.1021189586e+03 1.1798418912e+03 0.0000000000e+00 0.0000e+00 1.0000e+00
<mgrwt>
<rscale>  0 0.90713883E+03</rscale>
<asrwt>0</asrwt>
<pdfrwt beam="1">  1        2 0.25601014E+00 0.90713883E+03</pdfrwt>
<pdfrwt beam="2">  1       -2 0.19019699E-01 0.90713883E+03</pdfrwt>
<totfact> 0.27908108E+02</totfact>
</mgrwt>
<rwgt>
<wgt id='morphing_basis_vector_1'> +1.6435733e-04 </wgt>
<wgt id='morphing_basis_vector_2'> +1.0439188e-04 </wgt>
<wgt id='morphing_basis_vector_3'> +1.5371681e-04 </wgt>
<wgt id='morphing_basis_vector_4'> +8.7850359e-05 </wgt>
<wgt id='morphing_basis_vector_5'> +1.4144838e-04 </wgt>
</rwgt>
</event>
<event>
 4      1 +1.4786900e-06 1.06950100e+03 7.81860800e-03 8.62091600e-02
        2 -1    0    0  501    0 +0.0000000000e+00 +0.0000000000e+00 +4.8814040106e+02 4.8814040106e+02 0.0000000000e+00 0.0000e+00 -1.0000e+00
       -2 -1    0    0    0  501 -0.0000000000e+00 -0.0000000000e+00 -5.8581077291e+02 5.8581077291e+02 0.0000000000e+00 0.0000e+00 1.0000e+00
      -13  1    1    2    0    0 +2.4007735649e+02 -3.0137156489e+02 -4.2118268236e+02 5.7083868925e+02 0.0000000000e+00 0.0000e+00 1.0000e+00
       13  1    1    2    0    0 -2.4007735649e+02 +3.0137156489e+02 +3.2351231052e+02 5.0311248472e+02 0.0000000000e+00 0.0000e+00 -1.0000e+00
<mgrwt>
<rscale>  0 0.10695006E+04</rscale>
<asrwt>0</asrwt>
<pdfrwt beam="1">  1        2 0.75098523E-01 0.10695006E+04</pdfrwt>
<pdfrwt beam="2">  1       -2 0.90124735E-01 0.10695006E+04</pdfrwt>
<totfact> 0.82032722E+01</totfact>
</mgrwt>
<rwgt>
<wgt id='morphing_basis_vector_1'> +2.9949255e-04 </wgt>
<wgt id='morphing_basis_vector_2'> +1.8992306e-04 </wgt>
<wgt id='morphing_basis_vector_3'> +2.9293859e-04 </wgt>
<wgt id='morphing_basis_vector_4'> +1.8240671e-04 </wgt>
<wgt id='morphing_basis_vector_5'> +2.9000405e-04 </wgt>
</rwgt>
</event>
<event>
 4      1 +1.4786900e-06 9.26811200e+02 7.81860800e-03 8.75739100e-02
        2 -1    0    0  501    0 +0.0000000000e+00 +0.0000000000e+00 +2.6587805333e+02 2.6587805333e+02 0.0000000000e+00 0.0000e+00 1.0000e+00
       -2 -1    0    0    0  501 -0.0000000000e+00 -0.0000000000e+00 -8.0768141539e+02 8.0768141539e+02 0.0000000000e+00 0.0000e+00 -1.0000e+00
      -13  1    1    2    0    0 -2.4206053711e+02 -1.2881373060e+02 +1.6182426770e+02 3.1839185674e+02 0.0000000000e+00 0.0000e+00 1.0000e+00
       13  1    1    2    0    0 +2.4206053711e+02 +1.2881373060e+02 -7.0362762976e+02 7.5516761198e+02 0.0000000000e+00 0.0000e+00 -1.0000e+00
<mgrwt>
<rscale>  0 0.92681123E+03</rscale>
<asrwt>0</asrwt>
<pdfrwt beam="1">  1        2 0.40904316E-01 0.92681123E+03</pdfrwt>
<pdfrwt beam="2">  1       -2 0.12425868E+00 0.92681123E+03</pdfrwt>
<totfact> 0.74357233E+01</totfact>
</mgrwt>
<rwgt>
<wgt id='morphing_basis_vector_1'> +2.3458981e-04 </wgt>
<wgt id='morphing_basis_vector_2'> +2.8610771e-04 </wgt>
<wgt id='morphing_basis_vector_3'> +2.1436284e-04 </wgt>
<wgt id='morphing_basis_vector_4'> +1.3570532e-05 </wgt>
<wgt id='morphing_basis_vector_5'> +1.5094737e-04 </wgt>
</rwgt>
</event>
<event>
 4      1 +1.4786900e-06 9.15053400e+02 7.81860800e-03 8.76976800e-02
        2 -1    0    0  501    0 +0.0000000000e+00 +0.0000000000e+00 +5.5644871730e+02 5.5644871730e+02 0.0000000000e+00 0.0000e+00 -1.0000e+00
       -2 -1    0    0    0  501 -0.0000000000e+00 -0.0000000000e+00 -3.7619042406e+02 3.7619042406e+02 0.0000000000e+00 0.0000e+00 1.0000e+00
      -13  1    1    2    0    0 +1.4874520493e+02 +3.3589379136e+02 -1.8784085349e+02 4.1259418476e+02 0.0000000000e+00 0.0000e+00 1.0000e+00
       13  1    1    2    0    0 -1.4874520493e+02 -3.3589379136e+02 +3.6809914672e+02 5.2004495660e+02 0.0000000000e+00 0.0000e+00 -1.0000e+00
<mgrwt>
<rscale>  0 0.91505340E+03</rscale>
<asrwt>0</asrwt>
<pdfrwt beam="1">  1        2 0.85607495E-01 0.91505340E+03</pdfrwt>
<pdfrwt beam="2">  1       -2 0.57875450E-01 0.91505340E+03</pdfrwt>
<totfact> 0.18688468E+02</totfact>
</mgrwt>
<rwgt>
<wgt id='morphing_basis_vector_1'> +1.6869532e-04 </wgt>
<wgt id='morphing_basis_vector_2'> +1.0503313e-04 </wgt>
<wgt id='morphing_basis_vector_3'> +1.5831886e-04 </wgt>
<wgt id='morphing_basis_vector_4'> +9.2613906e-05 </wgt>
<wgt id='morphing_basis_vector_5'> +1.4705848e-04 </wgt>
</rwgt>
</event>
<event>
 4      1 +1.4786900e-06 9.88072800e+02 7.81860800e-03 8.69586700e-02
        2 -1    0    0  501    0 +0.0000000000e+00 +0.0000000000e+00 +9.8948671051e+02 9.8948671051e+02 0.0000000000e+00 0.0000e+00 1.0000e+00
       -2 -1    0    0    0  501 -0.0000000000e+00 -0.0000000000e+00 -2.4666521562e+02 2.4666521562e+02 0.0000000000e+00 0.0000e+00 -1.0000e+00
      -13  1    1    2    0    0 +2.8058557504e+02 -2.3159046154e+02 -4.6735361370e+01 3.6680594434e+02 0.0000000000e+00 0.0000e+00 -1.0000e+00
       13  1    1    2    0    0 -2.8058557504e+02 +2.3159046154e+02 +7.8955685626e+02 8.6934598179e+02 0.0000000000e+00 0.0000e+00 1.0000e+00
<mgrwt>
<rscale>  0 0.98807278E+03</rscale>
<asrwt>0</asrwt>
<pdfrwt beam="1">  1        2 0.15222872E+00 0.98807278E+03</pdfrwt>
<pdfrwt beam="2">  1       -2 0.37948495E-01 0.98807278E+03</pdfrwt>
<totfact> 0.20322048E+02</totfact>
</mgrwt>
<rwgt>
<wgt id='morphing_basis_vector_1'> +2.2328607e-04 </wgt>
<wgt id='morphing_basis_vector_2'> +1.4012250e-04 </wgt>
<wgt id='morphing_basis_vector_3'> +2.1415507e-04 </wgt>
<wgt id='morphing_basis_vector_4'> +1.2970412e-04 </wgt>
<wgt id='morphing_basis_vector_5'> +2.0591723e-04 </wgt>
</rwgt>
</event>
<event>
 4      1 +1.4786900e-06 9.90001700e+02 7.81860800e-03 8.69400600e-02
        2 -1    0    0  501    0 +0.0000000000e+00 +0.0000000000e+00 +6.9362773948e+02 6.9362773948e+02 0.0000000000e+00 0.0000e+00 1.0000e+00
       -2 -1    0    0    0  501 -0.0000000000e+00 -0.0000000000e+00 -3.5325263270e+02 3.5325263270e+02 0.0000000000e+00 0.0000e+00 -1.0000e+00
      -13  1    1    2    0    0 -4.6947262694e+02 -1.3124786568e+02 +7.9251038227e+01 4.9387374576e+02 0.0000000000e+00 0.0000e+00 -1.0000e+00
       13  1    1    2    0    0 +4.6947262694e+02 +1.3124786568e+02 +2.6112406856e+02 5.5300662642e+02 0.0000000000e+00 0.0000e+00 1.0000e+00
<mgrwt>
<rscale>  0 0.99000167E+03</rscale>
<asrwt>0</asrwt>
<pdfrwt beam="1">  1        2 0.10671196E+00 0.99000167E+03</pdfrwt>
<pdfrwt beam="2">  1       -2 0.54346559E-01 0.99000167E+03</pdfrwt>
<totfact> 0.16249354E+02</totfact>
</mgrwt>
<rwgt>
<wgt id='morphing_basis_vector_1'> +2.2875087e-04 </wgt>
<wgt id='morphing_basis_vector_2'> +1.5284622e-04 </wgt>
<wgt id='morphing_basis_vector_3'> +2.1934396e-04 </wgt>
<wgt id='morphing_basis_vector_4'> +1.2489357e-04 </wgt>
<wgt id='morphing_basis_vector_5'> +2.0732359e-04 </wgt>
</rwgt>
</event>
<event>
 4      1 +1.4786900e-06 1.06165500e+03 7.81860800e-03 8.62783200e-02
        2 -1    0    0  501    0 +0.0000000000e+00 +0.0000000000e+00 +7.7962750776e+02 7.7962750776e+02 0.0000000000e+00 0.0000e+00 -1.0000e+00
       -2 -1    0    0    0  501 -0.0000000000e+00 -0.0000000000e+00 -3.6142596781e+02 3.6142596781e+02 0.0000000000e+00 0.0000e+00 1.0000e+00
      -13  1    1    2    0    0 +3.2423797623e+02 -1.4306519498e+02 -2.1565086276e+02 4.1485323894e+02 0.0000000000e+00 0.0000e+00 1.0000e+00
       13  1    1    2    0    0 -3.2423797623e+02 +1.4306519498e+02 +6.3385240272e+02 7.2620023663e+02 0.0000000000e+00 0.0000e+00 -1.0000e+00
<mgrwt>
<rscale>  0 0.10616546E+04</rscale>
<asrwt>0</asrwt>
<pdfrwt beam="1">  1        2 0.11994269E+00 0.10616546E+04</pdfrwt>
<pdfrwt beam="2">  1       -2 0.55603995E-01 0.10616546E+04</pdfrwt>
<totfact> 0.13352859E+02</totfact>
</mgrwt>
<rwgt>
<wgt id='morphing_basis_vector_1'> +2.9125062e-04 </wgt>
<wgt id='morphing_basis_vector_2'> +1.8420387e-04 </wgt>
<wgt id='morphing_basis_vector_3'> +2.8438475e-04 </wgt>
<wgt id='morphing_basis_vector_4'> +1.7695892e-04 </wgt>
<wgt id='morphing_basis_vector_5'> +2.8098048e-04 </wgt>
</rwgt>
</event>
<event>
 4      1 +1.4786900e-06 9.07919900e+02 7.81860800e-03 8.77737200e-02
        2 -1    0    0  501    0 +0.0000000000e+00 +0.0000000000e+00 +1.4726890602e+03 1.4726890602e+03 0.0000000000e+00 0.0000e+00 -1.0000e+00
       -2 -1    0    0    0  501 -0.0000000000e+00 -0.0000000000e+00 -1.3993426072e+02 1.3993426072e+02 0.0000000000e+00 0.0000e+00 1.0000e+00
      -13  1    1    2    0    0 +2.0790931943e+02 -2.6701349422e+02 +1.2893546935e+02 3.6214202526e+02 0.0000000000e+00 0.0000e+00 1.0000e+00
       13  1    1    2    0    0 -2.0790931943e+02 +2.6701349422e+02 +1.2038193301e+03 1.2504812957e+03 0.0000000000e+00 0.0000e+00 -1.0000e+00
<mgrwt>
<rscale>  0 0.90791994E+03</rscale>
<asrwt>0</asrwt>
<pdfrwt beam="1">  1        2 0.22656754E+00 0.90791994E+03</pdfrwt>
<pdfrwt beam="2">  1       -2 0.21528349E-01 0.90791994E+03</pdfrwt>
<totfact> 0.28941034E+02</totfact>
</mgrwt>
<rwgt>
<wgt id='morphing_basis_vector_1'> +1.6380622e-04 </wgt>
<wgt id='morphing_basis_vector_2'> +1.0148931e-04 </wgt>
<wgt id='morphing_basis_vector_3'> +1.5338923e-04 </wgt>
<wgt id='morphing_basis_vector_4'> +8.9710412e-05 </wgt>
<wgt id='morphing_basis_vector_5'> +1.4206965e-04 </wgt>
</rwgt>
</event>
<event>
 4      1 +1.4786900e-06 9.00115700e+02 7.81860800e-03 8.78577600e-02
        2 -1    0    0  501    0 +0.0000000000e+00 +0.0000000000e+00 +4.1400958674e+02 4.1400958674e+02 0.0000000000e+00 0.0000e+00 -1.0000e+00
       -2 -1    0    0    0  501 -0.0000000000e+00 -0.0000000000e+00 -4.8924488912e+02 4.8924488912e+02 0.0000000000e+00 0.0000e+00 1.0000e+00
      -13  1    1    2    0    0 +3.9551818599e+02 +1.3893031307e+02 -2.0194400344e+02 4.6531456872e+02 0.0000000000e+00 0.0000e+00 1.0000e+00
       13  1    1    2    0    0 -3.9551818599e+02 -1.3893031307e+02 +1.2670870105e+02 4.3793990714e+02 0.0000000000e+00 0.0000e+00 -1.0000e+00
<mgrwt>
<rscale>  0 0.90011571E+03</rscale>
<asrwt>0</asrwt>
<pdfrwt beam="1">  1        2 0.63693783E-01 0.90011571E+03</pdfrwt>
<pdfrwt beam="2">  1       -2 0.75268444E-01 0.90011571E+03</pdfrwt>
<totfact> 0.15071334E+02</totfact>
</mgrwt>
<rwgt>
<wgt id='morphing_basis_vector_1'> +1.5982479e-04 </wgt>
<wgt id='morphing_basis_vector_2'> +1.0149250e-04 </wgt>
<wgt id='morphing_basis_vector_3'> +1.4910820e-04 </wgt>
<wgt id='morphing_basis_vector_4'> +8.4843495e-05 </wgt>
<wgt id='morphing_basis_vector_5'> +1.3666009e-04 </wgt>
</rwgt>
</event>
<event>
 4      1 +1.4786900e-06 9.24367800e+02 7.81860800e-03 8.75994700e-02
        2 -1    0    0  501    0 +0.0000000000e+00 +0.0000000000e+00 +7.9787425804e+02 7.9787425804e+02 0.0000000000e+00 0.0000e+00 -1.0000e+00
       -2 -1    0    0    0  501 -0.0000000000e+00 -0.0000000000e+00 -2.6772886131e+02 2.6772886131e+02 0.0000000000e+00 0.0000e+00 1.0000e+00
      -13  1    1    2    0    0 +4.1407111450e+02 -2.0492036206e+02 +2.5018767153e+02 5.2539614924e+02 0.0000000000e+00 0.0000e+00 1.0000e+00
       13  1    1    2    0    0 -4.1407111450e+02 +2.0492036206e+02 +2.7995772519e+02 5.4020697010e+02 0.0000000000e+00 0.0000e+00 -1.0000e+00
<mgrwt>
<rscale>  0 0.92436782E+03</rscale>
<asrwt>0</asrwt>
<pdfrwt beam="1">  1        2 0.12274988E+00 0.92436782E+03</pdfrwt>
<pdfrwt beam="2">  1       -2 0.41189056E-01 0.92436782E+03</pdfrwt>
<totfact> 0.23412037E+02</totfact>
</mgrwt>
<rwgt>
<wgt id='morphing_basis_vector_1'> +1.8021335e-04 </wgt>
<wgt id='morphing_basis_vector_2'> +1.2489050e-04 </wgt>
<wgt id='morphing_basis_vector_3'> +1.6902972e-04 </wgt>
<wgt id='morphing_basis_vector_4'> +8.9280893e-05 </wgt>
<wgt id='morphing_basis_vector_5'> +1.5336691e-04 </wgt>
</rwgt>
</event>
<event>
 4      1 +1.4786900e-06 1.01648700e+03 7.81860800e-03 8.66888800e-02
        2 -1    0    0  501    0 +0.0000000000e+00 +0.0000000000e+00 +4.3253801607e+02 4.3253801607e+02 0.0000000000e+00 0.0000e+00 -1.0000e+00
       -2 -1    0    0    0  501 -0.0000000000e+00 -0.0000000000e+00 -5.9719922991e+02 5.9719922991e+02 0.0000000000e+00 0.0000e+00 1.0000e+00
      -13  1    1    2    0    0 -5.9211379993e+01 +2.8085232520e+02 -5.0723512585e+02 5.8281342554e+02 0.0000000000e+00 0.0000e+00 1.0000e+00
       13  1    1    2    0    0 +5.9211379993e+01 -2.8085232520e+02 +3.4257391201e+02 4.4692382045e+02 0.0000000000e+00 0.0000e+00 -1.0000e+00
<mgrwt>
<rscale>  0 0.10164868E+04</rscale>
<asrwt>0</asrwt>
<pdfrwt beam="1">  1        2 0.66544310E-01 0.10164868E+04</pdfrwt>
<pdfrwt beam="2">  1       -2 0.91876804E-01 0.10164868E+04</pdfrwt>
<totfact> 0.90287535E+01</totfact>
</mgrwt>
<rwgt>
<wgt id='morphing_basis_vector_1'> +2.4768200e-04 </wgt>
<wgt id='morphing_basis_vector_2'> +1.5541728e-04 </wgt>
<wgt id='morphing_basis_vector_3'> +2.3930403e-04 </wgt>
<wgt id='morphing_basis_vector_4'> +1.4701371e-04 </wgt>
<wgt id='morphing_basis_vector_5'> +2.3291617e-04 </wgt>
</rwgt>
</event>
<event>
 4      1 +1.4786900e-06 9.29798200e+02 7.81860800e-03 8.75427700e-02
        2 -1    0    0  501    0 +0.0000000000e+00 +0.0000000000e+00 +2.5107196183e+03 2.5107196183e+03 0.0000000000e+00 0.0000e+00 -1.0000e+00
       -2 -1    0    0    0  501 -0.0000000000e+00 -0.0000000000e+00 -8.6083350429e+01 8.6083350429e+01 0.0000000000e+00 0.0000e+00 1.0000e+00
      -13  1    1    2    0    0 -3.5400201903e+02 -1.5267734952e+02 +4.8669187428e+02 6.2088387241e+02 0.0000000000e+00 0.0000e+00 1.0000e+00
       13  1    1    2    0    0 +3.5400201903e+02 +1.5267734952e+02 +1.9379443936e+03 1.9759190963e+03 0.0000000000e+00 0.0000e+00 -1.0000e+00
<mgrwt>
<rscale>  0 0.92979816E+03</rscale>
<asrwt>0</asrwt>
<pdfrwt beam="1">  1        2 0.38626450E+00 0.92979816E+03</pdfrwt>
<pdfrwt beam="2">  1       -2 0.13243594E-01 0.92979816E+03</pdfrwt>
<totfact> 0.16788556E+02</totfact>
</mgrwt>
<rwgt>
<wgt id='morphing_basis_vector_1'> +1.7893192e-04 </wgt>
<wgt id='morphing_basis_vector_2'> +1.1196127e-04 </wgt>
<wgt id='morphing_basis_vector_3'> +1.6871012e-04 </wgt>
<wgt id='morphing_basis_vector_4'> +9.9157238e-05 </wgt>
<wgt id='morphing_basis_vector_5'> +1.5778932e-04 </wgt>
</rwgt>
</event>
<event>
 4      1 +1.4786900e-06 9.19113400e+02 7.81860800e-03 8.76547200e-02
        2 -1    0    0  501    0 +0.0000000000e+00 +0.0000000000e+00 +2.7514327792e+02 2.7514327792e+02 0.0000000000e+00 0.0000e+00 -1.0000e+00
       -2 -1    0    0    0  501 -0.0000000000e+00 -0.0000000000e+00 -7.6757235297e+02 7.6757235297e+02 0.0000000000e+00 0.0000e+00 1.0000e+00
      -13  1    1    2    0    0 -4.5289475728e+02 +5.0839019656e+01 -3.1327473375e+02 5.5302741876e+02 0.0000000000e+00 0.0000e+00 1.0000e+00
       13  1    1    2    0    0 +4.5289475728e+02 -5.0839019656e+01 -1.7915434130e+02 4.8968821213e+02 0.0000000000e+00 0.0000e+00 -1.0000e+00
<mgrwt>
<rscale>  0 0.91911343E+03</rscale>
<asrwt>0</asrwt>
<pdfrwt beam="1">  1        2 0.42329736E-01 0.91911343E+03</pdfrwt>
<pdfrwt beam="2">  1       -2 0.11808805E+00 0.91911343E+03</pdfrwt>
<totfact> 0.81727791E+01</totfact>
</mgrwt>
<rwgt>
<wgt id='morphing_basis_vector_1'> +1.7478276e-04 </wgt>
<wgt id='morphing_basis_vector_2'> +1.1698727e-04 </wgt>
<wgt id='morphing_basis_vector_3'> +1.6383343e-04 </wgt>
<wgt id='morphing_basis_vector_4'> +8.9582808e-05 </wgt>
<wgt id='morphing_basis_vector_5'> +1.4969789e-04 </wgt>
</rwgt>
</event>
<event>
 4      1 +1.4786900e-06 9.56503400e+02 7.81860800e-03 8.72697100e-02
        2 -1    0    0  501    0 +0.0000000000e+00 +0.0000000000e+00 +1.6320421192e+03 1.6320421192e+03 0.0000000000e+00 0.0000e+00 1.0000e+00
       -2 -1    0    0    0  501 -0.0000000000e+00 -0.0000000000e+00 -1.4014631709e+02 1.4014631709e+02 0.0000000000e+00 0.0000e+00 -1.0000e+00
      -13  1    1    2    0    0 -1.1513250371e+02 -4.6413854566e+02 +7.3357315252e+02 8.7567668296e+02 0.0000000000e+00 0.0000e+00 1.0000e+00
       13  1    1    2    0    0 +1.1513250371e+02 +4.6413854566e+02 +7.5832264957e+02 8.9651175331e+02 0.0000000000e+00 0.0000e+00 -1.0000e+00
<mgrwt>
<rscale>  0 0.95650341E+03</rscale>
<asrwt>0</asrwt>
<pdfrwt beam="1">  1        2 0.25108339E+00 0.95650341E+03</pdfrwt>
<pdfrwt beam="2">  1       -2 0.21560973E-01 0.95650341E+03</pdfrwt>
<totfact> 0.23481682E+02</totfact>
</mgrwt>
<rwgt>
<wgt id='morphing_basis_vector_1'> +2.0456099e-04 </wgt>
<wgt id='morphing_basis_vector_2'> +1.4320836e-04 </wgt>
<wgt id='morphing_basis_vector_3'> +1.9396417e-04 </wgt>
<wgt id='morphing_basis_vector_4'> +1.0307537e-04 </wgt>
<wgt id='morphing_basis_vector_5'> +1.7815750e-04 </wgt>
</rwgt>
</event>
<event>
 4      1 +1.4786900e-06 9.16970400e+02 7.81860800e-03 8.76773600e-02
        2 -1    0    0  501    0 +0.0000000000e+00 +0.0000000000e+00 +1.4920575094e+03 1.4920575094e+03 0.0000000000e+00 0.0000e+00 -1.0000e+00
       -2 -1    0    0    0  501 -0.0000000000e+00 -0.0000000000e+00 -1.4088510324e+02 1.4088510324e+02 0.0000000000e+00 0.0000e+00 1.0000e+00
      -13  1    1    2    0    0 +1.3527779441e+02 +1.9378890593e+02 -2.4054700029e+01 2.3755599406e+02 0.0000000000e+00 0.0000e+00 1.0000e+00
       13  1    1    2    0    0 -1.3527779441e+02 -1.9378890593e+02 +1.3752271062e+03 1.3953866186e+03 0.0000000000e+00 0.0000e+00 -1.0000e+00
<mgrwt>
<rscale>  0 0.91697039E+03</rscale>
<asrwt>0</asrwt>
<pdfrwt beam="1">  1        2 0.22954730E+00 0.91697039E+03</pdfrwt>
<pdfrwt beam="2">  1       -2 0.21674632E-01 0.91697039E+03</pdfrwt>
<totfact> 0.27896108E+02</totfact>
</mgrwt>
<rwgt>
<wgt id='morphing_basis_vector_1'> +1.6960093e-04 </wgt>
<wgt id='morphing_basis_vector_2'> +1.0470159e-04 </wgt>
<wgt id='morphing_basis_vector_3'> +1.5931736e-04 </wgt>
<wgt id='morphing_basis_vector_4'> +9.4022949e-05 </wgt>
<wgt id='morphing_basis_vector_5'> +1.4845394e-04 </wgt>
</rwgt>
</event>
<event>
 4      1 +1.4786900e-06 9.72686800e+02 7.81860800e-03 8.71087200e-02
        2 -1    0    0  501    0 +0.0000000000e+00 +0.0000000000e+00 +4.7703469945e+02 4.7703469945e+02 0.0000000000e+00 0.0000e+00 -1.0000e+00
       -2 -1    0    0    0  501 -0.0000000000e+00 -0.0000000000e+00 -4.9583377443e+02 4.9583377443e+02 0.0000000000e+00 0.0000e+00 1.0000e+00
      -13  1    1    2    0    0 +4.4866324941e+02 -4.6127900704e+01 -1.9137697050e+02 4.8995065000e+02 0.0000000000e+00 0.0000e+00 1.0000e+00
       13  1    1    2    0    0 -4.4866324941e+02 +4.6127900704e+01 +1.7257789553e+02 4.8291782388e+02 0.0000000000e+00 0.0000e+00 -1.0000e+00
<mgrwt>
<rscale>  0 0.97268683E+03</rscale>
<asrwt>0</asrwt>
<pdfrwt beam="1">  1        2 0.73389954E-01 0.97268683E+03</pdfrwt>
<pdfrwt beam="2">  1       -2 0.76282119E-01 0.97268683E+03</pdfrwt>
<totfact> 0.12406762E+02</totfact>
</mgrwt>
<rwgt>
<wgt id='morphing_basis_vector_1'> +2.1212310e-04 </wgt>
<wgt id='morphing_basis_vector_2'> +1.3612564e-04 </wgt>
<wgt id='morphing_basis_vector_3'> +2.0251082e-04 </wgt>
<wgt id='morphing_basis_vector_4'> +1.1909282e-04 </wgt>
<wgt id='morphing_basis_vector_5'> +1.9218182e-04 </wgt>
</rwgt>
</event>
<event>
 4      1 +1.4786900e-06 9.31658500e+02 7.81860800e-03 8.75234400e-02
        2 -1    0    0  501    0 +0.0000000000e+00 +0.0000000000e+00 +1.1083286493e+03 1.1083286493e+03 0.0000000000e+00 0.0000e+00 -1.0000e+00
       -2 -1    0    0    0  501 -0.0000000000e+00 -0.0000000000e+00 -1.9578749907e+02 1.9578749907e+02 0.0000000000e+00 0.0000e+00 1.0000e+00
      -13  1    1    2    0    0 -1.1154706468e+02 -2.2414343864e+02 -9.3601915662e+01 2.6729075431e+02 0.0000000000e+00 0.0000e+00 1.0000e+00
       13  1    1    2    0    0 +1.1154706468e+02 +2.2414343864e+02 +1.0061430659e+03 1.0368253940e+03 0.0000000000e+00 0.0000e+00 -1.0000e+00
<mgrwt>
<rscale>  0 0.93165851E+03</rscale>
<asrwt>0</asrwt>
<pdfrwt beam="1">  1        2 0.17051210E+00 0.93165851E+03</pdfrwt>
<pdfrwt beam="2">  1       -2 0.30121154E-01 0.93165851E+03</pdfrwt>
<totfact> 0.26183347E+02</totfact>
</mgrwt>
<rwgt>
<wgt id='morphing_basis_vector_1'> +1.7973163e-04 </wgt>
<wgt id='morphing_basis_vector_2'> +1.1126366e-04 </wgt>
<wgt id='morphing_basis_vector_3'> +1.6961888e-04 </wgt>
<wgt id='morphing_basis_vector_4'> +1.0077513e-04 </wgt>
<wgt id='morphing_basis_vector_5'> +1.5922497e-04 </wgt>
</rwgt>
</event>
<event>
 4      1 +1.4786900e-06 9.22391400e+02 7.81860800e-03 8.76202000e-02
        2 -1    0    0  501    0 +0.0000000000e+00 +0.0000000000e+00 +3.1251062374e+02 3.1251062374e+02 0.0000000000e+00 0.0000e+00 -1.0000e+00
       -2 -1    0    0    0  501 -0.0000000000e+00 -0.0000000000e+00 -6.8062163129e+02 6.8062163129e+02 0.0000000000e+00 0.0000e+00 1.0000e+00
      -13  1    1    2    0    0 -2.3040734982e+02 +1.9085705805e+02 -5.6195402581e+02 6.3663670220e+02 0.0000000000e+00 0.0000e+00 1.0000e+00
       13  1    1    2    0    0 +2.3040734982e+02 -1.9085705805e+02 +1.9384301826e+02 3.5649555283e+02 0.0000000000e+00 0.0000e+00 -1.0000e+00
<mgrwt>
<rscale>  0 0.92239144E+03</rscale>
<asrwt>0</asrwt>
<pdfrwt beam="1">  1        2 0.48078558E-01 0.92239144E+03</pdfrwt>
<pdfrwt beam="2">  1       -2 0.10471102E+00 0.92239144E+03</pdfrwt>
<totfact> 0.95820432E+01</totfact>
</mgrwt>
<rwgt>
<wgt id='morphing_basis_vector_1'> +1.7336870e-04 </wgt>
<wgt id='morphing_basis_vector_2'> +1.0733615e-04 </wgt>
<wgt id='morphing_basis_vector_3'> +1.6312948e-04 </wgt>
<wgt id='morphing_basis_vector_4'> +9.6356597e-05 </wgt>
<wgt id='morphing_basis_vector_5'> +1.5235906e-04 </wgt>
</rwgt>
</event>
<event>
 4      1 +1.4786900e-06 9.31444100e+02 7.81860800e-03 8.75256600e-02
        2 -1    0    0  501    0 +0.0000000000e+00 +0.0000000000e+00 +9.4165751736e+02 9.4165751736e+02 0.0000000000e+00 0.0000e+00 -1.0000e+00
       -2 -1    0    0    0  501 -0.0000000000e+00 -0.0000000000e+00 -2.3033534267e+02 2.3033534267e+02 0.0000000000e+00 0.0000e+00 1.0000e+00
      -13  1    1    2    0    0 -4.6077853876e+02 +4.9615808939e+01 +2.9774837813e+02 5.5084724467e+02 0.0000000000e+00 0.0000e+00 1.0000e+00
       13  1    1    2    0    0 +4.6077853876e+02 -4.9615808939e+01 +4.1357379656e+02 6.2114561536e+02 0.0000000000e+00 0.0000e+00 -1.0000e+00
<mgrwt>
<rscale>  0 0.93144406E+03</rscale>
<asrwt>0</asrwt>
<pdfrwt beam="1">  1        2 0.14487039E+00 0.93144406E+03</pdfrwt>
<pdfrwt beam="2">  1       -2 0.35436207E-01 0.93144406E+03</pdfrwt>
<totfact> 0.24783322E+02</totfact>
</mgrwt>
<rwgt>
<wgt id='morphing_basis_vector_1'> +1.8396887e-04 </wgt>
<wgt id='morphing_basis_vector_2'> +1.2450002e-04 </wgt>
<wgt id='morphing_basis_vector_3'> +1.7312687e-04 </wgt>
<wgt id='morphing_basis_vector_4'> +9.4248959e-05 </wgt>
<wgt id='morphing_basis_vector_5'> +1.5870891e-04 </wgt>
</rwgt>
</event>
<event>
 4      1 +1.4786900e-06 9.88886800e+02 7.81860800e-03 8.69508100e-02
        2 -1    0    0  501    0 +0.0000000000e+00 +0.0000000000e+00 +5.2539929809e+02 5.2539929809e+02 0.0000000000e+00 0.0000e+00 1.0000e+00
       -2 -1    0    0    0  501 -0.0000000000e+00 -0.0000000000e+00 -4.6531143221e+02 4.6531143221e+02 0.0000000000e+00 0.0000e+00 -1.0000e+00
      -13  1    1    2    0    0 +5.2646093573e+01 +4.8899545044e+02 +8.0991814077e+01 4.9844541894e+02 0.0000000000e+00 0.0000e+00 -1.0000e+00
       13  1    1    2    0    0 -5.2646093573e+01 -4.8899545044e+02 -2.0903948200e+01 4.9226531136e+02 0.0000000000e+00 0.0000e+00 1.0000e+00
<mgrwt>
<rscale>  0 0.98888685E+03</rscale>
<asrwt>0</asrwt>
<pdfrwt beam="1">  1        2 0.80830662E-01 0.98888685E+03</pdfrwt>
<pdfrwt beam="2">  1       -2 0.71586374E-01 0.98888685E+03</pdfrwt>
<totfact> 0.12751026E+02</totfact>
</mgrwt>
<rwgt>
<wgt id='morphing_basis_vector_1'> +2.3513890e-04 </wgt>
<wgt id='morphing_basis_vector_2'> +1.7441747e-04 </wgt>
<wgt id='morphing_basis_vector_3'> +2.2507952e-04 </wgt>
<wgt id='morphing_basis_vector_4'> +1.1304302e-04 </wgt>
<wgt id='morphing_basis_vector_5'> +2.0564733e-04 </wgt>
</rwgt>
</event>
<event>
 4      1 +1.4786900e-06 9.06365700e+02 7.81860800e-03 8.77903900e-02
        2 -1    0    0  501    0 +0.0000000000e+00 +0.0000000000e+00 +9.7004807241e+02 9.7004807241e+02 0.0000000000e+00 0.0000e+00 -1.0000e+00
       -2 -1    0    0    0  501 -0.0000000000e+00 -0.0000000000e+00 -2.1171599238e+02 2.1171599238e+02 0.0000000000e+00 0.0000e+00 1.0000e+00
      -13  1    1    2    0    0 +2.6859762128e+02 +3.6211202817e+02 +3.1934668349e+02 5.5249625100e+02 0.0000000000e+00 0.0000e+00 1.0000e+00
       13  1    1    2    0    0 -2.6859762128e+02 -3.6211202817e+02 +4.3898539654e+02 6.2926781380e+02 0.0000000000e+00 0.0000e+00 -1.0000e+00
<mgrwt>
<rscale>  0 0.90636569E+03</rscale>
<asrwt>0</asrwt>
<pdfrwt beam="1">  1        2 0.14923816E+00 0.90636569E+03</pdfrwt>
<pdfrwt beam="2">  1       -2 0.32571692E-01 0.90636569E+03</pdfrwt>
<totfact> 0.27722364E+02</totfact>
</mgrwt>
<rwgt>
<wgt id='morphing_basis_vector_1'> +1.6650935e-04 </wgt>
<wgt id='morphing_basis_vector_2'> +1.1215040e-04 </wgt>
<wgt id='morphing_basis_vector_3'> +1.5531638e-04 </wgt>
<wgt id='morphing_basis_vector_4'> +8.3715425e-05 </wgt>
<wgt id='morphing_basis_vector_5'> +1.4071270e-04 </wgt>
</rwgt>
</event>
<event>
 4      1 +1.4786900e-06 9.28883400e+02 7.81860800e-03 8.75522900e-02
        2 -1    0    0  501    0 +0.0000000000e+00 +0.0000000000e+00 +1.1629040912e+03 1.1629040912e+03 0.0000000000e+00 0.0000e+00 -1.0000e+00
       -2 -1    0    0    0  501 -0.0000000000e+00 -0.0000000000e+00 -1.8548916745e+02 1.8548916745e+02 0.0000000000e+00 0.0000e+00 1.0000e+00
      -13  1    1    2    0    0 -9.5933711633e+00 -4.0802441288e+02 +1.6694940570e+02 4.4096264960e+02 0.0000000000e+00 0.0000e+00 1.0000e+00
       13  1    1    2    0    0 +9.5933711633e+00 +4.0802441288e+02 +8.1046551803e+02 9.0743060902e+02 0.0000000000e+00 0.0000e+00 -1.0000e+00
<mgrwt>
<rscale>  0 0.92888344E+03</rscale>
<asrwt>0</asrwt>
<pdfrwt beam="1">  1        2 0.17890832E+00 0.92888344E+03</pdfrwt>
<pdfrwt beam="2">  1       -2 0.28536796E-01 0.92888344E+03</pdfrwt>
<totfact> 0.26738958E+02</totfact>
</mgrwt>
<rwgt>
<wgt id='morphing_basis_vector_1'> +1.7859940e-04 </wgt>
<wgt id='morphing_basis_vector_2'> +1.1248244e-04 </wgt>
<wgt id='morphing_basis_vector_3'> +1.6831331e-04 </wgt>
<wgt id='morphing_basis_vector_4'> +9.8279954e-05 </wgt>
<wgt id='morphing_basis_vector_5'> +1.5708215e-04 </wgt>
</rwgt>
</event>
<event>
 4      1 +1.4786900e-06 1.01312100e+03 7.81860800e-03 8.67203600e-02
        2 -1    0    0  501    0 +0.0000000000e+00 +0.0000000000e+00 +4.1395231039e+02 4.1395231039e+02 0.0000000000e+00 0.0000e+00 -1.0000e+00
       -2 -1    0    0    0  501 -0.0000000000e+00 -0.0000000000e+00 -6.1988621795e+02 6.1988621795e+02 0.0000000000e+00 0.0000e+00 1.0000e+00
      -13  1    1    2    0    0 -1.7555151681e+02 +5.8462481099e-01 -5.8785199160e+02 6.1350520851e+02 0.0000000000e+00 0.0000e+00 1.0000e+00
       13  1    1    2    0    0 +1.7555151681e+02 -5.8462481099e-01 +3.8191808405e+02 4.2033331983e+02 0.0000000000e+00 0.0000e+00 -1.0000e+00
<mgrwt>
<rscale>  0 0.10131206E+04</rscale>
<asrwt>0</asrwt>
<pdfrwt beam="1">  1        2 0.63684971E-01 0.10131206E+04</pdfrwt>
<pdfrwt beam="2">  1       -2 0.95367111E-01 0.10131206E+04</pdfrwt>
<totfact> 0.86927577E+01</totfact>
</mgrwt>
<rwgt>
<wgt id='morphing_basis_vector_1'> +2.4457912e-04 </wgt>
<wgt id='morphing_basis_vector_2'> +1.5320793e-04 </wgt>
<wgt id='morphing_basis_vector_3'> +2.3611023e-04 </wgt>
<wgt id='morphing_basis_vector_4'> +1.4505070e-04 </wgt>
<wgt id='morphing_basis_vector_5'> +2.2960008e-04 </wgt>
</rwgt>
</event>
<event>
 4      1 +1.4786900e-06 9.52990200e+02 7.81860800e-03 8.73051000e-02
        2 -1    0    0  501    0 +0.0000000000e+00 +0.0000000000e+00 +5.2359801200e+02 5.2359801200e+02 0.0000000000e+00 0.0000e+00 -1.0000e+00
       -2 -1    0    0    0  501 -0.0000000000e+00 -0.0000000000e+00 -4.3362955363e+02 4.3362955363e+02 0.0000000000e+00 0.0000e+00 1.0000e+00
      -13  1    1    2    0    0 -1.5213450888e+02 -4.5010356800e+02 +8.6371244984e+00 4.7519757011e+02 0.0000000000e+00 0.0000e+00 1.0000e+00
       13  1    1    2    0    0 +1.5213450888e+02 +4.5010356800e+02 +8.1331333871e+01 4.8202999552e+02 0.0000000000e+00 0.0000e+00 -1.0000e+00
<mgrwt>
<rscale>  0 0.95299018E+03</rscale>
<asrwt>0</asrwt>
<pdfrwt beam="1">  1        2 0.80553540E-01 0.95299018E+03</pdfrwt>
<pdfrwt beam="2">  1       -2 0.66712239E-01 0.95299018E+03</pdfrwt>
<totfact> 0.14913562E+02</totfact>
</mgrwt>
<rwgt>
<wgt id='morphing_basis_vector_1'> +2.0046865e-04 </wgt>
<wgt id='morphing_basis_vector_2'> +1.3712557e-04 </wgt>
<wgt id='morphing_basis_vector_3'> +1.8997204e-04 </wgt>
<wgt id='morphing_basis_vector_4'> +1.0345493e-04 </wgt>
<wgt id='morphing_basis_vector_5'> +1.7542568e-04 </wgt>
</rwgt>
</event>
<event>
 4      1 +1.4786900e-06 1.03542500e+03 7.81860800e-03 8.65141000e-02
        2 -1    0    0  501    0 +0.0000000000e+00 +0.0000000000e+00 +1.5637232379e+03 1.5637232379e+03 0.0000000000e+00 0.0000e+00 1.0000e+00
       -2 -1    0    0    0  501 -0.0000000000e+00 -0.0000000000e+00 -1.7140264962e+02 1.7140264962e+02 0.0000000000e+00 0.0000e+00 -1.0000e+00
      -13  1    1    2    0    0 -1.3331901008e+02 +3.5762188215e+02 +1.0998146223e+02 3.9719427372e+02 0.0000000000e+00 0.0000e+00 -1.0000e+00
       13  1    1    2    0    0 +1.3331901008e+02 -3.5762188215e+02 +1.2823391261e+03 1.3379316138e+03 0.0000000000e+00 0.0000e+00 1.0000e+00
<mgrwt>
<rscale>  0 0.10354251E+04</rscale>
<asrwt>0</asrwt>
<pdfrwt beam="1">  1        2 0.24057280E+00 0.10354251E+04</pdfrwt>
<pdfrwt beam="2">  1       -2 0.26369639E-01 0.10354251E+04</pdfrwt>
<totfact> 0.18063487E+02</totfact>
</mgrwt>
<rwgt>
<wgt id='morphing_basis_vector_1'> +2.6553166e-04 </wgt>
<wgt id='morphing_basis_vector_2'> +1.6776336e-04 </wgt>
<wgt id='morphing_basis_vector_3'> +2.5772530e-04 </wgt>
<wgt id='morphing_basis_vector_4'> +1.5869390e-04 </wgt>
<wgt id='morphing_basis_vector_5'> +2.5224492e-04 </wgt>
</rwgt>
</event>
<event>
 4      1 +1.4786900e-06 9.94264900e+02 7.81860800e-03 8.68990800e-02
        2 -1    0    0  501    0 +0.0000000000e+00 +0.0000000000e+00 +1.1086899101e+03 1.1086899101e+03 0.0000000000e+00 0.0000e+00 1.0000e+00
       -2 -1    0    0    0  501 -0.0000000000e+00 -0.0000000000e+00 -2.2291235815e+02 2.2291235815e+02 0.0000000000e+00 0.0000e+00 -1.0000e+00
      -13  1    1    2    0    0 +2.0046342906e+02 -4.5481970324e+02 +4.5588282417e+02 6.7444473325e+02 0.0000000000e+00 0.0000e+00 -1.0000e+00
       13  1    1    2    0    0 -2.0046342906e+02 +4.5481970324e+02 +4.2989472782e+02 6.5715753503e+02 0.0000000000e+00 0.0000e+00 1.0000e+00
<mgrwt>
<rscale>  0 0.99426492E+03</rscale>
<asrwt>0</asrwt>
<pdfrwt beam="1">  1        2 0.17056768E+00 0.99426492E+03</pdfrwt>
<pdfrwt beam="2">  1       -2 0.34294210E-01 0.99426492E+03</pdfrwt>
<totfact> 0.20671500E+02</totfact>
</mgrwt>
<rwgt>
<wgt id='morphing_basis_vector_1'> +2.3690601e-04 </wgt>
<wgt id='morphing_basis_vector_2'> +1.6900285e-04 </wgt>
<wgt id='morphing_basis_vector_3'> +2.2726787e-04 </wgt>
<wgt id='morphing_basis_vector_4'> +1.2031223e-04 </wgt>
<wgt id='morphing_basis_vector_5'> +2.1082308e-04 </wgt>
</rwgt>
</event>
<event>
 4      1 +1.4786900e-06 1.06351500e+03 7.81860800e-03 8.62618700e-02
        2 -1    0    0  501    0 +0.0000000000e+00 +0.0000000000e+00 +1.7324886761e+03 1.7324886761e+03 0.0000000000e+00 0.0000e+00 -1.0000e+00
       -2 -1    0    0    0  501 -0.0000000000e+00 -0.0000000000e+00 -1.6321376706e+02 1.6321376706e+02 0.0000000000e+00 0.0000e+00 1.0000e+00
      -13  1    1    2    0    0 -5.1593191484e+02 -9.6844351882e+01 +6.3337328430e+02 8.2263374992e+02 0.0000000000e+00 0.0000e+00 1.0000e+00
       13  1    1    2    0    0 +5.1593191484e+02 +9.6844351882e+01 +9.3590162477e+02 1.0730686933e+03 0.0000000000e+00 0.0000e+00 -1.0000e+00
<mgrwt>
<rscale>  0 0.10635149E+04</rscale>
<asrwt>0</asrwt>
<pdfrwt beam="1">  1        2 0.26653671E+00 0.10635149E+04</pdfrwt>
<pdfrwt beam="2">  1       -2 0.25109811E-01 0.10635149E+04</pdfrwt>
<totfact> 0.15822942E+02</totfact>
</mgrwt>
<rwgt>
<wgt id='morphing_basis_vector_1'> +2.9869634e-04 </wgt>
<wgt id='morphing_basis_vector_2'> +2.0217709e-04 </wgt>
<wgt id='morphing_basis_vector_3'> +2.9192640e-04 </wgt>
<wgt id='morphing_basis_vector_4'> +1.6938393e-04 </wgt>
<wgt id='morphing_basis_vector_5'> +2.8254529e-04 </wgt>
</rwgt>
</event>
<event>
 4      1 +1.4786900e-06 9.56613600e+02 7.81860800e-03 8.72686000e-02
        2 -1    0    0  501    0 +0.0000000000e+00 +0.0000000000e+00 +5.5808100249e+02 5.5808100249e+02 0.0000000000e+00 0.0000e+00 -1.0000e+00
       -2 -1    0    0    0  501 -0.0000000000e+00 -0.0000000000e+00 -4.0993580567e+02 4.0993580567e+02 0.0000000000e+00 0.0000e+00 1.0000e+00
      -13  1    1    2    0    0 +1.4443589728e+00 +4.3711040033e+02 -1.2243233333e+02 4.5393530871e+02 0.0000000000e+00 0.0000e+00 1.0000e+00
       13  1    1    2    0    0 -1.4443589728e+00 -4.3711040033e+02 +2.7057753014e+02 5.1408149945e+02 0.0000000000e+00 0.0000e+00 -1.0000e+00
<mgrwt>
<rscale>  0 0.95661358E+03</rscale>
<asrwt>0</asrwt>
<pdfrwt beam="1">  1        2 0.85858616E-01 0.95661358E+03</pdfrwt>
<pdfrwt beam="2">  1       -2 0.63067047E-01 0.95661358E+03</pdfrwt>
<totfact> 0.15576604E+02</totfact>
</mgrwt>
<rwgt>
<wgt id='morphing_basis_vector_1'> +1.9930692e-04 </wgt>
<wgt id='morphing_basis_vector_2'> +1.2706507e-04 </wgt>
<wgt id='morphing_basis_vector_3'> +1.8940001e-04 </wgt>
<wgt id='morphing_basis_vector_4'> +1.1111274e-04 </wgt>
<wgt id='morphing_basis_vector_5'> +1.7870208e-04 </wgt>
</rwgt>
</event>
<event>
 4      1 +1.4786900e-06 9.32064200e+02 7.81860800e-03 8.75192300e-02
        2 -1    0    0  501    0 +0.0000000000e+00 +0.0000000000e+00 +5.8462065868e+02 5.8462065868e+02 0.0000000000e+00 0.0000e+00 -1.0000e+00
       -2 -1    0    0    0  501 -0.0000000000e+00 -0.0000000000e+00 -3.7149887023e+02 3.7149887023e+02 0.0000000000e+00 0.0000e+00 1.0000e+00
      -13  1    1    2    0    0 +1.9564064521e+02 -1.5913933662e+02 -2.9545314901e+02 3.8844967985e+02 0.0000000000e+00 0.0000e+00 1.0000e+00
       13  1    1    2    0    0 -1.9564064521e+02 +1.5913933662e+02 +5.0857493746e+02 5.6766984906e+02 0.0000000000e+00 0.0000e+00 -1.0000e+00
<mgrwt>
<rscale>  0 0.93206419E+03</rscale>
<asrwt>0</asrwt>
<pdfrwt beam="1">  1        2 0.89941640E-01 0.93206419E+03</pdfrwt>
<pdfrwt beam="2">  1       -2 0.57153672E-01 0.93206419E+03</pdfrwt>
<totfact> 0.18078636E+02</totfact>
</mgrwt>
<rwgt>
<wgt id='morphing_basis_vector_1'> +1.8001936e-04 </wgt>
<wgt id='morphing_basis_vector_2'> +1.1145365e-04 </wgt>
<wgt id='morphing_basis_vector_3'> +1.6991160e-04 </wgt>
<wgt id='morphing_basis_vector_4'> +1.0096440e-04 </wgt>
<wgt id='morphing_basis_vector_5'> +1.5953017e-04 </wgt>
</rwgt>
</event>
<event>
 4      1 +1.4786900e-06 9.12198600e+02 7.81860800e-03 8.77280200e-02
        2 -1    0    0  501    0 +0.0000000000e+00 +0.0000000000e+00 +5.6654384787e+02 5.6654384787e+02 0.0000000000e+00 0.0000e+00 -1.0000e+00
       -2 -1    0    0    0  501 -0.0000000000e+00 -0.0000000000e+00 -3.6718529621e+02 3.6718529621e+02 0.0000000000e+00 0.0000e+00 1.0000e+00
      -13  1    1    2    0    0 +9.4514242660e+01 +2.0688666905e+02 -3.0498907722e+02 3.8046468051e+02 0.0000000000e+00 0.0000e+00 1.0000e+00
       13  1    1    2    0    0 -9.4514242660e+01 -2.0688666905e+02 +5.0434762887e+02 5.5326446357e+02 0.0000000000e+00 0.0000e+00 -1.0000e+00
<mgrwt>
<rscale>  0 0.91219860E+03</rscale>
<asrwt>0</asrwt>
<pdfrwt beam="1">  1        2 0.87160592E-01 0.91219860E+03</pdfrwt>
<pdfrwt beam="2">  1       -2 0.56490045E-01 0.91219860E+03</pdfrwt>
<totfact> 0.19225309E+02</totfact>
</mgrwt>
<rwgt>
<wgt id='morphing_basis_vector_1'> +1.6640407e-04 </wgt>
<wgt id='morphing_basis_vector_2'> +1.0262678e-04 </wgt>
<wgt id='morphing_basis_vector_3'> +1.5607295e-04 </wgt>
<wgt id='morphing_basis_vector_4'> +9.1906302e-05 </wgt>
<wgt id='morphing_basis_vector_5'> +1.4507185e-04 </wgt>
</rwgt>
</event>
<event>
 4      1 +1.4786900e-06 9.91887300e+02 7.81860800e-03 8.69219100e-02
        2 -1    0    0  501    0 +0.0000000000e+00 +0.0000000000e+00 +7.3605997626e+02 7.3605997626e+02 0.0000000000e+00 0.0000e+00 1.0000e+00
       -2 -1    0    0    0  501 -0.0000000000e+00 -0.0000000000e+00 -3.3415766501e+02 3.3415766501e+02 0.0000000000e+00 0.0000e+00 -1.0000e+00
      -13  1    1    2    0    0 +3.5784554762e+01 +3.6886806279e+02 -1.5464454279e+02 4.0157081159e+02 0.0000000000e+00 0.0000e+00 -1.0000e+00
       13  1    1    2    0    0 -3.5784554762e+01 -3.6886806279e+02 +5.5654685403e+02 6.6864682968e+02 0.0000000000e+00 0.0000e+00 1.0000e+00
<mgrwt>
<rscale>  0 0.99188726E+03</rscale>
<asrwt>0</asrwt>
<pdfrwt beam="1">  1        2 0.11324000E+00 0.99188726E+03</pdfrwt>
<pdfrwt beam="2">  1       -2 0.51408872E-01 0.99188726E+03</pdfrwt>
<totfact> 0.16860763E+02</totfact>
</mgrwt>
<rwgt>
<wgt id='morphing_basis_vector_1'> +2.2651309e-04 </wgt>
<wgt id='morphing_basis_vector_2'> +1.4230087e-04 </wgt>
<wgt id='morphing_basis_vector_3'> +2.1746958e-04 </wgt>
<wgt id='morphing_basis_vector_4'> +1.3183669e-04 </wgt>
<wgt id='morphing_basis_vector_5'> +2.0939565e-04 </wgt>
</rwgt>
</event>
<event>
 4      1 +1.4786900e-06 1.06406700e+03 7.81860800e-03 8.62569900e-02
        2 -1    0    0  501    0 +0.0000000000e+00 +0.0000000000e+00 +5.4296336140e+02 5.4296336140e+02 0.0000000000e+00 0.0000e+00 1.0000e+00
       -2 -1    0    0    0  501 -0.0000000000e+00 -0.0000000000e+00 -5.2132326594e+02 5.2132326594e+02 0.0000000000e+00 0.0000e+00 -1.0000e+00
      -13  1    1    2    0    0 +3.5006964541e+02 +2.2112211376e+02 +3.4497847018e+02 5.3893774290e+02 0.0000000000e+00 0.0000e+00 1.0000e+00
       13  1    1    2    0    0 -3.5006964541e+02 -2.2112211376e+02 -3.2333837472e+02 5.2534888445e+02 0.0000000000e+00 0.0000e+00 -1.0000e+00
<mgrwt>
<rscale>  0 0.10640666E+04</rscale>
<asrwt>0</asrwt>
<pdfrwt beam="1">  1        2 0.83532825E-01 0.10640666E+04</pdfrwt>
<pdfrwt beam="2">  1       -2 0.80203579E-01 0.10640666E+04</pdfrwt>
<totfact> 0.94989094E+01</totfact>
</mgrwt>
<rwgt>
<wgt id='morphing_basis_vector_1'> +3.6617126e-04 </wgt>
<wgt id='morphing_basis_vector_2'> +4.0456227e-04 </wgt>
<wgt id='morphing_basis_vector_3'> +3.5975165e-04 </wgt>
<wgt id='morphing_basis_vector_4'> +6.2158287e-05 </wgt>
<wgt id='morphing_basis_vector_5'> +2.7641924e-04 </wgt>
</rwgt>
</event>
<event>
 4      1 +1.4786900e-06 9.53055000e+02 7.81860800e-03 8.73044400e-02
        2 -1    0    0  501    0 +0.0000000000e+00 +0.0000000000e+00 +1.5042476184e+03 1.5042476184e+03 0.0000000000e+00 0.0000e+00 -1.0000e+00
       -2 -1    0    0    0  501 -0.0000000000e+00 -0.0000000000e+00 -1.5095815649e+02 1.5095815649e+02 0.0000000000e+00 0.0000e+00 1.0000e+00
      -13  1    1    2    0    0 -3.9175463802e+02 +2.1276602198e+02 +9.6900194590e+02 1.0666329489e+03 0.0000000000e+00 0.0000e+00 1.0000e+00
       13  1    1    2    0    0 +3.9175463802e+02 -2.1276602198e+02 +3.8428751597e+02 5.8857282596e+02 0.0000000000e+00 0.0000e+00 -1.0000e+00
<mgrwt>
<rscale>  0 0.95305498E+03</rscale>
<asrwt>0</asrwt>
<pdfrwt beam="1">  1        2 0.23142270E+00 0.95305498E+03</pdfrwt>
<pdfrwt beam="2">  1       -2 0.23224333E-01 0.95305498E+03</pdfrwt>
<totfact> 0.24377615E+02</totfact>
</mgrwt>
<rwgt>
<wgt id='morphing_basis_vector_1'> +2.1818449e-04 </wgt>
<wgt id='morphing_basis_vector_2'> +1.9077810e-04 </wgt>
<wgt id='morphing_basis_vector_3'> +2.0532612e-04 </wgt>
<wgt id='morphing_basis_vector_4'> +7.7145078e-05 </wgt>
<wgt id='morphing_basis_vector_5'> +1.7398399e-04 </wgt>
</rwgt>
</event>
<event>
 4      1 +1.4786900e-06 9.62512800e+02 7.81860800e-03 8.72095500e-02
        2 -1    0    0  501    0 +0.0000000000e+00 +0.0000000000e+00 +2.4804600577e+03 2.4804600577e+03 0.0000000000e+00 0.0000e+00 -1.0000e+00
       -2 -1    0    0    0  501 -0.0000000000e+00 -0.0000000000e+00 -9.3372891340e+01 9.3372891340e+01 0.0000000000e+00 0.0000e+00 1.0000e+00
      -13  1    1    2    0    0 +4.1240419816e+00 +4.7647141282e+02 +1.0128560797e+03 1.1193388464e+03 0.0000000000e+00 0.0000e+00 1.0000e+00
       13  1    1    2    0    0 -4.1240419816e+00 -4.7647141282e+02 +1.3742310867e+03 1.4544941027e+03 0.0000000000e+00 0.0000e+00 -1.0000e+00
<mgrwt>
<rscale>  0 0.96251281E+03</rscale>
<asrwt>0</asrwt>
<pdfrwt beam="1">  1        2 0.38160919E+00 0.96251281E+03</pdfrwt>
<pdfrwt beam="2">  1       -2 0.14365062E-01 0.96251281E+03</pdfrwt>
<totfact> 0.15294907E+02</totfact>
</mgrwt>
<rwgt>
<wgt id='morphing_basis_vector_1'> +2.0673889e-04 </wgt>
<wgt id='morphing_basis_vector_2'> +1.3882875e-04 </wgt>
<wgt id='morphing_basis_vector_3'> +1.9659650e-04 </wgt>
<wgt id='morphing_basis_vector_4'> +1.0978907e-04 </wgt>
<wgt id='morphing_basis_vector_5'> +1.8332556e-04 </wgt>
</rwgt>
</event>
<event>
 4      1 +1.4786900e-06 9.17271900e+02 7.81860800e-03 8.76741700e-02
        2 -1    0    0  501    0 +0.0000000000e+00 +0.0000000000e+00 +6.7999123021e+02 6.7999123021e+02 0.0000000000e+00 0.0000e+00 1.0000e+00
       -2 -1    0    0    0  501 -0.0000000000e+00 -0.0000000000e+00 -3.0933770576e+02 3.0933770576e+02 0.0000000000e+00 0.0000e+00 -1.0000e+00
      -13  1    1    2    0    0 -9.5066583618e+01 +2.3307254740e+02 -2.2817874149e+02 3.3974402974e+02 0.0000000000e+00 0.0000e+00 -1.0000e+00
       13  1    1    2    0    0 +9.5066583618e+01 -2.3307254740e+02 +5.9883226594e+02 6.4958490624e+02 0.0000000000e+00 0.0000e+00 1.0000e+00
<mgrwt>
<rscale>  0 0.91727188E+03</rscale>
<asrwt>0</asrwt>
<pdfrwt beam="1">  1        2 0.10461404E+00 0.91727188E+03</pdfrwt>
<pdfrwt beam="2">  1       -2 0.47590416E-01 0.91727188E+03</pdfrwt>
<totfact> 0.21710121E+02</totfact>
</mgrwt>
<rwgt>
<wgt id='morphing_basis_vector_1'> +1.6981781e-04 </wgt>
<wgt id='morphing_basis_vector_2'> +1.0487425e-04 </wgt>
<wgt id='morphing_basis_vector_3'> +1.5953487e-04 </wgt>
<wgt id='morphing_basis_vector_4'> +9.4138614e-05 </wgt>
<wgt id='morphing_basis_vector_5'> +1.4866849e-04 </wgt>
</rwgt>
</event>
<event>
 4      1 +1.4786900e-06 9.25354300e+02 7.81860800e-03 8.75891400e-02
        2 -1    0    0  501    0 +0.0000000000e+00 +0.0000000000e+00 +1.4039882268e+03 1.4039882268e+03 0.0000000000e+00 0.0000e+00 1.0000e+00
       -2 -1    0    0    0  501 -0.0000000000e+00 -0.0000000000e+00 -1.5247288513e+02 1.5247288513e+02 0.0000000000e+00 0.0000e+00 -1.0000e+00
      -13  1    1    2    0    0 +2.1460411982e+02 +3.3115197828e+02 +1.0320737129e+03 1.1049401385e+03 0.0000000000e+00 0.0000e+00 -1.0000e+00
       13  1    1    2    0    0 -2.1460411982e+02 -3.3115197828e+02 +2.1944162880e+02 4.5152097339e+02 0.0000000000e+00 0.0000e+00 1.0000e+00
<mgrwt>
<rscale>  0 0.92535428E+03</rscale>
<asrwt>0</asrwt>
<pdfrwt beam="1">  1        2 0.21599818E+00 0.92535428E+03</pdfrwt>
<pdfrwt beam="2">  1       -2 0.23457368E-01 0.92535428E+03</pdfrwt>
<totfact> 0.27311332E+02</totfact>
</mgrwt>
<rwgt>
<wgt id='morphing_basis_vector_1'> +2.0877618e-04 </wgt>
<wgt id='morphing_basis_vector_2'> +2.1007688e-04 </wgt>
<wgt id='morphing_basis_vector_3'> +1.9273809e-04 </wgt>
<wgt id='morphing_basis_vector_4'> +4.9126403e-05 </wgt>
<wgt id='morphing_basis_vector_5'> +1.5186634e-04 </wgt>
</rwgt>
</event>
<event>
 4      1 +1.4786900e-06 1.00597100e+03 7.81860800e-03 8.67876500e-02
        2 -1    0    0  501    0 +0.0000000000e+00 +0.0000000000e+00 +1.4753573233e+03 1.4753573233e+03 0.0000000000e+00 0.0000e+00 -1.0000e+00
       -2 -1    0    0    0  501 -0.0000000000e+00 -0.0000000000e+00 -1.7148018594e+02 1.7148018594e+02 0.0000000000e+00 0.0000e+00 1.0000e+00
      -13  1    1    2    0    0 +3.0785064553e+02 -3.1371873181e+02 +2.5160042685e+02 5.0645260137e+02 0.0000000000e+00 0.0000e+00 1.0000e+00
       13  1    1    2    0    0 -3.0785064553e+02 +3.1371873181e+02 +1.0522767105e+03 1.1403849079e+03 0.0000000000e+00 0.0000e+00 -1.0000e+00
<mgrwt>
<rscale>  0 0.10059713E+04</rscale>
<asrwt>0</asrwt>
<pdfrwt beam="1">  1        2 0.22697804E+00 0.10059713E+04</pdfrwt>
<pdfrwt beam="2">  1       -2 0.26381568E-01 0.10059713E+04</pdfrwt>
<totfact> 0.20253108E+02</totfact>
</mgrwt>
<rwgt>
<wgt id='morphing_basis_vector_1'> +2.3935749e-04 </wgt>
<wgt id='morphing_basis_vector_2'> +1.5243543e-04 </wgt>
<wgt id='morphing_basis_vector_3'> +2.3062518e-04 </wgt>
<wgt id='morphing_basis_vector_4'> +1.3897584e-04 </wgt>
<wgt id='morphing_basis_vector_5'> +2.2255375e-04 </wgt>
</rwgt>
</event>
<event>
 4      1 +1.4786900e-06 1.06672000e+03 7.81860800e-03 8.62336000e-02
        2 -1    0    0  501    0 +0.0000000000e+00 +0.0000000000e+00 +1.1910550755e+03 1.1910550755e+03 0.0000000000e+00 0.0000e+00 -1.0000e+00
       -2 -1    0    0    0  501 -0.0000000000e+00 -0.0000000000e+00 -2.3884087652e+02 2.3884087652e+02 0.0000000000e+00 0.0000e+00 1.0000e+00
      -13  1    1    2    0    0 -4.9875946529e+02 +5.0617684962e+01 +2.3204936423e+02 5.5242199602e+02 0.0000000000e+00 0.0000e+00 1.0000e+00
       13  1    1    2    0    0 +4.9875946529e+02 -5.0617684962e+01 +7.2016483476e+02 8.7747395601e+02 0.0000000000e+00 0.0000e+00 -1.0000e+00
<mgrwt>
<rscale>  0 0.10667195E+04</rscale>
<asrwt>0</asrwt>
<pdfrwt beam="1">  1        2 0.18323924E+00 0.10667195E+04</pdfrwt>
<pdfrwt beam="2">  1       -2 0.36744751E-01 0.10667195E+04</pdfrwt>
<totfact> 0.16220460E+02</totfact>
</mgrwt>
<rwgt>
<wgt id='morphing_basis_vector_1'> +2.9898067e-04 </wgt>
<wgt id='morphing_basis_vector_2'> +1.9521613e-04 </wgt>
<wgt id='morphing_basis_vector_3'> +2.9233304e-04 </wgt>
<wgt id='morphing_basis_vector_4'> +1.7654777e-04 </wgt>
<wgt id='morphing_basis_vector_5'> +2.8653540e-04 </wgt>
</rwgt>
</event>
<event>
 4      1 +1.4786900e-06 1.01309500e+03 7.81860800e-03 8.67206000e-02
        2 -1    0    0  501    0 +0.0000000000e+00 +0.0000000000e+00 +7.2735294222e+02 7.2735294222e+02 0.0000000000e+00 0.0000e+00 -1.0000e+00
       -2 -1    0    0    0  501 -0.0000000000e+00 -0.0000000000e+00 -3.5277299330e+02 3.5277299330e+02 0.0000000000e+00 0.0000e+00 1.0000e+00
      -13  1    1    2    0    0 +3.6797054076e+02 -1.5545754801e+02 -1.4480113210e+02 4.2489614726e+02 0.0000000000e+00 0.0000e+00 1.0000e+00
       13  1    1    2    0    0 -3.6797054076e+02 +1.5545754801e+02 +5.1938108102e+02 6.5522978826e+02 0.0000000000e+00 0.0000e+00 -1.0000e+00
<mgrwt>
<rscale>  0 0.10130952E+04</rscale>
<asrwt>0</asrwt>
<pdfrwt beam="1">  1        2 0.11190045E+00 0.10130952E+04</pdfrwt>
<pdfrwt beam="2">  1       -2 0.54272768E-01 0.10130952E+04</pdfrwt>
<totfact> 0.15344613E+02</totfact>
</mgrwt>
<rwgt>
<wgt id='morphing_basis_vector_1'> +2.4509446e-04 </wgt>
<wgt id='morphing_basis_vector_2'> +1.5482133e-04 </wgt>
<wgt id='morphing_basis_vector_3'> +2.3659576e-04 </wgt>
<wgt id='morphing_basis_vector_4'> +1.4419649e-04 </wgt>
<wgt id='morphing_basis_vector_5'> +2.2952460e-04 </wgt>
</rwgt>
</event>
<event>
 4      1 +1.4786900e-06 9.56683600e+02 7.81860800e-03 8.72679000e-02
        2 -1    0    0  501    0 +0.0000000000e+00 +0.0000000000e+00 +1.6178782971e+03 1.6178782971e+03 0.0000000000e+00 0.0000e+00 -1.0000e+00
       -2 -1    0    0    0  501 -0.0000000000e+00 -0.0000000000e+00 -1.4142651967e+02 1.4142651967e+02 0.0000000000e+00 0.0000e+00 1.0000e+00
      -13  1    1    2    0    0 -3.2302803013e+02 -1.1090110953e+02 +1.2233907359e+02 3.6278507862e+02 0.0000000000e+00 0.0000e+00 1.0000e+00
       13  1    1    2    0    0 +3.2302803013e+02 +1.1090110953e+02 +1.3541127038e+03 1.3965197381e+03 0.0000000000e+00 0.0000e+00 -1.0000e+00
<mgrwt>
<rscale>  0 0.95668364E+03</rscale>
<asrwt>0</asrwt>
<pdfrwt beam="1">  1        2 0.24890434E+00 0.95668364E+03</pdfrwt>
<pdfrwt beam="2">  1       -2 0.21757927E-01 0.95668364E+03</pdfrwt>
<totfact> 0.23544478E+02</totfact>
</mgrwt>
<rwgt>
<wgt id='morphing_basis_vector_1'> +1.9823336e-04 </wgt>
<wgt id='morphing_basis_vector_2'> +1.2368034e-04 </wgt>
<wgt id='morphing_basis_vector_3'> +1.8847269e-04 </wgt>
<wgt id='morphing_basis_vector_4'> +1.1283363e-04 </wgt>
<wgt id='morphing_basis_vector_5'> +1.7885537e-04 </wgt>
</rwgt>
</event>
<event>
 4      1 +1.4786900e-06 9.68057000e+02 7.81860800e-03 8.71544400e-02
        2 -1    0    0  501    0 +0.0000000000e+00 +0.0000000000e+00 +1.0016157619e+03 1.0016157619e+03 0.0000000000e+00 0.0000e+00 -1.0000e+00
       -2 -1    0    0    0  501 -0.0000000000e+00 -0.0000000000e+00 -2.3390566716e+02 2.3390566716e+02 0.0000000000e+00 0.0000e+00 1.0000e+00
      -13  1    1    2    0    0 +3.1811687381e+02 +2.7667189986e+02 +8.0382616764e+01 4.2919348859e+02 0.0000000000e+00 0.0000e+00 1.0000e+00
       13  1    1    2    0    0 -3.1811687381e+02 -2.7667189986e+02 +6.8732747793e+02 8.0632794041e+02 0.0000000000e+00 0.0000e+00 -1.0000e+00
<mgrwt>
<rscale>  0 0.96805703E+03</rscale>
<asrwt>0</asrwt>
<pdfrwt beam="1">  1        2 0.15409473E+00 0.96805703E+03</pdfrwt>
<pdfrwt beam="2">  1       -2 0.35985488E-01 0.96805703E+03</pdfrwt>
<totfact> 0.22043799E+02</totfact>
</mgrwt>
<rwgt>
<wgt id='morphing_basis_vector_1'> +2.0771369e-04 </wgt>
<wgt id='morphing_basis_vector_2'> +1.3148254e-04 </wgt>
<wgt id='morphing_basis_vector_3'> +1.9808452e-04 </wgt>
<wgt id='morphing_basis_vector_4'> +1.1774051e-04 </wgt>
<wgt id='morphing_basis_vector_5'> +1.8828270e-04 </wgt>
</rwgt>
</event>
<event>
 4      1 +1.4786900e-06 9.18974500e+02 7.81860800e-03 8.76561800e-02
        2 -1    0    0  501    0 +0.0000000000e+00 +0.0000000000e+00 +4.7527894185e+03 4.7527894185e+03 0.0000000000e+00 0.0000e+00 -1.0000e+00
       -2 -1    0    0    0  501 -0.0000000000e+00 -0.0000000000e+00 -4.4422028723e+01 4.4422028723e+01 0.0000000000e+00 0.0000e+00 1.0000e+00
      -13  1    1    2    0    0 +3.9900944804e+02 +2.2609444281e+02 +2.2064137756e+03 2.2535724940e+03 0.0000000000e+00 0.0000e+00 1.0000e+00
       13  1    1    2    0    0 -3.9900944804e+02 -2.2609444281e+02 +2.5019536142e+03 2.5436389532e+03 0.0000000000e+00 0.0000e+00 -1.0000e+00
<mgrwt>
<rscale>  0 0.91897453E+03</rscale>
<asrwt>0</asrwt>
<pdfrwt beam="1">  1        2 0.73119797E+00 0.91897453E+03</pdfrwt>
<pdfrwt beam="2">  1       -2 0.68341620E-02 0.91897453E+03</pdfrwt>
<totfact> 0.84138408E+00</totfact>
</mgrwt>
<rwgt>
<wgt id='morphing_basis_vector_1'> +1.7576761e-04 </wgt>
<wgt id='morphing_basis_vector_2'> +1.2020745e-04 </wgt>
<wgt id='morphing_basis_vector_3'> +1.6461666e-04 </wgt>
<wgt id='morphing_basis_vector_4'> +8.7958410e-05 </wgt>
<wgt id='morphing_basis_vector_5'> +1.4951314e-04 </wgt>
</rwgt>
</event>
<event>
 4      1 +1.4786900e-06 9.49459400e+02 7.81860800e-03 8.73408200e-02
        2 -1    0    0  501    0 +0.0000000000e+00 +0.0000000000e+00 +4.5235544048e+02 4.5235544048e+02 0.0000000000e+00 0.0000e+00 -1.0000e+00
       -2 -1    0    0    0  501 -0.0000000000e+00 -0.0000000000e+00 -4.9821066474e+02 4.9821066474e+02 0.0000000000e+00 0.0000e+00 1.0000e+00
      -13  1    1    2    0    0 +8.6181061585e+01 -6.3166232896e+00 -4.9027062097e+02 4.9782763774e+02 0.0000000000e+00 0.0000e+00 1.0000e+00
       13  1    1    2    0    0 -8.6181061585e+01 +6.3166232896e+00 +4.4441539672e+02 4.5273846749e+02 0.0000000000e+00 0.0000e+00 -1.0000e+00
<mgrwt>
<rscale>  0 0.94945944E+03</rscale>
<asrwt>0</asrwt>
<pdfrwt beam="1">  1        2 0.69593145E-01 0.94945944E+03</pdfrwt>
<pdfrwt beam="2">  1       -2 0.76647794E-01 0.94945944E+03</pdfrwt>
<totfact> 0.13057789E+02</totfact>
</mgrwt>
<rwgt>
<wgt id='morphing_basis_vector_1'> +1.9256408e-04 </wgt>
<wgt id='morphing_basis_vector_2'> +1.1943458e-04 </wgt>
<wgt id='morphing_basis_vector_3'> +1.8271536e-04 </wgt>
<wgt id='morphing_basis_vector_4'> +1.0952377e-04 </wgt>
<wgt id='morphing_basis_vector_5'> +1.7303292e-04 </wgt>
</rwgt>
</event>
<event>
 4      1 +1.4786900e-06 1.05520000e+03 7.81860800e-03 8.63356800e-02
        2 -1    0    0  501    0 +0.0000000000e+00 +0.0000000000e+00 +7.7633558531e+02 7.7633558531e+02 0.0000000000e+00 0.0000e+00 1.0000e+00
       -2 -1    0    0    0  501 -0.0000000000e+00 -0.0000000000e+00 -3.5855885451e+02 3.5855885451e+02 0.0000000000e+00 0.0000e+00 -1.0000e+00
      -13  1    1    2    0    0 +3.2346132083e+02 +3.7050991891e+02 +3.5301937084e+00 4.9185088020e+02 0.0000000000e+00 0.0000e+00 -1.0000e+00
       13  1    1    2    0    0 -3.2346132083e+02 -3.7050991891e+02 +4.1424653709e+02 6.4304355962e+02 0.0000000000e+00 0.0000e+00 1.0000e+00
<mgrwt>
<rscale>  0 0.10552005E+04</rscale>
<asrwt>0</asrwt>
<pdfrwt beam="1">  1        2 0.11943624E+00 0.10552005E+04</pdfrwt>
<pdfrwt beam="2">  1       -2 0.55162901E-01 0.10552005E+04</pdfrwt>
<totfact> 0.13647524E+02</totfact>
</mgrwt>
<rwgt>
<wgt id='morphing_basis_vector_1'> +2.8689061e-04 </wgt>
<wgt id='morphing_basis_vector_2'> +1.8650899e-04 </wgt>
<wgt id='morphing_basis_vector_3'> +2.7976940e-04 </wgt>
<wgt id='morphing_basis_vector_4'> +1.6890544e-04 </wgt>
<wgt id='morphing_basis_vector_5'> +2.7348468e-04 </wgt>
</rwgt>
</event>
<event>
 4      1 +1.4786900e-06 9.83079300e+02 7.81860800e-03 8.70070600e-02
        2 -1    0    0  501    0 +0.0000000000e+00 +0.0000000000e+00 +3.8009162977e+02 3.8009162977e+02 0.0000000000e+00 0.0000e+00 1.0000e+00
       -2 -1    0    0    0  501 -0.0000000000e+00 -0.0000000000e+00 -6.3566572507e+02 6.3566572507e+02 0.0000000000e+00 0.0000e+00 -1.0000e+00
      -13  1    1    2    0    0 -6.6212849655e+01 -1.8487313511e+02 -5.9337513645e+02 6.2502501558e+02 0.0000000000e+00 0.0000e+00 -1.0000e+00
       13  1    1    2    0    0 +6.6212849655e+01 +1.8487313511e+02 +3.3780104114e+02 3.9073233926e+02 0.0000000000e+00 0.0000e+00 1.0000e+00
<mgrwt>
<rscale>  0 0.98307929E+03</rscale>
<asrwt>0</asrwt>
<pdfrwt beam="1">  1        2 0.58475636E-01 0.98307929E+03</pdfrwt>
<pdfrwt beam="2">  1       -2 0.97794727E-01 0.98307929E+03</pdfrwt>
<totfact> 0.90358946E+01</totfact>
</mgrwt>
<rwgt>
<wgt id='morphing_basis_vector_1'> +2.1884904e-04 </wgt>
<wgt id='morphing_basis_vector_2'> +1.3650228e-04 </wgt>
<wgt id='morphing_basis_vector_3'> +2.0963274e-04 </wgt>
<wgt id='morphing_basis_vector_4'> +1.2735695e-04 </wgt>
<wgt id='morphing_basis_vector_5'> +2.0145140e-04 </wgt>
</rwgt>
</event>
<event>
 4      1 +1.4786900e-06 1.03184200e+03 7.81860800e-03 8.65468700e-02
        2 -1    0    0  501    0 +0.0000000000e+00 +0.0000000000e+00 +7.5521496461e+02 7.5521496461e+02 0.0000000000e+00 0.0000e+00 1.0000e+00
       -2 -1    0    0    0  501 -0.0000000000e+00 -0.0000000000e+00 -3.5244862396e+02 3.5244862396e+02 0.0000000000e+00 0.0000e+00 -1.0000e+00
      -13  1    1    2    0    0 +2.6500768236e+02 -2.8901460728e+02 -1.5853905719e+02 4.2295761914e+02 0.0000000000e+00 0.0000e+00 -1.0000e+00
       13  1    1    2    0    0 -2.6500768236e+02 +2.8901460728e+02 +5.6130539784e+02 6.8470596943e+02 0.0000000000e+00 0.0000e+00 1.0000e+00
<mgrwt>
<rscale>  0 0.10318420E+04</rscale>
<asrwt>0</asrwt>
<pdfrwt beam="1">  1        2 0.11618692E+00 0.10318420E+04</pdfrwt>
<pdfrwt beam="2">  1       -2 0.54222865E-01 0.10318420E+04</pdfrwt>
<totfact> 0.14649514E+02</totfact>
</mgrwt>
<rwgt>
<wgt id='morphing_basis_vector_1'> +2.6221345e-04 </wgt>
<wgt id='morphing_basis_vector_2'> +1.6577329e-04 </wgt>
<wgt id='morphing_basis_vector_3'> +2.5428797e-04 </wgt>
<wgt id='morphing_basis_vector_4'> +1.5622496e-04 </wgt>
<wgt id='morphing_basis_vector_5'> +2.4848844e-04 </wgt>
</rwgt>
</event>
<event>
 4      1 +1.4786900e-06 1.03351300e+03 7.81860800e-03 8.65315700e-02
        2 -1    0    0  501    0 +0.0000000000e+00 +0.0000000000e+00 +2.9605346780e+03 2.9605346780e+03 0.0000000000e+00 0.0000e+00 1.0000e+00
       -2 -1    0    0    0  501 -0.0000000000e+00 -0.0000000000e+00 -9.0199038514e+01 9.0199038514e+01 0.0000000000e+00 0.0000e+00 -1.0000e+00
      -13  1    1    2    0    0 +2.1158097450e+02 -3.6299928633e+02 +5.4715690891e+02 6.8986641722e+02 0.0000000000e+00 0.0000e+00 -1.0000e+00
       13  1    1    2    0    0 -2.1158097450e+02 +3.6299928633e+02 +2.3231787306e+03 2.3608672993e+03 0.0000000000e+00 0.0000e+00 1.0000e+00
<mgrwt>
<rscale>  0 0.10335132E+04</rscale>
<asrwt>0</asrwt>
<pdfrwt beam="1">  1        2 0.45546680E+00 0.10335132E+04</pdfrwt>
<pdfrwt beam="2">  1       -2 0.13876777E-01 0.10335132E+04</pdfrwt>
<totfact> 0.81805877E+01</totfact>
</mgrwt>
<rwgt>
<wgt id='morphing_basis_vector_1'> +2.6404884e-04 </wgt>
<wgt id='morphing_basis_vector_2'> +1.6758128e-04 </wgt>
<wgt id='morphing_basis_vector_3'> +2.5617002e-04 </wgt>
<wgt id='morphing_basis_vector_4'> +1.5691216e-04 </wgt>
<wgt id='morphing_basis_vector_5'> +2.5020708e-04 </wgt>
</rwgt>
</event>
<event>
 4      1 +1.4786900e-06 9.03259100e+02 7.81860800e-03 8.78238000e-02
        2 -1    0    0  501    0 +0.0000000000e+00 +0.0000000000e+00 +1.9927638313e+03 1.9927638313e+03 0.0000000000e+00 0.0000e+00 1.0000e+00
       -2 -1    0    0    0  501 -0.0000000000e+00 -0.0000000000e+00 -1.0235495944e+02 1.0235495944e+02 0.0000000000e+00 0.0000e+00 -1.0000e+00
      -13  1    1    2    0    0 +1.3434600702e+02 -4.1785997624e+02 +6.9849039870e+02 8.2495129943e+02 0.0000000000e+00 0.0000e+00 -1.0000e+00
       13  1    1    2    0    0 -1.3434600702e+02 +4.1785997624e+02 +1.1919184731e+03 1.2701674913e+03 0.0000000000e+00 0.0000e+00 1.0000e+00
<mgrwt>
<rscale>  0 0.90325912E+03</rscale>
<asrwt>0</asrwt>
<pdfrwt beam="1">  1        2 0.30657902E+00 0.90325912E+03</pdfrwt>
<pdfrwt beam="2">  1       -2 0.15746918E-01 0.90325912E+03</pdfrwt>
<totfact> 0.25081815E+02</totfact>
</mgrwt>
<rwgt>
<wgt id='morphing_basis_vector_1'> +1.6284100e-04 </wgt>
<wgt id='morphing_basis_vector_2'> +1.0582463e-04 </wgt>
<wgt id='morphing_basis_vector_3'> +1.5194787e-04 </wgt>
<wgt id='morphing_basis_vector_4'> +8.4753646e-05 </wgt>
<wgt id='morphing_basis_vector_5'> +1.3871272e-04 </wgt>
</rwgt>
</event>
<event>
 4      1 +1.4786900e-06 9.96164000e+02 7.81860800e-03 8.68808900e-02
        2 -1    0    0  501    0 +0.0000000000e+00 +0.0000000000e+00 +2.9713802665e+02 2.9713802665e+02 0.0000000000e+00 0.0000e+00 -1.0000e+00
       -2 -1    0    0    0  501 -0.0000000000e+00 -0.0000000000e+00 -8.3491728072e+02 8.3491728072e+02 0.0000000000e+00 0.0000e+00 1.0000e+00
      -13  1    1    2    0    0 -8.5895018701e+01 -4.1204258129e+02 -5.7154444605e+02 7.0980285773e+02 0.0000000000e+00 0.0000e+00 1.0000e+00
       13  1    1    2    0    0 +8.5895018701e+01 +4.1204258129e+02 +3.3765191972e+01 4.2225244964e+02 0.0000000000e+00 0.0000e+00 -1.0000e+00
<mgrwt>
<rscale>  0 0.99616399E+03</rscale>
<asrwt>0</asrwt>
<pdfrwt beam="1">  1        2 0.45713542E-01 0.99616399E+03</pdfrwt>
<pdfrwt beam="2">  1       -2 0.12844881E+00 0.99616399E+03</pdfrwt>
<totfact> 0.59804835E+01</totfact>
</mgrwt>
<rwgt>
<wgt id='morphing_basis_vector_1'> +2.3059999e-04 </wgt>
<wgt id='morphing_basis_vector_2'> +1.4606454e-04 </wgt>
<wgt id='morphing_basis_vector_3'> +2.2162612e-04 </wgt>
<wgt id='morphing_basis_vector_4'> +1.3360139e-04 </wgt>
<wgt id='morphing_basis_vector_5'> +2.1330738e-04 </wgt>
</rwgt>
</event>
<event>
 4      1 +1.4786900e-06 1.05368700e+03 7.81860800e-03 8.63491900e-02
        2 -1    0    0  501    0 +0.0000000000e+00 +0.0000000000e+00 +2.7738528830e+03 2.7738528830e+03 0.0000000000e+00 0.0000e+00 1.0000e+00
       -2 -1    0    0    0  501 -0.0000000000e+00 -0.0000000000e+00 -1.0006451998e+02 1.0006451998e+02 0.0000000000e+00 0.0000e+00 -1.0000e+00
      -13  1    1    2    0    0 -3.6981406425e+02 +2.9681655883e+02 +7.1074903807e+02 8.5441600338e+02 0.0000000000e+00 0.0000e+00 -1.0000e+00
       13  1    1    2    0    0 +3.6981406425e+02 -2.9681655883e+02 +1.9630393250e+03 2.0195013996e+03 0.0000000000e+00 0.0000e+00 1.0000e+00
<mgrwt>
<rscale>  0 0.10536873E+04</rscale>
<asrwt>0</asrwt>
<pdfrwt beam="1">  1        2 0.42674654E+00 0.10536873E+04</pdfrwt>
<pdfrwt beam="2">  1       -2 0.15394544E-01 0.10536873E+04</pdfrwt>
<totfact> 0.90312995E+01</totfact>
</mgrwt>
<rwgt>
<wgt id='morphing_basis_vector_1'> +2.8465857e-04 </wgt>
<wgt id='morphing_basis_vector_2'> +1.8335663e-04 </wgt>
<wgt id='morphing_basis_vector_3'> +2.7748238e-04 </wgt>
<wgt id='morphing_basis_vector_4'> +1.6899458e-04 </wgt>
<wgt id='morphing_basis_vector_5'> +2.7187028e-04 </wgt>
</rwgt>
</event>
<event>
 4      1 +1.4786900e-06 9.75226600e+02 7.81860800e-03 8.70837600e-02
        2 -1    0    0  501    0 +0.0000000000e+00 +0.0000000000e+00 +1.0968858610e+03 1.0968858610e+03 0.0000000000e+00 0.0000e+00 -1.0000e+00
       -2 -1    0    0    0  501 -0.0000000000e+00 -0.0000000000e+00 -2.1676523788e+02 2.1676523788e+02 0.0000000000e+00 0.0000e+00 1.0000e+00
      -13  1    1    2    0    0 +1.6321899108e+02 +1.9644371074e+02 -1.1945832514e+02 2.8195897216e+02 0.0000000000e+00 0.0000e+00 1.0000e+00
       13  1    1    2    0    0 -1.6321899108e+02 -1.9644371074e+02 +9.9957894828e+02 1.0316921267e+03 0.0000000000e+00 0.0000e+00 -1.0000e+00
<mgrwt>
<rscale>  0 0.97522659E+03</rscale>
<asrwt>0</asrwt>
<pdfrwt beam="1">  1        2 0.16875167E+00 0.97522659E+03</pdfrwt>
<pdfrwt beam="2">  1       -2 0.33348499E-01 0.97522659E+03</pdfrwt>
<totfact> 0.22123895E+02</totfact>
</mgrwt>
<rwgt>
<wgt id='morphing_basis_vector_1'> +2.1251717e-04 </wgt>
<wgt id='morphing_basis_vector_2'> +1.3248389e-04 </wgt>
<wgt id='morphing_basis_vector_3'> +2.0313039e-04 </wgt>
<wgt id='morphing_basis_vector_4'> +1.2295139e-04 </wgt>
<wgt id='morphing_basis_vector_5'> +1.9452638e-04 </wgt>
</rwgt>
</event>
<event>
 4      1 +1.4786900e-06 9.69683300e+02 7.81860800e-03 8.71383500e-02
        2 -1    0    0  501    0 +0.0000000000e+00 +0.0000000000e+00 +1.2266883736e+03 1.2266883736e+03 0.0000000000e+00 0.0000e+00 -1.0000e+00
       -2 -1    0    0    0  501 -0.0000000000e+00 -0.0000000000e+00 -1.9163090856e+02 1.9163090856e+02 0.0000000000e+00 0.0000e+00 1.0000e+00
      -13  1    1    2    0    0 +2.1335674074e-01 -4.4967038994e+02 +2.5235524385e+02 5.1564200198e+02 0.0000000000e+00 0.0000e+00 1.0000e+00
       13  1    1    2    0    0 -2.1335674074e-01 +4.4967038994e+02 +7.8270222114e+02 9.0267728014e+02 0.0000000000e+00 0.0000e+00 -1.0000e+00
<mgrwt>
<rscale>  0 0.96968326E+03</rscale>
<asrwt>0</asrwt>
<pdfrwt beam="1">  1        2 0.18872128E+00 0.96968326E+03</pdfrwt>
<pdfrwt beam="2">  1       -2 0.29481679E-01 0.96968326E+03</pdfrwt>
<totfact> 0.23119804E+02</totfact>
</mgrwt>
<rwgt>
<wgt id='morphing_basis_vector_1'> +2.0972477e-04 </wgt>
<wgt id='morphing_basis_vector_2'> +1.3452869e-04 </wgt>
<wgt id='morphing_basis_vector_3'> +2.0004832e-04 </wgt>
<wgt id='morphing_basis_vector_4'> +1.1750523e-04 </wgt>
<wgt id='morphing_basis_vector_5'> +1.8960470e-04 </wgt>
</rwgt>
</event>
<event>
 4      1 +1.4786900e-06 9.20443000e+02 7.81860800e-03 8.76407000e-02
        2 -1    0    0  501    0 +0.0000000000e+00 +0.0000000000e+00 +2.0303331937e+02 2.0303331937e+02 0.0000000000e+00 0.0000e+00 -1.0000e+00
       -2 -1    0    0    0  501 -0.0000000000e+00 -0.0000000000e+00 -1.0431972914e+03 1.0431972914e+03 0.0000000000e+00 0.0000e+00 1.0000e+00
      -13  1    1    2    0    0 -3.7694192651e+02 -4.3265186470e+01 -7.7274990344e+02 8.6087136414e+02 0.0000000000e+00 0.0000e+00 1.0000e+00
       13  1    1    2    0    0 +3.7694192651e+02 +4.3265186470e+01 -6.7414068591e+01 3.8535924663e+02 0.0000000000e+00 0.0000e+00 -1.0000e+00
<mgrwt>
<rscale>  0 0.92044296E+03</rscale>
<asrwt>0</asrwt>
<pdfrwt beam="1">  1        2 0.31235896E-01 0.92044296E+03</pdfrwt>
<pdfrwt beam="2">  1       -2 0.16049189E+00 0.92044296E+03</pdfrwt>
<totfact> 0.49712252E+01</totfact>
</mgrwt>
<rwgt>
<wgt id='morphing_basis_vector_1'> +1.7242876e-04 </wgt>
<wgt id='morphing_basis_vector_2'> +1.0766561e-04 </wgt>
<wgt id='morphing_basis_vector_3'> +1.6209604e-04 </wgt>
<wgt id='morphing_basis_vector_4'> +9.4901718e-05 </wgt>
<wgt id='morphing_basis_vector_5'> +1.5091371e-04 </wgt>
</rwgt>
</event>
<event>
 4      1 +1.4786900e-06 1.05390800e+03 7.81860800e-03 8.63472200e-02
        2 -1    0    0  501    0 +0.0000000000e+00 +0.0000000000e+00 +1.5395070784e+03 1.5395070784e+03 0.0000000000e+00 0.0000e+00 1.0000e+00
       -2 -1    0    0    0  501 -0.0000000000e+00 -0.0000000000e+00 -1.8036977824e+02 1.8036977824e+02 0.0000000000e+00 0.0000e+00 -1.0000e+00
      -13  1    1    2    0    0 -6.4256095118e+01 -5.2175594810e+02 +7.3891333422e+02 9.0683572417e+02 0.0000000000e+00 0.0000e+00 1.0000e+00
       13  1    1    2    0    0 +6.4256095118e+01 +5.2175594810e+02 +6.2022396590e+02 8.1304113243e+02 0.0000000000e+00 0.0000e+00 -1.0000e+00
<mgrwt>
<rscale>  0 0.10539081E+04</rscale>
<asrwt>0</asrwt>
<pdfrwt beam="1">  1        2 0.23684723E+00 0.10539081E+04</pdfrwt>
<pdfrwt beam="2">  1       -2 0.27749198E-01 0.10539081E+04</pdfrwt>
<totfact> 0.17026570E+02</totfact>
</mgrwt>
<rwgt>
<wgt id='morphing_basis_vector_1'> +2.9615498e-04 </wgt>
<wgt id='morphing_basis_vector_2'> +2.1756010e-04 </wgt>
<wgt id='morphing_basis_vector_3'> +2.8891610e-04 </wgt>
<wgt id='morphing_basis_vector_4'> +1.5111854e-04 </wgt>
<wgt id='morphing_basis_vector_5'> +2.7099198e-04 </wgt>
</rwgt>
</event>
<event>
 4      1 +1.4786900e-06 9.90559800e+02 7.81860800e-03 8.69346800e-02
        2 -1    0    0  501    0 +0.0000000000e+00 +0.0000000000e+00 +2.7710384606e+02 2.7710384606e+02 0.0000000000e+00 0.0000e+00 -1.0000e+00
       -2 -1    0    0    0  501 -0.0000000000e+00 -0.0000000000e+00 -8.8523556980e+02 8.8523556980e+02 0.0000000000e+00 0.0000e+00 1.0000e+00
      -13  1    1    2    0    0 -6.2618313603e+01 -3.2565985216e+02 -7.3572819391e+02 8.0701385850e+02 0.0000000000e+00 0.0000e+00 1.0000e+00
       13  1    1    2    0    0 +6.2618313603e+01 +3.2565985216e+02 +1.2759647017e+02 3.5532555736e+02 0.0000000000e+00 0.0000e+00 -1.0000e+00
<mgrwt>
<rscale>  0 0.99055980E+03</rscale>
<asrwt>0</asrwt>
<pdfrwt beam="1">  1        2 0.42631361E-01 0.99055980E+03</pdfrwt>
<pdfrwt beam="2">  1       -2 0.13619009E+00 0.99055980E+03</pdfrwt>
<totfact> 0.55259980E+01</totfact>
</mgrwt>
<rwgt>
<wgt id='morphing_basis_vector_1'> +2.2522980e-04 </wgt>
<wgt id='morphing_basis_vector_2'> +1.4106662e-04 </wgt>
<wgt id='morphing_basis_vector_3'> +2.1616840e-04 </wgt>
<wgt id='morphing_basis_vector_4'> +1.3133138e-04 </wgt>
<wgt id='morphing_basis_vector_5'> +2.0819447e-04 </wgt>
</rwgt>
</event>
<event>
 4      1 +1.4786900e-06 1.02974700e+03 7.81860800e-03 8.65661000e-02
        2 -1    0    0  501    0 +0.0000000000e+00 +0.0000000000e+00 +3.4018802026e+02 3.4018802026e+02 0.0000000000e+00 0.0000e+00 -1.0000e+00
       -2 -1    0    0    0  501 -0.0000000000e+00 -0.0000000000e+00 -7.7925939619e+02 7.7925939619e+02 0.0000000000e+00 0.0000e+00 1.0000e+00
      -13  1    1    2    0    0 +4.6618569106e+02 -1.5464998144e+02 -5.1652108258e+01 4.9387615411e+02 0.0000000000e+00 0.0000e+00 1.0000e+00
       13  1    1    2    0    0 -4.6618569106e+02 +1.5464998144e+02 -3.8741926767e+02 6.2557126235e+02 0.0000000000e+00 0.0000e+00 -1.0000e+00
<mgrwt>
<rscale>  0 0.10297470E+04</rscale>
<asrwt>0</asrwt>
<pdfrwt beam="1">  1        2 0.52336619E-01 0.10297470E+04</pdfrwt>
<pdfrwt beam="2">  1       -2 0.11988606E+00 0.10297470E+04</pdfrwt>
<totfact> 0.61427288E+01</totfact>
</mgrwt>
<rwgt>
<wgt id='morphing_basis_vector_1'> +2.8567330e-04 </wgt>
<wgt id='morphing_basis_vector_2'> +2.4137857e-04 </wgt>
<wgt id='morphing_basis_vector_3'> +2.7681548e-04 </wgt>
<wgt id='morphing_basis_vector_4'> +1.1479930e-04 </wgt>
<wgt id='morphing_basis_vector_5'> +2.4386530e-04 </wgt>
</rwgt>
</event>
<event>
 4      1 +1.4786900e-06 9.80245400e+02 7.81860800e-03 8.70346500e-02
        2 -1    0    0  501    0 +0.0000000000e+00 +0.0000000000e+00 +3.6717617919e+02 3.6717617919e+02 0.0000000000e+00 0.0000e+00 1.0000e+00
       -2 -1    0    0    0  501 -0.0000000000e+00 -0.0000000000e+00 -6.5423705776e+02 6.5423705776e+02 0.0000000000e+00 0.0000e+00 -1.0000e+00
      -13  1    1    2    0    0 -1.5846780048e+02 -1.0452569035e+02 -6.1437334494e+02 6.4303364663e+02 0.0000000000e+00 0.0000e+00 -1.0000e+00
       13  1    1    2    0    0 +1.5846780048e+02 +1.0452569035e+02 +3.2731246636e+02 3.7837959032e+02 0.0000000000e+00 0.0000e+00 1.0000e+00
<mgrwt>
<rscale>  0 0.98024540E+03</rscale>
<asrwt>0</asrwt>
<pdfrwt beam="1">  1        2 0.56488643E-01 0.98024540E+03</pdfrwt>
<pdfrwt beam="2">  1       -2 0.10065185E+00 0.98024540E+03</pdfrwt>
<totfact> 0.87690810E+01</totfact>
</mgrwt>
<rwgt>
<wgt id='morphing_basis_vector_1'> +2.1653153e-04 </wgt>
<wgt id='morphing_basis_vector_2'> +1.3499327e-04 </wgt>
<wgt id='morphing_basis_vector_3'> +2.0725398e-04 </wgt>
<wgt id='morphing_basis_vector_4'> +1.2577814e-04 </wgt>
<wgt id='morphing_basis_vector_5'> +1.9893332e-04 </wgt>
</rwgt>
</event>
<event>
 4      1 +1.4786900e-06 9.63531100e+02 7.81860800e-03 8.71994000e-02
        2 -1    0    0  501    0 +0.0000000000e+00 +0.0000000000e+00 +4.8835348848e+02 4.8835348848e+02 0.0000000000e+00 0.0000e+00 1.0000e+00
       -2 -1    0    0    0  501 -0.0000000000e+00 -0.0000000000e+00 -4.7526650201e+02 4.7526650201e+02 0.0000000000e+00 0.0000e+00 -1.0000e+00
      -13  1    1    2    0    0 +1.8939460785e+01 -4.5373979986e+02 -1.5428037194e+02 4.7962583575e+02 0.0000000000e+00 0.0000e+00 -1.0000e+00
       13  1    1    2    0    0 -1.8939460785e+01 +4.5373979986e+02 +1.6736735842e+02 4.8399415474e+02 0.0000000000e+00 0.0000e+00 1.0000e+00
<mgrwt>
<rscale>  0 0.96353112E+03</rscale>
<asrwt>0</asrwt>
<pdfrwt beam="1">  1        2 0.75131306E-01 0.96353112E+03</pdfrwt>
<pdfrwt beam="2">  1       -2 0.73117923E-01 0.96353112E+03</pdfrwt>
<totfact> 0.13265373E+02</totfact>
</mgrwt>
<rwgt>
<wgt id='morphing_basis_vector_1'> +2.0519504e-04 </wgt>
<wgt id='morphing_basis_vector_2'> +1.3226520e-04 </wgt>
<wgt id='morphing_basis_vector_3'> +1.9535475e-04 </wgt>
<wgt id='morphing_basis_vector_4'> +1.1382476e-04 </wgt>
<wgt id='morphing_basis_vector_5'> +1.8437741e-04 </wgt>
</rwgt>
</event>
<event>
 4      1 +1.4786900e-06 1.01936800e+03 7.81860800e-03 8.66620400e-02
        2 -1    0    0  501    0 +0.0000000000e+00 +0.0000000000e+00 +6.5118650810e+02 6.5118650810e+02 0.0000000000e+00 0.0000e+00 -1.0000e+00
       -2 -1    0    0    0  501 -0.0000000000e+00 -0.0000000000e+00 -3.9892989122e+02 3.9892989122e+02 0.0000000000e+00 0.0000e+00 1.0000e+00
      -13  1    1    2    0    0 -2.7747332162e+02 +3.8652621374e+02 -6.2095421137e+01 4.7984351558e+02 0.0000000000e+00 0.0000e+00 1.0000e+00
       13  1    1    2    0    0 +2.7747332162e+02 -3.8652621374e+02 +3.1435203802e+02 5.7027288374e+02 0.0000000000e+00 0.0000e+00 -1.0000e+00
<mgrwt>
<rscale>  0 0.10193680E+04</rscale>
<asrwt>0</asrwt>
<pdfrwt beam="1">  1        2 0.10018254E+00 0.10193680E+04</pdfrwt>
<pdfrwt beam="2">  1       -2 0.61373829E-01 0.10193680E+04</pdfrwt>
<totfact> 0.13677568E+02</totfact>
</mgrwt>
<rwgt>
<wgt id='morphing_basis_vector_1'> +2.5236305e-04 </wgt>
<wgt id='morphing_basis_vector_2'> +1.6338167e-04 </wgt>
<wgt id='morphing_basis_vector_3'> +2.4397228e-04 </wgt>
<wgt id='morphing_basis_vector_4'> +1.4557682e-04 </wgt>
<wgt id='morphing_basis_vector_5'> +2.3559215e-04 </wgt>
</rwgt>
</event>
<event>
 4      1 +1.4786900e-06 1.02442600e+03 7.81860800e-03 8.66151300e-02
        2 -1    0    0  501    0 +0.0000000000e+00 +0.0000000000e+00 +2.1494728846e+03 2.1494728846e+03 0.0000000000e+00 0.0000e+00 1.0000e+00
       -2 -1    0    0    0  501 -0.0000000000e+00 -0.0000000000e+00 -1.2205892715e+02 1.2205892715e+02 0.0000000000e+00 0.0000e+00 -1.0000e+00
      -13  1    1    2    0    0 -2.7448786407e+02 +1.9279324424e+02 +1.8720596499e+03 1.9018728021e+03 0.0000000000e+00 0.0000e+00 1.0000e+00
       13  1    1    2    0    0 +2.7448786407e+02 -1.9279324424e+02 +1.5535430754e+02 3.6965900965e+02 0.0000000000e+00 0.0000e+00 -1.0000e+00
<mgrwt>
<rscale>  0 0.10244264E+04</rscale>
<asrwt>0</asrwt>
<pdfrwt beam="1">  1        2 0.33068811E+00 0.10244264E+04</pdfrwt>
<pdfrwt beam="2">  1       -2 0.18778298E-01 0.10244264E+04</pdfrwt>
<totfact> 0.15195925E+02</totfact>
</mgrwt>
<rwgt>
<wgt id='morphing_basis_vector_1'> +3.3414269e-04 </wgt>
<wgt id='morphing_basis_vector_2'> +3.9973067e-04 </wgt>
<wgt id='morphing_basis_vector_3'> +3.2280237e-04 </wgt>
<wgt id='morphing_basis_vector_4'> +2.7639656e-05 </wgt>
<wgt id='morphing_basis_vector_5'> +2.3332147e-04 </wgt>
</rwgt>
</event>
<event>
 4      1 +1.4786900e-06 1.04327500e+03 7.81860800e-03 8.64427800e-02
        2 -1    0    0  501    0 +0.0000000000e+00 +0.0000000000e+00 +1.4411867336e+03 1.4411867336e+03 0.0000000000e+00 0.0000e+00 1.0000e+00
       -2 -1    0    0    0  501 -0.0000000000e+00 -0.0000000000e+00 -1.8880676712e+02 1.8880676712e+02 0.0000000000e+00 0.0000e+00 -1.0000e+00
      -13  1    1    2    0    0 -7.8519374506e+01 -5.0326759344e+02 +8.0199948008e+02 9.5007722256e+02 0.0000000000e+00 0.0000e+00 -1.0000e+00
       13  1    1    2    0    0 +7.8519374506e+01 +5.0326759344e+02 +4.5038048642e+02 6.7991627818e+02 0.0000000000e+00 0.0000e+00 1.0000e+00
<mgrwt>
<rscale>  0 0.10432752E+04</rscale>
<asrwt>0</asrwt>
<pdfrwt beam="1">  1        2 0.22172103E+00 0.10432752E+04</pdfrwt>
<pdfrwt beam="2">  1       -2 0.29047196E-01 0.10432752E+04</pdfrwt>
<totfact> 0.17841533E+02</totfact>
</mgrwt>
<rwgt>
<wgt id='morphing_basis_vector_1'> +2.9333921e-04 </wgt>
<wgt id='morphing_basis_vector_2'> +2.3391159e-04 </wgt>
<wgt id='morphing_basis_vector_3'> +2.8542751e-04 </wgt>
<wgt id='morphing_basis_vector_4'> +1.3175149e-04 </wgt>
<wgt id='morphing_basis_vector_5'> +2.5861377e-04 </wgt>
</rwgt>
</event>
<event>
 4      1 +1.4786900e-06 9.36468500e+02 7.81860800e-03 8.74736800e-02
        2 -1    0    0  501    0 +0.0000000000e+00 +0.0000000000e+00 +4.8397643968e+02 4.8397643968e+02 0.0000000000e+00 0.0000e+00 -1.0000e+00
       -2 -1    0    0    0  501 -0.0000000000e+00 -0.0000000000e+00 -4.5300409805e+02 4.5300409805e+02 0.0000000000e+00 0.0000e+00 1.0000e+00
      -13  1    1    2    0    0 -1.2905122566e+02 -4.0440256112e+02 +2.1319902554e+02 4.7502576222e+02 0.0000000000e+00 0.0000e+00 1.0000e+00
       13  1    1    2    0    0 +1.2905122566e+02 +4.0440256112e+02 -1.8222668391e+02 4.6195477551e+02 0.0000000000e+00 0.0000e+00 -1.0000e+00
<mgrwt>
<rscale>  0 0.93646850E+03</rscale>
<asrwt>0</asrwt>
<pdfrwt beam="1">  1        2 0.74457913E-01 0.93646850E+03</pdfrwt>
<pdfrwt beam="2">  1       -2 0.69692939E-01 0.93646850E+03</pdfrwt>
<totfact> 0.14887665E+02</totfact>
</mgrwt>
<rwgt>
<wgt id='morphing_basis_vector_1'> +2.0955514e-04 </wgt>
<wgt id='morphing_basis_vector_2'> +1.9369415e-04 </wgt>
<wgt id='morphing_basis_vector_3'> +1.9533376e-04 </wgt>
<wgt id='morphing_basis_vector_4'> +6.4231181e-05 </wgt>
<wgt id='morphing_basis_vector_5'> +1.6071415e-04 </wgt>
</rwgt>
</event>
<event>
 4      1 +1.4786900e-06 9.79783400e+02 7.81860800e-03 8.70391600e-02
        2 -1    0    0  501    0 +0.0000000000e+00 +0.0000000000e+00 +1.7729134826e+03 1.7729134826e+03 0.0000000000e+00 0.0000e+00 -1.0000e+00
       -2 -1    0    0    0  501 -0.0000000000e+00 -0.0000000000e+00 -1.3536693311e+02 1.3536693311e+02 0.0000000000e+00 0.0000e+00 1.0000e+00
      -13  1    1    2    0    0 +3.4197952830e+02 -1.0928730343e+02 +1.6958681833e+02 3.9705591724e+02 0.0000000000e+00 0.0000e+00 1.0000e+00
       13  1    1    2    0    0 -3.4197952830e+02 +1.0928730343e+02 +1.4679597311e+03 1.5112244984e+03 0.0000000000e+00 0.0000e+00 -1.0000e+00
<mgrwt>
<rscale>  0 0.97978337E+03</rscale>
<asrwt>0</asrwt>
<pdfrwt beam="1">  1        2 0.27275590E+00 0.97978337E+03</pdfrwt>
<pdfrwt beam="2">  1       -2 0.20825683E-01 0.97978337E+03</pdfrwt>
<totfact> 0.20779911E+02</totfact>
</mgrwt>
<rwgt>
<wgt id='morphing_basis_vector_1'> +2.1644987e-04 </wgt>
<wgt id='morphing_basis_vector_2'> +1.3564073e-04 </wgt>
<wgt id='morphing_basis_vector_3'> +2.0713398e-04 </wgt>
<wgt id='morphing_basis_vector_4'> +1.2507393e-04 </wgt>
<wgt id='morphing_basis_vector_5'> +1.9849878e-04 </wgt>
</rwgt>
</event>
<event>
 4      1 +1.4786900e-06 1.03549700e+03 7.81860800e-03 8.65134500e-02
        2 -1    0    0  501    0 +0.0000000000e+00 +0.0000000000e+00 +3.9887383018e+02 3.9887383018e+02 0.0000000000e+00 0.0000e+00 1.0000e+00
       -2 -1    0    0    0  501 -0.0000000000e+00 -0.0000000000e+00 -6.7205055239e+02 6.7205055239e+02 0.0000000000e+00 0.0000e+00 -1.0000e+00
      -13  1    1    2    0    0 +5.2664110467e+01 -4.0058852471e+02 -4.7142229034e+02 6.2087329664e+02 0.0000000000e+00 0.0000e+00 -1.0000e+00
       13  1    1    2    0    0 -5.2664110467e+01 +4.0058852471e+02 +1.9824556813e+02 4.5005108593e+02 0.0000000000e+00 0.0000e+00 1.0000e+00
<mgrwt>
<rscale>  0 0.10354967E+04</rscale>
<asrwt>0</asrwt>
<pdfrwt beam="1">  1        2 0.61365205E-01 0.10354967E+04</pdfrwt>
<pdfrwt beam="2">  1       -2 0.10339239E+00 0.10354967E+04</pdfrwt>
<totfact> 0.74512244E+01</totfact>
</mgrwt>
<rwgt>
<wgt id='morphing_basis_vector_1'> +2.6576334e-04 </wgt>
<wgt id='morphing_basis_vector_2'> +1.6830224e-04 </wgt>
<wgt id='morphing_basis_vector_3'> +2.5795488e-04 </wgt>
<wgt id='morphing_basis_vector_4'> +1.5848257e-04 </wgt>
<wgt id='morphing_basis_vector_5'> +2.5230438e-04 </wgt>
</rwgt>
</event>
<event>
 4      1 +1.4786900e-06 1.05466400e+03 7.81860800e-03 8.63404700e-02
        2 -1    0    0  501    0 +0.0000000000e+00 +0.0000000000e+00 +1.1738888799e+03 1.1738888799e+03 0.0000000000e+00 0.0000e+00 -1.0000e+00
       -2 -1    0    0    0  501 -0.0000000000e+00 -0.0000000000e+00 -2.3688681436e+02 2.3688681436e+02 0.0000000000e+00 0.0000e+00 1.0000e+00
      -13  1    1    2    0    0 +4.1724367013e+01 +5.0837824050e+02 +2.8958782799e+02 5.8655815427e+02 0.0000000000e+00 0.0000e+00 1.0000e+00
       13  1    1    2    0    0 -4.1724367013e+01 -5.0837824050e+02 +6.4741423753e+02 8.2421753996e+02 0.0000000000e+00 0.0000e+00 -1.0000e+00
<mgrwt>
<rscale>  0 0.10546635E+04</rscale>
<asrwt>0</asrwt>
<pdfrwt beam="1">  1        2 0.18059829E+00 0.10546635E+04</pdfrwt>
<pdfrwt beam="2">  1       -2 0.36444126E-01 0.10546635E+04</pdfrwt>
<totfact> 0.16866038E+02</totfact>
</mgrwt>
<rwgt>
<wgt id='morphing_basis_vector_1'> +2.8777941e-04 </wgt>
<wgt id='morphing_basis_vector_2'> +1.9046905e-04 </wgt>
<wgt id='morphing_basis_vector_3'> +2.8062916e-04 </wgt>
<wgt id='morphing_basis_vector_4'> +1.6624677e-04 </wgt>
<wgt id='morphing_basis_vector_5'> +2.7274324e-04 </wgt>
</rwgt>
</event>
<event>
 4      1 +1.4786900e-06 1.01441000e+03 7.81860800e-03 8.67082900e-02
        2 -1    0    0  501    0 +0.0000000000e+00 +0.0000000000e+00 +7.2941058238e+02 7.2941058238e+02 0.0000000000e+00 0.0000e+00 1.0000e+00
       -2 -1    0    0    0  501 -0.0000000000e+00 -0.0000000000e+00 -3.5269119925e+02 3.5269119925e+02 0.0000000000e+00 0.0000e+00 -1.0000e+00
      -13  1    1    2    0    0 +4.4617491273e+02 +1.1548981885e+01 +4.4537595492e+02 6.3052769404e+02 0.0000000000e+00 0.0000e+00 1.0000e+00
       13  1    1    2    0    0 -4.4617491273e+02 -1.1548981885e+01 -6.8656571797e+01 4.5157408759e+02 0.0000000000e+00 0.0000e+00 -1.0000e+00
<mgrwt>
<rscale>  0 0.10144096E+04</rscale>
<asrwt>0</asrwt>
<pdfrwt beam="1">  1        2 0.11221701E+00 0.10144096E+04</pdfrwt>
<pdfrwt beam="2">  1       -2 0.54260185E-01 0.10144096E+04</pdfrwt>
<totfact> 0.15296612E+02</totfact>
</mgrwt>
<rwgt>
<wgt id='morphing_basis_vector_1'> +2.8722608e-04 </wgt>
<wgt id='morphing_basis_vector_2'> +2.7951458e-04 </wgt>
<wgt id='morphing_basis_vector_3'> +2.7661570e-04 </wgt>
<wgt id='morphing_basis_vector_4'> +8.1122549e-05 </wgt>
<wgt id='morphing_basis_vector_5'> +2.2696194e-04 </wgt>
</rwgt>
</event>
<event>
 4      1 +1.4786900e-06 9.02048800e+02 7.81860800e-03 8.78368600e-02
        2 -1    0    0  501    0 +0.0000000000e+00 +0.0000000000e+00 +1.0557129986e+03 1.0557129986e+03 0.0000000000e+00 0.0000e+00 1.0000e+00
       -2 -1    0    0    0  501 -0.0000000000e+00 -0.0000000000e+00 -1.9268781218e+02 1.9268781218e+02 0.0000000000e+00 0.0000e+00 -1.0000e+00
      -13  1    1    2    0    0 +5.2522553207e+01 -3.6102773976e+02 +7.9851918007e+02 8.7791373632e+02 0.0000000000e+00 0.0000e+00 1.0000e+00
       13  1    1    2    0    0 -5.2522553207e+01 +3.6102773976e+02 +6.4506006332e+01 3.7048707444e+02 0.0000000000e+00 0.0000e+00 -1.0000e+00
<mgrwt>
<rscale>  0 0.90204884E+03</rscale>
<asrwt>0</asrwt>
<pdfrwt beam="1">  1        2 0.16241738E+00 0.90204884E+03</pdfrwt>
<pdfrwt beam="2">  1       -2 0.29644279E-01 0.90204884E+03</pdfrwt>
<totfact> 0.29020222E+02</totfact>
</mgrwt>
<rwgt>
<wgt id='morphing_basis_vector_1'> +1.9567508e-04 </wgt>
<wgt id='morphing_basis_vector_2'> +2.0762471e-04 </wgt>
<wgt id='morphing_basis_vector_3'> +1.7765008e-04 </wgt>
<wgt id='morphing_basis_vector_4'> +3.6342868e-05 </wgt>
<wgt id='morphing_basis_vector_5'> +1.3535269e-04 </wgt>
</rwgt>
</event>
<event>
 4      1 +1.4786900e-06 9.75627000e+02 7.81860800e-03 8.70798300e-02
        2 -1    0    0  501    0 +0.0000000000e+00 +0.0000000000e+00 +6.1695220599e+02 6.1695220599e+02 0.0000000000e+00 0.0000e+00 -1.0000e+00
       -2 -1    0    0    0  501 -0.0000000000e+00 -0.0000000000e+00 -3.8570573118e+02 3.8570573118e+02 0.0000000000e+00 0.0000e+00 1.0000e+00
      -13  1    1    2    0    0 +3.4183718270e+02 +1.0200502630e+01 -2.4187275336e+02 4.1887842931e+02 0.0000000000e+00 0.0000e+00 1.0000e+00
       13  1    1    2    0    0 -3.4183718270e+02 -1.0200502630e+01 +4.7311922817e+02 5.8377950786e+02 0.0000000000e+00 0.0000e+00 -1.0000e+00
<mgrwt>
<rscale>  0 0.97562698E+03</rscale>
<asrwt>0</asrwt>
<pdfrwt beam="1">  1        2 0.94915724E-01 0.97562698E+03</pdfrwt>
<pdfrwt beam="2">  1       -2 0.59339343E-01 0.97562698E+03</pdfrwt>
<totfact> 0.15677152E+02</totfact>
</mgrwt>
<rwgt>
<wgt id='morphing_basis_vector_1'> +2.1302003e-04 </wgt>
<wgt id='morphing_basis_vector_2'> +1.3324277e-04 </wgt>
<wgt id='morphing_basis_vector_3'> +2.0362289e-04 </wgt>
<wgt id='morphing_basis_vector_4'> +1.2289482e-04 </wgt>
<wgt id='morphing_basis_vector_5'> +1.9485902e-04 </wgt>
</rwgt>
</event>
<event>
 4      1 +1.4786900e-06 9.94018400e+02 7.81860800e-03 8.69014400e-02
        2 -1    0    0  501    0 +0.0000000000e+00 +0.0000000000e+00 +1.6419450377e+03 1.6419450377e+03 0.0000000000e+00 0.0000e+00 1.0000e+00
       -2 -1    0    0    0  501 -0.0000000000e+00 -0.0000000000e+00 -1.5044240640e+02 1.5044240640e+02 0.0000000000e+00 0.0000e+00 -1.0000e+00
      -13  1    1    2    0    0 +1.0628451568e+02 -4.4177747482e+02 +1.1088766830e+03 1.1983618959e+03 0.0000000000e+00 0.0000e+00 1.0000e+00
       13  1    1    2    0    0 -1.0628451568e+02 +4.4177747482e+02 +3.8262594825e+02 5.9402554811e+02 0.0000000000e+00 0.0000e+00 -1.0000e+00
<mgrwt>
<rscale>  0 0.99401844E+03</rscale>
<asrwt>0</asrwt>
<pdfrwt beam="1">  1        2 0.25260692E+00 0.99401844E+03</pdfrwt>
<pdfrwt beam="2">  1       -2 0.23144987E-01 0.99401844E+03</pdfrwt>
<totfact> 0.20512906E+02</totfact>
</mgrwt>
<rwgt>
<wgt id='morphing_basis_vector_1'> +2.5938244e-04 </wgt>
<wgt id='morphing_basis_vector_2'> +2.3757816e-04 </wgt>
<wgt id='morphing_basis_vector_3'> +2.4796336e-04 </wgt>
<wgt id='morphing_basis_vector_4'> +8.5277294e-05 </wgt>
<wgt id='morphing_basis_vector_5'> +2.0852848e-04 </wgt>
</rwgt>
</event>
<event>
 4      1 +1.4786900e-06 9.69616900e+02 7.81860800e-03 8.71390100e-02
        2 -1    0    0  501    0 +0.0000000000e+00 +0.0000000000e+00 +1.1229278842e+03 1.1229278842e+03 0.0000000000e+00 0.0000e+00 1.0000e+00
       -2 -1    0    0    0  501 -0.0000000000e+00 -0.0000000000e+00 -2.0930929973e+02 2.0930929973e+02 0.0000000000e+00 0.0000e+00 -1.0000e+00
      -13  1    1    2    0    0 +2.1336896935e+02 +1.2301670197e+02 +1.0305682463e+03 1.0595897019e+03 0.0000000000e+00 0.0000e+00 1.0000e+00
       13  1    1    2    0    0 -2.1336896935e+02 -1.2301670197e+02 -1.1694966186e+02 2.7264748202e+02 0.0000000000e+00 0.0000e+00 -1.0000e+00
<mgrwt>
<rscale>  0 0.96961693E+03</rscale>
<asrwt>0</asrwt>
<pdfrwt beam="1">  1        2 0.17275813E+00 0.96961693E+03</pdfrwt>
<pdfrwt beam="2">  1       -2 0.32201431E-01 0.96961693E+03</pdfrwt>
<totfact> 0.22737101E+02</totfact>
</mgrwt>
<rwgt>
<wgt id='morphing_basis_vector_1'> +2.8049915e-04 </wgt>
<wgt id='morphing_basis_vector_2'> +3.4927761e-04 </wgt>
<wgt id='morphing_basis_vector_3'> +2.6298957e-04 </wgt>
<wgt id='morphing_basis_vector_4'> +1.0472493e-05 </wgt>
<wgt id='morphing_basis_vector_5'> +1.8336581e-04 </wgt>
</rwgt>
</event>
<event>
 4      1 +1.4786900e-06 1.03350600e+03 7.81860800e-03 8.65316400e-02
        2 -1    0    0  501    0 +0.0000000000e+00 +0.0000000000e+00 +1.7879982119e+03 1.7879982119e+03 0.0000000000e+00 0.0000e+00 -1.0000e+00
       -2 -1    0    0    0  501 -0.0000000000e+00 -0.0000000000e+00 -1.4934781009e+02 1.4934781009e+02 0.0000000000e+00 0.0000e+00 1.0000e+00
      -13  1    1    2    0    0 +3.3096275402e+02 +1.8406718763e+02 +1.6025370739e+02 4.1121566707e+02 0.0000000000e+00 0.0000e+00 1.0000e+00
       13  1    1    2    0    0 -3.3096275402e+02 -1.8406718763e+02 +1.4783966944e+03 1.5261303549e+03 0.0000000000e+00 0.0000e+00 -1.0000e+00
<mgrwt>
<rscale>  0 0.10335059E+04</rscale>
<asrwt>0</asrwt>
<pdfrwt beam="1">  1        2 0.27507663E+00 0.10335059E+04</pdfrwt>
<pdfrwt beam="2">  1       -2 0.22976587E-01 0.10335059E+04</pdfrwt>
<totfact> 0.17199590E+02</totfact>
</mgrwt>
<rwgt>
<wgt id='morphing_basis_vector_1'> +2.6369506e-04 </wgt>
<wgt id='morphing_basis_vector_2'> +1.6652801e-04 </wgt>
<wgt id='morphing_basis_vector_3'> +2.5582626e-04 </wgt>
<wgt id='morphing_basis_vector_4'> +1.5745523e-04 </wgt>
<wgt id='morphing_basis_vector_5'> +2.5023307e-04 </wgt>
</rwgt>
</event>
<event>
 4      1 +1.4786900e-06 9.41015400e+02 7.81860800e-03 8.74269200e-02
        2 -1    0    0  501    0 +0.0000000000e+00 +0.0000000000e+00 +2.7184103683e+02 2.7184103683e+02 0.0000000000e+00 0.0000e+00 1.0000e+00
       -2 -1    0    0    0  501 -0.0000000000e+00 -0.0000000000e+00 -8.1436379301e+02 8.1436379301e+02 0.0000000000e+00 0.0000e+00 -1.0000e+00
      -13  1    1    2    0    0 +1.8261077076e+02 +2.0839610384e+02 -7.1019813300e+02 7.6233655154e+02 0.0000000000e+00 0.0000e+00 -1.0000e+00
       13  1    1    2    0    0 -1.8261077076e+02 -2.0839610384e+02 +1.6767537682e+02 3.2386827829e+02 0.0000000000e+00 0.0000e+00 1.0000e+00
<mgrwt>
<rscale>  0 0.94101540E+03</rscale>
<asrwt>0</asrwt>
<pdfrwt beam="1">  1        2 0.41821699E-01 0.94101540E+03</pdfrwt>
<pdfrwt beam="2">  1       -2 0.12528673E+00 0.94101540E+03</pdfrwt>
<totfact> 0.70890523E+01</totfact>
</mgrwt>
<rwgt>
<wgt id='morphing_basis_vector_1'> +1.8644893e-04 </wgt>
<wgt id='morphing_basis_vector_2'> +1.1567740e-04 </wgt>
<wgt id='morphing_basis_vector_3'> +1.7645989e-04 </wgt>
<wgt id='morphing_basis_vector_4'> +1.0522241e-04 </wgt>
<wgt id='morphing_basis_vector_5'> +1.6637403e-04 </wgt>
</rwgt>
</event>
<event>
 4      1 +1.4786900e-06 9.81170900e+02 7.81860800e-03 8.70256300e-02
        2 -1    0    0  501    0 +0.0000000000e+00 +0.0000000000e+00 +2.1929318881e+03 2.1929318881e+03 0.0000000000e+00 0.0000e+00 1.0000e+00
       -2 -1    0    0    0  501 -0.0000000000e+00 -0.0000000000e+00 -1.0974992279e+02 1.0974992279e+02 0.0000000000e+00 0.0000e+00 -1.0000e+00
      -13  1    1    2    0    0 -4.4618376500e+02 -1.0232609075e+02 +6.2755924167e+02 7.7677614717e+02 0.0000000000e+00 0.0000e+00 -1.0000e+00
       13  1    1    2    0    0 +4.4618376500e+02 +1.0232609075e+02 +1.4556227236e+03 1.5259056637e+03 0.0000000000e+00 0.0000e+00 1.0000e+00
<mgrwt>
<rscale>  0 0.98117094E+03</rscale>
<asrwt>0</asrwt>
<pdfrwt beam="1">  1        2 0.33737410E+00 0.98117094E+03</pdfrwt>
<pdfrwt beam="2">  1       -2 0.16884605E-01 0.98117094E+03</pdfrwt>
<totfact> 0.17178872E+02</totfact>
</mgrwt>
<rwgt>
<wgt id='morphing_basis_vector_1'> +2.1913413e-04 </wgt>
<wgt id='morphing_basis_vector_2'> +1.4108492e-04 </wgt>
<wgt id='morphing_basis_vector_3'> +2.0970094e-04 </wgt>
<wgt id='morphing_basis_vector_4'> +1.2347630e-04 </wgt>
<wgt id='morphing_basis_vector_5'> +1.9958849e-04 </wgt>
</rwgt>
</event>
<event>
 4      1 +1.4786900e-06 9.43950300e+02 7.81860800e-03 8.73968900e-02
        2 -1    0    0  501    0 +0.0000000000e+00 +0.0000000000e+00 +1.4597871033e+03 1.4597871033e+03 0.0000000000e+00 0.0000e+00 -1.0000e+00
       -2 -1    0    0    0  501 -0.0000000000e+00 -0.0000000000e+00 -1.5259795048e+02 1.5259795048e+02 0.0000000000e+00 0.0000e+00 1.0000e+00
      -13  1    1    2    0    0 -1.7688637565e+02 +2.6862483331e+02 +6.3580327020e+01 3.2785751317e+02 0.0000000000e+00 0.0000e+00 1.0000e+00
       13  1    1    2    0    0 +1.7688637565e+02 -2.6862483331e+02 +1.2436088258e+03 1.2845275406e+03 0.0000000000e+00 0.0000e+00 -1.0000e+00
<mgrwt>
<rscale>  0 0.94395025E+03</rscale>
<asrwt>0</asrwt>
<pdfrwt beam="1">  1        2 0.22458262E+00 0.94395025E+03</pdfrwt>
<pdfrwt beam="2">  1       -2 0.23476609E-01 0.94395025E+03</pdfrwt>
<totfact> 0.25351854E+02</totfact>
</mgrwt>
<rwgt>
<wgt id='morphing_basis_vector_1'> +1.8868037e-04 </wgt>
<wgt id='morphing_basis_vector_2'> +1.1734722e-04 </wgt>
<wgt id='morphing_basis_vector_3'> +1.7872077e-04 </wgt>
<wgt id='morphing_basis_vector_4'> +1.0652054e-04 </wgt>
<wgt id='morphing_basis_vector_5'> +1.6865662e-04 </wgt>
</rwgt>
</event>
<event>
 4      1 +1.4786900e-06 9.94556400e+02 7.81860800e-03 8.68962900e-02
        2 -1    0    0  501    0 +0.0000000000e+00 +0.0000000000e+00 +1.0482944498e+03 1.0482944498e+03 0.0000000000e+00 0.0000e+00 -1.0000e+00
       -2 -1    0    0    0  501 -0.0000000000e+00 -0.0000000000e+00 -2.3589327174e+02 2.3589327174e+02 0.0000000000e+00 0.0000e+00 1.0000e+00
      -13  1    1    2    0    0 +4.6615991349e+02 -1.7263803052e+02 +3.8903891749e+02 6.3123706628e+02 0.0000000000e+00 0.0000e+00 1.0000e+00
       13  1    1    2    0    0 -4.6615991349e+02 +1.7263803052e+02 +4.2336226057e+02 6.5295065526e+02 0.0000000000e+00 0.0000e+00 -1.0000e+00
<mgrwt>
<rscale>  0 0.99455640E+03</rscale>
<asrwt>0</asrwt>
<pdfrwt beam="1">  1        2 0.16127607E+00 0.99455640E+03</pdfrwt>
<pdfrwt beam="2">  1       -2 0.36291273E-01 0.99455640E+03</pdfrwt>
<totfact> 0.20282715E+02</totfact>
</mgrwt>
<rwgt>
<wgt id='morphing_basis_vector_1'> +2.3581439e-04 </wgt>
<wgt id='morphing_basis_vector_2'> +1.6510843e-04 </wgt>
<wgt id='morphing_basis_vector_3'> +2.2629022e-04 </wgt>
<wgt id='morphing_basis_vector_4'> +1.2253889e-04 </wgt>
<wgt id='morphing_basis_vector_5'> +2.1121462e-04 </wgt>
</rwgt>
</event>
<event>
 4      1 +1.4786900e-06 9.53423000e+02 7.81860800e-03 8.73007300e-02
        2 -1    0    0  501    0 +0.0000000000e+00 +0.0000000000e+00 +3.7346817803e+02 3.7346817803e+02 0.0000000000e+00 0.0000e+00 -1.0000e+00
       -2 -1    0    0    0  501 -0.0000000000e+00 -0.0000000000e+00 -6.0849586939e+02 6.0849586939e+02 0.0000000000e+00 0.0000e+00 1.0000e+00
      -13  1    1    2    0    0 +1.5243748530e+02 +3.9549841521e+02 +1.0718600073e+02 4.3720135191e+02 0.0000000000e+00 0.0000e+00 -1.0000e+00
       13  1    1    2    0    0 -1.5243748530e+02 -3.9549841521e+02 -3.4221369209e+02 5.4476269551e+02 0.0000000000e+00 0.0000e+00 1.0000e+00
<mgrwt>
<rscale>  0 0.95342298E+03</rscale>
<asrwt>0</asrwt>
<pdfrwt beam="1">  1        2 0.57456643E-01 0.95342298E+03</pdfrwt>
<pdfrwt beam="2">  1       -2 0.93614748E-01 0.95342298E+03</pdfrwt>
<totfact> 0.10242612E+02</totfact>
</mgrwt>
<rwgt>
<wgt id='morphing_basis_vector_1'> +2.2688554e-04 </wgt>
<wgt id='morphing_basis_vector_2'> +2.1652406e-04 </wgt>
<wgt id='morphing_basis_vector_3'> +2.1292282e-04 </wgt>
<wgt id='morphing_basis_vector_4'> +6.4757086e-05 </wgt>
<wgt id='morphing_basis_vector_5'> +1.7356745e-04 </wgt>
</rwgt>
</event>
<event>
 4      1 +1.4786900e-06 1.06730700e+03 7.81860800e-03 8.62284300e-02
        2 -1    0    0  501    0 +0.0000000000e+00 +0.0000000000e+00 +1.1369722695e+03 1.1369722695e+03 0.0000000000e+00 0.0000e+00 -1.0000e+00
       -2 -1    0    0    0  501 -0.0000000000e+00 -0.0000000000e+00 -2.5047779220e+02 2.5047779220e+02 0.0000000000e+00 0.0000e+00 1.0000e+00
      -13  1    1    2    0    0 -2.4543777581e+02 -4.3770907204e+02 +2.0725153788e+02 5.4293842514e+02 0.0000000000e+00 0.0000e+00 1.0000e+00
       13  1    1    2    0    0 +2.4543777581e+02 +4.3770907204e+02 +6.7924293943e+02 8.4451163658e+02 0.0000000000e+00 0.0000e+00 -1.0000e+00
<mgrwt>
<rscale>  0 0.10673075E+04</rscale>
<asrwt>0</asrwt>
<pdfrwt beam="1">  1        2 0.17491881E+00 0.10673075E+04</pdfrwt>
<pdfrwt beam="2">  1       -2 0.38535045E-01 0.10673075E+04</pdfrwt>
<totfact> 0.15988133E+02</totfact>
</mgrwt>
<rwgt>
<wgt id='morphing_basis_vector_1'> +2.9961027e-04 </wgt>
<wgt id='morphing_basis_vector_2'> +1.9567525e-04 </wgt>
<wgt id='morphing_basis_vector_3'> +2.9298786e-04 </wgt>
<wgt id='morphing_basis_vector_4'> +1.7694088e-04 </wgt>
<wgt id='morphing_basis_vector_5'> +2.8721327e-04 </wgt>
</rwgt>
</event>
<event>
 4      1 +1.4786900e-06 9.62629100e+02 7.81860800e-03 8.72083900e-02
        2 -1    0    0  501    0 +0.0000000000e+00 +0.0000000000e+00 +3.7526494455e+02 3.7526494455e+02 0.0000000000e+00 0.0000e+00 -1.0000e+00
       -2 -1    0    0    0  501 -0.0000000000e+00 -0.0000000000e+00 -6.1733368628e+02 6.1733368628e+02 0.0000000000e+00 0.0000e+00 1.0000e+00
      -13  1    1    2    0    0 -2.6297592569e+02 +2.9115068039e+02 -4.0853125767e+02 5.6641225682e+02 0.0000000000e+00 0.0000e+00 1.0000e+00
       13  1    1    2    0    0 +2.6297592569e+02 -2.9115068039e+02 +1.6646251594e+02 4.2618637402e+02 0.0000000000e+00 0.0000e+00 -1.0000e+00
<mgrwt>
<rscale>  0 0.96262909E+03</rscale>
<asrwt>0</asrwt>
<pdfrwt beam="1">  1        2 0.57733068E-01 0.96262909E+03</pdfrwt>
<pdfrwt beam="2">  1       -2 0.94974413E-01 0.96262909E+03</pdfrwt>
<totfact> 0.98406796E+01</totfact>
</mgrwt>
<rwgt>
<wgt id='morphing_basis_vector_1'> +2.0310931e-04 </wgt>
<wgt id='morphing_basis_vector_2'> +1.2760368e-04 </wgt>
<wgt id='morphing_basis_vector_3'> +1.9341696e-04 </wgt>
<wgt id='morphing_basis_vector_4'> +1.1543791e-04 </wgt>
<wgt id='morphing_basis_vector_5'> +1.8374298e-04 </wgt>
</rwgt>
</event>
<event>
 4      1 +1.4786900e-06 1.05965200e+03 7.81860800e-03 8.62960700e-02
        2 -1    0    0  501    0 +0.0000000000e+00 +0.0000000000e+00 +1.4588367299e+03 1.4588367299e+03 0.0000000000e+00 0.0000e+00 1.0000e+00
       -2 -1    0    0    0  501 -0.0000000000e+00 -0.0000000000e+00 -1.9242422073e+02 1.9242422073e+02 0.0000000000e+00 0.0000e+00 -1.0000e+00
      -13  1    1    2    0    0 +1.2916367452e+02 -5.0235081553e+02 +4.6482329581e+02 6.9649141632e+02 0.0000000000e+00 0.0000e+00 -1.0000e+00
       13  1    1    2    0    0 -1.2916367452e+02 +5.0235081553e+02 +8.0158921338e+02 9.5476953433e+02 0.0000000000e+00 0.0000e+00 1.0000e+00
<mgrwt>
<rscale>  0 0.10596519E+04</rscale>
<asrwt>0</asrwt>
<pdfrwt beam="1">  1        2 0.22443641E+00 0.10596519E+04</pdfrwt>
<pdfrwt beam="2">  1       -2 0.29603727E-01 0.10596519E+04</pdfrwt>
<totfact> 0.16847016E+02</totfact>
</mgrwt>
<rwgt>
<wgt id='morphing_basis_vector_1'> +2.9375739e-04 </wgt>
<wgt id='morphing_basis_vector_2'> +1.9660318e-04 </wgt>
<wgt id='morphing_basis_vector_3'> +2.8681474e-04 </wgt>
<wgt id='morphing_basis_vector_4'> +1.6823566e-04 </wgt>
<wgt id='morphing_basis_vector_5'> +2.7825031e-04 </wgt>
</rwgt>
</event>
<event>
 4      1 +1.4786900e-06 1.01848000e+03 7.81860800e-03 8.66703000e-02
        2 -1    0    0  501    0 +0.0000000000e+00 +0.0000000000e+00 +6.1905449060e+02 6.1905449060e+02 0.0000000000e+00 0.0000e+00 -1.0000e+00
       -2 -1    0    0    0  501 -0.0000000000e+00 -0.0000000000e+00 -4.1890546737e+02 4.1890546737e+02 0.0000000000e+00 0.0000e+00 1.0000e+00
      -13  1    1    2    0    0 -2.4111278269e+02 +2.3377680875e+02 -2.9005049141e+02 4.4375247363e+02 0.0000000000e+00 0.0000e+00 1.0000e+00
       13  1    1    2    0    0 +2.4111278269e+02 -2.3377680875e+02 +4.9019951465e+02 5.9420748434e+02 0.0000000000e+00 0.0000e+00 -1.0000e+00
<mgrwt>
<rscale>  0 0.10184799E+04</rscale>
<asrwt>0</asrwt>
<pdfrwt beam="1">  1        2 0.95239152E-01 0.10184799E+04</pdfrwt>
<pdfrwt beam="2">  1       -2 0.64446995E-01 0.10184799E+04</pdfrwt>
<totfact> 0.13131415E+02</totfact>
</mgrwt>
<rwgt>
<wgt id='morphing_basis_vector_1'> +2.4959366e-04 </wgt>
<wgt id='morphing_basis_vector_2'> +1.5691905e-04 </wgt>
<wgt id='morphing_basis_vector_3'> +2.4126803e-04 </wgt>
<wgt id='morphing_basis_vector_4'> +1.4809056e-04 </wgt>
<wgt id='morphing_basis_vector_5'> +2.3489019e-04 </wgt>
</rwgt>
</event>
<event>
 4      1 +1.4786900e-06 1.05776400e+03 7.81860800e-03 8.63128500e-02
        2 -1    0    0  501    0 +0.0000000000e+00 +0.0000000000e+00 +1.9488481852e+03 1.9488481852e+03 0.0000000000e+00 0.0000e+00 1.0000e+00
       -2 -1    0    0    0  501 -0.0000000000e+00 -0.0000000000e+00 -1.4352893299e+02 1.4352893299e+02 0.0000000000e+00 0.0000e+00 -1.0000e+00
      -13  1    1    2    0    0 -7.6185872899e+01 -4.7309841878e+02 +4.5994339269e+02 6.6420954943e+02 0.0000000000e+00 0.0000e+00 -1.0000e+00
       13  1    1    2    0    0 +7.6185872899e+01 +4.7309841878e+02 +1.3453758595e+03 1.4281675687e+03 0.0000000000e+00 0.0000e+00 1.0000e+00
<mgrwt>
<rscale>  0 0.10577639E+04</rscale>
<asrwt>0</asrwt>
<pdfrwt beam="1">  1        2 0.29982278E+00 0.10577639E+04</pdfrwt>
<pdfrwt beam="2">  1       -2 0.22081376E-01 0.10577639E+04</pdfrwt>
<totfact> 0.14956494E+02</totfact>
</mgrwt>
<rwgt>
<wgt id='morphing_basis_vector_1'> +2.8889048e-04 </wgt>
<wgt id='morphing_basis_vector_2'> +1.8643507e-04 </wgt>
<wgt id='morphing_basis_vector_3'> +2.8187270e-04 </wgt>
<wgt id='morphing_basis_vector_4'> +1.7163871e-04 </wgt>
<wgt id='morphing_basis_vector_5'> +2.7641639e-04 </wgt>
</rwgt>
</event>
<event>
 4      1 +1.4786900e-06 9.28673800e+02 7.81860800e-03 8.75544800e-02
        2 -1    0    0  501    0 +0.0000000000e+00 +0.0000000000e+00 +1.4413741025e+03 1.4413741025e+03 0.0000000000e+00 0.0000e+00 -1.0000e+00
       -2 -1    0    0    0  501 -0.0000000000e+00 -0.0000000000e+00 -1.4958557239e+02 1.4958557239e+02 0.0000000000e+00 0.0000e+00 1.0000e+00
      -13  1    1    2    0    0 +4.0927222995e+02 -1.9347585705e+02 +8.2287296613e+02 9.3917867515e+02 0.0000000000e+00 0.0000e+00 1.0000e+00
       13  1    1    2    0    0 -4.0927222995e+02 +1.9347585705e+02 +4.6891556397e+02 6.5178099973e+02 0.0000000000e+00 0.0000e+00 -1.0000e+00
<mgrwt>
<rscale>  0 0.92867383E+03</rscale>
<asrwt>0</asrwt>
<pdfrwt beam="1">  1        2 0.22174985E+00 0.92867383E+03</pdfrwt>
<pdfrwt beam="2">  1       -2 0.23013166E-01 0.92867383E+03</pdfrwt>
<totfact> 0.26880026E+02</totfact>
</mgrwt>
<rwgt>
<wgt id='morphing_basis_vector_1'> +1.9125489e-04 </wgt>
<wgt id='morphing_basis_vector_2'> +1.5129253e-04 </wgt>
<wgt id='morphing_basis_vector_3'> +1.7879278e-04 </wgt>
<wgt id='morphing_basis_vector_4'> +7.9484530e-05 </wgt>
<wgt id='morphing_basis_vector_5'> +1.5589722e-04 </wgt>
</rwgt>
</event>
<event>
 4      1 +1.4786900e-06 9.02089900e+02 7.81860800e-03 8.78364200e-02
        2 -1    0    0  501    0 +0.0000000000e+00 +0.0000000000e+00 +2.9908120464e+02 2.9908120464e+02 0.0000000000e+00 0.0000e+00 1.0000e+00
       -2 -1    0    0    0  501 -0.0000000000e+00 -0.0000000000e+00 -6.8022177973e+02 6.8022177973e+02 0.0000000000e+00 0.0000e+00 -1.0000e+00
      -13  1    1    2    0    0 +2.5387944280e+02 +2.2665268685e+02 -5.1190476377e+02 6.1471350978e+02 0.0000000000e+00 0.0000e+00 -1.0000e+00
       13  1    1    2    0    0 -2.5387944280e+02 -2.2665268685e+02 +1.3076418869e+02 3.6458947458e+02 0.0000000000e+00 0.0000e+00 1.0000e+00
<mgrwt>
<rscale>  0 0.90208991E+03</rscale>
<asrwt>0</asrwt>
<pdfrwt beam="1">  1        2 0.46012493E-01 0.90208991E+03</pdfrwt>
<pdfrwt beam="2">  1       -2 0.10464950E+00 0.90208991E+03</pdfrwt>
<totfact> 0.10094425E+02</totfact>
</mgrwt>
<rwgt>
<wgt id='morphing_basis_vector_1'> +1.6003495e-04 </wgt>
<wgt id='morphing_basis_vector_2'> +9.9093343e-05 </wgt>
<wgt id='morphing_basis_vector_3'> +1.4956211e-04 </wgt>
<wgt id='morphing_basis_vector_4'> +8.7182913e-05 </wgt>
<wgt id='morphing_basis_vector_5'> +1.3807357e-04 </wgt>
</rwgt>
</event>
<event>
 4      1 +1.4786900e-06 9.07360800e+02 7.81860800e-03 8.77797100e-02
        2 -1    0    0  501    0 +0.0000000000e+00 +0.0000000000e+00 +7.2991704648e+02 7.2991704648e+02 0.0000000000e+00 0.0000e+00 1.0000e+00
       -2 -1    0    0    0  501 -0.0000000000e+00 -0.0000000000e+00 -2.8198531004e+02 2.8198531004e+02 0.0000000000e+00 0.0000e+00 -1.0000e+00
      -13  1    1    2    0    0 +2.0912918316e+02 -3.5184140317e+02 +4.4221346909e+02 6.0256131678e+02 0.0000000000e+00 0.0000e+00 1.0000e+00
       13  1    1    2    0    0 -2.0912918316e+02 +3.5184140317e+02 +5.7182673434e+00 4.0934103974e+02 0.0000000000e+00 0.0000e+00 -1.0000e+00
<mgrwt>
<rscale>  0 0.90736075E+03</rscale>
<asrwt>0</asrwt>
<pdfrwt beam="1">  1        2 0.11229493E+00 0.90736075E+03</pdfrwt>
<pdfrwt beam="2">  1       -2 0.43382356E-01 0.90736075E+03</pdfrwt>
<totfact> 0.23776386E+02</totfact>
</mgrwt>
<rwgt>
<wgt id='morphing_basis_vector_1'> +1.8738209e-04 </wgt>
<wgt id='morphing_basis_vector_2'> +1.7409716e-04 </wgt>
<wgt id='morphing_basis_vector_3'> +1.7209665e-04 </wgt>
<wgt id='morphing_basis_vector_4'> +5.5177110e-05 </wgt>
<wgt id='morphing_basis_vector_5'> +1.3985133e-04 </wgt>
</rwgt>
</event>
<event>
 4      1 +1.4786900e-06 9.28200800e+02 7.81860800e-03 8.75594000e-02
        2 -1    0    0  501    0 +0.0000000000e+00 +0.0000000000e+00 +1.9422545716e+03 1.9422545716e+03 0.0000000000e+00 0.0000e+00 -1.0000e+00
       -2 -1    0    0    0  501 -0.0000000000e+00 -0.0000000000e+00 -1.1089648340e+02 1.1089648340e+02 0.0000000000e+00 0.0000e+00 1.0000e+00
      -13  1    1    2    0    0 -2.8138860869e+02 -2.3150426242e+02 +2.7989514523e+02 4.5947259434e+02 0.0000000000e+00 0.0000e+00 1.0000e+00
       13  1    1    2    0    0 +2.8138860869e+02 +2.3150426242e+02 +1.5514629430e+03 1.5936784607e+03 0.0000000000e+00 0.0000e+00 -1.0000e+00
<mgrwt>
<rscale>  0 0.92820084E+03</rscale>
<asrwt>0</asrwt>
<pdfrwt beam="1">  1        2 0.29880837E+00 0.92820084E+03</pdfrwt>
<pdfrwt beam="2">  1       -2 0.17060999E-01 0.92820084E+03</pdfrwt>
<totfact> 0.23420965E+02</totfact>
</mgrwt>
<rwgt>
<wgt id='morphing_basis_vector_1'> +1.7764123e-04 </wgt>
<wgt id='morphing_basis_vector_2'> +1.1071082e-04 </wgt>
<wgt id='morphing_basis_vector_3'> +1.6742793e-04 </wgt>
<wgt id='morphing_basis_vector_4'> +9.8664941e-05 </wgt>
<wgt id='morphing_basis_vector_5'> +1.5661299e-04 </wgt>
</rwgt>
</event>
<event>
 4      1 +1.4786900e-06 9.02199200e+02 7.81860800e-03 8.78352400e-02
        2 -1    0    0  501    0 +0.0000000000e+00 +0.0000000000e+00 +3.5676056162e+02 3.5676056162e+02 0.0000000000e+00 0.0000e+00 1.0000e+00
       -2 -1    0    0    0  501 -0.0000000000e+00 -0.0000000000e+00 -5.7038488750e+02 5.7038488750e+02 0.0000000000e+00 0.0000e+00 -1.0000e+00
      -13  1    1    2    0    0 +2.7774172429e+02 +1.8297420444e+02 -4.1998570368e+02 5.3573129104e+02 0.0000000000e+00 0.0000e+00 -1.0000e+00
       13  1    1    2    0    0 -2.7774172429e+02 -1.8297420444e+02 +2.0636137780e+02 3.9141415808e+02 0.0000000000e+00 0.0000e+00 1.0000e+00
<mgrwt>
<rscale>  0 0.90219916E+03</rscale>
<asrwt>0</asrwt>
<pdfrwt beam="1">  1        2 0.54886240E-01 0.90219916E+03</pdfrwt>
<pdfrwt beam="2">  1       -2 0.87751522E-01 0.90219916E+03</pdfrwt>
<totfact> 0.12586804E+02</totfact>
</mgrwt>
<rwgt>
<wgt id='morphing_basis_vector_1'> +1.6007055e-04 </wgt>
<wgt id='morphing_basis_vector_2'> +9.9032999e-05 </wgt>
<wgt id='morphing_basis_vector_3'> +1.4960600e-04 </wgt>
<wgt id='morphing_basis_vector_4'> +8.7278888e-05 </wgt>
<wgt id='morphing_basis_vector_5'> +1.3815030e-04 </wgt>
</rwgt>
</event>
<event>
 4      1 +1.4786900e-06 9.51844400e+02 7.81860800e-03 8.73166700e-02
        2 -1    0    0  501    0 +0.0000000000e+00 +0.0000000000e+00 +2.3185633896e+03 2.3185633896e+03 0.0000000000e+00 0.0000e+00 -1.0000e+00
       -2 -1    0    0    0  501 -0.0000000000e+00 -0.0000000000e+00 -9.7690642121e+01 9.7690642121e+01 0.0000000000e+00 0.0000e+00 1.0000e+00
      -13  1    1    2    0    0 -3.7844309460e+02 +2.5445736168e+02 +1.4560284704e+03 1.5257741089e+03 0.0000000000e+00 0.0000e+00 1.0000e+00
       13  1    1    2    0    0 +3.7844309460e+02 -2.5445736168e+02 +7.6484427707e+02 8.9047992282e+02 0.0000000000e+00 0.0000e+00 -1.0000e+00
<mgrwt>
<rscale>  0 0.95184441E+03</rscale>
<asrwt>0</asrwt>
<pdfrwt beam="1">  1        2 0.35670202E+00 0.95184441E+03</pdfrwt>
<pdfrwt beam="2">  1       -2 0.15029331E-01 0.95184441E+03</pdfrwt>
<totfact> 0.17661468E+02</totfact>
</mgrwt>
<rwgt>
<wgt id='morphing_basis_vector_1'> +2.1279075e-04 </wgt>
<wgt id='morphing_basis_vector_2'> +1.7657909e-04 </wgt>
<wgt id='morphing_basis_vector_3'> +2.0048064e-04 </wgt>
<wgt id='morphing_basis_vector_4'> +8.3246939e-05 </wgt>
<wgt id='morphing_basis_vector_5'> +1.7339002e-04 </wgt>
</rwgt>
</event>
<event>
 4      1 +1.4786900e-06 9.92435600e+02 7.81860800e-03 8.69166400e-02
        2 -1    0    0  501    0 +0.0000000000e+00 +0.0000000000e+00 +5.2416567359e+02 5.2416567359e+02 0.0000000000e+00 0.0000e+00 -1.0000e+00
       -2 -1    0    0    0  501 -0.0000000000e+00 -0.0000000000e+00 -4.6976010922e+02 4.6976010922e+02 0.0000000000e+00 0.0000e+00 1.0000e+00
      -13  1    1    2    0    0 -2.0565340347e+02 +2.6279705654e+02 -3.4060402534e+02 4.7682986207e+02 0.0000000000e+00 0.0000e+00 1.0000e+00
       13  1    1    2    0    0 +2.0565340347e+02 -2.6279705654e+02 +3.9500958971e+02 5.1709592074e+02 0.0000000000e+00 0.0000e+00 -1.0000e+00
<mgrwt>
<rscale>  0 0.99243564E+03</rscale>
<asrwt>0</asrwt>
<pdfrwt beam="1">  1        2 0.80640873E-01 0.99243564E+03</pdfrwt>
<pdfrwt beam="2">  1       -2 0.72270786E-01 0.99243564E+03</pdfrwt>
<totfact> 0.12522417E+02</totfact>
</mgrwt>
<rwgt>
<wgt id='morphing_basis_vector_1'> +2.2681243e-04 </wgt>
<wgt id='morphing_basis_vector_2'> +1.4210869e-04 </wgt>
<wgt id='morphing_basis_vector_3'> +2.1779518e-04 </wgt>
<wgt id='morphing_basis_vector_4'> +1.3240276e-04 </wgt>
<wgt id='morphing_basis_vector_5'> +2.0991444e-04 </wgt>
</rwgt>
</event>
<event>
 4      1 +1.4786900e-06 9.85490400e+02 7.81860800e-03 8.69836600e-02
        2 -1    0    0  501    0 +0.0000000000e+00 +0.0000000000e+00 +3.5045315905e+02 3.5045315905e+02 0.0000000000e+00 0.0000e+00 1.0000e+00
       -2 -1    0    0    0  501 -0.0000000000e+00 -0.0000000000e+00 -6.9281103049e+02 6.9281103049e+02 0.0000000000e+00 0.0000e+00 -1.0000e+00
      -13  1    1    2    0    0 -2.1774004283e+02 +1.5927782416e+02 -6.0768365056e+02 6.6487560542e+02 0.0000000000e+00 0.0000e+00 -1.0000e+00
       13  1    1    2    0    0 +2.1774004283e+02 -1.5927782416e+02 +2.6532577912e+02 3.7838858412e+02 0.0000000000e+00 0.0000e+00 1.0000e+00
<mgrwt>
<rscale>  0 0.98549036E+03</rscale>
<asrwt>0</asrwt>
<pdfrwt beam="1">  1        2 0.53915871E-01 0.98549036E+03</pdfrwt>
<pdfrwt beam="2">  1       -2 0.10658631E+00 0.98549036E+03</pdfrwt>
<totfact> 0.80289761E+01</totfact>
</mgrwt>
<rwgt>
<wgt id='morphing_basis_vector_1'> +2.2088649e-04 </wgt>
<wgt id='morphing_basis_vector_2'> +1.3794984e-04 </wgt>
<wgt id='morphing_basis_vector_3'> +2.1171897e-04 </wgt>
<wgt id='morphing_basis_vector_4'> +1.2863413e-04 </wgt>
<wgt id='morphing_basis_vector_5'> +2.0360748e-04 </wgt>
</rwgt>
</event>
<event>
 4      1 +1.4786900e-06 9.03997400e+02 7.81860800e-03 8.78158500e-02
        2 -1    0    0  501    0 +0.0000000000e+00 +0.0000000000e+00 +1.6319841725e+03 1.6319841725e+03 0.0000000000e+00 0.0000e+00 1.0000e+00
       -2 -1    0    0    0  501 -0.0000000000e+00 -0.0000000000e+00 -1.2518677028e+02 1.2518677028e+02 0.0000000000e+00 0.0000e+00 -1.0000e+00
      -13  1    1    2    0    0 -3.2468134893e+02 +2.8023077066e+02 +4.7607409534e+02 6.4077594167e+02 0.0000000000e+00 0.0000e+00 -1.0000e+00
       13  1    1    2    0    0 +3.2468134893e+02 -2.8023077066e+02 +1.0307233069e+03 1.1163950011e+03 0.0000000000e+00 0.0000e+00 1.0000e+00
<mgrwt>
<rscale>  0 0.90399741E+03</rscale>
<asrwt>0</asrwt>
<pdfrwt beam="1">  1        2 0.25107447E+00 0.90399741E+03</pdfrwt>
<pdfrwt beam="2">  1       -2 0.19259504E-01 0.90399741E+03</pdfrwt>
<totfact> 0.28473821E+02</totfact>
</mgrwt>
<rwgt>
<wgt id='morphing_basis_vector_1'> +1.6266136e-04 </wgt>
<wgt id='morphing_basis_vector_2'> +1.0413271e-04 </wgt>
<wgt id='morphing_basis_vector_3'> +1.5191426e-04 </wgt>
<wgt id='morphing_basis_vector_4'> +8.6005381e-05 </wgt>
<wgt id='morphing_basis_vector_5'> +1.3926571e-04 </wgt>
</rwgt>
</event>
<event>
 4      1 +1.4786900e-06 1.05277500e+03 7.81860800e-03 8.63573500e-02
        2 -1    0    0  501    0 +0.0000000000e+00 +0.0000000000e+00 +2.5664444580e+02 2.5664444580e+02 0.0000000000e+00 0.0000e+00 -1.0000e+00
       -2 -1    0    0    0  501 -0.0000000000e+00 -0.0000000000e+00 -1.0796406308e+03 1.0796406308e+03 0.0000000000e+00 0.0000e+00 1.0000e+00
      -13  1    1    2    0    0 +3.1086463122e+02 -1.1617080409e+02 -9.3012909686e+02 9.8755891545e+02 0.0000000000e+00 0.0000e+00 1.0000e+00
       13  1    1    2    0    0 -3.1086463122e+02 +1.1617080409e+02 +1.0713291186e+02 3.4872616115e+02 0.0000000000e+00 0.0000e+00 -1.0000e+00
<mgrwt>
<rscale>  0 0.10527749E+04</rscale>
<asrwt>0</asrwt>
<pdfrwt beam="1">  1        2 0.39483760E-01 0.10527749E+04</pdfrwt>
<pdfrwt beam="2">  1       -2 0.16609856E+00 0.10527749E+04</pdfrwt>
<totfact> 0.33989380E+01</totfact>
</mgrwt>
<rwgt>
<wgt id='morphing_basis_vector_1'> +2.8221687e-04 </wgt>
<wgt id='morphing_basis_vector_2'> +1.7813850e-04 </wgt>
<wgt id='morphing_basis_vector_3'> +2.7501728e-04 </wgt>
<wgt id='morphing_basis_vector_4'> +1.7080543e-04 </wgt>
<wgt id='morphing_basis_vector_5'> +2.7100968e-04 </wgt>
</rwgt>
</event>
<event>
 4      1 +1.4786900e-06 9.84742000e+02 7.81860800e-03 8.69909100e-02
        2 -1    0    0  501    0 +0.0000000000e+00 +0.0000000000e+00 +1.2099564658e+03 1.2099564658e+03 0.0000000000e+00 0.0000e+00 1.0000e+00
       -2 -1    0    0    0  501 -0.0000000000e+00 -0.0000000000e+00 -2.0036192643e+02 2.0036192643e+02 0.0000000000e+00 0.0000e+00 -1.0000e+00
      -13  1    1    2    0    0 +2.8394213119e+00 +4.4723330033e+02 +2.0988308403e+02 4.9404108756e+02 0.0000000000e+00 0.0000e+00 -1.0000e+00
       13  1    1    2    0    0 -2.8394213119e+00 -4.4723330033e+02 +7.9971145539e+02 9.1627730471e+02 0.0000000000e+00 0.0000e+00 1.0000e+00
<mgrwt>
<rscale>  0 0.98474201E+03</rscale>
<asrwt>0</asrwt>
<pdfrwt beam="1">  1        2 0.18614714E+00 0.98474201E+03</pdfrwt>
<pdfrwt beam="2">  1       -2 0.30824913E-01 0.98474201E+03</pdfrwt>
<totfact> 0.21827756E+02</totfact>
</mgrwt>
<rwgt>
<wgt id='morphing_basis_vector_1'> +2.2164035e-04 </wgt>
<wgt id='morphing_basis_vector_2'> +1.4170469e-04 </wgt>
<wgt id='morphing_basis_vector_3'> +2.1233233e-04 </wgt>
<wgt id='morphing_basis_vector_4'> +1.2611627e-04 </wgt>
<wgt id='morphing_basis_vector_5'> +2.0281203e-04 </wgt>
</rwgt>
</event>
<event>
 4      1 +1.4786900e-06 9.88446700e+02 7.81860800e-03 8.69550600e-02
        2 -1    0    0  501    0 +0.0000000000e+00 +0.0000000000e+00 +1.5609149376e+03 1.5609149376e+03 0.0000000000e+00 0.0000e+00 -1.0000e+00
       -2 -1    0    0    0  501 -0.0000000000e+00 -0.0000000000e+00 -1.5648303612e+02 1.5648303612e+02 0.0000000000e+00 0.0000e+00 1.0000e+00
      -13  1    1    2    0    0 +2.4100449798e+01 +4.8959377959e+02 +5.9268896566e+02 7.6913140015e+02 0.0000000000e+00 0.0000e+00 1.0000e+00
       13  1    1    2    0    0 -2.4100449798e+01 -4.8959377959e+02 +8.1174293583e+02 9.4826657357e+02 0.0000000000e+00 0.0000e+00 -1.0000e+00
<mgrwt>
<rscale>  0 0.98844668E+03</rscale>
<asrwt>0</asrwt>
<pdfrwt beam="1">  1        2 0.24014075E+00 0.98844668E+03</pdfrwt>
<pdfrwt beam="2">  1       -2 0.24074314E-01 0.98844668E+03</pdfrwt>
<totfact> 0.21275859E+02</totfact>
</mgrwt>
<rwgt>
<wgt id='morphing_basis_vector_1'> +2.2824047e-04 </wgt>
<wgt id='morphing_basis_vector_2'> +1.5439161e-04 </wgt>
<wgt id='morphing_basis_vector_3'> +2.1872187e-04 </wgt>
<wgt id='morphing_basis_vector_4'> +1.2280383e-04 </wgt>
<wgt id='morphing_basis_vector_5'> +2.0583754e-04 </wgt>
</rwgt>
</event>
<event>
 4      1 +1.4786900e-06 9.26757400e+02 7.81860800e-03 8.75744700e-02
        2 -1    0    0  501    0 +0.0000000000e+00 +0.0000000000e+00 +5.7389260489e+02 5.7389260489e+02 0.0000000000e+00 0.0000e+00 -1.0000e+00
       -2 -1    0    0    0  501 -0.0000000000e+00 -0.0000000000e+00 -3.7414631799e+02 3.7414631799e+02 0.0000000000e+00 0.0000e+00 1.0000e+00
      -13  1    1    2    0    0 -9.9321541104e+01 -4.4095044521e+02 +2.0428430000e+02 4.9601828483e+02 0.0000000000e+00 0.0000e+00 1.0000e+00
       13  1    1    2    0    0 +9.9321541104e+01 +4.4095044521e+02 -4.5380131060e+00 4.5202063805e+02 0.0000000000e+00 0.0000e+00 -1.0000e+00
<mgrwt>
<rscale>  0 0.92675737E+03</rscale>
<asrwt>0</asrwt>
<pdfrwt beam="1">  1        2 0.88291170E-01 0.92675737E+03</pdfrwt>
<pdfrwt beam="2">  1       -2 0.57560972E-01 0.92675737E+03</pdfrwt>
<totfact> 0.18216649E+02</totfact>
</mgrwt>
<rwgt>
<wgt id='morphing_basis_vector_1'> +1.8971705e-04 </wgt>
<wgt id='morphing_basis_vector_2'> +1.4981652e-04 </wgt>
<wgt id='morphing_basis_vector_3'> +1.7722669e-04 </wgt>
<wgt id='morphing_basis_vector_4'> +7.8921939e-05 </wgt>
<wgt id='morphing_basis_vector_5'> +1.5449614e-04 </wgt>
</rwgt>
</event>
<event>
 4      1 +1.4786900e-06 9.73596000e+02 7.81860800e-03 8.70997800e-02
        2 -1    0    0  501    0 +0.0000000000e+00 +0.0000000000e+00 +8.5855543180e+02 8.5855543180e+02 0.0000000000e+00 0.0000e+00 1.0000e+00
       -2 -1    0    0    0  501 -0.0000000000e+00 -0.0000000000e+00 -2.7601283301e+02 2.7601283301e+02 0.0000000000e+00 0.0000e+00 -1.0000e+00
      -13  1    1    2    0    0 +3.4445356492e+02 +5.2659131597e+01 -1.0485969368e+02 3.6389118962e+02 0.0000000000e+00 0.0000e+00 -1.0000e+00
       13  1    1    2    0    0 -3.4445356492e+02 -5.2659131597e+01 +6.8740229246e+02 7.7067707518e+02 0.0000000000e+00 0.0000e+00 1.0000e+00
<mgrwt>
<rscale>  0 0.97359605E+03</rscale>
<asrwt>0</asrwt>
<pdfrwt beam="1">  1        2 0.13208545E+00 0.97359605E+03</pdfrwt>
<pdfrwt beam="2">  1       -2 0.42463513E-01 0.97359605E+03</pdfrwt>
<totfact> 0.20033762E+02</totfact>
</mgrwt>
<rwgt>
<wgt id='morphing_basis_vector_1'> +2.1142170e-04 </wgt>
<wgt id='morphing_basis_vector_2'> +1.3227155e-04 </wgt>
<wgt id='morphing_basis_vector_3'> +2.0197971e-04 </wgt>
<wgt id='morphing_basis_vector_4'> +1.2174573e-04 </wgt>
<wgt id='morphing_basis_vector_5'> +1.9309284e-04 </wgt>
</rwgt>
</event>
<event>
 4      1 +1.4786900e-06 9.40203300e+02 7.81860800e-03 8.74352500e-02
        2 -1    0    0  501    0 +0.0000000000e+00 +0.0000000000e+00 +3.6457008834e+02 3.6457008834e+02 0.0000000000e+00 0.0000e+00 -1.0000e+00
       -2 -1    0    0    0  501 -0.0000000000e+00 -0.0000000000e+00 -6.0618132595e+02 6.0618132595e+02 0.0000000000e+00 0.0000e+00 1.0000e+00
      -13  1    1    2    0    0 +3.1901468709e+02 +3.0544008805e+02 -2.8707051984e+02 5.2675753561e+02 0.0000000000e+00 0.0000e+00 1.0000e+00
       13  1    1    2    0    0 -3.1901468709e+02 -3.0544008805e+02 +4.5459282221e+01 4.4399387868e+02 0.0000000000e+00 0.0000e+00 -1.0000e+00
<mgrwt>
<rscale>  0 0.94020334E+03</rscale>
<asrwt>0</asrwt>
<pdfrwt beam="1">  1        2 0.56087707E-01 0.94020334E+03</pdfrwt>
<pdfrwt beam="2">  1       -2 0.93258664E-01 0.94020334E+03</pdfrwt>
<totfact> 0.10629424E+02</totfact>
</mgrwt>
<rwgt>
<wgt id='morphing_basis_vector_1'> +1.8749201e-04 </wgt>
<wgt id='morphing_basis_vector_2'> +1.2025065e-04 </wgt>
<wgt id='morphing_basis_vector_3'> +1.7724258e-04 </wgt>
<wgt id='morphing_basis_vector_4'> +1.0242093e-04 </wgt>
<wgt id='morphing_basis_vector_5'> +1.6560992e-04 </wgt>
</rwgt>
</event>
<event>
 4      1 +1.4786900e-06 1.06493900e+03 7.81860800e-03 8.62493000e-02
        2 -1    0    0  501    0 +0.0000000000e+00 +0.0000000000e+00 +1.6236761504e+03 1.6236761504e+03 0.0000000000e+00 0.0000e+00 -1.0000e+00
       -2 -1    0    0    0  501 -0.0000000000e+00 -0.0000000000e+00 -1.7461832177e+02 1.7461832177e+02 0.0000000000e+00 0.0000e+00 1.0000e+00
      -13  1    1    2    0    0 +5.2286306774e+02 -1.0040782973e+02 +7.3717505612e+02 9.0933744190e+02 0.0000000000e+00 0.0000e+00 1.0000e+00
       13  1    1    2    0    0 -5.2286306774e+02 +1.0040782973e+02 +7.1188277253e+02 8.8895703029e+02 0.0000000000e+00 0.0000e+00 -1.0000e+00
<mgrwt>
<rscale>  0 0.10649387E+04</rscale>
<asrwt>0</asrwt>
<pdfrwt beam="1">  1        2 0.24979632E+00 0.10649387E+04</pdfrwt>
<pdfrwt beam="2">  1       -2 0.26864358E-01 0.10649387E+04</pdfrwt>
<totfact> 0.16167605E+02</totfact>
</mgrwt>
<rwgt>
<wgt id='morphing_basis_vector_1'> +3.0548276e-04 </wgt>
<wgt id='morphing_basis_vector_2'> +2.1920043e-04 </wgt>
<wgt id='morphing_basis_vector_3'> +2.9880819e-04 </wgt>
<wgt id='morphing_basis_vector_4'> +1.6183823e-04 </wgt>
<wgt id='morphing_basis_vector_5'> +2.8363963e-04 </wgt>
</rwgt>
</event>
<event>
 4      1 +1.4786900e-06 9.53320900e+02 7.81860800e-03 8.73017600e-02
        2 -1    0    0  501    0 +0.0000000000e+00 +0.0000000000e+00 +2.6114055833e+03 2.6114055833e+03 0.0000000000e+00 0.0000e+00 -1.0000e+00
       -2 -1    0    0    0  501 -0.0000000000e+00 -0.0000000000e+00 -8.7004943064e+01 8.7004943064e+01 0.0000000000e+00 0.0000e+00 1.0000e+00
      -13  1    1    2    0    0 -1.9982876181e+02 -3.3558196463e+02 +2.0356075950e+03 2.0727385435e+03 0.0000000000e+00 0.0000e+00 1.0000e+00
       13  1    1    2    0    0 +1.9982876181e+02 +3.3558196463e+02 +4.8879304525e+02 6.2567198285e+02 0.0000000000e+00 0.0000e+00 -1.0000e+00
<mgrwt>
<rscale>  0 0.95332092E+03</rscale>
<asrwt>0</asrwt>
<pdfrwt beam="1">  1        2 0.40175464E+00 0.95332092E+03</pdfrwt>
<pdfrwt beam="2">  1       -2 0.13385378E-01 0.95332092E+03</pdfrwt>
<totfact> 0.14349775E+02</totfact>
</mgrwt>
<rwgt>
<wgt id='morphing_basis_vector_1'> +2.3800263e-04 </wgt>
<wgt id='morphing_basis_vector_2'> +2.5044852e-04 </wgt>
<wgt id='morphing_basis_vector_3'> +2.2254052e-04 </wgt>
<wgt id='morphing_basis_vector_4'> +4.8015033e-05 </wgt>
<wgt id='morphing_basis_vector_5'> +1.7253824e-04 </wgt>
</rwgt>
</event>
<event>
 4      1 +1.4786900e-06 1.00440200e+03 7.81860800e-03 8.68025000e-02
        2 -1    0    0  501    0 +0.0000000000e+00 +0.0000000000e+00 +2.4127156788e+03 2.4127156788e+03 0.0000000000e+00 0.0000e+00 -1.0000e+00
       -2 -1    0    0    0  501 -0.0000000000e+00 -0.0000000000e+00 -1.0453187693e+02 1.0453187693e+02 0.0000000000e+00 0.0000e+00 1.0000e+00
      -13  1    1    2    0    0 +3.3160605854e+02 -1.2868891217e+02 +2.6559581833e+02 4.4391953425e+02 0.0000000000e+00 0.0000e+00 1.0000e+00
       13  1    1    2    0    0 -3.3160605854e+02 +1.2868891217e+02 +2.0425879835e+03 2.0733280214e+03 0.0000000000e+00 0.0000e+00 -1.0000e+00
<mgrwt>
<rscale>  0 0.10044017E+04</rscale>
<asrwt>0</asrwt>
<pdfrwt beam="1">  1        2 0.37118699E+00 0.10044017E+04</pdfrwt>
<pdfrwt beam="2">  1       -2 0.16081829E-01 0.10044017E+04</pdfrwt>
<totfact> 0.13893190E+02</totfact>
</mgrwt>
<rwgt>
<wgt id='morphing_basis_vector_1'> +2.3714968e-04 </wgt>
<wgt id='morphing_basis_vector_2'> +1.4901256e-04 </wgt>
<wgt id='morphing_basis_vector_3'> +2.2842827e-04 </wgt>
<wgt id='morphing_basis_vector_4'> +1.3932845e-04 </wgt>
<wgt id='morphing_basis_vector_5'> +2.2112785e-04 </wgt>
</rwgt>
</event>
<event>
 4      1 +1.4786900e-06 9.42476900e+02 7.81860800e-03 8.74119500e-02
        2 -1    0    0  501    0 +0.0000000000e+00 +0.0000000000e+00 +9.5723531049e+02 9.5723531049e+02 0.0000000000e+00 0.0000e+00 1.0000e+00
       -2 -1    0    0    0  501 -0.0000000000e+00 -0.0000000000e+00 -2.3198650900e+02 2.3198650900e+02 0.0000000000e+00 0.0000e+00 -1.0000e+00
      -13  1    1    2    0    0 +4.5569839071e+02 +1.0847109802e+02 +2.9780796417e+02 5.5508250371e+02 0.0000000000e+00 0.0000e+00 -1.0000e+00
       13  1    1    2    0    0 -4.5569839071e+02 -1.0847109802e+02 +4.2744083732e+02 6.3413931577e+02 0.0000000000e+00 0.0000e+00 1.0000e+00
<mgrwt>
<rscale>  0 0.94247690E+03</rscale>
<asrwt>0</asrwt>
<pdfrwt beam="1">  1        2 0.14726697E+00 0.94247690E+03</pdfrwt>
<pdfrwt beam="2">  1       -2 0.35690233E-01 0.94247690E+03</pdfrwt>
<totfact> 0.23895675E+02</totfact>
</mgrwt>
<rwgt>
<wgt id='morphing_basis_vector_1'> +1.9189127e-04 </wgt>
<wgt id='morphing_basis_vector_2'> +1.2966704e-04 </wgt>
<wgt id='morphing_basis_vector_3'> +1.8127047e-04 </wgt>
<wgt id='morphing_basis_vector_4'> +9.9462110e-05 </wgt>
<wgt id='morphing_basis_vector_5'> +1.6714919e-04 </wgt>
</rwgt>
</event>
<event>
 4      1 +1.4786900e-06 9.08187700e+02 7.81860800e-03 8.77708500e-02
        2 -1    0    0  501    0 +0.0000000000e+00 +0.0000000000e+00 +3.3055055346e+03 3.3055055346e+03 0.0000000000e+00 0.0000e+00 1.0000e+00
       -2 -1    0    0    0  501 -0.0000000000e+00 -0.0000000000e+00 -6.2381151853e+01 6.2381151853e+01 0.0000000000e+00 0.0000e+00 -1.0000e+00
      -13  1    1    2    0    0 +3.8014701982e+02 +1.5470626103e+02 +2.3421247843e+03 2.3778129214e+03 0.0000000000e+00 0.0000e+00 1.0000e+00
       13  1    1    2    0    0 -3.8014701982e+02 -1.5470626103e+02 +9.0099959850e+02 9.9007376512e+02 0.0000000000e+00 0.0000e+00 -1.0000e+00
<mgrwt>
<rscale>  0 0.90818774E+03</rscale>
<asrwt>0</asrwt>
<pdfrwt beam="1">  1        2 0.50853918E+00 0.90818774E+03</pdfrwt>
<pdfrwt beam="2">  1       -2 0.95971029E-02 0.90818774E+03</pdfrwt>
<totfact> 0.88378509E+01</totfact>
</mgrwt>
<rwgt>
<wgt id='morphing_basis_vector_1'> +1.8776038e-04 </wgt>
<wgt id='morphing_basis_vector_2'> +1.7394606e-04 </wgt>
<wgt id='morphing_basis_vector_3'> +1.7254757e-04 </wgt>
<wgt id='morphing_basis_vector_4'> +5.5743351e-05 </wgt>
<wgt id='morphing_basis_vector_5'> +1.4043244e-04 </wgt>
</rwgt>
</event>
<event>
 4      1 +1.4786900e-06 9.69468300e+02 7.81860800e-03 8.71404800e-02
        2 -1    0    0  501    0 +0.0000000000e+00 +0.0000000000e+00 +2.0149749496e+03 2.0149749496e+03 0.0000000000e+00 0.0000e+00 -1.0000e+00
       -2 -1    0    0    0  501 -0.0000000000e+00 -0.0000000000e+00 -1.1661048807e+02 1.1661048807e+02 0.0000000000e+00 0.0000e+00 1.0000e+00
      -13  1    1    2    0    0 -3.0663087023e+02 -3.8019823956e+01 +1.2797077668e+02 3.3443163319e+02 0.0000000000e+00 0.0000e+00 1.0000e+00
       13  1    1    2    0    0 +3.0663087023e+02 +3.8019823956e+01 +1.7703936849e+03 1.7971538045e+03 0.0000000000e+00 0.0000e+00 -1.0000e+00
<mgrwt>
<rscale>  0 0.96946833E+03</rscale>
<asrwt>0</asrwt>
<pdfrwt beam="1">  1        2 0.30999612E+00 0.96946833E+03</pdfrwt>
<pdfrwt beam="2">  1       -2 0.17940077E-01 0.96946833E+03</pdfrwt>
<totfact> 0.19582550E+02</totfact>
</mgrwt>
<rwgt>
<wgt id='morphing_basis_vector_1'> +2.0802243e-04 </wgt>
<wgt id='morphing_basis_vector_2'> +1.2977056e-04 </wgt>
<wgt id='morphing_basis_vector_3'> +1.9851111e-04 </wgt>
<wgt id='morphing_basis_vector_4'> +1.1970562e-04 </wgt>
<wgt id='morphing_basis_vector_5'> +1.8955490e-04 </wgt>
</rwgt>
</event>
<event>
 4      1 +1.4786900e-06 1.04278000e+03 7.81860800e-03 8.64472700e-02
        2 -1    0    0  501    0 +0.0000000000e+00 +0.0000000000e+00 +1.0091472275e+03 1.0091472275e+03 0.0000000000e+00 0.0000e+00 1.0000e+00
       -2 -1    0    0    0  501 -0.0000000000e+00 -0.0000000000e+00 -2.6938319218e+02 2.6938319218e+02 0.0000000000e+00 0.0000e+00 -1.0000e+00
      -13  1    1    2    0    0 -2.2597887798e+02 +4.6465858684e+02 +2.8429109272e+02 5.8974187661e+02 0.0000000000e+00 0.0000e+00 -1.0000e+00
       13  1    1    2    0    0 +2.2597887798e+02 -4.6465858684e+02 +4.5547294254e+02 6.8878854303e+02 0.0000000000e+00 0.0000e+00 1.0000e+00
<mgrwt>
<rscale>  0 0.10427796E+04</rscale>
<asrwt>0</asrwt>
<pdfrwt beam="1">  1        2 0.15525342E+00 0.10427796E+04</pdfrwt>
<pdfrwt beam="2">  1       -2 0.41443568E-01 0.10427796E+04</pdfrwt>
<totfact> 0.16709991E+02</totfact>
</mgrwt>
<rwgt>
<wgt id='morphing_basis_vector_1'> +2.7813779e-04 </wgt>
<wgt id='morphing_basis_vector_2'> +1.8911388e-04 </wgt>
<wgt id='morphing_basis_vector_3'> +2.7047530e-04 </wgt>
<wgt id='morphing_basis_vector_4'> +1.5480697e-04 </wgt>
<wgt id='morphing_basis_vector_5'> +2.5952630e-04 </wgt>
</rwgt>
</event>
<event>
 4      1 +1.4786900e-06 1.03583200e+03 7.81860800e-03 8.65103900e-02
        2 -1    0    0  501    0 +0.0000000000e+00 +0.0000000000e+00 +1.2288176919e+03 1.2288176919e+03 0.0000000000e+00 0.0000e+00 1.0000e+00
       -2 -1    0    0    0  501 -0.0000000000e+00 -0.0000000000e+00 -2.1828859849e+02 2.1828859849e+02 0.0000000000e+00 0.0000e+00 -1.0000e+00
      -13  1    1    2    0    0 -2.6990967755e+02 +4.2531291126e+02 +6.7345993272e+02 8.4100570004e+02 0.0000000000e+00 0.0000e+00 -1.0000e+00
       13  1    1    2    0    0 +2.6990967755e+02 -4.2531291126e+02 +3.3706916064e+02 6.0610059031e+02 0.0000000000e+00 0.0000e+00 1.0000e+00
<mgrwt>
<rscale>  0 0.10358318E+04</rscale>
<asrwt>0</asrwt>
<pdfrwt beam="1">  1        2 0.18904887E+00 0.10358318E+04</pdfrwt>
<pdfrwt beam="2">  1       -2 0.33582862E-01 0.10358318E+04</pdfrwt>
<totfact> 0.18198656E+02</totfact>
</mgrwt>
<rwgt>
<wgt id='morphing_basis_vector_1'> +2.8677751e-04 </wgt>
<wgt id='morphing_basis_vector_2'> +2.3107213e-04 </wgt>
<wgt id='morphing_basis_vector_3'> +2.7842365e-04 </wgt>
<wgt id='morphing_basis_vector_4'> +1.2597274e-04 </wgt>
<wgt id='morphing_basis_vector_5'> +2.5064559e-04 </wgt>
</rwgt>
</event>
<event>
 4      1 +1.4786900e-06 9.23030500e+02 7.81860800e-03 8.76134900e-02
        2 -1    0    0  501    0 +0.0000000000e+00 +0.0000000000e+00 +1.0566678323e+03 1.0566678323e+03 0.0000000000e+00 0.0000e+00 1.0000e+00
       -2 -1    0    0    0  501 -0.0000000000e+00 -0.0000000000e+00 -2.0157360620e+02 2.0157360620e+02 0.0000000000e+00 0.0000e+00 -1.0000e+00
      -13  1    1    2    0    0 +1.4576180807e+02 +2.1127306577e+02 -9.5299409951e+01 2.7379698783e+02 0.0000000000e+00 0.0000e+00 -1.0000e+00
       13  1    1    2    0    0 -1.4576180807e+02 -2.1127306577e+02 +9.5039363604e+02 9.8444445066e+02 0.0000000000e+00 0.0000e+00 1.0000e+00
<mgrwt>
<rscale>  0 0.92303054E+03</rscale>
<asrwt>0</asrwt>
<pdfrwt beam="1">  1        2 0.16256428E+00 0.92303054E+03</pdfrwt>
<pdfrwt beam="2">  1       -2 0.31011325E-01 0.92303054E+03</pdfrwt>
<totfact> 0.26725183E+02</totfact>
</mgrwt>
<rwgt>
<wgt id='morphing_basis_vector_1'> +1.7373956e-04 </wgt>
<wgt id='morphing_basis_vector_2'> +1.0741422e-04 </wgt>
<wgt id='morphing_basis_vector_3'> +1.6351978e-04 </wgt>
<wgt id='morphing_basis_vector_4'> +9.6747151e-05 </wgt>
<wgt id='morphing_basis_vector_5'> +1.5283047e-04 </wgt>
</rwgt>
</event>
<event>
 4      1 +1.4786900e-06 9.56777300e+02 7.81860800e-03 8.72669600e-02
        2 -1    0    0  501    0 +0.0000000000e+00 +0.0000000000e+00 +1.3627799618e+03 1.3627799618e+03 0.0000000000e+00 0.0000e+00 1.0000e+00
       -2 -1    0    0    0  501 -0.0000000000e+00 -0.0000000000e+00 -1.6793296797e+02 1.6793296797e+02 0.0000000000e+00 0.0000e+00 -1.0000e+00
      -13  1    1    2    0    0 -2.4057323015e+02 +2.8139880098e+02 +1.1270206088e+02 3.8699162624e+02 0.0000000000e+00 0.0000e+00 -1.0000e+00
       13  1    1    2    0    0 +2.4057323015e+02 -2.8139880098e+02 +1.0821449330e+03 1.1437213036e+03 0.0000000000e+00 0.0000e+00 1.0000e+00
<mgrwt>
<rscale>  0 0.95677726E+03</rscale>
<asrwt>0</asrwt>
<pdfrwt beam="1">  1        2 0.20965845E+00 0.95677726E+03</pdfrwt>
<pdfrwt beam="2">  1       -2 0.25835842E-01 0.95677726E+03</pdfrwt>
<totfact> 0.24362777E+02</totfact>
</mgrwt>
<rwgt>
<wgt id='morphing_basis_vector_1'> +1.9845417e-04 </wgt>
<wgt id='morphing_basis_vector_2'> +1.2418064e-04 </wgt>
<wgt id='morphing_basis_vector_3'> +1.8867591e-04 </wgt>
<wgt id='morphing_basis_vector_4'> +1.1265788e-04 </wgt>
<wgt id='morphing_basis_vector_5'> +1.7891927e-04 </wgt>
</rwgt>
</event>
<event>
 4      1 +1.4786900e-06 9.29399700e+02 7.81860800e-03 8.75469200e-02
        2 -1    0    0  501    0 +0.0000000000e+00 +0.0000000000e+00 +8.0583331889e+02 8.0583331889e+02 0.0000000000e+00 0.0000e+00 -1.0000e+00
       -2 -1    0    0    0  501 -0.0000000000e+00 -0.0000000000e+00 -2.6797844540e+02 2.6797844540e+02 0.0000000000e+00 0.0000e+00 1.0000e+00
      -13  1    1    2    0    0 +1.1813235426e+02 +4.4264555304e+02 +1.7901806273e+02 4.9187173687e+02 0.0000000000e+00 0.0000e+00 1.0000e+00
       13  1    1    2    0    0 -1.1813235426e+02 -4.4264555304e+02 +3.5883681076e+02 5.8194002742e+02 0.0000000000e+00 0.0000e+00 -1.0000e+00
<mgrwt>
<rscale>  0 0.92939972E+03</rscale>
<asrwt>0</asrwt>
<pdfrwt beam="1">  1        2 0.12397436E+00 0.92939972E+03</pdfrwt>
<pdfrwt beam="2">  1       -2 0.41227453E-01 0.92939972E+03</pdfrwt>
<totfact> 0.23068103E+02</totfact>
</mgrwt>
<rwgt>
<wgt id='morphing_basis_vector_1'> +1.8147969e-04 </wgt>
<wgt id='morphing_basis_vector_2'> +1.2037125e-04 </wgt>
<wgt id='morphing_basis_vector_3'> +1.7077584e-04 </wgt>
<wgt id='morphing_basis_vector_4'> +9.4839352e-05 </wgt>
<wgt id='morphing_basis_vector_5'> +1.5726424e-04 </wgt>
</rwgt>
</event>
<event>
 4      1 +1.4786900e-06 9.83602600e+02 7.81860800e-03 8.70019700e-02
        2 -1    0    0  501    0 +0.0000000000e+00 +0.0000000000e+00 +5.5254331449e+02 5.5254331449e+02 0.0000000000e+00 0.0000e+00 -1.0000e+00
       -2 -1    0    0    0  501 -0.0000000000e+00 -0.0000000000e+00 -4.3773673974e+02 4.3773673974e+02 0.0000000000e+00 0.0000e+00 1.0000e+00
      -13  1    1    2    0    0 -2.2804120282e+02 +2.9197154644e+02 -2.6824010790e+02 4.5738706760e+02 0.0000000000e+00 0.0000e+00 1.0000e+00
       13  1    1    2    0    0 +2.2804120282e+02 -2.9197154644e+02 +3.8304668265e+02 5.3289298663e+02 0.0000000000e+00 0.0000e+00 -1.0000e+00
<mgrwt>
<rscale>  0 0.98360258E+03</rscale>
<asrwt>0</asrwt>
<pdfrwt beam="1">  1        2 0.85006664E-01 0.98360258E+03</pdfrwt>
<pdfrwt beam="2">  1       -2 0.67344114E-01 0.98360258E+03</pdfrwt>
<totfact> 0.13711632E+02</totfact>
</mgrwt>
<rwgt>
<wgt id='morphing_basis_vector_1'> +2.1963065e-04 </wgt>
<wgt id='morphing_basis_vector_2'> +1.3784777e-04 </wgt>
<wgt id='morphing_basis_vector_3'> +2.1039357e-04 </wgt>
<wgt id='morphing_basis_vector_4'> +1.2711333e-04 </wgt>
<wgt id='morphing_basis_vector_5'> +2.0188744e-04 </wgt>
</rwgt>
</event>
<event>
 4      1 +1.4786900e-06 9.35112100e+02 7.81860800e-03 8.74876800e-02
        2 -1    0    0  501    0 +0.0000000000e+00 +0.0000000000e+00 +1.2802668103e+03 1.2802668103e+03 0.0000000000e+00 0.0000e+00 -1.0000e+00
       -2 -1    0    0    0  501 -0.0000000000e+00 -0.0000000000e+00 -1.7075243180e+02 1.7075243180e+02 0.0000000000e+00 0.0000e+00 1.0000e+00
      -13  1    1    2    0    0 -5.5815369752e+01 -4.5233732431e+02 +3.9287131596e+02 6.0172442311e+02 0.0000000000e+00 0.0000e+00 1.0000e+00
       13  1    1    2    0    0 +5.5815369752e+01 +4.5233732431e+02 +7.1664306249e+02 8.4929481894e+02 0.0000000000e+00 0.0000e+00 -1.0000e+00
<mgrwt>
<rscale>  0 0.93511212E+03</rscale>
<asrwt>0</asrwt>
<pdfrwt beam="1">  1        2 0.19696412E+00 0.93511212E+03</pdfrwt>
<pdfrwt beam="2">  1       -2 0.26269606E-01 0.93511212E+03</pdfrwt>
<totfact> 0.26403687E+02</totfact>
</mgrwt>
<rwgt>
<wgt id='morphing_basis_vector_1'> +1.8490318e-04 </wgt>
<wgt id='morphing_basis_vector_2'> +1.2112358e-04 </wgt>
<wgt id='morphing_basis_vector_3'> +1.7439996e-04 </wgt>
<wgt id='morphing_basis_vector_4'> +9.8413475e-05 </wgt>
<wgt id='morphing_basis_vector_5'> +1.6161590e-04 </wgt>
</rwgt>
</event>
<event>
 4      1 +1.4786900e-06 1.04259500e+03 7.81860800e-03 8.64489400e-02
        2 -1    0    0  501    0 +0.0000000000e+00 +0.0000000000e+00 +1.3465139356e+03 1.3465139356e+03 0.0000000000e+00 0.0000e+00 -1.0000e+00
       -2 -1    0    0    0  501 -0.0000000000e+00 -0.0000000000e+00 -2.0181815110e+02 2.0181815110e+02 0.0000000000e+00 0.0000e+00 1.0000e+00
      -13  1    1    2    0    0 -4.9371356619e+02 -1.3442285561e+01 +3.2465983217e+02 5.9104804128e+02 0.0000000000e+00 0.0000e+00 1.0000e+00
       13  1    1    2    0    0 +4.9371356619e+02 +1.3442285561e+01 +8.2003595232e+02 9.5728404540e+02 0.0000000000e+00 0.0000e+00 -1.0000e+00
<mgrwt>
<rscale>  0 0.10425947E+04</rscale>
<asrwt>0</asrwt>
<pdfrwt beam="1">  1        2 0.20715598E+00 0.10425947E+04</pdfrwt>
<pdfrwt beam="2">  1       -2 0.31048947E-01 0.10425947E+04</pdfrwt>
<totfact> 0.17926640E+02</totfact>
</mgrwt>
<rwgt>
<wgt id='morphing_basis_vector_1'> +2.7481324e-04 </wgt>
<wgt id='morphing_basis_vector_2'> +1.7949183e-04 </wgt>
<wgt id='morphing_basis_vector_3'> +2.6720322e-04 </wgt>
<wgt id='morphing_basis_vector_4'> +1.5967839e-04 </wgt>
<wgt id='morphing_basis_vector_5'> +2.5963631e-04 </wgt>
</rwgt>
</event>
<event>
 4      1 +1.4786900e-06 9.37330500e+02 7.81860800e-03 8.74647900e-02
        2 -1    0    0  501    0 +0.0000000000e+00 +0.0000000000e+00 +1.1640006676e+03 1.1640006676e+03 0.0000000000e+00 0.0000e+00 -1.0000e+00
       -2 -1    0    0    0  501 -0.0000000000e+00 -0.0000000000e+00 -1.8870016139e+02 1.8870016139e+02 0.0000000000e+00 0.0000e+00 1.0000e+00
      -13  1    1    2    0    0 +4.2610937115e+02 +1.2408183645e+02 +2.7030708056e+02 5.1964547157e+02 0.0000000000e+00 0.0000e+00 1.0000e+00
       13  1    1    2    0    0 -4.2610937115e+02 -1.2408183645e+02 +7.0499342565e+02 8.3305535742e+02 0.0000000000e+00 0.0000e+00 -1.0000e+00
<mgrwt>
<rscale>  0 0.93733049E+03</rscale>
<asrwt>0</asrwt>
<pdfrwt beam="1">  1        2 0.17907702E+00 0.93733049E+03</pdfrwt>
<pdfrwt beam="2">  1       -2 0.29030795E-01 0.93733049E+03</pdfrwt>
<totfact> 0.25893238E+02</totfact>
</mgrwt>
<rwgt>
<wgt id='morphing_basis_vector_1'> +1.8556950e-04 </wgt>
<wgt id='morphing_basis_vector_2'> +1.1935690e-04 </wgt>
<wgt id='morphing_basis_vector_3'> +1.7524962e-04 </wgt>
<wgt id='morphing_basis_vector_4'> +1.0082197e-04 </wgt>
<wgt id='morphing_basis_vector_5'> +1.6338486e-04 </wgt>
</rwgt>
</event>
<event>
 4      1 +1.4786900e-06 9.95923700e+02 7.81860800e-03 8.68831900e-02
        2 -1    0    0  501    0 +0.0000000000e+00 +0.0000000000e+00 +3.1203210220e+03 3.1203210220e+03 0.0000000000e+00 0.0000e+00 -1.0000e+00
       -2 -1    0    0    0  501 -0.0000000000e+00 -0.0000000000e+00 -7.9468099921e+01 7.9468099921e+01 0.0000000000e+00 0.0000e+00 1.0000e+00
      -13  1    1    2    0    0 -4.2275514718e+02 +2.5297671307e+02 +1.7531523362e+03 1.8210607474e+03 0.0000000000e+00 0.0000e+00 1.0000e+00
       13  1    1    2    0    0 +4.2275514718e+02 -2.5297671307e+02 +1.2877005859e+03 1.3787283745e+03 0.0000000000e+00 0.0000e+00 -1.0000e+00
<mgrwt>
<rscale>  0 0.99592366E+03</rscale>
<asrwt>0</asrwt>
<pdfrwt beam="1">  1        2 0.48004929E+00 0.99592366E+03</pdfrwt>
<pdfrwt beam="2">  1       -2 0.12225864E-01 0.99592366E+03</pdfrwt>
<totfact> 0.79358437E+01</totfact>
</mgrwt>
<rwgt>
<wgt id='morphing_basis_vector_1'> +2.4324853e-04 </wgt>
<wgt id='morphing_basis_vector_2'> +1.8485874e-04 </wgt>
<wgt id='morphing_basis_vector_3'> +2.3329591e-04 </wgt>
<wgt id='morphing_basis_vector_4'> +1.1366380e-04 </wgt>
<wgt id='morphing_basis_vector_5'> +2.1190892e-04 </wgt>
</rwgt>
</event>
<event>
 4      1 +1.4786900e-06 9.89978500e+02 7.81860800e-03 8.69402800e-02
        2 -1    0    0  501    0 +0.0000000000e+00 +0.0000000000e+00 +1.8803172571e+03 1.8803172571e+03 0.0000000000e+00 0.0000e+00 1.0000e+00
       -2 -1    0    0    0  501 -0.0000000000e+00 -0.0000000000e+00 -1.3030480116e+02 1.3030480116e+02 0.0000000000e+00 0.0000e+00 -1.0000e+00
      -13  1    1    2    0    0 +3.6844076776e+02 +7.7612698055e+01 +2.2242744045e+02 4.3731715781e+02 0.0000000000e+00 0.0000e+00 -1.0000e+00
       13  1    1    2    0    0 -3.6844076776e+02 -7.7612698055e+01 +1.5275850155e+03 1.5733049004e+03 0.0000000000e+00 0.0000e+00 1.0000e+00
<mgrwt>
<rscale>  0 0.98997852E+03</rscale>
<asrwt>0</asrwt>
<pdfrwt beam="1">  1        2 0.28927956E+00 0.98997852E+03</pdfrwt>
<pdfrwt beam="2">  1       -2 0.20046894E-01 0.98997852E+03</pdfrwt>
<totfact> 0.19307448E+02</totfact>
</mgrwt>
<rwgt>
<wgt id='morphing_basis_vector_1'> +2.2494973e-04 </wgt>
<wgt id='morphing_basis_vector_2'> +1.4137692e-04 </wgt>
<wgt id='morphing_basis_vector_3'> +2.1585740e-04 </wgt>
<wgt id='morphing_basis_vector_4'> +1.3068069e-04 </wgt>
<wgt id='morphing_basis_vector_5'> +2.0764470e-04 </wgt>
</rwgt>
</event>
<event>
 4      1 +1.4786900e-06 9.02946100e+02 7.81860800e-03 8.78271800e-02
        2 -1    0    0  501    0 +0.0000000000e+00 +0.0000000000e+00 +1.1825301044e+02 1.1825301044e+02 0.0000000000e+00 0.0000e+00 1.0000e+00
       -2 -1    0    0    0  501 -0.0000000000e+00 -0.0000000000e+00 -1.7236593798e+03 1.7236593798e+03 0.0000000000e+00 0.0000e+00 -1.0000e+00
      -13  1    1    2    0    0 +2.5864517431e+02 -2.5692000230e+02 -1.3459532260e+03 1.3944516127e+03 0.0000000000e+00 0.0000e+00 -1.0000e+00
       13  1    1    2    0    0 -2.5864517431e+02 +2.5692000230e+02 -2.5945314334e+02 4.4746077746e+02 0.0000000000e+00 0.0000e+00 1.0000e+00
<mgrwt>
<rscale>  0 0.90294609E+03</rscale>
<asrwt>0</asrwt>
<pdfrwt beam="1">  1        2 0.18192771E-01 0.90294609E+03</pdfrwt>
<pdfrwt beam="2">  1       -2 0.26517836E+00 0.90294609E+03</pdfrwt>
<totfact> 0.16537407E+01</totfact>
</mgrwt>
<rwgt>
<wgt id='morphing_basis_vector_1'> +1.6073361e-04 </wgt>
<wgt id='morphing_basis_vector_2'> +9.9896130e-05 </wgt>
<wgt id='morphing_basis_vector_3'> +1.5023732e-04 </wgt>
<wgt id='morphing_basis_vector_4'> +8.7338171e-05 </wgt>
<wgt id='morphing_basis_vector_5'> +1.3864397e-04 </wgt>
</rwgt>
</event>
<event>
 4      1 +1.4786900e-06 1.00302300e+03 7.81860800e-03 8.68155600e-02
        2 -1    0    0  501    0 +0.0000000000e+00 +0.0000000000e+00 +5.6723412810e+02 5.6723412810e+02 0.0000000000e+00 0.0000e+00 1.0000e+00
       -2 -1    0    0    0  501 -0.0000000000e+00 -0.0000000000e+00 -4.4340413764e+02 4.4340413764e+02 0.0000000000e+00 0.0000e+00 -1.0000e+00
      -13  1    1    2    0    0 +3.5253898832e+02 +1.3123895543e+02 -2.7227541445e+02 4.6437194469e+02 0.0000000000e+00 0.0000e+00 -1.0000e+00
       13  1    1    2    0    0 -3.5253898832e+02 -1.3123895543e+02 +3.9610540490e+02 5.4626632104e+02 0.0000000000e+00 0.0000e+00 1.0000e+00
<mgrwt>
<rscale>  0 0.10030233E+04</rscale>
<asrwt>0</asrwt>
<pdfrwt beam="1">  1        2 0.87266789E-01 0.10030233E+04</pdfrwt>
<pdfrwt beam="2">  1       -2 0.68216021E-01 0.10030233E+04</pdfrwt>
<totfact> 0.12925397E+02</totfact>
</mgrwt>
<rwgt>
<wgt id='morphing_basis_vector_1'> +2.3605833e-04 </wgt>
<wgt id='morphing_basis_vector_2'> +1.4856038e-04 </wgt>
<wgt id='morphing_basis_vector_3'> +2.2729346e-04 </wgt>
<wgt id='morphing_basis_vector_4'> +1.3833557e-04 </wgt>
<wgt id='morphing_basis_vector_5'> +2.1980355e-04 </wgt>
</rwgt>
</event>
<event>
 4      1 +1.4786900e-06 9.89192500e+02 7.81860800e-03 8.69478600e-02
        2 -1    0    0  501    0 +0.0000000000e+00 +0.0000000000e+00 +1.0883676949e+03 1.0883676949e+03 0.0000000000e+00 0.0000e+00 -1.0000e+00
       -2 -1    0    0    0  501 -0.0000000000e+00 -0.0000000000e+00 -2.2476361120e+02 2.2476361120e+02 0.0000000000e+00 0.0000e+00 1.0000e+00
      -13  1    1    2    0    0 -3.0035177468e+00 -2.2374572701e+02 -1.5372604823e+02 2.7148272390e+02 0.0000000000e+00 0.0000e+00 1.0000e+00
       13  1    1    2    0    0 +3.0035177468e+00 +2.2374572701e+02 +1.0173301319e+03 1.0416485822e+03 0.0000000000e+00 0.0000e+00 -1.0000e+00
<mgrwt>
<rscale>  0 0.98919251E+03</rscale>
<asrwt>0</asrwt>
<pdfrwt beam="1">  1        2 0.16744118E+00 0.98919251E+03</pdfrwt>
<pdfrwt beam="2">  1       -2 0.34579018E-01 0.98919251E+03</pdfrwt>
<totfact> 0.20950366E+02</totfact>
</mgrwt>
<rwgt>
<wgt id='morphing_basis_vector_1'> +2.2392123e-04 </wgt>
<wgt id='morphing_basis_vector_2'> +1.3982490e-04 </wgt>
<wgt id='morphing_basis_vector_3'> +2.1484162e-04 </wgt>
<wgt id='morphing_basis_vector_4'> +1.3080029e-04 </wgt>
<wgt id='morphing_basis_vector_5'> +2.0696178e-04 </wgt>
</rwgt>
</event>
<event>
 4      1 +1.4786900e-06 9.36855700e+02 7.81860800e-03 8.74696800e-02
        2 -1    0    0  501    0 +0.0000000000e+00 +0.0000000000e+00 +1.9409172062e+03 1.9409172062e+03 0.0000000000e+00 0.0000e+00 1.0000e+00
       -2 -1    0    0    0  501 -0.0000000000e+00 -0.0000000000e+00 -1.1305203128e+02 1.1305203128e+02 0.0000000000e+00 0.0000e+00 -1.0000e+00
      -13  1    1    2    0    0 +3.7995244416e+02 -1.7978323813e+02 +4.6068843596e+02 6.2363427388e+02 0.0000000000e+00 0.0000e+00 1.0000e+00
       13  1    1    2    0    0 -3.7995244416e+02 +1.7978323813e+02 +1.3671767389e+03 1.4303349635e+03 0.0000000000e+00 0.0000e+00 -1.0000e+00
<mgrwt>
<rscale>  0 0.93685566E+03</rscale>
<asrwt>0</asrwt>
<pdfrwt beam="1">  1        2 0.29860262E+00 0.93685566E+03</pdfrwt>
<pdfrwt beam="2">  1       -2 0.17392622E-01 0.93685566E+03</pdfrwt>
<totfact> 0.22714814E+02</totfact>
</mgrwt>
<rwgt>
<wgt id='morphing_basis_vector_1'> +1.8444001e-04 </wgt>
<wgt id='morphing_basis_vector_2'> +1.1673936e-04 </wgt>
<wgt id='morphing_basis_vector_3'> +1.7423655e-04 </wgt>
<wgt id='morphing_basis_vector_4'> +1.0175568e-04 </wgt>
<wgt id='morphing_basis_vector_5'> +1.6308574e-04 </wgt>
</rwgt>
</event>
<event>
 4      1 +1.4786900e-06 9.25016600e+02 7.81860800e-03 8.75926700e-02
        2 -1    0    0  501    0 +0.0000000000e+00 +0.0000000000e+00 +3.1546292637e+02 3.1546292637e+02 0.0000000000e+00 0.0000e+00 -1.0000e+00
       -2 -1    0    0    0  501 -0.0000000000e+00 -0.0000000000e+00 -6.7809534627e+02 6.7809534627e+02 0.0000000000e+00 0.0000e+00 1.0000e+00
      -13  1    1    2    0    0 -3.9394312302e+02 +7.1652014558e+01 -4.2996170969e+02 5.8753065211e+02 0.0000000000e+00 0.0000e+00 1.0000e+00
       13  1    1    2    0    0 +3.9394312302e+02 -7.1652014558e+01 +6.7329289789e+01 4.0602762053e+02 0.0000000000e+00 0.0000e+00 -1.0000e+00
<mgrwt>
<rscale>  0 0.92501663E+03</rscale>
<asrwt>0</asrwt>
<pdfrwt beam="1">  1        2 0.48532759E-01 0.92501663E+03</pdfrwt>
<pdfrwt beam="2">  1       -2 0.10432236E+00 0.92501663E+03</pdfrwt>
<totfact> 0.95668731E+01</totfact>
</mgrwt>
<rwgt>
<wgt id='morphing_basis_vector_1'> +1.7580374e-04 </wgt>
<wgt id='morphing_basis_vector_2'> +1.1041506e-04 </wgt>
<wgt id='morphing_basis_vector_3'> +1.6548502e-04 </wgt>
<wgt id='morphing_basis_vector_4'> +9.6646464e-05 </wgt>
<wgt id='morphing_basis_vector_5'> +1.5422987e-04 </wgt>
</rwgt>
</event>
<event>
 4      1 +1.4786900e-06 9.95720900e+02 7.81860800e-03 8.68851300e-02
        2 -1    0    0  501    0 +0.0000000000e+00 +0.0000000000e+00 +3.9917548815e+02 3.9917548815e+02 0.0000000000e+00 0.0000e+00 -1.0000e+00
       -2 -1    0    0    0  501 -0.0000000000e+00 -0.0000000000e+00 -6.2094248040e+02 6.2094248040e+02 0.0000000000e+00 0.0000e+00 1.0000e+00
      -13  1    1    2    0    0 +2.0571366838e+02 +2.6673338916e+02 -4.8647239387e+02 5.9170956072e+02 0.0000000000e+00 0.0000e+00 1.0000e+00
       13  1    1    2    0    0 -2.0571366838e+02 -2.6673338916e+02 +2.6470540162e+02 4.2840840783e+02 0.0000000000e+00 0.0000e+00 -1.0000e+00
<mgrwt>
<rscale>  0 0.99572088E+03</rscale>
<asrwt>0</asrwt>
<pdfrwt beam="1">  1        2 0.61411614E-01 0.99572088E+03</pdfrwt>
<pdfrwt beam="2">  1       -2 0.95529612E-01 0.99572088E+03</pdfrwt>
<totfact> 0.90312175E+01</totfact>
</mgrwt>
<rwgt>
<wgt id='morphing_basis_vector_1'> +2.2960342e-04 </wgt>
<wgt id='morphing_basis_vector_2'> +1.4394366e-04 </wgt>
<wgt id='morphing_basis_vector_3'> +2.2066529e-04 </wgt>
<wgt id='morphing_basis_vector_4'> +1.3429666e-04 </wgt>
<wgt id='morphing_basis_vector_5'> +2.1295179e-04 </wgt>
</rwgt>
</event>
<event>
 4      1 +1.4786900e-06 9.31892400e+02 7.81860800e-03 8.75210100e-02
        2 -1    0    0  501    0 +0.0000000000e+00 +0.0000000000e+00 +1.2073458242e+03 1.2073458242e+03 0.0000000000e+00 0.0000e+00 1.0000e+00
       -2 -1    0    0    0  501 -0.0000000000e+00 -0.0000000000e+00 -1.7982076859e+02 1.7982076859e+02 0.0000000000e+00 0.0000e+00 -1.0000e+00
      -13  1    1    2    0    0 -4.2597577689e+02 -1.8304499363e+02 +5.8270370922e+02 7.4465055222e+02 0.0000000000e+00 0.0000e+00 -1.0000e+00
       13  1    1    2    0    0 +4.2597577689e+02 +1.8304499363e+02 +4.4482134638e+02 6.4251604056e+02 0.0000000000e+00 0.0000e+00 1.0000e+00
<mgrwt>
<rscale>  0 0.93189238E+03</rscale>
<asrwt>0</asrwt>
<pdfrwt beam="1">  1        2 0.18574551E+00 0.93189238E+03</pdfrwt>
<pdfrwt beam="2">  1       -2 0.27664734E-01 0.93189238E+03</pdfrwt>
<totfact> 0.26588016E+02</totfact>
</mgrwt>
<rwgt>
<wgt id='morphing_basis_vector_1'> +1.8895123e-04 </wgt>
<wgt id='morphing_basis_vector_2'> +1.3888257e-04 </wgt>
<wgt id='morphing_basis_vector_3'> +1.7734865e-04 </wgt>
<wgt id='morphing_basis_vector_4'> +8.7623419e-05 </wgt>
<wgt id='morphing_basis_vector_5'> +1.5866810e-04 </wgt>
</rwgt>
</event>
<event>
 4      1 +1.4786900e-06 1.05431200e+03 7.81860800e-03 8.63436100e-02
        2 -1    0    0  501    0 +0.0000000000e+00 +0.0000000000e+00 +1.5816582329e+03 1.5816582329e+03 0.0000000000e+00 0.0000e+00 1.0000e+00
       -2 -1    0    0    0  501 -0.0000000000e+00 -0.0000000000e+00 -1.7569757401e+02 1.7569757401e+02 0.0000000000e+00 0.0000e+00 -1.0000e+00
      -13  1    1    2    0    0 -1.2875919675e+02 +5.1109613391e+02 +6.8670629416e+02 8.6565797130e+02 0.0000000000e+00 0.0000e+00 -1.0000e+00
       13  1    1    2    0    0 +1.2875919675e+02 -5.1109613391e+02 +7.1925436468e+02 8.9169783556e+02 0.0000000000e+00 0.0000e+00 1.0000e+00
<mgrwt>
<rscale>  0 0.10543121E+04</rscale>
<asrwt>0</asrwt>
<pdfrwt beam="1">  1        2 0.24333203E+00 0.10543121E+04</pdfrwt>
<pdfrwt beam="2">  1       -2 0.27030397E-01 0.10543121E+04</pdfrwt>
<totfact> 0.16888781E+02</totfact>
</mgrwt>
<rwgt>
<wgt id='morphing_basis_vector_1'> +2.9308436e-04 </wgt>
<wgt id='morphing_basis_vector_2'> +2.0732682e-04 </wgt>
<wgt id='morphing_basis_vector_3'> +2.8588651e-04 </wgt>
<wgt id='morphing_basis_vector_4'> +1.5695416e-04 </wgt>
<wgt id='morphing_basis_vector_5'> +2.7178765e-04 </wgt>
</rwgt>
</event>
<event>
 4      1 +1.4786900e-06 9.36342800e+02 7.81860800e-03 8.74749700e-02
        2 -1    0    0  501    0 +0.0000000000e+00 +0.0000000000e+00 +4.5857544608e+02 4.5857544608e+02 0.0000000000e+00 0.0000e+00 -1.0000e+00
       -2 -1    0    0    0  501 -0.0000000000e+00 -0.0000000000e+00 -4.7796820358e+02 4.7796820358e+02 0.0000000000e+00 0.0000e+00 1.0000e+00
      -13  1    1    2    0    0 -4.1876546972e+02 +3.5092035535e+01 -2.1611047963e+02 4.7254598611e+02 0.0000000000e+00 0.0000e+00 1.0000e+00
       13  1    1    2    0    0 +4.1876546972e+02 -3.5092035535e+01 +1.9671772213e+02 4.6399766355e+02 0.0000000000e+00 0.0000e+00 -1.0000e+00
<mgrwt>
<rscale>  0 0.93634285E+03</rscale>
<asrwt>0</asrwt>
<pdfrwt beam="1">  1        2 0.70550069E-01 0.93634285E+03</pdfrwt>
<pdfrwt beam="2">  1       -2 0.73533569E-01 0.93634285E+03</pdfrwt>
<totfact> 0.14098503E+02</totfact>
</mgrwt>
<rwgt>
<wgt id='morphing_basis_vector_1'> +1.8407392e-04 </wgt>
<wgt id='morphing_basis_vector_2'> +1.1650446e-04 </wgt>
<wgt id='morphing_basis_vector_3'> +1.7386252e-04 </wgt>
<wgt id='morphing_basis_vector_4'> +1.0150893e-04 </wgt>
<wgt id='morphing_basis_vector_5'> +1.6269348e-04 </wgt>
</rwgt>
</event>
<event>
 4      1 +1.4786900e-06 9.51663100e+02 7.81860800e-03 8.73185000e-02
        2 -1    0    0  501    0 +0.0000000000e+00 +0.0000000000e+00 +2.6820727061e+03 2.6820727061e+03 0.0000000000e+00 0.0000e+00 1.0000e+00
       -2 -1    0    0    0  501 -0.0000000000e+00 -0.0000000000e+00 -8.4418173807e+01 8.4418173807e+01 0.0000000000e+00 0.0000e+00 -1.0000e+00
      -13  1    1    2    0    0 +2.5032943146e+02 +3.9654686158e+02 +1.0644309135e+03 1.1631540772e+03 0.0000000000e+00 0.0000e+00 -1.0000e+00
       13  1    1    2    0    0 -2.5032943146e+02 -3.9654686158e+02 +1.5332236188e+03 1.6033368027e+03 0.0000000000e+00 0.0000e+00 1.0000e+00
<mgrwt>
<rscale>  0 0.95166313E+03</rscale>
<asrwt>0</asrwt>
<pdfrwt beam="1">  1        2 0.41262650E+00 0.95166313E+03</pdfrwt>
<pdfrwt beam="2">  1       -2 0.12987413E-01 0.95166313E+03</pdfrwt>
<totfact> 0.13660972E+02</totfact>
</mgrwt>
<rwgt>
<wgt id='morphing_basis_vector_1'> +1.9787528e-04 </wgt>
<wgt id='morphing_basis_vector_2'> +1.3163085e-04 </wgt>
<wgt id='morphing_basis_vector_3'> +1.8756398e-04 </wgt>
<wgt id='morphing_basis_vector_4'> +1.0517152e-04 </wgt>
<wgt id='morphing_basis_vector_5'> +1.7449102e-04 </wgt>
</rwgt>
</event>
<event>
 4      1 +1.4786900e-06 9.69479800e+02 7.81860800e-03 8.71403700e-02
        2 -1    0    0  501    0 +0.0000000000e+00 +0.0000000000e+00 +2.2151356805e+03 2.2151356805e+03 0.0000000000e+00 0.0000e+00 -1.0000e+00
       -2 -1    0    0    0  501 -0.0000000000e+00 -0.0000000000e+00 -1.0607602160e+02 1.0607602160e+02 0.0000000000e+00 0.0000e+00 1.0000e+00
      -13  1    1    2    0    0 -3.4662485433e+02 +1.7215757017e+02 +3.5571923055e+02 5.2566452190e+02 0.0000000000e+00 0.0000e+00 1.0000e+00
       13  1    1    2    0    0 +3.4662485433e+02 -1.7215757017e+02 +1.7533404283e+03 1.7955471802e+03 0.0000000000e+00 0.0000e+00 -1.0000e+00
<mgrwt>
<rscale>  0 0.96947982E+03</rscale>
<asrwt>0</asrwt>
<pdfrwt beam="1">  1        2 0.34079007E+00 0.96947982E+03</pdfrwt>
<pdfrwt beam="2">  1       -2 0.16319390E-01 0.96947982E+03</pdfrwt>
<totfact> 0.17663994E+02</totfact>
</mgrwt>
<rwgt>
<wgt id='morphing_basis_vector_1'> +2.0839728e-04 </wgt>
<wgt id='morphing_basis_vector_2'> +1.3088572e-04 </wgt>
<wgt id='morphing_basis_vector_3'> +1.9884567e-04 </wgt>
<wgt id='morphing_basis_vector_4'> +1.1915924e-04 </wgt>
<wgt id='morphing_basis_vector_5'> +1.8953279e-04 </wgt>
</rwgt>
</event>
<event>
 4      1 +1.4786900e-06 9.84834200e+02 7.81860800e-03 8.69900200e-02
        2 -1    0    0  501    0 +0.0000000000e+00 +0.0000000000e+00 +8.2279375192e+02 8.2279375192e+02 0.0000000000e+00 0.0000e+00 -1.0000e+00
       -2 -1    0    0    0  501 -0.0000000000e+00 -0.0000000000e+00 -2.9469668447e+02 2.9469668447e+02 0.0000000000e+00 0.0000e+00 1.0000e+00
      -13  1    1    2    0    0 +3.2305764699e+02 -2.5895382252e+01 -1.5661393122e+02 3.5995102104e+02 0.0000000000e+00 0.0000e+00 1.0000e+00
       13  1    1    2    0    0 -3.2305764699e+02 +2.5895382252e+01 +6.8471099867e+02 7.5753941534e+02 0.0000000000e+00 0.0000e+00 -1.0000e+00
<mgrwt>
<rscale>  0 0.98483418E+03</rscale>
<asrwt>0</asrwt>
<pdfrwt beam="1">  1        2 0.12658365E+00 0.98483418E+03</pdfrwt>
<pdfrwt beam="2">  1       -2 0.45337952E-01 0.98483418E+03</pdfrwt>
<totfact> 0.18689764E+02</totfact>
</mgrwt>
<rwgt>
<wgt id='morphing_basis_vector_1'> +2.2044892e-04 </wgt>
<wgt id='morphing_basis_vector_2'> +1.3791343e-04 </wgt>
<wgt id='morphing_basis_vector_3'> +2.1125732e-04 </wgt>
<wgt id='morphing_basis_vector_4'> +1.2810476e-04 </wgt>
<wgt id='morphing_basis_vector_5'> +2.0300843e-04 </wgt>
</rwgt>
</event>
<event>
 4      1 +1.4786900e-06 9.25803400e+02 7.81860800e-03 8.75844400e-02
        2 -1    0    0  501    0 +0.0000000000e+00 +0.0000000000e+00 +7.1553839989e+02 7.1553839989e+02 0.0000000000e+00 0.0000e+00 -1.0000e+00
       -2 -1    0    0    0  501 -0.0000000000e+00 -0.0000000000e+00 -2.9946397645e+02 2.9946397645e+02 0.0000000000e+00 0.0000e+00 1.0000e+00
      -13  1    1    2    0    0 +2.7872825668e+02 -1.3856282676e+02 -1.6759408556e+02 3.5352068617e+02 0.0000000000e+00 0.0000e+00 1.0000e+00
       13  1    1    2    0    0 -2.7872825668e+02 +1.3856282676e+02 +5.8366850900e+02 6.6148169017e+02 0.0000000000e+00 0.0000e+00 -1.0000e+00
<mgrwt>
<rscale>  0 0.92580338E+03</rscale>
<asrwt>0</asrwt>
<pdfrwt beam="1">  1        2 0.11008283E+00 0.92580338E+03</pdfrwt>
<pdfrwt beam="2">  1       -2 0.46071381E-01 0.92580338E+03</pdfrwt>
<totfact> 0.21703405E+02</totfact>
</mgrwt>
<rwgt>
<wgt id='morphing_basis_vector_1'> +1.7574610e-04 </wgt>
<wgt id='morphing_basis_vector_2'> +1.0893771e-04 </wgt>
<wgt id='morphing_basis_vector_3'> +1.6554236e-04 </wgt>
<wgt id='morphing_basis_vector_4'> +9.7885852e-05 </wgt>
<wgt id='morphing_basis_vector_5'> +1.5485694e-04 </wgt>
</rwgt>
</event>
<event>
 4      1 +1.4786900e-06 9.02842100e+02 7.81860800e-03 8.78283000e-02
        2 -1    0    0  501    0 +0.0000000000e+00 +0.0000000000e+00 +4.5363219888e+02 4.5363219888e+02 0.0000000000e+00 0.0000e+00 -1.0000e+00
       -2 -1    0    0    0  501 -0.0000000000e+00 -0.0000000000e+00 -4.4922072090e+02 4.4922072090e+02 0.0000000000e+00 0.0000e+00 1.0000e+00
      -13  1    1    2    0    0 -1.2349378846e+02 -1.1437558527e+02 -4.1666498325e+02 4.4937979323e+02 0.0000000000e+00 0.0000e+00 1.0000e+00
       13  1    1    2    0    0 +1.2349378846e+02 +1.1437558527e+02 +4.2107646124e+02 4.5347312655e+02 0.0000000000e+00 0.0000e+00 -1.0000e+00
<mgrwt>
<rscale>  0 0.90284214E+03</rscale>
<asrwt>0</asrwt>
<pdfrwt beam="1">  1        2 0.69789569E-01 0.90284214E+03</pdfrwt>
<pdfrwt beam="2">  1       -2 0.69110880E-01 0.90284214E+03</pdfrwt>
<totfact> 0.16346603E+02</totfact>
</mgrwt>
<rwgt>
<wgt id='morphing_basis_vector_1'> +1.6025872e-04 </wgt>
<wgt id='morphing_basis_vector_2'> +9.8611772e-05 </wgt>
<wgt id='morphing_basis_vector_3'> +1.4984732e-04 </wgt>
<wgt id='morphing_basis_vector_4'> +8.7875415e-05 </wgt>
<wgt id='morphing_basis_vector_5'> +1.3860413e-04 </wgt>
</rwgt>
</event>
<event>
 4      1 +1.4786900e-06 9.21520600e+02 7.81860800e-03 8.76293600e-02
        2 -1    0    0  501    0 +0.0000000000e+00 +0.0000000000e+00 +2.1059662827e+03 2.1059662827e+03 0.0000000000e+00 0.0000e+00 -1.0000e+00
       -2 -1    0    0    0  501 -0.0000000000e+00 -0.0000000000e+00 -1.0080886657e+02 1.0080886657e+02 0.0000000000e+00 0.0000e+00 1.0000e+00
      -13  1    1    2    0    0 +2.8915373929e+02 -3.2740313160e+02 +6.5146663145e+02 7.8435417218e+02 0.0000000000e+00 0.0000e+00 1.0000e+00
       13  1    1    2    0    0 -2.8915373929e+02 +3.2740313160e+02 +1.3536907846e+03 1.4224209770e+03 0.0000000000e+00 0.0000e+00 -1.0000e+00
<mgrwt>
<rscale>  0 0.92152064E+03</rscale>
<asrwt>0</asrwt>
<pdfrwt beam="1">  1        2 0.32399478E+00 0.92152064E+03</pdfrwt>
<pdfrwt beam="2">  1       -2 0.15509058E-01 0.92152064E+03</pdfrwt>
<totfact> 0.22201327E+02</totfact>
</mgrwt>
<rwgt>
<wgt id='morphing_basis_vector_1'> +1.7441628e-04 </wgt>
<wgt id='morphing_basis_vector_2'> +1.1194754e-04 </wgt>
<wgt id='morphing_basis_vector_3'> +1.6387004e-04 </wgt>
<wgt id='morphing_basis_vector_4'> +9.3574118e-05 </wgt>
<wgt id='morphing_basis_vector_5'> +1.5159575e-04 </wgt>
</rwgt>
</event>
<event>
 4      1 +1.4786900e-06 1.03213400e+03 7.81860800e-03 8.65442000e-02
        2 -1    0    0  501    0 +0.0000000000e+00 +0.0000000000e+00 +3.6591922644e+02 3.6591922644e+02 0.0000000000e+00 0.0000e+00 1.0000e+00
       -2 -1    0    0    0  501 -0.0000000000e+00 -0.0000000000e+00 -7.2782466888e+02 7.2782466888e+02 0.0000000000e+00 0.0000e+00 -1.0000e+00
      -13  1    1    2    0    0 +3.3436716128e+02 -2.4779259227e+02 +1.4242261649e+02 4.3987130960e+02 0.0000000000e+00 0.0000e+00 1.0000e+00
       13  1    1    2    0    0 -3.3436716128e+02 +2.4779259227e+02 -5.0432805894e+02 6.5387258572e+02 0.0000000000e+00 0.0000e+00 -1.0000e+00
<mgrwt>
<rscale>  0 0.10321338E+04</rscale>
<asrwt>0</asrwt>
<pdfrwt beam="1">  1        2 0.56295266E-01 0.10321338E+04</pdfrwt>
<pdfrwt beam="2">  1       -2 0.11197303E+00 0.10321338E+04</pdfrwt>
<totfact> 0.67388009E+01</totfact>
</mgrwt>
<rwgt>
<wgt id='morphing_basis_vector_1'> +3.2175272e-04 </wgt>
<wgt id='morphing_basis_vector_2'> +3.4513889e-04 </wgt>
<wgt id='morphing_basis_vector_3'> +3.1198681e-04 </wgt>
<wgt id='morphing_basis_vector_4'> +6.2901132e-05 </wgt>
<wgt id='morphing_basis_vector_5'> +2.4306227e-04 </wgt>
</rwgt>
</event>
<event>
 4      1 +1.4786900e-06 1.01323000e+03 7.81860800e-03 8.67193400e-02
        2 -1    0    0  501    0 +0.0000000000e+00 +0.0000000000e+00 +1.2458331725e+03 1.2458331725e+03 0.0000000000e+00 0.0000e+00 1.0000e+00
       -2 -1    0    0    0  501 -0.0000000000e+00 -0.0000000000e+00 -2.0601389232e+02 2.0601389232e+02 0.0000000000e+00 0.0000e+00 -1.0000e+00
      -13  1    1    2    0    0 -3.4706554131e+02 -3.6016949503e+02 +4.0454303368e+02 6.4329745936e+02 0.0000000000e+00 0.0000e+00 1.0000e+00
       13  1    1    2    0    0 +3.4706554131e+02 +3.6016949503e+02 +6.3527624649e+02 8.0854960545e+02 0.0000000000e+00 0.0000e+00 -1.0000e+00
<mgrwt>
<rscale>  0 0.10132304E+04</rscale>
<asrwt>0</asrwt>
<pdfrwt beam="1">  1        2 0.19166664E+00 0.10132304E+04</pdfrwt>
<pdfrwt beam="2">  1       -2 0.31694446E-01 0.10132304E+04</pdfrwt>
<totfact> 0.19766780E+02</totfact>
</mgrwt>
<rwgt>
<wgt id='morphing_basis_vector_1'> +2.4950133e-04 </wgt>
<wgt id='morphing_basis_vector_2'> +1.6787008e-04 </wgt>
<wgt id='morphing_basis_vector_3'> +2.4077535e-04 </wgt>
<wgt id='morphing_basis_vector_4'> +1.3759921e-04 </wgt>
<wgt id='morphing_basis_vector_5'> +2.2925454e-04 </wgt>
</rwgt>
</event>
<event>
 4      1 +1.4786900e-06 1.05207600e+03 7.81860800e-03 8.63636000e-02
        2 -1    0    0  501    0 +0.0000000000e+00 +0.0000000000e+00 +1.6378678093e+03 1.6378678093e+03 0.0000000000e+00 0.0000e+00 1.0000e+00
       -2 -1    0    0    0  501 -0.0000000000e+00 -0.0000000000e+00 -1.6894885449e+02 1.6894885449e+02 0.0000000000e+00 0.0000e+00 -1.0000e+00
      -13  1    1    2    0    0 +4.5521020154e+02 -9.5250766009e+01 +3.1229466203e+02 5.6019370930e+02 0.0000000000e+00 0.0000e+00 -1.0000e+00
       13  1    1    2    0    0 -4.5521020154e+02 +9.5250766009e+01 +1.1566242928e+03 1.2466229545e+03 0.0000000000e+00 0.0000e+00 1.0000e+00
<mgrwt>
<rscale>  0 0.10520758E+04</rscale>
<asrwt>0</asrwt>
<pdfrwt beam="1">  1        2 0.25197965E+00 0.10520758E+04</pdfrwt>
<pdfrwt beam="2">  1       -2 0.25992133E-01 0.10520758E+04</pdfrwt>
<totfact> 0.16829355E+02</totfact>
</mgrwt>
<rwgt>
<wgt id='morphing_basis_vector_1'> +2.8279542e-04 </wgt>
<wgt id='morphing_basis_vector_2'> +1.8153578e-04 </wgt>
<wgt id='morphing_basis_vector_3'> +2.7555966e-04 </wgt>
<wgt id='morphing_basis_vector_4'> +1.6828234e-04 </wgt>
<wgt id='morphing_basis_vector_5'> +2.7010852e-04 </wgt>
</rwgt>
</event>
<event>
 4      1 +1.4786900e-06 1.03457600e+03 7.81860800e-03 8.65218500e-02
        2 -1    0    0  501    0 +0.0000000000e+00 +0.0000000000e+00 +2.0453821221e+03 2.0453821221e+03 0.0000000000e+00 0.0000e+00 -1.0000e+00
       -2 -1    0    0    0  501 -0.0000000000e+00 -0.0000000000e+00 -1.3082490006e+02 1.3082490006e+02 0.0000000000e+00 0.0000e+00 1.0000e+00
      -13  1    1    2    0    0 +4.8695931164e+02 -1.5592956548e+02 +7.9240691621e+02 9.4305467574e+02 0.0000000000e+00 0.0000e+00 1.0000e+00
       13  1    1    2    0    0 -4.8695931164e+02 +1.5592956548e+02 +1.1221503058e+03 1.2331523464e+03 0.0000000000e+00 0.0000e+00 -1.0000e+00
<mgrwt>
<rscale>  0 0.10345761E+04</rscale>
<asrwt>0</asrwt>
<pdfrwt beam="1">  1        2 0.31467415E+00 0.10345761E+04</pdfrwt>
<pdfrwt beam="2">  1       -2 0.20126909E-01 0.10345761E+04</pdfrwt>
<totfact> 0.15471555E+02</totfact>
</mgrwt>
<rwgt>
<wgt id='morphing_basis_vector_1'> +2.6971326e-04 </wgt>
<wgt id='morphing_basis_vector_2'> +1.8231776e-04 </wgt>
<wgt id='morphing_basis_vector_3'> +2.6173753e-04 </wgt>
<wgt id='morphing_basis_vector_4'> +1.5025070e-04 </wgt>
<wgt id='morphing_basis_vector_5'> +2.5086875e-04 </wgt>
</rwgt>
</event>
<event>
 4      1 +1.4786900e-06 9.94637800e+02 7.81860800e-03 8.68955000e-02
        2 -1    0    0  501    0 +0.0000000000e+00 +0.0000000000e+00 +4.8867454090e+02 4.8867454090e+02 0.0000000000e+00 0.0000e+00 1.0000e+00
       -2 -1    0    0    0  501 -0.0000000000e+00 -0.0000000000e+00 -5.0611621646e+02 5.0611621646e+02 0.0000000000e+00 0.0000e+00 -1.0000e+00
      -13  1    1    2    0    0 -1.5212185444e+01 +4.9705892850e+02 -1.3929395383e+01 4.9748670037e+02 0.0000000000e+00 0.0000e+00 1.0000e+00
       13  1    1    2    0    0 +1.5212185444e+01 -4.9705892850e+02 -3.5122801805e+00 4.9730405699e+02 0.0000000000e+00 0.0000e+00 -1.0000e+00
<mgrwt>
<rscale>  0 0.99463784E+03</rscale>
<asrwt>0</asrwt>
<pdfrwt beam="1">  1        2 0.75180699E-01 0.99463784E+03</pdfrwt>
<pdfrwt beam="2">  1       -2 0.77864033E-01 0.99463784E+03</pdfrwt>
<totfact> 0.11513877E+02</totfact>
</mgrwt>
<rwgt>
<wgt id='morphing_basis_vector_1'> +2.3633709e-04 </wgt>
<wgt id='morphing_basis_vector_2'> +1.6652717e-04 </wgt>
<wgt id='morphing_basis_vector_3'> +2.2678058e-04 </wgt>
<wgt id='morphing_basis_vector_4'> +1.2188755e-04 </wgt>
<wgt id='morphing_basis_vector_5'> +2.1124860e-04 </wgt>
</rwgt>
</event>
<event>
 4      1 +1.4786900e-06 9.21563700e+02 7.81860800e-03 8.76289100e-02
        2 -1    0    0  501    0 +0.0000000000e+00 +0.0000000000e+00 +1.1559677994e+03 1.1559677994e+03 0.0000000000e+00 0.0000e+00 1.0000e+00
       -2 -1    0    0    0  501 -0.0000000000e+00 -0.0000000000e+00 -1.8367286936e+02 1.8367286936e+02 0.0000000000e+00 0.0000e+00 -1.0000e+00
      -13  1    1    2    0    0 -1.9418663884e+02 +8.9527913530e+01 -1.0718147477e+02 2.3918939471e+02 0.0000000000e+00 0.0000e+00 -1.0000e+00
       13  1    1    2    0    0 +1.9418663884e+02 -8.9527913530e+01 +1.0794764048e+03 1.1004512740e+03 0.0000000000e+00 0.0000e+00 1.0000e+00
<mgrwt>
<rscale>  0 0.92156372E+03</rscale>
<asrwt>0</asrwt>
<pdfrwt beam="1">  1        2 0.17784120E+00 0.92156372E+03</pdfrwt>
<pdfrwt beam="2">  1       -2 0.28257365E-01 0.92156372E+03</pdfrwt>
<totfact> 0.27472750E+02</totfact>
</mgrwt>
<rwgt>
<wgt id='morphing_basis_vector_1'> +1.7270203e-04 </wgt>
<wgt id='morphing_basis_vector_2'> +1.0666551e-04 </wgt>
<wgt id='morphing_basis_vector_3'> +1.6247144e-04 </wgt>
<wgt id='morphing_basis_vector_4'> +9.6124212e-05 </wgt>
<wgt id='morphing_basis_vector_5'> +1.5176494e-04 </wgt>
</rwgt>
</event>
<event>
 4      1 +1.4786900e-06 9.72043100e+02 7.81860800e-03 8.71150700e-02
        2 -1    0    0  501    0 +0.0000000000e+00 +0.0000000000e+00 +3.9450436114e+02 3.9450436114e+02 0.0000000000e+00 0.0000e+00 1.0000e+00
       -2 -1    0    0    0  501 -0.0000000000e+00 -0.0000000000e+00 -5.9876888481e+02 5.9876888481e+02 0.0000000000e+00 0.0000e+00 -1.0000e+00
      -13  1    1    2    0    0 -2.3760303263e+02 +2.5172180352e+02 -4.5075502465e+02 5.6833015029e+02 0.0000000000e+00 0.0000e+00 -1.0000e+00
       13  1    1    2    0    0 +2.3760303263e+02 -2.5172180352e+02 +2.4649050098e+02 4.2494309567e+02 0.0000000000e+00 0.0000e+00 1.0000e+00
<mgrwt>
<rscale>  0 0.97204308E+03</rscale>
<asrwt>0</asrwt>
<pdfrwt beam="1">  1        2 0.60692979E-01 0.97204308E+03</pdfrwt>
<pdfrwt beam="2">  1       -2 0.92118290E-01 0.97204308E+03</pdfrwt>
<totfact> 0.99862782E+01</totfact>
</mgrwt>
<rwgt>
<wgt id='morphing_basis_vector_1'> +2.1017616e-04 </wgt>
<wgt id='morphing_basis_vector_2'> +1.3144275e-04 </wgt>
<wgt id='morphing_basis_vector_3'> +2.0070348e-04 </wgt>
<wgt id='morphing_basis_vector_4'> +1.2091726e-04 </wgt>
<wgt id='morphing_basis_vector_5'> +1.9175281e-04 </wgt>
</rwgt>
</event>
<event>
 4      1 +1.4786900e-06 9.55780700e+02 7.81860800e-03 8.72769800e-02
        2 -1    0    0  501    0 +0.0000000000e+00 +0.0000000000e+00 +1.0377027154e+03 1.0377027154e+03 0.0000000000e+00 0.0000e+00 -1.0000e+00
       -2 -1    0    0    0  501 -0.0000000000e+00 -0.0000000000e+00 -2.2008149493e+02 2.2008149493e+02 0.0000000000e+00 0.0000e+00 1.0000e+00
      -13  1    1    2    0    0 +1.5013466511e+02 -3.4091896880e+02 +1.4867580753e+01 3.7280987904e+02 0.0000000000e+00 0.0000e+00 1.0000e+00
       13  1    1    2    0    0 -1.5013466511e+02 +3.4091896880e+02 +8.0275363976e+02 8.8497433132e+02 0.0000000000e+00 0.0000e+00 -1.0000e+00
<mgrwt>
<rscale>  0 0.95578065E+03</rscale>
<asrwt>0</asrwt>
<pdfrwt beam="1">  1        2 0.15964657E+00 0.95578065E+03</pdfrwt>
<pdfrwt beam="2">  1       -2 0.33858692E-01 0.95578065E+03</pdfrwt>
<totfact> 0.23407651E+02</totfact>
</mgrwt>
<rwgt>
<wgt id='morphing_basis_vector_1'> +1.9771501e-04 </wgt>
<wgt id='morphing_basis_vector_2'> +1.2374218e-04 </wgt>
<wgt id='morphing_basis_vector_3'> +1.8791702e-04 </wgt>
<wgt id='morphing_basis_vector_4'> +1.1212141e-04 </wgt>
<wgt id='morphing_basis_vector_5'> +1.7810317e-04 </wgt>
</rwgt>
</event>
<event>
 4      1 +1.4786900e-06 1.02612300e+03 7.81860800e-03 8.65994600e-02
        2 -1    0    0  501    0 +0.0000000000e+00 +0.0000000000e+00 +7.6832914624e+02 7.6832914624e+02 0.0000000000e+00 0.0000e+00 1.0000e+00
       -2 -1    0    0    0  501 -0.0000000000e+00 -0.0000000000e+00 -3.4260328194e+02 3.4260328194e+02 0.0000000000e+00 0.0000e+00 -1.0000e+00
      -13  1    1    2    0    0 +1.2383520372e+02 +4.9645958771e+02 +1.7199654121e+02 5.3980560399e+02 0.0000000000e+00 0.0000e+00 1.0000e+00
       13  1    1    2    0    0 -1.2383520372e+02 -4.9645958771e+02 +2.5372932309e+02 5.7112682419e+02 0.0000000000e+00 0.0000e+00 -1.0000e+00
<mgrwt>
<rscale>  0 0.10261230E+04</rscale>
<asrwt>0</asrwt>
<pdfrwt beam="1">  1        2 0.11820448E+00 0.10261230E+04</pdfrwt>
<pdfrwt beam="2">  1       -2 0.52708198E-01 0.10261230E+04</pdfrwt>
<totfact> 0.15173201E+02</totfact>
</mgrwt>
<rwgt>
<wgt id='morphing_basis_vector_1'> +2.6341598e-04 </wgt>
<wgt id='morphing_basis_vector_2'> +1.8208841e-04 </wgt>
<wgt id='morphing_basis_vector_3'> +2.5505837e-04 </wgt>
<wgt id='morphing_basis_vector_4'> +1.4223206e-04 </wgt>
<wgt id='morphing_basis_vector_5'> +2.4196139e-04 </wgt>
</rwgt>
</event>
<event>
 4      1 +1.4786900e-06 1.04575700e+03 7.81860800e-03 8.64203700e-02
        2 -1    0    0  501    0 +0.0000000000e+00 +0.0000000000e+00 +1.2643323040e+03 1.2643323040e+03 0.0000000000e+00 0.0000e+00 -1.0000e+00
       -2 -1    0    0    0  501 -0.0000000000e+00 -0.0000000000e+00 -2.1624228949e+02 2.1624228949e+02 0.0000000000e+00 0.0000e+00 1.0000e+00
      -13  1    1    2    0    0 -3.8965420919e+02 +1.0678921740e+02 +5.4122064963e+01 4.0763161998e+02 0.0000000000e+00 0.0000e+00 1.0000e+00
       13  1    1    2    0    0 +3.8965420919e+02 -1.0678921740e+02 +9.9396794955e+02 1.0729429735e+03 0.0000000000e+00 0.0000e+00 -1.0000e+00
<mgrwt>
<rscale>  0 0.10457574E+04</rscale>
<asrwt>0</asrwt>
<pdfrwt beam="1">  1        2 0.19451266E+00 0.10457574E+04</pdfrwt>
<pdfrwt beam="2">  1       -2 0.33268045E-01 0.10457574E+04</pdfrwt>
<totfact> 0.17645968E+02</totfact>
</mgrwt>
<rwgt>
<wgt id='morphing_basis_vector_1'> +2.7564914e-04 </wgt>
<wgt id='morphing_basis_vector_2'> +1.7471645e-04 </wgt>
<wgt id='morphing_basis_vector_3'> +2.6819286e-04 </wgt>
<wgt id='morphing_basis_vector_4'> +1.6538921e-04 </wgt>
<wgt id='morphing_basis_vector_5'> +2.6327374e-04 </wgt>
</rwgt>
</event>
<event>
 4      1 +1.4786900e-06 1.03600100e+03 7.81860800e-03 8.65088500e-02
        2 -1    0    0  501    0 +0.0000000000e+00 +0.0000000000e+00 +1.5881371157e+03 1.5881371157e+03 0.0000000000e+00 0.0000e+00 1.0000e+00
       -2 -1    0    0    0  501 -0.0000000000e+00 -0.0000000000e+00 -1.6895560185e+02 1.6895560185e+02 0.0000000000e+00 0.0000e+00 -1.0000e+00
      -13  1    1    2    0    0 +3.4599951522e+02 -3.5089086223e+02 +9.8034377243e+02 1.0972301372e+03 0.0000000000e+00 0.0000e+00 -1.0000e+00
       13  1    1    2    0    0 -3.4599951522e+02 +3.5089086223e+02 +4.3883774146e+02 6.5986258044e+02 0.0000000000e+00 0.0000e+00 1.0000e+00
<mgrwt>
<rscale>  0 0.10360013E+04</rscale>
<asrwt>0</asrwt>
<pdfrwt beam="1">  1        2 0.24432878E+00 0.10360013E+04</pdfrwt>
<pdfrwt beam="2">  1       -2 0.25993171E-01 0.10360013E+04</pdfrwt>
<totfact> 0.17950092E+02</totfact>
</mgrwt>
<rwgt>
<wgt id='morphing_basis_vector_1'> +2.9288311e-04 </wgt>
<wgt id='morphing_basis_vector_2'> +2.4914614e-04 </wgt>
<wgt id='morphing_basis_vector_3'> +2.8438029e-04 </wgt>
<wgt id='morphing_basis_vector_4'> +1.1667911e-04 </wgt>
<wgt id='morphing_basis_vector_5'> +2.5024574e-04 </wgt>
</rwgt>
</event>
<event>
 4      1 +1.4786900e-06 1.03999000e+03 7.81860800e-03 8.64725500e-02
        2 -1    0    0  501    0 +0.0000000000e+00 +0.0000000000e+00 +3.9483791343e+02 3.9483791343e+02 0.0000000000e+00 0.0000e+00 -1.0000e+00
       -2 -1    0    0    0  501 -0.0000000000e+00 -0.0000000000e+00 -6.8482504784e+02 6.8482504784e+02 0.0000000000e+00 0.0000e+00 1.0000e+00
      -13  1    1    2    0    0 +2.8446907356e+02 -2.4923395940e+02 -5.1547496512e+02 6.3933923703e+02 0.0000000000e+00 0.0000e+00 1.0000e+00
       13  1    1    2    0    0 -2.8446907356e+02 +2.4923395940e+02 +2.2548783072e+02 4.4032372424e+02 0.0000000000e+00 0.0000e+00 -1.0000e+00
<mgrwt>
<rscale>  0 0.10399902E+04</rscale>
<asrwt>0</asrwt>
<pdfrwt beam="1">  1        2 0.60744295E-01 0.10399902E+04</pdfrwt>
<pdfrwt beam="2">  1       -2 0.10535770E+00 0.10399902E+04</pdfrwt>
<totfact> 0.71941023E+01</totfact>
</mgrwt>
<rwgt>
<wgt id='morphing_basis_vector_1'> +2.6987706e-04 </wgt>
<wgt id='morphing_basis_vector_2'> +1.7054034e-04 </wgt>
<wgt id='morphing_basis_vector_3'> +2.6222405e-04 </wgt>
<wgt id='morphing_basis_vector_4'> +1.6176818e-04 </wgt>
<wgt id='morphing_basis_vector_5'> +2.5708390e-04 </wgt>
</rwgt>
</event>
<event>
 4      1 +1.4786900e-06 9.92777000e+02 7.81860800e-03 8.69133600e-02
        2 -1    0    0  501    0 +0.0000000000e+00 +0.0000000000e+00 +5.6370388923e+02 5.6370388923e+02 0.0000000000e+00 0.0000e+00 1.0000e+00
       -2 -1    0    0    0  501 -0.0000000000e+00 -0.0000000000e+00 -4.3711169713e+02 4.3711169713e+02 0.0000000000e+00 0.0000e+00 -1.0000e+00
      -13  1    1    2    0    0 +2.7551220272e+02 -1.5042674554e+02 -3.2435146977e+02 4.5137462884e+02 0.0000000000e+00 0.0000e+00 -1.0000e+00
       13  1    1    2    0    0 -2.7551220272e+02 +1.5042674554e+02 +4.5094366186e+02 5.4944095752e+02 0.0000000000e+00 0.0000e+00 1.0000e+00
<mgrwt>
<rscale>  0 0.99277704E+03</rscale>
<asrwt>0</asrwt>
<pdfrwt beam="1">  1        2 0.86723676E-01 0.99277704E+03</pdfrwt>
<pdfrwt beam="2">  1       -2 0.67247953E-01 0.99277704E+03</pdfrwt>
<totfact> 0.13429387E+02</totfact>
</mgrwt>
<rwgt>
<wgt id='morphing_basis_vector_1'> +2.2704522e-04 </wgt>
<wgt id='morphing_basis_vector_2'> +1.4212884e-04 </wgt>
<wgt id='morphing_basis_vector_3'> +2.1804056e-04 </wgt>
<wgt id='morphing_basis_vector_4'> +1.3268476e-04 </wgt>
<wgt id='morphing_basis_vector_5'> +2.1023370e-04 </wgt>
</rwgt>
</event>
<event>
 4      1 +1.4786900e-06 9.94466700e+02 7.81860800e-03 8.68971400e-02
        2 -1    0    0  501    0 +0.0000000000e+00 +0.0000000000e+00 +1.6314140381e+03 1.6314140381e+03 0.0000000000e+00 0.0000e+00 -1.0000e+00
       -2 -1    0    0    0  501 -0.0000000000e+00 -0.0000000000e+00 -1.5155013941e+02 1.5155013941e+02 0.0000000000e+00 0.0000e+00 1.0000e+00
      -13  1    1    2    0    0 +1.1885141671e+02 -4.5978951341e+02 +1.0040949284e+03 1.1107378994e+03 0.0000000000e+00 0.0000e+00 1.0000e+00
       13  1    1    2    0    0 -1.1885141671e+02 +4.5978951341e+02 +4.7576897024e+02 6.7222627808e+02 0.0000000000e+00 0.0000e+00 -1.0000e+00
<mgrwt>
<rscale>  0 0.99446674E+03</rscale>
<asrwt>0</asrwt>
<pdfrwt beam="1">  1        2 0.25098676E+00 0.99446674E+03</pdfrwt>
<pdfrwt beam="2">  1       -2 0.23315407E-01 0.99446674E+03</pdfrwt>
<totfact> 0.20531178E+02</totfact>
</mgrwt>
<rwgt>
<wgt id='morphing_basis_vector_1'> +2.5078529e-04 </wgt>
<wgt id='morphing_basis_vector_2'> +2.1063342e-04 </wgt>
<wgt id='morphing_basis_vector_3'> +2.4009128e-04 </wgt>
<wgt id='morphing_basis_vector_4'> +9.9335107e-05 </wgt>
<wgt id='morphing_basis_vector_5'> +2.0975968e-04 </wgt>
</rwgt>
</event>
<event>
 4      1 +1.4786900e-06 9.35781200e+02 7.81860800e-03 8.74807700e-02
        2 -1    0    0  501    0 +0.0000000000e+00 +0.0000000000e+00 +7.3132719305e+02 7.3132719305e+02 0.0000000000e+00 0.0000e+00 1.0000e+00
       -2 -1    0    0    0  501 -0.0000000000e+00 -0.0000000000e+00 -2.9934839701e+02 2.9934839701e+02 0.0000000000e+00 0.0000e+00 -1.0000e+00
      -13  1    1    2    0    0 +3.6111279368e+02 -2.9261009544e+02 +2.7528666925e+02 5.4019058487e+02 0.0000000000e+00 0.0000e+00 -1.0000e+00
       13  1    1    2    0    0 -3.6111279368e+02 +2.9261009544e+02 +1.5669212680e+02 4.9048500519e+02 0.0000000000e+00 0.0000e+00 1.0000e+00
<mgrwt>
<rscale>  0 0.93578122E+03</rscale>
<asrwt>0</asrwt>
<pdfrwt beam="1">  1        2 0.11251188E+00 0.93578122E+03</pdfrwt>
<pdfrwt beam="2">  1       -2 0.46053600E-01 0.93578122E+03</pdfrwt>
<totfact> 0.21127262E+02</totfact>
</mgrwt>
<rwgt>
<wgt id='morphing_basis_vector_1'> +1.9236795e-04 </wgt>
<wgt id='morphing_basis_vector_2'> +1.4265938e-04 </wgt>
<wgt id='morphing_basis_vector_3'> +1.8076526e-04 </wgt>
<wgt id='morphing_basis_vector_4'> +8.8461829e-05 </wgt>
<wgt id='morphing_basis_vector_5'> +1.6155509e-04 </wgt>
</rwgt>
</event>
<event>
 4      1 +1.4786900e-06 9.62388000e+02 7.81860800e-03 8.72107900e-02
        2 -1    0    0  501    0 +0.0000000000e+00 +0.0000000000e+00 +4.7623915014e+02 4.7623915014e+02 0.0000000000e+00 0.0000e+00 1.0000e+00
       -2 -1    0    0    0  501 -0.0000000000e+00 -0.0000000000e+00 -4.8620045032e+02 4.8620045032e+02 0.0000000000e+00 0.0000e+00 -1.0000e+00
      -13  1    1    2    0    0 +4.1984000594e+02 +2.2768039074e+02 +5.3705526156e+01 4.8061239524e+02 0.0000000000e+00 0.0000e+00 -1.0000e+00
       13  1    1    2    0    0 -4.1984000594e+02 -2.2768039074e+02 -6.3666826338e+01 4.8182720522e+02 0.0000000000e+00 0.0000e+00 1.0000e+00
<mgrwt>
<rscale>  0 0.96238805E+03</rscale>
<asrwt>0</asrwt>
<pdfrwt beam="1">  1        2 0.73267562E-01 0.96238805E+03</pdfrwt>
<pdfrwt beam="2">  1       -2 0.74800068E-01 0.96238805E+03</pdfrwt>
<totfact> 0.12989517E+02</totfact>
</mgrwt>
<rwgt>
<wgt id='morphing_basis_vector_1'> +2.1346089e-04 </wgt>
<wgt id='morphing_basis_vector_2'> +1.5945075e-04 </wgt>
<wgt id='morphing_basis_vector_3'> +2.0249334e-04 </wgt>
<wgt id='morphing_basis_vector_4'> +9.9481645e-05 </wgt>
<wgt id='morphing_basis_vector_5'> +1.8263440e-04 </wgt>
</rwgt>
</event>
<event>
 4      1 +1.4786900e-06 9.84411500e+02 7.81860800e-03 8.69941200e-02
        2 -1    0    0  501    0 +0.0000000000e+00 +0.0000000000e+00 +5.4899980338e+02 5.4899980338e+02 0.0000000000e+00 0.0000e+00 -1.0000e+00
       -2 -1    0    0    0  501 -0.0000000000e+00 -0.0000000000e+00 -4.4128702676e+02 4.4128702676e+02 0.0000000000e+00 0.0000e+00 1.0000e+00
      -13  1    1    2    0    0 +2.9492662000e+02 -2.5457289533e+02 -2.4873351946e+02 4.6223093138e+02 0.0000000000e+00 0.0000e+00 1.0000e+00
       13  1    1    2    0    0 -2.9492662000e+02 +2.5457289533e+02 +3.5644629608e+02 5.2805589876e+02 0.0000000000e+00 0.0000e+00 -1.0000e+00
<mgrwt>
<rscale>  0 0.98441148E+03</rscale>
<asrwt>0</asrwt>
<pdfrwt beam="1">  1        2 0.84461508E-01 0.98441148E+03</pdfrwt>
<pdfrwt beam="2">  1       -2 0.67890312E-01 0.98441148E+03</pdfrwt>
<totfact> 0.13579027E+02</totfact>
</mgrwt>
<rwgt>
<wgt id='morphing_basis_vector_1'> +2.2043162e-04 </wgt>
<wgt id='morphing_basis_vector_2'> +1.3869046e-04 </wgt>
<wgt id='morphing_basis_vector_3'> +2.1120053e-04 </wgt>
<wgt id='morphing_basis_vector_4'> +1.2736092e-04 </wgt>
<wgt id='morphing_basis_vector_5'> +2.0259953e-04 </wgt>
</rwgt>
</event>
<event>
 4      1 +1.4786900e-06 9.15951200e+02 7.81860800e-03 8.76881600e-02
        2 -1    0    0  501    0 +0.0000000000e+00 +0.0000000000e+00 +9.2878490321e+02 9.2878490321e+02 0.0000000000e+00 0.0000e+00 -1.0000e+00
       -2 -1    0    0    0  501 -0.0000000000e+00 -0.0000000000e+00 -2.2582368930e+02 2.2582368930e+02 0.0000000000e+00 0.0000e+00 1.0000e+00
      -13  1    1    2    0    0 +2.1843198759e+02 -3.3803802748e+02 +7.5999472913e+01 4.0958291115e+02 0.0000000000e+00 0.0000e+00 1.0000e+00
       13  1    1    2    0    0 -2.1843198759e+02 +3.3803802748e+02 +6.2696174099e+02 7.4502568136e+02 0.0000000000e+00 0.0000e+00 -1.0000e+00
<mgrwt>
<rscale>  0 0.91595116E+03</rscale>
<asrwt>0</asrwt>
<pdfrwt beam="1">  1        2 0.14288998E+00 0.91595116E+03</pdfrwt>
<pdfrwt beam="2">  1       -2 0.34742106E-01 0.91595116E+03</pdfrwt>
<totfact> 0.26205357E+02</totfact>
</mgrwt>
<rwgt>
<wgt id='morphing_basis_vector_1'> +1.6969783e-04 </wgt>
<wgt id='morphing_basis_vector_2'> +1.0663904e-04 </wgt>
<wgt id='morphing_basis_vector_3'> +1.5925533e-04 </wgt>
<wgt id='morphing_basis_vector_4'> +9.2436348e-05 </wgt>
<wgt id='morphing_basis_vector_5'> +1.4766559e-04 </wgt>
</rwgt>
</event>
<event>
 4      1 +1.4786900e-06 9.31313300e+02 7.81860800e-03 8.75270200e-02
        2 -1    0    0  501    0 +0.0000000000e+00 +0.0000000000e+00 +1.2103404926e+03 1.2103404926e+03 0.0000000000e+00 0.0000e+00 1.0000e+00
       -2 -1    0    0    0  501 -0.0000000000e+00 -0.0000000000e+00 -1.7915300394e+02 1.7915300394e+02 0.0000000000e+00 0.0000e+00 -1.0000e+00
      -13  1    1    2    0    0 -3.8763912155e+02 +9.0051135910e+01 +8.7633901478e+02 9.6246733163e+02 0.0000000000e+00 0.0000e+00 1.0000e+00
       13  1    1    2    0    0 +3.8763912155e+02 -9.0051135910e+01 +1.5484847384e+02 4.2702616487e+02 0.0000000000e+00 0.0000e+00 -1.0000e+00
<mgrwt>
<rscale>  0 0.93131334E+03</rscale>
<asrwt>0</asrwt>
<pdfrwt beam="1">  1        2 0.18620622E+00 0.93131334E+03</pdfrwt>
<pdfrwt beam="2">  1       -2 0.27562001E-01 0.93131334E+03</pdfrwt>
<totfact> 0.26655123E+02</totfact>
</mgrwt>
<rwgt>
<wgt id='morphing_basis_vector_1'> +2.1347955e-04 </wgt>
<wgt id='morphing_basis_vector_2'> +2.1438975e-04 </wgt>
<wgt id='morphing_basis_vector_3'> +1.9772846e-04 </wgt>
<wgt id='morphing_basis_vector_4'> +5.0851739e-05 </wgt>
<wgt id='morphing_basis_vector_5'> +1.5621791e-04 </wgt>
</rwgt>
</event>
<event>
 4      1 +1.4786900e-06 9.53177200e+02 7.81860800e-03 8.73032100e-02
        2 -1    0    0  501    0 +0.0000000000e+00 +0.0000000000e+00 +1.2189489673e+03 1.2189489673e+03 0.0000000000e+00 0.0000e+00 1.0000e+00
       -2 -1    0    0    0  501 -0.0000000000e+00 -0.0000000000e+00 -1.8633815752e+02 1.8633815752e+02 0.0000000000e+00 0.0000e+00 -1.0000e+00
      -13  1    1    2    0    0 -5.9367981486e+01 +3.0544210856e+02 -1.5916066048e+01 3.1156501740e+02 0.0000000000e+00 0.0000e+00 -1.0000e+00
       13  1    1    2    0    0 +5.9367981486e+01 -3.0544210856e+02 +1.0485268758e+03 1.0937221074e+03 0.0000000000e+00 0.0000e+00 1.0000e+00
<mgrwt>
<rscale>  0 0.95317722E+03</rscale>
<asrwt>0</asrwt>
<pdfrwt beam="1">  1        2 0.18753061E+00 0.95317722E+03</pdfrwt>
<pdfrwt beam="2">  1       -2 0.28667410E-01 0.95317722E+03</pdfrwt>
<totfact> 0.24565343E+02</totfact>
</mgrwt>
<rwgt>
<wgt id='morphing_basis_vector_1'> +1.9548869e-04 </wgt>
<wgt id='morphing_basis_vector_2'> +1.2167542e-04 </wgt>
<wgt id='morphing_basis_vector_3'> +1.8568064e-04 </wgt>
<wgt id='morphing_basis_vector_4'> +1.1118437e-04 </wgt>
<wgt id='morphing_basis_vector_5'> +1.7600992e-04 </wgt>
</rwgt>
</event>
<event>
 4      1 +1.4786900e-06 9.28543400e+02 7.81860800e-03 8.75558300e-02
        2 -1    0    0  501    0 +0.0000000000e+00 +0.0000000000e+00 +3.3813557587e+02 3.3813557587e+02 0.0000000000e+00 0.0000e+00 1.0000e+00
       -2 -1    0    0    0  501 -0.0000000000e+00 -0.0000000000e+00 -6.3746085543e+02 6.3746085543e+02 0.0000000000e+00 0.0000e+00 -1.0000e+00
      -13  1    1    2    0    0 -3.5186705113e+02 -2.6360944658e+02 -3.0637810508e+02 5.3588049533e+02 0.0000000000e+00 0.0000e+00 -1.0000e+00
       13  1    1    2    0    0 +3.5186705113e+02 +2.6360944658e+02 +7.0528255157e+00 4.3971593597e+02 0.0000000000e+00 0.0000e+00 1.0000e+00
<mgrwt>
<rscale>  0 0.92854336E+03</rscale>
<asrwt>0</asrwt>
<pdfrwt beam="1">  1        2 0.52020858E-01 0.92854336E+03</pdfrwt>
<pdfrwt beam="2">  1       -2 0.98070900E-01 0.92854336E+03</pdfrwt>
<totfact> 0.10277433E+02</totfact>
</mgrwt>
<rwgt>
<wgt id='morphing_basis_vector_1'> +1.7929158e-04 </wgt>
<wgt id='morphing_basis_vector_2'> +1.1515437e-04 </wgt>
<wgt id='morphing_basis_vector_3'> +1.6884284e-04 </wgt>
<wgt id='morphing_basis_vector_4'> +9.6763614e-05 </wgt>
<wgt id='morphing_basis_vector_5'> +1.5675429e-04 </wgt>
</rwgt>
</event>
<event>
 4      1 +1.4786900e-06 9.57892700e+02 7.81860800e-03 8.72557600e-02
        2 -1    0    0  501    0 +0.0000000000e+00 +0.0000000000e+00 +1.3604861666e+03 1.3604861666e+03 0.0000000000e+00 0.0000e+00 -1.0000e+00
       -2 -1    0    0    0  501 -0.0000000000e+00 -0.0000000000e+00 -1.6860854564e+02 1.6860854564e+02 0.0000000000e+00 0.0000e+00 1.0000e+00
      -13  1    1    2    0    0 -4.3006302421e+02 +3.3632632937e+01 +9.2812587785e+02 1.0234759420e+03 0.0000000000e+00 0.0000e+00 1.0000e+00
       13  1    1    2    0    0 +4.3006302421e+02 -3.3632632937e+01 +2.6375174310e+02 5.0561877020e+02 0.0000000000e+00 0.0000e+00 -1.0000e+00
<mgrwt>
<rscale>  0 0.95789267E+03</rscale>
<asrwt>0</asrwt>
<pdfrwt beam="1">  1        2 0.20930556E+00 0.95789267E+03</pdfrwt>
<pdfrwt beam="2">  1       -2 0.25939777E-01 0.95789267E+03</pdfrwt>
<totfact> 0.24264781E+02</totfact>
</mgrwt>
<rwgt>
<wgt id='morphing_basis_vector_1'> +2.2876119e-04 </wgt>
<wgt id='morphing_basis_vector_2'> +2.1411590e-04 </wgt>
<wgt id='morphing_basis_vector_3'> +2.1526471e-04 </wgt>
<wgt id='morphing_basis_vector_4'> +6.9137219e-05 </wgt>
<wgt id='morphing_basis_vector_5'> +1.7731939e-04 </wgt>
</rwgt>
</event>
<event>
 4      1 +1.4786900e-06 9.46016600e+02 7.81860800e-03 8.73758100e-02
        2 -1    0    0  501    0 +0.0000000000e+00 +0.0000000000e+00 +2.0034308159e+02 2.0034308159e+02 0.0000000000e+00 0.0000e+00 -1.0000e+00
       -2 -1    0    0    0  501 -0.0000000000e+00 -0.0000000000e+00 -1.1167684286e+03 1.1167684286e+03 0.0000000000e+00 0.0000e+00 1.0000e+00
      -13  1    1    2    0    0 -7.1859272720e+01 +2.7092567414e+02 -9.8868870731e+02 1.0276525852e+03 0.0000000000e+00 0.0000e+00 1.0000e+00
       13  1    1    2    0    0 +7.1859272720e+01 -2.7092567414e+02 +7.2263360315e+01 2.8945892494e+02 0.0000000000e+00 0.0000e+00 -1.0000e+00
<mgrwt>
<rscale>  0 0.94601655E+03</rscale>
<asrwt>0</asrwt>
<pdfrwt beam="1">  1        2 0.30822012E-01 0.94601655E+03</pdfrwt>
<pdfrwt beam="2">  1       -2 0.17181053E+00 0.94601655E+03</pdfrwt>
<totfact> 0.41065899E+01</totfact>
</mgrwt>
<rwgt>
<wgt id='morphing_basis_vector_1'> +1.9010472e-04 </wgt>
<wgt id='morphing_basis_vector_2'> +1.1805060e-04 </wgt>
<wgt id='morphing_basis_vector_3'> +1.8018996e-04 </wgt>
<wgt id='morphing_basis_vector_4'> +1.0767695e-04 </wgt>
<wgt id='morphing_basis_vector_5'> +1.7029052e-04 </wgt>
</rwgt>
</event>
<event>
 4      1 +1.4786900e-06 9.01277700e+02 7.81860800e-03 8.78451900e-02
        2 -1    0    0  501    0 +0.0000000000e+00 +0.0000000000e+00 +9.8377760724e+02 9.8377760724e+02 0.0000000000e+00 0.0000e+00 -1.0000e+00
       -2 -1    0    0    0  501 -0.0000000000e+00 -0.0000000000e+00 -2.0642406736e+02 2.0642406736e+02 0.0000000000e+00 0.0000e+00 1.0000e+00
      -13  1    1    2    0    0 +2.8152418551e+02 -1.2195540847e+01 -7.5726718865e+01 2.9178611035e+02 0.0000000000e+00 0.0000e+00 1.0000e+00
       13  1    1    2    0    0 -2.8152418551e+02 +1.2195540847e+01 +8.5308025874e+02 8.9841556425e+02 0.0000000000e+00 0.0000e+00 -1.0000e+00
<mgrwt>
<rscale>  0 0.90127770E+03</rscale>
<asrwt>0</asrwt>
<pdfrwt beam="1">  1        2 0.15135040E+00 0.90127770E+03</pdfrwt>
<pdfrwt beam="2">  1       -2 0.31757549E-01 0.90127770E+03</pdfrwt>
<totfact> 0.28443556E+02</totfact>
</mgrwt>
<rwgt>
<wgt id='morphing_basis_vector_1'> +1.5933890e-04 </wgt>
<wgt id='morphing_basis_vector_2'> +9.8227229e-05 </wgt>
<wgt id='morphing_basis_vector_3'> +1.4889618e-04 </wgt>
<wgt id='morphing_basis_vector_4'> +8.7085663e-05 </wgt>
<wgt id='morphing_basis_vector_5'> +1.3753669e-04 </wgt>
</rwgt>
</event>
<event>
 4      1 +1.4786900e-06 9.83778800e+02 7.81860800e-03 8.70002600e-02
        2 -1    0    0  501    0 +0.0000000000e+00 +0.0000000000e+00 +8.6272558985e+02 8.6272558985e+02 0.0000000000e+00 0.0000e+00 -1.0000e+00
       -2 -1    0    0    0  501 -0.0000000000e+00 -0.0000000000e+00 -2.8045437723e+02 2.8045437723e+02 0.0000000000e+00 0.0000e+00 1.0000e+00
      -13  1    1    2    0    0 +2.7871007699e+02 +2.6924403811e+02 +6.4318166518e+02 7.5090233286e+02 0.0000000000e+00 0.0000e+00 -1.0000e+00
       13  1    1    2    0    0 -2.7871007699e+02 -2.6924403811e+02 -6.0910452558e+01 3.9227763421e+02 0.0000000000e+00 0.0000e+00 1.0000e+00
<mgrwt>
<rscale>  0 0.98377877E+03</rscale>
<asrwt>0</asrwt>
<pdfrwt beam="1">  1        2 0.13272701E+00 0.98377877E+03</pdfrwt>
<pdfrwt beam="2">  1       -2 0.43146828E-01 0.98377877E+03</pdfrwt>
<totfact> 0.19301465E+02</totfact>
</mgrwt>
<rwgt>
<wgt id='morphing_basis_vector_1'> +2.7220596e-04 </wgt>
<wgt id='morphing_basis_vector_2'> +2.9682622e-04 </wgt>
<wgt id='morphing_basis_vector_3'> +2.5817548e-04 </wgt>
<wgt id='morphing_basis_vector_4'> +4.7158526e-05 </wgt>
<wgt id='morphing_basis_vector_5'> +1.9735075e-04 </wgt>
</rwgt>
</event>
<event>
 4      1 +1.4786900e-06 9.02198500e+02 7.81860800e-03 8.78352500e-02
        2 -1    0    0  501    0 +0.0000000000e+00 +0.0000000000e+00 +3.4298945510e+02 3.4298945510e+02 0.0000000000e+00 0.0000e+00 1.0000e+00
       -2 -1    0    0    0  501 -0.0000000000e+00 -0.0000000000e+00 -5.9328504023e+02 5.9328504023e+02 0.0000000000e+00 0.0000e+00 -1.0000e+00
      -13  1    1    2    0    0 -3.5938428430e+02 -2.3340274682e+02 -2.7138356746e+02 5.0723066421e+02 0.0000000000e+00 0.0000e+00 1.0000e+00
       13  1    1    2    0    0 +3.5938428430e+02 +2.3340274682e+02 +2.1087982338e+01 4.2904383112e+02 0.0000000000e+00 0.0000e+00 -1.0000e+00
<mgrwt>
<rscale>  0 0.90219845E+03</rscale>
<asrwt>0</asrwt>
<pdfrwt beam="1">  1        2 0.52767609E-01 0.90219845E+03</pdfrwt>
<pdfrwt beam="2">  1       -2 0.91274621E-01 0.90219845E+03</pdfrwt>
<totfact> 0.12003488E+02</totfact>
</mgrwt>
<rwgt>
<wgt id='morphing_basis_vector_1'> +1.6151185e-04 </wgt>
<wgt id='morphing_basis_vector_2'> +1.0342053e-04 </wgt>
<wgt id='morphing_basis_vector_3'> +1.5074238e-04 </wgt>
<wgt id='morphing_basis_vector_4'> +8.5223880e-05 </wgt>
<wgt id='morphing_basis_vector_5'> +1.3804092e-04 </wgt>
</rwgt>
</event>
<event>
 4      1 +1.4786900e-06 1.01438200e+03 7.81860800e-03 8.67085500e-02
        2 -1    0    0  501    0 +0.0000000000e+00 +0.0000000000e+00 +1.1682379508e+03 1.1682379508e+03 0.0000000000e+00 0.0000e+00 1.0000e+00
       -2 -1    0    0    0  501 -0.0000000000e+00 -0.0000000000e+00 -2.2019727292e+02 2.2019727292e+02 0.0000000000e+00 0.0000e+00 -1.0000e+00
      -13  1    1    2    0    0 +4.7933694769e+02 +8.3523034375e+01 +2.7803181769e+02 5.6039423475e+02 0.0000000000e+00 0.0000e+00 -1.0000e+00
       13  1    1    2    0    0 -4.7933694769e+02 -8.3523034375e+01 +6.7000886021e+02 8.2804098899e+02 0.0000000000e+00 0.0000e+00 1.0000e+00
<mgrwt>
<rscale>  0 0.10143822E+04</rscale>
<asrwt>0</asrwt>
<pdfrwt beam="1">  1        2 0.17972891E+00 0.10143822E+04</pdfrwt>
<pdfrwt beam="2">  1       -2 0.33876504E-01 0.10143822E+04</pdfrwt>
<totfact> 0.19460952E+02</totfact>
</mgrwt>
<rwgt>
<wgt id='morphing_basis_vector_1'> +2.4865044e-04 </wgt>
<wgt id='morphing_basis_vector_2'> +1.6284460e-04 </wgt>
<wgt id='morphing_basis_vector_3'> +2.4006236e-04 </wgt>
<wgt id='morphing_basis_vector_4'> +1.4124190e-04 </wgt>
<wgt id='morphing_basis_vector_5'> +2.3056467e-04 </wgt>
</rwgt>
</event>
<event>
 4      1 +1.4786900e-06 9.31270200e+02 7.81860800e-03 8.75274700e-02
        2 -1    0    0  501    0 +0.0000000000e+00 +0.0000000000e+00 +8.2938761534e+02 8.2938761534e+02 0.0000000000e+00 0.0000e+00 1.0000e+00
       -2 -1    0    0    0  501 -0.0000000000e+00 -0.0000000000e+00 -2.6141704001e+02 2.6141704001e+02 0.0000000000e+00 0.0000e+00 -1.0000e+00
      -13  1    1    2    0    0 +3.2576714562e+01 +4.4966255011e+02 +4.2037309731e+02 6.1641803367e+02 0.0000000000e+00 0.0000e+00 1.0000e+00
       13  1    1    2    0    0 -3.2576714562e+01 -4.4966255011e+02 +1.4759747803e+02 4.7438662167e+02 0.0000000000e+00 0.0000e+00 -1.0000e+00
<mgrwt>
<rscale>  0 0.93127022E+03</rscale>
<asrwt>0</asrwt>
<pdfrwt beam="1">  1        2 0.12759809E+00 0.93127022E+03</pdfrwt>
<pdfrwt beam="2">  1       -2 0.40218007E-01 0.93127022E+03</pdfrwt>
<totfact> 0.23273568E+02</totfact>
</mgrwt>
<rwgt>
<wgt id='morphing_basis_vector_1'> +1.9453500e-04 </wgt>
<wgt id='morphing_basis_vector_2'> +1.5689867e-04 </wgt>
<wgt id='morphing_basis_vector_3'> +1.8191734e-04 </wgt>
<wgt id='morphing_basis_vector_4'> +7.8521267e-05 </wgt>
<wgt id='morphing_basis_vector_5'> +1.5771453e-04 </wgt>
</rwgt>
</event>
<event>
 4      1 +1.4786900e-06 9.51148300e+02 7.81860800e-03 8.73237100e-02
        2 -1    0    0  501    0 +0.0000000000e+00 +0.0000000000e+00 +1.0687363162e+03 1.0687363162e+03 0.0000000000e+00 0.0000e+00 -1.0000e+00
       -2 -1    0    0    0  501 -0.0000000000e+00 -0.0000000000e+00 -2.1162449558e+02 2.1162449558e+02 0.0000000000e+00 0.0000e+00 1.0000e+00
      -13  1    1    2    0    0 +1.9552282347e+02 +1.9808257582e+02 -9.0538998214e+01 2.9268274896e+02 0.0000000000e+00 0.0000e+00 1.0000e+00
       13  1    1    2    0    0 -1.9552282347e+02 -1.9808257582e+02 +9.4765081885e+02 9.8767806284e+02 0.0000000000e+00 0.0000e+00 -1.0000e+00
<mgrwt>
<rscale>  0 0.95114832E+03</rscale>
<asrwt>0</asrwt>
<pdfrwt beam="1">  1        2 0.16442097E+00 0.95114832E+03</pdfrwt>
<pdfrwt beam="2">  1       -2 0.32557615E-01 0.95114832E+03</pdfrwt>
<totfact> 0.24053243E+02</totfact>
</mgrwt>
<rwgt>
<wgt id='morphing_basis_vector_1'> +1.9390533e-04 </wgt>
<wgt id='morphing_basis_vector_2'> +1.2050006e-04 </wgt>
<wgt id='morphing_basis_vector_3'> +1.8407235e-04 </wgt>
<wgt id='morphing_basis_vector_4'> +1.1025085e-04 </wgt>
<wgt id='morphing_basis_vector_5'> +1.7437930e-04 </wgt>
</rwgt>
</event>
<event>
 4      1 +1.4786900e-06 9.16339700e+02 7.81860800e-03 8.76840400e-02
        2 -1    0    0  501    0 +0.0000000000e+00 +0.0000000000e+00 +8.4078441381e+02 8.4078441381e+02 0.0000000000e+00 0.0000e+00 -1.0000e+00
       -2 -1    0    0    0  501 -0.0000000000e+00 -0.0000000000e+00 -2.4967115984e+02 2.4967115984e+02 0.0000000000e+00 0.0000e+00 1.0000e+00
      -13  1    1    2    0    0 -1.7652360621e+02 +3.5160333517e+02 +1.6133896612e+01 3.9375854463e+02 0.0000000000e+00 0.0000e+00 1.0000e+00
       13  1    1    2    0    0 +1.7652360621e+02 -3.5160333517e+02 +5.7497935736e+02 6.9669702902e+02 0.0000000000e+00 0.0000e+00 -1.0000e+00
<mgrwt>
<rscale>  0 0.91633972E+03</rscale>
<asrwt>0</asrwt>
<pdfrwt beam="1">  1        2 0.12935145E+00 0.91633972E+03</pdfrwt>
<pdfrwt beam="2">  1       -2 0.38410948E-01 0.91633972E+03</pdfrwt>
<totfact> 0.24920049E+02</totfact>
</mgrwt>
<rwgt>
<wgt id='morphing_basis_vector_1'> +1.6982128e-04 </wgt>
<wgt id='morphing_basis_vector_2'> +1.0638875e-04 </wgt>
<wgt id='morphing_basis_vector_3'> +1.5940931e-04 </wgt>
<wgt id='morphing_basis_vector_4'> +9.2808730e-05 </wgt>
<wgt id='morphing_basis_vector_5'> +1.4795324e-04 </wgt>
</rwgt>
</event>
<event>
 4      1 +1.4786900e-06 9.94448300e+02 7.81860800e-03 8.68973200e-02
        2 -1    0    0  501    0 +0.0000000000e+00 +0.0000000000e+00 +3.3358886358e+02 3.3358886358e+02 0.0000000000e+00 0.0000e+00 1.0000e+00
       -2 -1    0    0    0  501 -0.0000000000e+00 -0.0000000000e+00 -7.4112747778e+02 7.4112747778e+02 0.0000000000e+00 0.0000e+00 -1.0000e+00
      -13  1    1    2    0    0 +1.0078398352e+02 -6.5192052076e+01 -7.2523522341e+02 7.3510104357e+02 0.0000000000e+00 0.0000e+00 -1.0000e+00
       13  1    1    2    0    0 -1.0078398352e+02 +6.5192052076e+01 +3.1769660921e+02 3.3961529779e+02 0.0000000000e+00 0.0000e+00 1.0000e+00
<mgrwt>
<rscale>  0 0.99444834E+03</rscale>
<asrwt>0</asrwt>
<pdfrwt beam="1">  1        2 0.51321365E-01 0.99444834E+03</pdfrwt>
<pdfrwt beam="2">  1       -2 0.11401961E+00 0.99444834E+03</pdfrwt>
<totfact> 0.71619094E+01</totfact>
</mgrwt>
<rwgt>
<wgt id='morphing_basis_vector_1'> +2.2831592e-04 </wgt>
<wgt id='morphing_basis_vector_2'> +1.4261503e-04 </wgt>
<wgt id='morphing_basis_vector_3'> +2.1936265e-04 </wgt>
<wgt id='morphing_basis_vector_4'> +1.3387350e-04 </wgt>
<wgt id='morphing_basis_vector_5'> +2.1179002e-04 </wgt>
</rwgt>
</event>
<event>
 4      1 +1.4786900e-06 1.04432700e+03 7.81860800e-03 8.64332800e-02
        2 -1    0    0  501    0 +0.0000000000e+00 +0.0000000000e+00 +7.7145770711e+02 7.7145770711e+02 0.0000000000e+00 0.0000e+00 1.0000e+00
       -2 -1    0    0    0  501 -0.0000000000e+00 -0.0000000000e+00 -3.5342771922e+02 3.5342771922e+02 0.0000000000e+00 0.0000e+00 -1.0000e+00
      -13  1    1    2    0    0 +2.0710002421e+02 +4.7222362186e+02 +2.9763528797e+02 5.9537579201e+02 0.0000000000e+00 0.0000e+00 -1.0000e+00
       13  1    1    2    0    0 -2.0710002421e+02 -4.7222362186e+02 +1.2039469992e+02 5.2950963432e+02 0.0000000000e+00 0.0000e+00 1.0000e+00
<mgrwt>
<rscale>  0 0.10443266E+04</rscale>
<asrwt>0</asrwt>
<pdfrwt beam="1">  1        2 0.11868580E+00 0.10443266E+04</pdfrwt>
<pdfrwt beam="2">  1       -2 0.54373495E-01 0.10443266E+04</pdfrwt>
<totfact> 0.14170752E+02</totfact>
</mgrwt>
<rwgt>
<wgt id='morphing_basis_vector_1'> +2.9075310e-04 </wgt>
<wgt id='morphing_basis_vector_2'> +2.2366921e-04 </wgt>
<wgt id='morphing_basis_vector_3'> +2.8296407e-04 </wgt>
<wgt id='morphing_basis_vector_4'> +1.3818176e-04 </wgt>
<wgt id='morphing_basis_vector_5'> +2.6010066e-04 </wgt>
</rwgt>
</event>
<event>
 4      1 +1.4786900e-06 9.78289500e+02 7.81860800e-03 8.70537500e-02
        2 -1    0    0  501    0 +0.0000000000e+00 +0.0000000000e+00 +2.3436293046e+03 2.3436293046e+03 0.0000000000e+00 0.0000e+00 -1.0000e+00
       -2 -1    0    0    0  501 -0.0000000000e+00 -0.0000000000e+00 -1.0209062747e+02 1.0209062747e+02 0.0000000000e+00 0.0000e+00 1.0000e+00
      -13  1    1    2    0    0 +1.0043472533e+02 +4.6594605174e+02 +8.4611397030e+02 9.7113423785e+02 0.0000000000e+00 0.0000e+00 1.0000e+00
       13  1    1    2    0    0 -1.0043472533e+02 -4.6594605174e+02 +1.3954247069e+03 1.4745856943e+03 0.0000000000e+00 0.0000e+00 -1.0000e+00
<mgrwt>
<rscale>  0 0.97828950E+03</rscale>
<asrwt>0</asrwt>
<pdfrwt beam="1">  1        2 0.36055832E+00 0.97828950E+03</pdfrwt>
<pdfrwt beam="2">  1       -2 0.15706252E-01 0.97828950E+03</pdfrwt>
<totfact> 0.15867705E+02</totfact>
</mgrwt>
<rwgt>
<wgt id='morphing_basis_vector_1'> +2.1819800e-04 </wgt>
<wgt id='morphing_basis_vector_2'> +1.4382551e-04 </wgt>
<wgt id='morphing_basis_vector_3'> +2.0855744e-04 </wgt>
<wgt id='morphing_basis_vector_4'> +1.1974727e-04 </wgt>
<wgt id='morphing_basis_vector_5'> +1.9692020e-04 </wgt>
</rwgt>
</event>
<event>
 4      1 +1.4786900e-06 9.28069800e+02 7.81860800e-03 8.75607700e-02
        2 -1    0    0  501    0 +0.0000000000e+00 +0.0000000000e+00 +2.0601367900e+03 2.0601367900e+03 0.0000000000e+00 0.0000e+00 1.0000e+00
       -2 -1    0    0    0  501 -0.0000000000e+00 -0.0000000000e+00 -1.0452140350e+02 1.0452140350e+02 0.0000000000e+00 0.0000e+00 -1.0000e+00
      -13  1    1    2    0    0 -1.0672385226e+02 -4.2803633873e+02 +6.4204058238e+02 7.7898728959e+02 0.0000000000e+00 0.0000e+00 -1.0000e+00
       13  1    1    2    0    0 +1.0672385226e+02 +4.2803633873e+02 +1.3135748041e+03 1.3856709039e+03 0.0000000000e+00 0.0000e+00 1.0000e+00
<mgrwt>
<rscale>  0 0.92806980E+03</rscale>
<asrwt>0</asrwt>
<pdfrwt beam="1">  1        2 0.31694409E+00 0.92806980E+03</pdfrwt>
<pdfrwt beam="2">  1       -2 0.16080218E-01 0.92806980E+03</pdfrwt>
<totfact> 0.22191453E+02</totfact>
</mgrwt>
<rwgt>
<wgt id='morphing_basis_vector_1'> +1.7904546e-04 </wgt>
<wgt id='morphing_basis_vector_2'> +1.1519702e-04 </wgt>
<wgt id='morphing_basis_vector_3'> +1.6857522e-04 </wgt>
<wgt id='morphing_basis_vector_4'> +9.6420653e-05 </wgt>
<wgt id='morphing_basis_vector_5'> +1.5639559e-04 </wgt>
</rwgt>
</event>
<event>
 4      1 +1.4786900e-06 1.00145300e+03 7.81860800e-03 8.68304700e-02
        2 -1    0    0  501    0 +0.0000000000e+00 +0.0000000000e+00 +1.1325880656e+03 1.1325880656e+03 0.0000000000e+00 0.0000e+00 1.0000e+00
       -2 -1    0    0    0  501 -0.0000000000e+00 -0.0000000000e+00 -2.2137524471e+02 2.2137524471e+02 0.0000000000e+00 0.0000e+00 -1.0000e+00
      -13  1    1    2    0    0 -1.0075483353e+01 -4.0639968618e+02 +6.0358238238e+01 4.1098094508e+02 0.0000000000e+00 0.0000e+00 -1.0000e+00
       13  1    1    2    0    0 +1.0075483353e+01 +4.0639968618e+02 +8.5085458261e+02 9.4298236519e+02 0.0000000000e+00 0.0000e+00 1.0000e+00
<mgrwt>
<rscale>  0 0.10014529E+04</rscale>
<asrwt>0</asrwt>
<pdfrwt beam="1">  1        2 0.17424431E+00 0.10014529E+04</pdfrwt>
<pdfrwt beam="2">  1       -2 0.34057731E-01 0.10014529E+04</pdfrwt>
<totfact> 0.20248167E+02</totfact>
</mgrwt>
<rwgt>
<wgt id='morphing_basis_vector_1'> +2.3494711e-04 </wgt>
<wgt id='morphing_basis_vector_2'> +1.4843222e-04 </wgt>
<wgt id='morphing_basis_vector_3'> +2.2612406e-04 </wgt>
<wgt id='morphing_basis_vector_4'> +1.3701338e-04 </wgt>
<wgt id='morphing_basis_vector_5'> +2.1829000e-04 </wgt>
</rwgt>
</event>
<event>
 4      1 +1.4786900e-06 1.02971300e+03 7.81860800e-03 8.65664000e-02
        2 -1    0    0  501    0 +0.0000000000e+00 +0.0000000000e+00 +3.2572294529e+02 3.2572294529e+02 0.0000000000e+00 0.0000e+00 1.0000e+00
       -2 -1    0    0    0  501 -0.0000000000e+00 -0.0000000000e+00 -8.1381257558e+02 8.1381257558e+02 0.0000000000e+00 0.0000e+00 -1.0000e+00
      -13  1    1    2    0    0 +3.6085442669e+02 -5.7696182800e+01 -6.4539946791e+02 7.4167731525e+02 0.0000000000e+00 0.0000e+00 -1.0000e+00
       13  1    1    2    0    0 -3.6085442669e+02 +5.7696182800e+01 +1.5730983762e+02 3.9785820562e+02 0.0000000000e+00 0.0000e+00 1.0000e+00
<mgrwt>
<rscale>  0 0.10297134E+04</rscale>
<asrwt>0</asrwt>
<pdfrwt beam="1">  1        2 0.50111223E-01 0.10297134E+04</pdfrwt>
<pdfrwt beam="2">  1       -2 0.12520193E+00 0.10297134E+04</pdfrwt>
<totfact> 0.57575995E+01</totfact>
</mgrwt>
<rwgt>
<wgt id='morphing_basis_vector_1'> +2.6005827e-04 </wgt>
<wgt id='morphing_basis_vector_2'> +1.6399749e-04 </wgt>
<wgt id='morphing_basis_vector_3'> +2.5206985e-04 </wgt>
<wgt id='morphing_basis_vector_4'> +1.5508554e-04 </wgt>
<wgt id='morphing_basis_vector_5'> +2.4629557e-04 </wgt>
</rwgt>
</event>
<event>
 4      1 +1.4786900e-06 1.00763500e+03 7.81860800e-03 8.67719400e-02
        2 -1    0    0  501    0 +0.0000000000e+00 +0.0000000000e+00 +1.6460525629e+03 1.6460525629e+03 0.0000000000e+00 0.0000e+00 -1.0000e+00
       -2 -1    0    0    0  501 -0.0000000000e+00 -0.0000000000e+00 -1.5420640891e+02 1.5420640891e+02 0.0000000000e+00 0.0000e+00 1.0000e+00
      -13  1    1    2    0    0 -2.4474146921e+02 -2.4913387407e+02 +9.7142287445e+01 3.6249510062e+02 0.0000000000e+00 0.0000e+00 1.0000e+00
       13  1    1    2    0    0 +2.4474146921e+02 +2.4913387407e+02 +1.3947038665e+03 1.4377638712e+03 0.0000000000e+00 0.0000e+00 -1.0000e+00
<mgrwt>
<rscale>  0 0.10076346E+04</rscale>
<asrwt>0</asrwt>
<pdfrwt beam="1">  1        2 0.25323884E+00 0.10076346E+04</pdfrwt>
<pdfrwt beam="2">  1       -2 0.23724064E-01 0.10076346E+04</pdfrwt>
<totfact> 0.19546392E+02</totfact>
</mgrwt>
<rwgt>
<wgt id='morphing_basis_vector_1'> +2.3995317e-04 </wgt>
<wgt id='morphing_basis_vector_2'> +1.5076770e-04 </wgt>
<wgt id='morphing_basis_vector_3'> +2.3131997e-04 </wgt>
<wgt id='morphing_basis_vector_4'> +1.4132268e-04 </wgt>
<wgt id='morphing_basis_vector_5'> +2.2423561e-04 </wgt>
</rwgt>
</event>
<event>
 4      1 +1.4786900e-06 9.30235000e+02 7.81860800e-03 8.75382300e-02
        2 -1    0    0  501    0 +0.0000000000e+00 +0.0000000000e+00 +1.2252325171e+03 1.2252325171e+03 0.0000000000e+00 0.0000e+00 -1.0000e+00
       -2 -1    0    0    0  501 -0.0000000000e+00 -0.0000000000e+00 -1.7656592264e+02 1.7656592264e+02 0.0000000000e+00 0.0000e+00 1.0000e+00
      -13  1    1    2    0    0 +2.3140872191e+02 -2.0849806740e+01 -8.2848139223e+01 2.4667493831e+02 0.0000000000e+00 0.0000e+00 1.0000e+00
       13  1    1    2    0    0 -2.3140872191e+02 +2.0849806740e+01 +1.1315147337e+03 1.1551235014e+03 0.0000000000e+00 0.0000e+00 -1.0000e+00
<mgrwt>
<rscale>  0 0.93023505E+03</rscale>
<asrwt>0</asrwt>
<pdfrwt beam="1">  1        2 0.18849731E+00 0.93023505E+03</pdfrwt>
<pdfrwt beam="2">  1       -2 0.27163989E-01 0.93023505E+03</pdfrwt>
<totfact> 0.26803008E+02</totfact>
</mgrwt>
<rwgt>
<wgt id='morphing_basis_vector_1'> +1.7871597e-04 </wgt>
<wgt id='morphing_basis_vector_2'> +1.1057210e-04 </wgt>
<wgt id='morphing_basis_vector_3'> +1.6858746e-04 </wgt>
<wgt id='morphing_basis_vector_4'> +1.0012599e-04 </wgt>
<wgt id='morphing_basis_vector_5'> +1.5815814e-04 </wgt>
</rwgt>
</event>
<event>
 4      1 +1.4786900e-06 9.87494000e+02 7.81860800e-03 8.69642600e-02
        2 -1    0    0  501    0 +0.0000000000e+00 +0.0000000000e+00 +1.0881937039e+03 1.0881937039e+03 0.0000000000e+00 0.0000e+00 1.0000e+00
       -2 -1    0    0    0  501 -0.0000000000e+00 -0.0000000000e+00 -2.2402823023e+02 2.2402823023e+02 0.0000000000e+00 0.0000e+00 -1.0000e+00
      -13  1    1    2    0    0 -3.7179164381e+02 +3.2383888184e+02 +3.9729193363e+02 6.3319943803e+02 0.0000000000e+00 0.0000e+00 -1.0000e+00
       13  1    1    2    0    0 +3.7179164381e+02 -3.2383888184e+02 +4.6687354000e+02 6.7902249606e+02 0.0000000000e+00 0.0000e+00 1.0000e+00
<mgrwt>
<rscale>  0 0.98749402E+03</rscale>
<asrwt>0</asrwt>
<pdfrwt beam="1">  1        2 0.16741441E+00 0.98749402E+03</pdfrwt>
<pdfrwt beam="2">  1       -2 0.34465882E-01 0.98749402E+03</pdfrwt>
<totfact> 0.21082386E+02</totfact>
</mgrwt>
<rwgt>
<wgt id='morphing_basis_vector_1'> +2.2902763e-04 </wgt>
<wgt id='morphing_basis_vector_2'> +1.5866421e-04 </wgt>
<wgt id='morphing_basis_vector_3'> +2.1934423e-04 </wgt>
<wgt id='morphing_basis_vector_4'> +1.1984760e-04 </wgt>
<wgt id='morphing_basis_vector_5'> +2.0483195e-04 </wgt>
</rwgt>
</event>
<event>
 4      1 +1.4786900e-06 9.83202200e+02 7.81860800e-03 8.70058600e-02
        2 -1    0    0  501    0 +0.0000000000e+00 +0.0000000000e+00 +2.6075373539e+03 2.6075373539e+03 0.0000000000e+00 0.0000e+00 -1.0000e+00
       -2 -1    0    0    0  501 -0.0000000000e+00 -0.0000000000e+00 -9.2681956367e+01 9.2681956367e+01 0.0000000000e+00 0.0000e+00 1.0000e+00
      -13  1    1    2    0    0 +3.9944493129e+02 +1.8139149757e+02 +6.4817979339e+02 7.8268523244e+02 0.0000000000e+00 0.0000e+00 1.0000e+00
       13  1    1    2    0    0 -3.9944493129e+02 -1.8139149757e+02 +1.8666756041e+03 1.9175340778e+03 0.0000000000e+00 0.0000e+00 -1.0000e+00
<mgrwt>
<rscale>  0 0.98320224E+03</rscale>
<asrwt>0</asrwt>
<pdfrwt beam="1">  1        2 0.40115954E+00 0.98320224E+03</pdfrwt>
<pdfrwt beam="2">  1       -2 0.14258765E-01 0.98320224E+03</pdfrwt>
<totfact> 0.12990658E+02</totfact>
</mgrwt>
<rwgt>
<wgt id='morphing_basis_vector_1'> +2.2015343e-04 </wgt>
<wgt id='morphing_basis_vector_2'> +1.4021493e-04 </wgt>
<wgt id='morphing_basis_vector_3'> +2.1082879e-04 </wgt>
<wgt id='morphing_basis_vector_4'> +1.2558913e-04 </wgt>
<wgt id='morphing_basis_vector_5'> +2.0145354e-04 </wgt>
</rwgt>
</event>
<event>
 4      1 +1.4786900e-06 9.87576500e+02 7.81860800e-03 8.69634600e-02
        2 -1    0    0  501    0 +0.0000000000e+00 +0.0000000000e+00 +7.7544882322e+02 7.7544882322e+02 0.0000000000e+00 0.0000e+00 -1.0000e+00
       -2 -1    0    0    0  501 -0.0000000000e+00 -0.0000000000e+00 -3.1443316391e+02 3.1443316391e+02 0.0000000000e+00 0.0000e+00 1.0000e+00
      -13  1    1    2    0    0 +3.9230399938e+02 -2.5005380344e+02 +4.7839120805e+01 4.6767287074e+02 0.0000000000e+00 0.0000e+00 1.0000e+00
       13  1    1    2    0    0 -3.9230399938e+02 +2.5005380344e+02 +4.1317653851e+02 6.2220911639e+02 0.0000000000e+00 0.0000e+00 -1.0000e+00
<mgrwt>
<rscale>  0 0.98757648E+03</rscale>
<asrwt>0</asrwt>
<pdfrwt beam="1">  1        2 0.11929982E+00 0.98757648E+03</pdfrwt>
<pdfrwt beam="2">  1       -2 0.48374333E-01 0.98757648E+03</pdfrwt>
<totfact> 0.17793294E+02</totfact>
</mgrwt>
<rwgt>
<wgt id='morphing_basis_vector_1'> +2.2467296e-04 </wgt>
<wgt id='morphing_basis_vector_2'> +1.4530712e-04 </wgt>
<wgt id='morphing_basis_vector_3'> +2.1537475e-04 </wgt>
<wgt id='morphing_basis_vector_4'> +1.2666624e-04 </wgt>
<wgt id='morphing_basis_vector_5'> +2.0530518e-04 </wgt>
</rwgt>
</event>
<event>
 4      1 +1.4786900e-06 1.00476200e+03 7.81860800e-03 8.67990800e-02
        2 -1    0    0  501    0 +0.0000000000e+00 +0.0000000000e+00 +1.1826321849e+03 1.1826321849e+03 0.0000000000e+00 0.0000e+00 1.0000e+00
       -2 -1    0    0    0  501 -0.0000000000e+00 -0.0000000000e+00 -2.1341103156e+02 2.1341103156e+02 0.0000000000e+00 0.0000e+00 -1.0000e+00
      -13  1    1    2    0    0 +3.8251160054e+02 -2.3206586844e+02 +1.6711198249e+02 4.7759408134e+02 0.0000000000e+00 0.0000e+00 -1.0000e+00
       13  1    1    2    0    0 -3.8251160054e+02 +2.3206586844e+02 +8.0210917087e+02 9.1844913514e+02 0.0000000000e+00 0.0000e+00 1.0000e+00
<mgrwt>
<rscale>  0 0.10047622E+04</rscale>
<asrwt>0</asrwt>
<pdfrwt beam="1">  1        2 0.18194341E+00 0.10047622E+04</pdfrwt>
<pdfrwt beam="2">  1       -2 0.32832467E-01 0.10047622E+04</pdfrwt>
<totfact> 0.20205052E+02</totfact>
</mgrwt>
<rwgt>
<wgt id='morphing_basis_vector_1'> +2.3848609e-04 </wgt>
<wgt id='morphing_basis_vector_2'> +1.5231072e-04 </wgt>
<wgt id='morphing_basis_vector_3'> +2.2970835e-04 </wgt>
<wgt id='morphing_basis_vector_4'> +1.3796114e-04 </wgt>
<wgt id='morphing_basis_vector_5'> +2.2137773e-04 </wgt>
</rwgt>
</event>
<event>
 4      1 +1.4786900e-06 9.38562800e+02 7.81860800e-03 8.74521100e-02
        2 -1    0    0  501    0 +0.0000000000e+00 +0.0000000000e+00 +3.5993384504e+02 3.5993384504e+02 0.0000000000e+00 0.0000e+00 1.0000e+00
       -2 -1    0    0    0  501 -0.0000000000e+00 -0.0000000000e+00 -6.1184857797e+02 6.1184857797e+02 0.0000000000e+00 0.0000e+00 -1.0000e+00
      -13  1    1    2    0    0 +1.0908642869e+02 +4.1189671991e+02 -3.2955455463e+02 5.3866962164e+02 0.0000000000e+00 0.0000e+00 -1.0000e+00
       13  1    1    2    0    0 -1.0908642869e+02 -4.1189671991e+02 +7.7639821705e+01 4.3311280137e+02 0.0000000000e+00 0.0000e+00 1.0000e+00
<mgrwt>
<rscale>  0 0.93856275E+03</rscale>
<asrwt>0</asrwt>
<pdfrwt beam="1">  1        2 0.55374438E-01 0.93856275E+03</pdfrwt>
<pdfrwt beam="2">  1       -2 0.94130550E-01 0.93856275E+03</pdfrwt>
<totfact> 0.10551545E+02</totfact>
</mgrwt>
<rwgt>
<wgt id='morphing_basis_vector_1'> +1.8579454e-04 </wgt>
<wgt id='morphing_basis_vector_2'> +1.1792425e-04 </wgt>
<wgt id='morphing_basis_vector_3'> +1.7559740e-04 </wgt>
<wgt id='morphing_basis_vector_4'> +1.0238607e-04 </wgt>
<wgt id='morphing_basis_vector_5'> +1.6438564e-04 </wgt>
</rwgt>
</event>
<event>
 4      1 +1.4786900e-06 9.82832200e+02 7.81860800e-03 8.70094600e-02
        2 -1    0    0  501    0 +0.0000000000e+00 +0.0000000000e+00 +3.1800009136e+02 3.1800009136e+02 0.0000000000e+00 0.0000e+00 1.0000e+00
       -2 -1    0    0    0  501 -0.0000000000e+00 -0.0000000000e+00 -7.5940168093e+02 7.5940168093e+02 0.0000000000e+00 0.0000e+00 -1.0000e+00
      -13  1    1    2    0    0 -4.6845558065e+02 -1.3304822515e+02 -2.9289629952e+02 5.6827871994e+02 0.0000000000e+00 0.0000e+00 -1.0000e+00
       13  1    1    2    0    0 +4.6845558065e+02 +1.3304822515e+02 -1.4850529005e+02 5.0912305235e+02 0.0000000000e+00 0.0000e+00 1.0000e+00
<mgrwt>
<rscale>  0 0.98283224E+03</rscale>
<asrwt>0</asrwt>
<pdfrwt beam="1">  1        2 0.48923092E-01 0.98283224E+03</pdfrwt>
<pdfrwt beam="2">  1       -2 0.11683103E+00 0.98283224E+03</pdfrwt>
<totfact> 0.71070247E+01</totfact>
</mgrwt>
<rwgt>
<wgt id='morphing_basis_vector_1'> +2.2337648e-04 </wgt>
<wgt id='morphing_basis_vector_2'> +1.5070527e-04 </wgt>
<wgt id='morphing_basis_vector_3'> +2.1371603e-04 </wgt>
<wgt id='morphing_basis_vector_4'> +1.2000140e-04 </wgt>
<wgt id='morphing_basis_vector_5'> +2.0080815e-04 </wgt>
</rwgt>
</event>
<event>
 4      1 +1.4786900e-06 1.06222800e+03 7.81860800e-03 8.62732500e-02
        2 -1    0    0  501    0 +0.0000000000e+00 +0.0000000000e+00 +4.1758031873e+02 4.1758031873e+02 0.0000000000e+00 0.0000e+00 -1.0000e+00
       -2 -1    0    0    0  501 -0.0000000000e+00 -0.0000000000e+00 -6.7551558377e+02 6.7551558377e+02 0.0000000000e+00 0.0000e+00 1.0000e+00
      -13  1    1    2    0    0 -4.8289617642e+02 +2.1859351521e+02 -1.6325510334e+02 5.5463868496e+02 0.0000000000e+00 0.0000e+00 1.0000e+00
       13  1    1    2    0    0 +4.8289617642e+02 -2.1859351521e+02 -9.4680161699e+01 5.3845721753e+02 0.0000000000e+00 0.0000e+00 -1.0000e+00
<mgrwt>
<rscale>  0 0.10622279E+04</rscale>
<asrwt>0</asrwt>
<pdfrwt beam="1">  1        2 0.64243126E-01 0.10622279E+04</pdfrwt>
<pdfrwt beam="2">  1       -2 0.10392547E+00 0.10622279E+04</pdfrwt>
<totfact> 0.69736226E+01</totfact>
</mgrwt>
<rwgt>
<wgt id='morphing_basis_vector_1'> +2.9990562e-04 </wgt>
<wgt id='morphing_basis_vector_2'> +2.0895102e-04 </wgt>
<wgt id='morphing_basis_vector_3'> +2.9308503e-04 </wgt>
<wgt id='morphing_basis_vector_4'> +1.6440424e-04 </wgt>
<wgt id='morphing_basis_vector_5'> +2.8082072e-04 </wgt>
</rwgt>
</event>
<event>
 4      1 +1.4786900e-06 9.16727400e+02 7.81860800e-03 8.76799400e-02
        2 -1    0    0  501    0 +0.0000000000e+00 +0.0000000000e+00 +1.8054074284e+03 1.8054074284e+03 0.0000000000e+00 0.0000e+00 1.0000e+00
       -2 -1    0    0    0  501 -0.0000000000e+00 -0.0000000000e+00 -1.1637112454e+02 1.1637112454e+02 0.0000000000e+00 0.0000e+00 -1.0000e+00
      -13  1    1    2    0    0 +4.2361161824e+02 -7.6043533524e+01 +5.1393370457e+02 6.7034116299e+02 0.0000000000e+00 0.0000e+00 -1.0000e+00
       13  1    1    2    0    0 -4.2361161824e+02 +7.6043533524e+01 +1.1751025992e+03 1.2514373899e+03 0.0000000000e+00 0.0000e+00 1.0000e+00
<mgrwt>
<rscale>  0 0.91672742E+03</rscale>
<asrwt>0</asrwt>
<pdfrwt beam="1">  1        2 0.27775497E+00 0.91672742E+03</pdfrwt>
<pdfrwt beam="2">  1       -2 0.17903251E-01 0.91672742E+03</pdfrwt>
<totfact> 0.25769999E+02</totfact>
</mgrwt>
<rwgt>
<wgt id='morphing_basis_vector_1'> +1.7094706e-04 </wgt>
<wgt id='morphing_basis_vector_2'> +1.0918717e-04 </wgt>
<wgt id='morphing_basis_vector_3'> +1.6037675e-04 </wgt>
<wgt id='morphing_basis_vector_4'> +9.1732489e-05 </wgt>
<wgt id='morphing_basis_vector_5'> +1.4816224e-04 </wgt>
</rwgt>
</event>
<event>
 4      1 +1.4786900e-06 9.92241500e+02 7.81860800e-03 8.69185000e-02
        2 -1    0    0  501    0 +0.0000000000e+00 +0.0000000000e+00 +5.2636177408e+02 5.2636177408e+02 0.0000000000e+00 0.0000e+00 1.0000e+00
       -2 -1    0    0    0  501 -0.0000000000e+00 -0.0000000000e+00 -4.6761713984e+02 4.6761713984e+02 0.0000000000e+00 0.0000e+00 -1.0000e+00
      -13  1    1    2    0    0 +2.6001368440e+02 -4.1611170968e+02 -4.4102663655e+01 4.9264705008e+02 0.0000000000e+00 0.0000e+00 -1.0000e+00
       13  1    1    2    0    0 -2.6001368440e+02 +4.1611170968e+02 +1.0284729790e+02 5.0133186384e+02 0.0000000000e+00 0.0000e+00 1.0000e+00
<mgrwt>
<rscale>  0 0.99224148E+03</rscale>
<asrwt>0</asrwt>
<pdfrwt beam="1">  1        2 0.80978735E-01 0.99224148E+03</pdfrwt>
<pdfrwt beam="2">  1       -2 0.71941098E-01 0.99224148E+03</pdfrwt>
<totfact> 0.12586336E+02</totfact>
</mgrwt>
<rwgt>
<wgt id='morphing_basis_vector_1'> +2.3111352e-04 </wgt>
<wgt id='morphing_basis_vector_2'> +1.5552655e-04 </wgt>
<wgt id='morphing_basis_vector_3'> +2.2173257e-04 </wgt>
<wgt id='morphing_basis_vector_4'> +1.2543179e-04 </wgt>
<wgt id='morphing_basis_vector_5'> +2.0933030e-04 </wgt>
</rwgt>
</event>
<event>
 4      1 +1.4786900e-06 9.15289500e+02 7.81860800e-03 8.76951700e-02
        2 -1    0    0  501    0 +0.0000000000e+00 +0.0000000000e+00 +8.7538789974e+02 8.7538789974e+02 0.0000000000e+00 0.0000e+00 1.0000e+00
       -2 -1    0    0    0  501 -0.0000000000e+00 -0.0000000000e+00 -2.3925246008e+02 2.3925246008e+02 0.0000000000e+00 0.0000e+00 -1.0000e+00
      -13  1    1    2    0    0 -6.8181640948e+01 +4.5054117348e+02 +2.6636316632e+02 5.2781191871e+02 0.0000000000e+00 0.0000e+00 -1.0000e+00
       13  1    1    2    0    0 +6.8181640948e+01 -4.5054117348e+02 +3.6977227334e+02 5.8682844111e+02 0.0000000000e+00 0.0000e+00 1.0000e+00
<mgrwt>
<rscale>  0 0.91528948E+03</rscale>
<asrwt>0</asrwt>
<pdfrwt beam="1">  1        2 0.13467506E+00 0.91528948E+03</pdfrwt>
<pdfrwt beam="2">  1       -2 0.36808071E-01 0.91528948E+03</pdfrwt>
<totfact> 0.25557040E+02</totfact>
</mgrwt>
<rwgt>
<wgt id='morphing_basis_vector_1'> +1.7268784e-04 </wgt>
<wgt id='morphing_basis_vector_2'> +1.1679605e-04 </wgt>
<wgt id='morphing_basis_vector_3'> +1.6158353e-04 </wgt>
<wgt id='morphing_basis_vector_4'> +8.7186361e-05 </wgt>
<wgt id='morphing_basis_vector_5'> +1.4692724e-04 </wgt>
</rwgt>
</event>
<event>
 4      1 +1.4786900e-06 9.37748100e+02 7.81860800e-03 8.74604900e-02
        2 -1    0    0  501    0 +0.0000000000e+00 +0.0000000000e+00 +9.9922496765e+02 9.9922496765e+02 0.0000000000e+00 0.0000e+00 1.0000e+00
       -2 -1    0    0    0  501 -0.0000000000e+00 -0.0000000000e+00 -2.2001340134e+02 2.2001340134e+02 0.0000000000e+00 0.0000e+00 -1.0000e+00
      -13  1    1    2    0    0 +2.5447841994e+02 +2.3922778071e+01 -1.2146678223e+02 2.8299424855e+02 0.0000000000e+00 0.0000e+00 -1.0000e+00
       13  1    1    2    0    0 -2.5447841994e+02 -2.3922778071e+01 +9.0067834854e+02 9.3624412044e+02 0.0000000000e+00 0.0000e+00 1.0000e+00
<mgrwt>
<rscale>  0 0.93774812E+03</rscale>
<asrwt>0</asrwt>
<pdfrwt beam="1">  1        2 0.15372692E+00 0.93774812E+03</pdfrwt>
<pdfrwt beam="2">  1       -2 0.33848216E-01 0.93774812E+03</pdfrwt>
<totfact> 0.24762730E+02</totfact>
</mgrwt>
<rwgt>
<wgt id='morphing_basis_vector_1'> +1.8406629e-04 </wgt>
<wgt id='morphing_basis_vector_2'> +1.1407454e-04 </wgt>
<wgt id='morphing_basis_vector_3'> +1.7403474e-04 </wgt>
<wgt id='morphing_basis_vector_4'> +1.0367617e-04 </wgt>
<wgt id='morphing_basis_vector_5'> +1.6385298e-04 </wgt>
</rwgt>
</event>
<event>
 4      1 +1.4786900e-06 1.01945900e+03 7.81860800e-03 8.66611900e-02
        2 -1    0    0  501    0 +0.0000000000e+00 +0.0000000000e+00 +6.2553931706e+02 6.2553931706e+02 0.0000000000e+00 0.0000e+00 -1.0000e+00
       -2 -1    0    0    0  501 -0.0000000000e+00 -0.0000000000e+00 -4.1536052538e+02 4.1536052538e+02 0.0000000000e+00 0.0000e+00 1.0000e+00
      -13  1    1    2    0    0 +7.8645603008e+01 +4.2185070498e+02 -1.7579849101e+02 4.6373295937e+02 0.0000000000e+00 0.0000e+00 1.0000e+00
       13  1    1    2    0    0 -7.8645603008e+01 -4.2185070498e+02 +3.8597728269e+02 5.7716688307e+02 0.0000000000e+00 0.0000e+00 -1.0000e+00
<mgrwt>
<rscale>  0 0.10194593E+04</rscale>
<asrwt>0</asrwt>
<pdfrwt beam="1">  1        2 0.96236818E-01 0.10194593E+04</pdfrwt>
<pdfrwt beam="2">  1       -2 0.63901619E-01 0.10194593E+04</pdfrwt>
<totfact> 0.13200633E+02</totfact>
</mgrwt>
<rwgt>
<wgt id='morphing_basis_vector_1'> +2.5116400e-04 </wgt>
<wgt id='morphing_basis_vector_2'> +1.5955685e-04 </wgt>
<wgt id='morphing_basis_vector_3'> +2.4283553e-04 </wgt>
<wgt id='morphing_basis_vector_4'> +1.4764087e-04 </wgt>
<wgt id='morphing_basis_vector_5'> +2.3580530e-04 </wgt>
</rwgt>
</event>
<event>
 4      1 +1.4786900e-06 1.02719000e+03 7.81860800e-03 8.65896200e-02
        2 -1    0    0  501    0 +0.0000000000e+00 +0.0000000000e+00 +1.4880042302e+03 1.4880042302e+03 0.0000000000e+00 0.0000e+00 -1.0000e+00
       -2 -1    0    0    0  501 -0.0000000000e+00 -0.0000000000e+00 -1.7727096238e+02 1.7727096238e+02 0.0000000000e+00 0.0000e+00 1.0000e+00
      -13  1    1    2    0    0 +2.9261368901e+02 -3.2262882072e+02 +2.1415200940e+02 4.8535884671e+02 0.0000000000e+00 0.0000e+00 1.0000e+00
       13  1    1    2    0    0 -2.9261368901e+02 +3.2262882072e+02 +1.0965812584e+03 1.1799163459e+03 0.0000000000e+00 0.0000e+00 -1.0000e+00
<mgrwt>
<rscale>  0 0.10271902E+04</rscale>
<asrwt>0</asrwt>
<pdfrwt beam="1">  1        2 0.22892372E+00 0.10271902E+04</pdfrwt>
<pdfrwt beam="2">  1       -2 0.27272457E-01 0.10271902E+04</pdfrwt>
<totfact> 0.18782029E+02</totfact>
</mgrwt>
<rwgt>
<wgt id='morphing_basis_vector_1'> +2.5834996e-04 </wgt>
<wgt id='morphing_basis_vector_2'> +1.6441618e-04 </wgt>
<wgt id='morphing_basis_vector_3'> +2.5025839e-04 </wgt>
<wgt id='morphing_basis_vector_4'> +1.5243832e-04 </wgt>
<wgt id='morphing_basis_vector_5'> +2.4363490e-04 </wgt>
</rwgt>
</event>
<event>
 4      1 +1.4786900e-06 1.06390100e+03 7.81860800e-03 8.62584600e-02
        2 -1    0    0  501    0 +0.0000000000e+00 +0.0000000000e+00 +1.3658053845e+03 1.3658053845e+03 0.0000000000e+00 0.0000e+00 -1.0000e+00
       -2 -1    0    0    0  501 -0.0000000000e+00 -0.0000000000e+00 -2.0718257908e+02 2.0718257908e+02 0.0000000000e+00 0.0000e+00 1.0000e+00
      -13  1    1    2    0    0 -1.9420780582e+02 +4.8481127263e+02 +7.2872466174e+02 8.9654797670e+02 0.0000000000e+00 0.0000e+00 1.0000e+00
       13  1    1    2    0    0 +1.9420780582e+02 -4.8481127263e+02 +4.2989814370e+02 6.7643998689e+02 0.0000000000e+00 0.0000e+00 -1.0000e+00
<mgrwt>
<rscale>  0 0.10639005E+04</rscale>
<asrwt>0</asrwt>
<pdfrwt beam="1">  1        2 0.21012390E+00 0.10639005E+04</pdfrwt>
<pdfrwt beam="2">  1       -2 0.31874244E-01 0.10639005E+04</pdfrwt>
<totfact> 0.16658489E+02</totfact>
</mgrwt>
<rwgt>
<wgt id='morphing_basis_vector_1'> +3.1370487e-04 </wgt>
<wgt id='morphing_basis_vector_2'> +2.4655513e-04 </wgt>
<wgt id='morphing_basis_vector_3'> +3.0702077e-04 </wgt>
<wgt id='morphing_basis_vector_4'> +1.4615790e-04 </wgt>
<wgt id='morphing_basis_vector_5'> +2.8151117e-04 </wgt>
</rwgt>
</event>
<event>
 4      1 +1.4786900e-06 1.06454500e+03 7.81860800e-03 8.62527700e-02
        2 -1    0    0  501    0 +0.0000000000e+00 +0.0000000000e+00 +1.1937507873e+03 1.1937507873e+03 0.0000000000e+00 0.0000e+00 -1.0000e+00
       -2 -1    0    0    0  501 -0.0000000000e+00 -0.0000000000e+00 -2.3733095898e+02 2.3733095898e+02 0.0000000000e+00 0.0000e+00 1.0000e+00
      -13  1    1    2    0    0 +2.3517216066e+02 -4.4024509986e+02 +2.2963074220e+02 5.4941056675e+02 0.0000000000e+00 0.0000e+00 1.0000e+00
       13  1    1    2    0    0 -2.3517216066e+02 +4.4024509986e+02 +7.2678908610e+02 8.8167117950e+02 0.0000000000e+00 0.0000e+00 -1.0000e+00
<mgrwt>
<rscale>  0 0.10645450E+04</rscale>
<asrwt>0</asrwt>
<pdfrwt beam="1">  1        2 0.18365396E+00 0.10645450E+04</pdfrwt>
<pdfrwt beam="2">  1       -2 0.36512456E-01 0.10645450E+04</pdfrwt>
<totfact> 0.16353165E+02</totfact>
</mgrwt>
<rwgt>
<wgt id='morphing_basis_vector_1'> +2.9664152e-04 </wgt>
<wgt id='morphing_basis_vector_2'> +1.9346667e-04 </wgt>
<wgt id='morphing_basis_vector_3'> +2.8990140e-04 </wgt>
<wgt id='morphing_basis_vector_4'> +1.7513038e-04 </wgt>
<wgt id='morphing_basis_vector_5'> +2.8404036e-04 </wgt>
</rwgt>
</event>
<event>
 4      1 +1.4786900e-06 9.87427600e+02 7.81860800e-03 8.69649000e-02
        2 -1    0    0  501    0 +0.0000000000e+00 +0.0000000000e+00 +1.4509921440e+03 1.4509921440e+03 0.0000000000e+00 0.0000e+00 1.0000e+00
       -2 -1    0    0    0  501 -0.0000000000e+00 -0.0000000000e+00 -1.6799077995e+02 1.6799077995e+02 0.0000000000e+00 0.0000e+00 -1.0000e+00
      -13  1    1    2    0    0 +1.7223332864e+02 +1.9843105650e+02 +1.3268326561e+03 1.3525990171e+03 0.0000000000e+00 0.0000e+00 1.0000e+00
       13  1    1    2    0    0 -1.7223332864e+02 -1.9843105650e+02 -4.3831292067e+01 2.6638390688e+02 0.0000000000e+00 0.0000e+00 -1.0000e+00
<mgrwt>
<rscale>  0 0.98742757E+03</rscale>
<asrwt>0</asrwt>
<pdfrwt beam="1">  1        2 0.22322955E+00 0.98742757E+03</pdfrwt>
<pdfrwt beam="2">  1       -2 0.25844736E-01 0.98742757E+03</pdfrwt>
<totfact> 0.21681217E+02</totfact>
</mgrwt>
<rwgt>
<wgt id='morphing_basis_vector_1'> +2.9906892e-04 </wgt>
<wgt id='morphing_basis_vector_2'> +3.7100978e-04 </wgt>
<wgt id='morphing_basis_vector_3'> +2.8330651e-04 </wgt>
<wgt id='morphing_basis_vector_4'> +1.2497734e-05 </wgt>
<wgt id='morphing_basis_vector_5'> +1.9845611e-04 </wgt>
</rwgt>
</event>
<event>
 4      1 +1.4786900e-06 9.37110100e+02 7.81860800e-03 8.74670600e-02
        2 -1    0    0  501    0 +0.0000000000e+00 +0.0000000000e+00 +2.0000784582e+03 2.0000784582e+03 0.0000000000e+00 0.0000e+00 1.0000e+00
       -2 -1    0    0    0  501 -0.0000000000e+00 -0.0000000000e+00 -1.0976761523e+02 1.0976761523e+02 0.0000000000e+00 0.0000e+00 -1.0000e+00
      -13  1    1    2    0    0 -1.0273732291e+02 +3.0553483431e+02 +1.7954257646e+02 3.6897429349e+02 0.0000000000e+00 0.0000e+00 -1.0000e+00
       13  1    1    2    0    0 +1.0273732291e+02 -3.0553483431e+02 +1.7107682665e+03 1.7408717799e+03 0.0000000000e+00 0.0000e+00 1.0000e+00
<mgrwt>
<rscale>  0 0.93711012E+03</rscale>
<asrwt>0</asrwt>
<pdfrwt beam="1">  1        2 0.30770435E+00 0.93711012E+03</pdfrwt>
<pdfrwt beam="2">  1       -2 0.16887327E-01 0.93711012E+03</pdfrwt>
<totfact> 0.22105923E+02</totfact>
</mgrwt>
<rwgt>
<wgt id='morphing_basis_vector_1'> +1.8373519e-04 </wgt>
<wgt id='morphing_basis_vector_2'> +1.1416266e-04 </wgt>
<wgt id='morphing_basis_vector_3'> +1.7367493e-04 </wgt>
<wgt id='morphing_basis_vector_4'> +1.0318285e-04 </wgt>
<wgt id='morphing_basis_vector_5'> +1.6335320e-04 </wgt>
</rwgt>
</event>
<event>
 4      1 +1.4786900e-06 9.25142300e+02 7.81860800e-03 8.75913600e-02
        2 -1    0    0  501    0 +0.0000000000e+00 +0.0000000000e+00 +1.8448080982e+03 1.8448080982e+03 0.0000000000e+00 0.0000e+00 -1.0000e+00
       -2 -1    0    0    0  501 -0.0000000000e+00 -0.0000000000e+00 -1.1598608922e+02 1.1598608922e+02 0.0000000000e+00 0.0000e+00 1.0000e+00
      -13  1    1    2    0    0 -1.7295805993e+02 +2.1777629897e+02 +8.0984611105e+01 2.8965412844e+02 0.0000000000e+00 0.0000e+00 1.0000e+00
       13  1    1    2    0    0 +1.7295805993e+02 -2.1777629897e+02 +1.6478373979e+03 1.6711400590e+03 0.0000000000e+00 0.0000e+00 -1.0000e+00
<mgrwt>
<rscale>  0 0.92514232E+03</rscale>
<asrwt>0</asrwt>
<pdfrwt beam="1">  1        2 0.28381661E+00 0.92514232E+03</pdfrwt>
<pdfrwt beam="2">  1       -2 0.17844015E-01 0.92514232E+03</pdfrwt>
<totfact> 0.24631564E+02</totfact>
</mgrwt>
<rwgt>
<wgt id='morphing_basis_vector_1'> +1.7522111e-04 </wgt>
<wgt id='morphing_basis_vector_2'> +1.0843629e-04 </wgt>
<wgt id='morphing_basis_vector_3'> +1.6502127e-04 </wgt>
<wgt id='morphing_basis_vector_4'> +9.7679060e-05 </wgt>
<wgt id='morphing_basis_vector_5'> +1.5437565e-04 </wgt>
</rwgt>
</event>
<event>
 4      1 +1.4786900e-06 9.12859800e+02 7.81860800e-03 8.77209800e-02
        2 -1    0    0  501    0 +0.0000000000e+00 +0.0000000000e+00 +1.2475439812e+03 1.2475439812e+03 0.0000000000e+00 0.0000e+00 -1.0000e+00
       -2 -1    0    0    0  501 -0.0000000000e+00 -0.0000000000e+00 -1.6699070147e+02 1.6699070147e+02 0.0000000000e+00 0.0000e+00 1.0000e+00
      -13  1    1    2    0    0 +3.5001244084e+02 +2.6932515612e+02 +3.6168310908e+02 5.7084097597e+02 0.0000000000e+00 0.0000e+00 1.0000e+00
       13  1    1    2    0    0 -3.5001244084e+02 -2.6932515612e+02 +7.1887017061e+02 8.4369370666e+02 0.0000000000e+00 0.0000e+00 -1.0000e+00
<mgrwt>
<rscale>  0 0.91285978E+03</rscale>
<asrwt>0</asrwt>
<pdfrwt beam="1">  1        2 0.19192984E+00 0.91285978E+03</pdfrwt>
<pdfrwt beam="2">  1       -2 0.25690878E-01 0.91285978E+03</pdfrwt>
<totfact> 0.28689835E+02</totfact>
</mgrwt>
<rwgt>
<wgt id='morphing_basis_vector_1'> +1.6906274e-04 </wgt>
<wgt id='morphing_basis_vector_2'> +1.0966020e-04 </wgt>
<wgt id='morphing_basis_vector_3'> +1.5830686e-04 </wgt>
<wgt id='morphing_basis_vector_4'> +8.9003502e-05 </wgt>
<wgt id='morphing_basis_vector_5'> +1.4536513e-04 </wgt>
</rwgt>
</event>
<event>
 4      1 +1.4786900e-06 1.01981500e+03 7.81860800e-03 8.66578900e-02
        2 -1    0    0  501    0 +0.0000000000e+00 +0.0000000000e+00 +8.6684196451e+02 8.6684196451e+02 0.0000000000e+00 0.0000e+00 -1.0000e+00
       -2 -1    0    0    0  501 -0.0000000000e+00 -0.0000000000e+00 -2.9994558542e+02 2.9994558542e+02 0.0000000000e+00 0.0000e+00 1.0000e+00
      -13  1    1    2    0    0 +2.7935107790e+02 -4.3623483195e+01 -2.0204787032e+02 3.4751025151e+02 0.0000000000e+00 0.0000e+00 1.0000e+00
       13  1    1    2    0    0 -2.7935107790e+02 +4.3623483195e+01 +7.6894424940e+02 8.1927729841e+02 0.0000000000e+00 0.0000e+00 -1.0000e+00
<mgrwt>
<rscale>  0 0.10198145E+04</rscale>
<asrwt>0</asrwt>
<pdfrwt beam="1">  1        2 0.13336030E+00 0.10198145E+04</pdfrwt>
<pdfrwt beam="2">  1       -2 0.46145475E-01 0.10198145E+04</pdfrwt>
<totfact> 0.16831728E+02</totfact>
</mgrwt>
<rwgt>
<wgt id='morphing_basis_vector_1'> +2.5069192e-04 </wgt>
<wgt id='morphing_basis_vector_2'> +1.5736108e-04 </wgt>
<wgt id='morphing_basis_vector_3'> +2.4241069e-04 </wgt>
<wgt id='morphing_basis_vector_4'> +1.4910938e-04 </wgt>
<wgt id='morphing_basis_vector_5'> +2.3623678e-04 </wgt>
</rwgt>
</event>
<event>
 4      1 +1.4786900e-06 9.48845500e+02 7.81860800e-03 8.73470500e-02
        2 -1    0    0  501    0 +0.0000000000e+00 +0.0000000000e+00 +2.6088194490e+02 2.6088194490e+02 0.0000000000e+00 0.0000e+00 1.0000e+00
       -2 -1    0    0    0  501 -0.0000000000e+00 -0.0000000000e+00 -8.6275402859e+02 8.6275402859e+02 0.0000000000e+00 0.0000e+00 -1.0000e+00
      -13  1    1    2    0    0 -3.8011200035e+02 +1.5305478825e+02 -5.8407472898e+02 7.1348033614e+02 0.0000000000e+00 0.0000e+00 -1.0000e+00
       13  1    1    2    0    0 +3.8011200035e+02 -1.5305478825e+02 -1.7797354700e+01 4.1015563735e+02 0.0000000000e+00 0.0000e+00 1.0000e+00
<mgrwt>
<rscale>  0 0.94884551E+03</rscale>
<asrwt>0</asrwt>
<pdfrwt beam="1">  1        2 0.40135685E-01 0.94884551E+03</pdfrwt>
<pdfrwt beam="2">  1       -2 0.13273139E+00 0.94884551E+03</pdfrwt>
<totfact> 0.63668339E+01</totfact>
</mgrwt>
<rwgt>
<wgt id='morphing_basis_vector_1'> +1.9292311e-04 </wgt>
<wgt id='morphing_basis_vector_2'> +1.2161356e-04 </wgt>
<wgt id='morphing_basis_vector_3'> +1.8295074e-04 </wgt>
<wgt id='morphing_basis_vector_4'> +1.0800496e-04 </wgt>
<wgt id='morphing_basis_vector_5'> +1.7247452e-04 </wgt>
</rwgt>
</event>
<event>
 4      1 +1.4786900e-06 1.05556800e+03 7.81860800e-03 8.63324000e-02
        2 -1    0    0  501    0 +0.0000000000e+00 +0.0000000000e+00 +9.0967052801e+02 9.0967052801e+02 0.0000000000e+00 0.0000e+00 -1.0000e+00
       -2 -1    0    0    0  501 -0.0000000000e+00 -0.0000000000e+00 -3.0621630356e+02 3.0621630356e+02 0.0000000000e+00 0.0000e+00 1.0000e+00
      -13  1    1    2    0    0 +4.3685621882e+02 -7.5838508547e+01 -2.8042672869e+01 4.4427607048e+02 0.0000000000e+00 0.0000e+00 1.0000e+00
       13  1    1    2    0    0 -4.3685621882e+02 +7.5838508547e+01 +6.3149689732e+02 7.7161076109e+02 0.0000000000e+00 0.0000e+00 -1.0000e+00
<mgrwt>
<rscale>  0 0.10555680E+04</rscale>
<asrwt>0</asrwt>
<pdfrwt beam="1">  1        2 0.13994931E+00 0.10555680E+04</pdfrwt>
<pdfrwt beam="2">  1       -2 0.47110201E-01 0.10555680E+04</pdfrwt>
<totfact> 0.15122352E+02</totfact>
</mgrwt>
<rwgt>
<wgt id='morphing_basis_vector_1'> +2.8582237e-04 </wgt>
<wgt id='morphing_basis_vector_2'> +1.8240838e-04 </wgt>
<wgt id='morphing_basis_vector_3'> +2.7872215e-04 </wgt>
<wgt id='morphing_basis_vector_4'> +1.7146329e-04 </wgt>
<wgt id='morphing_basis_vector_5'> +2.7403888e-04 </wgt>
</rwgt>
</event>
<event>
 4      1 +1.4786900e-06 9.76931000e+02 7.81860800e-03 8.70670400e-02
        2 -1    0    0  501    0 +0.0000000000e+00 +0.0000000000e+00 +6.2948363311e+02 6.2948363311e+02 0.0000000000e+00 0.0000e+00 1.0000e+00
       -2 -1    0    0    0  501 -0.0000000000e+00 -0.0000000000e+00 -3.7903849421e+02 3.7903849421e+02 0.0000000000e+00 0.0000e+00 -1.0000e+00
      -13  1    1    2    0    0 +3.5596734611e+02 -3.2996000743e+02 +6.8564558345e+01 4.9019124499e+02 0.0000000000e+00 0.0000e+00 -1.0000e+00
       13  1    1    2    0    0 -3.5596734611e+02 +3.2996000743e+02 +1.8188058055e+02 5.1833088234e+02 0.0000000000e+00 0.0000e+00 1.0000e+00
<mgrwt>
<rscale>  0 0.97693097E+03</rscale>
<asrwt>0</asrwt>
<pdfrwt beam="1">  1        2 0.96843635E-01 0.97693097E+03</pdfrwt>
<pdfrwt beam="2">  1       -2 0.58313615E-01 0.97693097E+03</pdfrwt>
<totfact> 0.15859566E+02</totfact>
</mgrwt>
<rwgt>
<wgt id='morphing_basis_vector_1'> +2.1887333e-04 </wgt>
<wgt id='morphing_basis_vector_2'> +1.4848718e-04 </wgt>
<wgt id='morphing_basis_vector_3'> +2.0902003e-04 </wgt>
<wgt id='morphing_basis_vector_4'> +1.1631142e-04 </wgt>
<wgt id='morphing_basis_vector_5'> +1.9557267e-04 </wgt>
</rwgt>
</event>
<event>
 4      1 +1.4786900e-06 9.87227300e+02 7.81860800e-03 8.69668400e-02
        2 -1    0    0  501    0 +0.0000000000e+00 +0.0000000000e+00 +2.3477425987e+02 2.3477425987e+02 0.0000000000e+00 0.0000e+00 -1.0000e+00
       -2 -1    0    0    0  501 -0.0000000000e+00 -0.0000000000e+00 -1.0378244157e+03 1.0378244157e+03 0.0000000000e+00 0.0000e+00 1.0000e+00
      -13  1    1    2    0    0 +1.8213398811e+02 +3.2576447416e+02 -8.1795277937e+02 8.9907843458e+02 0.0000000000e+00 0.0000e+00 1.0000e+00
       13  1    1    2    0    0 -1.8213398811e+02 -3.2576447416e+02 +1.4902623521e+01 3.7352024100e+02 0.0000000000e+00 0.0000e+00 -1.0000e+00
<mgrwt>
<rscale>  0 0.98722735E+03</rscale>
<asrwt>0</asrwt>
<pdfrwt beam="1">  1        2 0.36119116E-01 0.98722735E+03</pdfrwt>
<pdfrwt beam="2">  1       -2 0.15966530E+00 0.98722735E+03</pdfrwt>
<totfact> 0.42522634E+01</totfact>
</mgrwt>
<rwgt>
<wgt id='morphing_basis_vector_1'> +2.2263804e-04 </wgt>
<wgt id='morphing_basis_vector_2'> +1.3983211e-04 </wgt>
<wgt id='morphing_basis_vector_3'> +2.1348264e-04 </wgt>
<wgt id='morphing_basis_vector_4'> +1.2913943e-04 </wgt>
<wgt id='morphing_basis_vector_5'> +2.0514640e-04 </wgt>
</rwgt>
</event>
<event>
 4      1 +1.4786900e-06 1.00105800e+03 7.81860800e-03 8.68342200e-02
        2 -1    0    0  501    0 +0.0000000000e+00 +0.0000000000e+00 +1.1818792705e+03 1.1818792705e+03 0.0000000000e+00 0.0000e+00 1.0000e+00
       -2 -1    0    0    0  501 -0.0000000000e+00 -0.0000000000e+00 -2.1197535302e+02 2.1197535302e+02 0.0000000000e+00 0.0000e+00 -1.0000e+00
      -13  1    1    2    0    0 -1.1196958734e+02 -2.2904623928e+02 -1.1479106773e+02 2.7960035309e+02 0.0000000000e+00 0.0000e+00 -1.0000e+00
       13  1    1    2    0    0 +1.1196958734e+02 +2.2904623928e+02 +1.0846949852e+03 1.1142542704e+03 0.0000000000e+00 0.0000e+00 1.0000e+00
<mgrwt>
<rscale>  0 0.10010580E+04</rscale>
<asrwt>0</asrwt>
<pdfrwt beam="1">  1        2 0.18182758E+00 0.10010580E+04</pdfrwt>
<pdfrwt beam="2">  1       -2 0.32611593E-01 0.10010580E+04</pdfrwt>
<totfact> 0.20476830E+02</totfact>
</mgrwt>
<rwgt>
<wgt id='morphing_basis_vector_1'> +2.3402171e-04 </wgt>
<wgt id='morphing_basis_vector_2'> +1.4644176e-04 </wgt>
<wgt id='morphing_basis_vector_3'> +2.2522867e-04 </wgt>
<wgt id='morphing_basis_vector_4'> +1.3768188e-04 </wgt>
<wgt id='morphing_basis_vector_5'> +2.1797026e-04 </wgt>
</rwgt>
</event>
<event>
 4      1 +1.4786900e-06 1.02203900e+03 7.81860800e-03 8.66372400e-02
        2 -1    0    0  501    0 +0.0000000000e+00 +0.0000000000e+00 +1.4333334479e+03 1.4333334479e+03 0.0000000000e+00 0.0000e+00 -1.0000e+00
       -2 -1    0    0    0  501 -0.0000000000e+00 -0.0000000000e+00 -1.8219126377e+02 1.8219126377e+02 0.0000000000e+00 0.0000e+00 1.0000e+00
      -13  1    1    2    0    0 +1.9102517921e+02 +2.8090758288e+02 +2.2126633344e+01 3.4042514172e+02 0.0000000000e+00 0.0000e+00 1.0000e+00
       13  1    1    2    0    0 -1.9102517921e+02 -2.8090758288e+02 +1.2290155508e+03 1.2750995699e+03 0.0000000000e+00 0.0000e+00 -1.0000e+00
<mgrwt>
<rscale>  0 0.10220388E+04</rscale>
<asrwt>0</asrwt>
<pdfrwt beam="1">  1        2 0.22051283E+00 0.10220388E+04</pdfrwt>
<pdfrwt beam="2">  1       -2 0.28029426E-01 0.10220388E+04</pdfrwt>
<totfact> 0.19216052E+02</totfact>
</mgrwt>
<rwgt>
<wgt id='morphing_basis_vector_1'> +2.5285020e-04 </wgt>
<wgt id='morphing_basis_vector_2'> +1.5906625e-04 </wgt>
<wgt id='morphing_basis_vector_3'> +2.4462925e-04 </wgt>
<wgt id='morphing_basis_vector_4'> +1.5031732e-04 </wgt>
<wgt id='morphing_basis_vector_5'> +2.3846307e-04 </wgt>
</rwgt>
</event>
<event>
 4      1 +1.4786900e-06 9.29952900e+02 7.81860800e-03 8.75411600e-02
        2 -1    0    0  501    0 +0.0000000000e+00 +0.0000000000e+00 +1.4040102603e+03 1.4040102603e+03 0.0000000000e+00 0.0000e+00 -1.0000e+00
       -2 -1    0    0    0  501 -0.0000000000e+00 -0.0000000000e+00 -1.5398967338e+02 1.5398967338e+02 0.0000000000e+00 0.0000e+00 1.0000e+00
      -13  1    1    2    0    0 -4.4904782733e+02 -1.1886980676e+02 +5.9030582829e+02 7.5115574490e+02 0.0000000000e+00 0.0000e+00 1.0000e+00
       13  1    1    2    0    0 +4.4904782733e+02 +1.1886980676e+02 +6.5971475862e+02 8.0684418876e+02 0.0000000000e+00 0.0000e+00 -1.0000e+00
<mgrwt>
<rscale>  0 0.92995286E+03</rscale>
<asrwt>0</asrwt>
<pdfrwt beam="1">  1        2 0.21600157E+00 0.92995286E+03</pdfrwt>
<pdfrwt beam="2">  1       -2 0.23690720E-01 0.92995286E+03</pdfrwt>
<totfact> 0.26846277E+02</totfact>
</mgrwt>
<rwgt>
<wgt id='morphing_basis_vector_1'> +1.8388260e-04 </wgt>
<wgt id='morphing_basis_vector_2'> +1.2674580e-04 </wgt>
<wgt id='morphing_basis_vector_3'> +1.7285031e-04 </wgt>
<wgt id='morphing_basis_vector_4'> +9.2149490e-05 </wgt>
<wgt id='morphing_basis_vector_5'> +1.5751469e-04 </wgt>
</rwgt>
</event>
<event>
 4      1 +1.4786900e-06 9.71387600e+02 7.81860800e-03 8.71215300e-02
        2 -1    0    0  501    0 +0.0000000000e+00 +0.0000000000e+00 +1.0992383917e+03 1.0992383917e+03 0.0000000000e+00 0.0000e+00 -1.0000e+00
       -2 -1    0    0    0  501 -0.0000000000e+00 -0.0000000000e+00 -2.1460173603e+02 2.1460173603e+02 0.0000000000e+00 0.0000e+00 1.0000e+00
      -13  1    1    2    0    0 +2.5797513253e+02 +4.1065357265e+02 +4.0625491036e+02 6.3263779363e+02 0.0000000000e+00 0.0000e+00 1.0000e+00
       13  1    1    2    0    0 -2.5797513253e+02 -4.1065357265e+02 +4.7838174530e+02 6.8120233409e+02 0.0000000000e+00 0.0000e+00 -1.0000e+00
<mgrwt>
<rscale>  0 0.97138760E+03</rscale>
<asrwt>0</asrwt>
<pdfrwt beam="1">  1        2 0.16911360E+00 0.97138760E+03</pdfrwt>
<pdfrwt beam="2">  1       -2 0.33015652E-01 0.97138760E+03</pdfrwt>
<totfact> 0.22458761E+02</totfact>
</mgrwt>
<rwgt>
<wgt id='morphing_basis_vector_1'> +2.1551869e-04 </wgt>
<wgt id='morphing_basis_vector_2'> +1.4888291e-04 </wgt>
<wgt id='morphing_basis_vector_3'> +2.0539872e-04 </wgt>
<wgt id='morphing_basis_vector_4'> +1.1169424e-04 </wgt>
<wgt id='morphing_basis_vector_5'> +1.9067551e-04 </wgt>
</rwgt>
</event>
<event>
 4      1 +1.4786900e-06 9.87756500e+02 7.81860800e-03 8.69617300e-02
        2 -1    0    0  501    0 +0.0000000000e+00 +0.0000000000e+00 +1.4422818141e+03 1.4422818141e+03 0.0000000000e+00 0.0000e+00 -1.0000e+00
       -2 -1    0    0    0  501 -0.0000000000e+00 -0.0000000000e+00 -1.6911792395e+02 1.6911792395e+02 0.0000000000e+00 0.0000e+00 1.0000e+00
      -13  1    1    2    0    0 +3.5076212519e+02 +3.3363022580e+02 +4.7696965566e+02 6.7959050056e+02 0.0000000000e+00 0.0000e+00 1.0000e+00
       13  1    1    2    0    0 -3.5076212519e+02 -3.3363022580e+02 +7.9619423448e+02 9.3180923748e+02 0.0000000000e+00 0.0000e+00 -1.0000e+00
<mgrwt>
<rscale>  0 0.98775646E+03</rscale>
<asrwt>0</asrwt>
<pdfrwt beam="1">  1        2 0.22188950E+00 0.98775646E+03</pdfrwt>
<pdfrwt beam="2">  1       -2 0.26018143E-01 0.98775646E+03</pdfrwt>
<totfact> 0.21673119E+02</totfact>
</mgrwt>
<rwgt>
<wgt id='morphing_basis_vector_1'> +2.2646248e-04 </wgt>
<wgt id='morphing_basis_vector_2'> +1.5037279e-04 </wgt>
<wgt id='morphing_basis_vector_3'> +2.1702741e-04 </wgt>
<wgt id='morphing_basis_vector_4'> +1.2425709e-04 </wgt>
<wgt id='morphing_basis_vector_5'> +2.0532034e-04 </wgt>
</rwgt>
</event>
<event>
 4      1 +1.4786900e-06 1.05895600e+03 7.81860800e-03 8.63022500e-02
        2 -1    0    0  501    0 +0.0000000000e+00 +0.0000000000e+00 +5.4380565692e+02 5.4380565692e+02 0.0000000000e+00 0.0000e+00 -1.0000e+00
       -2 -1    0    0    0  501 -0.0000000000e+00 -0.0000000000e+00 -5.1552767745e+02 5.1552767745e+02 0.0000000000e+00 0.0000e+00 1.0000e+00
      -13  1    1    2    0    0 -4.0122932986e+02 +2.2138311241e+01 -3.3076179741e+02 5.2045984147e+02 0.0000000000e+00 0.0000e+00 1.0000e+00
       13  1    1    2    0    0 +4.0122932986e+02 -2.2138311241e+01 +3.5903977688e+02 5.3887349290e+02 0.0000000000e+00 0.0000e+00 -1.0000e+00
<mgrwt>
<rscale>  0 0.10589558E+04</rscale>
<asrwt>0</asrwt>
<pdfrwt beam="1">  1        2 0.83662409E-01 0.10589558E+04</pdfrwt>
<pdfrwt beam="2">  1       -2 0.79311950E-01 0.10589558E+04</pdfrwt>
<totfact> 0.97279828E+01</totfact>
</mgrwt>
<rwgt>
<wgt id='morphing_basis_vector_1'> +2.8876483e-04 </wgt>
<wgt id='morphing_basis_vector_2'> +1.8319866e-04 </wgt>
<wgt id='morphing_basis_vector_3'> +2.8179528e-04 </wgt>
<wgt id='morphing_basis_vector_4'> +1.7461801e-04 </wgt>
<wgt id='morphing_basis_vector_5'> +2.7789377e-04 </wgt>
</rwgt>
</event>
<event>
 4      1 +1.4786900e-06 9.41625500e+02 7.81860800e-03 8.74206700e-02
        2 -1    0    0  501    0 +0.0000000000e+00 +0.0000000000e+00 +1.3842427347e+03 1.3842427347e+03 0.0000000000e+00 0.0000e+00 -1.0000e+00
       -2 -1    0    0    0  501 -0.0000000000e+00 -0.0000000000e+00 -1.6013424177e+02 1.6013424177e+02 0.0000000000e+00 0.0000e+00 1.0000e+00
      -13  1    1    2    0    0 -3.4416261128e+02 -2.8755671984e+01 +8.7242452286e+01 3.5621066401e+02 0.0000000000e+00 0.0000e+00 1.0000e+00
       13  1    1    2    0    0 +3.4416261128e+02 +2.8755671984e+01 +1.1368660406e+03 1.1881663125e+03 0.0000000000e+00 0.0000e+00 -1.0000e+00
<mgrwt>
<rscale>  0 0.94162553E+03</rscale>
<asrwt>0</asrwt>
<pdfrwt beam="1">  1        2 0.21296041E+00 0.94162553E+03</pdfrwt>
<pdfrwt beam="2">  1       -2 0.24636038E-01 0.94162553E+03</pdfrwt>
<totfact> 0.25740393E+02</totfact>
</mgrwt>
<rwgt>
<wgt id='morphing_basis_vector_1'> +1.8707594e-04 </wgt>
<wgt id='morphing_basis_vector_2'> +1.1652358e-04 </wgt>
<wgt id='morphing_basis_vector_3'> +1.7706808e-04 </wgt>
<wgt id='morphing_basis_vector_4'> +1.0524795e-04 </wgt>
<wgt id='morphing_basis_vector_5'> +1.6683309e-04 </wgt>
</rwgt>
</event>
<event>
 4      1 +1.4786900e-06 9.84506600e+02 7.81860800e-03 8.69931900e-02
        2 -1    0    0  501    0 +0.0000000000e+00 +0.0000000000e+00 +2.8019960202e+02 2.8019960202e+02 0.0000000000e+00 0.0000e+00 1.0000e+00
       -2 -1    0    0    0  501 -0.0000000000e+00 -0.0000000000e+00 -8.6478822006e+02 8.6478822006e+02 0.0000000000e+00 0.0000e+00 -1.0000e+00
      -13  1    1    2    0    0 +9.4625842280e+01 +4.6369016699e+02 -4.4984070772e+02 6.5293130061e+02 0.0000000000e+00 0.0000e+00 -1.0000e+00
       13  1    1    2    0    0 -9.4625842280e+01 -4.6369016699e+02 -1.3474791033e+02 4.9205652148e+02 0.0000000000e+00 0.0000e+00 1.0000e+00
<mgrwt>
<rscale>  0 0.98450661E+03</rscale>
<asrwt>0</asrwt>
<pdfrwt beam="1">  1        2 0.43107632E-01 0.98450661E+03</pdfrwt>
<pdfrwt beam="2">  1       -2 0.13304434E+00 0.98450661E+03</pdfrwt>
<totfact> 0.58201564E+01</totfact>
</mgrwt>
<rwgt>
<wgt id='morphing_basis_vector_1'> +2.2272418e-04 </wgt>
<wgt id='morphing_basis_vector_2'> +1.4545097e-04 </wgt>
<wgt id='morphing_basis_vector_3'> +2.1329479e-04 </wgt>
<wgt id='morphing_basis_vector_4'> +1.2403188e-04 </wgt>
<wgt id='morphing_basis_vector_5'> +2.0248633e-04 </wgt>
</rwgt>
</event>
<event>
 4      1 +1.4786900e-06 9.68083800e+02 7.81860800e-03 8.71541800e-02
        2 -1    0    0  501    0 +0.0000000000e+00 +0.0000000000e+00 +1.9595504084e+03 1.9595504084e+03 0.0000000000e+00 0.0000e+00 -1.0000e+00
       -2 -1    0    0    0  501 -0.0000000000e+00 -0.0000000000e+00 -1.1956649296e+02 1.1956649296e+02 0.0000000000e+00 0.0000e+00 1.0000e+00
      -13  1    1    2    0    0 +3.9086591164e+01 -3.1382415488e+02 +1.3298820693e+02 3.4307320644e+02 0.0000000000e+00 0.0000e+00 1.0000e+00
       13  1    1    2    0    0 -3.9086591164e+01 +3.1382415488e+02 +1.7069957085e+03 1.7360436949e+03 0.0000000000e+00 0.0000e+00 -1.0000e+00
<mgrwt>
<rscale>  0 0.96808382E+03</rscale>
<asrwt>0</asrwt>
<pdfrwt beam="1">  1        2 0.30146927E+00 0.96808382E+03</pdfrwt>
<pdfrwt beam="2">  1       -2 0.18394846E-01 0.96808382E+03</pdfrwt>
<totfact> 0.20172046E+02</totfact>
</mgrwt>
<rwgt>
<wgt id='morphing_basis_vector_1'> +2.0695109e-04 </wgt>
<wgt id='morphing_basis_vector_2'> +1.2911957e-04 </wgt>
<wgt id='morphing_basis_vector_3'> +1.9741077e-04 </wgt>
<wgt id='morphing_basis_vector_4'> +1.1893724e-04 </wgt>
<wgt id='morphing_basis_vector_5'> +1.8837368e-04 </wgt>
</rwgt>
</event>
<event>
 4      1 +1.4786900e-06 1.00977500e+03 7.81860800e-03 8.67517700e-02
        2 -1    0    0  501    0 +0.0000000000e+00 +0.0000000000e+00 +1.1859044902e+03 1.1859044902e+03 0.0000000000e+00 0.0000e+00 -1.0000e+00
       -2 -1    0    0    0  501 -0.0000000000e+00 -0.0000000000e+00 -2.1495123147e+02 2.1495123147e+02 0.0000000000e+00 0.0000e+00 1.0000e+00
      -13  1    1    2    0    0 -4.2561993865e+02 +2.7157325186e+02 +4.8173677808e+02 6.9783571609e+02 0.0000000000e+00 0.0000e+00 1.0000e+00
       13  1    1    2    0    0 +4.2561993865e+02 -2.7157325186e+02 +4.8921648061e+02 7.0302000555e+02 0.0000000000e+00 0.0000e+00 -1.0000e+00
<mgrwt>
<rscale>  0 0.10097755E+04</rscale>
<asrwt>0</asrwt>
<pdfrwt beam="1">  1        2 0.18244684E+00 0.10097755E+04</pdfrwt>
<pdfrwt beam="2">  1       -2 0.33069421E-01 0.10097755E+04</pdfrwt>
<totfact> 0.19851609E+02</totfact>
</mgrwt>
<rwgt>
<wgt id='morphing_basis_vector_1'> +2.5007093e-04 </wgt>
<wgt id='morphing_basis_vector_2'> +1.7689972e-04 </wgt>
<wgt id='morphing_basis_vector_3'> +2.4101725e-04 </wgt>
<wgt id='morphing_basis_vector_4'> +1.2982993e-04 </wgt>
<wgt id='morphing_basis_vector_5'> +2.2554027e-04 </wgt>
</rwgt>
</event>
<event>
 4      1 +1.4786900e-06 1.04742300e+03 7.81860800e-03 8.64053700e-02
        2 -1    0    0  501    0 +0.0000000000e+00 +0.0000000000e+00 +4.3984015951e+02 4.3984015951e+02 0.0000000000e+00 0.0000e+00 -1.0000e+00
       -2 -1    0    0    0  501 -0.0000000000e+00 -0.0000000000e+00 -6.2357557154e+02 6.2357557154e+02 0.0000000000e+00 0.0000e+00 1.0000e+00
      -13  1    1    2    0    0 +5.0865320192e+02 +1.1769875858e+02 -1.3363589053e+02 5.3892451125e+02 0.0000000000e+00 0.0000e+00 1.0000e+00
       13  1    1    2    0    0 -5.0865320192e+02 -1.1769875858e+02 -5.0099521496e+01 5.2449121980e+02 0.0000000000e+00 0.0000e+00 -1.0000e+00
<mgrwt>
<rscale>  0 0.10474227E+04</rscale>
<asrwt>0</asrwt>
<pdfrwt beam="1">  1        2 0.67667717E-01 0.10474227E+04</pdfrwt>
<pdfrwt beam="2">  1       -2 0.95934703E-01 0.10474227E+04</pdfrwt>
<totfact> 0.79844446E+01</totfact>
</mgrwt>
<rwgt>
<wgt id='morphing_basis_vector_1'> +2.8417649e-04 </wgt>
<wgt id='morphing_basis_vector_2'> +1.9661250e-04 </wgt>
<wgt id='morphing_basis_vector_3'> +2.7668577e-04 </wgt>
<wgt id='morphing_basis_vector_4'> +1.5554562e-04 </wgt>
<wgt id='morphing_basis_vector_5'> +2.6440518e-04 </wgt>
</rwgt>
</event>
<event>
 4      1 +1.4786900e-06 9.17628700e+02 7.81860800e-03 8.76704000e-02
        2 -1    0    0  501    0 +0.0000000000e+00 +0.0000000000e+00 +5.8695268752e+02 5.8695268752e+02 0.0000000000e+00 0.0000e+00 -1.0000e+00
       -2 -1    0    0    0  501 -0.0000000000e+00 -0.0000000000e+00 -3.5865004330e+02 3.5865004330e+02 0.0000000000e+00 0.0000e+00 1.0000e+00
      -13  1    1    2    0    0 +4.0846616127e+02 -6.4627517017e+01 -9.0625769652e+01 4.2336078111e+02 0.0000000000e+00 0.0000e+00 1.0000e+00
       13  1    1    2    0    0 -4.0846616127e+02 +6.4627517017e+01 +3.1892841387e+02 5.2224194970e+02 0.0000000000e+00 0.0000e+00 -1.0000e+00
<mgrwt>
<rscale>  0 0.91762870E+03</rscale>
<asrwt>0</asrwt>
<pdfrwt beam="1">  1        2 0.90300413E-01 0.91762870E+03</pdfrwt>
<pdfrwt beam="2">  1       -2 0.55176930E-01 0.91762870E+03</pdfrwt>
<totfact> 0.19334235E+02</totfact>
</mgrwt>
<rwgt>
<wgt id='morphing_basis_vector_1'> +1.7103548e-04 </wgt>
<wgt id='morphing_basis_vector_2'> +1.0800017e-04 </wgt>
<wgt id='morphing_basis_vector_3'> +1.6057384e-04 </wgt>
<wgt id='morphing_basis_vector_4'> +9.2886378e-05 </wgt>
<wgt id='morphing_basis_vector_5'> +1.4884739e-04 </wgt>
</rwgt>
</event>
<event>
 4      1 +1.4786900e-06 9.58556000e+02 7.81860800e-03 8.72491100e-02
        2 -1    0    0  501    0 +0.0000000000e+00 +0.0000000000e+00 +8.5433869174e+02 8.5433869174e+02 0.0000000000e+00 0.0000e+00 -1.0000e+00
       -2 -1    0    0    0  501 -0.0000000000e+00 -0.0000000000e+00 -2.6887159018e+02 2.6887159018e+02 0.0000000000e+00 0.0000e+00 1.0000e+00
      -13  1    1    2    0    0 +2.4807513695e+01 -4.1701043315e+02 +1.7443415727e+01 4.1811169183e+02 0.0000000000e+00 0.0000e+00 1.0000e+00
       13  1    1    2    0    0 -2.4807513695e+01 +4.1701043315e+02 +5.6802368583e+02 7.0509859010e+02 0.0000000000e+00 0.0000e+00 -1.0000e+00
<mgrwt>
<rscale>  0 0.95855600E+03</rscale>
<asrwt>0</asrwt>
<pdfrwt beam="1">  1        2 0.13143672E+00 0.95855600E+03</pdfrwt>
<pdfrwt beam="2">  1       -2 0.41364860E-01 0.95855600E+03</pdfrwt>
<totfact> 0.21203858E+02</totfact>
</mgrwt>
<rwgt>
<wgt id='morphing_basis_vector_1'> +2.0032726e-04 </wgt>
<wgt id='morphing_basis_vector_2'> +1.2663048e-04 </wgt>
<wgt id='morphing_basis_vector_3'> +1.9051544e-04 </wgt>
<wgt id='morphing_basis_vector_4'> +1.1279857e-04 </wgt>
<wgt id='morphing_basis_vector_5'> +1.8033573e-04 </wgt>
</rwgt>
</event>
<event>
 4      1 +1.4786900e-06 9.44305700e+02 7.81860800e-03 8.73932600e-02
        2 -1    0    0  501    0 +0.0000000000e+00 +0.0000000000e+00 +2.0410243958e+03 2.0410243958e+03 0.0000000000e+00 0.0000e+00 -1.0000e+00
       -2 -1    0    0    0  501 -0.0000000000e+00 -0.0000000000e+00 -1.0922374007e+02 1.0922374007e+02 0.0000000000e+00 0.0000e+00 1.0000e+00
      -13  1    1    2    0    0 -3.7357128438e+02 +1.0501692616e+01 +3.0884678574e+02 4.8482174778e+02 0.0000000000e+00 0.0000e+00 1.0000e+00
       13  1    1    2    0    0 +3.7357128438e+02 -1.0501692616e+01 +1.6229538700e+03 1.6654263881e+03 0.0000000000e+00 0.0000e+00 -1.0000e+00
<mgrwt>
<rscale>  0 0.94430571E+03</rscale>
<asrwt>0</asrwt>
<pdfrwt beam="1">  1        2 0.31400373E+00 0.94430571E+03</pdfrwt>
<pdfrwt beam="2">  1       -2 0.16803654E-01 0.94430571E+03</pdfrwt>
<totfact> 0.21135322E+02</totfact>
</mgrwt>
<rwgt>
<wgt id='morphing_basis_vector_1'> +1.8919375e-04 </wgt>
<wgt id='morphing_basis_vector_2'> +1.1828465e-04 </wgt>
<wgt id='morphing_basis_vector_3'> +1.7920246e-04 </wgt>
<wgt id='morphing_basis_vector_4'> +1.0632069e-04 </wgt>
<wgt id='morphing_basis_vector_5'> +1.6891453e-04 </wgt>
</rwgt>
</event>
<event>
 4      1 +1.4786900e-06 1.04637300e+03 7.81860800e-03 8.64148200e-02
        2 -1    0    0  501    0 +0.0000000000e+00 +0.0000000000e+00 +1.7473123592e+03 1.7473123592e+03 0.0000000000e+00 0.0000e+00 -1.0000e+00
       -2 -1    0    0    0  501 -0.0000000000e+00 -0.0000000000e+00 -1.5665423935e+02 1.5665423935e+02 0.0000000000e+00 0.0000e+00 1.0000e+00
      -13  1    1    2    0    0 +9.5578777359e+00 -3.5696420590e+02 +9.9567921067e+01 3.7071359325e+02 0.0000000000e+00 0.0000e+00 1.0000e+00
       13  1    1    2    0    0 -9.5578777359e+00 +3.5696420590e+02 +1.4910901988e+03 1.5332530053e+03 0.0000000000e+00 0.0000e+00 -1.0000e+00
<mgrwt>
<rscale>  0 0.10463726E+04</rscale>
<asrwt>0</asrwt>
<pdfrwt beam="1">  1        2 0.26881727E+00 0.10463726E+04</pdfrwt>
<pdfrwt beam="2">  1       -2 0.24100653E-01 0.10463726E+04</pdfrwt>
<totfact> 0.16681176E+02</totfact>
</mgrwt>
<rwgt>
<wgt id='morphing_basis_vector_1'> +2.7597328e-04 </wgt>
<wgt id='morphing_basis_vector_2'> +1.7426852e-04 </wgt>
<wgt id='morphing_basis_vector_3'> +2.6854294e-04 </wgt>
<wgt id='morphing_basis_vector_4'> +1.6625190e-04 </wgt>
<wgt id='morphing_basis_vector_5'> +2.6396972e-04 </wgt>
</rwgt>
</event>
<event>
 4      1 +1.4786900e-06 9.92690200e+02 7.81860800e-03 8.69141900e-02
        2 -1    0    0  501    0 +0.0000000000e+00 +0.0000000000e+00 +9.1010913202e+02 9.1010913202e+02 0.0000000000e+00 0.0000e+00 -1.0000e+00
       -2 -1    0    0    0  501 -0.0000000000e+00 -0.0000000000e+00 -2.7069113381e+02 2.7069113381e+02 0.0000000000e+00 0.0000e+00 1.0000e+00
      -13  1    1    2    0    0 -1.6079259011e+01 -4.1526137621e+02 -3.1199106654e+00 4.1558427182e+02 0.0000000000e+00 0.0000e+00 1.0000e+00
       13  1    1    2    0    0 +1.6079259011e+01 +4.1526137621e+02 +6.4253790888e+02 7.6521599401e+02 0.0000000000e+00 0.0000e+00 -1.0000e+00
<mgrwt>
<rscale>  0 0.99269023E+03</rscale>
<asrwt>0</asrwt>
<pdfrwt beam="1">  1        2 0.14001679E+00 0.99269023E+03</pdfrwt>
<pdfrwt beam="2">  1       -2 0.41644790E-01 0.99269023E+03</pdfrwt>
<totfact> 0.19196598E+02</totfact>
</mgrwt>
<rwgt>
<wgt id='morphing_basis_vector_1'> +2.2759135e-04 </wgt>
<wgt id='morphing_basis_vector_2'> +1.4395735e-04 </wgt>
<wgt id='morphing_basis_vector_3'> +2.1853516e-04 </wgt>
<wgt id='morphing_basis_vector_4'> +1.3168276e-04 </wgt>
<wgt id='morphing_basis_vector_5'> +2.1009745e-04 </wgt>
</rwgt>
</event>
<event>
 4      1 +1.4786900e-06 9.99029100e+02 7.81860800e-03 8.68535400e-02
        2 -1    0    0  501    0 +0.0000000000e+00 +0.0000000000e+00 +7.0569226807e+02 7.0569226807e+02 0.0000000000e+00 0.0000e+00 -1.0000e+00
       -2 -1    0    0    0  501 -0.0000000000e+00 -0.0000000000e+00 -3.5357450161e+02 3.5357450161e+02 0.0000000000e+00 0.0000e+00 1.0000e+00
      -13  1    1    2    0    0 -2.1525186021e+02 +3.2431035014e+02 -1.5587348491e+02 4.1929358430e+02 0.0000000000e+00 0.0000e+00 1.0000e+00
       13  1    1    2    0    0 +2.1525186021e+02 -3.2431035014e+02 +5.0799125138e+02 6.3997318538e+02 0.0000000000e+00 0.0000e+00 -1.0000e+00
<mgrwt>
<rscale>  0 0.99902911E+03</rscale>
<asrwt>0</asrwt>
<pdfrwt beam="1">  1        2 0.10856804E+00 0.99902911E+03</pdfrwt>
<pdfrwt beam="2">  1       -2 0.54396077E-01 0.99902911E+03</pdfrwt>
<totfact> 0.15871326E+02</totfact>
</mgrwt>
<rwgt>
<wgt id='morphing_basis_vector_1'> +2.3270387e-04 </wgt>
<wgt id='morphing_basis_vector_2'> +1.4660688e-04 </wgt>
<wgt id='morphing_basis_vector_3'> +2.2382874e-04 </wgt>
<wgt id='morphing_basis_vector_4'> +1.3581743e-04 </wgt>
<wgt id='morphing_basis_vector_5'> +2.1601849e-04 </wgt>
</rwgt>
</event>
<event>
 4      1 +1.4786900e-06 9.25203600e+02 7.81860800e-03 8.75907200e-02
        2 -1    0    0  501    0 +0.0000000000e+00 +0.0000000000e+00 +7.2981132867e+02 7.2981132867e+02 0.0000000000e+00 0.0000e+00 -1.0000e+00
       -2 -1    0    0    0  501 -0.0000000000e+00 -0.0000000000e+00 -2.9322704533e+02 2.9322704533e+02 0.0000000000e+00 0.0000e+00 1.0000e+00
      -13  1    1    2    0    0 +2.3173488371e+02 +3.4665838248e+02 -3.2083747387e+00 4.1699326630e+02 0.0000000000e+00 0.0000e+00 1.0000e+00
       13  1    1    2    0    0 -2.3173488371e+02 -3.4665838248e+02 +4.3979265808e+02 6.0604510770e+02 0.0000000000e+00 0.0000e+00 -1.0000e+00
<mgrwt>
<rscale>  0 0.92520359E+03</rscale>
<asrwt>0</asrwt>
<pdfrwt beam="1">  1        2 0.11227867E+00 0.92520359E+03</pdfrwt>
<pdfrwt beam="2">  1       -2 0.45111853E-01 0.92520359E+03</pdfrwt>
<totfact> 0.22051694E+02</totfact>
</mgrwt>
<rwgt>
<wgt id='morphing_basis_vector_1'> +1.7624024e-04 </wgt>
<wgt id='morphing_basis_vector_2'> +1.1143265e-04 </wgt>
<wgt id='morphing_basis_vector_3'> +1.6587013e-04 </wgt>
<wgt id='morphing_basis_vector_4'> +9.6285107e-05 </wgt>
<wgt id='morphing_basis_vector_5'> +1.5434281e-04 </wgt>
</rwgt>
</event>
<event>
 4      1 +1.4786900e-06 9.50650700e+02 7.81860800e-03 8.73287500e-02
        2 -1    0    0  501    0 +0.0000000000e+00 +0.0000000000e+00 +1.8623800043e+02 1.8623800043e+02 0.0000000000e+00 0.0000e+00 1.0000e+00
       -2 -1    0    0    0  501 -0.0000000000e+00 -0.0000000000e+00 -1.2131475196e+03 1.2131475196e+03 0.0000000000e+00 0.0000e+00 -1.0000e+00
      -13  1    1    2    0    0 +1.4693963076e+01 +2.0471768847e+02 +1.1764747635e+02 2.3657170840e+02 0.0000000000e+00 0.0000e+00 1.0000e+00
       13  1    1    2    0    0 -1.4693963076e+01 -2.0471768847e+02 -1.1445569955e+03 1.1628138117e+03 0.0000000000e+00 0.0000e+00 -1.0000e+00
<mgrwt>
<rscale>  0 0.95065066E+03</rscale>
<asrwt>0</asrwt>
<pdfrwt beam="1">  1        2 0.28652000E-01 0.95065066E+03</pdfrwt>
<pdfrwt beam="2">  1       -2 0.18663808E+00 0.95065066E+03</pdfrwt>
<totfact> 0.34466184E+01</totfact>
</mgrwt>
<rwgt>
<wgt id='morphing_basis_vector_1'> +2.6260734e-04 </wgt>
<wgt id='morphing_basis_vector_2'> +3.2992872e-04 </wgt>
<wgt id='morphing_basis_vector_3'> +2.4328814e-04 </wgt>
<wgt id='morphing_basis_vector_4'> +7.2107572e-06 </wgt>
<wgt id='morphing_basis_vector_5'> +1.6816636e-04 </wgt>
</rwgt>
</event>
<event>
 4      1 +1.4786900e-06 9.16557200e+02 7.81860800e-03 8.76817400e-02
        2 -1    0    0  501    0 +0.0000000000e+00 +0.0000000000e+00 +1.4958718067e+02 1.4958718067e+02 0.0000000000e+00 0.0000e+00 1.0000e+00
       -2 -1    0    0    0  501 -0.0000000000e+00 -0.0000000000e+00 -1.4039926194e+03 1.4039926194e+03 0.0000000000e+00 0.0000e+00 -1.0000e+00
      -13  1    1    2    0    0 -4.3030010779e+02 -1.1024053880e+01 -8.9380887650e+02 9.9205545220e+02 0.0000000000e+00 0.0000e+00 -1.0000e+00
       13  1    1    2    0    0 +4.3030010779e+02 +1.1024053880e+01 -3.6059656219e+02 5.6152434782e+02 0.0000000000e+00 0.0000e+00 1.0000e+00
<mgrwt>
<rscale>  0 0.91655725E+03</rscale>
<asrwt>0</asrwt>
<pdfrwt beam="1">  1        2 0.23013412E-01 0.91655725E+03</pdfrwt>
<pdfrwt beam="2">  1       -2 0.21599887E+00 0.91655725E+03</pdfrwt>
<totfact> 0.27334577E+01</totfact>
</mgrwt>
<rwgt>
<wgt id='morphing_basis_vector_1'> +1.7083715e-04 </wgt>
<wgt id='morphing_basis_vector_2'> +1.0912737e-04 </wgt>
<wgt id='morphing_basis_vector_3'> +1.6026377e-04 </wgt>
<wgt id='morphing_basis_vector_4'> +9.1649846e-05 </wgt>
<wgt id='morphing_basis_vector_5'> +1.4804043e-04 </wgt>
</rwgt>
</event>
<event>
 4      1 +1.4786900e-06 9.70290900e+02 7.81860800e-03 8.71323500e-02
        2 -1    0    0  501    0 +0.0000000000e+00 +0.0000000000e+00 +1.6541400869e+03 1.6541400869e+03 0.0000000000e+00 0.0000e+00 1.0000e+00
       -2 -1    0    0    0  501 -0.0000000000e+00 -0.0000000000e+00 -1.4228911630e+02 1.4228911630e+02 0.0000000000e+00 0.0000e+00 -1.0000e+00
      -13  1    1    2    0    0 +4.7803162613e+02 +8.0337334813e+01 +7.9285257025e+02 9.2929194610e+02 0.0000000000e+00 0.0000e+00 -1.0000e+00
       13  1    1    2    0    0 -4.7803162613e+02 -8.0337334813e+01 +7.1899840034e+02 8.6713725709e+02 0.0000000000e+00 0.0000e+00 1.0000e+00
<mgrwt>
<rscale>  0 0.97029095E+03</rscale>
<asrwt>0</asrwt>
<pdfrwt beam="1">  1        2 0.25448308E+00 0.97029095E+03</pdfrwt>
<pdfrwt beam="2">  1       -2 0.21890634E-01 0.97029095E+03</pdfrwt>
<totfact> 0.22233273E+02</totfact>
</mgrwt>
<rwgt>
<wgt id='morphing_basis_vector_1'> +2.1715710e-04 </wgt>
<wgt id='morphing_basis_vector_2'> +1.5592222e-04 </wgt>
<wgt id='morphing_basis_vector_3'> +2.0673154e-04 </wgt>
<wgt id='morphing_basis_vector_4'> +1.0732225e-04 </wgt>
<wgt id='morphing_basis_vector_5'> +1.8951677e-04 </wgt>
</rwgt>
</event>
<event>
 4      1 +1.4786900e-06 1.00058000e+03 7.81860800e-03 8.68387700e-02
        2 -1    0    0  501    0 +0.0000000000e+00 +0.0000000000e+00 +8.2023163831e+02 8.2023163831e+02 0.0000000000e+00 0.0000e+00 1.0000e+00
       -2 -1    0    0    0  501 -0.0000000000e+00 -0.0000000000e+00 -3.0514568424e+02 3.0514568424e+02 0.0000000000e+00 0.0000e+00 -1.0000e+00
      -13  1    1    2    0    0 +3.4695229787e+02 +3.6023000825e+02 +2.7125302998e+02 5.6896376169e+02 0.0000000000e+00 0.0000e+00 -1.0000e+00
       13  1    1    2    0    0 -3.4695229787e+02 -3.6023000825e+02 +2.4383292409e+02 5.5641356086e+02 0.0000000000e+00 0.0000e+00 1.0000e+00
<mgrwt>
<rscale>  0 0.10005801E+04</rscale>
<asrwt>0</asrwt>
<pdfrwt beam="1">  1        2 0.12618948E+00 0.10005801E+04</pdfrwt>
<pdfrwt beam="2">  1       -2 0.46945490E-01 0.10005801E+04</pdfrwt>
<totfact> 0.17531686E+02</totfact>
</mgrwt>
<rwgt>
<wgt id='morphing_basis_vector_1'> +2.4267188e-04 </wgt>
<wgt id='morphing_basis_vector_2'> +1.7361472e-04 </wgt>
<wgt id='morphing_basis_vector_3'> +2.3323475e-04 </wgt>
<wgt id='morphing_basis_vector_4'> +1.2339371e-04 </wgt>
<wgt id='morphing_basis_vector_5'> +2.1668401e-04 </wgt>
</rwgt>
</event>
<event>
 4      1 +1.4786900e-06 9.39135700e+02 7.81860800e-03 8.74462200e-02
        2 -1    0    0  501    0 +0.0000000000e+00 +0.0000000000e+00 +2.8447164670e+03 2.8447164670e+03 0.0000000000e+00 0.0000e+00 1.0000e+00
       -2 -1    0    0    0  501 -0.0000000000e+00 -0.0000000000e+00 -7.7509999911e+01 7.7509999911e+01 0.0000000000e+00 0.0000e+00 -1.0000e+00
      -13  1    1    2    0    0 -2.9477071070e+02 +3.1809198000e+02 +8.2332550352e+02 9.3055744818e+02 0.0000000000e+00 0.0000e+00 -1.0000e+00
       13  1    1    2    0    0 +2.9477071070e+02 -3.1809198000e+02 +1.9438809635e+03 1.9916690187e+03 0.0000000000e+00 0.0000e+00 1.0000e+00
<mgrwt>
<rscale>  0 0.93913572E+03</rscale>
<asrwt>0</asrwt>
<pdfrwt beam="1">  1        2 0.43764861E+00 0.93913572E+03</pdfrwt>
<pdfrwt beam="2">  1       -2 0.11924618E-01 0.93913572E+03</pdfrwt>
<totfact> 0.12462020E+02</totfact>
</mgrwt>
<rwgt>
<wgt id='morphing_basis_vector_1'> +1.8642720e-04 </wgt>
<wgt id='morphing_basis_vector_2'> +1.1885931e-04 </wgt>
<wgt id='morphing_basis_vector_3'> +1.7620522e-04 </wgt>
<wgt id='morphing_basis_vector_4'> +1.0233829e-04 </wgt>
<wgt id='morphing_basis_vector_5'> +1.6480911e-04 </wgt>
</rwgt>
</event>
<event>
 4      1 +1.4786900e-06 9.78562800e+02 7.81860800e-03 8.70510800e-02
        2 -1    0    0  501    0 +0.0000000000e+00 +0.0000000000e+00 +1.9557172842e+03 1.9557172842e+03 0.0000000000e+00 0.0000e+00 1.0000e+00
       -2 -1    0    0    0  501 -0.0000000000e+00 -0.0000000000e+00 -1.2240842211e+02 1.2240842211e+02 0.0000000000e+00 0.0000e+00 -1.0000e+00
      -13  1    1    2    0    0 +1.8491536017e+02 -4.2721156869e+02 +1.2365643254e+03 1.3212852628e+03 0.0000000000e+00 0.0000e+00 -1.0000e+00
       13  1    1    2    0    0 -1.8491536017e+02 +4.2721156869e+02 +5.9674453668e+02 7.5684044350e+02 0.0000000000e+00 0.0000e+00 1.0000e+00
<mgrwt>
<rscale>  0 0.97856276E+03</rscale>
<asrwt>0</asrwt>
<pdfrwt beam="1">  1        2 0.30087956E+00 0.97856276E+03</pdfrwt>
<pdfrwt beam="2">  1       -2 0.18832066E-01 0.97856276E+03</pdfrwt>
<totfact> 0.19480318E+02</totfact>
</mgrwt>
<rwgt>
<wgt id='morphing_basis_vector_1'> +2.3709036e-04 </wgt>
<wgt id='morphing_basis_vector_2'> +2.0056421e-04 </wgt>
<wgt id='morphing_basis_vector_3'> +2.2561863e-04 </wgt>
<wgt id='morphing_basis_vector_4'> +9.1498938e-05 </wgt>
<wgt id='morphing_basis_vector_5'> +1.9550394e-04 </wgt>
</rwgt>
</event>
<event>
 4      1 +1.4786900e-06 9.13247700e+02 7.81860800e-03 8.77168600e-02
        2 -1    0    0  501    0 +0.0000000000e+00 +0.0000000000e+00 +1.6840040109e+03 1.6840040109e+03 0.0000000000e+00 0.0000e+00 1.0000e+00
       -2 -1    0    0    0  501 -0.0000000000e+00 -0.0000000000e+00 -1.2381522920e+02 1.2381522920e+02 0.0000000000e+00 0.0000e+00 -1.0000e+00
      -13  1    1    2    0    0 -2.3027596711e+02 +3.7365955153e+02 +5.3082151407e+02 6.8878150475e+02 0.0000000000e+00 0.0000e+00 -1.0000e+00
       13  1    1    2    0    0 +2.3027596711e+02 -3.7365955153e+02 +1.0293672676e+03 1.1190377353e+03 0.0000000000e+00 0.0000e+00 1.0000e+00
<mgrwt>
<rscale>  0 0.91324770E+03</rscale>
<asrwt>0</asrwt>
<pdfrwt beam="1">  1        2 0.25907752E+00 0.91324770E+03</pdfrwt>
<pdfrwt beam="2">  1       -2 0.19048498E-01 0.91324770E+03</pdfrwt>
<totfact> 0.27131223E+02</totfact>
</mgrwt>
<rwgt>
<wgt id='morphing_basis_vector_1'> +1.6911689e-04 </wgt>
<wgt id='morphing_basis_vector_2'> +1.0920586e-04 </wgt>
<wgt id='morphing_basis_vector_3'> +1.5840576e-04 </wgt>
<wgt id='morphing_basis_vector_4'> +8.9468048e-05 </wgt>
<wgt id='morphing_basis_vector_5'> +1.4565431e-04 </wgt>
</rwgt>
</event>
<event>
 4      1 +1.4786900e-06 9.04379300e+02 7.81860800e-03 8.78117400e-02
        2 -1    0    0  501    0 +0.0000000000e+00 +0.0000000000e+00 +1.1024212340e+03 1.1024212340e+03 0.0000000000e+00 0.0000e+00 -1.0000e+00
       -2 -1    0    0    0  501 -0.0000000000e+00 -0.0000000000e+00 -1.8547851858e+02 1.8547851858e+02 0.0000000000e+00 0.0000e+00 1.0000e+00
      -13  1    1    2    0    0 +2.3345292601e+02 +2.0524067655e+02 -9.2039825765e+00 3.1098025222e+02 0.0000000000e+00 0.0000e+00 1.0000e+00
       13  1    1    2    0    0 -2.3345292601e+02 -2.0524067655e+02 +9.2614669803e+02 9.7691950039e+02 0.0000000000e+00 0.0000e+00 -1.0000e+00
<mgrwt>
<rscale>  0 0.90437925E+03</rscale>
<asrwt>0</asrwt>
<pdfrwt beam="1">  1        2 0.16960326E+00 0.90437925E+03</pdfrwt>
<pdfrwt beam="2">  1       -2 0.28535157E-01 0.90437925E+03</pdfrwt>
<totfact> 0.29082285E+02</totfact>
</mgrwt>
<rwgt>
<wgt id='morphing_basis_vector_1'> +1.6140236e-04 </wgt>
<wgt id='morphing_basis_vector_2'> +9.9708252e-05 </wgt>
<wgt id='morphing_basis_vector_3'> +1.5097277e-04 </wgt>
<wgt id='morphing_basis_vector_4'> +8.8319601e-05 </wgt>
<wgt id='morphing_basis_vector_5'> +1.3964089e-04 </wgt>
</rwgt>
</event>
<event>
 4      1 +1.4786900e-06 9.75434600e+02 7.81860800e-03 8.70817100e-02
        2 -1    0    0  501    0 +0.0000000000e+00 +0.0000000000e+00 +3.3749388529e+02 3.3749388529e+02 0.0000000000e+00 0.0000e+00 -1.0000e+00
       -2 -1    0    0    0  501 -0.0000000000e+00 -0.0000000000e+00 -7.0480736863e+02 7.0480736863e+02 0.0000000000e+00 0.0000e+00 1.0000e+00
      -13  1    1    2    0    0 -7.5562270778e+01 +4.2242171267e+02 -4.3131721343e+02 6.0842772677e+02 0.0000000000e+00 0.0000e+00 1.0000e+00
       13  1    1    2    0    0 +7.5562270778e+01 -4.2242171267e+02 +6.4003730095e+01 4.3387352716e+02 0.0000000000e+00 0.0000e+00 -1.0000e+00
<mgrwt>
<rscale>  0 0.97543463E+03</rscale>
<asrwt>0</asrwt>
<pdfrwt beam="1">  1        2 0.51922137E-01 0.97543463E+03</pdfrwt>
<pdfrwt beam="2">  1       -2 0.10843190E+00 0.97543463E+03</pdfrwt>
<totfact> 0.80322111E+01</totfact>
</mgrwt>
<rwgt>
<wgt id='morphing_basis_vector_1'> +2.1368021e-04 </wgt>
<wgt id='morphing_basis_vector_2'> +1.3561211e-04 </wgt>
<wgt id='morphing_basis_vector_3'> +2.0419544e-04 </wgt>
<wgt id='morphing_basis_vector_4'> +1.2155358e-04 </wgt>
<wgt id='morphing_basis_vector_5'> +1.9461960e-04 </wgt>
</rwgt>
</event>
<event>
 4      1 +1.4786900e-06 9.58778400e+02 7.81860800e-03 8.72468800e-02
        2 -1    0    0  501    0 +0.0000000000e+00 +0.0000000000e+00 +8.0994152398e+02 8.0994152398e+02 0.0000000000e+00 0.0000e+00 -1.0000e+00
       -2 -1    0    0    0  501 -0.0000000000e+00 -0.0000000000e+00 -2.8374145220e+02 2.8374145220e+02 0.0000000000e+00 0.0000e+00 1.0000e+00
      -13  1    1    2    0    0 -1.0133330605e+02 -1.8109127508e+02 -2.2985269225e+02 3.0966877298e+02 0.0000000000e+00 0.0000e+00 1.0000e+00
       13  1    1    2    0    0 +1.0133330605e+02 +1.8109127508e+02 +7.5605276403e+02 7.8401420320e+02 0.0000000000e+00 0.0000e+00 -1.0000e+00
<mgrwt>
<rscale>  0 0.95877836E+03</rscale>
<asrwt>0</asrwt>
<pdfrwt beam="1">  1        2 0.12460639E+00 0.95877836E+03</pdfrwt>
<pdfrwt beam="2">  1       -2 0.43652532E-01 0.95877836E+03</pdfrwt>
<totfact> 0.20538112E+02</totfact>
</mgrwt>
<rwgt>
<wgt id='morphing_basis_vector_1'> +1.9960767e-04 </wgt>
<wgt id='morphing_basis_vector_2'> +1.2404171e-04 </wgt>
<wgt id='morphing_basis_vector_3'> +1.8991177e-04 </wgt>
<wgt id='morphing_basis_vector_4'> +1.1424576e-04 </wgt>
<wgt id='morphing_basis_vector_5'> +1.8059499e-04 </wgt>
</rwgt>
</event>
<event>
 4      1 +1.4786900e-06 9.17012300e+02 7.81860800e-03 8.76769200e-02
        2 -1    0    0  501    0 +0.0000000000e+00 +0.0000000000e+00 +2.1735013894e+03 2.1735013894e+03 0.0000000000e+00 0.0000e+00 -1.0000e+00
       -2 -1    0    0    0  501 -0.0000000000e+00 -0.0000000000e+00 -9.6723144212e+01 9.6723144212e+01 0.0000000000e+00 0.0000e+00 1.0000e+00
      -13  1    1    2    0    0 -6.9883691457e+01 +4.0471086392e+02 +5.3373214762e+02 6.7345721402e+02 0.0000000000e+00 0.0000e+00 1.0000e+00
       13  1    1    2    0    0 +6.9883691457e+01 -4.0471086392e+02 +1.5430460976e+03 1.5967673196e+03 0.0000000000e+00 0.0000e+00 -1.0000e+00
<mgrwt>
<rscale>  0 0.91701230E+03</rscale>
<asrwt>0</asrwt>
<pdfrwt beam="1">  1        2 0.33438479E+00 0.91701230E+03</pdfrwt>
<pdfrwt beam="2">  1       -2 0.14880485E-01 0.91701230E+03</pdfrwt>
<totfact> 0.21765296E+02</totfact>
</mgrwt>
<rwgt>
<wgt id='morphing_basis_vector_1'> +1.7056138e-04 </wgt>
<wgt id='morphing_basis_vector_2'> +1.0755460e-04 </wgt>
<wgt id='morphing_basis_vector_3'> +1.6010320e-04 </wgt>
<wgt id='morphing_basis_vector_4'> +9.2694467e-05 </wgt>
<wgt id='morphing_basis_vector_5'> +1.4841093e-04 </wgt>
</rwgt>
</event>
<event>
 4      1 +1.4786900e-06 9.05773900e+02 7.81860800e-03 8.77967400e-02
        2 -1    0    0  501    0 +0.0000000000e+00 +0.0000000000e+00 +1.2737085749e+03 1.2737085749e+03 0.0000000000e+00 0.0000e+00 1.0000e+00
       -2 -1    0    0    0  501 -0.0000000000e+00 -0.0000000000e+00 -1.6103103284e+02 1.6103103284e+02 0.0000000000e+00 0.0000e+00 -1.0000e+00
      -13  1    1    2    0    0 +1.5369289384e+02 -3.0711982956e+02 +8.8691789414e+01 3.5469751738e+02 0.0000000000e+00 0.0000e+00 -1.0000e+00
       13  1    1    2    0    0 -1.5369289384e+02 +3.0711982956e+02 +1.0239857526e+03 1.0800420903e+03 0.0000000000e+00 0.0000e+00 1.0000e+00
<mgrwt>
<rscale>  0 0.90577394E+03</rscale>
<asrwt>0</asrwt>
<pdfrwt beam="1">  1        2 0.19595516E+00 0.90577394E+03</pdfrwt>
<pdfrwt beam="2">  1       -2 0.24774006E-01 0.90577394E+03</pdfrwt>
<totfact> 0.29516830E+02</totfact>
</mgrwt>
<rwgt>
<wgt id='morphing_basis_vector_1'> +1.6243071e-04 </wgt>
<wgt id='morphing_basis_vector_2'> +1.0066491e-04 </wgt>
<wgt id='morphing_basis_vector_3'> +1.5198835e-04 </wgt>
<wgt id='morphing_basis_vector_4'> +8.8744431e-05 </wgt>
<wgt id='morphing_basis_vector_5'> +1.4058752e-04 </wgt>
</rwgt>
</event>
<event>
 4      1 +1.4786900e-06 9.92608800e+02 7.81860800e-03 8.69149700e-02
        2 -1    0    0  501    0 +0.0000000000e+00 +0.0000000000e+00 +7.4384872776e+02 7.4384872776e+02 0.0000000000e+00 0.0000e+00 -1.0000e+00
       -2 -1    0    0    0  501 -0.0000000000e+00 -0.0000000000e+00 -3.3113998543e+02 3.3113998543e+02 0.0000000000e+00 0.0000e+00 1.0000e+00
      -13  1    1    2    0    0 -3.9766319794e+02 -2.7969557691e+02 +3.1439576491e+02 5.7897351557e+02 0.0000000000e+00 0.0000e+00 1.0000e+00
       13  1    1    2    0    0 +3.9766319794e+02 +2.7969557691e+02 +9.8312977427e+01 4.9601519762e+02 0.0000000000e+00 0.0000e+00 -1.0000e+00
<mgrwt>
<rscale>  0 0.99260880E+03</rscale>
<asrwt>0</asrwt>
<pdfrwt beam="1">  1        2 0.11443827E+00 0.99260880E+03</pdfrwt>
<pdfrwt beam="2">  1       -2 0.50944613E-01 0.99260880E+03</pdfrwt>
<totfact> 0.16939916E+02</totfact>
</mgrwt>
<rwgt>
<wgt id='morphing_basis_vector_1'> +2.4306710e-04 </wgt>
<wgt id='morphing_basis_vector_2'> +1.9099806e-04 </wgt>
<wgt id='morphing_basis_vector_3'> +2.3276620e-04 </wgt>
<wgt id='morphing_basis_vector_4'> +1.0774950e-04 </wgt>
<wgt id='morphing_basis_vector_5'> +2.0860953e-04 </wgt>
</rwgt>
</event>
<event>
 4      1 +1.4786900e-06 1.05002800e+03 7.81860800e-03 8.63819600e-02
        2 -1    0    0  501    0 +0.0000000000e+00 +0.0000000000e+00 +3.4818627390e+02 3.4818627390e+02 0.0000000000e+00 0.0000e+00 -1.0000e+00
       -2 -1    0    0    0  501 -0.0000000000e+00 -0.0000000000e+00 -7.9164400453e+02 7.9164400453e+02 0.0000000000e+00 0.0000e+00 1.0000e+00
      -13  1    1    2    0    0 +4.1997970873e+02 +2.6023763953e+02 -4.1449111814e+02 6.4491043703e+02 0.0000000000e+00 0.0000e+00 1.0000e+00
       13  1    1    2    0    0 -4.1997970873e+02 -2.6023763953e+02 -2.8966612497e+01 4.9491984140e+02 0.0000000000e+00 0.0000e+00 -1.0000e+00
<mgrwt>
<rscale>  0 0.10500278E+04</rscale>
<asrwt>0</asrwt>
<pdfrwt beam="1">  1        2 0.53567119E-01 0.10500278E+04</pdfrwt>
<pdfrwt beam="2">  1       -2 0.12179138E+00 0.10500278E+04</pdfrwt>
<totfact> 0.57349201E+01</totfact>
</mgrwt>
<rwgt>
<wgt id='morphing_basis_vector_1'> +2.8195334e-04 </wgt>
<wgt id='morphing_basis_vector_2'> +1.8380727e-04 </wgt>
<wgt id='morphing_basis_vector_3'> +2.7462788e-04 </wgt>
<wgt id='morphing_basis_vector_4'> +1.6496590e-04 </wgt>
<wgt id='morphing_basis_vector_5'> +2.6773150e-04 </wgt>
</rwgt>
</event>
<event>
 4      1 +1.4786900e-06 1.00731300e+03 7.81860800e-03 8.67749800e-02
        2 -1    0    0  501    0 +0.0000000000e+00 +0.0000000000e+00 +5.6514259628e+02 5.6514259628e+02 0.0000000000e+00 0.0000e+00 1.0000e+00
       -2 -1    0    0    0  501 -0.0000000000e+00 -0.0000000000e+00 -4.4885978649e+02 4.4885978649e+02 0.0000000000e+00 0.0000e+00 -1.0000e+00
      -13  1    1    2    0    0 -1.9364298422e+02 +3.3625997876e+02 -2.6508505392e+02 4.6993453211e+02 0.0000000000e+00 0.0000e+00 -1.0000e+00
       13  1    1    2    0    0 +1.9364298422e+02 -3.3625997876e+02 +3.8136786372e+02 5.4406785067e+02 0.0000000000e+00 0.0000e+00 1.0000e+00
<mgrwt>
<rscale>  0 0.10073128E+04</rscale>
<asrwt>0</asrwt>
<pdfrwt beam="1">  1        2 0.86945014E-01 0.10073128E+04</pdfrwt>
<pdfrwt beam="2">  1       -2 0.69055352E-01 0.10073128E+04</pdfrwt>
<totfact> 0.12644025E+02</totfact>
</mgrwt>
<rwgt>
<wgt id='morphing_basis_vector_1'> +2.3988319e-04 </wgt>
<wgt id='morphing_basis_vector_2'> +1.5122847e-04 </wgt>
<wgt id='morphing_basis_vector_3'> +2.3122826e-04 </wgt>
<wgt id='morphing_basis_vector_4'> +1.4079701e-04 </wgt>
<wgt id='morphing_basis_vector_5'> +2.2390533e-04 </wgt>
</rwgt>
</event>
<event>
 4      1 +1.4786900e-06 9.05757600e+02 7.81860800e-03 8.77969200e-02
        2 -1    0    0  501    0 +0.0000000000e+00 +0.0000000000e+00 +1.1037064787e+03 1.1037064787e+03 0.0000000000e+00 0.0000e+00 -1.0000e+00
       -2 -1    0    0    0  501 -0.0000000000e+00 -0.0000000000e+00 -1.8582766841e+02 1.8582766841e+02 0.0000000000e+00 0.0000e+00 1.0000e+00
      -13  1    1    2    0    0 +2.7821461762e+02 -1.8554843816e+02 +2.4142665213e+01 3.3528266380e+02 0.0000000000e+00 0.0000e+00 1.0000e+00
       13  1    1    2    0    0 -2.7821461762e+02 +1.8554843816e+02 +8.9373614505e+02 9.5425148327e+02 0.0000000000e+00 0.0000e+00 -1.0000e+00
<mgrwt>
<rscale>  0 0.90575759E+03</rscale>
<asrwt>0</asrwt>
<pdfrwt beam="1">  1        2 0.16980099E+00 0.90575759E+03</pdfrwt>
<pdfrwt beam="2">  1       -2 0.28588873E-01 0.90575759E+03</pdfrwt>
<totfact> 0.28933021E+02</totfact>
</mgrwt>
<rwgt>
<wgt id='morphing_basis_vector_1'> +1.6237845e-04 </wgt>
<wgt id='morphing_basis_vector_2'> +1.0053139e-04 </wgt>
<wgt id='morphing_basis_vector_3'> +1.5194449e-04 </wgt>
<wgt id='morphing_basis_vector_4'> +8.8796907e-05 </wgt>
<wgt id='morphing_basis_vector_5'> +1.4057945e-04 </wgt>
</rwgt>
</event>
<event>
 4      1 +1.4786900e-06 9.34029100e+02 7.81860800e-03 8.74988700e-02
        2 -1    0    0  501    0 +0.0000000000e+00 +0.0000000000e+00 +1.2152163781e+03 1.2152163781e+03 0.0000000000e+00 0.0000e+00 -1.0000e+00
       -2 -1    0    0    0  501 -0.0000000000e+00 -0.0000000000e+00 -1.7947633478e+02 1.7947633478e+02 0.0000000000e+00 0.0000e+00 1.0000e+00
      -13  1    1    2    0    0 -4.1257146523e+02 -2.1011911939e+02 +6.0915482091e+02 7.6513714724e+02 0.0000000000e+00 0.0000e+00 1.0000e+00
       13  1    1    2    0    0 +4.1257146523e+02 +2.1011911939e+02 +4.2658522241e+02 6.2955556564e+02 0.0000000000e+00 0.0000e+00 -1.0000e+00
<mgrwt>
<rscale>  0 0.93402908E+03</rscale>
<asrwt>0</asrwt>
<pdfrwt beam="1">  1        2 0.18695636E+00 0.93402908E+03</pdfrwt>
<pdfrwt beam="2">  1       -2 0.27611745E-01 0.93402908E+03</pdfrwt>
<totfact> 0.26394577E+02</totfact>
</mgrwt>
<rwgt>
<wgt id='morphing_basis_vector_1'> +1.9159851e-04 </wgt>
<wgt id='morphing_basis_vector_2'> +1.4330663e-04 </wgt>
<wgt id='morphing_basis_vector_3'> +1.7986955e-04 </wgt>
<wgt id='morphing_basis_vector_4'> +8.6946007e-05 </wgt>
<wgt id='morphing_basis_vector_5'> +1.6018665e-04 </wgt>
</rwgt>
</event>
<event>
 4      1 +1.4786900e-06 9.06591000e+02 7.81860800e-03 8.77879700e-02
        2 -1    0    0  501    0 +0.0000000000e+00 +0.0000000000e+00 +1.1599939135e+03 1.1599939135e+03 0.0000000000e+00 0.0000e+00 -1.0000e+00
       -2 -1    0    0    0  501 -0.0000000000e+00 -0.0000000000e+00 -1.7713609922e+02 1.7713609922e+02 0.0000000000e+00 0.0000e+00 1.0000e+00
      -13  1    1    2    0    0 -9.3315609756e+01 -2.2714936381e+02 -7.0529169869e+01 2.5549755440e+02 0.0000000000e+00 0.0000e+00 1.0000e+00
       13  1    1    2    0    0 +9.3315609756e+01 +2.2714936381e+02 +1.0533869842e+03 1.0816324583e+03 0.0000000000e+00 0.0000e+00 -1.0000e+00
<mgrwt>
<rscale>  0 0.90659097E+03</rscale>
<asrwt>0</asrwt>
<pdfrwt beam="1">  1        2 0.17846060E+00 0.90659097E+03</pdfrwt>
<pdfrwt beam="2">  1       -2 0.27251708E-01 0.90659097E+03</pdfrwt>
<totfact> 0.29133078E+02</totfact>
</mgrwt>
<rwgt>
<wgt id='morphing_basis_vector_1'> +1.6272899e-04 </wgt>
<wgt id='morphing_basis_vector_2'> +1.0029556e-04 </wgt>
<wgt id='morphing_basis_vector_3'> +1.5234207e-04 </wgt>
<wgt id='morphing_basis_vector_4'> +8.9432374e-05 </wgt>
<wgt id='morphing_basis_vector_5'> +1.4116760e-04 </wgt>
</rwgt>
</event>
<event>
 4      1 +1.4786900e-06 9.19610600e+02 7.81860800e-03 8.76494700e-02
        2 -1    0    0  501    0 +0.0000000000e+00 +0.0000000000e+00 +2.4836164029e+03 2.4836164029e+03 0.0000000000e+00 0.0000e+00 -1.0000e+00
       -2 -1    0    0    0  501 -0.0000000000e+00 -0.0000000000e+00 -8.5126231663e+01 8.5126231663e+01 0.0000000000e+00 0.0000e+00 1.0000e+00
      -13  1    1    2    0    0 -1.9391380297e+02 -3.6496133961e+02 +6.3626251658e+02 7.5870240041e+02 0.0000000000e+00 0.0000e+00 1.0000e+00
       13  1    1    2    0    0 +1.9391380297e+02 +3.6496133961e+02 +1.7622276547e+03 1.8100402342e+03 0.0000000000e+00 0.0000e+00 -1.0000e+00
<mgrwt>
<rscale>  0 0.91961058E+03</rscale>
<asrwt>0</asrwt>
<pdfrwt beam="1">  1        2 0.38209478E+00 0.91961058E+03</pdfrwt>
<pdfrwt beam="2">  1       -2 0.13096345E-01 0.91961058E+03</pdfrwt>
<totfact> 0.17748310E+02</totfact>
</mgrwt>
<rwgt>
<wgt id='morphing_basis_vector_1'> +1.7235948e-04 </wgt>
<wgt id='morphing_basis_vector_2'> +1.0881088e-04 </wgt>
<wgt id='morphing_basis_vector_3'> +1.6192567e-04 </wgt>
<wgt id='morphing_basis_vector_4'> +9.3804824e-05 </wgt>
<wgt id='morphing_basis_vector_5'> +1.5027329e-04 </wgt>
</rwgt>
</event>
<event>
 4      1 +1.4786900e-06 9.55637800e+02 7.81860800e-03 8.72784100e-02
        2 -1    0    0  501    0 +0.0000000000e+00 +0.0000000000e+00 +1.7983368329e+03 1.7983368329e+03 0.0000000000e+00 0.0000e+00 1.0000e+00
       -2 -1    0    0    0  501 -0.0000000000e+00 -0.0000000000e+00 -1.2695668905e+02 1.2695668905e+02 0.0000000000e+00 0.0000e+00 -1.0000e+00
      -13  1    1    2    0    0 +1.3231794029e+02 -4.3707731991e+02 +5.5244263204e+02 7.1675482740e+02 0.0000000000e+00 0.0000e+00 -1.0000e+00
       13  1    1    2    0    0 -1.3231794029e+02 +4.3707731991e+02 +1.1189375118e+03 1.2085386946e+03 0.0000000000e+00 0.0000e+00 1.0000e+00
<mgrwt>
<rscale>  0 0.95563778E+03</rscale>
<asrwt>0</asrwt>
<pdfrwt beam="1">  1        2 0.27666719E+00 0.95563778E+03</pdfrwt>
<pdfrwt beam="2">  1       -2 0.19531800E-01 0.95563778E+03</pdfrwt>
<totfact> 0.22440203E+02</totfact>
</mgrwt>
<rwgt>
<wgt id='morphing_basis_vector_1'> +1.9944216e-04 </wgt>
<wgt id='morphing_basis_vector_2'> +1.2924181e-04 </wgt>
<wgt id='morphing_basis_vector_3'> +1.8940291e-04 </wgt>
<wgt id='morphing_basis_vector_4'> +1.0930595e-04 </wgt>
<wgt id='morphing_basis_vector_5'> +1.7783060e-04 </wgt>
</rwgt>
</event>
<event>
 4      1 +1.4786900e-06 9.44959900e+02 7.81860800e-03 8.73865800e-02
        2 -1    0    0  501    0 +0.0000000000e+00 +0.0000000000e+00 +3.4282524686e+02 3.4282524686e+02 0.0000000000e+00 0.0000e+00 1.0000e+00
       -2 -1    0    0    0  501 -0.0000000000e+00 -0.0000000000e+00 -6.5116942414e+02 6.5116942414e+02 0.0000000000e+00 0.0000e+00 -1.0000e+00
      -13  1    1    2    0    0 +1.3002542106e+02 -2.3501001339e+02 +2.5471588204e+02 3.7015739501e+02 0.0000000000e+00 0.0000e+00 1.0000e+00
       13  1    1    2    0    0 -1.3002542106e+02 +2.3501001339e+02 -5.6306005932e+02 6.2383727599e+02 0.0000000000e+00 0.0000e+00 -1.0000e+00
<mgrwt>
<rscale>  0 0.94495993E+03</rscale>
<asrwt>0</asrwt>
<pdfrwt beam="1">  1        2 0.52742346E-01 0.94495993E+03</pdfrwt>
<pdfrwt beam="2">  1       -2 0.10017991E+00 0.94495993E+03</pdfrwt>
<totfact> 0.96048407E+01</totfact>
</mgrwt>
<rwgt>
<wgt id='morphing_basis_vector_1'> +2.5295808e-04 </wgt>
<wgt id='morphing_basis_vector_2'> +3.1074990e-04 </wgt>
<wgt id='morphing_basis_vector_3'> +2.3377116e-04 </wgt>
<wgt id='morphing_basis_vector_4'> +1.2910780e-05 </wgt>
<wgt id='morphing_basis_vector_5'> +1.6416365e-04 </wgt>
</rwgt>
</event>
<event>
 4      1 +1.4786900e-06 1.05536700e+03 7.81860800e-03 8.63342000e-02
        2 -1    0    0  501    0 +0.0000000000e+00 +0.0000000000e+00 +9.1006642790e+02 9.1006642790e+02 0.0000000000e+00 0.0000e+00 1.0000e+00
       -2 -1    0    0    0  501 -0.0000000000e+00 -0.0000000000e+00 -3.0596634616e+02 3.0596634616e+02 0.0000000000e+00 0.0000e+00 -1.0000e+00
      -13  1    1    2    0    0 +3.5049998347e+02 -2.9804169376e+02 +4.3118263763e+00 4.6010616327e+02 0.0000000000e+00 0.0000e+00 -1.0000e+00
       13  1    1    2    0    0 -3.5049998347e+02 +2.9804169376e+02 +5.9978825536e+02 7.5592661079e+02 0.0000000000e+00 0.0000e+00 1.0000e+00
<mgrwt>
<rscale>  0 0.10553667E+04</rscale>
<asrwt>0</asrwt>
<pdfrwt beam="1">  1        2 0.14001022E+00 0.10553667E+04</pdfrwt>
<pdfrwt beam="2">  1       -2 0.47071746E-01 0.10553667E+04</pdfrwt>
<totfact> 0.15137471E+02</totfact>
</mgrwt>
<rwgt>
<wgt id='morphing_basis_vector_1'> +2.8594411e-04 </wgt>
<wgt id='morphing_basis_vector_2'> +1.8325498e-04 </wgt>
<wgt id='morphing_basis_vector_3'> +2.7883471e-04 </wgt>
<wgt id='morphing_basis_vector_4'> +1.7080358e-04 </wgt>
<wgt id='morphing_basis_vector_5'> +2.7378150e-04 </wgt>
</rwgt>
</event>
<event>
 4      1 +1.4786900e-06 9.95307900e+02 7.81860800e-03 8.68890900e-02
        2 -1    0    0  501    0 +0.0000000000e+00 +0.0000000000e+00 +3.7326761664e+02 3.7326761664e+02 0.0000000000e+00 0.0000e+00 -1.0000e+00
       -2 -1    0    0    0  501 -0.0000000000e+00 -0.0000000000e+00 -6.6349038315e+02 6.6349038315e+02 0.0000000000e+00 0.0000e+00 1.0000e+00
      -13  1    1    2    0    0 +3.3000662992e+02 -3.5286138049e+02 -2.6942968260e+02 5.5317979311e+02 0.0000000000e+00 0.0000e+00 1.0000e+00
       13  1    1    2    0    0 -3.3000662992e+02 +3.5286138049e+02 -2.0793083904e+01 4.8357820668e+02 0.0000000000e+00 0.0000e+00 -1.0000e+00
<mgrwt>
<rscale>  0 0.99530794E+03</rscale>
<asrwt>0</asrwt>
<pdfrwt beam="1">  1        2 0.57425788E-01 0.99530794E+03</pdfrwt>
<pdfrwt beam="2">  1       -2 0.10207544E+00 0.99530794E+03</pdfrwt>
<totfact> 0.83102745E+01</totfact>
</mgrwt>
<rwgt>
<wgt id='morphing_basis_vector_1'> +2.3232044e-04 </wgt>
<wgt id='morphing_basis_vector_2'> +1.5300794e-04 </wgt>
<wgt id='morphing_basis_vector_3'> +2.2313757e-04 </wgt>
<wgt id='morphing_basis_vector_4'> +1.2933207e-04 </wgt>
<wgt id='morphing_basis_vector_5'> +2.1228800e-04 </wgt>
</rwgt>
</event>
<event>
 4      1 +1.4786900e-06 9.51573000e+02 7.81860800e-03 8.73194200e-02
        2 -1    0    0  501    0 +0.0000000000e+00 +0.0000000000e+00 +4.2755128086e+02 4.2755128086e+02 0.0000000000e+00 0.0000e+00 1.0000e+00
       -2 -1    0    0    0  501 -0.0000000000e+00 -0.0000000000e+00 -5.2946354580e+02 5.2946354580e+02 0.0000000000e+00 0.0000e+00 -1.0000e+00
      -13  1    1    2    0    0 -3.4170697894e+02 +3.1399895819e+02 -1.5650300318e+02 4.8974707269e+02 0.0000000000e+00 0.0000e+00 -1.0000e+00
       13  1    1    2    0    0 +3.4170697894e+02 -3.1399895819e+02 +5.4590738245e+01 4.6726775397e+02 0.0000000000e+00 0.0000e+00 1.0000e+00
<mgrwt>
<rscale>  0 0.95157305E+03</rscale>
<asrwt>0</asrwt>
<pdfrwt beam="1">  1        2 0.65777120E-01 0.95157305E+03</pdfrwt>
<pdfrwt beam="2">  1       -2 0.81455930E-01 0.95157305E+03</pdfrwt>
<totfact> 0.12135352E+02</totfact>
</mgrwt>
<rwgt>
<wgt id='morphing_basis_vector_1'> +1.9713376e-04 </wgt>
<wgt id='morphing_basis_vector_2'> +1.2954109e-04 </wgt>
<wgt id='morphing_basis_vector_3'> +1.8691213e-04 </wgt>
<wgt id='morphing_basis_vector_4'> +1.0613032e-04 </wgt>
<wgt id='morphing_basis_vector_5'> +1.7447541e-04 </wgt>
</rwgt>
</event>
<event>
 4      1 +1.4786900e-06 9.03137300e+02 7.81860800e-03 8.78251200e-02
        2 -1    0    0  501    0 +0.0000000000e+00 +0.0000000000e+00 +1.4741600003e+03 1.4741600003e+03 0.0000000000e+00 0.0000e+00 1.0000e+00
       -2 -1    0    0    0  501 -0.0000000000e+00 -0.0000000000e+00 -1.3832571451e+02 1.3832571451e+02 0.0000000000e+00 0.0000e+00 -1.0000e+00
      -13  1    1    2    0    0 +2.7839093163e+02 +2.9020790865e+02 +1.0346566096e+03 1.1100614581e+03 0.0000000000e+00 0.0000e+00 -1.0000e+00
       13  1    1    2    0    0 -2.7839093163e+02 -2.9020790865e+02 +3.0117767619e+02 5.0242425667e+02 0.0000000000e+00 0.0000e+00 1.0000e+00
<mgrwt>
<rscale>  0 0.90313728E+03</rscale>
<asrwt>0</asrwt>
<pdfrwt beam="1">  1        2 0.22679383E+00 0.90313728E+03</pdfrwt>
<pdfrwt beam="2">  1       -2 0.21280880E-01 0.90313728E+03</pdfrwt>
<totfact> 0.29462910E+02</totfact>
</mgrwt>
<rwgt>
<wgt id='morphing_basis_vector_1'> +1.8589826e-04 </wgt>
<wgt id='morphing_basis_vector_2'> +1.7618214e-04 </wgt>
<wgt id='morphing_basis_vector_3'> +1.7014604e-04 </wgt>
<wgt id='morphing_basis_vector_4'> +5.1699874e-05 </wgt>
<wgt id='morphing_basis_vector_5'> +1.3687817e-04 </wgt>
</rwgt>
</event>
<event>
 4      1 +1.4786900e-06 9.60612100e+02 7.81860800e-03 8.72285200e-02
        2 -1    0    0  501    0 +0.0000000000e+00 +0.0000000000e+00 +9.6367022728e+02 9.6367022728e+02 0.0000000000e+00 0.0000e+00 -1.0000e+00
       -2 -1    0    0    0  501 -0.0000000000e+00 -0.0000000000e+00 -2.3939092608e+02 2.3939092608e+02 0.0000000000e+00 0.0000e+00 1.0000e+00
      -13  1    1    2    0    0 -3.3023961016e+02 -1.5103030133e+01 -7.4238094174e+01 3.3881793970e+02 0.0000000000e+00 0.0000e+00 1.0000e+00
       13  1    1    2    0    0 +3.3023961016e+02 +1.5103030133e+01 +7.9851739538e+02 8.6424321366e+02 0.0000000000e+00 0.0000e+00 -1.0000e+00
<mgrwt>
<rscale>  0 0.96061211E+03</rscale>
<asrwt>0</asrwt>
<pdfrwt beam="1">  1        2 0.14825696E+00 0.96061211E+03</pdfrwt>
<pdfrwt beam="2">  1       -2 0.36829374E-01 0.96061211E+03</pdfrwt>
<totfact> 0.22327305E+02</totfact>
</mgrwt>
<rwgt>
<wgt id='morphing_basis_vector_1'> +2.0119198e-04 </wgt>
<wgt id='morphing_basis_vector_2'> +1.2549551e-04 </wgt>
<wgt id='morphing_basis_vector_3'> +1.9150644e-04 </wgt>
<wgt id='morphing_basis_vector_4'> +1.1492943e-04 </wgt>
<wgt id='morphing_basis_vector_5'> +1.8209587e-04 </wgt>
</rwgt>
</event>
<event>
 4      1 +1.4786900e-06 9.56260300e+02 7.81860800e-03 8.72721500e-02
        2 -1    0    0  501    0 +0.0000000000e+00 +0.0000000000e+00 +4.7900193981e+02 4.7900193981e+02 0.0000000000e+00 0.0000e+00 1.0000e+00
       -2 -1    0    0    0  501 -0.0000000000e+00 -0.0000000000e+00 -4.7725995897e+02 4.7725995897e+02 0.0000000000e+00 0.0000e+00 -1.0000e+00
      -13  1    1    2    0    0 -1.8288317552e+02 -3.5594961129e+02 -2.6078200816e+02 4.7765430747e+02 0.0000000000e+00 0.0000e+00 -1.0000e+00
       13  1    1    2    0    0 +1.8288317552e+02 +3.5594961129e+02 +2.6252398900e+02 4.7860759132e+02 0.0000000000e+00 0.0000e+00 1.0000e+00
<mgrwt>
<rscale>  0 0.95626031E+03</rscale>
<asrwt>0</asrwt>
<pdfrwt beam="1">  1        2 0.73692606E-01 0.95626031E+03</pdfrwt>
<pdfrwt beam="2">  1       -2 0.73424609E-01 0.95626031E+03</pdfrwt>
<totfact> 0.13444299E+02</totfact>
</mgrwt>
<rwgt>
<wgt id='morphing_basis_vector_1'> +1.9833211e-04 </wgt>
<wgt id='morphing_basis_vector_2'> +1.2474696e-04 </wgt>
<wgt id='morphing_basis_vector_3'> +1.8850980e-04 </wgt>
<wgt id='morphing_basis_vector_4'> +1.1198827e-04 </wgt>
<wgt id='morphing_basis_vector_5'> +1.7847335e-04 </wgt>
</rwgt>
</event>
<event>
 4      1 +1.4786900e-06 9.42586900e+02 7.81860800e-03 8.74108300e-02
        2 -1    0    0  501    0 +0.0000000000e+00 +0.0000000000e+00 +3.9876043982e+02 3.9876043982e+02 0.0000000000e+00 0.0000e+00 -1.0000e+00
       -2 -1    0    0    0  501 -0.0000000000e+00 -0.0000000000e+00 -5.5701998652e+02 5.5701998652e+02 0.0000000000e+00 0.0000e+00 1.0000e+00
      -13  1    1    2    0    0 +1.4877945655e+02 +2.8009499033e+02 -4.3261940873e+02 5.3642155355e+02 0.0000000000e+00 0.0000e+00 1.0000e+00
       13  1    1    2    0    0 -1.4877945655e+02 -2.8009499033e+02 +2.7435986202e+02 4.1935887279e+02 0.0000000000e+00 0.0000e+00 -1.0000e+00
<mgrwt>
<rscale>  0 0.94258694E+03</rscale>
<asrwt>0</asrwt>
<pdfrwt beam="1">  1        2 0.61347760E-01 0.94258694E+03</pdfrwt>
<pdfrwt beam="2">  1       -2 0.85695382E-01 0.94258694E+03</pdfrwt>
<totfact> 0.11695965E+02</totfact>
</mgrwt>
<rwgt>
<wgt id='morphing_basis_vector_1'> +1.8767310e-04 </wgt>
<wgt id='morphing_basis_vector_2'> +1.1666605e-04 </wgt>
<wgt id='morphing_basis_vector_3'> +1.7769483e-04 </wgt>
<wgt id='morphing_basis_vector_4'> +1.0586907e-04 </wgt>
<wgt id='morphing_basis_vector_5'> +1.6759086e-04 </wgt>
</rwgt>
</event>
<event>
 4      1 +1.4786900e-06 9.37488600e+02 7.81860800e-03 8.74631600e-02
        2 -1    0    0  501    0 +0.0000000000e+00 +0.0000000000e+00 +2.0813640397e+03 2.0813640397e+03 0.0000000000e+00 0.0000e+00 -1.0000e+00
       -2 -1    0    0    0  501 -0.0000000000e+00 -0.0000000000e+00 -1.0556597717e+02 1.0556597717e+02 0.0000000000e+00 0.0000e+00 1.0000e+00
      -13  1    1    2    0    0 -4.2036492310e+02 +1.8040869200e+02 +7.4923582621e+02 8.7784297457e+02 0.0000000000e+00 0.0000e+00 1.0000e+00
       13  1    1    2    0    0 +4.2036492310e+02 -1.8040869200e+02 +1.2265622363e+03 1.3090870423e+03 0.0000000000e+00 0.0000e+00 -1.0000e+00
<mgrwt>
<rscale>  0 0.93748862E+03</rscale>
<asrwt>0</asrwt>
<pdfrwt beam="1">  1        2 0.32020982E+00 0.93748862E+03</pdfrwt>
<pdfrwt beam="2">  1       -2 0.16240921E-01 0.93748862E+03</pdfrwt>
<totfact> 0.21229792E+02</totfact>
</mgrwt>
<rwgt>
<wgt id='morphing_basis_vector_1'> +1.8668297e-04 </wgt>
<wgt id='morphing_basis_vector_2'> +1.2246797e-04 </wgt>
<wgt id='morphing_basis_vector_3'> +1.7620921e-04 </wgt>
<wgt id='morphing_basis_vector_4'> +9.9425870e-05 </wgt>
<wgt id='morphing_basis_vector_5'> +1.6342419e-04 </wgt>
</rwgt>
</event>
<event>
 4      1 +1.4786900e-06 1.00953600e+03 7.81860800e-03 8.67540300e-02
        2 -1    0    0  501    0 +0.0000000000e+00 +0.0000000000e+00 +3.7660842689e+02 3.7660842689e+02 0.0000000000e+00 0.0000e+00 -1.0000e+00
       -2 -1    0    0    0  501 -0.0000000000e+00 -0.0000000000e+00 -6.7653961480e+02 6.7653961480e+02 0.0000000000e+00 0.0000e+00 1.0000e+00
      -13  1    1    2    0    0 +8.2886625792e+00 +4.2173017099e+02 -4.3918902304e+02 6.0894337750e+02 0.0000000000e+00 0.0000e+00 1.0000e+00
       13  1    1    2    0    0 -8.2886625792e+00 -4.2173017099e+02 +1.3925783513e+02 4.4420466419e+02 0.0000000000e+00 0.0000e+00 -1.0000e+00
<mgrwt>
<rscale>  0 0.10095356E+04</rscale>
<asrwt>0</asrwt>
<pdfrwt beam="1">  1        2 0.57939759E-01 0.10095356E+04</pdfrwt>
<pdfrwt beam="2">  1       -2 0.10408302E+00 0.10095356E+04</pdfrwt>
<totfact> 0.78365522E+01</totfact>
</mgrwt>
<rwgt>
<wgt id='morphing_basis_vector_1'> +2.4218374e-04 </wgt>
<wgt id='morphing_basis_vector_2'> +1.5353282e-04 </wgt>
<wgt id='morphing_basis_vector_3'> +2.3356995e-04 </wgt>
<wgt id='morphing_basis_vector_4'> +1.4161863e-04 </wgt>
<wgt id='morphing_basis_vector_5'> +2.2602462e-04 </wgt>
</rwgt>
</event>
<event>
 4      1 +1.4786900e-06 9.93378100e+02 7.81860800e-03 8.69075900e-02
        2 -1    0    0  501    0 +0.0000000000e+00 +0.0000000000e+00 +2.6717874042e+03 2.6717874042e+03 0.0000000000e+00 0.0000e+00 -1.0000e+00
       -2 -1    0    0    0  501 -0.0000000000e+00 -0.0000000000e+00 -9.2335187874e+01 9.2335187874e+01 0.0000000000e+00 0.0000e+00 1.0000e+00
      -13  1    1    2    0    0 +3.4154248356e+02 -2.4864147742e+02 +5.6292072311e+02 7.0381360663e+02 0.0000000000e+00 0.0000e+00 1.0000e+00
       13  1    1    2    0    0 -3.4154248356e+02 +2.4864147742e+02 +2.0165314932e+03 2.0603089854e+03 0.0000000000e+00 0.0000e+00 -1.0000e+00
<mgrwt>
<rscale>  0 0.99337806E+03</rscale>
<asrwt>0</asrwt>
<pdfrwt beam="1">  1        2 0.41104416E+00 0.99337806E+03</pdfrwt>
<pdfrwt beam="2">  1       -2 0.14205416E-01 0.99337806E+03</pdfrwt>
<totfact> 0.11945185E+02</totfact>
</mgrwt>
<rwgt>
<wgt id='morphing_basis_vector_1'> +2.2826848e-04 </wgt>
<wgt id='morphing_basis_vector_2'> +1.4462661e-04 </wgt>
<wgt id='morphing_basis_vector_3'> +2.1922175e-04 </wgt>
<wgt id='morphing_basis_vector_4'> +1.3193222e-04 </wgt>
<wgt id='morphing_basis_vector_5'> +2.1072260e-04 </wgt>
</rwgt>
</event>
<event>
 4      1 +1.4786900e-06 1.03351300e+03 7.81860800e-03 8.65315800e-02
        2 -1    0    0  501    0 +0.0000000000e+00 +0.0000000000e+00 +4.8455004273e+02 4.8455004273e+02 0.0000000000e+00 0.0000e+00 -1.0000e+00
       -2 -1    0    0    0  501 -0.0000000000e+00 -0.0000000000e+00 -5.5110318061e+02 5.5110318061e+02 0.0000000000e+00 0.0000e+00 1.0000e+00
      -13  1    1    2    0    0 -1.7554381660e+02 +4.0467930324e+02 -3.0301080002e+02 5.3516027034e+02 0.0000000000e+00 0.0000e+00 1.0000e+00
       13  1    1    2    0    0 +1.7554381660e+02 -4.0467930324e+02 +2.3645766214e+02 5.0049295300e+02 0.0000000000e+00 0.0000e+00 -1.0000e+00
<mgrwt>
<rscale>  0 0.10335126E+04</rscale>
<asrwt>0</asrwt>
<pdfrwt beam="1">  1        2 0.74546160E-01 0.10335126E+04</pdfrwt>
<pdfrwt beam="2">  1       -2 0.84785105E-01 0.10335126E+04</pdfrwt>
<totfact> 0.95560491E+01</totfact>
</mgrwt>
<rwgt>
<wgt id='morphing_basis_vector_1'> +2.6435094e-04 </wgt>
<wgt id='morphing_basis_vector_2'> +1.6849598e-04 </wgt>
<wgt id='morphing_basis_vector_3'> +2.5646314e-04 </wgt>
<wgt id='morphing_basis_vector_4'> +1.5643376e-04 </wgt>
<wgt id='morphing_basis_vector_5'> +2.5017713e-04 </wgt>
</rwgt>
</event>
<event>
 4      1 +1.4786900e-06 9.21139700e+02 7.81860800e-03 8.76333700e-02
        2 -1    0    0  501    0 +0.0000000000e+00 +0.0000000000e+00 +2.7458421685e+02 2.7458421685e+02 0.0000000000e+00 0.0000e+00 1.0000e+00
       -2 -1    0    0    0  501 -0.0000000000e+00 -0.0000000000e+00 -7.7253022060e+02 7.7253022060e+02 0.0000000000e+00 0.0000e+00 -1.0000e+00
      -13  1    1    2    0    0 +1.9484274353e+02 +2.8529446748e+02 -5.9520537521e+02 6.8820495970e+02 0.0000000000e+00 0.0000e+00 -1.0000e+00
       13  1    1    2    0    0 -1.9484274353e+02 -2.8529446748e+02 +9.7259371455e+01 3.5890947774e+02 0.0000000000e+00 0.0000e+00 1.0000e+00
<mgrwt>
<rscale>  0 0.92113974E+03</rscale>
<asrwt>0</asrwt>
<pdfrwt beam="1">  1        2 0.42243726E-01 0.92113974E+03</pdfrwt>
<pdfrwt beam="2">  1       -2 0.11885080E+00 0.92113974E+03</pdfrwt>
<totfact> 0.80553364E+01</totfact>
</mgrwt>
<rwgt>
<wgt id='morphing_basis_vector_1'> +1.7266867e-04 </wgt>
<wgt id='morphing_basis_vector_2'> +1.0725742e-04 </wgt>
<wgt id='morphing_basis_vector_3'> +1.6238687e-04 </wgt>
<wgt id='morphing_basis_vector_4'> +9.5559320e-05 </wgt>
<wgt id='morphing_basis_vector_5'> +1.5143697e-04 </wgt>
</rwgt>
</event>
<event>
 4      1 +1.4786900e-06 9.50252100e+02 7.81860800e-03 8.73327900e-02
        2 -1    0    0  501    0 +0.0000000000e+00 +0.0000000000e+00 +1.8960501326e+03 1.8960501326e+03 0.0000000000e+00 0.0000e+00 1.0000e+00
       -2 -1    0    0    0  501 -0.0000000000e+00 -0.0000000000e+00 -1.1906055132e+02 1.1906055132e+02 0.0000000000e+00 0.0000e+00 -1.0000e+00
      -13  1    1    2    0    0 -5.3495148265e+00 +4.0834104441e+02 +1.4034736762e+03 1.4616803295e+03 0.0000000000e+00 0.0000e+00 1.0000e+00
       13  1    1    2    0    0 +5.3495148265e+00 -4.0834104441e+02 +3.7351590508e+02 5.5343035443e+02 0.0000000000e+00 0.0000e+00 -1.0000e+00
<mgrwt>
<rscale>  0 0.95025212E+03</rscale>
<asrwt>0</asrwt>
<pdfrwt beam="1">  1        2 0.29170000E+00 0.95025212E+03</pdfrwt>
<pdfrwt beam="2">  1       -2 0.18317009E-01 0.95025212E+03</pdfrwt>
<totfact> 0.22059296E+02</totfact>
</mgrwt>
<rwgt>
<wgt id='morphing_basis_vector_1'> +2.2904909e-04 </wgt>
<wgt id='morphing_basis_vector_2'> +2.2877624e-04 </wgt>
<wgt id='morphing_basis_vector_3'> +2.1426694e-04 </wgt>
<wgt id='morphing_basis_vector_4'> +5.6523769e-05 </wgt>
<wgt id='morphing_basis_vector_5'> +1.7064858e-04 </wgt>
</rwgt>
</event>
<event>
 4      1 +1.4786900e-06 9.88888700e+02 7.81860800e-03 8.69507900e-02
        2 -1    0    0  501    0 +0.0000000000e+00 +0.0000000000e+00 +1.7336370264e+02 1.7336370264e+02 0.0000000000e+00 0.0000e+00 1.0000e+00
       -2 -1    0    0    0  501 -0.0000000000e+00 -0.0000000000e+00 -1.4101868370e+03 1.4101868370e+03 0.0000000000e+00 0.0000e+00 -1.0000e+00
      -13  1    1    2    0    0 -3.1563477126e+02 +5.2970376965e+01 -1.2219376285e+03 1.2631558643e+03 0.0000000000e+00 0.0000e+00 -1.0000e+00
       13  1    1    2    0    0 +3.1563477126e+02 -5.2970376965e+01 -1.4885505823e+01 3.2039467528e+02 0.0000000000e+00 0.0000e+00 1.0000e+00
<mgrwt>
<rscale>  0 0.98888869E+03</rscale>
<asrwt>0</asrwt>
<pdfrwt beam="1">  1        2 0.26671339E-01 0.98888869E+03</pdfrwt>
<pdfrwt beam="2">  1       -2 0.21695182E+00 0.98888869E+03</pdfrwt>
<totfact> 0.22485607E+01</totfact>
</mgrwt>
<rwgt>
<wgt id='morphing_basis_vector_1'> +2.2379953e-04 </wgt>
<wgt id='morphing_basis_vector_2'> +1.4005973e-04 </wgt>
<wgt id='morphing_basis_vector_3'> +2.1470172e-04 </wgt>
<wgt id='morphing_basis_vector_4'> +1.3042452e-04 </wgt>
<wgt id='morphing_basis_vector_5'> +2.0667339e-04 </wgt>
</rwgt>
</event>
<event>
 4      1 +1.4786900e-06 1.06628500e+03 7.81860800e-03 8.62374300e-02
        2 -1    0    0  501    0 +0.0000000000e+00 +0.0000000000e+00 +1.6923688836e+03 1.6923688836e+03 0.0000000000e+00 0.0000e+00 1.0000e+00
       -2 -1    0    0    0  501 -0.0000000000e+00 -0.0000000000e+00 -1.6795449027e+02 1.6795449027e+02 0.0000000000e+00 0.0000e+00 -1.0000e+00
      -13  1    1    2    0    0 -2.2835540906e+02 +1.6289650839e+02 -2.8806284491e+01 2.8197742342e+02 0.0000000000e+00 0.0000e+00 -1.0000e+00
       13  1    1    2    0    0 +2.2835540906e+02 -1.6289650839e+02 +1.5532206778e+03 1.5783459505e+03 0.0000000000e+00 0.0000e+00 1.0000e+00
<mgrwt>
<rscale>  0 0.10662851E+04</rscale>
<asrwt>0</asrwt>
<pdfrwt beam="1">  1        2 0.26036443E+00 0.10662851E+04</pdfrwt>
<pdfrwt beam="2">  1       -2 0.25839154E-01 0.10662851E+04</pdfrwt>
<totfact> 0.15845757E+02</totfact>
</mgrwt>
<rwgt>
<wgt id='morphing_basis_vector_1'> +2.9584007e-04 </wgt>
<wgt id='morphing_basis_vector_2'> +1.8679855e-04 </wgt>
<wgt id='morphing_basis_vector_3'> +2.8915442e-04 </wgt>
<wgt id='morphing_basis_vector_4'> +1.8056735e-04 </wgt>
<wgt id='morphing_basis_vector_5'> +2.8630626e-04 </wgt>
</rwgt>
</event>
<event>
 4      1 +1.4786900e-06 1.05659500e+03 7.81860800e-03 8.63232500e-02
        2 -1    0    0  501    0 +0.0000000000e+00 +0.0000000000e+00 +1.0090323047e+03 1.0090323047e+03 0.0000000000e+00 0.0000e+00 1.0000e+00
       -2 -1    0    0    0  501 -0.0000000000e+00 -0.0000000000e+00 -2.7659985659e+02 2.7659985659e+02 0.0000000000e+00 0.0000e+00 -1.0000e+00
      -13  1    1    2    0    0 +5.1707782748e+02 -7.9687473995e+01 +2.7697951292e+02 5.9197738450e+02 0.0000000000e+00 0.0000e+00 -1.0000e+00
       13  1    1    2    0    0 -5.1707782748e+02 +7.9687473995e+01 +4.5545293520e+02 6.9365477679e+02 0.0000000000e+00 0.0000e+00 1.0000e+00
<mgrwt>
<rscale>  0 0.10565949E+04</rscale>
<asrwt>0</asrwt>
<pdfrwt beam="1">  1        2 0.15523574E+00 0.10565949E+04</pdfrwt>
<pdfrwt beam="2">  1       -2 0.42553825E-01 0.10565949E+04</pdfrwt>
<totfact> 0.15885949E+02</totfact>
</mgrwt>
<rwgt>
<wgt id='morphing_basis_vector_1'> +2.9198739e-04 </wgt>
<wgt id='morphing_basis_vector_2'> +1.9858187e-04 </wgt>
<wgt id='morphing_basis_vector_3'> +2.8490931e-04 </wgt>
<wgt id='morphing_basis_vector_4'> +1.6396626e-04 </wgt>
<wgt id='morphing_basis_vector_5'> +2.7467550e-04 </wgt>
</rwgt>
</event>
<event>
 4      1 +1.4786900e-06 1.01507600e+03 7.81860800e-03 8.67020600e-02
        2 -1    0    0  501    0 +0.0000000000e+00 +0.0000000000e+00 +6.1649486782e+02 6.1649486782e+02 0.0000000000e+00 0.0000e+00 1.0000e+00
       -2 -1    0    0    0  501 -0.0000000000e+00 -0.0000000000e+00 -4.1783755689e+02 4.1783755689e+02 0.0000000000e+00 0.0000e+00 -1.0000e+00
      -13  1    1    2    0    0 +3.9155842654e+02 -3.1454849800e+02 +2.4895305211e+01 5.0287029660e+02 0.0000000000e+00 0.0000e+00 -1.0000e+00
       13  1    1    2    0    0 -3.9155842654e+02 +3.1454849800e+02 +1.7376200572e+02 5.3146212811e+02 0.0000000000e+00 0.0000e+00 1.0000e+00
<mgrwt>
<rscale>  0 0.10150758E+04</rscale>
<asrwt>0</asrwt>
<pdfrwt beam="1">  1        2 0.94845364E-01 0.10150758E+04</pdfrwt>
<pdfrwt beam="2">  1       -2 0.64282701E-01 0.10150758E+04</pdfrwt>
<totfact> 0.13269557E+02</totfact>
</mgrwt>
<rwgt>
<wgt id='morphing_basis_vector_1'> +2.5147934e-04 </wgt>
<wgt id='morphing_basis_vector_2'> +1.6992522e-04 </wgt>
<wgt id='morphing_basis_vector_3'> +2.4279933e-04 </wgt>
<wgt id='morphing_basis_vector_4'> +1.3822689e-04 </wgt>
<wgt id='morphing_basis_vector_5'> +2.3104109e-04 </wgt>
</rwgt>
</event>
<event>
 4      1 +1.4786900e-06 9.95236800e+02 7.81860800e-03 8.68897700e-02
        2 -1    0    0  501    0 +0.0000000000e+00 +0.0000000000e+00 +1.1169318508e+02 1.1169318508e+02 0.0000000000e+00 0.0000e+00 1.0000e+00
       -2 -1    0    0    0  501 -0.0000000000e+00 -0.0000000000e+00 -2.2170023503e+03 2.2170023503e+03 0.0000000000e+00 0.0000e+00 -1.0000e+00
      -13  1    1    2    0    0 -3.0872547253e+02 -3.2445445864e+02 -1.5601462495e+03 1.6231569341e+03 0.0000000000e+00 0.0000e+00 -1.0000e+00
       13  1    1    2    0    0 +3.0872547253e+02 +3.2445445864e+02 -5.4516291573e+02 7.0553860122e+02 0.0000000000e+00 0.0000e+00 1.0000e+00
<mgrwt>
<rscale>  0 0.99523676E+03</rscale>
<asrwt>0</asrwt>
<pdfrwt beam="1">  1        2 0.17183567E-01 0.99523676E+03</pdfrwt>
<pdfrwt beam="2">  1       -2 0.34107729E+00 0.99523676E+03</pdfrwt>
<totfact> 0.54516358E+00</totfact>
</mgrwt>
<rwgt>
<wgt id='morphing_basis_vector_1'> +2.3035985e-04 </wgt>
<wgt id='morphing_basis_vector_2'> +1.4721378e-04 </wgt>
<wgt id='morphing_basis_vector_3'> +2.2132040e-04 </wgt>
<wgt id='morphing_basis_vector_4'> +1.3221608e-04 </wgt>
<wgt id='morphing_basis_vector_5'> +2.1239543e-04 </wgt>
</rwgt>
</event>
<event>
 4      1 +1.4786900e-06 9.13853300e+02 7.81860800e-03 8.77104200e-02
        2 -1    0    0  501    0 +0.0000000000e+00 +0.0000000000e+00 +1.9198286089e+03 1.9198286089e+03 0.0000000000e+00 0.0000e+00 -1.0000e+00
       -2 -1    0    0    0  501 -0.0000000000e+00 -0.0000000000e+00 -1.0875031705e+02 1.0875031705e+02 0.0000000000e+00 0.0000e+00 1.0000e+00
      -13  1    1    2    0    0 -1.5478321678e+02 -3.9225906757e+02 +5.1497308780e+02 6.6559920481e+02 0.0000000000e+00 0.0000e+00 1.0000e+00
       13  1    1    2    0    0 +1.5478321678e+02 +3.9225906757e+02 +1.2961052040e+03 1.3629797211e+03 0.0000000000e+00 0.0000e+00 -1.0000e+00
<mgrwt>
<rscale>  0 0.91385331E+03</rscale>
<asrwt>0</asrwt>
<pdfrwt beam="1">  1        2 0.29535822E+00 0.91385331E+03</pdfrwt>
<pdfrwt beam="2">  1       -2 0.16730819E-01 0.91385331E+03</pdfrwt>
<totfact> 0.24913257E+02</totfact>
</mgrwt>
<rwgt>
<wgt id='morphing_basis_vector_1'> +1.6874459e-04 </wgt>
<wgt id='morphing_basis_vector_2'> +1.0710575e-04 </wgt>
<wgt id='morphing_basis_vector_3'> +1.5819105e-04 </wgt>
<wgt id='morphing_basis_vector_4'> +9.0853350e-05 </wgt>
<wgt id='morphing_basis_vector_5'> +1.4614212e-04 </wgt>
</rwgt>
</event>
<event>
 4      1 +1.4786900e-06 9.00839300e+02 7.81860800e-03 8.78499300e-02
        2 -1    0    0  501    0 +0.0000000000e+00 +0.0000000000e+00 +1.5071207564e+03 1.5071207564e+03 0.0000000000e+00 0.0000e+00 -1.0000e+00
       -2 -1    0    0    0  501 -0.0000000000e+00 -0.0000000000e+00 -1.3461286505e+02 1.3461286505e+02 0.0000000000e+00 0.0000e+00 1.0000e+00
      -13  1    1    2    0    0 +2.9994967932e+02 -5.1486662705e+01 +8.1109876741e+01 3.1495951909e+02 0.0000000000e+00 0.0000e+00 1.0000e+00
       13  1    1    2    0    0 -2.9994967932e+02 +5.1486662705e+01 +1.2913980146e+03 1.3267741024e+03 0.0000000000e+00 0.0000e+00 -1.0000e+00
<mgrwt>
<rscale>  0 0.90083926E+03</rscale>
<asrwt>0</asrwt>
<pdfrwt beam="1">  1        2 0.23186472E+00 0.90083926E+03</pdfrwt>
<pdfrwt beam="2">  1       -2 0.20709673E-01 0.90083926E+03</pdfrwt>
<totfact> 0.29571525E+02</totfact>
</mgrwt>
<rwgt>
<wgt id='morphing_basis_vector_1'> +1.5910538e-04 </wgt>
<wgt id='morphing_basis_vector_2'> +9.8191207e-05 </wgt>
<wgt id='morphing_basis_vector_3'> +1.4864886e-04 </wgt>
<wgt id='morphing_basis_vector_4'> +8.6831790e-05 </wgt>
<wgt id='morphing_basis_vector_5'> +1.3723684e-04 </wgt>
</rwgt>
</event>
<event>
 4      1 +1.4786900e-06 9.74404000e+02 7.81860800e-03 8.70918300e-02
        2 -1    0    0  501    0 +0.0000000000e+00 +0.0000000000e+00 +2.2175014765e+03 2.2175014765e+03 0.0000000000e+00 0.0000e+00 1.0000e+00
       -2 -1    0    0    0  501 -0.0000000000e+00 -0.0000000000e+00 -1.0704200485e+02 1.0704200485e+02 0.0000000000e+00 0.0000e+00 -1.0000e+00
      -13  1    1    2    0    0 +2.0200263744e+02 +4.3371456554e+02 +8.3590431041e+02 9.6314557885e+02 0.0000000000e+00 0.0000e+00 1.0000e+00
       13  1    1    2    0    0 -2.0200263744e+02 -4.3371456554e+02 +1.2745551612e+03 1.3613979025e+03 0.0000000000e+00 0.0000e+00 -1.0000e+00
<mgrwt>
<rscale>  0 0.97440403E+03</rscale>
<asrwt>0</asrwt>
<pdfrwt beam="1">  1        2 0.34115404E+00 0.97440403E+03</pdfrwt>
<pdfrwt beam="2">  1       -2 0.16468002E-01 0.97440403E+03</pdfrwt>
<totfact> 0.17343013E+02</totfact>
</mgrwt>
<rwgt>
<wgt id='morphing_basis_vector_1'> +2.1551990e-04 </wgt>
<wgt id='morphing_basis_vector_2'> +1.4315769e-04 </wgt>
<wgt id='morphing_basis_vector_3'> +2.0573531e-04 </wgt>
<wgt id='morphing_basis_vector_4'> +1.1695060e-04 </wgt>
<wgt id='morphing_basis_vector_5'> +1.9348911e-04 </wgt>
</rwgt>
</event>
<event>
 4      1 +1.4786900e-06 9.98612100e+02 7.81860800e-03 8.68575100e-02
        2 -1    0    0  501    0 +0.0000000000e+00 +0.0000000000e+00 +1.2480102771e+03 1.2480102771e+03 0.0000000000e+00 0.0000e+00 -1.0000e+00
       -2 -1    0    0    0  501 -0.0000000000e+00 -0.0000000000e+00 -1.9976320950e+02 1.9976320950e+02 0.0000000000e+00 0.0000e+00 1.0000e+00
      -13  1    1    2    0    0 -9.9119673482e+01 +3.9173654610e+02 +9.8902850585e+01 4.1600962137e+02 0.0000000000e+00 0.0000e+00 1.0000e+00
       13  1    1    2    0    0 +9.9119673482e+01 -3.9173654610e+02 +9.4934421707e+02 1.0317638653e+03 0.0000000000e+00 0.0000e+00 -1.0000e+00
<mgrwt>
<rscale>  0 0.99861211E+03</rscale>
<asrwt>0</asrwt>
<pdfrwt beam="1">  1        2 0.19200158E+00 0.99861211E+03</pdfrwt>
<pdfrwt beam="2">  1       -2 0.30732802E-01 0.99861211E+03</pdfrwt>
<totfact> 0.20841065E+02</totfact>
</mgrwt>
<rwgt>
<wgt id='morphing_basis_vector_1'> +2.3248029e-04 </wgt>
<wgt id='morphing_basis_vector_2'> +1.4678107e-04 </wgt>
<wgt id='morphing_basis_vector_3'> +2.2358479e-04 </wgt>
<wgt id='morphing_basis_vector_4'> +1.3536439e-04 </wgt>
<wgt id='morphing_basis_vector_5'> +2.1561467e-04 </wgt>
</rwgt>
</event>
<event>
 4      1 +1.4786900e-06 1.00546000e+03 7.81860800e-03 8.67924800e-02
        2 -1    0    0  501    0 +0.0000000000e+00 +0.0000000000e+00 +6.2836144132e+02 6.2836144132e+02 0.0000000000e+00 0.0000e+00 -1.0000e+00
       -2 -1    0    0    0  501 -0.0000000000e+00 -0.0000000000e+00 -4.0221693932e+02 4.0221693932e+02 0.0000000000e+00 0.0000e+00 1.0000e+00
      -13  1    1    2    0    0 -4.0648640304e+02 +1.3834536893e+02 -1.5493051974e+02 4.5648012324e+02 0.0000000000e+00 0.0000e+00 1.0000e+00
       13  1    1    2    0    0 +4.0648640304e+02 -1.3834536893e+02 +3.8107502173e+02 5.7409825740e+02 0.0000000000e+00 0.0000e+00 -1.0000e+00
<mgrwt>
<rscale>  0 0.10054603E+04</rscale>
<asrwt>0</asrwt>
<pdfrwt beam="1">  1        2 0.96670990E-01 0.10054603E+04</pdfrwt>
<pdfrwt beam="2">  1       -2 0.61879530E-01 0.10054603E+04</pdfrwt>
<totfact> 0.14047557E+02</totfact>
</mgrwt>
<rwgt>
<wgt id='morphing_basis_vector_1'> +2.3872538e-04 </wgt>
<wgt id='morphing_basis_vector_2'> +1.5158497e-04 </wgt>
<wgt id='morphing_basis_vector_3'> +2.2999066e-04 </wgt>
<wgt id='morphing_basis_vector_4'> +1.3895509e-04 </wgt>
<wgt id='morphing_basis_vector_5'> +2.2208069e-04 </wgt>
</rwgt>
</event>
<event>
 4      1 +1.4786900e-06 9.57512600e+02 7.81860800e-03 8.72595700e-02
        2 -1    0    0  501    0 +0.0000000000e+00 +0.0000000000e+00 +4.7503576808e+02 4.7503576808e+02 0.0000000000e+00 0.0000e+00 1.0000e+00
       -2 -1    0    0    0  501 -0.0000000000e+00 -0.0000000000e+00 -4.8250597032e+02 4.8250597032e+02 0.0000000000e+00 0.0000e+00 -1.0000e+00
      -13  1    1    2    0    0 -3.7227865347e+02 -2.4607838258e+01 +2.9629178314e+02 4.7643022814e+02 0.0000000000e+00 0.0000e+00 1.0000e+00
       13  1    1    2    0    0 +3.7227865347e+02 +2.4607838258e+01 -3.0376198539e+02 4.8111151025e+02 0.0000000000e+00 0.0000e+00 -1.0000e+00
<mgrwt>
<rscale>  0 0.95751260E+03</rscale>
<asrwt>0</asrwt>
<pdfrwt beam="1">  1        2 0.73082426E-01 0.95751260E+03</pdfrwt>
<pdfrwt beam="2">  1       -2 0.74231688E-01 0.95751260E+03</pdfrwt>
<totfact> 0.13250880E+02</totfact>
</mgrwt>
<rwgt>
<wgt id='morphing_basis_vector_1'> +2.4750674e-04 </wgt>
<wgt id='morphing_basis_vector_2'> +2.7168969e-04 </wgt>
<wgt id='morphing_basis_vector_3'> +2.3156201e-04 </wgt>
<wgt id='morphing_basis_vector_4'> +4.0470469e-05 </wgt>
<wgt id='morphing_basis_vector_5'> +1.7538524e-04 </wgt>
</rwgt>
</event>
<event>
 4      1 +1.4786900e-06 9.70274400e+02 7.81860800e-03 8.71325100e-02
        2 -1    0    0  501    0 +0.0000000000e+00 +0.0000000000e+00 +9.8870380719e+02 9.8870380719e+02 0.0000000000e+00 0.0000e+00 -1.0000e+00
       -2 -1    0    0    0  501 -0.0000000000e+00 -0.0000000000e+00 -2.3804712620e+02 2.3804712620e+02 0.0000000000e+00 0.0000e+00 1.0000e+00
      -13  1    1    2    0    0 -3.0501052445e+01 +2.4262028114e+02 -1.5443091395e+02 2.8921241710e+02 0.0000000000e+00 0.0000e+00 1.0000e+00
       13  1    1    2    0    0 +3.0501052445e+01 -2.4262028114e+02 +9.0508759494e+02 9.3753851629e+02 0.0000000000e+00 0.0000e+00 -1.0000e+00
<mgrwt>
<rscale>  0 0.97027439E+03</rscale>
<asrwt>0</asrwt>
<pdfrwt beam="1">  1        2 0.15210828E+00 0.97027439E+03</pdfrwt>
<pdfrwt beam="2">  1       -2 0.36622635E-01 0.97027439E+03</pdfrwt>
<totfact> 0.21743711E+02</totfact>
</mgrwt>
<rwgt>
<wgt id='morphing_basis_vector_1'> +2.0856502e-04 </wgt>
<wgt id='morphing_basis_vector_2'> +1.2989871e-04 </wgt>
<wgt id='morphing_basis_vector_3'> +1.9907984e-04 </wgt>
<wgt id='morphing_basis_vector_4'> +1.2028027e-04 </wgt>
<wgt id='morphing_basis_vector_5'> +1.9025236e-04 </wgt>
</rwgt>
</event>
<event>
 4      1 +1.4786900e-06 9.09880200e+02 7.81860800e-03 8.77527500e-02
        2 -1    0    0  501    0 +0.0000000000e+00 +0.0000000000e+00 +7.2288940189e+02 7.2288940189e+02 0.0000000000e+00 0.0000e+00 -1.0000e+00
       -2 -1    0    0    0  501 -0.0000000000e+00 -0.0000000000e+00 -2.8631004452e+02 2.8631004452e+02 0.0000000000e+00 0.0000e+00 1.0000e+00
      -13  1    1    2    0    0 +2.0029977560e+02 -1.9080983083e+02 -1.8230178123e+02 3.3130398592e+02 0.0000000000e+00 0.0000e+00 1.0000e+00
       13  1    1    2    0    0 -2.0029977560e+02 +1.9080983083e+02 +6.1888113860e+02 6.7789546049e+02 0.0000000000e+00 0.0000e+00 -1.0000e+00
<mgrwt>
<rscale>  0 0.90988020E+03</rscale>
<asrwt>0</asrwt>
<pdfrwt beam="1">  1        2 0.11121375E+00 0.90988020E+03</pdfrwt>
<pdfrwt beam="2">  1       -2 0.44047699E-01 0.90988020E+03</pdfrwt>
<totfact> 0.23374563E+02</totfact>
</mgrwt>
<rwgt>
<wgt id='morphing_basis_vector_1'> +1.6492302e-04 </wgt>
<wgt id='morphing_basis_vector_2'> +1.0179811e-04 </wgt>
<wgt id='morphing_basis_vector_3'> +1.5455909e-04 </wgt>
<wgt id='morphing_basis_vector_4'> +9.0811348e-05 </wgt>
<wgt id='morphing_basis_vector_5'> +1.4344476e-04 </wgt>
</rwgt>
</event>
<event>
 4      1 +1.4786900e-06 9.57907700e+02 7.81860800e-03 8.72556100e-02
        2 -1    0    0  501    0 +0.0000000000e+00 +0.0000000000e+00 +4.6734125218e+02 4.6734125218e+02 0.0000000000e+00 0.0000e+00 -1.0000e+00
       -2 -1    0    0    0  501 -0.0000000000e+00 -0.0000000000e+00 -4.9085500022e+02 4.9085500022e+02 0.0000000000e+00 0.0000e+00 1.0000e+00
      -13  1    1    2    0    0 -2.5897139837e+02 -1.6661863731e+02 -3.7870362770e+02 4.8810285095e+02 0.0000000000e+00 0.0000e+00 1.0000e+00
       13  1    1    2    0    0 +2.5897139837e+02 +1.6661863731e+02 +3.5518987966e+02 4.7009340145e+02 0.0000000000e+00 0.0000e+00 -1.0000e+00
<mgrwt>
<rscale>  0 0.95790770E+03</rscale>
<asrwt>0</asrwt>
<pdfrwt beam="1">  1        2 0.71898654E-01 0.95790770E+03</pdfrwt>
<pdfrwt beam="2">  1       -2 0.75516155E-01 0.95790770E+03</pdfrwt>
<totfact> 0.12998967E+02</totfact>
</mgrwt>
<rwgt>
<wgt id='morphing_basis_vector_1'> +1.9905992e-04 </wgt>
<wgt id='morphing_basis_vector_2'> +1.2396556e-04 </wgt>
<wgt id='morphing_basis_vector_3'> +1.8933404e-04 </wgt>
<wgt id='morphing_basis_vector_4'> +1.1362083e-04 </wgt>
<wgt id='morphing_basis_vector_5'> +1.7986835e-04 </wgt>
</rwgt>
</event>
<event>
 4      1 +1.4786900e-06 9.03391500e+02 7.81860800e-03 8.78223800e-02
        2 -1    0    0  501    0 +0.0000000000e+00 +0.0000000000e+00 +8.5254170367e+02 8.5254170367e+02 0.0000000000e+00 0.0000e+00 1.0000e+00
       -2 -1    0    0    0  501 -0.0000000000e+00 -0.0000000000e+00 -2.3931857632e+02 2.3931857632e+02 0.0000000000e+00 0.0000e+00 -1.0000e+00
      -13  1    1    2    0    0 +2.2768489202e+02 +3.8444195935e+02 +2.2650401142e+02 5.0093921522e+02 0.0000000000e+00 0.0000e+00 1.0000e+00
       13  1    1    2    0    0 -2.2768489202e+02 -3.8444195935e+02 +3.8671911592e+02 5.9092106476e+02 0.0000000000e+00 0.0000e+00 -1.0000e+00
<mgrwt>
<rscale>  0 0.90339154E+03</rscale>
<asrwt>0</asrwt>
<pdfrwt beam="1">  1        2 0.13116026E+00 0.90339154E+03</pdfrwt>
<pdfrwt beam="2">  1       -2 0.36818243E-01 0.90339154E+03</pdfrwt>
<totfact> 0.26471919E+02</totfact>
</mgrwt>
<rwgt>
<wgt id='morphing_basis_vector_1'> +1.6390594e-04 </wgt>
<wgt id='morphing_basis_vector_2'> +1.0886023e-04 </wgt>
<wgt id='morphing_basis_vector_3'> +1.5280919e-04 </wgt>
<wgt id='morphing_basis_vector_4'> +8.3412453e-05 </wgt>
<wgt id='morphing_basis_vector_5'> +1.3872866e-04 </wgt>
</rwgt>
</event>
<event>
 4      1 +1.4786900e-06 9.45817100e+02 7.81860800e-03 8.73778500e-02
        2 -1    0    0  501    0 +0.0000000000e+00 +0.0000000000e+00 +1.7102366654e+03 1.7102366654e+03 0.0000000000e+00 0.0000e+00 -1.0000e+00
       -2 -1    0    0    0  501 -0.0000000000e+00 -0.0000000000e+00 -1.3076698639e+02 1.3076698639e+02 0.0000000000e+00 0.0000e+00 1.0000e+00
      -13  1    1    2    0    0 +7.9291895747e+01 +4.5546287428e+02 +5.9597697454e+02 7.5426930785e+02 0.0000000000e+00 0.0000e+00 1.0000e+00
       13  1    1    2    0    0 -7.9291895747e+01 -4.5546287428e+02 +9.8349270444e+02 1.0867343439e+03 0.0000000000e+00 0.0000e+00 -1.0000e+00
<mgrwt>
<rscale>  0 0.94581710E+03</rscale>
<asrwt>0</asrwt>
<pdfrwt beam="1">  1        2 0.26311332E+00 0.94581710E+03</pdfrwt>
<pdfrwt beam="2">  1       -2 0.20117999E-01 0.94581710E+03</pdfrwt>
<totfact> 0.23901872E+02</totfact>
</mgrwt>
<rwgt>
<wgt id='morphing_basis_vector_1'> +1.9291941e-04 </wgt>
<wgt id='morphing_basis_vector_2'> +1.2694709e-04 </wgt>
<wgt id='morphing_basis_vector_3'> +1.8257450e-04 </wgt>
<wgt id='morphing_basis_vector_4'> +1.0318873e-04 </wgt>
<wgt id='morphing_basis_vector_5'> +1.6988623e-04 </wgt>
</rwgt>
</event>
<event>
 4      1 +1.4786900e-06 1.04331700e+03 7.81860800e-03 8.64424100e-02
        2 -1    0    0  501    0 +0.0000000000e+00 +0.0000000000e+00 +2.5204636994e+03 2.5204636994e+03 0.0000000000e+00 0.0000e+00 -1.0000e+00
       -2 -1    0    0    0  501 -0.0000000000e+00 -0.0000000000e+00 -1.0796717260e+02 1.0796717260e+02 0.0000000000e+00 0.0000e+00 1.0000e+00
      -13  1    1    2    0    0 +5.4240391153e+00 -5.0833551456e+02 +1.5010490041e+03 1.5847973146e+03 0.0000000000e+00 0.0000e+00 1.0000e+00
       13  1    1    2    0    0 -5.4240391153e+00 +5.0833551456e+02 +9.1144752273e+02 1.0436335575e+03 0.0000000000e+00 0.0000e+00 -1.0000e+00
<mgrwt>
<rscale>  0 0.10433165E+04</rscale>
<asrwt>0</asrwt>
<pdfrwt beam="1">  1        2 0.38776360E+00 0.10433165E+04</pdfrwt>
<pdfrwt beam="2">  1       -2 0.16610336E-01 0.10433165E+04</pdfrwt>
<totfact> 0.11352981E+02</totfact>
</mgrwt>
<rwgt>
<wgt id='morphing_basis_vector_1'> +2.9398125e-04 </wgt>
<wgt id='morphing_basis_vector_2'> +2.3575668e-04 </wgt>
<wgt id='morphing_basis_vector_3'> +2.8606095e-04 </wgt>
<wgt id='morphing_basis_vector_4'> +1.3082221e-04 </wgt>
<wgt id='morphing_basis_vector_5'> +2.5859901e-04 </wgt>
</rwgt>
</event>
<event>
 4      1 +1.4786900e-06 9.19472200e+02 7.81860800e-03 8.76509300e-02
        2 -1    0    0  501    0 +0.0000000000e+00 +0.0000000000e+00 +1.1110175003e+02 1.1110175003e+02 0.0000000000e+00 0.0000e+00 -1.0000e+00
       -2 -1    0    0    0  501 -0.0000000000e+00 -0.0000000000e+00 -1.9023759836e+03 1.9023759836e+03 0.0000000000e+00 0.0000e+00 1.0000e+00
      -13  1    1    2    0    0 -1.0033553790e+02 -4.2049738360e+02 -1.2382022970e+03 1.3114992178e+03 0.0000000000e+00 0.0000e+00 1.0000e+00
       13  1    1    2    0    0 +1.0033553790e+02 +4.2049738360e+02 -5.5307193656e+02 7.0197851591e+02 0.0000000000e+00 0.0000e+00 -1.0000e+00
<mgrwt>
<rscale>  0 0.91947224E+03</rscale>
<asrwt>0</asrwt>
<pdfrwt beam="1">  1        2 0.17092576E-01 0.91947224E+03</pdfrwt>
<pdfrwt beam="2">  1       -2 0.29267324E+00 0.91947224E+03</pdfrwt>
<totfact> 0.11596350E+01</totfact>
</mgrwt>
<rwgt>
<wgt id='morphing_basis_vector_1'> +1.7284588e-04 </wgt>
<wgt id='morphing_basis_vector_2'> +1.1051482e-04 </wgt>
<wgt id='morphing_basis_vector_3'> +1.6230361e-04 </wgt>
<wgt id='morphing_basis_vector_4'> +9.2901696e-05 </wgt>
<wgt id='morphing_basis_vector_5'> +1.5012786e-04 </wgt>
</rwgt>
</event>
<event>
 4      1 +1.4786900e-06 9.64424900e+02 7.81860800e-03 8.71905000e-02
        2 -1    0    0  501    0 +0.0000000000e+00 +0.0000000000e+00 +4.2266737542e+02 4.2266737542e+02 0.0000000000e+00 0.0000e+00 -1.0000e+00
       -2 -1    0    0    0  501 -0.0000000000e+00 -0.0000000000e+00 -5.5014618729e+02 5.5014618729e+02 0.0000000000e+00 0.0000e+00 1.0000e+00
      -13  1    1    2    0    0 -4.7717327964e+02 +5.8293138405e+01 -2.5509664164e+01 4.8139710401e+02 0.0000000000e+00 0.0000e+00 1.0000e+00
       13  1    1    2    0    0 +4.7717327964e+02 -5.8293138405e+01 -1.0196914771e+02 4.9141645869e+02 0.0000000000e+00 0.0000e+00 -1.0000e+00
<mgrwt>
<rscale>  0 0.96442490E+03</rscale>
<asrwt>0</asrwt>
<pdfrwt beam="1">  1        2 0.65025750E-01 0.96442490E+03</pdfrwt>
<pdfrwt beam="2">  1       -2 0.84637875E-01 0.96442490E+03</pdfrwt>
<totfact> 0.11253722E+02</totfact>
</mgrwt>
<rwgt>
<wgt id='morphing_basis_vector_1'> +2.1355974e-04 </wgt>
<wgt id='morphing_basis_vector_2'> +1.5598331e-04 </wgt>
<wgt id='morphing_basis_vector_3'> +2.0283513e-04 </wgt>
<wgt id='morphing_basis_vector_4'> +1.0275145e-04 </wgt>
<wgt id='morphing_basis_vector_5'> +1.8446359e-04 </wgt>
</rwgt>
</event>
<event>
 4      1 +1.4786900e-06 1.05715700e+03 7.81860800e-03 8.63182400e-02
        2 -1    0    0  501    0 +0.0000000000e+00 +0.0000000000e+00 +6.7313466634e+02 6.7313466634e+02 0.0000000000e+00 0.0000e+00 -1.0000e+00
       -2 -1    0    0    0  501 -0.0000000000e+00 -0.0000000000e+00 -4.1506625723e+02 4.1506625723e+02 0.0000000000e+00 0.0000e+00 1.0000e+00
      -13  1    1    2    0    0 +1.5756444111e+02 +2.2621405525e+02 -3.3520386232e+02 4.3400573868e+02 0.0000000000e+00 0.0000e+00 1.0000e+00
       13  1    1    2    0    0 -1.5756444111e+02 -2.2621405525e+02 +5.9327227142e+02 6.5419518489e+02 0.0000000000e+00 0.0000e+00 -1.0000e+00
<mgrwt>
<rscale>  0 0.10571575E+04</rscale>
<asrwt>0</asrwt>
<pdfrwt beam="1">  1        2 0.10355918E+00 0.10571575E+04</pdfrwt>
<pdfrwt beam="2">  1       -2 0.63856347E-01 0.10571575E+04</pdfrwt>
<totfact> 0.12074997E+02</totfact>
</mgrwt>
<rwgt>
<wgt id='morphing_basis_vector_1'> +2.8650776e-04 </wgt>
<wgt id='morphing_basis_vector_2'> +1.8068882e-04 </wgt>
<wgt id='morphing_basis_vector_3'> +2.7947084e-04 </wgt>
<wgt id='morphing_basis_vector_4'> +1.7404742e-04 </wgt>
<wgt id='morphing_basis_vector_5'> +2.7591184e-04 </wgt>
</rwgt>
</event>
<event>
 4      1 +1.4786900e-06 9.33993100e+02 7.81860800e-03 8.74992500e-02
        2 -1    0    0  501    0 +0.0000000000e+00 +0.0000000000e+00 +6.7602032351e+02 6.7602032351e+02 0.0000000000e+00 0.0000e+00 1.0000e+00
       -2 -1    0    0    0  501 -0.0000000000e+00 -0.0000000000e+00 -3.2260242911e+02 3.2260242911e+02 0.0000000000e+00 0.0000e+00 -1.0000e+00
      -13  1    1    2    0    0 -2.4144535236e+02 -3.3145367975e+02 -6.2199544342e+01 4.1476039265e+02 0.0000000000e+00 0.0000e+00 1.0000e+00
       13  1    1    2    0    0 +2.4144535236e+02 +3.3145367975e+02 +4.1561743875e+02 5.8386235997e+02 0.0000000000e+00 0.0000e+00 -1.0000e+00
<mgrwt>
<rscale>  0 0.93399314E+03</rscale>
<asrwt>0</asrwt>
<pdfrwt beam="1">  1        2 0.10400313E+00 0.93399314E+03</pdfrwt>
<pdfrwt beam="2">  1       -2 0.49631143E-01 0.93399314E+03</pdfrwt>
<totfact> 0.20130737E+02</totfact>
</mgrwt>
<rwgt>
<wgt id='morphing_basis_vector_1'> +1.8220899e-04 </wgt>
<wgt id='morphing_basis_vector_2'> +1.1484132e-04 </wgt>
<wgt id='morphing_basis_vector_3'> +1.7199324e-04 </wgt>
<wgt id='morphing_basis_vector_4'> +1.0066968e-04 </wgt>
<wgt id='morphing_basis_vector_5'> +1.6092079e-04 </wgt>
</rwgt>
</event>
<event>
 4      1 +1.4786900e-06 1.05953400e+03 7.81860800e-03 8.62971200e-02
        2 -1    0    0  501    0 +0.0000000000e+00 +0.0000000000e+00 +5.9622425437e+02 5.9622425437e+02 0.0000000000e+00 0.0000e+00 -1.0000e+00
       -2 -1    0    0    0  501 -0.0000000000e+00 -0.0000000000e+00 -4.7071744461e+02 4.7071744461e+02 0.0000000000e+00 0.0000e+00 1.0000e+00
      -13  1    1    2    0    0 -2.8064826435e+02 +1.9800265036e+02 -3.4340835148e+02 4.8569310650e+02 0.0000000000e+00 0.0000e+00 1.0000e+00
       13  1    1    2    0    0 +2.8064826435e+02 -1.9800265036e+02 +4.6891516124e+02 5.8124859249e+02 0.0000000000e+00 0.0000e+00 -1.0000e+00
<mgrwt>
<rscale>  0 0.10595342E+04</rscale>
<asrwt>0</asrwt>
<pdfrwt beam="1">  1        2 0.91726808E-01 0.10595342E+04</pdfrwt>
<pdfrwt beam="2">  1       -2 0.72418069E-01 0.10595342E+04</pdfrwt>
<totfact> 0.10684237E+02</totfact>
</mgrwt>
<rwgt>
<wgt id='morphing_basis_vector_1'> +2.8905323e-04 </wgt>
<wgt id='morphing_basis_vector_2'> +1.8268031e-04 </wgt>
<wgt id='morphing_basis_vector_3'> +2.8210591e-04 </wgt>
<wgt id='morphing_basis_vector_4'> +1.7550743e-04 </wgt>
<wgt id='morphing_basis_vector_5'> +2.7857750e-04 </wgt>
</rwgt>
</event>
<event>
 4      1 +1.4786900e-06 1.03857100e+03 7.81860800e-03 8.64854400e-02
        2 -1    0    0  501    0 +0.0000000000e+00 +0.0000000000e+00 +1.4865911468e+03 1.4865911468e+03 0.0000000000e+00 0.0000e+00 1.0000e+00
       -2 -1    0    0    0  501 -0.0000000000e+00 -0.0000000000e+00 -1.8139322827e+02 1.8139322827e+02 0.0000000000e+00 0.0000e+00 -1.0000e+00
      -13  1    1    2    0    0 -2.2422311520e+02 +2.7321982507e+02 +4.1602502427e+01 3.5588740693e+02 0.0000000000e+00 0.0000e+00 -1.0000e+00
       13  1    1    2    0    0 +2.2422311520e+02 -2.7321982507e+02 +1.2635954161e+03 1.3120969682e+03 0.0000000000e+00 0.0000e+00 1.0000e+00
<mgrwt>
<rscale>  0 0.10385713E+04</rscale>
<asrwt>0</asrwt>
<pdfrwt beam="1">  1        2 0.22870632E+00 0.10385713E+04</pdfrwt>
<pdfrwt beam="2">  1       -2 0.27906651E-01 0.10385713E+04</pdfrwt>
<totfact> 0.18061609E+02</totfact>
</mgrwt>
<rwgt>
<wgt id='morphing_basis_vector_1'> +2.6839706e-04 </wgt>
<wgt id='morphing_basis_vector_2'> +1.6930003e-04 </wgt>
<wgt id='morphing_basis_vector_3'> +2.6069886e-04 </wgt>
<wgt id='morphing_basis_vector_4'> +1.6100370e-04 </wgt>
<wgt id='morphing_basis_vector_5'> +2.5558468e-04 </wgt>
</rwgt>
</event>
<event>
 4      1 +1.4786900e-06 9.43840600e+02 7.81860800e-03 8.73980100e-02
        2 -1    0    0  501    0 +0.0000000000e+00 +0.0000000000e+00 +2.4335726421e+03 2.4335726421e+03 0.0000000000e+00 0.0000e+00 -1.0000e+00
       -2 -1    0    0    0  501 -0.0000000000e+00 -0.0000000000e+00 -9.1515147346e+01 9.1515147346e+01 0.0000000000e+00 0.0000e+00 1.0000e+00
      -13  1    1    2    0    0 -3.0343804659e+02 -3.0244980659e+02 +6.4162216398e+02 7.7151120208e+02 0.0000000000e+00 0.0000e+00 1.0000e+00
       13  1    1    2    0    0 +3.0343804659e+02 +3.0244980659e+02 +1.7004353308e+03 1.7535765874e+03 0.0000000000e+00 0.0000e+00 -1.0000e+00
<mgrwt>
<rscale>  0 0.94384058E+03</rscale>
<asrwt>0</asrwt>
<pdfrwt beam="1">  1        2 0.37439574E+00 0.94384058E+03</pdfrwt>
<pdfrwt beam="2">  1       -2 0.14079255E-01 0.94384058E+03</pdfrwt>
<totfact> 0.16857271E+02</totfact>
</mgrwt>
<rwgt>
<wgt id='morphing_basis_vector_1'> +1.8964495e-04 </wgt>
<wgt id='morphing_basis_vector_2'> +1.2046783e-04 </wgt>
<wgt id='morphing_basis_vector_3'> +1.7953001e-04 </wgt>
<wgt id='morphing_basis_vector_4'> +1.0492056e-04 </wgt>
<wgt id='morphing_basis_vector_5'> +1.6848390e-04 </wgt>
</rwgt>
</event>
<event>
 4      1 +1.4786900e-06 9.89388300e+02 7.81860800e-03 8.69459700e-02
        2 -1    0    0  501    0 +0.0000000000e+00 +0.0000000000e+00 +1.4236115952e+03 1.4236115952e+03 0.0000000000e+00 0.0000e+00 -1.0000e+00
       -2 -1    0    0    0  501 -0.0000000000e+00 -0.0000000000e+00 -1.7190243770e+02 1.7190243770e+02 0.0000000000e+00 0.0000e+00 1.0000e+00
      -13  1    1    2    0    0 -3.3690811462e+02 +3.2198046173e+02 +8.9349139114e+02 1.0077228595e+03 0.0000000000e+00 0.0000e+00 1.0000e+00
       13  1    1    2    0    0 +3.3690811462e+02 -3.2198046173e+02 +3.5821776633e+02 5.8779117342e+02 0.0000000000e+00 0.0000e+00 -1.0000e+00
<mgrwt>
<rscale>  0 0.98938830E+03</rscale>
<asrwt>0</asrwt>
<pdfrwt beam="1">  1        2 0.21901716E+00 0.98938830E+03</pdfrwt>
<pdfrwt beam="2">  1       -2 0.26446530E-01 0.98938830E+03</pdfrwt>
<totfact> 0.21579746E+02</totfact>
</mgrwt>
<rwgt>
<wgt id='morphing_basis_vector_1'> +2.4900213e-04 </wgt>
<wgt id='morphing_basis_vector_2'> +2.1541961e-04 </wgt>
<wgt id='morphing_basis_vector_3'> +2.3783077e-04 </wgt>
<wgt id='morphing_basis_vector_4'> +9.2711522e-05 </wgt>
<wgt id='morphing_basis_vector_5'> +2.0488748e-04 </wgt>
</rwgt>
</event>
<event>
 4      1 +1.4786900e-06 1.06952900e+03 7.81860800e-03 8.62089000e-02
        2 -1    0    0  501    0 +0.0000000000e+00 +0.0000000000e+00 +1.7928187123e+03 1.7928187123e+03 0.0000000000e+00 0.0000e+00 -1.0000e+00
       -2 -1    0    0    0  501 -0.0000000000e+00 -0.0000000000e+00 -1.5951044918e+02 1.5951044918e+02 0.0000000000e+00 0.0000e+00 1.0000e+00
      -13  1    1    2    0    0 +4.7833778467e+02 -1.1010524570e+02 +4.2924085025e+02 6.5205667614e+02 0.0000000000e+00 0.0000e+00 1.0000e+00
       13  1    1    2    0    0 -4.7833778467e+02 +1.1010524570e+02 +1.2040674129e+03 1.3002724853e+03 0.0000000000e+00 0.0000e+00 -1.0000e+00
<mgrwt>
<rscale>  0 0.10695295E+04</rscale>
<asrwt>0</asrwt>
<pdfrwt beam="1">  1        2 0.27581825E+00 0.10695295E+04</pdfrwt>
<pdfrwt beam="2">  1       -2 0.24540070E-01 0.10695295E+04</pdfrwt>
<totfact> 0.15236381E+02</totfact>
</mgrwt>
<rwgt>
<wgt id='morphing_basis_vector_1'> +3.0130811e-04 </wgt>
<wgt id='morphing_basis_vector_2'> +1.9533239e-04 </wgt>
<wgt id='morphing_basis_vector_3'> +2.9477454e-04 </wgt>
<wgt id='morphing_basis_vector_4'> +1.7954697e-04 </wgt>
<wgt id='morphing_basis_vector_5'> +2.8985604e-04 </wgt>
</rwgt>
</event>
<event>
 4      1 +1.4786900e-06 1.03558600e+03 7.81860800e-03 8.65126400e-02
        2 -1    0    0  501    0 +0.0000000000e+00 +0.0000000000e+00 +1.5251191643e+03 1.5251191643e+03 0.0000000000e+00 0.0000e+00 -1.0000e+00
       -2 -1    0    0    0  501 -0.0000000000e+00 -0.0000000000e+00 -1.7579569389e+02 1.7579569389e+02 0.0000000000e+00 0.0000e+00 1.0000e+00
      -13  1    1    2    0    0 +1.1613256834e+02 -2.8577688489e+02 -8.4033790091e+00 3.0858680812e+02 0.0000000000e+00 0.0000e+00 1.0000e+00
       13  1    1    2    0    0 -1.1613256834e+02 +2.8577688489e+02 +1.3577268494e+03 1.3923280501e+03 0.0000000000e+00 0.0000e+00 -1.0000e+00
<mgrwt>
<rscale>  0 0.10355856E+04</rscale>
<asrwt>0</asrwt>
<pdfrwt beam="1">  1        2 0.23463371E+00 0.10355856E+04</pdfrwt>
<pdfrwt beam="2">  1       -2 0.27045492E-01 0.10355856E+04</pdfrwt>
<totfact> 0.18161253E+02</totfact>
</mgrwt>
<rwgt>
<wgt id='morphing_basis_vector_1'> +2.6541688e-04 </wgt>
<wgt id='morphing_basis_vector_2'> +1.6705442e-04 </wgt>
<wgt id='morphing_basis_vector_3'> +2.5762308e-04 </wgt>
<wgt id='morphing_basis_vector_4'> +1.5922281e-04 </wgt>
<wgt id='morphing_basis_vector_5'> +2.5243977e-04 </wgt>
</rwgt>
</event>
<event>
 4      1 +1.4786900e-06 9.05009300e+02 7.81860800e-03 8.78049600e-02
        2 -1    0    0  501    0 +0.0000000000e+00 +0.0000000000e+00 +2.9606096947e+03 2.9606096947e+03 0.0000000000e+00 0.0000e+00 -1.0000e+00
       -2 -1    0    0    0  501 -0.0000000000e+00 -0.0000000000e+00 -6.9161587729e+01 6.9161587729e+01 0.0000000000e+00 0.0000e+00 1.0000e+00
      -13  1    1    2    0    0 +3.7210810563e+02 +2.2796471636e+02 +1.0449945747e+03 1.1324513302e+03 0.0000000000e+00 0.0000e+00 1.0000e+00
       13  1    1    2    0    0 -3.7210810563e+02 -2.2796471636e+02 +1.8464535323e+03 1.8973199522e+03 0.0000000000e+00 0.0000e+00 -1.0000e+00
<mgrwt>
<rscale>  0 0.90500932E+03</rscale>
<asrwt>0</asrwt>
<pdfrwt beam="1">  1        2 0.45547832E+00 0.90500932E+03</pdfrwt>
<pdfrwt beam="2">  1       -2 0.10640247E-01 0.90500932E+03</pdfrwt>
<totfact> 0.12670241E+02</totfact>
</mgrwt>
<rwgt>
<wgt id='morphing_basis_vector_1'> +1.6372785e-04 </wgt>
<wgt id='morphing_basis_vector_2'> +1.0580420e-04 </wgt>
<wgt id='morphing_basis_vector_3'> +1.5290722e-04 </wgt>
<wgt id='morphing_basis_vector_4'> +8.5851238e-05 </wgt>
<wgt id='morphing_basis_vector_5'> +1.3992638e-04 </wgt>
</rwgt>
</event>
<event>
 4      1 +1.4786900e-06 9.96781800e+02 7.81860800e-03 8.68749900e-02
        2 -1    0    0  501    0 +0.0000000000e+00 +0.0000000000e+00 +3.5721380429e+02 3.5721380429e+02 0.0000000000e+00 0.0000e+00 1.0000e+00
       -2 -1    0    0    0  501 -0.0000000000e+00 -0.0000000000e+00 -6.9536364092e+02 6.9536364092e+02 0.0000000000e+00 0.0000e+00 -1.0000e+00
      -13  1    1    2    0    0 +2.2216855975e+02 +3.0902816897e+02 -5.0885670576e+02 6.3544663439e+02 0.0000000000e+00 0.0000e+00 -1.0000e+00
       13  1    1    2    0    0 -2.2216855975e+02 -3.0902816897e+02 +1.7070686914e+02 4.1713081082e+02 0.0000000000e+00 0.0000e+00 1.0000e+00
<mgrwt>
<rscale>  0 0.99678180E+03</rscale>
<asrwt>0</asrwt>
<pdfrwt beam="1">  1        2 0.54955971E-01 0.99678180E+03</pdfrwt>
<pdfrwt beam="2">  1       -2 0.10697902E+00 0.99678180E+03</pdfrwt>
<totfact> 0.77806864E+01</totfact>
</mgrwt>
<rwgt>
<wgt id='morphing_basis_vector_1'> +2.3071932e-04 </wgt>
<wgt id='morphing_basis_vector_2'> +1.4517293e-04 </wgt>
<wgt id='morphing_basis_vector_3'> +2.2179163e-04 </wgt>
<wgt id='morphing_basis_vector_4'> +1.3459043e-04 </wgt>
<wgt id='morphing_basis_vector_5'> +2.1392034e-04 </wgt>
</rwgt>
</event>
<event>
 4      1 +1.4786900e-06 9.65930700e+02 7.81860800e-03 8.71755300e-02
        2 -1    0    0  501    0 +0.0000000000e+00 +0.0000000000e+00 +7.5834626526e+02 7.5834626526e+02 0.0000000000e+00 0.0000e+00 1.0000e+00
       -2 -1    0    0    0  501 -0.0000000000e+00 -0.0000000000e+00 -3.0758444818e+02 3.0758444818e+02 0.0000000000e+00 0.0000e+00 -1.0000e+00
      -13  1    1    2    0    0 -1.0445032436e+02 -4.4207991876e+02 +4.4352023400e+01 4.5641168566e+02 0.0000000000e+00 0.0000e+00 -1.0000e+00
       13  1    1    2    0    0 +1.0445032436e+02 +4.4207991876e+02 +4.0640979368e+02 6.0951902778e+02 0.0000000000e+00 0.0000e+00 1.0000e+00
<mgrwt>
<rscale>  0 0.96593068E+03</rscale>
<asrwt>0</asrwt>
<pdfrwt beam="1">  1        2 0.11666866E+00 0.96593068E+03</pdfrwt>
<pdfrwt beam="2">  1       -2 0.47320685E-01 0.96593068E+03</pdfrwt>
<totfact> 0.19125815E+02</totfact>
</mgrwt>
<rwgt>
<wgt id='morphing_basis_vector_1'> +2.0702903e-04 </wgt>
<wgt id='morphing_basis_vector_2'> +1.3337633e-04 </wgt>
<wgt id='morphing_basis_vector_3'> +1.9724346e-04 </wgt>
<wgt id='morphing_basis_vector_4'> +1.1513505e-04 </wgt>
<wgt id='morphing_basis_vector_5'> +1.8639690e-04 </wgt>
</rwgt>
</event>
<event>
 4      1 +1.4786900e-06 9.71349100e+02 7.81860800e-03 8.71219100e-02
        2 -1    0    0  501    0 +0.0000000000e+00 +0.0000000000e+00 +2.1197532091e+03 2.1197532091e+03 0.0000000000e+00 0.0000e+00 1.0000e+00
       -2 -1    0    0    0  501 -0.0000000000e+00 -0.0000000000e+00 -1.1127699662e+02 1.1127699662e+02 0.0000000000e+00 0.0000e+00 -1.0000e+00
      -13  1    1    2    0    0 +4.2234378422e+01 -4.3577959761e+02 +5.2139862888e+02 6.8084075275e+02 0.0000000000e+00 0.0000e+00 -1.0000e+00
       13  1    1    2    0    0 -4.2234378422e+01 +4.3577959761e+02 +1.4870775836e+03 1.5501894530e+03 0.0000000000e+00 0.0000e+00 1.0000e+00
<mgrwt>
<rscale>  0 0.97134910E+03</rscale>
<asrwt>0</asrwt>
<pdfrwt beam="1">  1        2 0.32611585E+00 0.97134910E+03</pdfrwt>
<pdfrwt beam="2">  1       -2 0.17119539E-01 0.97134910E+03</pdfrwt>
<totfact> 0.18481046E+02</totfact>
</mgrwt>
<rwgt>
<wgt id='morphing_basis_vector_1'> +2.1064726e-04 </wgt>
<wgt id='morphing_basis_vector_2'> +1.3418433e-04 </wgt>
<wgt id='morphing_basis_vector_3'> +2.0105002e-04 </wgt>
<wgt id='morphing_basis_vector_4'> +1.1899656e-04 </wgt>
<wgt id='morphing_basis_vector_5'> +1.9106637e-04 </wgt>
</rwgt>
</event>
<event>
 4      1 +1.4786900e-06 1.02520800e+03 7.81860800e-03 8.66079100e-02
        2 -1    0    0  501    0 +0.0000000000e+00 +0.0000000000e+00 +1.2791322241e+03 1.2791322241e+03 0.0000000000e+00 0.0000e+00 -1.0000e+00
       -2 -1    0    0    0  501 -0.0000000000e+00 -0.0000000000e+00 -2.0542268080e+02 2.0542268080e+02 0.0000000000e+00 0.0000e+00 1.0000e+00
      -13  1    1    2    0    0 +5.7318030814e+01 -3.5834924215e+02 +1.2621243709e+01 3.6312371418e+02 0.0000000000e+00 0.0000e+00 1.0000e+00
       13  1    1    2    0    0 -5.7318030814e+01 +3.5834924215e+02 +1.0610882996e+03 1.1214311908e+03 0.0000000000e+00 0.0000e+00 -1.0000e+00
<mgrwt>
<rscale>  0 0.10252078E+04</rscale>
<asrwt>0</asrwt>
<pdfrwt beam="1">  1        2 0.19678957E+00 0.10252078E+04</pdfrwt>
<pdfrwt beam="2">  1       -2 0.31603490E-01 0.10252078E+04</pdfrwt>
<totfact> 0.18997321E+02</totfact>
</mgrwt>
<rwgt>
<wgt id='morphing_basis_vector_1'> +2.5585709e-04 </wgt>
<wgt id='morphing_basis_vector_2'> +1.6123808e-04 </wgt>
<wgt id='morphing_basis_vector_3'> +2.4772851e-04 </wgt>
<wgt id='morphing_basis_vector_4'> +1.5219546e-04 </wgt>
<wgt id='morphing_basis_vector_5'> +2.4167015e-04 </wgt>
</rwgt>
</event>
<event>
 4      1 +1.4786900e-06 9.41818900e+02 7.81860800e-03 8.74186900e-02
        2 -1    0    0  501    0 +0.0000000000e+00 +0.0000000000e+00 +6.2616704438e+02 6.2616704438e+02 0.0000000000e+00 0.0000e+00 -1.0000e+00
       -2 -1    0    0    0  501 -0.0000000000e+00 -0.0000000000e+00 -3.5414781092e+02 3.5414781092e+02 0.0000000000e+00 0.0000e+00 1.0000e+00
      -13  1    1    2    0    0 +3.1748216665e+01 -3.3256706386e+02 -2.0943968358e+02 3.9430163870e+02 0.0000000000e+00 0.0000e+00 1.0000e+00
       13  1    1    2    0    0 -3.1748216665e+01 +3.3256706386e+02 +4.8145891705e+02 5.8601321660e+02 0.0000000000e+00 0.0000e+00 -1.0000e+00
<mgrwt>
<rscale>  0 0.94181885E+03</rscale>
<asrwt>0</asrwt>
<pdfrwt beam="1">  1        2 0.96333391E-01 0.94181885E+03</pdfrwt>
<pdfrwt beam="2">  1       -2 0.54484279E-01 0.94181885E+03</pdfrwt>
<totfact> 0.18344316E+02</totfact>
</mgrwt>
<rwgt>
<wgt id='morphing_basis_vector_1'> +1.8716976e-04 </wgt>
<wgt id='morphing_basis_vector_2'> +1.1647285e-04 </wgt>
<wgt id='morphing_basis_vector_3'> +1.7717177e-04 </wgt>
<wgt id='morphing_basis_vector_4'> +1.0541126e-04 </wgt>
<wgt id='morphing_basis_vector_5'> +1.6698742e-04 </wgt>
</rwgt>
</event>
<event>
 4      1 +1.4786900e-06 9.58697300e+02 7.81860800e-03 8.72476900e-02
        2 -1    0    0  501    0 +0.0000000000e+00 +0.0000000000e+00 +2.8418849166e+03 2.8418849166e+03 0.0000000000e+00 0.0000e+00 -1.0000e+00
       -2 -1    0    0    0  501 -0.0000000000e+00 -0.0000000000e+00 -8.0853067087e+01 8.0853067087e+01 0.0000000000e+00 0.0000e+00 1.0000e+00
      -13  1    1    2    0    0 -3.6650559366e+02 -3.0772166441e+02 +1.4643478003e+03 1.5405627067e+03 0.0000000000e+00 0.0000e+00 1.0000e+00
       13  1    1    2    0    0 +3.6650559366e+02 +3.0772166441e+02 +1.2966840492e+03 1.3821752771e+03 0.0000000000e+00 0.0000e+00 -1.0000e+00
<mgrwt>
<rscale>  0 0.95869727E+03</rscale>
<asrwt>0</asrwt>
<pdfrwt beam="1">  1        2 0.43721299E+00 0.95869727E+03</pdfrwt>
<pdfrwt beam="2">  1       -2 0.12438936E-01 0.95869727E+03</pdfrwt>
<totfact> 0.11673641E+02</totfact>
</mgrwt>
<rwgt>
<wgt id='morphing_basis_vector_1'> +2.0825784e-04 </wgt>
<wgt id='morphing_basis_vector_2'> +1.5043583e-04 </wgt>
<wgt id='morphing_basis_vector_3'> +1.9746491e-04 </wgt>
<wgt id='morphing_basis_vector_4'> +1.0115454e-04 </wgt>
<wgt id='morphing_basis_vector_5'> +1.7978323e-04 </wgt>
</rwgt>
</event>
<event>
 4      1 +1.4786900e-06 1.03986500e+03 7.81860800e-03 8.64736900e-02
        2 -1    0    0  501    0 +0.0000000000e+00 +0.0000000000e+00 +2.7423821205e+03 2.7423821205e+03 0.0000000000e+00 0.0000e+00 -1.0000e+00
       -2 -1    0    0    0  501 -0.0000000000e+00 -0.0000000000e+00 -9.8574785431e+01 9.8574785431e+01 0.0000000000e+00 0.0000e+00 1.0000e+00
      -13  1    1    2    0    0 -5.1975634993e+02 -5.1375545418e+00 +1.3561002363e+03 1.4523019344e+03 0.0000000000e+00 0.0000e+00 1.0000e+00
       13  1    1    2    0    0 +5.1975634993e+02 +5.1375545418e+00 +1.2877070988e+03 1.3886549716e+03 0.0000000000e+00 0.0000e+00 -1.0000e+00
<mgrwt>
<rscale>  0 0.10398649E+04</rscale>
<asrwt>0</asrwt>
<pdfrwt beam="1">  1        2 0.42190488E+00 0.10398649E+04</pdfrwt>
<pdfrwt beam="2">  1       -2 0.15165354E-01 0.10398649E+04</pdfrwt>
<totfact> 0.96885279E+01</totfact>
</mgrwt>
<rwgt>
<wgt id='morphing_basis_vector_1'> +2.7991209e-04 </wgt>
<wgt id='morphing_basis_vector_2'> +2.0115695e-04 </wgt>
<wgt id='morphing_basis_vector_3'> +2.7202915e-04 </wgt>
<wgt id='morphing_basis_vector_4'> +1.4558200e-04 </wgt>
<wgt id='morphing_basis_vector_5'> +2.5595742e-04 </wgt>
</rwgt>
</event>
<event>
 4      1 +1.4786900e-06 9.10623700e+02 7.81860800e-03 8.77448100e-02
        2 -1    0    0  501    0 +0.0000000000e+00 +0.0000000000e+00 +2.0679781491e+03 2.0679781491e+03 0.0000000000e+00 0.0000e+00 1.0000e+00
       -2 -1    0    0    0  501 -0.0000000000e+00 -0.0000000000e+00 -1.0024714139e+02 1.0024714139e+02 0.0000000000e+00 0.0000e+00 -1.0000e+00
      -13  1    1    2    0    0 -1.1731599598e+02 -4.2905833495e+02 +7.5234384980e+02 8.7399963732e+02 0.0000000000e+00 0.0000e+00 -1.0000e+00
       13  1    1    2    0    0 +1.1731599598e+02 +4.2905833495e+02 +1.2153871579e+03 1.2942256532e+03 0.0000000000e+00 0.0000e+00 1.0000e+00
<mgrwt>
<rscale>  0 0.91062374E+03</rscale>
<asrwt>0</asrwt>
<pdfrwt beam="1">  1        2 0.31815045E+00 0.91062374E+03</pdfrwt>
<pdfrwt beam="2">  1       -2 0.15422639E-01 0.91062374E+03</pdfrwt>
<totfact> 0.23547464E+02</totfact>
</mgrwt>
<rwgt>
<wgt id='morphing_basis_vector_1'> +1.6794294e-04 </wgt>
<wgt id='morphing_basis_vector_2'> +1.0980832e-04 </wgt>
<wgt id='morphing_basis_vector_3'> +1.5708562e-04 </wgt>
<wgt id='morphing_basis_vector_4'> +8.7503608e-05 </wgt>
<wgt id='morphing_basis_vector_5'> +1.4376882e-04 </wgt>
</rwgt>
</event>
<event>
 4      1 +1.4786900e-06 9.34838400e+02 7.81860800e-03 8.74905100e-02
        2 -1    0    0  501    0 +0.0000000000e+00 +0.0000000000e+00 +9.4173416241e+02 9.4173416241e+02 0.0000000000e+00 0.0000e+00 -1.0000e+00
       -2 -1    0    0    0  501 -0.0000000000e+00 -0.0000000000e+00 -2.3199827324e+02 2.3199827324e+02 0.0000000000e+00 0.0000e+00 1.0000e+00
      -13  1    1    2    0    0 +3.1351666640e+02 -1.3398534745e+02 +7.5632060422e+02 8.2961776127e+02 0.0000000000e+00 0.0000e+00 -1.0000e+00
       13  1    1    2    0    0 -3.1351666640e+02 +1.3398534745e+02 -4.6584715058e+01 3.4411467438e+02 0.0000000000e+00 0.0000e+00 1.0000e+00
<mgrwt>
<rscale>  0 0.93483838E+03</rscale>
<asrwt>0</asrwt>
<pdfrwt beam="1">  1        2 0.14488218E+00 0.93483838E+03</pdfrwt>
<pdfrwt beam="2">  1       -2 0.35692043E-01 0.93483838E+03</pdfrwt>
<totfact> 0.24453329E+02</totfact>
</mgrwt>
<rwgt>
<wgt id='morphing_basis_vector_1'> +2.3214019e-04 </wgt>
<wgt id='morphing_basis_vector_2'> +2.6509433e-04 </wgt>
<wgt id='morphing_basis_vector_3'> +2.1402221e-04 </wgt>
<wgt id='morphing_basis_vector_4'> +2.8633386e-05 </wgt>
<wgt id='morphing_basis_vector_5'> +1.5754441e-04 </wgt>
</rwgt>
</event>
<event>
 4      1 +1.4786900e-06 1.05333100e+03 7.81860800e-03 8.63523800e-02
        2 -1    0    0  501    0 +0.0000000000e+00 +0.0000000000e+00 +1.2960259841e+03 1.2960259841e+03 0.0000000000e+00 0.0000e+00 -1.0000e+00
       -2 -1    0    0    0  501 -0.0000000000e+00 -0.0000000000e+00 -2.1402071945e+02 2.1402071945e+02 0.0000000000e+00 0.0000e+00 1.0000e+00
      -13  1    1    2    0    0 -3.5014068584e+02 -1.2668321672e+02 +7.0414573991e+00 3.7242008459e+02 0.0000000000e+00 0.0000e+00 1.0000e+00
       13  1    1    2    0    0 +3.5014068584e+02 +1.2668321672e+02 +1.0749638073e+03 1.1376266190e+03 0.0000000000e+00 0.0000e+00 -1.0000e+00
<mgrwt>
<rscale>  0 0.10533307E+04</rscale>
<asrwt>0</asrwt>
<pdfrwt beam="1">  1        2 0.19938861E+00 0.10533307E+04</pdfrwt>
<pdfrwt beam="2">  1       -2 0.32926265E-01 0.10533307E+04</pdfrwt>
<totfact> 0.17231563E+02</totfact>
</mgrwt>
<rwgt>
<wgt id='morphing_basis_vector_1'> +2.8292330e-04 </wgt>
<wgt id='morphing_basis_vector_2'> +1.7895884e-04 </wgt>
<wgt id='morphing_basis_vector_3'> +2.7574301e-04 </wgt>
<wgt id='morphing_basis_vector_4'> +1.7095033e-04 </wgt>
<wgt id='morphing_basis_vector_5'> +2.7161138e-04 </wgt>
</rwgt>
</event>
<event>
 4      1 +1.4786900e-06 9.44152000e+02 7.81860800e-03 8.73948300e-02
        2 -1    0    0  501    0 +0.0000000000e+00 +0.0000000000e+00 +1.7146653829e+03 1.7146653829e+03 0.0000000000e+00 0.0000e+00 -1.0000e+00
       -2 -1    0    0    0  501 -0.0000000000e+00 -0.0000000000e+00 -1.2997039741e+02 1.2997039741e+02 0.0000000000e+00 0.0000e+00 1.0000e+00
      -13  1    1    2    0    0 -6.2642703514e+00 +3.0587767432e+02 +8.9933781107e+01 3.1888630845e+02 0.0000000000e+00 0.0000e+00 1.0000e+00
       13  1    1    2    0    0 +6.2642703514e+00 -3.0587767432e+02 +1.4947612044e+03 1.5257494719e+03 0.0000000000e+00 0.0000e+00 -1.0000e+00
<mgrwt>
<rscale>  0 0.94415198E+03</rscale>
<asrwt>0</asrwt>
<pdfrwt beam="1">  1        2 0.26379466E+00 0.94415198E+03</pdfrwt>
<pdfrwt beam="2">  1       -2 0.19995447E-01 0.94415198E+03</pdfrwt>
<totfact> 0.24015020E+02</totfact>
</mgrwt>
<rwgt>
<wgt id='morphing_basis_vector_1'> +1.8878613e-04 </wgt>
<wgt id='morphing_basis_vector_2'> +1.1731577e-04 </wgt>
<wgt id='morphing_basis_vector_3'> +1.7883573e-04 </wgt>
<wgt id='morphing_basis_vector_4'> +1.0668177e-04 </wgt>
<wgt id='morphing_basis_vector_5'> +1.6881837e-04 </wgt>
</rwgt>
</event>
<event>
 4      1 +1.4786900e-06 1.02234200e+03 7.81860800e-03 8.66344300e-02
        2 -1    0    0  501    0 +0.0000000000e+00 +0.0000000000e+00 +5.1960591695e+02 5.1960591695e+02 0.0000000000e+00 0.0000e+00 -1.0000e+00
       -2 -1    0    0    0  501 -0.0000000000e+00 -0.0000000000e+00 -5.0287287445e+02 5.0287287445e+02 0.0000000000e+00 0.0000e+00 1.0000e+00
      -13  1    1    2    0    0 +6.3716162422e+01 +3.2849090846e+02 -3.7811724137e+02 5.0491452199e+02 0.0000000000e+00 0.0000e+00 1.0000e+00
       13  1    1    2    0    0 -6.3716162422e+01 -3.2849090846e+02 +3.9485028388e+02 5.1756426941e+02 0.0000000000e+00 0.0000e+00 -1.0000e+00
<mgrwt>
<rscale>  0 0.10223419E+04</rscale>
<asrwt>0</asrwt>
<pdfrwt beam="1">  1        2 0.79939372E-01 0.10223419E+04</pdfrwt>
<pdfrwt beam="2">  1       -2 0.77365058E-01 0.10223419E+04</pdfrwt>
<totfact> 0.10867970E+02</totfact>
</mgrwt>
<rwgt>
<wgt id='morphing_basis_vector_1'> +2.5311179e-04 </wgt>
<wgt id='morphing_basis_vector_2'> +1.5919804e-04 </wgt>
<wgt id='morphing_basis_vector_3'> +2.4490061e-04 </wgt>
<wgt id='morphing_basis_vector_4'> +1.5053506e-04 </wgt>
<wgt id='morphing_basis_vector_5'> +2.3877077e-04 </wgt>
</rwgt>
</event>
<event>
 4      1 +1.4786900e-06 1.03048500e+03 7.81860800e-03 8.65593200e-02
        2 -1    0    0  501    0 +0.0000000000e+00 +0.0000000000e+00 +8.0919298132e+02 8.0919298132e+02 0.0000000000e+00 0.0000e+00 1.0000e+00
       -2 -1    0    0    0  501 -0.0000000000e+00 -0.0000000000e+00 -3.2807345743e+02 3.2807345743e+02 0.0000000000e+00 0.0000e+00 -1.0000e+00
      -13  1    1    2    0    0 +4.8766132355e+02 +1.6496143273e+02 +2.1717706369e+02 5.5874119033e+02 0.0000000000e+00 0.0000e+00 -1.0000e+00
       13  1    1    2    0    0 -4.8766132355e+02 -1.6496143273e+02 +2.6394246020e+02 5.7852524843e+02 0.0000000000e+00 0.0000e+00 1.0000e+00
<mgrwt>
<rscale>  0 0.10304848E+04</rscale>
<asrwt>0</asrwt>
<pdfrwt beam="1">  1        2 0.12449123E+00 0.10304848E+04</pdfrwt>
<pdfrwt beam="2">  1       -2 0.50472840E-01 0.10304848E+04</pdfrwt>
<totfact> 0.15465245E+02</totfact>
</mgrwt>
<rwgt>
<wgt id='morphing_basis_vector_1'> +2.6850415e-04 </wgt>
<wgt id='morphing_basis_vector_2'> +1.8782068e-04 </wgt>
<wgt id='morphing_basis_vector_3'> +2.6028417e-04 </wgt>
<wgt id='morphing_basis_vector_4'> +1.4341344e-04 </wgt>
<wgt id='morphing_basis_vector_5'> +2.4634919e-04 </wgt>
</rwgt>
</event>
<event>
 4      1 +1.4786900e-06 9.68093000e+02 7.81860800e-03 8.71540900e-02
        2 -1    0    0  501    0 +0.0000000000e+00 +0.0000000000e+00 +7.9071147552e+02 7.9071147552e+02 0.0000000000e+00 0.0000e+00 -1.0000e+00
       -2 -1    0    0    0  501 -0.0000000000e+00 -0.0000000000e+00 -2.9631670641e+02 2.9631670641e+02 0.0000000000e+00 0.0000e+00 1.0000e+00
      -13  1    1    2    0    0 -2.7461229179e+02 +4.1763195349e+01 -1.9791935345e+02 3.4106912167e+02 0.0000000000e+00 0.0000e+00 1.0000e+00
       13  1    1    2    0    0 +2.7461229179e+02 -4.1763195349e+01 +6.9231412256e+02 7.4595906026e+02 0.0000000000e+00 0.0000e+00 -1.0000e+00
<mgrwt>
<rscale>  0 0.96809301E+03</rscale>
<asrwt>0</asrwt>
<pdfrwt beam="1">  1        2 0.12164792E+00 0.96809301E+03</pdfrwt>
<pdfrwt beam="2">  1       -2 0.45587186E-01 0.96809301E+03</pdfrwt>
<totfact> 0.19488101E+02</totfact>
</mgrwt>
<rwgt>
<wgt id='morphing_basis_vector_1'> +2.0688323e-04 </wgt>
<wgt id='morphing_basis_vector_2'> +1.2889658e-04 </wgt>
<wgt id='morphing_basis_vector_3'> +1.9735155e-04 </wgt>
<wgt id='morphing_basis_vector_4'> +1.1905542e-04 </wgt>
<wgt id='morphing_basis_vector_5'> +1.8838803e-04 </wgt>
</rwgt>
</event>
<event>
 4      1 +1.4786900e-06 1.02422000e+03 7.81860800e-03 8.66170400e-02
        2 -1    0    0  501    0 +0.0000000000e+00 +0.0000000000e+00 +9.9375332332e+02 9.9375332332e+02 0.0000000000e+00 0.0000e+00 -1.0000e+00
       -2 -1    0    0    0  501 -0.0000000000e+00 -0.0000000000e+00 -2.6390509309e+02 2.6390509309e+02 0.0000000000e+00 0.0000e+00 1.0000e+00
      -13  1    1    2    0    0 -2.7464792227e+01 +4.5216896228e+02 +7.1645676905e+01 4.5863295594e+02 0.0000000000e+00 0.0000e+00 1.0000e+00
       13  1    1    2    0    0 +2.7464792227e+01 -4.5216896228e+02 +6.5820255333e+02 7.9902546046e+02 0.0000000000e+00 0.0000e+00 -1.0000e+00
<mgrwt>
<rscale>  0 0.10242198E+04</rscale>
<asrwt>0</asrwt>
<pdfrwt beam="1">  1        2 0.15288512E+00 0.10242198E+04</pdfrwt>
<pdfrwt beam="2">  1       -2 0.40600784E-01 0.10242198E+04</pdfrwt>
<totfact> 0.17774634E+02</totfact>
</mgrwt>
<rwgt>
<wgt id='morphing_basis_vector_1'> +2.5596426e-04 </wgt>
<wgt id='morphing_basis_vector_2'> +1.6372704e-04 </wgt>
<wgt id='morphing_basis_vector_3'> +2.4776406e-04 </wgt>
<wgt id='morphing_basis_vector_4'> +1.4996349e-04 </wgt>
<wgt id='morphing_basis_vector_5'> +2.4056681e-04 </wgt>
</rwgt>
</event>
<event>
 4      1 +1.4786900e-06 1.01385700e+03 7.81860800e-03 8.67134700e-02
        2 -1    0    0  501    0 +0.0000000000e+00 +0.0000000000e+00 +5.3163758545e+02 5.3163758545e+02 0.0000000000e+00 0.0000e+00 1.0000e+00
       -2 -1    0    0    0  501 -0.0000000000e+00 -0.0000000000e+00 -4.8336774145e+02 4.8336774145e+02 0.0000000000e+00 0.0000e+00 -1.0000e+00
      -13  1    1    2    0    0 +7.1843625210e+01 +1.7396329205e+02 -4.4709105552e+02 4.8509292449e+02 0.0000000000e+00 0.0000e+00 -1.0000e+00
       13  1    1    2    0    0 -7.1843625210e+01 -1.7396329205e+02 +4.9536089951e+02 5.2991240241e+02 0.0000000000e+00 0.0000e+00 1.0000e+00
<mgrwt>
<rscale>  0 0.10138569E+04</rscale>
<asrwt>0</asrwt>
<pdfrwt beam="1">  1        2 0.81790398E-01 0.10138569E+04</pdfrwt>
<pdfrwt beam="2">  1       -2 0.74364268E-01 0.10138569E+04</pdfrwt>
<totfact> 0.11560633E+02</totfact>
</mgrwt>
<rwgt>
<wgt id='morphing_basis_vector_1'> +2.4524134e-04 </wgt>
<wgt id='morphing_basis_vector_2'> +1.5364705e-04 </wgt>
<wgt id='morphing_basis_vector_3'> +2.3679283e-04 </wgt>
<wgt id='morphing_basis_vector_4'> +1.4550017e-04 </wgt>
<wgt id='morphing_basis_vector_5'> +2.3032378e-04 </wgt>
</rwgt>
</event>
<event>
 4      1 +1.4786900e-06 9.28543100e+02 7.81860800e-03 8.75558400e-02
        2 -1    0    0  501    0 +0.0000000000e+00 +0.0000000000e+00 +7.0591996726e+02 7.0591996726e+02 0.0000000000e+00 0.0000e+00 1.0000e+00
       -2 -1    0    0    0  501 -0.0000000000e+00 -0.0000000000e+00 -3.0534352331e+02 3.0534352331e+02 0.0000000000e+00 0.0000e+00 -1.0000e+00
      -13  1    1    2    0    0 -4.2101349464e+02 -1.8848638772e+02 +2.5759329268e+02 5.2833113240e+02 0.0000000000e+00 0.0000e+00 -1.0000e+00
       13  1    1    2    0    0 +4.2101349464e+02 +1.8848638772e+02 +1.4298315126e+02 4.8293235817e+02 0.0000000000e+00 0.0000e+00 1.0000e+00
<mgrwt>
<rscale>  0 0.92854314E+03</rscale>
<asrwt>0</asrwt>
<pdfrwt beam="1">  1        2 0.10860307E+00 0.92854314E+03</pdfrwt>
<pdfrwt beam="2">  1       -2 0.46975927E-01 0.92854314E+03</pdfrwt>
<totfact> 0.21253707E+02</totfact>
</mgrwt>
<rwgt>
<wgt id='morphing_basis_vector_1'> +1.8692652e-04 </wgt>
<wgt id='morphing_basis_vector_2'> +1.3835727e-04 </wgt>
<wgt id='morphing_basis_vector_3'> +1.7518018e-04 </wgt>
<wgt id='morphing_basis_vector_4'> +8.5613493e-05 </wgt>
<wgt id='morphing_basis_vector_5'> +1.5614069e-04 </wgt>
</rwgt>
</event>
<event>
 4      1 +1.4786900e-06 9.07005200e+02 7.81860800e-03 8.77835300e-02
        2 -1    0    0  501    0 +0.0000000000e+00 +0.0000000000e+00 +4.8092060685e+02 4.8092060685e+02 0.0000000000e+00 0.0000e+00 -1.0000e+00
       -2 -1    0    0    0  501 -0.0000000000e+00 -0.0000000000e+00 -4.2764774098e+02 4.2764774098e+02 0.0000000000e+00 0.0000e+00 1.0000e+00
      -13  1    1    2    0    0 -8.8713223176e+01 +2.7028851031e+02 -3.2715590524e+02 4.3353996483e+02 0.0000000000e+00 0.0000e+00 1.0000e+00
       13  1    1    2    0    0 +8.8713223176e+01 -2.7028851031e+02 +3.8042877111e+02 4.7502838300e+02 0.0000000000e+00 0.0000e+00 -1.0000e+00
<mgrwt>
<rscale>  0 0.90700521E+03</rscale>
<asrwt>0</asrwt>
<pdfrwt beam="1">  1        2 0.73987786E-01 0.90700521E+03</pdfrwt>
<pdfrwt beam="2">  1       -2 0.65791960E-01 0.90700521E+03</pdfrwt>
<totfact> 0.16972617E+02</totfact>
</mgrwt>
<rwgt>
<wgt id='morphing_basis_vector_1'> +1.6305036e-04 </wgt>
<wgt id='morphing_basis_vector_2'> +1.0062475e-04 </wgt>
<wgt id='morphing_basis_vector_3'> +1.5265679e-04 </wgt>
<wgt id='morphing_basis_vector_4'> +8.9538895e-05 </wgt>
<wgt id='morphing_basis_vector_5'> +1.4144938e-04 </wgt>
</rwgt>
</event>
<event>
 4      1 +1.4786900e-06 9.85832400e+02 7.81860800e-03 8.69803400e-02
        2 -1    0    0  501    0 +0.0000000000e+00 +0.0000000000e+00 +8.3806641037e+02 8.3806641037e+02 0.0000000000e+00 0.0000e+00 -1.0000e+00
       -2 -1    0    0    0  501 -0.0000000000e+00 -0.0000000000e+00 -2.8991303799e+02 2.8991303799e+02 0.0000000000e+00 0.0000e+00 1.0000e+00
      -13  1    1    2    0    0 -1.1774094244e+02 +2.4461315074e+02 -1.9666791425e+02 3.3522647797e+02 0.0000000000e+00 0.0000e+00 1.0000e+00
       13  1    1    2    0    0 +1.1774094244e+02 -2.4461315074e+02 +7.4482128663e+02 7.9275297038e+02 0.0000000000e+00 0.0000e+00 -1.0000e+00
<mgrwt>
<rscale>  0 0.98583240E+03</rscale>
<asrwt>0</asrwt>
<pdfrwt beam="1">  1        2 0.12893329E+00 0.98583240E+03</pdfrwt>
<pdfrwt beam="2">  1       -2 0.44602006E-01 0.98583240E+03</pdfrwt>
<totfact> 0.18825039E+02</totfact>
</mgrwt>
<rwgt>
<wgt id='morphing_basis_vector_1'> +2.2117125e-04 </wgt>
<wgt id='morphing_basis_vector_2'> +1.3813962e-04 </wgt>
<wgt id='morphing_basis_vector_3'> +2.1201126e-04 </wgt>
<wgt id='morphing_basis_vector_4'> +1.2882438e-04 </wgt>
<wgt id='morphing_basis_vector_5'> +2.0391519e-04 </wgt>
</rwgt>
</event>
<event>
 4      1 +1.4786900e-06 9.93752800e+02 7.81860800e-03 8.69039900e-02
        2 -1    0    0  501    0 +0.0000000000e+00 +0.0000000000e+00 +1.1667475218e+03 1.1667475218e+03 0.0000000000e+00 0.0000e+00 -1.0000e+00
       -2 -1    0    0    0  501 -0.0000000000e+00 -0.0000000000e+00 -2.1160205553e+02 2.1160205553e+02 0.0000000000e+00 0.0000e+00 1.0000e+00
      -13  1    1    2    0    0 -1.7395203964e+01 +3.4243893466e+02 -2.1211169816e+01 3.4353592362e+02 0.0000000000e+00 0.0000e+00 1.0000e+00
       13  1    1    2    0    0 +1.7395203964e+01 -3.4243893466e+02 +9.7635663612e+02 1.0348136538e+03 0.0000000000e+00 0.0000e+00 -1.0000e+00
<mgrwt>
<rscale>  0 0.99375283E+03</rscale>
<asrwt>0</asrwt>
<pdfrwt beam="1">  1        2 0.17949962E+00 0.99375283E+03</pdfrwt>
<pdfrwt beam="2">  1       -2 0.32554163E-01 0.99375283E+03</pdfrwt>
<totfact> 0.20975582E+02</totfact>
</mgrwt>
<rwgt>
<wgt id='morphing_basis_vector_1'> +2.2795592e-04 </wgt>
<wgt id='morphing_basis_vector_2'> +1.4292592e-04 </wgt>
<wgt id='morphing_basis_vector_3'> +2.1896797e-04 </wgt>
<wgt id='morphing_basis_vector_4'> +1.3311726e-04 </wgt>
<wgt id='morphing_basis_vector_5'> +2.1112590e-04 </wgt>
</rwgt>
</event>
<event>
 4      1 +1.4786900e-06 9.68846800e+02 7.81860800e-03 8.71466300e-02
        2 -1    0    0  501    0 +0.0000000000e+00 +0.0000000000e+00 +1.1517452165e+03 1.1517452165e+03 0.0000000000e+00 0.0000e+00 1.0000e+00
       -2 -1    0    0    0  501 -0.0000000000e+00 -0.0000000000e+00 -2.0374821971e+02 2.0374821971e+02 0.0000000000e+00 0.0000e+00 -1.0000e+00
      -13  1    1    2    0    0 -1.6398781037e+02 -4.5470677584e+02 +4.2940794359e+02 6.4656123914e+02 0.0000000000e+00 0.0000e+00 -1.0000e+00
       13  1    1    2    0    0 +1.6398781037e+02 +4.5470677584e+02 +5.1858905324e+02 7.0893219710e+02 0.0000000000e+00 0.0000e+00 1.0000e+00
<mgrwt>
<rscale>  0 0.96884681E+03</rscale>
<asrwt>0</asrwt>
<pdfrwt beam="1">  1        2 0.17719157E+00 0.96884681E+03</pdfrwt>
<pdfrwt beam="2">  1       -2 0.31345881E-01 0.96884681E+03</pdfrwt>
<totfact> 0.22938840E+02</totfact>
</mgrwt>
<rwgt>
<wgt id='morphing_basis_vector_1'> +2.1321247e-04 </wgt>
<wgt id='morphing_basis_vector_2'> +1.4667759e-04 </wgt>
<wgt id='morphing_basis_vector_3'> +2.0305498e-04 </wgt>
<wgt id='morphing_basis_vector_4'> +1.1079743e-04 </wgt>
<wgt id='morphing_basis_vector_5'> +1.8852963e-04 </wgt>
</rwgt>
</event>
<event>
 4      1 +1.4786900e-06 9.85470300e+02 7.81860800e-03 8.69838500e-02
        2 -1    0    0  501    0 +0.0000000000e+00 +0.0000000000e+00 +2.0377987660e+02 2.0377987660e+02 0.0000000000e+00 0.0000e+00 1.0000e+00
       -2 -1    0    0    0  501 -0.0000000000e+00 -0.0000000000e+00 -1.1914224436e+03 1.1914224436e+03 0.0000000000e+00 0.0000e+00 -1.0000e+00
      -13  1    1    2    0    0 -1.7103864906e+02 -2.9519392451e+02 -9.9715649133e+02 1.0539045216e+03 0.0000000000e+00 0.0000e+00 -1.0000e+00
       13  1    1    2    0    0 +1.7103864906e+02 +2.9519392451e+02 +9.5139243337e+00 3.4129779855e+02 0.0000000000e+00 0.0000e+00 1.0000e+00
<mgrwt>
<rscale>  0 0.98547028E+03</rscale>
<asrwt>0</asrwt>
<pdfrwt beam="1">  1        2 0.31350751E-01 0.98547028E+03</pdfrwt>
<pdfrwt beam="2">  1       -2 0.18329576E+00 0.98547028E+03</pdfrwt>
<totfact> 0.32808416E+01</totfact>
</mgrwt>
<rwgt>
<wgt id='morphing_basis_vector_1'> +2.2102900e-04 </wgt>
<wgt id='morphing_basis_vector_2'> +1.3842117e-04 </wgt>
<wgt id='morphing_basis_vector_3'> +2.1184683e-04 </wgt>
<wgt id='morphing_basis_vector_4'> +1.2837956e-04 </wgt>
<wgt id='morphing_basis_vector_5'> +2.0357513e-04 </wgt>
</rwgt>
</event>
<event>
 4      1 +1.4786900e-06 9.33544000e+02 7.81860800e-03 8.75038900e-02
        2 -1    0    0  501    0 +0.0000000000e+00 +0.0000000000e+00 +1.4075929406e+03 1.4075929406e+03 0.0000000000e+00 0.0000e+00 1.0000e+00
       -2 -1    0    0    0  501 -0.0000000000e+00 -0.0000000000e+00 -1.5478631260e+02 1.5478631260e+02 0.0000000000e+00 0.0000e+00 -1.0000e+00
      -13  1    1    2    0    0 +4.0217369988e+02 -1.7312959301e+02 +3.5572171493e+02 5.6414136467e+02 0.0000000000e+00 0.0000e+00 -1.0000e+00
       13  1    1    2    0    0 -4.0217369988e+02 +1.7312959301e+02 +8.9708491305e+02 9.9823788852e+02 0.0000000000e+00 0.0000e+00 1.0000e+00
<mgrwt>
<rscale>  0 0.93354404E+03</rscale>
<asrwt>0</asrwt>
<pdfrwt beam="1">  1        2 0.21655275E+00 0.93354404E+03</pdfrwt>
<pdfrwt beam="2">  1       -2 0.23813280E-01 0.93354404E+03</pdfrwt>
<totfact> 0.26482290E+02</totfact>
</mgrwt>
<rwgt>
<wgt id='morphing_basis_vector_1'> +1.8265234e-04 </wgt>
<wgt id='morphing_basis_vector_2'> +1.1695015e-04 </wgt>
<wgt id='morphing_basis_vector_3'> +1.7230636e-04 </wgt>
<wgt id='morphing_basis_vector_4'> +9.9339019e-05 </wgt>
<wgt id='morphing_basis_vector_5'> +1.6051874e-04 </wgt>
</rwgt>
</event>
<event>
 4      1 +1.4786900e-06 1.02813900e+03 7.81860800e-03 8.65808900e-02
        2 -1    0    0  501    0 +0.0000000000e+00 +0.0000000000e+00 +6.0613133567e+02 6.0613133567e+02 0.0000000000e+00 0.0000e+00 -1.0000e+00
       -2 -1    0    0    0  501 -0.0000000000e+00 -0.0000000000e+00 -4.3599001590e+02 4.3599001590e+02 0.0000000000e+00 0.0000e+00 1.0000e+00
      -13  1    1    2    0    0 -1.6067964094e+02 -7.7671011109e+01 -4.0358182948e+02 4.4128111909e+02 0.0000000000e+00 0.0000e+00 1.0000e+00
       13  1    1    2    0    0 +1.6067964094e+02 +7.7671011109e+01 +5.7372314925e+02 6.0084023248e+02 0.0000000000e+00 0.0000e+00 -1.0000e+00
<mgrwt>
<rscale>  0 0.10281385E+04</rscale>
<asrwt>0</asrwt>
<pdfrwt beam="1">  1        2 0.93250976E-01 0.10281385E+04</pdfrwt>
<pdfrwt beam="2">  1       -2 0.67075386E-01 0.10281385E+04</pdfrwt>
<totfact> 0.12371754E+02</totfact>
</mgrwt>
<rwgt>
<wgt id='morphing_basis_vector_1'> +2.5828867e-04 </wgt>
<wgt id='morphing_basis_vector_2'> +1.6213639e-04 </wgt>
<wgt id='morphing_basis_vector_3'> +2.5026136e-04 </wgt>
<wgt id='morphing_basis_vector_4'> +1.5453533e-04 </wgt>
<wgt id='morphing_basis_vector_5'> +2.4469988e-04 </wgt>
</rwgt>
</event>
<event>
 4      1 +1.4786900e-06 9.59009200e+02 7.81860800e-03 8.72445700e-02
        2 -1    0    0  501    0 +0.0000000000e+00 +0.0000000000e+00 +1.7414852293e+03 1.7414852293e+03 0.0000000000e+00 0.0000e+00 1.0000e+00
       -2 -1    0    0    0  501 -0.0000000000e+00 -0.0000000000e+00 -1.3202790859e+02 1.3202790859e+02 0.0000000000e+00 0.0000e+00 -1.0000e+00
      -13  1    1    2    0    0 -9.2743606943e+01 -4.6095523164e+02 +9.8844479819e+02 1.0945794723e+03 0.0000000000e+00 0.0000e+00 -1.0000e+00
       13  1    1    2    0    0 +9.2743606943e+01 +4.6095523164e+02 +6.2101252249e+02 7.7893366553e+02 0.0000000000e+00 0.0000e+00 1.0000e+00
<mgrwt>
<rscale>  0 0.95900918E+03</rscale>
<asrwt>0</asrwt>
<pdfrwt beam="1">  1        2 0.26792079E+00 0.95900918E+03</pdfrwt>
<pdfrwt beam="2">  1       -2 0.20311987E-01 0.95900918E+03</pdfrwt>
<totfact> 0.22585062E+02</totfact>
</mgrwt>
<rwgt>
<wgt id='morphing_basis_vector_1'> +2.1386831e-04 </wgt>
<wgt id='morphing_basis_vector_2'> +1.6688943e-04 </wgt>
<wgt id='morphing_basis_vector_3'> +2.0241146e-04 </wgt>
<wgt id='morphing_basis_vector_4'> +9.3264441e-05 </wgt>
<wgt id='morphing_basis_vector_5'> +1.7958036e-04 </wgt>
</rwgt>
</event>
<event>
 4      1 +1.4786900e-06 1.03194800e+03 7.81860800e-03 8.65459000e-02
        2 -1    0    0  501    0 +0.0000000000e+00 +0.0000000000e+00 +8.5923977346e+02 8.5923977346e+02 0.0000000000e+00 0.0000e+00 1.0000e+00
       -2 -1    0    0    0  501 -0.0000000000e+00 -0.0000000000e+00 -3.0984280067e+02 3.0984280067e+02 0.0000000000e+00 0.0000e+00 -1.0000e+00
      -13  1    1    2    0    0 -2.5603088321e+02 +4.0232610408e+02 +5.1513199966e+01 4.7965791659e+02 0.0000000000e+00 0.0000e+00 -1.0000e+00
       13  1    1    2    0    0 +2.5603088321e+02 -4.0232610408e+02 +4.9788377283e+02 6.8942465754e+02 0.0000000000e+00 0.0000e+00 1.0000e+00
<mgrwt>
<rscale>  0 0.10319482E+04</rscale>
<asrwt>0</asrwt>
<pdfrwt beam="1">  1        2 0.13219073E+00 0.10319482E+04</pdfrwt>
<pdfrwt beam="2">  1       -2 0.47668123E-01 0.10319482E+04</pdfrwt>
<totfact> 0.15981905E+02</totfact>
</mgrwt>
<rwgt>
<wgt id='morphing_basis_vector_1'> +2.6388388e-04 </wgt>
<wgt id='morphing_basis_vector_2'> +1.7058670e-04 </wgt>
<wgt id='morphing_basis_vector_3'> +2.5591247e-04 </wgt>
<wgt id='morphing_basis_vector_4'> +1.5381662e-04 </wgt>
<wgt id='morphing_basis_vector_5'> +2.4844716e-04 </wgt>
</rwgt>
</event>
<event>
 4      1 +1.4786900e-06 9.26875000e+02 7.81860800e-03 8.75732400e-02
        2 -1    0    0  501    0 +0.0000000000e+00 +0.0000000000e+00 +1.5272725947e+03 1.5272725947e+03 0.0000000000e+00 0.0000e+00 -1.0000e+00
       -2 -1    0    0    0  501 -0.0000000000e+00 -0.0000000000e+00 -1.4062605354e+02 1.4062605354e+02 0.0000000000e+00 0.0000e+00 1.0000e+00
      -13  1    1    2    0    0 +3.2763524922e+02 -2.2959362081e+02 +2.7239647617e+02 4.8400199119e+02 0.0000000000e+00 0.0000e+00 1.0000e+00
       13  1    1    2    0    0 -3.2763524922e+02 +2.2959362081e+02 +1.1142500650e+03 1.1838966571e+03 0.0000000000e+00 0.0000e+00 -1.0000e+00
<mgrwt>
<rscale>  0 0.92687500E+03</rscale>
<asrwt>0</asrwt>
<pdfrwt beam="1">  1        2 0.23496500E+00 0.92687500E+03</pdfrwt>
<pdfrwt beam="2">  1       -2 0.21634779E-01 0.92687500E+03</pdfrwt>
<totfact> 0.26733500E+02</totfact>
</mgrwt>
<rwgt>
<wgt id='morphing_basis_vector_1'> +1.7707920e-04 </wgt>
<wgt id='morphing_basis_vector_2'> +1.1121097e-04 </wgt>
<wgt id='morphing_basis_vector_3'> +1.6678678e-04 </wgt>
<wgt id='morphing_basis_vector_4'> +9.7522224e-05 </wgt>
<wgt id='morphing_basis_vector_5'> +1.5560104e-04 </wgt>
</rwgt>
</event>
<event>
 4      1 +1.4786900e-06 1.01565000e+03 7.81860800e-03 8.66967000e-02
        2 -1    0    0  501    0 +0.0000000000e+00 +0.0000000000e+00 +1.3981142826e+03 1.3981142826e+03 0.0000000000e+00 0.0000e+00 -1.0000e+00
       -2 -1    0    0    0  501 -0.0000000000e+00 -0.0000000000e+00 -1.8445292300e+02 1.8445292300e+02 0.0000000000e+00 0.0000e+00 1.0000e+00
      -13  1    1    2    0    0 -1.6241930376e+02 +4.0794858761e+02 +2.0931359659e+02 4.8643012045e+02 0.0000000000e+00 0.0000e+00 1.0000e+00
       13  1    1    2    0    0 +1.6241930376e+02 -4.0794858761e+02 +1.0043477630e+03 1.0961370852e+03 0.0000000000e+00 0.0000e+00 -1.0000e+00
<mgrwt>
<rscale>  0 0.10156501E+04</rscale>
<asrwt>0</asrwt>
<pdfrwt beam="1">  1        2 0.21509450E+00 0.10156501E+04</pdfrwt>
<pdfrwt beam="2">  1       -2 0.28377374E-01 0.10156501E+04</pdfrwt>
<totfact> 0.19689561E+02</totfact>
</mgrwt>
<rwgt>
<wgt id='morphing_basis_vector_1'> +2.4789930e-04 </wgt>
<wgt id='morphing_basis_vector_2'> +1.5786568e-04 </wgt>
<wgt id='morphing_basis_vector_3'> +2.3944794e-04 </wgt>
<wgt id='morphing_basis_vector_4'> +1.4497619e-04 </wgt>
<wgt id='morphing_basis_vector_5'> +2.3199511e-04 </wgt>
</rwgt>
</event>
<event>
 4      1 +1.4786900e-06 9.80748300e+02 7.81860800e-03 8.70297400e-02
        2 -1    0    0  501    0 +0.0000000000e+00 +0.0000000000e+00 +6.8939371506e+02 6.8939371506e+02 0.0000000000e+00 0.0000e+00 -1.0000e+00
       -2 -1    0    0    0  501 -0.0000000000e+00 -0.0000000000e+00 -3.4880912154e+02 3.4880912154e+02 0.0000000000e+00 0.0000e+00 1.0000e+00
      -13  1    1    2    0    0 +1.7940654122e+02 +3.6801965542e+02 -1.1541050768e+02 4.2537602082e+02 0.0000000000e+00 0.0000e+00 1.0000e+00
       13  1    1    2    0    0 -1.7940654122e+02 -3.6801965542e+02 +4.5599510121e+02 6.1282681578e+02 0.0000000000e+00 0.0000e+00 -1.0000e+00
<mgrwt>
<rscale>  0 0.98074832E+03</rscale>
<asrwt>0</asrwt>
<pdfrwt beam="1">  1        2 0.10606057E+00 0.98074832E+03</pdfrwt>
<pdfrwt beam="2">  1       -2 0.53662942E-01 0.98074832E+03</pdfrwt>
<totfact> 0.16800305E+02</totfact>
</mgrwt>
<rwgt>
<wgt id='morphing_basis_vector_1'> +2.1764228e-04 </wgt>
<wgt id='morphing_basis_vector_2'> +1.3738430e-04 </wgt>
<wgt id='morphing_basis_vector_3'> +2.0830853e-04 </wgt>
<wgt id='morphing_basis_vector_4'> +1.2498956e-04 </wgt>
<wgt id='morphing_basis_vector_5'> +1.9931608e-04 </wgt>
</rwgt>
</event>
<event>
 4      1 +1.4786900e-06 9.38461000e+02 7.81860800e-03 8.74531500e-02
        2 -1    0    0  501    0 +0.0000000000e+00 +0.0000000000e+00 +3.0008739494e+02 3.0008739494e+02 0.0000000000e+00 0.0000e+00 -1.0000e+00
       -2 -1    0    0    0  501 -0.0000000000e+00 -0.0000000000e+00 -7.3371043025e+02 7.3371043025e+02 0.0000000000e+00 0.0000e+00 1.0000e+00
      -13  1    1    2    0    0 -1.6488891759e+02 -4.2307599764e+01 -6.9849545276e+02 7.1893962589e+02 0.0000000000e+00 0.0000e+00 1.0000e+00
       13  1    1    2    0    0 +1.6488891759e+02 +4.2307599764e+01 +2.6487241744e+02 3.1485819930e+02 0.0000000000e+00 0.0000e+00 -1.0000e+00
<mgrwt>
<rscale>  0 0.93846098E+03</rscale>
<asrwt>0</asrwt>
<pdfrwt beam="1">  1        2 0.46167292E-01 0.93846098E+03</pdfrwt>
<pdfrwt beam="2">  1       -2 0.11287853E+00 0.93846098E+03</pdfrwt>
<totfact> 0.83063034E+01</totfact>
</mgrwt>
<rwgt>
<wgt id='morphing_basis_vector_1'> +1.8453134e-04 </wgt>
<wgt id='morphing_basis_vector_2'> +1.1426249e-04 </wgt>
<wgt id='morphing_basis_vector_3'> +1.7451708e-04 </wgt>
<wgt id='morphing_basis_vector_4'> +1.0408985e-04 </wgt>
<wgt id='morphing_basis_vector_5'> +1.6440497e-04 </wgt>
</rwgt>
</event>
<event>
 4      1 +1.4786900e-06 9.57897000e+02 7.81860800e-03 8.72557200e-02
        2 -1    0    0  501    0 +0.0000000000e+00 +0.0000000000e+00 +2.6393834669e+03 2.6393834669e+03 0.0000000000e+00 0.0000e+00 1.0000e+00
       -2 -1    0    0    0  501 -0.0000000000e+00 -0.0000000000e+00 -8.6911079716e+01 8.6911079716e+01 0.0000000000e+00 0.0000e+00 -1.0000e+00
      -13  1    1    2    0    0 +1.1375869013e+02 +3.7792824114e+02 +2.0484800087e+03 2.0861546302e+03 0.0000000000e+00 0.0000e+00 1.0000e+00
       13  1    1    2    0    0 -1.1375869013e+02 -3.7792824114e+02 +5.0399237848e+02 6.4013991642e+02 0.0000000000e+00 0.0000e+00 -1.0000e+00
<mgrwt>
<rscale>  0 0.95789700E+03</rscale>
<asrwt>0</asrwt>
<pdfrwt beam="1">  1        2 0.40605893E+00 0.95789700E+03</pdfrwt>
<pdfrwt beam="2">  1       -2 0.13370937E-01 0.95789700E+03</pdfrwt>
<totfact> 0.13823899E+02</totfact>
</mgrwt>
<rwgt>
<wgt id='morphing_basis_vector_1'> +2.4152762e-04 </wgt>
<wgt id='morphing_basis_vector_2'> +2.5284539e-04 </wgt>
<wgt id='morphing_basis_vector_3'> +2.2641193e-04 </wgt>
<wgt id='morphing_basis_vector_4'> +5.0034571e-05 </wgt>
<wgt id='morphing_basis_vector_5'> +1.7623332e-04 </wgt>
</rwgt>
</event>
<event>
 4      1 +1.4786900e-06 9.23935600e+02 7.81860800e-03 8.76040000e-02
        2 -1    0    0  501    0 +0.0000000000e+00 +0.0000000000e+00 +4.1325684531e+02 4.1325684531e+02 0.0000000000e+00 0.0000e+00 1.0000e+00
       -2 -1    0    0    0  501 -0.0000000000e+00 -0.0000000000e+00 -5.1642034485e+02 5.1642034485e+02 0.0000000000e+00 0.0000e+00 -1.0000e+00
      -13  1    1    2    0    0 -1.3121970937e+02 +2.2885949237e+02 -4.3317313096e+02 5.0718265030e+02 0.0000000000e+00 0.0000e+00 -1.0000e+00
       13  1    1    2    0    0 +1.3121970937e+02 -2.2885949237e+02 +3.3000963143e+02 4.2249453986e+02 0.0000000000e+00 0.0000e+00 1.0000e+00
<mgrwt>
<rscale>  0 0.92393559E+03</rscale>
<asrwt>0</asrwt>
<pdfrwt beam="1">  1        2 0.63577977E-01 0.92393559E+03</pdfrwt>
<pdfrwt beam="2">  1       -2 0.79449283E-01 0.92393559E+03</pdfrwt>
<totfact> 0.13366596E+02</totfact>
</mgrwt>
<rwgt>
<wgt id='morphing_basis_vector_1'> +1.7436964e-04 </wgt>
<wgt id='morphing_basis_vector_2'> +1.0784017e-04 </wgt>
<wgt id='morphing_basis_vector_3'> +1.6415895e-04 </wgt>
<wgt id='morphing_basis_vector_4'> +9.7151100e-05 </wgt>
<wgt id='morphing_basis_vector_5'> +1.5349160e-04 </wgt>
</rwgt>
</event>
<event>
 4      1 +1.4786900e-06 9.25099700e+02 7.81860800e-03 8.75918000e-02
        2 -1    0    0  501    0 +0.0000000000e+00 +0.0000000000e+00 +3.2944090565e+03 3.2944090565e+03 0.0000000000e+00 0.0000e+00 -1.0000e+00
       -2 -1    0    0    0  501 -0.0000000000e+00 -0.0000000000e+00 -6.4944076450e+01 6.4944076450e+01 0.0000000000e+00 0.0000e+00 1.0000e+00
      -13  1    1    2    0    0 +4.0194644620e+02 +5.0272630142e+01 +8.0384426542e+02 9.0014103673e+02 0.0000000000e+00 0.0000e+00 1.0000e+00
       13  1    1    2    0    0 -4.0194644620e+02 -5.0272630142e+01 +2.4256207146e+03 2.4592120962e+03 0.0000000000e+00 0.0000e+00 -1.0000e+00
<mgrwt>
<rscale>  0 0.92509968E+03</rscale>
<asrwt>0</asrwt>
<pdfrwt beam="1">  1        2 0.50683203E+00 0.92509968E+03</pdfrwt>
<pdfrwt beam="2">  1       -2 0.99913989E-02 0.92509968E+03</pdfrwt>
<totfact> 0.84234222E+01</totfact>
</mgrwt>
<rwgt>
<wgt id='morphing_basis_vector_1'> +1.7593455e-04 </wgt>
<wgt id='morphing_basis_vector_2'> +1.1067535e-04 </wgt>
<wgt id='morphing_basis_vector_3'> +1.6560403e-04 </wgt>
<wgt id='morphing_basis_vector_4'> +9.6577788e-05 </wgt>
<wgt id='morphing_basis_vector_5'> +1.5428506e-04 </wgt>
</rwgt>
</event>
<event>
 4      1 +1.4786900e-06 9.73415700e+02 7.81860800e-03 8.71015500e-02
        2 -1    0    0  501    0 +0.0000000000e+00 +0.0000000000e+00 +4.4159952357e+02 4.4159952357e+02 0.0000000000e+00 0.0000e+00 -1.0000e+00
       -2 -1    0    0    0  501 -0.0000000000e+00 -0.0000000000e+00 -5.3642392907e+02 5.3642392907e+02 0.0000000000e+00 0.0000e+00 1.0000e+00
      -13  1    1    2    0    0 -4.4232968307e+02 +8.6090018131e+01 -2.3217806319e+02 5.0692572708e+02 0.0000000000e+00 0.0000e+00 1.0000e+00
       13  1    1    2    0    0 +4.4232968307e+02 -8.6090018131e+01 +1.3735365769e+02 4.7109772556e+02 0.0000000000e+00 0.0000e+00 -1.0000e+00
<mgrwt>
<rscale>  0 0.97341574E+03</rscale>
<asrwt>0</asrwt>
<pdfrwt beam="1">  1        2 0.67938388E-01 0.97341574E+03</pdfrwt>
<pdfrwt beam="2">  1       -2 0.82526758E-01 0.97341574E+03</pdfrwt>
<totfact> 0.11340777E+02</totfact>
</mgrwt>
<rwgt>
<wgt id='morphing_basis_vector_1'> +2.1268010e-04 </wgt>
<wgt id='morphing_basis_vector_2'> +1.3642983e-04 </wgt>
<wgt id='morphing_basis_vector_3'> +2.0308662e-04 </wgt>
<wgt id='morphing_basis_vector_4'> +1.1952321e-04 </wgt>
<wgt id='morphing_basis_vector_5'> +1.9281356e-04 </wgt>
</rwgt>
</event>
<event>
 4      1 +1.4786900e-06 1.04481500e+03 7.81860800e-03 8.64288700e-02
        2 -1    0    0  501    0 +0.0000000000e+00 +0.0000000000e+00 +5.5215030396e+02 5.5215030396e+02 0.0000000000e+00 0.0000e+00 -1.0000e+00
       -2 -1    0    0    0  501 -0.0000000000e+00 -0.0000000000e+00 -4.9426732795e+02 4.9426732795e+02 0.0000000000e+00 0.0000e+00 1.0000e+00
      -13  1    1    2    0    0 -1.5368889376e+02 +1.8755805336e+02 -4.3448995571e+02 4.9757393527e+02 0.0000000000e+00 0.0000e+00 1.0000e+00
       13  1    1    2    0    0 +1.5368889376e+02 -1.8755805336e+02 +4.9237293172e+02 5.4884369663e+02 0.0000000000e+00 0.0000e+00 -1.0000e+00
<mgrwt>
<rscale>  0 0.10448155E+04</rscale>
<asrwt>0</asrwt>
<pdfrwt beam="1">  1        2 0.84946201E-01 0.10448155E+04</pdfrwt>
<pdfrwt beam="2">  1       -2 0.76041127E-01 0.10448155E+04</pdfrwt>
<totfact> 0.10512532E+02</totfact>
</mgrwt>
<rwgt>
<wgt id='morphing_basis_vector_1'> +2.7422626e-04 </wgt>
<wgt id='morphing_basis_vector_2'> +1.7259754e-04 </wgt>
<wgt id='morphing_basis_vector_3'> +2.6674504e-04 </wgt>
<wgt id='morphing_basis_vector_4'> +1.6554741e-04 </wgt>
<wgt id='morphing_basis_vector_5'> +2.6230213e-04 </wgt>
</rwgt>
</event>
<event>
 4      1 +1.4786900e-06 9.81439200e+02 7.81860800e-03 8.70230100e-02
        2 -1    0    0  501    0 +0.0000000000e+00 +0.0000000000e+00 +4.0856461050e+02 4.0856461050e+02 0.0000000000e+00 0.0000e+00 1.0000e+00
       -2 -1    0    0    0  501 -0.0000000000e+00 -0.0000000000e+00 -5.8939451657e+02 5.8939451657e+02 0.0000000000e+00 0.0000e+00 -1.0000e+00
      -13  1    1    2    0    0 -1.0882875571e+02 +3.3792392519e+02 -4.3489376662e+02 5.6139902523e+02 0.0000000000e+00 0.0000e+00 -1.0000e+00
       13  1    1    2    0    0 +1.0882875571e+02 -3.3792392519e+02 +2.5406386055e+02 4.3656010184e+02 0.0000000000e+00 0.0000e+00 1.0000e+00
<mgrwt>
<rscale>  0 0.98143923E+03</rscale>
<asrwt>0</asrwt>
<pdfrwt beam="1">  1        2 0.62856094E-01 0.98143923E+03</pdfrwt>
<pdfrwt beam="2">  1       -2 0.90676080E-01 0.98143923E+03</pdfrwt>
<totfact> 0.99540418E+01</totfact>
</mgrwt>
<rwgt>
<wgt id='morphing_basis_vector_1'> +2.1777816e-04 </wgt>
<wgt id='morphing_basis_vector_2'> +1.3645374e-04 </wgt>
<wgt id='morphing_basis_vector_3'> +2.0850043e-04 </wgt>
<wgt id='morphing_basis_vector_4'> +1.2602590e-04 </wgt>
<wgt id='morphing_basis_vector_5'> +1.9996698e-04 </wgt>
</rwgt>
</event>
<event>
 4      1 +1.4786900e-06 1.02851200e+03 7.81860800e-03 8.65774500e-02
        2 -1    0    0  501    0 +0.0000000000e+00 +0.0000000000e+00 +1.8184884123e+03 1.8184884123e+03 0.0000000000e+00 0.0000e+00 1.0000e+00
       -2 -1    0    0    0  501 -0.0000000000e+00 -0.0000000000e+00 -1.4542804553e+02 1.4542804553e+02 0.0000000000e+00 0.0000e+00 -1.0000e+00
      -13  1    1    2    0    0 +7.5859839906e+01 -3.6533544860e+02 +1.6079633767e+02 4.0630058765e+02 0.0000000000e+00 0.0000e+00 1.0000e+00
       13  1    1    2    0    0 -7.5859839906e+01 +3.6533544860e+02 +1.5122640291e+03 1.5576158702e+03 0.0000000000e+00 0.0000e+00 -1.0000e+00
<mgrwt>
<rscale>  0 0.10285120E+04</rscale>
<asrwt>0</asrwt>
<pdfrwt beam="1">  1        2 0.27976743E+00 0.10285120E+04</pdfrwt>
<pdfrwt beam="2">  1       -2 0.22373547E-01 0.10285120E+04</pdfrwt>
<totfact> 0.17314459E+02</totfact>
</mgrwt>
<rwgt>
<wgt id='morphing_basis_vector_1'> +2.5897530e-04 </wgt>
<wgt id='morphing_basis_vector_2'> +1.6338657e-04 </wgt>
<wgt id='morphing_basis_vector_3'> +2.5094757e-04 </wgt>
<wgt id='morphing_basis_vector_4'> +1.5424413e-04 </wgt>
<wgt id='morphing_basis_vector_5'> +2.4505181e-04 </wgt>
</rwgt>
</event>
<event>
 4      1 +1.4786900e-06 1.01080000e+03 7.81860800e-03 8.67421400e-02
        2 -1    0    0  501    0 +0.0000000000e+00 +0.0000000000e+00 +5.3039900734e+02 5.3039900734e+02 0.0000000000e+00 0.0000e+00 -1.0000e+00
       -2 -1    0    0    0  501 -0.0000000000e+00 -0.0000000000e+00 -4.8157878653e+02 4.8157878653e+02 0.0000000000e+00 0.0000e+00 1.0000e+00
      -13  1    1    2    0    0 -2.5000645652e+02 +1.2600842092e+02 -3.9685057939e+02 4.8566627719e+02 0.0000000000e+00 0.0000e+00 1.0000e+00
       13  1    1    2    0    0 +2.5000645652e+02 -1.2600842092e+02 +4.4567080019e+02 5.2631151668e+02 0.0000000000e+00 0.0000e+00 -1.0000e+00
<mgrwt>
<rscale>  0 0.10107995E+04</rscale>
<asrwt>0</asrwt>
<pdfrwt beam="1">  1        2 0.81599848E-01 0.10107995E+04</pdfrwt>
<pdfrwt beam="2">  1       -2 0.74089044E-01 0.10107995E+04</pdfrwt>
<totfact> 0.11688649E+02</totfact>
</mgrwt>
<rwgt>
<wgt id='morphing_basis_vector_1'> +2.4258166e-04 </wgt>
<wgt id='morphing_basis_vector_2'> +1.5207524e-04 </wgt>
<wgt id='morphing_basis_vector_3'> +2.3404467e-04 </wgt>
<wgt id='morphing_basis_vector_4'> +1.4351438e-04 </wgt>
<wgt id='morphing_basis_vector_5'> +2.2732207e-04 </wgt>
</rwgt>
</event>
<event>
 4      1 +1.4786900e-06 1.00740800e+03 7.81860800e-03 8.67740800e-02
        2 -1    0    0  501    0 +0.0000000000e+00 +0.0000000000e+00 +1.9686403645e+03 1.9686403645e+03 0.0000000000e+00 0.0000e+00 1.0000e+00
       -2 -1    0    0    0  501 -0.0000000000e+00 -0.0000000000e+00 -1.2887966145e+02 1.2887966145e+02 0.0000000000e+00 0.0000e+00 -1.0000e+00
      -13  1    1    2    0    0 -5.8658237003e+00 -5.0202287533e+02 +1.0046175231e+03 1.1230840320e+03 0.0000000000e+00 0.0000e+00 -1.0000e+00
       13  1    1    2    0    0 +5.8658237003e+00 +5.0202287533e+02 +8.3514317988e+02 9.7443599387e+02 0.0000000000e+00 0.0000e+00 1.0000e+00
<mgrwt>
<rscale>  0 0.10074080E+04</rscale>
<asrwt>0</asrwt>
<pdfrwt beam="1">  1        2 0.30286773E+00 0.10074080E+04</pdfrwt>
<pdfrwt beam="2">  1       -2 0.19827642E-01 0.10074080E+04</pdfrwt>
<totfact> 0.17544343E+02</totfact>
</mgrwt>
<rwgt>
<wgt id='morphing_basis_vector_1'> +2.5092193e-04 </wgt>
<wgt id='morphing_basis_vector_2'> +1.8444334e-04 </wgt>
<wgt id='morphing_basis_vector_3'> +2.4159980e-04 </wgt>
<wgt id='morphing_basis_vector_4'> +1.2384603e-04 </wgt>
<wgt id='morphing_basis_vector_5'> +2.2297690e-04 </wgt>
</rwgt>
</event>
<event>
 4      1 +1.4786900e-06 9.31864400e+02 7.81860800e-03 8.75213000e-02
        2 -1    0    0  501    0 +0.0000000000e+00 +0.0000000000e+00 +2.2800013588e+02 2.2800013588e+02 0.0000000000e+00 0.0000e+00 1.0000e+00
       -2 -1    0    0    0  501 -0.0000000000e+00 -0.0000000000e+00 -9.5216096862e+02 9.5216096862e+02 0.0000000000e+00 0.0000e+00 -1.0000e+00
      -13  1    1    2    0    0 +7.5137411576e+01 +3.2991819952e+02 -7.6774280318e+02 8.3899979787e+02 0.0000000000e+00 0.0000e+00 -1.0000e+00
       13  1    1    2    0    0 -7.5137411576e+01 -3.2991819952e+02 +4.3581970433e+01 3.4116130663e+02 0.0000000000e+00 0.0000e+00 1.0000e+00
<mgrwt>
<rscale>  0 0.93186443E+03</rscale>
<asrwt>0</asrwt>
<pdfrwt beam="1">  1        2 0.35076944E-01 0.93186443E+03</pdfrwt>
<pdfrwt beam="2">  1       -2 0.14648630E+00 0.93186443E+03</pdfrwt>
<totfact> 0.56595345E+01</totfact>
</mgrwt>
<rwgt>
<wgt id='morphing_basis_vector_1'> +1.8006789e-04 </wgt>
<wgt id='morphing_basis_vector_2'> +1.1193814e-04 </wgt>
<wgt id='morphing_basis_vector_3'> +1.6992629e-04 </wgt>
<wgt id='morphing_basis_vector_4'> +1.0059252e-04 </wgt>
<wgt id='morphing_basis_vector_5'> +1.5936444e-04 </wgt>
</rwgt>
</event>
<event>
 4      1 +1.4786900e-06 9.88142300e+02 7.81860800e-03 8.69580000e-02
        2 -1    0    0  501    0 +0.0000000000e+00 +0.0000000000e+00 +1.1880226938e+03 1.1880226938e+03 0.0000000000e+00 0.0000e+00 1.0000e+00
       -2 -1    0    0    0  501 -0.0000000000e+00 -0.0000000000e+00 -2.0547274502e+02 2.0547274502e+02 0.0000000000e+00 0.0000e+00 -1.0000e+00
      -13  1    1    2    0    0 -4.2353693720e+02 +9.2206120406e+00 +1.3274199124e+02 4.4394706114e+02 0.0000000000e+00 0.0000e+00 -1.0000e+00
       13  1    1    2    0    0 +4.2353693720e+02 -9.2206120406e+00 +8.4980795757e+02 9.4954837771e+02 0.0000000000e+00 0.0000e+00 1.0000e+00
<mgrwt>
<rscale>  0 0.98814227E+03</rscale>
<asrwt>0</asrwt>
<pdfrwt beam="1">  1        2 0.18277272E+00 0.98814227E+03</pdfrwt>
<pdfrwt beam="2">  1       -2 0.31611192E-01 0.98814227E+03</pdfrwt>
<totfact> 0.21489353E+02</totfact>
</mgrwt>
<rwgt>
<wgt id='morphing_basis_vector_1'> +2.2391355e-04 </wgt>
<wgt id='morphing_basis_vector_2'> +1.4188589e-04 </wgt>
<wgt id='morphing_basis_vector_3'> +2.1473532e-04 </wgt>
<wgt id='morphing_basis_vector_4'> +1.2887119e-04 </wgt>
<wgt id='morphing_basis_vector_5'> +2.0592888e-04 </wgt>
</rwgt>
</event>
<event>
 4      1 +1.4786900e-06 9.83363700e+02 7.81860800e-03 8.70042900e-02
        2 -1    0    0  501    0 +0.0000000000e+00 +0.0000000000e+00 +1.8340851422e+02 1.8340851422e+02 0.0000000000e+00 0.0000e+00 -1.0000e+00
       -2 -1    0    0    0  501 -0.0000000000e+00 -0.0000000000e+00 -1.3181014301e+03 1.3181014301e+03 0.0000000000e+00 0.0000e+00 1.0000e+00
      -13  1    1    2    0    0 +2.5743916288e+02 +3.3892778205e+02 -9.4324004628e+02 1.0348182202e+03 0.0000000000e+00 0.0000e+00 1.0000e+00
       13  1    1    2    0    0 -2.5743916288e+02 -3.3892778205e+02 -1.9145286957e+02 4.6669172404e+02 0.0000000000e+00 0.0000e+00 -1.0000e+00
<mgrwt>
<rscale>  0 0.98336367E+03</rscale>
<asrwt>0</asrwt>
<pdfrwt beam="1">  1        2 0.28216694E-01 0.98336367E+03</pdfrwt>
<pdfrwt beam="2">  1       -2 0.20278484E+00 0.98336367E+03</pdfrwt>
<totfact> 0.26618980E+01</totfact>
</mgrwt>
<rwgt>
<wgt id='morphing_basis_vector_1'> +2.2001447e-04 </wgt>
<wgt id='morphing_basis_vector_2'> +1.3947823e-04 </wgt>
<wgt id='morphing_basis_vector_3'> +2.1071862e-04 </wgt>
<wgt id='morphing_basis_vector_4'> +1.2609387e-04 </wgt>
<wgt id='morphing_basis_vector_5'> +2.0162200e-04 </wgt>
</rwgt>
</event>
<event>
 4      1 +1.4786900e-06 9.57492500e+02 7.81860800e-03 8.72597700e-02
        2 -1    0    0  501    0 +0.0000000000e+00 +0.0000000000e+00 +1.2762123065e+03 1.2762123065e+03 0.0000000000e+00 0.0000e+00 1.0000e+00
       -2 -1    0    0    0  501 -0.0000000000e+00 -0.0000000000e+00 -1.7959237137e+02 1.7959237137e+02 0.0000000000e+00 0.0000e+00 -1.0000e+00
      -13  1    1    2    0    0 +2.3628601697e+02 -6.0535896030e+01 -7.8032120049e+01 2.5609507664e+02 0.0000000000e+00 0.0000e+00 -1.0000e+00
       13  1    1    2    0    0 -2.3628601697e+02 +6.0535896030e+01 +1.1746520552e+03 1.1997096012e+03 0.0000000000e+00 0.0000e+00 1.0000e+00
<mgrwt>
<rscale>  0 0.95749255E+03</rscale>
<asrwt>0</asrwt>
<pdfrwt beam="1">  1        2 0.19634035E+00 0.95749255E+03</pdfrwt>
<pdfrwt beam="2">  1       -2 0.27629596E-01 0.95749255E+03</pdfrwt>
<totfact> 0.24281734E+02</totfact>
</mgrwt>
<rwgt>
<wgt id='morphing_basis_vector_1'> +1.9864999e-04 </wgt>
<wgt id='morphing_basis_vector_2'> +1.2347647e-04 </wgt>
<wgt id='morphing_basis_vector_3'> +1.8892879e-04 </wgt>
<wgt id='morphing_basis_vector_4'> +1.1354688e-04 </wgt>
<wgt id='morphing_basis_vector_5'> +1.7953535e-04 </wgt>
</rwgt>
</event>
<event>
 4      1 +1.4786900e-06 9.96338800e+02 7.81860800e-03 8.68792200e-02
        2 -1    0    0  501    0 +0.0000000000e+00 +0.0000000000e+00 +2.3596878688e+02 2.3596878688e+02 0.0000000000e+00 0.0000e+00 -1.0000e+00
       -2 -1    0    0    0  501 -0.0000000000e+00 -0.0000000000e+00 -1.0517185414e+03 1.0517185414e+03 0.0000000000e+00 0.0000e+00 1.0000e+00
      -13  1    1    2    0    0 -7.5416063908e+01 -4.9235786504e+02 -3.9714714520e+02 6.3704764728e+02 0.0000000000e+00 0.0000e+00 1.0000e+00
       13  1    1    2    0    0 +7.5416063908e+01 +4.9235786504e+02 -4.1860260931e+02 6.5063968099e+02 0.0000000000e+00 0.0000e+00 -1.0000e+00
<mgrwt>
<rscale>  0 0.99633879E+03</rscale>
<asrwt>0</asrwt>
<pdfrwt beam="1">  1        2 0.36302890E-01 0.99633879E+03</pdfrwt>
<pdfrwt beam="2">  1       -2 0.16180285E+00 0.99633879E+03</pdfrwt>
<totfact> 0.40620731E+01</totfact>
</mgrwt>
<rwgt>
<wgt id='morphing_basis_vector_1'> +2.3864708e-04 </wgt>
<wgt id='morphing_basis_vector_2'> +1.7008114e-04 </wgt>
<wgt id='morphing_basis_vector_3'> +2.2908421e-04 </wgt>
<wgt id='morphing_basis_vector_4'> +1.2153472e-04 </wgt>
<wgt id='morphing_basis_vector_5'> +2.1274773e-04 </wgt>
</rwgt>
</event>
<event>
 4      1 +1.4786900e-06 1.04338800e+03 7.81860800e-03 8.64417700e-02
        2 -1    0    0  501    0 +0.0000000000e+00 +0.0000000000e+00 +3.3927202375e+02 3.3927202375e+02 0.0000000000e+00 0.0000e+00 1.0000e+00
       -2 -1    0    0    0  501 -0.0000000000e+00 -0.0000000000e+00 -8.0220142953e+02 8.0220142953e+02 0.0000000000e+00 0.0000e+00 -1.0000e+00
      -13  1    1    2    0    0 +2.4175678178e+02 -6.0540234429e+01 -7.3286497605e+02 7.7408173641e+02 0.0000000000e+00 0.0000e+00 -1.0000e+00
       13  1    1    2    0    0 -2.4175678178e+02 +6.0540234429e+01 +2.6993557027e+02 3.6739171687e+02 0.0000000000e+00 0.0000e+00 1.0000e+00
<mgrwt>
<rscale>  0 0.10433878E+04</rscale>
<asrwt>0</asrwt>
<pdfrwt beam="1">  1        2 0.52195696E-01 0.10433878E+04</pdfrwt>
<pdfrwt beam="2">  1       -2 0.12341561E+00 0.10433878E+04</pdfrwt>
<totfact> 0.57058660E+01</totfact>
</mgrwt>
<rwgt>
<wgt id='morphing_basis_vector_1'> +2.7284091e-04 </wgt>
<wgt id='morphing_basis_vector_2'> +1.7170637e-04 </wgt>
<wgt id='morphing_basis_vector_3'> +2.6531039e-04 </wgt>
<wgt id='morphing_basis_vector_4'> +1.6457014e-04 </wgt>
<wgt id='morphing_basis_vector_5'> +2.6075923e-04 </wgt>
</rwgt>
</event>
<event>
 4      1 +1.4786900e-06 9.36044800e+02 7.81860800e-03 8.74780500e-02
        2 -1    0    0  501    0 +0.0000000000e+00 +0.0000000000e+00 +1.2087777084e+03 1.2087777084e+03 0.0000000000e+00 0.0000e+00 -1.0000e+00
       -2 -1    0    0    0  501 -0.0000000000e+00 -0.0000000000e+00 -1.8121193570e+02 1.8121193570e+02 0.0000000000e+00 0.0000e+00 1.0000e+00
      -13  1    1    2    0    0 -1.7294918386e+02 +4.0077310501e+02 +2.6302914551e+02 5.0962224568e+02 0.0000000000e+00 0.0000e+00 1.0000e+00
       13  1    1    2    0    0 +1.7294918386e+02 -4.0077310501e+02 +7.6453662719e+02 8.8036739843e+02 0.0000000000e+00 0.0000e+00 -1.0000e+00
<mgrwt>
<rscale>  0 0.93604476E+03</rscale>
<asrwt>0</asrwt>
<pdfrwt beam="1">  1        2 0.18596580E+00 0.93604476E+03</pdfrwt>
<pdfrwt beam="2">  1       -2 0.27878760E-01 0.93604476E+03</pdfrwt>
<totfact> 0.26175844E+02</totfact>
</mgrwt>
<rwgt>
<wgt id='morphing_basis_vector_1'> +1.8434488e-04 </wgt>
<wgt id='morphing_basis_vector_2'> +1.1783686e-04 </wgt>
<wgt id='morphing_basis_vector_3'> +1.7405218e-04 </wgt>
<wgt id='morphing_basis_vector_4'> +1.0065499e-04 </wgt>
<wgt id='morphing_basis_vector_5'> +1.6242631e-04 </wgt>
</rwgt>
</event>
<event>
 4      1 +1.4786900e-06 9.44673900e+02 7.81860800e-03 8.73895000e-02
        2 -1    0    0  501    0 +0.0000000000e+00 +0.0000000000e+00 +9.0658244210e+02 9.0658244210e+02 0.0000000000e+00 0.0000e+00 -1.0000e+00
       -2 -1    0    0    0  501 -0.0000000000e+00 -0.0000000000e+00 -2.4609147302e+02 2.4609147302e+02 0.0000000000e+00 0.0000e+00 1.0000e+00
      -13  1    1    2    0    0 -2.3987281276e+02 -3.0956393768e+02 +8.0310524905e+00 3.9170562368e+02 0.0000000000e+00 0.0000e+00 1.0000e+00
       13  1    1    2    0    0 +2.3987281276e+02 +3.0956393768e+02 +6.5245991659e+02 7.6096829144e+02 0.0000000000e+00 0.0000e+00 -1.0000e+00
<mgrwt>
<rscale>  0 0.94467393E+03</rscale>
<asrwt>0</asrwt>
<pdfrwt beam="1">  1        2 0.13947422E+00 0.94467393E+03</pdfrwt>
<pdfrwt beam="2">  1       -2 0.37860227E-01 0.94467393E+03</pdfrwt>
<totfact> 0.23110505E+02</totfact>
</mgrwt>
<rwgt>
<wgt id='morphing_basis_vector_1'> +1.8962375e-04 </wgt>
<wgt id='morphing_basis_vector_2'> +1.1894586e-04 </wgt>
<wgt id='morphing_basis_vector_3'> +1.7961483e-04 </wgt>
<wgt id='morphing_basis_vector_4'> +1.0626485e-04 </wgt>
<wgt id='morphing_basis_vector_5'> +1.6919051e-04 </wgt>
</rwgt>
</event>
<event>
 4      1 +1.4786900e-06 9.24928300e+02 7.81860800e-03 8.75936000e-02
        2 -1    0    0  501    0 +0.0000000000e+00 +0.0000000000e+00 +1.3271233140e+03 1.3271233140e+03 0.0000000000e+00 0.0000e+00 -1.0000e+00
       -2 -1    0    0    0  501 -0.0000000000e+00 -0.0000000000e+00 -1.6115540235e+02 1.6115540235e+02 0.0000000000e+00 0.0000e+00 1.0000e+00
      -13  1    1    2    0    0 -4.9815885073e+01 -3.0161048385e+02 +2.4603543710e+01 3.0668524702e+02 0.0000000000e+00 0.0000e+00 1.0000e+00
       13  1    1    2    0    0 +4.9815885073e+01 +3.0161048385e+02 +1.1413643679e+03 1.1815934693e+03 0.0000000000e+00 0.0000e+00 -1.0000e+00
<mgrwt>
<rscale>  0 0.92492830E+03</rscale>
<asrwt>0</asrwt>
<pdfrwt beam="1">  1        2 0.20417281E+00 0.92492830E+03</pdfrwt>
<pdfrwt beam="2">  1       -2 0.24793140E-01 0.92492830E+03</pdfrwt>
<totfact> 0.27451632E+02</totfact>
</mgrwt>
<rwgt>
<wgt id='morphing_basis_vector_1'> +1.7512734e-04 </wgt>
<wgt id='morphing_basis_vector_2'> +1.0850510e-04 </wgt>
<wgt id='morphing_basis_vector_3'> +1.6491547e-04 </wgt>
<wgt id='morphing_basis_vector_4'> +9.7501606e-05 </wgt>
<wgt id='morphing_basis_vector_5'> +1.5421401e-04 </wgt>
</rwgt>
</event>
<event>
 4      1 +1.4786900e-06 9.13660000e+02 7.81860800e-03 8.77124700e-02
        2 -1    0    0  501    0 +0.0000000000e+00 +0.0000000000e+00 +5.6335605176e+02 5.6335605176e+02 0.0000000000e+00 0.0000e+00 1.0000e+00
       -2 -1    0    0    0  501 -0.0000000000e+00 -0.0000000000e+00 -3.7044712900e+02 3.7044712900e+02 0.0000000000e+00 0.0000e+00 -1.0000e+00
      -13  1    1    2    0    0 -1.2373796026e+02 +2.6473773605e+01 -3.5217829128e+02 3.7422118105e+02 0.0000000000e+00 0.0000e+00 -1.0000e+00
       13  1    1    2    0    0 +1.2373796026e+02 -2.6473773605e+01 +5.4508721403e+02 5.5958199971e+02 0.0000000000e+00 0.0000e+00 1.0000e+00
<mgrwt>
<rscale>  0 0.91365996E+03</rscale>
<asrwt>0</asrwt>
<pdfrwt beam="1">  1        2 0.86670162E-01 0.91365996E+03</pdfrwt>
<pdfrwt beam="2">  1       -2 0.56991866E-01 0.91365996E+03</pdfrwt>
<totfact> 0.19007546E+02</totfact>
</mgrwt>
<rwgt>
<wgt id='morphing_basis_vector_1'> +1.6734548e-04 </wgt>
<wgt id='morphing_basis_vector_2'> +1.0315958e-04 </wgt>
<wgt id='morphing_basis_vector_3'> +1.5703484e-04 </wgt>
<wgt id='morphing_basis_vector_4'> +9.2597791e-05 </wgt>
<wgt id='morphing_basis_vector_5'> +1.4610414e-04 </wgt>
</rwgt>
</event>
<event>
 4      1 +1.4786900e-06 9.47327300e+02 7.81860800e-03 8.73624700e-02
        2 -1    0    0  501    0 +0.0000000000e+00 +0.0000000000e+00 +4.0578163623e+02 4.0578163623e+02 0.0000000000e+00 0.0000e+00 -1.0000e+00
       -2 -1    0    0    0  501 -0.0000000000e+00 -0.0000000000e+00 -5.5290150120e+02 5.5290150120e+02 0.0000000000e+00 0.0000e+00 1.0000e+00
      -13  1    1    2    0    0 -4.3292074567e+02 -9.2840479453e+01 -2.4385530442e+02 5.0547515879e+02 0.0000000000e+00 0.0000e+00 1.0000e+00
       13  1    1    2    0    0 +4.3292074567e+02 +9.2840479453e+01 +9.6735439456e+01 4.5320797864e+02 0.0000000000e+00 0.0000e+00 -1.0000e+00
<mgrwt>
<rscale>  0 0.94732735E+03</rscale>
<asrwt>0</asrwt>
<pdfrwt beam="1">  1        2 0.62427945E-01 0.94732735E+03</pdfrwt>
<pdfrwt beam="2">  1       -2 0.85061769E-01 0.94732735E+03</pdfrwt>
<totfact> 0.11662038E+02</totfact>
</mgrwt>
<rwgt>
<wgt id='morphing_basis_vector_1'> +1.9264949e-04 </wgt>
<wgt id='morphing_basis_vector_2'> +1.2346796e-04 </wgt>
<wgt id='morphing_basis_vector_3'> +1.8253087e-04 </wgt>
<wgt id='morphing_basis_vector_4'> +1.0598609e-04 </wgt>
<wgt id='morphing_basis_vector_5'> +1.7119615e-04 </wgt>
</rwgt>
</event>
<event>
 4      1 +1.4786900e-06 9.62692600e+02 7.81860800e-03 8.72077500e-02
        2 -1    0    0  501    0 +0.0000000000e+00 +0.0000000000e+00 +3.4408246671e+02 3.4408246671e+02 0.0000000000e+00 0.0000e+00 1.0000e+00
       -2 -1    0    0    0  501 -0.0000000000e+00 -0.0000000000e+00 -6.7336834869e+02 6.7336834869e+02 0.0000000000e+00 0.0000e+00 -1.0000e+00
      -13  1    1    2    0    0 -4.5126776103e+02 +1.5673202763e+02 -2.2705010622e+02 5.2892274612e+02 0.0000000000e+00 0.0000e+00 -1.0000e+00
       13  1    1    2    0    0 +4.5126776103e+02 -1.5673202763e+02 -1.0223577576e+02 4.8852806928e+02 0.0000000000e+00 0.0000e+00 1.0000e+00
<mgrwt>
<rscale>  0 0.96269256E+03</rscale>
<asrwt>0</asrwt>
<pdfrwt beam="1">  1        2 0.52935764E-01 0.96269256E+03</pdfrwt>
<pdfrwt beam="2">  1       -2 0.10359513E+00 0.96269256E+03</pdfrwt>
<totfact> 0.88055398E+01</totfact>
</mgrwt>
<rwgt>
<wgt id='morphing_basis_vector_1'> +2.0718173e-04 </wgt>
<wgt id='morphing_basis_vector_2'> +1.3984061e-04 </wgt>
<wgt id='morphing_basis_vector_3'> +1.9700717e-04 </wgt>
<wgt id='morphing_basis_vector_4'> +1.0942577e-04 </wgt>
<wgt id='morphing_basis_vector_5'> +1.8344931e-04 </wgt>
</rwgt>
</event>
<event>
 4      1 +1.4786900e-06 9.53697400e+02 7.81860800e-03 8.72979600e-02
        2 -1    0    0  501    0 +0.0000000000e+00 +0.0000000000e+00 +9.1505243567e+02 9.1505243567e+02 0.0000000000e+00 0.0000e+00 1.0000e+00
       -2 -1    0    0    0  501 -0.0000000000e+00 -0.0000000000e+00 -2.4849360005e+02 2.4849360005e+02 0.0000000000e+00 0.0000e+00 -1.0000e+00
      -13  1    1    2    0    0 +3.5095395879e+02 +7.5787694067e+01 -4.9571630878e+01 3.6244972389e+02 0.0000000000e+00 0.0000e+00 -1.0000e+00
       13  1    1    2    0    0 -3.5095395879e+02 -7.5787694067e+01 +7.1613046650e+02 8.0109631182e+02 0.0000000000e+00 0.0000e+00 1.0000e+00
<mgrwt>
<rscale>  0 0.95369738E+03</rscale>
<asrwt>0</asrwt>
<pdfrwt beam="1">  1        2 0.14077730E+00 0.95369738E+03</pdfrwt>
<pdfrwt beam="2">  1       -2 0.38229785E-01 0.95369738E+03</pdfrwt>
<totfact> 0.22402184E+02</totfact>
</mgrwt>
<rwgt>
<wgt id='morphing_basis_vector_1'> +1.9606049e-04 </wgt>
<wgt id='morphing_basis_vector_2'> +1.2247664e-04 </wgt>
<wgt id='morphing_basis_vector_3'> +1.8623717e-04 </wgt>
<wgt id='morphing_basis_vector_4'> +1.1117955e-04 </wgt>
<wgt id='morphing_basis_vector_5'> +1.7641584e-04 </wgt>
</rwgt>
</event>
<event>
 4      1 +1.4786900e-06 1.03139400e+03 7.81860800e-03 8.65509800e-02
        2 -1    0    0  501    0 +0.0000000000e+00 +0.0000000000e+00 +7.3816670854e+02 7.3816670854e+02 0.0000000000e+00 0.0000e+00 -1.0000e+00
       -2 -1    0    0    0  501 -0.0000000000e+00 -0.0000000000e+00 -3.6027558721e+02 3.6027558721e+02 0.0000000000e+00 0.0000e+00 1.0000e+00
      -13  1    1    2    0    0 +2.6318739368e+02 -3.1027150188e+02 -1.4852472871e+02 4.3312308195e+02 0.0000000000e+00 0.0000e+00 1.0000e+00
       13  1    1    2    0    0 -2.6318739368e+02 +3.1027150188e+02 +5.2641585005e+02 6.6531921380e+02 0.0000000000e+00 0.0000e+00 -1.0000e+00
<mgrwt>
<rscale>  0 0.10313941E+04</rscale>
<asrwt>0</asrwt>
<pdfrwt beam="1">  1        2 0.11356411E+00 0.10313941E+04</pdfrwt>
<pdfrwt beam="2">  1       -2 0.55427013E-01 0.10313941E+04</pdfrwt>
<totfact> 0.14425329E+02</totfact>
</mgrwt>
<rwgt>
<wgt id='morphing_basis_vector_1'> +2.6191422e-04 </wgt>
<wgt id='morphing_basis_vector_2'> +1.6586838e-04 </wgt>
<wgt id='morphing_basis_vector_3'> +2.5397037e-04 </wgt>
<wgt id='morphing_basis_vector_4'> +1.5573965e-04 </wgt>
<wgt id='morphing_basis_vector_5'> +2.4801083e-04 </wgt>
</rwgt>
</event>
<event>
 4      1 +1.4786900e-06 9.28406300e+02 7.81860800e-03 8.75572600e-02
        2 -1    0    0  501    0 +0.0000000000e+00 +0.0000000000e+00 +2.0897192151e+02 2.0897192151e+02 0.0000000000e+00 0.0000e+00 1.0000e+00
       -2 -1    0    0    0  501 -0.0000000000e+00 -0.0000000000e+00 -1.0311651687e+03 1.0311651687e+03 0.0000000000e+00 0.0000e+00 -1.0000e+00
      -13  1    1    2    0    0 +3.3345838903e+02 -2.3189241715e+02 -7.1132102742e+02 8.1911305349e+02 0.0000000000e+00 0.0000e+00 -1.0000e+00
       13  1    1    2    0    0 -3.3345838903e+02 +2.3189241715e+02 -1.1087221973e+02 4.2102403668e+02 0.0000000000e+00 0.0000e+00 1.0000e+00
<mgrwt>
<rscale>  0 0.92840630E+03</rscale>
<asrwt>0</asrwt>
<pdfrwt beam="1">  1        2 0.32149526E-01 0.92840630E+03</pdfrwt>
<pdfrwt beam="2">  1       -2 0.15864079E+00 0.92840630E+03</pdfrwt>
<totfact> 0.49732259E+01</totfact>
</mgrwt>
<rwgt>
<wgt id='morphing_basis_vector_1'> +1.7823447e-04 </wgt>
<wgt id='morphing_basis_vector_2'> +1.1217072e-04 </wgt>
<wgt id='morphing_basis_vector_3'> +1.6794726e-04 </wgt>
<wgt id='morphing_basis_vector_4'> +9.8103808e-05 </wgt>
<wgt id='morphing_basis_vector_5'> +1.5672960e-04 </wgt>
</rwgt>
</event>
<event>
 4      1 +1.4786900e-06 1.04327400e+03 7.81860800e-03 8.64428000e-02
        2 -1    0    0  501    0 +0.0000000000e+00 +0.0000000000e+00 +9.7813614583e+02 9.7813614583e+02 0.0000000000e+00 0.0000e+00 -1.0000e+00
       -2 -1    0    0    0  501 -0.0000000000e+00 -0.0000000000e+00 -2.7818716908e+02 2.7818716908e+02 0.0000000000e+00 0.0000e+00 1.0000e+00
      -13  1    1    2    0    0 -4.1824265458e+02 +3.0967834627e+02 +3.9301274091e+02 6.5214002391e+02 0.0000000000e+00 0.0000e+00 1.0000e+00
       13  1    1    2    0    0 +4.1824265458e+02 -3.0967834627e+02 +3.0693623584e+02 6.0418329101e+02 0.0000000000e+00 0.0000e+00 -1.0000e+00
<mgrwt>
<rscale>  0 0.10432736E+04</rscale>
<asrwt>0</asrwt>
<pdfrwt beam="1">  1        2 0.15048248E+00 0.10432736E+04</pdfrwt>
<pdfrwt beam="2">  1       -2 0.42798027E-01 0.10432736E+04</pdfrwt>
<totfact> 0.16442853E+02</totfact>
</mgrwt>
<rwgt>
<wgt id='morphing_basis_vector_1'> +2.8515917e-04 </wgt>
<wgt id='morphing_basis_vector_2'> +2.0919533e-04 </wgt>
<wgt id='morphing_basis_vector_3'> +2.7739713e-04 </wgt>
<wgt id='morphing_basis_vector_4'> +1.4474461e-04 </wgt>
<wgt id='morphing_basis_vector_5'> +2.5941527e-04 </wgt>
</rwgt>
</event>
<event>
 4      1 +1.4786900e-06 9.59087900e+02 7.81860800e-03 8.72437800e-02
        2 -1    0    0  501    0 +0.0000000000e+00 +0.0000000000e+00 +6.6331658987e+02 6.6331658987e+02 0.0000000000e+00 0.0000e+00 1.0000e+00
       -2 -1    0    0    0  501 -0.0000000000e+00 -0.0000000000e+00 -3.4668572034e+02 3.4668572034e+02 0.0000000000e+00 0.0000e+00 -1.0000e+00
      -13  1    1    2    0    0 -4.1856818863e+01 -2.5699013494e+02 -2.6576134414e+02 3.7205512331e+02 0.0000000000e+00 0.0000e+00 -1.0000e+00
       13  1    1    2    0    0 +4.1856818863e+01 +2.5699013494e+02 +5.8239221367e+02 6.3794718690e+02 0.0000000000e+00 0.0000e+00 1.0000e+00
<mgrwt>
<rscale>  0 0.95908788E+03</rscale>
<asrwt>0</asrwt>
<pdfrwt beam="1">  1        2 0.10204871E+00 0.95908788E+03</pdfrwt>
<pdfrwt beam="2">  1       -2 0.53336265E-01 0.95908788E+03</pdfrwt>
<totfact> 0.17844450E+02</totfact>
</mgrwt>
<rwgt>
<wgt id='morphing_basis_vector_1'> +1.9988295e-04 </wgt>
<wgt id='morphing_basis_vector_2'> +1.2431223e-04 </wgt>
<wgt id='morphing_basis_vector_3'> +1.9018764e-04 </wgt>
<wgt id='morphing_basis_vector_4'> +1.1434823e-04 </wgt>
<wgt id='morphing_basis_vector_5'> +1.8084697e-04 </wgt>
</rwgt>
</event>
<event>
 4      1 +1.4786900e-06 9.56416500e+02 7.81860800e-03 8.72705800e-02
        2 -1    0    0  501    0 +0.0000000000e+00 +0.0000000000e+00 +1.4766500121e+03 1.4766500121e+03 0.0000000000e+00 0.0000e+00 -1.0000e+00
       -2 -1    0    0    0  501 -0.0000000000e+00 -0.0000000000e+00 -1.5486615406e+02 1.5486615406e+02 0.0000000000e+00 0.0000e+00 1.0000e+00
      -13  1    1    2    0    0 -2.8880980770e+02 -1.7299067288e+02 +8.1535213468e+01 3.4638832105e+02 0.0000000000e+00 0.0000e+00 1.0000e+00
       13  1    1    2    0    0 +2.8880980770e+02 +1.7299067288e+02 +1.2402486446e+03 1.2851278451e+03 0.0000000000e+00 0.0000e+00 -1.0000e+00
<mgrwt>
<rscale>  0 0.95641645E+03</rscale>
<asrwt>0</asrwt>
<pdfrwt beam="1">  1        2 0.22717692E+00 0.95641645E+03</pdfrwt>
<pdfrwt beam="2">  1       -2 0.23825563E-01 0.95641645E+03</pdfrwt>
<totfact> 0.24173726E+02</totfact>
</mgrwt>
<rwgt>
<wgt id='morphing_basis_vector_1'> +1.9801173e-04 </wgt>
<wgt id='morphing_basis_vector_2'> +1.2349195e-04 </wgt>
<wgt id='morphing_basis_vector_3'> +1.8824882e-04 </wgt>
<wgt id='morphing_basis_vector_4'> +1.1272447e-04 </wgt>
<wgt id='morphing_basis_vector_5'> +1.7863836e-04 </wgt>
</rwgt>
</event>
<event>
 4      1 +1.4786900e-06 9.38926800e+02 7.81860800e-03 8.74483600e-02
        2 -1    0    0  501    0 +0.0000000000e+00 +0.0000000000e+00 +2.4520579654e+02 2.4520579654e+02 0.0000000000e+00 0.0000e+00 1.0000e+00
       -2 -1    0    0    0  501 -0.0000000000e+00 -0.0000000000e+00 -8.9881999659e+02 8.9881999659e+02 0.0000000000e+00 0.0000e+00 -1.0000e+00
      -13  1    1    2    0    0 +4.2156371945e+01 +2.4804340067e+02 -8.0973551954e+02 8.4792352244e+02 0.0000000000e+00 0.0000e+00 -1.0000e+00
       13  1    1    2    0    0 -4.2156371945e+01 -2.4804340067e+02 +1.5612131948e+02 2.9610227069e+02 0.0000000000e+00 0.0000e+00 1.0000e+00
<mgrwt>
<rscale>  0 0.93892678E+03</rscale>
<asrwt>0</asrwt>
<pdfrwt beam="1">  1        2 0.37723969E-01 0.93892678E+03</pdfrwt>
<pdfrwt beam="2">  1       -2 0.13828000E+00 0.93892678E+03</pdfrwt>
<totfact> 0.61119546E+01</totfact>
</mgrwt>
<rwgt>
<wgt id='morphing_basis_vector_1'> +1.8490945e-04 </wgt>
<wgt id='morphing_basis_vector_2'> +1.1460939e-04 </wgt>
<wgt id='morphing_basis_vector_3'> +1.7489512e-04 </wgt>
<wgt id='morphing_basis_vector_4'> +1.0425214e-04 </wgt>
<wgt id='morphing_basis_vector_5'> +1.6476033e-04 </wgt>
</rwgt>
</event>
<event>
 4      1 +1.4786900e-06 9.32085000e+02 7.81860800e-03 8.75190100e-02
        2 -1    0    0  501    0 +0.0000000000e+00 +0.0000000000e+00 +1.6097429538e+03 1.6097429538e+03 0.0000000000e+00 0.0000e+00 -1.0000e+00
       -2 -1    0    0    0  501 -0.0000000000e+00 -0.0000000000e+00 -1.3492564894e+02 1.3492564894e+02 0.0000000000e+00 0.0000e+00 1.0000e+00
      -13  1    1    2    0    0 +2.6070819094e+02 -1.7536263659e+02 +9.3134937594e+01 3.2771165944e+02 0.0000000000e+00 0.0000e+00 1.0000e+00
       13  1    1    2    0    0 -2.6070819094e+02 +1.7536263659e+02 +1.3816823672e+03 1.4169569433e+03 0.0000000000e+00 0.0000e+00 -1.0000e+00
<mgrwt>
<rscale>  0 0.93208500E+03</rscale>
<asrwt>0</asrwt>
<pdfrwt beam="1">  1        2 0.24765275E+00 0.93208500E+03</pdfrwt>
<pdfrwt beam="2">  1       -2 0.20757793E-01 0.93208500E+03</pdfrwt>
<totfact> 0.25792016E+02</totfact>
</mgrwt>
<rwgt>
<wgt id='morphing_basis_vector_1'> +1.8014119e-04 </wgt>
<wgt id='morphing_basis_vector_2'> +1.1178868e-04 </wgt>
<wgt id='morphing_basis_vector_3'> +1.7001606e-04 </wgt>
<wgt id='morphing_basis_vector_4'> +1.0081729e-04 </wgt>
<wgt id='morphing_basis_vector_5'> +1.5953717e-04 </wgt>
</rwgt>
</event>
<event>
 4      1 +1.4786900e-06 9.90558100e+02 7.81860800e-03 8.69347000e-02
        2 -1    0    0  501    0 +0.0000000000e+00 +0.0000000000e+00 +1.0313626780e+03 1.0313626780e+03 0.0000000000e+00 0.0000e+00 1.0000e+00
       -2 -1    0    0    0  501 -0.0000000000e+00 -0.0000000000e+00 -2.3784197152e+02 2.3784197152e+02 0.0000000000e+00 0.0000e+00 -1.0000e+00
      -13  1    1    2    0    0 -4.5657921341e+02 -3.6693458492e+01 +1.5537727936e+02 4.8368697207e+02 0.0000000000e+00 0.0000e+00 -1.0000e+00
       13  1    1    2    0    0 +4.5657921341e+02 +3.6693458492e+01 +6.3814342714e+02 7.8551767747e+02 0.0000000000e+00 0.0000e+00 1.0000e+00
<mgrwt>
<rscale>  0 0.99055809E+03</rscale>
<asrwt>0</asrwt>
<pdfrwt beam="1">  1        2 0.15867118E+00 0.99055809E+03</pdfrwt>
<pdfrwt beam="2">  1       -2 0.36591073E-01 0.99055809E+03</pdfrwt>
<totfact> 0.20467227E+02</totfact>
</mgrwt>
<rwgt>
<wgt id='morphing_basis_vector_1'> +2.2679172e-04 </wgt>
<wgt id='morphing_basis_vector_2'> +1.4580169e-04 </wgt>
<wgt id='morphing_basis_vector_3'> +2.1760113e-04 </wgt>
<wgt id='morphing_basis_vector_4'> +1.2893160e-04 </wgt>
<wgt id='morphing_basis_vector_5'> +2.0805129e-04 </wgt>
</rwgt>
</event>
<event>
 4      1 +1.4786900e-06 9.21371300e+02 7.81860800e-03 8.76309300e-02
        2 -1    0    0  501    0 +0.0000000000e+00 +0.0000000000e+00 +1.3965626531e+03 1.3965626531e+03 0.0000000000e+00 0.0000e+00 -1.0000e+00
       -2 -1    0    0    0  501 -0.0000000000e+00 -0.0000000000e+00 -1.5196686500e+02 1.5196686500e+02 0.0000000000e+00 0.0000e+00 1.0000e+00
      -13  1    1    2    0    0 -2.7162929095e+02 -2.3582950699e+01 -1.8037715671e+00 2.7265707557e+02 0.0000000000e+00 0.0000e+00 1.0000e+00
       13  1    1    2    0    0 +2.7162929095e+02 +2.3582950699e+01 +1.2463995596e+03 1.2758724425e+03 0.0000000000e+00 0.0000e+00 -1.0000e+00
<mgrwt>
<rscale>  0 0.92137126E+03</rscale>
<asrwt>0</asrwt>
<pdfrwt beam="1">  1        2 0.21485578E+00 0.92137126E+03</pdfrwt>
<pdfrwt beam="2">  1       -2 0.23379519E-01 0.92137126E+03</pdfrwt>
<totfact> 0.27737875E+02</totfact>
</mgrwt>
<rwgt>
<wgt id='morphing_basis_vector_1'> +1.7262395e-04 </wgt>
<wgt id='morphing_basis_vector_2'> +1.0674296e-04 </wgt>
<wgt id='morphing_basis_vector_3'> +1.6238153e-04 </wgt>
<wgt id='morphing_basis_vector_4'> +9.5958970e-05 </wgt>
<wgt id='morphing_basis_vector_5'> +1.5162097e-04 </wgt>
</rwgt>
</event>
<event>
 4      1 +1.4786900e-06 9.14302500e+02 7.81860800e-03 8.77056500e-02
        2 -1    0    0  501    0 +0.0000000000e+00 +0.0000000000e+00 +1.3154575682e+03 1.3154575682e+03 0.0000000000e+00 0.0000e+00 -1.0000e+00
       -2 -1    0    0    0  501 -0.0000000000e+00 -0.0000000000e+00 -1.5887038002e+02 1.5887038002e+02 0.0000000000e+00 0.0000e+00 1.0000e+00
      -13  1    1    2    0    0 +3.4454386090e+02 +3.0040336758e+02 +5.8777711532e+02 7.4460364801e+02 0.0000000000e+00 0.0000e+00 1.0000e+00
       13  1    1    2    0    0 -3.4454386090e+02 -3.0040336758e+02 +5.6881007286e+02 7.2972430021e+02 0.0000000000e+00 0.0000e+00 -1.0000e+00
<mgrwt>
<rscale>  0 0.91430245E+03</rscale>
<asrwt>0</asrwt>
<pdfrwt beam="1">  1        2 0.20237808E+00 0.91430245E+03</pdfrwt>
<pdfrwt beam="2">  1       -2 0.24441598E-01 0.91430245E+03</pdfrwt>
<totfact> 0.28582650E+02</totfact>
</mgrwt>
<rwgt>
<wgt id='morphing_basis_vector_1'> +1.7401887e-04 </wgt>
<wgt id='morphing_basis_vector_2'> +1.2242785e-04 </wgt>
<wgt id='morphing_basis_vector_3'> +1.6251542e-04 </wgt>
<wgt id='morphing_basis_vector_4'> +8.3881036e-05 </wgt>
<wgt id='morphing_basis_vector_5'> +1.4607292e-04 </wgt>
</rwgt>
</event>
<event>
 4      1 +1.4786900e-06 9.97348000e+02 7.81860800e-03 8.68695800e-02
        2 -1    0    0  501    0 +0.0000000000e+00 +0.0000000000e+00 +2.3888520954e+02 2.3888520954e+02 0.0000000000e+00 0.0000e+00 -1.0000e+00
       -2 -1    0    0    0  501 -0.0000000000e+00 -0.0000000000e+00 -1.0409843611e+03 1.0409843611e+03 0.0000000000e+00 0.0000e+00 1.0000e+00
      -13  1    1    2    0    0 -2.9593506655e+02 -4.7801567492e+01 -9.1245143422e+02 9.6043228458e+02 0.0000000000e+00 0.0000e+00 1.0000e+00
       13  1    1    2    0    0 +2.9593506655e+02 +4.7801567492e+01 +1.1035228261e+02 3.1943728609e+02 0.0000000000e+00 0.0000e+00 -1.0000e+00
<mgrwt>
<rscale>  0 0.99734802E+03</rscale>
<asrwt>0</asrwt>
<pdfrwt beam="1">  1        2 0.36751571E-01 0.99734802E+03</pdfrwt>
<pdfrwt beam="2">  1       -2 0.16015144E+00 0.99734802E+03</pdfrwt>
<totfact> 0.41284954E+01</totfact>
</mgrwt>
<rwgt>
<wgt id='morphing_basis_vector_1'> +2.3089574e-04 </wgt>
<wgt id='morphing_basis_vector_2'> +1.4455699e-04 </wgt>
<wgt id='morphing_basis_vector_3'> +2.2200497e-04 </wgt>
<wgt id='morphing_basis_vector_4'> +1.3539585e-04 </wgt>
<wgt id='morphing_basis_vector_5'> +2.1447710e-04 </wgt>
</rwgt>
</event>
<event>
 4      1 +1.4786900e-06 9.25442700e+02 7.81860800e-03 8.75882100e-02
        2 -1    0    0  501    0 +0.0000000000e+00 +0.0000000000e+00 +1.1328157169e+03 1.1328157169e+03 0.0000000000e+00 0.0000e+00 1.0000e+00
       -2 -1    0    0    0  501 -0.0000000000e+00 -0.0000000000e+00 -1.8900785126e+02 1.8900785126e+02 0.0000000000e+00 0.0000e+00 -1.0000e+00
      -13  1    1    2    0    0 +2.9172919556e+02 -2.3251452903e+02 +8.0894738108e+01 3.8172357591e+02 0.0000000000e+00 0.0000e+00 -1.0000e+00
       13  1    1    2    0    0 -2.9172919556e+02 +2.3251452903e+02 +8.6291312749e+02 9.4009999221e+02 0.0000000000e+00 0.0000e+00 1.0000e+00
<mgrwt>
<rscale>  0 0.92544274E+03</rscale>
<asrwt>0</asrwt>
<pdfrwt beam="1">  1        2 0.17427934E+00 0.92544274E+03</pdfrwt>
<pdfrwt beam="2">  1       -2 0.29078132E-01 0.92544274E+03</pdfrwt>
<totfact> 0.26955121E+02</totfact>
</mgrwt>
<rwgt>
<wgt id='morphing_basis_vector_1'> +1.7579445e-04 </wgt>
<wgt id='morphing_basis_vector_2'> +1.0968195e-04 </wgt>
<wgt id='morphing_basis_vector_3'> +1.6553432e-04 </wgt>
<wgt id='morphing_basis_vector_4'> +9.7285267e-05 </wgt>
<wgt id='morphing_basis_vector_5'> +1.5456751e-04 </wgt>
</rwgt>
</event>
<event>
 4      1 +1.4786900e-06 1.01976700e+03 7.81860800e-03 8.66583300e-02
        2 -1    0    0  501    0 +0.0000000000e+00 +0.0000000000e+00 +2.1981388832e+03 2.1981388832e+03 0.0000000000e+00 0.0000e+00 1.0000e+00
       -2 -1    0    0    0  501 -0.0000000000e+00 -0.0000000000e+00 -1.1827332879e+02 1.1827332879e+02 0.0000000000e+00 0.0000e+00 -1.0000e+00
      -13  1    1    2    0    0 -2.2405627080e+02 +3.8668629984e+02 +1.5975121787e+03 1.6588467886e+03 0.0000000000e+00 0.0000e+00 -1.0000e+00
       13  1    1    2    0    0 +2.2405627080e+02 -3.8668629984e+02 +4.8235337572e+02 6.5756542339e+02 0.0000000000e+00 0.0000e+00 1.0000e+00
<mgrwt>
<rscale>  0 0.10197670E+04</rscale>
<asrwt>0</asrwt>
<pdfrwt beam="1">  1        2 0.33817518E+00 0.10197670E+04</pdfrwt>
<pdfrwt beam="2">  1       -2 0.18195898E-01 0.10197670E+04</pdfrwt>
<totfact> 0.15034662E+02</totfact>
</mgrwt>
<rwgt>
<wgt id='morphing_basis_vector_1'> +2.9365249e-04 </wgt>
<wgt id='morphing_basis_vector_2'> +2.8742853e-04 </wgt>
<wgt id='morphing_basis_vector_3'> +2.8339366e-04 </wgt>
<wgt id='morphing_basis_vector_4'> +8.1759681e-05 </wgt>
<wgt id='morphing_basis_vector_5'> +2.3210683e-04 </wgt>
</rwgt>
</event>
<event>
 4      1 +1.4786900e-06 1.01556300e+03 7.81860800e-03 8.66975100e-02
        2 -1    0    0  501    0 +0.0000000000e+00 +0.0000000000e+00 +8.8819061604e+02 8.8819061604e+02 0.0000000000e+00 0.0000e+00 1.0000e+00
       -2 -1    0    0    0  501 -0.0000000000e+00 -0.0000000000e+00 -2.9030016334e+02 2.9030016334e+02 0.0000000000e+00 0.0000e+00 -1.0000e+00
      -13  1    1    2    0    0 -3.6430672379e+02 +2.1736451876e+02 -2.4886155497e+01 4.2495416664e+02 0.0000000000e+00 0.0000e+00 -1.0000e+00
       13  1    1    2    0    0 +3.6430672379e+02 -2.1736451876e+02 +6.2277660820e+02 7.5353661274e+02 0.0000000000e+00 0.0000e+00 1.0000e+00
<mgrwt>
<rscale>  0 0.10155627E+04</rscale>
<asrwt>0</asrwt>
<pdfrwt beam="1">  1        2 0.13664471E+00 0.10155627E+04</pdfrwt>
<pdfrwt beam="2">  1       -2 0.44661564E-01 0.10155627E+04</pdfrwt>
<totfact> 0.17353157E+02</totfact>
</mgrwt>
<rwgt>
<wgt id='morphing_basis_vector_1'> +2.4757864e-04 </wgt>
<wgt id='morphing_basis_vector_2'> +1.5708226e-04 </wgt>
<wgt id='morphing_basis_vector_3'> +2.3913704e-04 </wgt>
<wgt id='morphing_basis_vector_4'> +1.4529972e-04 </wgt>
<wgt id='morphing_basis_vector_5'> +2.3193143e-04 </wgt>
</rwgt>
</event>
<event>
 4      1 +1.4786900e-06 9.75166300e+02 7.81860800e-03 8.70843500e-02
        2 -1    0    0  501    0 +0.0000000000e+00 +0.0000000000e+00 +2.5284112086e+03 2.5284112086e+03 0.0000000000e+00 0.0000e+00 1.0000e+00
       -2 -1    0    0    0  501 -0.0000000000e+00 -0.0000000000e+00 -9.4026364060e+01 9.4026364060e+01 0.0000000000e+00 0.0000e+00 -1.0000e+00
      -13  1    1    2    0    0 -2.2071583053e+02 -4.3052342931e+02 +1.3801381714e+03 1.4624798368e+03 0.0000000000e+00 0.0000e+00 -1.0000e+00
       13  1    1    2    0    0 +2.2071583053e+02 +4.3052342931e+02 +1.0542466731e+03 1.1599577358e+03 0.0000000000e+00 0.0000e+00 1.0000e+00
<mgrwt>
<rscale>  0 0.97516627E+03</rscale>
<asrwt>0</asrwt>
<pdfrwt beam="1">  1        2 0.38898629E+00 0.97516627E+03</pdfrwt>
<pdfrwt beam="2">  1       -2 0.14465596E-01 0.97516627E+03</pdfrwt>
<totfact> 0.14154633E+02</totfact>
</mgrwt>
<rwgt>
<wgt id='morphing_basis_vector_1'> +2.2417106e-04 </wgt>
<wgt id='morphing_basis_vector_2'> +1.6792991e-04 </wgt>
<wgt id='morphing_basis_vector_3'> +2.1357748e-04 </wgt>
<wgt id='morphing_basis_vector_4'> +1.0516500e-04 </wgt>
<wgt id='morphing_basis_vector_5'> +1.9344204e-04 </wgt>
</rwgt>
</event>
<event>
 4      1 +1.4786900e-06 1.01719900e+03 7.81860800e-03 8.66822400e-02
        2 -1    0    0  501    0 +0.0000000000e+00 +0.0000000000e+00 +8.9936822171e+02 8.9936822171e+02 0.0000000000e+00 0.0000e+00 -1.0000e+00
       -2 -1    0    0    0  501 -0.0000000000e+00 -0.0000000000e+00 -2.8761662142e+02 2.8761662142e+02 0.0000000000e+00 0.0000e+00 1.0000e+00
      -13  1    1    2    0    0 -2.1297030568e+01 -3.4094165151e+02 -1.3381833586e+02 3.6688161614e+02 0.0000000000e+00 0.0000e+00 1.0000e+00
       13  1    1    2    0    0 +2.1297030568e+01 +3.4094165151e+02 +7.4556993615e+02 8.2010322700e+02 0.0000000000e+00 0.0000e+00 -1.0000e+00
<mgrwt>
<rscale>  0 0.10171986E+04</rscale>
<asrwt>0</asrwt>
<pdfrwt beam="1">  1        2 0.13836434E+00 0.10171986E+04</pdfrwt>
<pdfrwt beam="2">  1       -2 0.44248711E-01 0.10171986E+04</pdfrwt>
<totfact> 0.17365671E+02</totfact>
</mgrwt>
<rwgt>
<wgt id='morphing_basis_vector_1'> +2.4845257e-04 </wgt>
<wgt id='morphing_basis_vector_2'> +1.5622216e-04 </wgt>
<wgt id='morphing_basis_vector_3'> +2.4008877e-04 </wgt>
<wgt id='morphing_basis_vector_4'> +1.4725833e-04 </wgt>
<wgt id='morphing_basis_vector_5'> +2.3361133e-04 </wgt>
</rwgt>
</event>
<event>
 4      1 +1.4786900e-06 1.02169700e+03 7.81860800e-03 8.66404100e-02
        2 -1    0    0  501    0 +0.0000000000e+00 +0.0000000000e+00 +8.7103352420e+02 8.7103352420e+02 0.0000000000e+00 0.0000e+00 -1.0000e+00
       -2 -1    0    0    0  501 -0.0000000000e+00 -0.0000000000e+00 -2.9960532030e+02 2.9960532030e+02 0.0000000000e+00 0.0000e+00 1.0000e+00
      -13  1    1    2    0    0 -4.0095554661e+02 -2.7267627358e+02 +4.6992658784e+02 6.7523973409e+02 0.0000000000e+00 0.0000e+00 1.0000e+00
       13  1    1    2    0    0 +4.0095554661e+02 +2.7267627358e+02 +1.0150161607e+02 4.9539911041e+02 0.0000000000e+00 0.0000e+00 -1.0000e+00
<mgrwt>
<rscale>  0 0.10216972E+04</rscale>
<asrwt>0</asrwt>
<pdfrwt beam="1">  1        2 0.13400516E+00 0.10216972E+04</pdfrwt>
<pdfrwt beam="2">  1       -2 0.46093126E-01 0.10216972E+04</pdfrwt>
<totfact> 0.16758781E+02</totfact>
</mgrwt>
<rwgt>
<wgt id='morphing_basis_vector_1'> +2.7868117e-04 </wgt>
<wgt id='morphing_basis_vector_2'> +2.3794624e-04 </wgt>
<wgt id='morphing_basis_vector_3'> +2.6930949e-04 </wgt>
<wgt id='morphing_basis_vector_4'> +1.0912257e-04 </wgt>
<wgt id='morphing_basis_vector_5'> +2.3562921e-04 </wgt>
</rwgt>
</event>
<event>
 4      1 +1.4786900e-06 9.04332100e+02 7.81860800e-03 8.78122500e-02
        2 -1    0    0  501    0 +0.0000000000e+00 +0.0000000000e+00 +9.9638316076e+02 9.9638316076e+02 0.0000000000e+00 0.0000e+00 -1.0000e+00
       -2 -1    0    0    0  501 -0.0000000000e+00 -0.0000000000e+00 -2.0519630920e+02 2.0519630920e+02 0.0000000000e+00 0.0000e+00 1.0000e+00
      -13  1    1    2    0    0 -4.3840705366e+02 +8.6197765928e+01 +3.0331528799e+02 5.4002866912e+02 0.0000000000e+00 0.0000e+00 1.0000e+00
       13  1    1    2    0    0 +4.3840705366e+02 -8.6197765928e+01 +4.8787156358e+02 6.6155080084e+02 0.0000000000e+00 0.0000e+00 -1.0000e+00
<mgrwt>
<rscale>  0 0.90433212E+03</rscale>
<asrwt>0</asrwt>
<pdfrwt beam="1">  1        2 0.15328971E+00 0.90433212E+03</pdfrwt>
<pdfrwt beam="2">  1       -2 0.31568664E-01 0.90433212E+03</pdfrwt>
<totfact> 0.28227112E+02</totfact>
</mgrwt>
<rwgt>
<wgt id='morphing_basis_vector_1'> +1.6444032e-04 </wgt>
<wgt id='morphing_basis_vector_2'> +1.0902611e-04 </wgt>
<wgt id='morphing_basis_vector_3'> +1.5337201e-04 </wgt>
<wgt id='morphing_basis_vector_4'> +8.3917293e-05 </wgt>
<wgt id='morphing_basis_vector_5'> +1.3937567e-04 </wgt>
</rwgt>
</event>
<event>
 4      1 +1.4786900e-06 9.38820800e+02 7.81860800e-03 8.74494500e-02
        2 -1    0    0  501    0 +0.0000000000e+00 +0.0000000000e+00 +7.2574389873e+02 7.2574389873e+02 0.0000000000e+00 0.0000e+00 -1.0000e+00
       -2 -1    0    0    0  501 -0.0000000000e+00 -0.0000000000e+00 -3.0361416092e+02 3.0361416092e+02 0.0000000000e+00 0.0000e+00 1.0000e+00
      -13  1    1    2    0    0 +6.3902456458e+01 -4.6489784646e+02 +2.2369025027e+02 5.1985657604e+02 0.0000000000e+00 0.0000e+00 1.0000e+00
       13  1    1    2    0    0 -6.3902456458e+01 +4.6489784646e+02 +1.9843948754e+02 5.0950148361e+02 0.0000000000e+00 0.0000e+00 -1.0000e+00
<mgrwt>
<rscale>  0 0.93882080E+03</rscale>
<asrwt>0</asrwt>
<pdfrwt beam="1">  1        2 0.11165291E+00 0.93882080E+03</pdfrwt>
<pdfrwt beam="2">  1       -2 0.46709871E-01 0.93882080E+03</pdfrwt>
<totfact> 0.20752464E+02</totfact>
</mgrwt>
<rwgt>
<wgt id='morphing_basis_vector_1'> +1.9196840e-04 </wgt>
<wgt id='morphing_basis_vector_2'> +1.3623220e-04 </wgt>
<wgt id='morphing_basis_vector_3'> +1.8085016e-04 </wgt>
<wgt id='morphing_basis_vector_4'> +9.3687290e-05 </wgt>
<wgt id='morphing_basis_vector_5'> +1.6409252e-04 </wgt>
</rwgt>
</event>
<event>
 4      1 +1.4786900e-06 1.01317600e+03 7.81860800e-03 8.67198500e-02
        2 -1    0    0  501    0 +0.0000000000e+00 +0.0000000000e+00 +7.7900805580e+02 7.7900805580e+02 0.0000000000e+00 0.0000e+00 -1.0000e+00
       -2 -1    0    0    0  501 -0.0000000000e+00 -0.0000000000e+00 -3.2943328515e+02 3.2943328515e+02 0.0000000000e+00 0.0000e+00 1.0000e+00
      -13  1    1    2    0    0 +1.6201827815e+02 +2.5786362145e+02 -2.1810791481e+02 3.7458594771e+02 0.0000000000e+00 0.0000e+00 1.0000e+00
       13  1    1    2    0    0 -1.6201827815e+02 -2.5786362145e+02 +6.6768268546e+02 7.3385539324e+02 0.0000000000e+00 0.0000e+00 -1.0000e+00
<mgrwt>
<rscale>  0 0.10131756E+04</rscale>
<asrwt>0</asrwt>
<pdfrwt beam="1">  1        2 0.11984739E+00 0.10131756E+04</pdfrwt>
<pdfrwt beam="2">  1       -2 0.50682044E-01 0.10131756E+04</pdfrwt>
<totfact> 0.16123960E+02</totfact>
</mgrwt>
<rwgt>
<wgt id='morphing_basis_vector_1'> +2.4473908e-04 </wgt>
<wgt id='morphing_basis_vector_2'> +1.5357526e-04 </wgt>
<wgt id='morphing_basis_vector_3'> +2.3626573e-04 </wgt>
<wgt id='morphing_basis_vector_4'> +1.4491190e-04 </wgt>
<wgt id='morphing_basis_vector_5'> +2.2964367e-04 </wgt>
</rwgt>
</event>
<event>
 4      1 +1.4786900e-06 9.75288000e+02 7.81860800e-03 8.70831500e-02
        2 -1    0    0  501    0 +0.0000000000e+00 +0.0000000000e+00 +1.3354433582e+03 1.3354433582e+03 0.0000000000e+00 0.0000e+00 -1.0000e+00
       -2 -1    0    0    0  501 -0.0000000000e+00 -0.0000000000e+00 -1.7806570075e+02 1.7806570075e+02 0.0000000000e+00 0.0000e+00 1.0000e+00
      -13  1    1    2    0    0 +2.1272025311e+02 -1.9545061328e+02 -3.0987842025e+01 2.9053587501e+02 0.0000000000e+00 0.0000e+00 1.0000e+00
       13  1    1    2    0    0 -2.1272025311e+02 +1.9545061328e+02 +1.1883654995e+03 1.2229731839e+03 0.0000000000e+00 0.0000e+00 -1.0000e+00
<mgrwt>
<rscale>  0 0.97528797E+03</rscale>
<asrwt>0</asrwt>
<pdfrwt beam="1">  1        2 0.20545282E+00 0.97528797E+03</pdfrwt>
<pdfrwt beam="2">  1       -2 0.27394724E-01 0.97528797E+03</pdfrwt>
<totfact> 0.22777875E+02</totfact>
</mgrwt>
<rwgt>
<wgt id='morphing_basis_vector_1'> +2.1260992e-04 </wgt>
<wgt id='morphing_basis_vector_2'> +1.3264774e-04 </wgt>
<wgt id='morphing_basis_vector_3'> +2.0321992e-04 </wgt>
<wgt id='morphing_basis_vector_4'> +1.2291893e-04 </wgt>
<wgt id='morphing_basis_vector_5'> +1.9457597e-04 </wgt>
</rwgt>
</event>
<event>
 4      1 +1.4786900e-06 1.04454800e+03 7.81860800e-03 8.64312800e-02
        2 -1    0    0  501    0 +0.0000000000e+00 +0.0000000000e+00 +8.4909191410e+02 8.4909191410e+02 0.0000000000e+00 0.0000e+00 -1.0000e+00
       -2 -1    0    0    0  501 -0.0000000000e+00 -0.0000000000e+00 -3.2124913632e+02 3.2124913632e+02 0.0000000000e+00 0.0000e+00 1.0000e+00
      -13  1    1    2    0    0 -1.1427738433e+02 -2.3392115966e+02 -2.4336376657e+02 3.5637670011e+02 0.0000000000e+00 0.0000e+00 1.0000e+00
       13  1    1    2    0    0 +1.1427738433e+02 +2.3392115966e+02 +7.7120654436e+02 8.1396435030e+02 0.0000000000e+00 0.0000e+00 -1.0000e+00
<mgrwt>
<rscale>  0 0.10445478E+04</rscale>
<asrwt>0</asrwt>
<pdfrwt beam="1">  1        2 0.13062952E+00 0.10445478E+04</pdfrwt>
<pdfrwt beam="2">  1       -2 0.49422944E-01 0.10445478E+04</pdfrwt>
<totfact> 0.15119364E+02</totfact>
</mgrwt>
<rwgt>
<wgt id='morphing_basis_vector_1'> +2.7398044e-04 </wgt>
<wgt id='morphing_basis_vector_2'> +1.7247343e-04 </wgt>
<wgt id='morphing_basis_vector_3'> +2.6648970e-04 </wgt>
<wgt id='morphing_basis_vector_4'> +1.6534113e-04 </wgt>
<wgt id='morphing_basis_vector_5'> +2.6201097e-04 </wgt>
</rwgt>
</event>
<event>
 4      1 +1.4786900e-06 1.05815900e+03 7.81860800e-03 8.63093400e-02
        2 -1    0    0  501    0 +0.0000000000e+00 +0.0000000000e+00 +1.2433769395e+03 1.2433769395e+03 0.0000000000e+00 0.0000e+00 -1.0000e+00
       -2 -1    0    0    0  501 -0.0000000000e+00 -0.0000000000e+00 -2.2513285804e+02 2.2513285804e+02 0.0000000000e+00 0.0000e+00 1.0000e+00
      -13  1    1    2    0    0 -2.6766088279e+02 +1.2244225913e+02 -1.0102051373e+02 3.1119061552e+02 0.0000000000e+00 0.0000e+00 1.0000e+00
       13  1    1    2    0    0 +2.6766088279e+02 -1.2244225913e+02 +1.1192645952e+03 1.1573191820e+03 0.0000000000e+00 0.0000e+00 -1.0000e+00
<mgrwt>
<rscale>  0 0.10581588E+04</rscale>
<asrwt>0</asrwt>
<pdfrwt beam="1">  1        2 0.19128876E+00 0.10581588E+04</pdfrwt>
<pdfrwt beam="2">  1       -2 0.34635825E-01 0.10581588E+04</pdfrwt>
<totfact> 0.16855384E+02</totfact>
</mgrwt>
<rwgt>
<wgt id='morphing_basis_vector_1'> +2.8754565e-04 </wgt>
<wgt id='morphing_basis_vector_2'> +1.8142802e-04 </wgt>
<wgt id='morphing_basis_vector_3'> +2.8054629e-04 </wgt>
<wgt id='morphing_basis_vector_4'> +1.7471347e-04 </wgt>
<wgt id='morphing_basis_vector_5'> +2.7703586e-04 </wgt>
</rwgt>
</event>
<event>
 4      1 +1.4786900e-06 1.00436900e+03 7.81860800e-03 8.68028100e-02
        2 -1    0    0  501    0 +0.0000000000e+00 +0.0000000000e+00 +3.4412310040e+02 3.4412310040e+02 0.0000000000e+00 0.0000e+00 -1.0000e+00
       -2 -1    0    0    0  501 -0.0000000000e+00 -0.0000000000e+00 -7.3284546451e+02 7.3284546451e+02 0.0000000000e+00 0.0000e+00 1.0000e+00
      -13  1    1    2    0    0 -2.7206226124e+02 +3.6444374752e+02 -4.2271476118e+02 6.2090650537e+02 0.0000000000e+00 0.0000e+00 1.0000e+00
       13  1    1    2    0    0 +2.7206226124e+02 -3.6444374752e+02 +3.3992397072e+01 4.5606205954e+02 0.0000000000e+00 0.0000e+00 -1.0000e+00
<mgrwt>
<rscale>  0 0.10043686E+04</rscale>
<asrwt>0</asrwt>
<pdfrwt beam="1">  1        2 0.52942016E-01 0.10043686E+04</pdfrwt>
<pdfrwt beam="2">  1       -2 0.11274545E+00 0.10043686E+04</pdfrwt>
<totfact> 0.71110376E+01</totfact>
</mgrwt>
<rwgt>
<wgt id='morphing_basis_vector_1'> +2.3835115e-04 </wgt>
<wgt id='morphing_basis_vector_2'> +1.5271856e-04 </wgt>
<wgt id='morphing_basis_vector_3'> +2.2954895e-04 </wgt>
<wgt id='morphing_basis_vector_4'> +1.3740229e-04 </wgt>
<wgt id='morphing_basis_vector_5'> +2.2098215e-04 </wgt>
</rwgt>
</event>
<event>
 4      1 +1.4786900e-06 9.40839000e+02 7.81860800e-03 8.74287300e-02
        2 -1    0    0  501    0 +0.0000000000e+00 +0.0000000000e+00 +9.3941361683e+02 9.3941361683e+02 0.0000000000e+00 0.0000e+00 -1.0000e+00
       -2 -1    0    0    0  501 -0.0000000000e+00 -0.0000000000e+00 -2.3556662860e+02 2.3556662860e+02 0.0000000000e+00 0.0000e+00 1.0000e+00
      -13  1    1    2    0    0 -2.4540428616e+02 -4.5965026059e+01 -1.4599364089e+02 2.8922342655e+02 0.0000000000e+00 0.0000e+00 1.0000e+00
       13  1    1    2    0    0 +2.4540428616e+02 +4.5965026059e+01 +8.4984062912e+02 8.8575681888e+02 0.0000000000e+00 0.0000e+00 -1.0000e+00
<mgrwt>
<rscale>  0 0.94083898E+03</rscale>
<asrwt>0</asrwt>
<pdfrwt beam="1">  1        2 0.14452517E+00 0.94083898E+03</pdfrwt>
<pdfrwt beam="2">  1       -2 0.36241020E-01 0.94083898E+03</pdfrwt>
<totfact> 0.23854721E+02</totfact>
</mgrwt>
<rwgt>
<wgt id='morphing_basis_vector_1'> +1.8628850e-04 </wgt>
<wgt id='morphing_basis_vector_2'> +1.1549573e-04 </wgt>
<wgt id='morphing_basis_vector_3'> +1.7630184e-04 </wgt>
<wgt id='morphing_basis_vector_4'> +1.0518451e-04 </wgt>
<wgt id='morphing_basis_vector_5'> +1.6623976e-04 </wgt>
</rwgt>
</event>
<event>
 4      1 +1.4786900e-06 9.70457500e+02 7.81860800e-03 8.71307100e-02
        2 -1    0    0  501    0 +0.0000000000e+00 +0.0000000000e+00 +1.4959305432e+02 1.4959305432e+02 0.0000000000e+00 0.0000e+00 1.0000e+00
       -2 -1    0    0    0  501 -0.0000000000e+00 -0.0000000000e+00 -1.5739163479e+03 1.5739163479e+03 0.0000000000e+00 0.0000e+00 -1.0000e+00
      -13  1    1    2    0    0 +3.2202101862e+02 +1.1674990861e+00 -1.3567897399e+03 1.3944810138e+03 0.0000000000e+00 0.0000e+00 -1.0000e+00
       13  1    1    2    0    0 -3.2202101862e+02 -1.1674990861e+00 -6.7533553582e+01 3.2902838836e+02 0.0000000000e+00 0.0000e+00 1.0000e+00
<mgrwt>
<rscale>  0 0.97045753E+03</rscale>
<asrwt>0</asrwt>
<pdfrwt beam="1">  1        2 0.23014316E-01 0.97045753E+03</pdfrwt>
<pdfrwt beam="2">  1       -2 0.24214098E+00 0.97045753E+03</pdfrwt>
<totfact> 0.17849440E+01</totfact>
</mgrwt>
<rwgt>
<wgt id='morphing_basis_vector_1'> +2.0883674e-04 </wgt>
<wgt id='morphing_basis_vector_2'> +1.3037747e-04 </wgt>
<wgt id='morphing_basis_vector_3'> +1.9934127e-04 </wgt>
<wgt id='morphing_basis_vector_4'> +1.2018693e-04 </wgt>
<wgt id='morphing_basis_vector_5'> +1.9039812e-04 </wgt>
</rwgt>
</event>
<event>
 4      1 +1.4786900e-06 9.25855500e+02 7.81860800e-03 8.75838900e-02
        2 -1    0    0  501    0 +0.0000000000e+00 +0.0000000000e+00 +1.5415926887e+03 1.5415926887e+03 0.0000000000e+00 0.0000e+00 -1.0000e+00
       -2 -1    0    0    0  501 -0.0000000000e+00 -0.0000000000e+00 -1.3901344234e+02 1.3901344234e+02 0.0000000000e+00 0.0000e+00 1.0000e+00
      -13  1    1    2    0    0 -1.1785574723e+02 +3.2301521091e+02 +1.2639211816e+03 1.3098570750e+03 0.0000000000e+00 0.0000e+00 1.0000e+00
       13  1    1    2    0    0 +1.1785574723e+02 -3.2301521091e+02 +1.3865806475e+02 3.7074905604e+02 0.0000000000e+00 0.0000e+00 -1.0000e+00
<mgrwt>
<rscale>  0 0.92585551E+03</rscale>
<asrwt>0</asrwt>
<pdfrwt beam="1">  1        2 0.23716810E+00 0.92585551E+03</pdfrwt>
<pdfrwt beam="2">  1       -2 0.21386684E-01 0.92585551E+03</pdfrwt>
<totfact> 0.26765621E+02</totfact>
</mgrwt>
<rwgt>
<wgt id='morphing_basis_vector_1'> +2.2276825e-04 </wgt>
<wgt id='morphing_basis_vector_2'> +2.5177211e-04 </wgt>
<wgt id='morphing_basis_vector_3'> +2.0438678e-04 </wgt>
<wgt id='morphing_basis_vector_4'> +2.9456837e-05 </wgt>
<wgt id='morphing_basis_vector_5'> +1.5114275e-04 </wgt>
</rwgt>
</event>
<event>
 4      1 +1.4786900e-06 9.02138100e+02 7.81860800e-03 8.78359000e-02
        2 -1    0    0  501    0 +0.0000000000e+00 +0.0000000000e+00 +1.3392029902e+03 1.3392029902e+03 0.0000000000e+00 0.0000e+00 -1.0000e+00
       -2 -1    0    0    0  501 -0.0000000000e+00 -0.0000000000e+00 -1.5192865190e+02 1.5192865190e+02 0.0000000000e+00 0.0000e+00 1.0000e+00
      -13  1    1    2    0    0 +2.5449190490e+02 +2.4836505389e+02 +1.3494420934e+02 3.8034362002e+02 0.0000000000e+00 0.0000e+00 1.0000e+00
       13  1    1    2    0    0 -2.5449190490e+02 -2.4836505389e+02 +1.0523301289e+03 1.1107880220e+03 0.0000000000e+00 0.0000e+00 -1.0000e+00
<mgrwt>
<rscale>  0 0.90213814E+03</rscale>
<asrwt>0</asrwt>
<pdfrwt beam="1">  1        2 0.20603122E+00 0.90213814E+03</pdfrwt>
<pdfrwt beam="2">  1       -2 0.23373640E-01 0.90213814E+03</pdfrwt>
<totfact> 0.29927400E+02</totfact>
</mgrwt>
<rwgt>
<wgt id='morphing_basis_vector_1'> +1.6015105e-04 </wgt>
<wgt id='morphing_basis_vector_2'> +9.9372208e-05 </wgt>
<wgt id='morphing_basis_vector_3'> +1.4966063e-04 </wgt>
<wgt id='morphing_basis_vector_4'> +8.7082226e-05 </wgt>
<wgt id='morphing_basis_vector_5'> +1.3809986e-04 </wgt>
</rwgt>
</event>
<event>
 4      1 +1.4786900e-06 1.01011100e+03 7.81860800e-03 8.67486200e-02
        2 -1    0    0  501    0 +0.0000000000e+00 +0.0000000000e+00 +5.9113706640e+02 5.9113706640e+02 0.0000000000e+00 0.0000e+00 -1.0000e+00
       -2 -1    0    0    0  501 -0.0000000000e+00 -0.0000000000e+00 -4.3150885589e+02 4.3150885589e+02 0.0000000000e+00 0.0000e+00 1.0000e+00
      -13  1    1    2    0    0 -1.1686971468e+01 +1.3154464695e+02 -4.1371911233e+02 4.3428571626e+02 0.0000000000e+00 0.0000e+00 1.0000e+00
       13  1    1    2    0    0 +1.1686971468e+01 -1.3154464695e+02 +5.7334732284e+02 5.8836020603e+02 0.0000000000e+00 0.0000e+00 -1.0000e+00
<mgrwt>
<rscale>  0 0.10101106E+04</rscale>
<asrwt>0</asrwt>
<pdfrwt beam="1">  1        2 0.90944164E-01 0.10101106E+04</pdfrwt>
<pdfrwt beam="2">  1       -2 0.66385978E-01 0.10101106E+04</pdfrwt>
<totfact> 0.13039110E+02</totfact>
</mgrwt>
<rwgt>
<wgt id='morphing_basis_vector_1'> +2.4189340e-04 </wgt>
<wgt id='morphing_basis_vector_2'> +1.5144409e-04 </wgt>
<wgt id='morphing_basis_vector_3'> +2.3334200e-04 </wgt>
<wgt id='morphing_basis_vector_4'> +1.4321299e-04 </wgt>
<wgt id='morphing_basis_vector_5'> +2.2665834e-04 </wgt>
</rwgt>
</event>
<event>
 4      1 +1.4786900e-06 9.10708200e+02 7.81860800e-03 8.77439100e-02
        2 -1    0    0  501    0 +0.0000000000e+00 +0.0000000000e+00 +7.4419651746e+02 7.4419651746e+02 0.0000000000e+00 0.0000e+00 -1.0000e+00
       -2 -1    0    0    0  501 -0.0000000000e+00 -0.0000000000e+00 -2.7861910694e+02 2.7861910694e+02 0.0000000000e+00 0.0000e+00 1.0000e+00
      -13  1    1    2    0    0 -2.7119513223e+02 +1.6232574102e+01 -1.7762232036e+02 3.2459202840e+02 0.0000000000e+00 0.0000e+00 1.0000e+00
       13  1    1    2    0    0 +2.7119513223e+02 -1.6232574102e+01 +6.4319973089e+02 6.9822359601e+02 0.0000000000e+00 0.0000e+00 -1.0000e+00
<mgrwt>
<rscale>  0 0.91070823E+03</rscale>
<asrwt>0</asrwt>
<pdfrwt beam="1">  1        2 0.11449177E+00 0.91070823E+03</pdfrwt>
<pdfrwt beam="2">  1       -2 0.42864478E-01 0.91070823E+03</pdfrwt>
<totfact> 0.23738483E+02</totfact>
</mgrwt>
<rwgt>
<wgt id='morphing_basis_vector_1'> +1.6546187e-04 </wgt>
<wgt id='morphing_basis_vector_2'> +1.0212715e-04 </wgt>
<wgt id='morphing_basis_vector_3'> +1.5510740e-04 </wgt>
<wgt id='morphing_basis_vector_4'> +9.1185400e-05 </wgt>
<wgt id='morphing_basis_vector_5'> +1.4402350e-04 </wgt>
</rwgt>
</event>
<event>
 4      1 +1.4786900e-06 9.81019600e+02 7.81860800e-03 8.70271000e-02
        2 -1    0    0  501    0 +0.0000000000e+00 +0.0000000000e+00 +2.6298383533e+02 2.6298383533e+02 0.0000000000e+00 0.0000e+00 -1.0000e+00
       -2 -1    0    0    0  501 -0.0000000000e+00 -0.0000000000e+00 -9.1488466068e+02 9.1488466068e+02 0.0000000000e+00 0.0000e+00 1.0000e+00
      -13  1    1    2    0    0 -2.8837611016e+02 +3.7964721866e+02 -1.8744696567e+02 5.1227839744e+02 0.0000000000e+00 0.0000e+00 -1.0000e+00
       13  1    1    2    0    0 +2.8837611016e+02 -3.7964721866e+02 -4.6445385968e+02 6.6559009857e+02 0.0000000000e+00 0.0000e+00 1.0000e+00
<mgrwt>
<rscale>  0 0.98101963E+03</rscale>
<asrwt>0</asrwt>
<pdfrwt beam="1">  1        2 0.40459052E-01 0.98101963E+03</pdfrwt>
<pdfrwt beam="2">  1       -2 0.14075148E+00 0.98101963E+03</pdfrwt>
<totfact> 0.53580934E+01</totfact>
</mgrwt>
<rwgt>
<wgt id='morphing_basis_vector_1'> +2.3463439e-04 </wgt>
<wgt id='morphing_basis_vector_2'> +1.8835705e-04 </wgt>
<wgt id='morphing_basis_vector_3'> +2.2371077e-04 </wgt>
<wgt id='morphing_basis_vector_4'> +9.9585691e-05 </wgt>
<wgt id='morphing_basis_vector_5'> +1.9806223e-04 </wgt>
</rwgt>
</event>
<event>
 4      1 +1.4786900e-06 1.06441300e+03 7.81860800e-03 8.62539400e-02
        2 -1    0    0  501    0 +0.0000000000e+00 +0.0000000000e+00 +1.6931237113e+03 1.6931237113e+03 0.0000000000e+00 0.0000e+00 -1.0000e+00
       -2 -1    0    0    0  501 -0.0000000000e+00 -0.0000000000e+00 -1.6729064350e+02 1.6729064350e+02 0.0000000000e+00 0.0000e+00 1.0000e+00
      -13  1    1    2    0    0 +2.3931469604e+02 +3.5982080004e+02 +2.1995892479e+02 4.8489633993e+02 0.0000000000e+00 0.0000e+00 1.0000e+00
       13  1    1    2    0    0 -2.3931469604e+02 -3.5982080004e+02 +1.3058741430e+03 1.3755180149e+03 0.0000000000e+00 0.0000e+00 -1.0000e+00
<mgrwt>
<rscale>  0 0.10644130E+04</rscale>
<asrwt>0</asrwt>
<pdfrwt beam="1">  1        2 0.26048056E+00 0.10644130E+04</pdfrwt>
<pdfrwt beam="2">  1       -2 0.25737023E-01 0.10644130E+04</pdfrwt>
<totfact> 0.15941497E+02</totfact>
</mgrwt>
<rwgt>
<wgt id='morphing_basis_vector_1'> +2.9463288e-04 </wgt>
<wgt id='morphing_basis_vector_2'> +1.8772366e-04 </wgt>
<wgt id='morphing_basis_vector_3'> +2.8787741e-04 </wgt>
<wgt id='morphing_basis_vector_4'> +1.7804834e-04 </wgt>
<wgt id='morphing_basis_vector_5'> +2.8407806e-04 </wgt>
</rwgt>
</event>
<event>
 4      1 +1.4786900e-06 9.36239300e+02 7.81860800e-03 8.74760400e-02
        2 -1    0    0  501    0 +0.0000000000e+00 +0.0000000000e+00 +1.1206630577e+03 1.1206630577e+03 0.0000000000e+00 0.0000e+00 -1.0000e+00
       -2 -1    0    0    0  501 -0.0000000000e+00 -0.0000000000e+00 -1.9554137469e+02 1.9554137469e+02 0.0000000000e+00 0.0000e+00 1.0000e+00
      -13  1    1    2    0    0 -5.1557387093e+01 +2.7505935988e+02 -6.4995611689e+01 2.8729818161e+02 0.0000000000e+00 0.0000e+00 1.0000e+00
       13  1    1    2    0    0 +5.1557387093e+01 -2.7505935988e+02 +9.9011729469e+02 1.0289062508e+03 0.0000000000e+00 0.0000e+00 -1.0000e+00
<mgrwt>
<rscale>  0 0.93623927E+03</rscale>
<asrwt>0</asrwt>
<pdfrwt beam="1">  1        2 0.17240970E+00 0.93623927E+03</pdfrwt>
<pdfrwt beam="2">  1       -2 0.30083289E-01 0.93623927E+03</pdfrwt>
<totfact> 0.25794562E+02</totfact>
</mgrwt>
<rwgt>
<wgt id='morphing_basis_vector_1'> +1.8301733e-04 </wgt>
<wgt id='morphing_basis_vector_2'> +1.1347181e-04 </wgt>
<wgt id='morphing_basis_vector_3'> +1.7295994e-04 </wgt>
<wgt id='morphing_basis_vector_4'> +1.0290396e-04 </wgt>
<wgt id='morphing_basis_vector_5'> +1.6269463e-04 </wgt>
</rwgt>
</event>
<event>
 4      1 +1.4786900e-06 9.91009200e+02 7.81860800e-03 8.69303500e-02
        2 -1    0    0  501    0 +0.0000000000e+00 +0.0000000000e+00 +5.0039921488e+02 5.0039921488e+02 0.0000000000e+00 0.0000e+00 -1.0000e+00
       -2 -1    0    0    0  501 -0.0000000000e+00 -0.0000000000e+00 -4.9065784815e+02 4.9065784815e+02 0.0000000000e+00 0.0000e+00 1.0000e+00
      -13  1    1    2    0    0 -4.1390712992e+02 -1.9213535396e+02 -1.8824404581e+02 4.9363035484e+02 0.0000000000e+00 0.0000e+00 1.0000e+00
       13  1    1    2    0    0 +4.1390712992e+02 +1.9213535396e+02 +1.9798541254e+02 4.9742670818e+02 0.0000000000e+00 0.0000e+00 -1.0000e+00
<mgrwt>
<rscale>  0 0.99100919E+03</rscale>
<asrwt>0</asrwt>
<pdfrwt beam="1">  1        2 0.76984494E-01 0.99100919E+03</pdfrwt>
<pdfrwt beam="2">  1       -2 0.75485823E-01 0.99100919E+03</pdfrwt>
<totfact> 0.12009649E+02</totfact>
</mgrwt>
<rwgt>
<wgt id='morphing_basis_vector_1'> +2.2709906e-04 </wgt>
<wgt id='morphing_basis_vector_2'> +1.4583212e-04 </wgt>
<wgt id='morphing_basis_vector_3'> +2.1792589e-04 </wgt>
<wgt id='morphing_basis_vector_4'> +1.2929911e-04 </wgt>
<wgt id='morphing_basis_vector_5'> +2.0847042e-04 </wgt>
</rwgt>
</event>
<event>
 4      1 +1.4786900e-06 9.59407500e+02 7.81860800e-03 8.72405800e-02
        2 -1    0    0  501    0 +0.0000000000e+00 +0.0000000000e+00 +7.5112158521e+02 7.5112158521e+02 0.0000000000e+00 0.0000e+00 1.0000e+00
       -2 -1    0    0    0  501 -0.0000000000e+00 -0.0000000000e+00 -3.0636275739e+02 3.0636275739e+02 0.0000000000e+00 0.0000e+00 -1.0000e+00
      -13  1    1    2    0    0 +2.7610199076e+02 +1.4718929410e+02 -1.7841093623e+02 3.6017698395e+02 0.0000000000e+00 0.0000e+00 -1.0000e+00
       13  1    1    2    0    0 -2.7610199076e+02 -1.4718929410e+02 +6.2316976405e+02 6.9730735865e+02 0.0000000000e+00 0.0000e+00 1.0000e+00
<mgrwt>
<rscale>  0 0.95940748E+03</rscale>
<asrwt>0</asrwt>
<pdfrwt beam="1">  1        2 0.11555717E+00 0.95940748E+03</pdfrwt>
<pdfrwt beam="2">  1       -2 0.47132732E-01 0.95940748E+03</pdfrwt>
<totfact> 0.19514470E+02</totfact>
</mgrwt>
<rwgt>
<wgt id='morphing_basis_vector_1'> +2.0021712e-04 </wgt>
<wgt id='morphing_basis_vector_2'> +1.2474248e-04 </wgt>
<wgt id='morphing_basis_vector_3'> +1.9051627e-04 </wgt>
<wgt id='morphing_basis_vector_4'> +1.1437970e-04 </wgt>
<wgt id='morphing_basis_vector_5'> +1.8110317e-04 </wgt>
</rwgt>
</event>
<event>
 4      1 +1.4786900e-06 9.18989100e+02 7.81860800e-03 8.76560300e-02
        2 -1    0    0  501    0 +0.0000000000e+00 +0.0000000000e+00 +1.1404604053e+03 1.1404604053e+03 0.0000000000e+00 0.0000e+00 1.0000e+00
       -2 -1    0    0    0  501 -0.0000000000e+00 -0.0000000000e+00 -1.8513159395e+02 1.8513159395e+02 0.0000000000e+00 0.0000e+00 -1.0000e+00
      -13  1    1    2    0    0 -4.5198814817e+02 -3.6069366216e+01 +3.7029209474e+02 5.8541482787e+02 0.0000000000e+00 0.0000e+00 -1.0000e+00
       13  1    1    2    0    0 +4.5198814817e+02 +3.6069366216e+01 +5.8503671665e+02 7.4017717142e+02 0.0000000000e+00 0.0000e+00 1.0000e+00
<mgrwt>
<rscale>  0 0.91898912E+03</rscale>
<asrwt>0</asrwt>
<pdfrwt beam="1">  1        2 0.17545544E+00 0.91898912E+03</pdfrwt>
<pdfrwt beam="2">  1       -2 0.28481784E-01 0.91898912E+03</pdfrwt>
<totfact> 0.27675307E+02</totfact>
</mgrwt>
<rwgt>
<wgt id='morphing_basis_vector_1'> +1.7424126e-04 </wgt>
<wgt id='morphing_basis_vector_2'> +1.1554278e-04 </wgt>
<wgt id='morphing_basis_vector_3'> +1.6337430e-04 </wgt>
<wgt id='morphing_basis_vector_4'> +9.0189192e-05 </wgt>
<wgt id='morphing_basis_vector_5'> +1.4964443e-04 </wgt>
</rwgt>
</event>
<event>
 4      1 +1.4786900e-06 9.53184300e+02 7.81860800e-03 8.73031400e-02
        2 -1    0    0  501    0 +0.0000000000e+00 +0.0000000000e+00 +8.4982438795e+02 8.4982438795e+02 0.0000000000e+00 0.0000e+00 1.0000e+00
       -2 -1    0    0    0  501 -0.0000000000e+00 -0.0000000000e+00 -2.6727881576e+02 2.6727881576e+02 0.0000000000e+00 0.0000e+00 -1.0000e+00
      -13  1    1    2    0    0 -1.2034172077e+02 +2.8234355372e+02 +7.1858405531e+02 7.8138534452e+02 0.0000000000e+00 0.0000e+00 1.0000e+00
       13  1    1    2    0    0 +1.2034172077e+02 -2.8234355372e+02 -1.3603848313e+02 3.3571785919e+02 0.0000000000e+00 0.0000e+00 -1.0000e+00
<mgrwt>
<rscale>  0 0.95318426E+03</rscale>
<asrwt>0</asrwt>
<pdfrwt beam="1">  1        2 0.13074221E+00 0.95318426E+03</pdfrwt>
<pdfrwt beam="2">  1       -2 0.41119818E-01 0.95318426E+03</pdfrwt>
<totfact> 0.21598777E+02</totfact>
</mgrwt>
<rwgt>
<wgt id='morphing_basis_vector_1'> +2.5680508e-04 </wgt>
<wgt id='morphing_basis_vector_2'> +3.0776111e-04 </wgt>
<wgt id='morphing_basis_vector_3'> +2.3880696e-04 </wgt>
<wgt id='morphing_basis_vector_4'> +1.9761344e-05 </wgt>
<wgt id='morphing_basis_vector_5'> +1.7082948e-04 </wgt>
</rwgt>
</event>
<event>
 4      1 +1.4786900e-06 9.64578200e+02 7.81860800e-03 8.71889700e-02
        2 -1    0    0  501    0 +0.0000000000e+00 +0.0000000000e+00 +2.2316118640e+02 2.2316118640e+02 0.0000000000e+00 0.0000e+00 -1.0000e+00
       -2 -1    0    0    0  501 -0.0000000000e+00 -0.0000000000e+00 -1.0423084893e+03 1.0423084893e+03 0.0000000000e+00 0.0000e+00 1.0000e+00
      -13  1    1    2    0    0 +3.1008524116e+02 -3.3638595177e+02 -6.0980881991e+02 7.6234845194e+02 0.0000000000e+00 0.0000e+00 1.0000e+00
       13  1    1    2    0    0 -3.1008524116e+02 +3.3638595177e+02 -2.0933848300e+02 5.0312122376e+02 0.0000000000e+00 0.0000e+00 -1.0000e+00
<mgrwt>
<rscale>  0 0.96457825E+03</rscale>
<asrwt>0</asrwt>
<pdfrwt beam="1">  1        2 0.34332490E-01 0.96457825E+03</pdfrwt>
<pdfrwt beam="2">  1       -2 0.16035515E+00 0.96457825E+03</pdfrwt>
<totfact> 0.44566875E+01</totfact>
</mgrwt>
<rwgt>
<wgt id='morphing_basis_vector_1'> +2.0616910e-04 </wgt>
<wgt id='morphing_basis_vector_2'> +1.3328090e-04 </wgt>
<wgt id='morphing_basis_vector_3'> +1.9633199e-04 </wgt>
<wgt id='morphing_basis_vector_4'> +1.1413142e-04 </wgt>
<wgt id='morphing_basis_vector_5'> +1.8524155e-04 </wgt>
</rwgt>
</event>
<event>
 4      1 +1.4786900e-06 9.47889800e+02 7.81860800e-03 8.73567500e-02
        2 -1    0    0  501    0 +0.0000000000e+00 +0.0000000000e+00 +1.7033270240e+03 1.7033270240e+03 0.0000000000e+00 0.0000e+00 -1.0000e+00
       -2 -1    0    0    0  501 -0.0000000000e+00 -0.0000000000e+00 -1.3187354571e+02 1.3187354571e+02 0.0000000000e+00 0.0000e+00 1.0000e+00
      -13  1    1    2    0    0 -1.3808452484e+02 +3.0123199530e+02 +1.2969271721e+02 3.5584863620e+02 0.0000000000e+00 0.0000e+00 1.0000e+00
       13  1    1    2    0    0 +1.3808452484e+02 -3.0123199530e+02 +1.4417607611e+03 1.4793519335e+03 0.0000000000e+00 0.0000e+00 -1.0000e+00
<mgrwt>
<rscale>  0 0.94788981E+03</rscale>
<asrwt>0</asrwt>
<pdfrwt beam="1">  1        2 0.26205030E+00 0.94788981E+03</pdfrwt>
<pdfrwt beam="2">  1       -2 0.20288239E-01 0.94788981E+03</pdfrwt>
<totfact> 0.23771081E+02</totfact>
</mgrwt>
<rwgt>
<wgt id='morphing_basis_vector_1'> +1.9160781e-04 </wgt>
<wgt id='morphing_basis_vector_2'> +1.1931211e-04 </wgt>
<wgt id='morphing_basis_vector_3'> +1.8170509e-04 </wgt>
<wgt id='morphing_basis_vector_4'> +1.0842948e-04 </wgt>
<wgt id='morphing_basis_vector_5'> +1.7176462e-04 </wgt>
</rwgt>
</event>
<event>
 4      1 +1.4786900e-06 9.65089700e+02 7.81860800e-03 8.71838900e-02
        2 -1    0    0  501    0 +0.0000000000e+00 +0.0000000000e+00 +7.4727918315e+02 7.4727918315e+02 0.0000000000e+00 0.0000e+00 -1.0000e+00
       -2 -1    0    0    0  501 -0.0000000000e+00 -0.0000000000e+00 -3.1159643075e+02 3.1159643075e+02 0.0000000000e+00 0.0000e+00 1.0000e+00
      -13  1    1    2    0    0 -3.6764973499e+02 +2.9450925289e+02 +3.3263948145e+02 5.7667239599e+02 0.0000000000e+00 0.0000e+00 1.0000e+00
       13  1    1    2    0    0 +3.6764973499e+02 -2.9450925289e+02 +1.0304327095e+02 4.8220321791e+02 0.0000000000e+00 0.0000e+00 -1.0000e+00
<mgrwt>
<rscale>  0 0.96508969E+03</rscale>
<asrwt>0</asrwt>
<pdfrwt beam="1">  1        2 0.11496603E+00 0.96508969E+03</pdfrwt>
<pdfrwt beam="2">  1       -2 0.47937913E-01 0.96508969E+03</pdfrwt>
<totfact> 0.19000091E+02</totfact>
</mgrwt>
<rwgt>
<wgt id='morphing_basis_vector_1'> +2.1993179e-04 </wgt>
<wgt id='morphing_basis_vector_2'> +1.7407680e-04 </wgt>
<wgt id='morphing_basis_vector_3'> +2.0854441e-04 </wgt>
<wgt id='morphing_basis_vector_4'> +9.4280965e-05 </wgt>
<wgt id='morphing_basis_vector_5'> +1.8451476e-04 </wgt>
</rwgt>
</event>
<event>
 4      1 +1.4786900e-06 9.32312000e+02 7.81860800e-03 8.75166600e-02
        2 -1    0    0  501    0 +0.0000000000e+00 +0.0000000000e+00 +6.3344710210e+02 6.3344710210e+02 0.0000000000e+00 0.0000e+00 -1.0000e+00
       -2 -1    0    0    0  501 -0.0000000000e+00 -0.0000000000e+00 -3.4304589197e+02 3.4304589197e+02 0.0000000000e+00 0.0000e+00 1.0000e+00
      -13  1    1    2    0    0 +2.1679507092e+02 -2.0035679575e+02 -2.3267084326e+02 3.7587054910e+02 0.0000000000e+00 0.0000e+00 1.0000e+00
       13  1    1    2    0    0 -2.1679507092e+02 +2.0035679575e+02 +5.2307205339e+02 6.0062244498e+02 0.0000000000e+00 0.0000e+00 -1.0000e+00
<mgrwt>
<rscale>  0 0.93231202E+03</rscale>
<asrwt>0</asrwt>
<pdfrwt beam="1">  1        2 0.97453400E-01 0.93231202E+03</pdfrwt>
<pdfrwt beam="2">  1       -2 0.52776291E-01 0.93231202E+03</pdfrwt>
<totfact> 0.19290133E+02</totfact>
</mgrwt>
<rwgt>
<wgt id='morphing_basis_vector_1'> +1.8025645e-04 </wgt>
<wgt id='morphing_basis_vector_2'> +1.1175558e-04 </wgt>
<wgt id='morphing_basis_vector_3'> +1.7014170e-04 </wgt>
<wgt id='morphing_basis_vector_4'> +1.0099059e-04 </wgt>
<wgt id='morphing_basis_vector_5'> +1.5971188e-04 </wgt>
</rwgt>
</event>
<event>
 4      1 +1.4786900e-06 9.67534400e+02 7.81860800e-03 8.71596200e-02
        2 -1    0    0  501    0 +0.0000000000e+00 +0.0000000000e+00 +1.4400220066e+03 1.4400220066e+03 0.0000000000e+00 0.0000e+00 -1.0000e+00
       -2 -1    0    0    0  501 -0.0000000000e+00 -0.0000000000e+00 -1.6251885267e+02 1.6251885267e+02 0.0000000000e+00 0.0000e+00 1.0000e+00
      -13  1    1    2    0    0 +3.3260747108e+02 -3.4651787619e+02 +5.4319566475e+02 7.2509578577e+02 0.0000000000e+00 0.0000e+00 1.0000e+00
       13  1    1    2    0    0 -3.3260747108e+02 +3.4651787619e+02 +7.3430748918e+02 8.7744507350e+02 0.0000000000e+00 0.0000e+00 -1.0000e+00
<mgrwt>
<rscale>  0 0.96753444E+03</rscale>
<asrwt>0</asrwt>
<pdfrwt beam="1">  1        2 0.22154184E+00 0.96753444E+03</pdfrwt>
<pdfrwt beam="2">  1       -2 0.25002901E-01 0.96753444E+03</pdfrwt>
<totfact> 0.23312112E+02</totfact>
</mgrwt>
<rwgt>
<wgt id='morphing_basis_vector_1'> +2.1109918e-04 </wgt>
<wgt id='morphing_basis_vector_2'> +1.4272812e-04 </wgt>
<wgt id='morphing_basis_vector_3'> +2.0102879e-04 </wgt>
<wgt id='morphing_basis_vector_4'> +1.1173753e-04 </wgt>
<wgt id='morphing_basis_vector_5'> +1.8750892e-04 </wgt>
</rwgt>
</event>
<event>
 4      1 +1.4786900e-06 9.20769500e+02 7.81860800e-03 8.76372600e-02
        2 -1    0    0  501    0 +0.0000000000e+00 +0.0000000000e+00 +8.3023524871e+02 8.3023524871e+02 0.0000000000e+00 0.0000e+00 -1.0000e+00
       -2 -1    0    0    0  501 -0.0000000000e+00 -0.0000000000e+00 -2.5529403862e+02 2.5529403862e+02 0.0000000000e+00 0.0000e+00 1.0000e+00
      -13  1    1    2    0    0 +8.3430008983e+01 -2.4724243831e+02 -1.5969437162e+02 3.0592757644e+02 0.0000000000e+00 0.0000e+00 1.0000e+00
       13  1    1    2    0    0 -8.3430008983e+01 +2.4724243831e+02 +7.3463558172e+02 7.7960171089e+02 0.0000000000e+00 0.0000e+00 -1.0000e+00
<mgrwt>
<rscale>  0 0.92076948E+03</rscale>
<asrwt>0</asrwt>
<pdfrwt beam="1">  1        2 0.12772850E+00 0.92076948E+03</pdfrwt>
<pdfrwt beam="2">  1       -2 0.39276006E-01 0.92076948E+03</pdfrwt>
<totfact> 0.24305273E+02</totfact>
</mgrwt>
<rwgt>
<wgt id='morphing_basis_vector_1'> +1.7219837e-04 </wgt>
<wgt id='morphing_basis_vector_2'> +1.0643237e-04 </wgt>
<wgt id='morphing_basis_vector_3'> +1.6195191e-04 </wgt>
<wgt id='morphing_basis_vector_4'> +9.5706707e-05 </wgt>
<wgt id='morphing_basis_vector_5'> +1.5118582e-04 </wgt>
</rwgt>
</event>
<event>
 4      1 +1.4786900e-06 9.95947600e+02 7.81860800e-03 8.68829600e-02
        2 -1    0    0  501    0 +0.0000000000e+00 +0.0000000000e+00 +8.8695963880e+02 8.8695963880e+02 0.0000000000e+00 0.0000e+00 1.0000e+00
       -2 -1    0    0    0  501 -0.0000000000e+00 -0.0000000000e+00 -2.7958193196e+02 2.7958193196e+02 0.0000000000e+00 0.0000e+00 -1.0000e+00
      -13  1    1    2    0    0 +3.0400305334e+02 +3.6643458877e+02 +4.7457543772e+02 6.7224549858e+02 0.0000000000e+00 0.0000e+00 1.0000e+00
       13  1    1    2    0    0 -3.0400305334e+02 -3.6643458877e+02 +1.3280226912e+02 4.9429607217e+02 0.0000000000e+00 0.0000e+00 -1.0000e+00
<mgrwt>
<rscale>  0 0.99594757E+03</rscale>
<asrwt>0</asrwt>
<pdfrwt beam="1">  1        2 0.13645533E+00 0.99594757E+03</pdfrwt>
<pdfrwt beam="2">  1       -2 0.43012605E-01 0.99594757E+03</pdfrwt>
<totfact> 0.18698517E+02</totfact>
</mgrwt>
<rwgt>
<wgt id='morphing_basis_vector_1'> +2.5192782e-04 </wgt>
<wgt id='morphing_basis_vector_2'> +2.1109632e-04 </wgt>
<wgt id='morphing_basis_vector_3'> +2.4132122e-04 </wgt>
<wgt id='morphing_basis_vector_4'> +1.0034016e-04 </wgt>
<wgt id='morphing_basis_vector_5'> +2.1113963e-04 </wgt>
</rwgt>
</event>
<event>
 4      1 +1.4786900e-06 1.02260800e+03 7.81860800e-03 8.66319600e-02
        2 -1    0    0  501    0 +0.0000000000e+00 +0.0000000000e+00 +1.8636305234e+03 1.8636305234e+03 0.0000000000e+00 0.0000e+00 1.0000e+00
       -2 -1    0    0    0  501 -0.0000000000e+00 -0.0000000000e+00 -1.4028101408e+02 1.4028101408e+02 0.0000000000e+00 0.0000e+00 -1.0000e+00
      -13  1    1    2    0    0 -2.4307983958e+02 +4.3096274330e+02 +6.0908071763e+02 7.8472671365e+02 0.0000000000e+00 0.0000e+00 -1.0000e+00
       13  1    1    2    0    0 +2.4307983958e+02 -4.3096274330e+02 +1.1142687917e+03 1.2191848239e+03 0.0000000000e+00 0.0000e+00 1.0000e+00
<mgrwt>
<rscale>  0 0.10226084E+04</rscale>
<asrwt>0</asrwt>
<pdfrwt beam="1">  1        2 0.28671237E+00 0.10226084E+04</pdfrwt>
<pdfrwt beam="2">  1       -2 0.21581696E-01 0.10226084E+04</pdfrwt>
<totfact> 0.17380761E+02</totfact>
</mgrwt>
<rwgt>
<wgt id='morphing_basis_vector_1'> +2.5661302e-04 </wgt>
<wgt id='morphing_basis_vector_2'> +1.6920819e-04 </wgt>
<wgt id='morphing_basis_vector_3'> +2.4827135e-04 </wgt>
<wgt id='morphing_basis_vector_4'> +1.4559671e-04 </wgt>
<wgt id='morphing_basis_vector_5'> +2.3872978e-04 </wgt>
</rwgt>
</event>
<event>
 4      1 +1.4786900e-06 9.31370900e+02 7.81860800e-03 8.75264200e-02
        2 -1    0    0  501    0 +0.0000000000e+00 +0.0000000000e+00 +6.2164642683e+02 6.2164642683e+02 0.0000000000e+00 0.0000e+00 -1.0000e+00
       -2 -1    0    0    0  501 -0.0000000000e+00 -0.0000000000e+00 -3.4885251391e+02 3.4885251391e+02 0.0000000000e+00 0.0000e+00 1.0000e+00
      -13  1    1    2    0    0 +4.1896467720e+02 -1.2940986451e+02 +2.9977889251e+02 5.3117388694e+02 0.0000000000e+00 0.0000e+00 1.0000e+00
       13  1    1    2    0    0 -4.1896467720e+02 +1.2940986451e+02 -2.6984979590e+01 4.3932505380e+02 0.0000000000e+00 0.0000e+00 -1.0000e+00
<mgrwt>
<rscale>  0 0.93137086E+03</rscale>
<asrwt>0</asrwt>
<pdfrwt beam="1">  1        2 0.95637911E-01 0.93137086E+03</pdfrwt>
<pdfrwt beam="2">  1       -2 0.53669618E-01 0.93137086E+03</pdfrwt>
<totfact> 0.19080161E+02</totfact>
</mgrwt>
<rwgt>
<wgt id='morphing_basis_vector_1'> +1.9947178e-04 </wgt>
<wgt id='morphing_basis_vector_2'> +1.7172950e-04 </wgt>
<wgt id='morphing_basis_vector_3'> +1.8605161e-04 </wgt>
<wgt id='morphing_basis_vector_4'> +7.1443060e-05 </wgt>
<wgt id='morphing_basis_vector_5'> +1.5739649e-04 </wgt>
</rwgt>
</event>
<event>
 4      1 +1.4786900e-06 1.02235600e+03 7.81860800e-03 8.66343000e-02
        2 -1    0    0  501    0 +0.0000000000e+00 +0.0000000000e+00 +1.2975982465e+03 1.2975982465e+03 0.0000000000e+00 0.0000e+00 -1.0000e+00
       -2 -1    0    0    0  501 -0.0000000000e+00 -0.0000000000e+00 -2.0137440165e+02 2.0137440165e+02 0.0000000000e+00 0.0000e+00 1.0000e+00
      -13  1    1    2    0    0 -1.9216047500e+02 -1.0181074841e+02 -1.3017042217e+02 2.5344706637e+02 0.0000000000e+00 0.0000e+00 1.0000e+00
       13  1    1    2    0    0 +1.9216047500e+02 +1.0181074841e+02 +1.2263942670e+03 1.2455255817e+03 0.0000000000e+00 0.0000e+00 -1.0000e+00
<mgrwt>
<rscale>  0 0.10223562E+04</rscale>
<asrwt>0</asrwt>
<pdfrwt beam="1">  1        2 0.19963049E+00 0.10223562E+04</pdfrwt>
<pdfrwt beam="2">  1       -2 0.30980678E-01 0.10223562E+04</pdfrwt>
<totfact> 0.19213644E+02</totfact>
</mgrwt>
<rwgt>
<wgt id='morphing_basis_vector_1'> +2.5295656e-04 </wgt>
<wgt id='morphing_basis_vector_2'> +1.5869721e-04 </wgt>
<wgt id='morphing_basis_vector_3'> +2.4475304e-04 </wgt>
<wgt id='morphing_basis_vector_4'> +1.5080827e-04 </wgt>
<wgt id='morphing_basis_vector_5'> +2.3880135e-04 </wgt>
</rwgt>
</event>
<event>
 4      1 +1.4786900e-06 9.20568200e+02 7.81860800e-03 8.76393800e-02
        2 -1    0    0  501    0 +0.0000000000e+00 +0.0000000000e+00 +1.2984232915e+03 1.2984232915e+03 0.0000000000e+00 0.0000e+00 1.0000e+00
       -2 -1    0    0    0  501 -0.0000000000e+00 -0.0000000000e+00 -1.6316824270e+02 1.6316824270e+02 0.0000000000e+00 0.0000e+00 -1.0000e+00
      -13  1    1    2    0    0 -3.3627012301e+02 +1.8739180577e+02 +1.6700882790e+02 4.1962511018e+02 0.0000000000e+00 0.0000e+00 -1.0000e+00
       13  1    1    2    0    0 +3.3627012301e+02 -1.8739180577e+02 +9.6824622095e+02 1.0419664241e+03 0.0000000000e+00 0.0000e+00 1.0000e+00
<mgrwt>
<rscale>  0 0.92056819E+03</rscale>
<asrwt>0</asrwt>
<pdfrwt beam="1">  1        2 0.19975742E+00 0.92056819E+03</pdfrwt>
<pdfrwt beam="2">  1       -2 0.25102807E-01 0.92056819E+03</pdfrwt>
<totfact> 0.27908340E+02</totfact>
</mgrwt>
<rwgt>
<wgt id='morphing_basis_vector_1'> +1.7256987e-04 </wgt>
<wgt id='morphing_basis_vector_2'> +1.0789033e-04 </wgt>
<wgt id='morphing_basis_vector_3'> +1.6222846e-04 </wgt>
<wgt id='morphing_basis_vector_4'> +9.4877630e-05 </wgt>
<wgt id='morphing_basis_vector_5'> +1.5099992e-04 </wgt>
</rwgt>
</event>
<event>
 4      1 +1.4786900e-06 9.75166300e+02 7.81860800e-03 8.70843500e-02
        2 -1    0    0  501    0 +0.0000000000e+00 +0.0000000000e+00 +2.5431427279e+03 2.5431427279e+03 0.0000000000e+00 0.0000e+00 1.0000e+00
       -2 -1    0    0    0  501 -0.0000000000e+00 -0.0000000000e+00 -9.3481703831e+01 9.3481703831e+01 0.0000000000e+00 0.0000e+00 -1.0000e+00
      -13  1    1    2    0    0 -4.4452514951e+02 -5.9473369871e+01 +1.7420752140e+03 1.7988790235e+03 0.0000000000e+00 0.0000e+00 -1.0000e+00
       13  1    1    2    0    0 +4.4452514951e+02 +5.9473369871e+01 +7.0758581012e+02 8.3774540820e+02 0.0000000000e+00 0.0000e+00 1.0000e+00
<mgrwt>
<rscale>  0 0.97516627E+03</rscale>
<asrwt>0</asrwt>
<pdfrwt beam="1">  1        2 0.39125268E+00 0.97516627E+03</pdfrwt>
<pdfrwt beam="2">  1       -2 0.14381802E-01 0.97516627E+03</pdfrwt>
<totfact> 0.14004339E+02</totfact>
</mgrwt>
<rwgt>
<wgt id='morphing_basis_vector_1'> +2.4057247e-04 </wgt>
<wgt id='morphing_basis_vector_2'> +2.1765357e-04 </wgt>
<wgt id='morphing_basis_vector_3'> +2.2828923e-04 </wgt>
<wgt id='morphing_basis_vector_4'> +8.0282541e-05 </wgt>
<wgt id='morphing_basis_vector_5'> +1.9199584e-04 </wgt>
</rwgt>
</event>
<event>
 4      1 +1.4786900e-06 1.06750500e+03 7.81860800e-03 8.62266900e-02
        2 -1    0    0  501    0 +0.0000000000e+00 +0.0000000000e+00 +2.9577407554e+03 2.9577407554e+03 0.0000000000e+00 0.0000e+00 -1.0000e+00
       -2 -1    0    0    0  501 -0.0000000000e+00 -0.0000000000e+00 -9.6320756582e+01 9.6320756582e+01 0.0000000000e+00 0.0000e+00 1.0000e+00
      -13  1    1    2    0    0 +4.5673916549e+02 -2.3822828398e+02 +1.0309110581e+03 1.1524499947e+03 0.0000000000e+00 0.0000e+00 1.0000e+00
       13  1    1    2    0    0 -4.5673916549e+02 +2.3822828398e+02 +1.8305089406e+03 1.9016115172e+03 0.0000000000e+00 0.0000e+00 -1.0000e+00
<mgrwt>
<rscale>  0 0.10675052E+04</rscale>
<asrwt>0</asrwt>
<pdfrwt beam="1">  1        2 0.45503697E+00 0.10675052E+04</pdfrwt>
<pdfrwt beam="2">  1       -2 0.14818580E-01 0.10675052E+04</pdfrwt>
<totfact> 0.73602102E+01</totfact>
</mgrwt>
<rwgt>
<wgt id='morphing_basis_vector_1'> +3.0092566e-04 </wgt>
<wgt id='morphing_basis_vector_2'> +1.9916092e-04 </wgt>
<wgt id='morphing_basis_vector_3'> +2.9432123e-04 </wgt>
<wgt id='morphing_basis_vector_4'> +1.7529492e-04 </wgt>
<wgt id='morphing_basis_vector_5'> +2.8732956e-04 </wgt>
</rwgt>
</event>
<event>
 4      1 +1.4786900e-06 1.01868900e+03 7.81860800e-03 8.66683600e-02
        2 -1    0    0  501    0 +0.0000000000e+00 +0.0000000000e+00 +8.9513244541e+02 8.9513244541e+02 0.0000000000e+00 0.0000e+00 1.0000e+00
       -2 -1    0    0    0  501 -0.0000000000e+00 -0.0000000000e+00 -2.8982491799e+02 2.8982491799e+02 0.0000000000e+00 0.0000e+00 -1.0000e+00
      -13  1    1    2    0    0 +3.2492287116e+02 +3.8151592589e+02 +4.0864340008e+02 6.4662098817e+02 0.0000000000e+00 0.0000e+00 -1.0000e+00
       13  1    1    2    0    0 -3.2492287116e+02 -3.8151592589e+02 +1.9666412734e+02 5.3833637523e+02 0.0000000000e+00 0.0000e+00 1.0000e+00
<mgrwt>
<rscale>  0 0.10186887E+04</rscale>
<asrwt>0</asrwt>
<pdfrwt beam="1">  1        2 0.13771268E+00 0.10186887E+04</pdfrwt>
<pdfrwt beam="2">  1       -2 0.44588449E-01 0.10186887E+04</pdfrwt>
<totfact> 0.17222218E+02</totfact>
</mgrwt>
<rwgt>
<wgt id='morphing_basis_vector_1'> +2.6627093e-04 </wgt>
<wgt id='morphing_basis_vector_2'> +2.0692370e-04 </wgt>
<wgt id='morphing_basis_vector_3'> +2.5717218e-04 </wgt>
<wgt id='morphing_basis_vector_4'> +1.2242939e-04 </wgt>
<wgt id='morphing_basis_vector_5'> +2.3353625e-04 </wgt>
</rwgt>
</event>
<event>
 4      1 +1.4786900e-06 1.05573300e+03 7.81860800e-03 8.63309300e-02
        2 -1    0    0  501    0 +0.0000000000e+00 +0.0000000000e+00 +1.1769785571e+03 1.1769785571e+03 0.0000000000e+00 0.0000e+00 -1.0000e+00
       -2 -1    0    0    0  501 -0.0000000000e+00 -0.0000000000e+00 -2.3674457434e+02 2.3674457434e+02 0.0000000000e+00 0.0000e+00 1.0000e+00
      -13  1    1    2    0    0 +2.9218393370e+02 -2.3794754169e+02 -2.4899136919e+01 3.7763798899e+02 0.0000000000e+00 0.0000e+00 1.0000e+00
       13  1    1    2    0    0 -2.9218393370e+02 +2.3794754169e+02 +9.6513311972e+02 1.0360851425e+03 0.0000000000e+00 0.0000e+00 -1.0000e+00
<mgrwt>
<rscale>  0 0.10557335E+04</rscale>
<asrwt>0</asrwt>
<pdfrwt beam="1">  1        2 0.18107362E+00 0.10557335E+04</pdfrwt>
<pdfrwt beam="2">  1       -2 0.36422243E-01 0.10557335E+04</pdfrwt>
<totfact> 0.16813036E+02</totfact>
</mgrwt>
<rwgt>
<wgt id='morphing_basis_vector_1'> +2.8535263e-04 </wgt>
<wgt id='morphing_basis_vector_2'> +1.8059582e-04 </wgt>
<wgt id='morphing_basis_vector_3'> +2.7826145e-04 </wgt>
<wgt id='morphing_basis_vector_4'> +1.7259755e-04 </wgt>
<wgt id='morphing_basis_vector_5'> +2.7428748e-04 </wgt>
</rwgt>
</event>
<event>
 4      1 +1.4786900e-06 1.01427800e+03 7.81860800e-03 8.67095300e-02
        2 -1    0    0  501    0 +0.0000000000e+00 +0.0000000000e+00 +1.6807309083e+03 1.6807309083e+03 0.0000000000e+00 0.0000e+00 -1.0000e+00
       -2 -1    0    0    0  501 -0.0000000000e+00 -0.0000000000e+00 -1.5302254324e+02 1.5302254324e+02 0.0000000000e+00 0.0000e+00 1.0000e+00
      -13  1    1    2    0    0 +4.5739730444e+02 -3.8092640466e+01 +3.7388188738e+02 5.9198902783e+02 0.0000000000e+00 0.0000e+00 1.0000e+00
       13  1    1    2    0    0 -4.5739730444e+02 +3.8092640466e+01 +1.1538264777e+03 1.2417644238e+03 0.0000000000e+00 0.0000e+00 -1.0000e+00
<mgrwt>
<rscale>  0 0.10142775E+04</rscale>
<asrwt>0</asrwt>
<pdfrwt beam="1">  1        2 0.25857397E+00 0.10142775E+04</pdfrwt>
<pdfrwt beam="2">  1       -2 0.23541931E-01 0.10142775E+04</pdfrwt>
<totfact> 0.18941263E+02</totfact>
</mgrwt>
<rwgt>
<wgt id='morphing_basis_vector_1'> +2.4716061e-04 </wgt>
<wgt id='morphing_basis_vector_2'> +1.5855946e-04 </wgt>
<wgt id='morphing_basis_vector_3'> +2.3864271e-04 </wgt>
<wgt id='morphing_basis_vector_4'> +1.4335473e-04 </wgt>
<wgt id='morphing_basis_vector_5'> +2.3059292e-04 </wgt>
</rwgt>
</event>
<event>
 4      1 +1.4786900e-06 1.03418900e+03 7.81860800e-03 8.65254000e-02
        2 -1    0    0  501    0 +0.0000000000e+00 +0.0000000000e+00 +8.4621084664e+02 8.4621084664e+02 0.0000000000e+00 0.0000e+00 1.0000e+00
       -2 -1    0    0    0  501 -0.0000000000e+00 -0.0000000000e+00 -3.1598093531e+02 3.1598093531e+02 0.0000000000e+00 0.0000e+00 -1.0000e+00
      -13  1    1    2    0    0 -2.5493266685e+02 -2.6298689749e+01 -2.3958765470e+02 3.5083404908e+02 0.0000000000e+00 0.0000e+00 -1.0000e+00
       13  1    1    2    0    0 +2.5493266685e+02 +2.6298689749e+01 +7.6981756603e+02 8.1135773287e+02 0.0000000000e+00 0.0000e+00 1.0000e+00
<mgrwt>
<rscale>  0 0.10341886E+04</rscale>
<asrwt>0</asrwt>
<pdfrwt beam="1">  1        2 0.13018628E+00 0.10341886E+04</pdfrwt>
<pdfrwt beam="2">  1       -2 0.48612452E-01 0.10341886E+04</pdfrwt>
<totfact> 0.15695621E+02</totfact>
</mgrwt>
<rwgt>
<wgt id='morphing_basis_vector_1'> +2.6401667e-04 </wgt>
<wgt id='morphing_basis_vector_2'> +1.6596737e-04 </wgt>
<wgt id='morphing_basis_vector_3'> +2.5617950e-04 </wgt>
<wgt id='morphing_basis_vector_4'> +1.5841721e-04 </wgt>
<wgt id='morphing_basis_vector_5'> +2.5097937e-04 </wgt>
</rwgt>
</event>
<event>
 4      1 +1.4786900e-06 9.71140100e+02 7.81860800e-03 8.71239700e-02
        2 -1    0    0  501    0 +0.0000000000e+00 +0.0000000000e+00 +3.0469365596e+02 3.0469365596e+02 0.0000000000e+00 0.0000e+00 -1.0000e+00
       -2 -1    0    0    0  501 -0.0000000000e+00 -0.0000000000e+00 -7.7382069110e+02 7.7382069110e+02 0.0000000000e+00 0.0000e+00 1.0000e+00
      -13  1    1    2    0    0 -1.5458514532e+02 +4.0688058115e+02 +4.4787215601e+00 4.3527971859e+02 0.0000000000e+00 0.0000e+00 1.0000e+00
       13  1    1    2    0    0 +1.5458514532e+02 -4.0688058115e+02 -4.7360575670e+02 6.4323462846e+02 0.0000000000e+00 0.0000e+00 -1.0000e+00
<mgrwt>
<rscale>  0 0.97114006E+03</rscale>
<asrwt>0</asrwt>
<pdfrwt beam="1">  1        2 0.46875947E-01 0.97114006E+03</pdfrwt>
<pdfrwt beam="2">  1       -2 0.11904934E+00 0.97114006E+03</pdfrwt>
<totfact> 0.71089341E+01</totfact>
</mgrwt>
<rwgt>
<wgt id='morphing_basis_vector_1'> +2.4143339e-04 </wgt>
<wgt id='morphing_basis_vector_2'> +2.2793155e-04 </wgt>
<wgt id='morphing_basis_vector_3'> +2.2847367e-04 </wgt>
<wgt id='morphing_basis_vector_4'> +7.2070754e-05 </wgt>
<wgt id='morphing_basis_vector_5'> +1.8817758e-04 </wgt>
</rwgt>
</event>
<event>
 4      1 +1.4786900e-06 9.19214700e+02 7.81860800e-03 8.76536500e-02
        2 -1    0    0  501    0 +0.0000000000e+00 +0.0000000000e+00 +7.8395791295e+02 7.8395791295e+02 0.0000000000e+00 0.0000e+00 -1.0000e+00
       -2 -1    0    0    0  501 -0.0000000000e+00 -0.0000000000e+00 -2.6945184621e+02 2.6945184621e+02 0.0000000000e+00 0.0000e+00 1.0000e+00
      -13  1    1    2    0    0 +4.4154015986e+02 -3.5221035959e+01 +1.1670848038e+02 4.5806015275e+02 0.0000000000e+00 0.0000e+00 1.0000e+00
       13  1    1    2    0    0 -4.4154015986e+02 +3.5221035959e+01 +3.9779758636e+02 5.9534960641e+02 0.0000000000e+00 0.0000e+00 -1.0000e+00
<mgrwt>
<rscale>  0 0.91921468E+03</rscale>
<asrwt>0</asrwt>
<pdfrwt beam="1">  1        2 0.12060891E+00 0.91921468E+03</pdfrwt>
<pdfrwt beam="2">  1       -2 0.41454130E-01 0.91921468E+03</pdfrwt>
<totfact> 0.23665078E+02</totfact>
</mgrwt>
<rwgt>
<wgt id='morphing_basis_vector_1'> +1.7325672e-04 </wgt>
<wgt id='morphing_basis_vector_2'> +1.1218275e-04 </wgt>
<wgt id='morphing_basis_vector_3'> +1.6260305e-04 </wgt>
<wgt id='morphing_basis_vector_4'> +9.1937530e-05 </wgt>
<wgt id='morphing_basis_vector_5'> +1.4989622e-04 </wgt>
</rwgt>
</event>
<event>
 4      1 +1.4786900e-06 9.30652900e+02 7.81860800e-03 8.75338800e-02
        2 -1    0    0  501    0 +0.0000000000e+00 +0.0000000000e+00 +1.6750628643e+03 1.6750628643e+03 0.0000000000e+00 0.0000e+00 -1.0000e+00
       -2 -1    0    0    0  501 -0.0000000000e+00 -0.0000000000e+00 -1.2926600957e+02 1.2926600957e+02 0.0000000000e+00 0.0000e+00 1.0000e+00
      -13  1    1    2    0    0 +2.8559804854e+02 +2.9095974427e+02 +3.3805489977e+02 5.2962716450e+02 0.0000000000e+00 0.0000e+00 1.0000e+00
       13  1    1    2    0    0 -2.8559804854e+02 -2.9095974427e+02 +1.2077419550e+03 1.2747017094e+03 0.0000000000e+00 0.0000e+00 -1.0000e+00
<mgrwt>
<rscale>  0 0.93065287E+03</rscale>
<asrwt>0</asrwt>
<pdfrwt beam="1">  1        2 0.25770196E+00 0.93065287E+03</pdfrwt>
<pdfrwt beam="2">  1       -2 0.19887080E-01 0.93065287E+03</pdfrwt>
<totfact> 0.25507776E+02</totfact>
</mgrwt>
<rwgt>
<wgt id='morphing_basis_vector_1'> +1.7982395e-04 </wgt>
<wgt id='morphing_basis_vector_2'> +1.1323702e-04 </wgt>
<wgt id='morphing_basis_vector_3'> +1.6956491e-04 </wgt>
<wgt id='morphing_basis_vector_4'> +9.9130662e-05 </wgt>
<wgt id='morphing_basis_vector_5'> +1.5840534e-04 </wgt>
</rwgt>
</event>
<event>
 4      1 +1.4786900e-06 1.01271100e+03 7.81860800e-03 8.67242000e-02
        2 -1    0    0  501    0 +0.0000000000e+00 +0.0000000000e+00 +7.9875181371e+02 7.9875181371e+02 0.0000000000e+00 0.0000e+00 -1.0000e+00
       -2 -1    0    0    0  501 -0.0000000000e+00 -0.0000000000e+00 -3.2099592509e+02 3.2099592509e+02 0.0000000000e+00 0.0000e+00 1.0000e+00
      -13  1    1    2    0    0 +5.8660503134e+00 -4.1219584323e+02 -8.6233843602e+01 4.2116042015e+02 0.0000000000e+00 0.0000e+00 1.0000e+00
       13  1    1    2    0    0 -5.8660503134e+00 +4.1219584323e+02 +5.6398973222e+02 6.9858731864e+02 0.0000000000e+00 0.0000e+00 -1.0000e+00
<mgrwt>
<rscale>  0 0.10127114E+04</rscale>
<asrwt>0</asrwt>
<pdfrwt beam="1">  1        2 0.12288489E+00 0.10127114E+04</pdfrwt>
<pdfrwt beam="2">  1       -2 0.49383989E-01 0.10127114E+04</pdfrwt>
<totfact> 0.16431275E+02</totfact>
</mgrwt>
<rwgt>
<wgt id='morphing_basis_vector_1'> +2.4487982e-04 </wgt>
<wgt id='morphing_basis_vector_2'> +1.5498625e-04 </wgt>
<wgt id='morphing_basis_vector_3'> +2.3636319e-04 </wgt>
<wgt id='morphing_basis_vector_4'> +1.4376026e-04 </wgt>
<wgt id='morphing_basis_vector_5'> +2.2913585e-04 </wgt>
</rwgt>
</event>
<event>
 4      1 +1.4786900e-06 9.36803000e+02 7.81860800e-03 8.74702300e-02
        2 -1    0    0  501    0 +0.0000000000e+00 +0.0000000000e+00 +8.3946409971e+02 8.3946409971e+02 0.0000000000e+00 0.0000e+00 -1.0000e+00
       -2 -1    0    0    0  501 -0.0000000000e+00 -0.0000000000e+00 -2.6135717995e+02 2.6135717995e+02 0.0000000000e+00 0.0000e+00 1.0000e+00
      -13  1    1    2    0    0 -3.0533884311e+02 +2.2360761101e+02 -3.5251981848e+01 3.8009850702e+02 0.0000000000e+00 0.0000e+00 1.0000e+00
       13  1    1    2    0    0 +3.0533884311e+02 -2.2360761101e+02 +6.1335890162e+02 7.2072277264e+02 0.0000000000e+00 0.0000e+00 -1.0000e+00
<mgrwt>
<rscale>  0 0.93680301E+03</rscale>
<asrwt>0</asrwt>
<pdfrwt beam="1">  1        2 0.12914832E+00 0.93680301E+03</pdfrwt>
<pdfrwt beam="2">  1       -2 0.40208797E-01 0.93680301E+03</pdfrwt>
<totfact> 0.22911064E+02</totfact>
</mgrwt>
<rwgt>
<wgt id='morphing_basis_vector_1'> +1.8381273e-04 </wgt>
<wgt id='morphing_basis_vector_2'> +1.1492400e-04 </wgt>
<wgt id='morphing_basis_vector_3'> +1.7370132e-04 </wgt>
<wgt id='morphing_basis_vector_4'> +1.0259768e-04 </wgt>
<wgt id='morphing_basis_vector_5'> +1.6309366e-04 </wgt>
</rwgt>
</event>
<event>
 4      1 +1.4786900e-06 9.61321700e+02 7.81860800e-03 8.72214300e-02
        2 -1    0    0  501    0 +0.0000000000e+00 +0.0000000000e+00 +1.3762547328e+03 1.3762547328e+03 0.0000000000e+00 0.0000e+00 -1.0000e+00
       -2 -1    0    0    0  501 -0.0000000000e+00 -0.0000000000e+00 -1.6787215333e+02 1.6787215333e+02 0.0000000000e+00 0.0000e+00 1.0000e+00
      -13  1    1    2    0    0 +5.5364479973e+01 -4.4437960683e+02 +3.2368769832e+02 5.5255061909e+02 0.0000000000e+00 0.0000e+00 1.0000e+00
       13  1    1    2    0    0 -5.5364479973e+01 +4.4437960683e+02 +8.8469488111e+02 9.9157626700e+02 0.0000000000e+00 0.0000e+00 -1.0000e+00
<mgrwt>
<rscale>  0 0.96132169E+03</rscale>
<asrwt>0</asrwt>
<pdfrwt beam="1">  1        2 0.21173149E+00 0.96132169E+03</pdfrwt>
<pdfrwt beam="2">  1       -2 0.25826486E-01 0.96132169E+03</pdfrwt>
<totfact> 0.23948598E+02</totfact>
</mgrwt>
<rwgt>
<wgt id='morphing_basis_vector_1'> +2.0323407e-04 </wgt>
<wgt id='morphing_basis_vector_2'> +1.3038862e-04 </wgt>
<wgt id='morphing_basis_vector_3'> +1.9337875e-04 </wgt>
<wgt id='morphing_basis_vector_4'> +1.1305345e-04 </wgt>
<wgt id='morphing_basis_vector_5'> +1.8255645e-04 </wgt>
</rwgt>
</event>
<event>
 4      1 +1.4786900e-06 9.11971200e+02 7.81860800e-03 8.77304400e-02
        2 -1    0    0  501    0 +0.0000000000e+00 +0.0000000000e+00 +2.6109286965e+03 2.6109286965e+03 0.0000000000e+00 0.0000e+00 1.0000e+00
       -2 -1    0    0    0  501 -0.0000000000e+00 -0.0000000000e+00 -7.9635595092e+01 7.9635595092e+01 0.0000000000e+00 0.0000e+00 -1.0000e+00
      -13  1    1    2    0    0 +4.3925479735e+02 +3.0581589954e+01 +1.6152614110e+03 1.6742011338e+03 0.0000000000e+00 0.0000e+00 -1.0000e+00
       13  1    1    2    0    0 -4.3925479735e+02 -3.0581589954e+01 +9.1603169043e+02 1.0163631578e+03 0.0000000000e+00 0.0000e+00 1.0000e+00
<mgrwt>
<rscale>  0 0.91197118E+03</rscale>
<asrwt>0</asrwt>
<pdfrwt beam="1">  1        2 0.40168127E+00 0.91197118E+03</pdfrwt>
<pdfrwt beam="2">  1       -2 0.12251632E-01 0.91197118E+03</pdfrwt>
<totfact> 0.16615029E+02</totfact>
</mgrwt>
<rwgt>
<wgt id='morphing_basis_vector_1'> +1.8067533e-04 </wgt>
<wgt id='morphing_basis_vector_2'> +1.4639803e-04 </wgt>
<wgt id='morphing_basis_vector_3'> +1.6751889e-04 </wgt>
<wgt id='morphing_basis_vector_4'> +7.1059711e-05 </wgt>
<wgt id='morphing_basis_vector_5'> +1.4379647e-04 </wgt>
</rwgt>
</event>
<event>
 4      1 +1.4786900e-06 9.17257800e+02 7.81860800e-03 8.76743200e-02
        2 -1    0    0  501    0 +0.0000000000e+00 +0.0000000000e+00 +3.3650364062e+02 3.3650364062e+02 0.0000000000e+00 0.0000e+00 1.0000e+00
       -2 -1    0    0    0  501 -0.0000000000e+00 -0.0000000000e+00 -6.2507634092e+02 6.2507634092e+02 0.0000000000e+00 0.0000e+00 -1.0000e+00
      -13  1    1    2    0    0 -3.9536291181e+02 -2.0593170465e+02 -2.5729491767e+02 5.1470416132e+02 0.0000000000e+00 0.0000e+00 1.0000e+00
       13  1    1    2    0    0 +3.9536291181e+02 +2.0593170465e+02 -3.1277782621e+01 4.4687582023e+02 0.0000000000e+00 0.0000e+00 -1.0000e+00
<mgrwt>
<rscale>  0 0.91725779E+03</rscale>
<asrwt>0</asrwt>
<pdfrwt beam="1">  1        2 0.51769791E-01 0.91725779E+03</pdfrwt>
<pdfrwt beam="2">  1       -2 0.96165590E-01 0.91725779E+03</pdfrwt>
<totfact> 0.10835554E+02</totfact>
</mgrwt>
<rwgt>
<wgt id='morphing_basis_vector_1'> +1.7221805e-04 </wgt>
<wgt id='morphing_basis_vector_2'> +1.1219580e-04 </wgt>
<wgt id='morphing_basis_vector_3'> +1.6148339e-04 </wgt>
<wgt id='morphing_basis_vector_4'> +9.0648822e-05 </wgt>
<wgt id='morphing_basis_vector_5'> +1.4846968e-04 </wgt>
</rwgt>
</event>
<event>
 4      1 +1.4786900e-06 1.00053200e+03 7.81860800e-03 8.68392200e-02
        2 -1    0    0  501    0 +0.0000000000e+00 +0.0000000000e+00 +1.0991697942e+03 1.0991697942e+03 0.0000000000e+00 0.0000e+00 1.0000e+00
       -2 -1    0    0    0  501 -0.0000000000e+00 -0.0000000000e+00 -2.2768653596e+02 2.2768653596e+02 0.0000000000e+00 0.0000e+00 -1.0000e+00
      -13  1    1    2    0    0 -3.4572893911e+02 +2.8987948538e+02 +1.4913490871e+02 4.7518400266e+02 0.0000000000e+00 0.0000e+00 -1.0000e+00
       13  1    1    2    0    0 +3.4572893911e+02 -2.8987948538e+02 +7.2234834957e+02 8.5167232754e+02 0.0000000000e+00 0.0000e+00 1.0000e+00
<mgrwt>
<rscale>  0 0.10005322E+04</rscale>
<asrwt>0</asrwt>
<pdfrwt beam="1">  1        2 0.16910304E+00 0.10005322E+04</pdfrwt>
<pdfrwt beam="2">  1       -2 0.35028698E-01 0.10005322E+04</pdfrwt>
<totfact> 0.20147309E+02</totfact>
</mgrwt>
<rwgt>
<wgt id='morphing_basis_vector_1'> +2.3494692e-04 </wgt>
<wgt id='morphing_basis_vector_2'> +1.5032244e-04 </wgt>
<wgt id='morphing_basis_vector_3'> +2.2604427e-04 </wgt>
<wgt id='morphing_basis_vector_4'> +1.3523882e-04 </wgt>
<wgt id='morphing_basis_vector_5'> +2.1734648e-04 </wgt>
</rwgt>
</event>
<event>
 4      1 +1.4786900e-06 9.15073200e+02 7.81860800e-03 8.76974700e-02
        2 -1    0    0  501    0 +0.0000000000e+00 +0.0000000000e+00 +2.8756747363e+02 2.8756747363e+02 0.0000000000e+00 0.0000e+00 1.0000e+00
       -2 -1    0    0    0  501 -0.0000000000e+00 -0.0000000000e+00 -7.2796730729e+02 7.2796730729e+02 0.0000000000e+00 0.0000e+00 -1.0000e+00
      -13  1    1    2    0    0 -5.0351518226e+01 +1.3985855917e+02 -7.0042293672e+02 7.1602233362e+02 0.0000000000e+00 0.0000e+00 -1.0000e+00
       13  1    1    2    0    0 +5.0351518226e+01 -1.3985855917e+02 +2.6002310306e+02 2.9951244730e+02 0.0000000000e+00 0.0000e+00 1.0000e+00
<mgrwt>
<rscale>  0 0.91507315E+03</rscale>
<asrwt>0</asrwt>
<pdfrwt beam="1">  1        2 0.44241150E-01 0.91507315E+03</pdfrwt>
<pdfrwt beam="2">  1       -2 0.11199497E+00 0.91507315E+03</pdfrwt>
<totfact> 0.89032875E+01</totfact>
</mgrwt>
<rwgt>
<wgt id='morphing_basis_vector_1'> +1.6829227e-04 </wgt>
<wgt id='morphing_basis_vector_2'> +1.0377565e-04 </wgt>
<wgt id='morphing_basis_vector_3'> +1.5799546e-04 </wgt>
<wgt id='morphing_basis_vector_4'> +9.3223266e-05 </wgt>
<wgt id='morphing_basis_vector_5'> +1.4710495e-04 </wgt>
</rwgt>
</event>
<event>
 4      1 +1.4786900e-06 1.02788200e+03 7.81860800e-03 8.65832500e-02
        2 -1    0    0  501    0 +0.0000000000e+00 +0.0000000000e+00 +3.3070225055e+02 3.3070225055e+02 0.0000000000e+00 0.0000e+00 1.0000e+00
       -2 -1    0    0    0  501 -0.0000000000e+00 -0.0000000000e+00 -7.9871117429e+02 7.9871117429e+02 0.0000000000e+00 0.0000e+00 -1.0000e+00
      -13  1    1    2    0    0 -4.0532079746e+02 -1.6022090284e+02 -5.3326717268e+02 6.8871588047e+02 0.0000000000e+00 0.0000e+00 -1.0000e+00
       13  1    1    2    0    0 +4.0532079746e+02 +1.6022090284e+02 +6.5258248931e+01 4.4069754437e+02 0.0000000000e+00 0.0000e+00 1.0000e+00
<mgrwt>
<rscale>  0 0.10278825E+04</rscale>
<asrwt>0</asrwt>
<pdfrwt beam="1">  1        2 0.50877270E-01 0.10278825E+04</pdfrwt>
<pdfrwt beam="2">  1       -2 0.12287864E+00 0.10278825E+04</pdfrwt>
<totfact> 0.59465609E+01</totfact>
</mgrwt>
<rwgt>
<wgt id='morphing_basis_vector_1'> +2.5899629e-04 </wgt>
<wgt id='morphing_basis_vector_2'> +1.6484240e-04 </wgt>
<wgt id='morphing_basis_vector_3'> +2.5092677e-04 </wgt>
<wgt id='morphing_basis_vector_4'> +1.5288082e-04 </wgt>
<wgt id='morphing_basis_vector_5'> +2.4434556e-04 </wgt>
</rwgt>
</event>
<event>
 4      1 +1.4786900e-06 1.02951600e+03 7.81860800e-03 8.65682200e-02
        2 -1    0    0  501    0 +0.0000000000e+00 +0.0000000000e+00 +8.0957478585e+02 8.0957478585e+02 0.0000000000e+00 0.0000e+00 -1.0000e+00
       -2 -1    0    0    0  501 -0.0000000000e+00 -0.0000000000e+00 -3.2730264989e+02 3.2730264989e+02 0.0000000000e+00 0.0000e+00 1.0000e+00
      -13  1    1    2    0    0 +1.7210558071e+02 +2.3802674320e+02 -2.2567522840e+02 3.7041378228e+02 0.0000000000e+00 0.0000e+00 1.0000e+00
       13  1    1    2    0    0 -1.7210558071e+02 -2.3802674320e+02 +7.0794736436e+02 7.6646365347e+02 0.0000000000e+00 0.0000e+00 -1.0000e+00
<mgrwt>
<rscale>  0 0.10295163E+04</rscale>
<asrwt>0</asrwt>
<pdfrwt beam="1">  1        2 0.12454997E+00 0.10295163E+04</pdfrwt>
<pdfrwt beam="2">  1       -2 0.50354254E-01 0.10295163E+04</pdfrwt>
<totfact> 0.15528334E+02</totfact>
</mgrwt>
<rwgt>
<wgt id='morphing_basis_vector_1'> +2.5966397e-04 </wgt>
<wgt id='morphing_basis_vector_2'> +1.6324273e-04 </wgt>
<wgt id='morphing_basis_vector_3'> +2.5167651e-04 </wgt>
<wgt id='morphing_basis_vector_4'> +1.5528822e-04 </wgt>
<wgt id='morphing_basis_vector_5'> +2.4611208e-04 </wgt>
</rwgt>
</event>
<event>
 4      1 +1.4786900e-06 9.38195300e+02 7.81860800e-03 8.74558900e-02
        2 -1    0    0  501    0 +0.0000000000e+00 +0.0000000000e+00 +4.7370543906e+02 4.7370543906e+02 0.0000000000e+00 0.0000e+00 1.0000e+00
       -2 -1    0    0    0  501 -0.0000000000e+00 -0.0000000000e+00 -4.6453466151e+02 4.6453466151e+02 0.0000000000e+00 0.0000e+00 -1.0000e+00
      -13  1    1    2    0    0 -9.2386426203e+01 -2.6904329251e+01 -4.5455907891e+02 4.6463216731e+02 0.0000000000e+00 0.0000e+00 -1.0000e+00
       13  1    1    2    0    0 +9.2386426203e+01 +2.6904329251e+01 +4.6372985646e+02 4.7360793326e+02 0.0000000000e+00 0.0000e+00 1.0000e+00
<mgrwt>
<rscale>  0 0.93819528E+03</rscale>
<asrwt>0</asrwt>
<pdfrwt beam="1">  1        2 0.72877759E-01 0.93819528E+03</pdfrwt>
<pdfrwt beam="2">  1       -2 0.71466871E-01 0.93819528E+03</pdfrwt>
<totfact> 0.14453022E+02</totfact>
</mgrwt>
<rwgt>
<wgt id='morphing_basis_vector_1'> +1.8433214e-04 </wgt>
<wgt id='morphing_basis_vector_2'> +1.1411417e-04 </wgt>
<wgt id='morphing_basis_vector_3'> +1.7431544e-04 </wgt>
<wgt id='morphing_basis_vector_4'> +1.0397346e-04 </wgt>
<wgt id='morphing_basis_vector_5'> +1.6420119e-04 </wgt>
</rwgt>
</event>
<event>
 4      1 +1.4786900e-06 1.01726700e+03 7.81860800e-03 8.66816000e-02
        2 -1    0    0  501    0 +0.0000000000e+00 +0.0000000000e+00 +2.7533379537e+02 2.7533379537e+02 0.0000000000e+00 0.0000e+00 1.0000e+00
       -2 -1    0    0    0  501 -0.0000000000e+00 -0.0000000000e+00 -9.3961646613e+02 9.3961646613e+02 0.0000000000e+00 0.0000e+00 -1.0000e+00
      -13  1    1    2    0    0 +6.0228021992e+01 +4.9299059201e+02 -2.0108583868e+02 5.3581960861e+02 0.0000000000e+00 0.0000e+00 -1.0000e+00
       13  1    1    2    0    0 -6.0228021992e+01 -4.9299059201e+02 -4.6319683208e+02 6.7913065289e+02 0.0000000000e+00 0.0000e+00 1.0000e+00
<mgrwt>
<rscale>  0 0.10172673E+04</rscale>
<asrwt>0</asrwt>
<pdfrwt beam="1">  1        2 0.42359046E-01 0.10172673E+04</pdfrwt>
<pdfrwt beam="2">  1       -2 0.14455638E+00 0.10172673E+04</pdfrwt>
<totfact> 0.47098164E+01</totfact>
</mgrwt>
<rwgt>
<wgt id='morphing_basis_vector_1'> +2.6707977e-04 </wgt>
<wgt id='morphing_basis_vector_2'> +2.1243243e-04 </wgt>
<wgt id='morphing_basis_vector_3'> +2.5780847e-04 </wgt>
<wgt id='morphing_basis_vector_4'> +1.1828641e-04 </wgt>
<wgt id='morphing_basis_vector_5'> +2.3192395e-04 </wgt>
</rwgt>
</event>
<event>
 4      1 +1.4786900e-06 9.60152900e+02 7.81860800e-03 8.72331200e-02
        2 -1    0    0  501    0 +0.0000000000e+00 +0.0000000000e+00 +7.4478646659e+02 7.4478646659e+02 0.0000000000e+00 0.0000e+00 1.0000e+00
       -2 -1    0    0    0  501 -0.0000000000e+00 -0.0000000000e+00 -3.0944896342e+02 3.0944896342e+02 0.0000000000e+00 0.0000e+00 -1.0000e+00
      -13  1    1    2    0    0 +1.0460682041e+02 -1.3260592873e+02 +7.1108716476e+02 7.3087062815e+02 0.0000000000e+00 0.0000e+00 1.0000e+00
       13  1    1    2    0    0 -1.0460682041e+02 +1.3260592873e+02 -2.7574966159e+02 3.2336480185e+02 0.0000000000e+00 0.0000e+00 -1.0000e+00
<mgrwt>
<rscale>  0 0.96015290E+03</rscale>
<asrwt>0</asrwt>
<pdfrwt beam="1">  1        2 0.11458253E+00 0.96015290E+03</pdfrwt>
<pdfrwt beam="2">  1       -2 0.47607533E-01 0.96015290E+03</pdfrwt>
<totfact> 0.19342988E+02</totfact>
</mgrwt>
<rwgt>
<wgt id='morphing_basis_vector_1'> +2.7341438e-04 </wgt>
<wgt id='morphing_basis_vector_2'> +3.4545706e-04 </wgt>
<wgt id='morphing_basis_vector_3'> +2.5474236e-04 </wgt>
<wgt id='morphing_basis_vector_4'> +5.8598698e-06 </wgt>
<wgt id='morphing_basis_vector_5'> +1.7549243e-04 </wgt>
</rwgt>
</event>
<event>
 4      1 +1.4786900e-06 9.07741300e+02 7.81860800e-03 8.77756400e-02
        2 -1    0    0  501    0 +0.0000000000e+00 +0.0000000000e+00 +1.3955287078e+03 1.3955287078e+03 0.0000000000e+00 0.0000e+00 -1.0000e+00
       -2 -1    0    0    0  501 -0.0000000000e+00 -0.0000000000e+00 -1.4761326408e+02 1.4761326408e+02 0.0000000000e+00 0.0000e+00 1.0000e+00
      -13  1    1    2    0    0 -2.1393158748e+02 -7.1794007247e+01 -4.5492247662e+01 2.3019697695e+02 0.0000000000e+00 0.0000e+00 1.0000e+00
       13  1    1    2    0    0 +2.1393158748e+02 +7.1794007247e+01 +1.2934076914e+03 1.3129449949e+03 0.0000000000e+00 0.0000e+00 -1.0000e+00
<mgrwt>
<rscale>  0 0.90774126E+03</rscale>
<asrwt>0</asrwt>
<pdfrwt beam="1">  1        2 0.21469672E+00 0.90774126E+03</pdfrwt>
<pdfrwt beam="2">  1       -2 0.22709734E-01 0.90774126E+03</pdfrwt>
<totfact> 0.29204450E+02</totfact>
</mgrwt>
<rwgt>
<wgt id='morphing_basis_vector_1'> +1.6346492e-04 </wgt>
<wgt id='morphing_basis_vector_2'> +1.0073158e-04 </wgt>
<wgt id='morphing_basis_vector_3'> +1.5309165e-04 </wgt>
<wgt id='morphing_basis_vector_4'> +8.9954100e-05 </wgt>
<wgt id='morphing_basis_vector_5'> +1.4196315e-04 </wgt>
</rwgt>
</event>
<event>
 4      1 +1.4786900e-06 9.46617900e+02 7.81860800e-03 8.73696900e-02
        2 -1    0    0  501    0 +0.0000000000e+00 +0.0000000000e+00 +9.8489997950e+02 9.8489997950e+02 0.0000000000e+00 0.0000e+00 1.0000e+00
       -2 -1    0    0    0  501 -0.0000000000e+00 -0.0000000000e+00 -2.2745593996e+02 2.2745593996e+02 0.0000000000e+00 0.0000e+00 -1.0000e+00
      -13  1    1    2    0    0 -3.6403838611e+02 -2.0618201604e+02 +9.5261152909e+01 4.2908001300e+02 0.0000000000e+00 0.0000e+00 -1.0000e+00
       13  1    1    2    0    0 +3.6403838611e+02 +2.0618201604e+02 +6.6218288663e+02 7.8327590647e+02 0.0000000000e+00 0.0000e+00 1.0000e+00
<mgrwt>
<rscale>  0 0.94661788E+03</rscale>
<asrwt>0</asrwt>
<pdfrwt beam="1">  1        2 0.15152307E+00 0.94661788E+03</pdfrwt>
<pdfrwt beam="2">  1       -2 0.34993222E-01 0.94661788E+03</pdfrwt>
<totfact> 0.23788502E+02</totfact>
</mgrwt>
<rwgt>
<wgt id='morphing_basis_vector_1'> +1.9143600e-04 </wgt>
<wgt id='morphing_basis_vector_2'> +1.2103451e-04 </wgt>
<wgt id='morphing_basis_vector_3'> +1.8140342e-04 </wgt>
<wgt id='morphing_basis_vector_4'> +1.0665781e-04 </wgt>
<wgt id='morphing_basis_vector_5'> +1.7069177e-04 </wgt>
</rwgt>
</event>
<event>
 4      1 +1.4786900e-06 9.28873500e+02 7.81860800e-03 8.75523900e-02
        2 -1    0    0  501    0 +0.0000000000e+00 +0.0000000000e+00 +3.7324813857e+02 3.7324813857e+02 0.0000000000e+00 0.0000e+00 1.0000e+00
       -2 -1    0    0    0  501 -0.0000000000e+00 -0.0000000000e+00 -5.7790376855e+02 5.7790376855e+02 0.0000000000e+00 0.0000e+00 -1.0000e+00
      -13  1    1    2    0    0 +2.4683822535e+02 -2.7666660039e+02 -3.8872871657e+02 5.3719971365e+02 0.0000000000e+00 0.0000e+00 -1.0000e+00
       13  1    1    2    0    0 -2.4683822535e+02 +2.7666660039e+02 +1.8407308659e+02 4.1395219346e+02 0.0000000000e+00 0.0000e+00 1.0000e+00
<mgrwt>
<rscale>  0 0.92887352E+03</rscale>
<asrwt>0</asrwt>
<pdfrwt beam="1">  1        2 0.57422791E-01 0.92887352E+03</pdfrwt>
<pdfrwt beam="2">  1       -2 0.88908271E-01 0.92887352E+03</pdfrwt>
<totfact> 0.11582835E+02</totfact>
</mgrwt>
<rwgt>
<wgt id='morphing_basis_vector_1'> +1.7815577e-04 </wgt>
<wgt id='morphing_basis_vector_2'> +1.1115086e-04 </wgt>
<wgt id='morphing_basis_vector_3'> +1.6794355e-04 </wgt>
<wgt id='morphing_basis_vector_4'> +9.8913250e-05 </wgt>
<wgt id='morphing_basis_vector_5'> +1.5710987e-04 </wgt>
</rwgt>
</event>
<event>
 4      1 +1.4786900e-06 9.80553700e+02 7.81860800e-03 8.70316400e-02
        2 -1    0    0  501    0 +0.0000000000e+00 +0.0000000000e+00 +7.1383066738e+02 7.1383066738e+02 0.0000000000e+00 0.0000e+00 1.0000e+00
       -2 -1    0    0    0  501 -0.0000000000e+00 -0.0000000000e+00 -3.3673449029e+02 3.3673449029e+02 0.0000000000e+00 0.0000e+00 -1.0000e+00
      -13  1    1    2    0    0 -6.2356800474e+01 -1.8460709653e+02 -2.9346667704e+02 3.5226529944e+02 0.0000000000e+00 0.0000e+00 -1.0000e+00
       13  1    1    2    0    0 +6.2356800474e+01 +1.8460709653e+02 +6.7056285414e+02 6.9829985823e+02 0.0000000000e+00 0.0000e+00 1.0000e+00
<mgrwt>
<rscale>  0 0.98055373E+03</rscale>
<asrwt>0</asrwt>
<pdfrwt beam="1">  1        2 0.10982010E+00 0.98055373E+03</pdfrwt>
<pdfrwt beam="2">  1       -2 0.51805306E-01 0.98055373E+03</pdfrwt>
<totfact> 0.17263527E+02</totfact>
</mgrwt>
<rwgt>
<wgt id='morphing_basis_vector_1'> +2.1678421e-04 </wgt>
<wgt id='morphing_basis_vector_2'> +1.3516124e-04 </wgt>
<wgt id='morphing_basis_vector_3'> +2.0751311e-04 </wgt>
<wgt id='morphing_basis_vector_4'> +1.2594700e-04 </wgt>
<wgt id='morphing_basis_vector_5'> +1.9920604e-04 </wgt>
</rwgt>
</event>
<event>
 4      1 +1.4786900e-06 1.05276800e+03 7.81860800e-03 8.63574100e-02
        2 -1    0    0  501    0 +0.0000000000e+00 +0.0000000000e+00 +9.9064514466e+02 9.9064514466e+02 0.0000000000e+00 0.0000e+00 1.0000e+00
       -2 -1    0    0    0  501 -0.0000000000e+00 -0.0000000000e+00 -2.7969653874e+02 2.7969653874e+02 0.0000000000e+00 0.0000e+00 -1.0000e+00
      -13  1    1    2    0    0 -3.2370972983e+02 -1.9640191678e+01 -1.4482953615e+02 3.5517505664e+02 0.0000000000e+00 0.0000e+00 -1.0000e+00
       13  1    1    2    0    0 +3.2370972983e+02 +1.9640191678e+01 +8.5577814206e+02 9.1516662676e+02 0.0000000000e+00 0.0000e+00 1.0000e+00
<mgrwt>
<rscale>  0 0.10527678E+04</rscale>
<asrwt>0</asrwt>
<pdfrwt beam="1">  1        2 0.15240694E+00 0.10527678E+04</pdfrwt>
<pdfrwt beam="2">  1       -2 0.43030237E-01 0.10527678E+04</pdfrwt>
<totfact> 0.15974143E+02</totfact>
</mgrwt>
<rwgt>
<wgt id='morphing_basis_vector_1'> +2.8219006e-04 </wgt>
<wgt id='morphing_basis_vector_2'> +1.7807433e-04 </wgt>
<wgt id='morphing_basis_vector_3'> +2.7499035e-04 </wgt>
<wgt id='morphing_basis_vector_4'> +1.7083195e-04 </wgt>
<wgt id='morphing_basis_vector_5'> +2.7100374e-04 </wgt>
</rwgt>
</event>
<event>
 4      1 +1.4786900e-06 9.79904400e+02 7.81860800e-03 8.70379800e-02
        2 -1    0    0  501    0 +0.0000000000e+00 +0.0000000000e+00 +1.3798702358e+03 1.3798702358e+03 0.0000000000e+00 0.0000e+00 1.0000e+00
       -2 -1    0    0    0  501 -0.0000000000e+00 -0.0000000000e+00 -1.7396790649e+02 1.7396790649e+02 0.0000000000e+00 0.0000e+00 -1.0000e+00
      -13  1    1    2    0    0 -9.4806085144e+01 -4.5377848619e+02 +3.5147818640e+02 5.8175598306e+02 0.0000000000e+00 0.0000e+00 -1.0000e+00
       13  1    1    2    0    0 +9.4806085144e+01 +4.5377848619e+02 +8.5442414290e+02 9.7208215922e+02 0.0000000000e+00 0.0000e+00 1.0000e+00
<mgrwt>
<rscale>  0 0.97990435E+03</rscale>
<asrwt>0</asrwt>
<pdfrwt beam="1">  1        2 0.21228772E+00 0.97990435E+03</pdfrwt>
<pdfrwt beam="2">  1       -2 0.26764294E-01 0.97990435E+03</pdfrwt>
<totfact> 0.22381381E+02</totfact>
</mgrwt>
<rwgt>
<wgt id='morphing_basis_vector_1'> +2.1841230e-04 </wgt>
<wgt id='morphing_basis_vector_2'> +1.4135451e-04 </wgt>
<wgt id='morphing_basis_vector_3'> +2.0891886e-04 </wgt>
<wgt id='morphing_basis_vector_4'> +1.2230298e-04 </wgt>
<wgt id='morphing_basis_vector_5'> +1.9843989e-04 </wgt>
</rwgt>
</event>
<event>
 4      1 +1.4786900e-06 9.41202000e+02 7.81860800e-03 8.74250100e-02
        2 -1    0    0  501    0 +0.0000000000e+00 +0.0000000000e+00 +6.2903030852e+02 6.2903030852e+02 0.0000000000e+00 0.0000e+00 -1.0000e+00
       -2 -1    0    0    0  501 -0.0000000000e+00 -0.0000000000e+00 -3.5207409800e+02 3.5207409800e+02 0.0000000000e+00 0.0000e+00 1.0000e+00
      -13  1    1    2    0    0 -4.2796290274e+01 +3.7078584921e+02 -1.6029427491e+02 4.0621167266e+02 0.0000000000e+00 0.0000e+00 1.0000e+00
       13  1    1    2    0    0 +4.2796290274e+01 -3.7078584921e+02 +4.3725048544e+02 5.7489273386e+02 0.0000000000e+00 0.0000e+00 -1.0000e+00
<mgrwt>
<rscale>  0 0.94120195E+03</rscale>
<asrwt>0</asrwt>
<pdfrwt beam="1">  1        2 0.96773894E-01 0.94120195E+03</pdfrwt>
<pdfrwt beam="2">  1       -2 0.54165246E-01 0.94120195E+03</pdfrwt>
<totfact> 0.18461155E+02</totfact>
</mgrwt>
<rwgt>
<wgt id='morphing_basis_vector_1'> +1.8693319e-04 </wgt>
<wgt id='morphing_basis_vector_2'> +1.1682478e-04 </wgt>
<wgt id='morphing_basis_vector_3'> +1.7689417e-04 </wgt>
<wgt id='morphing_basis_vector_4'> +1.0479813e-04 </wgt>
<wgt id='morphing_basis_vector_5'> +1.6649013e-04 </wgt>
</rwgt>
</event>
<event>
 4      1 +1.4786900e-06 9.44543000e+02 7.81860800e-03 8.73908400e-02
        2 -1    0    0  501    0 +0.0000000000e+00 +0.0000000000e+00 +9.3222796460e+02 9.3222796460e+02 0.0000000000e+00 0.0000e+00 1.0000e+00
       -2 -1    0    0    0  501 -0.0000000000e+00 -0.0000000000e+00 -2.3925515856e+02 2.3925515856e+02 0.0000000000e+00 0.0000e+00 -1.0000e+00
      -13  1    1    2    0    0 +2.8409398110e+02 -1.5663153068e+02 -7.9192769217e+01 3.3393760075e+02 0.0000000000e+00 0.0000e+00 -1.0000e+00
       13  1    1    2    0    0 -2.8409398110e+02 +1.5663153068e+02 +7.7216557525e+02 8.3754552241e+02 0.0000000000e+00 0.0000e+00 1.0000e+00
<mgrwt>
<rscale>  0 0.94454296E+03</rscale>
<asrwt>0</asrwt>
<pdfrwt beam="1">  1        2 0.14341969E+00 0.94454296E+03</pdfrwt>
<pdfrwt beam="2">  1       -2 0.36808486E-01 0.94454296E+03</pdfrwt>
<totfact> 0.23427912E+02</totfact>
</mgrwt>
<rwgt>
<wgt id='morphing_basis_vector_1'> +1.8912244e-04 </wgt>
<wgt id='morphing_basis_vector_2'> +1.1765296e-04 </wgt>
<wgt id='morphing_basis_vector_3'> +1.7917065e-04 </wgt>
<wgt id='morphing_basis_vector_4'> +1.0680045e-04 </wgt>
<wgt id='morphing_basis_vector_5'> +1.6912126e-04 </wgt>
</rwgt>
</event>
<event>
 4      1 +1.4786900e-06 1.05488500e+03 7.81860800e-03 8.63384900e-02
        2 -1    0    0  501    0 +0.0000000000e+00 +0.0000000000e+00 +2.6011013292e+02 2.6011013292e+02 0.0000000000e+00 0.0000e+00 -1.0000e+00
       -2 -1    0    0    0  501 -0.0000000000e+00 -0.0000000000e+00 -1.0695304561e+03 1.0695304561e+03 0.0000000000e+00 0.0000e+00 1.0000e+00
      -13  1    1    2    0    0 -2.2340095421e+01 +5.1981133876e+02 -5.1381679715e+02 7.3123909140e+02 0.0000000000e+00 0.0000e+00 1.0000e+00
       13  1    1    2    0    0 +2.2340095421e+01 -5.1981133876e+02 -2.9560352607e+02 5.9840149765e+02 0.0000000000e+00 0.0000e+00 -1.0000e+00
<mgrwt>
<rscale>  0 0.10548852E+04</rscale>
<asrwt>0</asrwt>
<pdfrwt beam="1">  1        2 0.40016943E-01 0.10548852E+04</pdfrwt>
<pdfrwt beam="2">  1       -2 0.16454315E+00 0.10548852E+04</pdfrwt>
<totfact> 0.34425875E+01</totfact>
</mgrwt>
<rwgt>
<wgt id='morphing_basis_vector_1'> +2.8966454e-04 </wgt>
<wgt id='morphing_basis_vector_2'> +1.9563664e-04 </wgt>
<wgt id='morphing_basis_vector_3'> +2.8251471e-04 </wgt>
<wgt id='morphing_basis_vector_4'> +1.6374089e-04 </wgt>
<wgt id='morphing_basis_vector_5'> +2.7282448e-04 </wgt>
</rwgt>
</event>
<event>
 4      1 +1.4786900e-06 9.32780300e+02 7.81860800e-03 8.75118000e-02
        2 -1    0    0  501    0 +0.0000000000e+00 +0.0000000000e+00 +1.3533746978e+03 1.3533746978e+03 0.0000000000e+00 0.0000e+00 -1.0000e+00
       -2 -1    0    0    0  501 -0.0000000000e+00 -0.0000000000e+00 -1.6072399017e+02 1.6072399017e+02 0.0000000000e+00 0.0000e+00 1.0000e+00
      -13  1    1    2    0    0 -2.5698207303e+02 -1.2461708839e+02 -2.1762738173e+00 2.8561152068e+02 0.0000000000e+00 0.0000e+00 1.0000e+00
       13  1    1    2    0    0 +2.5698207303e+02 +1.2461708839e+02 +1.1948269815e+03 1.2284871673e+03 0.0000000000e+00 0.0000e+00 -1.0000e+00
<mgrwt>
<rscale>  0 0.93278032E+03</rscale>
<asrwt>0</asrwt>
<pdfrwt beam="1">  1        2 0.20821148E+00 0.93278032E+03</pdfrwt>
<pdfrwt beam="2">  1       -2 0.24726769E-01 0.93278032E+03</pdfrwt>
<totfact> 0.26638149E+02</totfact>
</mgrwt>
<rwgt>
<wgt id='morphing_basis_vector_1'> +1.8056930e-04 </wgt>
<wgt id='morphing_basis_vector_2'> +1.1191461e-04 </wgt>
<wgt id='morphing_basis_vector_3'> +1.7046366e-04 </wgt>
<wgt id='morphing_basis_vector_4'> +1.0123885e-04 </wgt>
<wgt id='morphing_basis_vector_5'> +1.6006663e-04 </wgt>
</rwgt>
</event>
<event>
 4      1 +1.4786900e-06 9.02651400e+02 7.81860800e-03 8.78303600e-02
        2 -1    0    0  501    0 +0.0000000000e+00 +0.0000000000e+00 +8.2142474829e+02 8.2142474829e+02 0.0000000000e+00 0.0000e+00 -1.0000e+00
       -2 -1    0    0    0  501 -0.0000000000e+00 -0.0000000000e+00 -2.4797753092e+02 2.4797753092e+02 0.0000000000e+00 0.0000e+00 1.0000e+00
      -13  1    1    2    0    0 +1.5533766712e+02 -4.1819984833e+02 +2.0572746624e+02 4.9126845445e+02 0.0000000000e+00 0.0000e+00 1.0000e+00
       13  1    1    2    0    0 -1.5533766712e+02 +4.1819984833e+02 +3.6771975112e+02 5.7813382476e+02 0.0000000000e+00 0.0000e+00 -1.0000e+00
<mgrwt>
<rscale>  0 0.90265139E+03</rscale>
<asrwt>0</asrwt>
<pdfrwt beam="1">  1        2 0.12637304E+00 0.90265139E+03</pdfrwt>
<pdfrwt beam="2">  1       -2 0.38150390E-01 0.90265139E+03</pdfrwt>
<totfact> 0.26034890E+02</totfact>
</mgrwt>
<rwgt>
<wgt id='morphing_basis_vector_1'> +1.6335871e-04 </wgt>
<wgt id='morphing_basis_vector_2'> +1.0834109e-04 </wgt>
<wgt id='morphing_basis_vector_3'> +1.5226647e-04 </wgt>
<wgt id='morphing_basis_vector_4'> +8.3198744e-05 </wgt>
<wgt id='morphing_basis_vector_5'> +1.3823073e-04 </wgt>
</rwgt>
</event>
<event>
 4      1 +1.4786900e-06 9.39669900e+02 7.81860800e-03 8.74407300e-02
        2 -1    0    0  501    0 +0.0000000000e+00 +0.0000000000e+00 +1.1346173481e+03 1.1346173481e+03 0.0000000000e+00 0.0000e+00 -1.0000e+00
       -2 -1    0    0    0  501 -0.0000000000e+00 -0.0000000000e+00 -1.9455446824e+02 1.9455446824e+02 0.0000000000e+00 0.0000e+00 1.0000e+00
      -13  1    1    2    0    0 +1.0577065881e+02 +3.8077061360e+02 +1.1059245162e+02 4.1037103065e+02 0.0000000000e+00 0.0000e+00 1.0000e+00
       13  1    1    2    0    0 -1.0577065881e+02 -3.8077061360e+02 +8.2947042826e+02 9.1880078570e+02 0.0000000000e+00 0.0000e+00 -1.0000e+00
<mgrwt>
<rscale>  0 0.93966989E+03</rscale>
<asrwt>0</asrwt>
<pdfrwt beam="1">  1        2 0.17455651E+00 0.93966989E+03</pdfrwt>
<pdfrwt beam="2">  1       -2 0.29931457E-01 0.93966989E+03</pdfrwt>
<totfact> 0.25529985E+02</totfact>
</mgrwt>
<rwgt>
<wgt id='morphing_basis_vector_1'> +1.8603655e-04 </wgt>
<wgt id='morphing_basis_vector_2'> +1.1675159e-04 </wgt>
<wgt id='morphing_basis_vector_3'> +1.7594216e-04 </wgt>
<wgt id='morphing_basis_vector_4'> +1.0374065e-04 </wgt>
<wgt id='morphing_basis_vector_5'> +1.6528539e-04 </wgt>
</rwgt>
</event>
<event>
 4      1 +1.4786900e-06 9.97596200e+02 7.81860800e-03 8.68672100e-02
        2 -1    0    0  501    0 +0.0000000000e+00 +0.0000000000e+00 +2.0503293874e+03 2.0503293874e+03 0.0000000000e+00 0.0000e+00 1.0000e+00
       -2 -1    0    0    0  501 -0.0000000000e+00 -0.0000000000e+00 -1.2134613133e+02 1.2134613133e+02 0.0000000000e+00 0.0000e+00 -1.0000e+00
      -13  1    1    2    0    0 -1.0797136979e+01 -4.9866616387e+02 +9.5605545248e+02 1.0783443557e+03 0.0000000000e+00 0.0000e+00 -1.0000e+00
       13  1    1    2    0    0 +1.0797136979e+01 +4.9866616387e+02 +9.7292780361e+02 1.0933311631e+03 0.0000000000e+00 0.0000e+00 1.0000e+00
<mgrwt>
<rscale>  0 0.99759619E+03</rscale>
<asrwt>0</asrwt>
<pdfrwt beam="1">  1        2 0.31543527E+00 0.99759619E+03</pdfrwt>
<pdfrwt beam="2">  1       -2 0.18668637E-01 0.99759619E+03</pdfrwt>
<totfact> 0.17480259E+02</totfact>
</mgrwt>
<rwgt>
<wgt id='morphing_basis_vector_1'> +2.3902301e-04 </wgt>
<wgt id='morphing_basis_vector_2'> +1.6866456e-04 </wgt>
<wgt id='morphing_basis_vector_3'> +2.2955642e-04 </wgt>
<wgt id='morphing_basis_vector_4'> +1.2333589e-04 </wgt>
<wgt id='morphing_basis_vector_5'> +2.1398364e-04 </wgt>
</rwgt>
</event>
<event>
 4      1 +1.4786900e-06 9.59456900e+02 7.81860800e-03 8.72400800e-02
        2 -1    0    0  501    0 +0.0000000000e+00 +0.0000000000e+00 +3.3034742965e+03 3.3034742965e+03 0.0000000000e+00 0.0000e+00 -1.0000e+00
       -2 -1    0    0    0  501 -0.0000000000e+00 -0.0000000000e+00 -6.9665869476e+01 6.9665869476e+01 0.0000000000e+00 0.0000e+00 1.0000e+00
      -13  1    1    2    0    0 +2.1901577933e+02 +3.9990255317e+02 +2.1413112275e+03 2.1893158148e+03 0.0000000000e+00 0.0000e+00 1.0000e+00
       13  1    1    2    0    0 -2.1901577933e+02 -3.9990255317e+02 +1.0924971995e+03 1.1838243512e+03 0.0000000000e+00 0.0000e+00 -1.0000e+00
<mgrwt>
<rscale>  0 0.95945695E+03</rscale>
<asrwt>0</asrwt>
<pdfrwt beam="1">  1        2 0.50822669E+00 0.95945695E+03</pdfrwt>
<pdfrwt beam="2">  1       -2 0.10717829E-01 0.95945695E+03</pdfrwt>
<totfact> 0.74033631E+01</totfact>
</mgrwt>
<rwgt>
<wgt id='morphing_basis_vector_1'> +2.2068725e-04 </wgt>
<wgt id='morphing_basis_vector_2'> +1.8675996e-04 </wgt>
<wgt id='morphing_basis_vector_3'> +2.0843964e-04 </wgt>
<wgt id='morphing_basis_vector_4'> +8.3782889e-05 </wgt>
<wgt id='morphing_basis_vector_5'> +1.7939443e-04 </wgt>
</rwgt>
</event>
<event>
 4      1 +1.4786900e-06 1.00457200e+03 7.81860800e-03 8.68008900e-02
        2 -1    0    0  501    0 +0.0000000000e+00 +0.0000000000e+00 +8.8262058655e+02 8.8262058655e+02 0.0000000000e+00 0.0000e+00 -1.0000e+00
       -2 -1    0    0    0  501 -0.0000000000e+00 -0.0000000000e+00 -2.8584313788e+02 2.8584313788e+02 0.0000000000e+00 0.0000e+00 1.0000e+00
      -13  1    1    2    0    0 +1.9011664816e+01 -3.8453256374e+02 -7.6830615017e+01 3.9259352947e+02 0.0000000000e+00 0.0000e+00 1.0000e+00
       13  1    1    2    0    0 -1.9011664816e+01 +3.8453256374e+02 +6.7360806368e+02 7.7587019497e+02 0.0000000000e+00 0.0000e+00 -1.0000e+00
<mgrwt>
<rscale>  0 0.10045716E+04</rscale>
<asrwt>0</asrwt>
<pdfrwt beam="1">  1        2 0.13578778E+00 0.10045716E+04</pdfrwt>
<pdfrwt beam="2">  1       -2 0.43975868E-01 0.10045716E+04</pdfrwt>
<totfact> 0.18036882E+02</totfact>
</mgrwt>
<rwgt>
<wgt id='morphing_basis_vector_1'> +2.3746331e-04 </wgt>
<wgt id='morphing_basis_vector_2'> +1.4960972e-04 </wgt>
<wgt id='morphing_basis_vector_3'> +2.2873569e-04 </wgt>
<wgt id='morphing_basis_vector_4'> +1.3917411e-04 </wgt>
<wgt id='morphing_basis_vector_5'> +2.2127493e-04 </wgt>
</rwgt>
</event>
<event>
 4      1 +1.4786900e-06 1.01461200e+03 7.81860800e-03 8.67064000e-02
        2 -1    0    0  501    0 +0.0000000000e+00 +0.0000000000e+00 +9.1973326905e+02 9.1973326905e+02 0.0000000000e+00 0.0000e+00 -1.0000e+00
       -2 -1    0    0    0  501 -0.0000000000e+00 -0.0000000000e+00 -2.7981962843e+02 2.7981962843e+02 0.0000000000e+00 0.0000e+00 1.0000e+00
      -13  1    1    2    0    0 -1.8790288660e+02 +2.4469334570e+02 -1.5616066239e+02 3.4578675611e+02 0.0000000000e+00 0.0000e+00 1.0000e+00
       13  1    1    2    0    0 +1.8790288660e+02 -2.4469334570e+02 +7.9607430302e+02 8.5376614137e+02 0.0000000000e+00 0.0000e+00 -1.0000e+00
<mgrwt>
<rscale>  0 0.10146121E+04</rscale>
<asrwt>0</asrwt>
<pdfrwt beam="1">  1        2 0.14149742E+00 0.10146121E+04</pdfrwt>
<pdfrwt beam="2">  1       -2 0.43049174E-01 0.10146121E+04</pdfrwt>
<totfact> 0.17749934E+02</totfact>
</mgrwt>
<rwgt>
<wgt id='morphing_basis_vector_1'> +2.4603367e-04 </wgt>
<wgt id='morphing_basis_vector_2'> +1.5443646e-04 </wgt>
<wgt id='morphing_basis_vector_3'> +2.3760035e-04 </wgt>
<wgt id='morphing_basis_vector_4'> +1.4578791e-04 </wgt>
<wgt id='morphing_basis_vector_5'> +2.3105722e-04 </wgt>
</rwgt>
</event>
<event>
 4      1 +1.4786900e-06 9.39807500e+02 7.81860800e-03 8.74393100e-02
        2 -1    0    0  501    0 +0.0000000000e+00 +0.0000000000e+00 +2.0041007105e+03 2.0041007105e+03 0.0000000000e+00 0.0000e+00 -1.0000e+00
       -2 -1    0    0    0  501 -0.0000000000e+00 -0.0000000000e+00 -1.1017887300e+02 1.1017887300e+02 0.0000000000e+00 0.0000e+00 1.0000e+00
      -13  1    1    2    0    0 -2.0101366874e+01 +4.6839087096e+02 +8.7527065405e+02 9.9292134169e+02 0.0000000000e+00 0.0000e+00 1.0000e+00
       13  1    1    2    0    0 +2.0101366874e+01 -4.6839087096e+02 +1.0186511835e+03 1.1213582418e+03 0.0000000000e+00 0.0000e+00 -1.0000e+00
<mgrwt>
<rscale>  0 0.93980755E+03</rscale>
<asrwt>0</asrwt>
<pdfrwt beam="1">  1        2 0.30832316E+00 0.93980755E+03</pdfrwt>
<pdfrwt beam="2">  1       -2 0.16950597E-01 0.93980755E+03</pdfrwt>
<totfact> 0.21853142E+02</totfact>
</mgrwt>
<rwgt>
<wgt id='morphing_basis_vector_1'> +1.9064665e-04 </wgt>
<wgt id='morphing_basis_vector_2'> +1.3051563e-04 </wgt>
<wgt id='morphing_basis_vector_3'> +1.7986402e-04 </wgt>
<wgt id='morphing_basis_vector_4'> +9.7155464e-05 </wgt>
<wgt id='morphing_basis_vector_5'> +1.6502053e-04 </wgt>
</rwgt>
</event>
<event>
 4      1 +1.4786900e-06 1.03517100e+03 7.81860800e-03 8.65164200e-02
        2 -1    0    0  501    0 +0.0000000000e+00 +0.0000000000e+00 +1.5370014621e+03 1.5370014621e+03 0.0000000000e+00 0.0000e+00 1.0000e+00
       -2 -1    0    0    0  501 -0.0000000000e+00 -0.0000000000e+00 -1.7429689889e+02 1.7429689889e+02 0.0000000000e+00 0.0000e+00 -1.0000e+00
      -13  1    1    2    0    0 +3.4832717801e+02 +3.4507215461e+02 +4.0726736832e+02 6.3739573589e+02 0.0000000000e+00 0.0000e+00 -1.0000e+00
       13  1    1    2    0    0 -3.4832717801e+02 -3.4507215461e+02 +9.5543719485e+02 1.0739026251e+03 0.0000000000e+00 0.0000e+00 1.0000e+00
<mgrwt>
<rscale>  0 0.10351707E+04</rscale>
<asrwt>0</asrwt>
<pdfrwt beam="1">  1        2 0.23646175E+00 0.10351707E+04</pdfrwt>
<pdfrwt beam="2">  1       -2 0.26814909E-01 0.10351707E+04</pdfrwt>
<totfact> 0.18155960E+02</totfact>
</mgrwt>
<rwgt>
<wgt id='morphing_basis_vector_1'> +2.6760604e-04 </wgt>
<wgt id='morphing_basis_vector_2'> +1.7460804e-04 </wgt>
<wgt id='morphing_basis_vector_3'> +2.5972722e-04 </wgt>
<wgt id='morphing_basis_vector_4'> +1.5486398e-04 </wgt>
<wgt id='morphing_basis_vector_5'> +2.5175237e-04 </wgt>
</rwgt>
</event>
<event>
 4      1 +1.4786900e-06 9.39674900e+02 7.81860800e-03 8.74406800e-02
        2 -1    0    0  501    0 +0.0000000000e+00 +0.0000000000e+00 +8.8292992039e+02 8.8292992039e+02 0.0000000000e+00 0.0000e+00 1.0000e+00
       -2 -1    0    0    0  501 -0.0000000000e+00 -0.0000000000e+00 -2.5001669425e+02 2.5001669425e+02 0.0000000000e+00 0.0000e+00 -1.0000e+00
      -13  1    1    2    0    0 -3.9669131282e+02 +2.1168199055e+02 +1.5213902604e+02 4.7467836061e+02 0.0000000000e+00 0.0000e+00 -1.0000e+00
       13  1    1    2    0    0 +3.9669131282e+02 -2.1168199055e+02 +4.8077420010e+02 6.5826825403e+02 0.0000000000e+00 0.0000e+00 1.0000e+00
<mgrwt>
<rscale>  0 0.93967488E+03</rscale>
<asrwt>0</asrwt>
<pdfrwt beam="1">  1        2 0.13583537E+00 0.93967488E+03</pdfrwt>
<pdfrwt beam="2">  1       -2 0.38464107E-01 0.93967488E+03</pdfrwt>
<totfact> 0.23267442E+02</totfact>
</mgrwt>
<rwgt>
<wgt id='morphing_basis_vector_1'> +1.8754187e-04 </wgt>
<wgt id='morphing_basis_vector_2'> +1.2131494e-04 </wgt>
<wgt id='morphing_basis_vector_3'> +1.7721744e-04 </wgt>
<wgt id='morphing_basis_vector_4'> +1.0152873e-04 </wgt>
<wgt id='morphing_basis_vector_5'> +1.6516567e-04 </wgt>
</rwgt>
</event>
<event>
 4      1 +1.4786900e-06 1.01700200e+03 7.81860800e-03 8.66840700e-02
        2 -1    0    0  501    0 +0.0000000000e+00 +0.0000000000e+00 +3.5014394536e+02 3.5014394536e+02 0.0000000000e+00 0.0000e+00 1.0000e+00
       -2 -1    0    0    0  501 -0.0000000000e+00 -0.0000000000e+00 -7.3847772953e+02 7.3847772953e+02 0.0000000000e+00 0.0000e+00 -1.0000e+00
      -13  1    1    2    0    0 +4.0038133354e+01 +3.0077003365e+02 +2.4262273253e+02 3.8849897761e+02 0.0000000000e+00 0.0000e+00 1.0000e+00
       13  1    1    2    0    0 -4.0038133354e+01 -3.0077003365e+02 -6.3095651670e+02 7.0012269727e+02 0.0000000000e+00 0.0000e+00 -1.0000e+00
<mgrwt>
<rscale>  0 0.10170025E+04</rscale>
<asrwt>0</asrwt>
<pdfrwt beam="1">  1        2 0.53868300E-01 0.10170025E+04</pdfrwt>
<pdfrwt beam="2">  1       -2 0.11361196E+00 0.10170025E+04</pdfrwt>
<totfact> 0.68334942E+01</totfact>
</mgrwt>
<rwgt>
<wgt id='morphing_basis_vector_1'> +3.2995839e-04 </wgt>
<wgt id='morphing_basis_vector_2'> +4.0324676e-04 </wgt>
<wgt id='morphing_basis_vector_3'> +3.1756103e-04 </wgt>
<wgt id='morphing_basis_vector_4'> +1.9498351e-05 </wgt>
<wgt id='morphing_basis_vector_5'> +2.2569479e-04 </wgt>
</rwgt>
</event>
<event>
 4      1 +1.4786900e-06 9.07002700e+02 7.81860800e-03 8.77835500e-02
        2 -1    0    0  501    0 +0.0000000000e+00 +0.0000000000e+00 +1.0420810912e+03 1.0420810912e+03 0.0000000000e+00 0.0000e+00 -1.0000e+00
       -2 -1    0    0    0  501 -0.0000000000e+00 -0.0000000000e+00 -1.9735839648e+02 1.9735839648e+02 0.0000000000e+00 0.0000e+00 1.0000e+00
      -13  1    1    2    0    0 -3.7677960102e+01 +3.6140720411e+02 +5.1560932547e+01 3.6700589318e+02 0.0000000000e+00 0.0000e+00 1.0000e+00
       13  1    1    2    0    0 +3.7677960102e+01 -3.6140720411e+02 +7.9316176219e+02 8.7243359453e+02 0.0000000000e+00 0.0000e+00 -1.0000e+00
<mgrwt>
<rscale>  0 0.90700265E+03</rscale>
<asrwt>0</asrwt>
<pdfrwt beam="1">  1        2 0.16032016E+00 0.90700265E+03</pdfrwt>
<pdfrwt beam="2">  1       -2 0.30362831E-01 0.90700265E+03</pdfrwt>
<totfact> 0.28346052E+02</totfact>
</mgrwt>
<rwgt>
<wgt id='morphing_basis_vector_1'> +1.6335191e-04 </wgt>
<wgt id='morphing_basis_vector_2'> +1.0154625e-04 </wgt>
<wgt id='morphing_basis_vector_3'> +1.5289656e-04 </wgt>
<wgt id='morphing_basis_vector_4'> +8.9103654e-05 </wgt>
<wgt id='morphing_basis_vector_5'> +1.4142445e-04 </wgt>
</rwgt>
</event>
<event>
 4      1 +1.4786900e-06 1.01927400e+03 7.81860800e-03 8.66629200e-02
        2 -1    0    0  501    0 +0.0000000000e+00 +0.0000000000e+00 +4.1539549796e+02 4.1539549796e+02 0.0000000000e+00 0.0000e+00 -1.0000e+00
       -2 -1    0    0    0  501 -0.0000000000e+00 -0.0000000000e+00 -6.2525872938e+02 6.2525872938e+02 0.0000000000e+00 0.0000e+00 1.0000e+00
      -13  1    1    2    0    0 +2.1005071864e+02 -1.2947787900e+02 -5.6020446202e+02 6.1213957952e+02 0.0000000000e+00 0.0000e+00 1.0000e+00
       13  1    1    2    0    0 -2.1005071864e+02 +1.2947787900e+02 +3.5034123059e+02 4.2851464783e+02 0.0000000000e+00 0.0000e+00 -1.0000e+00
<mgrwt>
<rscale>  0 0.10192736E+04</rscale>
<asrwt>0</asrwt>
<pdfrwt beam="1">  1        2 0.63907000E-01 0.10192736E+04</pdfrwt>
<pdfrwt beam="2">  1       -2 0.96193651E-01 0.10192736E+04</pdfrwt>
<totfact> 0.84798024E+01</totfact>
</mgrwt>
<rwgt>
<wgt id='morphing_basis_vector_1'> +2.5016043e-04 </wgt>
<wgt id='morphing_basis_vector_2'> +1.5692194e-04 </wgt>
<wgt id='morphing_basis_vector_3'> +2.4186520e-04 </wgt>
<wgt id='morphing_basis_vector_4'> +1.4883029e-04 </wgt>
<wgt id='morphing_basis_vector_5'> +2.3569847e-04 </wgt>
</rwgt>
</event>
<event>
 4      1 +1.4786900e-06 9.00680600e+02 7.81860800e-03 8.78516500e-02
        2 -1    0    0  501    0 +0.0000000000e+00 +0.0000000000e+00 +1.3946005685e+03 1.3946005685e+03 0.0000000000e+00 0.0000e+00 -1.0000e+00
       -2 -1    0    0    0  501 -0.0000000000e+00 -0.0000000000e+00 -1.4542256936e+02 1.4542256936e+02 0.0000000000e+00 0.0000e+00 1.0000e+00
      -13  1    1    2    0    0 -2.7040791376e+02 +3.2112709335e+02 +3.4591411467e+02 5.4396656573e+02 0.0000000000e+00 0.0000e+00 1.0000e+00
       13  1    1    2    0    0 +2.7040791376e+02 -3.2112709335e+02 +9.0326388447e+02 9.9605657214e+02 0.0000000000e+00 0.0000e+00 -1.0000e+00
<mgrwt>
<rscale>  0 0.90068063E+03</rscale>
<asrwt>0</asrwt>
<pdfrwt beam="1">  1        2 0.21455392E+00 0.90068063E+03</pdfrwt>
<pdfrwt beam="2">  1       -2 0.22372704E-01 0.90068063E+03</pdfrwt>
<totfact> 0.30002024E+02</totfact>
</mgrwt>
<rwgt>
<wgt id='morphing_basis_vector_1'> +1.6020099e-04 </wgt>
<wgt id='morphing_basis_vector_2'> +1.0176977e-04 </wgt>
<wgt id='morphing_basis_vector_3'> +1.4948698e-04 </wgt>
<wgt id='morphing_basis_vector_4'> +8.5060827e-05 </wgt>
<wgt id='morphing_basis_vector_5'> +1.3703967e-04 </wgt>
</rwgt>
</event>
<event>
 4      1 +1.4786900e-06 9.53618700e+02 7.81860800e-03 8.72987500e-02
        2 -1    0    0  501    0 +0.0000000000e+00 +0.0000000000e+00 +2.5078116975e+02 2.5078116975e+02 0.0000000000e+00 0.0000e+00 -1.0000e+00
       -2 -1    0    0    0  501 -0.0000000000e+00 -0.0000000000e+00 -9.0655592473e+02 9.0655592473e+02 0.0000000000e+00 0.0000e+00 1.0000e+00
      -13  1    1    2    0    0 -1.8830762286e+02 +3.6026543044e+02 -6.3031236860e+02 7.5002974822e+02 0.0000000000e+00 0.0000e+00 1.0000e+00
       13  1    1    2    0    0 +1.8830762286e+02 -3.6026543044e+02 -2.5462386381e+01 4.0730734626e+02 0.0000000000e+00 0.0000e+00 -1.0000e+00
<mgrwt>
<rscale>  0 0.95361870E+03</rscale>
<asrwt>0</asrwt>
<pdfrwt beam="1">  1        2 0.38581718E-01 0.95361870E+03</pdfrwt>
<pdfrwt beam="2">  1       -2 0.13947014E+00 0.95361870E+03</pdfrwt>
<totfact> 0.58122143E+01</totfact>
</mgrwt>
<rwgt>
<wgt id='morphing_basis_vector_1'> +1.9642569e-04 </wgt>
<wgt id='morphing_basis_vector_2'> +1.2372643e-04 </wgt>
<wgt id='morphing_basis_vector_3'> +1.8654460e-04 </wgt>
<wgt id='morphing_basis_vector_4'> +1.1050640e-04 </wgt>
<wgt id='morphing_basis_vector_5'> +1.7631615e-04 </wgt>
</rwgt>
</event>
<event>
 4      1 +1.4786900e-06 1.01938000e+03 7.81860800e-03 8.66619300e-02
        2 -1    0    0  501    0 +0.0000000000e+00 +0.0000000000e+00 +1.5899067798e+03 1.5899067798e+03 0.0000000000e+00 0.0000e+00 -1.0000e+00
       -2 -1    0    0    0  501 -0.0000000000e+00 -0.0000000000e+00 -1.6339564507e+02 1.6339564507e+02 0.0000000000e+00 0.0000e+00 1.0000e+00
      -13  1    1    2    0    0 -5.6981995510e+01 -4.2719605014e+02 +2.4524545497e+02 4.9587170342e+02 0.0000000000e+00 0.0000e+00 1.0000e+00
       13  1    1    2    0    0 +5.6981995510e+01 +4.2719605014e+02 +1.1812656798e+03 1.2574307215e+03 0.0000000000e+00 0.0000e+00 -1.0000e+00
<mgrwt>
<rscale>  0 0.10193799E+04</rscale>
<asrwt>0</asrwt>
<pdfrwt beam="1">  1        2 0.24460103E+00 0.10193799E+04</pdfrwt>
<pdfrwt beam="2">  1       -2 0.25137793E-01 0.10193799E+04</pdfrwt>
<totfact> 0.18996838E+02</totfact>
</mgrwt>
<rwgt>
<wgt id='morphing_basis_vector_1'> +2.5112049e-04 </wgt>
<wgt id='morphing_basis_vector_2'> +1.5959682e-04 </wgt>
<wgt id='morphing_basis_vector_3'> +2.4278828e-04 </wgt>
<wgt id='morphing_basis_vector_4'> +1.4754594e-04 </wgt>
<wgt id='morphing_basis_vector_5'> +2.3572301e-04 </wgt>
</rwgt>
</event>
<event>
 4      1 +1.4786900e-06 1.03226100e+03 7.81860800e-03 8.65430400e-02
        2 -1    0    0  501    0 +0.0000000000e+00 +0.0000000000e+00 +1.2063807915e+03 1.2063807915e+03 0.0000000000e+00 0.0000e+00 -1.0000e+00
       -2 -1    0    0    0  501 -0.0000000000e+00 -0.0000000000e+00 -2.2081789095e+02 2.2081789095e+02 0.0000000000e+00 0.0000e+00 1.0000e+00
      -13  1    1    2    0    0 -3.7793058121e+02 -7.1485621975e+00 +6.8865276400e+00 3.7806090834e+02 0.0000000000e+00 0.0000e+00 1.0000e+00
       13  1    1    2    0    0 +3.7793058121e+02 +7.1485621975e+00 +9.7867637294e+02 1.0491377741e+03 0.0000000000e+00 0.0000e+00 -1.0000e+00
<mgrwt>
<rscale>  0 0.10322606E+04</rscale>
<asrwt>0</asrwt>
<pdfrwt beam="1">  1        2 0.18559704E+00 0.10322606E+04</pdfrwt>
<pdfrwt beam="2">  1       -2 0.33971984E-01 0.10322606E+04</pdfrwt>
<totfact> 0.18371345E+02</totfact>
</mgrwt>
<rwgt>
<wgt id='morphing_basis_vector_1'> +2.6251575e-04 </wgt>
<wgt id='morphing_basis_vector_2'> +1.6575190e-04 </wgt>
<wgt id='morphing_basis_vector_3'> +2.5460667e-04 </wgt>
<wgt id='morphing_basis_vector_4'> +1.5664390e-04 </wgt>
<wgt id='morphing_basis_vector_5'> +2.4893321e-04 </wgt>
</rwgt>
</event>
<event>
 4      1 +1.4786900e-06 9.76192700e+02 7.81860800e-03 8.70742800e-02
        2 -1    0    0  501    0 +0.0000000000e+00 +0.0000000000e+00 +1.4330093549e+03 1.4330093549e+03 0.0000000000e+00 0.0000e+00 1.0000e+00
       -2 -1    0    0    0  501 -0.0000000000e+00 -0.0000000000e+00 -1.6625017390e+02 1.6625017390e+02 0.0000000000e+00 0.0000e+00 -1.0000e+00
      -13  1    1    2    0    0 +6.8629894395e+01 -3.4388603585e+02 +7.7165151169e+01 3.5905727762e+02 0.0000000000e+00 0.0000e+00 -1.0000e+00
       13  1    1    2    0    0 -6.8629894395e+01 +3.4388603585e+02 +1.1895940299e+03 1.2402022512e+03 0.0000000000e+00 0.0000e+00 1.0000e+00
<mgrwt>
<rscale>  0 0.97619272E+03</rscale>
<asrwt>0</asrwt>
<pdfrwt beam="1">  1        2 0.22046297E+00 0.97619272E+03</pdfrwt>
<pdfrwt beam="2">  1       -2 0.25576951E-01 0.97619272E+03</pdfrwt>
<totfact> 0.22608761E+02</totfact>
</mgrwt>
<rwgt>
<wgt id='morphing_basis_vector_1'> +2.1351015e-04 </wgt>
<wgt id='morphing_basis_vector_2'> +1.3364534e-04 </wgt>
<wgt id='morphing_basis_vector_3'> +2.0412122e-04 </wgt>
<wgt id='morphing_basis_vector_4'> +1.2315070e-04 </wgt>
<wgt id='morphing_basis_vector_5'> +1.9534928e-04 </wgt>
</rwgt>
</event>
<event>
 4      1 +1.4786900e-06 9.76172900e+02 7.81860800e-03 8.70744700e-02
        2 -1    0    0  501    0 +0.0000000000e+00 +0.0000000000e+00 +7.0170661203e+02 7.0170661203e+02 0.0000000000e+00 0.0000e+00 -1.0000e+00
       -2 -1    0    0    0  501 -0.0000000000e+00 -0.0000000000e+00 -3.3949856267e+02 3.3949856267e+02 0.0000000000e+00 0.0000e+00 1.0000e+00
      -13  1    1    2    0    0 +2.5132791154e+02 +4.0337038407e+02 +6.2546001695e+01 4.7935935183e+02 0.0000000000e+00 0.0000e+00 -1.0000e+00
       13  1    1    2    0    0 -2.5132791154e+02 -4.0337038407e+02 +2.9966204767e+02 5.6184582287e+02 0.0000000000e+00 0.0000e+00 1.0000e+00
<mgrwt>
<rscale>  0 0.97617291E+03</rscale>
<asrwt>0</asrwt>
<pdfrwt beam="1">  1        2 0.10795486E+00 0.97617291E+03</pdfrwt>
<pdfrwt beam="2">  1       -2 0.52230548E-01 0.97617291E+03</pdfrwt>
<totfact> 0.17353326E+02</totfact>
</mgrwt>
<rwgt>
<wgt id='morphing_basis_vector_1'> +2.1642367e-04 </wgt>
<wgt id='morphing_basis_vector_2'> +1.4251569e-04 </wgt>
<wgt id='morphing_basis_vector_3'> +2.0673652e-04 </wgt>
<wgt id='morphing_basis_vector_4'> +1.1869222e-04 </wgt>
<wgt id='morphing_basis_vector_5'> +1.9507321e-04 </wgt>
</rwgt>
</event>
<event>
 4      1 +1.4786900e-06 9.33451300e+02 7.81860800e-03 8.75048500e-02
        2 -1    0    0  501    0 +0.0000000000e+00 +0.0000000000e+00 +7.8295522161e+02 7.8295522161e+02 0.0000000000e+00 0.0000e+00 -1.0000e+00
       -2 -1    0    0    0  501 -0.0000000000e+00 -0.0000000000e+00 -2.7821875597e+02 2.7821875597e+02 0.0000000000e+00 0.0000e+00 1.0000e+00
      -13  1    1    2    0    0 -2.0946973344e+02 -1.1449762697e+01 -2.2160083838e+02 3.0514848495e+02 0.0000000000e+00 0.0000e+00 1.0000e+00
       13  1    1    2    0    0 +2.0946973344e+02 +1.1449762697e+01 +7.2633730402e+02 7.5602549263e+02 0.0000000000e+00 0.0000e+00 -1.0000e+00
<mgrwt>
<rscale>  0 0.93345129E+03</rscale>
<asrwt>0</asrwt>
<pdfrwt beam="1">  1        2 0.12045465E+00 0.93345129E+03</pdfrwt>
<pdfrwt beam="2">  1       -2 0.42802886E-01 0.93345129E+03</pdfrwt>
<totfact> 0.22297824E+02</totfact>
</mgrwt>
<rwgt>
<wgt id='morphing_basis_vector_1'> +1.8096952e-04 </wgt>
<wgt id='morphing_basis_vector_2'> +1.1199464e-04 </wgt>
<wgt id='morphing_basis_vector_3'> +1.7088490e-04 </wgt>
<wgt id='morphing_basis_vector_4'> +1.0166685e-04 </wgt>
<wgt id='morphing_basis_vector_5'> +1.6057988e-04 </wgt>
</rwgt>
</event>
<event>
 4      1 +1.4786900e-06 9.03329100e+02 7.81860800e-03 8.78230500e-02
        2 -1    0    0  501    0 +0.0000000000e+00 +0.0000000000e+00 +7.8075571160e+02 7.8075571160e+02 0.0000000000e+00 0.0000e+00 1.0000e+00
       -2 -1    0    0    0  501 -0.0000000000e+00 -0.0000000000e+00 -2.6128644285e+02 2.6128644285e+02 0.0000000000e+00 0.0000e+00 -1.0000e+00
      -13  1    1    2    0    0 +6.7509741920e+01 -3.2431066363e+02 -9.4439306065e+01 3.4446154260e+02 0.0000000000e+00 0.0000e+00 -1.0000e+00
       13  1    1    2    0    0 -6.7509741920e+01 +3.2431066363e+02 +6.1390857481e+02 6.9758061185e+02 0.0000000000e+00 0.0000e+00 1.0000e+00
<mgrwt>
<rscale>  0 0.90332914E+03</rscale>
<asrwt>0</asrwt>
<pdfrwt beam="1">  1        2 0.12011626E+00 0.90332914E+03</pdfrwt>
<pdfrwt beam="2">  1       -2 0.40197915E-01 0.90332914E+03</pdfrwt>
<totfact> 0.25220738E+02</totfact>
</mgrwt>
<rwgt>
<wgt id='morphing_basis_vector_1'> +1.6079278e-04 </wgt>
<wgt id='morphing_basis_vector_2'> +9.9483001e-05 </wgt>
<wgt id='morphing_basis_vector_3'> +1.5033939e-04 </wgt>
<wgt id='morphing_basis_vector_4'> +8.7770084e-05 </wgt>
<wgt id='morphing_basis_vector_5'> +1.3891895e-04 </wgt>
</rwgt>
</event>
<event>
 4      1 +1.4786900e-06 9.45956900e+02 7.81860800e-03 8.73764200e-02
        2 -1    0    0  501    0 +0.0000000000e+00 +0.0000000000e+00 +1.5008153360e+03 1.5008153360e+03 0.0000000000e+00 0.0000e+00 -1.0000e+00
       -2 -1    0    0    0  501 -0.0000000000e+00 -0.0000000000e+00 -1.4905804849e+02 1.4905804849e+02 0.0000000000e+00 0.0000e+00 1.0000e+00
      -13  1    1    2    0    0 -3.0118240466e+02 +6.4576766598e+01 +4.9865079724e+01 3.1203769938e+02 0.0000000000e+00 0.0000e+00 1.0000e+00
       13  1    1    2    0    0 +3.0118240466e+02 -6.4576766598e+01 +1.3018922078e+03 1.3378356852e+03 0.0000000000e+00 0.0000e+00 -1.0000e+00
<mgrwt>
<rscale>  0 0.94595688E+03</rscale>
<asrwt>0</asrwt>
<pdfrwt beam="1">  1        2 0.23089466E+00 0.94595688E+03</pdfrwt>
<pdfrwt beam="2">  1       -2 0.22932008E-01 0.94595688E+03</pdfrwt>
<totfact> 0.25029117E+02</totfact>
</mgrwt>
<rwgt>
<wgt id='morphing_basis_vector_1'> +1.9011457e-04 </wgt>
<wgt id='morphing_basis_vector_2'> +1.1818538e-04 </wgt>
<wgt id='morphing_basis_vector_3'> +1.8019115e-04 </wgt>
<wgt id='morphing_basis_vector_4'> +1.0756768e-04 </wgt>
<wgt id='morphing_basis_vector_5'> +1.7023892e-04 </wgt>
</rwgt>
</event>
<event>
 4      1 +1.4786900e-06 1.03512700e+03 7.81860800e-03 8.65168200e-02
        2 -1    0    0  501    0 +0.0000000000e+00 +0.0000000000e+00 +1.4982355487e+03 1.4982355487e+03 0.0000000000e+00 0.0000e+00 1.0000e+00
       -2 -1    0    0    0  501 -0.0000000000e+00 -0.0000000000e+00 -1.7879175812e+02 1.7879175812e+02 0.0000000000e+00 0.0000e+00 -1.0000e+00
      -13  1    1    2    0    0 -4.7761028372e+02 -1.3452124250e+02 +4.2125841359e+02 6.5089645783e+02 0.0000000000e+00 0.0000e+00 -1.0000e+00
       13  1    1    2    0    0 +4.7761028372e+02 +1.3452124250e+02 +8.9818537701e+02 1.0261308490e+03 0.0000000000e+00 0.0000e+00 1.0000e+00
<mgrwt>
<rscale>  0 0.10351274E+04</rscale>
<asrwt>0</asrwt>
<pdfrwt beam="1">  1        2 0.23049777E+00 0.10351274E+04</pdfrwt>
<pdfrwt beam="2">  1       -2 0.27506425E-01 0.10351274E+04</pdfrwt>
<totfact> 0.18253039E+02</totfact>
</mgrwt>
<rwgt>
<wgt id='morphing_basis_vector_1'> +2.6801371e-04 </wgt>
<wgt id='morphing_basis_vector_2'> +1.7593812e-04 </wgt>
<wgt id='morphing_basis_vector_3'> +2.6012091e-04 </wgt>
<wgt id='morphing_basis_vector_4'> +1.5412592e-04 </wgt>
<wgt id='morphing_basis_vector_5'> +2.5166326e-04 </wgt>
</rwgt>
</event>
<event>
 4      1 +1.4786900e-06 9.09838400e+02 7.81860800e-03 8.77532000e-02
        2 -1    0    0  501    0 +0.0000000000e+00 +0.0000000000e+00 +6.7010109129e+02 6.7010109129e+02 0.0000000000e+00 0.0000e+00 -1.0000e+00
       -2 -1    0    0    0  501 -0.0000000000e+00 -0.0000000000e+00 -3.0883623830e+02 3.0883623830e+02 0.0000000000e+00 0.0000e+00 1.0000e+00
      -13  1    1    2    0    0 +4.5071492528e+02 +4.3611535158e-01 +1.1424238618e+02 4.6496823210e+02 0.0000000000e+00 0.0000e+00 1.0000e+00
       13  1    1    2    0    0 -4.5071492528e+02 -4.3611535158e-01 +2.4702246681e+02 5.1396909749e+02 0.0000000000e+00 0.0000e+00 -1.0000e+00
<mgrwt>
<rscale>  0 0.90983845E+03</rscale>
<asrwt>0</asrwt>
<pdfrwt beam="1">  1        2 0.10309248E+00 0.90983845E+03</pdfrwt>
<pdfrwt beam="2">  1       -2 0.47513268E-01 0.90983845E+03</pdfrwt>
<totfact> 0.22178083E+02</totfact>
</mgrwt>
<rwgt>
<wgt id='morphing_basis_vector_1'> +1.6834756e-04 </wgt>
<wgt id='morphing_basis_vector_2'> +1.1228188e-04 </wgt>
<wgt id='morphing_basis_vector_3'> +1.5729576e-04 </wgt>
<wgt id='morphing_basis_vector_4'> +8.5837257e-05 </wgt>
<wgt id='morphing_basis_vector_5'> +1.4314999e-04 </wgt>
</rwgt>
</event>
<event>
 4      1 +1.4786900e-06 9.14102500e+02 7.81860800e-03 8.77077700e-02
        2 -1    0    0  501    0 +0.0000000000e+00 +0.0000000000e+00 +1.2995630032e+03 1.2995630032e+03 0.0000000000e+00 0.0000e+00 1.0000e+00
       -2 -1    0    0    0  501 -0.0000000000e+00 -0.0000000000e+00 -1.6074312834e+02 1.6074312834e+02 0.0000000000e+00 0.0000e+00 -1.0000e+00
      -13  1    1    2    0    0 +7.5684210404e+01 -3.8879420272e+02 +2.0509325095e+02 4.4604066335e+02 0.0000000000e+00 0.0000e+00 -1.0000e+00
       13  1    1    2    0    0 -7.5684210404e+01 +3.8879420272e+02 +9.3372662394e+02 1.0142654682e+03 0.0000000000e+00 0.0000e+00 1.0000e+00
<mgrwt>
<rscale>  0 0.91410245E+03</rscale>
<asrwt>0</asrwt>
<pdfrwt beam="1">  1        2 0.19993276E+00 0.91410245E+03</pdfrwt>
<pdfrwt beam="2">  1       -2 0.24729713E-01 0.91410245E+03</pdfrwt>
<totfact> 0.28603958E+02</totfact>
</mgrwt>
<rwgt>
<wgt id='morphing_basis_vector_1'> +1.6836680e-04 </wgt>
<wgt id='morphing_basis_vector_2'> +1.0555813e-04 </wgt>
<wgt id='morphing_basis_vector_3'> +1.5792093e-04 </wgt>
<wgt id='morphing_basis_vector_4'> +9.1747867e-05 </wgt>
<wgt id='morphing_basis_vector_5'> +1.4636059e-04 </wgt>
</rwgt>
</event>
<event>
 4      1 +1.4786900e-06 1.03114900e+03 7.81860800e-03 8.65532300e-02
        2 -1    0    0  501    0 +0.0000000000e+00 +0.0000000000e+00 +1.2175864109e+03 1.2175864109e+03 0.0000000000e+00 0.0000e+00 -1.0000e+00
       -2 -1    0    0    0  501 -0.0000000000e+00 -0.0000000000e+00 -2.1831458062e+02 2.1831458062e+02 0.0000000000e+00 0.0000e+00 1.0000e+00
      -13  1    1    2    0    0 +2.9233983642e+02 +4.2336965060e+02 +4.5319094040e+02 6.8562852148e+02 0.0000000000e+00 0.0000e+00 1.0000e+00
       13  1    1    2    0    0 -2.9233983642e+02 -4.2336965060e+02 +5.4608088988e+02 7.5027247004e+02 0.0000000000e+00 0.0000e+00 -1.0000e+00
<mgrwt>
<rscale>  0 0.10311486E+04</rscale>
<asrwt>0</asrwt>
<pdfrwt beam="1">  1        2 0.18732098E+00 0.10311486E+04</pdfrwt>
<pdfrwt beam="2">  1       -2 0.33586859E-01 0.10311486E+04</pdfrwt>
<totfact> 0.18475331E+02</totfact>
</mgrwt>
<rwgt>
<wgt id='morphing_basis_vector_1'> +2.6847657e-04 </wgt>
<wgt id='morphing_basis_vector_2'> +1.8625805e-04 </wgt>
<wgt id='morphing_basis_vector_3'> +2.6030487e-04 </wgt>
<wgt id='morphing_basis_vector_4'> +1.4486719e-04 </wgt>
<wgt id='morphing_basis_vector_5'> +2.4709996e-04 </wgt>
</rwgt>
</event>
<event>
 4      1 +1.4786900e-06 9.84548500e+02 7.81860800e-03 8.69927900e-02
        2 -1    0    0  501    0 +0.0000000000e+00 +0.0000000000e+00 +1.6375218843e+03 1.6375218843e+03 0.0000000000e+00 0.0000e+00 -1.0000e+00
       -2 -1    0    0    0  501 -0.0000000000e+00 -0.0000000000e+00 -1.4798820960e+02 1.4798820960e+02 0.0000000000e+00 0.0000e+00 1.0000e+00
      -13  1    1    2    0    0 +2.6583549257e+02 -1.8844753014e+02 +7.5593344869e+01 3.3450760009e+02 0.0000000000e+00 0.0000e+00 1.0000e+00
       13  1    1    2    0    0 -2.6583549257e+02 +1.8844753014e+02 +1.4139403298e+03 1.4510024938e+03 0.0000000000e+00 0.0000e+00 -1.0000e+00
<mgrwt>
<rscale>  0 0.98454849E+03</rscale>
<asrwt>0</asrwt>
<pdfrwt beam="1">  1        2 0.25192643E+00 0.98454849E+03</pdfrwt>
<pdfrwt beam="2">  1       -2 0.22767418E-01 0.98454849E+03</pdfrwt>
<totfact> 0.21226946E+02</totfact>
</mgrwt>
<rwgt>
<wgt id='morphing_basis_vector_1'> +2.2021858e-04 </wgt>
<wgt id='morphing_basis_vector_2'> +1.3777616e-04 </wgt>
<wgt id='morphing_basis_vector_3'> +2.1102011e-04 </wgt>
<wgt id='morphing_basis_vector_4'> +1.2793590e-04 </wgt>
<wgt id='morphing_basis_vector_5'> +2.0275160e-04 </wgt>
</rwgt>
</event>
<event>
 4      1 +1.4786900e-06 9.23035100e+02 7.81860800e-03 8.76134500e-02
        2 -1    0    0  501    0 +0.0000000000e+00 +0.0000000000e+00 +1.4749735557e+03 1.4749735557e+03 0.0000000000e+00 0.0000e+00 -1.0000e+00
       -2 -1    0    0    0  501 -0.0000000000e+00 -0.0000000000e+00 -1.4440830406e+02 1.4440830406e+02 0.0000000000e+00 0.0000e+00 1.0000e+00
      -13  1    1    2    0    0 +3.5270301363e+02 +2.2947474356e+02 +3.3268261384e+02 5.3641009993e+02 0.0000000000e+00 0.0000e+00 1.0000e+00
       13  1    1    2    0    0 -3.5270301363e+02 -2.2947474356e+02 +9.9788263780e+02 1.0829717598e+03 0.0000000000e+00 0.0000e+00 -1.0000e+00
<mgrwt>
<rscale>  0 0.92303506E+03</rscale>
<asrwt>0</asrwt>
<pdfrwt beam="1">  1        2 0.22691900E+00 0.92303506E+03</pdfrwt>
<pdfrwt beam="2">  1       -2 0.22216663E-01 0.92303506E+03</pdfrwt>
<totfact> 0.27338198E+02</totfact>
</mgrwt>
<rwgt>
<wgt id='morphing_basis_vector_1'> +1.7485627e-04 </wgt>
<wgt id='morphing_basis_vector_2'> +1.1080148e-04 </wgt>
<wgt id='morphing_basis_vector_3'> +1.6443787e-04 </wgt>
<wgt id='morphing_basis_vector_4'> +9.5130925e-05 </wgt>
<wgt id='morphing_basis_vector_5'> +1.5274538e-04 </wgt>
</rwgt>
</event>
<event>
 4      1 +1.4786900e-06 9.52746200e+02 7.81860800e-03 8.73075600e-02
        2 -1    0    0  501    0 +0.0000000000e+00 +0.0000000000e+00 +8.3689691041e+02 8.3689691041e+02 0.0000000000e+00 0.0000e+00 -1.0000e+00
       -2 -1    0    0    0  501 -0.0000000000e+00 -0.0000000000e+00 -2.7115804560e+02 2.7115804560e+02 0.0000000000e+00 0.0000e+00 1.0000e+00
      -13  1    1    2    0    0 +1.8380692928e+02 +3.8490582583e+02 +3.6174262536e+01 4.2807249302e+02 0.0000000000e+00 0.0000e+00 1.0000e+00
       13  1    1    2    0    0 -1.8380692928e+02 -3.8490582583e+02 +5.2956460227e+02 6.7998246300e+02 0.0000000000e+00 0.0000e+00 -1.0000e+00
<mgrwt>
<rscale>  0 0.95274620E+03</rscale>
<asrwt>0</asrwt>
<pdfrwt beam="1">  1        2 0.12875337E+00 0.95274620E+03</pdfrwt>
<pdfrwt beam="2">  1       -2 0.41716623E-01 0.95274620E+03</pdfrwt>
<totfact> 0.21450718E+02</totfact>
</mgrwt>
<rwgt>
<wgt id='morphing_basis_vector_1'> +1.9613515e-04 </wgt>
<wgt id='morphing_basis_vector_2'> +1.2441056e-04 </wgt>
<wgt id='morphing_basis_vector_3'> +1.8618971e-04 </wgt>
<wgt id='morphing_basis_vector_4'> +1.0951928e-04 </wgt>
<wgt id='morphing_basis_vector_5'> +1.7557945e-04 </wgt>
</rwgt>
</event>
<event>
 4      1 +1.4786900e-06 9.24172200e+02 7.81860800e-03 8.76015200e-02
        2 -1    0    0  501    0 +0.0000000000e+00 +0.0000000000e+00 +3.3619518175e+02 3.3619518175e+02 0.0000000000e+00 0.0000e+00 -1.0000e+00
       -2 -1    0    0    0  501 -0.0000000000e+00 -0.0000000000e+00 -6.3511790540e+02 6.3511790540e+02 0.0000000000e+00 0.0000e+00 1.0000e+00
      -13  1    1    2    0    0 -4.9566286925e+01 +3.0351560535e+02 -5.1193755863e+02 5.9720901151e+02 0.0000000000e+00 0.0000e+00 1.0000e+00
       13  1    1    2    0    0 +4.9566286925e+01 -3.0351560535e+02 +2.1301483498e+02 3.7410407564e+02 0.0000000000e+00 0.0000e+00 -1.0000e+00
<mgrwt>
<rscale>  0 0.92417223E+03</rscale>
<asrwt>0</asrwt>
<pdfrwt beam="1">  1        2 0.51722337E-01 0.92417223E+03</pdfrwt>
<pdfrwt beam="2">  1       -2 0.97710445E-01 0.92417223E+03</pdfrwt>
<totfact> 0.10438476E+02</totfact>
</mgrwt>
<rwgt>
<wgt id='morphing_basis_vector_1'> +1.7461086e-04 </wgt>
<wgt id='morphing_basis_vector_2'> +1.0818332e-04 </wgt>
<wgt id='morphing_basis_vector_3'> +1.6438912e-04 </wgt>
<wgt id='morphing_basis_vector_4'> +9.7146111e-05 </wgt>
<wgt id='morphing_basis_vector_5'> +1.5365875e-04 </wgt>
</rwgt>
</event>
<event>
 4      1 +1.4786900e-06 9.61482800e+02 7.81860800e-03 8.72198200e-02
        2 -1    0    0  501    0 +0.0000000000e+00 +0.0000000000e+00 +6.4052457002e+02 6.4052457002e+02 0.0000000000e+00 0.0000e+00 -1.0000e+00
       -2 -1    0    0    0  501 -0.0000000000e+00 -0.0000000000e+00 -3.6081724707e+02 3.6081724707e+02 0.0000000000e+00 0.0000e+00 1.0000e+00
      -13  1    1    2    0    0 +2.9442364968e+02 +2.0952592424e+02 +4.7005576133e+02 5.9290708984e+02 0.0000000000e+00 0.0000e+00 -1.0000e+00
       13  1    1    2    0    0 -2.9442364968e+02 -2.0952592424e+02 -1.9034843838e+02 4.0843472724e+02 0.0000000000e+00 0.0000e+00 1.0000e+00
<mgrwt>
<rscale>  0 0.96148284E+03</rscale>
<asrwt>0</asrwt>
<pdfrwt beam="1">  1        2 0.98542241E-01 0.96148284E+03</pdfrwt>
<pdfrwt beam="2">  1       -2 0.55510346E-01 0.96148284E+03</pdfrwt>
<totfact> 0.17178210E+02</totfact>
</mgrwt>
<rwgt>
<wgt id='morphing_basis_vector_1'> +2.5480623e-04 </wgt>
<wgt id='morphing_basis_vector_2'> +2.8654995e-04 </wgt>
<wgt id='morphing_basis_vector_3'> +2.3868552e-04 </wgt>
<wgt id='morphing_basis_vector_4'> +3.5906546e-05 </wgt>
<wgt id='morphing_basis_vector_5'> +1.7826779e-04 </wgt>
</rwgt>
</event>
<event>
 4      1 +1.4786900e-06 9.15077900e+02 7.81860800e-03 8.76974200e-02
        2 -1    0    0  501    0 +0.0000000000e+00 +0.0000000000e+00 +2.9256831658e+02 2.9256831658e+02 0.0000000000e+00 0.0000e+00 -1.0000e+00
       -2 -1    0    0    0  501 -0.0000000000e+00 -0.0000000000e+00 -7.1553167300e+02 7.1553167300e+02 0.0000000000e+00 0.0000e+00 1.0000e+00
      -13  1    1    2    0    0 -1.1231345837e+02 +2.7550883556e+02 -5.9441167135e+02 6.6471397341e+02 0.0000000000e+00 0.0000e+00 1.0000e+00
       13  1    1    2    0    0 +1.1231345837e+02 -2.7550883556e+02 +1.7144831493e+02 3.4338601616e+02 0.0000000000e+00 0.0000e+00 -1.0000e+00
<mgrwt>
<rscale>  0 0.91507791E+03</rscale>
<asrwt>0</asrwt>
<pdfrwt beam="1">  1        2 0.45010511E-01 0.91507791E+03</pdfrwt>
<pdfrwt beam="2">  1       -2 0.11008179E+00 0.91507791E+03</pdfrwt>
<totfact> 0.91183929E+01</totfact>
</mgrwt>
<rwgt>
<wgt id='morphing_basis_vector_1'> +1.6841363e-04 </wgt>
<wgt id='morphing_basis_vector_2'> +1.0413709e-04 </wgt>
<wgt id='morphing_basis_vector_3'> +1.5809432e-04 </wgt>
<wgt id='morphing_basis_vector_4'> +9.3054908e-05 </wgt>
<wgt id='morphing_basis_vector_5'> +1.4709912e-04 </wgt>
</rwgt>
</event>
<event>
 4      1 +1.4786900e-06 9.82512100e+02 7.81860800e-03 8.70125700e-02
        2 -1    0    0  501    0 +0.0000000000e+00 +0.0000000000e+00 +5.8125020932e+02 5.8125020932e+02 0.0000000000e+00 0.0000e+00 1.0000e+00
       -2 -1    0    0    0  501 -0.0000000000e+00 -0.0000000000e+00 -4.1519559862e+02 4.1519559862e+02 0.0000000000e+00 0.0000e+00 -1.0000e+00
      -13  1    1    2    0    0 +2.8464194782e+02 -6.4792338244e+01 -3.1768797924e+02 4.3144494168e+02 0.0000000000e+00 0.0000e+00 -1.0000e+00
       13  1    1    2    0    0 -2.8464194782e+02 +6.4792338244e+01 +4.8374258994e+02 5.6500086626e+02 0.0000000000e+00 0.0000e+00 1.0000e+00
<mgrwt>
<rscale>  0 0.98251214E+03</rscale>
<asrwt>0</asrwt>
<pdfrwt beam="1">  1        2 0.89423110E-01 0.98251214E+03</pdfrwt>
<pdfrwt beam="2">  1       -2 0.63876246E-01 0.98251214E+03</pdfrwt>
<totfact> 0.14443075E+02</totfact>
</mgrwt>
<rwgt>
<wgt id='morphing_basis_vector_1'> +2.1846936e-04 </wgt>
<wgt id='morphing_basis_vector_2'> +1.3645880e-04 </wgt>
<wgt id='morphing_basis_vector_3'> +2.0923270e-04 </wgt>
<wgt id='morphing_basis_vector_4'> +1.2690918e-04 </wgt>
<wgt id='morphing_basis_vector_5'> +2.0093796e-04 </wgt>
</rwgt>
</event>
<event>
 4      1 +1.4786900e-06 9.08200000e+02 7.81860800e-03 8.77707200e-02
        2 -1    0    0  501    0 +0.0000000000e+00 +0.0000000000e+00 +2.6925548290e+03 2.6925548290e+03 0.0000000000e+00 0.0000e+00 -1.0000e+00
       -2 -1    0    0    0  501 -0.0000000000e+00 -0.0000000000e+00 -7.6584065166e+01 7.6584065166e+01 0.0000000000e+00 0.0000e+00 1.0000e+00
      -13  1    1    2    0    0 -3.3163591230e+02 -1.8197735795e+02 +5.4202249269e+02 6.6097391758e+02 0.0000000000e+00 0.0000e+00 1.0000e+00
       13  1    1    2    0    0 +3.3163591230e+02 +1.8197735795e+02 +2.0739482711e+03 2.1081649766e+03 0.0000000000e+00 0.0000e+00 -1.0000e+00
<mgrwt>
<rscale>  0 0.90819997E+03</rscale>
<asrwt>0</asrwt>
<pdfrwt beam="1">  1        2 0.41423913E+00 0.90819997E+03</pdfrwt>
<pdfrwt beam="2">  1       -2 0.11782166E-01 0.90819997E+03</pdfrwt>
<totfact> 0.15798096E+02</totfact>
</mgrwt>
<rwgt>
<wgt id='morphing_basis_vector_1'> +1.6426161e-04 </wgt>
<wgt id='morphing_basis_vector_2'> +1.0243466e-04 </wgt>
<wgt id='morphing_basis_vector_3'> +1.5379244e-04 </wgt>
<wgt id='morphing_basis_vector_4'> +8.9442499e-05 </wgt>
<wgt id='morphing_basis_vector_5'> +1.4224279e-04 </wgt>
</rwgt>
</event>
<event>
 4      1 +1.4786900e-06 9.83132800e+02 7.81860800e-03 8.70065300e-02
        2 -1    0    0  501    0 +0.0000000000e+00 +0.0000000000e+00 +3.0471225310e+02 3.0471225310e+02 0.0000000000e+00 0.0000e+00 1.0000e+00
       -2 -1    0    0    0  501 -0.0000000000e+00 -0.0000000000e+00 -7.9300240157e+02 7.9300240157e+02 0.0000000000e+00 0.0000e+00 -1.0000e+00
      -13  1    1    2    0    0 -3.2864976192e+02 +3.5994889518e+02 -3.1532159543e+02 5.8051837327e+02 0.0000000000e+00 0.0000e+00 1.0000e+00
       13  1    1    2    0    0 +3.2864976192e+02 -3.5994889518e+02 -1.7296855304e+02 5.1719628140e+02 0.0000000000e+00 0.0000e+00 -1.0000e+00
<mgrwt>
<rscale>  0 0.98313285E+03</rscale>
<asrwt>0</asrwt>
<pdfrwt beam="1">  1        2 0.46878809E-01 0.98313285E+03</pdfrwt>
<pdfrwt beam="2">  1       -2 0.12200037E+00 0.98313285E+03</pdfrwt>
<totfact> 0.66639432E+01</totfact>
</mgrwt>
<rwgt>
<wgt id='morphing_basis_vector_1'> +2.2370799e-04 </wgt>
<wgt id='morphing_basis_vector_2'> +1.5112256e-04 </wgt>
<wgt id='morphing_basis_vector_3'> +2.1404817e-04 </wgt>
<wgt id='morphing_basis_vector_4'> +1.2003867e-04 </wgt>
<wgt id='morphing_basis_vector_5'> +2.0106860e-04 </wgt>
</rwgt>
</event>
<event>
 4      1 +1.4786900e-06 1.00730600e+03 7.81860800e-03 8.67750400e-02
        2 -1    0    0  501    0 +0.0000000000e+00 +0.0000000000e+00 +5.9424552776e+02 5.9424552776e+02 0.0000000000e+00 0.0000e+00 1.0000e+00
       -2 -1    0    0    0  501 -0.0000000000e+00 -0.0000000000e+00 -4.2687167595e+02 4.2687167595e+02 0.0000000000e+00 0.0000e+00 -1.0000e+00
      -13  1    1    2    0    0 +2.0412504032e+02 -2.6722159759e+01 -3.8227324040e+02 4.3418191606e+02 0.0000000000e+00 0.0000e+00 -1.0000e+00
       13  1    1    2    0    0 -2.0412504032e+02 +2.6722159759e+01 +5.4964709221e+02 5.8693528765e+02 0.0000000000e+00 0.0000e+00 1.0000e+00
<mgrwt>
<rscale>  0 0.10073065E+04</rscale>
<asrwt>0</asrwt>
<pdfrwt beam="1">  1        2 0.91422389E-01 0.10073065E+04</pdfrwt>
<pdfrwt beam="2">  1       -2 0.65672566E-01 0.10073065E+04</pdfrwt>
<totfact> 0.13259056E+02</totfact>
</mgrwt>
<rwgt>
<wgt id='morphing_basis_vector_1'> +2.3943490e-04 </wgt>
<wgt id='morphing_basis_vector_2'> +1.4988479e-04 </wgt>
<wgt id='morphing_basis_vector_3'> +2.3080691e-04 </wgt>
<wgt id='morphing_basis_vector_4'> +1.4148045e-04 </wgt>
<wgt id='morphing_basis_vector_5'> +2.2394042e-04 </wgt>
</rwgt>
</event>
<event>
 4      1 +1.4786900e-06 9.08150600e+02 7.81860800e-03 8.77712500e-02
        2 -1    0    0  501    0 +0.0000000000e+00 +0.0000000000e+00 +8.4002408276e+02 8.4002408276e+02 0.0000000000e+00 0.0000e+00 -1.0000e+00
       -2 -1    0    0    0  501 -0.0000000000e+00 -0.0000000000e+00 -2.4545054766e+02 2.4545054766e+02 0.0000000000e+00 0.0000e+00 1.0000e+00
      -13  1    1    2    0    0 +4.2827573119e+01 +4.3258583120e+02 +4.5413304203e+02 6.2865055654e+02 0.0000000000e+00 0.0000e+00 1.0000e+00
       13  1    1    2    0    0 -4.2827573119e+01 -4.3258583120e+02 +1.4044049307e+02 4.5682407387e+02 0.0000000000e+00 0.0000e+00 -1.0000e+00
<mgrwt>
<rscale>  0 0.90815058E+03</rscale>
<asrwt>0</asrwt>
<pdfrwt beam="1">  1        2 0.12923447E+00 0.90815058E+03</pdfrwt>
<pdfrwt beam="2">  1       -2 0.37761623E-01 0.90815058E+03</pdfrwt>
<totfact> 0.25758911E+02</totfact>
</mgrwt>
<rwgt>
<wgt id='morphing_basis_vector_1'> +1.7934465e-04 </wgt>
<wgt id='morphing_basis_vector_2'> +1.4840073e-04 </wgt>
<wgt id='morphing_basis_vector_3'> +1.6582389e-04 </wgt>
<wgt id='morphing_basis_vector_4'> +6.7755873e-05 </wgt>
<wgt id='morphing_basis_vector_5'> +1.4105003e-04 </wgt>
</rwgt>
</event>
<event>
 4      1 +1.4786900e-06 9.60547700e+02 7.81860800e-03 8.72291700e-02
        2 -1    0    0  501    0 +0.0000000000e+00 +0.0000000000e+00 +9.9643363707e+02 9.9643363707e+02 0.0000000000e+00 0.0000e+00 -1.0000e+00
       -2 -1    0    0    0  501 -0.0000000000e+00 -0.0000000000e+00 -2.3148854171e+02 2.3148854171e+02 0.0000000000e+00 0.0000e+00 1.0000e+00
      -13  1    1    2    0    0 +4.6094530547e+02 -1.3133180606e+02 +3.4318826952e+02 5.8948859722e+02 0.0000000000e+00 0.0000e+00 1.0000e+00
       13  1    1    2    0    0 -4.6094530547e+02 +1.3133180606e+02 +4.2175682584e+02 6.3843358156e+02 0.0000000000e+00 0.0000e+00 -1.0000e+00
<mgrwt>
<rscale>  0 0.96054770E+03</rscale>
<asrwt>0</asrwt>
<pdfrwt beam="1">  1        2 0.15329748E+00 0.96054770E+03</pdfrwt>
<pdfrwt beam="2">  1       -2 0.35613622E-01 0.96054770E+03</pdfrwt>
<totfact> 0.22642917E+02</totfact>
</mgrwt>
<rwgt>
<wgt id='morphing_basis_vector_1'> +2.0661327e-04 </wgt>
<wgt id='morphing_basis_vector_2'> +1.4206126e-04 </wgt>
<wgt id='morphing_basis_vector_3'> +1.9625281e-04 </wgt>
<wgt id='morphing_basis_vector_4'> +1.0668955e-04 </wgt>
<wgt id='morphing_basis_vector_5'> +1.8157301e-04 </wgt>
</rwgt>
</event>
<event>
 4      1 +1.4786900e-06 9.09864600e+02 7.81860800e-03 8.77529200e-02
        2 -1    0    0  501    0 +0.0000000000e+00 +0.0000000000e+00 +1.2829614494e+03 1.2829614494e+03 0.0000000000e+00 0.0000e+00 1.0000e+00
       -2 -1    0    0    0  501 -0.0000000000e+00 -0.0000000000e+00 -1.6131691616e+02 1.6131691616e+02 0.0000000000e+00 0.0000e+00 -1.0000e+00
      -13  1    1    2    0    0 -3.1692832966e+02 -1.6862343641e+02 +1.0043906822e+03 1.0666199286e+03 0.0000000000e+00 0.0000e+00 1.0000e+00
       13  1    1    2    0    0 +3.1692832966e+02 +1.6862343641e+02 +1.1725385100e+02 3.7765843699e+02 0.0000000000e+00 0.0000e+00 -1.0000e+00
<mgrwt>
<rscale>  0 0.90986457E+03</rscale>
<asrwt>0</asrwt>
<pdfrwt beam="1">  1        2 0.19737868E+00 0.90986457E+03</pdfrwt>
<pdfrwt beam="2">  1       -2 0.24817988E-01 0.90986457E+03</pdfrwt>
<totfact> 0.29063782E+02</totfact>
</mgrwt>
<rwgt>
<wgt id='morphing_basis_vector_1'> +2.0422418e-04 </wgt>
<wgt id='morphing_basis_vector_2'> +2.2138074e-04 </wgt>
<wgt id='morphing_basis_vector_3'> +1.8603296e-04 </wgt>
<wgt id='morphing_basis_vector_4'> +3.4367182e-05 </wgt>
<wgt id='morphing_basis_vector_5'> +1.4040830e-04 </wgt>
</rwgt>
</event>
<event>
 4      1 +1.4786900e-06 9.51333100e+02 7.81860800e-03 8.73218400e-02
        2 -1    0    0  501    0 +0.0000000000e+00 +0.0000000000e+00 +7.1899055437e+02 7.1899055437e+02 0.0000000000e+00 0.0000e+00 -1.0000e+00
       -2 -1    0    0    0  501 -0.0000000000e+00 -0.0000000000e+00 -3.1468934100e+02 3.1468934100e+02 0.0000000000e+00 0.0000e+00 1.0000e+00
      -13  1    1    2    0    0 +3.5750191736e+02 -2.2904894780e+02 -3.0859062348e+01 4.2570332760e+02 0.0000000000e+00 0.0000e+00 1.0000e+00
       13  1    1    2    0    0 -3.5750191736e+02 +2.2904894780e+02 +4.3516027571e+02 6.0797656777e+02 0.0000000000e+00 0.0000e+00 -1.0000e+00
<mgrwt>
<rscale>  0 0.95133309E+03</rscale>
<asrwt>0</asrwt>
<pdfrwt beam="1">  1        2 0.11061393E+00 0.95133309E+03</pdfrwt>
<pdfrwt beam="2">  1       -2 0.48413745E-01 0.95133309E+03</pdfrwt>
<totfact> 0.19572917E+02</totfact>
</mgrwt>
<rwgt>
<wgt id='morphing_basis_vector_1'> +1.9504060e-04 </wgt>
<wgt id='morphing_basis_vector_2'> +1.2361627e-04 </wgt>
<wgt id='morphing_basis_vector_3'> +1.8507478e-04 </wgt>
<wgt id='morphing_basis_vector_4'> +1.0885936e-04 </wgt>
<wgt id='morphing_basis_vector_5'> +1.7444378e-04 </wgt>
</rwgt>
</event>
<event>
 4      1 +1.4786900e-06 9.41078000e+02 7.81860800e-03 8.74262800e-02
        2 -1    0    0  501    0 +0.0000000000e+00 +0.0000000000e+00 +7.3701894129e+02 7.3701894129e+02 0.0000000000e+00 0.0000e+00 -1.0000e+00
       -2 -1    0    0    0  501 -0.0000000000e+00 -0.0000000000e+00 -3.0040876419e+02 3.0040876419e+02 0.0000000000e+00 0.0000e+00 1.0000e+00
      -13  1    1    2    0    0 -8.9727373378e+01 +1.1387928316e+02 -2.7517256267e+02 3.1102963189e+02 0.0000000000e+00 0.0000e+00 1.0000e+00
       13  1    1    2    0    0 +8.9727373378e+01 -1.1387928316e+02 +7.1178273978e+02 7.2639807359e+02 0.0000000000e+00 0.0000e+00 -1.0000e+00
<mgrwt>
<rscale>  0 0.94107800E+03</rscale>
<asrwt>0</asrwt>
<pdfrwt beam="1">  1        2 0.11338753E+00 0.94107800E+03</pdfrwt>
<pdfrwt beam="2">  1       -2 0.46216733E-01 0.94107800E+03</pdfrwt>
<totfact> 0.20775971E+02</totfact>
</mgrwt>
<rwgt>
<wgt id='morphing_basis_vector_1'> +1.8641623e-04 </wgt>
<wgt id='morphing_basis_vector_2'> +1.1546965e-04 </wgt>
<wgt id='morphing_basis_vector_3'> +1.7643991e-04 </wgt>
<wgt id='morphing_basis_vector_4'> +1.0536819e-04 </wgt>
<wgt id='morphing_basis_vector_5'> +1.6642909e-04 </wgt>
</rwgt>
</event>
<event>
 4      1 +1.4786900e-06 9.54773700e+02 7.81860800e-03 8.72871100e-02
        2 -1    0    0  501    0 +0.0000000000e+00 +0.0000000000e+00 +6.3610563352e+02 6.3610563352e+02 0.0000000000e+00 0.0000e+00 1.0000e+00
       -2 -1    0    0    0  501 -0.0000000000e+00 -0.0000000000e+00 -3.5827101057e+02 3.5827101057e+02 0.0000000000e+00 0.0000e+00 -1.0000e+00
      -13  1    1    2    0    0 +1.6888209250e+02 +5.8639775676e+01 -3.2209260684e+02 3.6837946718e+02 0.0000000000e+00 0.0000e+00 -1.0000e+00
       13  1    1    2    0    0 -1.6888209250e+02 -5.8639775676e+01 +5.9992722979e+02 6.2599717691e+02 0.0000000000e+00 0.0000e+00 1.0000e+00
<mgrwt>
<rscale>  0 0.95477371E+03</rscale>
<asrwt>0</asrwt>
<pdfrwt beam="1">  1        2 0.97862405E-01 0.95477371E+03</pdfrwt>
<pdfrwt beam="2">  1       -2 0.55118617E-01 0.95477371E+03</pdfrwt>
<totfact> 0.17576434E+02</totfact>
</mgrwt>
<rwgt>
<wgt id='morphing_basis_vector_1'> +1.9655573e-04 </wgt>
<wgt id='morphing_basis_vector_2'> +1.2204216e-04 </wgt>
<wgt id='morphing_basis_vector_3'> +1.8679241e-04 </wgt>
<wgt id='morphing_basis_vector_4'> +1.1220035e-04 </wgt>
<wgt id='morphing_basis_vector_5'> +1.7731654e-04 </wgt>
</rwgt>
</event>
<event>
 4      1 +1.4786900e-06 1.00822300e+03 7.81860800e-03 8.67663900e-02
        2 -1    0    0  501    0 +0.0000000000e+00 +0.0000000000e+00 +2.1372102161e+03 2.1372102161e+03 0.0000000000e+00 0.0000e+00 -1.0000e+00
       -2 -1    0    0    0  501 -0.0000000000e+00 -0.0000000000e+00 -1.1890658642e+02 1.1890658642e+02 0.0000000000e+00 0.0000e+00 1.0000e+00
      -13  1    1    2    0    0 +3.3784290784e+02 -3.4915456319e+02 +7.0825068427e+02 8.5887471213e+02 0.0000000000e+00 0.0000e+00 1.0000e+00
       13  1    1    2    0    0 -3.3784290784e+02 +3.4915456319e+02 +1.3100529454e+03 1.3972420904e+03 0.0000000000e+00 0.0000e+00 -1.0000e+00
<mgrwt>
<rscale>  0 0.10082229E+04</rscale>
<asrwt>0</asrwt>
<pdfrwt beam="1">  1        2 0.32880154E+00 0.10082229E+04</pdfrwt>
<pdfrwt beam="2">  1       -2 0.18293323E-01 0.10082229E+04</pdfrwt>
<totfact> 0.16146274E+02</totfact>
</mgrwt>
<rwgt>
<wgt id='morphing_basis_vector_1'> +2.4330075e-04 </wgt>
<wgt id='morphing_basis_vector_2'> +1.5966876e-04 </wgt>
<wgt id='morphing_basis_vector_3'> +2.3451339e-04 </wgt>
<wgt id='morphing_basis_vector_4'> +1.3728447e-04 </wgt>
<wgt id='morphing_basis_vector_5'> +2.2454030e-04 </wgt>
</rwgt>
</event>
<event>
 4      1 +1.4786900e-06 1.02696600e+03 7.81860800e-03 8.65916800e-02
        2 -1    0    0  501    0 +0.0000000000e+00 +0.0000000000e+00 +1.1921979571e+02 1.1921979571e+02 0.0000000000e+00 0.0000e+00 1.0000e+00
       -2 -1    0    0    0  501 -0.0000000000e+00 -0.0000000000e+00 -2.2115875723e+03 2.2115875723e+03 0.0000000000e+00 0.0000e+00 -1.0000e+00
      -13  1    1    2    0    0 +4.3983952622e+02 +4.2375751633e+01 -1.6398079949e+03 1.6983005545e+03 0.0000000000e+00 0.0000e+00 1.0000e+00
       13  1    1    2    0    0 -4.3983952622e+02 -4.2375751633e+01 -4.5255978163e+02 6.3250681348e+02 0.0000000000e+00 0.0000e+00 -1.0000e+00
<mgrwt>
<rscale>  0 0.10269664E+04</rscale>
<asrwt>0</asrwt>
<pdfrwt beam="1">  1        2 0.18341507E-01 0.10269664E+04</pdfrwt>
<pdfrwt beam="2">  1       -2 0.34024424E+00 0.10269664E+04</pdfrwt>
<totfact> 0.50825883E+00</totfact>
</mgrwt>
<rwgt>
<wgt id='morphing_basis_vector_1'> +2.5825349e-04 </wgt>
<wgt id='morphing_basis_vector_2'> +1.6461792e-04 </wgt>
<wgt id='morphing_basis_vector_3'> +2.5015062e-04 </wgt>
<wgt id='morphing_basis_vector_4'> +1.5211899e-04 </wgt>
<wgt id='morphing_basis_vector_5'> +2.4339471e-04 </wgt>
</rwgt>
</event>
<event>
 4      1 +1.4786900e-06 1.06514500e+03 7.81860800e-03 8.62474800e-02
        2 -1    0    0  501    0 +0.0000000000e+00 +0.0000000000e+00 +2.1245255097e+02 2.1245255097e+02 0.0000000000e+00 0.0000e+00 -1.0000e+00
       -2 -1    0    0    0  501 -0.0000000000e+00 -0.0000000000e+00 -1.3350444169e+03 1.3350444169e+03 0.0000000000e+00 0.0000e+00 1.0000e+00
      -13  1    1    2    0    0 +4.5646399617e+02 +3.2441403810e+01 -9.5710580768e+02 1.0608785753e+03 0.0000000000e+00 0.0000e+00 1.0000e+00
       13  1    1    2    0    0 -4.5646399617e+02 -3.2441403810e+01 -1.6548605823e+02 4.8661839253e+02 0.0000000000e+00 0.0000e+00 -1.0000e+00
<mgrwt>
<rscale>  0 0.10651452E+04</rscale>
<asrwt>0</asrwt>
<pdfrwt beam="1">  1        2 0.32685007E-01 0.10651452E+04</pdfrwt>
<pdfrwt beam="2">  1       -2 0.20539145E+00 0.10651452E+04</pdfrwt>
<totfact> 0.21359700E+01</totfact>
</mgrwt>
<rwgt>
<wgt id='morphing_basis_vector_1'> +2.9579547e-04 </wgt>
<wgt id='morphing_basis_vector_2'> +1.8944894e-04 </wgt>
<wgt id='morphing_basis_vector_3'> +2.8907174e-04 </wgt>
<wgt id='morphing_basis_vector_4'> +1.7791939e-04 </wgt>
<wgt id='morphing_basis_vector_5'> +2.8487819e-04 </wgt>
</rwgt>
</event>
<event>
 4      1 +1.4786900e-06 1.04969600e+03 7.81860800e-03 8.63849400e-02
        2 -1    0    0  501    0 +0.0000000000e+00 +0.0000000000e+00 +1.0666753747e+03 1.0666753747e+03 0.0000000000e+00 0.0000e+00 1.0000e+00
       -2 -1    0    0    0  501 -0.0000000000e+00 -0.0000000000e+00 -2.5824668238e+02 2.5824668238e+02 0.0000000000e+00 0.0000e+00 -1.0000e+00
      -13  1    1    2    0    0 -1.7899481950e+02 -2.6361787582e+02 -1.2218625760e+02 3.4126677454e+02 0.0000000000e+00 0.0000e+00 -1.0000e+00
       13  1    1    2    0    0 +1.7899481950e+02 +2.6361787582e+02 +9.3061494989e+02 9.8365528252e+02 0.0000000000e+00 0.0000e+00 1.0000e+00
<mgrwt>
<rscale>  0 0.10496959E+04</rscale>
<asrwt>0</asrwt>
<pdfrwt beam="1">  1        2 0.16410390E+00 0.10496959E+04</pdfrwt>
<pdfrwt beam="2">  1       -2 0.39730259E-01 0.10496959E+04</pdfrwt>
<totfact> 0.16665055E+02</totfact>
</mgrwt>
<rwgt>
<wgt id='morphing_basis_vector_1'> +2.7912619e-04 </wgt>
<wgt id='morphing_basis_vector_2'> +1.7604382e-04 </wgt>
<wgt id='morphing_basis_vector_3'> +2.7181545e-04 </wgt>
<wgt id='morphing_basis_vector_4'> +1.6872320e-04 </wgt>
<wgt id='morphing_basis_vector_5'> +2.6761446e-04 </wgt>
</rwgt>
</event>
<event>
 4      1 +1.4786900e-06 9.40138000e+02 7.81860800e-03 8.74359200e-02
        2 -1    0    0  501    0 +0.0000000000e+00 +0.0000000000e+00 +9.5884504077e+02 9.5884504077e+02 0.0000000000e+00 0.0000e+00 -1.0000e+00
       -2 -1    0    0    0  501 -0.0000000000e+00 -0.0000000000e+00 -2.3044899079e+02 2.3044899079e+02 0.0000000000e+00 0.0000e+00 1.0000e+00
      -13  1    1    2    0    0 -1.1443422701e+02 -1.9504065572e+02 -1.5712069974e+02 2.7535969927e+02 0.0000000000e+00 0.0000e+00 1.0000e+00
       13  1    1    2    0    0 +1.1443422701e+02 +1.9504065572e+02 +8.8551674973e+02 9.1393433229e+02 0.0000000000e+00 0.0000e+00 -1.0000e+00
<mgrwt>
<rscale>  0 0.94013802E+03</rscale>
<asrwt>0</asrwt>
<pdfrwt beam="1">  1        2 0.14751462E+00 0.94013802E+03</pdfrwt>
<pdfrwt beam="2">  1       -2 0.35453692E-01 0.94013802E+03</pdfrwt>
<totfact> 0.24133290E+02</totfact>
</mgrwt>
<rwgt>
<wgt id='morphing_basis_vector_1'> +1.8576295e-04 </wgt>
<wgt id='morphing_basis_vector_2'> +1.1511219e-04 </wgt>
<wgt id='morphing_basis_vector_3'> +1.7576899e-04 </wgt>
<wgt id='morphing_basis_vector_4'> +1.0487020e-04 </wgt>
<wgt id='morphing_basis_vector_5'> +1.6569789e-04 </wgt>
</rwgt>
</event>
<event>
 4      1 +1.4786900e-06 9.54344400e+02 7.81860800e-03 8.72914400e-02
        2 -1    0    0  501    0 +0.0000000000e+00 +0.0000000000e+00 +1.2708717373e+03 1.2708717373e+03 0.0000000000e+00 0.0000e+00 -1.0000e+00
       -2 -1    0    0    0  501 -0.0000000000e+00 -0.0000000000e+00 -1.7916310377e+02 1.7916310377e+02 0.0000000000e+00 0.0000e+00 1.0000e+00
      -13  1    1    2    0    0 +4.6211350998e+02 -1.1827126114e+02 +5.6485219317e+02 7.3932062560e+02 0.0000000000e+00 0.0000e+00 1.0000e+00
       13  1    1    2    0    0 -4.6211350998e+02 +1.1827126114e+02 +5.2685644037e+02 7.1071421547e+02 0.0000000000e+00 0.0000e+00 -1.0000e+00
<mgrwt>
<rscale>  0 0.95434443E+03</rscale>
<asrwt>0</asrwt>
<pdfrwt beam="1">  1        2 0.19551872E+00 0.95434443E+03</pdfrwt>
<pdfrwt beam="2">  1       -2 0.27563555E-01 0.95434443E+03</pdfrwt>
<totfact> 0.24560494E+02</totfact>
</mgrwt>
<rwgt>
<wgt id='morphing_basis_vector_1'> +2.0390679e-04 </wgt>
<wgt id='morphing_basis_vector_2'> +1.4512511e-04 </wgt>
<wgt id='morphing_basis_vector_3'> +1.9312372e-04 </wgt>
<wgt id='morphing_basis_vector_4'> +1.0052545e-04 </wgt>
<wgt id='morphing_basis_vector_5'> +1.7631692e-04 </wgt>
</rwgt>
</event>
<event>
 4      1 +1.4786900e-06 9.43332200e+02 7.81860800e-03 8.74032000e-02
        2 -1    0    0  501    0 +0.0000000000e+00 +0.0000000000e+00 +1.9302843437e+03 1.9302843437e+03 0.0000000000e+00 0.0000e+00 1.0000e+00
       -2 -1    0    0    0  501 -0.0000000000e+00 -0.0000000000e+00 -1.1525188732e+02 1.1525188732e+02 0.0000000000e+00 0.0000e+00 -1.0000e+00
      -13  1    1    2    0    0 -1.5753350275e+02 +4.0766650448e+02 +5.2290427967e+02 6.8149663907e+02 0.0000000000e+00 0.0000e+00 -1.0000e+00
       13  1    1    2    0    0 +1.5753350275e+02 -4.0766650448e+02 +1.2921281767e+03 1.3640395919e+03 0.0000000000e+00 0.0000e+00 1.0000e+00
<mgrwt>
<rscale>  0 0.94333221E+03</rscale>
<asrwt>0</asrwt>
<pdfrwt beam="1">  1        2 0.29696680E+00 0.94333221E+03</pdfrwt>
<pdfrwt beam="2">  1       -2 0.17731061E-01 0.94333221E+03</pdfrwt>
<totfact> 0.22294416E+02</totfact>
</mgrwt>
<rwgt>
<wgt id='morphing_basis_vector_1'> +1.8954380e-04 </wgt>
<wgt id='morphing_basis_vector_2'> +1.2104815e-04 </wgt>
<wgt id='morphing_basis_vector_3'> +1.7938045e-04 </wgt>
<wgt id='morphing_basis_vector_4'> +1.0427156e-04 </wgt>
<wgt id='morphing_basis_vector_5'> +1.6806336e-04 </wgt>
</rwgt>
</event>
<event>
 4      1 +1.4786900e-06 1.02003000e+03 7.81860800e-03 8.66558800e-02
        2 -1    0    0  501    0 +0.0000000000e+00 +0.0000000000e+00 +9.2281617814e+02 9.2281617814e+02 0.0000000000e+00 0.0000e+00 1.0000e+00
       -2 -1    0    0    0  501 -0.0000000000e+00 -0.0000000000e+00 -2.8187125747e+02 2.8187125747e+02 0.0000000000e+00 0.0000e+00 -1.0000e+00
      -13  1    1    2    0    0 +5.0130698138e+02 -9.3761442382e+01 +3.2511601467e+02 6.0481428608e+02 0.0000000000e+00 0.0000e+00 -1.0000e+00
       13  1    1    2    0    0 -5.0130698138e+02 +9.3761442382e+01 +3.1582890600e+02 5.9987314952e+02 0.0000000000e+00 0.0000e+00 1.0000e+00
<mgrwt>
<rscale>  0 0.10200301E+04</rscale>
<asrwt>0</asrwt>
<pdfrwt beam="1">  1        2 0.14197172E+00 0.10200301E+04</pdfrwt>
<pdfrwt beam="2">  1       -2 0.43364809E-01 0.10200301E+04</pdfrwt>
<totfact> 0.17419577E+02</totfact>
</mgrwt>
<rwgt>
<wgt id='morphing_basis_vector_1'> +2.6003520e-04 </wgt>
<wgt id='morphing_basis_vector_2'> +1.8515990e-04 </wgt>
<wgt id='morphing_basis_vector_3'> +2.5134287e-04 </wgt>
<wgt id='morphing_basis_vector_4'> +1.3492387e-04 </wgt>
<wgt id='morphing_basis_vector_5'> +2.3558439e-04 </wgt>
</rwgt>
</event>
<event>
 4      1 +1.4786900e-06 9.02565100e+02 7.81860800e-03 8.78312900e-02
        2 -1    0    0  501    0 +0.0000000000e+00 +0.0000000000e+00 +2.1436139669e+02 2.1436139669e+02 0.0000000000e+00 0.0000e+00 -1.0000e+00
       -2 -1    0    0    0  501 -0.0000000000e+00 -0.0000000000e+00 -9.5005891269e+02 9.5005891269e+02 0.0000000000e+00 0.0000e+00 1.0000e+00
      -13  1    1    2    0    0 +4.2464826084e+02 -1.4770353266e+02 -3.1765854322e+02 5.5049925438e+02 0.0000000000e+00 0.0000e+00 1.0000e+00
       13  1    1    2    0    0 -4.2464826084e+02 +1.4770353266e+02 -4.1803897279e+02 6.1392105500e+02 0.0000000000e+00 0.0000e+00 -1.0000e+00
<mgrwt>
<rscale>  0 0.90256513E+03</rscale>
<asrwt>0</asrwt>
<pdfrwt beam="1">  1        2 0.32978677E-01 0.90256513E+03</pdfrwt>
<pdfrwt beam="2">  1       -2 0.14616291E+00 0.90256513E+03</pdfrwt>
<totfact> 0.61243316E+01</totfact>
</mgrwt>
<rwgt>
<wgt id='morphing_basis_vector_1'> +1.6779499e-04 </wgt>
<wgt id='morphing_basis_vector_2'> +1.2197557e-04 </wgt>
<wgt id='morphing_basis_vector_3'> +1.5575428e-04 </wgt>
<wgt id='morphing_basis_vector_4'> +7.6758494e-05 </wgt>
<wgt id='morphing_basis_vector_5'> +1.3783258e-04 </wgt>
</rwgt>
</event>
<event>
 4      1 +1.4786900e-06 9.04183600e+02 7.81860800e-03 8.78138500e-02
        2 -1    0    0  501    0 +0.0000000000e+00 +0.0000000000e+00 +5.8262004594e+02 5.8262004594e+02 0.0000000000e+00 0.0000e+00 -1.0000e+00
       -2 -1    0    0    0  501 -0.0000000000e+00 -0.0000000000e+00 -3.5080667190e+02 3.5080667190e+02 0.0000000000e+00 0.0000e+00 1.0000e+00
      -13  1    1    2    0    0 +2.8453148594e+01 +1.9582193872e+02 -3.0372628824e+02 3.6249892623e+02 0.0000000000e+00 0.0000e+00 1.0000e+00
       13  1    1    2    0    0 -2.8453148594e+01 -1.9582193872e+02 +5.3553966228e+02 5.7092779161e+02 0.0000000000e+00 0.0000e+00 -1.0000e+00
<mgrwt>
<rscale>  0 0.90418361E+03</rscale>
<asrwt>0</asrwt>
<pdfrwt beam="1">  1        2 0.89633853E-01 0.90418361E+03</pdfrwt>
<pdfrwt beam="2">  1       -2 0.53970257E-01 0.90418361E+03</pdfrwt>
<totfact> 0.20401470E+02</totfact>
</mgrwt>
<rwgt>
<wgt id='morphing_basis_vector_1'> +1.6113445e-04 </wgt>
<wgt id='morphing_basis_vector_2'> +9.9197012e-05 </wgt>
<wgt id='morphing_basis_vector_3'> +1.5073254e-04 </wgt>
<wgt id='morphing_basis_vector_4'> +8.8437222e-05 </wgt>
<wgt id='morphing_basis_vector_5'> +1.3951789e-04 </wgt>
</rwgt>
</event>
<event>
 4      1 +1.4786900e-06 1.01817700e+03 7.81860800e-03 8.66731200e-02
        2 -1    0    0  501    0 +0.0000000000e+00 +0.0000000000e+00 +1.9728198047e+03 1.9728198047e+03 0.0000000000e+00 0.0000e+00 -1.0000e+00
       -2 -1    0    0    0  501 -0.0000000000e+00 -0.0000000000e+00 -1.3137099564e+02 1.3137099564e+02 0.0000000000e+00 0.0000e+00 1.0000e+00
      -13  1    1    2    0    0 +1.5135697109e+02 +4.8004436598e+02 +7.6306684509e+02 9.1412391725e+02 0.0000000000e+00 0.0000e+00 1.0000e+00
       13  1    1    2    0    0 -1.5135697109e+02 -4.8004436598e+02 +1.0783819639e+03 1.1900668830e+03 0.0000000000e+00 0.0000e+00 -1.0000e+00
<mgrwt>
<rscale>  0 0.10181774E+04</rscale>
<asrwt>0</asrwt>
<pdfrwt beam="1">  1        2 0.30351072E+00 0.10181774E+04</pdfrwt>
<pdfrwt beam="2">  1       -2 0.20210924E-01 0.10181774E+04</pdfrwt>
<totfact> 0.16885971E+02</totfact>
</mgrwt>
<rwgt>
<wgt id='morphing_basis_vector_1'> +2.5422054e-04 </wgt>
<wgt id='morphing_basis_vector_2'> +1.7156873e-04 </wgt>
<wgt id='morphing_basis_vector_3'> +2.4565142e-04 </wgt>
<wgt id='morphing_basis_vector_4'> +1.4023641e-04 </wgt>
<wgt id='morphing_basis_vector_5'> +2.3412411e-04 </wgt>
</rwgt>
</event>
<event>
 4      1 +1.4786900e-06 9.34249700e+02 7.81860800e-03 8.74965900e-02
        2 -1    0    0  501    0 +0.0000000000e+00 +0.0000000000e+00 +4.2513149592e+02 4.2513149592e+02 0.0000000000e+00 0.0000e+00 -1.0000e+00
       -2 -1    0    0    0  501 -0.0000000000e+00 -0.0000000000e+00 -5.1326618991e+02 5.1326618991e+02 0.0000000000e+00 0.0000e+00 1.0000e+00
      -13  1    1    2    0    0 -8.0108303373e+01 -4.1383894493e+02 -2.4627088322e+02 4.8818988164e+02 0.0000000000e+00 0.0000e+00 1.0000e+00
       13  1    1    2    0    0 +8.0108303373e+01 +4.1383894493e+02 +1.5813618923e+02 4.5020780419e+02 0.0000000000e+00 0.0000e+00 -1.0000e+00
<mgrwt>
<rscale>  0 0.93424969E+03</rscale>
<asrwt>0</asrwt>
<pdfrwt beam="1">  1        2 0.65404845E-01 0.93424969E+03</pdfrwt>
<pdfrwt beam="2">  1       -2 0.78964029E-01 0.93424969E+03</pdfrwt>
<totfact> 0.13117333E+02</totfact>
</mgrwt>
<rwgt>
<wgt id='morphing_basis_vector_1'> +1.8262611e-04 </wgt>
<wgt id='morphing_basis_vector_2'> +1.1567291e-04 </wgt>
<wgt id='morphing_basis_vector_3'> +1.7237619e-04 </wgt>
<wgt id='morphing_basis_vector_4'> +1.0044673e-04 </wgt>
<wgt id='morphing_basis_vector_5'> +1.6109623e-04 </wgt>
</rwgt>
</event>
<event>
 4      1 +1.4786900e-06 9.71685600e+02 7.81860800e-03 8.71185900e-02
        2 -1    0    0  501    0 +0.0000000000e+00 +0.0000000000e+00 +7.9455394334e+02 7.9455394334e+02 0.0000000000e+00 0.0000e+00 1.0000e+00
       -2 -1    0    0    0  501 -0.0000000000e+00 -0.0000000000e+00 -2.9707637149e+02 2.9707637149e+02 0.0000000000e+00 0.0000e+00 -1.0000e+00
      -13  1    1    2    0    0 +2.4426718955e+02 -3.9899144962e+02 +3.9600185566e+02 6.1292585722e+02 0.0000000000e+00 0.0000e+00 1.0000e+00
       13  1    1    2    0    0 -2.4426718955e+02 +3.9899144962e+02 +1.0147571619e+02 4.7870445761e+02 0.0000000000e+00 0.0000e+00 -1.0000e+00
<mgrwt>
<rscale>  0 0.97168555E+03</rscale>
<asrwt>0</asrwt>
<pdfrwt beam="1">  1        2 0.12223907E+00 0.97168555E+03</pdfrwt>
<pdfrwt beam="2">  1       -2 0.45704057E-01 0.97168555E+03</pdfrwt>
<totfact> 0.19268395E+02</totfact>
</mgrwt>
<rwgt>
<wgt id='morphing_basis_vector_1'> +2.2853986e-04 </wgt>
<wgt id='morphing_basis_vector_2'> +1.8780192e-04 </wgt>
<wgt id='morphing_basis_vector_3'> +2.1705076e-04 </wgt>
<wgt id='morphing_basis_vector_4'> +9.2508555e-05 </wgt>
<wgt id='morphing_basis_vector_5'> +1.8981120e-04 </wgt>
</rwgt>
</event>
<event>
 4      1 +1.4786900e-06 9.26843800e+02 7.81860800e-03 8.75735700e-02
        2 -1    0    0  501    0 +0.0000000000e+00 +0.0000000000e+00 +2.1188039279e+03 2.1188039279e+03 0.0000000000e+00 0.0000e+00 -1.0000e+00
       -2 -1    0    0    0  501 -0.0000000000e+00 -0.0000000000e+00 -1.0135899578e+02 1.0135899578e+02 0.0000000000e+00 0.0000e+00 1.0000e+00
      -13  1    1    2    0    0 -1.3085919145e+02 +3.8791165801e+02 +4.8852720349e+02 6.3738403726e+02 0.0000000000e+00 0.0000e+00 1.0000e+00
       13  1    1    2    0    0 +1.3085919145e+02 -3.8791165801e+02 +1.5289177287e+03 1.5827788865e+03 0.0000000000e+00 0.0000e+00 -1.0000e+00
<mgrwt>
<rscale>  0 0.92684376E+03</rscale>
<asrwt>0</asrwt>
<pdfrwt beam="1">  1        2 0.32596980E+00 0.92684376E+03</pdfrwt>
<pdfrwt beam="2">  1       -2 0.15593693E-01 0.92684376E+03</pdfrwt>
<totfact> 0.21634624E+02</totfact>
</mgrwt>
<rwgt>
<wgt id='morphing_basis_vector_1'> +1.7721045e-04 </wgt>
<wgt id='morphing_basis_vector_2'> +1.1166182e-04 </wgt>
<wgt id='morphing_basis_vector_3'> +1.6689122e-04 </wgt>
<wgt id='morphing_basis_vector_4'> +9.7284710e-05 </wgt>
<wgt id='morphing_basis_vector_5'> +1.5556569e-04 </wgt>
</rwgt>
</event>
<event>
 4      1 +1.4786900e-06 9.35637900e+02 7.81860800e-03 8.74822500e-02
        2 -1    0    0  501    0 +0.0000000000e+00 +0.0000000000e+00 +5.8433134062e+02 5.8433134062e+02 0.0000000000e+00 0.0000e+00 -1.0000e+00
       -2 -1    0    0    0  501 -0.0000000000e+00 -0.0000000000e+00 -3.7453843954e+02 3.7453843954e+02 0.0000000000e+00 0.0000e+00 1.0000e+00
      -13  1    1    2    0    0 -3.8156549011e+02 -1.6086064679e+02 -1.1819230770e+02 4.3062488610e+02 0.0000000000e+00 0.0000e+00 1.0000e+00
       13  1    1    2    0    0 +3.8156549011e+02 +1.6086064679e+02 +3.2798520878e+02 5.2824489407e+02 0.0000000000e+00 0.0000e+00 -1.0000e+00
<mgrwt>
<rscale>  0 0.93563785E+03</rscale>
<asrwt>0</asrwt>
<pdfrwt beam="1">  1        2 0.89897129E-01 0.93563785E+03</pdfrwt>
<pdfrwt beam="2">  1       -2 0.57621299E-01 0.93563785E+03</pdfrwt>
<totfact> 0.17789015E+02</totfact>
</mgrwt>
<rwgt>
<wgt id='morphing_basis_vector_1'> +1.8344560e-04 </wgt>
<wgt id='morphing_basis_vector_2'> +1.1579950e-04 </wgt>
<wgt id='morphing_basis_vector_3'> +1.7324341e-04 </wgt>
<wgt id='morphing_basis_vector_4'> +1.0135553e-04 </wgt>
<wgt id='morphing_basis_vector_5'> +1.6216563e-04 </wgt>
</rwgt>
</event>
<event>
 4      1 +1.4786900e-06 1.00182300e+03 7.81860800e-03 8.68269500e-02
        2 -1    0    0  501    0 +0.0000000000e+00 +0.0000000000e+00 +2.1423681392e+03 2.1423681392e+03 0.0000000000e+00 0.0000e+00 1.0000e+00
       -2 -1    0    0    0  501 -0.0000000000e+00 -0.0000000000e+00 -1.1711926403e+02 1.1711926403e+02 0.0000000000e+00 0.0000e+00 -1.0000e+00
      -13  1    1    2    0    0 -4.2788196580e+02 +2.6013544259e+02 +1.0410774537e+03 1.1552470254e+03 0.0000000000e+00 0.0000e+00 -1.0000e+00
       13  1    1    2    0    0 +4.2788196580e+02 -2.6013544259e+02 +9.8417142146e+02 1.1042403778e+03 0.0000000000e+00 0.0000e+00 1.0000e+00
<mgrwt>
<rscale>  0 0.10018235E+04</rscale>
<asrwt>0</asrwt>
<pdfrwt beam="1">  1        2 0.32959507E+00 0.10018235E+04</pdfrwt>
<pdfrwt beam="2">  1       -2 0.18018350E-01 0.10018235E+04</pdfrwt>
<totfact> 0.16454332E+02</totfact>
</mgrwt>
<rwgt>
<wgt id='morphing_basis_vector_1'> +2.4381580e-04 </wgt>
<wgt id='morphing_basis_vector_2'> +1.7452189e-04 </wgt>
<wgt id='morphing_basis_vector_3'> +2.3441992e-04 </wgt>
<wgt id='morphing_basis_vector_4'> +1.2401307e-04 </wgt>
<wgt id='morphing_basis_vector_5'> +2.1785215e-04 </wgt>
</rwgt>
</event>
<event>
 4      1 +1.4786900e-06 1.04680800e+03 7.81860800e-03 8.64109000e-02
        2 -1    0    0  501    0 +0.0000000000e+00 +0.0000000000e+00 +1.3427690653e+03 1.3427690653e+03 0.0000000000e+00 0.0000e+00 -1.0000e+00
       -2 -1    0    0    0  501 -0.0000000000e+00 -0.0000000000e+00 -2.0402018497e+02 2.0402018497e+02 0.0000000000e+00 0.0000e+00 1.0000e+00
      -13  1    1    2    0    0 -5.0676455777e+01 +2.1805470536e+02 -1.2970884720e+02 2.5872831840e+02 0.0000000000e+00 0.0000e+00 1.0000e+00
       13  1    1    2    0    0 +5.0676455777e+01 -2.1805470536e+02 +1.2684577275e+03 1.2880609319e+03 0.0000000000e+00 0.0000e+00 -1.0000e+00
<mgrwt>
<rscale>  0 0.10468085E+04</rscale>
<asrwt>0</asrwt>
<pdfrwt beam="1">  1        2 0.20657985E+00 0.10468085E+04</pdfrwt>
<pdfrwt beam="2">  1       -2 0.31387722E-01 0.10468085E+04</pdfrwt>
<totfact> 0.17664523E+02</totfact>
</mgrwt>
<rwgt>
<wgt id='morphing_basis_vector_1'> +2.7616457e-04 </wgt>
<wgt id='morphing_basis_vector_2'> +1.7383378e-04 </wgt>
<wgt id='morphing_basis_vector_3'> +2.6875298e-04 </wgt>
<wgt id='morphing_basis_vector_4'> +1.6692591e-04 </wgt>
<wgt id='morphing_basis_vector_5'> +2.6446747e-04 </wgt>
</rwgt>
</event>
<event>
 4      1 +1.4786900e-06 9.30812000e+02 7.81860800e-03 8.75322300e-02
        2 -1    0    0  501    0 +0.0000000000e+00 +0.0000000000e+00 +2.0323297007e+03 2.0323297007e+03 0.0000000000e+00 0.0000e+00 1.0000e+00
       -2 -1    0    0    0  501 -0.0000000000e+00 -0.0000000000e+00 -1.0657853613e+02 1.0657853613e+02 0.0000000000e+00 0.0000e+00 -1.0000e+00
      -13  1    1    2    0    0 +3.2632979806e+02 +3.3182394918e+02 +9.5802594664e+02 1.0650877827e+03 0.0000000000e+00 0.0000e+00 -1.0000e+00
       13  1    1    2    0    0 -3.2632979806e+02 -3.3182394918e+02 +9.6772521789e+02 1.0738204541e+03 0.0000000000e+00 0.0000e+00 1.0000e+00
<mgrwt>
<rscale>  0 0.93081196E+03</rscale>
<asrwt>0</asrwt>
<pdfrwt beam="1">  1        2 0.31266608E+00 0.93081196E+03</pdfrwt>
<pdfrwt beam="2">  1       -2 0.16396699E-01 0.93081196E+03</pdfrwt>
<totfact> 0.22272253E+02</totfact>
</mgrwt>
<rwgt>
<wgt id='morphing_basis_vector_1'> +1.8535544e-04 </wgt>
<wgt id='morphing_basis_vector_2'> +1.2977769e-04 </wgt>
<wgt id='morphing_basis_vector_3'> +1.7419622e-04 </wgt>
<wgt id='morphing_basis_vector_4'> +9.1274813e-05 </wgt>
<wgt id='morphing_basis_vector_5'> +1.5808698e-04 </wgt>
</rwgt>
</event>
<event>
 4      1 +1.4786900e-06 9.37444500e+02 7.81860800e-03 8.74636200e-02
        2 -1    0    0  501    0 +0.0000000000e+00 +0.0000000000e+00 +3.6811411092e+02 3.6811411092e+02 0.0000000000e+00 0.0000e+00 1.0000e+00
       -2 -1    0    0    0  501 -0.0000000000e+00 -0.0000000000e+00 -5.9682731670e+02 5.9682731670e+02 0.0000000000e+00 0.0000e+00 -1.0000e+00
      -13  1    1    2    0    0 -3.3543965321e+02 -1.2154129644e+02 -4.2726077939e+02 5.5663616599e+02 0.0000000000e+00 0.0000e+00 -1.0000e+00
       13  1    1    2    0    0 +3.3543965321e+02 +1.2154129644e+02 +1.9854757360e+02 4.0830526162e+02 0.0000000000e+00 0.0000e+00 1.0000e+00
<mgrwt>
<rscale>  0 0.93744452E+03</rscale>
<asrwt>0</asrwt>
<pdfrwt beam="1">  1        2 0.56632940E-01 0.93744452E+03</pdfrwt>
<pdfrwt beam="2">  1       -2 0.91819587E-01 0.93744452E+03</pdfrwt>
<totfact> 0.10906613E+02</totfact>
</mgrwt>
<rwgt>
<wgt id='morphing_basis_vector_1'> +1.8412036e-04 </wgt>
<wgt id='morphing_basis_vector_2'> +1.1475956e-04 </wgt>
<wgt id='morphing_basis_vector_3'> +1.7404203e-04 </wgt>
<wgt id='morphing_basis_vector_4'> +1.0312969e-04 </wgt>
<wgt id='morphing_basis_vector_5'> +1.6359767e-04 </wgt>
</rwgt>
</event>
<event>
 4      1 +1.4786900e-06 1.06049800e+03 7.81860800e-03 8.62885700e-02
        2 -1    0    0  501    0 +0.0000000000e+00 +0.0000000000e+00 +1.6465979671e+03 1.6465979671e+03 0.0000000000e+00 0.0000e+00 -1.0000e+00
       -2 -1    0    0    0  501 -0.0000000000e+00 -0.0000000000e+00 -1.7075452675e+02 1.7075452675e+02 0.0000000000e+00 0.0000e+00 1.0000e+00
      -13  1    1    2    0    0 -5.1796465776e+02 -1.0565720388e+02 +6.6699065184e+02 8.5107423945e+02 0.0000000000e+00 0.0000e+00 1.0000e+00
       13  1    1    2    0    0 +5.1796465776e+02 +1.0565720388e+02 +8.0885278850e+02 9.6627825438e+02 0.0000000000e+00 0.0000e+00 -1.0000e+00
<mgrwt>
<rscale>  0 0.10604981E+04</rscale>
<asrwt>0</asrwt>
<pdfrwt beam="1">  1        2 0.25332275E+00 0.10604981E+04</pdfrwt>
<pdfrwt beam="2">  1       -2 0.26269928E-01 0.10604981E+04</pdfrwt>
<totfact> 0.16329628E+02</totfact>
</mgrwt>
<rwgt>
<wgt id='morphing_basis_vector_1'> +2.9763114e-04 </wgt>
<wgt id='morphing_basis_vector_2'> +2.0626318e-04 </wgt>
<wgt id='morphing_basis_vector_3'> +2.9072804e-04 </wgt>
<wgt id='morphing_basis_vector_4'> +1.6399806e-04 </wgt>
<wgt id='morphing_basis_vector_5'> +2.7890591e-04 </wgt>
</rwgt>
</event>
<event>
 4      1 +1.4786900e-06 1.02257600e+03 7.81860800e-03 8.66322600e-02
        2 -1    0    0  501    0 +0.0000000000e+00 +0.0000000000e+00 +1.0604092426e+03 1.0604092426e+03 0.0000000000e+00 0.0000e+00 -1.0000e+00
       -2 -1    0    0    0  501 -0.0000000000e+00 -0.0000000000e+00 -2.4652334066e+02 2.4652334066e+02 0.0000000000e+00 0.0000e+00 1.0000e+00
      -13  1    1    2    0    0 -4.6143376100e+02 +1.6947925775e+02 +2.2723182448e+02 5.4155206274e+02 0.0000000000e+00 0.0000e+00 1.0000e+00
       13  1    1    2    0    0 +4.6143376100e+02 -1.6947925775e+02 +5.8665407749e+02 7.6538052055e+02 0.0000000000e+00 0.0000e+00 -1.0000e+00
<mgrwt>
<rscale>  0 0.10225764E+04</rscale>
<asrwt>0</asrwt>
<pdfrwt beam="1">  1        2 0.16313988E+00 0.10225764E+04</pdfrwt>
<pdfrwt beam="2">  1       -2 0.37926668E-01 0.10225764E+04</pdfrwt>
<totfact> 0.18356774E+02</totfact>
</mgrwt>
<rwgt>
<wgt id='morphing_basis_vector_1'> +2.5627063e-04 </wgt>
<wgt id='morphing_basis_vector_2'> +1.6824219e-04 </wgt>
<wgt id='morphing_basis_vector_3'> +2.4794119e-04 </wgt>
<wgt id='morphing_basis_vector_4'> +1.4606744e-04 </wgt>
<wgt id='morphing_basis_vector_5'> +2.3872729e-04 </wgt>
</rwgt>
</event>
<event>
 4      1 +1.4786900e-06 9.44919700e+02 7.81860800e-03 8.73869900e-02
        2 -1    0    0  501    0 +0.0000000000e+00 +0.0000000000e+00 +2.9096646681e+03 2.9096646681e+03 0.0000000000e+00 0.0000e+00 1.0000e+00
       -2 -1    0    0    0  501 -0.0000000000e+00 -0.0000000000e+00 -7.6716157132e+01 7.6716157132e+01 0.0000000000e+00 0.0000e+00 -1.0000e+00
      -13  1    1    2    0    0 -2.8035500603e+02 -2.9122327447e+02 +2.1893884344e+03 2.2263943141e+03 0.0000000000e+00 0.0000e+00 1.0000e+00
       13  1    1    2    0    0 +2.8035500603e+02 +2.9122327447e+02 +6.4356007651e+02 7.5998651111e+02 0.0000000000e+00 0.0000e+00 -1.0000e+00
<mgrwt>
<rscale>  0 0.94491966E+03</rscale>
<asrwt>0</asrwt>
<pdfrwt beam="1">  1        2 0.44764063E+00 0.94491966E+03</pdfrwt>
<pdfrwt beam="2">  1       -2 0.11802488E-01 0.94491966E+03</pdfrwt>
<totfact> 0.11529089E+02</totfact>
</mgrwt>
<rwgt>
<wgt id='morphing_basis_vector_1'> +2.2497941e-04 </wgt>
<wgt id='morphing_basis_vector_2'> +2.2586771e-04 </wgt>
<wgt id='morphing_basis_vector_3'> +2.0985546e-04 </wgt>
<wgt id='morphing_basis_vector_4'> +5.4288683e-05 </wgt>
<wgt id='morphing_basis_vector_5'> +1.6645750e-04 </wgt>
</rwgt>
</event>
<event>
 4      1 +1.4786900e-06 1.03085300e+03 7.81860800e-03 8.65559500e-02
        2 -1    0    0  501    0 +0.0000000000e+00 +0.0000000000e+00 +7.6805688101e+02 7.6805688101e+02 0.0000000000e+00 0.0000e+00 -1.0000e+00
       -2 -1    0    0    0  501 -0.0000000000e+00 -0.0000000000e+00 -3.4589137525e+02 3.4589137525e+02 0.0000000000e+00 0.0000e+00 1.0000e+00
      -13  1    1    2    0    0 -4.8275197625e+02 -1.8036029076e+02 +2.2104229498e+02 5.6074860787e+02 0.0000000000e+00 0.0000e+00 1.0000e+00
       13  1    1    2    0    0 +4.8275197625e+02 +1.8036029076e+02 +2.0112321078e+02 5.5319964839e+02 0.0000000000e+00 0.0000e+00 -1.0000e+00
<mgrwt>
<rscale>  0 0.10308526E+04</rscale>
<asrwt>0</asrwt>
<pdfrwt beam="1">  1        2 0.11816260E+00 0.10308526E+04</pdfrwt>
<pdfrwt beam="2">  1       -2 0.53214058E-01 0.10308526E+04</pdfrwt>
<totfact> 0.14889878E+02</totfact>
</mgrwt>
<rwgt>
<wgt id='morphing_basis_vector_1'> +2.7077910e-04 </wgt>
<wgt id='morphing_basis_vector_2'> +1.9388023e-04 </wgt>
<wgt id='morphing_basis_vector_3'> +2.6251104e-04 </wgt>
<wgt id='morphing_basis_vector_4'> +1.4060750e-04 </wgt>
<wgt id='morphing_basis_vector_5'> +2.4654389e-04 </wgt>
</rwgt>
</event>
<event>
 4      1 +1.4786900e-06 9.91404300e+02 7.81860800e-03 8.69265500e-02
        2 -1    0    0  501    0 +0.0000000000e+00 +0.0000000000e+00 +5.0144604521e+02 5.0144604521e+02 0.0000000000e+00 0.0000e+00 -1.0000e+00
       -2 -1    0    0    0  501 -0.0000000000e+00 -0.0000000000e+00 -4.9002406374e+02 4.9002406374e+02 0.0000000000e+00 0.0000e+00 1.0000e+00
      -13  1    1    2    0    0 +9.4888020764e+01 +7.0605762652e+01 -4.7570616438e+02 4.9018900949e+02 0.0000000000e+00 0.0000e+00 1.0000e+00
       13  1    1    2    0    0 -9.4888020764e+01 -7.0605762652e+01 +4.8712814584e+02 5.0128109946e+02 0.0000000000e+00 0.0000e+00 -1.0000e+00
<mgrwt>
<rscale>  0 0.99140431E+03</rscale>
<asrwt>0</asrwt>
<pdfrwt beam="1">  1        2 0.77145546E-01 0.99140431E+03</pdfrwt>
<pdfrwt beam="2">  1       -2 0.75388317E-01 0.99140431E+03</pdfrwt>
<totfact> 0.12014902E+02</totfact>
</mgrwt>
<rwgt>
<wgt id='morphing_basis_vector_1'> +2.2574680e-04 </wgt>
<wgt id='morphing_basis_vector_2'> +1.4094599e-04 </wgt>
<wgt id='morphing_basis_vector_3'> +2.1672103e-04 </wgt>
<wgt id='morphing_basis_vector_4'> +1.3211148e-04 </wgt>
<wgt id='morphing_basis_vector_5'> +2.0898517e-04 </wgt>
</rwgt>
</event>
<event>
 4      1 +1.4786900e-06 1.00978300e+03 7.81860800e-03 8.67517100e-02
        2 -1    0    0  501    0 +0.0000000000e+00 +0.0000000000e+00 +1.1233690206e+03 1.1233690206e+03 0.0000000000e+00 0.0000e+00 -1.0000e+00
       -2 -1    0    0    0  501 -0.0000000000e+00 -0.0000000000e+00 -2.2692028284e+02 2.2692028284e+02 0.0000000000e+00 0.0000e+00 1.0000e+00
      -13  1    1    2    0    0 +4.2075933417e+02 -2.5975706303e+02 +3.1183527446e+02 5.8459677341e+02 0.0000000000e+00 0.0000e+00 1.0000e+00
       13  1    1    2    0    0 -4.2075933417e+02 +2.5975706303e+02 +5.8461346331e+02 7.6569253005e+02 0.0000000000e+00 0.0000e+00 -1.0000e+00
<mgrwt>
<rscale>  0 0.10097826E+04</rscale>
<asrwt>0</asrwt>
<pdfrwt beam="1">  1        2 0.17282600E+00 0.10097826E+04</pdfrwt>
<pdfrwt beam="2">  1       -2 0.34910813E-01 0.10097826E+04</pdfrwt>
<totfact> 0.19596236E+02</totfact>
</mgrwt>
<rwgt>
<wgt id='morphing_basis_vector_1'> +2.4562867e-04 </wgt>
<wgt id='morphing_basis_vector_2'> +1.6343980e-04 </wgt>
<wgt id='morphing_basis_vector_3'> +2.3683410e-04 </wgt>
<wgt id='morphing_basis_vector_4'> +1.3675203e-04 </wgt>
<wgt id='morphing_basis_vector_5'> +2.2596299e-04 </wgt>
</rwgt>
</event>
<event>
 4      1 +1.4786900e-06 1.03452700e+03 7.81860800e-03 8.65223100e-02
        2 -1    0    0  501    0 +0.0000000000e+00 +0.0000000000e+00 +1.7129235509e+03 1.7129235509e+03 0.0000000000e+00 0.0000e+00 -1.0000e+00
       -2 -1    0    0    0  501 -0.0000000000e+00 -0.0000000000e+00 -1.5620154492e+02 1.5620154492e+02 0.0000000000e+00 0.0000e+00 1.0000e+00
      -13  1    1    2    0    0 -6.4803624953e+01 -5.1280576453e+02 +7.4258732468e+02 9.0476803476e+02 0.0000000000e+00 0.0000e+00 1.0000e+00
       13  1    1    2    0    0 +6.4803624953e+01 +5.1280576453e+02 +8.1413468134e+02 9.6435706111e+02 0.0000000000e+00 0.0000e+00 -1.0000e+00
<mgrwt>
<rscale>  0 0.10345266E+04</rscale>
<asrwt>0</asrwt>
<pdfrwt beam="1">  1        2 0.26352669E+00 0.10345266E+04</pdfrwt>
<pdfrwt beam="2">  1       -2 0.24031008E-01 0.10345266E+04</pdfrwt>
<totfact> 0.17528571E+02</totfact>
</mgrwt>
<rwgt>
<wgt id='morphing_basis_vector_1'> +2.7252209e-04 </wgt>
<wgt id='morphing_basis_vector_2'> +1.9092077e-04 </wgt>
<wgt id='morphing_basis_vector_3'> +2.6446331e-04 </wgt>
<wgt id='morphing_basis_vector_4'> +1.4570534e-04 </wgt>
<wgt id='morphing_basis_vector_5'> +2.5053977e-04 </wgt>
</rwgt>
</event>
<event>
 4      1 +1.4786900e-06 1.04436000e+03 7.81860800e-03 8.64329800e-02
        2 -1    0    0  501    0 +0.0000000000e+00 +0.0000000000e+00 +1.3545255844e+03 1.3545255844e+03 0.0000000000e+00 0.0000e+00 -1.0000e+00
       -2 -1    0    0    0  501 -0.0000000000e+00 -0.0000000000e+00 -2.0130457852e+02 2.0130457852e+02 0.0000000000e+00 0.0000e+00 1.0000e+00
      -13  1    1    2    0    0 -2.4429228187e+02 -3.5575206882e+02 +1.3863085015e+02 4.5327338998e+02 0.0000000000e+00 0.0000e+00 1.0000e+00
       13  1    1    2    0    0 +2.4429228187e+02 +3.5575206882e+02 +1.0145901557e+03 1.1025567729e+03 0.0000000000e+00 0.0000e+00 -1.0000e+00
<mgrwt>
<rscale>  0 0.10443605E+04</rscale>
<asrwt>0</asrwt>
<pdfrwt beam="1">  1        2 0.20838855E+00 0.10443605E+04</pdfrwt>
<pdfrwt beam="2">  1       -2 0.30969936E-01 0.10443605E+04</pdfrwt>
<totfact> 0.17818895E+02</totfact>
</mgrwt>
<rwgt>
<wgt id='morphing_basis_vector_1'> +2.7458521e-04 </wgt>
<wgt id='morphing_basis_vector_2'> +1.7473380e-04 </wgt>
<wgt id='morphing_basis_vector_3'> +2.6707456e-04 </wgt>
<wgt id='morphing_basis_vector_4'> +1.6396191e-04 </wgt>
<wgt id='morphing_basis_vector_5'> +2.6173089e-04 </wgt>
</rwgt>
</event>
<event>
 4      1 +1.4786900e-06 1.01081300e+03 7.81860800e-03 8.67420200e-02
        2 -1    0    0  501    0 +0.0000000000e+00 +0.0000000000e+00 +7.4094190996e+02 7.4094190996e+02 0.0000000000e+00 0.0000e+00 -1.0000e+00
       -2 -1    0    0    0  501 -0.0000000000e+00 -0.0000000000e+00 -3.4474432916e+02 3.4474432916e+02 0.0000000000e+00 0.0000e+00 1.0000e+00
      -13  1    1    2    0    0 -1.7753001512e+02 -2.8809950287e+02 -2.0509685782e+02 3.9570563669e+02 0.0000000000e+00 0.0000e+00 1.0000e+00
       13  1    1    2    0    0 +1.7753001512e+02 +2.8809950287e+02 +6.0129443862e+02 6.8998060243e+02 0.0000000000e+00 0.0000e+00 -1.0000e+00
<mgrwt>
<rscale>  0 0.10108126E+04</rscale>
<asrwt>0</asrwt>
<pdfrwt beam="1">  1        2 0.11399106E+00 0.10108126E+04</pdfrwt>
<pdfrwt beam="2">  1       -2 0.53037589E-01 0.10108126E+04</pdfrwt>
<totfact> 0.15701581E+02</totfact>
</mgrwt>
<rwgt>
<wgt id='morphing_basis_vector_1'> +2.4272207e-04 </wgt>
<wgt id='morphing_basis_vector_2'> +1.5247258e-04 </wgt>
<wgt id='morphing_basis_vector_3'> +2.3417811e-04 </wgt>
<wgt id='morphing_basis_vector_4'> +1.4332198e-04 </wgt>
<wgt id='morphing_basis_vector_5'> +2.2732277e-04 </wgt>
</rwgt>
</event>
<event>
 4      1 +1.4786900e-06 9.55246200e+02 7.81860800e-03 8.72823500e-02
        2 -1    0    0  501    0 +0.0000000000e+00 +0.0000000000e+00 +7.2607991856e+02 7.2607991856e+02 0.0000000000e+00 0.0000e+00 -1.0000e+00
       -2 -1    0    0    0  501 -0.0000000000e+00 -0.0000000000e+00 -3.1418556309e+02 3.1418556309e+02 0.0000000000e+00 0.0000e+00 1.0000e+00
      -13  1    1    2    0    0 -1.3768144025e+02 +3.3210226107e+02 -1.3648434277e+02 3.8454657275e+02 0.0000000000e+00 0.0000e+00 1.0000e+00
       13  1    1    2    0    0 +1.3768144025e+02 -3.3210226107e+02 +5.4837869824e+02 6.5571890889e+02 0.0000000000e+00 0.0000e+00 -1.0000e+00
<mgrwt>
<rscale>  0 0.95524621E+03</rscale>
<asrwt>0</asrwt>
<pdfrwt beam="1">  1        2 0.11170460E+00 0.95524621E+03</pdfrwt>
<pdfrwt beam="2">  1       -2 0.48336241E-01 0.95524621E+03</pdfrwt>
<totfact> 0.19391954E+02</totfact>
</mgrwt>
<rwgt>
<wgt id='morphing_basis_vector_1'> +1.9723026e-04 </wgt>
<wgt id='morphing_basis_vector_2'> +1.2323676e-04 </wgt>
<wgt id='morphing_basis_vector_3'> +1.8743341e-04 </wgt>
<wgt id='morphing_basis_vector_4'> +1.1196778e-04 </wgt>
<wgt id='morphing_basis_vector_5'> +1.7767422e-04 </wgt>
</rwgt>
</event>
<event>
 4      1 +1.4786900e-06 9.39422700e+02 7.81860800e-03 8.74432700e-02
        2 -1    0    0  501    0 +0.0000000000e+00 +0.0000000000e+00 +1.4212042548e+03 1.4212042548e+03 0.0000000000e+00 0.0000e+00 -1.0000e+00
       -2 -1    0    0    0  501 -0.0000000000e+00 -0.0000000000e+00 -1.5524069260e+02 1.5524069260e+02 0.0000000000e+00 0.0000e+00 1.0000e+00
      -13  1    1    2    0    0 -1.5706073517e+02 -3.0342391101e+02 +9.2085193427e+01 3.5385565864e+02 0.0000000000e+00 0.0000e+00 1.0000e+00
       13  1    1    2    0    0 +1.5706073517e+02 +3.0342391101e+02 +1.1738783688e+03 1.2225892888e+03 0.0000000000e+00 0.0000e+00 -1.0000e+00
<mgrwt>
<rscale>  0 0.93942266E+03</rscale>
<asrwt>0</asrwt>
<pdfrwt beam="1">  1        2 0.21864680E+00 0.93942266E+03</pdfrwt>
<pdfrwt beam="2">  1       -2 0.23883184E-01 0.93942266E+03</pdfrwt>
<totfact> 0.25881626E+02</totfact>
</mgrwt>
<rwgt>
<wgt id='morphing_basis_vector_1'> +1.8546693e-04 </wgt>
<wgt id='morphing_basis_vector_2'> +1.1544806e-04 </wgt>
<wgt id='morphing_basis_vector_3'> +1.7542890e-04 </wgt>
<wgt id='morphing_basis_vector_4'> +1.0419759e-04 </wgt>
<wgt id='morphing_basis_vector_5'> +1.6512656e-04 </wgt>
</rwgt>
</event>
<event>
 4      1 +1.4786900e-06 1.02934100e+03 7.81860800e-03 8.65698300e-02
        2 -1    0    0  501    0 +0.0000000000e+00 +0.0000000000e+00 +4.2270696908e+02 4.2270696908e+02 0.0000000000e+00 0.0000e+00 1.0000e+00
       -2 -1    0    0    0  501 -0.0000000000e+00 -0.0000000000e+00 -6.2664121594e+02 6.2664121594e+02 0.0000000000e+00 0.0000e+00 -1.0000e+00
      -13  1    1    2    0    0 +3.5306487129e+02 +3.5237947000e+02 -2.3115645431e+02 5.4978122975e+02 0.0000000000e+00 0.0000e+00 -1.0000e+00
       13  1    1    2    0    0 -3.5306487129e+02 -3.5237947000e+02 +2.7222207438e+01 4.9956695527e+02 0.0000000000e+00 0.0000e+00 1.0000e+00
<mgrwt>
<rscale>  0 0.10293408E+04</rscale>
<asrwt>0</asrwt>
<pdfrwt beam="1">  1        2 0.65031841E-01 0.10293408E+04</pdfrwt>
<pdfrwt beam="2">  1       -2 0.96406341E-01 0.10293408E+04</pdfrwt>
<totfact> 0.82651184E+01</totfact>
</mgrwt>
<rwgt>
<wgt id='morphing_basis_vector_1'> +2.6302327e-04 </wgt>
<wgt id='morphing_basis_vector_2'> +1.7379047e-04 </wgt>
<wgt id='morphing_basis_vector_3'> +2.5490873e-04 </wgt>
<wgt id='morphing_basis_vector_4'> +1.4962428e-04 </wgt>
<wgt id='morphing_basis_vector_5'> +2.4559143e-04 </wgt>
</rwgt>
</event>
<event>
 4      1 +1.4786900e-06 9.40388600e+02 7.81860800e-03 8.74333500e-02
        2 -1    0    0  501    0 +0.0000000000e+00 +0.0000000000e+00 +1.4179277984e+03 1.4179277984e+03 0.0000000000e+00 0.0000e+00 1.0000e+00
       -2 -1    0    0    0  501 -0.0000000000e+00 -0.0000000000e+00 -1.5591957151e+02 1.5591957151e+02 0.0000000000e+00 0.0000e+00 -1.0000e+00
      -13  1    1    2    0    0 -2.3292815396e+02 -3.9815921867e+02 +4.7856365294e+02 6.6468748915e+02 0.0000000000e+00 0.0000e+00 -1.0000e+00
       13  1    1    2    0    0 +2.3292815396e+02 +3.9815921867e+02 +7.8344457394e+02 9.0915988075e+02 0.0000000000e+00 0.0000e+00 1.0000e+00
<mgrwt>
<rscale>  0 0.94038863E+03</rscale>
<asrwt>0</asrwt>
<pdfrwt beam="1">  1        2 0.21814273E+00 0.94038863E+03</pdfrwt>
<pdfrwt beam="2">  1       -2 0.23987627E-01 0.94038863E+03</pdfrwt>
<totfact> 0.25796803E+02</totfact>
</mgrwt>
<rwgt>
<wgt id='morphing_basis_vector_1'> +1.8910216e-04 </wgt>
<wgt id='morphing_basis_vector_2'> +1.2482040e-04 </wgt>
<wgt id='morphing_basis_vector_3'> +1.7863121e-04 </wgt>
<wgt id='morphing_basis_vector_4'> +1.0033276e-04 </wgt>
<wgt id='morphing_basis_vector_5'> +1.6563176e-04 </wgt>
</rwgt>
</event>
<event>
 4      1 +1.4786900e-06 9.27372200e+02 7.81860800e-03 8.75680500e-02
        2 -1    0    0  501    0 +0.0000000000e+00 +0.0000000000e+00 +1.4594311243e+03 1.4594311243e+03 0.0000000000e+00 0.0000e+00 1.0000e+00
       -2 -1    0    0    0  501 -0.0000000000e+00 -0.0000000000e+00 -1.4732097534e+02 1.4732097534e+02 0.0000000000e+00 0.0000e+00 -1.0000e+00
      -13  1    1    2    0    0 -1.7133679435e+02 +4.1952826324e+02 +8.2620662204e+02 9.4232565658e+02 0.0000000000e+00 0.0000e+00 -1.0000e+00
       13  1    1    2    0    0 +1.7133679435e+02 -4.1952826324e+02 +4.8590352690e+02 6.6442644303e+02 0.0000000000e+00 0.0000e+00 1.0000e+00
<mgrwt>
<rscale>  0 0.92737224E+03</rscale>
<asrwt>0</asrwt>
<pdfrwt beam="1">  1        2 0.22452786E+00 0.92737224E+03</pdfrwt>
<pdfrwt beam="2">  1       -2 0.22664766E-01 0.92737224E+03</pdfrwt>
<totfact> 0.26954181E+02</totfact>
</mgrwt>
<rwgt>
<wgt id='morphing_basis_vector_1'> +1.8980165e-04 </wgt>
<wgt id='morphing_basis_vector_2'> +1.4904971e-04 </wgt>
<wgt id='morphing_basis_vector_3'> +1.7739024e-04 </wgt>
<wgt id='morphing_basis_vector_4'> +7.9697017e-05 </wgt>
<wgt id='morphing_basis_vector_5'> +1.5497734e-04 </wgt>
</rwgt>
</event>
<event>
 4      1 +1.4786900e-06 1.04229900e+03 7.81860800e-03 8.64516100e-02
        2 -1    0    0  501    0 +0.0000000000e+00 +0.0000000000e+00 +3.6320208700e+02 3.6320208700e+02 0.0000000000e+00 0.0000e+00 1.0000e+00
       -2 -1    0    0    0  501 -0.0000000000e+00 -0.0000000000e+00 -7.4778490030e+02 7.4778490030e+02 0.0000000000e+00 0.0000e+00 -1.0000e+00
      -13  1    1    2    0    0 +3.0790968485e+02 +4.0427373855e+02 -6.9128486892e+01 5.1285902293e+02 0.0000000000e+00 0.0000e+00 -1.0000e+00
       13  1    1    2    0    0 -3.0790968485e+02 -4.0427373855e+02 -3.1545432641e+02 5.9812796436e+02 0.0000000000e+00 0.0000e+00 1.0000e+00
<mgrwt>
<rscale>  0 0.10422995E+04</rscale>
<asrwt>0</asrwt>
<pdfrwt beam="1">  1        2 0.55877246E-01 0.10422995E+04</pdfrwt>
<pdfrwt beam="2">  1       -2 0.11504383E+00 0.10422995E+04</pdfrwt>
<totfact> 0.63400228E+01</totfact>
</mgrwt>
<rwgt>
<wgt id='morphing_basis_vector_1'> +2.9273423e-04 </wgt>
<wgt id='morphing_basis_vector_2'> +2.3433024e-04 </wgt>
<wgt id='morphing_basis_vector_3'> +2.8475953e-04 </wgt>
<wgt id='morphing_basis_vector_4'> +1.3056831e-04 </wgt>
<wgt id='morphing_basis_vector_5'> +2.5753301e-04 </wgt>
</rwgt>
</event>
<event>
 4      1 +1.4786900e-06 9.68378700e+02 7.81860800e-03 8.71512600e-02
        2 -1    0    0  501    0 +0.0000000000e+00 +0.0000000000e+00 +1.3315699701e+03 1.3315699701e+03 0.0000000000e+00 0.0000e+00 -1.0000e+00
       -2 -1    0    0    0  501 -0.0000000000e+00 -0.0000000000e+00 -1.7606235721e+02 1.7606235721e+02 0.0000000000e+00 0.0000e+00 1.0000e+00
      -13  1    1    2    0    0 -4.8321885456e+02 +2.0694198551e+01 +6.1293463827e+02 7.8078011120e+02 0.0000000000e+00 0.0000e+00 1.0000e+00
       13  1    1    2    0    0 +4.8321885456e+02 -2.0694198551e+01 +5.4257297459e+02 7.2685221607e+02 0.0000000000e+00 0.0000e+00 -1.0000e+00
<mgrwt>
<rscale>  0 0.96837874E+03</rscale>
<asrwt>0</asrwt>
<pdfrwt beam="1">  1        2 0.20485691E+00 0.96837874E+03</pdfrwt>
<pdfrwt beam="2">  1       -2 0.27086517E-01 0.96837874E+03</pdfrwt>
<totfact> 0.23359226E+02</totfact>
</mgrwt>
<rwgt>
<wgt id='morphing_basis_vector_1'> +2.1575719e-04 </wgt>
<wgt id='morphing_basis_vector_2'> +1.5527329e-04 </wgt>
<wgt id='morphing_basis_vector_3'> +2.0525989e-04 </wgt>
<wgt id='morphing_basis_vector_4'> +1.0615389e-04 </wgt>
<wgt id='morphing_basis_vector_5'> +1.8787779e-04 </wgt>
</rwgt>
</event>
<event>
 4      1 +1.4786900e-06 9.44318300e+02 7.81860800e-03 8.73931300e-02
        2 -1    0    0  501    0 +0.0000000000e+00 +0.0000000000e+00 +1.5481899451e+03 1.5481899451e+03 0.0000000000e+00 0.0000e+00 -1.0000e+00
       -2 -1    0    0    0  501 -0.0000000000e+00 -0.0000000000e+00 -1.4399672066e+02 1.4399672066e+02 0.0000000000e+00 0.0000e+00 1.0000e+00
      -13  1    1    2    0    0 -3.2772820146e+02 -3.1534689008e+02 +4.7482864756e+02 6.5750412900e+02 0.0000000000e+00 0.0000e+00 1.0000e+00
       13  1    1    2    0    0 +3.2772820146e+02 +3.1534689008e+02 +9.2936457685e+02 1.0346825367e+03 0.0000000000e+00 0.0000e+00 -1.0000e+00
<mgrwt>
<rscale>  0 0.94431833E+03</rscale>
<asrwt>0</asrwt>
<pdfrwt beam="1">  1        2 0.23818306E+00 0.94431833E+03</pdfrwt>
<pdfrwt beam="2">  1       -2 0.22153343E-01 0.94431833E+03</pdfrwt>
<totfact> 0.24980370E+02</totfact>
</mgrwt>
<rwgt>
<wgt id='morphing_basis_vector_1'> +1.9116241e-04 </wgt>
<wgt id='morphing_basis_vector_2'> +1.2424033e-04 </wgt>
<wgt id='morphing_basis_vector_3'> +1.8088445e-04 </wgt>
<wgt id='morphing_basis_vector_4'> +1.0342632e-04 </wgt>
<wgt id='morphing_basis_vector_5'> +1.6876163e-04 </wgt>
</rwgt>
</event>
<event>
 4      1 +1.4786900e-06 9.95918400e+02 7.81860800e-03 8.68832400e-02
        2 -1    0    0  501    0 +0.0000000000e+00 +0.0000000000e+00 +2.4369714089e+03 2.4369714089e+03 0.0000000000e+00 0.0000e+00 -1.0000e+00
       -2 -1    0    0    0  501 -0.0000000000e+00 -0.0000000000e+00 -1.0175062848e+02 1.0175062848e+02 0.0000000000e+00 0.0000e+00 1.0000e+00
      -13  1    1    2    0    0 -2.1149728771e+02 -4.4823663724e+02 +1.0449291443e+03 1.1565137709e+03 0.0000000000e+00 0.0000e+00 1.0000e+00
       13  1    1    2    0    0 +2.1149728771e+02 +4.4823663724e+02 +1.2902916361e+03 1.3822082665e+03 0.0000000000e+00 0.0000e+00 -1.0000e+00
<mgrwt>
<rscale>  0 0.99591842E+03</rscale>
<asrwt>0</asrwt>
<pdfrwt beam="1">  1        2 0.37491863E+00 0.99591842E+03</pdfrwt>
<pdfrwt beam="2">  1       -2 0.15653945E-01 0.99591842E+03</pdfrwt>
<totfact> 0.14063956E+02</totfact>
</mgrwt>
<rwgt>
<wgt id='morphing_basis_vector_1'> +2.3531059e-04 </wgt>
<wgt id='morphing_basis_vector_2'> +1.6082850e-04 </wgt>
<wgt id='morphing_basis_vector_3'> +2.2595814e-04 </wgt>
<wgt id='morphing_basis_vector_4'> +1.2588043e-04 </wgt>
<wgt id='morphing_basis_vector_5'> +2.1262920e-04 </wgt>
</rwgt>
</event>
<event>
 4      1 +1.4786900e-06 9.61843800e+02 7.81860800e-03 8.72162200e-02
        2 -1    0    0  501    0 +0.0000000000e+00 +0.0000000000e+00 +1.0546861697e+03 1.0546861697e+03 0.0000000000e+00 0.0000e+00 1.0000e+00
       -2 -1    0    0    0  501 -0.0000000000e+00 -0.0000000000e+00 -2.1929355064e+02 2.1929355064e+02 0.0000000000e+00 0.0000e+00 -1.0000e+00
      -13  1    1    2    0    0 -4.2159824848e+02 +2.2934367887e+02 +3.7703836917e+02 6.1032904075e+02 0.0000000000e+00 0.0000e+00 -1.0000e+00
       13  1    1    2    0    0 +4.2159824848e+02 -2.2934367887e+02 +4.5835424992e+02 6.6365067963e+02 0.0000000000e+00 0.0000e+00 1.0000e+00
<mgrwt>
<rscale>  0 0.96184380E+03</rscale>
<asrwt>0</asrwt>
<pdfrwt beam="1">  1        2 0.16225941E+00 0.96184380E+03</pdfrwt>
<pdfrwt beam="2">  1       -2 0.33737470E-01 0.96184380E+03</pdfrwt>
<totfact> 0.22995373E+02</totfact>
</mgrwt>
<rwgt>
<wgt id='morphing_basis_vector_1'> +2.0764265e-04 </wgt>
<wgt id='morphing_basis_vector_2'> +1.4280297e-04 </wgt>
<wgt id='morphing_basis_vector_3'> +1.9731184e-04 </wgt>
<wgt id='morphing_basis_vector_4'> +1.0730962e-04 </wgt>
<wgt id='morphing_basis_vector_5'> +1.8264611e-04 </wgt>
</rwgt>
</event>
<event>
 4      1 +1.4786900e-06 9.76031000e+02 7.81860800e-03 8.70758600e-02
        2 -1    0    0  501    0 +0.0000000000e+00 +0.0000000000e+00 +1.7173167305e+03 1.7173167305e+03 0.0000000000e+00 0.0000e+00 -1.0000e+00
       -2 -1    0    0    0  501 -0.0000000000e+00 -0.0000000000e+00 -1.3868095453e+02 1.3868095453e+02 0.0000000000e+00 0.0000e+00 1.0000e+00
      -13  1    1    2    0    0 +3.4025652753e+02 -2.6455416936e+02 +3.5404492746e+02 5.5777345196e+02 0.0000000000e+00 0.0000e+00 1.0000e+00
       13  1    1    2    0    0 -3.4025652753e+02 +2.6455416936e+02 +1.2245908485e+03 1.2982242330e+03 0.0000000000e+00 0.0000e+00 -1.0000e+00
<mgrwt>
<rscale>  0 0.97603099E+03</rscale>
<asrwt>0</asrwt>
<pdfrwt beam="1">  1        2 0.26420256E+00 0.97603099E+03</pdfrwt>
<pdfrwt beam="2">  1       -2 0.21335533E-01 0.97603099E+03</pdfrwt>
<totfact> 0.21417250E+02</totfact>
</mgrwt>
<rwgt>
<wgt id='morphing_basis_vector_1'> +2.1419504e-04 </wgt>
<wgt id='morphing_basis_vector_2'> +1.3603146e-04 </wgt>
<wgt id='morphing_basis_vector_3'> +2.0471972e-04 </wgt>
<wgt id='morphing_basis_vector_4'> +1.2182497e-04 </wgt>
<wgt id='morphing_basis_vector_5'> +1.9513617e-04 </wgt>
</rwgt>
</event>
<event>
 4      1 +1.4786900e-06 1.02166700e+03 7.81860800e-03 8.66406800e-02
        2 -1    0    0  501    0 +0.0000000000e+00 +0.0000000000e+00 +1.4775373066e+03 1.4775373066e+03 0.0000000000e+00 0.0000e+00 1.0000e+00
       -2 -1    0    0    0  501 -0.0000000000e+00 -0.0000000000e+00 -1.7661210928e+02 1.7661210928e+02 0.0000000000e+00 0.0000e+00 -1.0000e+00
      -13  1    1    2    0    0 -4.7263333045e+02 +7.7071419421e+01 +9.3840526632e+02 1.0535305940e+03 0.0000000000e+00 0.0000e+00 1.0000e+00
       13  1    1    2    0    0 +4.7263333045e+02 -7.7071419421e+01 +3.6251993095e+02 6.0061882178e+02 0.0000000000e+00 0.0000e+00 -1.0000e+00
<mgrwt>
<rscale>  0 0.10216672E+04</rscale>
<asrwt>0</asrwt>
<pdfrwt beam="1">  1        2 0.22731342E+00 0.10216672E+04</pdfrwt>
<pdfrwt beam="2">  1       -2 0.27171095E-01 0.10216672E+04</pdfrwt>
<totfact> 0.19167146E+02</totfact>
</mgrwt>
<rwgt>
<wgt id='morphing_basis_vector_1'> +2.8157140e-04 </wgt>
<wgt id='morphing_basis_vector_2'> +2.4675424e-04 </wgt>
<wgt id='morphing_basis_vector_3'> +2.7207051e-04 </wgt>
<wgt id='morphing_basis_vector_4'> +1.0453133e-04 </wgt>
<wgt id='morphing_basis_vector_5'> +2.3532135e-04 </wgt>
</rwgt>
</event>
<event>
 4      1 +1.4786900e-06 9.38844700e+02 7.81860800e-03 8.74492100e-02
        2 -1    0    0  501    0 +0.0000000000e+00 +0.0000000000e+00 +3.9312824295e+02 3.9312824295e+02 0.0000000000e+00 0.0000e+00 -1.0000e+00
       -2 -1    0    0    0  501 -0.0000000000e+00 -0.0000000000e+00 -5.6052279663e+02 5.6052279663e+02 0.0000000000e+00 0.0000e+00 1.0000e+00
      -13  1    1    2    0    0 -1.5034907259e+02 +3.5238162079e+02 -3.5923096818e+02 5.2519000258e+02 0.0000000000e+00 0.0000e+00 1.0000e+00
       13  1    1    2    0    0 +1.5034907259e+02 -3.5238162079e+02 +1.9183641450e+02 4.2846103700e+02 0.0000000000e+00 0.0000e+00 -1.0000e+00
<mgrwt>
<rscale>  0 0.93884470E+03</rscale>
<asrwt>0</asrwt>
<pdfrwt beam="1">  1        2 0.60481268E-01 0.93884470E+03</pdfrwt>
<pdfrwt beam="2">  1       -2 0.86234276E-01 0.93884470E+03</pdfrwt>
<totfact> 0.11717403E+02</totfact>
</mgrwt>
<rwgt>
<wgt id='morphing_basis_vector_1'> +1.8531625e-04 </wgt>
<wgt id='morphing_basis_vector_2'> +1.1598628e-04 </wgt>
<wgt id='morphing_basis_vector_3'> +1.7522879e-04 </wgt>
<wgt id='morphing_basis_vector_4'> +1.0352589e-04 </wgt>
<wgt id='morphing_basis_vector_5'> +1.6465878e-04 </wgt>
</rwgt>
</event>
<event>
 4      1 +1.4786900e-06 9.85179400e+02 7.81860800e-03 8.69866700e-02
        2 -1    0    0  501    0 +0.0000000000e+00 +0.0000000000e+00 +8.0624324965e+02 8.0624324965e+02 0.0000000000e+00 0.0000e+00 1.0000e+00
       -2 -1    0    0    0  501 -0.0000000000e+00 -0.0000000000e+00 -3.0095709945e+02 3.0095709945e+02 0.0000000000e+00 0.0000e+00 -1.0000e+00
      -13  1    1    2    0    0 +3.1688379321e+02 +1.7270152875e+02 -1.2414811708e+02 3.8164631716e+02 0.0000000000e+00 0.0000e+00 -1.0000e+00
       13  1    1    2    0    0 -3.1688379321e+02 -1.7270152875e+02 +6.2943426728e+02 7.2555403193e+02 0.0000000000e+00 0.0000e+00 1.0000e+00
<mgrwt>
<rscale>  0 0.98517944E+03</rscale>
<asrwt>0</asrwt>
<pdfrwt beam="1">  1        2 0.12403742E+00 0.98517944E+03</pdfrwt>
<pdfrwt beam="2">  1       -2 0.46301093E-01 0.98517944E+03</pdfrwt>
<totfact> 0.18428682E+02</totfact>
</mgrwt>
<rwgt>
<wgt id='morphing_basis_vector_1'> +2.2087485e-04 </wgt>
<wgt id='morphing_basis_vector_2'> +1.3852589e-04 </wgt>
<wgt id='morphing_basis_vector_3'> +2.1167838e-04 </wgt>
<wgt id='morphing_basis_vector_4'> +1.2808387e-04 </wgt>
<wgt id='morphing_basis_vector_5'> +2.0330589e-04 </wgt>
</rwgt>
</event>
<event>
 4      1 +1.4786900e-06 1.03937900e+03 7.81860800e-03 8.64781000e-02
        2 -1    0    0  501    0 +0.0000000000e+00 +0.0000000000e+00 +1.0410311690e+03 1.0410311690e+03 0.0000000000e+00 0.0000e+00 -1.0000e+00
       -2 -1    0    0    0  501 -0.0000000000e+00 -0.0000000000e+00 -2.5943218882e+02 2.5943218882e+02 0.0000000000e+00 0.0000e+00 1.0000e+00
      -13  1    1    2    0    0 +3.6894360943e+02 +1.3514817203e+02 -3.4776462653e+01 3.9445382200e+02 0.0000000000e+00 0.0000e+00 1.0000e+00
       13  1    1    2    0    0 -3.6894360943e+02 -1.3514817203e+02 +8.1637544282e+02 9.0600953581e+02 0.0000000000e+00 0.0000e+00 -1.0000e+00
<mgrwt>
<rscale>  0 0.10393787E+04</rscale>
<asrwt>0</asrwt>
<pdfrwt beam="1">  1        2 0.16015864E+00 0.10393787E+04</pdfrwt>
<pdfrwt beam="2">  1       -2 0.39912645E-01 0.10393787E+04</pdfrwt>
<totfact> 0.17140582E+02</totfact>
</mgrwt>
<rwgt>
<wgt id='morphing_basis_vector_1'> +2.6938305e-04 </wgt>
<wgt id='morphing_basis_vector_2'> +1.7044211e-04 </wgt>
<wgt id='morphing_basis_vector_3'> +2.6170717e-04 </wgt>
<wgt id='morphing_basis_vector_4'> +1.6120920e-04 </wgt>
<wgt id='morphing_basis_vector_5'> +2.5642285e-04 </wgt>
</rwgt>
</event>
<event>
 4      1 +1.4786900e-06 1.03788600e+03 7.81860800e-03 8.64916700e-02
        2 -1    0    0  501    0 +0.0000000000e+00 +0.0000000000e+00 +2.1898556533e+03 2.1898556533e+03 0.0000000000e+00 0.0000e+00 -1.0000e+00
       -2 -1    0    0    0  501 -0.0000000000e+00 -0.0000000000e+00 -1.2297705578e+02 1.2297705578e+02 0.0000000000e+00 0.0000e+00 1.0000e+00
      -13  1    1    2    0    0 +6.6209374417e-01 -5.1702000119e+02 +9.3398441587e+02 1.0675378256e+03 0.0000000000e+00 0.0000e+00 1.0000e+00
       13  1    1    2    0    0 -6.6209374417e-01 +5.1702000119e+02 +1.1328941816e+03 1.2452948834e+03 0.0000000000e+00 0.0000e+00 -1.0000e+00
<mgrwt>
<rscale>  0 0.10378863E+04</rscale>
<asrwt>0</asrwt>
<pdfrwt beam="1">  1        2 0.33690084E+00 0.10378863E+04</pdfrwt>
<pdfrwt beam="2">  1       -2 0.18919549E-01 0.10378863E+04</pdfrwt>
<totfact> 0.14223819E+02</totfact>
</mgrwt>
<rwgt>
<wgt id='morphing_basis_vector_1'> +2.7447484e-04 </wgt>
<wgt id='morphing_basis_vector_2'> +1.8922789e-04 </wgt>
<wgt id='morphing_basis_vector_3'> +2.6658871e-04 </wgt>
<wgt id='morphing_basis_vector_4'> +1.4988284e-04 </wgt>
<wgt id='morphing_basis_vector_5'> +2.5420132e-04 </wgt>
</rwgt>
</event>
<event>
 4      1 +1.4786900e-06 9.31257700e+02 7.81860800e-03 8.75276000e-02
        2 -1    0    0  501    0 +0.0000000000e+00 +0.0000000000e+00 +2.2840015705e+03 2.2840015705e+03 0.0000000000e+00 0.0000e+00 1.0000e+00
       -2 -1    0    0    0  501 -0.0000000000e+00 -0.0000000000e+00 -9.4925595533e+01 9.4925595533e+01 0.0000000000e+00 0.0000e+00 -1.0000e+00
      -13  1    1    2    0    0 +3.6247995866e+02 -2.5478030774e+02 +7.2873580334e+02 8.5285438189e+02 0.0000000000e+00 0.0000e+00 -1.0000e+00
       13  1    1    2    0    0 -3.6247995866e+02 +2.5478030774e+02 +1.4603401716e+03 1.5260727841e+03 0.0000000000e+00 0.0000e+00 1.0000e+00
<mgrwt>
<rscale>  0 0.93125766E+03</rscale>
<asrwt>0</asrwt>
<pdfrwt beam="1">  1        2 0.35138481E+00 0.93125766E+03</pdfrwt>
<pdfrwt beam="2">  1       -2 0.14603940E-01 0.93125766E+03</pdfrwt>
<totfact> 0.19399262E+02</totfact>
</mgrwt>
<rwgt>
<wgt id='morphing_basis_vector_1'> +1.8132392e-04 </wgt>
<wgt id='morphing_basis_vector_2'> +1.1677728e-04 </wgt>
<wgt id='morphing_basis_vector_3'> +1.7089514e-04 </wgt>
<wgt id='morphing_basis_vector_4'> +9.7841800e-05 </wgt>
<wgt id='morphing_basis_vector_5'> +1.5877218e-04 </wgt>
</rwgt>
</event>
<event>
 4      1 +1.4786900e-06 1.03273400e+03 7.81860800e-03 8.65387000e-02
        2 -1    0    0  501    0 +0.0000000000e+00 +0.0000000000e+00 +1.1850044127e+03 1.1850044127e+03 0.0000000000e+00 0.0000e+00 1.0000e+00
       -2 -1    0    0    0  501 -0.0000000000e+00 -0.0000000000e+00 -2.2500735694e+02 2.2500735694e+02 0.0000000000e+00 0.0000e+00 -1.0000e+00
      -13  1    1    2    0    0 +3.9828481556e+02 +6.7612798108e+01 +9.1909783819e+02 1.0039637050e+03 0.0000000000e+00 0.0000e+00 1.0000e+00
       13  1    1    2    0    0 -3.9828481556e+02 -6.7612798108e+01 +4.0899217530e+01 4.0604806461e+02 0.0000000000e+00 0.0000e+00 -1.0000e+00
<mgrwt>
<rscale>  0 0.10327337E+04</rscale>
<asrwt>0</asrwt>
<pdfrwt beam="1">  1        2 0.18230837E+00 0.10327337E+04</pdfrwt>
<pdfrwt beam="2">  1       -2 0.34616517E-01 0.10327337E+04</pdfrwt>
<totfact> 0.18274095E+02</totfact>
</mgrwt>
<rwgt>
<wgt id='morphing_basis_vector_1'> +3.2685574e-04 </wgt>
<wgt id='morphing_basis_vector_2'> +3.5922066e-04 </wgt>
<wgt id='morphing_basis_vector_3'> +3.1701256e-04 </wgt>
<wgt id='morphing_basis_vector_4'> +5.6096418e-05 </wgt>
<wgt id='morphing_basis_vector_5'> +2.4324366e-04 </wgt>
</rwgt>
</event>
<event>
 4      1 +1.4786900e-06 9.64147900e+02 7.81860800e-03 8.71932600e-02
        2 -1    0    0  501    0 +0.0000000000e+00 +0.0000000000e+00 +8.9446952460e+02 8.9446952460e+02 0.0000000000e+00 0.0000e+00 1.0000e+00
       -2 -1    0    0    0  501 -0.0000000000e+00 -0.0000000000e+00 -2.5981351669e+02 2.5981351669e+02 0.0000000000e+00 0.0000e+00 -1.0000e+00
      -13  1    1    2    0    0 +4.7200878053e+02 +8.5973841292e+01 +2.6102774068e+02 5.4618611451e+02 0.0000000000e+00 0.0000e+00 -1.0000e+00
       13  1    1    2    0    0 -4.7200878053e+02 -8.5973841292e+01 +3.7362826723e+02 6.0809692678e+02 0.0000000000e+00 0.0000e+00 1.0000e+00
<mgrwt>
<rscale>  0 0.96414786E+03</rscale>
<asrwt>0</asrwt>
<pdfrwt beam="1">  1        2 0.13761069E+00 0.96414786E+03</pdfrwt>
<pdfrwt beam="2">  1       -2 0.39971311E-01 0.96414786E+03</pdfrwt>
<totfact> 0.21259084E+02</totfact>
</mgrwt>
<rwgt>
<wgt id='morphing_basis_vector_1'> +2.0879543e-04 </wgt>
<wgt id='morphing_basis_vector_2'> +1.4204516e-04 </wgt>
<wgt id='morphing_basis_vector_3'> +1.9859937e-04 </wgt>
<wgt id='morphing_basis_vector_4'> +1.0945171e-04 </wgt>
<wgt id='morphing_basis_vector_5'> +1.8462448e-04 </wgt>
</rwgt>
</event>
<event>
 4      1 +1.4786900e-06 1.06339100e+03 7.81860800e-03 8.62629600e-02
        2 -1    0    0  501    0 +0.0000000000e+00 +0.0000000000e+00 +3.4917140771e+03 3.4917140771e+03 0.0000000000e+00 0.0000e+00 1.0000e+00
       -2 -1    0    0    0  501 -0.0000000000e+00 -0.0000000000e+00 -8.0963140377e+01 8.0963140377e+01 0.0000000000e+00 0.0000e+00 -1.0000e+00
      -13  1    1    2    0    0 +1.5442903554e+02 -4.4831870644e+02 +8.9721416953e+02 1.0148060187e+03 0.0000000000e+00 0.0000e+00 -1.0000e+00
       13  1    1    2    0    0 -1.5442903554e+02 +4.4831870644e+02 +2.5135367671e+03 2.5578711987e+03 0.0000000000e+00 0.0000e+00 1.0000e+00
<mgrwt>
<rscale>  0 0.10633911E+04</rscale>
<asrwt>0</asrwt>
<pdfrwt beam="1">  1        2 0.53718666E+00 0.10633911E+04</pdfrwt>
<pdfrwt beam="2">  1       -2 0.12455870E-01 0.10633911E+04</pdfrwt>
<totfact> 0.42512305E+01</totfact>
</mgrwt>
<rwgt>
<wgt id='morphing_basis_vector_1'> +2.9441077e-04 </wgt>
<wgt id='morphing_basis_vector_2'> +1.8953827e-04 </wgt>
<wgt id='morphing_basis_vector_3'> +2.8761807e-04 </wgt>
<wgt id='morphing_basis_vector_4'> +1.7598161e-04 </wgt>
<wgt id='morphing_basis_vector_5'> +2.8282322e-04 </wgt>
</rwgt>
</event>
<event>
 4      1 +1.4786900e-06 1.01641800e+03 7.81860800e-03 8.66895200e-02
        2 -1    0    0  501    0 +0.0000000000e+00 +0.0000000000e+00 +1.3692306909e+03 1.3692306909e+03 0.0000000000e+00 0.0000e+00 -1.0000e+00
       -2 -1    0    0    0  501 -0.0000000000e+00 -0.0000000000e+00 -1.8862894964e+02 1.8862894964e+02 0.0000000000e+00 0.0000e+00 1.0000e+00
      -13  1    1    2    0    0 +6.6604822640e+01 -3.6682229148e+02 +6.0950955454e+01 3.7776952616e+02 0.0000000000e+00 0.0000e+00 1.0000e+00
       13  1    1    2    0    0 -6.6604822640e+01 +3.6682229148e+02 +1.1196507858e+03 1.1800901144e+03 0.0000000000e+00 0.0000e+00 -1.0000e+00
<mgrwt>
<rscale>  0 0.10164183E+04</rscale>
<asrwt>0</asrwt>
<pdfrwt beam="1">  1        2 0.21065087E+00 0.10164183E+04</pdfrwt>
<pdfrwt beam="2">  1       -2 0.29019839E-01 0.10164183E+04</pdfrwt>
<totfact> 0.19651274E+02</totfact>
</mgrwt>
<rwgt>
<wgt id='morphing_basis_vector_1'> +2.4788613e-04 </wgt>
<wgt id='morphing_basis_vector_2'> +1.5618169e-04 </wgt>
<wgt id='morphing_basis_vector_3'> +2.3949289e-04 </wgt>
<wgt id='morphing_basis_vector_4'> +1.4655560e-04 </wgt>
<wgt id='morphing_basis_vector_5'> +2.3282306e-04 </wgt>
</rwgt>
</event>
<event>
 4      1 +1.4786900e-06 9.10219000e+02 7.81860800e-03 8.77491300e-02
        2 -1    0    0  501    0 +0.0000000000e+00 +0.0000000000e+00 +1.1668951603e+03 1.1668951603e+03 0.0000000000e+00 0.0000e+00 -1.0000e+00
       -2 -1    0    0    0  501 -0.0000000000e+00 -0.0000000000e+00 -1.7750065214e+02 1.7750065214e+02 0.0000000000e+00 0.0000e+00 1.0000e+00
      -13  1    1    2    0    0 -6.2908487746e+01 -4.4322383407e+02 +6.1577369877e+02 7.6130289176e+02 0.0000000000e+00 0.0000e+00 -1.0000e+00
       13  1    1    2    0    0 +6.2908487746e+01 +4.4322383407e+02 +3.7362080939e+02 5.8309292067e+02 0.0000000000e+00 0.0000e+00 1.0000e+00
<mgrwt>
<rscale>  0 0.91021899E+03</rscale>
<asrwt>0</asrwt>
<pdfrwt beam="1">  1        2 0.17952233E+00 0.91021899E+03</pdfrwt>
<pdfrwt beam="2">  1       -2 0.27307793E-01 0.91021899E+03</pdfrwt>
<totfact> 0.28753301E+02</totfact>
</mgrwt>
<rwgt>
<wgt id='morphing_basis_vector_1'> +1.7606850e-04 </wgt>
<wgt id='morphing_basis_vector_2'> +1.3516741e-04 </wgt>
<wgt id='morphing_basis_vector_3'> +1.6353935e-04 </wgt>
<wgt id='morphing_basis_vector_4'> +7.5274334e-05 </wgt>
<wgt id='morphing_basis_vector_5'> +1.4283979e-04 </wgt>
</rwgt>
</event>
<event>
 4      1 +1.4786900e-06 1.04879300e+03 7.81860800e-03 8.63930400e-02
        2 -1    0    0  501    0 +0.0000000000e+00 +0.0000000000e+00 +1.6454177398e+03 1.6454177398e+03 0.0000000000e+00 0.0000e+00 -1.0000e+00
       -2 -1    0    0    0  501 -0.0000000000e+00 -0.0000000000e+00 -1.6712582655e+02 1.6712582655e+02 0.0000000000e+00 0.0000e+00 1.0000e+00
      -13  1    1    2    0    0 -1.0440715297e+02 -2.8659484278e+02 +1.9553395730e+00 3.0502668875e+02 0.0000000000e+00 0.0000e+00 1.0000e+00
       13  1    1    2    0    0 +1.0440715297e+02 +2.8659484278e+02 +1.4763365737e+03 1.5075168776e+03 0.0000000000e+00 0.0000e+00 -1.0000e+00
<mgrwt>
<rscale>  0 0.10487932E+04</rscale>
<asrwt>0</asrwt>
<pdfrwt beam="1">  1        2 0.25314118E+00 0.10487932E+04</pdfrwt>
<pdfrwt beam="2">  1       -2 0.25711667E-01 0.10487932E+04</pdfrwt>
<totfact> 0.16988029E+02</totfact>
</mgrwt>
<rwgt>
<wgt id='morphing_basis_vector_1'> +2.7820631e-04 </wgt>
<wgt id='morphing_basis_vector_2'> +1.7537674e-04 </wgt>
<wgt id='morphing_basis_vector_3'> +2.7086366e-04 </wgt>
<wgt id='morphing_basis_vector_4'> +1.6814610e-04 </wgt>
<wgt id='morphing_basis_vector_5'> +2.6662685e-04 </wgt>
</rwgt>
</event>
<event>
 4      1 +1.4786900e-06 9.51031800e+02 7.81860800e-03 8.73248900e-02
        2 -1    0    0  501    0 +0.0000000000e+00 +0.0000000000e+00 +1.7543122177e+03 1.7543122177e+03 0.0000000000e+00 0.0000e+00 -1.0000e+00
       -2 -1    0    0    0  501 -0.0000000000e+00 -0.0000000000e+00 -1.2889118277e+02 1.2889118277e+02 0.0000000000e+00 0.0000e+00 1.0000e+00
      -13  1    1    2    0    0 +2.8089039886e+01 +2.7234316006e+02 +4.2846031905e+01 2.7712014261e+02 0.0000000000e+00 0.0000e+00 1.0000e+00
       13  1    1    2    0    0 -2.8089039886e+01 -2.7234316006e+02 +1.5825750030e+03 1.6060832578e+03 0.0000000000e+00 0.0000e+00 -1.0000e+00
<mgrwt>
<rscale>  0 0.95103181E+03</rscale>
<asrwt>0</asrwt>
<pdfrwt beam="1">  1        2 0.26989417E+00 0.95103181E+03</pdfrwt>
<pdfrwt beam="2">  1       -2 0.19829414E-01 0.95103181E+03</pdfrwt>
<totfact> 0.23146127E+02</totfact>
</mgrwt>
<rwgt>
<wgt id='morphing_basis_vector_1'> +1.9381186e-04 </wgt>
<wgt id='morphing_basis_vector_2'> +1.2042418e-04 </wgt>
<wgt id='morphing_basis_vector_3'> +1.8397786e-04 </wgt>
<wgt id='morphing_basis_vector_4'> +1.1020164e-04 </wgt>
<wgt id='morphing_basis_vector_5'> +1.7428623e-04 </wgt>
</rwgt>
</event>
<event>
 4      1 +1.4786900e-06 9.68132800e+02 7.81860800e-03 8.71536900e-02
        2 -1    0    0  501    0 +0.0000000000e+00 +0.0000000000e+00 +6.2711329025e+02 6.2711329025e+02 0.0000000000e+00 0.0000e+00 -1.0000e+00
       -2 -1    0    0    0  501 -0.0000000000e+00 -0.0000000000e+00 -3.7364901550e+02 3.7364901550e+02 0.0000000000e+00 0.0000e+00 1.0000e+00
      -13  1    1    2    0    0 +1.6479222804e+02 -6.2607395447e+01 +5.9275260631e+02 6.1841071844e+02 0.0000000000e+00 0.0000e+00 -1.0000e+00
       13  1    1    2    0    0 -1.6479222804e+02 +6.2607395447e+01 -3.3928833156e+02 3.8235158731e+02 0.0000000000e+00 0.0000e+00 1.0000e+00
<mgrwt>
<rscale>  0 0.96813277E+03</rscale>
<asrwt>0</asrwt>
<pdfrwt beam="1">  1        2 0.96478967E-01 0.96813277E+03</pdfrwt>
<pdfrwt beam="2">  1       -2 0.57484464E-01 0.96813277E+03</pdfrwt>
<totfact> 0.16410351E+02</totfact>
</mgrwt>
<rwgt>
<wgt id='morphing_basis_vector_1'> +2.8175098e-04 </wgt>
<wgt id='morphing_basis_vector_2'> +3.5587635e-04 </wgt>
<wgt id='morphing_basis_vector_3'> +2.6379240e-04 </wgt>
<wgt id='morphing_basis_vector_4'> +6.1511232e-06 </wgt>
<wgt id='morphing_basis_vector_5'> +1.8190753e-04 </wgt>
</rwgt>
</event>
<event>
 4      1 +1.4786900e-06 1.04112700e+03 7.81860800e-03 8.64622400e-02
        2 -1    0    0  501    0 +0.0000000000e+00 +0.0000000000e+00 +1.6945223969e+03 1.6945223969e+03 0.0000000000e+00 0.0000e+00 1.0000e+00
       -2 -1    0    0    0  501 -0.0000000000e+00 -0.0000000000e+00 -1.5991891321e+02 1.5991891321e+02 0.0000000000e+00 0.0000e+00 -1.0000e+00
      -13  1    1    2    0    0 +2.1743089398e+01 +2.6256033482e+02 -3.2400634906e+01 2.6544395359e+02 0.0000000000e+00 0.0000e+00 -1.0000e+00
       13  1    1    2    0    0 -2.1743089398e+01 -2.6256033482e+02 +1.5670041186e+03 1.5889973565e+03 0.0000000000e+00 0.0000e+00 1.0000e+00
<mgrwt>
<rscale>  0 0.10411267E+04</rscale>
<asrwt>0</asrwt>
<pdfrwt beam="1">  1        2 0.26069574E+00 0.10411267E+04</pdfrwt>
<pdfrwt beam="2">  1       -2 0.24602911E-01 0.10411267E+04</pdfrwt>
<totfact> 0.17226987E+02</totfact>
</mgrwt>
<rwgt>
<wgt id='morphing_basis_vector_1'> +2.7066289e-04 </wgt>
<wgt id='morphing_basis_vector_2'> +1.7031706e-04 </wgt>
<wgt id='morphing_basis_vector_3'> +2.6305505e-04 </wgt>
<wgt id='morphing_basis_vector_4'> +1.6302336e-04 </wgt>
<wgt id='morphing_basis_vector_5'> +2.5832888e-04 </wgt>
</rwgt>
</event>
<event>
 4      1 +1.4786900e-06 1.05732400e+03 7.81860800e-03 8.63167600e-02
        2 -1    0    0  501    0 +0.0000000000e+00 +0.0000000000e+00 +1.5633308320e+03 1.5633308320e+03 0.0000000000e+00 0.0000e+00 1.0000e+00
       -2 -1    0    0    0  501 -0.0000000000e+00 -0.0000000000e+00 -1.7877425392e+02 1.7877425392e+02 0.0000000000e+00 0.0000e+00 -1.0000e+00
      -13  1    1    2    0    0 +3.1872230992e+02 +4.0926560277e+02 +5.2424118337e+02 7.3750326290e+02 0.0000000000e+00 0.0000e+00 -1.0000e+00
       13  1    1    2    0    0 -3.1872230992e+02 -4.0926560277e+02 +8.6031539472e+02 1.0046018230e+03 0.0000000000e+00 0.0000e+00 1.0000e+00
<mgrwt>
<rscale>  0 0.10573236E+04</rscale>
<asrwt>0</asrwt>
<pdfrwt beam="1">  1        2 0.24051243E+00 0.10573236E+04</pdfrwt>
<pdfrwt beam="2">  1       -2 0.27503732E-01 0.10573236E+04</pdfrwt>
<totfact> 0.16769921E+02</totfact>
</mgrwt>
<rwgt>
<wgt id='morphing_basis_vector_1'> +2.9157229e-04 </wgt>
<wgt id='morphing_basis_vector_2'> +1.9558758e-04 </wgt>
<wgt id='morphing_basis_vector_3'> +2.8452923e-04 </wgt>
<wgt id='morphing_basis_vector_4'> +1.6631889e-04 </wgt>
<wgt id='morphing_basis_vector_5'> +2.7560828e-04 </wgt>
</rwgt>
</event>
<event>
 4      1 +1.4786900e-06 9.12958900e+02 7.81860800e-03 8.77199300e-02
        2 -1    0    0  501    0 +0.0000000000e+00 +0.0000000000e+00 +1.2788169806e+03 1.2788169806e+03 0.0000000000e+00 0.0000e+00 -1.0000e+00
       -2 -1    0    0    0  501 -0.0000000000e+00 -0.0000000000e+00 -1.6294237820e+02 1.6294237820e+02 0.0000000000e+00 0.0000e+00 1.0000e+00
      -13  1    1    2    0    0 -4.7585405668e+01 +3.6111831837e+02 +1.2342992055e+02 3.8458517390e+02 0.0000000000e+00 0.0000e+00 1.0000e+00
       13  1    1    2    0    0 +4.7585405668e+01 -3.6111831837e+02 +9.9244468184e+02 1.0571741849e+03 0.0000000000e+00 0.0000e+00 -1.0000e+00
<mgrwt>
<rscale>  0 0.91295888E+03</rscale>
<asrwt>0</asrwt>
<pdfrwt beam="1">  1        2 0.19674107E+00 0.91295888E+03</pdfrwt>
<pdfrwt beam="2">  1       -2 0.25068059E-01 0.91295888E+03</pdfrwt>
<totfact> 0.28718355E+02</totfact>
</mgrwt>
<rwgt>
<wgt id='morphing_basis_vector_1'> +1.6727691e-04 </wgt>
<wgt id='morphing_basis_vector_2'> +1.0407040e-04 </wgt>
<wgt id='morphing_basis_vector_3'> +1.5688193e-04 </wgt>
<wgt id='morphing_basis_vector_4'> +9.1713288e-05 </wgt>
<wgt id='morphing_basis_vector_5'> +1.4557850e-04 </wgt>
</rwgt>
</event>
<event>
 4      1 +1.4786900e-06 1.05127600e+03 7.81860800e-03 8.63707700e-02
        2 -1    0    0  501    0 +0.0000000000e+00 +0.0000000000e+00 +4.8082059651e+02 4.8082059651e+02 0.0000000000e+00 0.0000e+00 -1.0000e+00
       -2 -1    0    0    0  501 -0.0000000000e+00 -0.0000000000e+00 -5.7463244793e+02 5.7463244793e+02 0.0000000000e+00 0.0000e+00 1.0000e+00
      -13  1    1    2    0    0 -5.2004799693e+02 -4.8564062206e+01 +1.2377244904e+01 5.2245725513e+02 0.0000000000e+00 0.0000e+00 1.0000e+00
       13  1    1    2    0    0 +5.2004799693e+02 +4.8564062206e+01 -1.0618909633e+02 5.3299578931e+02 0.0000000000e+00 0.0000e+00 -1.0000e+00
<mgrwt>
<rscale>  0 0.10512756E+04</rscale>
<asrwt>0</asrwt>
<pdfrwt beam="1">  1        2 0.73972399E-01 0.10512756E+04</pdfrwt>
<pdfrwt beam="2">  1       -2 0.88404992E-01 0.10512756E+04</pdfrwt>
<totfact> 0.87405444E+01</totfact>
</mgrwt>
<rwgt>
<wgt id='morphing_basis_vector_1'> +2.9550825e-04 </wgt>
<wgt id='morphing_basis_vector_2'> +2.2182515e-04 </wgt>
<wgt id='morphing_basis_vector_3'> +2.8811727e-04 </wgt>
<wgt id='morphing_basis_vector_4'> +1.4616132e-04 </wgt>
<wgt id='morphing_basis_vector_5'> +2.6788277e-04 </wgt>
</rwgt>
</event>
<event>
 4      1 +1.4786900e-06 9.43652000e+02 7.81860800e-03 8.73999400e-02
        2 -1    0    0  501    0 +0.0000000000e+00 +0.0000000000e+00 +1.2291469274e+02 1.2291469274e+02 0.0000000000e+00 0.0000e+00 1.0000e+00
       -2 -1    0    0    0  501 -0.0000000000e+00 -0.0000000000e+00 -1.8111728667e+03 1.8111728667e+03 0.0000000000e+00 0.0000e+00 -1.0000e+00
      -13  1    1    2    0    0 -2.9431333629e+02 +2.3776888459e+02 -1.4218967750e+03 1.4713751463e+03 0.0000000000e+00 0.0000e+00 -1.0000e+00
       13  1    1    2    0    0 +2.9431333629e+02 -2.3776888459e+02 -2.6636139890e+02 4.6271241308e+02 0.0000000000e+00 0.0000e+00 1.0000e+00
<mgrwt>
<rscale>  0 0.94365196E+03</rscale>
<asrwt>0</asrwt>
<pdfrwt beam="1">  1        2 0.18909953E-01 0.94365196E+03</pdfrwt>
<pdfrwt beam="2">  1       -2 0.27864197E+00 0.94365196E+03</pdfrwt>
<totfact> 0.12731132E+01</totfact>
</mgrwt>
<rwgt>
<wgt id='morphing_basis_vector_1'> +1.8875313e-04 </wgt>
<wgt id='morphing_basis_vector_2'> +1.1808917e-04 </wgt>
<wgt id='morphing_basis_vector_3'> +1.7874616e-04 </wgt>
<wgt id='morphing_basis_vector_4'> +1.0594351e-04 </wgt>
<wgt id='morphing_basis_vector_5'> +1.6839866e-04 </wgt>
</rwgt>
</event>
<event>
 4      1 +1.4786900e-06 9.98963900e+02 7.81860800e-03 8.68541600e-02
        2 -1    0    0  501    0 +0.0000000000e+00 +0.0000000000e+00 +2.2597040464e+03 2.2597040464e+03 0.0000000000e+00 0.0000e+00 -1.0000e+00
       -2 -1    0    0    0  501 -0.0000000000e+00 -0.0000000000e+00 -1.1040482031e+02 1.1040482031e+02 0.0000000000e+00 0.0000e+00 1.0000e+00
      -13  1    1    2    0    0 -4.0841997616e+02 -2.5870637252e+02 +1.3723699628e+03 1.4550378617e+03 0.0000000000e+00 0.0000e+00 -1.0000e+00
       13  1    1    2    0    0 +4.0841997616e+02 +2.5870637252e+02 +7.7692926328e+02 9.1507100503e+02 0.0000000000e+00 0.0000e+00 1.0000e+00
<mgrwt>
<rscale>  0 0.99896390E+03</rscale>
<asrwt>0</asrwt>
<pdfrwt beam="1">  1        2 0.34764674E+00 0.99896390E+03</pdfrwt>
<pdfrwt beam="2">  1       -2 0.16985359E-01 0.99896390E+03</pdfrwt>
<totfact> 0.15566423E+02</totfact>
</mgrwt>
<rwgt>
<wgt id='morphing_basis_vector_1'> +2.5189591e-04 </wgt>
<wgt id='morphing_basis_vector_2'> +2.0485661e-04 </wgt>
<wgt id='morphing_basis_vector_3'> +2.4163740e-04 </wgt>
<wgt id='morphing_basis_vector_4'> +1.0606853e-04 </wgt>
<wgt id='morphing_basis_vector_5'> +2.1418904e-04 </wgt>
</rwgt>
</event>
<event>
 4      1 +1.4786900e-06 9.05216600e+02 7.81860800e-03 8.78027300e-02
        2 -1    0    0  501    0 +0.0000000000e+00 +0.0000000000e+00 +7.1385674709e+02 7.1385674709e+02 0.0000000000e+00 0.0000e+00 -1.0000e+00
       -2 -1    0    0    0  501 -0.0000000000e+00 -0.0000000000e+00 -2.8696833342e+02 2.8696833342e+02 0.0000000000e+00 0.0000e+00 1.0000e+00
      -13  1    1    2    0    0 -4.5055020002e+02 +4.3109557092e+01 +2.1411158556e+02 5.0069720163e+02 0.0000000000e+00 0.0000e+00 1.0000e+00
       13  1    1    2    0    0 +4.5055020002e+02 -4.3109557092e+01 +2.1277682810e+02 5.0012787887e+02 0.0000000000e+00 0.0000e+00 -1.0000e+00
<mgrwt>
<rscale>  0 0.90521662E+03</rscale>
<asrwt>0</asrwt>
<pdfrwt beam="1">  1        2 0.10982411E+00 0.90521662E+03</pdfrwt>
<pdfrwt beam="2">  1       -2 0.44148975E-01 0.90521662E+03</pdfrwt>
<totfact> 0.23643674E+02</totfact>
</mgrwt>
<rwgt>
<wgt id='morphing_basis_vector_1'> +1.6756170e-04 </wgt>
<wgt id='morphing_basis_vector_2'> +1.1714718e-04 </wgt>
<wgt id='morphing_basis_vector_3'> +1.5597937e-04 </wgt>
<wgt id='morphing_basis_vector_4'> +8.0652602e-05 </wgt>
<wgt id='morphing_basis_vector_5'> +1.3978691e-04 </wgt>
</rwgt>
</event>
<event>
 4      1 +1.4786900e-06 9.33588500e+02 7.81860800e-03 8.75034300e-02
        2 -1    0    0  501    0 +0.0000000000e+00 +0.0000000000e+00 +9.5315863146e+02 9.5315863146e+02 0.0000000000e+00 0.0000e+00 -1.0000e+00
       -2 -1    0    0    0  501 -0.0000000000e+00 -0.0000000000e+00 -2.2860504730e+02 2.2860504730e+02 0.0000000000e+00 0.0000e+00 1.0000e+00
      -13  1    1    2    0    0 +1.8517605649e+02 +9.2209196213e+01 -1.6741516917e+02 2.6612130060e+02 0.0000000000e+00 0.0000e+00 1.0000e+00
       13  1    1    2    0    0 -1.8517605649e+02 -9.2209196213e+01 +8.9196875333e+02 9.1564237816e+02 0.0000000000e+00 0.0000e+00 -1.0000e+00
<mgrwt>
<rscale>  0 0.93358850E+03</rscale>
<asrwt>0</asrwt>
<pdfrwt beam="1">  1        2 0.14663979E+00 0.93358850E+03</pdfrwt>
<pdfrwt beam="2">  1       -2 0.35170008E-01 0.93358850E+03</pdfrwt>
<totfact> 0.24701976E+02</totfact>
</mgrwt>
<rwgt>
<wgt id='morphing_basis_vector_1'> +1.8106535e-04 </wgt>
<wgt id='morphing_basis_vector_2'> +1.1205322e-04 </wgt>
<wgt id='morphing_basis_vector_3'> +1.7098277e-04 </wgt>
<wgt id='morphing_basis_vector_4'> +1.0173414e-04 </wgt>
<wgt id='morphing_basis_vector_5'> +1.6068386e-04 </wgt>
</rwgt>
</event>
<event>
 4      1 +1.4786900e-06 9.32908400e+02 7.81860800e-03 8.75104800e-02
        2 -1    0    0  501    0 +0.0000000000e+00 +0.0000000000e+00 +2.3133052198e+03 2.3133052198e+03 0.0000000000e+00 0.0000e+00 1.0000e+00
       -2 -1    0    0    0  501 -0.0000000000e+00 -0.0000000000e+00 -9.4055685265e+01 9.4055685265e+01 0.0000000000e+00 0.0000e+00 -1.0000e+00
      -13  1    1    2    0    0 +9.5499489858e+01 +4.0347293622e+02 +1.6610830978e+03 1.7120477857e+03 0.0000000000e+00 0.0000e+00 1.0000e+00
       13  1    1    2    0    0 -9.5499489858e+01 -4.0347293622e+02 +5.5816643674e+02 6.9531311934e+02 0.0000000000e+00 0.0000e+00 -1.0000e+00
<mgrwt>
<rscale>  0 0.93290837E+03</rscale>
<asrwt>0</asrwt>
<pdfrwt beam="1">  1        2 0.35589307E+00 0.93290837E+03</pdfrwt>
<pdfrwt beam="2">  1       -2 0.14470107E-01 0.93290837E+03</pdfrwt>
<totfact> 0.18942392E+02</totfact>
</mgrwt>
<rwgt>
<wgt id='morphing_basis_vector_1'> +2.0953055e-04 </wgt>
<wgt id='morphing_basis_vector_2'> +1.9969048e-04 </wgt>
<wgt id='morphing_basis_vector_3'> +1.9471088e-04 </wgt>
<wgt id='morphing_basis_vector_4'> +5.8976010e-05 </wgt>
<wgt id='morphing_basis_vector_5'> +1.5782154e-04 </wgt>
</rwgt>
</event>
<event>
 4      1 +1.4786900e-06 9.18925400e+02 7.81860800e-03 8.76567000e-02
        2 -1    0    0  501    0 +0.0000000000e+00 +0.0000000000e+00 +3.6818449387e+03 3.6818449387e+03 0.0000000000e+00 0.0000e+00 -1.0000e+00
       -2 -1    0    0    0  501 -0.0000000000e+00 -0.0000000000e+00 -5.7337010955e+01 5.7337010955e+01 0.0000000000e+00 0.0000e+00 1.0000e+00
      -13  1    1    2    0    0 +4.2320241225e+02 -1.7047553423e+01 +1.0876023630e+03 1.1671631424e+03 0.0000000000e+00 0.0000e+00 1.0000e+00
       13  1    1    2    0    0 -4.2320241225e+02 +1.7047553423e+01 +2.5369055647e+03 2.5720188073e+03 0.0000000000e+00 0.0000e+00 -1.0000e+00
<mgrwt>
<rscale>  0 0.91892542E+03</rscale>
<asrwt>0</asrwt>
<pdfrwt beam="1">  1        2 0.56643750E+00 0.91892542E+03</pdfrwt>
<pdfrwt beam="2">  1       -2 0.88210815E-02 0.91892542E+03</pdfrwt>
<totfact> 0.54092228E+01</totfact>
</mgrwt>
<rwgt>
<wgt id='morphing_basis_vector_1'> +1.7216623e-04 </wgt>
<wgt id='morphing_basis_vector_2'> +1.0933694e-04 </wgt>
<wgt id='morphing_basis_vector_3'> +1.6167370e-04 </wgt>
<wgt id='morphing_basis_vector_4'> +9.3102365e-05 </wgt>
<wgt id='morphing_basis_vector_5'> +1.4975836e-04 </wgt>
</rwgt>
</event>
<event>
 4      1 +1.4786900e-06 9.12258200e+02 7.81860800e-03 8.77273900e-02
        2 -1    0    0  501    0 +0.0000000000e+00 +0.0000000000e+00 +1.0236986082e+03 1.0236986082e+03 0.0000000000e+00 0.0000e+00 -1.0000e+00
       -2 -1    0    0    0  501 -0.0000000000e+00 -0.0000000000e+00 -2.0323730674e+02 2.0323730674e+02 0.0000000000e+00 0.0000e+00 1.0000e+00
      -13  1    1    2    0    0 -8.6667954655e+01 -3.2686682376e+02 -1.4638350751e+00 3.3816474928e+02 0.0000000000e+00 0.0000e+00 1.0000e+00
       13  1    1    2    0    0 +8.6667954655e+01 +3.2686682376e+02 +8.2192513650e+02 8.8877116563e+02 0.0000000000e+00 0.0000e+00 -1.0000e+00
<mgrwt>
<rscale>  0 0.91225818E+03</rscale>
<asrwt>0</asrwt>
<pdfrwt beam="1">  1        2 0.15749209E+00 0.91225818E+03</pdfrwt>
<pdfrwt beam="2">  1       -2 0.31267278E-01 0.91225818E+03</pdfrwt>
<totfact> 0.27605491E+02</totfact>
</mgrwt>
<rwgt>
<wgt id='morphing_basis_vector_1'> +1.6666302e-04 </wgt>
<wgt id='morphing_basis_vector_2'> +1.0331960e-04 </wgt>
<wgt id='morphing_basis_vector_3'> +1.5628964e-04 </wgt>
<wgt id='morphing_basis_vector_4'> +9.1616941e-05 </wgt>
<wgt id='morphing_basis_vector_5'> +1.4509676e-04 </wgt>
</rwgt>
</event>
<event>
 4      1 +1.4786900e-06 9.67444600e+02 7.81860800e-03 8.71605100e-02
        2 -1    0    0  501    0 +0.0000000000e+00 +0.0000000000e+00 +8.5884694208e+02 8.5884694208e+02 0.0000000000e+00 0.0000e+00 -1.0000e+00
       -2 -1    0    0    0  501 -0.0000000000e+00 -0.0000000000e+00 -2.7244348168e+02 2.7244348168e+02 0.0000000000e+00 0.0000e+00 1.0000e+00
      -13  1    1    2    0    0 -4.6939300513e+02 +1.0879098020e+02 +3.4311544334e+02 5.9151794402e+02 0.0000000000e+00 0.0000e+00 1.0000e+00
       13  1    1    2    0    0 +4.6939300513e+02 -1.0879098020e+02 +2.4328801705e+02 5.3977247974e+02 0.0000000000e+00 0.0000e+00 -1.0000e+00
<mgrwt>
<rscale>  0 0.96744457E+03</rscale>
<asrwt>0</asrwt>
<pdfrwt beam="1">  1        2 0.13213030E+00 0.96744457E+03</pdfrwt>
<pdfrwt beam="2">  1       -2 0.41914382E-01 0.96744457E+03</pdfrwt>
<totfact> 0.20529948E+02</totfact>
</mgrwt>
<rwgt>
<wgt id='morphing_basis_vector_1'> +2.1636361e-04 </wgt>
<wgt id='morphing_basis_vector_2'> +1.5886238e-04 </wgt>
<wgt id='morphing_basis_vector_3'> +2.0568508e-04 </wgt>
<wgt id='morphing_basis_vector_4'> +1.0364427e-04 </wgt>
<wgt id='morphing_basis_vector_5'> +1.8696895e-04 </wgt>
</rwgt>
</event>
<event>
 4      1 +1.4786900e-06 9.59142800e+02 7.81860800e-03 8.72432300e-02
        2 -1    0    0  501    0 +0.0000000000e+00 +0.0000000000e+00 +7.1700616385e+02 7.1700616385e+02 0.0000000000e+00 0.0000e+00 -1.0000e+00
       -2 -1    0    0    0  501 -0.0000000000e+00 -0.0000000000e+00 -3.2076252283e+02 3.2076252283e+02 0.0000000000e+00 0.0000e+00 1.0000e+00
      -13  1    1    2    0    0 +1.5192953451e+02 +3.9756175545e+02 -4.1018624196e+01 4.2757509327e+02 0.0000000000e+00 0.0000e+00 1.0000e+00
       13  1    1    2    0    0 -1.5192953451e+02 -3.9756175545e+02 +4.3726226521e+02 6.1019359341e+02 0.0000000000e+00 0.0000e+00 -1.0000e+00
<mgrwt>
<rscale>  0 0.95914275E+03</rscale>
<asrwt>0</asrwt>
<pdfrwt beam="1">  1        2 0.11030864E+00 0.95914275E+03</pdfrwt>
<pdfrwt beam="2">  1       -2 0.49348081E-01 0.95914275E+03</pdfrwt>
<totfact> 0.18913220E+02</totfact>
</mgrwt>
<rwgt>
<wgt id='morphing_basis_vector_1'> +2.0092493e-04 </wgt>
<wgt id='morphing_basis_vector_2'> +1.2737356e-04 </wgt>
<wgt id='morphing_basis_vector_3'> +1.9110546e-04 </wgt>
<wgt id='morphing_basis_vector_4'> +1.1287830e-04 </wgt>
<wgt id='morphing_basis_vector_5'> +1.8080668e-04 </wgt>
</rwgt>
</event>
<event>
 4      1 +1.4786900e-06 9.45928800e+02 7.81860800e-03 8.73767100e-02
        2 -1    0    0  501    0 +0.0000000000e+00 +0.0000000000e+00 +2.2434834710e+02 2.2434834710e+02 0.0000000000e+00 0.0000e+00 1.0000e+00
       -2 -1    0    0    0  501 -0.0000000000e+00 -0.0000000000e+00 -9.9708931362e+02 9.9708931362e+02 0.0000000000e+00 0.0000e+00 -1.0000e+00
      -13  1    1    2    0    0 -6.8677505939e+01 -4.1364340904e+02 -6.6891068595e+02 7.8946752653e+02 0.0000000000e+00 0.0000e+00 -1.0000e+00
       13  1    1    2    0    0 +6.8677505939e+01 +4.1364340904e+02 -1.0383028056e+02 4.3197013418e+02 0.0000000000e+00 0.0000e+00 1.0000e+00
<mgrwt>
<rscale>  0 0.94592883E+03</rscale>
<asrwt>0</asrwt>
<pdfrwt beam="1">  1        2 0.34515130E-01 0.94592883E+03</pdfrwt>
<pdfrwt beam="2">  1       -2 0.15339836E+00 0.94592883E+03</pdfrwt>
<totfact> 0.50494694E+01</totfact>
</mgrwt>
<rwgt>
<wgt id='morphing_basis_vector_1'> +1.9095079e-04 </wgt>
<wgt id='morphing_basis_vector_2'> +1.2077362e-04 </wgt>
<wgt id='morphing_basis_vector_3'> +1.8090351e-04 </wgt>
<wgt id='morphing_basis_vector_4'> +1.0628364e-04 </wgt>
<wgt id='morphing_basis_vector_5'> +1.7014534e-04 </wgt>
</rwgt>
</event>
<event>
 4      1 +1.4786900e-06 1.00025100e+03 7.81860800e-03 8.68419000e-02
        2 -1    0    0  501    0 +0.0000000000e+00 +0.0000000000e+00 +1.3753300642e+03 1.3753300642e+03 0.0000000000e+00 0.0000e+00 1.0000e+00
       -2 -1    0    0    0  501 -0.0000000000e+00 -0.0000000000e+00 -1.8186568463e+02 1.8186568463e+02 0.0000000000e+00 0.0000e+00 -1.0000e+00
      -13  1    1    2    0    0 +1.6426915662e+02 +2.4103119373e+02 +1.2291957185e+03 1.2633299279e+03 0.0000000000e+00 0.0000e+00 1.0000e+00
       13  1    1    2    0    0 -1.6426915662e+02 -2.4103119373e+02 -3.5731338932e+01 2.9386582100e+02 0.0000000000e+00 0.0000e+00 -1.0000e+00
<mgrwt>
<rscale>  0 0.10002507E+04</rscale>
<asrwt>0</asrwt>
<pdfrwt beam="1">  1        2 0.21158923E+00 0.10002507E+04</pdfrwt>
<pdfrwt beam="2">  1       -2 0.27979337E-01 0.10002507E+04</pdfrwt>
<totfact> 0.20809064E+02</totfact>
</mgrwt>
<rwgt>
<wgt id='morphing_basis_vector_1'> +3.1109310e-04 </wgt>
<wgt id='morphing_basis_vector_2'> +3.8146824e-04 </wgt>
<wgt id='morphing_basis_vector_3'> +2.9682429e-04 </wgt>
<wgt id='morphing_basis_vector_4'> +1.7055842e-05 </wgt>
<wgt id='morphing_basis_vector_5'> +2.1004872e-04 </wgt>
</rwgt>
</event>
<event>
 4      1 +1.4786900e-06 1.03179300e+03 7.81860800e-03 8.65473200e-02
        2 -1    0    0  501    0 +0.0000000000e+00 +0.0000000000e+00 +7.1121811878e+02 7.1121811878e+02 0.0000000000e+00 0.0000e+00 -1.0000e+00
       -2 -1    0    0    0  501 -0.0000000000e+00 -0.0000000000e+00 -3.7421623326e+02 3.7421623326e+02 0.0000000000e+00 0.0000e+00 1.0000e+00
      -13  1    1    2    0    0 +4.0360329248e+01 +4.3430512658e+02 -1.2132029703e+02 4.5273448468e+02 0.0000000000e+00 0.0000e+00 1.0000e+00
       13  1    1    2    0    0 -4.0360329248e+01 -4.3430512658e+02 +4.5832218254e+02 6.3269986736e+02 0.0000000000e+00 0.0000e+00 -1.0000e+00
<mgrwt>
<rscale>  0 0.10317933E+04</rscale>
<asrwt>0</asrwt>
<pdfrwt beam="1">  1        2 0.10941817E+00 0.10317933E+04</pdfrwt>
<pdfrwt beam="2">  1       -2 0.57571728E-01 0.10317933E+04</pdfrwt>
<totfact> 0.13991065E+02</totfact>
</mgrwt>
<rwgt>
<wgt id='morphing_basis_vector_1'> +2.6265101e-04 </wgt>
<wgt id='morphing_basis_vector_2'> +1.6720499e-04 </wgt>
<wgt id='morphing_basis_vector_3'> +2.5470868e-04 </wgt>
<wgt id='morphing_basis_vector_4'> +1.5543057e-04 </wgt>
<wgt id='morphing_basis_vector_5'> +2.4839108e-04 </wgt>
</rwgt>
</event>
<event>
 4      1 +1.4786900e-06 9.24916100e+02 7.81860800e-03 8.75937200e-02
        2 -1    0    0  501    0 +0.0000000000e+00 +0.0000000000e+00 +3.2976733908e+02 3.2976733908e+02 0.0000000000e+00 0.0000e+00 1.0000e+00
       -2 -1    0    0    0  501 -0.0000000000e+00 -0.0000000000e+00 -6.4854042912e+02 6.4854042912e+02 0.0000000000e+00 0.0000e+00 -1.0000e+00
      -13  1    1    2    0    0 -3.5319455003e+02 -4.1933405513e+01 -4.7202043976e+02 5.9102292360e+02 0.0000000000e+00 0.0000e+00 -1.0000e+00
       13  1    1    2    0    0 +3.5319455003e+02 +4.1933405513e+01 +1.5324734972e+02 3.8728484461e+02 0.0000000000e+00 0.0000e+00 1.0000e+00
<mgrwt>
<rscale>  0 0.92491611E+03</rscale>
<asrwt>0</asrwt>
<pdfrwt beam="1">  1        2 0.50733437E-01 0.92491611E+03</pdfrwt>
<pdfrwt beam="2">  1       -2 0.99775450E-01 0.92491611E+03</pdfrwt>
<totfact> 0.10145086E+02</totfact>
</mgrwt>
<rwgt>
<wgt id='morphing_basis_vector_1'> +1.7531147e-04 </wgt>
<wgt id='morphing_basis_vector_2'> +1.0908492e-04 </wgt>
<wgt id='morphing_basis_vector_3'> +1.6506566e-04 </wgt>
<wgt id='morphing_basis_vector_4'> +9.7215701e-05 </wgt>
<wgt id='morphing_basis_vector_5'> +1.5418970e-04 </wgt>
</rwgt>
</event>
<event>
 4      1 +1.4786900e-06 9.27441600e+02 7.81860800e-03 8.75673200e-02
        2 -1    0    0  501    0 +0.0000000000e+00 +0.0000000000e+00 +1.4718000369e+03 1.4718000369e+03 0.0000000000e+00 0.0000e+00 -1.0000e+00
       -2 -1    0    0    0  501 -0.0000000000e+00 -0.0000000000e+00 -1.4610473808e+02 1.4610473808e+02 0.0000000000e+00 0.0000e+00 1.0000e+00
      -13  1    1    2    0    0 +7.1837838523e+01 -3.4308527101e+02 +1.3323502679e+02 3.7499300073e+02 0.0000000000e+00 0.0000e+00 1.0000e+00
       13  1    1    2    0    0 -7.1837838523e+01 +3.4308527101e+02 +1.1924602721e+03 1.2429117743e+03 0.0000000000e+00 0.0000e+00 -1.0000e+00
<mgrwt>
<rscale>  0 0.92744155E+03</rscale>
<asrwt>0</asrwt>
<pdfrwt beam="1">  1        2 0.22643077E+00 0.92744155E+03</pdfrwt>
<pdfrwt beam="2">  1       -2 0.22477653E-01 0.92744155E+03</pdfrwt>
<totfact> 0.26905026E+02</totfact>
</mgrwt>
<rwgt>
<wgt id='morphing_basis_vector_1'> +1.7703063e-04 </wgt>
<wgt id='morphing_basis_vector_2'> +1.1012079e-04 </wgt>
<wgt id='morphing_basis_vector_3'> +1.6682164e-04 </wgt>
<wgt id='morphing_basis_vector_4'> +9.8430611e-05 </wgt>
<wgt id='morphing_basis_vector_5'> +1.5605600e-04 </wgt>
</rwgt>
</event>
<event>
 4      1 +1.4786900e-06 9.39782600e+02 7.81860800e-03 8.74395700e-02
        2 -1    0    0  501    0 +0.0000000000e+00 +0.0000000000e+00 +3.7341401723e+02 3.7341401723e+02 0.0000000000e+00 0.0000e+00 -1.0000e+00
       -2 -1    0    0    0  501 -0.0000000000e+00 -0.0000000000e+00 -5.9129491977e+02 5.9129491977e+02 0.0000000000e+00 0.0000e+00 1.0000e+00
      -13  1    1    2    0    0 -4.3307204352e+02 -1.6652993954e+02 -3.2713243392e+01 4.6513844384e+02 0.0000000000e+00 0.0000e+00 1.0000e+00
       13  1    1    2    0    0 +4.3307204352e+02 +1.6652993954e+02 -1.8516765915e+02 4.9957049316e+02 0.0000000000e+00 0.0000e+00 -1.0000e+00
<mgrwt>
<rscale>  0 0.93978255E+03</rscale>
<asrwt>0</asrwt>
<pdfrwt beam="1">  1        2 0.57448310E-01 0.93978255E+03</pdfrwt>
<pdfrwt beam="2">  1       -2 0.90968449E-01 0.93978255E+03</pdfrwt>
<totfact> 0.10966663E+02</totfact>
</mgrwt>
<rwgt>
<wgt id='morphing_basis_vector_1'> +1.9697349e-04 </wgt>
<wgt id='morphing_basis_vector_2'> +1.4977452e-04 </wgt>
<wgt id='morphing_basis_vector_3'> +1.8521906e-04 </wgt>
<wgt id='morphing_basis_vector_4'> +8.7786867e-05 </wgt>
<wgt id='morphing_basis_vector_5'> +1.6447897e-04 </wgt>
</rwgt>
</event>
<event>
 4      1 +1.4786900e-06 1.06929900e+03 7.81860800e-03 8.62109300e-02
        2 -1    0    0  501    0 +0.0000000000e+00 +0.0000000000e+00 +1.4955854070e+03 1.4955854070e+03 0.0000000000e+00 0.0000e+00 1.0000e+00
       -2 -1    0    0    0  501 -0.0000000000e+00 -0.0000000000e+00 -1.9112910094e+02 1.9112910094e+02 0.0000000000e+00 0.0000e+00 -1.0000e+00
      -13  1    1    2    0    0 +1.3986971361e+02 +3.2236599523e+02 +1.6618020954e+01 3.5179472748e+02 0.0000000000e+00 0.0000e+00 -1.0000e+00
       13  1    1    2    0    0 -1.3986971361e+02 -3.2236599523e+02 +1.2878382851e+03 1.3349197805e+03 0.0000000000e+00 0.0000e+00 1.0000e+00
<mgrwt>
<rscale>  0 0.10692986E+04</rscale>
<asrwt>0</asrwt>
<pdfrwt beam="1">  1        2 0.23009005E+00 0.10692986E+04</pdfrwt>
<pdfrwt beam="2">  1       -2 0.29404478E-01 0.10692986E+04</pdfrwt>
<totfact> 0.16251910E+02</totfact>
</mgrwt>
<rwgt>
<wgt id='morphing_basis_vector_1'> +2.9912735e-04 </wgt>
<wgt id='morphing_basis_vector_2'> +1.8931900e-04 </wgt>
<wgt id='morphing_basis_vector_3'> +2.9256357e-04 </wgt>
<wgt id='morphing_basis_vector_4'> +1.8250819e-04 </wgt>
<wgt id='morphing_basis_vector_5'> +2.8978444e-04 </wgt>
</rwgt>
</event>
<event>
 4      1 +1.4786900e-06 9.02894200e+02 7.81860800e-03 8.78277400e-02
        2 -1    0    0  501    0 +0.0000000000e+00 +0.0000000000e+00 +4.5459563527e+02 4.5459563527e+02 0.0000000000e+00 0.0000e+00 -1.0000e+00
       -2 -1    0    0    0  501 -0.0000000000e+00 -0.0000000000e+00 -4.4832033054e+02 4.4832033054e+02 0.0000000000e+00 0.0000e+00 1.0000e+00
      -13  1    1    2    0    0 -1.4165094396e+01 -4.0939914677e+02 -1.8659345474e+02 4.5013934357e+02 0.0000000000e+00 0.0000e+00 1.0000e+00
       13  1    1    2    0    0 +1.4165094396e+01 +4.0939914677e+02 +1.9286875947e+02 4.5277662225e+02 0.0000000000e+00 0.0000e+00 -1.0000e+00
<mgrwt>
<rscale>  0 0.90289416E+03</rscale>
<asrwt>0</asrwt>
<pdfrwt beam="1">  1        2 0.69937790E-01 0.90289416E+03</pdfrwt>
<pdfrwt beam="2">  1       -2 0.68972358E-01 0.90289416E+03</pdfrwt>
<totfact> 0.16377201E+02</totfact>
</mgrwt>
<rwgt>
<wgt id='morphing_basis_vector_1'> +1.6131553e-04 </wgt>
<wgt id='morphing_basis_vector_2'> +1.0174744e-04 </wgt>
<wgt id='morphing_basis_vector_3'> +1.5068931e-04 </wgt>
<wgt id='morphing_basis_vector_4'> +8.6438363e-05 </wgt>
<wgt id='morphing_basis_vector_5'> +1.3856208e-04 </wgt>
</rwgt>
</event>
<event>
 4      1 +1.4786900e-06 9.42280400e+02 7.81860800e-03 8.74139600e-02
        2 -1    0    0  501    0 +0.0000000000e+00 +0.0000000000e+00 +5.7864503757e+02 5.7864503757e+02 0.0000000000e+00 0.0000e+00 -1.0000e+00
       -2 -1    0    0    0  501 -0.0000000000e+00 -0.0000000000e+00 -3.8360841367e+02 3.8360841367e+02 0.0000000000e+00 0.0000e+00 1.0000e+00
      -13  1    1    2    0    0 -2.8784690010e+02 +5.8318987773e+01 -2.7868714356e+02 4.0487463024e+02 0.0000000000e+00 0.0000e+00 1.0000e+00
       13  1    1    2    0    0 +2.8784690010e+02 -5.8318987773e+01 +4.7372376746e+02 5.5737882099e+02 0.0000000000e+00 0.0000e+00 -1.0000e+00
<mgrwt>
<rscale>  0 0.94228044E+03</rscale>
<asrwt>0</asrwt>
<pdfrwt beam="1">  1        2 0.89022314E-01 0.94228044E+03</pdfrwt>
<pdfrwt beam="2">  1       -2 0.59016679E-01 0.94228044E+03</pdfrwt>
<totfact> 0.17132083E+02</totfact>
</mgrwt>
<rwgt>
<wgt id='morphing_basis_vector_1'> +1.8739528e-04 </wgt>
<wgt id='morphing_basis_vector_2'> +1.1635559e-04 </wgt>
<wgt id='morphing_basis_vector_3'> +1.7742062e-04 </wgt>
<wgt id='morphing_basis_vector_4'> +1.0579976e-04 </wgt>
<wgt id='morphing_basis_vector_5'> +1.6735622e-04 </wgt>
</rwgt>
</event>
<event>
 4      1 +1.4786900e-06 1.06099300e+03 7.81860800e-03 8.62841800e-02
        2 -1    0    0  501    0 +0.0000000000e+00 +0.0000000000e+00 +9.6993328829e+02 9.6993328829e+02 0.0000000000e+00 0.0000e+00 1.0000e+00
       -2 -1    0    0    0  501 -0.0000000000e+00 -0.0000000000e+00 -2.9015026499e+02 2.9015026499e+02 0.0000000000e+00 0.0000e+00 -1.0000e+00
      -13  1    1    2    0    0 -2.2497454763e+02 +4.7091582411e+02 +2.2690188488e+02 5.6908674720e+02 0.0000000000e+00 0.0000e+00 -1.0000e+00
       13  1    1    2    0    0 +2.2497454763e+02 -4.7091582411e+02 +4.5288113843e+02 6.9099680608e+02 0.0000000000e+00 0.0000e+00 1.0000e+00
<mgrwt>
<rscale>  0 0.10609927E+04</rscale>
<asrwt>0</asrwt>
<pdfrwt beam="1">  1        2 0.14922050E+00 0.10609927E+04</pdfrwt>
<pdfrwt beam="2">  1       -2 0.44638503E-01 0.10609927E+04</pdfrwt>
<totfact> 0.15341158E+02</totfact>
</mgrwt>
<rwgt>
<wgt id='morphing_basis_vector_1'> +2.9563789e-04 </wgt>
<wgt id='morphing_basis_vector_2'> +1.9905077e-04 </wgt>
<wgt id='morphing_basis_vector_3'> +2.8875413e-04 </wgt>
<wgt id='morphing_basis_vector_4'> +1.6835711e-04 </wgt>
<wgt id='morphing_basis_vector_5'> +2.7971832e-04 </wgt>
</rwgt>
</event>
<event>
 4      1 +1.4786900e-06 9.75296900e+02 7.81860800e-03 8.70830700e-02
        2 -1    0    0  501    0 +0.0000000000e+00 +0.0000000000e+00 +1.8566328000e+03 1.8566328000e+03 0.0000000000e+00 0.0000e+00 -1.0000e+00
       -2 -1    0    0    0  501 -0.0000000000e+00 -0.0000000000e+00 -1.2808187794e+02 1.2808187794e+02 0.0000000000e+00 0.0000e+00 1.0000e+00
      -13  1    1    2    0    0 -4.3589675289e+02 +7.2945935018e+01 +4.4488124016e+02 6.2709361858e+02 0.0000000000e+00 0.0000e+00 1.0000e+00
       13  1    1    2    0    0 +4.3589675289e+02 -7.2945935018e+01 +1.2836696819e+03 1.3576210594e+03 0.0000000000e+00 0.0000e+00 -1.0000e+00
<mgrwt>
<rscale>  0 0.97529691E+03</rscale>
<asrwt>0</asrwt>
<pdfrwt beam="1">  1        2 0.28563580E+00 0.97529691E+03</pdfrwt>
<pdfrwt beam="2">  1       -2 0.19704906E-01 0.97529691E+03</pdfrwt>
<totfact> 0.20502234E+02</totfact>
</mgrwt>
<rwgt>
<wgt id='morphing_basis_vector_1'> +2.1388018e-04 </wgt>
<wgt id='morphing_basis_vector_2'> +1.3648167e-04 </wgt>
<wgt id='morphing_basis_vector_3'> +2.0436047e-04 </wgt>
<wgt id='morphing_basis_vector_4'> +1.2100738e-04 </wgt>
<wgt id='morphing_basis_vector_5'> +1.9447235e-04 </wgt>
</rwgt>
</event>
<event>
 4      1 +1.4786900e-06 1.02338000e+03 7.81860800e-03 8.66248200e-02
        2 -1    0    0  501    0 +0.0000000000e+00 +0.0000000000e+00 +4.6628409586e+02 4.6628409586e+02 0.0000000000e+00 0.0000e+00 -1.0000e+00
       -2 -1    0    0    0  501 -0.0000000000e+00 -0.0000000000e+00 -5.6151714211e+02 5.6151714211e+02 0.0000000000e+00 0.0000e+00 1.0000e+00
      -13  1    1    2    0    0 +1.5138209939e+02 -9.8266711272e+01 -5.2848957178e+02 5.5845690437e+02 0.0000000000e+00 0.0000e+00 1.0000e+00
       13  1    1    2    0    0 -1.5138209939e+02 +9.8266711272e+01 +4.3325652553e+02 4.6934433359e+02 0.0000000000e+00 0.0000e+00 -1.0000e+00
<mgrwt>
<rscale>  0 0.10233797E+04</rscale>
<asrwt>0</asrwt>
<pdfrwt beam="1">  1        2 0.71736015E-01 0.10233797E+04</pdfrwt>
<pdfrwt beam="2">  1       -2 0.86387253E-01 0.10233797E+04</pdfrwt>
<totfact> 0.95676842E+01</totfact>
</mgrwt>
<rwgt>
<wgt id='morphing_basis_vector_1'> +2.5388280e-04 </wgt>
<wgt id='morphing_basis_vector_2'> +1.5926757e-04 </wgt>
<wgt id='morphing_basis_vector_3'> +2.4571043e-04 </wgt>
<wgt id='morphing_basis_vector_4'> +1.5148088e-04 </wgt>
<wgt id='morphing_basis_vector_5'> +2.3983883e-04 </wgt>
</rwgt>
</event>
<event>
 4      1 +1.4786900e-06 9.62367600e+02 7.81860800e-03 8.72109900e-02
        2 -1    0    0  501    0 +0.0000000000e+00 +0.0000000000e+00 +3.5534618699e+02 3.5534618699e+02 0.0000000000e+00 0.0000e+00 -1.0000e+00
       -2 -1    0    0    0  501 -0.0000000000e+00 -0.0000000000e+00 -6.5158387487e+02 6.5158387487e+02 0.0000000000e+00 0.0000e+00 1.0000e+00
      -13  1    1    2    0    0 +2.5627428494e+02 +3.9785607892e+02 -5.7073008248e+01 4.7667944881e+02 0.0000000000e+00 0.0000e+00 1.0000e+00
       13  1    1    2    0    0 -2.5627428494e+02 -3.9785607892e+02 -2.3916467964e+02 5.3025061305e+02 0.0000000000e+00 0.0000e+00 -1.0000e+00
<mgrwt>
<rscale>  0 0.96236759E+03</rscale>
<asrwt>0</asrwt>
<pdfrwt beam="1">  1        2 0.54668645E-01 0.96236759E+03</pdfrwt>
<pdfrwt beam="2">  1       -2 0.10024367E+00 0.96236759E+03</pdfrwt>
<totfact> 0.92000200E+01</totfact>
</mgrwt>
<rwgt>
<wgt id='morphing_basis_vector_1'> +2.1591719e-04 </wgt>
<wgt id='morphing_basis_vector_2'> +1.6693998e-04 </wgt>
<wgt id='morphing_basis_vector_3'> +2.0465080e-04 </wgt>
<wgt id='morphing_basis_vector_4'> +9.5757620e-05 </wgt>
<wgt id='morphing_basis_vector_5'> +1.8240450e-04 </wgt>
</rwgt>
</event>
<event>
 4      1 +1.4786900e-06 1.04208600e+03 7.81860800e-03 8.64535400e-02
        2 -1    0    0  501    0 +0.0000000000e+00 +0.0000000000e+00 +3.3399231103e+02 3.3399231103e+02 0.0000000000e+00 0.0000e+00 -1.0000e+00
       -2 -1    0    0    0  501 -0.0000000000e+00 -0.0000000000e+00 -8.1285099083e+02 8.1285099083e+02 0.0000000000e+00 0.0000e+00 1.0000e+00
      -13  1    1    2    0    0 -3.2994076063e+02 -1.7351890099e+02 -6.4005150923e+02 7.4069943229e+02 0.0000000000e+00 0.0000e+00 1.0000e+00
       13  1    1    2    0    0 +3.2994076063e+02 +1.7351890099e+02 +1.6119282943e+02 4.0614386957e+02 0.0000000000e+00 0.0000e+00 -1.0000e+00
<mgrwt>
<rscale>  0 0.10420863E+04</rscale>
<asrwt>0</asrwt>
<pdfrwt beam="1">  1        2 0.51383433E-01 0.10420863E+04</pdfrwt>
<pdfrwt beam="2">  1       -2 0.12505400E+00 0.10420863E+04</pdfrwt>
<totfact> 0.56100549E+01</totfact>
</mgrwt>
<rwgt>
<wgt id='morphing_basis_vector_1'> +2.7187094e-04 </wgt>
<wgt id='morphing_basis_vector_2'> +1.7176784e-04 </wgt>
<wgt id='morphing_basis_vector_3'> +2.6429018e-04 </wgt>
<wgt id='morphing_basis_vector_4'> +1.6322560e-04 </wgt>
<wgt id='morphing_basis_vector_5'> +2.5933038e-04 </wgt>
</rwgt>
</event>
<event>
 4      1 +1.4786900e-06 9.18667800e+02 7.81860800e-03 8.76594200e-02
        2 -1    0    0  501    0 +0.0000000000e+00 +0.0000000000e+00 +2.3039532004e+03 2.3039532004e+03 0.0000000000e+00 0.0000e+00 1.0000e+00
       -2 -1    0    0    0  501 -0.0000000000e+00 -0.0000000000e+00 -9.1576344180e+01 9.1576344180e+01 0.0000000000e+00 0.0000e+00 -1.0000e+00
      -13  1    1    2    0    0 -3.1938588907e+02 -1.0554394363e+02 +1.9218367086e+03 1.9510518201e+03 0.0000000000e+00 0.0000e+00 1.0000e+00
       13  1    1    2    0    0 +3.1938588907e+02 +1.0554394363e+02 +2.9054014759e+02 4.4447772446e+02 0.0000000000e+00 0.0000e+00 -1.0000e+00
<mgrwt>
<rscale>  0 0.91866776E+03</rscale>
<asrwt>0</asrwt>
<pdfrwt beam="1">  1        2 0.35445429E+00 0.91866776E+03</pdfrwt>
<pdfrwt beam="2">  1       -2 0.14088670E-01 0.91866776E+03</pdfrwt>
<totfact> 0.20048067E+02</totfact>
</mgrwt>
<rwgt>
<wgt id='morphing_basis_vector_1'> +2.1751948e-04 </wgt>
<wgt id='morphing_basis_vector_2'> +2.4765730e-04 </wgt>
<wgt id='morphing_basis_vector_3'> +1.9859244e-04 </wgt>
<wgt id='morphing_basis_vector_4'> +2.7087289e-05 </wgt>
<wgt id='morphing_basis_vector_5'> +1.4599570e-04 </wgt>
</rwgt>
</event>
<event>
 4      1 +1.4786900e-06 9.54308600e+02 7.81860800e-03 8.72918000e-02
        2 -1    0    0  501    0 +0.0000000000e+00 +0.0000000000e+00 +1.1499483604e+03 1.1499483604e+03 0.0000000000e+00 0.0000e+00 -1.0000e+00
       -2 -1    0    0    0  501 -0.0000000000e+00 -0.0000000000e+00 -1.9798823444e+02 1.9798823444e+02 0.0000000000e+00 0.0000e+00 1.0000e+00
      -13  1    1    2    0    0 -2.4455187627e+02 +2.1489880595e+02 -1.6747092852e+01 3.2598708887e+02 0.0000000000e+00 0.0000e+00 1.0000e+00
       13  1    1    2    0    0 +2.4455187627e+02 -2.1489880595e+02 +9.6870721876e+02 1.0219495059e+03 0.0000000000e+00 0.0000e+00 -1.0000e+00
<mgrwt>
<rscale>  0 0.95430864E+03</rscale>
<asrwt>0</asrwt>
<pdfrwt beam="1">  1        2 0.17691513E+00 0.95430864E+03</pdfrwt>
<pdfrwt beam="2">  1       -2 0.30459729E-01 0.95430864E+03</pdfrwt>
<totfact> 0.24218807E+02</totfact>
</mgrwt>
<rwgt>
<wgt id='morphing_basis_vector_1'> +1.9638026e-04 </wgt>
<wgt id='morphing_basis_vector_2'> +1.2234752e-04 </wgt>
<wgt id='morphing_basis_vector_3'> +1.8658598e-04 </wgt>
<wgt id='morphing_basis_vector_4'> +1.1170097e-04 </wgt>
<wgt id='morphing_basis_vector_5'> +1.7692367e-04 </wgt>
</rwgt>
</event>
<event>
 4      1 +1.4786900e-06 1.06139100e+03 7.81860800e-03 8.62806600e-02
        2 -1    0    0  501    0 +0.0000000000e+00 +0.0000000000e+00 +2.9783178485e+02 2.9783178485e+02 0.0000000000e+00 0.0000e+00 1.0000e+00
       -2 -1    0    0    0  501 -0.0000000000e+00 -0.0000000000e+00 -9.4562593821e+02 9.4562593821e+02 0.0000000000e+00 0.0000e+00 -1.0000e+00
      -13  1    1    2    0    0 +3.1374154283e+02 +3.3406326619e+02 -6.3739078231e+02 7.8504715202e+02 0.0000000000e+00 0.0000e+00 -1.0000e+00
       13  1    1    2    0    0 -3.1374154283e+02 -3.3406326619e+02 -1.0403371052e+01 4.5841057104e+02 0.0000000000e+00 0.0000e+00 1.0000e+00
<mgrwt>
<rscale>  0 0.10613905E+04</rscale>
<asrwt>0</asrwt>
<pdfrwt beam="1">  1        2 0.45820276E-01 0.10613905E+04</pdfrwt>
<pdfrwt beam="2">  1       -2 0.14548091E+00 0.10613905E+04</pdfrwt>
<totfact> 0.42202414E+01</totfact>
</mgrwt>
<rwgt>
<wgt id='morphing_basis_vector_1'> +2.9197423e-04 </wgt>
<wgt id='morphing_basis_vector_2'> +1.8702711e-04 </wgt>
<wgt id='morphing_basis_vector_3'> +2.8510009e-04 </wgt>
<wgt id='morphing_basis_vector_4'> +1.7517494e-04 </wgt>
<wgt id='morphing_basis_vector_5'> +2.8057994e-04 </wgt>
</rwgt>
</event>
<event>
 4      1 +1.4786900e-06 9.77331400e+02 7.81860800e-03 8.70631200e-02
        2 -1    0    0  501    0 +0.0000000000e+00 +0.0000000000e+00 +4.8626887651e+02 4.8626887651e+02 0.0000000000e+00 0.0000e+00 -1.0000e+00
       -2 -1    0    0    0  501 -0.0000000000e+00 -0.0000000000e+00 -4.9107433395e+02 4.9107433395e+02 0.0000000000e+00 0.0000e+00 1.0000e+00
      -13  1    1    2    0    0 +1.3625246672e+02 -1.3818453094e+02 -4.5088832271e+02 4.9087674505e+02 0.0000000000e+00 0.0000e+00 1.0000e+00
       13  1    1    2    0    0 -1.3625246672e+02 +1.3818453094e+02 +4.4608286527e+02 4.8646646541e+02 0.0000000000e+00 0.0000e+00 -1.0000e+00
<mgrwt>
<rscale>  0 0.97733140E+03</rscale>
<asrwt>0</asrwt>
<pdfrwt beam="1">  1        2 0.74810597E-01 0.97733140E+03</pdfrwt>
<pdfrwt beam="2">  1       -2 0.75549897E-01 0.97733140E+03</pdfrwt>
<totfact> 0.12396916E+02</totfact>
</mgrwt>
<rwgt>
<wgt id='morphing_basis_vector_1'> +2.1417198e-04 </wgt>
<wgt id='morphing_basis_vector_2'> +1.3346611e-04 </wgt>
<wgt id='morphing_basis_vector_3'> +2.0483266e-04 </wgt>
<wgt id='morphing_basis_vector_4'> +1.2416409e-04 </wgt>
<wgt id='morphing_basis_vector_5'> +1.9636773e-04 </wgt>
</rwgt>
</event>
<event>
 4      1 +1.4786900e-06 9.53932200e+02 7.81860800e-03 8.72955900e-02
        2 -1    0    0  501    0 +0.0000000000e+00 +0.0000000000e+00 +3.7858685637e+02 3.7858685637e+02 0.0000000000e+00 0.0000e+00 1.0000e+00
       -2 -1    0    0    0  501 -0.0000000000e+00 -0.0000000000e+00 -6.0091005278e+02 6.0091005278e+02 0.0000000000e+00 0.0000e+00 -1.0000e+00
      -13  1    1    2    0    0 +3.4581931305e+02 -2.8799731771e+02 +5.1070080766e+01 4.5292560695e+02 0.0000000000e+00 0.0000e+00 -1.0000e+00
       13  1    1    2    0    0 -3.4581931305e+02 +2.8799731771e+02 -2.7339327718e+02 5.2657130219e+02 0.0000000000e+00 0.0000e+00 1.0000e+00
<mgrwt>
<rscale>  0 0.95393217E+03</rscale>
<asrwt>0</asrwt>
<pdfrwt beam="1">  1        2 0.58244131E-01 0.95393217E+03</pdfrwt>
<pdfrwt beam="2">  1       -2 0.92447701E-01 0.95393217E+03</pdfrwt>
<totfact> 0.10387510E+02</totfact>
</mgrwt>
<rwgt>
<wgt id='morphing_basis_vector_1'> +2.1739298e-04 </wgt>
<wgt id='morphing_basis_vector_2'> +1.8679719e-04 </wgt>
<wgt id='morphing_basis_vector_3'> +2.0477021e-04 </wgt>
<wgt id='morphing_basis_vector_4'> +7.9732706e-05 </wgt>
<wgt id='morphing_basis_vector_5'> +1.7481405e-04 </wgt>
</rwgt>
</event>
<event>
 4      1 +1.4786900e-06 9.37418200e+02 7.81860800e-03 8.74638900e-02
        2 -1    0    0  501    0 +0.0000000000e+00 +0.0000000000e+00 +6.5517536314e+02 6.5517536314e+02 0.0000000000e+00 0.0000e+00 -1.0000e+00
       -2 -1    0    0    0  501 -0.0000000000e+00 -0.0000000000e+00 -3.3531207633e+02 3.3531207633e+02 0.0000000000e+00 0.0000e+00 1.0000e+00
      -13  1    1    2    0    0 +9.5690772579e+01 +4.1806012871e+02 +3.5973254819e+02 5.5976647042e+02 0.0000000000e+00 0.0000e+00 1.0000e+00
       13  1    1    2    0    0 -9.5690772579e+01 -4.1806012871e+02 -3.9869261379e+01 4.3072096905e+02 0.0000000000e+00 0.0000e+00 -1.0000e+00
<mgrwt>
<rscale>  0 0.93741818E+03</rscale>
<asrwt>0</asrwt>
<pdfrwt beam="1">  1        2 0.10079621E+00 0.93741818E+03</pdfrwt>
<pdfrwt beam="2">  1       -2 0.51586473E-01 0.93741818E+03</pdfrwt>
<totfact> 0.19375394E+02</totfact>
</mgrwt>
<rwgt>
<wgt id='morphing_basis_vector_1'> +2.0890858e-04 </wgt>
<wgt id='morphing_basis_vector_2'> +1.9010028e-04 </wgt>
<wgt id='morphing_basis_vector_3'> +1.9494542e-04 </wgt>
<wgt id='morphing_basis_vector_4'> +6.6608530e-05 </wgt>
<wgt id='morphing_basis_vector_5'> +1.6154577e-04 </wgt>
</rwgt>
</event>
<event>
 4      1 +1.4786900e-06 9.04027800e+02 7.81860800e-03 8.78155200e-02
        2 -1    0    0  501    0 +0.0000000000e+00 +0.0000000000e+00 +4.8705284229e+02 4.8705284229e+02 0.0000000000e+00 0.0000e+00 1.0000e+00
       -2 -1    0    0    0  501 -0.0000000000e+00 -0.0000000000e+00 -4.1949568816e+02 4.1949568816e+02 0.0000000000e+00 0.0000e+00 -1.0000e+00
      -13  1    1    2    0    0 +1.6309089286e+02 +3.7011186794e+02 +2.3617080953e+02 4.6835679284e+02 0.0000000000e+00 0.0000e+00 1.0000e+00
       13  1    1    2    0    0 -1.6309089286e+02 -3.7011186794e+02 -1.6861365539e+02 4.3819173761e+02 0.0000000000e+00 0.0000e+00 -1.0000e+00
<mgrwt>
<rscale>  0 0.90402780E+03</rscale>
<asrwt>0</asrwt>
<pdfrwt beam="1">  1        2 0.74931206E-01 0.90402780E+03</pdfrwt>
<pdfrwt beam="2">  1       -2 0.64537798E-01 0.90402780E+03</pdfrwt>
<totfact> 0.17419712E+02</totfact>
</mgrwt>
<rwgt>
<wgt id='morphing_basis_vector_1'> +1.8596078e-04 </wgt>
<wgt id='morphing_basis_vector_2'> +1.7498762e-04 </wgt>
<wgt id='morphing_basis_vector_3'> +1.7035992e-04 </wgt>
<wgt id='morphing_basis_vector_4'> +5.2782582e-05 </wgt>
<wgt id='morphing_basis_vector_5'> +1.3752004e-04 </wgt>
</rwgt>
</event>
<event>
 4      1 +1.4786900e-06 1.06539500e+03 7.81860800e-03 8.62452700e-02
        2 -1    0    0  501    0 +0.0000000000e+00 +0.0000000000e+00 +5.9214077274e+02 5.9214077274e+02 0.0000000000e+00 0.0000e+00 1.0000e+00
       -2 -1    0    0    0  501 -0.0000000000e+00 -0.0000000000e+00 -4.7922193466e+02 4.7922193466e+02 0.0000000000e+00 0.0000e+00 -1.0000e+00
      -13  1    1    2    0    0 -1.4267054034e+02 -3.7715851648e+02 -2.9357557062e+02 4.9878857776e+02 0.0000000000e+00 0.0000e+00 -1.0000e+00
       13  1    1    2    0    0 +1.4267054034e+02 +3.7715851648e+02 +4.0649440870e+02 5.7257412965e+02 0.0000000000e+00 0.0000e+00 1.0000e+00
<mgrwt>
<rscale>  0 0.10653954E+04</rscale>
<asrwt>0</asrwt>
<pdfrwt beam="1">  1        2 0.91098580E-01 0.10653954E+04</pdfrwt>
<pdfrwt beam="2">  1       -2 0.73726452E-01 0.10653954E+04</pdfrwt>
<totfact> 0.10355404E+02</totfact>
</mgrwt>
<rwgt>
<wgt id='morphing_basis_vector_1'> +2.9535669e-04 </wgt>
<wgt id='morphing_basis_vector_2'> +1.8751361e-04 </wgt>
<wgt id='morphing_basis_vector_3'> +2.8863870e-04 </wgt>
<wgt id='morphing_basis_vector_4'> +1.7922171e-04 </wgt>
<wgt id='morphing_basis_vector_5'> +2.8523659e-04 </wgt>
</rwgt>
</event>
<event>
 4      1 +1.4786900e-06 9.29058300e+02 7.81860800e-03 8.75504700e-02
        2 -1    0    0  501    0 +0.0000000000e+00 +0.0000000000e+00 +4.9653674526e+02 4.9653674526e+02 0.0000000000e+00 0.0000e+00 1.0000e+00
       -2 -1    0    0    0  501 -0.0000000000e+00 -0.0000000000e+00 -4.3458478360e+02 4.3458478360e+02 0.0000000000e+00 0.0000e+00 -1.0000e+00
      -13  1    1    2    0    0 -3.8114730763e+02 +1.6255937848e+02 -1.7946292836e+02 4.5155925890e+02 0.0000000000e+00 0.0000e+00 -1.0000e+00
       13  1    1    2    0    0 +3.8114730763e+02 -1.6255937848e+02 +2.4141489002e+02 4.7956226996e+02 0.0000000000e+00 0.0000e+00 1.0000e+00
<mgrwt>
<rscale>  0 0.92905826E+03</rscale>
<asrwt>0</asrwt>
<pdfrwt beam="1">  1        2 0.76390268E-01 0.92905826E+03</pdfrwt>
<pdfrwt beam="2">  1       -2 0.66859198E-01 0.92905826E+03</pdfrwt>
<totfact> 0.15798826E+02</totfact>
</mgrwt>
<rwgt>
<wgt id='morphing_basis_vector_1'> +1.7883940e-04 </wgt>
<wgt id='morphing_basis_vector_2'> +1.1291935e-04 </wgt>
<wgt id='morphing_basis_vector_3'> +1.6853578e-04 </wgt>
<wgt id='morphing_basis_vector_4'> +9.8189466e-05 </wgt>
<wgt id='morphing_basis_vector_5'> +1.5720292e-04 </wgt>
</rwgt>
</event>
<event>
 4      1 +1.4786900e-06 9.56641700e+02 7.81860800e-03 8.72683200e-02
        2 -1    0    0  501    0 +0.0000000000e+00 +0.0000000000e+00 +3.9691266196e+02 3.9691266196e+02 0.0000000000e+00 0.0000e+00 -1.0000e+00
       -2 -1    0    0    0  501 -0.0000000000e+00 -0.0000000000e+00 -5.7642612571e+02 5.7642612571e+02 0.0000000000e+00 0.0000e+00 1.0000e+00
      -13  1    1    2    0    0 -4.5909581387e+02 +6.4127311341e+01 -2.0975397365e+02 5.0880055802e+02 0.0000000000e+00 0.0000e+00 1.0000e+00
       13  1    1    2    0    0 +4.5909581387e+02 -6.4127311341e+01 +3.0240509892e+01 4.6453822966e+02 0.0000000000e+00 0.0000e+00 -1.0000e+00
<mgrwt>
<rscale>  0 0.95664168E+03</rscale>
<asrwt>0</asrwt>
<pdfrwt beam="1">  1        2 0.61063487E-01 0.95664168E+03</pdfrwt>
<pdfrwt beam="2">  1       -2 0.88680942E-01 0.95664168E+03</pdfrwt>
<totfact> 0.10850296E+02</totfact>
</mgrwt>
<rwgt>
<wgt id='morphing_basis_vector_1'> +2.0070734e-04 </wgt>
<wgt id='morphing_basis_vector_2'> +1.3126371e-04 </wgt>
<wgt id='morphing_basis_vector_3'> +1.9062353e-04 </wgt>
<wgt id='morphing_basis_vector_4'> +1.0906492e-04 </wgt>
<wgt id='morphing_basis_vector_5'> +1.7860763e-04 </wgt>
</rwgt>
</event>
<event>
 4      1 +1.4786900e-06 9.46804500e+02 7.81860800e-03 8.73677900e-02
        2 -1    0    0  501    0 +0.0000000000e+00 +0.0000000000e+00 +1.0146381580e+03 1.0146381580e+03 0.0000000000e+00 0.0000e+00 -1.0000e+00
       -2 -1    0    0    0  501 -0.0000000000e+00 -0.0000000000e+00 -2.2087647095e+02 2.2087647095e+02 0.0000000000e+00 0.0000e+00 1.0000e+00
      -13  1    1    2    0    0 -1.8854396539e+02 +2.2591187853e+02 -8.7043994904e+01 3.0685772077e+02 0.0000000000e+00 0.0000e+00 1.0000e+00
       13  1    1    2    0    0 +1.8854396539e+02 -2.2591187853e+02 +8.8080568193e+02 9.2865690815e+02 0.0000000000e+00 0.0000e+00 -1.0000e+00
<mgrwt>
<rscale>  0 0.94680451E+03</rscale>
<asrwt>0</asrwt>
<pdfrwt beam="1">  1        2 0.15609818E+00 0.94680451E+03</pdfrwt>
<pdfrwt beam="2">  1       -2 0.33980996E-01 0.94680451E+03</pdfrwt>
<totfact> 0.24040712E+02</totfact>
</mgrwt>
<rwgt>
<wgt id='morphing_basis_vector_1'> +1.9070898e-04 </wgt>
<wgt id='morphing_basis_vector_2'> +1.1849848e-04 </wgt>
<wgt id='morphing_basis_vector_3'> +1.8080299e-04 </wgt>
<wgt id='morphing_basis_vector_4'> +1.0803297e-04 </wgt>
<wgt id='morphing_basis_vector_5'> +1.7091171e-04 </wgt>
</rwgt>
</event>
<event>
 4      1 +1.4786900e-06 9.12093500e+02 7.81860800e-03 8.77291400e-02
        2 -1    0    0  501    0 +0.0000000000e+00 +0.0000000000e+00 +7.2212666239e+02 7.2212666239e+02 0.0000000000e+00 0.0000e+00 -1.0000e+00
       -2 -1    0    0    0  501 -0.0000000000e+00 -0.0000000000e+00 -2.8800850672e+02 2.8800850672e+02 0.0000000000e+00 0.0000e+00 1.0000e+00
      -13  1    1    2    0    0 +4.3689751297e+00 -3.1696718117e+02 -1.4604145516e+02 3.4902061330e+02 0.0000000000e+00 0.0000e+00 1.0000e+00
       13  1    1    2    0    0 -4.3689751297e+00 +3.1696718117e+02 +5.8015961082e+02 6.6111455581e+02 0.0000000000e+00 0.0000e+00 -1.0000e+00
<mgrwt>
<rscale>  0 0.91209346E+03</rscale>
<asrwt>0</asrwt>
<pdfrwt beam="1">  1        2 0.11109641E+00 0.91209346E+03</pdfrwt>
<pdfrwt beam="2">  1       -2 0.44309001E-01 0.91209346E+03</pdfrwt>
<totfact> 0.23140145E+02</totfact>
</mgrwt>
<rwgt>
<wgt id='morphing_basis_vector_1'> +1.6647553e-04 </wgt>
<wgt id='morphing_basis_vector_2'> +1.0301142e-04 </wgt>
<wgt id='morphing_basis_vector_3'> +1.5611575e-04 </wgt>
<wgt id='morphing_basis_vector_4'> +9.1656689e-05 </wgt>
<wgt id='morphing_basis_vector_5'> +1.4498704e-04 </wgt>
</rwgt>
</event>
<event>
 4      1 +1.4786900e-06 1.02706300e+03 7.81860800e-03 8.65907900e-02
        2 -1    0    0  501    0 +0.0000000000e+00 +0.0000000000e+00 +8.6043822691e+02 8.6043822691e+02 0.0000000000e+00 0.0000e+00 -1.0000e+00
       -2 -1    0    0    0  501 -0.0000000000e+00 -0.0000000000e+00 -3.0648898260e+02 3.0648898260e+02 0.0000000000e+00 0.0000e+00 1.0000e+00
      -13  1    1    2    0    0 +1.4149159750e+02 +1.6612798146e+02 -2.5119122310e+02 3.3273925069e+02 0.0000000000e+00 0.0000e+00 1.0000e+00
       13  1    1    2    0    0 -1.4149159750e+02 -1.6612798146e+02 +8.0514046741e+02 8.3418795882e+02 0.0000000000e+00 0.0000e+00 -1.0000e+00
<mgrwt>
<rscale>  0 0.10270635E+04</rscale>
<asrwt>0</asrwt>
<pdfrwt beam="1">  1        2 0.13237511E+00 0.10270635E+04</pdfrwt>
<pdfrwt beam="2">  1       -2 0.47152152E-01 0.10270635E+04</pdfrwt>
<totfact> 0.16297274E+02</totfact>
</mgrwt>
<rwgt>
<wgt id='morphing_basis_vector_1'> +2.5730280e-04 </wgt>
<wgt id='morphing_basis_vector_2'> +1.6152894e-04 </wgt>
<wgt id='morphing_basis_vector_3'> +2.4924176e-04 </wgt>
<wgt id='morphing_basis_vector_4'> +1.5381845e-04 </wgt>
<wgt id='morphing_basis_vector_5'> +2.4359407e-04 </wgt>
</rwgt>
</event>
<event>
 4      1 +1.4786900e-06 9.78230300e+02 7.81860800e-03 8.70543300e-02
        2 -1    0    0  501    0 +0.0000000000e+00 +0.0000000000e+00 +2.9497071471e+02 2.9497071471e+02 0.0000000000e+00 0.0000e+00 -1.0000e+00
       -2 -1    0    0    0  501 -0.0000000000e+00 -0.0000000000e+00 -8.1104190235e+02 8.1104190235e+02 0.0000000000e+00 0.0000e+00 1.0000e+00
      -13  1    1    2    0    0 +8.2117195882e+01 -4.6722243367e+02 -1.2333644222e+02 4.9015499014e+02 0.0000000000e+00 0.0000e+00 1.0000e+00
       13  1    1    2    0    0 -8.2117195882e+01 +4.6722243367e+02 -3.9273474542e+02 6.1585762692e+02 0.0000000000e+00 0.0000e+00 -1.0000e+00
<mgrwt>
<rscale>  0 0.97823026E+03</rscale>
<asrwt>0</asrwt>
<pdfrwt beam="1">  1        2 0.45380109E-01 0.97823026E+03</pdfrwt>
<pdfrwt beam="2">  1       -2 0.12477568E+00 0.97823026E+03</pdfrwt>
<totfact> 0.65180306E+01</totfact>
</mgrwt>
<rwgt>
<wgt id='morphing_basis_vector_1'> +2.3266970e-04 </wgt>
<wgt id='morphing_basis_vector_2'> +1.8780648e-04 </wgt>
<wgt id='morphing_basis_vector_3'> +2.2159175e-04 </wgt>
<wgt id='morphing_basis_vector_4'> +9.7636375e-05 </wgt>
<wgt id='morphing_basis_vector_5'> +1.9558083e-04 </wgt>
</rwgt>
</event>
<event>
 4      1 +1.4786900e-06 9.51819700e+02 7.81860800e-03 8.73169200e-02
        2 -1    0    0  501    0 +0.0000000000e+00 +0.0000000000e+00 +3.6442265949e+02 3.6442265949e+02 0.0000000000e+00 0.0000e+00 1.0000e+00
       -2 -1    0    0    0  501 -0.0000000000e+00 -0.0000000000e+00 -6.2150410062e+02 6.2150410062e+02 0.0000000000e+00 0.0000e+00 -1.0000e+00
      -13  1    1    2    0    0 -3.6866225583e+02 -2.3458522655e+02 +6.6757419626e+01 4.4203918430e+02 0.0000000000e+00 0.0000e+00 -1.0000e+00
       13  1    1    2    0    0 +3.6866225583e+02 +2.3458522655e+02 -3.2383886076e+02 5.4388757581e+02 0.0000000000e+00 0.0000e+00 1.0000e+00
<mgrwt>
<rscale>  0 0.95181968E+03</rscale>
<asrwt>0</asrwt>
<pdfrwt beam="1">  1        2 0.56065024E-01 0.95181968E+03</pdfrwt>
<pdfrwt beam="2">  1       -2 0.95616016E-01 0.95181968E+03</pdfrwt>
<totfact> 0.10018561E+02</totfact>
</mgrwt>
<rwgt>
<wgt id='morphing_basis_vector_1'> +2.2034920e-04 </wgt>
<wgt id='morphing_basis_vector_2'> +1.9956524e-04 </wgt>
<wgt id='morphing_basis_vector_3'> +2.0701106e-04 </wgt>
<wgt id='morphing_basis_vector_4'> +7.1948841e-05 </wgt>
<wgt id='morphing_basis_vector_5'> +1.7273099e-04 </wgt>
</rwgt>
</event>
<event>
 4      1 +1.4786900e-06 1.01817600e+03 7.81860800e-03 8.66731300e-02
        2 -1    0    0  501    0 +0.0000000000e+00 +0.0000000000e+00 +4.2870127187e+02 4.2870127187e+02 0.0000000000e+00 0.0000e+00 -1.0000e+00
       -2 -1    0    0    0  501 -0.0000000000e+00 -0.0000000000e+00 -6.0454841178e+02 6.0454841178e+02 0.0000000000e+00 0.0000e+00 1.0000e+00
      -13  1    1    2    0    0 +1.2657705110e+02 -3.8286462846e+02 -4.0327084315e+02 5.7029329868e+02 0.0000000000e+00 0.0000e+00 1.0000e+00
       13  1    1    2    0    0 -1.2657705110e+02 +3.8286462846e+02 +2.2742370323e+02 4.6295638497e+02 0.0000000000e+00 0.0000e+00 -1.0000e+00
<mgrwt>
<rscale>  0 0.10181762E+04</rscale>
<asrwt>0</asrwt>
<pdfrwt beam="1">  1        2 0.65954042E-01 0.10181762E+04</pdfrwt>
<pdfrwt beam="2">  1       -2 0.93007448E-01 0.10181762E+04</pdfrwt>
<totfact> 0.88610977E+01</totfact>
</mgrwt>
<rwgt>
<wgt id='morphing_basis_vector_1'> +2.4969457e-04 </wgt>
<wgt id='morphing_basis_vector_2'> +1.5787836e-04 </wgt>
<wgt id='morphing_basis_vector_3'> +2.4134206e-04 </wgt>
<wgt id='morphing_basis_vector_4'> +1.4731163e-04 </wgt>
<wgt id='morphing_basis_vector_5'> +2.3455138e-04 </wgt>
</rwgt>
</event>
<event>
 4      1 +1.4786900e-06 1.03324300e+03 7.81860800e-03 8.65340400e-02
        2 -1    0    0  501    0 +0.0000000000e+00 +0.0000000000e+00 +2.3023864676e+02 2.3023864676e+02 0.0000000000e+00 0.0000e+00 -1.0000e+00
       -2 -1    0    0    0  501 -0.0000000000e+00 -0.0000000000e+00 -1.1592226314e+03 1.1592226314e+03 0.0000000000e+00 0.0000e+00 1.0000e+00
      -13  1    1    2    0    0 -1.9404338707e+02 +3.9244468645e+02 -8.3333855781e+02 9.4133884438e+02 0.0000000000e+00 0.0000e+00 1.0000e+00
       13  1    1    2    0    0 +1.9404338707e+02 -3.9244468645e+02 -9.5645426818e+01 4.4812243378e+02 0.0000000000e+00 0.0000e+00 -1.0000e+00
<mgrwt>
<rscale>  0 0.10332431E+04</rscale>
<asrwt>0</asrwt>
<pdfrwt beam="1">  1        2 0.35421330E-01 0.10332431E+04</pdfrwt>
<pdfrwt beam="2">  1       -2 0.17834195E+00 0.10332431E+04</pdfrwt>
<totfact> 0.30976772E+01</totfact>
</mgrwt>
<rwgt>
<wgt id='morphing_basis_vector_1'> +2.6404039e-04 </wgt>
<wgt id='morphing_basis_vector_2'> +1.6816143e-04 </wgt>
<wgt id='morphing_basis_vector_3'> +2.5614529e-04 </wgt>
<wgt id='morphing_basis_vector_4'> +1.5634504e-04 </wgt>
<wgt id='morphing_basis_vector_5'> +2.4990082e-04 </wgt>
</rwgt>
</event>
<event>
 4      1 +1.4786900e-06 9.70054300e+02 7.81860800e-03 8.71346900e-02
        2 -1    0    0  501    0 +0.0000000000e+00 +0.0000000000e+00 +1.0015048499e+03 1.0015048499e+03 0.0000000000e+00 0.0000e+00 1.0000e+00
       -2 -1    0    0    0  501 -0.0000000000e+00 -0.0000000000e+00 -2.3489783844e+02 2.3489783844e+02 0.0000000000e+00 0.0000e+00 -1.0000e+00
      -13  1    1    2    0    0 -5.6134496995e+01 +2.3039405305e+02 +9.2258219081e+02 9.5257041746e+02 0.0000000000e+00 0.0000e+00 1.0000e+00
       13  1    1    2    0    0 +5.6134496995e+01 -2.3039405305e+02 -1.5597517932e+02 2.8383227089e+02 0.0000000000e+00 0.0000e+00 -1.0000e+00
<mgrwt>
<rscale>  0 0.97005428E+03</rscale>
<asrwt>0</asrwt>
<pdfrwt beam="1">  1        2 0.15407767E+00 0.97005428E+03</pdfrwt>
<pdfrwt beam="2">  1       -2 0.36138130E-01 0.97005428E+03</pdfrwt>
<totfact> 0.21874877E+02</totfact>
</mgrwt>
<rwgt>
<wgt id='morphing_basis_vector_1'> +2.8154607e-04 </wgt>
<wgt id='morphing_basis_vector_2'> +3.5162441e-04 </wgt>
<wgt id='morphing_basis_vector_3'> +2.6401129e-04 </wgt>
<wgt id='morphing_basis_vector_4'> +9.6102087e-06 </wgt>
<wgt id='morphing_basis_vector_5'> +1.8367334e-04 </wgt>
</rwgt>
</event>
<event>
 4      1 +1.4786900e-06 9.07046300e+02 7.81860800e-03 8.77830900e-02
        2 -1    0    0  501    0 +0.0000000000e+00 +0.0000000000e+00 +1.4994859396e+02 1.4994859396e+02 0.0000000000e+00 0.0000e+00 1.0000e+00
       -2 -1    0    0    0  501 -0.0000000000e+00 -0.0000000000e+00 -1.3716918401e+03 1.3716918401e+03 0.0000000000e+00 0.0000e+00 -1.0000e+00
      -13  1    1    2    0    0 -6.1307053596e+01 -4.4708812957e+02 -6.8658432382e+02 8.2161084714e+02 0.0000000000e+00 0.0000e+00 -1.0000e+00
       13  1    1    2    0    0 +6.1307053596e+01 +4.4708812957e+02 -5.3515892230e+02 7.0002958690e+02 0.0000000000e+00 0.0000e+00 1.0000e+00
<mgrwt>
<rscale>  0 0.90704633E+03</rscale>
<asrwt>0</asrwt>
<pdfrwt beam="1">  1        2 0.23069013E-01 0.90704633E+03</pdfrwt>
<pdfrwt beam="2">  1       -2 0.21102953E+00 0.90704633E+03</pdfrwt>
<totfact> 0.29598148E+01</totfact>
</mgrwt>
<rwgt>
<wgt id='morphing_basis_vector_1'> +1.6699053e-04 </wgt>
<wgt id='morphing_basis_vector_2'> +1.1254857e-04 </wgt>
<wgt id='morphing_basis_vector_3'> +1.5580048e-04 </wgt>
<wgt id='morphing_basis_vector_4'> +8.3953623e-05 </wgt>
<wgt id='morphing_basis_vector_5'> +1.4117863e-04 </wgt>
</rwgt>
</event>
<event>
 4      1 +1.4786900e-06 9.20250900e+02 7.81860800e-03 8.76427300e-02
        2 -1    0    0  501    0 +0.0000000000e+00 +0.0000000000e+00 +4.3772267743e+02 4.3772267743e+02 0.0000000000e+00 0.0000e+00 1.0000e+00
       -2 -1    0    0    0  501 -0.0000000000e+00 -0.0000000000e+00 -4.8367485346e+02 4.8367485346e+02 0.0000000000e+00 0.0000e+00 -1.0000e+00
      -13  1    1    2    0    0 +2.5495842042e+02 +3.2905239779e+02 -2.1927181817e+02 4.7048847688e+02 0.0000000000e+00 0.0000e+00 -1.0000e+00
       13  1    1    2    0    0 -2.5495842042e+02 -3.2905239779e+02 +1.7331964215e+02 4.5090905401e+02 0.0000000000e+00 0.0000e+00 1.0000e+00
<mgrwt>
<rscale>  0 0.92025095E+03</rscale>
<asrwt>0</asrwt>
<pdfrwt beam="1">  1        2 0.67341950E-01 0.92025095E+03</pdfrwt>
<pdfrwt beam="2">  1       -2 0.74411516E-01 0.92025095E+03</pdfrwt>
<totfact> 0.14495174E+02</totfact>
</mgrwt>
<rwgt>
<wgt id='morphing_basis_vector_1'> +1.7285935e-04 </wgt>
<wgt id='morphing_basis_vector_2'> +1.0928781e-04 </wgt>
<wgt id='morphing_basis_vector_3'> +1.6242179e-04 </wgt>
<wgt id='morphing_basis_vector_4'> +9.4000994e-05 </wgt>
<wgt id='morphing_basis_vector_5'> +1.5073059e-04 </wgt>
</rwgt>
</event>
<event>
 4      1 +1.4786900e-06 9.52116200e+02 7.81860800e-03 8.73139200e-02
        2 -1    0    0  501    0 +0.0000000000e+00 +0.0000000000e+00 +6.8622891839e+02 6.8622891839e+02 0.0000000000e+00 0.0000e+00 -1.0000e+00
       -2 -1    0    0    0  501 -0.0000000000e+00 -0.0000000000e+00 -3.3025617290e+02 3.3025617290e+02 0.0000000000e+00 0.0000e+00 1.0000e+00
      -13  1    1    2    0    0 +4.2999595822e+02 +3.7656215808e+01 -3.6378776933e+01 4.3317194056e+02 0.0000000000e+00 0.0000e+00 1.0000e+00
       13  1    1    2    0    0 -4.2999595822e+02 -3.7656215808e+01 +3.9235152242e+02 5.8331315074e+02 0.0000000000e+00 0.0000e+00 -1.0000e+00
<mgrwt>
<rscale>  0 0.95211625E+03</rscale>
<asrwt>0</asrwt>
<pdfrwt beam="1">  1        2 0.10557368E+00 0.95211625E+03</pdfrwt>
<pdfrwt beam="2">  1       -2 0.50808642E-01 0.95211625E+03</pdfrwt>
<totfact> 0.18858985E+02</totfact>
</mgrwt>
<rwgt>
<wgt id='morphing_basis_vector_1'> +1.9579437e-04 </wgt>
<wgt id='morphing_basis_vector_2'> +1.2450443e-04 </wgt>
<wgt id='morphing_basis_vector_3'> +1.8581982e-04 </wgt>
<wgt id='morphing_basis_vector_4'> +1.0900462e-04 </wgt>
<wgt id='morphing_basis_vector_5'> +1.7506005e-04 </wgt>
</rwgt>
</event>
<event>
 4      1 +1.4786900e-06 9.01576100e+02 7.81860800e-03 8.78419700e-02
        2 -1    0    0  501    0 +0.0000000000e+00 +0.0000000000e+00 +1.6603366900e+03 1.6603366900e+03 0.0000000000e+00 0.0000e+00 -1.0000e+00
       -2 -1    0    0    0  501 -0.0000000000e+00 -0.0000000000e+00 -1.2239076306e+02 1.2239076306e+02 0.0000000000e+00 0.0000e+00 1.0000e+00
      -13  1    1    2    0    0 -1.4945398456e+02 -2.9189569356e+02 +1.5736787936e+02 3.6373649648e+02 0.0000000000e+00 0.0000e+00 1.0000e+00
       13  1    1    2    0    0 +1.4945398456e+02 +2.9189569356e+02 +1.3805780476e+03 1.4189909566e+03 0.0000000000e+00 0.0000e+00 -1.0000e+00
<mgrwt>
<rscale>  0 0.90157612E+03</rscale>
<asrwt>0</asrwt>
<pdfrwt beam="1">  1        2 0.25543640E+00 0.90157612E+03</pdfrwt>
<pdfrwt beam="2">  1       -2 0.18829349E-01 0.90157612E+03</pdfrwt>
<totfact> 0.28523904E+02</totfact>
</mgrwt>
<rwgt>
<wgt id='morphing_basis_vector_1'> +1.5965176e-04 </wgt>
<wgt id='morphing_basis_vector_2'> +9.8719674e-05 </wgt>
<wgt id='morphing_basis_vector_3'> +1.4918574e-04 </wgt>
<wgt id='morphing_basis_vector_4'> +8.7039746e-05 </wgt>
<wgt id='morphing_basis_vector_5'> +1.3772945e-04 </wgt>
</rwgt>
</event>
<event>
 4      1 +1.4786900e-06 9.70906700e+02 7.81860800e-03 8.71262700e-02
        2 -1    0    0  501    0 +0.0000000000e+00 +0.0000000000e+00 +7.4040925307e+02 7.4040925307e+02 0.0000000000e+00 0.0000e+00 1.0000e+00
       -2 -1    0    0    0  501 -0.0000000000e+00 -0.0000000000e+00 -3.1829015566e+02 3.1829015566e+02 0.0000000000e+00 0.0000e+00 -1.0000e+00
      -13  1    1    2    0    0 -2.8250867751e+02 -3.9295412633e+02 +1.6966827608e+02 5.1284639238e+02 0.0000000000e+00 0.0000e+00 -1.0000e+00
       13  1    1    2    0    0 +2.8250867751e+02 +3.9295412633e+02 +2.5245082134e+02 5.4585301635e+02 0.0000000000e+00 0.0000e+00 1.0000e+00
<mgrwt>
<rscale>  0 0.97090674E+03</rscale>
<asrwt>0</asrwt>
<pdfrwt beam="1">  1        2 0.11390912E+00 0.97090674E+03</pdfrwt>
<pdfrwt beam="2">  1       -2 0.48967716E-01 0.97090674E+03</pdfrwt>
<totfact> 0.18436130E+02</totfact>
</mgrwt>
<rwgt>
<wgt id='morphing_basis_vector_1'> +2.1462072e-04 </wgt>
<wgt id='morphing_basis_vector_2'> +1.4706882e-04 </wgt>
<wgt id='morphing_basis_vector_3'> +2.0454349e-04 </wgt>
<wgt id='morphing_basis_vector_4'> +1.1221993e-04 </wgt>
<wgt id='morphing_basis_vector_5'> +1.9030830e-04 </wgt>
</rwgt>
</event>
<event>
 4      1 +1.4786900e-06 1.01271100e+03 7.81860800e-03 8.67242100e-02
        2 -1    0    0  501    0 +0.0000000000e+00 +0.0000000000e+00 +2.0687362534e+03 2.0687362534e+03 0.0000000000e+00 0.0000e+00 -1.0000e+00
       -2 -1    0    0    0  501 -0.0000000000e+00 -0.0000000000e+00 -1.2393831262e+02 1.2393831262e+02 0.0000000000e+00 0.0000e+00 1.0000e+00
      -13  1    1    2    0    0 +2.8467498686e+02 +3.7943178618e+02 +5.8880994789e+02 7.5611208379e+02 0.0000000000e+00 0.0000e+00 1.0000e+00
       13  1    1    2    0    0 -2.8467498686e+02 -3.7943178618e+02 +1.3559879929e+03 1.4365624823e+03 0.0000000000e+00 0.0000e+00 -1.0000e+00
<mgrwt>
<rscale>  0 0.10127106E+04</rscale>
<asrwt>0</asrwt>
<pdfrwt beam="1">  1        2 0.31826709E+00 0.10127106E+04</pdfrwt>
<pdfrwt beam="2">  1       -2 0.19067434E-01 0.10127106E+04</pdfrwt>
<totfact> 0.16461218E+02</totfact>
</mgrwt>
<rwgt>
<wgt id='morphing_basis_vector_1'> +2.4639371e-04 </wgt>
<wgt id='morphing_basis_vector_2'> +1.5956924e-04 </wgt>
<wgt id='morphing_basis_vector_3'> +2.3779441e-04 </wgt>
<wgt id='morphing_basis_vector_4'> +1.4139984e-04 </wgt>
<wgt id='morphing_basis_vector_5'> +2.2899285e-04 </wgt>
</rwgt>
</event>
<event>
 4      1 +1.4786900e-06 1.03372800e+03 7.81860800e-03 8.65296000e-02
        2 -1    0    0  501    0 +0.0000000000e+00 +0.0000000000e+00 +2.4577622671e+02 2.4577622671e+02 0.0000000000e+00 0.0000e+00 -1.0000e+00
       -2 -1    0    0    0  501 -0.0000000000e+00 -0.0000000000e+00 -1.0869586754e+03 1.0869586754e+03 0.0000000000e+00 0.0000e+00 1.0000e+00
      -13  1    1    2    0    0 +1.4137239425e+02 -4.5124833313e+02 -6.8960128168e+02 8.3615856134e+02 0.0000000000e+00 0.0000e+00 1.0000e+00
       13  1    1    2    0    0 -1.4137239425e+02 +4.5124833313e+02 -1.5158116700e+02 4.9657634075e+02 0.0000000000e+00 0.0000e+00 -1.0000e+00
<mgrwt>
<rscale>  0 0.10337284E+04</rscale>
<asrwt>0</asrwt>
<pdfrwt beam="1">  1        2 0.37811729E-01 0.10337284E+04</pdfrwt>
<pdfrwt beam="2">  1       -2 0.16722440E+00 0.10337284E+04</pdfrwt>
<totfact> 0.35041241E+01</totfact>
</mgrwt>
<rwgt>
<wgt id='morphing_basis_vector_1'> +2.6538059e-04 </wgt>
<wgt id='morphing_basis_vector_2'> +1.7112455e-04 </wgt>
<wgt id='morphing_basis_vector_3'> +2.5747576e-04 </wgt>
<wgt id='morphing_basis_vector_4'> +1.5527165e-04 </wgt>
<wgt id='morphing_basis_vector_5'> +2.5032294e-04 </wgt>
</rwgt>
</event>
<event>
 4      1 +1.4786900e-06 9.24473400e+02 7.81860800e-03 8.75983600e-02
        2 -1    0    0  501    0 +0.0000000000e+00 +0.0000000000e+00 +2.0948582178e+03 2.0948582178e+03 0.0000000000e+00 0.0000e+00 -1.0000e+00
       -2 -1    0    0    0  501 -0.0000000000e+00 -0.0000000000e+00 -1.0199390007e+02 1.0199390007e+02 0.0000000000e+00 0.0000e+00 1.0000e+00
      -13  1    1    2    0    0 +2.0248897818e+02 +4.1510098810e+02 +1.0410250893e+03 1.1388783312e+03 0.0000000000e+00 0.0000e+00 1.0000e+00
       13  1    1    2    0    0 -2.0248897818e+02 -4.1510098810e+02 +9.5183922840e+02 1.0579737867e+03 0.0000000000e+00 0.0000e+00 -1.0000e+00
<mgrwt>
<rscale>  0 0.92447338E+03</rscale>
<asrwt>0</asrwt>
<pdfrwt beam="1">  1        2 0.32228585E+00 0.92447338E+03</pdfrwt>
<pdfrwt beam="2">  1       -2 0.15691371E-01 0.92447338E+03</pdfrwt>
<totfact> 0.22092059E+02</totfact>
</mgrwt>
<rwgt>
<wgt id='morphing_basis_vector_1'> +1.8186110e-04 </wgt>
<wgt id='morphing_basis_vector_2'> +1.2972478e-04 </wgt>
<wgt id='morphing_basis_vector_3'> +1.7040213e-04 </wgt>
<wgt id='morphing_basis_vector_4'> +8.7037045e-05 </wgt>
<wgt id='morphing_basis_vector_5'> +1.5331884e-04 </wgt>
</rwgt>
</event>
<event>
 4      1 +1.4786900e-06 9.65183100e+02 7.81860800e-03 8.71829600e-02
        2 -1    0    0  501    0 +0.0000000000e+00 +0.0000000000e+00 +2.2973102036e+02 2.2973102036e+02 0.0000000000e+00 0.0000e+00 1.0000e+00
       -2 -1    0    0    0  501 -0.0000000000e+00 -0.0000000000e+00 -1.0137707980e+03 1.0137707980e+03 0.0000000000e+00 0.0000e+00 -1.0000e+00
      -13  1    1    2    0    0 -3.0054332809e+02 +3.7420974877e+02 -4.5689192634e+02 6.6265334866e+02 0.0000000000e+00 0.0000e+00 -1.0000e+00
       13  1    1    2    0    0 +3.0054332809e+02 -3.7420974877e+02 -3.2714785129e+02 5.8084846969e+02 0.0000000000e+00 0.0000e+00 1.0000e+00
<mgrwt>
<rscale>  0 0.96518309E+03</rscale>
<asrwt>0</asrwt>
<pdfrwt beam="1">  1        2 0.35343235E-01 0.96518309E+03</pdfrwt>
<pdfrwt beam="2">  1       -2 0.15596473E+00 0.96518309E+03</pdfrwt>
<totfact> 0.46769184E+01</totfact>
</mgrwt>
<rwgt>
<wgt id='morphing_basis_vector_1'> +2.0949200e-04 </wgt>
<wgt id='morphing_basis_vector_2'> +1.4223724e-04 </wgt>
<wgt id='morphing_basis_vector_3'> +1.9933506e-04 </wgt>
<wgt id='morphing_basis_vector_4'> +1.1015537e-04 </wgt>
<wgt id='morphing_basis_vector_5'> +1.8550321e-04 </wgt>
</rwgt>
</event>
<event>
 4      1 +1.4786900e-06 1.03568700e+03 7.81860800e-03 8.65117100e-02
        2 -1    0    0  501    0 +0.0000000000e+00 +0.0000000000e+00 +2.3886788427e+02 2.3886788427e+02 0.0000000000e+00 0.0000e+00 -1.0000e+00
       -2 -1    0    0    0  501 -0.0000000000e+00 -0.0000000000e+00 -1.1226369026e+03 1.1226369026e+03 0.0000000000e+00 0.0000e+00 1.0000e+00
      -13  1    1    2    0    0 +4.9170530648e+02 +1.5706959034e+02 -4.9635582061e+02 7.1611037228e+02 0.0000000000e+00 0.0000e+00 1.0000e+00
       13  1    1    2    0    0 -4.9170530648e+02 -1.5706959034e+02 -3.8741319774e+02 6.4539441461e+02 0.0000000000e+00 0.0000e+00 -1.0000e+00
<mgrwt>
<rscale>  0 0.10356870E+04</rscale>
<asrwt>0</asrwt>
<pdfrwt beam="1">  1        2 0.36748905E-01 0.10356870E+04</pdfrwt>
<pdfrwt beam="2">  1       -2 0.17271337E+00 0.10356870E+04</pdfrwt>
<totfact> 0.32804809E+01</totfact>
</mgrwt>
<rwgt>
<wgt id='morphing_basis_vector_1'> +2.7247645e-04 </wgt>
<wgt id='morphing_basis_vector_2'> +1.8816687e-04 </wgt>
<wgt id='morphing_basis_vector_3'> +2.6449755e-04 </wgt>
<wgt id='morphing_basis_vector_4'> +1.4827823e-04 </wgt>
<wgt id='morphing_basis_vector_5'> +2.5186989e-04 </wgt>
</rwgt>
</event>
<event>
 4      1 +1.4786900e-06 1.00928300e+03 7.81860800e-03 8.67564000e-02
        2 -1    0    0  501    0 +0.0000000000e+00 +0.0000000000e+00 +2.5717247511e+03 2.5717247511e+03 0.0000000000e+00 0.0000e+00 -1.0000e+00
       -2 -1    0    0    0  501 -0.0000000000e+00 -0.0000000000e+00 -9.9024297057e+01 9.9024297057e+01 0.0000000000e+00 0.0000e+00 1.0000e+00
      -13  1    1    2    0    0 +2.2447140473e+02 -3.5767696229e+02 +5.0520337682e+02 6.5844564912e+02 0.0000000000e+00 0.0000e+00 1.0000e+00
       13  1    1    2    0    0 -2.2447140473e+02 +3.5767696229e+02 +1.9674970772e+03 2.0123033991e+03 0.0000000000e+00 0.0000e+00 -1.0000e+00
<mgrwt>
<rscale>  0 0.10092834E+04</rscale>
<asrwt>0</asrwt>
<pdfrwt beam="1">  1        2 0.39564991E+00 0.10092834E+04</pdfrwt>
<pdfrwt beam="2">  1       -2 0.15234509E-01 0.10092834E+04</pdfrwt>
<totfact> 0.12227915E+02</totfact>
</mgrwt>
<rwgt>
<wgt id='morphing_basis_vector_1'> +2.4196785e-04 </wgt>
<wgt id='morphing_basis_vector_2'> +1.5340943e-04 </wgt>
<wgt id='morphing_basis_vector_3'> +2.3334655e-04 </wgt>
<wgt id='morphing_basis_vector_4'> +1.4145389e-04 </wgt>
<wgt id='morphing_basis_vector_5'> +2.2577914e-04 </wgt>
</rwgt>
</event>
<event>
 4      1 +1.4786900e-06 9.02937000e+02 7.81860800e-03 8.78272800e-02
        2 -1    0    0  501    0 +0.0000000000e+00 +0.0000000000e+00 +7.9527602168e+02 7.9527602168e+02 0.0000000000e+00 0.0000e+00 -1.0000e+00
       -2 -1    0    0    0  501 -0.0000000000e+00 -0.0000000000e+00 -2.5629315273e+02 2.5629315273e+02 0.0000000000e+00 0.0000e+00 1.0000e+00
      -13  1    1    2    0    0 -4.2784443320e+02 -1.3939849911e+02 +3.1213902707e+02 5.4764365494e+02 0.0000000000e+00 0.0000e+00 1.0000e+00
       13  1    1    2    0    0 +4.2784443320e+02 +1.3939849911e+02 +2.2684384187e+02 5.0392551947e+02 0.0000000000e+00 0.0000e+00 -1.0000e+00
<mgrwt>
<rscale>  0 0.90293698E+03</rscale>
<asrwt>0</asrwt>
<pdfrwt beam="1">  1        2 0.12235016E+00 0.90293698E+03</pdfrwt>
<pdfrwt beam="2">  1       -2 0.39429716E-01 0.90293698E+03</pdfrwt>
<totfact> 0.25535994E+02</totfact>
</mgrwt>
<rwgt>
<wgt id='morphing_basis_vector_1'> +1.6790968e-04 </wgt>
<wgt id='morphing_basis_vector_2'> +1.2174896e-04 </wgt>
<wgt id='morphing_basis_vector_3'> +1.5590304e-04 </wgt>
<wgt id='morphing_basis_vector_4'> +7.7091647e-05 </wgt>
<wgt id='morphing_basis_vector_5'> +1.3809429e-04 </wgt>
</rwgt>
</event>
<event>
 4      1 +1.4786900e-06 9.02897100e+02 7.81860800e-03 8.78277100e-02
        2 -1    0    0  501    0 +0.0000000000e+00 +0.0000000000e+00 +5.2869997149e+02 5.2869997149e+02 0.0000000000e+00 0.0000e+00 1.0000e+00
       -2 -1    0    0    0  501 -0.0000000000e+00 -0.0000000000e+00 -3.8548478111e+02 3.8548478111e+02 0.0000000000e+00 0.0000e+00 -1.0000e+00
      -13  1    1    2    0    0 -2.6138580859e+02 +4.2427029867e+01 -2.9859045816e+02 3.9909755136e+02 0.0000000000e+00 0.0000e+00 -1.0000e+00
       13  1    1    2    0    0 +2.6138580859e+02 -4.2427029867e+01 +4.4180564854e+02 5.1508720124e+02 0.0000000000e+00 0.0000e+00 1.0000e+00
<mgrwt>
<rscale>  0 0.90289710E+03</rscale>
<asrwt>0</asrwt>
<pdfrwt beam="1">  1        2 0.81338458E-01 0.90289710E+03</pdfrwt>
<pdfrwt beam="2">  1       -2 0.59305351E-01 0.90289710E+03</pdfrwt>
<totfact> 0.18879487E+02</totfact>
</mgrwt>
<rwgt>
<wgt id='morphing_basis_vector_1'> +1.6035482e-04 </wgt>
<wgt id='morphing_basis_vector_2'> +9.8819177e-05 </wgt>
<wgt id='morphing_basis_vector_3'> +1.4993111e-04 </wgt>
<wgt id='morphing_basis_vector_4'> +8.7812399e-05 </wgt>
<wgt id='morphing_basis_vector_5'> +1.3863692e-04 </wgt>
</rwgt>
</event>
<event>
 4      1 +1.4786900e-06 1.00802800e+03 7.81860800e-03 8.67682300e-02
        2 -1    0    0  501    0 +0.0000000000e+00 +0.0000000000e+00 +3.9450744978e+02 3.9450744978e+02 0.0000000000e+00 0.0000e+00 1.0000e+00
       -2 -1    0    0    0  501 -0.0000000000e+00 -0.0000000000e+00 -6.4391752378e+02 6.4391752378e+02 0.0000000000e+00 0.0000e+00 -1.0000e+00
      -13  1    1    2    0    0 +1.9454538112e+02 +4.4713368902e+02 -2.5603992611e+02 5.5075664765e+02 0.0000000000e+00 0.0000e+00 -1.0000e+00
       13  1    1    2    0    0 -1.9454538112e+02 -4.4713368902e+02 +6.6298521059e+00 4.8766832592e+02 0.0000000000e+00 0.0000e+00 1.0000e+00
<mgrwt>
<rscale>  0 0.10080283E+04</rscale>
<asrwt>0</asrwt>
<pdfrwt beam="1">  1        2 0.60693454E-01 0.10080283E+04</pdfrwt>
<pdfrwt beam="2">  1       -2 0.99064234E-01 0.10080283E+04</pdfrwt>
<totfact> 0.83856236E+01</totfact>
</mgrwt>
<rwgt>
<wgt id='morphing_basis_vector_1'> +2.4330757e-04 </wgt>
<wgt id='morphing_basis_vector_2'> +1.6009711e-04 </wgt>
<wgt id='morphing_basis_vector_3'> +2.3450347e-04 </wgt>
<wgt id='morphing_basis_vector_4'> +1.3688985e-04 </wgt>
<wgt id='morphing_basis_vector_5'> +2.2433557e-04 </wgt>
</rwgt>
</event>
<event>
 4      1 +1.4786900e-06 9.24801300e+02 7.81860800e-03 8.75949300e-02
        2 -1    0    0  501    0 +0.0000000000e+00 +0.0000000000e+00 +6.7543088871e+02 6.7543088871e+02 0.0000000000e+00 0.0000e+00 -1.0000e+00
       -2 -1    0    0    0  501 -0.0000000000e+00 -0.0000000000e+00 -3.1655994225e+02 3.1655994225e+02 0.0000000000e+00 0.0000e+00 1.0000e+00
      -13  1    1    2    0    0 +4.1804657308e+02 -6.7856362667e+01 -1.9647697086e+01 4.2397341334e+02 0.0000000000e+00 0.0000e+00 1.0000e+00
       13  1    1    2    0    0 -4.1804657308e+02 +6.7856362667e+01 +3.7851864354e+02 5.6801741762e+02 0.0000000000e+00 0.0000e+00 -1.0000e+00
<mgrwt>
<rscale>  0 0.92480130E+03</rscale>
<asrwt>0</asrwt>
<pdfrwt beam="1">  1        2 0.10391244E+00 0.92480130E+03</pdfrwt>
<pdfrwt beam="2">  1       -2 0.48701529E-01 0.92480130E+03</pdfrwt>
<totfact> 0.20920207E+02</totfact>
</mgrwt>
<rwgt>
<wgt id='morphing_basis_vector_1'> +1.7613318e-04 </wgt>
<wgt id='morphing_basis_vector_2'> +1.1177230e-04 </wgt>
<wgt id='morphing_basis_vector_3'> +1.6572769e-04 </wgt>
<wgt id='morphing_basis_vector_4'> +9.5851427e-05 </wgt>
<wgt id='morphing_basis_vector_5'> +1.5403358e-04 </wgt>
</rwgt>
</event>
<event>
 4      1 +1.4786900e-06 9.77693800e+02 7.81860800e-03 8.70595800e-02
        2 -1    0    0  501    0 +0.0000000000e+00 +0.0000000000e+00 +4.1794390589e+02 4.1794390589e+02 0.0000000000e+00 0.0000e+00 1.0000e+00
       -2 -1    0    0    0  501 -0.0000000000e+00 -0.0000000000e+00 -5.7177835052e+02 5.7177835052e+02 0.0000000000e+00 0.0000e+00 -1.0000e+00
      -13  1    1    2    0    0 -1.3960881734e+02 -3.3404290084e+01 +3.9612707722e+02 4.2133493777e+02 0.0000000000e+00 0.0000e+00 1.0000e+00
       13  1    1    2    0    0 +1.3960881734e+02 +3.3404290084e+01 -5.4996152185e+02 5.6838731864e+02 0.0000000000e+00 0.0000e+00 -1.0000e+00
<mgrwt>
<rscale>  0 0.97769377E+03</rscale>
<asrwt>0</asrwt>
<pdfrwt beam="1">  1        2 0.64299062E-01 0.97769377E+03</pdfrwt>
<pdfrwt beam="2">  1       -2 0.87965900E-01 0.97769377E+03</pdfrwt>
<totfact> 0.10416006E+02</totfact>
</mgrwt>
<rwgt>
<wgt id='morphing_basis_vector_1'> +2.9268411e-04 </wgt>
<wgt id='morphing_basis_vector_2'> +3.7076222e-04 </wgt>
<wgt id='morphing_basis_vector_3'> +2.7556070e-04 </wgt>
<wgt id='morphing_basis_vector_4'> +5.4714525e-06 </wgt>
<wgt id='morphing_basis_vector_5'> +1.8975699e-04 </wgt>
</rwgt>
</event>
<event>
 4      1 +1.4786900e-06 1.01219000e+03 7.81860800e-03 8.67290900e-02
        2 -1    0    0  501    0 +0.0000000000e+00 +0.0000000000e+00 +6.9735270089e+02 6.9735270089e+02 0.0000000000e+00 0.0000e+00 -1.0000e+00
       -2 -1    0    0    0  501 -0.0000000000e+00 -0.0000000000e+00 -3.6729228342e+02 3.6729228342e+02 0.0000000000e+00 0.0000e+00 1.0000e+00
      -13  1    1    2    0    0 +1.2554122952e+01 -5.0570883817e+02 +1.8109354217e+02 5.3730243441e+02 0.0000000000e+00 0.0000e+00 1.0000e+00
       13  1    1    2    0    0 -1.2554122952e+01 +5.0570883817e+02 +1.4896687530e+02 5.2734254991e+02 0.0000000000e+00 0.0000e+00 -1.0000e+00
<mgrwt>
<rscale>  0 0.10121902E+04</rscale>
<asrwt>0</asrwt>
<pdfrwt beam="1">  1        2 0.10728503E+00 0.10121902E+04</pdfrwt>
<pdfrwt beam="2">  1       -2 0.56506505E-01 0.10121902E+04</pdfrwt>
<totfact> 0.14905325E+02</totfact>
</mgrwt>
<rwgt>
<wgt id='morphing_basis_vector_1'> +2.5345676e-04 </wgt>
<wgt id='morphing_basis_vector_2'> +1.8204685e-04 </wgt>
<wgt id='morphing_basis_vector_3'> +2.4442608e-04 </wgt>
<wgt id='morphing_basis_vector_4'> +1.2935621e-04 </wgt>
<wgt id='morphing_basis_vector_5'> +2.2777674e-04 </wgt>
</rwgt>
</event>
<event>
 4      1 +1.4786900e-06 9.36444500e+02 7.81860800e-03 8.74739200e-02
        2 -1    0    0  501    0 +0.0000000000e+00 +0.0000000000e+00 +5.5596030734e+02 5.5596030734e+02 0.0000000000e+00 0.0000e+00 -1.0000e+00
       -2 -1    0    0    0  501 -0.0000000000e+00 -0.0000000000e+00 -3.9433047579e+02 3.9433047579e+02 0.0000000000e+00 0.0000e+00 1.0000e+00
      -13  1    1    2    0    0 -3.8734011857e+02 +2.5307987107e+02 +1.5364165841e+02 4.8753209925e+02 0.0000000000e+00 0.0000e+00 1.0000e+00
       13  1    1    2    0    0 +3.8734011857e+02 -2.5307987107e+02 +7.9881731342e+00 4.6275868388e+02 0.0000000000e+00 0.0000e+00 -1.0000e+00
<mgrwt>
<rscale>  0 0.93644454E+03</rscale>
<asrwt>0</asrwt>
<pdfrwt beam="1">  1        2 0.85532354E-01 0.93644454E+03</pdfrwt>
<pdfrwt beam="2">  1       -2 0.60666227E-01 0.93644454E+03</pdfrwt>
<totfact> 0.16970646E+02</totfact>
</mgrwt>
<rwgt>
<wgt id='morphing_basis_vector_1'> +1.9424168e-04 </wgt>
<wgt id='morphing_basis_vector_2'> +1.4721733e-04 </wgt>
<wgt id='morphing_basis_vector_3'> +1.8243642e-04 </wgt>
<wgt id='morphing_basis_vector_4'> +8.6713191e-05 </wgt>
<wgt id='morphing_basis_vector_5'> +1.6194612e-04 </wgt>
</rwgt>
</event>
<event>
 4      1 +1.4786900e-06 9.14142200e+02 7.81860800e-03 8.77073500e-02
        2 -1    0    0  501    0 +0.0000000000e+00 +0.0000000000e+00 +1.9862759856e+03 1.9862759856e+03 0.0000000000e+00 0.0000e+00 -1.0000e+00
       -2 -1    0    0    0  501 -0.0000000000e+00 -0.0000000000e+00 -1.0517872338e+02 1.0517872338e+02 0.0000000000e+00 0.0000e+00 1.0000e+00
      -13  1    1    2    0    0 -2.7038395741e+02 -3.6584512845e+02 +8.3916060439e+02 9.5453688373e+02 0.0000000000e+00 0.0000e+00 1.0000e+00
       13  1    1    2    0    0 +2.7038395741e+02 +3.6584512845e+02 +1.0419366578e+03 1.1369178252e+03 0.0000000000e+00 0.0000e+00 -1.0000e+00
<mgrwt>
<rscale>  0 0.91414216E+03</rscale>
<asrwt>0</asrwt>
<pdfrwt beam="1">  1        2 0.30558089E+00 0.91414216E+03</pdfrwt>
<pdfrwt beam="2">  1       -2 0.16181344E-01 0.91414216E+03</pdfrwt>
<totfact> 0.24172582E+02</totfact>
</mgrwt>
<rwgt>
<wgt id='morphing_basis_vector_1'> +1.7183456e-04 </wgt>
<wgt id='morphing_basis_vector_2'> +1.1604134e-04 </wgt>
<wgt id='morphing_basis_vector_3'> +1.6072738e-04 </wgt>
<wgt id='morphing_basis_vector_4'> +8.6805231e-05 </wgt>
<wgt id='morphing_basis_vector_5'> +1.4612112e-04 </wgt>
</rwgt>
</event>
<event>
 4      1 +1.4786900e-06 1.00865900e+03 7.81860800e-03 8.67622800e-02
        2 -1    0    0  501    0 +0.0000000000e+00 +0.0000000000e+00 +2.6980078053e+03 2.6980078053e+03 0.0000000000e+00 0.0000e+00 1.0000e+00
       -2 -1    0    0    0  501 -0.0000000000e+00 -0.0000000000e+00 -9.4272693672e+01 9.4272693672e+01 0.0000000000e+00 0.0000e+00 -1.0000e+00
      -13  1    1    2    0    0 -3.8377894830e+02 -1.8185333929e+02 +2.0548858668e+03 2.0983119033e+03 0.0000000000e+00 0.0000e+00 1.0000e+00
       13  1    1    2    0    0 +3.8377894830e+02 +1.8185333929e+02 +5.4884924485e+02 6.9396859565e+02 0.0000000000e+00 0.0000e+00 -1.0000e+00
<mgrwt>
<rscale>  0 0.10086594E+04</rscale>
<asrwt>0</asrwt>
<pdfrwt beam="1">  1        2 0.41507807E+00 0.10086594E+04</pdfrwt>
<pdfrwt beam="2">  1       -2 0.14503493E-01 0.10086594E+04</pdfrwt>
<totfact> 0.11119036E+02</totfact>
</mgrwt>
<rwgt>
<wgt id='morphing_basis_vector_1'> +2.8886757e-04 </wgt>
<wgt id='morphing_basis_vector_2'> +2.9667396e-04 </wgt>
<wgt id='morphing_basis_vector_3'> +2.7740164e-04 </wgt>
<wgt id='morphing_basis_vector_4'> +6.7340683e-05 </wgt>
<wgt id='morphing_basis_vector_5'> +2.2074665e-04 </wgt>
</rwgt>
</event>
<event>
 4      1 +1.4786900e-06 9.76186900e+02 7.81860800e-03 8.70743400e-02
        2 -1    0    0  501    0 +0.0000000000e+00 +0.0000000000e+00 +7.6714814139e+02 7.6714814139e+02 0.0000000000e+00 0.0000e+00 -1.0000e+00
       -2 -1    0    0    0  501 -0.0000000000e+00 -0.0000000000e+00 -3.1054658383e+02 3.1054658383e+02 0.0000000000e+00 0.0000e+00 1.0000e+00
      -13  1    1    2    0    0 +6.0962302465e+01 -4.7831796658e+02 +1.4472725952e+02 5.0343863491e+02 0.0000000000e+00 0.0000e+00 -1.0000e+00
       13  1    1    2    0    0 -6.0962302465e+01 +4.7831796658e+02 +3.1187429804e+02 5.7425609031e+02 0.0000000000e+00 0.0000e+00 1.0000e+00
<mgrwt>
<rscale>  0 0.97618694E+03</rscale>
<asrwt>0</asrwt>
<pdfrwt beam="1">  1        2 0.11802279E+00 0.97618694E+03</pdfrwt>
<pdfrwt beam="2">  1       -2 0.47776398E-01 0.97618694E+03</pdfrwt>
<totfact> 0.18491286E+02</totfact>
</mgrwt>
<rwgt>
<wgt id='morphing_basis_vector_1'> +2.1750089e-04 </wgt>
<wgt id='morphing_basis_vector_2'> +1.4575442e-04 </wgt>
<wgt id='morphing_basis_vector_3'> +2.0770575e-04 </wgt>
<wgt id='morphing_basis_vector_4'> +1.1708149e-04 </wgt>
<wgt id='morphing_basis_vector_5'> +1.9499129e-04 </wgt>
</rwgt>
</event>
<event>
 4      1 +1.4786900e-06 9.09721700e+02 7.81860800e-03 8.77544500e-02
        2 -1    0    0  501    0 +0.0000000000e+00 +0.0000000000e+00 +2.9010377552e+03 2.9010377552e+03 0.0000000000e+00 0.0000e+00 -1.0000e+00
       -2 -1    0    0    0  501 -0.0000000000e+00 -0.0000000000e+00 -7.1318751441e+01 7.1318751441e+01 0.0000000000e+00 0.0000e+00 1.0000e+00
      -13  1    1    2    0    0 +9.3787310237e+00 +4.3050406064e+02 +1.8936835535e+03 1.9420244869e+03 0.0000000000e+00 0.0000e+00 1.0000e+00
       13  1    1    2    0    0 -9.3787310237e+00 -4.3050406064e+02 +9.3603545029e+02 1.0303320198e+03 0.0000000000e+00 0.0000e+00 -1.0000e+00
<mgrwt>
<rscale>  0 0.90972169E+03</rscale>
<asrwt>0</asrwt>
<pdfrwt beam="1">  1        2 0.44631341E+00 0.90972169E+03</pdfrwt>
<pdfrwt beam="2">  1       -2 0.10972118E-01 0.90972169E+03</pdfrwt>
<totfact> 0.13155723E+02</totfact>
</mgrwt>
<rwgt>
<wgt id='morphing_basis_vector_1'> +1.8223951e-04 </wgt>
<wgt id='morphing_basis_vector_2'> +1.5472740e-04 </wgt>
<wgt id='morphing_basis_vector_3'> +1.6840148e-04 </wgt>
<wgt id='morphing_basis_vector_4'> +6.5735042e-05 </wgt>
<wgt id='morphing_basis_vector_5'> +1.4199396e-04 </wgt>
</rwgt>
</event>
<event>
 4      1 +1.4786900e-06 9.48539600e+02 7.81860800e-03 8.73501600e-02
        2 -1    0    0  501    0 +0.0000000000e+00 +0.0000000000e+00 +2.8822628089e+02 2.8822628089e+02 0.0000000000e+00 0.0000e+00 -1.0000e+00
       -2 -1    0    0    0  501 -0.0000000000e+00 -0.0000000000e+00 -7.8040011666e+02 7.8040011666e+02 0.0000000000e+00 0.0000e+00 1.0000e+00
      -13  1    1    2    0    0 +2.0750340483e+02 +3.6326480813e+01 -7.2479930526e+02 7.5479222912e+02 0.0000000000e+00 0.0000e+00 1.0000e+00
       13  1    1    2    0    0 -2.0750340483e+02 -3.6326480813e+01 +2.3262546949e+02 3.1383416844e+02 0.0000000000e+00 0.0000e+00 -1.0000e+00
<mgrwt>
<rscale>  0 0.94853956E+03</rscale>
<asrwt>0</asrwt>
<pdfrwt beam="1">  1        2 0.44342506E-01 0.94853956E+03</pdfrwt>
<pdfrwt beam="2">  1       -2 0.12006155E+00 0.94853956E+03</pdfrwt>
<totfact> 0.74147735E+01</totfact>
</mgrwt>
<rwgt>
<wgt id='morphing_basis_vector_1'> +1.9190361e-04 </wgt>
<wgt id='morphing_basis_vector_2'> +1.1906063e-04 </wgt>
<wgt id='morphing_basis_vector_3'> +1.8203725e-04 </wgt>
<wgt id='morphing_basis_vector_4'> +1.0902950e-04 </wgt>
<wgt id='morphing_basis_vector_5'> +1.7229715e-04 </wgt>
</rwgt>
</event>
<event>
 4      1 +1.4786900e-06 9.87985400e+02 7.81860800e-03 8.69595100e-02
        2 -1    0    0  501    0 +0.0000000000e+00 +0.0000000000e+00 +5.7273157180e+02 5.7273157180e+02 0.0000000000e+00 0.0000e+00 1.0000e+00
       -2 -1    0    0    0  501 -0.0000000000e+00 -0.0000000000e+00 -4.2607879499e+02 4.2607879499e+02 0.0000000000e+00 0.0000e+00 -1.0000e+00
      -13  1    1    2    0    0 -9.9367594850e+01 +4.5570269861e+02 -9.1214091885e+01 4.7524612464e+02 0.0000000000e+00 0.0000e+00 -1.0000e+00
       13  1    1    2    0    0 +9.9367594850e+01 -4.5570269861e+02 +2.3786686870e+02 5.2356424214e+02 0.0000000000e+00 0.0000e+00 1.0000e+00
<mgrwt>
<rscale>  0 0.98798538E+03</rscale>
<asrwt>0</asrwt>
<pdfrwt beam="1">  1        2 0.88112549E-01 0.98798538E+03</pdfrwt>
<pdfrwt beam="2">  1       -2 0.65550584E-01 0.98798538E+03</pdfrwt>
<totfact> 0.13916644E+02</totfact>
</mgrwt>
<rwgt>
<wgt id='morphing_basis_vector_1'> +2.2507045e-04 </wgt>
<wgt id='morphing_basis_vector_2'> +1.4570187e-04 </wgt>
<wgt id='morphing_basis_vector_3'> +2.1577777e-04 </wgt>
<wgt id='morphing_basis_vector_4'> +1.2681011e-04 </wgt>
<wgt id='morphing_basis_vector_5'> +2.0567047e-04 </wgt>
</rwgt>
</event>
<event>
 4      1 +1.4786900e-06 1.02727200e+03 7.81860800e-03 8.65888700e-02
        2 -1    0    0  501    0 +0.0000000000e+00 +0.0000000000e+00 +2.9875750989e+02 2.9875750989e+02 0.0000000000e+00 0.0000e+00 -1.0000e+00
       -2 -1    0    0    0  501 -0.0000000000e+00 -0.0000000000e+00 -8.8306336297e+02 8.8306336297e+02 0.0000000000e+00 0.0000e+00 1.0000e+00
      -13  1    1    2    0    0 -1.6623275284e+02 +3.3837561060e+02 -6.9347636385e+02 7.8932936673e+02 0.0000000000e+00 0.0000e+00 1.0000e+00
       13  1    1    2    0    0 +1.6623275284e+02 -3.3837561060e+02 +1.0917051076e+02 3.9249150613e+02 0.0000000000e+00 0.0000e+00 -1.0000e+00
<mgrwt>
<rscale>  0 0.10272717E+04</rscale>
<asrwt>0</asrwt>
<pdfrwt beam="1">  1        2 0.45962694E-01 0.10272717E+04</pdfrwt>
<pdfrwt beam="2">  1       -2 0.13585590E+00 0.10272717E+04</pdfrwt>
<totfact> 0.50974084E+01</totfact>
</mgrwt>
<rwgt>
<wgt id='morphing_basis_vector_1'> +2.5784268e-04 </wgt>
<wgt id='morphing_basis_vector_2'> +1.6270225e-04 </wgt>
<wgt id='morphing_basis_vector_3'> +2.4977526e-04 </wgt>
<wgt id='morphing_basis_vector_4'> +1.5340799e-04 </wgt>
<wgt id='morphing_basis_vector_5'> +2.4377451e-04 </wgt>
</rwgt>
</event>
<event>
 4      1 +1.4786900e-06 9.04316400e+02 7.81860800e-03 8.78124200e-02
        2 -1    0    0  501    0 +0.0000000000e+00 +0.0000000000e+00 +8.2253603016e+02 8.2253603016e+02 0.0000000000e+00 0.0000e+00 1.0000e+00
       -2 -1    0    0    0  501 -0.0000000000e+00 -0.0000000000e+00 -2.4855694104e+02 2.4855694104e+02 0.0000000000e+00 0.0000e+00 -1.0000e+00
      -13  1    1    2    0    0 +8.8166313081e+01 +2.3550723563e+02 -1.5809202854e+02 2.9703542934e+02 0.0000000000e+00 0.0000e+00 -1.0000e+00
       13  1    1    2    0    0 -8.8166313081e+01 -2.3550723563e+02 +7.3207111765e+02 7.7405754186e+02 0.0000000000e+00 0.0000e+00 1.0000e+00
<mgrwt>
<rscale>  0 0.90431640E+03</rscale>
<asrwt>0</asrwt>
<pdfrwt beam="1">  1        2 0.12654400E+00 0.90431640E+03</pdfrwt>
<pdfrwt beam="2">  1       -2 0.38239530E-01 0.90431640E+03</pdfrwt>
<totfact> 0.25875042E+02</totfact>
</mgrwt>
<rwgt>
<wgt id='morphing_basis_vector_1'> +1.6125649e-04 </wgt>
<wgt id='morphing_basis_vector_2'> +9.9362040e-05 </wgt>
<wgt id='morphing_basis_vector_3'> +1.5084822e-04 </wgt>
<wgt id='morphing_basis_vector_4'> +8.8442789e-05 </wgt>
<wgt id='morphing_basis_vector_5'> +1.3960591e-04 </wgt>
</rwgt>
</event>
<event>
 4      1 +1.4786900e-06 9.61061000e+02 7.81860800e-03 8.72240400e-02
        2 -1    0    0  501    0 +0.0000000000e+00 +0.0000000000e+00 +1.3570136426e+03 1.3570136426e+03 0.0000000000e+00 0.0000e+00 -1.0000e+00
       -2 -1    0    0    0  501 -0.0000000000e+00 -0.0000000000e+00 -1.7016010064e+02 1.7016010064e+02 0.0000000000e+00 0.0000e+00 1.0000e+00
      -13  1    1    2    0    0 -3.4706337814e+02 -1.8974629983e+02 +1.0270158946e+03 1.1005536309e+03 0.0000000000e+00 0.0000e+00 1.0000e+00
       13  1    1    2    0    0 +3.4706337814e+02 +1.8974629983e+02 +1.5983764739e+02 4.2662011235e+02 0.0000000000e+00 0.0000e+00 -1.0000e+00
<mgrwt>
<rscale>  0 0.96106103E+03</rscale>
<asrwt>0</asrwt>
<pdfrwt beam="1">  1        2 0.20877132E+00 0.96106103E+03</pdfrwt>
<pdfrwt beam="2">  1       -2 0.26178478E-01 0.96106103E+03</pdfrwt>
<totfact> 0.23986469E+02</totfact>
</mgrwt>
<rwgt>
<wgt id='morphing_basis_vector_1'> +2.4461413e-04 </wgt>
<wgt id='morphing_basis_vector_2'> +2.5640714e-04 </wgt>
<wgt id='morphing_basis_vector_3'> +2.2966258e-04 </wgt>
<wgt id='morphing_basis_vector_4'> +5.0520298e-05 </wgt>
<wgt id='morphing_basis_vector_5'> +1.7876841e-04 </wgt>
</rwgt>
</event>
<event>
 4      1 +1.4786900e-06 9.28291200e+02 7.81860800e-03 8.75584600e-02
        2 -1    0    0  501    0 +0.0000000000e+00 +0.0000000000e+00 +8.4559950255e+02 8.4559950255e+02 0.0000000000e+00 0.0000e+00 1.0000e+00
       -2 -1    0    0    0  501 -0.0000000000e+00 -0.0000000000e+00 -2.5476736548e+02 2.5476736548e+02 0.0000000000e+00 0.0000e+00 -1.0000e+00
      -13  1    1    2    0    0 -6.7406260062e+01 -2.4210936073e+02 -1.6713671363e+02 3.0181985934e+02 0.0000000000e+00 0.0000e+00 -1.0000e+00
       13  1    1    2    0    0 +6.7406260062e+01 +2.4210936073e+02 +7.5796885071e+02 7.9854700869e+02 0.0000000000e+00 0.0000e+00 1.0000e+00
<mgrwt>
<rscale>  0 0.92829124E+03</rscale>
<asrwt>0</asrwt>
<pdfrwt beam="1">  1        2 0.13009223E+00 0.92829124E+03</pdfrwt>
<pdfrwt beam="2">  1       -2 0.39194980E-01 0.92829124E+03</pdfrwt>
<totfact> 0.23808993E+02</totfact>
</mgrwt>
<rwgt>
<wgt id='morphing_basis_vector_1'> +1.7737269e-04 </wgt>
<wgt id='morphing_basis_vector_2'> +1.0974385e-04 </wgt>
<wgt id='morphing_basis_vector_3'> +1.6721704e-04 </wgt>
<wgt id='morphing_basis_vector_4'> +9.9191222e-05 </wgt>
<wgt id='morphing_basis_vector_5'> +1.5670681e-04 </wgt>
</rwgt>
</event>
<event>
 4      1 +1.4786900e-06 1.02982000e+03 7.81860800e-03 8.65654200e-02
        2 -1    0    0  501    0 +0.0000000000e+00 +0.0000000000e+00 +1.6168630662e+02 1.6168630662e+02 0.0000000000e+00 0.0000e+00 -1.0000e+00
       -2 -1    0    0    0  501 -0.0000000000e+00 -0.0000000000e+00 -1.6397955682e+03 1.6397955682e+03 0.0000000000e+00 0.0000e+00 1.0000e+00
      -13  1    1    2    0    0 +2.3196109369e+02 +2.0414828197e+02 -1.4595735405e+03 1.4919240564e+03 0.0000000000e+00 0.0000e+00 1.0000e+00
       13  1    1    2    0    0 -2.3196109369e+02 -2.0414828197e+02 -1.8535721173e+01 3.0955781848e+02 0.0000000000e+00 0.0000e+00 -1.0000e+00
<mgrwt>
<rscale>  0 0.10298204E+04</rscale>
<asrwt>0</asrwt>
<pdfrwt beam="1">  1        2 0.24874816E-01 0.10298204E+04</pdfrwt>
<pdfrwt beam="2">  1       -2 0.25227625E+00 0.10298204E+04</pdfrwt>
<totfact> 0.13789183E+01</totfact>
</mgrwt>
<rwgt>
<wgt id='morphing_basis_vector_1'> +2.5997664e-04 </wgt>
<wgt id='morphing_basis_vector_2'> +1.6351312e-04 </wgt>
<wgt id='morphing_basis_vector_3'> +2.5199777e-04 </wgt>
<wgt id='morphing_basis_vector_4'> +1.5544136e-04 </wgt>
<wgt id='morphing_basis_vector_5'> +2.4642367e-04 </wgt>
</rwgt>
</event>
<event>
 4      1 +1.4786900e-06 1.05081700e+03 7.81860800e-03 8.63748800e-02
        2 -1    0    0  501    0 +0.0000000000e+00 +0.0000000000e+00 +4.5625069632e+02 4.5625069632e+02 0.0000000000e+00 0.0000e+00 -1.0000e+00
       -2 -1    0    0    0  501 -0.0000000000e+00 -0.0000000000e+00 -6.0504858545e+02 6.0504858545e+02 0.0000000000e+00 0.0000e+00 1.0000e+00
      -13  1    1    2    0    0 -1.8400953652e+02 +4.4620935900e+02 -2.8405478788e+02 5.6004412693e+02 0.0000000000e+00 0.0000e+00 1.0000e+00
       13  1    1    2    0    0 +1.8400953652e+02 -4.4620935900e+02 +1.3525689876e+02 5.0125515484e+02 0.0000000000e+00 0.0000e+00 -1.0000e+00
<mgrwt>
<rscale>  0 0.10508165E+04</rscale>
<asrwt>0</asrwt>
<pdfrwt beam="1">  1        2 0.70192415E-01 0.10508165E+04</pdfrwt>
<pdfrwt beam="2">  1       -2 0.93084398E-01 0.10508165E+04</pdfrwt>
<totfact> 0.82232409E+01</totfact>
</mgrwt>
<rwgt>
<wgt id='morphing_basis_vector_1'> +2.8214177e-04 </wgt>
<wgt id='morphing_basis_vector_2'> +1.8252510e-04 </wgt>
<wgt id='morphing_basis_vector_3'> +2.7485272e-04 </wgt>
<wgt id='morphing_basis_vector_4'> +1.6645626e-04 </wgt>
<wgt id='morphing_basis_vector_5'> +2.6865857e-04 </wgt>
</rwgt>
</event>
<event>
 4      1 +1.4786900e-06 9.32014000e+02 7.81860800e-03 8.75197500e-02
        2 -1    0    0  501    0 +0.0000000000e+00 +0.0000000000e+00 +7.9031942639e+02 7.9031942639e+02 0.0000000000e+00 0.0000e+00 -1.0000e+00
       -2 -1    0    0    0  501 -0.0000000000e+00 -0.0000000000e+00 -2.7477817161e+02 2.7477817161e+02 0.0000000000e+00 0.0000e+00 1.0000e+00
      -13  1    1    2    0    0 +1.0000236376e+02 -1.0436928280e+02 -2.4851190014e+02 2.8749188590e+02 0.0000000000e+00 0.0000e+00 1.0000e+00
       13  1    1    2    0    0 -1.0000236376e+02 +1.0436928280e+02 +7.6405315492e+02 7.7760571210e+02 0.0000000000e+00 0.0000e+00 -1.0000e+00
<mgrwt>
<rscale>  0 0.93201401E+03</rscale>
<asrwt>0</asrwt>
<pdfrwt beam="1">  1        2 0.12158760E+00 0.93201401E+03</pdfrwt>
<pdfrwt beam="2">  1       -2 0.42273565E-01 0.93201401E+03</pdfrwt>
<totfact> 0.22558889E+02</totfact>
</mgrwt>
<rwgt>
<wgt id='morphing_basis_vector_1'> +1.7993557e-04 </wgt>
<wgt id='morphing_basis_vector_2'> +1.1128373e-04 </wgt>
<wgt id='morphing_basis_vector_3'> +1.6983512e-04 </wgt>
<wgt id='morphing_basis_vector_4'> +1.0101155e-04 </wgt>
<wgt id='morphing_basis_vector_5'> +1.5949630e-04 </wgt>
</rwgt>
</event>
<event>
 4      1 +1.4786900e-06 1.01477500e+03 7.81860800e-03 8.67048800e-02
        2 -1    0    0  501    0 +0.0000000000e+00 +0.0000000000e+00 +2.5495949096e+03 2.5495949096e+03 0.0000000000e+00 0.0000e+00 1.0000e+00
       -2 -1    0    0    0  501 -0.0000000000e+00 -0.0000000000e+00 -1.0097375110e+02 1.0097375110e+02 0.0000000000e+00 0.0000e+00 -1.0000e+00
      -13  1    1    2    0    0 +6.4375382670e+01 -4.9806418259e+02 +1.4132061660e+03 1.4997879142e+03 0.0000000000e+00 0.0000e+00 -1.0000e+00
       13  1    1    2    0    0 -6.4375382670e+01 +4.9806418259e+02 +1.0354149925e+03 1.1507807465e+03 0.0000000000e+00 0.0000e+00 1.0000e+00
<mgrwt>
<rscale>  0 0.10147752E+04</rscale>
<asrwt>0</asrwt>
<pdfrwt beam="1">  1        2 0.39224532E+00 0.10147752E+04</pdfrwt>
<pdfrwt beam="2">  1       -2 0.15534425E-01 0.10147752E+04</pdfrwt>
<totfact> 0.12204209E+02</totfact>
</mgrwt>
<rwgt>
<wgt id='morphing_basis_vector_1'> +2.6058398e-04 </wgt>
<wgt id='morphing_basis_vector_2'> +1.9811660e-04 </wgt>
<wgt id='morphing_basis_vector_3'> +2.5140580e-04 </wgt>
<wgt id='morphing_basis_vector_4'> +1.2341476e-04 </wgt>
<wgt id='morphing_basis_vector_5'> +2.2986124e-04 </wgt>
</rwgt>
</event>
<event>
 4      1 +1.4786900e-06 1.02971900e+03 7.81860800e-03 8.65663600e-02
        2 -1    0    0  501    0 +0.0000000000e+00 +0.0000000000e+00 +4.2367932776e+02 4.2367932776e+02 0.0000000000e+00 0.0000e+00 1.0000e+00
       -2 -1    0    0    0  501 -0.0000000000e+00 -0.0000000000e+00 -6.2566235600e+02 6.2566235600e+02 0.0000000000e+00 0.0000e+00 -1.0000e+00
      -13  1    1    2    0    0 +3.0868701864e+02 +3.2501182255e+02 -3.5911643515e+02 5.7435613888e+02 0.0000000000e+00 0.0000e+00 -1.0000e+00
       13  1    1    2    0    0 -3.0868701864e+02 -3.2501182255e+02 +1.5713340691e+02 4.7498554488e+02 0.0000000000e+00 0.0000e+00 1.0000e+00
<mgrwt>
<rscale>  0 0.10297188E+04</rscale>
<asrwt>0</asrwt>
<pdfrwt beam="1">  1        2 0.65181435E-01 0.10297188E+04</pdfrwt>
<pdfrwt beam="2">  1       -2 0.96255747E-01 0.10297188E+04</pdfrwt>
<totfact> 0.82741387E+01</totfact>
</mgrwt>
<rwgt>
<wgt id='morphing_basis_vector_1'> +2.6093472e-04 </wgt>
<wgt id='morphing_basis_vector_2'> +1.6663573e-04 </wgt>
<wgt id='morphing_basis_vector_3'> +2.5291679e-04 </wgt>
<wgt id='morphing_basis_vector_4'> +1.5371615e-04 </wgt>
<wgt id='morphing_basis_vector_5'> +2.4621719e-04 </wgt>
</rwgt>
</event>
<event>
 4      1 +1.4786900e-06 9.19901200e+02 7.81860800e-03 8.76464100e-02
        2 -1    0    0  501    0 +0.0000000000e+00 +0.0000000000e+00 +4.3868180825e+02 4.3868180825e+02 0.0000000000e+00 0.0000e+00 -1.0000e+00
       -2 -1    0    0    0  501 -0.0000000000e+00 -0.0000000000e+00 -4.8225057378e+02 4.8225057378e+02 0.0000000000e+00 0.0000e+00 1.0000e+00
      -13  1    1    2    0    0 +3.7850811091e+02 +5.4674159584e+01 +2.3403464319e+02 4.4836354442e+02 0.0000000000e+00 0.0000e+00 -1.0000e+00
       13  1    1    2    0    0 -3.7850811091e+02 -5.4674159584e+01 -2.7760340873e+02 4.7256883762e+02 0.0000000000e+00 0.0000e+00 1.0000e+00
<mgrwt>
<rscale>  0 0.91990120E+03</rscale>
<asrwt>0</asrwt>
<pdfrwt beam="1">  1        2 0.67489509E-01 0.91990120E+03</pdfrwt>
<pdfrwt beam="2">  1       -2 0.74192396E-01 0.91990120E+03</pdfrwt>
<totfact> 0.14553303E+02</totfact>
</mgrwt>
<rwgt>
<wgt id='morphing_basis_vector_1'> +2.0725065e-04 </wgt>
<wgt id='morphing_basis_vector_2'> +2.1442156e-04 </wgt>
<wgt id='morphing_basis_vector_3'> +1.9046238e-04 </wgt>
<wgt id='morphing_basis_vector_4'> +4.3662345e-05 </wgt>
<wgt id='morphing_basis_vector_5'> +1.4774920e-04 </wgt>
</rwgt>
</event>
<event>
 4      1 +1.4786900e-06 9.53581100e+02 7.81860800e-03 8.72991300e-02
        2 -1    0    0  501    0 +0.0000000000e+00 +0.0000000000e+00 +3.6803186661e+02 3.6803186661e+02 0.0000000000e+00 0.0000e+00 1.0000e+00
       -2 -1    0    0    0  501 -0.0000000000e+00 -0.0000000000e+00 -6.1768895855e+02 6.1768895855e+02 0.0000000000e+00 0.0000e+00 -1.0000e+00
      -13  1    1    2    0    0 -1.1428455636e+02 -5.8592484744e+01 -5.9947238262e+02 6.1307518023e+02 0.0000000000e+00 0.0000e+00 -1.0000e+00
       13  1    1    2    0    0 +1.1428455636e+02 +5.8592484744e+01 +3.4981529068e+02 3.7264564493e+02 0.0000000000e+00 0.0000e+00 1.0000e+00
<mgrwt>
<rscale>  0 0.95358108E+03</rscale>
<asrwt>0</asrwt>
<pdfrwt beam="1">  1        2 0.56620288E-01 0.95358108E+03</pdfrwt>
<pdfrwt beam="2">  1       -2 0.95029070E-01 0.95358108E+03</pdfrwt>
<totfact> 0.10051883E+02</totfact>
</mgrwt>
<rwgt>
<wgt id='morphing_basis_vector_1'> +1.9564848e-04 </wgt>
<wgt id='morphing_basis_vector_2'> +1.2143520e-04 </wgt>
<wgt id='morphing_basis_vector_3'> +1.8586634e-04 </wgt>
<wgt id='morphing_basis_vector_4'> +1.1160441e-04 </wgt>
<wgt id='morphing_basis_vector_5'> +1.7634907e-04 </wgt>
</rwgt>
</event>
<event>
 4      1 +1.4786900e-06 1.01303700e+03 7.81860800e-03 8.67211500e-02
        2 -1    0    0  501    0 +0.0000000000e+00 +0.0000000000e+00 +1.4541270446e+03 1.4541270446e+03 0.0000000000e+00 0.0000e+00 1.0000e+00
       -2 -1    0    0    0  501 -0.0000000000e+00 -0.0000000000e+00 -1.7643641010e+02 1.7643641010e+02 0.0000000000e+00 0.0000e+00 -1.0000e+00
      -13  1    1    2    0    0 +8.2064321208e+01 +2.7160447735e+02 -3.6521286834e+01 2.8607227990e+02 0.0000000000e+00 0.0000e+00 -1.0000e+00
       13  1    1    2    0    0 -8.2064321208e+01 -2.7160447735e+02 +1.3142119213e+03 1.3444911748e+03 0.0000000000e+00 0.0000e+00 1.0000e+00
<mgrwt>
<rscale>  0 0.10130369E+04</rscale>
<asrwt>0</asrwt>
<pdfrwt beam="1">  1        2 0.22371184E+00 0.10130369E+04</pdfrwt>
<pdfrwt beam="2">  1       -2 0.27144064E-01 0.10130369E+04</pdfrwt>
<totfact> 0.19798339E+02</totfact>
</mgrwt>
<rwgt>
<wgt id='morphing_basis_vector_1'> +2.4457976e-04 </wgt>
<wgt id='morphing_basis_vector_2'> +1.5338747e-04 </wgt>
<wgt id='morphing_basis_vector_3'> +2.3610446e-04 </wgt>
<wgt id='morphing_basis_vector_4'> +1.4488157e-04 </wgt>
<wgt id='morphing_basis_vector_5'> +2.2951084e-04 </wgt>
</rwgt>
</event>
<event>
 4      1 +1.4786900e-06 9.12224800e+02 7.81860800e-03 8.77277400e-02
        2 -1    0    0  501    0 +0.0000000000e+00 +0.0000000000e+00 +4.7858996272e+02 4.7858996272e+02 0.0000000000e+00 0.0000e+00 -1.0000e+00
       -2 -1    0    0    0  501 -0.0000000000e+00 -0.0000000000e+00 -4.3469055699e+02 4.3469055699e+02 0.0000000000e+00 0.0000e+00 1.0000e+00
      -13  1    1    2    0    0 +4.0243125844e+02 +7.0213410579e+01 +2.2505807884e+02 4.6640323718e+02 0.0000000000e+00 0.0000e+00 1.0000e+00
       13  1    1    2    0    0 -4.0243125844e+02 -7.0213410579e+01 -1.8115867312e+02 4.4687728253e+02 0.0000000000e+00 0.0000e+00 -1.0000e+00
<mgrwt>
<rscale>  0 0.91222484E+03</rscale>
<asrwt>0</asrwt>
<pdfrwt beam="1">  1        2 0.73629225E-01 0.91222484E+03</pdfrwt>
<pdfrwt beam="2">  1       -2 0.66875470E-01 0.91222484E+03</pdfrwt>
<totfact> 0.16484837E+02</totfact>
</mgrwt>
<rwgt>
<wgt id='morphing_basis_vector_1'> +1.9205022e-04 </wgt>
<wgt id='morphing_basis_vector_2'> +1.8059289e-04 </wgt>
<wgt id='morphing_basis_vector_3'> +1.7671296e-04 </wgt>
<wgt id='morphing_basis_vector_4'> +5.5042352e-05 </wgt>
<wgt id='morphing_basis_vector_5'> +1.4310665e-04 </wgt>
</rwgt>
</event>
<event>
 4      1 +1.4786900e-06 9.73074500e+02 7.81860800e-03 8.71049100e-02
        2 -1    0    0  501    0 +0.0000000000e+00 +0.0000000000e+00 +1.8104266655e+03 1.8104266655e+03 0.0000000000e+00 0.0000e+00 -1.0000e+00
       -2 -1    0    0    0  501 -0.0000000000e+00 -0.0000000000e+00 -1.3075288811e+02 1.3075288811e+02 0.0000000000e+00 0.0000e+00 1.0000e+00
      -13  1    1    2    0    0 +2.4526566328e+02 +3.8784979957e+02 +5.1733109626e+02 6.9153031442e+02 0.0000000000e+00 0.0000e+00 1.0000e+00
       13  1    1    2    0    0 -2.4526566328e+02 -3.8784979957e+02 +1.1623426812e+03 1.2496492392e+03 0.0000000000e+00 0.0000e+00 -1.0000e+00
<mgrwt>
<rscale>  0 0.97307454E+03</rscale>
<asrwt>0</asrwt>
<pdfrwt beam="1">  1        2 0.27852716E+00 0.97307454E+03</pdfrwt>
<pdfrwt beam="2">  1       -2 0.20115830E-01 0.97307454E+03</pdfrwt>
<totfact> 0.21008989E+02</totfact>
</mgrwt>
<rwgt>
<wgt id='morphing_basis_vector_1'> +2.1278135e-04 </wgt>
<wgt id='morphing_basis_vector_2'> +1.3738531e-04 </wgt>
<wgt id='morphing_basis_vector_3'> +2.0314073e-04 </wgt>
<wgt id='morphing_basis_vector_4'> +1.1877311e-04 </wgt>
<wgt id='morphing_basis_vector_5'> +1.9248585e-04 </wgt>
</rwgt>
</event>
<event>
 4      1 +1.4786900e-06 9.53827100e+02 7.81860800e-03 8.72966500e-02
        2 -1    0    0  501    0 +0.0000000000e+00 +0.0000000000e+00 +5.0844939882e+02 5.0844939882e+02 0.0000000000e+00 0.0000e+00 -1.0000e+00
       -2 -1    0    0    0  501 -0.0000000000e+00 -0.0000000000e+00 -4.4733364183e+02 4.4733364183e+02 0.0000000000e+00 0.0000e+00 1.0000e+00
      -13  1    1    2    0    0 -1.4984562816e+02 -2.9593867524e+02 -3.1280075349e+02 4.5593609549e+02 0.0000000000e+00 0.0000e+00 1.0000e+00
       13  1    1    2    0    0 +1.4984562816e+02 +2.9593867524e+02 +3.7391651048e+02 4.9984694517e+02 0.0000000000e+00 0.0000e+00 -1.0000e+00
<mgrwt>
<rscale>  0 0.95382707E+03</rscale>
<asrwt>0</asrwt>
<pdfrwt beam="1">  1        2 0.78222984E-01 0.95382707E+03</pdfrwt>
<pdfrwt beam="2">  1       -2 0.68820560E-01 0.95382707E+03</pdfrwt>
<totfact> 0.14439268E+02</totfact>
</mgrwt>
<rwgt>
<wgt id='morphing_basis_vector_1'> +1.9603784e-04 </wgt>
<wgt id='morphing_basis_vector_2'> +1.2217476e-04 </wgt>
<wgt id='morphing_basis_vector_3'> +1.8623270e-04 </wgt>
<wgt id='morphing_basis_vector_4'> +1.1142502e-04 </wgt>
<wgt id='morphing_basis_vector_5'> +1.7653116e-04 </wgt>
</rwgt>
</event>
<event>
 4      1 +1.4786900e-06 1.02265100e+03 7.81860800e-03 8.66315700e-02
        2 -1    0    0  501    0 +0.0000000000e+00 +0.0000000000e+00 +3.2110553813e+02 3.2110553813e+02 0.0000000000e+00 0.0000e+00 -1.0000e+00
       -2 -1    0    0    0  501 -0.0000000000e+00 -0.0000000000e+00 -8.1422973282e+02 8.1422973282e+02 0.0000000000e+00 0.0000e+00 1.0000e+00
      -13  1    1    2    0    0 +3.1329480758e+01 -4.8516539519e+02 -4.2240236990e+02 6.4404251347e+02 0.0000000000e+00 0.0000e+00 1.0000e+00
       13  1    1    2    0    0 -3.1329480758e+01 +4.8516539519e+02 -7.0721824785e+01 4.9129275749e+02 0.0000000000e+00 0.0000e+00 -1.0000e+00
<mgrwt>
<rscale>  0 0.10226508E+04</rscale>
<asrwt>0</asrwt>
<pdfrwt beam="1">  1        2 0.49400852E-01 0.10226508E+04</pdfrwt>
<pdfrwt beam="2">  1       -2 0.12526611E+00 0.10226508E+04</pdfrwt>
<totfact> 0.58458197E+01</totfact>
</mgrwt>
<rwgt>
<wgt id='morphing_basis_vector_1'> +2.5591020e-04 </wgt>
<wgt id='morphing_basis_vector_2'> +1.6698982e-04 </wgt>
<wgt id='morphing_basis_vector_3'> +2.4760147e-04 </wgt>
<wgt id='morphing_basis_vector_4'> +1.4678690e-04 </wgt>
<wgt id='morphing_basis_vector_5'> +2.3884341e-04 </wgt>
</rwgt>
</event>
<event>
 4      1 +1.4786900e-06 9.11735900e+02 7.81860800e-03 8.77329500e-02
        2 -1    0    0  501    0 +0.0000000000e+00 +0.0000000000e+00 +4.4592311725e+02 4.4592311725e+02 0.0000000000e+00 0.0000e+00 -1.0000e+00
       -2 -1    0    0    0  501 -0.0000000000e+00 -0.0000000000e+00 -4.6603454359e+02 4.6603454359e+02 0.0000000000e+00 0.0000e+00 1.0000e+00
      -13  1    1    2    0    0 +1.1526704602e+02 +4.0326145301e+02 -1.8873086878e+02 4.5991915834e+02 0.0000000000e+00 0.0000e+00 1.0000e+00
       13  1    1    2    0    0 -1.1526704602e+02 -4.0326145301e+02 +1.6861944244e+02 4.5203850251e+02 0.0000000000e+00 0.0000e+00 -1.0000e+00
<mgrwt>
<rscale>  0 0.91173587E+03</rscale>
<asrwt>0</asrwt>
<pdfrwt beam="1">  1        2 0.68603556E-01 0.91173587E+03</pdfrwt>
<pdfrwt beam="2">  1       -2 0.71697622E-01 0.91173587E+03</pdfrwt>
<totfact> 0.15395811E+02</totfact>
</mgrwt>
<rwgt>
<wgt id='morphing_basis_vector_1'> +1.6728680e-04 </wgt>
<wgt id='morphing_basis_vector_2'> +1.0604770e-04 </wgt>
<wgt id='morphing_basis_vector_3'> +1.5671783e-04 </wgt>
<wgt id='morphing_basis_vector_4'> +8.9991161e-05 </wgt>
<wgt id='morphing_basis_vector_5'> +1.4465488e-04 </wgt>
</rwgt>
</event>
<event>
 4      1 +1.4786900e-06 1.01410300e+03 7.81860800e-03 8.67111700e-02
        2 -1    0    0  501    0 +0.0000000000e+00 +0.0000000000e+00 +6.7307875276e+02 6.7307875276e+02 0.0000000000e+00 0.0000e+00 -1.0000e+00
       -2 -1    0    0    0  501 -0.0000000000e+00 -0.0000000000e+00 -3.8197768294e+02 3.8197768294e+02 0.0000000000e+00 0.0000e+00 1.0000e+00
      -13  1    1    2    0    0 +8.3947379177e+01 -4.9023768830e+02 +2.4812687436e+02 5.5583009929e+02 0.0000000000e+00 0.0000e+00 1.0000e+00
       13  1    1    2    0    0 -8.3947379177e+01 +4.9023768830e+02 +4.2974195454e+01 4.9922633642e+02 0.0000000000e+00 0.0000e+00 -1.0000e+00
<mgrwt>
<rscale>  0 0.10141027E+04</rscale>
<asrwt>0</asrwt>
<pdfrwt beam="1">  1        2 0.10355058E+00 0.10141027E+04</pdfrwt>
<pdfrwt beam="2">  1       -2 0.58765797E-01 0.10141027E+04</pdfrwt>
<totfact> 0.14370449E+02</totfact>
</mgrwt>
<rwgt>
<wgt id='morphing_basis_vector_1'> +2.6273635e-04 </wgt>
<wgt id='morphing_basis_vector_2'> +2.0606399e-04 </wgt>
<wgt id='morphing_basis_vector_3'> +2.5338164e-04 </wgt>
<wgt id='morphing_basis_vector_4'> +1.1871056e-04 </wgt>
<wgt id='morphing_basis_vector_5'> +2.2894011e-04 </wgt>
</rwgt>
</event>
<event>
 4      1 +1.4786900e-06 9.35165200e+02 7.81860800e-03 8.74871300e-02
        2 -1    0    0  501    0 +0.0000000000e+00 +0.0000000000e+00 +1.4133690975e+03 1.4133690975e+03 0.0000000000e+00 0.0000e+00 -1.0000e+00
       -2 -1    0    0    0  501 -0.0000000000e+00 -0.0000000000e+00 -1.5468958046e+02 1.5468958046e+02 0.0000000000e+00 0.0000e+00 1.0000e+00
      -13  1    1    2    0    0 -2.1476190781e+02 +4.1254549253e+02 +5.4862774999e+02 7.1924187066e+02 0.0000000000e+00 0.0000e+00 1.0000e+00
       13  1    1    2    0    0 +2.1476190781e+02 -4.1254549253e+02 +7.1005176702e+02 8.4881680727e+02 0.0000000000e+00 0.0000e+00 -1.0000e+00
<mgrwt>
<rscale>  0 0.93516517E+03</rscale>
<asrwt>0</asrwt>
<pdfrwt beam="1">  1        2 0.21744139E+00 0.93516517E+03</pdfrwt>
<pdfrwt beam="2">  1       -2 0.23798398E-01 0.93516517E+03</pdfrwt>
<totfact> 0.26310862E+02</totfact>
</mgrwt>
<rwgt>
<wgt id='morphing_basis_vector_1'> +1.8660037e-04 </wgt>
<wgt id='morphing_basis_vector_2'> +1.2618914e-04 </wgt>
<wgt id='morphing_basis_vector_3'> +1.7583266e-04 </wgt>
<wgt id='morphing_basis_vector_4'> +9.6001227e-05 </wgt>
<wgt id='morphing_basis_vector_5'> +1.6152099e-04 </wgt>
</rwgt>
</event>
<event>
 4      1 +1.4786900e-06 9.79645000e+02 7.81860800e-03 8.70405100e-02
        2 -1    0    0  501    0 +0.0000000000e+00 +0.0000000000e+00 +7.0367678281e+02 7.0367678281e+02 0.0000000000e+00 0.0000e+00 -1.0000e+00
       -2 -1    0    0    0  501 -0.0000000000e+00 -0.0000000000e+00 -3.4096064618e+02 3.4096064618e+02 0.0000000000e+00 0.0000e+00 1.0000e+00
      -13  1    1    2    0    0 +1.9125453343e+02 +2.4069273576e+02 -2.2527355904e+02 3.8112919858e+02 0.0000000000e+00 0.0000e+00 1.0000e+00
       13  1    1    2    0    0 -1.9125453343e+02 -2.4069273576e+02 +5.8798969567e+02 6.6350823041e+02 0.0000000000e+00 0.0000e+00 -1.0000e+00
<mgrwt>
<rscale>  0 0.97964502E+03</rscale>
<asrwt>0</asrwt>
<pdfrwt beam="1">  1        2 0.10825797E+00 0.97964502E+03</pdfrwt>
<pdfrwt beam="2">  1       -2 0.52455484E-01 0.97964502E+03</pdfrwt>
<totfact> 0.17143355E+02</totfact>
</mgrwt>
<rwgt>
<wgt id='morphing_basis_vector_1'> +2.1616166e-04 </wgt>
<wgt id='morphing_basis_vector_2'> +1.3503490e-04 </wgt>
<wgt id='morphing_basis_vector_3'> +2.0685981e-04 </wgt>
<wgt id='morphing_basis_vector_4'> +1.2526486e-04 </wgt>
<wgt id='morphing_basis_vector_5'> +1.9839225e-04 </wgt>
</rwgt>
</event>
<event>
 4      1 +1.4786900e-06 9.03992700e+02 7.81860800e-03 8.78159000e-02
        2 -1    0    0  501    0 +0.0000000000e+00 +0.0000000000e+00 +2.5779810078e+02 2.5779810078e+02 0.0000000000e+00 0.0000e+00 1.0000e+00
       -2 -1    0    0    0  501 -0.0000000000e+00 -0.0000000000e+00 -7.9248329904e+02 7.9248329904e+02 0.0000000000e+00 0.0000e+00 -1.0000e+00
      -13  1    1    2    0    0 -2.8390840188e+02 +3.1809973889e+02 -9.3032954191e+01 4.3640182757e+02 0.0000000000e+00 0.0000e+00 1.0000e+00
       13  1    1    2    0    0 +2.8390840188e+02 -3.1809973889e+02 -4.4165224407e+02 6.1387957226e+02 0.0000000000e+00 0.0000e+00 -1.0000e+00
<mgrwt>
<rscale>  0 0.90399268E+03</rscale>
<asrwt>0</asrwt>
<pdfrwt beam="1">  1        2 0.39661246E-01 0.90399268E+03</pdfrwt>
<pdfrwt beam="2">  1       -2 0.12192051E+00 0.90399268E+03</pdfrwt>
<totfact> 0.81066628E+01</totfact>
</mgrwt>
<rwgt>
<wgt id='morphing_basis_vector_1'> +1.7863001e-04 </wgt>
<wgt id='morphing_basis_vector_2'> +1.5273412e-04 </wgt>
<wgt id='morphing_basis_vector_3'> +1.6455166e-04 </wgt>
<wgt id='morphing_basis_vector_4'> +6.3201819e-05 </wgt>
<wgt id='morphing_basis_vector_5'> +1.3805069e-04 </wgt>
</rwgt>
</event>
<event>
 4      1 +1.4786900e-06 9.82569600e+02 7.81860800e-03 8.70120100e-02
        2 -1    0    0  501    0 +0.0000000000e+00 +0.0000000000e+00 +1.1580885072e+03 1.1580885072e+03 0.0000000000e+00 0.0000e+00 -1.0000e+00
       -2 -1    0    0    0  501 -0.0000000000e+00 -0.0000000000e+00 -2.0841303233e+02 2.0841303233e+02 0.0000000000e+00 0.0000e+00 1.0000e+00
      -13  1    1    2    0    0 -3.1478317127e+02 -2.2816087689e+02 +5.7117063477e+01 3.9294807494e+02 0.0000000000e+00 0.0000e+00 1.0000e+00
       13  1    1    2    0    0 +3.1478317127e+02 +2.2816087689e+02 +8.9255841137e+02 9.7355346456e+02 0.0000000000e+00 0.0000e+00 -1.0000e+00
<mgrwt>
<rscale>  0 0.98256956E+03</rscale>
<asrwt>0</asrwt>
<pdfrwt beam="1">  1        2 0.17816746E+00 0.98256956E+03</pdfrwt>
<pdfrwt beam="2">  1       -2 0.32063544E-01 0.98256956E+03</pdfrwt>
<totfact> 0.21823271E+02</totfact>
</mgrwt>
<rwgt>
<wgt id='morphing_basis_vector_1'> +2.1891445e-04 </wgt>
<wgt id='morphing_basis_vector_2'> +1.3769566e-04 </wgt>
<wgt id='morphing_basis_vector_3'> +2.0964199e-04 </wgt>
<wgt id='morphing_basis_vector_4'> +1.2633410e-04 </wgt>
<wgt id='morphing_basis_vector_5'> +2.0095356e-04 </wgt>
</rwgt>
</event>
<event>
 4      1 +1.4786900e-06 9.78494000e+02 7.81860800e-03 8.70517500e-02
        2 -1    0    0  501    0 +0.0000000000e+00 +0.0000000000e+00 +5.7962491786e+02 5.7962491786e+02 0.0000000000e+00 0.0000e+00 1.0000e+00
       -2 -1    0    0    0  501 -0.0000000000e+00 -0.0000000000e+00 -4.1296123850e+02 4.1296123850e+02 0.0000000000e+00 0.0000e+00 -1.0000e+00
      -13  1    1    2    0    0 +6.3889382065e+01 +3.7649632901e+02 +3.9356520232e+02 5.4838390510e+02 0.0000000000e+00 0.0000e+00 1.0000e+00
       13  1    1    2    0    0 -6.3889382065e+01 -3.7649632901e+02 -2.2690152297e+02 4.4420225126e+02 0.0000000000e+00 0.0000e+00 -1.0000e+00
<mgrwt>
<rscale>  0 0.97849399E+03</rscale>
<asrwt>0</asrwt>
<pdfrwt beam="1">  1        2 0.89173064E-01 0.97849399E+03</pdfrwt>
<pdfrwt beam="2">  1       -2 0.63532499E-01 0.97849399E+03</pdfrwt>
<totfact> 0.14657755E+02</totfact>
</mgrwt>
<rwgt>
<wgt id='morphing_basis_vector_1'> +2.6790042e-04 </wgt>
<wgt id='morphing_basis_vector_2'> +2.9408763e-04 </wgt>
<wgt id='morphing_basis_vector_3'> +2.5338376e-04 </wgt>
<wgt id='morphing_basis_vector_4'> +4.4519261e-05 </wgt>
<wgt id='morphing_basis_vector_5'> +1.9270580e-04 </wgt>
</rwgt>
</event>
<event>
 4      1 +1.4786900e-06 1.00190700e+03 7.81860800e-03 8.68261500e-02
        2 -1    0    0  501    0 +0.0000000000e+00 +0.0000000000e+00 +5.1666482755e+02 5.1666482755e+02 0.0000000000e+00 0.0000e+00 1.0000e+00
       -2 -1    0    0    0  501 -0.0000000000e+00 -0.0000000000e+00 -4.8572029210e+02 4.8572029210e+02 0.0000000000e+00 0.0000e+00 -1.0000e+00
      -13  1    1    2    0    0 +1.4237875328e+02 +6.2110198080e+01 -4.6101653423e+02 4.8648291946e+02 0.0000000000e+00 0.0000e+00 -1.0000e+00
       13  1    1    2    0    0 -1.4237875328e+02 -6.2110198080e+01 +4.9196106968e+02 5.1590220020e+02 0.0000000000e+00 0.0000e+00 1.0000e+00
<mgrwt>
<rscale>  0 0.10019074E+04</rscale>
<asrwt>0</asrwt>
<pdfrwt beam="1">  1        2 0.79486896E-01 0.10019074E+04</pdfrwt>
<pdfrwt beam="2">  1       -2 0.74726199E-01 0.10019074E+04</pdfrwt>
<totfact> 0.11829763E+02</totfact>
</mgrwt>
<rwgt>
<wgt id='morphing_basis_vector_1'> +2.3471016e-04 </wgt>
<wgt id='morphing_basis_vector_2'> +1.4677967e-04 </wgt>
<wgt id='morphing_basis_vector_3'> +2.2594196e-04 </wgt>
<wgt id='morphing_basis_vector_4'> +1.3825839e-04 </wgt>
<wgt id='morphing_basis_vector_5'> +2.1877875e-04 </wgt>
</rwgt>
</event>
<event>
 4      1 +1.4786900e-06 9.79678100e+02 7.81860800e-03 8.70401800e-02
        2 -1    0    0  501    0 +0.0000000000e+00 +0.0000000000e+00 +1.1409438133e+03 1.1409438133e+03 0.0000000000e+00 0.0000e+00 1.0000e+00
       -2 -1    0    0    0  501 -0.0000000000e+00 -0.0000000000e+00 -2.1030160598e+02 2.1030160598e+02 0.0000000000e+00 0.0000e+00 -1.0000e+00
      -13  1    1    2    0    0 +2.3077758928e+01 -4.8805835754e+02 +5.1327492060e+02 7.0864990470e+02 0.0000000000e+00 0.0000e+00 -1.0000e+00
       13  1    1    2    0    0 -2.3077758928e+01 +4.8805835754e+02 +4.1736728669e+02 6.4259551455e+02 0.0000000000e+00 0.0000e+00 1.0000e+00
<mgrwt>
<rscale>  0 0.97967814E+03</rscale>
<asrwt>0</asrwt>
<pdfrwt beam="1">  1        2 0.17552981E+00 0.97967814E+03</pdfrwt>
<pdfrwt beam="2">  1       -2 0.32354094E-01 0.97967814E+03</pdfrwt>
<totfact> 0.21984136E+02</totfact>
</mgrwt>
<rwgt>
<wgt id='morphing_basis_vector_1'> +2.2599100e-04 </wgt>
<wgt id='morphing_basis_vector_2'> +1.6476348e-04 </wgt>
<wgt id='morphing_basis_vector_3'> +2.1573949e-04 </wgt>
<wgt id='morphing_basis_vector_4'> +1.1036163e-04 </wgt>
<wgt id='morphing_basis_vector_5'> +1.9755015e-04 </wgt>
</rwgt>
</event>
<event>
 4      1 +1.4786900e-06 1.05539000e+03 7.81860800e-03 8.63339900e-02
        2 -1    0    0  501    0 +0.0000000000e+00 +0.0000000000e+00 +1.3405466899e+03 1.3405466899e+03 0.0000000000e+00 0.0000e+00 -1.0000e+00
       -2 -1    0    0    0  501 -0.0000000000e+00 -0.0000000000e+00 -2.0772271122e+02 2.0772271122e+02 0.0000000000e+00 0.0000e+00 1.0000e+00
      -13  1    1    2    0    0 -5.0074822769e+02 +9.3760484120e+01 +7.6821104155e+02 9.2178523544e+02 0.0000000000e+00 0.0000e+00 1.0000e+00
       13  1    1    2    0    0 +5.0074822769e+02 -9.3760484120e+01 +3.6461293712e+02 6.2648416567e+02 0.0000000000e+00 0.0000e+00 -1.0000e+00
<mgrwt>
<rscale>  0 0.10553900E+04</rscale>
<asrwt>0</asrwt>
<pdfrwt beam="1">  1        2 0.20623795E+00 0.10553900E+04</pdfrwt>
<pdfrwt beam="2">  1       -2 0.31957341E-01 0.10553900E+04</pdfrwt>
<totfact> 0.17146044E+02</totfact>
</mgrwt>
<rwgt>
<wgt id='morphing_basis_vector_1'> +3.0967565e-04 </wgt>
<wgt id='morphing_basis_vector_2'> +2.5487870e-04 </wgt>
<wgt id='morphing_basis_vector_3'> +3.0245652e-04 </wgt>
<wgt id='morphing_basis_vector_4'> +1.3287732e-04 </wgt>
<wgt id='morphing_basis_vector_5'> +2.7144009e-04 </wgt>
</rwgt>
</event>
<event>
 4      1 +1.4786900e-06 1.04183300e+03 7.81860800e-03 8.64558400e-02
        2 -1    0    0  501    0 +0.0000000000e+00 +0.0000000000e+00 +9.3245906754e+02 9.3245906754e+02 0.0000000000e+00 0.0000e+00 -1.0000e+00
       -2 -1    0    0    0  501 -0.0000000000e+00 -0.0000000000e+00 -2.9100874659e+02 2.9100874659e+02 0.0000000000e+00 0.0000e+00 1.0000e+00
      -13  1    1    2    0    0 +1.7414972957e+02 -1.5840048565e+02 -2.2497749355e+02 3.2562818485e+02 0.0000000000e+00 0.0000e+00 1.0000e+00
       13  1    1    2    0    0 -1.7414972957e+02 +1.5840048565e+02 +8.6642781450e+02 8.9783962928e+02 0.0000000000e+00 0.0000e+00 -1.0000e+00
<mgrwt>
<rscale>  0 0.10418325E+04</rscale>
<asrwt>0</asrwt>
<pdfrwt beam="1">  1        2 0.14345524E+00 0.10418325E+04</pdfrwt>
<pdfrwt beam="2">  1       -2 0.44770577E-01 0.10418325E+04</pdfrwt>
<totfact> 0.16136812E+02</totfact>
</mgrwt>
<rwgt>
<wgt id='morphing_basis_vector_1'> +2.7132198e-04 </wgt>
<wgt id='morphing_basis_vector_2'> +1.7069126e-04 </wgt>
<wgt id='morphing_basis_vector_3'> +2.6373855e-04 </wgt>
<wgt id='morphing_basis_vector_4'> +1.6353583e-04 </wgt>
<wgt id='morphing_basis_vector_5'> +2.5908768e-04 </wgt>
</rwgt>
</event>
<event>
 4      1 +1.4786900e-06 9.82867500e+02 7.81860800e-03 8.70091100e-02
        2 -1    0    0  501    0 +0.0000000000e+00 +0.0000000000e+00 +3.1042823217e+02 3.1042823217e+02 0.0000000000e+00 0.0000e+00 -1.0000e+00
       -2 -1    0    0    0  501 -0.0000000000e+00 -0.0000000000e+00 -7.7798058199e+02 7.7798058199e+02 0.0000000000e+00 0.0000e+00 1.0000e+00
      -13  1    1    2    0    0 +4.2827291056e+02 +1.1312158539e+01 -5.0038027561e+02 6.5873065138e+02 0.0000000000e+00 0.0000e+00 1.0000e+00
       13  1    1    2    0    0 -4.2827291056e+02 -1.1312158539e+01 +3.2827925798e+01 4.2967816277e+02 0.0000000000e+00 0.0000e+00 -1.0000e+00
<mgrwt>
<rscale>  0 0.98286751E+03</rscale>
<asrwt>0</asrwt>
<pdfrwt beam="1">  1        2 0.47758190E-01 0.98286751E+03</pdfrwt>
<pdfrwt beam="2">  1       -2 0.11968932E+00 0.98286751E+03</pdfrwt>
<totfact> 0.68599482E+01</totfact>
</mgrwt>
<rwgt>
<wgt id='morphing_basis_vector_1'> +2.1966063e-04 </wgt>
<wgt id='morphing_basis_vector_2'> +1.3937544e-04 </wgt>
<wgt id='morphing_basis_vector_3'> +2.1034834e-04 </wgt>
<wgt id='morphing_basis_vector_4'> +1.2573486e-04 </wgt>
<wgt id='morphing_basis_vector_5'> +2.0117434e-04 </wgt>
</rwgt>
</event>
<event>
 4      1 +1.4786900e-06 9.48717600e+02 7.81860800e-03 8.73483500e-02
        2 -1    0    0  501    0 +0.0000000000e+00 +0.0000000000e+00 +6.7873813830e+02 6.7873813830e+02 0.0000000000e+00 0.0000e+00 -1.0000e+00
       -2 -1    0    0    0  501 -0.0000000000e+00 -0.0000000000e+00 -3.3152146877e+02 3.3152146877e+02 0.0000000000e+00 0.0000e+00 1.0000e+00
      -13  1    1    2    0    0 +3.5871817419e+02 +1.3346303595e+02 -1.2479277682e+02 4.0257216447e+02 0.0000000000e+00 0.0000e+00 1.0000e+00
       13  1    1    2    0    0 -3.5871817419e+02 -1.3346303595e+02 +4.7200944635e+02 6.0768744260e+02 0.0000000000e+00 0.0000e+00 -1.0000e+00
<mgrwt>
<rscale>  0 0.94871759E+03</rscale>
<asrwt>0</asrwt>
<pdfrwt beam="1">  1        2 0.10442125E+00 0.94871759E+03</pdfrwt>
<pdfrwt beam="2">  1       -2 0.51003303E-01 0.94871759E+03</pdfrwt>
<totfact> 0.18973100E+02</totfact>
</mgrwt>
<rwgt>
<wgt id='morphing_basis_vector_1'> +1.9251099e-04 </wgt>
<wgt id='morphing_basis_vector_2'> +1.2058915e-04 </wgt>
<wgt id='morphing_basis_vector_3'> +1.8258087e-04 </wgt>
<wgt id='morphing_basis_vector_4'> +1.0841234e-04 </wgt>
<wgt id='morphing_basis_vector_5'> +1.7239915e-04 </wgt>
</rwgt>
</event>
<event>
 4      1 +1.4786900e-06 1.04445600e+03 7.81860800e-03 8.64321200e-02
        2 -1    0    0  501    0 +0.0000000000e+00 +0.0000000000e+00 +1.4498767902e+03 1.4498767902e+03 0.0000000000e+00 0.0000e+00 -1.0000e+00
       -2 -1    0    0    0  501 -0.0000000000e+00 -0.0000000000e+00 -1.8810006673e+02 1.8810006673e+02 0.0000000000e+00 0.0000e+00 1.0000e+00
      -13  1    1    2    0    0 -4.5452034941e+02 -2.5702718034e+02 +6.4402822877e+02 8.2911041419e+02 0.0000000000e+00 0.0000e+00 1.0000e+00
       13  1    1    2    0    0 +4.5452034941e+02 +2.5702718034e+02 +6.1774849467e+02 8.0886644270e+02 0.0000000000e+00 0.0000e+00 -1.0000e+00
<mgrwt>
<rscale>  0 0.10444557E+04</rscale>
<asrwt>0</asrwt>
<pdfrwt beam="1">  1        2 0.22305796E+00 0.10444557E+04</pdfrwt>
<pdfrwt beam="2">  1       -2 0.28938473E-01 0.10444557E+04</pdfrwt>
<totfact> 0.17758260E+02</totfact>
</mgrwt>
<rwgt>
<wgt id='morphing_basis_vector_1'> +2.8423296e-04 </wgt>
<wgt id='morphing_basis_vector_2'> +2.0366795e-04 </wgt>
<wgt id='morphing_basis_vector_3'> +2.7656361e-04 </wgt>
<wgt id='morphing_basis_vector_4'> +1.4883425e-04 </wgt>
<wgt id='morphing_basis_vector_5'> +2.6089375e-04 </wgt>
</rwgt>
</event>
<event>
 4      1 +1.4786900e-06 9.46997000e+02 7.81860800e-03 8.73658300e-02
        2 -1    0    0  501    0 +0.0000000000e+00 +0.0000000000e+00 +7.7573148658e+02 7.7573148658e+02 0.0000000000e+00 0.0000e+00 1.0000e+00
       -2 -1    0    0    0  501 -0.0000000000e+00 -0.0000000000e+00 -2.8901861943e+02 2.8901861943e+02 0.0000000000e+00 0.0000e+00 -1.0000e+00
      -13  1    1    2    0    0 -2.8567141512e+02 -2.9686237808e+02 -1.9040938613e+01 4.1242937126e+02 0.0000000000e+00 0.0000e+00 -1.0000e+00
       13  1    1    2    0    0 +2.8567141512e+02 +2.9686237808e+02 +5.0575380576e+02 6.5232073475e+02 0.0000000000e+00 0.0000e+00 1.0000e+00
<mgrwt>
<rscale>  0 0.94699703E+03</rscale>
<asrwt>0</asrwt>
<pdfrwt beam="1">  1        2 0.11934330E+00 0.94699703E+03</pdfrwt>
<pdfrwt beam="2">  1       -2 0.44464403E-01 0.94699703E+03</pdfrwt>
<totfact> 0.20971047E+02</totfact>
</mgrwt>
<rwgt>
<wgt id='morphing_basis_vector_1'> +1.9159826e-04 </wgt>
<wgt id='morphing_basis_vector_2'> +1.2085905e-04 </wgt>
<wgt id='morphing_basis_vector_3'> +1.8158878e-04 </wgt>
<wgt id='morphing_basis_vector_4'> +1.0702009e-04 </wgt>
<wgt id='morphing_basis_vector_5'> +1.7100179e-04 </wgt>
</rwgt>
</event>
<event>
 4      1 +1.4786900e-06 1.02338900e+03 7.81860800e-03 8.66247300e-02
        2 -1    0    0  501    0 +0.0000000000e+00 +0.0000000000e+00 +1.5604916961e+03 1.5604916961e+03 0.0000000000e+00 0.0000e+00 -1.0000e+00
       -2 -1    0    0    0  501 -0.0000000000e+00 -0.0000000000e+00 -1.6778770510e+02 1.6778770510e+02 0.0000000000e+00 0.0000e+00 1.0000e+00
      -13  1    1    2    0    0 +3.7149013528e+01 -4.0655036367e+02 +1.7537469852e+02 4.4431917840e+02 0.0000000000e+00 0.0000e+00 1.0000e+00
       13  1    1    2    0    0 -3.7149013528e+01 +4.0655036367e+02 +1.2173292925e+03 1.2839602228e+03 0.0000000000e+00 0.0000e+00 -1.0000e+00
<mgrwt>
<rscale>  0 0.10233891E+04</rscale>
<asrwt>0</asrwt>
<pdfrwt beam="1">  1        2 0.24007564E+00 0.10233891E+04</pdfrwt>
<pdfrwt beam="2">  1       -2 0.25813494E-01 0.10233891E+04</pdfrwt>
<totfact> 0.18836030E+02</totfact>
</mgrwt>
<rwgt>
<wgt id='morphing_basis_vector_1'> +2.5449447e-04 </wgt>
<wgt id='morphing_basis_vector_2'> +1.6109718e-04 </wgt>
<wgt id='morphing_basis_vector_3'> +2.4629730e-04 </wgt>
<wgt id='morphing_basis_vector_4'> +1.5054064e-04 </wgt>
<wgt id='morphing_basis_vector_5'> +2.3979080e-04 </wgt>
</rwgt>
</event>
<event>
 4      1 +1.4786900e-06 9.13580600e+02 7.81860800e-03 8.77133200e-02
        2 -1    0    0  501    0 +0.0000000000e+00 +0.0000000000e+00 +6.4909462814e+02 6.4909462814e+02 0.0000000000e+00 0.0000e+00 1.0000e+00
       -2 -1    0    0    0  501 -0.0000000000e+00 -0.0000000000e+00 -3.2145909404e+02 3.2145909404e+02 0.0000000000e+00 0.0000e+00 -1.0000e+00
      -13  1    1    2    0    0 +3.6920544052e+02 +1.9257940842e+02 -3.5662916687e+01 4.1793699224e+02 0.0000000000e+00 0.0000e+00 -1.0000e+00
       13  1    1    2    0    0 -3.6920544052e+02 -1.9257940842e+02 +3.6329845078e+02 5.5261672993e+02 0.0000000000e+00 0.0000e+00 1.0000e+00
<mgrwt>
<rscale>  0 0.91358058E+03</rscale>
<asrwt>0</asrwt>
<pdfrwt beam="1">  1        2 0.99860712E-01 0.91358058E+03</pdfrwt>
<pdfrwt beam="2">  1       -2 0.49455245E-01 0.91358058E+03</pdfrwt>
<totfact> 0.21315138E+02</totfact>
</mgrwt>
<rwgt>
<wgt id='morphing_basis_vector_1'> +1.6841621e-04 </wgt>
<wgt id='morphing_basis_vector_2'> +1.0654302e-04 </wgt>
<wgt id='morphing_basis_vector_3'> +1.5788769e-04 </wgt>
<wgt id='morphing_basis_vector_4'> +9.0943758e-05 </wgt>
<wgt id='morphing_basis_vector_5'> +1.4596082e-04 </wgt>
</rwgt>
</event>
<event>
 4      1 +1.4786900e-06 1.03890200e+03 7.81860800e-03 8.64824300e-02
        2 -1    0    0  501    0 +0.0000000000e+00 +0.0000000000e+00 +1.0853654865e+03 1.0853654865e+03 0.0000000000e+00 0.0000e+00 1.0000e+00
       -2 -1    0    0    0  501 -0.0000000000e+00 -0.0000000000e+00 -2.4860712512e+02 2.4860712512e+02 0.0000000000e+00 0.0000e+00 -1.0000e+00
      -13  1    1    2    0    0 +3.1820232130e+02 -2.1816966726e+02 +8.6498758756e+02 9.4712947775e+02 0.0000000000e+00 0.0000e+00 1.0000e+00
       13  1    1    2    0    0 -3.1820232130e+02 +2.1816966726e+02 -2.8229226191e+01 3.8684313385e+02 0.0000000000e+00 0.0000e+00 -1.0000e+00
<mgrwt>
<rscale>  0 0.10389025E+04</rscale>
<asrwt>0</asrwt>
<pdfrwt beam="1">  1        2 0.16697930E+00 0.10389025E+04</pdfrwt>
<pdfrwt beam="2">  1       -2 0.38247250E-01 0.10389025E+04</pdfrwt>
<totfact> 0.17437165E+02</totfact>
</mgrwt>
<rwgt>
<wgt id='morphing_basis_vector_1'> +3.4080396e-04 </wgt>
<wgt id='morphing_basis_vector_2'> +3.8740322e-04 </wgt>
<wgt id='morphing_basis_vector_3'> +3.3143486e-04 </wgt>
<wgt id='morphing_basis_vector_4'> +4.6992802e-05 </wgt>
<wgt id='morphing_basis_vector_5'> +2.4889900e-04 </wgt>
</rwgt>
</event>
<event>
 4      1 +1.4786900e-06 1.06450700e+03 7.81860800e-03 8.62531100e-02
        2 -1    0    0  501    0 +0.0000000000e+00 +0.0000000000e+00 +1.9579160540e+03 1.9579160540e+03 0.0000000000e+00 0.0000e+00 -1.0000e+00
       -2 -1    0    0    0  501 -0.0000000000e+00 -0.0000000000e+00 -1.4469141794e+02 1.4469141794e+02 0.0000000000e+00 0.0000e+00 1.0000e+00
      -13  1    1    2    0    0 +4.6756993307e+02 -4.4404040622e+01 +4.1202319772e+02 6.2478514435e+02 0.0000000000e+00 0.0000e+00 1.0000e+00
       13  1    1    2    0    0 -4.6756993307e+02 +4.4404040622e+01 +1.4012014383e+03 1.4778223275e+03 0.0000000000e+00 0.0000e+00 -1.0000e+00
<mgrwt>
<rscale>  0 0.10645067E+04</rscale>
<asrwt>0</asrwt>
<pdfrwt beam="1">  1        2 0.30121784E+00 0.10645067E+04</pdfrwt>
<pdfrwt beam="2">  1       -2 0.22260220E-01 0.10645067E+04</pdfrwt>
<totfact> 0.14575701E+02</totfact>
</mgrwt>
<rwgt>
<wgt id='morphing_basis_vector_1'> +2.9542277e-04 </wgt>
<wgt id='morphing_basis_vector_2'> +1.8988021e-04 </wgt>
<wgt id='morphing_basis_vector_3'> +2.8867475e-04 </wgt>
<wgt id='morphing_basis_vector_4'> +1.7700030e-04 </wgt>
<wgt id='morphing_basis_vector_5'> +2.8411561e-04 </wgt>
</rwgt>
</event>
<event>
 4      1 +1.4786900e-06 9.25215200e+02 7.81860800e-03 8.75905900e-02
        2 -1    0    0  501    0 +0.0000000000e+00 +0.0000000000e+00 +1.7588617013e+03 1.7588617013e+03 0.0000000000e+00 0.0000e+00 -1.0000e+00
       -2 -1    0    0    0  501 -0.0000000000e+00 -0.0000000000e+00 -1.2167288916e+02 1.2167288916e+02 0.0000000000e+00 0.0000e+00 1.0000e+00
      -13  1    1    2    0    0 -2.9909917410e+02 +1.3501402512e+02 +1.5586036114e+02 3.6329265765e+02 0.0000000000e+00 0.0000e+00 1.0000e+00
       13  1    1    2    0    0 +2.9909917410e+02 -1.3501402512e+02 +1.4813284510e+03 1.5172419328e+03 0.0000000000e+00 0.0000e+00 -1.0000e+00
<mgrwt>
<rscale>  0 0.92521519E+03</rscale>
<asrwt>0</asrwt>
<pdfrwt beam="1">  1        2 0.27059409E+00 0.92521519E+03</pdfrwt>
<pdfrwt beam="2">  1       -2 0.18718907E-01 0.92521519E+03</pdfrwt>
<totfact> 0.25378865E+02</totfact>
</mgrwt>
<rwgt>
<wgt id='morphing_basis_vector_1'> +1.7539176e-04 </wgt>
<wgt id='morphing_basis_vector_2'> +1.0883449e-04 </wgt>
<wgt id='morphing_basis_vector_3'> +1.6517173e-04 </wgt>
<wgt id='morphing_basis_vector_4'> +9.7537538e-05 </wgt>
<wgt id='morphing_basis_vector_5'> +1.5441965e-04 </wgt>
</rwgt>
</event>
<event>
 4      1 +1.4786900e-06 1.02538400e+03 7.81860800e-03 8.66062800e-02
        2 -1    0    0  501    0 +0.0000000000e+00 +0.0000000000e+00 +2.7051580633e+02 2.7051580633e+02 0.0000000000e+00 0.0000e+00 -1.0000e+00
       -2 -1    0    0    0  501 -0.0000000000e+00 -0.0000000000e+00 -9.7167358269e+02 9.7167358269e+02 0.0000000000e+00 0.0000e+00 1.0000e+00
      -13  1    1    2    0    0 -4.7470023272e+02 -1.9305778173e+02 -3.3175496606e+02 6.1046947142e+02 0.0000000000e+00 0.0000e+00 1.0000e+00
       13  1    1    2    0    0 +4.7470023272e+02 +1.9305778173e+02 -3.6940281030e+02 6.3171991760e+02 0.0000000000e+00 0.0000e+00 -1.0000e+00
<mgrwt>
<rscale>  0 0.10253840E+04</rscale>
<asrwt>0</asrwt>
<pdfrwt beam="1">  1        2 0.41617816E-01 0.10253840E+04</pdfrwt>
<pdfrwt beam="2">  1       -2 0.14948824E+00 0.10253840E+04</pdfrwt>
<totfact> 0.43678287E+01</totfact>
</mgrwt>
<rwgt>
<wgt id='morphing_basis_vector_1'> +2.6592830e-04 </wgt>
<wgt id='morphing_basis_vector_2'> +1.9131126e-04 </wgt>
<wgt id='morphing_basis_vector_3'> +2.5741668e-04 </wgt>
<wgt id='morphing_basis_vector_4'> +1.3674074e-04 </wgt>
<wgt id='morphing_basis_vector_5'> +2.4090124e-04 </wgt>
</rwgt>
</event>
<event>
 4      1 +1.4786900e-06 9.73600900e+02 7.81860800e-03 8.70997300e-02
        2 -1    0    0  501    0 +0.0000000000e+00 +0.0000000000e+00 +6.5205634672e+02 6.5205634672e+02 0.0000000000e+00 0.0000e+00 -1.0000e+00
       -2 -1    0    0    0  501 -0.0000000000e+00 -0.0000000000e+00 -3.6342665247e+02 3.6342665247e+02 0.0000000000e+00 0.0000e+00 1.0000e+00
      -13  1    1    2    0    0 -5.2239651693e+01 -3.7209505197e+02 +4.6713002306e+02 5.9949492688e+02 0.0000000000e+00 0.0000e+00 1.0000e+00
       13  1    1    2    0    0 +5.2239651693e+01 +3.7209505197e+02 -1.7850032882e+02 4.1598807230e+02 0.0000000000e+00 0.0000e+00 -1.0000e+00
<mgrwt>
<rscale>  0 0.97360085E+03</rscale>
<asrwt>0</asrwt>
<pdfrwt beam="1">  1        2 0.10031636E+00 0.97360085E+03</pdfrwt>
<pdfrwt beam="2">  1       -2 0.55911793E-01 0.97360085E+03</pdfrwt>
<totfact> 0.16559854E+02</totfact>
</mgrwt>
<rwgt>
<wgt id='morphing_basis_vector_1'> +2.6419174e-04 </wgt>
<wgt id='morphing_basis_vector_2'> +2.9225626e-04 </wgt>
<wgt id='morphing_basis_vector_3'> +2.4920200e-04 </wgt>
<wgt id='morphing_basis_vector_4'> +4.1791901e-05 </wgt>
<wgt id='morphing_basis_vector_5'> +1.8845747e-04 </wgt>
</rwgt>
</event>
<event>
 4      1 +1.4786900e-06 9.37493000e+02 7.81860800e-03 8.74631200e-02
        2 -1    0    0  501    0 +0.0000000000e+00 +0.0000000000e+00 +4.6343340705e+02 4.6343340705e+02 0.0000000000e+00 0.0000e+00 1.0000e+00
       -2 -1    0    0    0  501 -0.0000000000e+00 -0.0000000000e+00 -4.7412055343e+02 4.7412055343e+02 0.0000000000e+00 0.0000e+00 -1.0000e+00
      -13  1    1    2    0    0 -3.4771576810e+02 -3.1427649028e+02 +1.5369681023e+00 4.6869854917e+02 0.0000000000e+00 0.0000e+00 1.0000e+00
       13  1    1    2    0    0 +3.4771576810e+02 +3.1427649028e+02 -1.2224114482e+01 4.6885541130e+02 0.0000000000e+00 0.0000e+00 -1.0000e+00
<mgrwt>
<rscale>  0 0.93749305E+03</rscale>
<asrwt>0</asrwt>
<pdfrwt beam="1">  1        2 0.71297447E-01 0.93749305E+03</pdfrwt>
<pdfrwt beam="2">  1       -2 0.72941624E-01 0.93749305E+03</pdfrwt>
<totfact> 0.14177272E+02</totfact>
</mgrwt>
<rwgt>
<wgt id='morphing_basis_vector_1'> +1.9072864e-04 </wgt>
<wgt id='morphing_basis_vector_2'> +1.3474927e-04 </wgt>
<wgt id='morphing_basis_vector_3'> +1.7962241e-04 </wgt>
<wgt id='morphing_basis_vector_4'> +9.3478284e-05 </wgt>
<wgt id='morphing_basis_vector_5'> +1.6309645e-04 </wgt>
</rwgt>
</event>
<event>
 4      1 +1.4786900e-06 1.01589700e+03 7.81860800e-03 8.66943900e-02
        2 -1    0    0  501    0 +0.0000000000e+00 +0.0000000000e+00 +5.8396153014e+02 5.8396153014e+02 0.0000000000e+00 0.0000e+00 -1.0000e+00
       -2 -1    0    0    0  501 -0.0000000000e+00 -0.0000000000e+00 -4.4183026603e+02 4.4183026603e+02 0.0000000000e+00 0.0000e+00 1.0000e+00
      -13  1    1    2    0    0 +2.8504197021e+02 -1.3590951829e+02 -3.3066805450e+02 4.5723263686e+02 0.0000000000e+00 0.0000e+00 1.0000e+00
       13  1    1    2    0    0 -2.8504197021e+02 +1.3590951829e+02 +4.7279931862e+02 5.6855915930e+02 0.0000000000e+00 0.0000e+00 -1.0000e+00
<mgrwt>
<rscale>  0 0.10158974E+04</rscale>
<asrwt>0</asrwt>
<pdfrwt beam="1">  1        2 0.89840236E-01 0.10158974E+04</pdfrwt>
<pdfrwt beam="2">  1       -2 0.67973887E-01 0.10158974E+04</pdfrwt>
<totfact> 0.12577666E+02</totfact>
</mgrwt>
<rwgt>
<wgt id='morphing_basis_vector_1'> +2.4720521e-04 </wgt>
<wgt id='morphing_basis_vector_2'> +1.5523660e-04 </wgt>
<wgt id='morphing_basis_vector_3'> +2.3880763e-04 </wgt>
<wgt id='morphing_basis_vector_4'> +1.4656132e-04 </wgt>
<wgt id='morphing_basis_vector_5'> +2.3232652e-04 </wgt>
</rwgt>
</event>
<event>
 4      1 +1.4786900e-06 9.12389300e+02 7.81860800e-03 8.77259900e-02
        2 -1    0    0  501    0 +0.0000000000e+00 +0.0000000000e+00 +5.1842784108e+02 5.1842784108e+02 0.0000000000e+00 0.0000e+00 -1.0000e+00
       -2 -1    0    0    0  501 -0.0000000000e+00 -0.0000000000e+00 -4.0143209994e+02 4.0143209994e+02 0.0000000000e+00 0.0000e+00 1.0000e+00
      -13  1    1    2    0    0 +4.0858456400e+02 +8.5222104760e+01 -1.2715501723e+02 4.3631703094e+02 0.0000000000e+00 0.0000e+00 1.0000e+00
       13  1    1    2    0    0 -4.0858456400e+02 -8.5222104760e+01 +2.4415075837e+02 4.8354291009e+02 0.0000000000e+00 0.0000e+00 -1.0000e+00
<mgrwt>
<rscale>  0 0.91238934E+03</rscale>
<asrwt>0</asrwt>
<pdfrwt beam="1">  1        2 0.79758129E-01 0.91238934E+03</pdfrwt>
<pdfrwt beam="2">  1       -2 0.61758785E-01 0.91238934E+03</pdfrwt>
<totfact> 0.17759577E+02</totfact>
</mgrwt>
<rwgt>
<wgt id='morphing_basis_vector_1'> +1.6765798e-04 </wgt>
<wgt id='morphing_basis_vector_2'> +1.0613713e-04 </wgt>
<wgt id='morphing_basis_vector_3'> +1.5710882e-04 </wgt>
<wgt id='morphing_basis_vector_4'> +9.0368392e-05 </wgt>
<wgt id='morphing_basis_vector_5'> +1.4511870e-04 </wgt>
</rwgt>
</event>
<event>
 4      1 +1.4786900e-06 1.00057400e+03 7.81860800e-03 8.68388300e-02
        2 -1    0    0  501    0 +0.0000000000e+00 +0.0000000000e+00 +2.4167917608e+03 2.4167917608e+03 0.0000000000e+00 0.0000e+00 -1.0000e+00
       -2 -1    0    0    0  501 -0.0000000000e+00 -0.0000000000e+00 -1.0356169949e+02 1.0356169949e+02 0.0000000000e+00 0.0000e+00 1.0000e+00
      -13  1    1    2    0    0 +4.6757568525e+02 -1.4424085904e+02 +1.4190486513e+03 1.5010434775e+03 0.0000000000e+00 0.0000e+00 1.0000e+00
       13  1    1    2    0    0 -4.6757568525e+02 +1.4424085904e+02 +8.9418141010e+02 1.0193099828e+03 0.0000000000e+00 0.0000e+00 -1.0000e+00
<mgrwt>
<rscale>  0 0.10005740E+04</rscale>
<asrwt>0</asrwt>
<pdfrwt beam="1">  1        2 0.37181408E+00 0.10005740E+04</pdfrwt>
<pdfrwt beam="2">  1       -2 0.15932571E-01 0.10005740E+04</pdfrwt>
<totfact> 0.14034315E+02</totfact>
</mgrwt>
<rwgt>
<wgt id='morphing_basis_vector_1'> +2.5076829e-04 </wgt>
<wgt id='morphing_basis_vector_2'> +1.9814269e-04 </wgt>
<wgt id='morphing_basis_vector_3'> +2.4076594e-04 </wgt>
<wgt id='morphing_basis_vector_4'> +1.1087060e-04 </wgt>
<wgt id='morphing_basis_vector_5'> +2.1593198e-04 </wgt>
</rwgt>
</event>
<event>
 4      1 +1.4786900e-06 9.14039300e+02 7.81860800e-03 8.77084400e-02
        2 -1    0    0  501    0 +0.0000000000e+00 +0.0000000000e+00 +6.7288179456e+02 6.7288179456e+02 0.0000000000e+00 0.0000e+00 -1.0000e+00
       -2 -1    0    0    0  501 -0.0000000000e+00 -0.0000000000e+00 -3.1040664062e+02 3.1040664062e+02 0.0000000000e+00 0.0000e+00 1.0000e+00
      -13  1    1    2    0    0 +8.7356916329e+01 +2.2343050204e+02 -2.3722478348e+02 3.3738408079e+02 0.0000000000e+00 0.0000e+00 1.0000e+00
       13  1    1    2    0    0 -8.7356916329e+01 -2.2343050204e+02 +5.9969993742e+02 6.4590435438e+02 0.0000000000e+00 0.0000e+00 -1.0000e+00
<mgrwt>
<rscale>  0 0.91403934E+03</rscale>
<asrwt>0</asrwt>
<pdfrwt beam="1">  1        2 0.10352028E+00 0.91403934E+03</pdfrwt>
<pdfrwt beam="2">  1       -2 0.47754868E-01 0.91403934E+03</pdfrwt>
<totfact> 0.21846296E+02</totfact>
</mgrwt>
<rwgt>
<wgt id='morphing_basis_vector_1'> +1.6763858e-04 </wgt>
<wgt id='morphing_basis_vector_2'> +1.0344433e-04 </wgt>
<wgt id='morphing_basis_vector_3'> +1.5732405e-04 </wgt>
<wgt id='morphing_basis_vector_4'> +9.2708702e-05 </wgt>
<wgt id='morphing_basis_vector_5'> +1.4636927e-04 </wgt>
</rwgt>
</event>
<event>
 4      1 +1.4786900e-06 9.62871500e+02 7.81860800e-03 8.72059700e-02
        2 -1    0    0  501    0 +0.0000000000e+00 +0.0000000000e+00 +2.2350700327e+03 2.2350700327e+03 0.0000000000e+00 0.0000e+00 1.0000e+00
       -2 -1    0    0    0  501 -0.0000000000e+00 -0.0000000000e+00 -1.0370162147e+02 1.0370162147e+02 0.0000000000e+00 0.0000e+00 -1.0000e+00
      -13  1    1    2    0    0 -4.2504440109e+02 -1.7816398943e+02 +1.4037825082e+03 1.4775014316e+03 0.0000000000e+00 0.0000e+00 1.0000e+00
       13  1    1    2    0    0 +4.2504440109e+02 +1.7816398943e+02 +7.2758590310e+02 8.6127022265e+02 0.0000000000e+00 0.0000e+00 -1.0000e+00
<mgrwt>
<rscale>  0 0.96287151E+03</rscale>
<asrwt>0</asrwt>
<pdfrwt beam="1">  1        2 0.34385689E+00 0.96287151E+03</pdfrwt>
<pdfrwt beam="2">  1       -2 0.15954097E-01 0.96287151E+03</pdfrwt>
<totfact> 0.17868343E+02</totfact>
</mgrwt>
<rwgt>
<wgt id='morphing_basis_vector_1'> +2.2218175e-04 </wgt>
<wgt id='morphing_basis_vector_2'> +1.8501361e-04 </wgt>
<wgt id='morphing_basis_vector_3'> +2.1022961e-04 </wgt>
<wgt id='morphing_basis_vector_4'> +8.7184842e-05 </wgt>
<wgt id='morphing_basis_vector_5'> +1.8231773e-04 </wgt>
</rwgt>
</event>
<event>
 4      1 +1.4786900e-06 9.06644700e+02 7.81860800e-03 8.77873900e-02
        2 -1    0    0  501    0 +0.0000000000e+00 +0.0000000000e+00 +6.1359877776e+02 6.1359877776e+02 0.0000000000e+00 0.0000e+00 -1.0000e+00
       -2 -1    0    0    0  501 -0.0000000000e+00 -0.0000000000e+00 -3.3491130017e+02 3.3491130017e+02 0.0000000000e+00 0.0000e+00 1.0000e+00
      -13  1    1    2    0    0 +2.9278599979e+02 -1.9416034007e+02 -1.6038031168e+02 3.8619130454e+02 0.0000000000e+00 0.0000e+00 1.0000e+00
       13  1    1    2    0    0 -2.9278599979e+02 +1.9416034007e+02 +4.3906778927e+02 5.6231877338e+02 0.0000000000e+00 0.0000e+00 -1.0000e+00
<mgrwt>
<rscale>  0 0.90664473E+03</rscale>
<asrwt>0</asrwt>
<pdfrwt beam="1">  1        2 0.94399812E-01 0.90664473E+03</pdfrwt>
<pdfrwt beam="2">  1       -2 0.51524815E-01 0.90664473E+03</pdfrwt>
<totfact> 0.21039831E+02</totfact>
</mgrwt>
<rwgt>
<wgt id='morphing_basis_vector_1'> +1.6303987e-04 </wgt>
<wgt id='morphing_basis_vector_2'> +1.0115731e-04 </wgt>
<wgt id='morphing_basis_vector_3'> +1.5259708e-04 </wgt>
<wgt id='morphing_basis_vector_4'> +8.9060906e-05 </wgt>
<wgt id='morphing_basis_vector_5'> +1.4118358e-04 </wgt>
</rwgt>
</event>
<event>
 4      1 +1.4786900e-06 9.26203900e+02 7.81860800e-03 8.75802500e-02
        2 -1    0    0  501    0 +0.0000000000e+00 +0.0000000000e+00 +8.0602453913e+02 8.0602453913e+02 0.0000000000e+00 0.0000e+00 -1.0000e+00
       -2 -1    0    0    0  501 -0.0000000000e+00 -0.0000000000e+00 -2.6607553189e+02 2.6607553189e+02 0.0000000000e+00 0.0000e+00 1.0000e+00
      -13  1    1    2    0    0 +4.3341350168e+02 -1.4595871183e+02 +1.8560880756e+02 4.9356036960e+02 0.0000000000e+00 0.0000e+00 1.0000e+00
       13  1    1    2    0    0 -4.3341350168e+02 +1.4595871183e+02 +3.5434019969e+02 5.7853970142e+02 0.0000000000e+00 0.0000e+00 -1.0000e+00
<mgrwt>
<rscale>  0 0.92620388E+03</rscale>
<asrwt>0</asrwt>
<pdfrwt beam="1">  1        2 0.12400377E+00 0.92620388E+03</pdfrwt>
<pdfrwt beam="2">  1       -2 0.40934697E-01 0.92620388E+03</pdfrwt>
<totfact> 0.23375302E+02</totfact>
</mgrwt>
<rwgt>
<wgt id='morphing_basis_vector_1'> +1.7934505e-04 </wgt>
<wgt id='morphing_basis_vector_2'> +1.1921229e-04 </wgt>
<wgt id='morphing_basis_vector_3'> +1.6856982e-04 </wgt>
<wgt id='morphing_basis_vector_4'> +9.3230715e-05 </wgt>
<wgt id='morphing_basis_vector_5'> +1.5488686e-04 </wgt>
</rwgt>
</event>
<event>
 4      1 +1.4786900e-06 9.03591900e+02 7.81860800e-03 8.78202200e-02
        2 -1    0    0  501    0 +0.0000000000e+00 +0.0000000000e+00 +4.8395530095e+02 4.8395530095e+02 0.0000000000e+00 0.0000e+00 -1.0000e+00
       -2 -1    0    0    0  501 -0.0000000000e+00 -0.0000000000e+00 -4.2177357879e+02 4.2177357879e+02 0.0000000000e+00 0.0000e+00 1.0000e+00
      -13  1    1    2    0    0 -1.9740325337e+02 -1.7336797402e+01 -3.7588779804e+02 4.2492381164e+02 0.0000000000e+00 0.0000e+00 1.0000e+00
       13  1    1    2    0    0 +1.9740325337e+02 +1.7336797402e+01 +4.3806952020e+02 4.8080506810e+02 0.0000000000e+00 0.0000e+00 -1.0000e+00
<mgrwt>
<rscale>  0 0.90359185E+03</rscale>
<asrwt>0</asrwt>
<pdfrwt beam="1">  1        2 0.74454662E-01 0.90359185E+03</pdfrwt>
<pdfrwt beam="2">  1       -2 0.64888243E-01 0.90359185E+03</pdfrwt>
<totfact> 0.17350105E+02</totfact>
</mgrwt>
<rwgt>
<wgt id='morphing_basis_vector_1'> +1.6075182e-04 </wgt>
<wgt id='morphing_basis_vector_2'> +9.8951087e-05 </wgt>
<wgt id='morphing_basis_vector_3'> +1.5034482e-04 </wgt>
<wgt id='morphing_basis_vector_4'> +8.8183182e-05 </wgt>
<wgt id='morphing_basis_vector_5'> +1.3911396e-04 </wgt>
</rwgt>
</event>
<event>
 4      1 +1.4786900e-06 1.04636100e+03 7.81860800e-03 8.64149300e-02
        2 -1    0    0  501    0 +0.0000000000e+00 +0.0000000000e+00 +1.1018170869e+03 1.1018170869e+03 0.0000000000e+00 0.0000e+00 -1.0000e+00
       -2 -1    0    0    0  501 -0.0000000000e+00 -0.0000000000e+00 -2.4842378837e+02 2.4842378837e+02 0.0000000000e+00 0.0000e+00 1.0000e+00
      -13  1    1    2    0    0 +4.9678757769e+02 +1.3804299183e+02 +3.1226493186e+02 6.0279611198e+02 0.0000000000e+00 0.0000e+00 1.0000e+00
       13  1    1    2    0    0 -4.9678757769e+02 -1.3804299183e+02 +5.4112836662e+02 7.4744476325e+02 0.0000000000e+00 0.0000e+00 -1.0000e+00
<mgrwt>
<rscale>  0 0.10463605E+04</rscale>
<asrwt>0</asrwt>
<pdfrwt beam="1">  1        2 0.16951032E+00 0.10463605E+04</pdfrwt>
<pdfrwt beam="2">  1       -2 0.38219045E-01 0.10463605E+04</pdfrwt>
<totfact> 0.17059593E+02</totfact>
</mgrwt>
<rwgt>
<wgt id='morphing_basis_vector_1'> +2.8093428e-04 </wgt>
<wgt id='morphing_basis_vector_2'> +1.8928671e-04 </wgt>
<wgt id='morphing_basis_vector_3'> +2.7342993e-04 </wgt>
<wgt id='morphing_basis_vector_4'> +1.5832779e-04 </wgt>
<wgt id='morphing_basis_vector_5'> +2.6346604e-04 </wgt>
</rwgt>
</event>
<event>
 4      1 +1.4786900e-06 1.02793600e+03 7.81860800e-03 8.65827600e-02
        2 -1    0    0  501    0 +0.0000000000e+00 +0.0000000000e+00 +2.0137981992e+03 2.0137981992e+03 0.0000000000e+00 0.0000e+00 -1.0000e+00
       -2 -1    0    0    0  501 -0.0000000000e+00 -0.0000000000e+00 -1.3117642824e+02 1.3117642824e+02 0.0000000000e+00 0.0000e+00 1.0000e+00
      -13  1    1    2    0    0 +2.2214596127e+02 +2.6609196931e+02 +1.4944571189e+02 3.7747554231e+02 0.0000000000e+00 0.0000e+00 1.0000e+00
       13  1    1    2    0    0 -2.2214596127e+02 -2.6609196931e+02 +1.7331760591e+03 1.7674990852e+03 0.0000000000e+00 0.0000e+00 -1.0000e+00
<mgrwt>
<rscale>  0 0.10279355E+04</rscale>
<asrwt>0</asrwt>
<pdfrwt beam="1">  1        2 0.30981509E+00 0.10279355E+04</pdfrwt>
<pdfrwt beam="2">  1       -2 0.20180990E-01 0.10279355E+04</pdfrwt>
<totfact> 0.16048874E+02</totfact>
</mgrwt>
<rwgt>
<wgt id='morphing_basis_vector_1'> +2.5832040e-04 </wgt>
<wgt id='morphing_basis_vector_2'> +1.6268117e-04 </wgt>
<wgt id='morphing_basis_vector_3'> +2.5027881e-04 </wgt>
<wgt id='morphing_basis_vector_4'> +1.5405650e-04 </wgt>
<wgt id='morphing_basis_vector_5'> +2.4446981e-04 </wgt>
</rwgt>
</event>
<event>
 4      1 +1.4786900e-06 1.04417500e+03 7.81860800e-03 8.64346500e-02
        2 -1    0    0  501    0 +0.0000000000e+00 +0.0000000000e+00 +1.2569037132e+03 1.2569037132e+03 0.0000000000e+00 0.0000e+00 -1.0000e+00
       -2 -1    0    0    0  501 -0.0000000000e+00 -0.0000000000e+00 -2.1686257452e+02 2.1686257452e+02 0.0000000000e+00 0.0000e+00 1.0000e+00
      -13  1    1    2    0    0 -1.3279941379e+02 -4.9826509721e+02 +4.0473637079e+02 6.5552675097e+02 0.0000000000e+00 0.0000e+00 1.0000e+00
       13  1    1    2    0    0 +1.3279941379e+02 +4.9826509721e+02 +6.3530476793e+02 8.1823953679e+02 0.0000000000e+00 0.0000e+00 -1.0000e+00
<mgrwt>
<rscale>  0 0.10441750E+04</rscale>
<asrwt>0</asrwt>
<pdfrwt beam="1">  1        2 0.19336980E+00 0.10441750E+04</pdfrwt>
<pdfrwt beam="2">  1       -2 0.33363474E-01 0.10441750E+04</pdfrwt>
<totfact> 0.17730550E+02</totfact>
</mgrwt>
<rwgt>
<wgt id='morphing_basis_vector_1'> +2.7902822e-04 </wgt>
<wgt id='morphing_basis_vector_2'> +1.8858830e-04 </wgt>
<wgt id='morphing_basis_vector_3'> +2.7143109e-04 </wgt>
<wgt id='morphing_basis_vector_4'> +1.5648574e-04 </wgt>
<wgt id='morphing_basis_vector_5'> +2.6107574e-04 </wgt>
</rwgt>
</event>
<event>
 4      1 +1.4786900e-06 1.05560900e+03 7.81860800e-03 8.63320400e-02
        2 -1    0    0  501    0 +0.0000000000e+00 +0.0000000000e+00 +1.2946767614e+03 1.2946767614e+03 0.0000000000e+00 0.0000e+00 -1.0000e+00
       -2 -1    0    0    0  501 -0.0000000000e+00 -0.0000000000e+00 -2.1517151452e+02 2.1517151452e+02 0.0000000000e+00 0.0000e+00 1.0000e+00
      -13  1    1    2    0    0 -2.8793290689e+02 -3.6779528536e+02 +1.8823710274e+02 5.0359898495e+02 0.0000000000e+00 0.0000e+00 1.0000e+00
       13  1    1    2    0    0 +2.8793290689e+02 +3.6779528536e+02 +8.9126814413e+02 1.0062492909e+03 0.0000000000e+00 0.0000e+00 -1.0000e+00
<mgrwt>
<rscale>  0 0.10556089E+04</rscale>
<asrwt>0</asrwt>
<pdfrwt beam="1">  1        2 0.19918103E+00 0.10556089E+04</pdfrwt>
<pdfrwt beam="2">  1       -2 0.33103311E-01 0.10556089E+04</pdfrwt>
<totfact> 0.17093968E+02</totfact>
</mgrwt>
<rwgt>
<wgt id='morphing_basis_vector_1'> +2.8636043e-04 </wgt>
<wgt id='morphing_basis_vector_2'> +1.8393609e-04 </wgt>
<wgt id='morphing_basis_vector_3'> +2.7925957e-04 </wgt>
<wgt id='morphing_basis_vector_4'> +1.7069667e-04 </wgt>
<wgt id='morphing_basis_vector_5'> +2.7403503e-04 </wgt>
</rwgt>
</event>
<event>
 4      1 +1.4786900e-06 1.02810000e+03 7.81860800e-03 8.65812500e-02
        2 -1    0    0  501    0 +0.0000000000e+00 +0.0000000000e+00 +1.3506732721e+03 1.3506732721e+03 0.0000000000e+00 0.0000e+00 -1.0000e+00
       -2 -1    0    0    0  501 -0.0000000000e+00 -0.0000000000e+00 -1.9564111731e+02 1.9564111731e+02 0.0000000000e+00 0.0000e+00 1.0000e+00
      -13  1    1    2    0    0 -2.3612780226e+02 -2.0026078633e+01 -1.0858487959e+02 2.6066848467e+02 0.0000000000e+00 0.0000e+00 1.0000e+00
       13  1    1    2    0    0 +2.3612780226e+02 +2.0026078633e+01 +1.2636170344e+03 1.2856459047e+03 0.0000000000e+00 0.0000e+00 -1.0000e+00
<mgrwt>
<rscale>  0 0.10280997E+04</rscale>
<asrwt>0</asrwt>
<pdfrwt beam="1">  1        2 0.20779588E+00 0.10280997E+04</pdfrwt>
<pdfrwt beam="2">  1       -2 0.30098634E-01 0.10280997E+04</pdfrwt>
<totfact> 0.18859936E+02</totfact>
</mgrwt>
<rwgt>
<wgt id='morphing_basis_vector_1'> +2.5827834e-04 </wgt>
<wgt id='morphing_basis_vector_2'> +1.6219111e-04 </wgt>
<wgt id='morphing_basis_vector_3'> +2.5024889e-04 </wgt>
<wgt id='morphing_basis_vector_4'> +1.5446944e-04 </wgt>
<wgt id='morphing_basis_vector_5'> +2.4465739e-04 </wgt>
</rwgt>
</event>
<event>
 4      1 +1.4786900e-06 9.13696600e+02 7.81860800e-03 8.77120900e-02
        2 -1    0    0  501    0 +0.0000000000e+00 +0.0000000000e+00 +1.9834737560e+02 1.9834737560e+02 0.0000000000e+00 0.0000e+00 -1.0000e+00
       -2 -1    0    0    0  501 -0.0000000000e+00 -0.0000000000e+00 -1.0522465861e+03 1.0522465861e+03 0.0000000000e+00 0.0000e+00 1.0000e+00
      -13  1    1    2    0    0 +2.8598680954e+01 -2.2741166068e+02 -9.6785591159e+02 9.9462506180e+02 0.0000000000e+00 0.0000e+00 1.0000e+00
       13  1    1    2    0    0 -2.8598680954e+01 +2.2741166068e+02 +1.1395670112e+02 2.5596889986e+02 0.0000000000e+00 0.0000e+00 -1.0000e+00
<mgrwt>
<rscale>  0 0.91369656E+03</rscale>
<asrwt>0</asrwt>
<pdfrwt beam="1">  1        2 0.30514981E-01 0.91369656E+03</pdfrwt>
<pdfrwt beam="2">  1       -2 0.16188409E+00 0.91369656E+03</pdfrwt>
<totfact> 0.49807720E+01</totfact>
</mgrwt>
<rwgt>
<wgt id='morphing_basis_vector_1'> +1.6740175e-04 </wgt>
<wgt id='morphing_basis_vector_2'> +1.0327222e-04 </wgt>
<wgt id='morphing_basis_vector_3'> +1.5708532e-04 </wgt>
<wgt id='morphing_basis_vector_4'> +9.2568131e-05 </wgt>
<wgt id='morphing_basis_vector_5'> +1.4612753e-04 </wgt>
</rwgt>
</event>
<event>
 4      1 +1.4786900e-06 9.98319400e+02 7.81860800e-03 8.68603000e-02
        2 -1    0    0  501    0 +0.0000000000e+00 +0.0000000000e+00 +2.1997434770e+02 2.1997434770e+02 0.0000000000e+00 0.0000e+00 -1.0000e+00
       -2 -1    0    0    0  501 -0.0000000000e+00 -0.0000000000e+00 -1.1326794639e+03 1.1326794639e+03 0.0000000000e+00 0.0000e+00 1.0000e+00
      -13  1    1    2    0    0 -2.6203234221e+02 -1.8838981754e+02 -9.7231043089e+02 1.0244702269e+03 0.0000000000e+00 0.0000e+00 1.0000e+00
       13  1    1    2    0    0 +2.6203234221e+02 +1.8838981754e+02 +5.9605314723e+01 3.2818358469e+02 0.0000000000e+00 0.0000e+00 -1.0000e+00
<mgrwt>
<rscale>  0 0.99831944E+03</rscale>
<asrwt>0</asrwt>
<pdfrwt beam="1">  1        2 0.33842207E-01 0.99831944E+03</pdfrwt>
<pdfrwt beam="2">  1       -2 0.17425838E+00 0.99831944E+03</pdfrwt>
<totfact> 0.35169043E+01</totfact>
</mgrwt>
<rwgt>
<wgt id='morphing_basis_vector_1'> +2.3177904e-04 </wgt>
<wgt id='morphing_basis_vector_2'> +1.4525439e-04 </wgt>
<wgt id='morphing_basis_vector_3'> +2.2290872e-04 </wgt>
<wgt id='morphing_basis_vector_4'> +1.3588689e-04 </wgt>
<wgt id='morphing_basis_vector_5'> +2.1538154e-04 </wgt>
</rwgt>
</event>
<event>
 4      1 +1.4786900e-06 9.72411500e+02 7.81860800e-03 8.71114400e-02
        2 -1    0    0  501    0 +0.0000000000e+00 +0.0000000000e+00 +3.8673837003e+02 3.8673837003e+02 0.0000000000e+00 0.0000e+00 1.0000e+00
       -2 -1    0    0    0  501 -0.0000000000e+00 -0.0000000000e+00 -6.1125566123e+02 6.1125566123e+02 0.0000000000e+00 0.0000e+00 -1.0000e+00
      -13  1    1    2    0    0 +1.8969783567e+01 +1.0040717582e+02 -6.0011102687e+02 6.0874846876e+02 0.0000000000e+00 0.0000e+00 -1.0000e+00
       13  1    1    2    0    0 -1.8969783567e+01 -1.0040717582e+02 +3.7559373568e+02 3.8924556250e+02 0.0000000000e+00 0.0000e+00 1.0000e+00
<mgrwt>
<rscale>  0 0.97241147E+03</rscale>
<asrwt>0</asrwt>
<pdfrwt beam="1">  1        2 0.59498211E-01 0.97241147E+03</pdfrwt>
<pdfrwt beam="2">  1       -2 0.94039332E-01 0.97241147E+03</pdfrwt>
<totfact> 0.97294855E+01</totfact>
</mgrwt>
<rwgt>
<wgt id='morphing_basis_vector_1'> +2.1021635e-04 </wgt>
<wgt id='morphing_basis_vector_2'> +1.3086655e-04 </wgt>
<wgt id='morphing_basis_vector_3'> +2.0077811e-04 </wgt>
<wgt id='morphing_basis_vector_4'> +1.2149910e-04 </wgt>
<wgt id='morphing_basis_vector_5'> +1.9209243e-04 </wgt>
</rwgt>
</event>
<event>
 4      1 +1.4786900e-06 9.81273300e+02 7.81860800e-03 8.70246300e-02
        2 -1    0    0  501    0 +0.0000000000e+00 +0.0000000000e+00 +5.6966123476e+02 5.6966123476e+02 0.0000000000e+00 0.0000e+00 -1.0000e+00
       -2 -1    0    0    0  501 -0.0000000000e+00 -0.0000000000e+00 -4.2257449140e+02 4.2257449140e+02 0.0000000000e+00 0.0000e+00 1.0000e+00
      -13  1    1    2    0    0 +1.9874031680e+02 +3.5534386812e+02 -2.0329860526e+02 4.5507944475e+02 0.0000000000e+00 0.0000e+00 1.0000e+00
       13  1    1    2    0    0 -1.9874031680e+02 -3.5534386812e+02 +3.5038534862e+02 5.3715628141e+02 0.0000000000e+00 0.0000e+00 -1.0000e+00
<mgrwt>
<rscale>  0 0.98127327E+03</rscale>
<asrwt>0</asrwt>
<pdfrwt beam="1">  1        2 0.87640190E-01 0.98127327E+03</pdfrwt>
<pdfrwt beam="2">  1       -2 0.65011460E-01 0.98127327E+03</pdfrwt>
<totfact> 0.14254700E+02</totfact>
</mgrwt>
<rwgt>
<wgt id='morphing_basis_vector_1'> +2.1804114e-04 </wgt>
<wgt id='morphing_basis_vector_2'> +1.3757344e-04 </wgt>
<wgt id='morphing_basis_vector_3'> +2.0872197e-04 </wgt>
<wgt id='morphing_basis_vector_4'> +1.2532613e-04 </wgt>
<wgt id='morphing_basis_vector_5'> +1.9978413e-04 </wgt>
</rwgt>
</event>
<event>
 4      1 +1.4786900e-06 1.01586200e+03 7.81860800e-03 8.66947100e-02
        2 -1    0    0  501    0 +0.0000000000e+00 +0.0000000000e+00 +1.9168394550e+03 1.9168394550e+03 0.0000000000e+00 0.0000e+00 -1.0000e+00
       -2 -1    0    0    0  501 -0.0000000000e+00 -0.0000000000e+00 -1.3459349708e+02 1.3459349708e+02 0.0000000000e+00 0.0000e+00 1.0000e+00
      -13  1    1    2    0    0 +4.6746746462e+02 -1.9171414111e+02 +7.8592049329e+02 9.3431855603e+02 0.0000000000e+00 0.0000e+00 1.0000e+00
       13  1    1    2    0    0 -4.6746746462e+02 +1.9171414111e+02 +9.9632546460e+02 1.1171143960e+03 0.0000000000e+00 0.0000e+00 -1.0000e+00
<mgrwt>
<rscale>  0 0.10158624E+04</rscale>
<asrwt>0</asrwt>
<pdfrwt beam="1">  1        2 0.29489836E+00 0.10158624E+04</pdfrwt>
<pdfrwt beam="2">  1       -2 0.20706693E-01 0.10158624E+04</pdfrwt>
<totfact> 0.17420106E+02</totfact>
</mgrwt>
<rwgt>
<wgt id='morphing_basis_vector_1'> +2.5308532e-04 </wgt>
<wgt id='morphing_basis_vector_2'> +1.7310314e-04 </wgt>
<wgt id='morphing_basis_vector_3'> +2.4438701e-04 </wgt>
<wgt id='morphing_basis_vector_4'> +1.3730912e-04 </wgt>
<wgt id='morphing_basis_vector_5'> +2.3173406e-04 </wgt>
</rwgt>
</event>
<event>
 4      1 +1.4786900e-06 1.01675700e+03 7.81860800e-03 8.66863700e-02
        2 -1    0    0  501    0 +0.0000000000e+00 +0.0000000000e+00 +3.9932277978e+02 3.9932277978e+02 0.0000000000e+00 0.0000e+00 -1.0000e+00
       -2 -1    0    0    0  501 -0.0000000000e+00 -0.0000000000e+00 -6.4721693831e+02 6.4721693831e+02 0.0000000000e+00 0.0000e+00 1.0000e+00
      -13  1    1    2    0    0 +3.1732915993e+02 +3.6922824274e+02 -2.7459404669e+02 5.5895364876e+02 0.0000000000e+00 0.0000e+00 1.0000e+00
       13  1    1    2    0    0 -3.1732915993e+02 -3.6922824274e+02 +2.6699888167e+01 4.8758606933e+02 0.0000000000e+00 0.0000e+00 -1.0000e+00
<mgrwt>
<rscale>  0 0.10167565E+04</rscale>
<asrwt>0</asrwt>
<pdfrwt beam="1">  1        2 0.61434274E-01 0.10167565E+04</pdfrwt>
<pdfrwt beam="2">  1       -2 0.99571836E-01 0.10167565E+04</pdfrwt>
<totfact> 0.81654920E+01</totfact>
</mgrwt>
<rwgt>
<wgt id='morphing_basis_vector_1'> +2.5074411e-04 </wgt>
<wgt id='morphing_basis_vector_2'> +1.6410396e-04 </wgt>
<wgt id='morphing_basis_vector_3'> +2.4223403e-04 </wgt>
<wgt id='morphing_basis_vector_4'> +1.4277822e-04 </wgt>
<wgt id='morphing_basis_vector_5'> +2.3291763e-04 </wgt>
</rwgt>
</event>
<event>
 4      1 +1.4786900e-06 1.00262200e+03 7.81860800e-03 8.68193600e-02
        2 -1    0    0  501    0 +0.0000000000e+00 +0.0000000000e+00 +1.8042346616e+03 1.8042346616e+03 0.0000000000e+00 0.0000e+00 -1.0000e+00
       -2 -1    0    0    0  501 -0.0000000000e+00 -0.0000000000e+00 -1.3929055941e+02 1.3929055941e+02 0.0000000000e+00 0.0000e+00 1.0000e+00
      -13  1    1    2    0    0 -1.8194971163e+02 -3.6205944695e+02 +2.6031921900e+02 4.8162105069e+02 0.0000000000e+00 0.0000e+00 1.0000e+00
       13  1    1    2    0    0 +1.8194971163e+02 +3.6205944695e+02 +1.4046248832e+03 1.4619041704e+03 0.0000000000e+00 0.0000e+00 -1.0000e+00
<mgrwt>
<rscale>  0 0.10026223E+04</rscale>
<asrwt>0</asrwt>
<pdfrwt beam="1">  1        2 0.27757455E+00 0.10026223E+04</pdfrwt>
<pdfrwt beam="2">  1       -2 0.21429318E-01 0.10026223E+04</pdfrwt>
<totfact> 0.18999822E+02</totfact>
</mgrwt>
<rwgt>
<wgt id='morphing_basis_vector_1'> +2.3594401e-04 </wgt>
<wgt id='morphing_basis_vector_2'> +1.4904210e-04 </wgt>
<wgt id='morphing_basis_vector_3'> +2.2715292e-04 </wgt>
<wgt id='morphing_basis_vector_4'> +1.3773423e-04 </wgt>
<wgt id='morphing_basis_vector_5'> +2.1940058e-04 </wgt>
</rwgt>
</event>
<event>
 4      1 +1.4786900e-06 1.00801100e+03 7.81860800e-03 8.67683900e-02
        2 -1    0    0  501    0 +0.0000000000e+00 +0.0000000000e+00 +1.2119968626e+03 1.2119968626e+03 0.0000000000e+00 0.0000e+00 -1.0000e+00
       -2 -1    0    0    0  501 -0.0000000000e+00 -0.0000000000e+00 -2.0958938342e+02 2.0958938342e+02 0.0000000000e+00 0.0000e+00 1.0000e+00
      -13  1    1    2    0    0 -1.0179356224e+02 -2.2109593215e+02 -1.2120534641e+02 2.7191189110e+02 0.0000000000e+00 0.0000e+00 1.0000e+00
       13  1    1    2    0    0 +1.0179356224e+02 +2.2109593215e+02 +1.1236128256e+03 1.1496743549e+03 0.0000000000e+00 0.0000e+00 -1.0000e+00
<mgrwt>
<rscale>  0 0.10080113E+04</rscale>
<asrwt>0</asrwt>
<pdfrwt beam="1">  1        2 0.18646105E+00 0.10080113E+04</pdfrwt>
<pdfrwt beam="2">  1       -2 0.32244521E-01 0.10080113E+04</pdfrwt>
<totfact> 0.20058937E+02</totfact>
</mgrwt>
<rwgt>
<wgt id='morphing_basis_vector_1'> +2.4007718e-04 </wgt>
<wgt id='morphing_basis_vector_2'> +1.5035483e-04 </wgt>
<wgt id='morphing_basis_vector_3'> +2.3146672e-04 </wgt>
<wgt id='morphing_basis_vector_4'> +1.4187374e-04 </wgt>
<wgt id='morphing_basis_vector_5'> +2.2461883e-04 </wgt>
</rwgt>
</event>
<event>
 4      1 +1.4786900e-06 1.04923000e+03 7.81860800e-03 8.63891200e-02
        2 -1    0    0  501    0 +0.0000000000e+00 +0.0000000000e+00 +6.8787679165e+02 6.8787679165e+02 0.0000000000e+00 0.0000e+00 1.0000e+00
       -2 -1    0    0    0  501 -0.0000000000e+00 -0.0000000000e+00 -4.0010197807e+02 4.0010197807e+02 0.0000000000e+00 0.0000e+00 -1.0000e+00
      -13  1    1    2    0    0 +3.3948306228e+02 +2.7538126007e+02 -1.5688914338e+02 4.6443276293e+02 0.0000000000e+00 0.0000e+00 -1.0000e+00
       13  1    1    2    0    0 -3.3948306228e+02 -2.7538126007e+02 +4.4466395695e+02 6.2354600679e+02 0.0000000000e+00 0.0000e+00 1.0000e+00
<mgrwt>
<rscale>  0 0.10492299E+04</rscale>
<asrwt>0</asrwt>
<pdfrwt beam="1">  1        2 0.10582720E+00 0.10492299E+04</pdfrwt>
<pdfrwt beam="2">  1       -2 0.61554150E-01 0.10492299E+04</pdfrwt>
<totfact> 0.12697038E+02</totfact>
</mgrwt>
<rwgt>
<wgt id='morphing_basis_vector_1'> +2.7942969e-04 </wgt>
<wgt id='morphing_basis_vector_2'> +1.7805167e-04 </wgt>
<wgt id='morphing_basis_vector_3'> +2.7209346e-04 </wgt>
<wgt id='morphing_basis_vector_4'> +1.6718354e-04 </wgt>
<wgt id='morphing_basis_vector_5'> +2.6702721e-04 </wgt>
</rwgt>
</event>
<event>
 4      1 +1.4786900e-06 9.21825100e+02 7.81860800e-03 8.76261600e-02
        2 -1    0    0  501    0 +0.0000000000e+00 +0.0000000000e+00 +3.2396996095e+02 3.2396996095e+02 0.0000000000e+00 0.0000e+00 1.0000e+00
       -2 -1    0    0    0  501 -0.0000000000e+00 -0.0000000000e+00 -6.5574104502e+02 6.5574104502e+02 0.0000000000e+00 0.0000e+00 -1.0000e+00
      -13  1    1    2    0    0 +3.1854568850e+02 +3.2508903171e+02 -2.4315713340e+02 5.1602289263e+02 0.0000000000e+00 0.0000e+00 -1.0000e+00
       13  1    1    2    0    0 -3.1854568850e+02 -3.2508903171e+02 -8.8613950671e+01 4.6368811334e+02 0.0000000000e+00 0.0000e+00 1.0000e+00
<mgrwt>
<rscale>  0 0.92182515E+03</rscale>
<asrwt>0</asrwt>
<pdfrwt beam="1">  1        2 0.49841533E-01 0.92182515E+03</pdfrwt>
<pdfrwt beam="2">  1       -2 0.10088324E+00 0.92182515E+03</pdfrwt>
<totfact> 0.10078798E+02</totfact>
</mgrwt>
<rwgt>
<wgt id='morphing_basis_vector_1'> +1.7626586e-04 </wgt>
<wgt id='morphing_basis_vector_2'> +1.1707196e-04 </wgt>
<wgt id='morphing_basis_vector_3'> +1.6542797e-04 </wgt>
<wgt id='morphing_basis_vector_4'> +9.1329645e-05 </wgt>
<wgt id='morphing_basis_vector_5'> +1.5168700e-04 </wgt>
</rwgt>
</event>
<event>
 4      1 +1.4786900e-06 9.15901300e+02 7.81860800e-03 8.76886900e-02
        2 -1    0    0  501    0 +0.0000000000e+00 +0.0000000000e+00 +1.3041855841e+03 1.3041855841e+03 0.0000000000e+00 0.0000e+00 1.0000e+00
       -2 -1    0    0    0  501 -0.0000000000e+00 -0.0000000000e+00 -1.6080442224e+02 1.6080442224e+02 0.0000000000e+00 0.0000e+00 -1.0000e+00
      -13  1    1    2    0    0 -2.4463566930e+02 +3.7249282341e+02 +7.4037060645e+02 8.6414475007e+02 0.0000000000e+00 0.0000e+00 -1.0000e+00
       13  1    1    2    0    0 +2.4463566930e+02 -3.7249282341e+02 +4.0301055536e+02 6.0084525622e+02 0.0000000000e+00 0.0000e+00 1.0000e+00
<mgrwt>
<rscale>  0 0.91590133E+03</rscale>
<asrwt>0</asrwt>
<pdfrwt beam="1">  1        2 0.20064393E+00 0.91590133E+03</pdfrwt>
<pdfrwt beam="2">  1       -2 0.24739143E-01 0.91590133E+03</pdfrwt>
<totfact> 0.28409425E+02</totfact>
</mgrwt>
<rwgt>
<wgt id='morphing_basis_vector_1'> +1.8216621e-04 </wgt>
<wgt id='morphing_basis_vector_2'> +1.4463660e-04 </wgt>
<wgt id='morphing_basis_vector_3'> +1.6935369e-04 </wgt>
<wgt id='morphing_basis_vector_4'> +7.4364357e-05 </wgt>
<wgt id='morphing_basis_vector_5'> +1.4665406e-04 </wgt>
</rwgt>
</event>
<event>
 4      1 +1.4786900e-06 1.05588700e+03 7.81860800e-03 8.63295600e-02
        2 -1    0    0  501    0 +0.0000000000e+00 +0.0000000000e+00 +5.8946173726e+02 5.8946173726e+02 0.0000000000e+00 0.0000e+00 1.0000e+00
       -2 -1    0    0    0  501 -0.0000000000e+00 -0.0000000000e+00 -4.7284550017e+02 4.7284550017e+02 0.0000000000e+00 0.0000e+00 -1.0000e+00
      -13  1    1    2    0    0 -4.0876546473e+02 -1.4478338729e+02 -2.4464222340e+02 4.9789682853e+02 0.0000000000e+00 0.0000e+00 -1.0000e+00
       13  1    1    2    0    0 +4.0876546473e+02 +1.4478338729e+02 +3.6125846049e+02 5.6441040890e+02 0.0000000000e+00 0.0000e+00 1.0000e+00
<mgrwt>
<rscale>  0 0.10558870E+04</rscale>
<asrwt>0</asrwt>
<pdfrwt beam="1">  1        2 0.90686422E-01 0.10558870E+04</pdfrwt>
<pdfrwt beam="2">  1       -2 0.72745461E-01 0.10558870E+04</pdfrwt>
<totfact> 0.10725930E+02</totfact>
</mgrwt>
<rwgt>
<wgt id='morphing_basis_vector_1'> +2.8599777e-04 </wgt>
<wgt id='morphing_basis_vector_2'> +1.8217889e-04 </wgt>
<wgt id='morphing_basis_vector_3'> +2.7891031e-04 </wgt>
<wgt id='morphing_basis_vector_4'> +1.7191976e-04 </wgt>
<wgt id='morphing_basis_vector_5'> +2.7441021e-04 </wgt>
</rwgt>
</event>
<event>
 4      1 +1.4786900e-06 9.21159800e+02 7.81860800e-03 8.76331500e-02
        2 -1    0    0  501    0 +0.0000000000e+00 +0.0000000000e+00 +1.2645771258e+03 1.2645771258e+03 0.0000000000e+00 0.0000e+00 -1.0000e+00
       -2 -1    0    0    0  501 -0.0000000000e+00 -0.0000000000e+00 -1.6775082362e+02 1.6775082362e+02 0.0000000000e+00 0.0000e+00 1.0000e+00
      -13  1    1    2    0    0 +3.3912576168e+02 -1.6104805159e+02 +1.3353523060e+02 3.9846507372e+02 0.0000000000e+00 0.0000e+00 1.0000e+00
       13  1    1    2    0    0 -3.3912576168e+02 +1.6104805159e+02 +9.6329107154e+02 1.0338628757e+03 0.0000000000e+00 0.0000e+00 -1.0000e+00
<mgrwt>
<rscale>  0 0.92115982E+03</rscale>
<asrwt>0</asrwt>
<pdfrwt beam="1">  1        2 0.19455032E+00 0.92115982E+03</pdfrwt>
<pdfrwt beam="2">  1       -2 0.25807820E-01 0.92115982E+03</pdfrwt>
<totfact> 0.27818439E+02</totfact>
</mgrwt>
<rwgt>
<wgt id='morphing_basis_vector_1'> +1.7287965e-04 </wgt>
<wgt id='morphing_basis_vector_2'> +1.0786601e-04 </wgt>
<wgt id='morphing_basis_vector_3'> +1.6256231e-04 </wgt>
<wgt id='morphing_basis_vector_4'> +9.5282272e-05 </wgt>
<wgt id='morphing_basis_vector_5'> +1.5143595e-04 </wgt>
</rwgt>
</event>
<event>
 4      1 +1.4786900e-06 1.04800200e+03 7.81860800e-03 8.64001500e-02
        2 -1    0    0  501    0 +0.0000000000e+00 +0.0000000000e+00 +6.6869342643e+02 6.6869342643e+02 0.0000000000e+00 0.0000e+00 -1.0000e+00
       -2 -1    0    0    0  501 -0.0000000000e+00 -0.0000000000e+00 -4.1061744781e+02 4.1061744781e+02 0.0000000000e+00 0.0000e+00 1.0000e+00
      -13  1    1    2    0    0 -8.7816479063e+01 -1.7838692082e+02 -3.7025849624e+02 4.2026774984e+02 0.0000000000e+00 0.0000e+00 1.0000e+00
       13  1    1    2    0    0 +8.7816479063e+01 +1.7838692082e+02 +6.2833447486e+02 6.5904312440e+02 0.0000000000e+00 0.0000e+00 -1.0000e+00
<mgrwt>
<rscale>  0 0.10480023E+04</rscale>
<asrwt>0</asrwt>
<pdfrwt beam="1">  1        2 0.10287591E+00 0.10480023E+04</pdfrwt>
<pdfrwt beam="2">  1       -2 0.63171915E-01 0.10480023E+04</pdfrwt>
<totfact> 0.12455539E+02</totfact>
</mgrwt>
<rwgt>
<wgt id='morphing_basis_vector_1'> +2.7732662e-04 </wgt>
<wgt id='morphing_basis_vector_2'> +1.7456532e-04 </wgt>
<wgt id='morphing_basis_vector_3'> +2.6995718e-04 </wgt>
<wgt id='morphing_basis_vector_4'> +1.6776210e-04 </wgt>
<wgt id='morphing_basis_vector_5'> +2.6577116e-04 </wgt>
</rwgt>
</event>
<event>
 4      1 +1.4786900e-06 9.70026600e+02 7.81860800e-03 8.71349600e-02
        2 -1    0    0  501    0 +0.0000000000e+00 +0.0000000000e+00 +9.9866182535e+02 9.9866182535e+02 0.0000000000e+00 0.0000e+00 -1.0000e+00
       -2 -1    0    0    0  501 -0.0000000000e+00 -0.0000000000e+00 -2.3555310327e+02 2.3555310327e+02 0.0000000000e+00 0.0000e+00 1.0000e+00
      -13  1    1    2    0    0 +2.6280851219e+02 +1.0953000548e+02 -1.1803246518e+02 3.0821550742e+02 0.0000000000e+00 0.0000e+00 1.0000e+00
       13  1    1    2    0    0 -2.6280851219e+02 -1.0953000548e+02 +8.8114118725e+02 9.2599942120e+02 0.0000000000e+00 0.0000e+00 -1.0000e+00
<mgrwt>
<rscale>  0 0.97002658E+03</rscale>
<asrwt>0</asrwt>
<pdfrwt beam="1">  1        2 0.15364028E+00 0.97002658E+03</pdfrwt>
<pdfrwt beam="2">  1       -2 0.36238939E-01 0.97002658E+03</pdfrwt>
<totfact> 0.21852599E+02</totfact>
</mgrwt>
<rwgt>
<wgt id='morphing_basis_vector_1'> +2.0841626e-04 </wgt>
<wgt id='morphing_basis_vector_2'> +1.2991442e-04 </wgt>
<wgt id='morphing_basis_vector_3'> +1.9892105e-04 </wgt>
<wgt id='morphing_basis_vector_4'> +1.2007595e-04 </wgt>
<wgt id='morphing_basis_vector_5'> +1.9003615e-04 </wgt>
</rwgt>
</event>
<event>
 4      1 +1.4786900e-06 1.05583100e+03 7.81860800e-03 8.63300500e-02
        2 -1    0    0  501    0 +0.0000000000e+00 +0.0000000000e+00 +5.9389926579e+02 5.9389926579e+02 0.0000000000e+00 0.0000e+00 1.0000e+00
       -2 -1    0    0    0  501 -0.0000000000e+00 -0.0000000000e+00 -4.6926306011e+02 4.6926306011e+02 0.0000000000e+00 0.0000e+00 -1.0000e+00
      -13  1    1    2    0    0 +5.3306378765e+01 -1.7359230649e+02 +5.6146053086e+02 5.9009642144e+02 0.0000000000e+00 0.0000e+00 1.0000e+00
       13  1    1    2    0    0 -5.3306378765e+01 +1.7359230649e+02 -4.3682432518e+02 4.7306590445e+02 0.0000000000e+00 0.0000e+00 -1.0000e+00
<mgrwt>
<rscale>  0 0.10558314E+04</rscale>
<asrwt>0</asrwt>
<pdfrwt beam="1">  1        2 0.91369118E-01 0.10558314E+04</pdfrwt>
<pdfrwt beam="2">  1       -2 0.72194317E-01 0.10558314E+04</pdfrwt>
<totfact> 0.10808464E+02</totfact>
</mgrwt>
<rwgt>
<wgt id='morphing_basis_vector_1'> +3.8882129e-04 </wgt>
<wgt id='morphing_basis_vector_2'> +4.9287512e-04 </wgt>
<wgt id='morphing_basis_vector_3'> +3.8130204e-04 </wgt>
<wgt id='morphing_basis_vector_4'> +7.1895564e-06 </wgt>
<wgt id='morphing_basis_vector_5'> +2.6406864e-04 </wgt>
</rwgt>
</event>
<event>
 4      1 +1.4786900e-06 9.86596600e+02 7.81860800e-03 8.69729400e-02
        2 -1    0    0  501    0 +0.0000000000e+00 +0.0000000000e+00 +5.0081678860e+02 5.0081678860e+02 0.0000000000e+00 0.0000e+00 1.0000e+00
       -2 -1    0    0    0  501 -0.0000000000e+00 -0.0000000000e+00 -4.8589264645e+02 4.8589264645e+02 0.0000000000e+00 0.0000e+00 -1.0000e+00
      -13  1    1    2    0    0 -3.0649403772e+02 +3.8620699885e+02 +2.3235802454e+01 4.9359329780e+02 0.0000000000e+00 0.0000e+00 -1.0000e+00
       13  1    1    2    0    0 +3.0649403772e+02 -3.8620699885e+02 -8.3116603093e+00 4.9311613725e+02 0.0000000000e+00 0.0000e+00 1.0000e+00
<mgrwt>
<rscale>  0 0.98659656E+03</rscale>
<asrwt>0</asrwt>
<pdfrwt beam="1">  1        2 0.77048738E-01 0.98659656E+03</pdfrwt>
<pdfrwt beam="2">  1       -2 0.74752714E-01 0.98659656E+03</pdfrwt>
<totfact> 0.12262500E+02</totfact>
</mgrwt>
<rwgt>
<wgt id='morphing_basis_vector_1'> +2.3061707e-04 </wgt>
<wgt id='morphing_basis_vector_2'> +1.6525401e-04 </wgt>
<wgt id='morphing_basis_vector_3'> +2.2070069e-04 </wgt>
<wgt id='morphing_basis_vector_4'> +1.1577304e-04 </wgt>
<wgt id='morphing_basis_vector_5'> +2.0381136e-04 </wgt>
</rwgt>
</event>
<event>
 4      1 +1.4786900e-06 9.72844400e+02 7.81860800e-03 8.71071700e-02
        2 -1    0    0  501    0 +0.0000000000e+00 +0.0000000000e+00 +3.1138064016e+02 3.1138064016e+02 0.0000000000e+00 0.0000e+00 -1.0000e+00
       -2 -1    0    0    0  501 -0.0000000000e+00 -0.0000000000e+00 -7.5986276250e+02 7.5986276250e+02 0.0000000000e+00 0.0000e+00 1.0000e+00
      -13  1    1    2    0    0 +2.1432064133e+02 -2.5026651714e+02 -6.1826029323e+02 7.0058008614e+02 0.0000000000e+00 0.0000e+00 1.0000e+00
       13  1    1    2    0    0 -2.1432064133e+02 +2.5026651714e+02 +1.6977817089e+02 3.7066331652e+02 0.0000000000e+00 0.0000e+00 -1.0000e+00
<mgrwt>
<rscale>  0 0.97284439E+03</rscale>
<asrwt>0</asrwt>
<pdfrwt beam="1">  1        2 0.47904715E-01 0.97284439E+03</pdfrwt>
<pdfrwt beam="2">  1       -2 0.11690196E+00 0.97284439E+03</pdfrwt>
<totfact> 0.72705377E+01</totfact>
</mgrwt>
<rwgt>
<wgt id='morphing_basis_vector_1'> +2.1075253e-04 </wgt>
<wgt id='morphing_basis_vector_2'> +1.3167098e-04 </wgt>
<wgt id='morphing_basis_vector_3'> +2.0130259e-04 </wgt>
<wgt id='morphing_basis_vector_4'> +1.2144358e-04 </wgt>
<wgt id='morphing_basis_vector_5'> +1.9244916e-04 </wgt>
</rwgt>
</event>
<event>
 4      1 +1.4786900e-06 9.63049100e+02 7.81860800e-03 8.72042000e-02
        2 -1    0    0  501    0 +0.0000000000e+00 +0.0000000000e+00 +4.4634479929e+02 4.4634479929e+02 0.0000000000e+00 0.0000e+00 -1.0000e+00
       -2 -1    0    0    0  501 -0.0000000000e+00 -0.0000000000e+00 -5.1947710325e+02 5.1947710325e+02 0.0000000000e+00 0.0000e+00 1.0000e+00
      -13  1    1    2    0    0 +7.9477767462e+01 +2.9716126840e+02 -4.0809785331e+02 5.1104343537e+02 0.0000000000e+00 0.0000e+00 1.0000e+00
       13  1    1    2    0    0 -7.9477767462e+01 -2.9716126840e+02 +3.3496554935e+02 4.5477846718e+02 0.0000000000e+00 0.0000e+00 -1.0000e+00
<mgrwt>
<rscale>  0 0.96304912E+03</rscale>
<asrwt>0</asrwt>
<pdfrwt beam="1">  1        2 0.68668431E-01 0.96304912E+03</pdfrwt>
<pdfrwt beam="2">  1       -2 0.79919554E-01 0.96304912E+03</pdfrwt>
<totfact> 0.12059899E+02</totfact>
</mgrwt>
<rwgt>
<wgt id='morphing_basis_vector_1'> +2.0300637e-04 </wgt>
<wgt id='morphing_basis_vector_2'> +1.2651643e-04 </wgt>
<wgt id='morphing_basis_vector_3'> +1.9337319e-04 </wgt>
<wgt id='morphing_basis_vector_4'> +1.1630105e-04 </wgt>
<wgt id='morphing_basis_vector_5'> +1.8413077e-04 </wgt>
</rwgt>
</event>
<event>
 4      1 +1.4786900e-06 9.05265800e+02 7.81860800e-03 8.78022000e-02
        2 -1    0    0  501    0 +0.0000000000e+00 +0.0000000000e+00 +5.1651586059e+02 5.1651586059e+02 0.0000000000e+00 0.0000e+00 1.0000e+00
       -2 -1    0    0    0  501 -0.0000000000e+00 -0.0000000000e+00 -3.9665098981e+02 3.9665098981e+02 0.0000000000e+00 0.0000e+00 -1.0000e+00
      -13  1    1    2    0    0 -4.1915404997e+02 +1.3173957065e+02 -4.9787745648e+01 4.4218124304e+02 0.0000000000e+00 0.0000e+00 -1.0000e+00
       13  1    1    2    0    0 +4.1915404997e+02 -1.3173957065e+02 +1.6965261643e+02 4.7098560736e+02 0.0000000000e+00 0.0000e+00 1.0000e+00
<mgrwt>
<rscale>  0 0.90526577E+03</rscale>
<asrwt>0</asrwt>
<pdfrwt beam="1">  1        2 0.79463978E-01 0.90526577E+03</pdfrwt>
<pdfrwt beam="2">  1       -2 0.61023229E-01 0.90526577E+03</pdfrwt>
<totfact> 0.18288064E+02</totfact>
</mgrwt>
<rwgt>
<wgt id='morphing_basis_vector_1'> +1.6411434e-04 </wgt>
<wgt id='morphing_basis_vector_2'> +1.0658064e-04 </wgt>
<wgt id='morphing_basis_vector_3'> +1.5325139e-04 </wgt>
<wgt id='morphing_basis_vector_4'> +8.5646594e-05 </wgt>
<wgt id='morphing_basis_vector_5'> +1.4008537e-04 </wgt>
</rwgt>
</event>
<event>
 4      1 +1.4786900e-06 9.83148500e+02 7.81860800e-03 8.70063800e-02
        2 -1    0    0  501    0 +0.0000000000e+00 +0.0000000000e+00 +5.3444324860e+02 5.3444324860e+02 0.0000000000e+00 0.0000e+00 1.0000e+00
       -2 -1    0    0    0  501 -0.0000000000e+00 -0.0000000000e+00 -4.5214385230e+02 4.5214385230e+02 0.0000000000e+00 0.0000e+00 -1.0000e+00
      -13  1    1    2    0    0 -1.0393289055e+02 +3.7041971776e+02 -2.6591468149e+02 4.6767876890e+02 0.0000000000e+00 0.0000e+00 -1.0000e+00
       13  1    1    2    0    0 +1.0393289055e+02 -3.7041971776e+02 +3.4821407779e+02 5.1890833200e+02 0.0000000000e+00 0.0000e+00 1.0000e+00
<mgrwt>
<rscale>  0 0.98314847E+03</rscale>
<asrwt>0</asrwt>
<pdfrwt beam="1">  1        2 0.82222038E-01 0.98314847E+03</pdfrwt>
<pdfrwt beam="2">  1       -2 0.69560593E-01 0.98314847E+03</pdfrwt>
<totfact> 0.13302293E+02</totfact>
</mgrwt>
<rwgt>
<wgt id='morphing_basis_vector_1'> +2.1935571e-04 </wgt>
<wgt id='morphing_basis_vector_2'> +1.3790254e-04 </wgt>
<wgt id='morphing_basis_vector_3'> +2.1009938e-04 </wgt>
<wgt id='morphing_basis_vector_4'> +1.2670914e-04 </wgt>
<wgt id='morphing_basis_vector_5'> +2.0147293e-04 </wgt>
</rwgt>
</event>
<event>
 4      1 +1.4786900e-06 1.02822700e+03 7.81860800e-03 8.65800700e-02
        2 -1    0    0  501    0 +0.0000000000e+00 +0.0000000000e+00 +3.7492067727e+02 3.7492067727e+02 0.0000000000e+00 0.0000e+00 -1.0000e+00
       -2 -1    0    0    0  501 -0.0000000000e+00 -0.0000000000e+00 -7.0498363846e+02 7.0498363846e+02 0.0000000000e+00 0.0000e+00 1.0000e+00
      -13  1    1    2    0    0 -2.1970816202e+02 -2.2762577742e+02 -5.9064887292e+02 6.7003825420e+02 0.0000000000e+00 0.0000e+00 1.0000e+00
       13  1    1    2    0    0 +2.1970816202e+02 +2.2762577742e+02 +2.6058591173e+02 4.0986606153e+02 0.0000000000e+00 0.0000e+00 -1.0000e+00
<mgrwt>
<rscale>  0 0.10282275E+04</rscale>
<asrwt>0</asrwt>
<pdfrwt beam="1">  1        2 0.57680105E-01 0.10282275E+04</pdfrwt>
<pdfrwt beam="2">  1       -2 0.10845902E+00 0.10282275E+04</pdfrwt>
<totfact> 0.71039876E+01</totfact>
</mgrwt>
<rwgt>
<wgt id='morphing_basis_vector_1'> +2.5850457e-04 </wgt>
<wgt id='morphing_basis_vector_2'> +1.6259255e-04 </wgt>
<wgt id='morphing_basis_vector_3'> +2.5047526e-04 </wgt>
<wgt id='morphing_basis_vector_4'> +1.5438353e-04 </wgt>
<wgt id='morphing_basis_vector_5'> +2.4477864e-04 </wgt>
</rwgt>
</event>
<event>
 4      1 +1.4786900e-06 1.03294900e+03 7.81860800e-03 8.65367300e-02
        2 -1    0    0  501    0 +0.0000000000e+00 +0.0000000000e+00 +8.7873565588e+02 8.7873565588e+02 0.0000000000e+00 0.0000e+00 -1.0000e+00
       -2 -1    0    0    0  501 -0.0000000000e+00 -0.0000000000e+00 -3.0355658285e+02 3.0355658285e+02 0.0000000000e+00 0.0000e+00 1.0000e+00
      -13  1    1    2    0    0 -1.8950357167e+02 -3.9809875444e+02 -2.0282662585e+01 4.4136788325e+02 0.0000000000e+00 0.0000e+00 1.0000e+00
       13  1    1    2    0    0 +1.8950357167e+02 +3.9809875444e+02 +5.9546173562e+02 7.4092435548e+02 0.0000000000e+00 0.0000e+00 -1.0000e+00
<mgrwt>
<rscale>  0 0.10329492E+04</rscale>
<asrwt>0</asrwt>
<pdfrwt beam="1">  1        2 0.13519010E+00 0.10329492E+04</pdfrwt>
<pdfrwt beam="2">  1       -2 0.46701013E-01 0.10329492E+04</pdfrwt>
<totfact> 0.16138916E+02</totfact>
</mgrwt>
<rwgt>
<wgt id='morphing_basis_vector_1'> +2.6381671e-04 </wgt>
<wgt id='morphing_basis_vector_2'> +1.6814404e-04 </wgt>
<wgt id='morphing_basis_vector_3'> +2.5591022e-04 </wgt>
<wgt id='morphing_basis_vector_4'> +1.5606694e-04 </wgt>
<wgt id='morphing_basis_vector_5'> +2.4958848e-04 </wgt>
</rwgt>
</event>
<event>
 4      1 +1.4786900e-06 9.98454200e+02 7.81860800e-03 8.68590200e-02
        2 -1    0    0  501    0 +0.0000000000e+00 +0.0000000000e+00 +8.2793641091e+02 8.2793641091e+02 0.0000000000e+00 0.0000e+00 1.0000e+00
       -2 -1    0    0    0  501 -0.0000000000e+00 -0.0000000000e+00 -3.0102275475e+02 3.0102275475e+02 0.0000000000e+00 0.0000e+00 -1.0000e+00
      -13  1    1    2    0    0 +4.4305474629e+02 +2.2897026108e+02 +2.8881116475e+02 5.7631308987e+02 0.0000000000e+00 0.0000e+00 1.0000e+00
       13  1    1    2    0    0 -4.4305474629e+02 -2.2897026108e+02 +2.3810249140e+02 5.5264607579e+02 0.0000000000e+00 0.0000e+00 -1.0000e+00
<mgrwt>
<rscale>  0 0.99845420E+03</rscale>
<asrwt>0</asrwt>
<pdfrwt beam="1">  1        2 0.12737483E+00 0.99845420E+03</pdfrwt>
<pdfrwt beam="2">  1       -2 0.46311193E-01 0.99845420E+03</pdfrwt>
<totfact> 0.17782172E+02</totfact>
</mgrwt>
<rwgt>
<wgt id='morphing_basis_vector_1'> +2.4145804e-04 </wgt>
<wgt id='morphing_basis_vector_2'> +1.7428989e-04 </wgt>
<wgt id='morphing_basis_vector_3'> +2.3189838e-04 </wgt>
<wgt id='morphing_basis_vector_4'> +1.2120974e-04 </wgt>
<wgt id='morphing_basis_vector_5'> +2.1463009e-04 </wgt>
</rwgt>
</event>
<event>
 4      1 +1.4786900e-06 9.05161200e+02 7.81860800e-03 8.78033300e-02
        2 -1    0    0  501    0 +0.0000000000e+00 +0.0000000000e+00 +1.2837918404e+03 1.2837918404e+03 0.0000000000e+00 0.0000e+00 -1.0000e+00
       -2 -1    0    0    0  501 -0.0000000000e+00 -0.0000000000e+00 -1.5955015604e+02 1.5955015604e+02 0.0000000000e+00 0.0000e+00 1.0000e+00
      -13  1    1    2    0    0 +2.6990850536e+02 +3.6196729054e+02 +5.1275952158e+02 6.8322269258e+02 0.0000000000e+00 0.0000e+00 1.0000e+00
       13  1    1    2    0    0 -2.6990850536e+02 -3.6196729054e+02 +6.1148216274e+02 7.6011930382e+02 0.0000000000e+00 0.0000e+00 -1.0000e+00
<mgrwt>
<rscale>  0 0.90516118E+03</rscale>
<asrwt>0</asrwt>
<pdfrwt beam="1">  1        2 0.19750643E+00 0.90516118E+03</pdfrwt>
<pdfrwt beam="2">  1       -2 0.24546179E-01 0.90516118E+03</pdfrwt>
<totfact> 0.29593875E+02</totfact>
</mgrwt>
<rwgt>
<wgt id='morphing_basis_vector_1'> +1.6622347e-04 </wgt>
<wgt id='morphing_basis_vector_2'> +1.1316152e-04 </wgt>
<wgt id='morphing_basis_vector_3'> +1.5490927e-04 </wgt>
<wgt id='morphing_basis_vector_4'> +8.2490327e-05 </wgt>
<wgt id='morphing_basis_vector_5'> +1.3984803e-04 </wgt>
</rwgt>
</event>
<event>
 4      1 +1.4786900e-06 9.85176200e+02 7.81860800e-03 8.69867000e-02
        2 -1    0    0  501    0 +0.0000000000e+00 +0.0000000000e+00 +2.3165406424e+03 2.3165406424e+03 0.0000000000e+00 0.0000e+00 1.0000e+00
       -2 -1    0    0    0  501 -0.0000000000e+00 -0.0000000000e+00 -1.0474369669e+02 1.0474369669e+02 0.0000000000e+00 0.0000e+00 -1.0000e+00
      -13  1    1    2    0    0 +3.9735670798e+02 +1.3099240941e+02 +4.6693142565e+02 6.2695798979e+02 0.0000000000e+00 0.0000e+00 -1.0000e+00
       13  1    1    2    0    0 -3.9735670798e+02 -1.3099240941e+02 +1.7448655200e+03 1.7943263493e+03 0.0000000000e+00 0.0000e+00 1.0000e+00
<mgrwt>
<rscale>  0 0.98517619E+03</rscale>
<asrwt>0</asrwt>
<pdfrwt beam="1">  1        2 0.35639083E+00 0.98517619E+03</pdfrwt>
<pdfrwt beam="2">  1       -2 0.16114417E-01 0.98517619E+03</pdfrwt>
<totfact> 0.15763375E+02</totfact>
</mgrwt>
<rwgt>
<wgt id='morphing_basis_vector_1'> +2.2138353e-04 </wgt>
<wgt id='morphing_basis_vector_2'> +1.4007366e-04 </wgt>
<wgt id='morphing_basis_vector_3'> +2.1214114e-04 </wgt>
<wgt id='morphing_basis_vector_4'> +1.2730047e-04 </wgt>
<wgt id='morphing_basis_vector_5'> +2.0325708e-04 </wgt>
</rwgt>
</event>
<event>
 4      1 +1.4786900e-06 1.06956100e+03 7.81860800e-03 8.62086300e-02
        2 -1    0    0  501    0 +0.0000000000e+00 +0.0000000000e+00 +3.8191989971e+02 3.8191989971e+02 0.0000000000e+00 0.0000e+00 -1.0000e+00
       -2 -1    0    0    0  501 -0.0000000000e+00 -0.0000000000e+00 -7.4882242390e+02 7.4882242390e+02 0.0000000000e+00 0.0000e+00 1.0000e+00
      -13  1    1    2    0    0 +4.6726415757e+02 -1.2760631913e+02 -4.2306801575e+02 6.4312184816e+02 0.0000000000e+00 0.0000e+00 1.0000e+00
       13  1    1    2    0    0 -4.6726415757e+02 +1.2760631913e+02 +5.6165491548e+01 4.8762047545e+02 0.0000000000e+00 0.0000e+00 -1.0000e+00
<mgrwt>
<rscale>  0 0.10695610E+04</rscale>
<asrwt>0</asrwt>
<pdfrwt beam="1">  1        2 0.58756908E-01 0.10695610E+04</pdfrwt>
<pdfrwt beam="2">  1       -2 0.11520345E+00 0.10695610E+04</pdfrwt>
<totfact> 0.59571153E+01</totfact>
</mgrwt>
<rwgt>
<wgt id='morphing_basis_vector_1'> +3.0108151e-04 </wgt>
<wgt id='morphing_basis_vector_2'> +1.9457052e-04 </wgt>
<wgt id='morphing_basis_vector_3'> +2.9454648e-04 </wgt>
<wgt id='morphing_basis_vector_4'> +1.7998873e-04 </wgt>
<wgt id='morphing_basis_vector_5'> +2.8991918e-04 </wgt>
</rwgt>
</event>
<event>
 4      1 +1.4786900e-06 9.13272200e+02 7.81860800e-03 8.77166000e-02
        2 -1    0    0  501    0 +0.0000000000e+00 +0.0000000000e+00 +1.5956582030e+03 1.5956582030e+03 0.0000000000e+00 0.0000e+00 -1.0000e+00
       -2 -1    0    0    0  501 -0.0000000000e+00 -0.0000000000e+00 -1.3067743323e+02 1.3067743323e+02 0.0000000000e+00 0.0000e+00 1.0000e+00
      -13  1    1    2    0    0 -2.6783837478e+02 -3.6242029652e+02 +8.7179034515e+02 9.8137876084e+02 0.0000000000e+00 0.0000e+00 1.0000e+00
       13  1    1    2    0    0 +2.6783837478e+02 +3.6242029652e+02 +5.9319042462e+02 7.4495687539e+02 0.0000000000e+00 0.0000e+00 -1.0000e+00
<mgrwt>
<rscale>  0 0.91327218E+03</rscale>
<asrwt>0</asrwt>
<pdfrwt beam="1">  1        2 0.24548586E+00 0.91327218E+03</pdfrwt>
<pdfrwt beam="2">  1       -2 0.20104222E-01 0.91327218E+03</pdfrwt>
<totfact> 0.27739331E+02</totfact>
</mgrwt>
<rwgt>
<wgt id='morphing_basis_vector_1'> +1.7754306e-04 </wgt>
<wgt id='morphing_basis_vector_2'> +1.3479520e-04 </wgt>
<wgt id='morphing_basis_vector_3'> +1.6520343e-04 </wgt>
<wgt id='morphing_basis_vector_4'> +7.7366540e-05 </wgt>
<wgt id='morphing_basis_vector_5'> +1.4501904e-04 </wgt>
</rwgt>
</event>
<event>
 4      1 +1.4786900e-06 9.90844800e+02 7.81860800e-03 8.69319400e-02
        2 -1    0    0  501    0 +0.0000000000e+00 +0.0000000000e+00 +4.9270178770e+02 4.9270178770e+02 0.0000000000e+00 0.0000e+00 1.0000e+00
       -2 -1    0    0    0  501 -0.0000000000e+00 -0.0000000000e+00 -4.9815804043e+02 4.9815804043e+02 0.0000000000e+00 0.0000e+00 -1.0000e+00
      -13  1    1    2    0    0 -4.9520145244e+02 +1.4530668379e+01 +5.3687781167e-02 4.9541459577e+02 0.0000000000e+00 0.0000e+00 -1.0000e+00
       13  1    1    2    0    0 +4.9520145244e+02 -1.4530668379e+01 -5.5099405084e+00 4.9544523236e+02 0.0000000000e+00 0.0000e+00 1.0000e+00
<mgrwt>
<rscale>  0 0.99084481E+03</rscale>
<asrwt>0</asrwt>
<pdfrwt beam="1">  1        2 0.75800275E-01 0.99084481E+03</pdfrwt>
<pdfrwt beam="2">  1       -2 0.76639699E-01 0.99084481E+03</pdfrwt>
<totfact> 0.11820219E+02</totfact>
</mgrwt>
<rwgt>
<wgt id='morphing_basis_vector_1'> +2.3348969e-04 </wgt>
<wgt id='morphing_basis_vector_2'> +1.6551983e-04 </wgt>
<wgt id='morphing_basis_vector_3'> +2.2377545e-04 </wgt>
<wgt id='morphing_basis_vector_4'> +1.1918543e-04 </wgt>
<wgt id='morphing_basis_vector_5'> +2.0772830e-04 </wgt>
</rwgt>
</event>
<event>
 4      1 +1.4786900e-06 9.69972900e+02 7.81860800e-03 8.71354900e-02
        2 -1    0    0  501    0 +0.0000000000e+00 +0.0000000000e+00 +7.6028479782e+02 7.6028479782e+02 0.0000000000e+00 0.0000e+00 -1.0000e+00
       -2 -1    0    0    0  501 -0.0000000000e+00 -0.0000000000e+00 -3.0937332782e+02 3.0937332782e+02 0.0000000000e+00 0.0000e+00 1.0000e+00
      -13  1    1    2    0    0 -1.6947367923e+01 -2.9612397962e+02 -1.9769125531e+02 3.5645260135e+02 0.0000000000e+00 0.0000e+00 1.0000e+00
       13  1    1    2    0    0 +1.6947367923e+01 +2.9612397962e+02 +6.4860272532e+02 7.1320552428e+02 0.0000000000e+00 0.0000e+00 -1.0000e+00
<mgrwt>
<rscale>  0 0.96997286E+03</rscale>
<asrwt>0</asrwt>
<pdfrwt beam="1">  1        2 0.11696689E+00 0.96997286E+03</pdfrwt>
<pdfrwt beam="2">  1       -2 0.47595897E-01 0.96997286E+03</pdfrwt>
<totfact> 0.18846999E+02</totfact>
</mgrwt>
<rwgt>
<wgt id='morphing_basis_vector_1'> +2.0839448e-04 </wgt>
<wgt id='morphing_basis_vector_2'> +1.2994953e-04 </wgt>
<wgt id='morphing_basis_vector_3'> +1.9889594e-04 </wgt>
<wgt id='morphing_basis_vector_4'> +1.2001588e-04 </wgt>
<wgt id='morphing_basis_vector_5'> +1.8998839e-04 </wgt>
</rwgt>
</event>
<event>
 4      1 +1.4786900e-06 9.34323300e+02 7.81860800e-03 8.74958300e-02
        2 -1    0    0  501    0 +0.0000000000e+00 +0.0000000000e+00 +9.5606964530e+02 9.5606964530e+02 0.0000000000e+00 0.0000e+00 -1.0000e+00
       -2 -1    0    0    0  501 -0.0000000000e+00 -0.0000000000e+00 -2.2826790017e+02 2.2826790017e+02 0.0000000000e+00 0.0000e+00 1.0000e+00
      -13  1    1    2    0    0 -1.6936914942e+02 -2.1954856095e+02 -1.1267286865e+02 2.9930361629e+02 0.0000000000e+00 0.0000e+00 1.0000e+00
       13  1    1    2    0    0 +1.6936914942e+02 +2.1954856095e+02 +8.4047461378e+02 8.8503392918e+02 0.0000000000e+00 0.0000e+00 -1.0000e+00
<mgrwt>
<rscale>  0 0.93432331E+03</rscale>
<asrwt>0</asrwt>
<pdfrwt beam="1">  1        2 0.14708764E+00 0.93432331E+03</pdfrwt>
<pdfrwt beam="2">  1       -2 0.35118139E-01 0.93432331E+03</pdfrwt>
<totfact> 0.24662075E+02</totfact>
</mgrwt>
<rwgt>
<wgt id='morphing_basis_vector_1'> +1.8164900e-04 </wgt>
<wgt id='morphing_basis_vector_2'> +1.1257932e-04 </wgt>
<wgt id='morphing_basis_vector_3'> +1.7156613e-04 </wgt>
<wgt id='morphing_basis_vector_4'> +1.0199264e-04 </wgt>
<wgt id='morphing_basis_vector_5'> +1.6123584e-04 </wgt>
</rwgt>
</event>
<event>
 4      1 +1.4786900e-06 9.34071700e+02 7.81860800e-03 8.74984300e-02
        2 -1    0    0  501    0 +0.0000000000e+00 +0.0000000000e+00 +1.8753941272e+03 1.8753941272e+03 0.0000000000e+00 0.0000e+00 1.0000e+00
       -2 -1    0    0    0  501 -0.0000000000e+00 -0.0000000000e+00 -1.1630755395e+02 1.1630755395e+02 0.0000000000e+00 0.0000e+00 -1.0000e+00
      -13  1    1    2    0    0 -2.0422132647e+02 -2.3926064070e+02 +1.4345749175e+02 3.4573408324e+02 0.0000000000e+00 0.0000e+00 -1.0000e+00
       13  1    1    2    0    0 +2.0422132647e+02 +2.3926064070e+02 +1.6156290815e+03 1.6459675979e+03 0.0000000000e+00 0.0000e+00 1.0000e+00
<mgrwt>
<rscale>  0 0.93407174E+03</rscale>
<asrwt>0</asrwt>
<pdfrwt beam="1">  1        2 0.28852215E+00 0.93407174E+03</pdfrwt>
<pdfrwt beam="2">  1       -2 0.17893471E-01 0.93407174E+03</pdfrwt>
<totfact> 0.23568616E+02</totfact>
</mgrwt>
<rwgt>
<wgt id='morphing_basis_vector_1'> +1.8154727e-04 </wgt>
<wgt id='morphing_basis_vector_2'> +1.1269752e-04 </wgt>
<wgt id='morphing_basis_vector_3'> +1.7144860e-04 </wgt>
<wgt id='morphing_basis_vector_4'> +1.0175992e-04 </wgt>
<wgt id='morphing_basis_vector_5'> +1.6103872e-04 </wgt>
</rwgt>
</event>
<event>
 4      1 +1.4786900e-06 9.47724000e+02 7.81860800e-03 8.73584400e-02
        2 -1    0    0  501    0 +0.0000000000e+00 +0.0000000000e+00 +5.1914233617e+02 5.1914233617e+02 0.0000000000e+00 0.0000e+00 1.0000e+00
       -2 -1    0    0    0  501 -0.0000000000e+00 -0.0000000000e+00 -4.3253112465e+02 4.3253112465e+02 0.0000000000e+00 0.0000e+00 -1.0000e+00
      -13  1    1    2    0    0 +2.6653200468e+02 +3.0043436666e+02 -2.0922818611e+02 4.5285378661e+02 0.0000000000e+00 0.0000e+00 -1.0000e+00
       13  1    1    2    0    0 -2.6653200468e+02 -3.0043436666e+02 +2.9583939763e+02 4.9881967421e+02 0.0000000000e+00 0.0000e+00 1.0000e+00
<mgrwt>
<rscale>  0 0.94772405E+03</rscale>
<asrwt>0</asrwt>
<pdfrwt beam="1">  1        2 0.79868052E-01 0.94772405E+03</pdfrwt>
<pdfrwt beam="2">  1       -2 0.66543250E-01 0.94772405E+03</pdfrwt>
<totfact> 0.15146549E+02</totfact>
</mgrwt>
<rwgt>
<wgt id='morphing_basis_vector_1'> +1.9197968e-04 </wgt>
<wgt id='morphing_basis_vector_2'> +1.2073397e-04 </wgt>
<wgt id='morphing_basis_vector_3'> +1.8200438e-04 </wgt>
<wgt id='morphing_basis_vector_4'> +1.0761272e-04 </wgt>
<wgt id='morphing_basis_vector_5'> +1.7159154e-04 </wgt>
</rwgt>
</event>
<event>
 4      1 +1.4786900e-06 9.22652400e+02 7.81860800e-03 8.76174600e-02
        2 -1    0    0  501    0 +0.0000000000e+00 +0.0000000000e+00 +5.4161118741e+02 5.4161118741e+02 0.0000000000e+00 0.0000e+00 -1.0000e+00
       -2 -1    0    0    0  501 -0.0000000000e+00 -0.0000000000e+00 -3.9294216725e+02 3.9294216725e+02 0.0000000000e+00 0.0000e+00 1.0000e+00
      -13  1    1    2    0    0 +4.2901936900e+02 -9.4301968331e+01 +2.1711870477e+02 4.8999082866e+02 0.0000000000e+00 0.0000e+00 1.0000e+00
       13  1    1    2    0    0 -4.2901936900e+02 +9.4301968331e+01 -6.8449684603e+01 4.4456252600e+02 0.0000000000e+00 0.0000e+00 -1.0000e+00
<mgrwt>
<rscale>  0 0.92265242E+03</rscale>
<asrwt>0</asrwt>
<pdfrwt beam="1">  1        2 0.83324797E-01 0.92265242E+03</pdfrwt>
<pdfrwt beam="2">  1       -2 0.60452642E-01 0.92265242E+03</pdfrwt>
<totfact> 0.17634262E+02</totfact>
</mgrwt>
<rwgt>
<wgt id='morphing_basis_vector_1'> +1.9091750e-04 </wgt>
<wgt id='morphing_basis_vector_2'> +1.6025558e-04 </wgt>
<wgt id='morphing_basis_vector_3'> +1.7757220e-04 </wgt>
<wgt id='morphing_basis_vector_4'> +7.1242727e-05 </wgt>
<wgt id='morphing_basis_vector_5'> +1.5117193e-04 </wgt>
</rwgt>
</event>
<event>
 4      1 +1.4786900e-06 9.44557200e+02 7.81860800e-03 8.73906900e-02
        2 -1    0    0  501    0 +0.0000000000e+00 +0.0000000000e+00 +1.1336665016e+03 1.1336665016e+03 0.0000000000e+00 0.0000e+00 -1.0000e+00
       -2 -1    0    0    0  501 -0.0000000000e+00 -0.0000000000e+00 -1.9674840029e+02 1.9674840029e+02 0.0000000000e+00 0.0000e+00 1.0000e+00
      -13  1    1    2    0    0 -3.5850925216e+02 -1.3974924285e+02 +8.5416443461e+02 9.3683275782e+02 0.0000000000e+00 0.0000e+00 1.0000e+00
       13  1    1    2    0    0 +3.5850925216e+02 +1.3974924285e+02 +8.2753666666e+01 3.9358214404e+02 0.0000000000e+00 0.0000e+00 -1.0000e+00
<mgrwt>
<rscale>  0 0.94455719E+03</rscale>
<asrwt>0</asrwt>
<pdfrwt beam="1">  1        2 0.17441023E+00 0.94455719E+03</pdfrwt>
<pdfrwt beam="2">  1       -2 0.30268985E-01 0.94455719E+03</pdfrwt>
<totfact> 0.25053406E+02</totfact>
</mgrwt>
<rwgt>
<wgt id='morphing_basis_vector_1'> +2.3072422e-04 </wgt>
<wgt id='morphing_basis_vector_2'> +2.4394822e-04 </wgt>
<wgt id='morphing_basis_vector_3'> +2.1469801e-04 </wgt>
<wgt id='morphing_basis_vector_4'> +4.5226420e-05 </wgt>
<wgt id='morphing_basis_vector_5'> +1.6567501e-04 </wgt>
</rwgt>
</event>
<event>
 4      1 +1.4786900e-06 9.49406700e+02 7.81860800e-03 8.73413600e-02
        2 -1    0    0  501    0 +0.0000000000e+00 +0.0000000000e+00 +8.9526698726e+02 8.9526698726e+02 0.0000000000e+00 0.0000e+00 -1.0000e+00
       -2 -1    0    0    0  501 -0.0000000000e+00 -0.0000000000e+00 -2.5170508754e+02 2.5170508754e+02 0.0000000000e+00 0.0000e+00 1.0000e+00
      -13  1    1    2    0    0 +2.2968869165e+02 +4.1060873657e+02 +2.4550033310e+02 5.3068525811e+02 0.0000000000e+00 0.0000e+00 1.0000e+00
       13  1    1    2    0    0 -2.2968869165e+02 -4.1060873657e+02 +3.9806156661e+02 6.1628681670e+02 0.0000000000e+00 0.0000e+00 -1.0000e+00
<mgrwt>
<rscale>  0 0.94940667E+03</rscale>
<asrwt>0</asrwt>
<pdfrwt beam="1">  1        2 0.13773338E+00 0.94940667E+03</pdfrwt>
<pdfrwt beam="2">  1       -2 0.38723860E-01 0.94940667E+03</pdfrwt>
<totfact> 0.22541664E+02</totfact>
</mgrwt>
<rwgt>
<wgt id='morphing_basis_vector_1'> +1.9671081e-04 </wgt>
<wgt id='morphing_basis_vector_2'> +1.3211625e-04 </wgt>
<wgt id='morphing_basis_vector_3'> +1.8627936e-04 </wgt>
<wgt id='morphing_basis_vector_4'> +1.0327448e-04 </wgt>
<wgt id='morphing_basis_vector_5'> +1.7263934e-04 </wgt>
</rwgt>
</event>
<event>
 4      1 +1.4786900e-06 9.36917200e+02 7.81860800e-03 8.74690500e-02
        2 -1    0    0  501    0 +0.0000000000e+00 +0.0000000000e+00 +1.1025025445e+03 1.1025025445e+03 0.0000000000e+00 0.0000e+00 -1.0000e+00
       -2 -1    0    0    0  501 -0.0000000000e+00 -0.0000000000e+00 -1.9905030731e+02 1.9905030731e+02 0.0000000000e+00 0.0000e+00 1.0000e+00
      -13  1    1    2    0    0 +1.3723579649e+01 +2.0652742205e+02 -1.3208202183e+02 2.4553527891e+02 0.0000000000e+00 0.0000e+00 1.0000e+00
       13  1    1    2    0    0 -1.3723579649e+01 -2.0652742205e+02 +1.0355342590e+03 1.0560175729e+03 0.0000000000e+00 0.0000e+00 -1.0000e+00
<mgrwt>
<rscale>  0 0.93691722E+03</rscale>
<asrwt>0</asrwt>
<pdfrwt beam="1">  1        2 0.16961577E+00 0.93691722E+03</pdfrwt>
<pdfrwt beam="2">  1       -2 0.30623125E-01 0.93691722E+03</pdfrwt>
<totfact> 0.25624186E+02</totfact>
</mgrwt>
<rwgt>
<wgt id='morphing_basis_vector_1'> +1.8343602e-04 </wgt>
<wgt id='morphing_basis_vector_2'> +1.1358419e-04 </wgt>
<wgt id='morphing_basis_vector_3'> +1.7339839e-04 </wgt>
<wgt id='morphing_basis_vector_4'> +1.0332697e-04 </wgt>
<wgt id='morphing_basis_vector_5'> +1.6321861e-04 </wgt>
</rwgt>
</event>
<event>
 4      1 +1.4786900e-06 9.02469400e+02 7.81860800e-03 8.78323200e-02
        2 -1    0    0  501    0 +0.0000000000e+00 +0.0000000000e+00 +1.5885086497e+03 1.5885086497e+03 0.0000000000e+00 0.0000e+00 1.0000e+00
       -2 -1    0    0    0  501 -0.0000000000e+00 -0.0000000000e+00 -1.2817855870e+02 1.2817855870e+02 0.0000000000e+00 0.0000e+00 -1.0000e+00
      -13  1    1    2    0    0 -2.5906515288e+02 -1.0291126603e+02 +5.5195636465e+01 2.8416903490e+02 0.0000000000e+00 0.0000e+00 -1.0000e+00
       13  1    1    2    0    0 +2.5906515288e+02 +1.0291126603e+02 +1.4051344545e+03 1.4325181735e+03 0.0000000000e+00 0.0000e+00 1.0000e+00
<mgrwt>
<rscale>  0 0.90246939E+03</rscale>
<asrwt>0</asrwt>
<pdfrwt beam="1">  1        2 0.24438593E+00 0.90246939E+03</pdfrwt>
<pdfrwt beam="2">  1       -2 0.19719779E-01 0.90246939E+03</pdfrwt>
<totfact> 0.28931603E+02</totfact>
</mgrwt>
<rwgt>
<wgt id='morphing_basis_vector_1'> +1.6009961e-04 </wgt>
<wgt id='morphing_basis_vector_2'> +9.8703955e-05 </wgt>
<wgt id='morphing_basis_vector_3'> +1.4966798e-04 </wgt>
<wgt id='morphing_basis_vector_4'> +8.7600635e-05 </wgt>
<wgt id='morphing_basis_vector_5'> +1.3834468e-04 </wgt>
</rwgt>
</event>
<event>
 4      1 +1.4786900e-06 1.04380300e+03 7.81860800e-03 8.64380100e-02
        2 -1    0    0  501    0 +0.0000000000e+00 +0.0000000000e+00 +1.1477363832e+03 1.1477363832e+03 0.0000000000e+00 0.0000e+00 1.0000e+00
       -2 -1    0    0    0  501 -0.0000000000e+00 -0.0000000000e+00 -2.3732039949e+02 2.3732039949e+02 0.0000000000e+00 0.0000e+00 -1.0000e+00
      -13  1    1    2    0    0 +3.1227134465e+02 +4.0829317344e+02 +5.7510685558e+02 7.7133948655e+02 0.0000000000e+00 0.0000e+00 1.0000e+00
       13  1    1    2    0    0 -3.1227134465e+02 -4.0829317344e+02 +3.3530912812e+02 6.1371729613e+02 0.0000000000e+00 0.0000e+00 -1.0000e+00
<mgrwt>
<rscale>  0 0.10438032E+04</rscale>
<asrwt>0</asrwt>
<pdfrwt beam="1">  1        2 0.17657482E+00 0.10438032E+04</pdfrwt>
<pdfrwt beam="2">  1       -2 0.36510831E-01 0.10438032E+04</pdfrwt>
<totfact> 0.17429329E+02</totfact>
</mgrwt>
<rwgt>
<wgt id='morphing_basis_vector_1'> +2.9113470e-04 </wgt>
<wgt id='morphing_basis_vector_2'> +2.2603169e-04 </wgt>
<wgt id='morphing_basis_vector_3'> +2.8330169e-04 </wgt>
<wgt id='morphing_basis_vector_4'> +1.3641833e-04 </wgt>
<wgt id='morphing_basis_vector_5'> +2.5944878e-04 </wgt>
</rwgt>
</event>
<event>
 4      1 +1.4786900e-06 1.06860600e+03 7.81860800e-03 8.62170100e-02
        2 -1    0    0  501    0 +0.0000000000e+00 +0.0000000000e+00 +1.2571016569e+02 1.2571016569e+02 0.0000000000e+00 0.0000e+00 -1.0000e+00
       -2 -1    0    0    0  501 -0.0000000000e+00 -0.0000000000e+00 -2.2709370483e+03 2.2709370483e+03 0.0000000000e+00 0.0000e+00 1.0000e+00
      -13  1    1    2    0    0 -5.2789688987e+02 -3.7539048516e+01 -9.0787123520e+02 1.0508636858e+03 0.0000000000e+00 0.0000e+00 1.0000e+00
       13  1    1    2    0    0 +5.2789688987e+02 +3.7539048516e+01 -1.2373556474e+03 1.3457835282e+03 0.0000000000e+00 0.0000e+00 -1.0000e+00
<mgrwt>
<rscale>  0 0.10686063E+04</rscale>
<asrwt>0</asrwt>
<pdfrwt beam="1">  1        2 0.19340026E-01 0.10686063E+04</pdfrwt>
<pdfrwt beam="2">  1       -2 0.34937492E+00 0.10686063E+04</pdfrwt>
<totfact> 0.41399628E+00</totfact>
</mgrwt>
<rwgt>
<wgt id='morphing_basis_vector_1'> +3.1552682e-04 </wgt>
<wgt id='morphing_basis_vector_2'> +2.4053029e-04 </wgt>
<wgt id='morphing_basis_vector_3'> +3.0910242e-04 </wgt>
<wgt id='morphing_basis_vector_4'> +1.5439300e-04 </wgt>
<wgt id='morphing_basis_vector_5'> +2.8723970e-04 </wgt>
</rwgt>
</event>
<event>
 4      1 +1.4786900e-06 9.48922900e+02 7.81860800e-03 8.73462600e-02
        2 -1    0    0  501    0 +0.0000000000e+00 +0.0000000000e+00 +7.6220563705e+02 7.6220563705e+02 0.0000000000e+00 0.0000e+00 -1.0000e+00
       -2 -1    0    0    0  501 -0.0000000000e+00 -0.0000000000e+00 -2.9534504919e+02 2.9534504919e+02 0.0000000000e+00 0.0000e+00 1.0000e+00
      -13  1    1    2    0    0 -4.4001832567e+02 -1.4396340137e+02 +1.1776051008e+02 4.7771238794e+02 0.0000000000e+00 0.0000e+00 1.0000e+00
       13  1    1    2    0    0 +4.4001832567e+02 +1.4396340137e+02 +3.4910007778e+02 5.7983829829e+02 0.0000000000e+00 0.0000e+00 -1.0000e+00
<mgrwt>
<rscale>  0 0.94892289E+03</rscale>
<asrwt>0</asrwt>
<pdfrwt beam="1">  1        2 0.11726241E+00 0.94892289E+03</pdfrwt>
<pdfrwt beam="2">  1       -2 0.45437700E-01 0.94892289E+03</pdfrwt>
<totfact> 0.20570570E+02</totfact>
</mgrwt>
<rwgt>
<wgt id='morphing_basis_vector_1'> +1.9515029e-04 </wgt>
<wgt id='morphing_basis_vector_2'> +1.2823749e-04 </wgt>
<wgt id='morphing_basis_vector_3'> +1.8487610e-04 </wgt>
<wgt id='morphing_basis_vector_4'> +1.0481938e-04 </wgt>
<wgt id='morphing_basis_vector_5'> +1.7235424e-04 </wgt>
</rwgt>
</event>
<event>
 4      1 +1.4786900e-06 9.45349200e+02 7.81860800e-03 8.73826100e-02
        2 -1    0    0  501    0 +0.0000000000e+00 +0.0000000000e+00 +7.3473939195e+02 7.3473939195e+02 0.0000000000e+00 0.0000e+00 -1.0000e+00
       -2 -1    0    0    0  501 -0.0000000000e+00 -0.0000000000e+00 -3.0408231416e+02 3.0408231416e+02 0.0000000000e+00 0.0000e+00 1.0000e+00
      -13  1    1    2    0    0 +2.2164869153e+02 -4.1234779416e+02 +2.8707100925e+02 5.4915262920e+02 0.0000000000e+00 0.0000e+00 1.0000e+00
       13  1    1    2    0    0 -2.2164869153e+02 +4.1234779416e+02 +1.4358606853e+02 4.8966907691e+02 0.0000000000e+00 0.0000e+00 -1.0000e+00
<mgrwt>
<rscale>  0 0.94534915E+03</rscale>
<asrwt>0</asrwt>
<pdfrwt beam="1">  1        2 0.11303683E+00 0.94534915E+03</pdfrwt>
<pdfrwt beam="2">  1       -2 0.46781895E-01 0.94534915E+03</pdfrwt>
<totfact> 0.20368477E+02</totfact>
</mgrwt>
<rwgt>
<wgt id='morphing_basis_vector_1'> +2.0050808e-04 </wgt>
<wgt id='morphing_basis_vector_2'> +1.5081026e-04 </wgt>
<wgt id='morphing_basis_vector_3'> +1.8900457e-04 </wgt>
<wgt id='morphing_basis_vector_4'> +9.1205839e-05 </wgt>
<wgt id='morphing_basis_vector_5'> +1.6885692e-04 </wgt>
</rwgt>
</event>
<event>
 4      1 +1.4786900e-06 9.08755900e+02 7.81860800e-03 8.77647700e-02
        2 -1    0    0  501    0 +0.0000000000e+00 +0.0000000000e+00 +4.7664066580e+02 4.7664066580e+02 0.0000000000e+00 0.0000e+00 1.0000e+00
       -2 -1    0    0    0  501 -0.0000000000e+00 -0.0000000000e+00 -4.3315509612e+02 4.3315509612e+02 0.0000000000e+00 0.0000e+00 -1.0000e+00
      -13  1    1    2    0    0 -2.5024001465e+02 -2.5006006183e+02 -2.6373123341e+02 4.4125305997e+02 0.0000000000e+00 0.0000e+00 -1.0000e+00
       13  1    1    2    0    0 +2.5024001465e+02 +2.5006006183e+02 +3.0721680309e+02 4.6854270196e+02 0.0000000000e+00 0.0000e+00 1.0000e+00
<mgrwt>
<rscale>  0 0.90875593E+03</rscale>
<asrwt>0</asrwt>
<pdfrwt beam="1">  1        2 0.73329333E-01 0.90875593E+03</pdfrwt>
<pdfrwt beam="2">  1       -2 0.66639246E-01 0.90875593E+03</pdfrwt>
<totfact> 0.16689146E+02</totfact>
</mgrwt>
<rwgt>
<wgt id='morphing_basis_vector_1'> +1.6443421e-04 </wgt>
<wgt id='morphing_basis_vector_2'> +1.0208482e-04 </wgt>
<wgt id='morphing_basis_vector_3'> +1.5400924e-04 </wgt>
<wgt id='morphing_basis_vector_4'> +8.9960134e-05 </wgt>
<wgt id='morphing_basis_vector_5'> +1.4264320e-04 </wgt>
</rwgt>
</event>
<event>
 4      1 +1.4786900e-06 1.04639200e+03 7.81860800e-03 8.64146500e-02
        2 -1    0    0  501    0 +0.0000000000e+00 +0.0000000000e+00 +1.2924976916e+03 1.2924976916e+03 0.0000000000e+00 0.0000e+00 1.0000e+00
       -2 -1    0    0    0  501 -0.0000000000e+00 -0.0000000000e+00 -2.1178675024e+02 2.1178675024e+02 0.0000000000e+00 0.0000e+00 -1.0000e+00
      -13  1    1    2    0    0 -1.5778155819e+02 +2.9768829862e+02 -3.5077558055e+01 3.3873851023e+02 0.0000000000e+00 0.0000e+00 -1.0000e+00
       13  1    1    2    0    0 +1.5778155819e+02 -2.9768829862e+02 +1.1157884994e+03 1.1655459316e+03 0.0000000000e+00 0.0000e+00 1.0000e+00
<mgrwt>
<rscale>  0 0.10463917E+04</rscale>
<asrwt>0</asrwt>
<pdfrwt beam="1">  1        2 0.19884579E+00 0.10463917E+04</pdfrwt>
<pdfrwt beam="2">  1       -2 0.32582578E-01 0.10463917E+04</pdfrwt>
<totfact> 0.17649209E+02</totfact>
</mgrwt>
<rwgt>
<wgt id='morphing_basis_vector_1'> +2.7592156e-04 </wgt>
<wgt id='morphing_basis_vector_2'> +1.7406789e-04 </wgt>
<wgt id='morphing_basis_vector_3'> +2.6849293e-04 </wgt>
<wgt id='morphing_basis_vector_4'> +1.6637709e-04 </wgt>
<wgt id='morphing_basis_vector_5'> +2.6399745e-04 </wgt>
</rwgt>
</event>
<event>
 4      1 +1.4786900e-06 9.49345600e+02 7.81860800e-03 8.73419800e-02
        2 -1    0    0  501    0 +0.0000000000e+00 +0.0000000000e+00 +2.8583365457e+02 2.8583365457e+02 0.0000000000e+00 0.0000e+00 -1.0000e+00
       -2 -1    0    0    0  501 -0.0000000000e+00 -0.0000000000e+00 -7.8827052919e+02 7.8827052919e+02 0.0000000000e+00 0.0000e+00 1.0000e+00
      -13  1    1    2    0    0 +3.4904116550e+02 -2.3655231330e+02 -4.9787611357e+02 6.5243187890e+02 0.0000000000e+00 0.0000e+00 1.0000e+00
       13  1    1    2    0    0 -3.4904116550e+02 +2.3655231330e+02 -4.5607610524e+00 4.2167230486e+02 0.0000000000e+00 0.0000e+00 -1.0000e+00
<mgrwt>
<rscale>  0 0.94934556E+03</rscale>
<asrwt>0</asrwt>
<pdfrwt beam="1">  1        2 0.43974410E-01 0.94934556E+03</pdfrwt>
<pdfrwt beam="2">  1       -2 0.12127239E+00 0.94934556E+03</pdfrwt>
<totfact> 0.72913446E+01</totfact>
</mgrwt>
<rwgt>
<wgt id='morphing_basis_vector_1'> +1.9350706e-04 </wgt>
<wgt id='morphing_basis_vector_2'> +1.2249929e-04 </wgt>
<wgt id='morphing_basis_vector_3'> +1.8351360e-04 </wgt>
<wgt id='morphing_basis_vector_4'> +1.0793905e-04 </wgt>
<wgt id='morphing_basis_vector_5'> +1.7285568e-04 </wgt>
</rwgt>
</event>
<event>
 4      1 +1.4786900e-06 1.00564300e+03 7.81860800e-03 8.67907500e-02
        2 -1    0    0  501    0 +0.0000000000e+00 +0.0000000000e+00 +7.9815501861e+02 7.9815501861e+02 0.0000000000e+00 0.0000e+00 1.0000e+00
       -2 -1    0    0    0  501 -0.0000000000e+00 -0.0000000000e+00 -3.1676746266e+02 3.1676746266e+02 0.0000000000e+00 0.0000e+00 -1.0000e+00
      -13  1    1    2    0    0 +1.7733737449e+02 +3.9352280839e+02 +5.2663678826e+02 6.8092220691e+02 0.0000000000e+00 0.0000e+00 1.0000e+00
       13  1    1    2    0    0 -1.7733737449e+02 -3.9352280839e+02 -4.5249232317e+01 4.3400027435e+02 0.0000000000e+00 0.0000e+00 -1.0000e+00
<mgrwt>
<rscale>  0 0.10056432E+04</rscale>
<asrwt>0</asrwt>
<pdfrwt beam="1">  1        2 0.12279308E+00 0.10056432E+04</pdfrwt>
<pdfrwt beam="2">  1       -2 0.48733456E-01 0.10056432E+04</pdfrwt>
<totfact> 0.16885553E+02</totfact>
</mgrwt>
<rwgt>
<wgt id='morphing_basis_vector_1'> +2.8250228e-04 </wgt>
<wgt id='morphing_basis_vector_2'> +2.8372616e-04 </wgt>
<wgt id='morphing_basis_vector_3'> +2.7100962e-04 </wgt>
<wgt id='morphing_basis_vector_4'> +7.1428041e-05 </wgt>
<wgt id='morphing_basis_vector_5'> +2.1820560e-04 </wgt>
</rwgt>
</event>
<event>
 4      1 +1.4786900e-06 1.05918800e+03 7.81860800e-03 8.63001900e-02
        2 -1    0    0  501    0 +0.0000000000e+00 +0.0000000000e+00 +1.1425756032e+03 1.1425756032e+03 0.0000000000e+00 0.0000e+00 -1.0000e+00
       -2 -1    0    0    0  501 -0.0000000000e+00 -0.0000000000e+00 -2.4547171065e+02 2.4547171065e+02 0.0000000000e+00 0.0000e+00 1.0000e+00
      -13  1    1    2    0    0 +4.0124221585e+02 +2.2908699864e+02 +1.0935772502e+02 4.7480025353e+02 0.0000000000e+00 0.0000e+00 1.0000e+00
       13  1    1    2    0    0 -4.0124221585e+02 -2.2908699864e+02 +7.8774616749e+02 9.1324706029e+02 0.0000000000e+00 0.0000e+00 -1.0000e+00
<mgrwt>
<rscale>  0 0.10591883E+04</rscale>
<asrwt>0</asrwt>
<pdfrwt beam="1">  1        2 0.17578086E+00 0.10591883E+04</pdfrwt>
<pdfrwt beam="2">  1       -2 0.37764879E-01 0.10591883E+04</pdfrwt>
<totfact> 0.16478696E+02</totfact>
</mgrwt>
<rwgt>
<wgt id='morphing_basis_vector_1'> +2.8982719e-04 </wgt>
<wgt id='morphing_basis_vector_2'> +1.8584860e-04 </wgt>
<wgt id='morphing_basis_vector_3'> +2.8286617e-04 </wgt>
<wgt id='morphing_basis_vector_4'> +1.7345729e-04 </wgt>
<wgt id='morphing_basis_vector_5'> +2.7807352e-04 </wgt>
</rwgt>
</event>
<event>
 4      1 +1.4786900e-06 9.23335200e+02 7.81860800e-03 8.76103000e-02
        2 -1    0    0  501    0 +0.0000000000e+00 +0.0000000000e+00 +8.8560641791e+02 8.8560641791e+02 0.0000000000e+00 0.0000e+00 1.0000e+00
       -2 -1    0    0    0  501 -0.0000000000e+00 -0.0000000000e+00 -2.4066783632e+02 2.4066783632e+02 0.0000000000e+00 0.0000e+00 -1.0000e+00
      -13  1    1    2    0    0 -1.4702934470e+01 -1.6950791031e+02 -2.0102900512e+02 2.6336622570e+02 0.0000000000e+00 0.0000e+00 -1.0000e+00
       13  1    1    2    0    0 +1.4702934470e+01 +1.6950791031e+02 +8.4596758671e+02 8.6290802853e+02 0.0000000000e+00 0.0000e+00 1.0000e+00
<mgrwt>
<rscale>  0 0.92333522E+03</rscale>
<asrwt>0</asrwt>
<pdfrwt beam="1">  1        2 0.13624714E+00 0.92333522E+03</pdfrwt>
<pdfrwt beam="2">  1       -2 0.37025821E-01 0.92333522E+03</pdfrwt>
<totfact> 0.24882464E+02</totfact>
</mgrwt>
<rwgt>
<wgt id='morphing_basis_vector_1'> +1.7389965e-04 </wgt>
<wgt id='morphing_basis_vector_2'> +1.0739994e-04 </wgt>
<wgt id='morphing_basis_vector_3'> +1.6369213e-04 </wgt>
<wgt id='morphing_basis_vector_4'> +9.6958329e-05 </wgt>
<wgt id='morphing_basis_vector_5'> +1.5305691e-04 </wgt>
</rwgt>
</event>
<event>
 4      1 +1.4786900e-06 1.05049500e+03 7.81860800e-03 8.63777600e-02
        2 -1    0    0  501    0 +0.0000000000e+00 +0.0000000000e+00 +9.6384082391e+02 9.6384082391e+02 0.0000000000e+00 0.0000e+00 1.0000e+00
       -2 -1    0    0    0  501 -0.0000000000e+00 -0.0000000000e+00 -2.8623514654e+02 2.8623514654e+02 0.0000000000e+00 0.0000e+00 -1.0000e+00
      -13  1    1    2    0    0 +3.9511267666e+02 -1.2996466413e+02 -4.2885013751e+01 4.1814347488e+02 0.0000000000e+00 0.0000e+00 -1.0000e+00
       13  1    1    2    0    0 -3.9511267666e+02 +1.2996466413e+02 +7.2049069112e+02 8.3193249556e+02 0.0000000000e+00 0.0000e+00 1.0000e+00
<mgrwt>
<rscale>  0 0.10504953E+04</rscale>
<asrwt>0</asrwt>
<pdfrwt beam="1">  1        2 0.14828320E+00 0.10504953E+04</pdfrwt>
<pdfrwt beam="2">  1       -2 0.44036177E-01 0.10504953E+04</pdfrwt>
<totfact> 0.15895238E+02</totfact>
</mgrwt>
<rwgt>
<wgt id='morphing_basis_vector_1'> +2.8041818e-04 </wgt>
<wgt id='morphing_basis_vector_2'> +1.7807237e-04 </wgt>
<wgt id='morphing_basis_vector_3'> +2.7313109e-04 </wgt>
<wgt id='morphing_basis_vector_4'> +1.6847685e-04 </wgt>
<wgt id='morphing_basis_vector_5'> +2.6844417e-04 </wgt>
</rwgt>
</event>
<event>
 4      1 +1.4786900e-06 9.19900500e+02 7.81860800e-03 8.76464200e-02
        2 -1    0    0  501    0 +0.0000000000e+00 +0.0000000000e+00 +6.4922350675e+02 6.4922350675e+02 0.0000000000e+00 0.0000e+00 1.0000e+00
       -2 -1    0    0    0  501 -0.0000000000e+00 -0.0000000000e+00 -3.2585733758e+02 3.2585733758e+02 0.0000000000e+00 0.0000e+00 -1.0000e+00
      -13  1    1    2    0    0 -4.7025586060e+00 -3.4568421968e+02 -1.5988667746e+02 3.8089820611e+02 0.0000000000e+00 0.0000e+00 -1.0000e+00
       13  1    1    2    0    0 +4.7025586060e+00 +3.4568421968e+02 +4.8325284663e+02 5.9418263822e+02 0.0000000000e+00 0.0000e+00 1.0000e+00
<mgrwt>
<rscale>  0 0.91990052E+03</rscale>
<asrwt>0</asrwt>
<pdfrwt beam="1">  1        2 0.99880539E-01 0.91990052E+03</pdfrwt>
<pdfrwt beam="2">  1       -2 0.50131898E-01 0.91990052E+03</pdfrwt>
<totfact> 0.20743663E+02</totfact>
</mgrwt>
<rwgt>
<wgt id='morphing_basis_vector_1'> +1.7182688e-04 </wgt>
<wgt id='morphing_basis_vector_2'> +1.0671962e-04 </wgt>
<wgt id='morphing_basis_vector_3'> +1.6153042e-04 </wgt>
<wgt id='morphing_basis_vector_4'> +9.4993171e-05 </wgt>
<wgt id='morphing_basis_vector_5'> +1.5054001e-04 </wgt>
</rwgt>
</event>
<event>
 4      1 +1.4786900e-06 9.90962200e+02 7.81860800e-03 8.69308100e-02
        2 -1    0    0  501    0 +0.0000000000e+00 +0.0000000000e+00 +6.4010837998e+02 6.4010837998e+02 0.0000000000e+00 0.0000e+00 -1.0000e+00
       -2 -1    0    0    0  501 -0.0000000000e+00 -0.0000000000e+00 -3.8353114666e+02 3.8353114666e+02 0.0000000000e+00 0.0000e+00 1.0000e+00
      -13  1    1    2    0    0 +9.8699890678e+01 +6.4405108033e+01 -3.6884179352e+02 3.8721306152e+02 0.0000000000e+00 0.0000e+00 1.0000e+00
       13  1    1    2    0    0 -9.8699890678e+01 -6.4405108033e+01 +6.2541902684e+02 6.3642646511e+02 0.0000000000e+00 0.0000e+00 -1.0000e+00
<mgrwt>
<rscale>  0 0.99096216E+03</rscale>
<asrwt>0</asrwt>
<pdfrwt beam="1">  1        2 0.98478212E-01 0.99096216E+03</pdfrwt>
<pdfrwt beam="2">  1       -2 0.59004792E-01 0.99096216E+03</pdfrwt>
<totfact> 0.15163358E+02</totfact>
</mgrwt>
<rwgt>
<wgt id='morphing_basis_vector_1'> +2.2537548e-04 </wgt>
<wgt id='morphing_basis_vector_2'> +1.4070477e-04 </wgt>
<wgt id='morphing_basis_vector_3'> +2.1633933e-04 </wgt>
<wgt id='morphing_basis_vector_4'> +1.3185698e-04 </wgt>
<wgt id='morphing_basis_vector_5'> +2.0858003e-04 </wgt>
</rwgt>
</event>
<event>
 4      1 +1.4786900e-06 9.68327000e+02 7.81860800e-03 8.71517700e-02
        2 -1    0    0  501    0 +0.0000000000e+00 +0.0000000000e+00 +2.9335491884e+03 2.9335491884e+03 0.0000000000e+00 0.0000e+00 1.0000e+00
       -2 -1    0    0    0  501 -0.0000000000e+00 -0.0000000000e+00 -7.9908090949e+01 7.9908090949e+01 0.0000000000e+00 0.0000e+00 -1.0000e+00
      -13  1    1    2    0    0 +4.3869146786e+02 +9.4438595578e+01 +1.9925371184e+03 2.0424429050e+03 0.0000000000e+00 0.0000e+00 -1.0000e+00
       13  1    1    2    0    0 -4.3869146786e+02 -9.4438595578e+01 +8.6110397909e+02 9.7101437431e+02 0.0000000000e+00 0.0000e+00 1.0000e+00
<mgrwt>
<rscale>  0 0.96832704E+03</rscale>
<asrwt>0</asrwt>
<pdfrwt beam="1">  1        2 0.45131518E+00 0.96832704E+03</pdfrwt>
<pdfrwt beam="2">  1       -2 0.12293555E-01 0.96832704E+03</pdfrwt>
<totfact> 0.10409593E+02</totfact>
</mgrwt>
<rwgt>
<wgt id='morphing_basis_vector_1'> +2.3304219e-04 </wgt>
<wgt id='morphing_basis_vector_2'> +2.0779063e-04 </wgt>
<wgt id='morphing_basis_vector_3'> +2.2059680e-04 </wgt>
<wgt id='morphing_basis_vector_4'> +7.9979107e-05 </wgt>
<wgt id='morphing_basis_vector_5'> +1.8632519e-04 </wgt>
</rwgt>
</event>
<event>
 4      1 +1.4786900e-06 1.05484700e+03 7.81860800e-03 8.63388300e-02
        2 -1    0    0  501    0 +0.0000000000e+00 +0.0000000000e+00 +2.0257940518e+03 2.0257940518e+03 0.0000000000e+00 0.0000e+00 -1.0000e+00
       -2 -1    0    0    0  501 -0.0000000000e+00 -0.0000000000e+00 -1.3731680501e+02 1.3731680501e+02 0.0000000000e+00 0.0000e+00 1.0000e+00
      -13  1    1    2    0    0 -2.6949788297e+02 +2.3876893369e+02 +1.5391504352e+02 3.9157317738e+02 0.0000000000e+00 0.0000e+00 1.0000e+00
       13  1    1    2    0    0 +2.6949788297e+02 -2.3876893369e+02 +1.7345622033e+03 1.7715376795e+03 0.0000000000e+00 0.0000e+00 -1.0000e+00
<mgrwt>
<rscale>  0 0.10548470E+04</rscale>
<asrwt>0</asrwt>
<pdfrwt beam="1">  1        2 0.31166060E+00 0.10548470E+04</pdfrwt>
<pdfrwt beam="2">  1       -2 0.21125664E-01 0.10548470E+04</pdfrwt>
<totfact> 0.14603579E+02</totfact>
</mgrwt>
<rwgt>
<wgt id='morphing_basis_vector_1'> +2.8438435e-04 </wgt>
<wgt id='morphing_basis_vector_2'> +1.7977860e-04 </wgt>
<wgt id='morphing_basis_vector_3'> +2.7726049e-04 </wgt>
<wgt id='morphing_basis_vector_4'> +1.7210078e-04 </wgt>
<wgt id='morphing_basis_vector_5'> +2.7330496e-04 </wgt>
</rwgt>
</event>
<event>
 4      1 +1.4786900e-06 9.43381400e+02 7.81860800e-03 8.74027000e-02
        2 -1    0    0  501    0 +0.0000000000e+00 +0.0000000000e+00 +1.2188795042e+03 1.2188795042e+03 0.0000000000e+00 0.0000e+00 1.0000e+00
       -2 -1    0    0    0  501 -0.0000000000e+00 -0.0000000000e+00 -1.8253822024e+02 1.8253822024e+02 0.0000000000e+00 0.0000e+00 -1.0000e+00
      -13  1    1    2    0    0 +7.9200202214e+01 -4.3778915911e+02 +2.8536410750e+02 5.2854961330e+02 0.0000000000e+00 0.0000e+00 -1.0000e+00
       13  1    1    2    0    0 -7.9200202214e+01 +4.3778915911e+02 +7.5097717641e+02 8.7286811109e+02 0.0000000000e+00 0.0000e+00 1.0000e+00
<mgrwt>
<rscale>  0 0.94338136E+03</rscale>
<asrwt>0</asrwt>
<pdfrwt beam="1">  1        2 0.18751992E+00 0.94338136E+03</pdfrwt>
<pdfrwt beam="2">  1       -2 0.28082804E-01 0.94338136E+03</pdfrwt>
<totfact> 0.25486425E+02</totfact>
</mgrwt>
<rwgt>
<wgt id='morphing_basis_vector_1'> +1.8990253e-04 </wgt>
<wgt id='morphing_basis_vector_2'> +1.2205173e-04 </wgt>
<wgt id='morphing_basis_vector_3'> +1.7969231e-04 </wgt>
<wgt id='morphing_basis_vector_4'> +1.0381808e-04 </wgt>
<wgt id='morphing_basis_vector_5'> +1.6807504e-04 </wgt>
</rwgt>
</event>
<event>
 4      1 +1.4786900e-06 9.77802700e+02 7.81860800e-03 8.70585100e-02
        2 -1    0    0  501    0 +0.0000000000e+00 +0.0000000000e+00 +5.0521396176e+02 5.0521396176e+02 0.0000000000e+00 0.0000e+00 -1.0000e+00
       -2 -1    0    0    0  501 -0.0000000000e+00 -0.0000000000e+00 -4.7311549180e+02 4.7311549180e+02 0.0000000000e+00 0.0000e+00 1.0000e+00
      -13  1    1    2    0    0 -9.5183449262e+01 +1.6144348912e+02 -4.3574761150e+02 4.7434151212e+02 0.0000000000e+00 0.0000e+00 1.0000e+00
       13  1    1    2    0    0 +9.5183449262e+01 -1.6144348912e+02 +4.6784608146e+02 5.0398794145e+02 0.0000000000e+00 0.0000e+00 -1.0000e+00
<mgrwt>
<rscale>  0 0.97780274E+03</rscale>
<asrwt>0</asrwt>
<pdfrwt beam="1">  1        2 0.77725225E-01 0.97780274E+03</pdfrwt>
<pdfrwt beam="2">  1       -2 0.72786999E-01 0.97780274E+03</pdfrwt>
<totfact> 0.12875205E+02</totfact>
</mgrwt>
<rwgt>
<wgt id='morphing_basis_vector_1'> +2.1455033e-04 </wgt>
<wgt id='morphing_basis_vector_2'> +1.3370629e-04 </wgt>
<wgt id='morphing_basis_vector_3'> +2.0522109e-04 </wgt>
<wgt id='morphing_basis_vector_4'> +1.2442711e-04 </wgt>
<wgt id='morphing_basis_vector_5'> +1.9678125e-04 </wgt>
</rwgt>
</event>
<event>
 4      1 +1.4786900e-06 1.00931600e+03 7.81860800e-03 8.67561000e-02
        2 -1    0    0  501    0 +0.0000000000e+00 +0.0000000000e+00 +9.4465976332e+02 9.4465976332e+02 0.0000000000e+00 0.0000e+00 1.0000e+00
       -2 -1    0    0    0  501 -0.0000000000e+00 -0.0000000000e+00 -2.6959913363e+02 2.6959913363e+02 0.0000000000e+00 0.0000e+00 -1.0000e+00
      -13  1    1    2    0    0 +8.8143460359e+01 -4.1239946975e+02 +6.7100982306e+02 7.9252556735e+02 0.0000000000e+00 0.0000e+00 1.0000e+00
       13  1    1    2    0    0 -8.8143460359e+01 +4.1239946975e+02 +4.0508066309e+00 4.2173332959e+02 0.0000000000e+00 0.0000e+00 -1.0000e+00
<mgrwt>
<rscale>  0 0.10093155E+04</rscale>
<asrwt>0</asrwt>
<pdfrwt beam="1">  1        2 0.14533227E+00 0.10093155E+04</pdfrwt>
<pdfrwt beam="2">  1       -2 0.41476790E-01 0.10093155E+04</pdfrwt>
<totfact> 0.18357477E+02</totfact>
</mgrwt>
<rwgt>
<wgt id='morphing_basis_vector_1'> +2.9079663e-04 </wgt>
<wgt id='morphing_basis_vector_2'> +3.0113089e-04 </wgt>
<wgt id='morphing_basis_vector_3'> +2.7930846e-04 </wgt>
<wgt id='morphing_basis_vector_4'> +6.5609107e-05 </wgt>
<wgt id='morphing_basis_vector_5'> +2.2125203e-04 </wgt>
</rwgt>
</event>
<event>
 4      1 +1.4786900e-06 9.21096000e+02 7.81860800e-03 8.76338300e-02
        2 -1    0    0  501    0 +0.0000000000e+00 +0.0000000000e+00 +1.6029622110e+03 1.6029622110e+03 0.0000000000e+00 0.0000e+00 -1.0000e+00
       -2 -1    0    0    0  501 -0.0000000000e+00 -0.0000000000e+00 -1.3232032608e+02 1.3232032608e+02 0.0000000000e+00 0.0000e+00 1.0000e+00
      -13  1    1    2    0    0 +9.2080732823e+01 -3.0395701440e+02 +1.0699139980e+02 3.3513562566e+02 0.0000000000e+00 0.0000e+00 1.0000e+00
       13  1    1    2    0    0 -9.2080732823e+01 +3.0395701440e+02 +1.3636504851e+03 1.4001469114e+03 0.0000000000e+00 0.0000e+00 -1.0000e+00
<mgrwt>
<rscale>  0 0.92109605E+03</rscale>
<asrwt>0</asrwt>
<pdfrwt beam="1">  1        2 0.24660956E+00 0.92109605E+03</pdfrwt>
<pdfrwt beam="2">  1       -2 0.20356974E-01 0.92109605E+03</pdfrwt>
<totfact> 0.26899857E+02</totfact>
</mgrwt>
<rwgt>
<wgt id='morphing_basis_vector_1'> +1.7253114e-04 </wgt>
<wgt id='morphing_basis_vector_2'> +1.0691068e-04 </wgt>
<wgt id='morphing_basis_vector_3'> +1.6226837e-04 </wgt>
<wgt id='morphing_basis_vector_4'> +9.5695699e-05 </wgt>
<wgt id='morphing_basis_vector_5'> +1.5141380e-04 </wgt>
</rwgt>
</event>
<event>
 4      1 +1.4786900e-06 1.02173500e+03 7.81860800e-03 8.66400500e-02
        2 -1    0    0  501    0 +0.0000000000e+00 +0.0000000000e+00 +4.7724235609e+02 4.7724235609e+02 0.0000000000e+00 0.0000e+00 1.0000e+00
       -2 -1    0    0    0  501 -0.0000000000e+00 -0.0000000000e+00 -5.4686201134e+02 5.4686201134e+02 0.0000000000e+00 0.0000e+00 -1.0000e+00
      -13  1    1    2    0    0 -1.1119720492e+02 +3.1276864693e+02 -4.2403572602e+02 5.3851215569e+02 0.0000000000e+00 0.0000e+00 -1.0000e+00
       13  1    1    2    0    0 +1.1119720492e+02 -3.1276864693e+02 +3.5441607078e+02 4.8559221174e+02 0.0000000000e+00 0.0000e+00 1.0000e+00
<mgrwt>
<rscale>  0 0.10217352E+04</rscale>
<asrwt>0</asrwt>
<pdfrwt beam="1">  1        2 0.73421902E-01 0.10217352E+04</pdfrwt>
<pdfrwt beam="2">  1       -2 0.84132616E-01 0.10217352E+04</pdfrwt>
<totfact> 0.99051593E+01</totfact>
</mgrwt>
<rwgt>
<wgt id='morphing_basis_vector_1'> +2.5254805e-04 </wgt>
<wgt id='morphing_basis_vector_2'> +1.5881240e-04 </wgt>
<wgt id='morphing_basis_vector_3'> +2.4431907e-04 </wgt>
<wgt id='morphing_basis_vector_4'> +1.5016260e-04 </wgt>
<wgt id='morphing_basis_vector_5'> +2.3815894e-04 </wgt>
</rwgt>
</event>
<event>
 4      1 +1.4786900e-06 1.06755200e+03 7.81860800e-03 8.62262800e-02
        2 -1    0    0  501    0 +0.0000000000e+00 +0.0000000000e+00 +1.9930596574e+03 1.9930596574e+03 0.0000000000e+00 0.0000e+00 -1.0000e+00
       -2 -1    0    0    0  501 -0.0000000000e+00 -0.0000000000e+00 -1.4295443197e+02 1.4295443197e+02 0.0000000000e+00 0.0000e+00 1.0000e+00
      -13  1    1    2    0    0 +2.3083407325e+02 -2.5118766760e+02 +1.0363707959e+02 3.5653927973e+02 0.0000000000e+00 0.0000e+00 1.0000e+00
       13  1    1    2    0    0 -2.3083407325e+02 +2.5118766760e+02 +1.7464681458e+03 1.7794748096e+03 0.0000000000e+00 0.0000e+00 -1.0000e+00
<mgrwt>
<rscale>  0 0.10675518E+04</rscale>
<asrwt>0</asrwt>
<pdfrwt beam="1">  1        2 0.30662454E+00 0.10675518E+04</pdfrwt>
<pdfrwt beam="2">  1       -2 0.21992991E-01 0.10675518E+04</pdfrwt>
<totfact> 0.14217456E+02</totfact>
</mgrwt>
<rwgt>
<wgt id='morphing_basis_vector_1'> +2.9727673e-04 </wgt>
<wgt id='morphing_basis_vector_2'> +1.8803091e-04 </wgt>
<wgt id='morphing_basis_vector_3'> +2.9064243e-04 </wgt>
<wgt id='morphing_basis_vector_4'> +1.8128750e-04 </wgt>
<wgt id='morphing_basis_vector_5'> +2.8775865e-04 </wgt>
</rwgt>
</event>
<event>
 4      1 +1.4786900e-06 9.10224600e+02 7.81860800e-03 8.77490700e-02
        2 -1    0    0  501    0 +0.0000000000e+00 +0.0000000000e+00 +1.1169470141e+03 1.1169470141e+03 0.0000000000e+00 0.0000e+00 -1.0000e+00
       -2 -1    0    0    0  501 -0.0000000000e+00 -0.0000000000e+00 -1.8544048256e+02 1.8544048256e+02 0.0000000000e+00 0.0000e+00 1.0000e+00
      -13  1    1    2    0    0 +7.3459318545e+01 +3.2414535028e+02 +2.0900124999e+01 3.3302146299e+02 0.0000000000e+00 0.0000e+00 1.0000e+00
       13  1    1    2    0    0 -7.3459318545e+01 -3.2414535028e+02 +9.1060640650e+02 9.6936603362e+02 0.0000000000e+00 0.0000e+00 -1.0000e+00
<mgrwt>
<rscale>  0 0.91022457E+03</rscale>
<asrwt>0</asrwt>
<pdfrwt beam="1">  1        2 0.17183800E+00 0.91022457E+03</pdfrwt>
<pdfrwt beam="2">  1       -2 0.28529306E-01 0.91022457E+03</pdfrwt>
<totfact> 0.28508779E+02</totfact>
</mgrwt>
<rwgt>
<wgt id='morphing_basis_vector_1'> +1.6529393e-04 </wgt>
<wgt id='morphing_basis_vector_2'> +1.0238195e-04 </wgt>
<wgt id='morphing_basis_vector_3'> +1.5490474e-04 </wgt>
<wgt id='morphing_basis_vector_4'> +9.0755705e-05 </wgt>
<wgt id='morphing_basis_vector_5'> +1.4367393e-04 </wgt>
</rwgt>
</event>
<event>
 4      1 +1.4786900e-06 9.18913900e+02 7.81860800e-03 8.76568300e-02
        2 -1    0    0  501    0 +0.0000000000e+00 +0.0000000000e+00 +5.8079420517e+02 5.8079420517e+02 0.0000000000e+00 0.0000e+00 -1.0000e+00
       -2 -1    0    0    0  501 -0.0000000000e+00 -0.0000000000e+00 -3.6346896082e+02 3.6346896082e+02 0.0000000000e+00 0.0000e+00 1.0000e+00
      -13  1    1    2    0    0 -3.4403602679e+02 +4.9984860147e+01 -2.0002637140e+02 4.0108580532e+02 0.0000000000e+00 0.0000e+00 1.0000e+00
       13  1    1    2    0    0 +3.4403602679e+02 -4.9984860147e+01 +4.1735161575e+02 5.4317736067e+02 0.0000000000e+00 0.0000e+00 -1.0000e+00
<mgrwt>
<rscale>  0 0.91891385E+03</rscale>
<asrwt>0</asrwt>
<pdfrwt beam="1">  1        2 0.89352954E-01 0.91891385E+03</pdfrwt>
<pdfrwt beam="2">  1       -2 0.55918302E-01 0.91891385E+03</pdfrwt>
<totfact> 0.19055127E+02</totfact>
</mgrwt>
<rwgt>
<wgt id='morphing_basis_vector_1'> +1.7116777e-04 </wgt>
<wgt id='morphing_basis_vector_2'> +1.0631983e-04 </wgt>
<wgt id='morphing_basis_vector_3'> +1.6085817e-04 </wgt>
<wgt id='morphing_basis_vector_4'> +9.4531338e-05 </wgt>
<wgt id='morphing_basis_vector_5'> +1.4982792e-04 </wgt>
</rwgt>
</event>
<event>
 4      1 +1.4786900e-06 9.61024700e+02 7.81860800e-03 8.72244000e-02
        2 -1    0    0  501    0 +0.0000000000e+00 +0.0000000000e+00 +1.0013635346e+03 1.0013635346e+03 0.0000000000e+00 0.0000e+00 1.0000e+00
       -2 -1    0    0    0  501 -0.0000000000e+00 -0.0000000000e+00 -2.3057771280e+02 2.3057771280e+02 0.0000000000e+00 0.0000e+00 -1.0000e+00
      -13  1    1    2    0    0 -1.3868567122e+02 +1.2013154429e+02 -1.8390347466e+02 2.5978027509e+02 0.0000000000e+00 0.0000e+00 -1.0000e+00
       13  1    1    2    0    0 +1.3868567122e+02 -1.2013154429e+02 +9.5468929645e+02 9.7216097232e+02 0.0000000000e+00 0.0000e+00 1.0000e+00
<mgrwt>
<rscale>  0 0.96102469E+03</rscale>
<asrwt>0</asrwt>
<pdfrwt beam="1">  1        2 0.15405593E+00 0.96102469E+03</pdfrwt>
<pdfrwt beam="2">  1       -2 0.35473495E-01 0.96102469E+03</pdfrwt>
<totfact> 0.22644928E+02</totfact>
</mgrwt>
<rwgt>
<wgt id='morphing_basis_vector_1'> +2.0132093e-04 </wgt>
<wgt id='morphing_basis_vector_2'> +1.2512990e-04 </wgt>
<wgt id='morphing_basis_vector_3'> +1.9166592e-04 </wgt>
<wgt id='morphing_basis_vector_4'> +1.1542690e-04 </wgt>
<wgt id='morphing_basis_vector_5'> +1.8245444e-04 </wgt>
</rwgt>
</event>
<event>
 4      1 +1.4786900e-06 9.49355300e+02 7.81860800e-03 8.73418800e-02
        2 -1    0    0  501    0 +0.0000000000e+00 +0.0000000000e+00 +9.4713858882e+02 9.4713858882e+02 0.0000000000e+00 0.0000e+00 -1.0000e+00
       -2 -1    0    0    0  501 -0.0000000000e+00 -0.0000000000e+00 -2.3789431961e+02 2.3789431961e+02 0.0000000000e+00 0.0000e+00 1.0000e+00
      -13  1    1    2    0    0 -8.7329266739e+01 -4.2583939799e+02 +1.1662402225e+02 4.5007416753e+02 0.0000000000e+00 0.0000e+00 1.0000e+00
       13  1    1    2    0    0 +8.7329266739e+01 +4.2583939799e+02 +5.9262024696e+02 7.3495874090e+02 0.0000000000e+00 0.0000e+00 -1.0000e+00
<mgrwt>
<rscale>  0 0.94935534E+03</rscale>
<asrwt>0</asrwt>
<pdfrwt beam="1">  1        2 0.14571363E+00 0.94935534E+03</pdfrwt>
<pdfrwt beam="2">  1       -2 0.36599127E-01 0.94935534E+03</pdfrwt>
<totfact> 0.23153243E+02</totfact>
</mgrwt>
<rwgt>
<wgt id='morphing_basis_vector_1'> +1.9384425e-04 </wgt>
<wgt id='morphing_basis_vector_2'> +1.2350552e-04 </wgt>
<wgt id='morphing_basis_vector_3'> +1.8380507e-04 </wgt>
<wgt id='morphing_basis_vector_4'> +1.0745351e-04 </wgt>
<wgt id='morphing_basis_vector_5'> +1.7283580e-04 </wgt>
</rwgt>
</event>
<event>
 4      1 +1.4786900e-06 1.03164700e+03 7.81860800e-03 8.65486600e-02
        2 -1    0    0  501    0 +0.0000000000e+00 +0.0000000000e+00 +3.2748637567e+02 3.2748637567e+02 0.0000000000e+00 0.0000e+00 1.0000e+00
       -2 -1    0    0    0  501 -0.0000000000e+00 -0.0000000000e+00 -8.1247304039e+02 8.1247304039e+02 0.0000000000e+00 0.0000e+00 -1.0000e+00
      -13  1    1    2    0    0 +7.9784084920e+01 -1.3376506224e+02 -7.8586895130e+02 8.0115454233e+02 0.0000000000e+00 0.0000e+00 -1.0000e+00
       13  1    1    2    0    0 -7.9784084920e+01 +1.3376506224e+02 +3.0088228658e+02 3.3880487373e+02 0.0000000000e+00 0.0000e+00 1.0000e+00
<mgrwt>
<rscale>  0 0.10316469E+04</rscale>
<asrwt>0</asrwt>
<pdfrwt beam="1">  1        2 0.50382520E-01 0.10316469E+04</pdfrwt>
<pdfrwt beam="2">  1       -2 0.12499585E+00 0.10316469E+04</pdfrwt>
<totfact> 0.57468187E+01</totfact>
</mgrwt>
<rwgt>
<wgt id='morphing_basis_vector_1'> +2.6157015e-04 </wgt>
<wgt id='morphing_basis_vector_2'> +1.6426380e-04 </wgt>
<wgt id='morphing_basis_vector_3'> +2.5365299e-04 </wgt>
<wgt id='morphing_basis_vector_4'> +1.5682265e-04 </wgt>
<wgt id='morphing_basis_vector_5'> +2.4832992e-04 </wgt>
</rwgt>
</event>
<event>
 4      1 +1.4786900e-06 1.03476600e+03 7.81860800e-03 8.65201200e-02
        2 -1    0    0  501    0 +0.0000000000e+00 +0.0000000000e+00 +5.3602280673e+02 5.3602280673e+02 0.0000000000e+00 0.0000e+00 1.0000e+00
       -2 -1    0    0    0  501 -0.0000000000e+00 -0.0000000000e+00 -4.9939182400e+02 4.9939182400e+02 0.0000000000e+00 0.0000e+00 -1.0000e+00
      -13  1    1    2    0    0 -3.1262530104e+02 -4.7383353254e+01 -3.9145982636e+02 5.0321025096e+02 0.0000000000e+00 0.0000e+00 -1.0000e+00
       13  1    1    2    0    0 +3.1262530104e+02 +4.7383353254e+01 +4.2809080910e+02 5.3220437977e+02 0.0000000000e+00 0.0000e+00 1.0000e+00
<mgrwt>
<rscale>  0 0.10347665E+04</rscale>
<asrwt>0</asrwt>
<pdfrwt beam="1">  1        2 0.82465047E-01 0.10347665E+04</pdfrwt>
<pdfrwt beam="2">  1       -2 0.76829511E-01 0.10347665E+04</pdfrwt>
<totfact> 0.10640186E+02</totfact>
</mgrwt>
<rwgt>
<wgt id='morphing_basis_vector_1'> +2.6465501e-04 </wgt>
<wgt id='morphing_basis_vector_2'> +1.6659727e-04 </wgt>
<wgt id='morphing_basis_vector_3'> +2.5683403e-04 </wgt>
<wgt id='morphing_basis_vector_4'> +1.5865556e-04 </wgt>
<wgt id='morphing_basis_vector_5'> +2.5157692e-04 </wgt>
</rwgt>
</event>
<event>
 4      1 +1.4786900e-06 1.01956300e+03 7.81860800e-03 8.66602200e-02
        2 -1    0    0  501    0 +0.0000000000e+00 +0.0000000000e+00 +2.0109900791e+03 2.0109900791e+03 0.0000000000e+00 0.0000e+00 -1.0000e+00
       -2 -1    0    0    0  501 -0.0000000000e+00 -0.0000000000e+00 -1.2922853451e+02 1.2922853451e+02 0.0000000000e+00 0.0000e+00 1.0000e+00
      -13  1    1    2    0    0 -4.1920545436e+01 +3.9784978630e+02 +2.7761665660e+02 4.8694228878e+02 0.0000000000e+00 0.0000e+00 1.0000e+00
       13  1    1    2    0    0 +4.1920545436e+01 -3.9784978630e+02 +1.6041448880e+03 1.6532763249e+03 0.0000000000e+00 0.0000e+00 -1.0000e+00
<mgrwt>
<rscale>  0 0.10195632E+04</rscale>
<asrwt>0</asrwt>
<pdfrwt beam="1">  1        2 0.30938307E+00 0.10195632E+04</pdfrwt>
<pdfrwt beam="2">  1       -2 0.19881314E-01 0.10195632E+04</pdfrwt>
<totfact> 0.16526397E+02</totfact>
</mgrwt>
<rwgt>
<wgt id='morphing_basis_vector_1'> +2.5092368e-04 </wgt>
<wgt id='morphing_basis_vector_2'> +1.5860537e-04 </wgt>
<wgt id='morphing_basis_vector_3'> +2.4261382e-04 </wgt>
<wgt id='morphing_basis_vector_4'> +1.4823030e-04 </wgt>
<wgt id='morphing_basis_vector_5'> +2.3594116e-04 </wgt>
</rwgt>
</event>
<event>
 4      1 +1.4786900e-06 1.05227200e+03 7.81860800e-03 8.63618500e-02
        2 -1    0    0  501    0 +0.0000000000e+00 +0.0000000000e+00 +7.3781964093e+02 7.3781964093e+02 0.0000000000e+00 0.0000e+00 1.0000e+00
       -2 -1    0    0    0  501 -0.0000000000e+00 -0.0000000000e+00 -3.7518527105e+02 3.7518527105e+02 0.0000000000e+00 0.0000e+00 -1.0000e+00
      -13  1    1    2    0    0 -7.2002169954e+01 -5.1466237548e+02 +9.4369396248e+01 5.2817350952e+02 0.0000000000e+00 0.0000e+00 -1.0000e+00
       13  1    1    2    0    0 +7.2002169954e+01 +5.1466237548e+02 +2.6826497363e+02 5.8483140245e+02 0.0000000000e+00 0.0000e+00 1.0000e+00
<mgrwt>
<rscale>  0 0.10522719E+04</rscale>
<asrwt>0</asrwt>
<pdfrwt beam="1">  1        2 0.11351071E+00 0.10522719E+04</pdfrwt>
<pdfrwt beam="2">  1       -2 0.57720811E-01 0.10522719E+04</pdfrwt>
<totfact> 0.13279571E+02</totfact>
</mgrwt>
<rwgt>
<wgt id='morphing_basis_vector_1'> +2.8717074e-04 </wgt>
<wgt id='morphing_basis_vector_2'> +1.9429040e-04 </wgt>
<wgt id='morphing_basis_vector_3'> +2.7990838e-04 </wgt>
<wgt id='morphing_basis_vector_4'> +1.6174096e-04 </wgt>
<wgt id='morphing_basis_vector_5'> +2.6990988e-04 </wgt>
</rwgt>
</event>
<event>
 4      1 +1.4786900e-06 9.69995200e+02 7.81860800e-03 8.71352700e-02
        2 -1    0    0  501    0 +0.0000000000e+00 +0.0000000000e+00 +2.0403766309e+03 2.0403766309e+03 0.0000000000e+00 0.0000e+00 -1.0000e+00
       -2 -1    0    0    0  501 -0.0000000000e+00 -0.0000000000e+00 -1.1528395269e+02 1.1528395269e+02 0.0000000000e+00 0.0000e+00 1.0000e+00
      -13  1    1    2    0    0 -1.5390518330e+02 +3.4996712375e+02 +2.9933884663e+02 4.8555899565e+02 0.0000000000e+00 0.0000e+00 1.0000e+00
       13  1    1    2    0    0 +1.5390518330e+02 -3.4996712375e+02 +1.6257538315e+03 1.6701015879e+03 0.0000000000e+00 0.0000e+00 -1.0000e+00
<mgrwt>
<rscale>  0 0.96999522E+03</rscale>
<asrwt>0</asrwt>
<pdfrwt beam="1">  1        2 0.31390407E+00 0.96999522E+03</pdfrwt>
<pdfrwt beam="2">  1       -2 0.17735994E-01 0.96999522E+03</pdfrwt>
<totfact> 0.19315112E+02</totfact>
</mgrwt>
<rwgt>
<wgt id='morphing_basis_vector_1'> +2.0876462e-04 </wgt>
<wgt id='morphing_basis_vector_2'> +1.3102986e-04 </wgt>
<wgt id='morphing_basis_vector_3'> +1.9922773e-04 </wgt>
<wgt id='morphing_basis_vector_4'> +1.1949525e-04 </wgt>
<wgt id='morphing_basis_vector_5'> +1.8997673e-04 </wgt>
</rwgt>
</event>
<event>
 4      1 +1.4786900e-06 1.00863600e+03 7.81860800e-03 8.67625000e-02
        2 -1    0    0  501    0 +0.0000000000e+00 +0.0000000000e+00 +4.2311341266e+02 4.2311341266e+02 0.0000000000e+00 0.0000e+00 -1.0000e+00
       -2 -1    0    0    0  501 -0.0000000000e+00 -0.0000000000e+00 -6.0110711990e+02 6.0110711990e+02 0.0000000000e+00 0.0000e+00 1.0000e+00
      -13  1    1    2    0    0 -1.0071642395e+02 -1.8977706971e+02 -5.5231134964e+02 5.9262716879e+02 0.0000000000e+00 0.0000e+00 1.0000e+00
       13  1    1    2    0    0 +1.0071642395e+02 +1.8977706971e+02 +3.7431764241e+02 4.3159336378e+02 0.0000000000e+00 0.0000e+00 -1.0000e+00
<mgrwt>
<rscale>  0 0.10086357E+04</rscale>
<asrwt>0</asrwt>
<pdfrwt beam="1">  1        2 0.65094372E-01 0.10086357E+04</pdfrwt>
<pdfrwt beam="2">  1       -2 0.92478018E-01 0.10086357E+04</pdfrwt>
<totfact> 0.91207575E+01</totfact>
</mgrwt>
<rwgt>
<wgt id='morphing_basis_vector_1'> +2.4060983e-04 </wgt>
<wgt id='morphing_basis_vector_2'> +1.5065867e-04 </wgt>
<wgt id='morphing_basis_vector_3'> +2.3201725e-04 </wgt>
<wgt id='morphing_basis_vector_4'> +1.4228112e-04 </wgt>
<wgt id='morphing_basis_vector_5'> +2.2522464e-04 </wgt>
</rwgt>
</event>
<event>
 4      1 +1.4786900e-06 9.43772900e+02 7.81860800e-03 8.73987000e-02
        2 -1    0    0  501    0 +0.0000000000e+00 +0.0000000000e+00 +2.8485938523e+03 2.8485938523e+03 0.0000000000e+00 0.0000e+00 1.0000e+00
       -2 -1    0    0    0  501 -0.0000000000e+00 -0.0000000000e+00 -7.8170780372e+01 7.8170780372e+01 0.0000000000e+00 0.0000e+00 -1.0000e+00
      -13  1    1    2    0    0 -3.8249980041e+02 +1.9161757656e+01 +5.3026844661e+02 6.5410847398e+02 0.0000000000e+00 0.0000e+00 -1.0000e+00
       13  1    1    2    0    0 +3.8249980041e+02 -1.9161757656e+01 +2.2401546253e+03 2.2726561587e+03 0.0000000000e+00 0.0000e+00 1.0000e+00
<mgrwt>
<rscale>  0 0.94377286E+03</rscale>
<asrwt>0</asrwt>
<pdfrwt beam="1">  1        2 0.43824513E+00 0.94377286E+03</pdfrwt>
<pdfrwt beam="2">  1       -2 0.12026276E-01 0.94377286E+03</pdfrwt>
<totfact> 0.12220615E+02</totfact>
</mgrwt>
<rwgt>
<wgt id='morphing_basis_vector_1'> +1.8888111e-04 </wgt>
<wgt id='morphing_basis_vector_2'> +1.1826667e-04 </wgt>
<wgt id='morphing_basis_vector_3'> +1.7887019e-04 </wgt>
<wgt id='morphing_basis_vector_4'> +1.0594430e-04 </wgt>
<wgt id='morphing_basis_vector_5'> +1.6849011e-04 </wgt>
</rwgt>
</event>
<event>
 4      1 +1.4786900e-06 9.01682100e+02 7.81860800e-03 8.78408200e-02
        2 -1    0    0  501    0 +0.0000000000e+00 +0.0000000000e+00 +1.3139105436e+03 1.3139105436e+03 0.0000000000e+00 0.0000e+00 1.0000e+00
       -2 -1    0    0    0  501 -0.0000000000e+00 -0.0000000000e+00 -1.5469672606e+02 1.5469672606e+02 0.0000000000e+00 0.0000e+00 -1.0000e+00
      -13  1    1    2    0    0 +2.0899290165e+02 +3.7014136709e+02 +3.3488883371e+02 5.4114064301e+02 0.0000000000e+00 0.0000e+00 -1.0000e+00
       13  1    1    2    0    0 -2.0899290165e+02 -3.7014136709e+02 +8.2432498384e+02 9.2746662666e+02 0.0000000000e+00 0.0000e+00 1.0000e+00
<mgrwt>
<rscale>  0 0.90168212E+03</rscale>
<asrwt>0</asrwt>
<pdfrwt beam="1">  1        2 0.20214008E+00 0.90168212E+03</pdfrwt>
<pdfrwt beam="2">  1       -2 0.23799497E-01 0.90168212E+03</pdfrwt>
<totfact> 0.29996016E+02</totfact>
</mgrwt>
<rwgt>
<wgt id='morphing_basis_vector_1'> +1.6103125e-04 </wgt>
<wgt id='morphing_basis_vector_2'> +1.0275473e-04 </wgt>
<wgt id='morphing_basis_vector_3'> +1.5028768e-04 </wgt>
<wgt id='morphing_basis_vector_4'> +8.5216815e-05 </wgt>
<wgt id='morphing_basis_vector_5'> +1.3770229e-04 </wgt>
</rwgt>
</event>
<event>
 4      1 +1.4786900e-06 9.05353900e+02 7.81860800e-03 8.78012600e-02
        2 -1    0    0  501    0 +0.0000000000e+00 +0.0000000000e+00 +3.9912986171e+02 3.9912986171e+02 0.0000000000e+00 0.0000e+00 -1.0000e+00
       -2 -1    0    0    0  501 -0.0000000000e+00 -0.0000000000e+00 -5.1340786387e+02 5.1340786387e+02 0.0000000000e+00 0.0000e+00 1.0000e+00
      -13  1    1    2    0    0 +2.8371336831e+02 +3.3508337102e+02 -1.6820532171e+02 4.7017780800e+02 0.0000000000e+00 0.0000e+00 1.0000e+00
       13  1    1    2    0    0 -2.8371336831e+02 -3.3508337102e+02 +5.3927319550e+01 4.4235991758e+02 0.0000000000e+00 0.0000e+00 -1.0000e+00
<mgrwt>
<rscale>  0 0.90535387E+03</rscale>
<asrwt>0</asrwt>
<pdfrwt beam="1">  1        2 0.61404594E-01 0.90535387E+03</pdfrwt>
<pdfrwt beam="2">  1       -2 0.78985825E-01 0.90535387E+03</pdfrwt>
<totfact> 0.14102459E+02</totfact>
</mgrwt>
<rwgt>
<wgt id='morphing_basis_vector_1'> +1.6414336e-04 </wgt>
<wgt id='morphing_basis_vector_2'> +1.0653158e-04 </wgt>
<wgt id='morphing_basis_vector_3'> +1.5328733e-04 </wgt>
<wgt id='morphing_basis_vector_4'> +8.5724649e-05 </wgt>
<wgt id='morphing_basis_vector_5'> +1.4014793e-04 </wgt>
</rwgt>
</event>
<event>
 4      1 +1.4786900e-06 9.17419200e+02 7.81860800e-03 8.76726200e-02
        2 -1    0    0  501    0 +0.0000000000e+00 +0.0000000000e+00 +8.6595773130e+02 8.6595773130e+02 0.0000000000e+00 0.0000e+00 -1.0000e+00
       -2 -1    0    0    0  501 -0.0000000000e+00 -0.0000000000e+00 -2.4298470452e+02 2.4298470452e+02 0.0000000000e+00 0.0000e+00 1.0000e+00
      -13  1    1    2    0    0 -1.5479310036e+02 -3.6156675459e+02 +2.6149128434e+01 3.9417660872e+02 0.0000000000e+00 0.0000e+00 1.0000e+00
       13  1    1    2    0    0 +1.5479310036e+02 +3.6156675459e+02 +5.9682389835e+02 7.1476582710e+02 0.0000000000e+00 0.0000e+00 -1.0000e+00
<mgrwt>
<rscale>  0 0.91741917E+03</rscale>
<asrwt>0</asrwt>
<pdfrwt beam="1">  1        2 0.13322426E+00 0.91741917E+03</pdfrwt>
<pdfrwt beam="2">  1       -2 0.37382263E-01 0.91741917E+03</pdfrwt>
<totfact> 0.25197590E+02</totfact>
</mgrwt>
<rwgt>
<wgt id='morphing_basis_vector_1'> +1.7054335e-04 </wgt>
<wgt id='morphing_basis_vector_2'> +1.0684248e-04 </wgt>
<wgt id='morphing_basis_vector_3'> +1.6014479e-04 </wgt>
<wgt id='morphing_basis_vector_4'> +9.3299479e-05 </wgt>
<wgt id='morphing_basis_vector_5'> +1.4872485e-04 </wgt>
</rwgt>
</event>
<event>
 4      1 +1.4786900e-06 9.03662900e+02 7.81860800e-03 8.78194500e-02
        2 -1    0    0  501    0 +0.0000000000e+00 +0.0000000000e+00 +1.7550133580e+02 1.7550133580e+02 0.0000000000e+00 0.0000e+00 -1.0000e+00
       -2 -1    0    0    0  501 -0.0000000000e+00 -0.0000000000e+00 -1.1632485717e+03 1.1632485717e+03 0.0000000000e+00 0.0000e+00 1.0000e+00
      -13  1    1    2    0    0 +3.4302378823e+02 +2.7614989693e+02 -6.4369703806e+02 7.7991663764e+02 0.0000000000e+00 0.0000e+00 1.0000e+00
       13  1    1    2    0    0 -3.4302378823e+02 -2.7614989693e+02 -3.4405019786e+02 5.5883326987e+02 0.0000000000e+00 0.0000e+00 -1.0000e+00
<mgrwt>
<rscale>  0 0.90366294E+03</rscale>
<asrwt>0</asrwt>
<pdfrwt beam="1">  1        2 0.27000205E-01 0.90366294E+03</pdfrwt>
<pdfrwt beam="2">  1       -2 0.17896132E+00 0.90366294E+03</pdfrwt>
<totfact> 0.42344936E+01</totfact>
</mgrwt>
<rwgt>
<wgt id='morphing_basis_vector_1'> +1.6321849e-04 </wgt>
<wgt id='morphing_basis_vector_2'> +1.0634728e-04 </wgt>
<wgt id='morphing_basis_vector_3'> +1.5230591e-04 </wgt>
<wgt id='morphing_basis_vector_4'> +8.4758870e-05 </wgt>
<wgt id='morphing_basis_vector_5'> +1.3897892e-04 </wgt>
</rwgt>
</event>
<event>
 4      1 +1.4786900e-06 1.00239800e+03 7.81860800e-03 8.68214900e-02
        2 -1    0    0  501    0 +0.0000000000e+00 +0.0000000000e+00 +8.6247921146e+02 8.6247921146e+02 0.0000000000e+00 0.0000e+00 -1.0000e+00
       -2 -1    0    0    0  501 -0.0000000000e+00 -0.0000000000e+00 -2.9125381111e+02 2.9125381111e+02 0.0000000000e+00 0.0000e+00 1.0000e+00
      -13  1    1    2    0    0 +4.3389367418e+02 -8.0666069873e+01 +1.2199944623e+01 4.4149696938e+02 0.0000000000e+00 0.0000e+00 1.0000e+00
       13  1    1    2    0    0 -4.3389367418e+02 +8.0666069873e+01 +5.5902545573e+02 7.1223605320e+02 0.0000000000e+00 0.0000e+00 -1.0000e+00
<mgrwt>
<rscale>  0 0.10023978E+04</rscale>
<asrwt>0</asrwt>
<pdfrwt beam="1">  1        2 0.13268911E+00 0.10023978E+04</pdfrwt>
<pdfrwt beam="2">  1       -2 0.44808279E-01 0.10023978E+04</pdfrwt>
<totfact> 0.17947930E+02</totfact>
</mgrwt>
<rwgt>
<wgt id='morphing_basis_vector_1'> +2.3629968e-04 </wgt>
<wgt id='morphing_basis_vector_2'> +1.5058177e-04 </wgt>
<wgt id='morphing_basis_vector_3'> +2.2746553e-04 </wgt>
<wgt id='morphing_basis_vector_4'> +1.3674895e-04 </wgt>
<wgt id='morphing_basis_vector_5'> +2.1913657e-04 </wgt>
</rwgt>
</event>
<event>
 4      1 +1.4786900e-06 9.08984000e+02 7.81860800e-03 8.77623300e-02
        2 -1    0    0  501    0 +0.0000000000e+00 +0.0000000000e+00 +5.5558031489e+02 5.5558031489e+02 0.0000000000e+00 0.0000e+00 -1.0000e+00
       -2 -1    0    0    0  501 -0.0000000000e+00 -0.0000000000e+00 -3.7179679583e+02 3.7179679583e+02 0.0000000000e+00 0.0000e+00 1.0000e+00
      -13  1    1    2    0    0 -4.7046980363e+01 +1.4478708792e+02 -3.4500973423e+02 3.7710533794e+02 0.0000000000e+00 0.0000e+00 1.0000e+00
       13  1    1    2    0    0 +4.7046980363e+01 -1.4478708792e+02 +5.2879325329e+02 5.5027177278e+02 0.0000000000e+00 0.0000e+00 -1.0000e+00
<mgrwt>
<rscale>  0 0.90898401E+03</rscale>
<asrwt>0</asrwt>
<pdfrwt beam="1">  1        2 0.85473894E-01 0.90898401E+03</pdfrwt>
<pdfrwt beam="2">  1       -2 0.57199507E-01 0.90898401E+03</pdfrwt>
<totfact> 0.19180550E+02</totfact>
</mgrwt>
<rwgt>
<wgt id='morphing_basis_vector_1'> +1.6425345e-04 </wgt>
<wgt id='morphing_basis_vector_2'> +1.0117554e-04 </wgt>
<wgt id='morphing_basis_vector_3'> +1.5389701e-04 </wgt>
<wgt id='morphing_basis_vector_4'> +9.0533839e-05 </wgt>
<wgt id='morphing_basis_vector_5'> +1.4282704e-04 </wgt>
</rwgt>
</event>
<event>
 4      1 +1.4786900e-06 9.48715500e+02 7.81860800e-03 8.73483700e-02
        2 -1    0    0  501    0 +0.0000000000e+00 +0.0000000000e+00 +6.5741123267e+02 6.5741123267e+02 0.0000000000e+00 0.0000e+00 1.0000e+00
       -2 -1    0    0    0  501 -0.0000000000e+00 -0.0000000000e+00 -3.4227477396e+02 3.4227477396e+02 0.0000000000e+00 0.0000e+00 -1.0000e+00
      -13  1    1    2    0    0 +2.8234110088e+02 +2.5877740901e+02 -1.3734896366e+02 4.0687465204e+02 0.0000000000e+00 0.0000e+00 -1.0000e+00
       13  1    1    2    0    0 -2.8234110088e+02 -2.5877740901e+02 +4.5248542238e+02 5.9281135458e+02 0.0000000000e+00 0.0000e+00 1.0000e+00
<mgrwt>
<rscale>  0 0.94871551E+03</rscale>
<asrwt>0</asrwt>
<pdfrwt beam="1">  1        2 0.10114019E+00 0.94871551E+03</pdfrwt>
<pdfrwt beam="2">  1       -2 0.52657658E-01 0.94871551E+03</pdfrwt>
<totfact> 0.18514531E+02</totfact>
</mgrwt>
<rwgt>
<wgt id='morphing_basis_vector_1'> +1.9251164e-04 </wgt>
<wgt id='morphing_basis_vector_2'> +1.2059481e-04 </wgt>
<wgt id='morphing_basis_vector_3'> +1.8258118e-04 </wgt>
<wgt id='morphing_basis_vector_4'> +1.0840804e-04 </wgt>
<wgt id='morphing_basis_vector_5'> +1.7239732e-04 </wgt>
</rwgt>
</event>
<event>
 4      1 +1.4786900e-06 1.01903700e+03 7.81860800e-03 8.66651200e-02
        2 -1    0    0  501    0 +0.0000000000e+00 +0.0000000000e+00 +3.2421624019e+02 3.2421624019e+02 0.0000000000e+00 0.0000e+00 -1.0000e+00
       -2 -1    0    0    0  501 -0.0000000000e+00 -0.0000000000e+00 -8.0072767117e+02 8.0072767117e+02 0.0000000000e+00 0.0000e+00 1.0000e+00
      -13  1    1    2    0    0 -3.7352382899e+01 -3.4618615541e+02 -6.4889477316e+02 7.3641325445e+02 0.0000000000e+00 0.0000e+00 1.0000e+00
       13  1    1    2    0    0 +3.7352382899e+01 +3.4618615541e+02 +1.7238334218e+02 3.8853065692e+02 0.0000000000e+00 0.0000e+00 -1.0000e+00
<mgrwt>
<rscale>  0 0.10190366E+04</rscale>
<asrwt>0</asrwt>
<pdfrwt beam="1">  1        2 0.49879421E-01 0.10190366E+04</pdfrwt>
<pdfrwt beam="2">  1       -2 0.12318887E+00 0.10190366E+04</pdfrwt>
<totfact> 0.60441515E+01</totfact>
</mgrwt>
<rwgt>
<wgt id='morphing_basis_vector_1'> +2.5014160e-04 </wgt>
<wgt id='morphing_basis_vector_2'> +1.5737638e-04 </wgt>
<wgt id='morphing_basis_vector_3'> +2.4183026e-04 </wgt>
<wgt id='morphing_basis_vector_4'> +1.4837375e-04 </wgt>
<wgt id='morphing_basis_vector_5'> +2.3544268e-04 </wgt>
</rwgt>
</event>
<event>
 4      1 +1.4786900e-06 9.61262800e+02 7.81860800e-03 8.72220200e-02
        2 -1    0    0  501    0 +0.0000000000e+00 +0.0000000000e+00 +4.6812053320e+02 4.6812053320e+02 0.0000000000e+00 0.0000e+00 -1.0000e+00
       -2 -1    0    0    0  501 -0.0000000000e+00 -0.0000000000e+00 -4.9347664623e+02 4.9347664623e+02 0.0000000000e+00 0.0000e+00 1.0000e+00
      -13  1    1    2    0    0 +3.2563695321e+02 -1.8191501276e+02 -3.1589081855e+02 4.8879393041e+02 0.0000000000e+00 0.0000e+00 1.0000e+00
       13  1    1    2    0    0 -3.2563695321e+02 +1.8191501276e+02 +2.9053470552e+02 4.7280324901e+02 0.0000000000e+00 0.0000e+00 -1.0000e+00
<mgrwt>
<rscale>  0 0.96126282E+03</rscale>
<asrwt>0</asrwt>
<pdfrwt beam="1">  1        2 0.72018544E-01 0.96126282E+03</pdfrwt>
<pdfrwt beam="2">  1       -2 0.75919484E-01 0.96126282E+03</pdfrwt>
<totfact> 0.12819709E+02</totfact>
</mgrwt>
<rwgt>
<wgt id='morphing_basis_vector_1'> +2.0189806e-04 </wgt>
<wgt id='morphing_basis_vector_2'> +1.2644359e-04 </wgt>
<wgt id='morphing_basis_vector_3'> +1.9219921e-04 </wgt>
<wgt id='morphing_basis_vector_4'> +1.1496000e-04 </wgt>
<wgt id='morphing_basis_vector_5'> +1.8261844e-04 </wgt>
</rwgt>
</event>
<event>
 4      1 +1.4786900e-06 1.05259400e+03 7.81860800e-03 8.63589600e-02
        2 -1    0    0  501    0 +0.0000000000e+00 +0.0000000000e+00 +6.3481328224e+02 6.3481328224e+02 0.0000000000e+00 0.0000e+00 1.0000e+00
       -2 -1    0    0    0  501 -0.0000000000e+00 -0.0000000000e+00 -4.3633076544e+02 4.3633076544e+02 0.0000000000e+00 0.0000e+00 -1.0000e+00
      -13  1    1    2    0    0 +1.2511431210e+02 -3.7344400146e+02 -2.5601642450e+02 4.6974293282e+02 0.0000000000e+00 0.0000e+00 -1.0000e+00
       13  1    1    2    0    0 -1.2511431210e+02 +3.7344400146e+02 +4.5449894130e+02 6.0140111486e+02 0.0000000000e+00 0.0000e+00 1.0000e+00
<mgrwt>
<rscale>  0 0.10525941E+04</rscale>
<asrwt>0</asrwt>
<pdfrwt beam="1">  1        2 0.97663582E-01 0.10525941E+04</pdfrwt>
<pdfrwt beam="2">  1       -2 0.67127810E-01 0.10525941E+04</pdfrwt>
<totfact> 0.11671978E+02</totfact>
</mgrwt>
<rwgt>
<wgt id='morphing_basis_vector_1'> +2.8231579e-04 </wgt>
<wgt id='morphing_basis_vector_2'> +1.7886439e-04 </wgt>
<wgt id='morphing_basis_vector_3'> +2.7510741e-04 </wgt>
<wgt id='morphing_basis_vector_4'> +1.7023329e-04 </wgt>
<wgt id='morphing_basis_vector_5'> +2.7078138e-04 </wgt>
</rwgt>
</event>
<event>
 4      1 +1.4786900e-06 9.96267900e+02 7.81860800e-03 8.68799000e-02
        2 -1    0    0  501    0 +0.0000000000e+00 +0.0000000000e+00 +1.4413930779e+03 1.4413930779e+03 0.0000000000e+00 0.0000e+00 -1.0000e+00
       -2 -1    0    0    0  501 -0.0000000000e+00 -0.0000000000e+00 -1.7215110569e+02 1.7215110569e+02 0.0000000000e+00 0.0000e+00 1.0000e+00
      -13  1    1    2    0    0 -2.2509396106e+02 -4.4360771979e+02 +6.7692642026e+02 8.4005028350e+02 0.0000000000e+00 0.0000e+00 1.0000e+00
       13  1    1    2    0    0 +2.2509396106e+02 +4.4360771979e+02 +5.9231555191e+02 7.7349390005e+02 0.0000000000e+00 0.0000e+00 -1.0000e+00
<mgrwt>
<rscale>  0 0.99626786E+03</rscale>
<asrwt>0</asrwt>
<pdfrwt beam="1">  1        2 0.22175277E+00 0.99626786E+03</pdfrwt>
<pdfrwt beam="2">  1       -2 0.26484786E-01 0.99626786E+03</pdfrwt>
<totfact> 0.21027990E+02</totfact>
</mgrwt>
<rwgt>
<wgt id='morphing_basis_vector_1'> +2.3977035e-04 </wgt>
<wgt id='morphing_basis_vector_2'> +1.7362688e-04 </wgt>
<wgt id='morphing_basis_vector_3'> +2.3011589e-04 </wgt>
<wgt id='morphing_basis_vector_4'> +1.1967021e-04 </wgt>
<wgt id='morphing_basis_vector_5'> +2.1257350e-04 </wgt>
</rwgt>
</event>
<event>
 4      1 +1.4786900e-06 1.02649100e+03 7.81860800e-03 8.65960600e-02
        2 -1    0    0  501    0 +0.0000000000e+00 +0.0000000000e+00 +1.6022436061e+03 1.6022436061e+03 0.0000000000e+00 0.0000e+00 -1.0000e+00
       -2 -1    0    0    0  501 -0.0000000000e+00 -0.0000000000e+00 -1.6440770688e+02 1.6440770688e+02 0.0000000000e+00 0.0000e+00 1.0000e+00
      -13  1    1    2    0    0 -4.7182398686e+02 +8.8968613878e+01 +1.0310322099e+03 1.1373481027e+03 0.0000000000e+00 0.0000e+00 1.0000e+00
       13  1    1    2    0    0 +4.7182398686e+02 -8.8968613878e+01 +4.0680368929e+02 6.2930321027e+02 0.0000000000e+00 0.0000e+00 -1.0000e+00
<mgrwt>
<rscale>  0 0.10264915E+04</rscale>
<asrwt>0</asrwt>
<pdfrwt beam="1">  1        2 0.24649901E+00 0.10264915E+04</pdfrwt>
<pdfrwt beam="2">  1       -2 0.25293494E-01 0.10264915E+04</pdfrwt>
<totfact> 0.18493216E+02</totfact>
</mgrwt>
<rwgt>
<wgt id='morphing_basis_vector_1'> +2.8702476e-04 </wgt>
<wgt id='morphing_basis_vector_2'> +2.5267672e-04 </wgt>
<wgt id='morphing_basis_vector_3'> +2.7780005e-04 </wgt>
<wgt id='morphing_basis_vector_4'> +1.0588422e-04 </wgt>
<wgt id='morphing_basis_vector_5'> +2.4010703e-04 </wgt>
</rwgt>
</event>
<event>
 4      1 +1.4786900e-06 1.01247800e+03 7.81860800e-03 8.67263800e-02
        2 -1    0    0  501    0 +0.0000000000e+00 +0.0000000000e+00 +1.0759598756e+03 1.0759598756e+03 0.0000000000e+00 0.0000e+00 -1.0000e+00
       -2 -1    0    0    0  501 -0.0000000000e+00 -0.0000000000e+00 -2.3818557484e+02 2.3818557484e+02 0.0000000000e+00 0.0000e+00 1.0000e+00
      -13  1    1    2    0    0 -3.9276399339e+02 -3.1145402643e+02 +3.2700778509e+02 5.9849917008e+02 0.0000000000e+00 0.0000e+00 1.0000e+00
       13  1    1    2    0    0 +3.9276399339e+02 +3.1145402643e+02 +5.1076651570e+02 7.1564628040e+02 0.0000000000e+00 0.0000e+00 -1.0000e+00
<mgrwt>
<rscale>  0 0.10124784E+04</rscale>
<asrwt>0</asrwt>
<pdfrwt beam="1">  1        2 0.16553229E+00 0.10124784E+04</pdfrwt>
<pdfrwt beam="2">  1       -2 0.36643935E-01 0.10124784E+04</pdfrwt>
<totfact> 0.19148670E+02</totfact>
</mgrwt>
<rwgt>
<wgt id='morphing_basis_vector_1'> +2.4918522e-04 </wgt>
<wgt id='morphing_basis_vector_2'> +1.6850932e-04 </wgt>
<wgt id='morphing_basis_vector_3'> +2.4041437e-04 </wgt>
<wgt id='morphing_basis_vector_4'> +1.3658562e-04 </wgt>
<wgt id='morphing_basis_vector_5'> +2.2848375e-04 </wgt>
</rwgt>
</event>
<event>
 4      1 +1.4786900e-06 9.23141200e+02 7.81860800e-03 8.76123300e-02
        2 -1    0    0  501    0 +0.0000000000e+00 +0.0000000000e+00 +7.0489977504e+02 7.0489977504e+02 0.0000000000e+00 0.0000e+00 1.0000e+00
       -2 -1    0    0    0  501 -0.0000000000e+00 -0.0000000000e+00 -3.0223791501e+02 3.0223791501e+02 0.0000000000e+00 0.0000e+00 -1.0000e+00
      -13  1    1    2    0    0 -1.1573727503e+02 -4.4637924325e+02 +2.2309317347e+02 5.1226956740e+02 0.0000000000e+00 0.0000e+00 1.0000e+00
       13  1    1    2    0    0 +1.1573727503e+02 +4.4637924325e+02 +1.7956868656e+02 4.9486812266e+02 0.0000000000e+00 0.0000e+00 -1.0000e+00
<mgrwt>
<rscale>  0 0.92314124E+03</rscale>
<asrwt>0</asrwt>
<pdfrwt beam="1">  1        2 0.10844612E+00 0.92314124E+03</pdfrwt>
<pdfrwt beam="2">  1       -2 0.46498141E-01 0.92314124E+03</pdfrwt>
<totfact> 0.21722235E+02</totfact>
</mgrwt>
<rwgt>
<wgt id='morphing_basis_vector_1'> +1.8097328e-04 </wgt>
<wgt id='morphing_basis_vector_2'> +1.2922191e-04 </wgt>
<wgt id='morphing_basis_vector_3'> +1.6947900e-04 </wgt>
<wgt id='morphing_basis_vector_4'> +8.6395316e-05 </wgt>
<wgt id='morphing_basis_vector_5'> +1.5234311e-04 </wgt>
</rwgt>
</event>
<event>
 4      1 +1.4786900e-06 9.48669700e+02 7.81860800e-03 8.73488300e-02
        2 -1    0    0  501    0 +0.0000000000e+00 +0.0000000000e+00 +2.5092417815e+03 2.5092417815e+03 0.0000000000e+00 0.0000e+00 -1.0000e+00
       -2 -1    0    0    0  501 -0.0000000000e+00 -0.0000000000e+00 -8.9665944224e+01 8.9665944224e+01 0.0000000000e+00 0.0000e+00 1.0000e+00
      -13  1    1    2    0    0 -4.5730599115e+02 +1.1629574985e+02 +1.0772654282e+03 1.1760757942e+03 0.0000000000e+00 0.0000e+00 1.0000e+00
       13  1    1    2    0    0 +4.5730599115e+02 -1.1629574985e+02 +1.3423104091e+03 1.4228319315e+03 0.0000000000e+00 0.0000e+00 -1.0000e+00
<mgrwt>
<rscale>  0 0.94866967E+03</rscale>
<asrwt>0</asrwt>
<pdfrwt beam="1">  1        2 0.38603714E+00 0.94866967E+03</pdfrwt>
<pdfrwt beam="2">  1       -2 0.13794763E-01 0.94866967E+03</pdfrwt>
<totfact> 0.15725132E+02</totfact>
</mgrwt>
<rwgt>
<wgt id='morphing_basis_vector_1'> +1.9667413e-04 </wgt>
<wgt id='morphing_basis_vector_2'> +1.3331234e-04 </wgt>
<wgt id='morphing_basis_vector_3'> +1.8615509e-04 </wgt>
<wgt id='morphing_basis_vector_4'> +1.0215044e-04 </wgt>
<wgt id='morphing_basis_vector_5'> +1.7200900e-04 </wgt>
</rwgt>
</event>
<event>
 4      1 +1.4786900e-06 9.05228000e+02 7.81860800e-03 8.78026100e-02
        2 -1    0    0  501    0 +0.0000000000e+00 +0.0000000000e+00 +2.2619514765e+02 2.2619514765e+02 0.0000000000e+00 0.0000e+00 1.0000e+00
       -2 -1    0    0    0  501 -0.0000000000e+00 -0.0000000000e+00 -9.0567561838e+02 9.0567561838e+02 0.0000000000e+00 0.0000e+00 -1.0000e+00
      -13  1    1    2    0    0 +5.2281461077e+01 -4.2026964150e+02 -5.3940653225e+02 6.8579831567e+02 0.0000000000e+00 0.0000e+00 -1.0000e+00
       13  1    1    2    0    0 -5.2281461077e+01 +4.2026964150e+02 -1.4007393847e+02 4.4607245037e+02 0.0000000000e+00 0.0000e+00 1.0000e+00
<mgrwt>
<rscale>  0 0.90522799E+03</rscale>
<asrwt>0</asrwt>
<pdfrwt beam="1">  1        2 0.34799254E-01 0.90522799E+03</pdfrwt>
<pdfrwt beam="2">  1       -2 0.13933471E+00 0.90522799E+03</pdfrwt>
<totfact> 0.65785807E+01</totfact>
</mgrwt>
<rwgt>
<wgt id='morphing_basis_vector_1'> +1.6321581e-04 </wgt>
<wgt id='morphing_basis_vector_2'> +1.0390540e-04 </wgt>
<wgt id='morphing_basis_vector_3'> +1.5253292e-04 </wgt>
<wgt id='morphing_basis_vector_4'> +8.6879648e-05 </wgt>
<wgt id='morphing_basis_vector_5'> +1.4012599e-04 </wgt>
</rwgt>
</event>
<event>
 4      1 +1.4786900e-06 9.70450400e+02 7.81860800e-03 8.71307800e-02
        2 -1    0    0  501    0 +0.0000000000e+00 +0.0000000000e+00 +9.4643129489e+02 9.4643129489e+02 0.0000000000e+00 0.0000e+00 1.0000e+00
       -2 -1    0    0    0  501 -0.0000000000e+00 -0.0000000000e+00 -2.4876977273e+02 2.4876977273e+02 0.0000000000e+00 0.0000e+00 -1.0000e+00
      -13  1    1    2    0    0 -3.0603838936e+02 +1.6121908193e+02 -7.0259600044e+01 3.5296954478e+02 0.0000000000e+00 0.0000e+00 -1.0000e+00
       13  1    1    2    0    0 +3.0603838936e+02 -1.6121908193e+02 +7.6792112220e+02 8.4223152284e+02 0.0000000000e+00 0.0000e+00 1.0000e+00
<mgrwt>
<rscale>  0 0.97045041E+03</rscale>
<asrwt>0</asrwt>
<pdfrwt beam="1">  1        2 0.14560481E+00 0.97045041E+03</pdfrwt>
<pdfrwt beam="2">  1       -2 0.38272273E-01 0.97045041E+03</pdfrwt>
<totfact> 0.21320269E+02</totfact>
</mgrwt>
<rwgt>
<wgt id='morphing_basis_vector_1'> +2.0891358e-04 </wgt>
<wgt id='morphing_basis_vector_2'> +1.3062391e-04 </wgt>
<wgt id='morphing_basis_vector_3'> +1.9940894e-04 </wgt>
<wgt id='morphing_basis_vector_4'> +1.2005843e-04 </wgt>
<wgt id='morphing_basis_vector_5'> +1.9038481e-04 </wgt>
</rwgt>
</event>
<event>
 4      1 +1.4786900e-06 1.01742700e+03 7.81860800e-03 8.66801200e-02
        2 -1    0    0  501    0 +0.0000000000e+00 +0.0000000000e+00 +4.2948509749e+02 4.2948509749e+02 0.0000000000e+00 0.0000e+00 -1.0000e+00
       -2 -1    0    0    0  501 -0.0000000000e+00 -0.0000000000e+00 -6.0255698066e+02 6.0255698066e+02 0.0000000000e+00 0.0000e+00 1.0000e+00
      -13  1    1    2    0    0 +2.7143384091e+02 +4.0762986476e+02 -2.2617539882e+02 5.3943836318e+02 0.0000000000e+00 0.0000e+00 1.0000e+00
       13  1    1    2    0    0 -2.7143384091e+02 -4.0762986476e+02 +5.3103515656e+01 4.9260371498e+02 0.0000000000e+00 0.0000e+00 -1.0000e+00
<mgrwt>
<rscale>  0 0.10174266E+04</rscale>
<asrwt>0</asrwt>
<pdfrwt beam="1">  1        2 0.66074631E-01 0.10174266E+04</pdfrwt>
<pdfrwt beam="2">  1       -2 0.92701073E-01 0.10174266E+04</pdfrwt>
<totfact> 0.89120793E+01</totfact>
</mgrwt>
<rwgt>
<wgt id='morphing_basis_vector_1'> +2.5157624e-04 </wgt>
<wgt id='morphing_basis_vector_2'> +1.6518322e-04 </wgt>
<wgt id='morphing_basis_vector_3'> +2.4307669e-04 </wgt>
<wgt id='morphing_basis_vector_4'> +1.4284079e-04 </wgt>
<wgt id='morphing_basis_vector_5'> +2.3356228e-04 </wgt>
</rwgt>
</event>
<event>
 4      1 +1.4786900e-06 9.40355900e+02 7.81860800e-03 8.74336800e-02
        2 -1    0    0  501    0 +0.0000000000e+00 +0.0000000000e+00 +8.6990711770e+02 8.6990711770e+02 0.0000000000e+00 0.0000e+00 -1.0000e+00
       -2 -1    0    0    0  501 -0.0000000000e+00 -0.0000000000e+00 -2.5412749741e+02 2.5412749741e+02 0.0000000000e+00 0.0000e+00 1.0000e+00
      -13  1    1    2    0    0 -3.4330904402e+02 +5.7519953673e+01 -6.9912932442e+01 3.5504571945e+02 0.0000000000e+00 0.0000e+00 1.0000e+00
       13  1    1    2    0    0 +3.4330904402e+02 -5.7519953673e+01 +6.8569255274e+02 7.6898889567e+02 0.0000000000e+00 0.0000e+00 -1.0000e+00
<mgrwt>
<rscale>  0 0.94035593E+03</rscale>
<asrwt>0</asrwt>
<pdfrwt beam="1">  1        2 0.13383186E+00 0.94035593E+03</pdfrwt>
<pdfrwt beam="2">  1       -2 0.39096538E-01 0.94035593E+03</pdfrwt>
<totfact> 0.23024936E+02</totfact>
</mgrwt>
<rwgt>
<wgt id='morphing_basis_vector_1'> +1.8616949e-04 </wgt>
<wgt id='morphing_basis_vector_2'> +1.1597020e-04 </wgt>
<wgt id='morphing_basis_vector_3'> +1.7614075e-04 </wgt>
<wgt id='morphing_basis_vector_4'> +1.0460890e-04 </wgt>
<wgt id='morphing_basis_vector_5'> +1.6584616e-04 </wgt>
</rwgt>
</event>
<event>
 4      1 +1.4786900e-06 1.00080500e+03 7.81860800e-03 8.68366300e-02
        2 -1    0    0  501    0 +0.0000000000e+00 +0.0000000000e+00 +8.5066268017e+02 8.5066268017e+02 0.0000000000e+00 0.0000e+00 1.0000e+00
       -2 -1    0    0    0  501 -0.0000000000e+00 -0.0000000000e+00 -2.9436198492e+02 2.9436198492e+02 0.0000000000e+00 0.0000e+00 -1.0000e+00
      -13  1    1    2    0    0 +1.8452995791e+02 -1.9601181994e+02 +7.6075430656e+02 8.0698144581e+02 0.0000000000e+00 0.0000e+00 1.0000e+00
       13  1    1    2    0    0 -1.8452995791e+02 +1.9601181994e+02 -2.0445361132e+02 3.3804321928e+02 0.0000000000e+00 0.0000e+00 -1.0000e+00
<mgrwt>
<rscale>  0 0.10008052E+04</rscale>
<asrwt>0</asrwt>
<pdfrwt beam="1">  1        2 0.13087118E+00 0.10008052E+04</pdfrwt>
<pdfrwt beam="2">  1       -2 0.45286460E-01 0.10008052E+04</pdfrwt>
<totfact> 0.17912404E+02</totfact>
</mgrwt>
<rwgt>
<wgt id='morphing_basis_vector_1'> +3.1407521e-04 </wgt>
<wgt id='morphing_basis_vector_2'> +3.8935429e-04 </wgt>
<wgt id='morphing_basis_vector_3'> +2.9970132e-04 </wgt>
<wgt id='morphing_basis_vector_4'> +1.3468524e-05 </wgt>
<wgt id='morphing_basis_vector_5'> +2.1033500e-04 </wgt>
</rwgt>
</event>
<event>
 4      1 +1.4786900e-06 9.04219100e+02 7.81860800e-03 8.78134600e-02
        2 -1    0    0  501    0 +0.0000000000e+00 +0.0000000000e+00 +4.1347887210e+02 4.1347887210e+02 0.0000000000e+00 0.0000e+00 -1.0000e+00
       -2 -1    0    0    0  501 -0.0000000000e+00 -0.0000000000e+00 -4.9434945957e+02 4.9434945957e+02 0.0000000000e+00 0.0000e+00 1.0000e+00
      -13  1    1    2    0    0 -6.7596721350e+01 -3.3258083732e+02 -3.4033098290e+02 4.8062928335e+02 0.0000000000e+00 0.0000e+00 1.0000e+00
       13  1    1    2    0    0 +6.7596721350e+01 +3.3258083732e+02 +2.5946039543e+02 4.2719904832e+02 0.0000000000e+00 0.0000e+00 -1.0000e+00
<mgrwt>
<rscale>  0 0.90421913E+03</rscale>
<asrwt>0</asrwt>
<pdfrwt beam="1">  1        2 0.63612135E-01 0.90421913E+03</pdfrwt>
<pdfrwt beam="2">  1       -2 0.76053762E-01 0.90421913E+03</pdfrwt>
<totfact> 0.14747251E+02</totfact>
</mgrwt>
<rwgt>
<wgt id='morphing_basis_vector_1'> +1.6140304e-04 </wgt>
<wgt id='morphing_basis_vector_2'> +9.9959177e-05 </wgt>
<wgt id='morphing_basis_vector_3'> +1.5095031e-04 </wgt>
<wgt id='morphing_basis_vector_4'> +8.8101780e-05 </wgt>
<wgt id='morphing_basis_vector_5'> +1.3952352e-04 </wgt>
</rwgt>
</event>
<event>
 4      1 +1.4786900e-06 9.32151800e+02 7.81860800e-03 8.75183200e-02
        2 -1    0    0  501    0 +0.0000000000e+00 +0.0000000000e+00 +1.5673225065e+03 1.5673225065e+03 0.0000000000e+00 0.0000e+00 1.0000e+00
       -2 -1    0    0    0  501 -0.0000000000e+00 -0.0000000000e+00 -1.3859736204e+02 1.3859736204e+02 0.0000000000e+00 0.0000e+00 -1.0000e+00
      -13  1    1    2    0    0 -2.0458099259e+02 +3.2553566659e+02 +2.3224670533e+02 4.4918301937e+02 0.0000000000e+00 0.0000e+00 -1.0000e+00
       13  1    1    2    0    0 +2.0458099259e+02 -3.2553566659e+02 +1.1964784391e+03 1.2567368491e+03 0.0000000000e+00 0.0000e+00 1.0000e+00
<mgrwt>
<rscale>  0 0.93215184E+03</rscale>
<asrwt>0</asrwt>
<pdfrwt beam="1">  1        2 0.24112653E+00 0.93215184E+03</pdfrwt>
<pdfrwt beam="2">  1       -2 0.21322672E-01 0.93215184E+03</pdfrwt>
<totfact> 0.26021953E+02</totfact>
</mgrwt>
<rwgt>
<wgt id='morphing_basis_vector_1'> +1.8057144e-04 </wgt>
<wgt id='morphing_basis_vector_2'> +1.1298313e-04 </wgt>
<wgt id='morphing_basis_vector_3'> +1.7038418e-04 </wgt>
<wgt id='morphing_basis_vector_4'> +1.0028768e-04 </wgt>
<wgt id='morphing_basis_vector_5'> +1.5955650e-04 </wgt>
</rwgt>
</event>
<event>
 4      1 +1.4786900e-06 9.30910000e+02 7.81860800e-03 8.75312100e-02
        2 -1    0    0  501    0 +0.0000000000e+00 +0.0000000000e+00 +1.1095402246e+03 1.1095402246e+03 0.0000000000e+00 0.0000e+00 1.0000e+00
       -2 -1    0    0    0  501 -0.0000000000e+00 -0.0000000000e+00 -1.9525958993e+02 1.9525958993e+02 0.0000000000e+00 0.0000e+00 -1.0000e+00
      -13  1    1    2    0    0 +3.0661365681e+02 -3.1228676892e+02 +2.3501962905e+02 4.9675868047e+02 0.0000000000e+00 0.0000e+00 -1.0000e+00
       13  1    1    2    0    0 -3.0661365681e+02 +3.1228676892e+02 +6.7926100561e+02 8.0804113406e+02 0.0000000000e+00 0.0000e+00 1.0000e+00
<mgrwt>
<rscale>  0 0.93091003E+03</rscale>
<asrwt>0</asrwt>
<pdfrwt beam="1">  1        2 0.17069849E+00 0.93091003E+03</pdfrwt>
<pdfrwt beam="2">  1       -2 0.30039938E-01 0.93091003E+03</pdfrwt>
<totfact> 0.26266143E+02</totfact>
</mgrwt>
<rwgt>
<wgt id='morphing_basis_vector_1'> +1.8082024e-04 </wgt>
<wgt id='morphing_basis_vector_2'> +1.1583196e-04 </wgt>
<wgt id='morphing_basis_vector_3'> +1.7042913e-04 </wgt>
<wgt id='morphing_basis_vector_4'> +9.8057979e-05 </wgt>
<wgt id='morphing_basis_vector_5'> +1.5853227e-04 </wgt>
</rwgt>
</event>
<event>
 4      1 +1.4786900e-06 1.00995800e+03 7.81860800e-03 8.67500500e-02
        2 -1    0    0  501    0 +0.0000000000e+00 +0.0000000000e+00 +7.0127495034e+02 7.0127495034e+02 0.0000000000e+00 0.0000e+00 1.0000e+00
       -2 -1    0    0    0  501 -0.0000000000e+00 -0.0000000000e+00 -3.6362910588e+02 3.6362910588e+02 0.0000000000e+00 0.0000e+00 -1.0000e+00
      -13  1    1    2    0    0 +2.8043640307e+02 -5.7567866934e+01 -2.6979560007e+02 3.9338060614e+02 0.0000000000e+00 0.0000e+00 -1.0000e+00
       13  1    1    2    0    0 -2.8043640307e+02 +5.7567866934e+01 +6.0744144453e+02 6.7152345008e+02 0.0000000000e+00 0.0000e+00 1.0000e+00
<mgrwt>
<rscale>  0 0.10099584E+04</rscale>
<asrwt>0</asrwt>
<pdfrwt beam="1">  1        2 0.10788845E+00 0.10099584E+04</pdfrwt>
<pdfrwt beam="2">  1       -2 0.55942940E-01 0.10099584E+04</pdfrwt>
<totfact> 0.15107824E+02</totfact>
</mgrwt>
<rwgt>
<wgt id='morphing_basis_vector_1'> +2.4184487e-04 </wgt>
<wgt id='morphing_basis_vector_2'> +1.5161777e-04 </wgt>
<wgt id='morphing_basis_vector_3'> +2.3328432e-04 </wgt>
<wgt id='morphing_basis_vector_4'> +1.4298559e-04 </wgt>
<wgt id='morphing_basis_vector_5'> +2.2650215e-04 </wgt>
</rwgt>
</event>
<event>
 4      1 +1.4786900e-06 9.21993000e+02 7.81860800e-03 8.76243900e-02
        2 -1    0    0  501    0 +0.0000000000e+00 +0.0000000000e+00 +9.7994102119e+02 9.7994102119e+02 0.0000000000e+00 0.0000e+00 1.0000e+00
       -2 -1    0    0    0  501 -0.0000000000e+00 -0.0000000000e+00 -2.1686790962e+02 2.1686790962e+02 0.0000000000e+00 0.0000e+00 -1.0000e+00
      -13  1    1    2    0    0 +1.8423672366e+02 -2.0550896932e+02 +8.6083927893e+02 9.0400297067e+02 0.0000000000e+00 0.0000e+00 1.0000e+00
       13  1    1    2    0    0 -1.8423672366e+02 +2.0550896932e+02 -9.7766167359e+01 2.9280596014e+02 0.0000000000e+00 0.0000e+00 -1.0000e+00
<mgrwt>
<rscale>  0 0.92199297E+03</rscale>
<asrwt>0</asrwt>
<pdfrwt beam="1">  1        2 0.15076015E+00 0.92199297E+03</pdfrwt>
<pdfrwt beam="2">  1       -2 0.33364294E-01 0.92199297E+03</pdfrwt>
<totfact> 0.26151298E+02</totfact>
</mgrwt>
<rwgt>
<wgt id='morphing_basis_vector_1'> +2.2983167e-04 </wgt>
<wgt id='morphing_basis_vector_2'> +2.7964083e-04 </wgt>
<wgt id='morphing_basis_vector_3'> +2.0937463e-04 </wgt>
<wgt id='morphing_basis_vector_4'> +1.3803605e-05 </wgt>
<wgt id='morphing_basis_vector_5'> +1.4757694e-04 </wgt>
</rwgt>
</event>
<event>
 4      1 +1.4786900e-06 1.02893800e+03 7.81860800e-03 8.65735300e-02
        2 -1    0    0  501    0 +0.0000000000e+00 +0.0000000000e+00 +5.3221216736e+02 5.3221216736e+02 0.0000000000e+00 0.0000e+00 -1.0000e+00
       -2 -1    0    0    0  501 -0.0000000000e+00 -0.0000000000e+00 -4.9731743025e+02 4.9731743025e+02 0.0000000000e+00 0.0000e+00 1.0000e+00
      -13  1    1    2    0    0 +1.7821812823e+02 -8.2950640345e+01 -4.5825825974e+02 4.9864129650e+02 0.0000000000e+00 0.0000e+00 1.0000e+00
       13  1    1    2    0    0 -1.7821812823e+02 +8.2950640345e+01 +4.9315299684e+02 5.3088830111e+02 0.0000000000e+00 0.0000e+00 -1.0000e+00
<mgrwt>
<rscale>  0 0.10289381E+04</rscale>
<asrwt>0</asrwt>
<pdfrwt beam="1">  1        2 0.81878795E-01 0.10289381E+04</pdfrwt>
<pdfrwt beam="2">  1       -2 0.76510374E-01 0.10289381E+04</pdfrwt>
<totfact> 0.10832298E+02</totfact>
</mgrwt>
<rwgt>
<wgt id='morphing_basis_vector_1'> +2.5904016e-04 </wgt>
<wgt id='morphing_basis_vector_2'> +1.6263892e-04 </wgt>
<wgt id='morphing_basis_vector_3'> +2.5103750e-04 </wgt>
<wgt id='morphing_basis_vector_4'> +1.5504423e-04 </wgt>
<wgt id='morphing_basis_vector_5'> +2.4552307e-04 </wgt>
</rwgt>
</event>
<event>
 4      1 +1.4786900e-06 1.00242800e+03 7.81860800e-03 8.68212100e-02
        2 -1    0    0  501    0 +0.0000000000e+00 +0.0000000000e+00 +4.9472055766e+02 4.9472055766e+02 0.0000000000e+00 0.0000e+00 1.0000e+00
       -2 -1    0    0    0  501 -0.0000000000e+00 -0.0000000000e+00 -5.0779260636e+02 5.0779260636e+02 0.0000000000e+00 0.0000e+00 -1.0000e+00
      -13  1    1    2    0    0 -4.6863111094e+02 -1.7806121589e+01 +1.7034977232e+02 4.9895011878e+02 0.0000000000e+00 0.0000e+00 -1.0000e+00
       13  1    1    2    0    0 +4.6863111094e+02 +1.7806121589e+01 -1.8342182103e+02 5.0356304524e+02 0.0000000000e+00 0.0000e+00 1.0000e+00
<mgrwt>
<rscale>  0 0.10024279E+04</rscale>
<asrwt>0</asrwt>
<pdfrwt beam="1">  1        2 0.76110856E-01 0.10024279E+04</pdfrwt>
<pdfrwt beam="2">  1       -2 0.78121939E-01 0.10024279E+04</pdfrwt>
<totfact> 0.11263682E+02</totfact>
</mgrwt>
<rwgt>
<wgt id='morphing_basis_vector_1'> +2.6281667e-04 </wgt>
<wgt id='morphing_basis_vector_2'> +2.3080418e-04 </wgt>
<wgt id='morphing_basis_vector_3'> +2.5219811e-04 </wgt>
<wgt id='morphing_basis_vector_4'> +9.5778042e-05 </wgt>
<wgt id='morphing_basis_vector_5'> +2.1671780e-04 </wgt>
</rwgt>
</event>
<event>
 4      1 +1.4786900e-06 9.47110700e+02 7.81860800e-03 8.73646800e-02
        2 -1    0    0  501    0 +0.0000000000e+00 +0.0000000000e+00 +1.2692999982e+02 1.2692999982e+02 0.0000000000e+00 0.0000e+00 -1.0000e+00
       -2 -1    0    0    0  501 -0.0000000000e+00 -0.0000000000e+00 -1.7667586965e+03 1.7667586965e+03 0.0000000000e+00 0.0000e+00 1.0000e+00
      -13  1    1    2    0    0 -4.5596816646e+02 -9.0743562099e-01 -1.0755523337e+03 1.1682125726e+03 0.0000000000e+00 0.0000e+00 1.0000e+00
       13  1    1    2    0    0 +4.5596816646e+02 +9.0743562099e-01 -5.6427636303e+02 7.2547612375e+02 0.0000000000e+00 0.0000e+00 -1.0000e+00
<mgrwt>
<rscale>  0 0.94711072E+03</rscale>
<asrwt>0</asrwt>
<pdfrwt beam="1">  1        2 0.19527693E-01 0.94711072E+03</pdfrwt>
<pdfrwt beam="2">  1       -2 0.27180901E+00 0.94711072E+03</pdfrwt>
<totfact> 0.13622724E+01</totfact>
</mgrwt>
<rwgt>
<wgt id='morphing_basis_vector_1'> +1.9322732e-04 </wgt>
<wgt id='morphing_basis_vector_2'> +1.2560443e-04 </wgt>
<wgt id='morphing_basis_vector_3'> +1.8299981e-04 </wgt>
<wgt id='morphing_basis_vector_4'> +1.0478392e-04 </wgt>
<wgt id='morphing_basis_vector_5'> +1.7096277e-04 </wgt>
</rwgt>
</event>
<event>
 4      1 +1.4786900e-06 9.44411000e+02 7.81860800e-03 8.73921800e-02
        2 -1    0    0  501    0 +0.0000000000e+00 +0.0000000000e+00 +1.6169650841e+02 1.6169650841e+02 0.0000000000e+00 0.0000e+00 1.0000e+00
       -2 -1    0    0    0  501 -0.0000000000e+00 -0.0000000000e+00 -1.3789910164e+03 1.3789910164e+03 0.0000000000e+00 0.0000e+00 -1.0000e+00
      -13  1    1    2    0    0 +3.4239259194e+02 +2.8164082787e+02 -3.4346095529e+02 5.6082053345e+02 0.0000000000e+00 0.0000e+00 -1.0000e+00
       13  1    1    2    0    0 -3.4239259194e+02 -2.8164082787e+02 -8.7383355270e+02 9.7986699136e+02 0.0000000000e+00 0.0000e+00 1.0000e+00
<mgrwt>
<rscale>  0 0.94441100E+03</rscale>
<asrwt>0</asrwt>
<pdfrwt beam="1">  1        2 0.24876386E-01 0.94441100E+03</pdfrwt>
<pdfrwt beam="2">  1       -2 0.21215246E+00 0.94441100E+03</pdfrwt>
<totfact> 0.26499961E+01</totfact>
</mgrwt>
<rwgt>
<wgt id='morphing_basis_vector_1'> +2.1039616e-04 </wgt>
<wgt id='morphing_basis_vector_2'> +1.8248018e-04 </wgt>
<wgt id='morphing_basis_vector_3'> +1.9731653e-04 </wgt>
<wgt id='morphing_basis_vector_4'> +7.5097806e-05 </wgt>
<wgt id='morphing_basis_vector_5'> +1.6724162e-04 </wgt>
</rwgt>
</event>
<event>
 4      1 +1.4786900e-06 9.22546300e+02 7.81860800e-03 8.76185800e-02
        2 -1    0    0  501    0 +0.0000000000e+00 +0.0000000000e+00 +1.4115659526e+03 1.4115659526e+03 0.0000000000e+00 0.0000e+00 -1.0000e+00
       -2 -1    0    0    0  501 -0.0000000000e+00 -0.0000000000e+00 -1.5073538390e+02 1.5073538390e+02 0.0000000000e+00 0.0000e+00 1.0000e+00
      -13  1    1    2    0    0 +7.8690291153e+01 +3.4171581902e+02 +1.2290884397e+02 3.7157562732e+02 0.0000000000e+00 0.0000e+00 1.0000e+00
       13  1    1    2    0    0 -7.8690291153e+01 -3.4171581902e+02 +1.1379217247e+03 1.1907257092e+03 0.0000000000e+00 0.0000e+00 -1.0000e+00
<mgrwt>
<rscale>  0 0.92254634E+03</rscale>
<asrwt>0</asrwt>
<pdfrwt beam="1">  1        2 0.21716398E+00 0.92254634E+03</pdfrwt>
<pdfrwt beam="2">  1       -2 0.23190060E-01 0.92254634E+03</pdfrwt>
<totfact> 0.27582511E+02</totfact>
</mgrwt>
<rwgt>
<wgt id='morphing_basis_vector_1'> +1.7365585e-04 </wgt>
<wgt id='morphing_basis_vector_2'> +1.0795495e-04 </wgt>
<wgt id='morphing_basis_vector_3'> +1.6338599e-04 </wgt>
<wgt id='morphing_basis_vector_4'> +9.6164530e-05 </wgt>
<wgt id='morphing_basis_vector_5'> +1.5245758e-04 </wgt>
</rwgt>
</event>
<event>
 4      1 +1.4786900e-06 9.59720300e+02 7.81860800e-03 8.72374500e-02
        2 -1    0    0  501    0 +0.0000000000e+00 +0.0000000000e+00 +1.4387779624e+03 1.4387779624e+03 0.0000000000e+00 0.0000e+00 -1.0000e+00
       -2 -1    0    0    0  501 -0.0000000000e+00 -0.0000000000e+00 -1.6004258377e+02 1.6004258377e+02 0.0000000000e+00 0.0000e+00 1.0000e+00
      -13  1    1    2    0    0 +4.7656505644e+02 +7.8955058645e+00 +7.3195993037e+02 8.7346547253e+02 0.0000000000e+00 0.0000e+00 1.0000e+00
       13  1    1    2    0    0 -4.7656505644e+02 -7.8955058645e+00 +5.4677544824e+02 7.2535507362e+02 0.0000000000e+00 0.0000e+00 -1.0000e+00
<mgrwt>
<rscale>  0 0.95972026E+03</rscale>
<asrwt>0</asrwt>
<pdfrwt beam="1">  1        2 0.22135045E+00 0.95972026E+03</pdfrwt>
<pdfrwt beam="2">  1       -2 0.24621937E-01 0.95972026E+03</pdfrwt>
<totfact> 0.23985698E+02</totfact>
</mgrwt>
<rwgt>
<wgt id='morphing_basis_vector_1'> +2.1106404e-04 </wgt>
<wgt id='morphing_basis_vector_2'> +1.5708070e-04 </wgt>
<wgt id='morphing_basis_vector_3'> +2.0005010e-04 </wgt>
<wgt id='morphing_basis_vector_4'> +9.8641126e-05 </wgt>
<wgt id='morphing_basis_vector_5'> +1.8045290e-04 </wgt>
</rwgt>
</event>
<event>
 4      1 +1.4786900e-06 9.69637700e+02 7.81860800e-03 8.71388000e-02
        2 -1    0    0  501    0 +0.0000000000e+00 +0.0000000000e+00 +6.4531133300e+02 6.4531133300e+02 0.0000000000e+00 0.0000e+00 1.0000e+00
       -2 -1    0    0    0  501 -0.0000000000e+00 -0.0000000000e+00 -3.6424170109e+02 3.6424170109e+02 0.0000000000e+00 0.0000e+00 -1.0000e+00
      -13  1    1    2    0    0 +3.4152784459e+02 +2.4465986903e+02 +3.9246577885e+02 5.7491660936e+02 0.0000000000e+00 0.0000e+00 -1.0000e+00
       13  1    1    2    0    0 -3.4152784459e+02 -2.4465986903e+02 -1.1139614694e+02 4.3463642473e+02 0.0000000000e+00 0.0000e+00 1.0000e+00
<mgrwt>
<rscale>  0 0.96963766E+03</rscale>
<asrwt>0</asrwt>
<pdfrwt beam="1">  1        2 0.99278666E-01 0.96963766E+03</pdfrwt>
<pdfrwt beam="2">  1       -2 0.56037185E-01 0.96963766E+03</pdfrwt>
<totfact> 0.16696515E+02</totfact>
</mgrwt>
<rwgt>
<wgt id='morphing_basis_vector_1'> +2.4548095e-04 </wgt>
<wgt id='morphing_basis_vector_2'> +2.4304540e-04 </wgt>
<wgt id='morphing_basis_vector_3'> +2.3184679e-04 </wgt>
<wgt id='morphing_basis_vector_4'> +6.3409093e-05 </wgt>
<wgt id='morphing_basis_vector_5'> +1.8644145e-04 </wgt>
</rwgt>
</event>
<event>
 4      1 +1.4786900e-06 9.08412800e+02 7.81860800e-03 8.77684400e-02
        2 -1    0    0  501    0 +0.0000000000e+00 +0.0000000000e+00 +2.5485879155e+02 2.5485879155e+02 0.0000000000e+00 0.0000e+00 1.0000e+00
       -2 -1    0    0    0  501 -0.0000000000e+00 -0.0000000000e+00 -8.0948145555e+02 8.0948145555e+02 0.0000000000e+00 0.0000e+00 -1.0000e+00
      -13  1    1    2    0    0 -3.3924760469e+01 +4.3947746733e+02 -4.0572382378e+02 5.9908526509e+02 0.0000000000e+00 0.0000e+00 -1.0000e+00
       13  1    1    2    0    0 +3.3924760469e+01 -4.3947746733e+02 -1.4889884021e+02 4.6525498201e+02 0.0000000000e+00 0.0000e+00 1.0000e+00
<mgrwt>
<rscale>  0 0.90841283E+03</rscale>
<asrwt>0</asrwt>
<pdfrwt beam="1">  1        2 0.39209045E-01 0.90841283E+03</pdfrwt>
<pdfrwt beam="2">  1       -2 0.12453561E+00 0.90841283E+03</pdfrwt>
<totfact> 0.77663459E+01</totfact>
</mgrwt>
<rwgt>
<wgt id='morphing_basis_vector_1'> +1.6618903e-04 </wgt>
<wgt id='morphing_basis_vector_2'> +1.0796371e-04 </wgt>
<wgt id='morphing_basis_vector_3'> +1.5536187e-04 </wgt>
<wgt id='morphing_basis_vector_4'> +8.6971942e-05 </wgt>
<wgt id='morphing_basis_vector_5'> +1.4225324e-04 </wgt>
</rwgt>
</event>
<event>
 4      1 +1.4786900e-06 9.32262600e+02 7.81860800e-03 8.75171700e-02
        2 -1    0    0  501    0 +0.0000000000e+00 +0.0000000000e+00 +1.2400599289e+03 1.2400599289e+03 0.0000000000e+00 0.0000e+00 1.0000e+00
       -2 -1    0    0    0  501 -0.0000000000e+00 -0.0000000000e+00 -1.7521602724e+02 1.7521602724e+02 0.0000000000e+00 0.0000e+00 -1.0000e+00
      -13  1    1    2    0    0 -4.9459954276e+00 -4.0706975795e+02 +1.8774732576e+02 4.4830715925e+02 0.0000000000e+00 0.0000e+00 -1.0000e+00
       13  1    1    2    0    0 +4.9459954276e+00 +4.0706975795e+02 +8.7709657591e+02 9.6696879690e+02 0.0000000000e+00 0.0000e+00 1.0000e+00
<mgrwt>
<rscale>  0 0.93226257E+03</rscale>
<asrwt>0</asrwt>
<pdfrwt beam="1">  1        2 0.19077845E+00 0.93226257E+03</pdfrwt>
<pdfrwt beam="2">  1       -2 0.26956313E-01 0.93226257E+03</pdfrwt>
<totfact> 0.26629796E+02</totfact>
</mgrwt>
<rwgt>
<wgt id='morphing_basis_vector_1'> +1.8094059e-04 </wgt>
<wgt id='morphing_basis_vector_2'> +1.1391778e-04 </wgt>
<wgt id='morphing_basis_vector_3'> +1.7070704e-04 </wgt>
<wgt id='morphing_basis_vector_4'> +9.9913662e-05 </wgt>
<wgt id='morphing_basis_vector_5'> +1.5961636e-04 </wgt>
</rwgt>
</event>
<event>
 4      1 +1.4786900e-06 9.95626800e+02 7.81860800e-03 8.68860300e-02
        2 -1    0    0  501    0 +0.0000000000e+00 +0.0000000000e+00 +1.1284829500e+03 1.1284829500e+03 0.0000000000e+00 0.0000e+00 -1.0000e+00
       -2 -1    0    0    0  501 -0.0000000000e+00 -0.0000000000e+00 -2.1960295223e+02 2.1960295223e+02 0.0000000000e+00 0.0000e+00 1.0000e+00
      -13  1    1    2    0    0 -4.0567481881e+02 -2.0276596698e+02 +1.7651507716e+02 4.8666586941e+02 0.0000000000e+00 0.0000e+00 1.0000e+00
       13  1    1    2    0    0 +4.0567481881e+02 +2.0276596698e+02 +7.3236492058e+02 8.6142003278e+02 0.0000000000e+00 0.0000e+00 -1.0000e+00
<mgrwt>
<rscale>  0 0.99562681E+03</rscale>
<asrwt>0</asrwt>
<pdfrwt beam="1">  1        2 0.17361276E+00 0.99562681E+03</pdfrwt>
<pdfrwt beam="2">  1       -2 0.33785070E-01 0.99562681E+03</pdfrwt>
<totfact> 0.20667269E+02</totfact>
</mgrwt>
<rwgt>
<wgt id='morphing_basis_vector_1'> +2.3085808e-04 </wgt>
<wgt id='morphing_basis_vector_2'> +1.4793393e-04 </wgt>
<wgt id='morphing_basis_vector_3'> +2.2181613e-04 </wgt>
<wgt id='morphing_basis_vector_4'> +1.3218642e-04 </wgt>
<wgt id='morphing_basis_vector_5'> +2.1274241e-04 </wgt>
</rwgt>
</event>
<event>
 4      1 +1.4786900e-06 9.03267400e+02 7.81860800e-03 8.78237200e-02
        2 -1    0    0  501    0 +0.0000000000e+00 +0.0000000000e+00 +8.7907188098e+02 8.7907188098e+02 0.0000000000e+00 0.0000e+00 -1.0000e+00
       -2 -1    0    0    0  501 -0.0000000000e+00 -0.0000000000e+00 -2.3203220412e+02 2.3203220412e+02 0.0000000000e+00 0.0000e+00 1.0000e+00
      -13  1    1    2    0    0 -3.8855393627e+02 -7.0506374109e+01 +5.9309768980e+02 7.1253784449e+02 0.0000000000e+00 0.0000e+00 1.0000e+00
       13  1    1    2    0    0 +3.8855393627e+02 +7.0506374109e+01 +5.3941987055e+01 3.9856624061e+02 0.0000000000e+00 0.0000e+00 -1.0000e+00
<mgrwt>
<rscale>  0 0.90326737E+03</rscale>
<asrwt>0</asrwt>
<pdfrwt beam="1">  1        2 0.13524183E+00 0.90326737E+03</pdfrwt>
<pdfrwt beam="2">  1       -2 0.35697263E-01 0.90326737E+03</pdfrwt>
<totfact> 0.26896197E+02</totfact>
</mgrwt>
<rwgt>
<wgt id='morphing_basis_vector_1'> +1.8826415e-04 </wgt>
<wgt id='morphing_basis_vector_2'> +1.8317996e-04 </wgt>
<wgt id='morphing_basis_vector_3'> +1.7203979e-04 </wgt>
<wgt id='morphing_basis_vector_4'> +4.8495554e-05 </wgt>
<wgt id='morphing_basis_vector_5'> +1.3679331e-04 </wgt>
</rwgt>
</event>
<event>
 4      1 +1.4786900e-06 1.03006000e+03 7.81860800e-03 8.65632200e-02
        2 -1    0    0  501    0 +0.0000000000e+00 +0.0000000000e+00 +1.3427837818e+03 1.3427837818e+03 0.0000000000e+00 0.0000e+00 1.0000e+00
       -2 -1    0    0    0  501 -0.0000000000e+00 -0.0000000000e+00 -1.9754186729e+02 1.9754186729e+02 0.0000000000e+00 0.0000e+00 -1.0000e+00
      -13  1    1    2    0    0 -5.8634444641e+01 -3.4733987136e+02 +1.0763951174e+01 3.5241856787e+02 0.0000000000e+00 0.0000e+00 -1.0000e+00
       13  1    1    2    0    0 +5.8634444641e+01 +3.4733987136e+02 +1.1344779634e+03 1.1879070813e+03 0.0000000000e+00 0.0000e+00 1.0000e+00
<mgrwt>
<rscale>  0 0.10300602E+04</rscale>
<asrwt>0</asrwt>
<pdfrwt beam="1">  1        2 0.20658211E+00 0.10300602E+04</pdfrwt>
<pdfrwt beam="2">  1       -2 0.30391057E-01 0.10300602E+04</pdfrwt>
<totfact> 0.18728662E+02</totfact>
</mgrwt>
<rwgt>
<wgt id='morphing_basis_vector_1'> +2.6032583e-04 </wgt>
<wgt id='morphing_basis_vector_2'> +1.6403599e-04 </wgt>
<wgt id='morphing_basis_vector_3'> +2.5235033e-04 </wgt>
<wgt id='morphing_basis_vector_4'> +1.5540106e-04 </wgt>
<wgt id='morphing_basis_vector_5'> +2.4665986e-04 </wgt>
</rwgt>
</event>
<event>
 4      1 +1.4786900e-06 9.12801100e+02 7.81860800e-03 8.77216100e-02
        2 -1    0    0  501    0 +0.0000000000e+00 +0.0000000000e+00 +8.3809566198e+02 8.3809566198e+02 0.0000000000e+00 0.0000e+00 -1.0000e+00
       -2 -1    0    0    0  501 -0.0000000000e+00 -0.0000000000e+00 -2.4854140692e+02 2.4854140692e+02 0.0000000000e+00 0.0000e+00 1.0000e+00
      -13  1    1    2    0    0 +2.7056793456e+02 -1.5860243796e+02 -9.9939743745e+01 3.2916514536e+02 0.0000000000e+00 0.0000e+00 1.0000e+00
       13  1    1    2    0    0 -2.7056793456e+02 +1.5860243796e+02 +6.8949399881e+02 7.5747192354e+02 0.0000000000e+00 0.0000e+00 -1.0000e+00
<mgrwt>
<rscale>  0 0.91280113E+03</rscale>
<asrwt>0</asrwt>
<pdfrwt beam="1">  1        2 0.12893779E+00 0.91280113E+03</pdfrwt>
<pdfrwt beam="2">  1       -2 0.38237140E-01 0.91280113E+03</pdfrwt>
<totfact> 0.25240552E+02</totfact>
</mgrwt>
<rwgt>
<wgt id='morphing_basis_vector_1'> +1.6693535e-04 </wgt>
<wgt id='morphing_basis_vector_2'> +1.0328306e-04 </wgt>
<wgt id='morphing_basis_vector_3'> +1.5658472e-04 </wgt>
<wgt id='morphing_basis_vector_4'> +9.1984177e-05 </wgt>
<wgt id='morphing_basis_vector_5'> +1.4548570e-04 </wgt>
</rwgt>
</event>
<event>
 4      1 +1.4786900e-06 9.13811200e+02 7.81860800e-03 8.77108700e-02
        2 -1    0    0  501    0 +0.0000000000e+00 +0.0000000000e+00 +2.6051696029e+03 2.6051696029e+03 0.0000000000e+00 0.0000e+00 -1.0000e+00
       -2 -1    0    0    0  501 -0.0000000000e+00 -0.0000000000e+00 -8.0134031996e+01 8.0134031996e+01 0.0000000000e+00 0.0000e+00 1.0000e+00
      -13  1    1    2    0    0 +7.0761132207e+01 +4.2151642598e+02 +7.8796272195e+02 8.9641981592e+02 0.0000000000e+00 0.0000e+00 1.0000e+00
       13  1    1    2    0    0 -7.0761132207e+01 -4.2151642598e+02 +1.7370728490e+03 1.7888838190e+03 0.0000000000e+00 0.0000e+00 -1.0000e+00
<mgrwt>
<rscale>  0 0.91381124E+03</rscale>
<asrwt>0</asrwt>
<pdfrwt beam="1">  1        2 0.40079526E+00 0.91381124E+03</pdfrwt>
<pdfrwt beam="2">  1       -2 0.12328315E-01 0.91381124E+03</pdfrwt>
<totfact> 0.16578232E+02</totfact>
</mgrwt>
<rwgt>
<wgt id='morphing_basis_vector_1'> +1.6891222e-04 </wgt>
<wgt id='morphing_basis_vector_2'> +1.0768286e-04 </wgt>
<wgt id='morphing_basis_vector_3'> +1.5832043e-04 </wgt>
<wgt id='morphing_basis_vector_4'> +9.0552739e-05 </wgt>
<wgt id='morphing_basis_vector_5'> +1.4609718e-04 </wgt>
</rwgt>
</event>
<event>
 4      1 +1.4786900e-06 1.04852500e+03 7.81860800e-03 8.63954500e-02
        2 -1    0    0  501    0 +0.0000000000e+00 +0.0000000000e+00 +8.0986865151e+02 8.0986865151e+02 0.0000000000e+00 0.0000e+00 -1.0000e+00
       -2 -1    0    0    0  501 -0.0000000000e+00 -0.0000000000e+00 -3.3937763075e+02 3.3937763075e+02 0.0000000000e+00 0.0000e+00 1.0000e+00
      -13  1    1    2    0    0 -3.4739193466e+01 -3.1344489106e+02 -2.2378868045e+02 3.8669870027e+02 0.0000000000e+00 0.0000e+00 1.0000e+00
       13  1    1    2    0    0 +3.4739193466e+01 +3.1344489106e+02 +6.9427970121e+02 7.6254758199e+02 0.0000000000e+00 0.0000e+00 -1.0000e+00
<mgrwt>
<rscale>  0 0.10485253E+04</rscale>
<asrwt>0</asrwt>
<pdfrwt beam="1">  1        2 0.12459518E+00 0.10485253E+04</pdfrwt>
<pdfrwt beam="2">  1       -2 0.52211944E-01 0.10485253E+04</pdfrwt>
<totfact> 0.14432946E+02</totfact>
</mgrwt>
<rwgt>
<wgt id='morphing_basis_vector_1'> +2.7796307e-04 </wgt>
<wgt id='morphing_basis_vector_2'> +1.7526781e-04 </wgt>
<wgt id='morphing_basis_vector_3'> +2.7061063e-04 </wgt>
<wgt id='morphing_basis_vector_4'> +1.6792827e-04 </wgt>
<wgt id='morphing_basis_vector_5'> +2.6633129e-04 </wgt>
</rwgt>
</event>
<event>
 4      1 +1.4786900e-06 1.04014800e+03 7.81860800e-03 8.64711200e-02
        2 -1    0    0  501    0 +0.0000000000e+00 +0.0000000000e+00 +2.3975927294e+02 2.3975927294e+02 0.0000000000e+00 0.0000e+00 -1.0000e+00
       -2 -1    0    0    0  501 -0.0000000000e+00 -0.0000000000e+00 -1.1281186717e+03 1.1281186717e+03 0.0000000000e+00 0.0000e+00 1.0000e+00
      -13  1    1    2    0    0 +3.0006279147e+01 +4.5395152324e+02 -7.7558135495e+02 8.9916561344e+02 0.0000000000e+00 0.0000e+00 1.0000e+00
       13  1    1    2    0    0 -3.0006279147e+01 -4.5395152324e+02 -1.1277804379e+02 4.6871233118e+02 0.0000000000e+00 0.0000e+00 -1.0000e+00
<mgrwt>
<rscale>  0 0.10401479E+04</rscale>
<asrwt>0</asrwt>
<pdfrwt beam="1">  1        2 0.36886042E-01 0.10401479E+04</pdfrwt>
<pdfrwt beam="2">  1       -2 0.17355672E+00 0.10401479E+04</pdfrwt>
<totfact> 0.32167534E+01</totfact>
</mgrwt>
<rwgt>
<wgt id='morphing_basis_vector_1'> +2.7093428e-04 </wgt>
<wgt id='morphing_basis_vector_2'> +1.7337559e-04 </wgt>
<wgt id='morphing_basis_vector_3'> +2.6326681e-04 </wgt>
<wgt id='morphing_basis_vector_4'> +1.6043824e-04 </wgt>
<wgt id='morphing_basis_vector_5'> +2.5716367e-04 </wgt>
</rwgt>
</event>
<event>
 4      1 +1.4786900e-06 9.25363800e+02 7.81860800e-03 8.75890400e-02
        2 -1    0    0  501    0 +0.0000000000e+00 +0.0000000000e+00 +4.5858881902e+02 4.5858881902e+02 0.0000000000e+00 0.0000e+00 1.0000e+00
       -2 -1    0    0    0  501 -0.0000000000e+00 -0.0000000000e+00 -4.6681155004e+02 4.6681155004e+02 0.0000000000e+00 0.0000e+00 -1.0000e+00
      -13  1    1    2    0    0 -5.1166380890e+00 -1.2671916641e+02 +4.4086758192e+02 4.5874628272e+02 0.0000000000e+00 0.0000e+00 1.0000e+00
       13  1    1    2    0    0 +5.1166380890e+00 +1.2671916641e+02 -4.4909031294e+02 4.6665408634e+02 0.0000000000e+00 0.0000e+00 -1.0000e+00
<mgrwt>
<rscale>  0 0.92536384E+03</rscale>
<asrwt>0</asrwt>
<pdfrwt beam="1">  1        2 0.70552126E-01 0.92536384E+03</pdfrwt>
<pdfrwt beam="2">  1       -2 0.71817162E-01 0.92536384E+03</pdfrwt>
<totfact> 0.14849312E+02</totfact>
</mgrwt>
<rwgt>
<wgt id='morphing_basis_vector_1'> +2.3922884e-04 </wgt>
<wgt id='morphing_basis_vector_2'> +3.0262236e-04 </wgt>
<wgt id='morphing_basis_vector_3'> +2.1786896e-04 </wgt>
<wgt id='morphing_basis_vector_4'> +4.7935806e-06 </wgt>
<wgt id='morphing_basis_vector_5'> +1.4944436e-04 </wgt>
</rwgt>
</event>
<event>
 4      1 +1.4786900e-06 9.69397700e+02 7.81860800e-03 8.71411800e-02
        2 -1    0    0  501    0 +0.0000000000e+00 +0.0000000000e+00 +6.7573018392e+02 6.7573018392e+02 0.0000000000e+00 0.0000e+00 -1.0000e+00
       -2 -1    0    0    0  501 -0.0000000000e+00 -0.0000000000e+00 -3.4767275851e+02 3.4767275851e+02 0.0000000000e+00 0.0000e+00 1.0000e+00
      -13  1    1    2    0    0 +1.8165520748e+02 -1.2354291335e+02 -2.9209609814e+02 3.6548816177e+02 0.0000000000e+00 0.0000e+00 1.0000e+00
       13  1    1    2    0    0 -1.8165520748e+02 +1.2354291335e+02 +6.2015352356e+02 6.5791478067e+02 0.0000000000e+00 0.0000e+00 -1.0000e+00
<mgrwt>
<rscale>  0 0.96939770E+03</rscale>
<asrwt>0</asrwt>
<pdfrwt beam="1">  1        2 0.10395849E+00 0.96939770E+03</pdfrwt>
<pdfrwt beam="2">  1       -2 0.53488117E-01 0.96939770E+03</pdfrwt>
<totfact> 0.17339029E+02</totfact>
</mgrwt>
<rwgt>
<wgt id='morphing_basis_vector_1'> +2.0785600e-04 </wgt>
<wgt id='morphing_basis_vector_2'> +1.2939864e-04 </wgt>
<wgt id='morphing_basis_vector_3'> +1.9835558e-04 </wgt>
<wgt id='morphing_basis_vector_4'> +1.1983501e-04 </wgt>
<wgt id='morphing_basis_vector_5'> +1.8950426e-04 </wgt>
</rwgt>
</event>
<event>
 4      1 +1.4786900e-06 9.84885800e+02 7.81860800e-03 8.69895200e-02
        2 -1    0    0  501    0 +0.0000000000e+00 +0.0000000000e+00 +3.8354937981e+02 3.8354937981e+02 0.0000000000e+00 0.0000e+00 -1.0000e+00
       -2 -1    0    0    0  501 -0.0000000000e+00 -0.0000000000e+00 -6.3225239371e+02 6.3225239371e+02 0.0000000000e+00 0.0000e+00 1.0000e+00
      -13  1    1    2    0    0 -1.2968680504e+02 -3.0592880696e+02 -4.9920043016e+02 5.9967672274e+02 0.0000000000e+00 0.0000e+00 1.0000e+00
       13  1    1    2    0    0 +1.2968680504e+02 +3.0592880696e+02 +2.5049741627e+02 4.1612505078e+02 0.0000000000e+00 0.0000e+00 -1.0000e+00
<mgrwt>
<rscale>  0 0.98488581E+03</rscale>
<asrwt>0</asrwt>
<pdfrwt beam="1">  1        2 0.59007597E-01 0.98488581E+03</pdfrwt>
<pdfrwt beam="2">  1       -2 0.97269598E-01 0.98488581E+03</pdfrwt>
<totfact> 0.90583453E+01</totfact>
</mgrwt>
<rwgt>
<wgt id='morphing_basis_vector_1'> +2.2051618e-04 </wgt>
<wgt id='morphing_basis_vector_2'> +1.3801588e-04 </wgt>
<wgt id='morphing_basis_vector_3'> +2.1132352e-04 </wgt>
<wgt id='morphing_basis_vector_4'> +1.2809615e-04 </wgt>
<wgt id='morphing_basis_vector_5'> +2.0305256e-04 </wgt>
</rwgt>
</event>
<event>
 4      1 +1.4786900e-06 9.89169200e+02 7.81860800e-03 8.69480800e-02
        2 -1    0    0  501    0 +0.0000000000e+00 +0.0000000000e+00 +3.9578343706e+02 3.9578343706e+02 0.0000000000e+00 0.0000e+00 1.0000e+00
       -2 -1    0    0    0  501 -0.0000000000e+00 -0.0000000000e+00 -6.1804998465e+02 6.1804998465e+02 0.0000000000e+00 0.0000e+00 -1.0000e+00
      -13  1    1    2    0    0 -2.6064827541e+02 -2.2489544775e+02 -4.7509095886e+02 5.8670853503e+02 0.0000000000e+00 0.0000e+00 -1.0000e+00
       13  1    1    2    0    0 +2.6064827541e+02 +2.2489544775e+02 +2.5282441126e+02 4.2712488668e+02 0.0000000000e+00 0.0000e+00 1.0000e+00
<mgrwt>
<rscale>  0 0.98916924E+03</rscale>
<asrwt>0</asrwt>
<pdfrwt beam="1">  1        2 0.60889760E-01 0.98916924E+03</pdfrwt>
<pdfrwt beam="2">  1       -2 0.95084612E-01 0.98916924E+03</pdfrwt>
<totfact> 0.92240718E+01</totfact>
</mgrwt>
<rwgt>
<wgt id='morphing_basis_vector_1'> +2.2411096e-04 </wgt>
<wgt id='morphing_basis_vector_2'> +1.4044593e-04 </wgt>
<wgt id='morphing_basis_vector_3'> +2.1501315e-04 </wgt>
<wgt id='morphing_basis_vector_4'> +1.3046638e-04 </wgt>
<wgt id='morphing_basis_vector_5'> +2.0692169e-04 </wgt>
</rwgt>
</event>
<event>
 4      1 +1.4786900e-06 9.64518100e+02 7.81860800e-03 8.71895700e-02
        2 -1    0    0  501    0 +0.0000000000e+00 +0.0000000000e+00 +1.3390128629e+03 1.3390128629e+03 0.0000000000e+00 0.0000e+00 -1.0000e+00
       -2 -1    0    0    0  501 -0.0000000000e+00 -0.0000000000e+00 -1.7369049185e+02 1.7369049185e+02 0.0000000000e+00 0.0000e+00 1.0000e+00
      -13  1    1    2    0    0 -2.9774461743e+02 +3.1654667824e+02 +2.5472889731e+02 5.0372658043e+02 0.0000000000e+00 0.0000e+00 1.0000e+00
       13  1    1    2    0    0 +2.9774461743e+02 -3.1654667824e+02 +9.1059347378e+02 1.0089767744e+03 0.0000000000e+00 0.0000e+00 -1.0000e+00
<mgrwt>
<rscale>  0 0.96451812E+03</rscale>
<asrwt>0</asrwt>
<pdfrwt beam="1">  1        2 0.20600197E+00 0.96451812E+03</pdfrwt>
<pdfrwt beam="2">  1       -2 0.26721615E-01 0.96451812E+03</pdfrwt>
<totfact> 0.23691158E+02</totfact>
</mgrwt>
<rwgt>
<wgt id='morphing_basis_vector_1'> +2.0524748e-04 </wgt>
<wgt id='morphing_basis_vector_2'> +1.3059684e-04 </wgt>
<wgt id='morphing_basis_vector_3'> +1.9551197e-04 </wgt>
<wgt id='morphing_basis_vector_4'> +1.1541630e-04 </wgt>
<wgt id='morphing_basis_vector_5'> +1.8526670e-04 </wgt>
</rwgt>
</event>
<event>
 4      1 +1.4786900e-06 9.09502400e+02 7.81860800e-03 8.77567900e-02
        2 -1    0    0  501    0 +0.0000000000e+00 +0.0000000000e+00 +4.7558603603e+02 4.7558603603e+02 0.0000000000e+00 0.0000e+00 -1.0000e+00
       -2 -1    0    0    0  501 -0.0000000000e+00 -0.0000000000e+00 -4.3482914227e+02 4.3482914227e+02 0.0000000000e+00 0.0000e+00 1.0000e+00
      -13  1    1    2    0    0 -3.8377305761e+02 +1.5480483155e+02 -1.6836414692e+02 4.4675807949e+02 0.0000000000e+00 0.0000e+00 1.0000e+00
       13  1    1    2    0    0 +3.8377305761e+02 -1.5480483155e+02 +2.0912104069e+02 4.6365709881e+02 0.0000000000e+00 0.0000e+00 -1.0000e+00
<mgrwt>
<rscale>  0 0.90950243E+03</rscale>
<asrwt>0</asrwt>
<pdfrwt beam="1">  1        2 0.73167082E-01 0.90950243E+03</pdfrwt>
<pdfrwt beam="2">  1       -2 0.66896791E-01 0.90950243E+03</pdfrwt>
<totfact> 0.16594918E+02</totfact>
</mgrwt>
<rwgt>
<wgt id='morphing_basis_vector_1'> +1.6567787e-04 </wgt>
<wgt id='morphing_basis_vector_2'> +1.0469116e-04 </wgt>
<wgt id='morphing_basis_vector_3'> +1.5510992e-04 </wgt>
<wgt id='morphing_basis_vector_4'> +8.9205566e-05 </wgt>
<wgt id='morphing_basis_vector_5'> +1.4310437e-04 </wgt>
</rwgt>
</event>
<event>
 4      1 +1.4786900e-06 1.04405600e+03 7.81860800e-03 8.64357300e-02
        2 -1    0    0  501    0 +0.0000000000e+00 +0.0000000000e+00 +2.6371165028e+03 2.6371165028e+03 0.0000000000e+00 0.0000e+00 1.0000e+00
       -2 -1    0    0    0  501 -0.0000000000e+00 -0.0000000000e+00 -1.0333762445e+02 1.0333762445e+02 0.0000000000e+00 0.0000e+00 -1.0000e+00
      -13  1    1    2    0    0 +8.3299565182e+01 +4.3717084125e+02 +5.5066512747e+02 7.0801782789e+02 0.0000000000e+00 0.0000e+00 -1.0000e+00
       13  1    1    2    0    0 -8.3299565182e+01 -4.3717084125e+02 +1.9831137509e+03 2.0324362993e+03 0.0000000000e+00 0.0000e+00 1.0000e+00
<mgrwt>
<rscale>  0 0.10440562E+04</rscale>
<asrwt>0</asrwt>
<pdfrwt beam="1">  1        2 0.40571018E+00 0.10440562E+04</pdfrwt>
<pdfrwt beam="2">  1       -2 0.15898098E-01 0.10440562E+04</pdfrwt>
<totfact> 0.10390068E+02</totfact>
</mgrwt>
<rwgt>
<wgt id='morphing_basis_vector_1'> +2.7450193e-04 </wgt>
<wgt id='morphing_basis_vector_2'> +1.7518456e-04 </wgt>
<wgt id='morphing_basis_vector_3'> +2.6697679e-04 </wgt>
<wgt id='morphing_basis_vector_4'> +1.6341681e-04 </wgt>
<wgt id='morphing_basis_vector_5'> +2.6138118e-04 </wgt>
</rwgt>
</event>
<event>
 4      1 +1.4786900e-06 9.49136200e+02 7.81860800e-03 8.73441000e-02
        2 -1    0    0  501    0 +0.0000000000e+00 +0.0000000000e+00 +1.8444656435e+02 1.8444656435e+02 0.0000000000e+00 0.0000e+00 1.0000e+00
       -2 -1    0    0    0  501 -0.0000000000e+00 -0.0000000000e+00 -1.2210303928e+03 1.2210303928e+03 0.0000000000e+00 0.0000e+00 -1.0000e+00
      -13  1    1    2    0    0 -2.8518606526e+02 -1.8286458833e+02 -1.0104072372e+03 1.0656891360e+03 0.0000000000e+00 0.0000e+00 -1.0000e+00
       13  1    1    2    0    0 +2.8518606526e+02 +1.8286458833e+02 -2.6176591204e+01 3.3978782117e+02 0.0000000000e+00 0.0000e+00 1.0000e+00
<mgrwt>
<rscale>  0 0.94913616E+03</rscale>
<asrwt>0</asrwt>
<pdfrwt beam="1">  1        2 0.28376395E-01 0.94913616E+03</pdfrwt>
<pdfrwt beam="2">  1       -2 0.18785083E+00 0.94913616E+03</pdfrwt>
<totfact> 0.34141799E+01</totfact>
</mgrwt>
<rwgt>
<wgt id='morphing_basis_vector_1'> +1.9255853e-04 </wgt>
<wgt id='morphing_basis_vector_2'> +1.1999145e-04 </wgt>
<wgt id='morphing_basis_vector_3'> +1.8267199e-04 </wgt>
<wgt id='morphing_basis_vector_4'> +1.0901284e-04 </wgt>
<wgt id='morphing_basis_vector_5'> +1.7275505e-04 </wgt>
</rwgt>
</event>
<event>
 4      1 +1.4786900e-06 9.23801400e+02 7.81860800e-03 8.76054100e-02
        2 -1    0    0  501    0 +0.0000000000e+00 +0.0000000000e+00 +1.0121801741e+03 1.0121801741e+03 0.0000000000e+00 0.0000e+00 1.0000e+00
       -2 -1    0    0    0  501 -0.0000000000e+00 -0.0000000000e+00 -2.1078483975e+02 2.1078483975e+02 0.0000000000e+00 0.0000e+00 -1.0000e+00
      -13  1    1    2    0    0 -3.5084550159e+02 -1.4916050190e+02 +5.5455029341e+01 3.8524885670e+02 0.0000000000e+00 0.0000e+00 -1.0000e+00
       13  1    1    2    0    0 +3.5084550159e+02 +1.4916050190e+02 +7.4594030501e+02 8.3771615715e+02 0.0000000000e+00 0.0000e+00 1.0000e+00
<mgrwt>
<rscale>  0 0.92380135E+03</rscale>
<asrwt>0</asrwt>
<pdfrwt beam="1">  1        2 0.15572002E+00 0.92380135E+03</pdfrwt>
<pdfrwt beam="2">  1       -2 0.32428437E-01 0.92380135E+03</pdfrwt>
<totfact> 0.26275523E+02</totfact>
</mgrwt>
<rwgt>
<wgt id='morphing_basis_vector_1'> +1.7473814e-04 </wgt>
<wgt id='morphing_basis_vector_2'> +1.0918149e-04 </wgt>
<wgt id='morphing_basis_vector_3'> +1.6444421e-04 </wgt>
<wgt id='morphing_basis_vector_4'> +9.6419174e-05 </wgt>
<wgt id='morphing_basis_vector_5'> +1.5335668e-04 </wgt>
</rwgt>
</event>
</LesHouchesEvents>
