<LesHouchesEvents version="3.0">
<header>
<!--
#*********************************************************************
#                                                                    *
#                        MadGraph5_aMC@NLO                           *
#                                                                    *
#                           Going Beyond                             *
#                                                                    *
#                   http://madgraph.hep.uiuc.edu                     *
#                   http://madgraph.phys.ucl.ac.be                   *
#                   http://amcatnlo.cern.ch                          *
#                                                                    *
#                     The MadGraph5_aMC@NLO team                     *
#                                                                    *
#....................................................................*
#                                                                    *
# This file contains all the information necessary to reproduce      *
# the events generated:                                              *
#                                                                    *
# 1. software version                                                *
# 2. proc_card          : code generation info including model       *
# 3. param_card         : model primary parameters in the LH format  *
# 4. run_card           : running parameters (collider and cuts)     *
# 5. pythia_card        : present only if pythia has been run        *
# 6. pgs_card           : present only if pgs has been run           *
# 7. delphes_cards      : present only if delphes has been run       *
#                                                                    *
#                                                                    *
#*********************************************************************
-->
<MGVersion>
2.6.4
</MGVersion>
<MG5ProcCard>
<![CDATA[
#************************************************************
#*                     MadGraph5_aMC@NLO                    *
#*                                                          *
#*                *                       *                 *
#*                  *        * *        *                   *
#*                    * * * * 5 * * * *                     *
#*                  *        * *        *                   *
#*                *                       *                 *
#*                                                          *
#*                                                          *
#*         VERSION 2.6.4                 2018-11-09         *
#*                                                          *
#*    The MadGraph5_aMC@NLO Development Team - Find us at   *
#*    https://server06.fynu.ucl.ac.be/projects/madgraph     *
#*                                                          *
#************************************************************
#*                                                          *
#*               Command File for MadGraph5_aMC@NLO         *
#*                                                          *
#*     run as ./bin/mg5_aMC  filename                       *
#*                                                          *
#************************************************************
set default_unset_couplings 99
set group_subprocesses Auto
set ignore_six_quark_processes False
set loop_optimized_output True
set loop_color_flows False
set gauge unitary
set complex_mass_scheme False
set max_npoint_for_channel 0
import model SM4fLL_UFO
define p = g u c d s u~ c~ d~ s~
define j = g u c d s u~ c~ d~ s~
define l+ = e+ mu+
define l- = e- mu-
define vl = ve vm vt
define vl~ = ve~ vm~ vt~
generate u u~ > mu+ mu- NP=2 QED=99 QCD=0
output /Users/dpappadopulo/Projects/~Physics/madminer/examples/example\
4_systematics_DY/data/mg_processes/DY_sys/
]]>
</MG5ProcCard>
<MGProcCard>
#*********************************************************************
#                        MadGraph/MadEvent                           *
#                   http://madgraph.hep.uiuc.edu                     *
#                                                                    *
#                          proc_card.dat                             *
#*********************************************************************
#                                                                    *
#            This Files is generated by MADGRAPH 5                   *
#                                                                    *
# WARNING: This Files is generated for MADEVENT (compatibility issue)*
#          This files is NOT a valid MG4 proc_card.dat               *
#          Running this in MG4 will NEVER reproduce the result of MG5*
#                                                                    *
#*********************************************************************
#*********************************************************************
# Process(es) requested : mg2 input                                  *
#*********************************************************************
# Begin PROCESS # This is TAG. Do not modify this line
u u~ > mu+ mu-           #Process
# Be carefull the coupling are here in MG5 convention
NP=2
QED=99
QCD=0
          
end_coup           # End the couplings input

done               # this tells MG there are no more procs
# End PROCESS  # This is TAG. Do not modify this line
#*********************************************************************
# Model information                                                  *
#*********************************************************************
# Begin MODEL  # This is TAG. Do not modify this line
SM4fLL_UFO
# End   MODEL  # This is TAG. Do not modify this line
#*********************************************************************
# Start multiparticle definitions                                    *
#*********************************************************************
# Begin MULTIPARTICLES # This is TAG. Do not modify this line

# End  MULTIPARTICLES # This is TAG. Do not modify this line
</MGProcCard>
<MGRunCard>
<![CDATA[
#*********************************************************************
#                       MadGraph5_aMC@NLO                            *
#                                                                    *
#                     run_card.dat MadEvent                          *
#                                                                    *
#  This file is used to set the parameters of the run.               *
#                                                                    *
#  Some notation/conventions:                                        *
#                                                                    *
#   Lines starting with a '# ' are info or comments                  *
#                                                                    *
#   mind the format:   value    = variable     ! comment             *
#*********************************************************************
#
#*******************                                                 
# Running parameters
#*******************                                                 
#                                                                    
#*********************************************************************
# Tag name for the run (one word)                                    *
#*********************************************************************
  tag_1     = run_tag ! name of the run 
#*********************************************************************
# Run to generate the grid pack                                      *
#*********************************************************************
  False     = gridpack  !True = setting up the grid pack
#*********************************************************************
# Number of events and rnd seed                                      *
# Warning: Do not generate more than 1M events in a single run       *
# If you want to run Pythia, avoid more than 50k events in a run.    *
#*********************************************************************
  1000 = nevents ! Number of unweighted events requested
 93 = iseed   ! rnd seed (0=assigned automatically=default))
#*********************************************************************
# Collider type and energy                                           *
# lpp: 0=No PDF, 1=proton, -1=antiproton, 2=photon from proton,      *
#                                         3=photon from electron     *
#*********************************************************************
     1        = lpp1    ! beam 1 type 
     1        = lpp2    ! beam 2 type
     6500.0     = ebeam1  ! beam 1 total energy in GeV
     6500.0     = ebeam2  ! beam 2 total energy in GeV
#*********************************************************************
# Beam polarization from -100 (left-handed) to 100 (right-handed)    *
#*********************************************************************
     0.0     = polbeam1 ! beam polarization for beam 1
     0.0     = polbeam2 ! beam polarization for beam 2
#*********************************************************************
# PDF CHOICE: this automatically fixes also alpha_s and its evol.    *
#*********************************************************************
     lhapdf    = pdlabel     ! PDF set
     90900   = lhaid     ! if pdlabel=lhapdf, this is the lhapdf number
#*********************************************************************
# Renormalization and factorization scales                           *
#*********************************************************************
 False = fixed_ren_scale  ! if .true. use fixed ren scale
 False        = fixed_fac_scale  ! if .true. use fixed fac scale
 91.188  = scale            ! fixed ren scale
 91.188  = dsqrt_q2fact1    ! fixed fact scale for pdf1
 91.188  = dsqrt_q2fact2    ! fixed fact scale for pdf2
 -1 = dynamical_scale_choice ! Choose one of the preselected dynamical choices
 1.0  = scalefact        ! scale factor for event-by-event scales
#*********************************************************************
# Type and output format
#*********************************************************************
  False     = gridpack  !True = setting up the grid pack
  -1.0 = time_of_flight ! threshold (in mm) below which the invariant livetime is not written (-1 means not written)
  3.0 = lhe_version       ! Change the way clustering information pass to shower.        
  True = clusinfo         ! include clustering tag in output
  sum =  event_norm       ! average/sum. Normalization of the weight in the LHEF
#*********************************************************************
# Matching - Warning! ickkw > 1 is still beta
#*********************************************************************
 0 = ickkw            ! 0 no matching, 1 MLM, 2 CKKW matching
 1 = highestmult      ! for ickkw=2, highest mult group
 1 = ktscheme         ! for ickkw=1, 1 Durham kT, 2 Pythia pTE
 1.0 = alpsfact         ! scale factor for QCD emission vx
 False = chcluster        ! cluster only according to channel diag
 True = pdfwgt           ! for ickkw=1, perform pdf reweighting
 4 = asrwgtflavor     ! highest quark flavor for a_s reweight    
#*********************************************************************
#**********************************************************
#
#**********************************************************
# Automatic ptj and mjj cuts if xqcut > 0
# (turn off for VBF and single top processes)
#**********************************************************
   False  = auto_ptj_mjj  ! Automatic setting of ptj and mjj
#**********************************************************
#                                                                    
#**********************************
# BW cutoff (M+/-bwcutoff*Gamma)
#**********************************
  15.0  = bwcutoff      ! (M+/-bwcutoff*Gamma)
#**********************************************************
# Apply pt/E/eta/dr/mij/kt_durham cuts on decay products or not
# (note that etmiss/ptll/ptheavy/ht/sorted cuts always apply)
#*************************************************************
   False  = cut_decays    ! Cut decay products 
#*************************************************************
# Number of helicities to sum per event (0 = all helicities)
# 0 gives more stable result, but longer run time (needed for
# long decay chains e.g.).
# Use >=2 if most helicities contribute, e.g. pure QCD.
#*************************************************************
   0  = nhel          ! Number of helicities used per event
#*******************                                                 
# Standard Cuts
#*******************                                                 
#                                                                    
#*********************************************************************
# Minimum and maximum pt's (for max, -1 means no cut)                *
#*********************************************************************
 15.0  = ptj       ! minimum pt for the jets
 0.0  = ptb       ! minimum pt for the b 
 0.0 = pta       ! minimum pt for the photons
 25.0  = ptl       ! minimum pt for the charged leptons
 0.0  = misset    ! minimum missing Et (sum of neutrino's momenta)
 0.0  = ptheavy   ! minimum pt for one heavy final state
 -1.0  = ptjmax    ! maximum pt for the jets
 -1.0  = ptbmax    ! maximum pt for the b
 -1.0 = ptamax       ! maximum pt for the photons
 -1.0  = ptlmax    ! maximum pt for the charged leptons
 -1.0  = missetmax ! maximum missing Et (sum of neutrino's momenta)
#*********************************************************************
# Minimum and maximum E's (in the center of mass frame)              *
#*********************************************************************
  0.0  = ej     ! minimum E for the jets 
  0.0  = eb     ! minimum E for the b 
  0.0  = ea     ! minimum E for the photons 
  0.0  = el     ! minimum E for the charged leptons 
  -1.0   = ejmax ! maximum E for the jets
 -1.0   = ebmax ! maximum E for the b
 -1.0   = eamax ! maximum E for the photons
 -1.0   = elmax ! maximum E for the charged leptons
#*********************************************************************
# Maximum and minimum absolute rapidity (for max, -1 means no cut)   *
#*********************************************************************
 2.5 = etaj    ! max rap for the jets
  -1.0  = etab    ! max rap for the b
 3.0  = etaa    ! max rap for the photons
 2.5  = etal    ! max rap for the charged leptons
 0.0  = etajmin ! min rap for the jets
 0.0  = etabmin ! min rap for the b
 0.0  = etaamin ! min rap for the photons
 0.0  = etalmin ! main rap for the charged leptons
#*********************************************************************
# Minimum and maximum DeltaR distance                                *
#*********************************************************************
 0.0 = drjj    ! min distance between jets
 0.0 = drbb    ! min distance between b's
 0.0 = drll    ! min distance between leptons
 0.0 = draa    ! min distance between gammas
 0.0 = drbj    ! min distance between b and jet
 0.0 = draj    ! min distance between gamma and jet
 0.0 = drjl    ! min distance between jet and lepton
 0.0 = drab    ! min distance between gamma and b
 0.0 = drbl    ! min distance between b and lepton
 0.0 = dral    ! min distance between gamma and lepton
 -1.0  = drjjmax ! max distance between jets
 -1.0  = drbbmax ! max distance between b's
 -1.0  = drllmax ! max distance between leptons
 -1.0  = draamax ! max distance between gammas
 -1.0  = drbjmax ! max distance between b and jet
 -1.0  = drajmax ! max distance between gamma and jet
 -1.0  = drjlmax ! max distance between jet and lepton
 -1.0  = drabmax ! max distance between gamma and b
 -1.0  = drblmax ! max distance between b and lepton
 -1.0  = dralmax ! maxdistance between gamma and lepton
#*********************************************************************
# Minimum and maximum invariant mass for pairs                       *
# WARNING: for four lepton final state mmll cut require to have      *
#          different lepton masses for each flavor!                  *           
#*********************************************************************
 0.0   = mmjj    ! min invariant mass of a jet pair 
 0.0   = mmbb    ! min invariant mass of a b pair 
 0.0   = mmaa    ! min invariant mass of gamma gamma pair
 1290   = mmll    ! min invariant mass of l+l- (same flavour) lepton pair
 -1.0  = mmjjmax ! max invariant mass of a jet pair
 -1.0  = mmbbmax ! max invariant mass of a b pair
 -1.0  = mmaamax ! max invariant mass of gamma gamma pair
 1550  = mmllmax ! max invariant mass of l+l- (same flavour) lepton pair
#*********************************************************************
# Minimum and maximum invariant mass for all letpons                 *
#*********************************************************************
 0.0   = mmnl    ! min invariant mass for all letpons (l+- and vl) 
 -1.0  = mmnlmax ! max invariant mass for all letpons (l+- and vl) 
#*********************************************************************
# Minimum and maximum pt for 4-momenta sum of leptons                *
#*********************************************************************
 0.0   = ptllmin  ! Minimum pt for 4-momenta sum of leptons(l and vl)
 -1.0  = ptllmax  ! Maximum pt for 4-momenta sum of leptons(l and vl)
#*********************************************************************
# Inclusive cuts                                                     *
#*********************************************************************
 0.0  = xptj ! minimum pt for at least one jet  
 0.0  = xptb ! minimum pt for at least one b 
 0.0  = xpta ! minimum pt for at least one photon 
 0.0  = xptl ! minimum pt for at least one charged lepton 
#*********************************************************************
# Control the pt's of the jets sorted by pt                          *
#*********************************************************************
 0.0   = ptj1min ! minimum pt for the leading jet in pt
 0.0   = ptj2min ! minimum pt for the second jet in pt
 0.0   = ptj3min ! minimum pt for the third jet in pt
 0.0   = ptj4min ! minimum pt for the fourth jet in pt
 -1.0  = ptj1max ! maximum pt for the leading jet in pt 
 -1.0  = ptj2max ! maximum pt for the second jet in pt
 -1.0  = ptj3max ! maximum pt for the third jet in pt
 -1.0  = ptj4max ! maximum pt for the fourth jet in pt
 0   = cutuse  ! reject event if fails any (0) / all (1) jet pt cuts
#*********************************************************************
# Control the pt's of leptons sorted by pt                           *
#*********************************************************************
 0.0   = ptl1min ! minimum pt for the leading lepton in pt
 0.0   = ptl2min ! minimum pt for the second lepton in pt
 0.0   = ptl3min ! minimum pt for the third lepton in pt
 0.0   = ptl4min ! minimum pt for the fourth lepton in pt
 -1.0  = ptl1max ! maximum pt for the leading lepton in pt 
 -1.0  = ptl2max ! maximum pt for the second lepton in pt
 -1.0  = ptl3max ! maximum pt for the third lepton in pt
 -1.0  = ptl4max ! maximum pt for the fourth lepton in pt
#*********************************************************************
# Control the Ht(k)=Sum of k leading jets                            *
#*********************************************************************
 0.0   = htjmin ! minimum jet HT=Sum(jet pt)
 -1.0  = htjmax ! maximum jet HT=Sum(jet pt)
 0.0   = ihtmin  !inclusive Ht for all partons (including b)
 -1.0  = ihtmax  !inclusive Ht for all partons (including b)
 0.0   = ht2min ! minimum Ht for the two leading jets
 0.0   = ht3min ! minimum Ht for the three leading jets
 0.0   = ht4min ! minimum Ht for the four leading jets
 -1.0  = ht2max ! maximum Ht for the two leading jets
 -1.0  = ht3max ! maximum Ht for the three leading jets
 -1.0  = ht4max ! maximum Ht for the four leading jets
#***********************************************************************
# Photon-isolation cuts, according to hep-ph/9801442                   *
# When ptgmin=0, all the other parameters are ignored                  *
# When ptgmin>0, pta and draj are not going to be used                 *
#***********************************************************************
 0.0 = ptgmin ! Min photon transverse momentum
 0.4 = R0gamma ! Radius of isolation code
 1.0 = xn ! n parameter of eq.(3.4) in hep-ph/9801442
 1.0 = epsgamma ! epsilon_gamma parameter of eq.(3.4) in hep-ph/9801442
 True = isoEM ! isolate photons from EM energy (photons and leptons)
#*********************************************************************
# WBF cuts                                                           *
#*********************************************************************
 0.0   = xetamin ! minimum rapidity for two jets in the WBF case  
 0.0   = deltaeta ! minimum rapidity for two jets in the WBF case 
#*********************************************************************
# KT DURHAM CUT                                                      *
#*********************************************************************
 -1.0    =  ktdurham        
 0.4  =  dparameter 
#*********************************************************************
# maximal pdg code for quark to be considered as a light jet         *
# (otherwise b cuts are applied)                                     *
#*********************************************************************
 4 = maxjetflavor    ! Maximum jet pdg code
#*********************************************************************
# Jet measure cuts                                                   *
#*********************************************************************
 0.0   = xqcut   ! minimum kt jet measure between partons
#*********************************************************************
#
#*********************************************************************
# Store info for systematics studies                                 *
# WARNING: If use_syst is T, matched Pythia output is                *
#          meaningful ONLY if plotted taking matchscale              *
#          reweighting into account!                                 *
#*********************************************************************
#    False  = use_syst      ! Enable systematics studies # Commented out by MadMiner
#
#**************************************
# Parameter of the systematics study
#  will be used by SysCalc (if installed)
#**************************************                                  
#
0.5 1 2 = sys_scalefact  # factorization/renormalization scale factor
None = sys_alpsfact  # \alpha_s emission scale factors
30 50 = sys_matchscale # variation of merging scale
# PDF sets and number of members (0 or none for all members).
NNPDF23_lo_as_0130_qed = sys_pdf # matching scales
# MSTW2008nlo68cl.LHgrid 1  = sys_pdf


#*********************************************************************
# MadMiner systematics setup                                         *
#*********************************************************************
True = use_syst
systematics = systematics_program
['--pdf=90900'] = systematics_arguments
]]>
</MGRunCard>
<slha>
######################################################################
## PARAM_CARD AUTOMATICALY GENERATED BY MG5 FOLLOWING UFO MODEL   ####
######################################################################
##                                                                  ##
##  Width set on Auto will be computed following the information    ##
##        present in the decay.py files of the model.               ##
##        See  arXiv:1402.1178 for more details.                    ##
##                                                                  ##
######################################################################

###################################
## INFORMATION FOR CKMBLOCK
###################################
Block ckmblock 
    1 2.277360e-01 # cabi 

###################################
## INFORMATION FOR MASS
###################################
Block mass 
    5 4.700000e+00 # MB 
    6 1.720000e+02 # MT 
   15 1.777000e+00 # MTA 
   23 9.118760e+01 # MZ 
   25 1.250000e+02 # MH 
## Dependent parameters, given by model restrictions.
## Those values should be edited following the 
## analytical expression. MG5 ignores those values 
## but they are important for interfacing the output of MG5
## to external program such as Pythia.
  1 0.000000 # d : 0.0 
  2 0.000000 # u : 0.0 
  3 0.000000 # s : 0.0 
  4 0.000000 # c : 0.0 
  11 0.000000 # e- : 0.0 
  12 0.000000 # ve : 0.0 
  13 0.000000 # mu- : 0.0 
  14 0.000000 # vm : 0.0 
  16 0.000000 # vt : 0.0 
  21 0.000000 # g : 0.0 
  22 0.000000 # a : 0.0 
  24 79.824360 # w+ : cmath.sqrt(MZ__exp__2/2. + cmath.sqrt(MZ__exp__4/4. - (aEW*cmath.pi*MZ__exp__2)/(Gf*sqrt__2))) 

###################################
## INFORMATION FOR OBLIQUE
###################################
Block oblique 
    1    0.0    # MadMiner
    2    0.0    # MadMiner

###################################
## INFORMATION FOR SMINPUTS
###################################
Block sminputs 
    1 1.279000e+02 # aEWM1 
    2 1.166370e-05 # Gf 
    3 1.184000e-01 # aS 

###################################
## INFORMATION FOR YUKAWA
###################################
Block yukawa 
    5 4.700000e+00 # ymb 
    6 1.720000e+02 # ymt 
   15 1.777000e+00 # ymtau 

###################################
## INFORMATION FOR DECAY
###################################
DECAY   6 1.508336e+00 # WT 
DECAY  23 2.495200e+00 # WZ 
DECAY  24 2.085000e+00 # WW 
DECAY  25 4.070000e-03 # WH 
## Dependent parameters, given by model restrictions.
## Those values should be edited following the 
## analytical expression. MG5 ignores those values 
## but they are important for interfacing the output of MG5
## to external program such as Pythia.
DECAY  1 0.000000 # d : 0.0 
DECAY  2 0.000000 # u : 0.0 
DECAY  3 0.000000 # s : 0.0 
DECAY  4 0.000000 # c : 0.0 
DECAY  5 0.000000 # b : 0.0 
DECAY  11 0.000000 # e- : 0.0 
DECAY  12 0.000000 # ve : 0.0 
DECAY  13 0.000000 # mu- : 0.0 
DECAY  14 0.000000 # vm : 0.0 
DECAY  15 0.000000 # ta- : 0.0 
DECAY  16 0.000000 # vt : 0.0 
DECAY  21 0.000000 # g : 0.0 
DECAY  22 0.000000 # a : 0.0
</slha>
<initrwgt>
<weightgroup name='mg_reweighting' weight_name_strategy='includeIdInWeightName'>
<weight id='morphing_basis_vector_1'>set param_card oblique 1 -0.06391685 # orig: 0.0
set param_card oblique 2 -0.08653588 # orig: 0.0
</weight>
<weight id='morphing_basis_vector_2'>set param_card oblique 1 0.0342439 # orig: 0.0
set param_card oblique 2 -0.09831893 # orig: 0.0
</weight>
<weight id='morphing_basis_vector_3'>set param_card oblique 1 -0.08145691 # orig: 0.0
set param_card oblique 2 0.09700122 # orig: 0.0
</weight>
<weight id='morphing_basis_vector_4'>set param_card oblique 1 0.09132942 # orig: 0.0
set param_card oblique 2 -0.005442744 # orig: 0.0
</weight>
<weight id='morphing_basis_vector_5'>set param_card oblique 1 0.08535809 # orig: 0.0
set param_card oblique 2 0.08156918 # orig: 0.0
</weight>
</weightgroup>
</initrwgt>
<MGGenerationInfo>
#  Number of Events        :       1000
#  Integrated weight (pb)  :       0.000352342
</MGGenerationInfo>
</header>
<init>
2212 2212 6.500000e+03 6.500000e+03 0 0 90900 90900 -3 1
3.523420e-04 1.763036e-06 3.523420e-07 1
<generator name='MadGraph5_aMC@NLO' version='2.6.4'>please cite 1405.0301 </generator>
</init>
<event>
 4      1 +3.5234200e-07 1.39116200e+03 7.81860800e-03 8.38112000e-02
        2 -1    0    0  501    0 +0.0000000000e+00 +0.0000000000e+00 +1.3378824101e+03 1.3378824101e+03 0.0000000000e+00 0.0000e+00 -1.0000e+00
       -2 -1    0    0    0  501 -0.0000000000e+00 -0.0000000000e+00 -3.6164084103e+02 3.6164084103e+02 0.0000000000e+00 0.0000e+00 1.0000e+00
      -13  1    1    2    0    0 +5.0017836393e+02 -4.3313428469e+02 +2.2596434723e+02 6.9917350532e+02 0.0000000000e+00 0.0000e+00 1.0000e+00
       13  1    1    2    0    0 -5.0017836393e+02 +4.3313428469e+02 +7.5027722182e+02 1.0003497458e+03 0.0000000000e+00 0.0000e+00 -1.0000e+00
<mgrwt>
<rscale>  0 0.13911620E+04</rscale>
<asrwt>0</asrwt>
<pdfrwt beam="1">  1        2 0.20582806E+00 0.13911620E+04</pdfrwt>
<pdfrwt beam="2">  1       -2 0.55637053E-01 0.13911620E+04</pdfrwt>
<totfact> 0.58761468E+01</totfact>
</mgrwt>
<rwgt>
<wgt id='morphing_basis_vector_1'> +1.9506355e-04 </wgt>
<wgt id='morphing_basis_vector_2'> +1.3164252e-04 </wgt>
<wgt id='morphing_basis_vector_3'> +2.0080185e-04 </wgt>
<wgt id='morphing_basis_vector_4'> +1.2826712e-04 </wgt>
<wgt id='morphing_basis_vector_5'> +2.0977129e-04 </wgt>
</rwgt>
</event>
<event>
 4      1 +3.5234200e-07 1.29243600e+03 7.81860800e-03 8.44682300e-02
        2 -1    0    0  501    0 +0.0000000000e+00 +0.0000000000e+00 +1.6865114747e+03 1.6865114747e+03 0.0000000000e+00 0.0000e+00 1.0000e+00
       -2 -1    0    0    0  501 -0.0000000000e+00 -0.0000000000e+00 -2.4761038326e+02 2.4761038326e+02 0.0000000000e+00 0.0000e+00 -1.0000e+00
      -13  1    1    2    0    0 +2.2548292725e+02 -2.5324665218e+02 -1.0378579318e+02 3.5460951508e+02 0.0000000000e+00 0.0000e+00 -1.0000e+00
       13  1    1    2    0    0 -2.2548292725e+02 +2.5324665218e+02 +1.5426868847e+03 1.5795123429e+03 0.0000000000e+00 0.0000e+00 1.0000e+00
<mgrwt>
<rscale>  0 0.12924361E+04</rscale>
<asrwt>0</asrwt>
<pdfrwt beam="1">  1        2 0.25946330E+00 0.12924361E+04</pdfrwt>
<pdfrwt beam="2">  1       -2 0.38093906E-01 0.12924361E+04</pdfrwt>
<totfact> 0.78443672E+01</totfact>
</mgrwt>
<rwgt>
<wgt id='morphing_basis_vector_1'> +1.4565249e-04 </wgt>
<wgt id='morphing_basis_vector_2'> +9.4055863e-05 </wgt>
<wgt id='morphing_basis_vector_3'> +1.4787908e-04 </wgt>
<wgt id='morphing_basis_vector_4'> +9.7079988e-05 </wgt>
<wgt id='morphing_basis_vector_5'> +1.5436368e-04 </wgt>
</rwgt>
</event>
<event>
 4      1 +3.5234200e-07 1.35562600e+03 7.81860800e-03 8.40409500e-02
        2 -1    0    0  501    0 +0.0000000000e+00 +0.0000000000e+00 +1.6165612722e+03 1.6165612722e+03 0.0000000000e+00 0.0000e+00 -1.0000e+00
       -2 -1    0    0    0  501 -0.0000000000e+00 -0.0000000000e+00 -2.8420220890e+02 2.8420220890e+02 0.0000000000e+00 0.0000e+00 1.0000e+00
      -13  1    1    2    0    0 -6.4772627030e+02 +1.3816046284e+02 +8.6836185929e+02 1.0921034536e+03 0.0000000000e+00 0.0000e+00 1.0000e+00
       13  1    1    2    0    0 +6.4772627030e+02 -1.3816046284e+02 +4.6399720400e+02 8.0866002748e+02 0.0000000000e+00 0.0000e+00 -1.0000e+00
<mgrwt>
<rscale>  0 0.13556257E+04</rscale>
<asrwt>0</asrwt>
<pdfrwt beam="1">  1        2 0.24870173E+00 0.13556257E+04</pdfrwt>
<pdfrwt beam="2">  1       -2 0.43723418E-01 0.13556257E+04</pdfrwt>
<totfact> 0.65900382E+01</totfact>
</mgrwt>
<rwgt>
<wgt id='morphing_basis_vector_1'> +1.8798311e-04 </wgt>
<wgt id='morphing_basis_vector_2'> +1.5285043e-04 </wgt>
<wgt id='morphing_basis_vector_3'> +1.9513747e-04 </wgt>
<wgt id='morphing_basis_vector_4'> +9.4700614e-05 </wgt>
<wgt id='morphing_basis_vector_5'> +1.8682608e-04 </wgt>
</rwgt>
</event>
<event>
 4      1 +3.5234200e-07 1.40428100e+03 7.81860800e-03 8.37281800e-02
        2 -1    0    0  501    0 +0.0000000000e+00 +0.0000000000e+00 +1.0431037303e+03 1.0431037303e+03 0.0000000000e+00 0.0000e+00 1.0000e+00
       -2 -1    0    0    0  501 -0.0000000000e+00 -0.0000000000e+00 -4.7262914059e+02 4.7262914059e+02 0.0000000000e+00 0.0000e+00 -1.0000e+00
      -13  1    1    2    0    0 +2.3324714464e+01 +6.4965199259e+02 -1.1700830453e+00 6.5007162904e+02 0.0000000000e+00 0.0000e+00 -1.0000e+00
       13  1    1    2    0    0 -2.3324714464e+01 -6.4965199259e+02 +5.7164467280e+02 8.6566124190e+02 0.0000000000e+00 0.0000e+00 1.0000e+00
<mgrwt>
<rscale>  0 0.14042809E+04</rscale>
<asrwt>0</asrwt>
<pdfrwt beam="1">  1        2 0.16047750E+00 0.14042809E+04</pdfrwt>
<pdfrwt beam="2">  1       -2 0.72712176E-01 0.14042809E+04</pdfrwt>
<totfact> 0.50041851E+01</totfact>
</mgrwt>
<rwgt>
<wgt id='morphing_basis_vector_1'> +2.0164261e-04 </wgt>
<wgt id='morphing_basis_vector_2'> +1.3485677e-04 </wgt>
<wgt id='morphing_basis_vector_3'> +2.0773320e-04 </wgt>
<wgt id='morphing_basis_vector_4'> +1.3442703e-04 </wgt>
<wgt id='morphing_basis_vector_5'> +2.1821719e-04 </wgt>
</rwgt>
</event>
<event>
 4      1 +3.5234200e-07 1.36991700e+03 7.81860800e-03 8.39476800e-02
        2 -1    0    0  501    0 +0.0000000000e+00 +0.0000000000e+00 +1.3233039462e+03 1.3233039462e+03 0.0000000000e+00 0.0000e+00 1.0000e+00
       -2 -1    0    0    0  501 -0.0000000000e+00 -0.0000000000e+00 -3.5454291196e+02 3.5454291196e+02 0.0000000000e+00 0.0000e+00 -1.0000e+00
      -13  1    1    2    0    0 -2.5542047414e+02 +2.2057336395e+02 -2.4564986227e+02 4.1741595840e+02 0.0000000000e+00 0.0000e+00 -1.0000e+00
       13  1    1    2    0    0 +2.5542047414e+02 -2.2057336395e+02 +1.2144108965e+03 1.2604308997e+03 0.0000000000e+00 0.0000e+00 1.0000e+00
<mgrwt>
<rscale>  0 0.13699168E+04</rscale>
<asrwt>0</asrwt>
<pdfrwt beam="1">  1        2 0.20358522E+00 0.13699168E+04</pdfrwt>
<pdfrwt beam="2">  1       -2 0.54545064E-01 0.13699168E+04</pdfrwt>
<totfact> 0.62436937E+01</totfact>
</mgrwt>
<rwgt>
<wgt id='morphing_basis_vector_1'> +1.8193911e-04 </wgt>
<wgt id='morphing_basis_vector_2'> +1.1811599e-04 </wgt>
<wgt id='morphing_basis_vector_3'> +1.8642436e-04 </wgt>
<wgt id='morphing_basis_vector_4'> +1.2383396e-04 </wgt>
<wgt id='morphing_basis_vector_5'> +1.9697845e-04 </wgt>
</rwgt>
</event>
<event>
 4      1 +3.5234200e-07 1.46492200e+03 7.81860800e-03 8.33563300e-02
        2 -1    0    0  501    0 +0.0000000000e+00 +0.0000000000e+00 +1.4453508689e+03 1.4453508689e+03 0.0000000000e+00 0.0000e+00 1.0000e+00
       -2 -1    0    0    0  501 -0.0000000000e+00 -0.0000000000e+00 -3.7118940484e+02 3.7118940484e+02 0.0000000000e+00 0.0000e+00 -1.0000e+00
      -13  1    1    2    0    0 -3.5123984513e+01 -4.7939552345e+02 -1.4824530863e+02 5.0302130544e+02 0.0000000000e+00 0.0000e+00 -1.0000e+00
       13  1    1    2    0    0 +3.5123984513e+01 +4.7939552345e+02 +1.2224067727e+03 1.3135189683e+03 0.0000000000e+00 0.0000e+00 1.0000e+00
<mgrwt>
<rscale>  0 0.14649217E+04</rscale>
<asrwt>0</asrwt>
<pdfrwt beam="1">  1        2 0.22236167E+00 0.14649217E+04</pdfrwt>
<pdfrwt beam="2">  1       -2 0.57106063E-01 0.14649217E+04</pdfrwt>
<totfact> 0.48180966E+01</totfact>
</mgrwt>
<rwgt>
<wgt id='morphing_basis_vector_1'> +2.3553932e-04 </wgt>
<wgt id='morphing_basis_vector_2'> +1.5412519e-04 </wgt>
<wgt id='morphing_basis_vector_3'> +2.4367521e-04 </wgt>
<wgt id='morphing_basis_vector_4'> +1.6337787e-04 </wgt>
<wgt id='morphing_basis_vector_5'> +2.6040428e-04 </wgt>
</rwgt>
</event>
<event>
 4      1 +3.5234200e-07 1.43541900e+03 7.81860800e-03 8.35348600e-02
        2 -1    0    0  501    0 +0.0000000000e+00 +0.0000000000e+00 +2.1197394614e+03 2.1197394614e+03 0.0000000000e+00 0.0000e+00 -1.0000e+00
       -2 -1    0    0    0  501 -0.0000000000e+00 -0.0000000000e+00 -2.4300473429e+02 2.4300473429e+02 0.0000000000e+00 0.0000e+00 1.0000e+00
      -13  1    1    2    0    0 +2.8237060361e+02 +6.3549411419e+02 +6.4612935556e+02 9.4924658075e+02 0.0000000000e+00 0.0000e+00 1.0000e+00
       13  1    1    2    0    0 -2.8237060361e+02 -6.3549411419e+02 +1.2306053716e+03 1.4134976150e+03 0.0000000000e+00 0.0000e+00 -1.0000e+00
<mgrwt>
<rscale>  0 0.14354187E+04</rscale>
<asrwt>0</asrwt>
<pdfrwt beam="1">  1        2 0.32611375E+00 0.14354187E+04</pdfrwt>
<pdfrwt beam="2">  1       -2 0.37385345E-01 0.14354187E+04</pdfrwt>
<totfact> 0.45985994E+01</totfact>
</mgrwt>
<rwgt>
<wgt id='morphing_basis_vector_1'> +2.2069529e-04 </wgt>
<wgt id='morphing_basis_vector_2'> +1.5092497e-04 </wgt>
<wgt id='morphing_basis_vector_3'> +2.2840799e-04 </wgt>
<wgt id='morphing_basis_vector_4'> +1.4481933e-04 </wgt>
<wgt id='morphing_basis_vector_5'> +2.3889979e-04 </wgt>
</rwgt>
</event>
<event>
 4      1 +3.5234200e-07 1.50381800e+03 7.81860800e-03 8.31275100e-02
        2 -1    0    0  501    0 +0.0000000000e+00 +0.0000000000e+00 +2.7529897973e+03 2.7529897973e+03 0.0000000000e+00 0.0000e+00 -1.0000e+00
       -2 -1    0    0    0  501 -0.0000000000e+00 -0.0000000000e+00 -2.0536488994e+02 2.0536488994e+02 0.0000000000e+00 0.0000e+00 1.0000e+00
      -13  1    1    2    0    0 -2.1060400079e+02 -7.1871360022e+02 +1.4052516337e+03 1.5923678715e+03 0.0000000000e+00 0.0000e+00 1.0000e+00
       13  1    1    2    0    0 +2.1060400079e+02 +7.1871360022e+02 +1.1423732737e+03 1.3659868157e+03 0.0000000000e+00 0.0000e+00 -1.0000e+00
<mgrwt>
<rscale>  0 0.15038184E+04</rscale>
<asrwt>0</asrwt>
<pdfrwt beam="1">  1        2 0.42353686E+00 0.15038184E+04</pdfrwt>
<pdfrwt beam="2">  1       -2 0.31594600E-01 0.15038184E+04</pdfrwt>
<totfact> 0.26273192E+01</totfact>
</mgrwt>
<rwgt>
<wgt id='morphing_basis_vector_1'> +2.7334812e-04 </wgt>
<wgt id='morphing_basis_vector_2'> +2.0891849e-04 </wgt>
<wgt id='morphing_basis_vector_3'> +2.8723593e-04 </wgt>
<wgt id='morphing_basis_vector_4'> +1.5827301e-04 </wgt>
<wgt id='morphing_basis_vector_5'> +2.8854320e-04 </wgt>
</rwgt>
</event>
<event>
 4      1 +3.5234200e-07 1.31195700e+03 7.81860800e-03 8.43335500e-02
        2 -1    0    0  501    0 +0.0000000000e+00 +0.0000000000e+00 +1.0242935746e+03 1.0242935746e+03 0.0000000000e+00 0.0000e+00 1.0000e+00
       -2 -1    0    0    0  501 -0.0000000000e+00 -0.0000000000e+00 -4.2010198809e+02 4.2010198809e+02 0.0000000000e+00 0.0000e+00 -1.0000e+00
      -13  1    1    2    0    0 +6.4708902525e+02 +9.4212712679e+01 +3.5938236248e+02 7.4616078984e+02 0.0000000000e+00 0.0000e+00 -1.0000e+00
       13  1    1    2    0    0 -6.4708902525e+02 -9.4212712679e+01 +2.4480922402e+02 6.9823477284e+02 0.0000000000e+00 0.0000e+00 1.0000e+00
<mgrwt>
<rscale>  0 0.13119570E+04</rscale>
<asrwt>0</asrwt>
<pdfrwt beam="1">  1        2 0.15758363E+00 0.13119570E+04</pdfrwt>
<pdfrwt beam="2">  1       -2 0.64631076E-01 0.13119570E+04</pdfrwt>
<totfact> 0.66532017E+01</totfact>
</mgrwt>
<rwgt>
<wgt id='morphing_basis_vector_1'> +1.6158277e-04 </wgt>
<wgt id='morphing_basis_vector_2'> +1.2177001e-04 </wgt>
<wgt id='morphing_basis_vector_3'> +1.6587694e-04 </wgt>
<wgt id='morphing_basis_vector_4'> +9.0248304e-05 </wgt>
<wgt id='morphing_basis_vector_5'> +1.6345635e-04 </wgt>
</rwgt>
</event>
<event>
 4      1 +3.5234200e-07 1.37859600e+03 7.81860800e-03 8.38916100e-02
        2 -1    0    0  501    0 +0.0000000000e+00 +0.0000000000e+00 +8.4861223591e+02 8.4861223591e+02 0.0000000000e+00 0.0000e+00 1.0000e+00
       -2 -1    0    0    0  501 -0.0000000000e+00 -0.0000000000e+00 -5.5989299716e+02 5.5989299716e+02 0.0000000000e+00 0.0000e+00 -1.0000e+00
      -13  1    1    2    0    0 -5.8713934478e+02 +1.4111775589e+02 +4.8396408560e+02 7.7386566494e+02 0.0000000000e+00 0.0000e+00 1.0000e+00
       13  1    1    2    0    0 +5.8713934478e+02 -1.4111775589e+02 -1.9524484686e+02 6.3463956813e+02 0.0000000000e+00 0.0000e+00 -1.0000e+00
<mgrwt>
<rscale>  0 0.13785965E+04</rscale>
<asrwt>0</asrwt>
<pdfrwt beam="1">  1        2 0.13055573E+00 0.13785965E+04</pdfrwt>
<pdfrwt beam="2">  1       -2 0.86137384E-01 0.13785965E+04</pdfrwt>
<totfact> 0.45623553E+01</totfact>
</mgrwt>
<rwgt>
<wgt id='morphing_basis_vector_1'> +2.1879075e-04 </wgt>
<wgt id='morphing_basis_vector_2'> +2.1789724e-04 </wgt>
<wgt id='morphing_basis_vector_3'> +2.3165945e-04 </wgt>
<wgt id='morphing_basis_vector_4'> +6.8317210e-05 </wgt>
<wgt id='morphing_basis_vector_5'> +1.9799839e-04 </wgt>
</rwgt>
</event>
<event>
 4      1 +3.5234200e-07 1.29862000e+03 7.81860800e-03 8.44253000e-02
        2 -1    0    0  501    0 +0.0000000000e+00 +0.0000000000e+00 +1.3344033260e+03 1.3344033260e+03 0.0000000000e+00 0.0000e+00 1.0000e+00
       -2 -1    0    0    0  501 -0.0000000000e+00 -0.0000000000e+00 -3.1594910920e+02 3.1594910920e+02 0.0000000000e+00 0.0000e+00 -1.0000e+00
      -13  1    1    2    0    0 -2.8759928705e+02 +5.0678506953e+02 +1.4517972519e+02 6.0051778427e+02 0.0000000000e+00 0.0000e+00 -1.0000e+00
       13  1    1    2    0    0 +2.8759928705e+02 -5.0678506953e+02 +8.7327449161e+02 1.0498346509e+03 0.0000000000e+00 0.0000e+00 1.0000e+00
<mgrwt>
<rscale>  0 0.12986201E+04</rscale>
<asrwt>0</asrwt>
<pdfrwt beam="1">  1        2 0.20529282E+00 0.12986201E+04</pdfrwt>
<pdfrwt beam="2">  1       -2 0.48607556E-01 0.12986201E+04</pdfrwt>
<totfact> 0.77708338E+01</totfact>
</mgrwt>
<rwgt>
<wgt id='morphing_basis_vector_1'> +1.4916943e-04 </wgt>
<wgt id='morphing_basis_vector_2'> +9.8350430e-05 </wgt>
<wgt id='morphing_basis_vector_3'> +1.5172630e-04 </wgt>
<wgt id='morphing_basis_vector_4'> +9.7545177e-05 </wgt>
<wgt id='morphing_basis_vector_5'> +1.5738259e-04 </wgt>
</rwgt>
</event>
<event>
 4      1 +3.5234200e-07 1.29428500e+03 7.81860800e-03 8.44553600e-02
        2 -1    0    0  501    0 +0.0000000000e+00 +0.0000000000e+00 +1.7574897842e+03 1.7574897842e+03 0.0000000000e+00 0.0000e+00 1.0000e+00
       -2 -1    0    0    0  501 -0.0000000000e+00 -0.0000000000e+00 -2.3829082459e+02 2.3829082459e+02 0.0000000000e+00 0.0000e+00 -1.0000e+00
      -13  1    1    2    0    0 +3.8498547041e+02 -4.6094406282e+02 +3.8788468107e+02 7.1493899550e+02 0.0000000000e+00 0.0000e+00 -1.0000e+00
       13  1    1    2    0    0 -3.8498547041e+02 +4.6094406282e+02 +1.1313142785e+03 1.2808416132e+03 0.0000000000e+00 0.0000e+00 1.0000e+00
<mgrwt>
<rscale>  0 0.12942854E+04</rscale>
<asrwt>0</asrwt>
<pdfrwt beam="1">  1        2 0.27038304E+00 0.12942854E+04</pdfrwt>
<pdfrwt beam="2">  1       -2 0.36660128E-01 0.12942854E+04</pdfrwt>
<totfact> 0.76886631E+01</totfact>
</mgrwt>
<rwgt>
<wgt id='morphing_basis_vector_1'> +1.4761129e-04 </wgt>
<wgt id='morphing_basis_vector_2'> +9.8066170e-05 </wgt>
<wgt id='morphing_basis_vector_3'> +1.5011727e-04 </wgt>
<wgt id='morphing_basis_vector_4'> +9.5601468e-05 </wgt>
<wgt id='morphing_basis_vector_5'> +1.5514813e-04 </wgt>
</rwgt>
</event>
<event>
 4      1 +3.5234200e-07 1.39426300e+03 7.81860800e-03 8.37914900e-02
        2 -1    0    0  501    0 +0.0000000000e+00 +0.0000000000e+00 +2.7376102256e+03 2.7376102256e+03 0.0000000000e+00 0.0000e+00 1.0000e+00
       -2 -1    0    0    0  501 -0.0000000000e+00 -0.0000000000e+00 -1.7752439636e+02 1.7752439636e+02 0.0000000000e+00 0.0000e+00 -1.0000e+00
      -13  1    1    2    0    0 -4.0352274318e+02 +5.4693182836e+02 +9.5595058788e+02 1.1729478060e+03 0.0000000000e+00 0.0000e+00 -1.0000e+00
       13  1    1    2    0    0 +4.0352274318e+02 -5.4693182836e+02 +1.6041352414e+03 1.7421868160e+03 0.0000000000e+00 0.0000e+00 1.0000e+00
<mgrwt>
<rscale>  0 0.13942634E+04</rscale>
<asrwt>0</asrwt>
<pdfrwt beam="1">  1        2 0.42117077E+00 0.13942634E+04</pdfrwt>
<pdfrwt beam="2">  1       -2 0.27311448E-01 0.13942634E+04</pdfrwt>
<totfact> 0.35097397E+01</totfact>
</mgrwt>
<rwgt>
<wgt id='morphing_basis_vector_1'> +1.9765050e-04 </wgt>
<wgt id='morphing_basis_vector_2'> +1.3552481e-04 </wgt>
<wgt id='morphing_basis_vector_3'> +2.0374209e-04 </wgt>
<wgt id='morphing_basis_vector_4'> +1.2779673e-04 </wgt>
<wgt id='morphing_basis_vector_5'> +2.1160750e-04 </wgt>
</rwgt>
</event>
<event>
 4      1 +3.5234200e-07 1.30582200e+03 7.81860800e-03 8.43756100e-02
        2 -1    0    0  501    0 +0.0000000000e+00 +0.0000000000e+00 +1.6926627743e+03 1.6926627743e+03 0.0000000000e+00 0.0000e+00 -1.0000e+00
       -2 -1    0    0    0  501 -0.0000000000e+00 -0.0000000000e+00 -2.5184753562e+02 2.5184753562e+02 0.0000000000e+00 0.0000e+00 1.0000e+00
      -13  1    1    2    0    0 -3.2329386553e+02 -5.0543998321e+02 +1.1038477048e+03 1.2563710660e+03 0.0000000000e+00 0.0000e+00 1.0000e+00
       13  1    1    2    0    0 +3.2329386553e+02 +5.0543998321e+02 +3.3696753390e+02 6.8813924391e+02 0.0000000000e+00 0.0000e+00 -1.0000e+00
<mgrwt>
<rscale>  0 0.13058223E+04</rscale>
<asrwt>0</asrwt>
<pdfrwt beam="1">  1        2 0.26040965E+00 0.13058223E+04</pdfrwt>
<pdfrwt beam="2">  1       -2 0.38745776E-01 0.13058223E+04</pdfrwt>
<totfact> 0.75339897E+01</totfact>
</mgrwt>
<rwgt>
<wgt id='morphing_basis_vector_1'> +1.7187848e-04 </wgt>
<wgt id='morphing_basis_vector_2'> +1.5897622e-04 </wgt>
<wgt id='morphing_basis_vector_3'> +1.7867350e-04 </wgt>
<wgt id='morphing_basis_vector_4'> +6.5080242e-05 </wgt>
<wgt id='morphing_basis_vector_5'> +1.5862347e-04 </wgt>
</rwgt>
</event>
<event>
 4      1 +3.5234200e-07 1.31459100e+03 7.81860800e-03 8.43155700e-02
        2 -1    0    0  501    0 +0.0000000000e+00 +0.0000000000e+00 +1.4017337176e+03 1.4017337176e+03 0.0000000000e+00 0.0000e+00 1.0000e+00
       -2 -1    0    0    0  501 -0.0000000000e+00 -0.0000000000e+00 -3.0821632048e+02 3.0821632048e+02 0.0000000000e+00 0.0000e+00 -1.0000e+00
      -13  1    1    2    0    0 +1.6081756461e+02 -5.1070062249e+02 +5.0834843969e+01 5.3783045308e+02 0.0000000000e+00 0.0000e+00 -1.0000e+00
       13  1    1    2    0    0 -1.6081756461e+02 +5.1070062249e+02 +1.0426825531e+03 1.1721195850e+03 0.0000000000e+00 0.0000e+00 1.0000e+00
<mgrwt>
<rscale>  0 0.13145907E+04</rscale>
<asrwt>0</asrwt>
<pdfrwt beam="1">  1        2 0.21565134E+00 0.13145907E+04</pdfrwt>
<pdfrwt beam="2">  1       -2 0.47417896E-01 0.13145907E+04</pdfrwt>
<totfact> 0.74596044E+01</totfact>
</mgrwt>
<rwgt>
<wgt id='morphing_basis_vector_1'> +1.5580632e-04 </wgt>
<wgt id='morphing_basis_vector_2'> +1.0171374e-04 </wgt>
<wgt id='morphing_basis_vector_3'> +1.5870637e-04 </wgt>
<wgt id='morphing_basis_vector_4'> +1.0352885e-04 </wgt>
<wgt id='morphing_basis_vector_5'> +1.6572214e-04 </wgt>
</rwgt>
</event>
<event>
 4      1 +3.5234200e-07 1.42304900e+03 7.81860800e-03 8.36110400e-02
        2 -1    0    0  501    0 +0.0000000000e+00 +0.0000000000e+00 +7.3006022750e+02 7.3006022750e+02 0.0000000000e+00 0.0000e+00 -1.0000e+00
       -2 -1    0    0    0  501 -0.0000000000e+00 -0.0000000000e+00 -6.9345971026e+02 6.9345971026e+02 0.0000000000e+00 0.0000e+00 1.0000e+00
      -13  1    1    2    0    0 -5.1189891075e+02 +1.1552159813e+02 -4.6236006761e+02 6.9940157748e+02 0.0000000000e+00 0.0000e+00 1.0000e+00
       13  1    1    2    0    0 +5.1189891075e+02 -1.1552159813e+02 +4.9896058485e+02 7.2411836028e+02 0.0000000000e+00 0.0000e+00 -1.0000e+00
<mgrwt>
<rscale>  0 0.14230493E+04</rscale>
<asrwt>0</asrwt>
<pdfrwt beam="1">  1        2 0.11231696E+00 0.14230493E+04</pdfrwt>
<pdfrwt beam="2">  1       -2 0.10668611E+00 0.14230493E+04</pdfrwt>
<totfact> 0.33096222E+01</totfact>
</mgrwt>
<rwgt>
<wgt id='morphing_basis_vector_1'> +2.1082149e-04 </wgt>
<wgt id='morphing_basis_vector_2'> +1.3797203e-04 </wgt>
<wgt id='morphing_basis_vector_3'> +2.1727892e-04 </wgt>
<wgt id='morphing_basis_vector_4'> +1.4457248e-04 </wgt>
<wgt id='morphing_basis_vector_5'> +2.3080572e-04 </wgt>
</rwgt>
</event>
<event>
 4      1 +3.5234200e-07 1.38972400e+03 7.81860800e-03 8.38203500e-02
        2 -1    0    0  501    0 +0.0000000000e+00 +0.0000000000e+00 +1.6456439887e+03 1.6456439887e+03 0.0000000000e+00 0.0000e+00 1.0000e+00
       -2 -1    0    0    0  501 -0.0000000000e+00 -0.0000000000e+00 -2.9340094922e+02 2.9340094922e+02 0.0000000000e+00 0.0000e+00 -1.0000e+00
      -13  1    1    2    0    0 -9.5443255066e+01 -2.7479080361e+02 -2.0435443114e+02 3.5549983714e+02 0.0000000000e+00 0.0000e+00 -1.0000e+00
       13  1    1    2    0    0 +9.5443255066e+01 +2.7479080361e+02 +1.5565974706e+03 1.5835451008e+03 0.0000000000e+00 0.0000e+00 1.0000e+00
<mgrwt>
<rscale>  0 0.13897244E+04</rscale>
<asrwt>0</asrwt>
<pdfrwt beam="1">  1        2 0.25317599E+00 0.13897244E+04</pdfrwt>
<pdfrwt beam="2">  1       -2 0.45138608E-01 0.13897244E+04</pdfrwt>
<totfact> 0.59579097E+01</totfact>
</mgrwt>
<rwgt>
<wgt id='morphing_basis_vector_1'> +1.9221396e-04 </wgt>
<wgt id='morphing_basis_vector_2'> +1.2490276e-04 </wgt>
<wgt id='morphing_basis_vector_3'> +1.9736658e-04 </wgt>
<wgt id='morphing_basis_vector_4'> +1.3149910e-04 </wgt>
<wgt id='morphing_basis_vector_5'> +2.0914252e-04 </wgt>
</rwgt>
</event>
<event>
 4      1 +3.5234200e-07 1.34804700e+03 7.81860800e-03 8.40908900e-02
        2 -1    0    0  501    0 +0.0000000000e+00 +0.0000000000e+00 +1.0453388618e+03 1.0453388618e+03 0.0000000000e+00 0.0000e+00 1.0000e+00
       -2 -1    0    0    0  501 -0.0000000000e+00 -0.0000000000e+00 -4.3460354641e+02 4.3460354641e+02 0.0000000000e+00 0.0000e+00 -1.0000e+00
      -13  1    1    2    0    0 -2.2074566475e+01 -5.5743401485e+02 -1.0991257489e+02 5.6859541110e+02 0.0000000000e+00 0.0000e+00 -1.0000e+00
       13  1    1    2    0    0 +2.2074566475e+01 +5.5743401485e+02 +7.2064789032e+02 9.1134699715e+02 0.0000000000e+00 0.0000e+00 1.0000e+00
<mgrwt>
<rscale>  0 0.13480474E+04</rscale>
<asrwt>0</asrwt>
<pdfrwt beam="1">  1        2 0.16082136E+00 0.13480474E+04</pdfrwt>
<pdfrwt beam="2">  1       -2 0.66862084E-01 0.13480474E+04</pdfrwt>
<totfact> 0.59965654E+01</totfact>
</mgrwt>
<rwgt>
<wgt id='morphing_basis_vector_1'> +1.7157175e-04 </wgt>
<wgt id='morphing_basis_vector_2'> +1.1240352e-04 </wgt>
<wgt id='morphing_basis_vector_3'> +1.7547825e-04 </wgt>
<wgt id='morphing_basis_vector_4'> +1.1488625e-04 </wgt>
<wgt id='morphing_basis_vector_5'> +1.8410216e-04 </wgt>
</rwgt>
</event>
<event>
 4      1 +3.5234200e-07 1.29014300e+03 7.81860800e-03 8.44842100e-02
        2 -1    0    0  501    0 +0.0000000000e+00 +0.0000000000e+00 +1.9228293246e+03 1.9228293246e+03 0.0000000000e+00 0.0000e+00 -1.0000e+00
       -2 -1    0    0    0  501 -0.0000000000e+00 -0.0000000000e+00 -2.1640894464e+02 2.1640894464e+02 0.0000000000e+00 0.0000e+00 1.0000e+00
      -13  1    1    2    0    0 -4.7199437227e+02 +2.8000772919e+02 +2.9106784552e+02 6.2121132198e+02 0.0000000000e+00 0.0000e+00 1.0000e+00
       13  1    1    2    0    0 +4.7199437227e+02 -2.8000772919e+02 +1.4153525344e+03 1.5180269472e+03 0.0000000000e+00 0.0000e+00 -1.0000e+00
<mgrwt>
<rscale>  0 0.12901433E+04</rscale>
<asrwt>0</asrwt>
<pdfrwt beam="1">  1        2 0.29581988E+00 0.12901433E+04</pdfrwt>
<pdfrwt beam="2">  1       -2 0.33293685E-01 0.12901433E+04</pdfrwt>
<totfact> 0.74163392E+01</totfact>
</mgrwt>
<rwgt>
<wgt id='morphing_basis_vector_1'> +1.4518808e-04 </wgt>
<wgt id='morphing_basis_vector_2'> +9.4956448e-05 </wgt>
<wgt id='morphing_basis_vector_3'> +1.4745811e-04 </wgt>
<wgt id='morphing_basis_vector_4'> +9.5443459e-05 </wgt>
<wgt id='morphing_basis_vector_5'> +1.5315266e-04 </wgt>
</rwgt>
</event>
<event>
 4      1 +3.5234200e-07 1.42192700e+03 7.81860800e-03 8.36179900e-02
        2 -1    0    0  501    0 +0.0000000000e+00 +0.0000000000e+00 +1.5990038221e+03 1.5990038221e+03 0.0000000000e+00 0.0000e+00 1.0000e+00
       -2 -1    0    0    0  501 -0.0000000000e+00 -0.0000000000e+00 -3.1611522466e+02 3.1611522466e+02 0.0000000000e+00 0.0000e+00 -1.0000e+00
      -13  1    1    2    0    0 -3.7672666148e+02 +2.1608873348e+02 -1.1669086590e+02 4.4970443226e+02 0.0000000000e+00 0.0000e+00 -1.0000e+00
       13  1    1    2    0    0 +3.7672666148e+02 -2.1608873348e+02 +1.3995794633e+03 1.4654146145e+03 0.0000000000e+00 0.0000e+00 1.0000e+00
<mgrwt>
<rscale>  0 0.14219275E+04</rscale>
<asrwt>0</asrwt>
<pdfrwt beam="1">  1        2 0.24600058E+00 0.14219275E+04</pdfrwt>
<pdfrwt beam="2">  1       -2 0.48633112E-01 0.14219275E+04</pdfrwt>
<totfact> 0.54607393E+01</totfact>
</mgrwt>
<rwgt>
<wgt id='morphing_basis_vector_1'> +2.0998138e-04 </wgt>
<wgt id='morphing_basis_vector_2'> +1.3694192e-04 </wgt>
<wgt id='morphing_basis_vector_3'> +2.1634015e-04 </wgt>
<wgt id='morphing_basis_vector_4'> +1.4447030e-04 </wgt>
<wgt id='morphing_basis_vector_5'> +2.3007632e-04 </wgt>
</rwgt>
</event>
<event>
 4      1 +3.5234200e-07 1.40567300e+03 7.81860800e-03 8.37194300e-02
        2 -1    0    0  501    0 +0.0000000000e+00 +0.0000000000e+00 +2.8302833558e+03 2.8302833558e+03 0.0000000000e+00 0.0000e+00 -1.0000e+00
       -2 -1    0    0    0  501 -0.0000000000e+00 -0.0000000000e+00 -1.7453340623e+02 1.7453340623e+02 0.0000000000e+00 0.0000e+00 1.0000e+00
      -13  1    1    2    0    0 +3.2608022974e+01 -5.5933145574e+02 +4.2079152200e+02 7.0069998254e+02 0.0000000000e+00 0.0000e+00 1.0000e+00
       13  1    1    2    0    0 -3.2608022974e+01 +5.5933145574e+02 +2.2349584276e+03 2.3041167795e+03 0.0000000000e+00 0.0000e+00 -1.0000e+00
<mgrwt>
<rscale>  0 0.14056728E+04</rscale>
<asrwt>0</asrwt>
<pdfrwt beam="1">  1        2 0.43542817E+00 0.14056728E+04</pdfrwt>
<pdfrwt beam="2">  1       -2 0.26851295E-01 0.14056728E+04</pdfrwt>
<totfact> 0.31635243E+01</totfact>
</mgrwt>
<rwgt>
<wgt id='morphing_basis_vector_1'> +2.0128997e-04 </wgt>
<wgt id='morphing_basis_vector_2'> +1.3203328e-04 </wgt>
<wgt id='morphing_basis_vector_3'> +2.0713786e-04 </wgt>
<wgt id='morphing_basis_vector_4'> +1.3703133e-04 </wgt>
<wgt id='morphing_basis_vector_5'> +2.1926864e-04 </wgt>
</rwgt>
</event>
<event>
 4      1 +3.5234200e-07 1.46191400e+03 7.81860800e-03 8.33743300e-02
        2 -1    0    0  501    0 +0.0000000000e+00 +0.0000000000e+00 +1.9749659798e+03 1.9749659798e+03 0.0000000000e+00 0.0000e+00 -1.0000e+00
       -2 -1    0    0    0  501 -0.0000000000e+00 -0.0000000000e+00 -2.7053541526e+02 2.7053541526e+02 0.0000000000e+00 0.0000e+00 1.0000e+00
      -13  1    1    2    0    0 +4.7508615121e+02 +9.2371003584e+01 +1.0830251148e+01 4.8410386046e+02 0.0000000000e+00 0.0000e+00 1.0000e+00
       13  1    1    2    0    0 -4.7508615121e+02 -9.2371003584e+01 +1.6936003134e+03 1.7613975346e+03 0.0000000000e+00 0.0000e+00 -1.0000e+00
<mgrwt>
<rscale>  0 0.14619141E+04</rscale>
<asrwt>0</asrwt>
<pdfrwt beam="1">  1        2 0.30384091E+00 0.14619141E+04</pdfrwt>
<pdfrwt beam="2">  1       -2 0.41620834E-01 0.14619141E+04</pdfrwt>
<totfact> 0.45314300E+01</totfact>
</mgrwt>
<rwgt>
<wgt id='morphing_basis_vector_1'> +2.3369105e-04 </wgt>
<wgt id='morphing_basis_vector_2'> +1.5291092e-04 </wgt>
<wgt id='morphing_basis_vector_3'> +2.4169925e-04 </wgt>
<wgt id='morphing_basis_vector_4'> +1.6197508e-04 </wgt>
<wgt id='morphing_basis_vector_5'> +2.5818978e-04 </wgt>
</rwgt>
</event>
<event>
 4      1 +3.5234200e-07 1.33560300e+03 7.81860800e-03 8.41736600e-02
        2 -1    0    0  501    0 +0.0000000000e+00 +0.0000000000e+00 +1.1338725180e+03 1.1338725180e+03 0.0000000000e+00 0.0000e+00 -1.0000e+00
       -2 -1    0    0    0  501 -0.0000000000e+00 -0.0000000000e+00 -3.9330594705e+02 3.9330594705e+02 0.0000000000e+00 0.0000e+00 1.0000e+00
      -13  1    1    2    0    0 +2.7544840582e+02 -1.1484556507e+02 -3.1281652211e+02 4.3233725792e+02 0.0000000000e+00 0.0000e+00 1.0000e+00
       13  1    1    2    0    0 -2.7544840582e+02 +1.1484556507e+02 +1.0533830931e+03 1.0948412071e+03 0.0000000000e+00 0.0000e+00 -1.0000e+00
<mgrwt>
<rscale>  0 0.13356029E+04</rscale>
<asrwt>0</asrwt>
<pdfrwt beam="1">  1        2 0.17444192E+00 0.13356029E+04</pdfrwt>
<pdfrwt beam="2">  1       -2 0.60508608E-01 0.13356029E+04</pdfrwt>
<totfact> 0.65343558E+01</totfact>
</mgrwt>
<rwgt>
<wgt id='morphing_basis_vector_1'> +1.6509336e-04 </wgt>
<wgt id='morphing_basis_vector_2'> +1.0690013e-04 </wgt>
<wgt id='morphing_basis_vector_3'> +1.6850455e-04 </wgt>
<wgt id='morphing_basis_vector_4'> +1.1141901e-04 </wgt>
<wgt id='morphing_basis_vector_5'> +1.7715967e-04 </wgt>
</rwgt>
</event>
<event>
 4      1 +3.5234200e-07 1.32428300e+03 7.81860800e-03 8.42497700e-02
        2 -1    0    0  501    0 +0.0000000000e+00 +0.0000000000e+00 +8.4687378760e+02 8.4687378760e+02 0.0000000000e+00 0.0000e+00 -1.0000e+00
       -2 -1    0    0    0  501 -0.0000000000e+00 -0.0000000000e+00 -5.1770549036e+02 5.1770549036e+02 0.0000000000e+00 0.0000e+00 1.0000e+00
      -13  1    1    2    0    0 +5.5847972489e+02 +3.5562165585e+02 +1.5628652325e+02 6.8028805853e+02 0.0000000000e+00 0.0000e+00 1.0000e+00
       13  1    1    2    0    0 -5.5847972489e+02 -3.5562165585e+02 +1.7288177399e+02 6.8429121944e+02 0.0000000000e+00 0.0000e+00 -1.0000e+00
<mgrwt>
<rscale>  0 0.13242828E+04</rscale>
<asrwt>0</asrwt>
<pdfrwt beam="1">  1        2 0.13028827E+00 0.13242828E+04</pdfrwt>
<pdfrwt beam="2">  1       -2 0.79646999E-01 0.13242828E+04</pdfrwt>
<totfact> 0.54958183E+01</totfact>
</mgrwt>
<rwgt>
<wgt id='morphing_basis_vector_1'> +1.6532674e-04 </wgt>
<wgt id='morphing_basis_vector_2'> +1.1990755e-04 </wgt>
<wgt id='morphing_basis_vector_3'> +1.6961452e-04 </wgt>
<wgt id='morphing_basis_vector_4'> +9.7654929e-05 </wgt>
<wgt id='morphing_basis_vector_5'> +1.7025576e-04 </wgt>
</rwgt>
</event>
<event>
 4      1 +3.5234200e-07 1.34454200e+03 7.81860800e-03 8.41141200e-02
        2 -1    0    0  501    0 +0.0000000000e+00 +0.0000000000e+00 +1.6954417342e+03 1.6954417342e+03 0.0000000000e+00 0.0000e+00 -1.0000e+00
       -2 -1    0    0    0  501 -0.0000000000e+00 -0.0000000000e+00 -2.6656656346e+02 2.6656656346e+02 0.0000000000e+00 0.0000e+00 1.0000e+00
      -13  1    1    2    0    0 -1.7022835743e+02 +3.1422388225e+02 -1.1647564142e+02 3.7587353843e+02 0.0000000000e+00 0.0000e+00 1.0000e+00
       13  1    1    2    0    0 +1.7022835743e+02 -3.1422388225e+02 +1.5453508122e+03 1.5861347593e+03 0.0000000000e+00 0.0000e+00 -1.0000e+00
<mgrwt>
<rscale>  0 0.13445417E+04</rscale>
<asrwt>0</asrwt>
<pdfrwt beam="1">  1        2 0.26083718E+00 0.13445417E+04</pdfrwt>
<pdfrwt beam="2">  1       -2 0.41010242E-01 0.13445417E+04</pdfrwt>
<totfact> 0.67310857E+01</totfact>
</mgrwt>
<rwgt>
<wgt id='morphing_basis_vector_1'> +1.6938464e-04 </wgt>
<wgt id='morphing_basis_vector_2'> +1.0980797e-04 </wgt>
<wgt id='morphing_basis_vector_3'> +1.7306962e-04 </wgt>
<wgt id='morphing_basis_vector_4'> +1.1451951e-04 </wgt>
<wgt id='morphing_basis_vector_5'> +1.8217056e-04 </wgt>
</rwgt>
</event>
<event>
 4      1 +3.5234200e-07 1.30104100e+03 7.81860800e-03 8.44085600e-02
        2 -1    0    0  501    0 +0.0000000000e+00 +0.0000000000e+00 +2.7064724603e+03 2.7064724603e+03 0.0000000000e+00 0.0000e+00 -1.0000e+00
       -2 -1    0    0    0  501 -0.0000000000e+00 -0.0000000000e+00 -1.5635735591e+02 1.5635735591e+02 0.0000000000e+00 0.0000e+00 1.0000e+00
      -13  1    1    2    0    0 -5.5571126051e+01 +5.1454103103e+02 +4.0781418606e+02 6.5890290105e+02 0.0000000000e+00 0.0000e+00 1.0000e+00
       13  1    1    2    0    0 +5.5571126051e+01 -5.1454103103e+02 +2.1423009183e+03 2.2039269152e+03 0.0000000000e+00 0.0000e+00 -1.0000e+00
<mgrwt>
<rscale>  0 0.13010409E+04</rscale>
<asrwt>0</asrwt>
<pdfrwt beam="1">  1        2 0.41638034E+00 0.13010409E+04</pdfrwt>
<pdfrwt beam="2">  1       -2 0.24054980E-01 0.13010409E+04</pdfrwt>
<totfact> 0.46081682E+01</totfact>
</mgrwt>
<rwgt>
<wgt id='morphing_basis_vector_1'> +1.4970486e-04 </wgt>
<wgt id='morphing_basis_vector_2'> +9.7488286e-05 </wgt>
<wgt id='morphing_basis_vector_3'> +1.5222024e-04 </wgt>
<wgt id='morphing_basis_vector_4'> +9.9246549e-05 </wgt>
<wgt id='morphing_basis_vector_5'> +1.5868345e-04 </wgt>
</rwgt>
</event>
<event>
 4      1 +3.5234200e-07 1.44377600e+03 7.81860800e-03 8.34838300e-02
        2 -1    0    0  501    0 +0.0000000000e+00 +0.0000000000e+00 +2.1089381962e+03 2.1089381962e+03 0.0000000000e+00 0.0000e+00 -1.0000e+00
       -2 -1    0    0    0  501 -0.0000000000e+00 -0.0000000000e+00 -2.4710188116e+02 2.4710188116e+02 0.0000000000e+00 0.0000e+00 1.0000e+00
      -13  1    1    2    0    0 +4.3156766800e+02 +5.6275536752e+02 +7.1089933576e+02 1.0041524393e+03 0.0000000000e+00 0.0000e+00 1.0000e+00
       13  1    1    2    0    0 -4.3156766800e+02 -5.6275536752e+02 +1.1509369793e+03 1.3518876381e+03 0.0000000000e+00 0.0000e+00 -1.0000e+00
<mgrwt>
<rscale>  0 0.14437764E+04</rscale>
<asrwt>0</asrwt>
<pdfrwt beam="1">  1        2 0.32445202E+00 0.14437764E+04</pdfrwt>
<pdfrwt beam="2">  1       -2 0.38015675E-01 0.14437764E+04</pdfrwt>
<totfact> 0.45186734E+01</totfact>
</mgrwt>
<rwgt>
<wgt id='morphing_basis_vector_1'> +2.2654538e-04 </wgt>
<wgt id='morphing_basis_vector_2'> +1.5698613e-04 </wgt>
<wgt id='morphing_basis_vector_3'> +2.3487278e-04 </wgt>
<wgt id='morphing_basis_vector_4'> +1.4675509e-04 </wgt>
<wgt id='morphing_basis_vector_5'> +2.4461997e-04 </wgt>
</rwgt>
</event>
<event>
 4      1 +3.5234200e-07 1.44633600e+03 7.81860800e-03 8.34682800e-02
        2 -1    0    0  501    0 +0.0000000000e+00 +0.0000000000e+00 +1.0674415801e+03 1.0674415801e+03 0.0000000000e+00 0.0000e+00 1.0000e+00
       -2 -1    0    0    0  501 -0.0000000000e+00 -0.0000000000e+00 -4.8993010008e+02 4.8993010008e+02 0.0000000000e+00 0.0000e+00 -1.0000e+00
      -13  1    1    2    0    0 -5.4419395157e+01 -3.7725151321e+02 -3.7299100375e+02 5.3329397490e+02 0.0000000000e+00 0.0000e+00 -1.0000e+00
       13  1    1    2    0    0 +5.4419395157e+01 +3.7725151321e+02 +9.5050248381e+02 1.0240777053e+03 0.0000000000e+00 0.0000e+00 1.0000e+00
<mgrwt>
<rscale>  0 0.14463357E+04</rscale>
<asrwt>0</asrwt>
<pdfrwt beam="1">  1        2 0.16422178E+00 0.14463357E+04</pdfrwt>
<pdfrwt beam="2">  1       -2 0.75373862E-01 0.14463357E+04</pdfrwt>
<totfact> 0.44547424E+01</totfact>
</mgrwt>
<rwgt>
<wgt id='morphing_basis_vector_1'> +2.2412320e-04 </wgt>
<wgt id='morphing_basis_vector_2'> +1.4622920e-04 </wgt>
<wgt id='morphing_basis_vector_3'> +2.3143763e-04 </wgt>
<wgt id='morphing_basis_vector_4'> +1.5516543e-04 </wgt>
<wgt id='morphing_basis_vector_5'> +2.4696488e-04 </wgt>
</rwgt>
</event>
<event>
 4      1 +3.5234200e-07 1.51269600e+03 7.81860800e-03 8.30762900e-02
        2 -1    0    0  501    0 +0.0000000000e+00 +0.0000000000e+00 +2.5566005970e+03 2.5566005970e+03 0.0000000000e+00 0.0000e+00 -1.0000e+00
       -2 -1    0    0    0  501 -0.0000000000e+00 -0.0000000000e+00 -2.2375897669e+02 2.2375897669e+02 0.0000000000e+00 0.0000e+00 1.0000e+00
      -13  1    1    2    0    0 -9.4341385525e+01 -6.9712802262e+02 +6.5581428081e+02 9.6175888240e+02 0.0000000000e+00 0.0000e+00 1.0000e+00
       13  1    1    2    0    0 +9.4341385525e+01 +6.9712802262e+02 +1.6770273394e+03 1.8186006912e+03 0.0000000000e+00 0.0000e+00 -1.0000e+00
<mgrwt>
<rscale>  0 0.15126960E+04</rscale>
<asrwt>0</asrwt>
<pdfrwt beam="1">  1        2 0.39332315E+00 0.15126960E+04</pdfrwt>
<pdfrwt beam="2">  1       -2 0.34424460E-01 0.15126960E+04</pdfrwt>
<totfact> 0.29613512E+01</totfact>
</mgrwt>
<rwgt>
<wgt id='morphing_basis_vector_1'> +2.6860842e-04 </wgt>
<wgt id='morphing_basis_vector_2'> +1.8094655e-04 </wgt>
<wgt id='morphing_basis_vector_3'> +2.7960192e-04 </wgt>
<wgt id='morphing_basis_vector_4'> +1.8278893e-04 </wgt>
<wgt id='morphing_basis_vector_5'> +2.9719759e-04 </wgt>
</rwgt>
</event>
<event>
 4      1 +3.5234200e-07 1.33914800e+03 7.81860800e-03 8.41499900e-02
        2 -1    0    0  501    0 +0.0000000000e+00 +0.0000000000e+00 +1.2096293556e+03 1.2096293556e+03 0.0000000000e+00 0.0000e+00 1.0000e+00
       -2 -1    0    0    0  501 -0.0000000000e+00 -0.0000000000e+00 -3.7063384891e+02 3.7063384891e+02 0.0000000000e+00 0.0000e+00 -1.0000e+00
      -13  1    1    2    0    0 +5.5286889713e+02 -3.6251832998e+02 +5.4463894640e+02 8.5657173601e+02 0.0000000000e+00 0.0000e+00 -1.0000e+00
       13  1    1    2    0    0 -5.5286889713e+02 +3.6251832998e+02 +2.9435656028e+02 7.2369146849e+02 0.0000000000e+00 0.0000e+00 1.0000e+00
<mgrwt>
<rscale>  0 0.13391484E+04</rscale>
<asrwt>0</asrwt>
<pdfrwt beam="1">  1        2 0.18609682E+00 0.13391484E+04</pdfrwt>
<pdfrwt beam="2">  1       -2 0.57020593E-01 0.13391484E+04</pdfrwt>
<totfact> 0.66546099E+01</totfact>
</mgrwt>
<rwgt>
<wgt id='morphing_basis_vector_1'> +1.7727363e-04 </wgt>
<wgt id='morphing_basis_vector_2'> +1.3942420e-04 </wgt>
<wgt id='morphing_basis_vector_3'> +1.8317684e-04 </wgt>
<wgt id='morphing_basis_vector_4'> +9.3797054e-05 </wgt>
<wgt id='morphing_basis_vector_5'> +1.7779047e-04 </wgt>
</rwgt>
</event>
<event>
 4      1 +3.5234200e-07 1.35974000e+03 7.81860800e-03 8.40139800e-02
        2 -1    0    0  501    0 +0.0000000000e+00 +0.0000000000e+00 +2.0339574561e+03 2.0339574561e+03 0.0000000000e+00 0.0000e+00 1.0000e+00
       -2 -1    0    0    0  501 -0.0000000000e+00 -0.0000000000e+00 -2.2725306608e+02 2.2725306608e+02 0.0000000000e+00 0.0000e+00 -1.0000e+00
      -13  1    1    2    0    0 +6.7584602414e+02 -2.3231925240e+01 +7.8676014661e+02 1.0374483597e+03 0.0000000000e+00 0.0000e+00 1.0000e+00
       13  1    1    2    0    0 -6.7584602414e+02 +2.3231925240e+01 +1.0199442434e+03 1.2237621625e+03 0.0000000000e+00 0.0000e+00 -1.0000e+00
<mgrwt>
<rscale>  0 0.13597398E+04</rscale>
<asrwt>0</asrwt>
<pdfrwt beam="1">  1        2 0.31291652E+00 0.13597398E+04</pdfrwt>
<pdfrwt beam="2">  1       -2 0.34962011E-01 0.13597398E+04</pdfrwt>
<totfact> 0.58488895E+01</totfact>
</mgrwt>
<rwgt>
<wgt id='morphing_basis_vector_1'> +1.8116323e-04 </wgt>
<wgt id='morphing_basis_vector_2'> +1.2771036e-04 </wgt>
<wgt id='morphing_basis_vector_3'> +1.8635891e-04 </wgt>
<wgt id='morphing_basis_vector_4'> +1.1218922e-04 </wgt>
<wgt id='morphing_basis_vector_5'> +1.9037374e-04 </wgt>
</rwgt>
</event>
<event>
 4      1 +3.5234200e-07 1.47341700e+03 7.81860800e-03 8.33057300e-02
        2 -1    0    0  501    0 +0.0000000000e+00 +0.0000000000e+00 +1.4067369669e+03 1.4067369669e+03 0.0000000000e+00 0.0000e+00 1.0000e+00
       -2 -1    0    0    0  501 -0.0000000000e+00 -0.0000000000e+00 -3.8581421933e+02 3.8581421933e+02 0.0000000000e+00 0.0000e+00 -1.0000e+00
      -13  1    1    2    0    0 +1.6062322427e+02 -4.0649706335e+02 -2.1103116592e+02 4.8535949117e+02 0.0000000000e+00 0.0000e+00 -1.0000e+00
       13  1    1    2    0    0 -1.6062322427e+02 +4.0649706335e+02 +1.2319539135e+03 1.3071916951e+03 0.0000000000e+00 0.0000e+00 1.0000e+00
<mgrwt>
<rscale>  0 0.14734166E+04</rscale>
<asrwt>0</asrwt>
<pdfrwt beam="1">  1        2 0.21642107E+00 0.14734166E+04</pdfrwt>
<pdfrwt beam="2">  1       -2 0.59356035E-01 0.14734166E+04</pdfrwt>
<totfact> 0.46786789E+01</totfact>
</mgrwt>
<rwgt>
<wgt id='morphing_basis_vector_1'> +2.4076904e-04 </wgt>
<wgt id='morphing_basis_vector_2'> +1.5744312e-04 </wgt>
<wgt id='morphing_basis_vector_3'> +2.4925601e-04 </wgt>
<wgt id='morphing_basis_vector_4'> +1.6748277e-04 </wgt>
<wgt id='morphing_basis_vector_5'> +2.6674203e-04 </wgt>
</rwgt>
</event>
<event>
 4      1 +3.5234200e-07 1.32764300e+03 7.81860800e-03 8.42271000e-02
        2 -1    0    0  501    0 +0.0000000000e+00 +0.0000000000e+00 +8.5855775267e+02 8.5855775267e+02 0.0000000000e+00 0.0000e+00 -1.0000e+00
       -2 -1    0    0    0  501 -0.0000000000e+00 -0.0000000000e+00 -5.1325500102e+02 5.1325500102e+02 0.0000000000e+00 0.0000e+00 1.0000e+00
      -13  1    1    2    0    0 +4.3656713403e+02 -3.5321803046e+02 +5.3841294454e+02 7.7797322474e+02 0.0000000000e+00 0.0000e+00 -1.0000e+00
       13  1    1    2    0    0 -4.3656713403e+02 +3.5321803046e+02 -1.9311019289e+02 5.9383952896e+02 0.0000000000e+00 0.0000e+00 1.0000e+00
<mgrwt>
<rscale>  0 0.13276431E+04</rscale>
<asrwt>0</asrwt>
<pdfrwt beam="1">  1        2 0.13208581E+00 0.13276431E+04</pdfrwt>
<pdfrwt beam="2">  1       -2 0.78962308E-01 0.13276431E+04</pdfrwt>
<totfact> 0.55019914E+01</totfact>
</mgrwt>
<rwgt>
<wgt id='morphing_basis_vector_1'> +1.9347871e-04 </wgt>
<wgt id='morphing_basis_vector_2'> +2.0053209e-04 </wgt>
<wgt id='morphing_basis_vector_3'> +2.0373679e-04 </wgt>
<wgt id='morphing_basis_vector_4'> +5.1158644e-05 </wgt>
<wgt id='morphing_basis_vector_5'> +1.6869230e-04 </wgt>
</rwgt>
</event>
<event>
 4      1 +3.5234200e-07 1.46194600e+03 7.81860800e-03 8.33741400e-02
        2 -1    0    0  501    0 +0.0000000000e+00 +0.0000000000e+00 +9.0306896541e+02 9.0306896541e+02 0.0000000000e+00 0.0000e+00 -1.0000e+00
       -2 -1    0    0    0  501 -0.0000000000e+00 -0.0000000000e+00 -5.9167302518e+02 5.9167302518e+02 0.0000000000e+00 0.0000e+00 1.0000e+00
      -13  1    1    2    0    0 -4.3613153757e+02 -4.0396650734e+02 -2.7919306282e+02 6.5677121088e+02 0.0000000000e+00 0.0000e+00 1.0000e+00
       13  1    1    2    0    0 +4.3613153757e+02 +4.0396650734e+02 +5.9058900305e+02 8.3797077971e+02 0.0000000000e+00 0.0000e+00 -1.0000e+00
<mgrwt>
<rscale>  0 0.14619460E+04</rscale>
<asrwt>0</asrwt>
<pdfrwt beam="1">  1        2 0.13893369E+00 0.14619460E+04</pdfrwt>
<pdfrwt beam="2">  1       -2 0.91026619E-01 0.14619460E+04</pdfrwt>
<totfact> 0.36672755E+01</totfact>
</mgrwt>
<rwgt>
<wgt id='morphing_basis_vector_1'> +2.3417033e-04 </wgt>
<wgt id='morphing_basis_vector_2'> +1.5429527e-04 </wgt>
<wgt id='morphing_basis_vector_3'> +2.4231415e-04 </wgt>
<wgt id='morphing_basis_vector_4'> +1.6113872e-04 </wgt>
<wgt id='morphing_basis_vector_5'> +2.5815054e-04 </wgt>
</rwgt>
</event>
<event>
 4      1 +3.5234200e-07 1.33057100e+03 7.81860800e-03 8.42074000e-02
        2 -1    0    0  501    0 +0.0000000000e+00 +0.0000000000e+00 +2.0683438439e+02 2.0683438439e+02 0.0000000000e+00 0.0000e+00 1.0000e+00
       -2 -1    0    0    0  501 -0.0000000000e+00 -0.0000000000e+00 -2.1398991976e+03 2.1398991976e+03 0.0000000000e+00 0.0000e+00 -1.0000e+00
      -13  1    1    2    0    0 +5.0970228842e+02 -1.2407761695e+02 -1.6881721224e+03 1.7677999866e+03 0.0000000000e+00 0.0000e+00 -1.0000e+00
       13  1    1    2    0    0 -5.0970228842e+02 +1.2407761695e+02 -2.4489269083e+02 5.7893359539e+02 0.0000000000e+00 0.0000e+00 1.0000e+00
<mgrwt>
<rscale>  0 0.13305709E+04</rscale>
<asrwt>0</asrwt>
<pdfrwt beam="1">  1        2 0.31820674E-01 0.13305709E+04</pdfrwt>
<pdfrwt beam="2">  1       -2 0.32921527E+00 0.13305709E+04</pdfrwt>
<totfact> 0.30419024E+00</totfact>
</mgrwt>
<rwgt>
<wgt id='morphing_basis_vector_1'> +1.6307714e-04 </wgt>
<wgt id='morphing_basis_vector_2'> +1.0637468e-04 </wgt>
<wgt id='morphing_basis_vector_3'> +1.6641839e-04 </wgt>
<wgt id='morphing_basis_vector_4'> +1.0905079e-04 </wgt>
<wgt id='morphing_basis_vector_5'> +1.7433773e-04 </wgt>
</rwgt>
</event>
<event>
 4      1 +3.5234200e-07 1.31244700e+03 7.81860800e-03 8.43302000e-02
        2 -1    0    0  501    0 +0.0000000000e+00 +0.0000000000e+00 +3.7330537768e+02 3.7330537768e+02 0.0000000000e+00 0.0000e+00 -1.0000e+00
       -2 -1    0    0    0  501 -0.0000000000e+00 -0.0000000000e+00 -1.1535579359e+03 1.1535579359e+03 0.0000000000e+00 0.0000e+00 1.0000e+00
      -13  1    1    2    0    0 -5.5102934802e+02 -3.0771224535e+02 -5.9923951530e+02 8.7029199986e+02 0.0000000000e+00 0.0000e+00 1.0000e+00
       13  1    1    2    0    0 +5.5102934802e+02 +3.0771224535e+02 -1.8101304293e+02 6.5657131374e+02 0.0000000000e+00 0.0000e+00 -1.0000e+00
<mgrwt>
<rscale>  0 0.13124472E+04</rscale>
<asrwt>0</asrwt>
<pdfrwt beam="1">  1        2 0.57431597E-01 0.13124472E+04</pdfrwt>
<pdfrwt beam="2">  1       -2 0.17747045E+00 0.13124472E+04</pdfrwt>
<totfact> 0.17812189E+01</totfact>
</mgrwt>
<rwgt>
<wgt id='morphing_basis_vector_1'> +1.5634894e-04 </wgt>
<wgt id='morphing_basis_vector_2'> +1.0558767e-04 </wgt>
<wgt id='morphing_basis_vector_3'> +1.5950773e-04 </wgt>
<wgt id='morphing_basis_vector_4'> +1.0013196e-04 </wgt>
<wgt id='morphing_basis_vector_5'> +1.6440177e-04 </wgt>
</rwgt>
</event>
<event>
 4      1 +3.5234200e-07 1.30950800e+03 7.81860800e-03 8.43503100e-02
        2 -1    0    0  501    0 +0.0000000000e+00 +0.0000000000e+00 +7.0546469296e+02 7.0546469296e+02 0.0000000000e+00 0.0000e+00 -1.0000e+00
       -2 -1    0    0    0  501 -0.0000000000e+00 -0.0000000000e+00 -6.0768855058e+02 6.0768855058e+02 0.0000000000e+00 0.0000e+00 1.0000e+00
      -13  1    1    2    0    0 -2.0677789832e+02 +4.7476071531e+02 -3.5291168637e+02 6.2665899372e+02 0.0000000000e+00 0.0000e+00 1.0000e+00
       13  1    1    2    0    0 +2.0677789832e+02 -4.7476071531e+02 +4.5068782875e+02 6.8649424981e+02 0.0000000000e+00 0.0000e+00 -1.0000e+00
<mgrwt>
<rscale>  0 0.13095080E+04</rscale>
<asrwt>0</asrwt>
<pdfrwt beam="1">  1        2 0.10853303E+00 0.13095080E+04</pdfrwt>
<pdfrwt beam="2">  1       -2 0.93490546E-01 0.13095080E+04</pdfrwt>
<totfact> 0.47922742E+01</totfact>
</mgrwt>
<rwgt>
<wgt id='morphing_basis_vector_1'> +1.5344236e-04 </wgt>
<wgt id='morphing_basis_vector_2'> +9.9952895e-05 </wgt>
<wgt id='morphing_basis_vector_3'> +1.5618473e-04 </wgt>
<wgt id='morphing_basis_vector_4'> +1.0200205e-04 </wgt>
<wgt id='morphing_basis_vector_5'> +1.6306211e-04 </wgt>
</rwgt>
</event>
<event>
 4      1 +3.5234200e-07 1.34425700e+03 7.81860800e-03 8.41160000e-02
        2 -1    0    0  501    0 +0.0000000000e+00 +0.0000000000e+00 +2.9722010289e+03 2.9722010289e+03 0.0000000000e+00 0.0000e+00 1.0000e+00
       -2 -1    0    0    0  501 -0.0000000000e+00 -0.0000000000e+00 -1.5199404686e+02 1.5199404686e+02 0.0000000000e+00 0.0000e+00 -1.0000e+00
      -13  1    1    2    0    0 -4.4436700644e+02 +4.7235748600e+02 +9.9976082017e+02 1.1916817228e+03 0.0000000000e+00 0.0000e+00 -1.0000e+00
       13  1    1    2    0    0 +4.4436700644e+02 -4.7235748600e+02 +1.8204461619e+03 1.9325133529e+03 0.0000000000e+00 0.0000e+00 1.0000e+00
<mgrwt>
<rscale>  0 0.13442572E+04</rscale>
<asrwt>0</asrwt>
<pdfrwt beam="1">  1        2 0.45726165E+00 0.13442572E+04</pdfrwt>
<pdfrwt beam="2">  1       -2 0.23383702E-01 0.13442572E+04</pdfrwt>
<totfact> 0.32834932E+01</totfact>
</mgrwt>
<rwgt>
<wgt id='morphing_basis_vector_1'> +1.7143596e-04 </wgt>
<wgt id='morphing_basis_vector_2'> +1.1626305e-04 </wgt>
<wgt id='morphing_basis_vector_3'> +1.7561640e-04 </wgt>
<wgt id='morphing_basis_vector_4'> +1.1048099e-04 </wgt>
<wgt id='morphing_basis_vector_5'> +1.8172808e-04 </wgt>
</rwgt>
</event>
<event>
 4      1 +3.5234200e-07 1.42192000e+03 7.81860800e-03 8.36180300e-02
        2 -1    0    0  501    0 +0.0000000000e+00 +0.0000000000e+00 +6.7706707073e+02 6.7706707073e+02 0.0000000000e+00 0.0000e+00 -1.0000e+00
       -2 -1    0    0    0  501 -0.0000000000e+00 -0.0000000000e+00 -7.4654982677e+02 7.4654982677e+02 0.0000000000e+00 0.0000e+00 1.0000e+00
      -13  1    1    2    0    0 -4.6944201875e+02 +2.6134201648e+02 -5.0090283177e+02 7.3456048452e+02 0.0000000000e+00 0.0000e+00 1.0000e+00
       13  1    1    2    0    0 +4.6944201875e+02 -2.6134201648e+02 +4.3142007572e+02 6.8905641299e+02 0.0000000000e+00 0.0000e+00 -1.0000e+00
<mgrwt>
<rscale>  0 0.14219203E+04</rscale>
<asrwt>0</asrwt>
<pdfrwt beam="1">  1        2 0.10416416E+00 0.14219203E+04</pdfrwt>
<pdfrwt beam="2">  1       -2 0.11485382E+00 0.14219203E+04</pdfrwt>
<totfact> 0.30163094E+01</totfact>
</mgrwt>
<rwgt>
<wgt id='morphing_basis_vector_1'> +2.1022895e-04 </wgt>
<wgt id='morphing_basis_vector_2'> +1.3769064e-04 </wgt>
<wgt id='morphing_basis_vector_3'> +2.1665606e-04 </wgt>
<wgt id='morphing_basis_vector_4'> +1.4400542e-04 </wgt>
<wgt id='morphing_basis_vector_5'> +2.3003777e-04 </wgt>
</rwgt>
</event>
<event>
 4      1 +3.5234200e-07 1.30895100e+03 7.81860800e-03 8.43541300e-02
        2 -1    0    0  501    0 +0.0000000000e+00 +0.0000000000e+00 +7.4276527825e+02 7.4276527825e+02 0.0000000000e+00 0.0000e+00 -1.0000e+00
       -2 -1    0    0    0  501 -0.0000000000e+00 -0.0000000000e+00 -5.7668000526e+02 5.7668000526e+02 0.0000000000e+00 0.0000e+00 1.0000e+00
      -13  1    1    2    0    0 +6.3309432200e+02 -5.8495544078e+01 +2.3955417231e+02 6.7942354294e+02 0.0000000000e+00 0.0000e+00 1.0000e+00
       13  1    1    2    0    0 -6.3309432200e+02 +5.8495544078e+01 -7.3468899328e+01 6.4002174057e+02 0.0000000000e+00 0.0000e+00 -1.0000e+00
<mgrwt>
<rscale>  0 0.13089505E+04</rscale>
<asrwt>0</asrwt>
<pdfrwt beam="1">  1        2 0.11427158E+00 0.13089505E+04</pdfrwt>
<pdfrwt beam="2">  1       -2 0.88720001E-01 0.13089505E+04</pdfrwt>
<totfact> 0.50821027E+01</totfact>
</mgrwt>
<rwgt>
<wgt id='morphing_basis_vector_1'> +1.6538568e-04 </wgt>
<wgt id='morphing_basis_vector_2'> +1.3629200e-04 </wgt>
<wgt id='morphing_basis_vector_3'> +1.7065914e-04 </wgt>
<wgt id='morphing_basis_vector_4'> +8.0104891e-05 </wgt>
<wgt id='morphing_basis_vector_5'> +1.6123638e-04 </wgt>
</rwgt>
</event>
<event>
 4      1 +3.5234200e-07 1.29799200e+03 7.81860800e-03 8.44296500e-02
        2 -1    0    0  501    0 +0.0000000000e+00 +0.0000000000e+00 +1.5747910000e+03 1.5747910000e+03 0.0000000000e+00 0.0000e+00 -1.0000e+00
       -2 -1    0    0    0  501 -0.0000000000e+00 -0.0000000000e+00 -2.6746130827e+02 2.6746130827e+02 0.0000000000e+00 0.0000e+00 1.0000e+00
      -13  1    1    2    0    0 -6.3847440739e+02 +1.1258454346e+02 +6.1178167317e+02 8.9140432125e+02 0.0000000000e+00 0.0000e+00 1.0000e+00
       13  1    1    2    0    0 +6.3847440739e+02 -1.1258454346e+02 +6.9554801861e+02 9.5084798706e+02 0.0000000000e+00 0.0000e+00 -1.0000e+00
<mgrwt>
<rscale>  0 0.12979918E+04</rscale>
<asrwt>0</asrwt>
<pdfrwt beam="1">  1        2 0.24227553E+00 0.12979918E+04</pdfrwt>
<pdfrwt beam="2">  1       -2 0.41147895E-01 0.12979918E+04</pdfrwt>
<totfact> 0.78338007E+01</totfact>
</mgrwt>
<rwgt>
<wgt id='morphing_basis_vector_1'> +1.5255481e-04 </wgt>
<wgt id='morphing_basis_vector_2'> +1.0912751e-04 </wgt>
<wgt id='morphing_basis_vector_3'> +1.5583348e-04 </wgt>
<wgt id='morphing_basis_vector_4'> +9.0849949e-05 </wgt>
<wgt id='morphing_basis_vector_5'> +1.5660567e-04 </wgt>
</rwgt>
</event>
<event>
 4      1 +3.5234200e-07 1.31700800e+03 7.81860800e-03 8.42991100e-02
        2 -1    0    0  501    0 +0.0000000000e+00 +0.0000000000e+00 +1.6466505096e+03 1.6466505096e+03 0.0000000000e+00 0.0000e+00 -1.0000e+00
       -2 -1    0    0    0  501 -0.0000000000e+00 -0.0000000000e+00 -2.6333902461e+02 2.6333902461e+02 0.0000000000e+00 0.0000e+00 1.0000e+00
      -13  1    1    2    0    0 -2.3866899493e+02 +4.8201797166e+02 +1.4070772333e+02 5.5597021283e+02 0.0000000000e+00 0.0000e+00 1.0000e+00
       13  1    1    2    0    0 +2.3866899493e+02 -4.8201797166e+02 +1.2426037616e+03 1.3540193214e+03 0.0000000000e+00 0.0000e+00 -1.0000e+00
<mgrwt>
<rscale>  0 0.13170077E+04</rscale>
<asrwt>0</asrwt>
<pdfrwt beam="1">  1        2 0.25333084E+00 0.13170077E+04</pdfrwt>
<pdfrwt beam="2">  1       -2 0.40513697E-01 0.13170077E+04</pdfrwt>
<totfact> 0.73458411E+01</totfact>
</mgrwt>
<rwgt>
<wgt id='morphing_basis_vector_1'> +1.5691124e-04 </wgt>
<wgt id='morphing_basis_vector_2'> +1.0247259e-04 </wgt>
<wgt id='morphing_basis_vector_3'> +1.5988124e-04 </wgt>
<wgt id='morphing_basis_vector_4'> +1.0431224e-04 </wgt>
<wgt id='morphing_basis_vector_5'> +1.6700188e-04 </wgt>
</rwgt>
</event>
<event>
 4      1 +3.5234200e-07 1.32638400e+03 7.81860800e-03 8.42355900e-02
        2 -1    0    0  501    0 +0.0000000000e+00 +0.0000000000e+00 +1.4825079987e+03 1.4825079987e+03 0.0000000000e+00 0.0000e+00 -1.0000e+00
       -2 -1    0    0    0  501 -0.0000000000e+00 -0.0000000000e+00 -2.9667516192e+02 2.9667516192e+02 0.0000000000e+00 0.0000e+00 1.0000e+00
      -13  1    1    2    0    0 -3.7632370173e+02 +1.4782744060e+02 -1.1223425642e+02 4.1960577807e+02 0.0000000000e+00 0.0000e+00 1.0000e+00
       13  1    1    2    0    0 +3.7632370173e+02 -1.4782744060e+02 +1.2980670932e+03 1.3595773825e+03 0.0000000000e+00 0.0000e+00 -1.0000e+00
<mgrwt>
<rscale>  0 0.13263835E+04</rscale>
<asrwt>0</asrwt>
<pdfrwt beam="1">  1        2 0.22807815E+00 0.13263835E+04</pdfrwt>
<pdfrwt beam="2">  1       -2 0.45642333E-01 0.13263835E+04</pdfrwt>
<totfact> 0.72266338E+01</totfact>
</mgrwt>
<rwgt>
<wgt id='morphing_basis_vector_1'> +1.6084621e-04 </wgt>
<wgt id='morphing_basis_vector_2'> +1.0423651e-04 </wgt>
<wgt id='morphing_basis_vector_3'> +1.6400363e-04 </wgt>
<wgt id='morphing_basis_vector_4'> +1.0812249e-04 </wgt>
<wgt id='morphing_basis_vector_5'> +1.7208719e-04 </wgt>
</rwgt>
</event>
<event>
 4      1 +3.5234200e-07 1.36886700e+03 7.81860800e-03 8.39544900e-02
        2 -1    0    0  501    0 +0.0000000000e+00 +0.0000000000e+00 +8.3036064688e+02 8.3036064688e+02 0.0000000000e+00 0.0000e+00 -1.0000e+00
       -2 -1    0    0    0  501 -0.0000000000e+00 -0.0000000000e+00 -5.6415157370e+02 5.6415157370e+02 0.0000000000e+00 0.0000e+00 1.0000e+00
      -13  1    1    2    0    0 +2.5061979695e+02 +6.2717251676e+02 +2.0150724711e+01 6.7569349569e+02 0.0000000000e+00 0.0000e+00 1.0000e+00
       13  1    1    2    0    0 -2.5061979695e+02 -6.2717251676e+02 +2.4605834847e+02 7.1881872489e+02 0.0000000000e+00 0.0000e+00 -1.0000e+00
<mgrwt>
<rscale>  0 0.13688671E+04</rscale>
<asrwt>0</asrwt>
<pdfrwt beam="1">  1        2 0.12774779E+00 0.13688671E+04</pdfrwt>
<pdfrwt beam="2">  1       -2 0.86792550E-01 0.13688671E+04</pdfrwt>
<totfact> 0.46164771E+01</totfact>
</mgrwt>
<rwgt>
<wgt id='morphing_basis_vector_1'> +1.8495938e-04 </wgt>
<wgt id='morphing_basis_vector_2'> +1.2838559e-04 </wgt>
<wgt id='morphing_basis_vector_3'> +1.9027892e-04 </wgt>
<wgt id='morphing_basis_vector_4'> +1.1700225e-04 </wgt>
<wgt id='morphing_basis_vector_5'> +1.9588578e-04 </wgt>
</rwgt>
</event>
<event>
 4      1 +3.5234200e-07 1.37974300e+03 7.81860800e-03 8.38842400e-02
        2 -1    0    0  501    0 +0.0000000000e+00 +0.0000000000e+00 +1.5044447049e+03 1.5044447049e+03 0.0000000000e+00 0.0000e+00 -1.0000e+00
       -2 -1    0    0    0  501 -0.0000000000e+00 -0.0000000000e+00 -3.1634450148e+02 3.1634450148e+02 0.0000000000e+00 0.0000e+00 1.0000e+00
      -13  1    1    2    0    0 +5.1724927900e+02 +1.8938170192e+02 +4.5938161952e+01 5.5274095232e+02 0.0000000000e+00 0.0000e+00 1.0000e+00
       13  1    1    2    0    0 -5.1724927900e+02 -1.8938170192e+02 +1.1421620414e+03 1.2680482540e+03 0.0000000000e+00 0.0000e+00 -1.0000e+00
<mgrwt>
<rscale>  0 0.13797432E+04</rscale>
<asrwt>0</asrwt>
<pdfrwt beam="1">  1        2 0.23145303E+00 0.13797432E+04</pdfrwt>
<pdfrwt beam="2">  1       -2 0.48668386E-01 0.13797432E+04</pdfrwt>
<totfact> 0.61780305E+01</totfact>
</mgrwt>
<rwgt>
<wgt id='morphing_basis_vector_1'> +1.8741665e-04 </wgt>
<wgt id='morphing_basis_vector_2'> +1.2274402e-04 </wgt>
<wgt id='morphing_basis_vector_3'> +1.9233674e-04 </wgt>
<wgt id='morphing_basis_vector_4'> +1.2680570e-04 </wgt>
<wgt id='morphing_basis_vector_5'> +2.0288866e-04 </wgt>
</rwgt>
</event>
<event>
 4      1 +3.5234200e-07 1.54151500e+03 7.81860800e-03 8.29124800e-02
        2 -1    0    0  501    0 +0.0000000000e+00 +0.0000000000e+00 +2.1417492216e+03 2.1417492216e+03 0.0000000000e+00 0.0000e+00 -1.0000e+00
       -2 -1    0    0    0  501 -0.0000000000e+00 -0.0000000000e+00 -2.7737480932e+02 2.7737480932e+02 0.0000000000e+00 0.0000e+00 1.0000e+00
      -13  1    1    2    0    0 +2.7072009411e+02 -5.2372340396e+02 +1.5305441904e+02 6.0909870169e+02 0.0000000000e+00 0.0000e+00 1.0000e+00
       13  1    1    2    0    0 -2.7072009411e+02 +5.2372340396e+02 +1.7113199932e+03 1.8100253292e+03 0.0000000000e+00 0.0000e+00 -1.0000e+00
<mgrwt>
<rscale>  0 0.15415152E+04</rscale>
<asrwt>0</asrwt>
<pdfrwt beam="1">  1        2 0.32949987E+00 0.15415152E+04</pdfrwt>
<pdfrwt beam="2">  1       -2 0.42673049E-01 0.15415152E+04</pdfrwt>
<totfact> 0.34578824E+01</totfact>
</mgrwt>
<rwgt>
<wgt id='morphing_basis_vector_1'> +2.8704552e-04 </wgt>
<wgt id='morphing_basis_vector_2'> +1.8930059e-04 </wgt>
<wgt id='morphing_basis_vector_3'> +2.9897581e-04 </wgt>
<wgt id='morphing_basis_vector_4'> +2.0115476e-04 </wgt>
<wgt id='morphing_basis_vector_5'> +3.2161379e-04 </wgt>
</rwgt>
</event>
<event>
 4      1 +3.5234200e-07 1.40416700e+03 7.81860800e-03 8.37288900e-02
        2 -1    0    0  501    0 +0.0000000000e+00 +0.0000000000e+00 +2.6563917202e+03 2.6563917202e+03 0.0000000000e+00 0.0000e+00 -1.0000e+00
       -2 -1    0    0    0  501 -0.0000000000e+00 -0.0000000000e+00 -1.8556052647e+02 1.8556052647e+02 0.0000000000e+00 0.0000e+00 1.0000e+00
      -13  1    1    2    0    0 -6.1007908511e+02 +2.8657296783e+02 +1.6330615651e+03 1.7666948326e+03 0.0000000000e+00 0.0000e+00 1.0000e+00
       13  1    1    2    0    0 +6.1007908511e+02 -2.8657296783e+02 +8.3776962863e+02 1.0752574141e+03 0.0000000000e+00 0.0000e+00 -1.0000e+00
<mgrwt>
<rscale>  0 0.14041673E+04</rscale>
<asrwt>0</asrwt>
<pdfrwt beam="1">  1        2 0.40867562E+00 0.14041673E+04</pdfrwt>
<pdfrwt beam="2">  1       -2 0.28547775E-01 0.14041673E+04</pdfrwt>
<totfact> 0.36377212E+01</totfact>
</mgrwt>
<rwgt>
<wgt id='morphing_basis_vector_1'> +2.1887672e-04 </wgt>
<wgt id='morphing_basis_vector_2'> +1.8647900e-04 </wgt>
<wgt id='morphing_basis_vector_3'> +2.2952131e-04 </wgt>
<wgt id='morphing_basis_vector_4'> +1.0277543e-04 </wgt>
<wgt id='morphing_basis_vector_5'> +2.1584860e-04 </wgt>
</rwgt>
</event>
<event>
 4      1 +3.5234200e-07 1.29185000e+03 7.81860800e-03 8.44723100e-02
        2 -1    0    0  501    0 +0.0000000000e+00 +0.0000000000e+00 +1.5311799359e+03 1.5311799359e+03 0.0000000000e+00 0.0000e+00 -1.0000e+00
       -2 -1    0    0    0  501 -0.0000000000e+00 -0.0000000000e+00 -2.7248220407e+02 2.7248220407e+02 0.0000000000e+00 0.0000e+00 1.0000e+00
      -13  1    1    2    0    0 +4.1398679984e+02 +4.3577180441e+02 +2.9913662675e+02 6.7139024227e+02 0.0000000000e+00 0.0000e+00 1.0000e+00
       13  1    1    2    0    0 -4.1398679984e+02 -4.3577180441e+02 +9.5956110510e+02 1.1322718977e+03 0.0000000000e+00 0.0000e+00 -1.0000e+00
<mgrwt>
<rscale>  0 0.12918503E+04</rscale>
<asrwt>0</asrwt>
<pdfrwt beam="1">  1        2 0.23556614E+00 0.12918503E+04</pdfrwt>
<pdfrwt beam="2">  1       -2 0.41920340E-01 0.12918503E+04</pdfrwt>
<totfact> 0.80033953E+01</totfact>
</mgrwt>
<rwgt>
<wgt id='morphing_basis_vector_1'> +1.4659005e-04 </wgt>
<wgt id='morphing_basis_vector_2'> +9.7450991e-05 </wgt>
<wgt id='morphing_basis_vector_3'> +1.4903693e-04 </wgt>
<wgt id='morphing_basis_vector_4'> +9.4789108e-05 </wgt>
<wgt id='morphing_basis_vector_5'> +1.5392206e-04 </wgt>
</rwgt>
</event>
<event>
 4      1 +3.5234200e-07 1.37308700e+03 7.81860800e-03 8.39271500e-02
        2 -1    0    0  501    0 +0.0000000000e+00 +0.0000000000e+00 +1.1881498026e+03 1.1881498026e+03 0.0000000000e+00 0.0000e+00 1.0000e+00
       -2 -1    0    0    0  501 -0.0000000000e+00 -0.0000000000e+00 -3.9670231628e+02 3.9670231628e+02 0.0000000000e+00 0.0000e+00 -1.0000e+00
      -13  1    1    2    0    0 -4.3484362199e+02 +5.1904715763e+01 +1.0060011468e+03 1.0971879431e+03 0.0000000000e+00 0.0000e+00 -1.0000e+00
       13  1    1    2    0    0 +4.3484362199e+02 -5.1904715763e+01 -2.1455366050e+02 4.8766417578e+02 0.0000000000e+00 0.0000e+00 1.0000e+00
<mgrwt>
<rscale>  0 0.13730867E+04</rscale>
<asrwt>0</asrwt>
<pdfrwt beam="1">  1        2 0.18279228E+00 0.13730867E+04</pdfrwt>
<pdfrwt beam="2">  1       -2 0.61031126E-01 0.13730867E+04</pdfrwt>
<totfact> 0.59456366E+01</totfact>
</mgrwt>
<rwgt>
<wgt id='morphing_basis_vector_1'> +2.4212448e-04 </wgt>
<wgt id='morphing_basis_vector_2'> +2.9425836e-04 </wgt>
<wgt id='morphing_basis_vector_3'> +2.6116992e-04 </wgt>
<wgt id='morphing_basis_vector_4'> +1.8840913e-05 </wgt>
<wgt id='morphing_basis_vector_5'> +1.9123975e-04 </wgt>
</rwgt>
</event>
<event>
 4      1 +3.5234200e-07 1.39996900e+03 7.81860800e-03 8.37553600e-02
        2 -1    0    0  501    0 +0.0000000000e+00 +0.0000000000e+00 +4.6969797402e+02 4.6969797402e+02 0.0000000000e+00 0.0000e+00 -1.0000e+00
       -2 -1    0    0    0  501 -0.0000000000e+00 -0.0000000000e+00 -1.0431774705e+03 1.0431774705e+03 0.0000000000e+00 0.0000e+00 1.0000e+00
      -13  1    1    2    0    0 -4.4040077759e+02 -1.0056110616e+01 -8.7460136422e+02 9.7927601653e+02 0.0000000000e+00 0.0000e+00 1.0000e+00
       13  1    1    2    0    0 +4.4040077759e+02 +1.0056110616e+01 +3.0112186777e+02 5.3359942795e+02 0.0000000000e+00 0.0000e+00 -1.0000e+00
<mgrwt>
<rscale>  0 0.13999691E+04</rscale>
<asrwt>0</asrwt>
<pdfrwt beam="1">  1        2 0.72261227E-01 0.13999691E+04</pdfrwt>
<pdfrwt beam="2">  1       -2 0.16048884E+00 0.13999691E+04</pdfrwt>
<totfact> 0.18516787E+01</totfact>
</mgrwt>
<rwgt>
<wgt id='morphing_basis_vector_1'> +1.9781480e-04 </wgt>
<wgt id='morphing_basis_vector_2'> +1.2887458e-04 </wgt>
<wgt id='morphing_basis_vector_3'> +2.0335873e-04 </wgt>
<wgt id='morphing_basis_vector_4'> +1.3538603e-04 </wgt>
<wgt id='morphing_basis_vector_5'> +2.1563203e-04 </wgt>
</rwgt>
</event>
<event>
 4      1 +3.5234200e-07 1.42732800e+03 7.81860800e-03 8.35846000e-02
        2 -1    0    0  501    0 +0.0000000000e+00 +0.0000000000e+00 +6.7327316135e+02 6.7327316135e+02 0.0000000000e+00 0.0000e+00 -1.0000e+00
       -2 -1    0    0    0  501 -0.0000000000e+00 -0.0000000000e+00 -7.5647824538e+02 7.5647824538e+02 0.0000000000e+00 0.0000e+00 1.0000e+00
      -13  1    1    2    0    0 -6.2367390511e+02 +3.2278654899e+02 -1.6892538376e+02 7.2228531856e+02 0.0000000000e+00 0.0000e+00 1.0000e+00
       13  1    1    2    0    0 +6.2367390511e+02 -3.2278654899e+02 +8.5720299718e+01 7.0746608817e+02 0.0000000000e+00 0.0000e+00 -1.0000e+00
<mgrwt>
<rscale>  0 0.14273283E+04</rscale>
<asrwt>0</asrwt>
<pdfrwt beam="1">  1        2 0.10358049E+00 0.14273283E+04</pdfrwt>
<pdfrwt beam="2">  1       -2 0.11638127E+00 0.14273283E+04</pdfrwt>
<totfact> 0.29346296E+01</totfact>
</mgrwt>
<rwgt>
<wgt id='morphing_basis_vector_1'> +2.1691023e-04 </wgt>
<wgt id='morphing_basis_vector_2'> +1.5048067e-04 </wgt>
<wgt id='morphing_basis_vector_3'> +2.2453782e-04 </wgt>
<wgt id='morphing_basis_vector_4'> +1.3969642e-04 </wgt>
<wgt id='morphing_basis_vector_5'> +2.3321931e-04 </wgt>
</rwgt>
</event>
<event>
 4      1 +3.5234200e-07 1.35147600e+03 7.81860800e-03 8.40682600e-02
        2 -1    0    0  501    0 +0.0000000000e+00 +0.0000000000e+00 +1.9386960310e+03 1.9386960310e+03 0.0000000000e+00 0.0000e+00 -1.0000e+00
       -2 -1    0    0    0  501 -0.0000000000e+00 -0.0000000000e+00 -2.3553036730e+02 2.3553036730e+02 0.0000000000e+00 0.0000e+00 1.0000e+00
      -13  1    1    2    0    0 +3.3371752675e+02 -3.8071798009e+02 +1.3156071042e+02 5.2308870046e+02 0.0000000000e+00 0.0000e+00 1.0000e+00
       13  1    1    2    0    0 -3.3371752675e+02 +3.8071798009e+02 +1.5716049532e+03 1.6511376978e+03 0.0000000000e+00 0.0000e+00 -1.0000e+00
<mgrwt>
<rscale>  0 0.13514759E+04</rscale>
<asrwt>0</asrwt>
<pdfrwt beam="1">  1        2 0.29826092E+00 0.13514759E+04</pdfrwt>
<pdfrwt beam="2">  1       -2 0.36235442E-01 0.13514759E+04</pdfrwt>
<totfact> 0.61992173E+01</totfact>
</mgrwt>
<rwgt>
<wgt id='morphing_basis_vector_1'> +1.7298917e-04 </wgt>
<wgt id='morphing_basis_vector_2'> +1.1275501e-04 </wgt>
<wgt id='morphing_basis_vector_3'> +1.7694324e-04 </wgt>
<wgt id='morphing_basis_vector_4'> +1.1657618e-04 </wgt>
<wgt id='morphing_basis_vector_5'> +1.8610123e-04 </wgt>
</rwgt>
</event>
<event>
 4      1 +3.5234200e-07 1.46530800e+03 7.81860800e-03 8.33540200e-02
        2 -1    0    0  501    0 +0.0000000000e+00 +0.0000000000e+00 +7.5559311852e+02 7.5559311852e+02 0.0000000000e+00 0.0000e+00 -1.0000e+00
       -2 -1    0    0    0  501 -0.0000000000e+00 -0.0000000000e+00 -7.1041086346e+02 7.1041086346e+02 0.0000000000e+00 0.0000e+00 1.0000e+00
      -13  1    1    2    0    0 +2.5386379796e+02 +3.9779956117e+02 -5.3811277869e+02 7.1572109188e+02 0.0000000000e+00 0.0000e+00 1.0000e+00
       13  1    1    2    0    0 -2.5386379796e+02 -3.9779956117e+02 +5.8329503375e+02 7.5028289010e+02 0.0000000000e+00 0.0000e+00 -1.0000e+00
<mgrwt>
<rscale>  0 0.14653076E+04</rscale>
<asrwt>0</asrwt>
<pdfrwt beam="1">  1        2 0.11624510E+00 0.14653076E+04</pdfrwt>
<pdfrwt beam="2">  1       -2 0.10929398E+00 0.14653076E+04</pdfrwt>
<totfact> 0.29750361E+01</totfact>
</mgrwt>
<rwgt>
<wgt id='morphing_basis_vector_1'> +2.3576102e-04 </wgt>
<wgt id='morphing_basis_vector_2'> +1.5423316e-04 </wgt>
<wgt id='morphing_basis_vector_3'> +2.4390860e-04 </wgt>
<wgt id='morphing_basis_vector_4'> +1.6358848e-04 </wgt>
<wgt id='morphing_basis_vector_5'> +2.6069158e-04 </wgt>
</rwgt>
</event>
<event>
 4      1 +3.5234200e-07 1.32441400e+03 7.81860800e-03 8.42488800e-02
        2 -1    0    0  501    0 +0.0000000000e+00 +0.0000000000e+00 +6.7916827456e+02 6.7916827456e+02 0.0000000000e+00 0.0000e+00 -1.0000e+00
       -2 -1    0    0    0  501 -0.0000000000e+00 -0.0000000000e+00 -6.4566933369e+02 6.4566933369e+02 0.0000000000e+00 0.0000e+00 1.0000e+00
      -13  1    1    2    0    0 +1.0179895985e+02 -2.8295385638e+02 -5.7343262726e+02 6.4749586182e+02 0.0000000000e+00 0.0000e+00 1.0000e+00
       13  1    1    2    0    0 -1.0179895985e+02 +2.8295385638e+02 +6.0693156813e+02 6.7734174643e+02 0.0000000000e+00 0.0000e+00 -1.0000e+00
<mgrwt>
<rscale>  0 0.13244140E+04</rscale>
<asrwt>0</asrwt>
<pdfrwt beam="1">  1        2 0.10448743E+00 0.13244140E+04</pdfrwt>
<pdfrwt beam="2">  1       -2 0.99333743E-01 0.13244140E+04</pdfrwt>
<totfact> 0.43412596E+01</totfact>
</mgrwt>
<rwgt>
<wgt id='morphing_basis_vector_1'> +1.5987123e-04 </wgt>
<wgt id='morphing_basis_vector_2'> +1.0343887e-04 </wgt>
<wgt id='morphing_basis_vector_3'> +1.6295814e-04 </wgt>
<wgt id='morphing_basis_vector_4'> +1.0756838e-04 </wgt>
<wgt id='morphing_basis_vector_5'> +1.7102765e-04 </wgt>
</rwgt>
</event>
<event>
 4      1 +3.5234200e-07 1.39249200e+03 7.81860800e-03 8.38027300e-02
        2 -1    0    0  501    0 +0.0000000000e+00 +0.0000000000e+00 +1.6674069759e+03 1.6674069759e+03 0.0000000000e+00 0.0000e+00 -1.0000e+00
       -2 -1    0    0    0  501 -0.0000000000e+00 -0.0000000000e+00 -2.9072616231e+02 2.9072616231e+02 0.0000000000e+00 0.0000e+00 1.0000e+00
      -13  1    1    2    0    0 +6.1417796359e+02 -2.8726567945e+02 +9.1078218122e+02 1.1354559979e+03 0.0000000000e+00 0.0000e+00 1.0000e+00
       13  1    1    2    0    0 -6.1417796359e+02 +2.8726567945e+02 +4.6589863239e+02 8.2267714032e+02 0.0000000000e+00 0.0000e+00 -1.0000e+00
<mgrwt>
<rscale>  0 0.13924925E+04</rscale>
<asrwt>0</asrwt>
<pdfrwt beam="1">  1        2 0.25652415E+00 0.13924925E+04</pdfrwt>
<pdfrwt beam="2">  1       -2 0.44727103E-01 0.13924925E+04</pdfrwt>
<totfact> 0.58956949E+01</totfact>
</mgrwt>
<rwgt>
<wgt id='morphing_basis_vector_1'> +2.0907679e-04 </wgt>
<wgt id='morphing_basis_vector_2'> +1.7186391e-04 </wgt>
<wgt id='morphing_basis_vector_3'> +2.1828755e-04 </wgt>
<wgt id='morphing_basis_vector_4'> +1.0455092e-04 </wgt>
<wgt id='morphing_basis_vector_5'> +2.0885506e-04 </wgt>
</rwgt>
</event>
<event>
 4      1 +3.5234200e-07 1.44554100e+03 7.81860800e-03 8.34731100e-02
        2 -1    0    0  501    0 +0.0000000000e+00 +0.0000000000e+00 +6.5568879023e+02 6.5568879023e+02 0.0000000000e+00 0.0000e+00 1.0000e+00
       -2 -1    0    0    0  501 -0.0000000000e+00 -0.0000000000e+00 -7.9671472745e+02 7.9671472745e+02 0.0000000000e+00 0.0000e+00 -1.0000e+00
      -13  1    1    2    0    0 +2.0748623821e+01 +3.8147186563e+02 -6.8697753943e+02 7.8605943117e+02 0.0000000000e+00 0.0000e+00 -1.0000e+00
       13  1    1    2    0    0 -2.0748623821e+01 -3.8147186563e+02 +5.4595160221e+02 6.6634408650e+02 0.0000000000e+00 0.0000e+00 1.0000e+00
<mgrwt>
<rscale>  0 0.14455406E+04</rscale>
<asrwt>0</asrwt>
<pdfrwt beam="1">  1        2 0.10087520E+00 0.14455406E+04</pdfrwt>
<pdfrwt beam="2">  1       -2 0.12257150E+00 0.14455406E+04</pdfrwt>
<totfact> 0.26446794E+01</totfact>
</mgrwt>
<rwgt>
<wgt id='morphing_basis_vector_1'> +2.2365023e-04 </wgt>
<wgt id='morphing_basis_vector_2'> +1.4591581e-04 </wgt>
<wgt id='morphing_basis_vector_3'> +2.3093218e-04 </wgt>
<wgt id='morphing_basis_vector_4'> +1.5481025e-04 </wgt>
<wgt id='morphing_basis_vector_5'> +2.4640085e-04 </wgt>
</rwgt>
</event>
<event>
 4      1 +3.5234200e-07 1.29892600e+03 7.81860800e-03 8.44231800e-02
        2 -1    0    0  501    0 +0.0000000000e+00 +0.0000000000e+00 +1.2795258413e+03 1.2795258413e+03 0.0000000000e+00 0.0000e+00 1.0000e+00
       -2 -1    0    0    0  501 -0.0000000000e+00 -0.0000000000e+00 -3.2965510492e+02 3.2965510492e+02 0.0000000000e+00 0.0000e+00 -1.0000e+00
      -13  1    1    2    0    0 +2.3002113131e+02 -3.4794393513e+02 -1.4179483869e+02 4.4054566066e+02 0.0000000000e+00 0.0000e+00 -1.0000e+00
       13  1    1    2    0    0 -2.3002113131e+02 +3.4794393513e+02 +1.0916655750e+03 1.1686352855e+03 0.0000000000e+00 0.0000e+00 1.0000e+00
<mgrwt>
<rscale>  0 0.12989261E+04</rscale>
<asrwt>0</asrwt>
<pdfrwt beam="1">  1        2 0.19685013E+00 0.12989261E+04</pdfrwt>
<pdfrwt beam="2">  1       -2 0.50716171E-01 0.12989261E+04</pdfrwt>
<totfact> 0.76864419E+01</totfact>
</mgrwt>
<rwgt>
<wgt id='morphing_basis_vector_1'> +1.4852626e-04 </wgt>
<wgt id='morphing_basis_vector_2'> +9.6113293e-05 </wgt>
<wgt id='morphing_basis_vector_3'> +1.5093411e-04 </wgt>
<wgt id='morphing_basis_vector_4'> +9.9021521e-05 </wgt>
<wgt id='morphing_basis_vector_5'> +1.5763548e-04 </wgt>
</rwgt>
</event>
<event>
 4      1 +3.5234200e-07 1.42898400e+03 7.81860800e-03 8.35743900e-02
        2 -1    0    0  501    0 +0.0000000000e+00 +0.0000000000e+00 +1.5984315461e+03 1.5984315461e+03 0.0000000000e+00 0.0000e+00 1.0000e+00
       -2 -1    0    0    0  501 -0.0000000000e+00 -0.0000000000e+00 -3.1937482658e+02 3.1937482658e+02 0.0000000000e+00 0.0000e+00 -1.0000e+00
      -13  1    1    2    0    0 -3.5577335847e+02 +3.1020676890e+02 -8.0325301678e+01 4.7880588567e+02 0.0000000000e+00 0.0000e+00 -1.0000e+00
       13  1    1    2    0    0 +3.5577335847e+02 -3.1020676890e+02 +1.3593820212e+03 1.4390004870e+03 0.0000000000e+00 0.0000e+00 1.0000e+00
<mgrwt>
<rscale>  0 0.14289840E+04</rscale>
<asrwt>0</asrwt>
<pdfrwt beam="1">  1        2 0.24591254E+00 0.14289840E+04</pdfrwt>
<pdfrwt beam="2">  1       -2 0.49134590E-01 0.14289840E+04</pdfrwt>
<totfact> 0.53533325E+01</totfact>
</mgrwt>
<rwgt>
<wgt id='morphing_basis_vector_1'> +2.1407345e-04 </wgt>
<wgt id='morphing_basis_vector_2'> +1.3980490e-04 </wgt>
<wgt id='morphing_basis_vector_3'> +2.2072279e-04 </wgt>
<wgt id='morphing_basis_vector_4'> +1.4736552e-04 </wgt>
<wgt id='morphing_basis_vector_5'> +2.3485791e-04 </wgt>
</rwgt>
</event>
<event>
 4      1 +3.5234200e-07 1.45020200e+03 7.81860800e-03 8.34448500e-02
        2 -1    0    0  501    0 +0.0000000000e+00 +0.0000000000e+00 +1.4623439280e+03 1.4623439280e+03 0.0000000000e+00 0.0000e+00 1.0000e+00
       -2 -1    0    0    0  501 -0.0000000000e+00 -0.0000000000e+00 -3.5954019874e+02 3.5954019874e+02 0.0000000000e+00 0.0000e+00 -1.0000e+00
      -13  1    1    2    0    0 +2.5102110077e+02 -5.6615533840e+02 +7.7613090671e+01 6.2415322805e+02 0.0000000000e+00 0.0000e+00 -1.0000e+00
       13  1    1    2    0    0 -2.5102110077e+02 +5.6615533840e+02 +1.0251906386e+03 1.1977308987e+03 0.0000000000e+00 0.0000e+00 1.0000e+00
<mgrwt>
<rscale>  0 0.14502020E+04</rscale>
<asrwt>0</asrwt>
<pdfrwt beam="1">  1        2 0.22497599E+00 0.14502020E+04</pdfrwt>
<pdfrwt beam="2">  1       -2 0.55313877E-01 0.14502020E+04</pdfrwt>
<totfact> 0.50332095E+01</totfact>
</mgrwt>
<rwgt>
<wgt id='morphing_basis_vector_1'> +2.2727673e-04 </wgt>
<wgt id='morphing_basis_vector_2'> +1.5027550e-04 </wgt>
<wgt id='morphing_basis_vector_3'> +2.3499163e-04 </wgt>
<wgt id='morphing_basis_vector_4'> +1.5534449e-04 </wgt>
<wgt id='morphing_basis_vector_5'> +2.4960683e-04 </wgt>
</rwgt>
</event>
<event>
 4      1 +3.5234200e-07 1.43095000e+03 7.81860800e-03 8.35622900e-02
        2 -1    0    0  501    0 +0.0000000000e+00 +0.0000000000e+00 +3.3559508212e+02 3.3559508212e+02 0.0000000000e+00 0.0000e+00 1.0000e+00
       -2 -1    0    0    0  501 -0.0000000000e+00 -0.0000000000e+00 -1.5253643253e+03 1.5253643253e+03 0.0000000000e+00 0.0000e+00 -1.0000e+00
      -13  1    1    2    0    0 +4.1736893449e+02 +5.7037309989e+02 -7.3960039842e+02 1.0230010019e+03 0.0000000000e+00 0.0000e+00 -1.0000e+00
       13  1    1    2    0    0 -4.1736893449e+02 -5.7037309989e+02 -4.5016884473e+02 8.3795840549e+02 0.0000000000e+00 0.0000e+00 1.0000e+00
<mgrwt>
<rscale>  0 0.14309504E+04</rscale>
<asrwt>0</asrwt>
<pdfrwt beam="1">  1        2 0.51630012E-01 0.14309504E+04</pdfrwt>
<pdfrwt beam="2">  1       -2 0.23467144E+00 0.14309504E+04</pdfrwt>
<totfact> 0.76418235E+00</totfact>
</mgrwt>
<rwgt>
<wgt id='morphing_basis_vector_1'> +2.1940261e-04 </wgt>
<wgt id='morphing_basis_vector_2'> +1.5308308e-04 </wgt>
<wgt id='morphing_basis_vector_3'> +2.2729208e-04 </wgt>
<wgt id='morphing_basis_vector_4'> +1.4049714e-04 </wgt>
<wgt id='morphing_basis_vector_5'> +2.3564191e-04 </wgt>
</rwgt>
</event>
<event>
 4      1 +3.5234200e-07 1.42341000e+03 7.81860800e-03 8.36088100e-02
        2 -1    0    0  501    0 +0.0000000000e+00 +0.0000000000e+00 +1.1062632615e+03 1.1062632615e+03 0.0000000000e+00 0.0000e+00 -1.0000e+00
       -2 -1    0    0    0  501 -0.0000000000e+00 -0.0000000000e+00 -4.5786938941e+02 4.5786938941e+02 0.0000000000e+00 0.0000e+00 1.0000e+00
      -13  1    1    2    0    0 +4.7078241704e+02 -8.8518352409e+01 -2.5419812244e+02 5.4229905805e+02 0.0000000000e+00 0.0000e+00 1.0000e+00
       13  1    1    2    0    0 -4.7078241704e+02 +8.8518352409e+01 +9.0259199454e+02 1.0218335929e+03 0.0000000000e+00 0.0000e+00 -1.0000e+00
<mgrwt>
<rscale>  0 0.14234101E+04</rscale>
<asrwt>0</asrwt>
<pdfrwt beam="1">  1        2 0.17019435E+00 0.14234101E+04</pdfrwt>
<pdfrwt beam="2">  1       -2 0.70441445E-01 0.14234101E+04</pdfrwt>
<totfact> 0.48993139E+01</totfact>
</mgrwt>
<rwgt>
<wgt id='morphing_basis_vector_1'> +2.1089933e-04 </wgt>
<wgt id='morphing_basis_vector_2'> +1.3772833e-04 </wgt>
<wgt id='morphing_basis_vector_3'> +2.1733589e-04 </wgt>
<wgt id='morphing_basis_vector_4'> +1.4495917e-04 </wgt>
<wgt id='morphing_basis_vector_5'> +2.3106648e-04 </wgt>
</rwgt>
</event>
<event>
 4      1 +3.5234200e-07 1.36928500e+03 7.81860800e-03 8.39517800e-02
        2 -1    0    0  501    0 +0.0000000000e+00 +0.0000000000e+00 +1.9952603338e+02 1.9952603338e+02 0.0000000000e+00 0.0000e+00 1.0000e+00
       -2 -1    0    0    0  501 -0.0000000000e+00 -0.0000000000e+00 -2.3492456855e+03 2.3492456855e+03 0.0000000000e+00 0.0000e+00 -1.0000e+00
      -13  1    1    2    0    0 +5.4477180405e+02 +3.0647264828e+02 -5.5488955405e+02 8.3582547210e+02 0.0000000000e+00 0.0000e+00 -1.0000e+00
       13  1    1    2    0    0 -5.4477180405e+02 -3.0647264828e+02 -1.5948300980e+03 1.7129462467e+03 0.0000000000e+00 0.0000e+00 1.0000e+00
<mgrwt>
<rscale>  0 0.13692855E+04</rscale>
<asrwt>0</asrwt>
<pdfrwt beam="1">  1        2 0.30696315E-01 0.13692855E+04</pdfrwt>
<pdfrwt beam="2">  1       -2 0.36142239E+00 0.13692855E+04</pdfrwt>
<totfact> 0.19494790E+00</totfact>
</mgrwt>
<rwgt>
<wgt id='morphing_basis_vector_1'> +2.0712568e-04 </wgt>
<wgt id='morphing_basis_vector_2'> +1.9415646e-04 </wgt>
<wgt id='morphing_basis_vector_3'> +2.1783189e-04 </wgt>
<wgt id='morphing_basis_vector_4'> +7.7392306e-05 </wgt>
<wgt id='morphing_basis_vector_5'> +1.9327504e-04 </wgt>
</rwgt>
</event>
<event>
 4      1 +3.5234200e-07 1.45260800e+03 7.81860800e-03 8.34303100e-02
        2 -1    0    0  501    0 +0.0000000000e+00 +0.0000000000e+00 +1.4012046681e+03 1.4012046681e+03 0.0000000000e+00 0.0000e+00 -1.0000e+00
       -2 -1    0    0    0  501 -0.0000000000e+00 -0.0000000000e+00 -3.7647426153e+02 3.7647426153e+02 0.0000000000e+00 0.0000e+00 1.0000e+00
      -13  1    1    2    0    0 -1.8658956656e+02 -4.2166116714e+02 +1.1991074561e+03 1.2847071641e+03 0.0000000000e+00 0.0000e+00 -1.0000e+00
       13  1    1    2    0    0 +1.8658956656e+02 +4.2166116714e+02 -1.7437704951e+02 4.9297176554e+02 0.0000000000e+00 0.0000e+00 1.0000e+00
<mgrwt>
<rscale>  0 0.14526080E+04</rscale>
<asrwt>0</asrwt>
<pdfrwt beam="1">  1        2 0.21556995E+00 0.14526080E+04</pdfrwt>
<pdfrwt beam="2">  1       -2 0.57919118E-01 0.14526080E+04</pdfrwt>
<totfact> 0.49625781E+01</totfact>
</mgrwt>
<rwgt>
<wgt id='morphing_basis_vector_1'> +3.0087495e-04 </wgt>
<wgt id='morphing_basis_vector_2'> +3.6651817e-04 </wgt>
<wgt id='morphing_basis_vector_3'> +3.2944648e-04 </wgt>
<wgt id='morphing_basis_vector_4'> +2.3117379e-05 </wgt>
<wgt id='morphing_basis_vector_5'> +2.4154217e-04 </wgt>
</rwgt>
</event>
<event>
 4      1 +3.5234200e-07 1.53655600e+03 7.81860800e-03 8.29404000e-02
        2 -1    0    0  501    0 +0.0000000000e+00 +0.0000000000e+00 +1.2866235687e+03 1.2866235687e+03 0.0000000000e+00 0.0000e+00 -1.0000e+00
       -2 -1    0    0    0  501 -0.0000000000e+00 -0.0000000000e+00 -4.5875949179e+02 4.5875949179e+02 0.0000000000e+00 0.0000e+00 1.0000e+00
      -13  1    1    2    0    0 -1.9167170074e+02 +2.4974817741e+02 -3.8212558184e+02 4.9510822380e+02 0.0000000000e+00 0.0000e+00 1.0000e+00
       13  1    1    2    0    0 +1.9167170074e+02 -2.4974817741e+02 +1.2099896588e+03 1.2502748367e+03 0.0000000000e+00 0.0000e+00 -1.0000e+00
<mgrwt>
<rscale>  0 0.15365556E+04</rscale>
<asrwt>0</asrwt>
<pdfrwt beam="1">  1        2 0.19794209E+00 0.15365556E+04</pdfrwt>
<pdfrwt beam="2">  1       -2 0.70578384E-01 0.15365556E+04</pdfrwt>
<totfact> 0.37905332E+01</totfact>
</mgrwt>
<rwgt>
<wgt id='morphing_basis_vector_1'> +2.8298403e-04 </wgt>
<wgt id='morphing_basis_vector_2'> +1.8539910e-04 </wgt>
<wgt id='morphing_basis_vector_3'> +2.9448580e-04 </wgt>
<wgt id='morphing_basis_vector_4'> +1.9944853e-04 </wgt>
<wgt id='morphing_basis_vector_5'> +3.1742484e-04 </wgt>
</rwgt>
</event>
<event>
 4      1 +3.5234200e-07 1.41374400e+03 7.81860800e-03 8.36688800e-02
        2 -1    0    0  501    0 +0.0000000000e+00 +0.0000000000e+00 +1.1332819762e+03 1.1332819762e+03 0.0000000000e+00 0.0000e+00 1.0000e+00
       -2 -1    0    0    0  501 -0.0000000000e+00 -0.0000000000e+00 -4.4090365664e+02 4.4090365664e+02 0.0000000000e+00 0.0000e+00 -1.0000e+00
      -13  1    1    2    0    0 +1.8595459158e+02 +5.6417881304e+02 -8.0425034827e+01 5.9945394272e+02 0.0000000000e+00 0.0000e+00 -1.0000e+00
       13  1    1    2    0    0 -1.8595459158e+02 -5.6417881304e+02 +7.7280335443e+02 9.7473169017e+02 0.0000000000e+00 0.0000e+00 1.0000e+00
<mgrwt>
<rscale>  0 0.14137442E+04</rscale>
<asrwt>0</asrwt>
<pdfrwt beam="1">  1        2 0.17435107E+00 0.14137442E+04</pdfrwt>
<pdfrwt beam="2">  1       -2 0.67831333E-01 0.14137442E+04</pdfrwt>
<totfact> 0.51209931E+01</totfact>
</mgrwt>
<rwgt>
<wgt id='morphing_basis_vector_1'> +2.0598625e-04 </wgt>
<wgt id='morphing_basis_vector_2'> +1.3569478e-04 </wgt>
<wgt id='morphing_basis_vector_3'> +2.1219740e-04 </wgt>
<wgt id='morphing_basis_vector_4'> +1.3992810e-04 </wgt>
<wgt id='morphing_basis_vector_5'> +2.2453175e-04 </wgt>
</rwgt>
</event>
<event>
 4      1 +3.5234200e-07 1.38223900e+03 7.81860800e-03 8.38682100e-02
        2 -1    0    0  501    0 +0.0000000000e+00 +0.0000000000e+00 +1.4858619366e+03 1.4858619366e+03 0.0000000000e+00 0.0000e+00 -1.0000e+00
       -2 -1    0    0    0  501 -0.0000000000e+00 -0.0000000000e+00 -3.2146056489e+02 3.2146056489e+02 0.0000000000e+00 0.0000e+00 1.0000e+00
      -13  1    1    2    0    0 +3.4426798681e+02 -5.1697267855e+02 +1.8589783671e+02 6.4833571766e+02 0.0000000000e+00 0.0000e+00 1.0000e+00
       13  1    1    2    0    0 -3.4426798681e+02 +5.1697267855e+02 +9.7850353502e+02 1.1589867839e+03 0.0000000000e+00 0.0000e+00 -1.0000e+00
<mgrwt>
<rscale>  0 0.13822388E+04</rscale>
<asrwt>0</asrwt>
<pdfrwt beam="1">  1        2 0.22859414E+00 0.13822388E+04</pdfrwt>
<pdfrwt beam="2">  1       -2 0.49455472E-01 0.13822388E+04</pdfrwt>
<totfact> 0.61312211E+01</totfact>
</mgrwt>
<rwgt>
<wgt id='morphing_basis_vector_1'> +1.8939019e-04 </wgt>
<wgt id='morphing_basis_vector_2'> +1.2562091e-04 </wgt>
<wgt id='morphing_basis_vector_3'> +1.9456546e-04 </wgt>
<wgt id='morphing_basis_vector_4'> +1.2654513e-04 </wgt>
<wgt id='morphing_basis_vector_5'> +2.0433641e-04 </wgt>
</rwgt>
</event>
<event>
 4      1 +3.5234200e-07 1.29241800e+03 7.81860800e-03 8.44683500e-02
        2 -1    0    0  501    0 +0.0000000000e+00 +0.0000000000e+00 +1.2548688648e+03 1.2548688648e+03 0.0000000000e+00 0.0000e+00 1.0000e+00
       -2 -1    0    0    0  501 -0.0000000000e+00 -0.0000000000e+00 -3.3277274207e+02 3.3277274207e+02 0.0000000000e+00 0.0000e+00 -1.0000e+00
      -13  1    1    2    0    0 +4.5817869484e+02 +9.9629990897e+01 +1.0072940268e+03 1.1110783536e+03 0.0000000000e+00 0.0000e+00 1.0000e+00
       13  1    1    2    0    0 -4.5817869484e+02 -9.9629990897e+01 -8.5197904058e+01 4.7656325325e+02 0.0000000000e+00 0.0000e+00 -1.0000e+00
<mgrwt>
<rscale>  0 0.12924181E+04</rscale>
<asrwt>0</asrwt>
<pdfrwt beam="1">  1        2 0.19305675E+00 0.12924181E+04</pdfrwt>
<pdfrwt beam="2">  1       -2 0.51195807E-01 0.12924181E+04</pdfrwt>
<totfact> 0.77997266E+01</totfact>
</mgrwt>
<rwgt>
<wgt id='morphing_basis_vector_1'> +1.8644816e-04 </wgt>
<wgt id='morphing_basis_vector_2'> +2.1627610e-04 </wgt>
<wgt id='morphing_basis_vector_3'> +1.9676290e-04 </wgt>
<wgt id='morphing_basis_vector_4'> +2.4767058e-05 </wgt>
<wgt id='morphing_basis_vector_5'> +1.4927184e-04 </wgt>
</rwgt>
</event>
<event>
 4      1 +3.5234200e-07 1.29206300e+03 7.81860800e-03 8.44708300e-02
        2 -1    0    0  501    0 +0.0000000000e+00 +0.0000000000e+00 +1.5314134755e+03 1.5314134755e+03 0.0000000000e+00 0.0000e+00 1.0000e+00
       -2 -1    0    0    0  501 -0.0000000000e+00 -0.0000000000e+00 -2.7253048143e+02 2.7253048143e+02 0.0000000000e+00 0.0000e+00 -1.0000e+00
      -13  1    1    2    0    0 -4.9271178990e+02 +3.3877643409e+02 +9.7092635222e+02 1.1402773179e+03 0.0000000000e+00 0.0000e+00 1.0000e+00
       13  1    1    2    0    0 +4.9271178990e+02 -3.3877643409e+02 +2.8795664184e+02 6.6366663905e+02 0.0000000000e+00 0.0000e+00 -1.0000e+00
<mgrwt>
<rscale>  0 0.12920632E+04</rscale>
<asrwt>0</asrwt>
<pdfrwt beam="1">  1        2 0.23560207E+00 0.12920632E+04</pdfrwt>
<pdfrwt beam="2">  1       -2 0.41927767E-01 0.12920632E+04</pdfrwt>
<totfact> 0.79981877E+01</totfact>
</mgrwt>
<rwgt>
<wgt id='morphing_basis_vector_1'> +1.6415420e-04 </wgt>
<wgt id='morphing_basis_vector_2'> +1.4985122e-04 </wgt>
<wgt id='morphing_basis_vector_3'> +1.7006633e-04 </wgt>
<wgt id='morphing_basis_vector_4'> +6.3895992e-05 </wgt>
<wgt id='morphing_basis_vector_5'> +1.5185264e-04 </wgt>
</rwgt>
</event>
<event>
 4      1 +3.5234200e-07 1.36633300e+03 7.81860800e-03 8.39709600e-02
        2 -1    0    0  501    0 +0.0000000000e+00 +0.0000000000e+00 +1.6200009805e+03 1.6200009805e+03 0.0000000000e+00 0.0000e+00 -1.0000e+00
       -2 -1    0    0    0  501 -0.0000000000e+00 -0.0000000000e+00 -2.8809646522e+02 2.8809646522e+02 0.0000000000e+00 0.0000e+00 1.0000e+00
      -13  1    1    2    0    0 -4.5374242337e+02 +7.0845043757e+01 -4.0377088464e+01 4.6101140578e+02 0.0000000000e+00 0.0000e+00 1.0000e+00
       13  1    1    2    0    0 +4.5374242337e+02 -7.0845043757e+01 +1.3722816037e+03 1.4470860399e+03 0.0000000000e+00 0.0000e+00 -1.0000e+00
<mgrwt>
<rscale>  0 0.13663331E+04</rscale>
<asrwt>0</asrwt>
<pdfrwt beam="1">  1        2 0.24923092E+00 0.13663331E+04</pdfrwt>
<pdfrwt beam="2">  1       -2 0.44322534E-01 0.13663331E+04</pdfrwt>
<totfact> 0.63874717E+01</totfact>
</mgrwt>
<rwgt>
<wgt id='morphing_basis_vector_1'> +1.8024829e-04 </wgt>
<wgt id='morphing_basis_vector_2'> +1.1728502e-04 </wgt>
<wgt id='morphing_basis_vector_3'> +1.8464678e-04 </wgt>
<wgt id='morphing_basis_vector_4'> +1.2226146e-04 </wgt>
<wgt id='morphing_basis_vector_5'> +1.9481892e-04 </wgt>
</rwgt>
</event>
<event>
 4      1 +3.5234200e-07 1.41802500e+03 7.81860800e-03 8.36422100e-02
        2 -1    0    0  501    0 +0.0000000000e+00 +0.0000000000e+00 +3.0247286967e+03 3.0247286967e+03 0.0000000000e+00 0.0000e+00 -1.0000e+00
       -2 -1    0    0    0  501 -0.0000000000e+00 -0.0000000000e+00 -1.6619640383e+02 1.6619640383e+02 0.0000000000e+00 0.0000e+00 1.0000e+00
      -13  1    1    2    0    0 +4.9163882996e+02 +3.4038403286e+02 +5.7201179943e+02 8.2750681425e+02 0.0000000000e+00 0.0000e+00 1.0000e+00
       13  1    1    2    0    0 -4.9163882996e+02 -3.4038403286e+02 +2.2865204935e+03 2.3634182863e+03 0.0000000000e+00 0.0000e+00 -1.0000e+00
<mgrwt>
<rscale>  0 0.14180254E+04</rscale>
<asrwt>0</asrwt>
<pdfrwt beam="1">  1        2 0.46534283E+00 0.14180254E+04</pdfrwt>
<pdfrwt beam="2">  1       -2 0.25568680E-01 0.14180254E+04</pdfrwt>
<totfact> 0.25862958E+01</totfact>
</mgrwt>
<rwgt>
<wgt id='morphing_basis_vector_1'> +2.0841266e-04 </wgt>
<wgt id='morphing_basis_vector_2'> +1.3737371e-04 </wgt>
<wgt id='morphing_basis_vector_3'> +2.1479441e-04 </wgt>
<wgt id='morphing_basis_vector_4'> +1.4166200e-04 </wgt>
<wgt id='morphing_basis_vector_5'> +2.2737407e-04 </wgt>
</rwgt>
</event>
<event>
 4      1 +3.5234200e-07 1.42290200e+03 7.81860800e-03 8.36119500e-02
        2 -1    0    0  501    0 +0.0000000000e+00 +0.0000000000e+00 +2.2008963278e+03 2.2008963278e+03 0.0000000000e+00 0.0000e+00 1.0000e+00
       -2 -1    0    0    0  501 -0.0000000000e+00 -0.0000000000e+00 -2.2998028281e+02 2.2998028281e+02 0.0000000000e+00 0.0000e+00 -1.0000e+00
      -13  1    1    2    0    0 +3.0175623921e+01 +5.3845057486e+02 +1.9271357827e+02 5.7269373412e+02 0.0000000000e+00 0.0000e+00 -1.0000e+00
       13  1    1    2    0    0 -3.0175623921e+01 -5.3845057486e+02 +1.7782024667e+03 1.8581828765e+03 0.0000000000e+00 0.0000e+00 1.0000e+00
<mgrwt>
<rscale>  0 0.14229023E+04</rscale>
<asrwt>0</asrwt>
<pdfrwt beam="1">  1        2 0.33859942E+00 0.14229023E+04</pdfrwt>
<pdfrwt beam="2">  1       -2 0.35381584E-01 0.14229023E+04</pdfrwt>
<totfact> 0.45800569E+01</totfact>
</mgrwt>
<rwgt>
<wgt id='morphing_basis_vector_1'> +2.1079441e-04 </wgt>
<wgt id='morphing_basis_vector_2'> +1.3808508e-04 </wgt>
<wgt id='morphing_basis_vector_3'> +2.1726158e-04 </wgt>
<wgt id='morphing_basis_vector_4'> +1.4440653e-04 </wgt>
<wgt id='morphing_basis_vector_5'> +2.3069892e-04 </wgt>
</rwgt>
</event>
<event>
 4      1 +3.5234200e-07 1.49792300e+03 7.81860800e-03 8.31617200e-02
        2 -1    0    0  501    0 +0.0000000000e+00 +0.0000000000e+00 +1.9270984357e+03 1.9270984357e+03 0.0000000000e+00 0.0000e+00 -1.0000e+00
       -2 -1    0    0    0  501 -0.0000000000e+00 -0.0000000000e+00 -2.9108184803e+02 2.9108184803e+02 0.0000000000e+00 0.0000e+00 1.0000e+00
      -13  1    1    2    0    0 -4.5826541089e+02 +4.6947586073e+02 +2.8300041286e+02 7.1449562931e+02 0.0000000000e+00 0.0000e+00 1.0000e+00
       13  1    1    2    0    0 +4.5826541089e+02 -4.6947586073e+02 +1.3530161748e+03 1.5036846544e+03 0.0000000000e+00 0.0000e+00 -1.0000e+00
<mgrwt>
<rscale>  0 0.14979231E+04</rscale>
<asrwt>0</asrwt>
<pdfrwt beam="1">  1        2 0.29647667E+00 0.14979231E+04</pdfrwt>
<pdfrwt beam="2">  1       -2 0.44781824E-01 0.14979231E+04</pdfrwt>
<totfact> 0.41811487E+01</totfact>
</mgrwt>
<rwgt>
<wgt id='morphing_basis_vector_1'> +2.5770452e-04 </wgt>
<wgt id='morphing_basis_vector_2'> +1.7135221e-04 </wgt>
<wgt id='morphing_basis_vector_3'> +2.6766268e-04 </wgt>
<wgt id='morphing_basis_vector_4'> +1.7723039e-04 </wgt>
<wgt id='morphing_basis_vector_5'> +2.8547974e-04 </wgt>
</rwgt>
</event>
<event>
 4      1 +3.5234200e-07 1.33449300e+03 7.81860800e-03 8.41810900e-02
        2 -1    0    0  501    0 +0.0000000000e+00 +0.0000000000e+00 +1.1018330967e+03 1.1018330967e+03 0.0000000000e+00 0.0000e+00 -1.0000e+00
       -2 -1    0    0    0  501 -0.0000000000e+00 -0.0000000000e+00 -4.0407012149e+02 4.0407012149e+02 0.0000000000e+00 0.0000e+00 1.0000e+00
      -13  1    1    2    0    0 -4.7114396754e+01 -4.2691059514e+02 -2.2733957163e+02 4.8595854088e+02 0.0000000000e+00 0.0000e+00 1.0000e+00
       13  1    1    2    0    0 +4.7114396754e+01 +4.2691059514e+02 +9.2510254689e+02 1.0199446774e+03 0.0000000000e+00 0.0000e+00 -1.0000e+00
<mgrwt>
<rscale>  0 0.13344929E+04</rscale>
<asrwt>0</asrwt>
<pdfrwt beam="1">  1        2 0.16951278E+00 0.13344929E+04</pdfrwt>
<pdfrwt beam="2">  1       -2 0.62164634E-01 0.13344929E+04</pdfrwt>
<totfact> 0.64595653E+01</totfact>
</mgrwt>
<rwgt>
<wgt id='morphing_basis_vector_1'> +1.6466559e-04 </wgt>
<wgt id='morphing_basis_vector_2'> +1.0684021e-04 </wgt>
<wgt id='morphing_basis_vector_3'> +1.6806564e-04 </wgt>
<wgt id='morphing_basis_vector_4'> +1.1086020e-04 </wgt>
<wgt id='morphing_basis_vector_5'> +1.7653190e-04 </wgt>
</rwgt>
</event>
<event>
 4      1 +3.5234200e-07 1.30421300e+03 7.81860800e-03 8.43866800e-02
        2 -1    0    0  501    0 +0.0000000000e+00 +0.0000000000e+00 +1.5131466929e+03 1.5131466929e+03 0.0000000000e+00 0.0000e+00 -1.0000e+00
       -2 -1    0    0    0  501 -0.0000000000e+00 -0.0000000000e+00 -2.8103234912e+02 2.8103234912e+02 0.0000000000e+00 0.0000e+00 1.0000e+00
      -13  1    1    2    0    0 +6.4017120048e+02 +7.4042040485e+01 +4.7889031587e+02 8.0289309644e+02 0.0000000000e+00 0.0000e+00 1.0000e+00
       13  1    1    2    0    0 -6.4017120048e+02 -7.4042040485e+01 +7.5322402792e+02 9.9128594558e+02 0.0000000000e+00 0.0000e+00 -1.0000e+00
<mgrwt>
<rscale>  0 0.13042134E+04</rscale>
<asrwt>0</asrwt>
<pdfrwt beam="1">  1        2 0.23279179E+00 0.13042134E+04</pdfrwt>
<pdfrwt beam="2">  1       -2 0.43235747E-01 0.13042134E+04</pdfrwt>
<totfact> 0.77183691E+01</totfact>
</mgrwt>
<rwgt>
<wgt id='morphing_basis_vector_1'> +1.5382485e-04 </wgt>
<wgt id='morphing_basis_vector_2'> +1.0657475e-04 </wgt>
<wgt id='morphing_basis_vector_3'> +1.5698606e-04 </wgt>
<wgt id='morphing_basis_vector_4'> +9.5420930e-05 </wgt>
<wgt id='morphing_basis_vector_5'> +1.5997139e-04 </wgt>
</rwgt>
</event>
<event>
 4      1 +3.5234200e-07 1.36248200e+03 7.81860800e-03 8.39960500e-02
        2 -1    0    0  501    0 +0.0000000000e+00 +0.0000000000e+00 +2.0855618692e+03 2.0855618692e+03 0.0000000000e+00 0.0000e+00 -1.0000e+00
       -2 -1    0    0    0  501 -0.0000000000e+00 -0.0000000000e+00 -2.2252483585e+02 2.2252483585e+02 0.0000000000e+00 0.0000e+00 1.0000e+00
      -13  1    1    2    0    0 +1.7143449681e+02 +3.4960897386e+02 -1.5432799571e+01 3.8968499150e+02 0.0000000000e+00 0.0000e+00 1.0000e+00
       13  1    1    2    0    0 -1.7143449681e+02 -3.4960897386e+02 +1.8784698329e+03 1.9184017135e+03 0.0000000000e+00 0.0000e+00 -1.0000e+00
<mgrwt>
<rscale>  0 0.13624820E+04</rscale>
<asrwt>0</asrwt>
<pdfrwt beam="1">  1        2 0.32085566E+00 0.13624820E+04</pdfrwt>
<pdfrwt beam="2">  1       -2 0.34234592E-01 0.13624820E+04</pdfrwt>
<totfact> 0.56821971E+01</totfact>
</mgrwt>
<rwgt>
<wgt id='morphing_basis_vector_1'> +1.7822055e-04 </wgt>
<wgt id='morphing_basis_vector_2'> +1.1572625e-04 </wgt>
<wgt id='morphing_basis_vector_3'> +1.8247220e-04 </wgt>
<wgt id='morphing_basis_vector_4'> +1.2099317e-04 </wgt>
<wgt id='morphing_basis_vector_5'> +1.9254697e-04 </wgt>
</rwgt>
</event>
<event>
 4      1 +3.5234200e-07 1.35368900e+03 7.81860800e-03 8.40536800e-02
        2 -1    0    0  501    0 +0.0000000000e+00 +0.0000000000e+00 +3.6251697886e+03 3.6251697886e+03 0.0000000000e+00 0.0000e+00 1.0000e+00
       -2 -1    0    0    0  501 -0.0000000000e+00 -0.0000000000e+00 -1.2637164608e+02 1.2637164608e+02 0.0000000000e+00 0.0000e+00 -1.0000e+00
      -13  1    1    2    0    0 -4.0107580694e+02 +3.4107665954e+02 +5.7060391027e+02 7.7639159772e+02 0.0000000000e+00 0.0000e+00 -1.0000e+00
       13  1    1    2    0    0 +4.0107580694e+02 -3.4107665954e+02 +2.9281942322e+03 2.9751498369e+03 0.0000000000e+00 0.0000e+00 1.0000e+00
<mgrwt>
<rscale>  0 0.13536893E+04</rscale>
<asrwt>0</asrwt>
<pdfrwt beam="1">  1        2 0.55771835E+00 0.13536893E+04</pdfrwt>
<pdfrwt beam="2">  1       -2 0.19441794E-01 0.13536893E+04</pdfrwt>
<totfact> 0.15861076E+01</totfact>
</mgrwt>
<rwgt>
<wgt id='morphing_basis_vector_1'> +1.7415074e-04 </wgt>
<wgt id='morphing_basis_vector_2'> +1.1370392e-04 </wgt>
<wgt id='morphing_basis_vector_3'> +1.7819218e-04 </wgt>
<wgt id='morphing_basis_vector_4'> +1.1724000e-04 </wgt>
<wgt id='morphing_basis_vector_5'> +1.8736909e-04 </wgt>
</rwgt>
</event>
<event>
 4      1 +3.5234200e-07 1.30664700e+03 7.81860800e-03 8.43699400e-02
        2 -1    0    0  501    0 +0.0000000000e+00 +0.0000000000e+00 +1.1482180861e+03 1.1482180861e+03 0.0000000000e+00 0.0000e+00 -1.0000e+00
       -2 -1    0    0    0  501 -0.0000000000e+00 -0.0000000000e+00 -3.7173409294e+02 3.7173409294e+02 0.0000000000e+00 0.0000e+00 1.0000e+00
      -13  1    1    2    0    0 -6.4236326078e+02 +1.1766410989e+02 +3.6628136776e+02 7.4875726502e+02 0.0000000000e+00 0.0000e+00 1.0000e+00
       13  1    1    2    0    0 +6.4236326078e+02 -1.1766410989e+02 +4.1020262543e+02 7.7119491406e+02 0.0000000000e+00 0.0000e+00 -1.0000e+00
<mgrwt>
<rscale>  0 0.13066473E+04</rscale>
<asrwt>0</asrwt>
<pdfrwt beam="1">  1        2 0.17664893E+00 0.13066473E+04</pdfrwt>
<pdfrwt beam="2">  1       -2 0.57189861E-01 0.13066473E+04</pdfrwt>
<totfact> 0.72060609E+01</totfact>
</mgrwt>
<rwgt>
<wgt id='morphing_basis_vector_1'> +1.5676432e-04 </wgt>
<wgt id='morphing_basis_vector_2'> +1.1286649e-04 </wgt>
<wgt id='morphing_basis_vector_3'> +1.6038176e-04 </wgt>
<wgt id='morphing_basis_vector_4'> +9.2890790e-05 </wgt>
<wgt id='morphing_basis_vector_5'> +1.6099558e-04 </wgt>
</rwgt>
</event>
<event>
 4      1 +3.5234200e-07 1.32555400e+03 7.81860800e-03 8.42411800e-02
        2 -1    0    0  501    0 +0.0000000000e+00 +0.0000000000e+00 +4.2146757616e+03 4.2146757616e+03 0.0000000000e+00 0.0000e+00 1.0000e+00
       -2 -1    0    0    0  501 -0.0000000000e+00 -0.0000000000e+00 -1.0422476451e+02 1.0422476451e+02 0.0000000000e+00 0.0000e+00 -1.0000e+00
      -13  1    1    2    0    0 -4.3502860913e+02 -4.8053067597e+02 +1.6047708420e+03 1.7307365706e+03 0.0000000000e+00 0.0000e+00 -1.0000e+00
       13  1    1    2    0    0 +4.3502860913e+02 +4.8053067597e+02 +2.5056801550e+03 2.5881639555e+03 0.0000000000e+00 0.0000e+00 1.0000e+00
<mgrwt>
<rscale>  0 0.13255544E+04</rscale>
<asrwt>0</asrwt>
<pdfrwt beam="1">  1        2 0.64841152E+00 0.13255544E+04</pdfrwt>
<pdfrwt beam="2">  1       -2 0.16034582E-01 0.13255544E+04</pdfrwt>
<totfact> 0.71840315E+00</totfact>
</mgrwt>
<rwgt>
<wgt id='morphing_basis_vector_1'> +1.6301467e-04 </wgt>
<wgt id='morphing_basis_vector_2'> +1.1161998e-04 </wgt>
<wgt id='morphing_basis_vector_3'> +1.6670765e-04 </wgt>
<wgt id='morphing_basis_vector_4'> +1.0327226e-04 </wgt>
<wgt id='morphing_basis_vector_5'> +1.7131253e-04 </wgt>
</rwgt>
</event>
<event>
 4      1 +3.5234200e-07 1.50602600e+03 7.81860800e-03 8.31147400e-02
        2 -1    0    0  501    0 +0.0000000000e+00 +0.0000000000e+00 +3.0089802440e+02 3.0089802440e+02 0.0000000000e+00 0.0000e+00 1.0000e+00
       -2 -1    0    0    0  501 -0.0000000000e+00 -0.0000000000e+00 -1.8844540491e+03 1.8844540491e+03 0.0000000000e+00 0.0000e+00 -1.0000e+00
      -13  1    1    2    0    0 -4.2912286708e+02 +3.5951240766e+02 -1.5225666113e+03 1.6222221463e+03 0.0000000000e+00 0.0000e+00 -1.0000e+00
       13  1    1    2    0    0 +4.2912286708e+02 -3.5951240766e+02 -6.0989413429e+01 5.6312992716e+02 0.0000000000e+00 0.0000e+00 1.0000e+00
<mgrwt>
<rscale>  0 0.15060259E+04</rscale>
<asrwt>0</asrwt>
<pdfrwt beam="1">  1        2 0.46292004E-01 0.15060259E+04</pdfrwt>
<pdfrwt beam="2">  1       -2 0.28991600E+00 0.15060259E+04</pdfrwt>
<totfact> 0.35811060E+00</totfact>
</mgrwt>
<rwgt>
<wgt id='morphing_basis_vector_1'> +2.6226945e-04 </wgt>
<wgt id='morphing_basis_vector_2'> +1.7247631e-04 </wgt>
<wgt id='morphing_basis_vector_3'> +2.7236006e-04 </wgt>
<wgt id='morphing_basis_vector_4'> +1.8283165e-04 </wgt>
<wgt id='morphing_basis_vector_5'> +2.9205430e-04 </wgt>
</rwgt>
</event>
<event>
 4      1 +3.5234200e-07 1.39710200e+03 7.81860800e-03 8.37734900e-02
        2 -1    0    0  501    0 +0.0000000000e+00 +0.0000000000e+00 +1.2791824649e+03 1.2791824649e+03 0.0000000000e+00 0.0000e+00 -1.0000e+00
       -2 -1    0    0    0  501 -0.0000000000e+00 -0.0000000000e+00 -3.8147320106e+02 3.8147320106e+02 0.0000000000e+00 0.0000e+00 1.0000e+00
      -13  1    1    2    0    0 -4.3908364038e+02 -1.8746871829e+02 -1.5727724138e+02 5.0266797615e+02 0.0000000000e+00 0.0000e+00 1.0000e+00
       13  1    1    2    0    0 +4.3908364038e+02 +1.8746871829e+02 +1.0549865052e+03 1.1579876898e+03 0.0000000000e+00 0.0000e+00 -1.0000e+00
<mgrwt>
<rscale>  0 0.13971025E+04</rscale>
<asrwt>0</asrwt>
<pdfrwt beam="1">  1        2 0.19679730E+00 0.13971025E+04</pdfrwt>
<pdfrwt beam="2">  1       -2 0.58688185E-01 0.13971025E+04</pdfrwt>
<totfact> 0.56940671E+01</totfact>
</mgrwt>
<rwgt>
<wgt id='morphing_basis_vector_1'> +1.9633250e-04 </wgt>
<wgt id='morphing_basis_vector_2'> +1.2804432e-04 </wgt>
<wgt id='morphing_basis_vector_3'> +2.0179085e-04 </wgt>
<wgt id='morphing_basis_vector_4'> +1.3411264e-04 </wgt>
<wgt id='morphing_basis_vector_5'> +2.1378853e-04 </wgt>
</rwgt>
</event>
<event>
 4      1 +3.5234200e-07 1.30371100e+03 7.81860800e-03 8.43901400e-02
        2 -1    0    0  501    0 +0.0000000000e+00 +0.0000000000e+00 +2.9983696363e+03 2.9983696363e+03 0.0000000000e+00 0.0000e+00 -1.0000e+00
       -2 -1    0    0    0  501 -0.0000000000e+00 -0.0000000000e+00 -1.4171560075e+02 1.4171560075e+02 0.0000000000e+00 0.0000e+00 1.0000e+00
      -13  1    1    2    0    0 +4.2113360177e+02 +4.8983584547e+02 +1.2180336876e+03 1.3787308404e+03 0.0000000000e+00 0.0000e+00 1.0000e+00
       13  1    1    2    0    0 -4.2113360177e+02 -4.8983584547e+02 +1.6386203479e+03 1.7613543967e+03 0.0000000000e+00 0.0000e+00 -1.0000e+00
<mgrwt>
<rscale>  0 0.13037112E+04</rscale>
<asrwt>0</asrwt>
<pdfrwt beam="1">  1        2 0.46128759E+00 0.13037112E+04</pdfrwt>
<pdfrwt beam="2">  1       -2 0.21802402E-01 0.13037112E+04</pdfrwt>
<totfact> 0.35715390E+01</totfact>
</mgrwt>
<rwgt>
<wgt id='morphing_basis_vector_1'> +1.5383216e-04 </wgt>
<wgt id='morphing_basis_vector_2'> +1.0711286e-04 </wgt>
<wgt id='morphing_basis_vector_3'> +1.5702602e-04 </wgt>
<wgt id='morphing_basis_vector_4'> +9.4852720e-05 </wgt>
<wgt id='morphing_basis_vector_5'> +1.5968396e-04 </wgt>
</rwgt>
</event>
<event>
 4      1 +3.5234200e-07 1.50851900e+03 7.81860800e-03 8.31003400e-02
        2 -1    0    0  501    0 +0.0000000000e+00 +0.0000000000e+00 +1.2449490108e+03 1.2449490108e+03 0.0000000000e+00 0.0000e+00 -1.0000e+00
       -2 -1    0    0    0  501 -0.0000000000e+00 -0.0000000000e+00 -4.5697227822e+02 4.5697227822e+02 0.0000000000e+00 0.0000e+00 1.0000e+00
      -13  1    1    2    0    0 +6.8221634501e+02 +4.8422729597e+01 +3.5184354774e+01 6.8483709082e+02 0.0000000000e+00 0.0000e+00 1.0000e+00
       13  1    1    2    0    0 -6.8221634501e+02 -4.8422729597e+01 +7.5279237777e+02 1.0170841982e+03 0.0000000000e+00 0.0000e+00 -1.0000e+00
<mgrwt>
<rscale>  0 0.15085187E+04</rscale>
<asrwt>0</asrwt>
<pdfrwt beam="1">  1        2 0.19153061E+00 0.15085187E+04</pdfrwt>
<pdfrwt beam="2">  1       -2 0.70303428E-01 0.15085187E+04</pdfrwt>
<totfact> 0.40490690E+01</totfact>
</mgrwt>
<rwgt>
<wgt id='morphing_basis_vector_1'> +2.6525996e-04 </wgt>
<wgt id='morphing_basis_vector_2'> +1.7750996e-04 </wgt>
<wgt id='morphing_basis_vector_3'> +2.7588273e-04 </wgt>
<wgt id='morphing_basis_vector_4'> +1.8163707e-04 </wgt>
<wgt id='morphing_basis_vector_5'> +2.9388083e-04 </wgt>
</rwgt>
</event>
<event>
 4      1 +3.5234200e-07 1.48249700e+03 7.81860800e-03 8.32520400e-02
        2 -1    0    0  501    0 +0.0000000000e+00 +0.0000000000e+00 +2.6355964764e+02 2.6355964764e+02 0.0000000000e+00 0.0000e+00 -1.0000e+00
       -2 -1    0    0    0  501 -0.0000000000e+00 -0.0000000000e+00 -2.0847236744e+03 2.0847236744e+03 0.0000000000e+00 0.0000e+00 1.0000e+00
      -13  1    1    2    0    0 -4.0280159979e+01 +3.6011239008e+02 -1.9348664211e+03 1.9685048876e+03 0.0000000000e+00 0.0000e+00 1.0000e+00
       13  1    1    2    0    0 +4.0280159979e+01 -3.6011239008e+02 +1.1370239440e+02 3.7977843445e+02 0.0000000000e+00 0.0000e+00 -1.0000e+00
<mgrwt>
<rscale>  0 0.14824966E+04</rscale>
<asrwt>0</asrwt>
<pdfrwt beam="1">  1        2 0.40547638E-01 0.14824966E+04</pdfrwt>
<pdfrwt beam="2">  1       -2 0.32072672E+00 0.14824966E+04</pdfrwt>
<totfact> 0.25881504E+00</totfact>
</mgrwt>
<rwgt>
<wgt id='morphing_basis_vector_1'> +2.4646896e-04 </wgt>
<wgt id='morphing_basis_vector_2'> +1.6108756e-04 </wgt>
<wgt id='morphing_basis_vector_3'> +2.5534314e-04 </wgt>
<wgt id='morphing_basis_vector_4'> +1.7193054e-04 </wgt>
<wgt id='morphing_basis_vector_5'> +2.7364021e-04 </wgt>
</rwgt>
</event>
<event>
 4      1 +3.5234200e-07 1.45519300e+03 7.81860800e-03 8.34147200e-02
        2 -1    0    0  501    0 +0.0000000000e+00 +0.0000000000e+00 +1.3710457414e+03 1.3710457414e+03 0.0000000000e+00 0.0000e+00 -1.0000e+00
       -2 -1    0    0    0  501 -0.0000000000e+00 -0.0000000000e+00 -3.8612598424e+02 3.8612598424e+02 0.0000000000e+00 0.0000e+00 1.0000e+00
      -13  1    1    2    0    0 +2.4226491933e+02 +6.4632982724e+02 +7.7035139999e+02 1.0343480150e+03 0.0000000000e+00 0.0000e+00 1.0000e+00
       13  1    1    2    0    0 -2.4226491933e+02 -6.4632982724e+02 +2.1456835717e+02 7.2282371061e+02 0.0000000000e+00 0.0000e+00 -1.0000e+00
<mgrwt>
<rscale>  0 0.14551926E+04</rscale>
<asrwt>0</asrwt>
<pdfrwt beam="1">  1        2 0.21093011E+00 0.14551926E+04</pdfrwt>
<pdfrwt beam="2">  1       -2 0.59403998E-01 0.14551926E+04</pdfrwt>
<totfact> 0.49002897E+01</totfact>
</mgrwt>
<rwgt>
<wgt id='morphing_basis_vector_1'> +2.5377535e-04 </wgt>
<wgt id='morphing_basis_vector_2'> +2.2235276e-04 </wgt>
<wgt id='morphing_basis_vector_3'> +2.6848596e-04 </wgt>
<wgt id='morphing_basis_vector_4'> +1.1417905e-04 </wgt>
<wgt id='morphing_basis_vector_5'> +2.5000678e-04 </wgt>
</rwgt>
</event>
<event>
 4      1 +3.5234200e-07 1.50720600e+03 7.81860800e-03 8.31079200e-02
        2 -1    0    0  501    0 +0.0000000000e+00 +0.0000000000e+00 +2.9704576314e+03 2.9704576314e+03 0.0000000000e+00 0.0000e+00 1.0000e+00
       -2 -1    0    0    0  501 -0.0000000000e+00 -0.0000000000e+00 -1.9118860919e+02 1.9118860919e+02 0.0000000000e+00 0.0000e+00 -1.0000e+00
      -13  1    1    2    0    0 -7.3107630024e+02 -1.1339036283e+02 +1.0886495166e+03 1.3162399862e+03 0.0000000000e+00 0.0000e+00 -1.0000e+00
       13  1    1    2    0    0 +7.3107630024e+02 +1.1339036283e+02 +1.6906195055e+03 1.8454062544e+03 0.0000000000e+00 0.0000e+00 1.0000e+00
<mgrwt>
<rscale>  0 0.15072062E+04</rscale>
<asrwt>0</asrwt>
<pdfrwt beam="1">  1        2 0.45699345E+00 0.15072062E+04</pdfrwt>
<pdfrwt beam="2">  1       -2 0.29413634E-01 0.15072062E+04</pdfrwt>
<totfact> 0.21757223E+01</totfact>
</mgrwt>
<rwgt>
<wgt id='morphing_basis_vector_1'> +2.6731191e-04 </wgt>
<wgt id='morphing_basis_vector_2'> +1.8567078e-04 </wgt>
<wgt id='morphing_basis_vector_3'> +2.7878709e-04 </wgt>
<wgt id='morphing_basis_vector_4'> +1.7548737e-04 </wgt>
<wgt id='morphing_basis_vector_5'> +2.9241442e-04 </wgt>
</rwgt>
</event>
<event>
 4      1 +3.5234200e-07 1.37736000e+03 7.81860800e-03 8.38995700e-02
        2 -1    0    0  501    0 +0.0000000000e+00 +0.0000000000e+00 +9.2847249225e+02 9.2847249225e+02 0.0000000000e+00 0.0000e+00 1.0000e+00
       -2 -1    0    0    0  501 -0.0000000000e+00 -0.0000000000e+00 -5.1081761060e+02 5.1081761060e+02 0.0000000000e+00 0.0000e+00 -1.0000e+00
      -13  1    1    2    0    0 -2.9431160856e+02 +6.1448002973e+02 +3.1371522990e+02 7.5008151246e+02 0.0000000000e+00 0.0000e+00 1.0000e+00
       13  1    1    2    0    0 +2.9431160856e+02 -6.1448002973e+02 +1.0393965175e+02 6.8920859040e+02 0.0000000000e+00 0.0000e+00 -1.0000e+00
<mgrwt>
<rscale>  0 0.13773599E+04</rscale>
<asrwt>0</asrwt>
<pdfrwt beam="1">  1        2 0.14284192E+00 0.13773599E+04</pdfrwt>
<pdfrwt beam="2">  1       -2 0.78587324E-01 0.13773599E+04</pdfrwt>
<totfact> 0.49839755E+01</totfact>
</mgrwt>
<rwgt>
<wgt id='morphing_basis_vector_1'> +1.9695247e-04 </wgt>
<wgt id='morphing_basis_vector_2'> +1.5411600e-04 </wgt>
<wgt id='morphing_basis_vector_3'> +2.0447532e-04 </wgt>
<wgt id='morphing_basis_vector_4'> +1.0633963e-04 </wgt>
<wgt id='morphing_basis_vector_5'> +2.0001982e-04 </wgt>
</rwgt>
</event>
<event>
 4      1 +3.5234200e-07 1.39985100e+03 7.81860800e-03 8.37561100e-02
        2 -1    0    0  501    0 +0.0000000000e+00 +0.0000000000e+00 +1.7707338636e+03 1.7707338636e+03 0.0000000000e+00 0.0000e+00 -1.0000e+00
       -2 -1    0    0    0  501 -0.0000000000e+00 -0.0000000000e+00 -2.7666255210e+02 2.7666255210e+02 0.0000000000e+00 0.0000e+00 1.0000e+00
      -13  1    1    2    0    0 +3.3273445819e+02 +1.2095611942e+02 -1.3604532878e+02 3.7927685662e+02 0.0000000000e+00 0.0000e+00 1.0000e+00
       13  1    1    2    0    0 -3.3273445819e+02 -1.2095611942e+02 +1.6301166403e+03 1.6681195591e+03 0.0000000000e+00 0.0000e+00 -1.0000e+00
<mgrwt>
<rscale>  0 0.13998511E+04</rscale>
<asrwt>0</asrwt>
<pdfrwt beam="1">  1        2 0.27242059E+00 0.13998511E+04</pdfrwt>
<pdfrwt beam="2">  1       -2 0.42563471E-01 0.13998511E+04</pdfrwt>
<totfact> 0.56743534E+01</totfact>
</mgrwt>
<rwgt>
<wgt id='morphing_basis_vector_1'> +1.9766919e-04 </wgt>
<wgt id='morphing_basis_vector_2'> +1.2858815e-04 </wgt>
<wgt id='morphing_basis_vector_3'> +2.0318754e-04 </wgt>
<wgt id='morphing_basis_vector_4'> +1.3548753e-04 </wgt>
<wgt id='morphing_basis_vector_5'> +2.1556709e-04 </wgt>
</rwgt>
</event>
<event>
 4      1 +3.5234200e-07 1.34883100e+03 7.81860800e-03 8.40857100e-02
        2 -1    0    0  501    0 +0.0000000000e+00 +0.0000000000e+00 +1.1795118384e+03 1.1795118384e+03 0.0000000000e+00 0.0000e+00 -1.0000e+00
       -2 -1    0    0    0  501 -0.0000000000e+00 -0.0000000000e+00 -3.8561400708e+02 3.8561400708e+02 0.0000000000e+00 0.0000e+00 1.0000e+00
      -13  1    1    2    0    0 +5.6625886040e+02 -1.1894563205e+01 -2.7884014282e+01 5.6706974516e+02 0.0000000000e+00 0.0000e+00 1.0000e+00
       13  1    1    2    0    0 -5.6625886040e+02 +1.1894563205e+01 +8.2178184562e+02 9.9805610033e+02 0.0000000000e+00 0.0000e+00 -1.0000e+00
<mgrwt>
<rscale>  0 0.13488310E+04</rscale>
<asrwt>0</asrwt>
<pdfrwt beam="1">  1        2 0.18146336E+00 0.13488310E+04</pdfrwt>
<pdfrwt beam="2">  1       -2 0.59325232E-01 0.13488310E+04</pdfrwt>
<totfact> 0.63880822E+01</totfact>
</mgrwt>
<rwgt>
<wgt id='morphing_basis_vector_1'> +1.7201315e-04 </wgt>
<wgt id='morphing_basis_vector_2'> +1.1283764e-04 </wgt>
<wgt id='morphing_basis_vector_3'> +1.7595813e-04 </wgt>
<wgt id='morphing_basis_vector_4'> +1.1505802e-04 </wgt>
<wgt id='morphing_basis_vector_5'> +1.8454241e-04 </wgt>
</rwgt>
</event>
<event>
 4      1 +3.5234200e-07 1.50339700e+03 7.81860800e-03 8.31299500e-02
        2 -1    0    0  501    0 +0.0000000000e+00 +0.0000000000e+00 +1.4090997358e+03 1.4090997358e+03 0.0000000000e+00 0.0000e+00 1.0000e+00
       -2 -1    0    0    0  501 -0.0000000000e+00 -0.0000000000e+00 -4.0100094484e+02 4.0100094484e+02 0.0000000000e+00 0.0000e+00 -1.0000e+00
      -13  1    1    2    0    0 -4.7277762415e+02 -1.5930804821e+02 -1.7293326125e+02 5.2801860665e+02 0.0000000000e+00 0.0000e+00 -1.0000e+00
       13  1    1    2    0    0 +4.7277762415e+02 +1.5930804821e+02 +1.1810320522e+03 1.2820820740e+03 0.0000000000e+00 0.0000e+00 1.0000e+00
<mgrwt>
<rscale>  0 0.15033966E+04</rscale>
<asrwt>0</asrwt>
<pdfrwt beam="1">  1        2 0.21678457E+00 0.15033966E+04</pdfrwt>
<pdfrwt beam="2">  1       -2 0.61692454E-01 0.15033966E+04</pdfrwt>
<totfact> 0.42978946E+01</totfact>
</mgrwt>
<rwgt>
<wgt id='morphing_basis_vector_1'> +2.6031281e-04 </wgt>
<wgt id='morphing_basis_vector_2'> +1.7071612e-04 </wgt>
<wgt id='morphing_basis_vector_3'> +2.7021540e-04 </wgt>
<wgt id='morphing_basis_vector_4'> +1.8187628e-04 </wgt>
<wgt id='morphing_basis_vector_5'> +2.8997367e-04 </wgt>
</rwgt>
</event>
<event>
 4      1 +3.5234200e-07 1.31125400e+03 7.81860800e-03 8.43383600e-02
        2 -1    0    0  501    0 +0.0000000000e+00 +0.0000000000e+00 +1.0926278058e+03 1.0926278058e+03 0.0000000000e+00 0.0000e+00 -1.0000e+00
       -2 -1    0    0    0  501 -0.0000000000e+00 -0.0000000000e+00 -3.9340620352e+02 3.9340620352e+02 0.0000000000e+00 0.0000e+00 1.0000e+00
      -13  1    1    2    0    0 -5.4152711105e+02 +1.2239290540e+02 -4.5606054965e+01 5.5705614398e+02 0.0000000000e+00 0.0000e+00 1.0000e+00
       13  1    1    2    0    0 +5.4152711105e+02 -1.2239290540e+02 +7.4482765729e+02 9.2897786538e+02 0.0000000000e+00 0.0000e+00 -1.0000e+00
<mgrwt>
<rscale>  0 0.13112537E+04</rscale>
<asrwt>0</asrwt>
<pdfrwt beam="1">  1        2 0.16809658E+00 0.13112537E+04</pdfrwt>
<pdfrwt beam="2">  1       -2 0.60524032E-01 0.13112537E+04</pdfrwt>
<totfact> 0.69257264E+01</totfact>
</mgrwt>
<rwgt>
<wgt id='morphing_basis_vector_1'> +1.5443976e-04 </wgt>
<wgt id='morphing_basis_vector_2'> +1.0111974e-04 </wgt>
<wgt id='morphing_basis_vector_3'> +1.5727558e-04 </wgt>
<wgt id='morphing_basis_vector_4'> +1.0218844e-04 </wgt>
<wgt id='morphing_basis_vector_5'> +1.6394834e-04 </wgt>
</rwgt>
</event>
<event>
 4      1 +3.5234200e-07 1.44998800e+03 7.81860800e-03 8.34461400e-02
        2 -1    0    0  501    0 +0.0000000000e+00 +0.0000000000e+00 +7.8818392789e+02 7.8818392789e+02 0.0000000000e+00 0.0000e+00 1.0000e+00
       -2 -1    0    0    0  501 -0.0000000000e+00 -0.0000000000e+00 -6.6687025440e+02 6.6687025440e+02 0.0000000000e+00 0.0000e+00 -1.0000e+00
      -13  1    1    2    0    0 +4.9186559124e+02 -4.3319635368e+02 -2.5030577085e+02 7.0160089767e+02 0.0000000000e+00 0.0000e+00 1.0000e+00
       13  1    1    2    0    0 -4.9186559124e+02 +4.3319635368e+02 +3.7161944434e+02 7.5345328462e+02 0.0000000000e+00 0.0000e+00 -1.0000e+00
<mgrwt>
<rscale>  0 0.14499882E+04</rscale>
<asrwt>0</asrwt>
<pdfrwt beam="1">  1        2 0.12125907E+00 0.14499882E+04</pdfrwt>
<pdfrwt beam="2">  1       -2 0.10259542E+00 0.14499882E+04</pdfrwt>
<totfact> 0.33014658E+01</totfact>
</mgrwt>
<rwgt>
<wgt id='morphing_basis_vector_1'> +2.2769034e-04 </wgt>
<wgt id='morphing_basis_vector_2'> +1.5180739e-04 </wgt>
<wgt id='morphing_basis_vector_3'> +2.3555152e-04 </wgt>
<wgt id='morphing_basis_vector_4'> +1.5424760e-04 </wgt>
<wgt id='morphing_basis_vector_5'> +2.4938039e-04 </wgt>
</rwgt>
</event>
<event>
 4      1 +3.5234200e-07 1.43737200e+03 7.81860800e-03 8.35229000e-02
        2 -1    0    0  501    0 +0.0000000000e+00 +0.0000000000e+00 +1.9518558572e+03 1.9518558572e+03 0.0000000000e+00 0.0000e+00 -1.0000e+00
       -2 -1    0    0    0  501 -0.0000000000e+00 -0.0000000000e+00 -2.6462496022e+02 2.6462496022e+02 0.0000000000e+00 0.0000e+00 1.0000e+00
      -13  1    1    2    0    0 +5.7430888513e+02 +1.7810164929e+02 +2.3659551955e+02 6.4616432344e+02 0.0000000000e+00 0.0000e+00 1.0000e+00
       13  1    1    2    0    0 -5.7430888513e+02 -1.7810164929e+02 +1.4506353774e+03 1.5703164940e+03 0.0000000000e+00 0.0000e+00 -1.0000e+00
<mgrwt>
<rscale>  0 0.14373723E+04</rscale>
<asrwt>0</asrwt>
<pdfrwt beam="1">  1        2 0.30028551E+00 0.14373723E+04</pdfrwt>
<pdfrwt beam="2">  1       -2 0.40711534E-01 0.14373723E+04</pdfrwt>
<totfact> 0.48763480E+01</totfact>
</mgrwt>
<rwgt>
<wgt id='morphing_basis_vector_1'> +2.1951356e-04 </wgt>
<wgt id='morphing_basis_vector_2'> +1.4475041e-04 </wgt>
<wgt id='morphing_basis_vector_3'> +2.2665608e-04 </wgt>
<wgt id='morphing_basis_vector_4'> +1.4994700e-04 </wgt>
<wgt id='morphing_basis_vector_5'> +2.4057017e-04 </wgt>
</rwgt>
</event>
<event>
 4      1 +3.5234200e-07 1.37685800e+03 7.81860800e-03 8.39028100e-02
        2 -1    0    0  501    0 +0.0000000000e+00 +0.0000000000e+00 +1.5735740277e+03 1.5735740277e+03 0.0000000000e+00 0.0000e+00 -1.0000e+00
       -2 -1    0    0    0  501 -0.0000000000e+00 -0.0000000000e+00 -3.0118349731e+02 3.0118349731e+02 0.0000000000e+00 0.0000e+00 1.0000e+00
      -13  1    1    2    0    0 +9.3418230799e+00 +5.9195098035e+02 +1.5780077291e+02 6.1269430937e+02 0.0000000000e+00 0.0000e+00 1.0000e+00
       13  1    1    2    0    0 -9.3418230799e+00 -5.9195098035e+02 +1.1145897575e+03 1.2620632156e+03 0.0000000000e+00 0.0000e+00 -1.0000e+00
<mgrwt>
<rscale>  0 0.13768581E+04</rscale>
<asrwt>0</asrwt>
<pdfrwt beam="1">  1        2 0.24208831E+00 0.13768581E+04</pdfrwt>
<pdfrwt beam="2">  1       -2 0.46335924E-01 0.13768581E+04</pdfrwt>
<totfact> 0.62193122E+01</totfact>
</mgrwt>
<rwgt>
<wgt id='morphing_basis_vector_1'> +1.8623658e-04 </wgt>
<wgt id='morphing_basis_vector_2'> +1.2269036e-04 </wgt>
<wgt id='morphing_basis_vector_3'> +1.9113680e-04 </wgt>
<wgt id='morphing_basis_vector_4'> +1.2512801e-04 </wgt>
<wgt id='morphing_basis_vector_5'> +2.0108229e-04 </wgt>
</rwgt>
</event>
<event>
 4      1 +3.5234200e-07 1.42906500e+03 7.81860800e-03 8.35738900e-02
        2 -1    0    0  501    0 +0.0000000000e+00 +0.0000000000e+00 +1.4974096023e+03 1.4974096023e+03 0.0000000000e+00 0.0000e+00 -1.0000e+00
       -2 -1    0    0    0  501 -0.0000000000e+00 -0.0000000000e+00 -3.4095984613e+02 3.4095984613e+02 0.0000000000e+00 0.0000e+00 1.0000e+00
      -13  1    1    2    0    0 +7.1086051857e+02 -5.5236466046e+01 +5.1812297851e+02 8.8137685748e+02 0.0000000000e+00 0.0000e+00 1.0000e+00
       13  1    1    2    0    0 -7.1086051857e+02 +5.5236466046e+01 +6.3832677764e+02 9.5699259093e+02 0.0000000000e+00 0.0000e+00 -1.0000e+00
<mgrwt>
<rscale>  0 0.14290648E+04</rscale>
<asrwt>0</asrwt>
<pdfrwt beam="1">  1        2 0.23037070E+00 0.14290648E+04</pdfrwt>
<pdfrwt beam="2">  1       -2 0.52455362E-01 0.14290648E+04</pdfrwt>
<totfact> 0.53584028E+01</totfact>
</mgrwt>
<rwgt>
<wgt id='morphing_basis_vector_1'> +2.2006114e-04 </wgt>
<wgt id='morphing_basis_vector_2'> +1.5757209e-04 </wgt>
<wgt id='morphing_basis_vector_3'> +2.2835475e-04 </wgt>
<wgt id='morphing_basis_vector_4'> +1.3648020e-04 </wgt>
<wgt id='morphing_basis_vector_5'> +2.3411546e-04 </wgt>
</rwgt>
</event>
<event>
 4      1 +3.5234200e-07 1.40227800e+03 7.81860800e-03 8.37407900e-02
        2 -1    0    0  501    0 +0.0000000000e+00 +0.0000000000e+00 +9.0625879119e+02 9.0625879119e+02 0.0000000000e+00 0.0000e+00 1.0000e+00
       -2 -1    0    0    0  501 -0.0000000000e+00 -0.0000000000e+00 -5.4244555492e+02 5.4244555492e+02 0.0000000000e+00 0.0000e+00 -1.0000e+00
      -13  1    1    2    0    0 +5.9856517122e+02 -3.1854455477e+00 +5.5910501522e+02 8.1907803615e+02 0.0000000000e+00 0.0000e+00 1.0000e+00
       13  1    1    2    0    0 -5.9856517122e+02 +3.1854455477e+00 -1.9529177895e+02 6.2962630996e+02 0.0000000000e+00 0.0000e+00 -1.0000e+00
<mgrwt>
<rscale>  0 0.14022782E+04</rscale>
<asrwt>0</asrwt>
<pdfrwt beam="1">  1        2 0.13942443E+00 0.14022782E+04</pdfrwt>
<pdfrwt beam="2">  1       -2 0.83453162E-01 0.14022782E+04</pdfrwt>
<totfact> 0.44858884E+01</totfact>
</mgrwt>
<rwgt>
<wgt id='morphing_basis_vector_1'> +2.3735177e-04 </wgt>
<wgt id='morphing_basis_vector_2'> +2.4406237e-04 </wgt>
<wgt id='morphing_basis_vector_3'> +2.5303036e-04 </wgt>
<wgt id='morphing_basis_vector_4'> +6.6397438e-05 </wgt>
<wgt id='morphing_basis_vector_5'> +2.1204357e-04 </wgt>
</rwgt>
</event>
<event>
 4      1 +3.5234200e-07 1.32316300e+03 7.81860800e-03 8.42573400e-02
        2 -1    0    0  501    0 +0.0000000000e+00 +0.0000000000e+00 +1.1994994887e+03 1.1994994887e+03 0.0000000000e+00 0.0000e+00 1.0000e+00
       -2 -1    0    0    0  501 -0.0000000000e+00 -0.0000000000e+00 -3.6489419051e+02 3.6489419051e+02 0.0000000000e+00 0.0000e+00 -1.0000e+00
      -13  1    1    2    0    0 -5.0599307026e+02 +4.2612591899e+02 +4.0685345083e+02 7.7662218384e+02 0.0000000000e+00 0.0000e+00 -1.0000e+00
       13  1    1    2    0    0 +5.0599307026e+02 -4.2612591899e+02 +4.2775184733e+02 7.8777149534e+02 0.0000000000e+00 0.0000e+00 1.0000e+00
<mgrwt>
<rscale>  0 0.13231635E+04</rscale>
<asrwt>0</asrwt>
<pdfrwt beam="1">  1        2 0.18453838E+00 0.13231635E+04</pdfrwt>
<pdfrwt beam="2">  1       -2 0.56137568E-01 0.13231635E+04</pdfrwt>
<totfact> 0.69710123E+01</totfact>
</mgrwt>
<rwgt>
<wgt id='morphing_basis_vector_1'> +1.6476950e-04 </wgt>
<wgt id='morphing_basis_vector_2'> +1.1944090e-04 </wgt>
<wgt id='morphing_basis_vector_3'> +1.6901257e-04 </wgt>
<wgt id='morphing_basis_vector_4'> +9.7353665e-05 </wgt>
<wgt id='morphing_basis_vector_5'> +1.6965708e-04 </wgt>
</rwgt>
</event>
<event>
 4      1 +3.5234200e-07 1.52242500e+03 7.81860800e-03 8.30205700e-02
        2 -1    0    0  501    0 +0.0000000000e+00 +0.0000000000e+00 +3.6875628136e+02 3.6875628136e+02 0.0000000000e+00 0.0000e+00 -1.0000e+00
       -2 -1    0    0    0  501 -0.0000000000e+00 -0.0000000000e+00 -1.5713471446e+03 1.5713471446e+03 0.0000000000e+00 0.0000e+00 1.0000e+00
      -13  1    1    2    0    0 -7.1792027405e+02 -2.4429075631e+02 -6.8540874754e+02 1.0221901216e+03 0.0000000000e+00 0.0000e+00 1.0000e+00
       13  1    1    2    0    0 +7.1792027405e+02 +2.4429075631e+02 -5.1718211572e+02 9.1791330436e+02 0.0000000000e+00 0.0000e+00 -1.0000e+00
<mgrwt>
<rscale>  0 0.15224246E+04</rscale>
<asrwt>0</asrwt>
<pdfrwt beam="1">  1        2 0.56731736E-01 0.15224246E+04</pdfrwt>
<pdfrwt beam="2">  1       -2 0.24174571E+00 0.15224246E+04</pdfrwt>
<totfact> 0.60873905E+00</totfact>
</mgrwt>
<rwgt>
<wgt id='morphing_basis_vector_1'> +2.8025876e-04 </wgt>
<wgt id='morphing_basis_vector_2'> +2.0022138e-04 </wgt>
<wgt id='morphing_basis_vector_3'> +2.9333080e-04 </wgt>
<wgt id='morphing_basis_vector_4'> +1.7848435e-04 </wgt>
<wgt id='morphing_basis_vector_5'> +3.0450792e-04 </wgt>
</rwgt>
</event>
<event>
 4      1 +3.5234200e-07 1.34567800e+03 7.81860800e-03 8.41065800e-02
        2 -1    0    0  501    0 +0.0000000000e+00 +0.0000000000e+00 +1.8504692105e+03 1.8504692105e+03 0.0000000000e+00 0.0000e+00 -1.0000e+00
       -2 -1    0    0    0  501 -0.0000000000e+00 -0.0000000000e+00 -2.4464746967e+02 2.4464746967e+02 0.0000000000e+00 0.0000e+00 1.0000e+00
      -13  1    1    2    0    0 -3.7149921033e+02 -4.2311819531e+02 +2.2943923791e+02 6.0801565306e+02 0.0000000000e+00 0.0000e+00 1.0000e+00
       13  1    1    2    0    0 +3.7149921033e+02 +4.2311819531e+02 +1.3763825029e+03 1.4871010271e+03 0.0000000000e+00 0.0000e+00 -1.0000e+00
<mgrwt>
<rscale>  0 0.13456784E+04</rscale>
<asrwt>0</asrwt>
<pdfrwt beam="1">  1        2 0.28468756E+00 0.13456784E+04</pdfrwt>
<pdfrwt beam="2">  1       -2 0.37638073E-01 0.13456784E+04</pdfrwt>
<totfact> 0.64767645E+01</totfact>
</mgrwt>
<rwgt>
<wgt id='morphing_basis_vector_1'> +1.7046482e-04 </wgt>
<wgt id='morphing_basis_vector_2'> +1.1176264e-04 </wgt>
<wgt id='morphing_basis_vector_3'> +1.7430738e-04 </wgt>
<wgt id='morphing_basis_vector_4'> +1.1396718e-04 </wgt>
<wgt id='morphing_basis_vector_5'> +1.8274725e-04 </wgt>
</rwgt>
</event>
<event>
 4      1 +3.5234200e-07 1.39530300e+03 7.81860800e-03 8.37848900e-02
        2 -1    0    0  501    0 +0.0000000000e+00 +0.0000000000e+00 +1.3782382391e+03 1.3782382391e+03 0.0000000000e+00 0.0000e+00 -1.0000e+00
       -2 -1    0    0    0  501 -0.0000000000e+00 -0.0000000000e+00 -3.5314463636e+02 3.5314463636e+02 0.0000000000e+00 0.0000e+00 1.0000e+00
      -13  1    1    2    0    0 +4.2941794642e+02 -5.1901943912e+02 +2.8734942296e+02 7.3235963964e+02 0.0000000000e+00 0.0000e+00 1.0000e+00
       13  1    1    2    0    0 -4.2941794642e+02 +5.1901943912e+02 +7.3774417974e+02 9.9902323578e+02 0.0000000000e+00 0.0000e+00 -1.0000e+00
<mgrwt>
<rscale>  0 0.13953028E+04</rscale>
<asrwt>0</asrwt>
<pdfrwt beam="1">  1        2 0.21203665E+00 0.13953028E+04</pdfrwt>
<pdfrwt beam="2">  1       -2 0.54329945E-01 0.13953028E+04</pdfrwt>
<totfact> 0.58452952E+01</totfact>
</mgrwt>
<rwgt>
<wgt id='morphing_basis_vector_1'> +1.9778159e-04 </wgt>
<wgt id='morphing_basis_vector_2'> +1.3462176e-04 </wgt>
<wgt id='morphing_basis_vector_3'> +2.0380137e-04 </wgt>
<wgt id='morphing_basis_vector_4'> +1.2898653e-04 </wgt>
<wgt id='morphing_basis_vector_5'> +2.1232332e-04 </wgt>
</rwgt>
</event>
<event>
 4      1 +3.5234200e-07 1.35281300e+03 7.81860800e-03 8.40594500e-02
        2 -1    0    0  501    0 +0.0000000000e+00 +0.0000000000e+00 +1.5133538723e+03 1.5133538723e+03 0.0000000000e+00 0.0000e+00 1.0000e+00
       -2 -1    0    0    0  501 -0.0000000000e+00 -0.0000000000e+00 -3.0232549816e+02 3.0232549816e+02 0.0000000000e+00 0.0000e+00 -1.0000e+00
      -13  1    1    2    0    0 -4.8099057631e+02 -8.5876961820e+01 -2.2289517213e+01 4.8910490658e+02 0.0000000000e+00 0.0000e+00 -1.0000e+00
       13  1    1    2    0    0 +4.8099057631e+02 +8.5876961820e+01 +1.2333178913e+03 1.3265744638e+03 0.0000000000e+00 0.0000e+00 1.0000e+00
<mgrwt>
<rscale>  0 0.13528126E+04</rscale>
<asrwt>0</asrwt>
<pdfrwt beam="1">  1        2 0.23282367E+00 0.13528126E+04</pdfrwt>
<pdfrwt beam="2">  1       -2 0.46511616E-01 0.13528126E+04</pdfrwt>
<totfact> 0.66833750E+01</totfact>
</mgrwt>
<rwgt>
<wgt id='morphing_basis_vector_1'> +1.7358958e-04 </wgt>
<wgt id='morphing_basis_vector_2'> +1.1302724e-04 </wgt>
<wgt id='morphing_basis_vector_3'> +1.7757269e-04 </wgt>
<wgt id='morphing_basis_vector_4'> +1.1715775e-04 </wgt>
<wgt id='morphing_basis_vector_5'> +1.8687909e-04 </wgt>
</rwgt>
</event>
<event>
 4      1 +3.5234200e-07 1.30271000e+03 7.81860800e-03 8.43970400e-02
        2 -1    0    0  501    0 +0.0000000000e+00 +0.0000000000e+00 +8.8718260412e+02 8.8718260412e+02 0.0000000000e+00 0.0000e+00 1.0000e+00
       -2 -1    0    0    0  501 -0.0000000000e+00 -0.0000000000e+00 -4.7821410783e+02 4.7821410783e+02 0.0000000000e+00 0.0000e+00 -1.0000e+00
      -13  1    1    2    0    0 +3.9312944591e+02 -2.9689295055e+02 -2.4212702128e+02 5.4892775459e+02 0.0000000000e+00 0.0000e+00 -1.0000e+00
       13  1    1    2    0    0 -3.9312944591e+02 +2.9689295055e+02 +6.5109551758e+02 8.1646895736e+02 0.0000000000e+00 0.0000e+00 1.0000e+00
<mgrwt>
<rscale>  0 0.13027098E+04</rscale>
<asrwt>0</asrwt>
<pdfrwt beam="1">  1        2 0.13648963E+00 0.13027098E+04</pdfrwt>
<pdfrwt beam="2">  1       -2 0.73571402E-01 0.13027098E+04</pdfrwt>
<totfact> 0.61739988E+01</totfact>
</mgrwt>
<rwgt>
<wgt id='morphing_basis_vector_1'> +1.5034022e-04 </wgt>
<wgt id='morphing_basis_vector_2'> +9.7683579e-05 </wgt>
<wgt id='morphing_basis_vector_3'> +1.5288021e-04 </wgt>
<wgt id='morphing_basis_vector_4'> +9.9955520e-05 </wgt>
<wgt id='morphing_basis_vector_5'> +1.5955156e-04 </wgt>
</rwgt>
</event>
<event>
 4      1 +3.5234200e-07 1.46147700e+03 7.81860800e-03 8.33769400e-02
        2 -1    0    0  501    0 +0.0000000000e+00 +0.0000000000e+00 +1.6932408084e+03 1.6932408084e+03 0.0000000000e+00 0.0000e+00 -1.0000e+00
       -2 -1    0    0    0  501 -0.0000000000e+00 -0.0000000000e+00 -3.1535922727e+02 3.1535922727e+02 0.0000000000e+00 0.0000e+00 1.0000e+00
      -13  1    1    2    0    0 +4.7789020415e+00 +2.9707205662e+02 -2.2859883604e+02 3.7487607628e+02 0.0000000000e+00 0.0000e+00 1.0000e+00
       13  1    1    2    0    0 -4.7789020415e+00 -2.9707205662e+02 +1.6064804172e+03 1.6337239594e+03 0.0000000000e+00 0.0000e+00 -1.0000e+00
<mgrwt>
<rscale>  0 0.14614775E+04</rscale>
<asrwt>0</asrwt>
<pdfrwt beam="1">  1        2 0.26049858E+00 0.14614775E+04</pdfrwt>
<pdfrwt beam="2">  1       -2 0.48516805E-01 0.14614775E+04</pdfrwt>
<totfact> 0.48473234E+01</totfact>
</mgrwt>
<rwgt>
<wgt id='morphing_basis_vector_1'> +2.3324908e-04 </wgt>
<wgt id='morphing_basis_vector_2'> +1.5221451e-04 </wgt>
<wgt id='morphing_basis_vector_3'> +2.4118788e-04 </wgt>
<wgt id='morphing_basis_vector_4'> +1.6209530e-04 </wgt>
<wgt id='morphing_basis_vector_5'> +2.5789321e-04 </wgt>
</rwgt>
</event>
<event>
 4      1 +3.5234200e-07 1.47771400e+03 7.81860800e-03 8.32802700e-02
        2 -1    0    0  501    0 +0.0000000000e+00 +0.0000000000e+00 +6.8561373412e+02 6.8561373412e+02 0.0000000000e+00 0.0000e+00 1.0000e+00
       -2 -1    0    0    0  501 -0.0000000000e+00 -0.0000000000e+00 -7.9623502852e+02 7.9623502852e+02 0.0000000000e+00 0.0000e+00 -1.0000e+00
      -13  1    1    2    0    0 -3.5251389234e+02 +5.3221347653e+02 -4.2836291021e+02 7.6877305607e+02 0.0000000000e+00 0.0000e+00 -1.0000e+00
       13  1    1    2    0    0 +3.5251389234e+02 -5.3221347653e+02 +3.1774161581e+02 7.1307570658e+02 0.0000000000e+00 0.0000e+00 1.0000e+00
<mgrwt>
<rscale>  0 0.14777140E+04</rscale>
<asrwt>0</asrwt>
<pdfrwt beam="1">  1        2 0.10547904E+00 0.14777140E+04</pdfrwt>
<pdfrwt beam="2">  1       -2 0.12249770E+00 0.14777140E+04</pdfrwt>
<totfact> 0.25029305E+01</totfact>
</mgrwt>
<rwgt>
<wgt id='morphing_basis_vector_1'> +2.4442951e-04 </wgt>
<wgt id='morphing_basis_vector_2'> +1.6206904e-04 </wgt>
<wgt id='morphing_basis_vector_3'> +2.5339063e-04 </wgt>
<wgt id='morphing_basis_vector_4'> +1.6776514e-04 </wgt>
<wgt id='morphing_basis_vector_5'> +2.6985675e-04 </wgt>
</rwgt>
</event>
<event>
 4      1 +3.5234200e-07 1.46878900e+03 7.81860800e-03 8.33332500e-02
        2 -1    0    0  501    0 +0.0000000000e+00 +0.0000000000e+00 +2.6158470650e+03 2.6158470650e+03 0.0000000000e+00 0.0000e+00 -1.0000e+00
       -2 -1    0    0    0  501 -0.0000000000e+00 -0.0000000000e+00 -2.0617995801e+02 2.0617995801e+02 0.0000000000e+00 0.0000e+00 1.0000e+00
      -13  1    1    2    0    0 -5.9813768620e+02 +5.9564544675e+01 +3.9418151550e+02 7.1881547966e+02 0.0000000000e+00 0.0000e+00 1.0000e+00
       13  1    1    2    0    0 +5.9813768620e+02 -5.9564544675e+01 +2.0154855915e+03 2.1032115433e+03 0.0000000000e+00 0.0000e+00 -1.0000e+00
<mgrwt>
<rscale>  0 0.14687889E+04</rscale>
<asrwt>0</asrwt>
<pdfrwt beam="1">  1        2 0.40243799E+00 0.14687889E+04</pdfrwt>
<pdfrwt beam="2">  1       -2 0.31719995E-01 0.14687889E+04</pdfrwt>
<totfact> 0.31739612E+01</totfact>
</mgrwt>
<rwgt>
<wgt id='morphing_basis_vector_1'> +2.3845071e-04 </wgt>
<wgt id='morphing_basis_vector_2'> +1.5724397e-04 </wgt>
<wgt id='morphing_basis_vector_3'> +2.4690537e-04 </wgt>
<wgt id='morphing_basis_vector_4'> +1.6423335e-04 </wgt>
<wgt id='morphing_basis_vector_5'> +2.6320148e-04 </wgt>
</rwgt>
</event>
<event>
 4      1 +3.5234200e-07 1.51374600e+03 7.81860800e-03 8.30702500e-02
        2 -1    0    0  501    0 +0.0000000000e+00 +0.0000000000e+00 +1.0869183024e+03 1.0869183024e+03 0.0000000000e+00 0.0000e+00 -1.0000e+00
       -2 -1    0    0    0  501 -0.0000000000e+00 -0.0000000000e+00 -5.2704692144e+02 5.2704692144e+02 0.0000000000e+00 0.0000e+00 1.0000e+00
      -13  1    1    2    0    0 -4.5080212409e+02 -2.6765475917e+02 -3.0209489526e+02 6.0508094577e+02 0.0000000000e+00 0.0000e+00 1.0000e+00
       13  1    1    2    0    0 +4.5080212409e+02 +2.6765475917e+02 +8.6196627623e+02 1.0088842781e+03 0.0000000000e+00 0.0000e+00 -1.0000e+00
<mgrwt>
<rscale>  0 0.15137463E+04</rscale>
<asrwt>0</asrwt>
<pdfrwt beam="1">  1        2 0.16721820E+00 0.15137463E+04</pdfrwt>
<pdfrwt beam="2">  1       -2 0.81084142E-01 0.15137463E+04</pdfrwt>
<totfact> 0.36597581E+01</totfact>
</mgrwt>
<rwgt>
<wgt id='morphing_basis_vector_1'> +2.6735711e-04 </wgt>
<wgt id='morphing_basis_vector_2'> +1.7556433e-04 </wgt>
<wgt id='morphing_basis_vector_3'> +2.7778366e-04 </wgt>
<wgt id='morphing_basis_vector_4'> +1.8700399e-04 </wgt>
<wgt id='morphing_basis_vector_5'> +2.9832773e-04 </wgt>
</rwgt>
</event>
<event>
 4      1 +3.5234200e-07 1.36645300e+03 7.81860800e-03 8.39701800e-02
        2 -1    0    0  501    0 +0.0000000000e+00 +0.0000000000e+00 +1.3635041273e+03 1.3635041273e+03 0.0000000000e+00 0.0000e+00 -1.0000e+00
       -2 -1    0    0    0  501 -0.0000000000e+00 -0.0000000000e+00 -3.4235189787e+02 3.4235189787e+02 0.0000000000e+00 0.0000e+00 1.0000e+00
      -13  1    1    2    0    0 -6.0810355871e+02 +2.1886348359e+02 +2.3393306677e+02 6.8732513579e+02 0.0000000000e+00 0.0000e+00 1.0000e+00
       13  1    1    2    0    0 +6.0810355871e+02 -2.1886348359e+02 +7.8721916266e+02 1.0185308894e+03 0.0000000000e+00 0.0000e+00 -1.0000e+00
<mgrwt>
<rscale>  0 0.13664527E+04</rscale>
<asrwt>0</asrwt>
<pdfrwt beam="1">  1        2 0.20976986E+00 0.13664527E+04</pdfrwt>
<pdfrwt beam="2">  1       -2 0.52669524E-01 0.13664527E+04</pdfrwt>
<totfact> 0.63540113E+01</totfact>
</mgrwt>
<rwgt>
<wgt id='morphing_basis_vector_1'> +1.8198096e-04 </wgt>
<wgt id='morphing_basis_vector_2'> +1.2232472e-04 </wgt>
<wgt id='morphing_basis_vector_3'> +1.8678991e-04 </wgt>
<wgt id='morphing_basis_vector_4'> +1.1927922e-04 </wgt>
<wgt id='morphing_basis_vector_5'> +1.9467250e-04 </wgt>
</rwgt>
</event>
<event>
 4      1 +3.5234200e-07 1.44739100e+03 7.81860800e-03 8.34618800e-02
        2 -1    0    0  501    0 +0.0000000000e+00 +0.0000000000e+00 +1.0362159858e+03 1.0362159858e+03 0.0000000000e+00 0.0000e+00 1.0000e+00
       -2 -1    0    0    0  501 -0.0000000000e+00 -0.0000000000e+00 -5.0543061093e+02 5.0543061093e+02 0.0000000000e+00 0.0000e+00 -1.0000e+00
      -13  1    1    2    0    0 -6.9989634059e+01 -4.6092611602e+02 -3.2417252488e+02 5.6783735276e+02 0.0000000000e+00 0.0000e+00 -1.0000e+00
       13  1    1    2    0    0 +6.9989634059e+01 +4.6092611602e+02 +8.5495789977e+02 9.7380924399e+02 0.0000000000e+00 0.0000e+00 1.0000e+00
<mgrwt>
<rscale>  0 0.14473911E+04</rscale>
<asrwt>0</asrwt>
<pdfrwt beam="1">  1        2 0.15941784E+00 0.14473911E+04</pdfrwt>
<pdfrwt beam="2">  1       -2 0.77758556E-01 0.14473911E+04</pdfrwt>
<totfact> 0.43426656E+01</totfact>
</mgrwt>
<rwgt>
<wgt id='morphing_basis_vector_1'> +2.2485399e-04 </wgt>
<wgt id='morphing_basis_vector_2'> +1.4694983e-04 </wgt>
<wgt id='morphing_basis_vector_3'> +2.3224069e-04 </wgt>
<wgt id='morphing_basis_vector_4'> +1.5544989e-04 </wgt>
<wgt id='morphing_basis_vector_5'> +2.4770125e-04 </wgt>
</rwgt>
</event>
<event>
 4      1 +3.5234200e-07 1.35929800e+03 7.81860800e-03 8.40168700e-02
        2 -1    0    0  501    0 +0.0000000000e+00 +0.0000000000e+00 +1.1906351325e+03 1.1906351325e+03 0.0000000000e+00 0.0000e+00 1.0000e+00
       -2 -1    0    0    0  501 -0.0000000000e+00 -0.0000000000e+00 -3.8796355265e+02 3.8796355265e+02 0.0000000000e+00 0.0000e+00 -1.0000e+00
      -13  1    1    2    0    0 +1.3594249210e+02 -5.7304767609e+02 +7.4073867853e+00 5.8899819152e+02 0.0000000000e+00 0.0000e+00 -1.0000e+00
       13  1    1    2    0    0 -1.3594249210e+02 +5.7304767609e+02 +7.9526419311e+02 9.8960049367e+02 0.0000000000e+00 0.0000e+00 1.0000e+00
<mgrwt>
<rscale>  0 0.13592984E+04</rscale>
<asrwt>0</asrwt>
<pdfrwt beam="1">  1        2 0.18317463E+00 0.13592984E+04</pdfrwt>
<pdfrwt beam="2">  1       -2 0.59686701E-01 0.13592984E+04</pdfrwt>
<totfact> 0.62099051E+01</totfact>
</mgrwt>
<rwgt>
<wgt id='morphing_basis_vector_1'> +1.7734509e-04 </wgt>
<wgt id='morphing_basis_vector_2'> +1.1680444e-04 </wgt>
<wgt id='morphing_basis_vector_3'> +1.8166533e-04 </wgt>
<wgt id='morphing_basis_vector_4'> +1.1852878e-04 </wgt>
<wgt id='morphing_basis_vector_5'> +1.9058150e-04 </wgt>
</rwgt>
</event>
<event>
 4      1 +3.5234200e-07 1.48286100e+03 7.81860800e-03 8.32498900e-02
        2 -1    0    0  501    0 +0.0000000000e+00 +0.0000000000e+00 +2.0113040757e+03 2.0113040757e+03 0.0000000000e+00 0.0000e+00 -1.0000e+00
       -2 -1    0    0    0  501 -0.0000000000e+00 -0.0000000000e+00 -2.7331466406e+02 2.7331466406e+02 0.0000000000e+00 0.0000e+00 1.0000e+00
      -13  1    1    2    0    0 -2.3204137226e+02 +6.4485608855e+02 +4.3312471083e+02 8.1072781407e+02 0.0000000000e+00 0.0000e+00 1.0000e+00
       13  1    1    2    0    0 +2.3204137226e+02 -6.4485608855e+02 +1.3048647008e+03 1.4738909256e+03 0.0000000000e+00 0.0000e+00 -1.0000e+00
<mgrwt>
<rscale>  0 0.14828606E+04</rscale>
<asrwt>0</asrwt>
<pdfrwt beam="1">  1        2 0.30943139E+00 0.14828606E+04</pdfrwt>
<pdfrwt beam="2">  1       -2 0.42048411E-01 0.14828606E+04</pdfrwt>
<totfact> 0.42336831E+01</totfact>
</mgrwt>
<rwgt>
<wgt id='morphing_basis_vector_1'> +2.4860567e-04 </wgt>
<wgt id='morphing_basis_vector_2'> +1.6691877e-04 </wgt>
<wgt id='morphing_basis_vector_3'> +2.5807053e-04 </wgt>
<wgt id='morphing_basis_vector_4'> +1.6856628e-04 </wgt>
<wgt id='morphing_basis_vector_5'> +2.7365748e-04 </wgt>
</rwgt>
</event>
<event>
 4      1 +3.5234200e-07 1.54350700e+03 7.81860800e-03 8.29012900e-02
        2 -1    0    0  501    0 +0.0000000000e+00 +0.0000000000e+00 +1.5570351108e+03 1.5570351108e+03 0.0000000000e+00 0.0000e+00 1.0000e+00
       -2 -1    0    0    0  501 -0.0000000000e+00 -0.0000000000e+00 -3.8252420984e+02 3.8252420984e+02 0.0000000000e+00 0.0000e+00 -1.0000e+00
      -13  1    1    2    0    0 +1.2061573469e+02 -7.5643421324e+02 +7.0555379842e+02 1.0414158808e+03 0.0000000000e+00 0.0000e+00 -1.0000e+00
       13  1    1    2    0    0 -1.2061573469e+02 +7.5643421324e+02 +4.6895710253e+02 8.9814343978e+02 0.0000000000e+00 0.0000e+00 1.0000e+00
<mgrwt>
<rscale>  0 0.15435072E+04</rscale>
<asrwt>0</asrwt>
<pdfrwt beam="1">  1        2 0.23954386E+00 0.15435072E+04</pdfrwt>
<pdfrwt beam="2">  1       -2 0.58849880E-01 0.15435072E+04</pdfrwt>
<totfact> 0.38991378E+01</totfact>
</mgrwt>
<rwgt>
<wgt id='morphing_basis_vector_1'> +3.0404093e-04 </wgt>
<wgt id='morphing_basis_vector_2'> +2.3660736e-04 </wgt>
<wgt id='morphing_basis_vector_3'> +3.2117248e-04 </wgt>
<wgt id='morphing_basis_vector_4'> +1.7296024e-04 </wgt>
<wgt id='morphing_basis_vector_5'> +3.2114766e-04 </wgt>
</rwgt>
</event>
<event>
 4      1 +3.5234200e-07 1.35047700e+03 7.81860800e-03 8.40748400e-02
        2 -1    0    0  501    0 +0.0000000000e+00 +0.0000000000e+00 +2.8600298881e+03 2.8600298881e+03 0.0000000000e+00 0.0000e+00 1.0000e+00
       -2 -1    0    0    0  501 -0.0000000000e+00 -0.0000000000e+00 -1.5942044855e+02 1.5942044855e+02 0.0000000000e+00 0.0000e+00 -1.0000e+00
      -13  1    1    2    0    0 +8.0354614012e+01 -6.6854072346e+02 +1.2375402621e+03 1.4088681497e+03 0.0000000000e+00 0.0000e+00 -1.0000e+00
       13  1    1    2    0    0 -8.0354614012e+01 +6.6854072346e+02 +1.4630691775e+03 1.6105821870e+03 0.0000000000e+00 0.0000e+00 1.0000e+00
<mgrwt>
<rscale>  0 0.13504773E+04</rscale>
<asrwt>0</asrwt>
<pdfrwt beam="1">  1        2 0.44000456E+00 0.13504773E+04</pdfrwt>
<pdfrwt beam="2">  1       -2 0.24526225E-01 0.13504773E+04</pdfrwt>
<totfact> 0.35633293E+01</totfact>
</mgrwt>
<rwgt>
<wgt id='morphing_basis_vector_1'> +1.7696305e-04 </wgt>
<wgt id='morphing_basis_vector_2'> +1.2577560e-04 </wgt>
<wgt id='morphing_basis_vector_3'> +1.8193000e-04 </wgt>
<wgt id='morphing_basis_vector_4'> +1.0817428e-04 </wgt>
<wgt id='morphing_basis_vector_5'> +1.8495130e-04 </wgt>
</rwgt>
</event>
<event>
 4      1 +3.5234200e-07 1.33713900e+03 7.81860800e-03 8.41634000e-02
        2 -1    0    0  501    0 +0.0000000000e+00 +0.0000000000e+00 +1.8127810288e+03 1.8127810288e+03 0.0000000000e+00 0.0000e+00 -1.0000e+00
       -2 -1    0    0    0  501 -0.0000000000e+00 -0.0000000000e+00 -2.4657414666e+02 2.4657414666e+02 0.0000000000e+00 0.0000e+00 1.0000e+00
      -13  1    1    2    0    0 -5.3927203409e+02 +3.7657924780e+02 +9.6765259329e+02 1.1700332465e+03 0.0000000000e+00 0.0000e+00 1.0000e+00
       13  1    1    2    0    0 +5.3927203409e+02 -3.7657924780e+02 +5.9855428887e+02 8.8932192897e+02 0.0000000000e+00 0.0000e+00 -1.0000e+00
<mgrwt>
<rscale>  0 0.13371386E+04</rscale>
<asrwt>0</asrwt>
<pdfrwt beam="1">  1        2 0.27888938E+00 0.13371386E+04</pdfrwt>
<pdfrwt beam="2">  1       -2 0.37934485E-01 0.13371386E+04</pdfrwt>
<totfact> 0.67036474E+01</totfact>
</mgrwt>
<rwgt>
<wgt id='morphing_basis_vector_1'> +1.7702328e-04 </wgt>
<wgt id='morphing_basis_vector_2'> +1.4090032e-04 </wgt>
<wgt id='morphing_basis_vector_3'> +1.8301344e-04 </wgt>
<wgt id='morphing_basis_vector_4'> +9.1837959e-05 </wgt>
<wgt id='morphing_basis_vector_5'> +1.7657947e-04 </wgt>
</rwgt>
</event>
<event>
 4      1 +3.5234200e-07 1.45496500e+03 7.81860800e-03 8.34160900e-02
        2 -1    0    0  501    0 +0.0000000000e+00 +0.0000000000e+00 +2.4741468903e+03 2.4741468903e+03 0.0000000000e+00 0.0000e+00 -1.0000e+00
       -2 -1    0    0    0  501 -0.0000000000e+00 -0.0000000000e+00 -2.1390424304e+02 2.1390424304e+02 0.0000000000e+00 0.0000e+00 1.0000e+00
      -13  1    1    2    0    0 +4.6596826656e+02 -3.1974989694e+02 +2.8376320884e+02 6.3236696682e+02 0.0000000000e+00 0.0000e+00 1.0000e+00
       13  1    1    2    0    0 -4.6596826656e+02 +3.1974989694e+02 +1.9764794384e+03 2.0556841665e+03 0.0000000000e+00 0.0000e+00 -1.0000e+00
<mgrwt>
<rscale>  0 0.14549646E+04</rscale>
<asrwt>0</asrwt>
<pdfrwt beam="1">  1        2 0.38063796E+00 0.14549646E+04</pdfrwt>
<pdfrwt beam="2">  1       -2 0.32908347E-01 0.14549646E+04</pdfrwt>
<totfact> 0.36153594E+01</totfact>
</mgrwt>
<rwgt>
<wgt id='morphing_basis_vector_1'> +2.2972717e-04 </wgt>
<wgt id='morphing_basis_vector_2'> +1.5092257e-04 </wgt>
<wgt id='morphing_basis_vector_3'> +2.3752061e-04 </wgt>
<wgt id='morphing_basis_vector_4'> +1.5827861e-04 </wgt>
<wgt id='morphing_basis_vector_5'> +2.5309027e-04 </wgt>
</rwgt>
</event>
<event>
 4      1 +3.5234200e-07 1.35806000e+03 7.81860800e-03 8.40249800e-02
        2 -1    0    0  501    0 +0.0000000000e+00 +0.0000000000e+00 +1.1797672698e+03 1.1797672698e+03 0.0000000000e+00 0.0000e+00 -1.0000e+00
       -2 -1    0    0    0  501 -0.0000000000e+00 -0.0000000000e+00 -3.9082447741e+02 3.9082447741e+02 0.0000000000e+00 0.0000e+00 1.0000e+00
      -13  1    1    2    0    0 +2.1981444828e+02 +3.7998238905e+02 -2.0465278331e+02 4.8434261569e+02 0.0000000000e+00 0.0000e+00 1.0000e+00
       13  1    1    2    0    0 -2.1981444828e+02 -3.7998238905e+02 +9.9359557567e+02 1.0862491315e+03 0.0000000000e+00 0.0000e+00 -1.0000e+00
<mgrwt>
<rscale>  0 0.13580603E+04</rscale>
<asrwt>0</asrwt>
<pdfrwt beam="1">  1        2 0.18150266E+00 0.13580603E+04</pdfrwt>
<pdfrwt beam="2">  1       -2 0.60126843E-01 0.13580603E+04</pdfrwt>
<totfact> 0.62081194E+01</totfact>
</mgrwt>
<rwgt>
<wgt id='morphing_basis_vector_1'> +1.7607486e-04 </wgt>
<wgt id='morphing_basis_vector_2'> +1.1443686e-04 </wgt>
<wgt id='morphing_basis_vector_3'> +1.8019905e-04 </wgt>
<wgt id='morphing_basis_vector_4'> +1.1925766e-04 </wgt>
<wgt id='morphing_basis_vector_5'> +1.8994168e-04 </wgt>
</rwgt>
</event>
<event>
 4      1 +3.5234200e-07 1.31243500e+03 7.81860800e-03 8.43302800e-02
        2 -1    0    0  501    0 +0.0000000000e+00 +0.0000000000e+00 +8.0191161378e+02 8.0191161378e+02 0.0000000000e+00 0.0000e+00 1.0000e+00
       -2 -1    0    0    0  501 -0.0000000000e+00 -0.0000000000e+00 -5.3699390385e+02 5.3699390385e+02 0.0000000000e+00 0.0000e+00 -1.0000e+00
      -13  1    1    2    0    0 +9.9532094341e+01 +3.8258974175e+02 +6.6679758307e+02 7.7517776354e+02 0.0000000000e+00 0.0000e+00 1.0000e+00
       13  1    1    2    0    0 -9.9532094341e+01 -3.8258974175e+02 -4.0187987314e+02 5.6372775410e+02 0.0000000000e+00 0.0000e+00 -1.0000e+00
<mgrwt>
<rscale>  0 0.13124354E+04</rscale>
<asrwt>0</asrwt>
<pdfrwt beam="1">  1        2 0.12337102E+00 0.13124354E+04</pdfrwt>
<pdfrwt beam="2">  1       -2 0.82614447E-01 0.13124354E+04</pdfrwt>
<totfact> 0.54352104E+01</totfact>
</mgrwt>
<rwgt>
<wgt id='morphing_basis_vector_1'> +2.0539377e-04 </wgt>
<wgt id='morphing_basis_vector_2'> +2.5243154e-04 </wgt>
<wgt id='morphing_basis_vector_3'> +2.1890398e-04 </wgt>
<wgt id='morphing_basis_vector_4'> +1.2675494e-05 </wgt>
<wgt id='morphing_basis_vector_5'> +1.5820764e-04 </wgt>
</rwgt>
</event>
<event>
 4      1 +3.5234200e-07 1.34789800e+03 7.81860800e-03 8.40918800e-02
        2 -1    0    0  501    0 +0.0000000000e+00 +0.0000000000e+00 +1.0616850014e+03 1.0616850014e+03 0.0000000000e+00 0.0000e+00 -1.0000e+00
       -2 -1    0    0    0  501 -0.0000000000e+00 -0.0000000000e+00 -4.2781733715e+02 4.2781733715e+02 0.0000000000e+00 0.0000e+00 1.0000e+00
      -13  1    1    2    0    0 +1.0730992006e+02 -1.7454708023e+02 -3.9256454094e+02 4.4281939994e+02 0.0000000000e+00 0.0000e+00 1.0000e+00
       13  1    1    2    0    0 -1.0730992006e+02 +1.7454708023e+02 +1.0264322051e+03 1.0466829386e+03 0.0000000000e+00 0.0000e+00 -1.0000e+00
<mgrwt>
<rscale>  0 0.13478980E+04</rscale>
<asrwt>0</asrwt>
<pdfrwt beam="1">  1        2 0.16333615E+00 0.13478980E+04</pdfrwt>
<pdfrwt beam="2">  1       -2 0.65818052E-01 0.13478980E+04</pdfrwt>
<totfact> 0.60580459E+01</totfact>
</mgrwt>
<rwgt>
<wgt id='morphing_basis_vector_1'> +1.7096498e-04 </wgt>
<wgt id='morphing_basis_vector_2'> +1.1075749e-04 </wgt>
<wgt id='morphing_basis_vector_3'> +1.7474264e-04 </wgt>
<wgt id='morphing_basis_vector_4'> +1.1579488e-04 </wgt>
<wgt id='morphing_basis_vector_5'> +1.8408561e-04 </wgt>
</rwgt>
</event>
<event>
 4      1 +3.5234200e-07 1.41098200e+03 7.81860800e-03 8.36861400e-02
        2 -1    0    0  501    0 +0.0000000000e+00 +0.0000000000e+00 +2.7010851845e+03 2.7010851845e+03 0.0000000000e+00 0.0000e+00 1.0000e+00
       -2 -1    0    0    0  501 -0.0000000000e+00 -0.0000000000e+00 -1.8426577962e+02 1.8426577962e+02 0.0000000000e+00 0.0000e+00 -1.0000e+00
      -13  1    1    2    0    0 +2.1035587254e+02 -4.3224484050e+02 +2.0248340873e+02 5.2161741349e+02 0.0000000000e+00 0.0000e+00 -1.0000e+00
       13  1    1    2    0    0 -2.1035587254e+02 +4.3224484050e+02 +2.3143359962e+03 2.3637335506e+03 0.0000000000e+00 0.0000e+00 1.0000e+00
<mgrwt>
<rscale>  0 0.14109820E+04</rscale>
<asrwt>0</asrwt>
<pdfrwt beam="1">  1        2 0.41555154E+00 0.14109820E+04</pdfrwt>
<pdfrwt beam="2">  1       -2 0.28348583E-01 0.14109820E+04</pdfrwt>
<totfact> 0.34566148E+01</totfact>
</mgrwt>
<rwgt>
<wgt id='morphing_basis_vector_1'> +2.0392413e-04 </wgt>
<wgt id='morphing_basis_vector_2'> +1.3310242e-04 </wgt>
<wgt id='morphing_basis_vector_3'> +2.0989069e-04 </wgt>
<wgt id='morphing_basis_vector_4'> +1.3974770e-04 </wgt>
<wgt id='morphing_basis_vector_5'> +2.2277957e-04 </wgt>
</rwgt>
</event>
<event>
 4      1 +3.5234200e-07 1.34996400e+03 7.81860800e-03 8.40782300e-02
        2 -1    0    0  501    0 +0.0000000000e+00 +0.0000000000e+00 +3.3869708733e+03 3.3869708733e+03 0.0000000000e+00 0.0000e+00 1.0000e+00
       -2 -1    0    0    0  501 -0.0000000000e+00 -0.0000000000e+00 -1.3451570445e+02 1.3451570445e+02 0.0000000000e+00 0.0000e+00 -1.0000e+00
      -13  1    1    2    0    0 -4.6054333409e+01 +6.6522303369e+02 +1.8992958196e+03 2.0129498992e+03 0.0000000000e+00 0.0000e+00 -1.0000e+00
       13  1    1    2    0    0 +4.6054333409e+01 -6.6522303369e+02 +1.3531593492e+03 1.5085366785e+03 0.0000000000e+00 0.0000e+00 1.0000e+00
<mgrwt>
<rscale>  0 0.13499641E+04</rscale>
<asrwt>0</asrwt>
<pdfrwt beam="1">  1        2 0.52107238E+00 0.13499641E+04</pdfrwt>
<pdfrwt beam="2">  1       -2 0.20694726E-01 0.13499641E+04</pdfrwt>
<totfact> 0.21269787E+01</totfact>
</mgrwt>
<rwgt>
<wgt id='morphing_basis_vector_1'> +1.8269546e-04 </wgt>
<wgt id='morphing_basis_vector_2'> +1.4350333e-04 </wgt>
<wgt id='morphing_basis_vector_3'> +1.8904324e-04 </wgt>
<wgt id='morphing_basis_vector_4'> +9.7209190e-05 </wgt>
<wgt id='morphing_basis_vector_5'> +1.8388522e-04 </wgt>
</rwgt>
</event>
<event>
 4      1 +3.5234200e-07 1.29749600e+03 7.81860800e-03 8.44330800e-02
        2 -1    0    0  501    0 +0.0000000000e+00 +0.0000000000e+00 +2.0199552128e+03 2.0199552128e+03 0.0000000000e+00 0.0000e+00 -1.0000e+00
       -2 -1    0    0    0  501 -0.0000000000e+00 -0.0000000000e+00 -2.0835812154e+02 2.0835812154e+02 0.0000000000e+00 0.0000e+00 1.0000e+00
      -13  1    1    2    0    0 +3.9686687585e+01 +6.3176781634e+02 +6.6190145547e+02 9.1587070249e+02 0.0000000000e+00 0.0000e+00 -1.0000e+00
       13  1    1    2    0    0 -3.9686687585e+01 -6.3176781634e+02 +1.1496956358e+03 1.3124426319e+03 0.0000000000e+00 0.0000e+00 1.0000e+00
<mgrwt>
<rscale>  0 0.12974962E+04</rscale>
<asrwt>0</asrwt>
<pdfrwt beam="1">  1        2 0.31076233E+00 0.12974962E+04</pdfrwt>
<pdfrwt beam="2">  1       -2 0.32055097E-01 0.12974962E+04</pdfrwt>
<totfact> 0.70018885E+01</totfact>
</mgrwt>
<rwgt>
<wgt id='morphing_basis_vector_1'> +1.5013151e-04 </wgt>
<wgt id='morphing_basis_vector_2'> +1.0237228e-04 </wgt>
<wgt id='morphing_basis_vector_3'> +1.5295087e-04 </wgt>
<wgt id='morphing_basis_vector_4'> +9.4611914e-05 </wgt>
<wgt id='morphing_basis_vector_5'> +1.5663006e-04 </wgt>
</rwgt>
</event>
<event>
 4      1 +3.5234200e-07 1.38615100e+03 7.81860800e-03 8.38431600e-02
        2 -1    0    0  501    0 +0.0000000000e+00 +0.0000000000e+00 +1.0761953604e+03 1.0761953604e+03 0.0000000000e+00 0.0000e+00 -1.0000e+00
       -2 -1    0    0    0  501 -0.0000000000e+00 -0.0000000000e+00 -4.4634424769e+02 4.4634424769e+02 0.0000000000e+00 0.0000e+00 1.0000e+00
      -13  1    1    2    0    0 +4.1430192492e+02 -4.4222480071e+02 -5.4541122670e+01 6.0842714717e+02 0.0000000000e+00 0.0000e+00 1.0000e+00
       13  1    1    2    0    0 -4.1430192492e+02 +4.4222480071e+02 +6.8439223540e+02 9.1411246093e+02 0.0000000000e+00 0.0000e+00 -1.0000e+00
<mgrwt>
<rscale>  0 0.13861509E+04</rscale>
<asrwt>0</asrwt>
<pdfrwt beam="1">  1        2 0.16556852E+00 0.13861509E+04</pdfrwt>
<pdfrwt beam="2">  1       -2 0.68668346E-01 0.13861509E+04</pdfrwt>
<totfact> 0.54103671E+01</totfact>
</mgrwt>
<rwgt>
<wgt id='morphing_basis_vector_1'> +1.9121444e-04 </wgt>
<wgt id='morphing_basis_vector_2'> +1.2630474e-04 </wgt>
<wgt id='morphing_basis_vector_3'> +1.9646875e-04 </wgt>
<wgt id='morphing_basis_vector_4'> +1.2847906e-04 </wgt>
<wgt id='morphing_basis_vector_5'> +2.0679151e-04 </wgt>
</rwgt>
</event>
<event>
 4      1 +3.5234200e-07 1.29761500e+03 7.81860800e-03 8.44322600e-02
        2 -1    0    0  501    0 +0.0000000000e+00 +0.0000000000e+00 +1.4612123241e+03 1.4612123241e+03 0.0000000000e+00 0.0000e+00 1.0000e+00
       -2 -1    0    0    0  501 -0.0000000000e+00 -0.0000000000e+00 -2.8808350523e+02 2.8808350523e+02 0.0000000000e+00 0.0000e+00 -1.0000e+00
      -13  1    1    2    0    0 -3.6967021365e+02 -5.3081856927e+02 +6.5432830436e+02 9.2009235961e+02 0.0000000000e+00 0.0000e+00 -1.0000e+00
       13  1    1    2    0    0 +3.6967021365e+02 +5.3081856927e+02 +5.1880051456e+02 8.2920346975e+02 0.0000000000e+00 0.0000e+00 1.0000e+00
<mgrwt>
<rscale>  0 0.12976150E+04</rscale>
<asrwt>0</asrwt>
<pdfrwt beam="1">  1        2 0.22480189E+00 0.12976150E+04</pdfrwt>
<pdfrwt beam="2">  1       -2 0.44320540E-01 0.12976150E+04</pdfrwt>
<totfact> 0.78758137E+01</totfact>
</mgrwt>
<rwgt>
<wgt id='morphing_basis_vector_1'> +1.5489834e-04 </wgt>
<wgt id='morphing_basis_vector_2'> +1.1652866e-04 </wgt>
<wgt id='morphing_basis_vector_3'> +1.5867161e-04 </wgt>
<wgt id='morphing_basis_vector_4'> +8.6280396e-05 </wgt>
<wgt id='morphing_basis_vector_5'> +1.5610103e-04 </wgt>
</rwgt>
</event>
<event>
 4      1 +3.5234200e-07 1.50305800e+03 7.81860800e-03 8.31319100e-02
        2 -1    0    0  501    0 +0.0000000000e+00 +0.0000000000e+00 +7.9202655170e+02 7.9202655170e+02 0.0000000000e+00 0.0000e+00 1.0000e+00
       -2 -1    0    0    0  501 -0.0000000000e+00 -0.0000000000e+00 -7.1310259082e+02 7.1310259082e+02 0.0000000000e+00 0.0000e+00 -1.0000e+00
      -13  1    1    2    0    0 -1.7146577634e+02 -7.9843466569e+01 -6.8887812050e+02 7.1437284139e+02 0.0000000000e+00 0.0000e+00 -1.0000e+00
       13  1    1    2    0    0 +1.7146577634e+02 +7.9843466569e+01 +7.6780208138e+02 7.9075630113e+02 0.0000000000e+00 0.0000e+00 1.0000e+00
<mgrwt>
<rscale>  0 0.15030585E+04</rscale>
<asrwt>0</asrwt>
<pdfrwt beam="1">  1        2 0.12185024E+00 0.15030585E+04</pdfrwt>
<pdfrwt beam="2">  1       -2 0.10970809E+00 0.15030585E+04</pdfrwt>
<totfact> 0.27675434E+01</totfact>
</mgrwt>
<rwgt>
<wgt id='morphing_basis_vector_1'> +2.5987246e-04 </wgt>
<wgt id='morphing_basis_vector_2'> +1.6992570e-04 </wgt>
<wgt id='morphing_basis_vector_3'> +2.6969215e-04 </wgt>
<wgt id='morphing_basis_vector_4'> +1.8210749e-04 </wgt>
<wgt id='morphing_basis_vector_5'> +2.8973316e-04 </wgt>
</rwgt>
</event>
<event>
 4      1 +3.5234200e-07 1.29269500e+03 7.81860800e-03 8.44664200e-02
        2 -1    0    0  501    0 +0.0000000000e+00 +0.0000000000e+00 +7.3273313559e+02 7.3273313559e+02 0.0000000000e+00 0.0000e+00 1.0000e+00
       -2 -1    0    0    0  501 -0.0000000000e+00 -0.0000000000e+00 -5.7014665156e+02 5.7014665156e+02 0.0000000000e+00 0.0000e+00 -1.0000e+00
      -13  1    1    2    0    0 +2.5105281062e+00 +5.7333210739e+02 -2.1946912066e+02 6.1390773170e+02 0.0000000000e+00 0.0000e+00 -1.0000e+00
       13  1    1    2    0    0 -2.5105281062e+00 -5.7333210739e+02 +3.8205560469e+02 6.8897205545e+02 0.0000000000e+00 0.0000e+00 1.0000e+00
<mgrwt>
<rscale>  0 0.12926954E+04</rscale>
<asrwt>0</asrwt>
<pdfrwt beam="1">  1        2 0.11272817E+00 0.12926954E+04</pdfrwt>
<pdfrwt beam="2">  1       -2 0.87714869E-01 0.12926954E+04</pdfrwt>
<totfact> 0.53147382E+01</totfact>
</mgrwt>
<rwgt>
<wgt id='morphing_basis_vector_1'> +1.4650767e-04 </wgt>
<wgt id='morphing_basis_vector_2'> +9.6357582e-05 </wgt>
<wgt id='morphing_basis_vector_3'> +1.4888847e-04 </wgt>
<wgt id='morphing_basis_vector_4'> +9.5843486e-05 </wgt>
<wgt id='morphing_basis_vector_5'> +1.5440109e-04 </wgt>
</rwgt>
</event>
<event>
 4      1 +3.5234200e-07 1.29523000e+03 7.81860800e-03 8.44488000e-02
        2 -1    0    0  501    0 +0.0000000000e+00 +0.0000000000e+00 +1.6109850710e+03 1.6109850710e+03 0.0000000000e+00 0.0000e+00 1.0000e+00
       -2 -1    0    0    0  501 -0.0000000000e+00 -0.0000000000e+00 -2.6034099561e+02 2.6034099561e+02 0.0000000000e+00 0.0000e+00 -1.0000e+00
      -13  1    1    2    0    0 +5.6292645593e+02 +3.1885496122e+02 +6.3318052678e+02 9.0524707156e+02 0.0000000000e+00 0.0000e+00 -1.0000e+00
       13  1    1    2    0    0 -5.6292645593e+02 -3.1885496122e+02 +7.1746354858e+02 9.6607899502e+02 0.0000000000e+00 0.0000e+00 1.0000e+00
<mgrwt>
<rscale>  0 0.12952304E+04</rscale>
<asrwt>0</asrwt>
<pdfrwt beam="1">  1        2 0.24784385E+00 0.12952304E+04</pdfrwt>
<pdfrwt beam="2">  1       -2 0.40052462E-01 0.12952304E+04</pdfrwt>
<totfact> 0.78685586E+01</totfact>
</mgrwt>
<rwgt>
<wgt id='morphing_basis_vector_1'> +1.5132781e-04 </wgt>
<wgt id='morphing_basis_vector_2'> +1.0824614e-04 </wgt>
<wgt id='morphing_basis_vector_3'> +1.5452080e-04 </wgt>
<wgt id='morphing_basis_vector_4'> +9.0031822e-05 </wgt>
<wgt id='morphing_basis_vector_5'> +1.5521169e-04 </wgt>
</rwgt>
</event>
<event>
 4      1 +3.5234200e-07 1.43752300e+03 7.81860800e-03 8.35219800e-02
        2 -1    0    0  501    0 +0.0000000000e+00 +0.0000000000e+00 +1.6816234439e+03 1.6816234439e+03 0.0000000000e+00 0.0000e+00 1.0000e+00
       -2 -1    0    0    0  501 -0.0000000000e+00 -0.0000000000e+00 -3.0721373843e+02 3.0721373843e+02 0.0000000000e+00 0.0000e+00 -1.0000e+00
      -13  1    1    2    0    0 +4.3611320149e+02 -5.7133357469e+02 +6.8862034170e+02 9.9539678174e+02 0.0000000000e+00 0.0000e+00 -1.0000e+00
       13  1    1    2    0    0 -4.3611320149e+02 +5.7133357469e+02 +6.8578936379e+02 9.9344040061e+02 0.0000000000e+00 0.0000e+00 1.0000e+00
<mgrwt>
<rscale>  0 0.14375226E+04</rscale>
<asrwt>0</asrwt>
<pdfrwt beam="1">  1        2 0.25871129E+00 0.14375226E+04</pdfrwt>
<pdfrwt beam="2">  1       -2 0.47263653E-01 0.14375226E+04</pdfrwt>
<totfact> 0.51867621E+01</totfact>
</mgrwt>
<rwgt>
<wgt id='morphing_basis_vector_1'> +2.2684311e-04 </wgt>
<wgt id='morphing_basis_vector_2'> +1.6642317e-04 </wgt>
<wgt id='morphing_basis_vector_3'> +2.3602220e-04 </wgt>
<wgt id='morphing_basis_vector_4'> +1.3667705e-04 </wgt>
<wgt id='morphing_basis_vector_5'> +2.3969876e-04 </wgt>
</rwgt>
</event>
<event>
 4      1 +3.5234200e-07 1.43070600e+03 7.81860800e-03 8.35637900e-02
        2 -1    0    0  501    0 +0.0000000000e+00 +0.0000000000e+00 +8.9334598387e+02 8.9334598387e+02 0.0000000000e+00 0.0000e+00 -1.0000e+00
       -2 -1    0    0    0  501 -0.0000000000e+00 -0.0000000000e+00 -5.7282381435e+02 5.7282381435e+02 0.0000000000e+00 0.0000e+00 1.0000e+00
      -13  1    1    2    0    0 +7.1018315611e+02 +6.2921045472e+01 +1.0041242406e+02 7.2000126951e+02 0.0000000000e+00 0.0000e+00 1.0000e+00
       13  1    1    2    0    0 -7.1018315611e+02 -6.2921045472e+01 +2.2010974546e+02 7.4616852871e+02 0.0000000000e+00 0.0000e+00 -1.0000e+00
<mgrwt>
<rscale>  0 0.14307059E+04</rscale>
<asrwt>0</asrwt>
<pdfrwt beam="1">  1        2 0.13743784E+00 0.14307059E+04</pdfrwt>
<pdfrwt beam="2">  1       -2 0.88126740E-01 0.14307059E+04</pdfrwt>
<totfact> 0.40238801E+01</totfact>
</mgrwt>
<rwgt>
<wgt id='morphing_basis_vector_1'> +2.2067427e-04 </wgt>
<wgt id='morphing_basis_vector_2'> +1.5720690e-04 </wgt>
<wgt id='morphing_basis_vector_3'> +2.2894500e-04 </wgt>
<wgt id='morphing_basis_vector_4'> +1.3779431e-04 </wgt>
<wgt id='morphing_basis_vector_5'> +2.3528423e-04 </wgt>
</rwgt>
</event>
<event>
 4      1 +3.5234200e-07 1.52196600e+03 7.81860800e-03 8.30231900e-02
        2 -1    0    0  501    0 +0.0000000000e+00 +0.0000000000e+00 +4.7360603720e+03 4.7360603720e+03 0.0000000000e+00 0.0000e+00 -1.0000e+00
       -2 -1    0    0    0  501 -0.0000000000e+00 -0.0000000000e+00 -1.2227354319e+02 1.2227354319e+02 0.0000000000e+00 0.0000e+00 1.0000e+00
      -13  1    1    2    0    0 +6.4055315462e+02 +4.0149930656e+02 +2.0288863268e+03 2.1651535198e+03 0.0000000000e+00 0.0000e+00 1.0000e+00
       13  1    1    2    0    0 -6.4055315462e+02 -4.0149930656e+02 +2.5849005020e+03 2.6931803954e+03 0.0000000000e+00 0.0000e+00 -1.0000e+00
<mgrwt>
<rscale>  0 0.15219657E+04</rscale>
<asrwt>0</asrwt>
<pdfrwt beam="1">  1        2 0.72862453E+00 0.15219657E+04</pdfrwt>
<pdfrwt beam="2">  1       -2 0.18811318E-01 0.15219657E+04</pdfrwt>
<totfact> 0.15957019E+00</totfact>
</mgrwt>
<rwgt>
<wgt id='morphing_basis_vector_1'> +2.7921711e-04 </wgt>
<wgt id='morphing_basis_vector_2'> +1.9785249e-04 </wgt>
<wgt id='morphing_basis_vector_3'> +2.9203404e-04 </wgt>
<wgt id='morphing_basis_vector_4'> +1.7960280e-04 </wgt>
<wgt id='morphing_basis_vector_5'> +3.0422798e-04 </wgt>
</rwgt>
</event>
<event>
 4      1 +3.5234200e-07 1.32219800e+03 7.81860800e-03 8.42638800e-02
        2 -1    0    0  501    0 +0.0000000000e+00 +0.0000000000e+00 +2.8790913432e+03 2.8790913432e+03 0.0000000000e+00 0.0000e+00 -1.0000e+00
       -2 -1    0    0    0  501 -0.0000000000e+00 -0.0000000000e+00 -1.5180201959e+02 1.5180201959e+02 0.0000000000e+00 0.0000e+00 1.0000e+00
      -13  1    1    2    0    0 +6.0189695324e+02 +2.6648672453e+02 +1.2231431138e+03 1.3890191480e+03 0.0000000000e+00 0.0000e+00 1.0000e+00
       13  1    1    2    0    0 -6.0189695324e+02 -2.6648672453e+02 +1.5041462097e+03 1.6418742147e+03 0.0000000000e+00 0.0000e+00 -1.0000e+00
<mgrwt>
<rscale>  0 0.13221980E+04</rscale>
<asrwt>0</asrwt>
<pdfrwt beam="1">  1        2 0.44293709E+00 0.13221980E+04</pdfrwt>
<pdfrwt beam="2">  1       -2 0.23354159E-01 0.13221980E+04</pdfrwt>
<totfact> 0.37793780E+01</totfact>
</mgrwt>
<rwgt>
<wgt id='morphing_basis_vector_1'> +1.6292035e-04 </wgt>
<wgt id='morphing_basis_vector_2'> +1.1494010e-04 </wgt>
<wgt id='morphing_basis_vector_3'> +1.6682767e-04 </wgt>
<wgt id='morphing_basis_vector_4'> +9.9543284e-05 </wgt>
<wgt id='morphing_basis_vector_5'> +1.6931573e-04 </wgt>
</rwgt>
</event>
<event>
 4      1 +3.5234200e-07 1.30941800e+03 7.81860800e-03 8.43509300e-02
        2 -1    0    0  501    0 +0.0000000000e+00 +0.0000000000e+00 +7.2929170795e+02 7.2929170795e+02 0.0000000000e+00 0.0000e+00 -1.0000e+00
       -2 -1    0    0    0  501 -0.0000000000e+00 -0.0000000000e+00 -5.8775377324e+02 5.8775377324e+02 0.0000000000e+00 0.0000e+00 1.0000e+00
      -13  1    1    2    0    0 -5.4020355319e+02 -1.7946317745e+02 -2.5456068177e+02 6.2356078424e+02 0.0000000000e+00 0.0000e+00 1.0000e+00
       13  1    1    2    0    0 +5.4020355319e+02 +1.7946317745e+02 +3.9609861648e+02 6.9348469696e+02 0.0000000000e+00 0.0000e+00 -1.0000e+00
<mgrwt>
<rscale>  0 0.13094181E+04</rscale>
<asrwt>0</asrwt>
<pdfrwt beam="1">  1        2 0.11219872E+00 0.13094181E+04</pdfrwt>
<pdfrwt beam="2">  1       -2 0.90423658E-01 0.13094181E+04</pdfrwt>
<totfact> 0.49735040E+01</totfact>
</mgrwt>
<rwgt>
<wgt id='morphing_basis_vector_1'> +1.5374431e-04 </wgt>
<wgt id='morphing_basis_vector_2'> +1.0095045e-04 </wgt>
<wgt id='morphing_basis_vector_3'> +1.5655576e-04 </wgt>
<wgt id='morphing_basis_vector_4'> +1.0136328e-04 </wgt>
<wgt id='morphing_basis_vector_5'> +1.6297209e-04 </wgt>
</rwgt>
</event>
<event>
 4      1 +3.5234200e-07 1.33053900e+03 7.81860800e-03 8.42076100e-02
        2 -1    0    0  501    0 +0.0000000000e+00 +0.0000000000e+00 +1.1944356994e+03 1.1944356994e+03 0.0000000000e+00 0.0000e+00 -1.0000e+00
       -2 -1    0    0    0  501 -0.0000000000e+00 -0.0000000000e+00 -3.7053800488e+02 3.7053800488e+02 0.0000000000e+00 0.0000e+00 1.0000e+00
      -13  1    1    2    0    0 +4.5817800386e+02 -2.1012426527e+02 -9.8720956793e+01 5.1363909254e+02 0.0000000000e+00 0.0000e+00 1.0000e+00
       13  1    1    2    0    0 -4.5817800386e+02 +2.1012426527e+02 +9.2261865131e+02 1.0513346117e+03 0.0000000000e+00 0.0000e+00 -1.0000e+00
<mgrwt>
<rscale>  0 0.13305395E+04</rscale>
<asrwt>0</asrwt>
<pdfrwt beam="1">  1        2 0.18375934E+00 0.13305395E+04</pdfrwt>
<pdfrwt beam="2">  1       -2 0.57005847E-01 0.13305395E+04</pdfrwt>
<totfact> 0.68001671E+01</totfact>
</mgrwt>
<rwgt>
<wgt id='morphing_basis_vector_1'> +1.6298071e-04 </wgt>
<wgt id='morphing_basis_vector_2'> +1.0612035e-04 </wgt>
<wgt id='morphing_basis_vector_3'> +1.6630289e-04 </wgt>
<wgt id='morphing_basis_vector_4'> +1.0918647e-04 </wgt>
<wgt id='morphing_basis_vector_5'> +1.7433091e-04 </wgt>
</rwgt>
</event>
<event>
 4      1 +3.5234200e-07 1.33334500e+03 7.81860800e-03 8.41887800e-02
        2 -1    0    0  501    0 +0.0000000000e+00 +0.0000000000e+00 +4.7482477497e+02 4.7482477497e+02 0.0000000000e+00 0.0000e+00 -1.0000e+00
       -2 -1    0    0    0  501 -0.0000000000e+00 -0.0000000000e+00 -9.3603467870e+02 9.3603467870e+02 0.0000000000e+00 0.0000e+00 1.0000e+00
      -13  1    1    2    0    0 -5.2495345283e+02 -3.4441212621e+02 -4.6781753358e+02 7.8297451111e+02 0.0000000000e+00 0.0000e+00 1.0000e+00
       13  1    1    2    0    0 +5.2495345283e+02 +3.4441212621e+02 +6.6076298420e+00 6.2788494256e+02 0.0000000000e+00 0.0000e+00 -1.0000e+00
<mgrwt>
<rscale>  0 0.13333454E+04</rscale>
<asrwt>0</asrwt>
<pdfrwt beam="1">  1        2 0.73049966E-01 0.13333454E+04</pdfrwt>
<pdfrwt beam="2">  1       -2 0.14400533E+00 0.13333454E+04</pdfrwt>
<totfact> 0.25123584E+01</totfact>
</mgrwt>
<rwgt>
<wgt id='morphing_basis_vector_1'> +1.6559148e-04 </wgt>
<wgt id='morphing_basis_vector_2'> +1.1086888e-04 </wgt>
<wgt id='morphing_basis_vector_3'> +1.6928601e-04 </wgt>
<wgt id='morphing_basis_vector_4'> +1.0783192e-04 </wgt>
<wgt id='morphing_basis_vector_5'> +1.7570998e-04 </wgt>
</rwgt>
</event>
<event>
 4      1 +3.5234200e-07 1.34407500e+03 7.81860800e-03 8.41172100e-02
        2 -1    0    0  501    0 +0.0000000000e+00 +0.0000000000e+00 +3.0394693823e+03 3.0394693823e+03 0.0000000000e+00 0.0000e+00 -1.0000e+00
       -2 -1    0    0    0  501 -0.0000000000e+00 -0.0000000000e+00 -1.4858985080e+02 1.4858985080e+02 0.0000000000e+00 0.0000e+00 1.0000e+00
      -13  1    1    2    0    0 -6.2717414444e+02 +1.7199342082e+02 +1.8473072753e+03 1.9584364461e+03 0.0000000000e+00 0.0000e+00 -1.0000e+00
       13  1    1    2    0    0 +6.2717414444e+02 -1.7199342082e+02 +1.0435722563e+03 1.2296227870e+03 0.0000000000e+00 0.0000e+00 1.0000e+00
<mgrwt>
<rscale>  0 0.13440749E+04</rscale>
<asrwt>0</asrwt>
<pdfrwt beam="1">  1        2 0.46761063E+00 0.13440749E+04</pdfrwt>
<pdfrwt beam="2">  1       -2 0.22859979E-01 0.13440749E+04</pdfrwt>
<totfact> 0.30877211E+01</totfact>
</mgrwt>
<rwgt>
<wgt id='morphing_basis_vector_1'> +1.8370130e-04 </wgt>
<wgt id='morphing_basis_vector_2'> +1.5315719e-04 </wgt>
<wgt id='morphing_basis_vector_3'> +1.9072028e-04 </wgt>
<wgt id='morphing_basis_vector_4'> +8.8191095e-05 </wgt>
<wgt id='morphing_basis_vector_5'> +1.8003699e-04 </wgt>
</rwgt>
</event>
<event>
 4      1 +3.5234200e-07 1.38333300e+03 7.81860800e-03 8.38611900e-02
        2 -1    0    0  501    0 +0.0000000000e+00 +0.0000000000e+00 +2.8430368356e+03 2.8430368356e+03 0.0000000000e+00 0.0000e+00 -1.0000e+00
       -2 -1    0    0    0  501 -0.0000000000e+00 -0.0000000000e+00 -1.6827177115e+02 1.6827177115e+02 0.0000000000e+00 0.0000e+00 1.0000e+00
      -13  1    1    2    0    0 +3.8728336310e+02 +2.2969566562e+02 +1.9447574439e+02 4.9047866141e+02 0.0000000000e+00 0.0000e+00 1.0000e+00
       13  1    1    2    0    0 -3.8728336310e+02 -2.2969566562e+02 +2.4802893200e+03 2.5208299453e+03 0.0000000000e+00 0.0000e+00 -1.0000e+00
<mgrwt>
<rscale>  0 0.13833334E+04</rscale>
<asrwt>0</asrwt>
<pdfrwt beam="1">  1        2 0.43739025E+00 0.13833334E+04</pdfrwt>
<pdfrwt beam="2">  1       -2 0.25887967E-01 0.13833334E+04</pdfrwt>
<totfact> 0.33164313E+01</totfact>
</mgrwt>
<rwgt>
<wgt id='morphing_basis_vector_1'> +1.8897024e-04 </wgt>
<wgt id='morphing_basis_vector_2'> +1.2303576e-04 </wgt>
<wgt id='morphing_basis_vector_3'> +1.9393312e-04 </wgt>
<wgt id='morphing_basis_vector_4'> +1.2877312e-04 </wgt>
<wgt id='morphing_basis_vector_5'> +2.0514315e-04 </wgt>
</rwgt>
</event>
<event>
 4      1 +3.5234200e-07 1.38794800e+03 7.81860800e-03 8.38316800e-02
        2 -1    0    0  501    0 +0.0000000000e+00 +0.0000000000e+00 +4.5462807221e+02 4.5462807221e+02 0.0000000000e+00 0.0000e+00 1.0000e+00
       -2 -1    0    0    0  501 -0.0000000000e+00 -0.0000000000e+00 -1.0593275995e+03 1.0593275995e+03 0.0000000000e+00 0.0000e+00 -1.0000e+00
      -13  1    1    2    0    0 -3.8499967357e+02 +8.5249948760e+01 +3.2055329509e+02 5.0817980814e+02 0.0000000000e+00 0.0000e+00 1.0000e+00
       13  1    1    2    0    0 +3.8499967357e+02 -8.5249948760e+01 -9.2525282238e+02 1.0057758636e+03 0.0000000000e+00 0.0000e+00 -1.0000e+00
<mgrwt>
<rscale>  0 0.13879482E+04</rscale>
<asrwt>0</asrwt>
<pdfrwt beam="1">  1        2 0.69942780E-01 0.13879482E+04</pdfrwt>
<pdfrwt beam="2">  1       -2 0.16297348E+00 0.13879482E+04</pdfrwt>
<totfact> 0.18376275E+01</totfact>
</mgrwt>
<rwgt>
<wgt id='morphing_basis_vector_1'> +2.5616211e-04 </wgt>
<wgt id='morphing_basis_vector_2'> +3.1817239e-04 </wgt>
<wgt id='morphing_basis_vector_3'> +2.7779563e-04 </wgt>
<wgt id='morphing_basis_vector_4'> +1.2700962e-05 </wgt>
<wgt id='morphing_basis_vector_5'> +1.9948964e-04 </wgt>
</rwgt>
</event>
<event>
 4      1 +3.5234200e-07 1.30536700e+03 7.81860800e-03 8.43787400e-02
        2 -1    0    0  501    0 +0.0000000000e+00 +0.0000000000e+00 +1.3951117088e+03 1.3951117088e+03 0.0000000000e+00 0.0000e+00 1.0000e+00
       -2 -1    0    0    0  501 -0.0000000000e+00 -0.0000000000e+00 -3.0534900123e+02 3.0534900123e+02 0.0000000000e+00 0.0000e+00 -1.0000e+00
      -13  1    1    2    0    0 -3.7918095946e+01 -2.9911008115e+02 -2.0919525143e+02 3.6697040190e+02 0.0000000000e+00 0.0000e+00 -1.0000e+00
       13  1    1    2    0    0 +3.7918095946e+01 +2.9911008115e+02 +1.2989579590e+03 1.3334903082e+03 0.0000000000e+00 0.0000e+00 1.0000e+00
<mgrwt>
<rscale>  0 0.13053673E+04</rscale>
<asrwt>0</asrwt>
<pdfrwt beam="1">  1        2 0.21463257E+00 0.13053673E+04</pdfrwt>
<pdfrwt beam="2">  1       -2 0.46976770E-01 0.13053673E+04</pdfrwt>
<totfact> 0.76669819E+01</totfact>
</mgrwt>
<rwgt>
<wgt id='morphing_basis_vector_1'> +1.5127135e-04 </wgt>
<wgt id='morphing_basis_vector_2'> +9.7740258e-05 </wgt>
<wgt id='morphing_basis_vector_3'> +1.5383283e-04 </wgt>
<wgt id='morphing_basis_vector_4'> +1.0124260e-04 </wgt>
<wgt id='morphing_basis_vector_5'> +1.6095181e-04 </wgt>
</rwgt>
</event>
<event>
 4      1 +3.5234200e-07 1.29742600e+03 7.81860800e-03 8.44335700e-02
        2 -1    0    0  501    0 +0.0000000000e+00 +0.0000000000e+00 +1.8981515570e+03 1.8981515570e+03 0.0000000000e+00 0.0000e+00 1.0000e+00
       -2 -1    0    0    0  501 -0.0000000000e+00 -0.0000000000e+00 -2.2170435943e+02 2.2170435943e+02 0.0000000000e+00 0.0000e+00 -1.0000e+00
      -13  1    1    2    0    0 +2.3451449223e+02 +5.9992563664e+02 +9.6394487888e+02 1.1593522097e+03 0.0000000000e+00 0.0000e+00 1.0000e+00
       13  1    1    2    0    0 -2.3451449223e+02 -5.9992563664e+02 +7.1250231871e+02 9.6050370678e+02 0.0000000000e+00 0.0000e+00 -1.0000e+00
<mgrwt>
<rscale>  0 0.12974259E+04</rscale>
<asrwt>0</asrwt>
<pdfrwt beam="1">  1        2 0.29202330E+00 0.12974259E+04</pdfrwt>
<pdfrwt beam="2">  1       -2 0.34108364E-01 0.12974259E+04</pdfrwt>
<totfact> 0.73235117E+01</totfact>
</mgrwt>
<rwgt>
<wgt id='morphing_basis_vector_1'> +1.5589532e-04 </wgt>
<wgt id='morphing_basis_vector_2'> +1.1970642e-04 </wgt>
<wgt id='morphing_basis_vector_3'> +1.5988024e-04 </wgt>
<wgt id='morphing_basis_vector_4'> +8.4305566e-05 </wgt>
<wgt id='morphing_basis_vector_5'> +1.5587027e-04 </wgt>
</rwgt>
</event>
<event>
 4      1 +3.5234200e-07 1.30133000e+03 7.81860800e-03 8.44065600e-02
        2 -1    0    0  501    0 +0.0000000000e+00 +0.0000000000e+00 +1.4947259374e+03 1.4947259374e+03 0.0000000000e+00 0.0000e+00 -1.0000e+00
       -2 -1    0    0    0  501 -0.0000000000e+00 -0.0000000000e+00 -2.8323907715e+02 2.8323907715e+02 0.0000000000e+00 0.0000e+00 1.0000e+00
      -13  1    1    2    0    0 -7.2516675062e+01 -6.4023989652e+02 +7.2945671439e+02 9.7327945187e+02 0.0000000000e+00 0.0000e+00 1.0000e+00
       13  1    1    2    0    0 +7.2516675062e+01 +6.4023989652e+02 +4.8203014583e+02 8.0468556265e+02 0.0000000000e+00 0.0000e+00 -1.0000e+00
<mgrwt>
<rscale>  0 0.13013298E+04</rscale>
<asrwt>0</asrwt>
<pdfrwt beam="1">  1        2 0.22995783E+00 0.13013298E+04</pdfrwt>
<pdfrwt beam="2">  1       -2 0.43575243E-01 0.13013298E+04</pdfrwt>
<totfact> 0.77886066E+01</totfact>
</mgrwt>
<rwgt>
<wgt id='morphing_basis_vector_1'> +1.5829454e-04 </wgt>
<wgt id='morphing_basis_vector_2'> +1.2291701e-04 </wgt>
<wgt id='morphing_basis_vector_3'> +1.6254410e-04 </wgt>
<wgt id='morphing_basis_vector_4'> +8.4300540e-05 </wgt>
<wgt id='morphing_basis_vector_5'> +1.5777106e-04 </wgt>
</rwgt>
</event>
<event>
 4      1 +3.5234200e-07 1.41900700e+03 7.81860800e-03 8.36361100e-02
        2 -1    0    0  501    0 +0.0000000000e+00 +0.0000000000e+00 +2.3220480689e+03 2.3220480689e+03 0.0000000000e+00 0.0000e+00 -1.0000e+00
       -2 -1    0    0    0  501 -0.0000000000e+00 -0.0000000000e+00 -2.1678936926e+02 2.1678936926e+02 0.0000000000e+00 0.0000e+00 1.0000e+00
      -13  1    1    2    0    0 -4.3971314422e+02 -9.5892657324e+01 +7.1272491849e+01 4.5565647041e+02 0.0000000000e+00 0.0000e+00 1.0000e+00
       13  1    1    2    0    0 +4.3971314422e+02 +9.5892657324e+01 +2.0339862078e+03 2.0831809677e+03 0.0000000000e+00 0.0000e+00 -1.0000e+00
<mgrwt>
<rscale>  0 0.14190072E+04</rscale>
<asrwt>0</asrwt>
<pdfrwt beam="1">  1        2 0.35723815E+00 0.14190072E+04</pdfrwt>
<pdfrwt beam="2">  1       -2 0.33352212E-01 0.14190072E+04</pdfrwt>
<totfact> 0.43447095E+01</totfact>
</mgrwt>
<rwgt>
<wgt id='morphing_basis_vector_1'> +2.0835289e-04 </wgt>
<wgt id='morphing_basis_vector_2'> +1.3591191e-04 </wgt>
<wgt id='morphing_basis_vector_3'> +2.1460616e-04 </wgt>
<wgt id='morphing_basis_vector_4'> +1.4319735e-04 </wgt>
<wgt id='morphing_basis_vector_5'> +2.2811234e-04 </wgt>
</rwgt>
</event>
<event>
 4      1 +3.5234200e-07 1.29968800e+03 7.81860800e-03 8.44179100e-02
        2 -1    0    0  501    0 +0.0000000000e+00 +0.0000000000e+00 +1.5556040028e+03 1.5556040028e+03 0.0000000000e+00 0.0000e+00 -1.0000e+00
       -2 -1    0    0    0  501 -0.0000000000e+00 -0.0000000000e+00 -2.7146821770e+02 2.7146821770e+02 0.0000000000e+00 0.0000e+00 1.0000e+00
      -13  1    1    2    0    0 -2.5388847431e+02 -2.5669662166e+02 -1.1750047585e+02 3.7968259742e+02 0.0000000000e+00 0.0000e+00 1.0000e+00
       13  1    1    2    0    0 +2.5388847431e+02 +2.5669662166e+02 +1.4016362609e+03 1.4473896230e+03 0.0000000000e+00 0.0000e+00 -1.0000e+00
<mgrwt>
<rscale>  0 0.12996877E+04</rscale>
<asrwt>0</asrwt>
<pdfrwt beam="1">  1        2 0.23932369E+00 0.12996877E+04</pdfrwt>
<pdfrwt beam="2">  1       -2 0.41764342E-01 0.12996877E+04</pdfrwt>
<totfact> 0.78062929E+01</totfact>
</mgrwt>
<rwgt>
<wgt id='morphing_basis_vector_1'> +1.4880511e-04 </wgt>
<wgt id='morphing_basis_vector_2'> +9.6173539e-05 </wgt>
<wgt id='morphing_basis_vector_3'> +1.5122210e-04 </wgt>
<wgt id='morphing_basis_vector_4'> +9.9359988e-05 </wgt>
<wgt id='morphing_basis_vector_5'> +1.5803045e-04 </wgt>
</rwgt>
</event>
<event>
 4      1 +3.5234200e-07 1.44619900e+03 7.81860800e-03 8.34691100e-02
        2 -1    0    0  501    0 +0.0000000000e+00 +0.0000000000e+00 +1.8918041448e+03 1.8918041448e+03 0.0000000000e+00 0.0000e+00 1.0000e+00
       -2 -1    0    0    0  501 -0.0000000000e+00 -0.0000000000e+00 -2.7638857856e+02 2.7638857856e+02 0.0000000000e+00 0.0000e+00 -1.0000e+00
      -13  1    1    2    0    0 -5.1510473690e+02 -3.7050755378e+02 +2.8778582877e+02 6.9672765168e+02 0.0000000000e+00 0.0000e+00 -1.0000e+00
       13  1    1    2    0    0 +5.1510473690e+02 +3.7050755378e+02 +1.3276297375e+03 1.4714650717e+03 0.0000000000e+00 0.0000e+00 1.0000e+00
<mgrwt>
<rscale>  0 0.14461992E+04</rscale>
<asrwt>0</asrwt>
<pdfrwt beam="1">  1        2 0.29104678E+00 0.14461992E+04</pdfrwt>
<pdfrwt beam="2">  1       -2 0.42521321E-01 0.14461992E+04</pdfrwt>
<totfact> 0.48497599E+01</totfact>
</mgrwt>
<rwgt>
<wgt id='morphing_basis_vector_1'> +2.2508358e-04 </wgt>
<wgt id='morphing_basis_vector_2'> +1.4928379e-04 </wgt>
<wgt id='morphing_basis_vector_3'> +2.3268888e-04 </wgt>
<wgt id='morphing_basis_vector_4'> +1.5318250e-04 </wgt>
<wgt id='morphing_basis_vector_5'> +2.4672704e-04 </wgt>
</rwgt>
</event>
<event>
 4      1 +3.5234200e-07 1.33059500e+03 7.81860800e-03 8.42072400e-02
        2 -1    0    0  501    0 +0.0000000000e+00 +0.0000000000e+00 +2.3697890578e+03 2.3697890578e+03 0.0000000000e+00 0.0000e+00 -1.0000e+00
       -2 -1    0    0    0  501 -0.0000000000e+00 -0.0000000000e+00 -1.8677634839e+02 1.8677634839e+02 0.0000000000e+00 0.0000e+00 1.0000e+00
      -13  1    1    2    0    0 +5.6298912684e+02 -2.1334955447e+02 +5.4756585513e+02 8.1382009993e+02 0.0000000000e+00 0.0000e+00 1.0000e+00
       13  1    1    2    0    0 -5.6298912684e+02 +2.1334955447e+02 +1.6354468542e+03 1.7427453062e+03 0.0000000000e+00 0.0000e+00 -1.0000e+00
<mgrwt>
<rscale>  0 0.13305947E+04</rscale>
<asrwt>0</asrwt>
<pdfrwt beam="1">  1        2 0.36458291E+00 0.13305947E+04</pdfrwt>
<pdfrwt beam="2">  1       -2 0.28734824E-01 0.13305947E+04</pdfrwt>
<totfact> 0.53576323E+01</totfact>
</mgrwt>
<rwgt>
<wgt id='morphing_basis_vector_1'> +1.6376212e-04 </wgt>
<wgt id='morphing_basis_vector_2'> +1.0839854e-04 </wgt>
<wgt id='morphing_basis_vector_3'> +1.6725382e-04 </wgt>
<wgt id='morphing_basis_vector_4'> +1.0785114e-04 </wgt>
<wgt id='morphing_basis_vector_5'> +1.7426483e-04 </wgt>
</rwgt>
</event>
<event>
 4      1 +3.5234200e-07 1.29815900e+03 7.81860800e-03 8.44284900e-02
        2 -1    0    0  501    0 +0.0000000000e+00 +0.0000000000e+00 +4.8660392063e+02 4.8660392063e+02 0.0000000000e+00 0.0000e+00 1.0000e+00
       -2 -1    0    0    0  501 -0.0000000000e+00 -0.0000000000e+00 -8.6580509636e+02 8.6580509636e+02 0.0000000000e+00 0.0000e+00 -1.0000e+00
      -13  1    1    2    0    0 -3.1664996858e+02 +2.9897658265e+02 -6.9101440936e+02 8.1679563754e+02 0.0000000000e+00 0.0000e+00 1.0000e+00
       13  1    1    2    0    0 +3.1664996858e+02 -2.9897658265e+02 +3.1181323364e+02 5.3561337945e+02 0.0000000000e+00 0.0000e+00 -1.0000e+00
<mgrwt>
<rscale>  0 0.12981589E+04</rscale>
<asrwt>0</asrwt>
<pdfrwt beam="1">  1        2 0.74862142E-01 0.12981589E+04</pdfrwt>
<pdfrwt beam="2">  1       -2 0.13320078E+00 0.12981589E+04</pdfrwt>
<totfact> 0.30390894E+01</totfact>
</mgrwt>
<rwgt>
<wgt id='morphing_basis_vector_1'> +1.4821902e-04 </wgt>
<wgt id='morphing_basis_vector_2'> +9.5972213e-05 </wgt>
<wgt id='morphing_basis_vector_3'> +1.5061220e-04 </wgt>
<wgt id='morphing_basis_vector_4'> +9.8729011e-05 </wgt>
<wgt id='morphing_basis_vector_5'> +1.5724177e-04 </wgt>
</rwgt>
</event>
<event>
 4      1 +3.5234200e-07 1.41617100e+03 7.81860800e-03 8.36537500e-02
        2 -1    0    0  501    0 +0.0000000000e+00 +0.0000000000e+00 +1.6167187072e+03 1.6167187072e+03 0.0000000000e+00 0.0000e+00 -1.0000e+00
       -2 -1    0    0    0  501 -0.0000000000e+00 -0.0000000000e+00 -3.1012505212e+02 3.1012505212e+02 0.0000000000e+00 0.0000e+00 1.0000e+00
      -13  1    1    2    0    0 -2.2860393050e+02 -5.9350280235e+02 +2.2980297931e+02 6.7625050295e+02 0.0000000000e+00 0.0000e+00 1.0000e+00
       13  1    1    2    0    0 +2.2860393050e+02 +5.9350280235e+02 +1.0767906757e+03 1.2505932563e+03 0.0000000000e+00 0.0000e+00 -1.0000e+00
<mgrwt>
<rscale>  0 0.14161709E+04</rscale>
<asrwt>0</asrwt>
<pdfrwt beam="1">  1        2 0.24872595E+00 0.14161709E+04</pdfrwt>
<pdfrwt beam="2">  1       -2 0.47711547E-01 0.14161709E+04</pdfrwt>
<totfact> 0.55432947E+01</totfact>
</mgrwt>
<rwgt>
<wgt id='morphing_basis_vector_1'> +2.0786122e-04 </wgt>
<wgt id='morphing_basis_vector_2'> +1.3814446e-04 </wgt>
<wgt id='morphing_basis_vector_3'> +2.1430428e-04 </wgt>
<wgt id='morphing_basis_vector_4'> +1.3998848e-04 </wgt>
<wgt id='morphing_basis_vector_5'> +2.2607252e-04 </wgt>
</rwgt>
</event>
<event>
 4      1 +3.5234200e-07 1.52177100e+03 7.81860800e-03 8.30243000e-02
        2 -1    0    0  501    0 +0.0000000000e+00 +0.0000000000e+00 +1.1080903006e+03 1.1080903006e+03 0.0000000000e+00 0.0000e+00 1.0000e+00
       -2 -1    0    0    0  501 -0.0000000000e+00 -0.0000000000e+00 -5.2247265880e+02 5.2247265880e+02 0.0000000000e+00 0.0000e+00 -1.0000e+00
      -13  1    1    2    0    0 +6.2284751709e+02 -3.9857797474e+01 -1.7352855929e+02 6.4779613649e+02 0.0000000000e+00 0.0000e+00 -1.0000e+00
       13  1    1    2    0    0 -6.2284751709e+02 +3.9857797474e+01 +7.5914620107e+02 9.8276682288e+02 0.0000000000e+00 0.0000e+00 1.0000e+00
<mgrwt>
<rscale>  0 0.15217712E+04</rscale>
<asrwt>0</asrwt>
<pdfrwt beam="1">  1        2 0.17047543E+00 0.15217712E+04</pdfrwt>
<pdfrwt beam="2">  1       -2 0.80380409E-01 0.15217712E+04</pdfrwt>
<totfact> 0.36226819E+01</totfact>
</mgrwt>
<rwgt>
<wgt id='morphing_basis_vector_1'> +2.7339326e-04 </wgt>
<wgt id='morphing_basis_vector_2'> +1.8081060e-04 </wgt>
<wgt id='morphing_basis_vector_3'> +2.8438772e-04 </wgt>
<wgt id='morphing_basis_vector_4'> +1.9016230e-04 </wgt>
<wgt id='morphing_basis_vector_5'> +3.0486069e-04 </wgt>
</rwgt>
</event>
<event>
 4      1 +3.5234200e-07 1.44695400e+03 7.81860800e-03 8.34645300e-02
        2 -1    0    0  501    0 +0.0000000000e+00 +0.0000000000e+00 +2.2602202978e+03 2.2602202978e+03 0.0000000000e+00 0.0000e+00 1.0000e+00
       -2 -1    0    0    0  501 -0.0000000000e+00 -0.0000000000e+00 -2.3157888293e+02 2.3157888293e+02 0.0000000000e+00 0.0000e+00 -1.0000e+00
      -13  1    1    2    0    0 +4.8330828048e+02 -2.5619993110e+02 +1.9892172267e+02 5.8206112259e+02 0.0000000000e+00 0.0000e+00 -1.0000e+00
       13  1    1    2    0    0 -4.8330828048e+02 +2.5619993110e+02 +1.8297196922e+03 1.9097380581e+03 0.0000000000e+00 0.0000e+00 1.0000e+00
<mgrwt>
<rscale>  0 0.14469544E+04</rscale>
<asrwt>0</asrwt>
<pdfrwt beam="1">  1        2 0.34772618E+00 0.14469544E+04</pdfrwt>
<pdfrwt beam="2">  1       -2 0.35627522E-01 0.14469544E+04</pdfrwt>
<totfact> 0.41737988E+01</totfact>
</mgrwt>
<rwgt>
<wgt id='morphing_basis_vector_1'> +2.2482528e-04 </wgt>
<wgt id='morphing_basis_vector_2'> +1.4746869e-04 </wgt>
<wgt id='morphing_basis_vector_3'> +2.3226008e-04 </wgt>
<wgt id='morphing_basis_vector_4'> +1.5482675e-04 </wgt>
<wgt id='morphing_basis_vector_5'> +2.4735929e-04 </wgt>
</rwgt>
</event>
<event>
 4      1 +3.5234200e-07 1.46451100e+03 7.81860800e-03 8.33587900e-02
        2 -1    0    0  501    0 +0.0000000000e+00 +0.0000000000e+00 +9.7737625341e+02 9.7737625341e+02 0.0000000000e+00 0.0000e+00 1.0000e+00
       -2 -1    0    0    0  501 -0.0000000000e+00 -0.0000000000e+00 -5.4860960818e+02 5.4860960818e+02 0.0000000000e+00 0.0000e+00 -1.0000e+00
      -13  1    1    2    0    0 +1.4866316487e+02 +4.7540162612e+02 -3.4488784740e+02 6.0585069942e+02 0.0000000000e+00 0.0000e+00 -1.0000e+00
       13  1    1    2    0    0 -1.4866316487e+02 -4.7540162612e+02 +7.7365449262e+02 9.2013516217e+02 0.0000000000e+00 0.0000e+00 1.0000e+00
<mgrwt>
<rscale>  0 0.14645108E+04</rscale>
<asrwt>0</asrwt>
<pdfrwt beam="1">  1        2 0.15036558E+00 0.14645108E+04</pdfrwt>
<pdfrwt beam="2">  1       -2 0.84401478E-01 0.14645108E+04</pdfrwt>
<totfact> 0.39160155E+01</totfact>
</mgrwt>
<rwgt>
<wgt id='morphing_basis_vector_1'> +2.3532421e-04 </wgt>
<wgt id='morphing_basis_vector_2'> +1.5407238e-04 </wgt>
<wgt id='morphing_basis_vector_3'> +2.4345375e-04 </wgt>
<wgt id='morphing_basis_vector_4'> +1.6311520e-04 </wgt>
<wgt id='morphing_basis_vector_5'> +2.6009572e-04 </wgt>
</rwgt>
</event>
<event>
 4      1 +3.5234200e-07 1.35085100e+03 7.81860800e-03 8.40723800e-02
        2 -1    0    0  501    0 +0.0000000000e+00 +0.0000000000e+00 +1.6582822388e+03 1.6582822388e+03 0.0000000000e+00 0.0000e+00 -1.0000e+00
       -2 -1    0    0    0  501 -0.0000000000e+00 -0.0000000000e+00 -2.7510370754e+02 2.7510370754e+02 0.0000000000e+00 0.0000e+00 1.0000e+00
      -13  1    1    2    0    0 +1.1953085181e+01 -6.6119870489e+02 +8.8821096829e+02 1.1073596199e+03 0.0000000000e+00 0.0000e+00 1.0000e+00
       13  1    1    2    0    0 -1.1953085181e+01 +6.6119870489e+02 +4.9496756299e+02 8.2602632646e+02 0.0000000000e+00 0.0000e+00 -1.0000e+00
<mgrwt>
<rscale>  0 0.13508510E+04</rscale>
<asrwt>0</asrwt>
<pdfrwt beam="1">  1        2 0.25512034E+00 0.13508510E+04</pdfrwt>
<pdfrwt beam="2">  1       -2 0.42323648E-01 0.13508510E+04</pdfrwt>
<totfact> 0.66481189E+01</totfact>
</mgrwt>
<rwgt>
<wgt id='morphing_basis_vector_1'> +1.8505935e-04 </wgt>
<wgt id='morphing_basis_vector_2'> +1.4956553e-04 </wgt>
<wgt id='morphing_basis_vector_3'> +1.9189238e-04 </wgt>
<wgt id='morphing_basis_vector_4'> +9.4043421e-05 </wgt>
<wgt id='morphing_basis_vector_5'> +1.8414480e-04 </wgt>
</rwgt>
</event>
<event>
 4      1 +3.5234200e-07 1.41059300e+03 7.81860800e-03 8.36885700e-02
        2 -1    0    0  501    0 +0.0000000000e+00 +0.0000000000e+00 +4.2956092935e+02 4.2956092935e+02 0.0000000000e+00 0.0000e+00 -1.0000e+00
       -2 -1    0    0    0  501 -0.0000000000e+00 -0.0000000000e+00 -1.1580264005e+03 1.1580264005e+03 0.0000000000e+00 0.0000e+00 1.0000e+00
      -13  1    1    2    0    0 -5.8128139475e+02 -2.8584396777e+02 -5.0210849851e+01 6.4970451994e+02 0.0000000000e+00 0.0000e+00 1.0000e+00
       13  1    1    2    0    0 +5.8128139475e+02 +2.8584396777e+02 -6.7825462128e+02 9.3788280988e+02 0.0000000000e+00 0.0000e+00 -1.0000e+00
<mgrwt>
<rscale>  0 0.14105926E+04</rscale>
<asrwt>0</asrwt>
<pdfrwt beam="1">  1        2 0.66086298E-01 0.14105926E+04</pdfrwt>
<pdfrwt beam="2">  1       -2 0.17815790E+00 0.14105926E+04</pdfrwt>
<totfact> 0.14897574E+01</totfact>
</mgrwt>
<rwgt>
<wgt id='morphing_basis_vector_1'> +2.3111964e-04 </wgt>
<wgt id='morphing_basis_vector_2'> +2.1482404e-04 </wgt>
<wgt id='morphing_basis_vector_3'> +2.4438701e-04 </wgt>
<wgt id='morphing_basis_vector_4'> +8.9420978e-05 </wgt>
<wgt id='morphing_basis_vector_5'> +2.1887505e-04 </wgt>
</rwgt>
</event>
<event>
 4      1 +3.5234200e-07 1.31495000e+03 7.81860800e-03 8.43131200e-02
        2 -1    0    0  501    0 +0.0000000000e+00 +0.0000000000e+00 +3.8062388480e+02 3.8062388480e+02 0.0000000000e+00 0.0000e+00 1.0000e+00
       -2 -1    0    0    0  501 -0.0000000000e+00 -0.0000000000e+00 -1.1356974689e+03 1.1356974689e+03 0.0000000000e+00 0.0000e+00 -1.0000e+00
      -13  1    1    2    0    0 -1.0004299379e+02 -3.8878682494e+02 -9.7795590046e+02 1.0571478322e+03 0.0000000000e+00 0.0000e+00 -1.0000e+00
       13  1    1    2    0    0 +1.0004299379e+02 +3.8878682494e+02 +2.2288231640e+02 4.5917352147e+02 0.0000000000e+00 0.0000e+00 1.0000e+00
<mgrwt>
<rscale>  0 0.13149503E+04</rscale>
<asrwt>0</asrwt>
<pdfrwt beam="1">  1        2 0.58557522E-01 0.13149503E+04</pdfrwt>
<pdfrwt beam="2">  1       -2 0.17472268E+00 0.13149503E+04</pdfrwt>
<totfact> 0.18289339E+01</totfact>
</mgrwt>
<rwgt>
<wgt id='morphing_basis_vector_1'> +1.5561540e-04 </wgt>
<wgt id='morphing_basis_vector_2'> +1.0076388e-04 </wgt>
<wgt id='morphing_basis_vector_3'> +1.5845036e-04 </wgt>
<wgt id='morphing_basis_vector_4'> +1.0427837e-04 </wgt>
<wgt id='morphing_basis_vector_5'> +1.6595691e-04 </wgt>
</rwgt>
</event>
<event>
 4      1 +3.5234200e-07 1.52034500e+03 7.81860800e-03 8.30324500e-02
        2 -1    0    0  501    0 +0.0000000000e+00 +0.0000000000e+00 +1.6356653659e+03 1.6356653659e+03 0.0000000000e+00 0.0000e+00 -1.0000e+00
       -2 -1    0    0    0  501 -0.0000000000e+00 -0.0000000000e+00 -3.5328856176e+02 3.5328856176e+02 0.0000000000e+00 0.0000e+00 1.0000e+00
      -13  1    1    2    0    0 +3.9666228560e+02 -1.3891319379e+02 -1.8747121111e+02 4.6019919516e+02 0.0000000000e+00 0.0000e+00 1.0000e+00
       13  1    1    2    0    0 -3.9666228560e+02 +1.3891319379e+02 +1.4698480152e+03 1.5287547325e+03 0.0000000000e+00 0.0000e+00 -1.0000e+00
<mgrwt>
<rscale>  0 0.15203445E+04</rscale>
<asrwt>0</asrwt>
<pdfrwt beam="1">  1        2 0.25164082E+00 0.15203445E+04</pdfrwt>
<pdfrwt beam="2">  1       -2 0.54352087E-01 0.15203445E+04</pdfrwt>
<totfact> 0.41487925E+01</totfact>
</mgrwt>
<rwgt>
<wgt id='morphing_basis_vector_1'> +2.7168956e-04 </wgt>
<wgt id='morphing_basis_vector_2'> +1.7801334e-04 </wgt>
<wgt id='morphing_basis_vector_3'> +2.8238371e-04 </wgt>
<wgt id='morphing_basis_vector_4'> +1.9076568e-04 </wgt>
<wgt id='morphing_basis_vector_5'> +3.0377854e-04 </wgt>
</rwgt>
</event>
<event>
 4      1 +3.5234200e-07 1.36190200e+03 7.81860800e-03 8.39998400e-02
        2 -1    0    0  501    0 +0.0000000000e+00 +0.0000000000e+00 +3.1376186636e+03 3.1376186636e+03 0.0000000000e+00 0.0000e+00 1.0000e+00
       -2 -1    0    0    0  501 -0.0000000000e+00 -0.0000000000e+00 -1.4778533623e+02 1.4778533623e+02 0.0000000000e+00 0.0000e+00 -1.0000e+00
      -13  1    1    2    0    0 +4.7492410720e+02 +3.8206420294e+02 +7.6254206632e+02 9.7621532751e+02 0.0000000000e+00 0.0000e+00 1.0000e+00
       13  1    1    2    0    0 -4.7492410720e+02 -3.8206420294e+02 +2.2272912610e+03 2.3091886723e+03 0.0000000000e+00 0.0000e+00 -1.0000e+00
<mgrwt>
<rscale>  0 0.13619017E+04</rscale>
<asrwt>0</asrwt>
<pdfrwt beam="1">  1        2 0.48271051E+00 0.13619017E+04</pdfrwt>
<pdfrwt beam="2">  1       -2 0.22736208E-01 0.13619017E+04</pdfrwt>
<totfact> 0.26817006E+01</totfact>
</mgrwt>
<rwgt>
<wgt id='morphing_basis_vector_1'> +1.7889437e-04 </wgt>
<wgt id='morphing_basis_vector_2'> +1.1841655e-04 </wgt>
<wgt id='morphing_basis_vector_3'> +1.8335931e-04 </wgt>
<wgt id='morphing_basis_vector_4'> +1.1903496e-04 </wgt>
<wgt id='morphing_basis_vector_5'> +1.9207934e-04 </wgt>
</rwgt>
</event>
<event>
 4      1 +3.5234200e-07 1.40013900e+03 7.81860800e-03 8.37542900e-02
        2 -1    0    0  501    0 +0.0000000000e+00 +0.0000000000e+00 +1.9558032846e+03 1.9558032846e+03 0.0000000000e+00 0.0000e+00 1.0000e+00
       -2 -1    0    0    0  501 -0.0000000000e+00 -0.0000000000e+00 -2.5058623064e+02 2.5058623064e+02 0.0000000000e+00 0.0000e+00 -1.0000e+00
      -13  1    1    2    0    0 -3.0754717580e+02 +5.1184740281e+02 +2.7678258283e+02 6.5816534949e+02 0.0000000000e+00 0.0000e+00 -1.0000e+00
       13  1    1    2    0    0 +3.0754717580e+02 -5.1184740281e+02 +1.4284344711e+03 1.5482241657e+03 0.0000000000e+00 0.0000e+00 1.0000e+00
<mgrwt>
<rscale>  0 0.14001391E+04</rscale>
<asrwt>0</asrwt>
<pdfrwt beam="1">  1        2 0.30089280E+00 0.14001391E+04</pdfrwt>
<pdfrwt beam="2">  1       -2 0.38551729E-01 0.14001391E+04</pdfrwt>
<totfact> 0.53876340E+01</totfact>
</mgrwt>
<rwgt>
<wgt id='morphing_basis_vector_1'> +1.9855883e-04 </wgt>
<wgt id='morphing_basis_vector_2'> +1.3088314e-04 </wgt>
<wgt id='morphing_basis_vector_3'> +2.0427931e-04 </wgt>
<wgt id='morphing_basis_vector_4'> +1.3426458e-04 </wgt>
<wgt id='morphing_basis_vector_5'> +2.1565490e-04 </wgt>
</rwgt>
</event>
<event>
 4      1 +3.5234200e-07 1.37070000e+03 7.81860800e-03 8.39426000e-02
        2 -1    0    0  501    0 +0.0000000000e+00 +0.0000000000e+00 +4.4167614032e+02 4.4167614032e+02 0.0000000000e+00 0.0000e+00 -1.0000e+00
       -2 -1    0    0    0  501 -0.0000000000e+00 -0.0000000000e+00 -1.0634591801e+03 1.0634591801e+03 0.0000000000e+00 0.0000e+00 1.0000e+00
      -13  1    1    2    0    0 -6.0502636077e+02 +2.2430422005e+02 -5.6448635340e+02 8.5732964694e+02 0.0000000000e+00 0.0000e+00 1.0000e+00
       13  1    1    2    0    0 +6.0502636077e+02 -2.2430422005e+02 -5.7296686416e+01 6.4780567351e+02 0.0000000000e+00 0.0000e+00 -1.0000e+00
<mgrwt>
<rscale>  0 0.13706999E+04</rscale>
<asrwt>0</asrwt>
<pdfrwt beam="1">  1        2 0.67950175E-01 0.13706999E+04</pdfrwt>
<pdfrwt beam="2">  1       -2 0.16360911E+00 0.13706999E+04</pdfrwt>
<totfact> 0.18794841E+01</totfact>
</mgrwt>
<rwgt>
<wgt id='morphing_basis_vector_1'> +1.8405821e-04 </wgt>
<wgt id='morphing_basis_vector_2'> +1.2352360e-04 </wgt>
<wgt id='morphing_basis_vector_3'> +1.8899158e-04 </wgt>
<wgt id='morphing_basis_vector_4'> +1.2101197e-04 </wgt>
<wgt id='morphing_basis_vector_5'> +1.9722466e-04 </wgt>
</rwgt>
</event>
<event>
 4      1 +3.5234200e-07 1.41101000e+03 7.81860800e-03 8.36859600e-02
        2 -1    0    0  501    0 +0.0000000000e+00 +0.0000000000e+00 +1.7681201594e+03 1.7681201594e+03 0.0000000000e+00 0.0000e+00 1.0000e+00
       -2 -1    0    0    0  501 -0.0000000000e+00 -0.0000000000e+00 -2.8150651121e+02 2.8150651121e+02 0.0000000000e+00 0.0000e+00 -1.0000e+00
      -13  1    1    2    0    0 +6.0873460211e+02 -1.5318841101e+02 +2.7550608317e+02 6.8551302463e+02 0.0000000000e+00 0.0000e+00 -1.0000e+00
       13  1    1    2    0    0 -6.0873460211e+02 +1.5318841101e+02 +1.2111075650e+03 1.3641136460e+03 0.0000000000e+00 0.0000e+00 1.0000e+00
<mgrwt>
<rscale>  0 0.14110100E+04</rscale>
<asrwt>0</asrwt>
<pdfrwt beam="1">  1        2 0.27201848E+00 0.14110100E+04</pdfrwt>
<pdfrwt beam="2">  1       -2 0.43308695E-01 0.14110100E+04</pdfrwt>
<totfact> 0.55038894E+01</totfact>
</mgrwt>
<rwgt>
<wgt id='morphing_basis_vector_1'> +2.0486858e-04 </wgt>
<wgt id='morphing_basis_vector_2'> +1.3588697e-04 </wgt>
<wgt id='morphing_basis_vector_3'> +2.1108429e-04 </wgt>
<wgt id='morphing_basis_vector_4'> +1.3805908e-04 </wgt>
<wgt id='morphing_basis_vector_5'> +2.2267434e-04 </wgt>
</rwgt>
</event>
<event>
 4      1 +3.5234200e-07 1.53058000e+03 7.81860800e-03 8.29742000e-02
        2 -1    0    0  501    0 +0.0000000000e+00 +0.0000000000e+00 +1.9877842553e+03 1.9877842553e+03 0.0000000000e+00 0.0000e+00 -1.0000e+00
       -2 -1    0    0    0  501 -0.0000000000e+00 -0.0000000000e+00 -2.9463385406e+02 2.9463385406e+02 0.0000000000e+00 0.0000e+00 1.0000e+00
      -13  1    1    2    0    0 -3.6737835318e+02 -1.0461924350e+02 -1.4230889897e+02 4.0763201938e+02 0.0000000000e+00 0.0000e+00 1.0000e+00
       13  1    1    2    0    0 +3.6737835318e+02 +1.0461924350e+02 +1.8354593002e+03 1.8747860900e+03 0.0000000000e+00 0.0000e+00 -1.0000e+00
<mgrwt>
<rscale>  0 0.15305797E+04</rscale>
<asrwt>0</asrwt>
<pdfrwt beam="1">  1        2 0.30581295E+00 0.15305797E+04</pdfrwt>
<pdfrwt beam="2">  1       -2 0.45328286E-01 0.15305797E+04</pdfrwt>
<totfact> 0.37672129E+01</totfact>
</mgrwt>
<rwgt>
<wgt id='morphing_basis_vector_1'> +2.7878828e-04 </wgt>
<wgt id='morphing_basis_vector_2'> +1.8267511e-04 </wgt>
<wgt id='morphing_basis_vector_3'> +2.8999134e-04 </wgt>
<wgt id='morphing_basis_vector_4'> +1.9619852e-04 </wgt>
<wgt id='morphing_basis_vector_5'> +3.1234140e-04 </wgt>
</rwgt>
</event>
<event>
 4      1 +3.5234200e-07 1.50887100e+03 7.81860800e-03 8.30983100e-02
        2 -1    0    0  501    0 +0.0000000000e+00 +0.0000000000e+00 +1.5977644488e+03 1.5977644488e+03 0.0000000000e+00 0.0000e+00 1.0000e+00
       -2 -1    0    0    0  501 -0.0000000000e+00 -0.0000000000e+00 -3.5623060586e+02 3.5623060586e+02 0.0000000000e+00 0.0000e+00 -1.0000e+00
      -13  1    1    2    0    0 +3.2199360962e+02 -6.8017391130e+02 +6.8997598873e+02 1.0209717426e+03 0.0000000000e+00 0.0000e+00 -1.0000e+00
       13  1    1    2    0    0 -3.2199360962e+02 +6.8017391130e+02 +5.5155785424e+02 9.3302331205e+02 0.0000000000e+00 0.0000e+00 1.0000e+00
<mgrwt>
<rscale>  0 0.15088706E+04</rscale>
<asrwt>0</asrwt>
<pdfrwt beam="1">  1        2 0.24580991E+00 0.15088706E+04</pdfrwt>
<pdfrwt beam="2">  1       -2 0.54804710E-01 0.15088706E+04</pdfrwt>
<totfact> 0.42873688E+01</totfact>
</mgrwt>
<rwgt>
<wgt id='morphing_basis_vector_1'> +2.7610775e-04 </wgt>
<wgt id='morphing_basis_vector_2'> +2.0929164e-04 </wgt>
<wgt id='morphing_basis_vector_3'> +2.9006961e-04 </wgt>
<wgt id='morphing_basis_vector_4'> +1.6198274e-04 </wgt>
<wgt id='morphing_basis_vector_5'> +2.9269147e-04 </wgt>
</rwgt>
</event>
<event>
 4      1 +3.5234200e-07 1.32419200e+03 7.81860800e-03 8.42503900e-02
        2 -1    0    0  501    0 +0.0000000000e+00 +0.0000000000e+00 +1.3254020147e+03 1.3254020147e+03 0.0000000000e+00 0.0000e+00 1.0000e+00
       -2 -1    0    0    0  501 -0.0000000000e+00 -0.0000000000e+00 -3.3074569557e+02 3.3074569557e+02 0.0000000000e+00 0.0000e+00 -1.0000e+00
      -13  1    1    2    0    0 -9.3086613066e+01 +2.2455401315e+02 -2.7291690736e+02 3.6547675806e+02 0.0000000000e+00 0.0000e+00 -1.0000e+00
       13  1    1    2    0    0 +9.3086613066e+01 -2.2455401315e+02 +1.2675732265e+03 1.2906709522e+03 0.0000000000e+00 0.0000e+00 1.0000e+00
<mgrwt>
<rscale>  0 0.13241918E+04</rscale>
<asrwt>0</asrwt>
<pdfrwt beam="1">  1        2 0.20390800E+00 0.13241918E+04</pdfrwt>
<pdfrwt beam="2">  1       -2 0.50883954E-01 0.13241918E+04</pdfrwt>
<totfact> 0.71744807E+01</totfact>
</mgrwt>
<rwgt>
<wgt id='morphing_basis_vector_1'> +1.5975586e-04 </wgt>
<wgt id='morphing_basis_vector_2'> +1.0333222e-04 </wgt>
<wgt id='morphing_basis_vector_3'> +1.6283362e-04 </wgt>
<wgt id='morphing_basis_vector_4'> +1.0751611e-04 </wgt>
<wgt id='morphing_basis_vector_5'> +1.7090915e-04 </wgt>
</rwgt>
</event>
<event>
 4      1 +3.5234200e-07 1.31124400e+03 7.81860800e-03 8.43384300e-02
        2 -1    0    0  501    0 +0.0000000000e+00 +0.0000000000e+00 +1.4584859879e+03 1.4584859879e+03 0.0000000000e+00 0.0000e+00 -1.0000e+00
       -2 -1    0    0    0  501 -0.0000000000e+00 -0.0000000000e+00 -2.9471662788e+02 2.9471662788e+02 0.0000000000e+00 0.0000e+00 1.0000e+00
      -13  1    1    2    0    0 -6.3070992397e+02 -1.2284181901e+02 +7.5598394589e+02 9.9216775150e+02 0.0000000000e+00 0.0000e+00 1.0000e+00
       13  1    1    2    0    0 +6.3070992397e+02 +1.2284181901e+02 +4.0778541416e+02 7.6103486430e+02 0.0000000000e+00 0.0000e+00 -1.0000e+00
<mgrwt>
<rscale>  0 0.13112438E+04</rscale>
<asrwt>0</asrwt>
<pdfrwt beam="1">  1        2 0.22438245E+00 0.13112438E+04</pdfrwt>
<pdfrwt beam="2">  1       -2 0.45341021E-01 0.13112438E+04</pdfrwt>
<totfact> 0.75583776E+01</totfact>
</mgrwt>
<rwgt>
<wgt id='morphing_basis_vector_1'> +1.6497394e-04 </wgt>
<wgt id='morphing_basis_vector_2'> +1.3266854e-04 </wgt>
<wgt id='morphing_basis_vector_3'> +1.7002571e-04 </wgt>
<wgt id='morphing_basis_vector_4'> +8.3402330e-05 </wgt>
<wgt id='morphing_basis_vector_5'> +1.6261463e-04 </wgt>
</rwgt>
</event>
<event>
 4      1 +3.5234200e-07 1.33618400e+03 7.81860800e-03 8.41697800e-02
        2 -1    0    0  501    0 +0.0000000000e+00 +0.0000000000e+00 +2.8446216611e+03 2.8446216611e+03 0.0000000000e+00 0.0000e+00 -1.0000e+00
       -2 -1    0    0    0  501 -0.0000000000e+00 -0.0000000000e+00 -1.5690898556e+02 1.5690898556e+02 0.0000000000e+00 0.0000e+00 1.0000e+00
      -13  1    1    2    0    0 +4.4599501943e+02 +5.5567718859e+01 +2.3345376985e+02 5.0645828199e+02 0.0000000000e+00 0.0000e+00 1.0000e+00
       13  1    1    2    0    0 -4.4599501943e+02 -5.5567718859e+01 +2.4542589057e+03 2.4950723647e+03 0.0000000000e+00 0.0000e+00 -1.0000e+00
<mgrwt>
<rscale>  0 0.13361837E+04</rscale>
<asrwt>0</asrwt>
<pdfrwt beam="1">  1        2 0.43763406E+00 0.13361837E+04</pdfrwt>
<pdfrwt beam="2">  1       -2 0.24139846E-01 0.13361837E+04</pdfrwt>
<totfact> 0.37493434E+01</totfact>
</mgrwt>
<rwgt>
<wgt id='morphing_basis_vector_1'> +1.6549551e-04 </wgt>
<wgt id='morphing_basis_vector_2'> +1.0746395e-04 </wgt>
<wgt id='morphing_basis_vector_3'> +1.6895264e-04 </wgt>
<wgt id='morphing_basis_vector_4'> +1.1139251e-04 </wgt>
<wgt id='morphing_basis_vector_5'> +1.7746598e-04 </wgt>
</rwgt>
</event>
<event>
 4      1 +3.5234200e-07 1.52593800e+03 7.81860800e-03 8.30005500e-02
        2 -1    0    0  501    0 +0.0000000000e+00 +0.0000000000e+00 +6.5441322479e+02 6.5441322479e+02 0.0000000000e+00 0.0000e+00 1.0000e+00
       -2 -1    0    0    0  501 -0.0000000000e+00 -0.0000000000e+00 -8.8953217315e+02 8.8953217315e+02 0.0000000000e+00 0.0000e+00 -1.0000e+00
      -13  1    1    2    0    0 -2.3985260141e+02 -4.7582755790e+02 -6.7006253016e+02 8.5611034896e+02 0.0000000000e+00 0.0000e+00 -1.0000e+00
       13  1    1    2    0    0 +2.3985260141e+02 +4.7582755790e+02 +4.3494358180e+02 6.8783504899e+02 0.0000000000e+00 0.0000e+00 1.0000e+00
<mgrwt>
<rscale>  0 0.15259379E+04</rscale>
<asrwt>0</asrwt>
<pdfrwt beam="1">  1        2 0.10067896E+00 0.15259379E+04</pdfrwt>
<pdfrwt beam="2">  1       -2 0.13685110E+00 0.15259379E+04</pdfrwt>
<totfact> 0.19605358E+01</totfact>
</mgrwt>
<rwgt>
<wgt id='morphing_basis_vector_1'> +2.7578328e-04 </wgt>
<wgt id='morphing_basis_vector_2'> +1.8123966e-04 </wgt>
<wgt id='morphing_basis_vector_3'> +2.8682813e-04 </wgt>
<wgt id='morphing_basis_vector_4'> +1.9328632e-04 </wgt>
<wgt id='morphing_basis_vector_5'> +3.0840378e-04 </wgt>
</rwgt>
</event>
<event>
 4      1 +3.5234200e-07 1.37541600e+03 7.81860800e-03 8.39121100e-02
        2 -1    0    0  501    0 +0.0000000000e+00 +0.0000000000e+00 +1.9344558109e+03 1.9344558109e+03 0.0000000000e+00 0.0000e+00 -1.0000e+00
       -2 -1    0    0    0  501 -0.0000000000e+00 -0.0000000000e+00 -2.4448338003e+02 2.4448338003e+02 0.0000000000e+00 0.0000e+00 1.0000e+00
      -13  1    1    2    0    0 +4.4830035993e+02 -4.9234296569e+02 +5.7257922912e+02 8.7819233781e+02 0.0000000000e+00 0.0000e+00 1.0000e+00
       13  1    1    2    0    0 -4.4830035993e+02 +4.9234296569e+02 +1.1173932018e+03 1.3007468532e+03 0.0000000000e+00 0.0000e+00 -1.0000e+00
<mgrwt>
<rscale>  0 0.13754160E+04</rscale>
<asrwt>0</asrwt>
<pdfrwt beam="1">  1        2 0.29760858E+00 0.13754160E+04</pdfrwt>
<pdfrwt beam="2">  1       -2 0.37612829E-01 0.13754160E+04</pdfrwt>
<totfact> 0.58081829E+01</totfact>
</mgrwt>
<rwgt>
<wgt id='morphing_basis_vector_1'> +1.8729080e-04 </wgt>
<wgt id='morphing_basis_vector_2'> +1.2756976e-04 </wgt>
<wgt id='morphing_basis_vector_3'> +1.9258808e-04 </wgt>
<wgt id='morphing_basis_vector_4'> +1.2131593e-04 </wgt>
<wgt id='morphing_basis_vector_5'> +1.9996921e-04 </wgt>
</rwgt>
</event>
<event>
 4      1 +3.5234200e-07 1.44885500e+03 7.81860800e-03 8.34530100e-02
        2 -1    0    0  501    0 +0.0000000000e+00 +0.0000000000e+00 +1.6184524798e+03 1.6184524798e+03 0.0000000000e+00 0.0000e+00 -1.0000e+00
       -2 -1    0    0    0  501 -0.0000000000e+00 -0.0000000000e+00 -3.2425722079e+02 3.2425722079e+02 0.0000000000e+00 0.0000e+00 1.0000e+00
      -13  1    1    2    0    0 -2.1341264988e+02 -1.7088608312e+02 -2.5242578836e+02 3.7210991812e+02 0.0000000000e+00 0.0000e+00 1.0000e+00
       13  1    1    2    0    0 +2.1341264988e+02 +1.7088608312e+02 +1.5466210473e+03 1.5705997824e+03 0.0000000000e+00 0.0000e+00 -1.0000e+00
<mgrwt>
<rscale>  0 0.14488546E+04</rscale>
<asrwt>0</asrwt>
<pdfrwt beam="1">  1        2 0.24899268E+00 0.14488546E+04</pdfrwt>
<pdfrwt beam="2">  1       -2 0.49885727E-01 0.14488546E+04</pdfrwt>
<totfact> 0.50569223E+01</totfact>
</mgrwt>
<rwgt>
<wgt id='morphing_basis_vector_1'> +2.2558264e-04 </wgt>
<wgt id='morphing_basis_vector_2'> +1.4709440e-04 </wgt>
<wgt id='morphing_basis_vector_3'> +2.3298790e-04 </wgt>
<wgt id='morphing_basis_vector_4'> +1.5637563e-04 </wgt>
<wgt id='morphing_basis_vector_5'> +2.4876393e-04 </wgt>
</rwgt>
</event>
<event>
 4      1 +3.5234200e-07 1.36785600e+03 7.81860800e-03 8.39610600e-02
        2 -1    0    0  501    0 +0.0000000000e+00 +0.0000000000e+00 +1.8292121362e+03 1.8292121362e+03 0.0000000000e+00 0.0000e+00 -1.0000e+00
       -2 -1    0    0    0  501 -0.0000000000e+00 -0.0000000000e+00 -2.5571529170e+02 2.5571529170e+02 0.0000000000e+00 0.0000e+00 1.0000e+00
      -13  1    1    2    0    0 +5.3928673603e+02 -1.7313552871e+02 +2.0244631340e+02 6.0149031976e+02 0.0000000000e+00 0.0000e+00 1.0000e+00
       13  1    1    2    0    0 -5.3928673603e+02 +1.7313552871e+02 +1.3710505311e+03 1.4834371081e+03 0.0000000000e+00 0.0000e+00 -1.0000e+00
<mgrwt>
<rscale>  0 0.13678560E+04</rscale>
<asrwt>0</asrwt>
<pdfrwt beam="1">  1        2 0.28141724E+00 0.13678560E+04</pdfrwt>
<pdfrwt beam="2">  1       -2 0.39340815E-01 0.13678560E+04</pdfrwt>
<totfact> 0.61200056E+01</totfact>
</mgrwt>
<rwgt>
<wgt id='morphing_basis_vector_1'> +1.8142951e-04 </wgt>
<wgt id='morphing_basis_vector_2'> +1.1902535e-04 </wgt>
<wgt id='morphing_basis_vector_3'> +1.8597803e-04 </wgt>
<wgt id='morphing_basis_vector_4'> +1.2208741e-04 </wgt>
<wgt id='morphing_basis_vector_5'> +1.9567400e-04 </wgt>
</rwgt>
</event>
<event>
 4      1 +3.5234200e-07 1.43244400e+03 7.81860800e-03 8.35531100e-02
        2 -1    0    0  501    0 +0.0000000000e+00 +0.0000000000e+00 +1.0613173288e+03 1.0613173288e+03 0.0000000000e+00 0.0000e+00 1.0000e+00
       -2 -1    0    0    0  501 -0.0000000000e+00 -0.0000000000e+00 -4.8333690063e+02 4.8333690063e+02 0.0000000000e+00 0.0000e+00 -1.0000e+00
      -13  1    1    2    0    0 -5.4464343478e+02 -4.6324140138e+02 +3.3403263092e+02 7.8918113607e+02 0.0000000000e+00 0.0000e+00 -1.0000e+00
       13  1    1    2    0    0 +5.4464343478e+02 +4.6324140138e+02 +2.4394779723e+02 7.5547309335e+02 0.0000000000e+00 0.0000e+00 1.0000e+00
<mgrwt>
<rscale>  0 0.14324438E+04</rscale>
<asrwt>0</asrwt>
<pdfrwt beam="1">  1        2 0.16327959E+00 0.14324438E+04</pdfrwt>
<pdfrwt beam="2">  1       -2 0.74359523E-01 0.14324438E+04</pdfrwt>
<totfact> 0.46343566E+01</totfact>
</mgrwt>
<rwgt>
<wgt id='morphing_basis_vector_1'> +2.2554716e-04 </wgt>
<wgt id='morphing_basis_vector_2'> +1.6942006e-04 </wgt>
<wgt id='morphing_basis_vector_3'> +2.3496616e-04 </wgt>
<wgt id='morphing_basis_vector_4'> +1.3142648e-04 </wgt>
<wgt id='morphing_basis_vector_5'> +2.3595882e-04 </wgt>
</rwgt>
</event>
<event>
 4      1 +3.5234200e-07 1.42639600e+03 7.81860800e-03 8.35903500e-02
        2 -1    0    0  501    0 +0.0000000000e+00 +0.0000000000e+00 +1.6008503385e+03 1.6008503385e+03 0.0000000000e+00 0.0000e+00 -1.0000e+00
       -2 -1    0    0    0  501 -0.0000000000e+00 -0.0000000000e+00 -3.1773836623e+02 3.1773836623e+02 0.0000000000e+00 0.0000e+00 1.0000e+00
      -13  1    1    2    0    0 +5.9608973303e+02 -1.9630941406e+02 +1.8583815759e+02 6.5451980618e+02 0.0000000000e+00 0.0000e+00 1.0000e+00
       13  1    1    2    0    0 -5.9608973303e+02 +1.9630941406e+02 +1.0972738146e+03 1.2640688985e+03 0.0000000000e+00 0.0000e+00 -1.0000e+00
<mgrwt>
<rscale>  0 0.14263963E+04</rscale>
<asrwt>0</asrwt>
<pdfrwt beam="1">  1        2 0.24628466E+00 0.14263963E+04</pdfrwt>
<pdfrwt beam="2">  1       -2 0.48882826E-01 0.14263963E+04</pdfrwt>
<totfact> 0.53917189E+01</totfact>
</mgrwt>
<rwgt>
<wgt id='morphing_basis_vector_1'> +2.1348224e-04 </wgt>
<wgt id='morphing_basis_vector_2'> +1.4148570e-04 </wgt>
<wgt id='morphing_basis_vector_3'> +2.2027619e-04 </wgt>
<wgt id='morphing_basis_vector_4'> +1.4461557e-04 </wgt>
<wgt id='morphing_basis_vector_5'> +2.3297309e-04 </wgt>
</rwgt>
</event>
<event>
 4      1 +3.5234200e-07 1.44199300e+03 7.81860800e-03 8.34946900e-02
        2 -1    0    0  501    0 +0.0000000000e+00 +0.0000000000e+00 +1.3782567856e+03 1.3782567856e+03 0.0000000000e+00 0.0000e+00 -1.0000e+00
       -2 -1    0    0    0  501 -0.0000000000e+00 -0.0000000000e+00 -3.7716926915e+02 3.7716926915e+02 0.0000000000e+00 0.0000e+00 1.0000e+00
      -13  1    1    2    0    0 +2.8544410143e+02 -4.2034289567e+02 -1.2218077543e+02 5.2258456432e+02 0.0000000000e+00 0.0000e+00 1.0000e+00
       13  1    1    2    0    0 -2.8544410143e+02 +4.2034289567e+02 +1.1232682919e+03 1.2328414904e+03 0.0000000000e+00 0.0000e+00 -1.0000e+00
<mgrwt>
<rscale>  0 0.14419932E+04</rscale>
<asrwt>0</asrwt>
<pdfrwt beam="1">  1        2 0.21203950E+00 0.14419932E+04</pdfrwt>
<pdfrwt beam="2">  1       -2 0.58026042E-01 0.14419932E+04</pdfrwt>
<totfact> 0.50982066E+01</totfact>
</mgrwt>
<rwgt>
<wgt id='morphing_basis_vector_1'> +2.2174304e-04 </wgt>
<wgt id='morphing_basis_vector_2'> +1.4510191e-04 </wgt>
<wgt id='morphing_basis_vector_3'> +2.2893567e-04 </wgt>
<wgt id='morphing_basis_vector_4'> +1.5287586e-04 </wgt>
<wgt id='morphing_basis_vector_5'> +2.4386990e-04 </wgt>
</rwgt>
</event>
<event>
 4      1 +3.5234200e-07 1.33999800e+03 7.81860800e-03 8.41443200e-02
        2 -1    0    0  501    0 +0.0000000000e+00 +0.0000000000e+00 +1.2280145976e+03 1.2280145976e+03 0.0000000000e+00 0.0000e+00 1.0000e+00
       -2 -1    0    0    0  501 -0.0000000000e+00 -0.0000000000e+00 -3.6554829330e+02 3.6554829330e+02 0.0000000000e+00 0.0000e+00 -1.0000e+00
      -13  1    1    2    0    0 -2.6741258566e+02 +5.7913444654e+02 +1.8753589930e+02 6.6488789406e+02 0.0000000000e+00 0.0000e+00 -1.0000e+00
       13  1    1    2    0    0 +2.6741258566e+02 -5.7913444654e+02 +6.7493040500e+02 9.2867499683e+02 0.0000000000e+00 0.0000e+00 1.0000e+00
<mgrwt>
<rscale>  0 0.13399980E+04</rscale>
<asrwt>0</asrwt>
<pdfrwt beam="1">  1        2 0.18892532E+00 0.13399980E+04</pdfrwt>
<pdfrwt beam="2">  1       -2 0.56238200E-01 0.13399980E+04</pdfrwt>
<totfact> 0.66763732E+01</totfact>
</mgrwt>
<rwgt>
<wgt id='morphing_basis_vector_1'> +1.6900050e-04 </wgt>
<wgt id='morphing_basis_vector_2'> +1.1373040e-04 </wgt>
<wgt id='morphing_basis_vector_3'> +1.7295715e-04 </wgt>
<wgt id='morphing_basis_vector_4'> +1.0968702e-04 </wgt>
<wgt id='morphing_basis_vector_5'> +1.7937873e-04 </wgt>
</rwgt>
</event>
<event>
 4      1 +3.5234200e-07 1.45151200e+03 7.81860800e-03 8.34369300e-02
        2 -1    0    0  501    0 +0.0000000000e+00 +0.0000000000e+00 +2.3069548273e+03 2.3069548273e+03 0.0000000000e+00 0.0000e+00 -1.0000e+00
       -2 -1    0    0    0  501 -0.0000000000e+00 -0.0000000000e+00 -2.2831891561e+02 2.2831891561e+02 0.0000000000e+00 0.0000e+00 1.0000e+00
      -13  1    1    2    0    0 -4.8977059351e+02 +3.9081079336e+00 +1.0387490798e+02 5.0068004162e+02 0.0000000000e+00 0.0000e+00 1.0000e+00
       13  1    1    2    0    0 +4.8977059351e+02 -3.9081079336e+00 +1.9747610038e+03 2.0345937013e+03 0.0000000000e+00 0.0000e+00 -1.0000e+00
<mgrwt>
<rscale>  0 0.14515115E+04</rscale>
<asrwt>0</asrwt>
<pdfrwt beam="1">  1        2 0.35491611E+00 0.14515115E+04</pdfrwt>
<pdfrwt beam="2">  1       -2 0.35125989E-01 0.14515115E+04</pdfrwt>
<totfact> 0.40240456E+01</totfact>
</mgrwt>
<rwgt>
<wgt id='morphing_basis_vector_1'> +2.2737313e-04 </wgt>
<wgt id='morphing_basis_vector_2'> +1.4873689e-04 </wgt>
<wgt id='morphing_basis_vector_3'> +2.3494455e-04 </wgt>
<wgt id='morphing_basis_vector_4'> +1.5721045e-04 </wgt>
<wgt id='morphing_basis_vector_5'> +2.5063913e-04 </wgt>
</rwgt>
</event>
<event>
 4      1 +3.5234200e-07 1.42193300e+03 7.81860800e-03 8.36179500e-02
        2 -1    0    0  501    0 +0.0000000000e+00 +0.0000000000e+00 +2.3129933510e+03 2.3129933510e+03 0.0000000000e+00 0.0000e+00 1.0000e+00
       -2 -1    0    0    0  501 -0.0000000000e+00 -0.0000000000e+00 -2.1853645155e+02 2.1853645155e+02 0.0000000000e+00 0.0000e+00 -1.0000e+00
      -13  1    1    2    0    0 -4.1032999016e+02 -2.8160079891e+02 +1.4327005364e+02 5.1787645153e+02 0.0000000000e+00 0.0000e+00 -1.0000e+00
       13  1    1    2    0    0 +4.1032999016e+02 +2.8160079891e+02 +1.9511868458e+03 2.0136533510e+03 0.0000000000e+00 0.0000e+00 1.0000e+00
<mgrwt>
<rscale>  0 0.14219330E+04</rscale>
<asrwt>0</asrwt>
<pdfrwt beam="1">  1        2 0.35584511E+00 0.14219330E+04</pdfrwt>
<pdfrwt beam="2">  1       -2 0.33620994E-01 0.14219330E+04</pdfrwt>
<totfact> 0.43330295E+01</totfact>
</mgrwt>
<rwgt>
<wgt id='morphing_basis_vector_1'> +2.1010474e-04 </wgt>
<wgt id='morphing_basis_vector_2'> +1.3730300e-04 </wgt>
<wgt id='morphing_basis_vector_3'> +2.1649650e-04 </wgt>
<wgt id='morphing_basis_vector_4'> +1.4425199e-04 </wgt>
<wgt id='morphing_basis_vector_5'> +2.3006394e-04 </wgt>
</rwgt>
</event>
<event>
 4      1 +3.5234200e-07 1.37850500e+03 7.81860800e-03 8.38922000e-02
        2 -1    0    0  501    0 +0.0000000000e+00 +0.0000000000e+00 +5.7720109024e+02 5.7720109024e+02 0.0000000000e+00 0.0000e+00 -1.0000e+00
       -2 -1    0    0    0  501 -0.0000000000e+00 -0.0000000000e+00 -8.2305691951e+02 8.2305691951e+02 0.0000000000e+00 0.0000e+00 1.0000e+00
      -13  1    1    2    0    0 +3.8895974392e+02 -4.2528581572e+02 -5.0692981242e+02 7.6755165439e+02 0.0000000000e+00 0.0000e+00 1.0000e+00
       13  1    1    2    0    0 -3.8895974392e+02 +4.2528581572e+02 +2.6107398315e+02 6.3270635536e+02 0.0000000000e+00 0.0000e+00 -1.0000e+00
<mgrwt>
<rscale>  0 0.13785055E+04</rscale>
<asrwt>0</asrwt>
<pdfrwt beam="1">  1        2 0.88800168E-01 0.13785055E+04</pdfrwt>
<pdfrwt beam="2">  1       -2 0.12662414E+00 0.13785055E+04</pdfrwt>
<totfact> 0.28394460E+01</totfact>
</mgrwt>
<rwgt>
<wgt id='morphing_basis_vector_1'> +1.8694496e-04 </wgt>
<wgt id='morphing_basis_vector_2'> +1.2282679e-04 </wgt>
<wgt id='morphing_basis_vector_3'> +1.9186544e-04 </wgt>
<wgt id='morphing_basis_vector_4'> +1.2602027e-04 </wgt>
<wgt id='morphing_basis_vector_5'> +2.0210767e-04 </wgt>
</rwgt>
</event>
<event>
 4      1 +3.5234200e-07 1.49472400e+03 7.81860800e-03 8.31803600e-02
        2 -1    0    0  501    0 +0.0000000000e+00 +0.0000000000e+00 +1.0051110639e+03 1.0051110639e+03 0.0000000000e+00 0.0000e+00 -1.0000e+00
       -2 -1    0    0    0  501 -0.0000000000e+00 -0.0000000000e+00 -5.5570988908e+02 5.5570988908e+02 0.0000000000e+00 0.0000e+00 1.0000e+00
      -13  1    1    2    0    0 +5.9493428442e+02 -3.4048860850e+02 -8.6243618020e+01 6.9088150717e+02 0.0000000000e+00 0.0000e+00 1.0000e+00
       13  1    1    2    0    0 -5.9493428442e+02 +3.4048860850e+02 +5.3564479287e+02 8.6993944584e+02 0.0000000000e+00 0.0000e+00 -1.0000e+00
<mgrwt>
<rscale>  0 0.14947243E+04</rscale>
<asrwt>0</asrwt>
<pdfrwt beam="1">  1        2 0.15463247E+00 0.14947243E+04</pdfrwt>
<pdfrwt beam="2">  1       -2 0.85493829E-01 0.14947243E+04</pdfrwt>
<totfact> 0.36437874E+01</totfact>
</mgrwt>
<rwgt>
<wgt id='morphing_basis_vector_1'> +2.5621394e-04 </wgt>
<wgt id='morphing_basis_vector_2'> +1.7178351e-04 </wgt>
<wgt id='morphing_basis_vector_3'> +2.6620886e-04 </wgt>
<wgt id='morphing_basis_vector_4'> +1.7450187e-04 </wgt>
<wgt id='morphing_basis_vector_5'> +2.8287407e-04 </wgt>
</rwgt>
</event>
<event>
 4      1 +3.5234200e-07 1.54064100e+03 7.81860800e-03 8.29173900e-02
        2 -1    0    0  501    0 +0.0000000000e+00 +0.0000000000e+00 +3.3945938313e+02 3.3945938313e+02 0.0000000000e+00 0.0000e+00 -1.0000e+00
       -2 -1    0    0    0  501 -0.0000000000e+00 -0.0000000000e+00 -1.7480548584e+03 1.7480548584e+03 0.0000000000e+00 0.0000e+00 1.0000e+00
      -13  1    1    2    0    0 +4.4015049301e+02 +2.8127345142e+02 -1.4714356994e+03 1.5614000860e+03 0.0000000000e+00 0.0000e+00 1.0000e+00
       13  1    1    2    0    0 -4.4015049301e+02 -2.8127345142e+02 +6.2840224095e+01 5.2611415561e+02 0.0000000000e+00 0.0000e+00 -1.0000e+00
<mgrwt>
<rscale>  0 0.15406409E+04</rscale>
<asrwt>0</asrwt>
<pdfrwt beam="1">  1        2 0.52224520E-01 0.15406409E+04</pdfrwt>
<pdfrwt beam="2">  1       -2 0.26893152E+00 0.15406409E+04</pdfrwt>
<totfact> 0.43327476E+00</totfact>
</mgrwt>
<rwgt>
<wgt id='morphing_basis_vector_1'> +2.8614752e-04 </wgt>
<wgt id='morphing_basis_vector_2'> +1.8807623e-04 </wgt>
<wgt id='morphing_basis_vector_3'> +2.9794329e-04 </wgt>
<wgt id='morphing_basis_vector_4'> +2.0118992e-04 </wgt>
<wgt id='morphing_basis_vector_5'> +3.2089757e-04 </wgt>
</rwgt>
</event>
<event>
 4      1 +3.5234200e-07 1.33631800e+03 7.81860800e-03 8.41688800e-02
        2 -1    0    0  501    0 +0.0000000000e+00 +0.0000000000e+00 +4.0492016734e+02 4.0492016734e+02 0.0000000000e+00 0.0000e+00 1.0000e+00
       -2 -1    0    0    0  501 -0.0000000000e+00 -0.0000000000e+00 -1.1025294591e+03 1.1025294591e+03 0.0000000000e+00 0.0000e+00 -1.0000e+00
      -13  1    1    2    0    0 +6.1203573450e+02 -2.3433338829e+01 -6.5001951496e+02 8.9311938256e+02 0.0000000000e+00 0.0000e+00 -1.0000e+00
       13  1    1    2    0    0 -6.1203573450e+02 +2.3433338829e+01 -4.7589776779e+01 6.1433024386e+02 0.0000000000e+00 0.0000e+00 1.0000e+00
<mgrwt>
<rscale>  0 0.13363179E+04</rscale>
<asrwt>0</asrwt>
<pdfrwt beam="1">  1        2 0.62295410E-01 0.13363179E+04</pdfrwt>
<pdfrwt beam="2">  1       -2 0.16961992E+00 0.13363179E+04</pdfrwt>
<totfact> 0.18649683E+01</totfact>
</mgrwt>
<rwgt>
<wgt id='morphing_basis_vector_1'> +1.6660952e-04 </wgt>
<wgt id='morphing_basis_vector_2'> +1.1064903e-04 </wgt>
<wgt id='morphing_basis_vector_3'> +1.7030768e-04 </wgt>
<wgt id='morphing_basis_vector_4'> +1.0955349e-04 </wgt>
<wgt id='morphing_basis_vector_5'> +1.7740621e-04 </wgt>
</rwgt>
</event>
<event>
 4      1 +3.5234200e-07 1.30413800e+03 7.81860800e-03 8.43872000e-02
        2 -1    0    0  501    0 +0.0000000000e+00 +0.0000000000e+00 +1.1399469540e+03 1.1399469540e+03 0.0000000000e+00 0.0000e+00 -1.0000e+00
       -2 -1    0    0    0  501 -0.0000000000e+00 -0.0000000000e+00 -3.7299428627e+02 3.7299428627e+02 0.0000000000e+00 0.0000e+00 1.0000e+00
      -13  1    1    2    0    0 +1.7331762482e+02 -3.4428902024e+02 -2.2667879218e+02 4.4716574483e+02 0.0000000000e+00 0.0000e+00 1.0000e+00
       13  1    1    2    0    0 -1.7331762482e+02 +3.4428902024e+02 +9.9363145990e+02 1.0657754954e+03 0.0000000000e+00 0.0000e+00 -1.0000e+00
<mgrwt>
<rscale>  0 0.13041376E+04</rscale>
<asrwt>0</asrwt>
<pdfrwt beam="1">  1        2 0.17537645E+00 0.13041376E+04</pdfrwt>
<pdfrwt beam="2">  1       -2 0.57383737E-01 0.13041376E+04</pdfrwt>
<totfact> 0.72393813E+01</totfact>
</mgrwt>
<rwgt>
<wgt id='morphing_basis_vector_1'> +1.5077590e-04 </wgt>
<wgt id='morphing_basis_vector_2'> +9.7522683e-05 </wgt>
<wgt id='morphing_basis_vector_3'> +1.5331435e-04 </wgt>
<wgt id='morphing_basis_vector_4'> +1.0075953e-04 </wgt>
<wgt id='morphing_basis_vector_5'> +1.6031074e-04 </wgt>
</rwgt>
</event>
<event>
 4      1 +3.5234200e-07 1.36339700e+03 7.81860800e-03 8.39900900e-02
        2 -1    0    0  501    0 +0.0000000000e+00 +0.0000000000e+00 +5.8081550633e+02 5.8081550633e+02 0.0000000000e+00 0.0000e+00 -1.0000e+00
       -2 -1    0    0    0  501 -0.0000000000e+00 -0.0000000000e+00 -8.0010364379e+02 8.0010364379e+02 0.0000000000e+00 0.0000e+00 1.0000e+00
      -13  1    1    2    0    0 -1.6534672018e+02 -3.4782149802e+02 -6.7936168729e+02 7.8092998054e+02 0.0000000000e+00 0.0000e+00 1.0000e+00
       13  1    1    2    0    0 +1.6534672018e+02 +3.4782149802e+02 +4.6007354983e+02 5.9998916958e+02 0.0000000000e+00 0.0000e+00 -1.0000e+00
<mgrwt>
<rscale>  0 0.13633966E+04</rscale>
<asrwt>0</asrwt>
<pdfrwt beam="1">  1        2 0.89356232E-01 0.13633966E+04</pdfrwt>
<pdfrwt beam="2">  1       -2 0.12309287E+00 0.13633966E+04</pdfrwt>
<totfact> 0.30403229E+01</totfact>
</mgrwt>
<rwgt>
<wgt id='morphing_basis_vector_1'> +1.7867536e-04 </wgt>
<wgt id='morphing_basis_vector_2'> +1.1601975e-04 </wgt>
<wgt id='morphing_basis_vector_3'> +1.8295560e-04 </wgt>
<wgt id='morphing_basis_vector_4'> +1.2133910e-04 </wgt>
<wgt id='morphing_basis_vector_5'> +1.9308804e-04 </wgt>
</rwgt>
</event>
<event>
 4      1 +3.5234200e-07 1.33702700e+03 7.81860800e-03 8.41641400e-02
        2 -1    0    0  501    0 +0.0000000000e+00 +0.0000000000e+00 +8.6814336814e+02 8.6814336814e+02 0.0000000000e+00 0.0000e+00 1.0000e+00
       -2 -1    0    0    0  501 -0.0000000000e+00 -0.0000000000e+00 -5.1478867704e+02 5.1478867704e+02 0.0000000000e+00 0.0000e+00 -1.0000e+00
      -13  1    1    2    0    0 +3.2585100856e+02 -5.0133685475e+02 -1.3257430606e+02 6.1244874752e+02 0.0000000000e+00 0.0000e+00 -1.0000e+00
       13  1    1    2    0    0 -3.2585100856e+02 +5.0133685475e+02 +4.8592899715e+02 7.7048329766e+02 0.0000000000e+00 0.0000e+00 1.0000e+00
<mgrwt>
<rscale>  0 0.13370271E+04</rscale>
<asrwt>0</asrwt>
<pdfrwt beam="1">  1        2 0.13356052E+00 0.13370271E+04</pdfrwt>
<pdfrwt beam="2">  1       -2 0.79198258E-01 0.13370271E+04</pdfrwt>
<totfact> 0.53812159E+01</totfact>
</mgrwt>
<rwgt>
<wgt id='morphing_basis_vector_1'> +1.6670296e-04 </wgt>
<wgt id='morphing_basis_vector_2'> +1.1014641e-04 </wgt>
<wgt id='morphing_basis_vector_3'> +1.7036782e-04 </wgt>
<wgt id='morphing_basis_vector_4'> +1.1023617e-04 </wgt>
<wgt id='morphing_basis_vector_5'> +1.7783188e-04 </wgt>
</rwgt>
</event>
<event>
 4      1 +3.5234200e-07 1.31183200e+03 7.81860800e-03 8.43344100e-02
        2 -1    0    0  501    0 +0.0000000000e+00 +0.0000000000e+00 +4.7910773670e+02 4.7910773670e+02 0.0000000000e+00 0.0000e+00 1.0000e+00
       -2 -1    0    0    0  501 -0.0000000000e+00 -0.0000000000e+00 -8.9797285590e+02 8.9797285590e+02 0.0000000000e+00 0.0000e+00 -1.0000e+00
      -13  1    1    2    0    0 -1.8630633541e+02 -3.9230591175e+02 -7.2542127449e+02 8.4548802741e+02 0.0000000000e+00 0.0000e+00 -1.0000e+00
       13  1    1    2    0    0 +1.8630633541e+02 +3.9230591175e+02 +3.0655615529e+02 5.3159256518e+02 0.0000000000e+00 0.0000e+00 1.0000e+00
<mgrwt>
<rscale>  0 0.13118319E+04</rscale>
<asrwt>0</asrwt>
<pdfrwt beam="1">  1        2 0.73708882E-01 0.13118319E+04</pdfrwt>
<pdfrwt beam="2">  1       -2 0.13814967E+00 0.13118319E+04</pdfrwt>
<totfact> 0.27955229E+01</totfact>
</mgrwt>
<rwgt>
<wgt id='morphing_basis_vector_1'> +1.5425469e-04 </wgt>
<wgt id='morphing_basis_vector_2'> +9.9961509e-05 </wgt>
<wgt id='morphing_basis_vector_3'> +1.5701290e-04 </wgt>
<wgt id='morphing_basis_vector_4'> +1.0317063e-04 </wgt>
<wgt id='morphing_basis_vector_5'> +1.6430780e-04 </wgt>
</rwgt>
</event>
<event>
 4      1 +3.5234200e-07 1.47187700e+03 7.81860800e-03 8.33148700e-02
        2 -1    0    0  501    0 +0.0000000000e+00 +0.0000000000e+00 +6.8294078250e+02 6.8294078250e+02 0.0000000000e+00 0.0000e+00 -1.0000e+00
       -2 -1    0    0    0  501 -0.0000000000e+00 -0.0000000000e+00 -7.9304934102e+02 7.9304934102e+02 0.0000000000e+00 0.0000e+00 1.0000e+00
      -13  1    1    2    0    0 +1.2920248099e+02 +4.9058685868e+02 -5.8968280297e+02 7.7787823927e+02 0.0000000000e+00 0.0000e+00 1.0000e+00
       13  1    1    2    0    0 -1.2920248099e+02 -4.9058685868e+02 +4.7957424445e+02 6.9811188426e+02 0.0000000000e+00 0.0000e+00 -1.0000e+00
<mgrwt>
<rscale>  0 0.14718774E+04</rscale>
<asrwt>0</asrwt>
<pdfrwt beam="1">  1        2 0.10506781E+00 0.14718774E+04</pdfrwt>
<pdfrwt beam="2">  1       -2 0.12200759E+00 0.14718774E+04</pdfrwt>
<totfact> 0.25426344E+01</totfact>
</mgrwt>
<rwgt>
<wgt id='morphing_basis_vector_1'> +2.3993461e-04 </wgt>
<wgt id='morphing_basis_vector_2'> +1.5719484e-04 </wgt>
<wgt id='morphing_basis_vector_3'> +2.4839292e-04 </wgt>
<wgt id='morphing_basis_vector_4'> +1.6651135e-04 </wgt>
<wgt id='morphing_basis_vector_5'> +2.6556888e-04 </wgt>
</rwgt>
</event>
<event>
 4      1 +3.5234200e-07 1.39519000e+03 7.81860800e-03 8.37856000e-02
        2 -1    0    0  501    0 +0.0000000000e+00 +0.0000000000e+00 +3.6413326636e+02 3.6413326636e+02 0.0000000000e+00 0.0000e+00 -1.0000e+00
       -2 -1    0    0    0  501 -0.0000000000e+00 -0.0000000000e+00 -1.3364310235e+03 1.3364310235e+03 0.0000000000e+00 0.0000e+00 1.0000e+00
      -13  1    1    2    0    0 +1.4715925916e+01 +4.0858916546e+02 -1.1750860684e+03 1.2441820337e+03 0.0000000000e+00 0.0000e+00 1.0000e+00
       13  1    1    2    0    0 -1.4715925916e+01 -4.0858916546e+02 +2.0278831128e+02 4.5638225623e+02 0.0000000000e+00 0.0000e+00 -1.0000e+00
<mgrwt>
<rscale>  0 0.13951903E+04</rscale>
<asrwt>0</asrwt>
<pdfrwt beam="1">  1        2 0.56020503E-01 0.13951903E+04</pdfrwt>
<pdfrwt beam="2">  1       -2 0.20560477E+00 0.13951903E+04</pdfrwt>
<totfact> 0.11247943E+01</totfact>
</mgrwt>
<rwgt>
<wgt id='morphing_basis_vector_1'> +1.9519871e-04 </wgt>
<wgt id='morphing_basis_vector_2'> +1.2704535e-04 </wgt>
<wgt id='morphing_basis_vector_3'> +2.0056148e-04 </wgt>
<wgt id='morphing_basis_vector_4'> +1.3354116e-04 </wgt>
<wgt id='morphing_basis_vector_5'> +2.1258510e-04 </wgt>
</rwgt>
</event>
<event>
 4      1 +3.5234200e-07 1.45010100e+03 7.81860800e-03 8.34454600e-02
        2 -1    0    0  501    0 +0.0000000000e+00 +0.0000000000e+00 +6.4960512041e+02 6.4960512041e+02 0.0000000000e+00 0.0000e+00 -1.0000e+00
       -2 -1    0    0    0  501 -0.0000000000e+00 -0.0000000000e+00 -8.0925778042e+02 8.0925778042e+02 0.0000000000e+00 0.0000e+00 1.0000e+00
      -13  1    1    2    0    0 -4.9840553747e+02 -3.2512070355e+02 -4.9655925360e+02 7.7503718878e+02 0.0000000000e+00 0.0000e+00 1.0000e+00
       13  1    1    2    0    0 +4.9840553747e+02 +3.2512070355e+02 +3.3690659359e+02 6.8382571205e+02 0.0000000000e+00 0.0000e+00 -1.0000e+00
<mgrwt>
<rscale>  0 0.14501007E+04</rscale>
<asrwt>0</asrwt>
<pdfrwt beam="1">  1        2 0.99939250E-01 0.14501007E+04</pdfrwt>
<pdfrwt beam="2">  1       -2 0.12450120E+00 0.14501007E+04</pdfrwt>
<totfact> 0.25659963E+01</totfact>
</mgrwt>
<rwgt>
<wgt id='morphing_basis_vector_1'> +2.2698993e-04 </wgt>
<wgt id='morphing_basis_vector_2'> +1.4956075e-04 </wgt>
<wgt id='morphing_basis_vector_3'> +2.3463585e-04 </wgt>
<wgt id='morphing_basis_vector_4'> +1.5571631e-04 </wgt>
<wgt id='morphing_basis_vector_5'> +2.4956499e-04 </wgt>
</rwgt>
</event>
<event>
 4      1 +3.5234200e-07 1.30979400e+03 7.81860800e-03 8.43483600e-02
        2 -1    0    0  501    0 +0.0000000000e+00 +0.0000000000e+00 +5.4215473660e+02 5.4215473660e+02 0.0000000000e+00 0.0000e+00 1.0000e+00
       -2 -1    0    0    0  501 -0.0000000000e+00 -0.0000000000e+00 -7.9108406635e+02 7.9108406635e+02 0.0000000000e+00 0.0000e+00 -1.0000e+00
      -13  1    1    2    0    0 +4.1938202632e+02 +2.2958657396e+02 -5.8002306811e+02 7.5167681784e+02 0.0000000000e+00 0.0000e+00 -1.0000e+00
       13  1    1    2    0    0 -4.1938202632e+02 -2.2958657396e+02 +3.3109373836e+02 5.8156198511e+02 0.0000000000e+00 0.0000e+00 1.0000e+00
<mgrwt>
<rscale>  0 0.13097938E+04</rscale>
<asrwt>0</asrwt>
<pdfrwt beam="1">  1        2 0.83408421E-01 0.13097938E+04</pdfrwt>
<pdfrwt beam="2">  1       -2 0.12170524E+00 0.13097938E+04</pdfrwt>
<totfact> 0.34077725E+01</totfact>
</mgrwt>
<rwgt>
<wgt id='morphing_basis_vector_1'> +1.5343279e-04 </wgt>
<wgt id='morphing_basis_vector_2'> +9.9626818e-05 </wgt>
<wgt id='morphing_basis_vector_3'> +1.5615425e-04 </wgt>
<wgt id='morphing_basis_vector_4'> +1.0234005e-04 </wgt>
<wgt id='morphing_basis_vector_5'> +1.6322870e-04 </wgt>
</rwgt>
</event>
<event>
 4      1 +3.5234200e-07 1.50430700e+03 7.81860800e-03 8.31246800e-02
        2 -1    0    0  501    0 +0.0000000000e+00 +0.0000000000e+00 +7.3886387336e+02 7.3886387336e+02 0.0000000000e+00 0.0000e+00 1.0000e+00
       -2 -1    0    0    0  501 -0.0000000000e+00 -0.0000000000e+00 -7.6568215750e+02 7.6568215750e+02 0.0000000000e+00 0.0000e+00 -1.0000e+00
      -13  1    1    2    0    0 +2.6376695559e+02 -4.0962936387e+02 +5.5971390327e+02 7.4205719195e+02 0.0000000000e+00 0.0000e+00 -1.0000e+00
       13  1    1    2    0    0 -2.6376695559e+02 +4.0962936387e+02 -5.8653218741e+02 7.6248883892e+02 0.0000000000e+00 0.0000e+00 1.0000e+00
<mgrwt>
<rscale>  0 0.15043070E+04</rscale>
<asrwt>0</asrwt>
<pdfrwt beam="1">  1        2 0.11367136E+00 0.15043070E+04</pdfrwt>
<pdfrwt beam="2">  1       -2 0.11779726E+00 0.15043070E+04</pdfrwt>
<totfact> 0.25213843E+01</totfact>
</mgrwt>
<rwgt>
<wgt id='morphing_basis_vector_1'> +3.4314108e-04 </wgt>
<wgt id='morphing_basis_vector_2'> +4.1619177e-04 </wgt>
<wgt id='morphing_basis_vector_3'> +3.7866613e-04 </wgt>
<wgt id='morphing_basis_vector_4'> +2.8787892e-05 </wgt>
<wgt id='morphing_basis_vector_5'> +2.7930290e-04 </wgt>
</rwgt>
</event>
<event>
 4      1 +3.5234200e-07 1.36646300e+03 7.81860800e-03 8.39701100e-02
        2 -1    0    0  501    0 +0.0000000000e+00 +0.0000000000e+00 +1.1921339140e+03 1.1921339140e+03 0.0000000000e+00 0.0000e+00 -1.0000e+00
       -2 -1    0    0    0  501 -0.0000000000e+00 -0.0000000000e+00 -3.9157146363e+02 3.9157146363e+02 0.0000000000e+00 0.0000e+00 1.0000e+00
      -13  1    1    2    0    0 +1.0555261556e+02 +2.3054888332e+02 -3.3502034323e+02 4.2015803293e+02 0.0000000000e+00 0.0000e+00 1.0000e+00
       13  1    1    2    0    0 -1.0555261556e+02 -2.3054888332e+02 +1.1355827936e+03 1.1635473447e+03 0.0000000000e+00 0.0000e+00 -1.0000e+00
<mgrwt>
<rscale>  0 0.13664635E+04</rscale>
<asrwt>0</asrwt>
<pdfrwt beam="1">  1        2 0.18340522E+00 0.13664635E+04</pdfrwt>
<pdfrwt beam="2">  1       -2 0.60241764E-01 0.13664635E+04</pdfrwt>
<totfact> 0.60773715E+01</totfact>
</mgrwt>
<rwgt>
<wgt id='morphing_basis_vector_1'> +1.8016329e-04 </wgt>
<wgt id='morphing_basis_vector_2'> +1.1687779e-04 </wgt>
<wgt id='morphing_basis_vector_3'> +1.8452936e-04 </wgt>
<wgt id='morphing_basis_vector_4'> +1.2258322e-04 </wgt>
<wgt id='morphing_basis_vector_5'> +1.9491621e-04 </wgt>
</rwgt>
</event>
<event>
 4      1 +3.5234200e-07 1.52965900e+03 7.81860800e-03 8.29794200e-02
        2 -1    0    0  501    0 +0.0000000000e+00 +0.0000000000e+00 +2.1071197173e+03 2.1071197173e+03 0.0000000000e+00 0.0000e+00 -1.0000e+00
       -2 -1    0    0    0  501 -0.0000000000e+00 -0.0000000000e+00 -2.7761316549e+02 2.7761316549e+02 0.0000000000e+00 0.0000e+00 1.0000e+00
      -13  1    1    2    0    0 +6.7079357646e+01 +7.4685025318e+02 +6.7997424818e+02 1.0122499292e+03 0.0000000000e+00 0.0000e+00 1.0000e+00
       13  1    1    2    0    0 -6.7079357646e+01 -7.4685025318e+02 +1.1495323036e+03 1.3724829536e+03 0.0000000000e+00 0.0000e+00 -1.0000e+00
<mgrwt>
<rscale>  0 0.15296590E+04</rscale>
<asrwt>0</asrwt>
<pdfrwt beam="1">  1        2 0.32417225E+00 0.15296590E+04</pdfrwt>
<pdfrwt beam="2">  1       -2 0.42709719E-01 0.15296590E+04</pdfrwt>
<totfact> 0.36155700E+01</totfact>
</mgrwt>
<rwgt>
<wgt id='morphing_basis_vector_1'> +2.8289762e-04 </wgt>
<wgt id='morphing_basis_vector_2'> +1.9641404e-04 </wgt>
<wgt id='morphing_basis_vector_3'> +2.9558407e-04 </wgt>
<wgt id='morphing_basis_vector_4'> +1.8678492e-04 </wgt>
<wgt id='morphing_basis_vector_5'> +3.1089847e-04 </wgt>
</rwgt>
</event>
<event>
 4      1 +3.5234200e-07 1.36412900e+03 7.81860800e-03 8.39853100e-02
        2 -1    0    0  501    0 +0.0000000000e+00 +0.0000000000e+00 +1.7207886488e+03 1.7207886488e+03 0.0000000000e+00 0.0000e+00 -1.0000e+00
       -2 -1    0    0    0  501 -0.0000000000e+00 -0.0000000000e+00 -2.7034798420e+02 2.7034798420e+02 0.0000000000e+00 0.0000e+00 1.0000e+00
      -13  1    1    2    0    0 -3.4136246099e+02 +5.9045818022e+02 +7.3474162427e+02 1.0025040882e+03 0.0000000000e+00 0.0000e+00 1.0000e+00
       13  1    1    2    0    0 +3.4136246099e+02 -5.9045818022e+02 +7.1569904036e+02 9.8863254485e+02 0.0000000000e+00 0.0000e+00 -1.0000e+00
<mgrwt>
<rscale>  0 0.13641286E+04</rscale>
<asrwt>0</asrwt>
<pdfrwt beam="1">  1        2 0.26473671E+00 0.13641286E+04</pdfrwt>
<pdfrwt beam="2">  1       -2 0.41591999E-01 0.13641286E+04</pdfrwt>
<totfact> 0.63362128E+01</totfact>
</mgrwt>
<rwgt>
<wgt id='morphing_basis_vector_1'> +1.8569188e-04 </wgt>
<wgt id='morphing_basis_vector_2'> +1.3614305e-04 </wgt>
<wgt id='morphing_basis_vector_3'> +1.9160350e-04 </wgt>
<wgt id='morphing_basis_vector_4'> +1.0958370e-04 </wgt>
<wgt id='morphing_basis_vector_5'> +1.9265731e-04 </wgt>
</rwgt>
</event>
<event>
 4      1 +3.5234200e-07 1.38012700e+03 7.81860800e-03 8.38817700e-02
        2 -1    0    0  501    0 +0.0000000000e+00 +0.0000000000e+00 +1.2643211848e+03 1.2643211848e+03 0.0000000000e+00 0.0000e+00 -1.0000e+00
       -2 -1    0    0    0  501 -0.0000000000e+00 -0.0000000000e+00 -3.7663515453e+02 3.7663515453e+02 0.0000000000e+00 0.0000e+00 1.0000e+00
      -13  1    1    2    0    0 -7.3254675294e+01 -5.3403029494e+02 -6.8435005945e+01 5.4335803427e+02 0.0000000000e+00 0.0000e+00 1.0000e+00
       13  1    1    2    0    0 +7.3254675294e+01 +5.3403029494e+02 +9.5612103619e+02 1.0975983050e+03 0.0000000000e+00 0.0000e+00 -1.0000e+00
<mgrwt>
<rscale>  0 0.13801272E+04</rscale>
<asrwt>0</asrwt>
<pdfrwt beam="1">  1        2 0.19451095E+00 0.13801272E+04</pdfrwt>
<pdfrwt beam="2">  1       -2 0.57943870E-01 0.13801272E+04</pdfrwt>
<totfact> 0.59684389E+01</totfact>
</mgrwt>
<rwgt>
<wgt id='morphing_basis_vector_1'> +1.8755563e-04 </wgt>
<wgt id='morphing_basis_vector_2'> +1.2269545e-04 </wgt>
<wgt id='morphing_basis_vector_3'> +1.9247364e-04 </wgt>
<wgt id='morphing_basis_vector_4'> +1.2706378e-04 </wgt>
<wgt id='morphing_basis_vector_5'> +2.0313246e-04 </wgt>
</rwgt>
</event>
<event>
 4      1 +3.5234200e-07 1.41547100e+03 7.81860800e-03 8.36581100e-02
        2 -1    0    0  501    0 +0.0000000000e+00 +0.0000000000e+00 +1.6467630467e+03 1.6467630467e+03 0.0000000000e+00 0.0000e+00 1.0000e+00
       -2 -1    0    0    0  501 -0.0000000000e+00 -0.0000000000e+00 -3.0416615302e+02 3.0416615302e+02 0.0000000000e+00 0.0000e+00 -1.0000e+00
      -13  1    1    2    0    0 +6.3949495283e+01 -6.6504935908e+02 +9.9309114611e+02 1.1969169614e+03 0.0000000000e+00 0.0000e+00 1.0000e+00
       13  1    1    2    0    0 -6.3949495283e+01 +6.6504935908e+02 +3.4950574754e+02 7.5401223831e+02 0.0000000000e+00 0.0000e+00 -1.0000e+00
<mgrwt>
<rscale>  0 0.14154711E+04</rscale>
<asrwt>0</asrwt>
<pdfrwt beam="1">  1        2 0.25334816E+00 0.14154711E+04</pdfrwt>
<pdfrwt beam="2">  1       -2 0.46794794E-01 0.14154711E+04</pdfrwt>
<totfact> 0.55388872E+01</totfact>
</mgrwt>
<rwgt>
<wgt id='morphing_basis_vector_1'> +2.2909445e-04 </wgt>
<wgt id='morphing_basis_vector_2'> +2.0246123e-04 </wgt>
<wgt id='morphing_basis_vector_3'> +2.4133595e-04 </wgt>
<wgt id='morphing_basis_vector_4'> +1.0007441e-04 </wgt>
<wgt id='morphing_basis_vector_5'> +2.2272228e-04 </wgt>
</rwgt>
</event>
<event>
 4      1 +3.5234200e-07 1.32219000e+03 7.81860800e-03 8.42639300e-02
        2 -1    0    0  501    0 +0.0000000000e+00 +0.0000000000e+00 +2.0570151167e+02 2.0570151167e+02 0.0000000000e+00 0.0000e+00 -1.0000e+00
       -2 -1    0    0    0  501 -0.0000000000e+00 -0.0000000000e+00 -2.1246648841e+03 2.1246648841e+03 0.0000000000e+00 0.0000e+00 1.0000e+00
      -13  1    1    2    0    0 -9.8408478088e+01 -5.4226193758e+02 -1.6030120047e+03 1.6951046354e+03 0.0000000000e+00 0.0000e+00 1.0000e+00
       13  1    1    2    0    0 +9.8408478088e+01 +5.4226193758e+02 -3.1595136773e+02 6.3526176045e+02 0.0000000000e+00 0.0000e+00 -1.0000e+00
<mgrwt>
<rscale>  0 0.13221903E+04</rscale>
<asrwt>0</asrwt>
<pdfrwt beam="1">  1        2 0.31646387E-01 0.13221903E+04</pdfrwt>
<pdfrwt beam="2">  1       -2 0.32687152E+00 0.13221903E+04</pdfrwt>
<totfact> 0.31749079E+00</totfact>
</mgrwt>
<rwgt>
<wgt id='morphing_basis_vector_1'> +1.5935277e-04 </wgt>
<wgt id='morphing_basis_vector_2'> +1.0427043e-04 </wgt>
<wgt id='morphing_basis_vector_3'> +1.6248610e-04 </wgt>
<wgt id='morphing_basis_vector_4'> +1.0591335e-04 </wgt>
<wgt id='morphing_basis_vector_5'> +1.6976388e-04 </wgt>
</rwgt>
</event>
<event>
 4      1 +3.5234200e-07 1.29223600e+03 7.81860800e-03 8.44696200e-02
        2 -1    0    0  501    0 +0.0000000000e+00 +0.0000000000e+00 +1.2140098657e+03 1.2140098657e+03 0.0000000000e+00 0.0000e+00 -1.0000e+00
       -2 -1    0    0    0  501 -0.0000000000e+00 -0.0000000000e+00 -3.4387573456e+02 3.4387573456e+02 0.0000000000e+00 0.0000e+00 1.0000e+00
      -13  1    1    2    0    0 -1.9023170455e+02 -7.7261226046e+01 -3.0349911837e+02 3.6642750077e+02 0.0000000000e+00 0.0000e+00 1.0000e+00
       13  1    1    2    0    0 +1.9023170455e+02 +7.7261226046e+01 +1.1736332495e+03 1.1914580995e+03 0.0000000000e+00 0.0000e+00 -1.0000e+00
<mgrwt>
<rscale>  0 0.12922361E+04</rscale>
<asrwt>0</asrwt>
<pdfrwt beam="1">  1        2 0.18677075E+00 0.12922361E+04</pdfrwt>
<pdfrwt beam="2">  1       -2 0.52903960E-01 0.12922361E+04</pdfrwt>
<totfact> 0.77182955E+01</totfact>
</mgrwt>
<rwgt>
<wgt id='morphing_basis_vector_1'> +1.4553308e-04 </wgt>
<wgt id='morphing_basis_vector_2'> +9.3898527e-05 </wgt>
<wgt id='morphing_basis_vector_3'> +1.4774791e-04 </wgt>
<wgt id='morphing_basis_vector_4'> +9.7076491e-05 </wgt>
<wgt id='morphing_basis_vector_5'> +1.5426759e-04 </wgt>
</rwgt>
</event>
<event>
 4      1 +3.5234200e-07 1.37769900e+03 7.81860800e-03 8.38973900e-02
        2 -1    0    0  501    0 +0.0000000000e+00 +0.0000000000e+00 +6.0549512489e+02 6.0549512489e+02 0.0000000000e+00 0.0000e+00 -1.0000e+00
       -2 -1    0    0    0  501 -0.0000000000e+00 -0.0000000000e+00 -7.8367917961e+02 7.8367917961e+02 0.0000000000e+00 0.0000e+00 1.0000e+00
      -13  1    1    2    0    0 +3.8545491858e+02 +1.0893122869e+02 -6.5418143111e+02 7.6706900058e+02 0.0000000000e+00 0.0000e+00 1.0000e+00
       13  1    1    2    0    0 -3.8545491858e+02 -1.0893122869e+02 +4.7599737638e+02 6.2210530392e+02 0.0000000000e+00 0.0000e+00 -1.0000e+00
<mgrwt>
<rscale>  0 0.13776994E+04</rscale>
<asrwt>0</asrwt>
<pdfrwt beam="1">  1        2 0.93153096E-01 0.13776994E+04</pdfrwt>
<pdfrwt beam="2">  1       -2 0.12056603E+00 0.13776994E+04</pdfrwt>
<totfact> 0.30529822E+01</totfact>
</mgrwt>
<rwgt>
<wgt id='morphing_basis_vector_1'> +1.8597534e-04 </wgt>
<wgt id='morphing_basis_vector_2'> +1.2089881e-04 </wgt>
<wgt id='morphing_basis_vector_3'> +1.9073064e-04 </wgt>
<wgt id='morphing_basis_vector_4'> +1.2671367e-04 </wgt>
<wgt id='morphing_basis_vector_5'> +2.0168700e-04 </wgt>
</rwgt>
</event>
<event>
 4      1 +3.5234200e-07 1.47207400e+03 7.81860800e-03 8.33137000e-02
        2 -1    0    0  501    0 +0.0000000000e+00 +0.0000000000e+00 +3.8313144881e+03 3.8313144881e+03 0.0000000000e+00 0.0000e+00 1.0000e+00
       -2 -1    0    0    0  501 -0.0000000000e+00 -0.0000000000e+00 -1.4140073866e+02 1.4140073866e+02 0.0000000000e+00 0.0000e+00 -1.0000e+00
      -13  1    1    2    0    0 -5.3944143273e+02 -4.0652924380e+02 +1.0558982063e+03 1.2534688299e+03 0.0000000000e+00 0.0000e+00 -1.0000e+00
       13  1    1    2    0    0 +5.3944143273e+02 +4.0652924380e+02 +2.6340155432e+03 2.7192463969e+03 0.0000000000e+00 0.0000e+00 1.0000e+00
<mgrwt>
<rscale>  0 0.14720743E+04</rscale>
<asrwt>0</asrwt>
<pdfrwt beam="1">  1        2 0.58943292E+00 0.14720743E+04</pdfrwt>
<pdfrwt beam="2">  1       -2 0.21753963E-01 0.14720743E+04</pdfrwt>
<totfact> 0.89833571E+00</totfact>
</mgrwt>
<rwgt>
<wgt id='morphing_basis_vector_1'> +2.4157495e-04 </wgt>
<wgt id='morphing_basis_vector_2'> +1.6180098e-04 </wgt>
<wgt id='morphing_basis_vector_3'> +2.5049207e-04 </wgt>
<wgt id='morphing_basis_vector_4'> +1.6378985e-04 </wgt>
<wgt id='morphing_basis_vector_5'> +2.6550891e-04 </wgt>
</rwgt>
</event>
<event>
 4      1 +3.5234200e-07 1.52384600e+03 7.81860800e-03 8.30124600e-02
        2 -1    0    0  501    0 +0.0000000000e+00 +0.0000000000e+00 +1.4275715174e+03 1.4275715174e+03 0.0000000000e+00 0.0000e+00 1.0000e+00
       -2 -1    0    0    0  501 -0.0000000000e+00 -0.0000000000e+00 -4.0665339031e+02 4.0665339031e+02 0.0000000000e+00 0.0000e+00 -1.0000e+00
      -13  1    1    2    0    0 -1.6506606103e+01 +7.5715832150e+02 +4.0999959062e+02 8.6119733869e+02 0.0000000000e+00 0.0000e+00 -1.0000e+00
       13  1    1    2    0    0 +1.6506606103e+01 -7.5715832150e+02 +6.1091853646e+02 9.7302756901e+02 0.0000000000e+00 0.0000e+00 1.0000e+00
<mgrwt>
<rscale>  0 0.15238462E+04</rscale>
<asrwt>0</asrwt>
<pdfrwt beam="1">  1        2 0.21962639E+00 0.15238462E+04</pdfrwt>
<pdfrwt beam="2">  1       -2 0.62562060E-01 0.15238462E+04</pdfrwt>
<totfact> 0.40694596E+01</totfact>
</mgrwt>
<rwgt>
<wgt id='morphing_basis_vector_1'> +2.8067473e-04 </wgt>
<wgt id='morphing_basis_vector_2'> +1.9918011e-04 </wgt>
<wgt id='morphing_basis_vector_3'> +2.9364062e-04 </wgt>
<wgt id='morphing_basis_vector_4'> +1.8029208e-04 </wgt>
<wgt id='morphing_basis_vector_5'> +3.0577018e-04 </wgt>
</rwgt>
</event>
<event>
 4      1 +3.5234200e-07 1.29835200e+03 7.81860800e-03 8.44271500e-02
        2 -1    0    0  501    0 +0.0000000000e+00 +0.0000000000e+00 +1.1518040193e+03 1.1518040193e+03 0.0000000000e+00 0.0000e+00 1.0000e+00
       -2 -1    0    0    0  501 -0.0000000000e+00 -0.0000000000e+00 -3.6588645182e+02 3.6588645182e+02 0.0000000000e+00 0.0000e+00 -1.0000e+00
      -13  1    1    2    0    0 +2.2665920040e+02 -1.4556463498e+02 -2.9747191620e+02 4.0131408772e+02 0.0000000000e+00 0.0000e+00 -1.0000e+00
       13  1    1    2    0    0 -2.2665920040e+02 +1.4556463498e+02 +1.0833894837e+03 1.1163763834e+03 0.0000000000e+00 0.0000e+00 1.0000e+00
<mgrwt>
<rscale>  0 0.12983520E+04</rscale>
<asrwt>0</asrwt>
<pdfrwt beam="1">  1        2 0.17720062E+00 0.12983520E+04</pdfrwt>
<pdfrwt beam="2">  1       -2 0.56290224E-01 0.12983520E+04</pdfrwt>
<totfact> 0.74096328E+01</totfact>
</mgrwt>
<rwgt>
<wgt id='morphing_basis_vector_1'> +1.4818567e-04 </wgt>
<wgt id='morphing_basis_vector_2'> +9.5676366e-05 </wgt>
<wgt id='morphing_basis_vector_3'> +1.5056018e-04 </wgt>
<wgt id='morphing_basis_vector_4'> +9.8998986e-05 </wgt>
<wgt id='morphing_basis_vector_5'> +1.5735463e-04 </wgt>
</rwgt>
</event>
<event>
 4      1 +3.5234200e-07 1.29440800e+03 7.81860800e-03 8.44545100e-02
        2 -1    0    0  501    0 +0.0000000000e+00 +0.0000000000e+00 +1.3687438141e+03 1.3687438141e+03 0.0000000000e+00 0.0000e+00 1.0000e+00
       -2 -1    0    0    0  501 -0.0000000000e+00 -0.0000000000e+00 -3.0602742943e+02 3.0602742943e+02 0.0000000000e+00 0.0000e+00 -1.0000e+00
      -13  1    1    2    0    0 -4.8433588229e+02 +4.3712717591e+01 -2.1195080987e+01 4.8676614509e+02 0.0000000000e+00 0.0000e+00 -1.0000e+00
       13  1    1    2    0    0 +4.8433588229e+02 -4.3712717591e+01 +1.0839114657e+03 1.1880050984e+03 0.0000000000e+00 0.0000e+00 1.0000e+00
<mgrwt>
<rscale>  0 0.12944082E+04</rscale>
<asrwt>0</asrwt>
<pdfrwt beam="1">  1        2 0.21057597E+00 0.12944082E+04</pdfrwt>
<pdfrwt beam="2">  1       -2 0.47081144E-01 0.12944082E+04</pdfrwt>
<totfact> 0.79073237E+01</totfact>
</mgrwt>
<rwgt>
<wgt id='morphing_basis_vector_1'> +1.4670931e-04 </wgt>
<wgt id='morphing_basis_vector_2'> +9.5240893e-05 </wgt>
<wgt id='morphing_basis_vector_3'> +1.4902801e-04 </wgt>
<wgt id='morphing_basis_vector_4'> +9.7333505e-05 </wgt>
<wgt id='morphing_basis_vector_5'> +1.5532908e-04 </wgt>
</rwgt>
</event>
<event>
 4      1 +3.5234200e-07 1.30020300e+03 7.81860800e-03 8.44143500e-02
        2 -1    0    0  501    0 +0.0000000000e+00 +0.0000000000e+00 +1.4569588536e+03 1.4569588536e+03 0.0000000000e+00 0.0000e+00 -1.0000e+00
       -2 -1    0    0    0  501 -0.0000000000e+00 -0.0000000000e+00 -2.9007813604e+02 2.9007813604e+02 0.0000000000e+00 0.0000e+00 1.0000e+00
      -13  1    1    2    0    0 +4.5652556450e+02 -2.1038016378e+02 +2.9504017863e+01 5.0353340646e+02 0.0000000000e+00 0.0000e+00 1.0000e+00
       13  1    1    2    0    0 -4.5652556450e+02 +2.1038016378e+02 +1.1373766997e+03 1.2435035832e+03 0.0000000000e+00 0.0000e+00 -1.0000e+00
<mgrwt>
<rscale>  0 0.13002029E+04</rscale>
<asrwt>0</asrwt>
<pdfrwt beam="1">  1        2 0.22414751E+00 0.13002029E+04</pdfrwt>
<pdfrwt beam="2">  1       -2 0.44627407E-01 0.13002029E+04</pdfrwt>
<totfact> 0.78138216E+01</totfact>
</mgrwt>
<rwgt>
<wgt id='morphing_basis_vector_1'> +1.4927765e-04 </wgt>
<wgt id='morphing_basis_vector_2'> +9.7063899e-05 </wgt>
<wgt id='morphing_basis_vector_3'> +1.5175849e-04 </wgt>
<wgt id='morphing_basis_vector_4'> +9.9085396e-05 </wgt>
<wgt id='morphing_basis_vector_5'> +1.5826250e-04 </wgt>
</rwgt>
</event>
<event>
 4      1 +3.5234200e-07 1.49443700e+03 7.81860800e-03 8.31820400e-02
        2 -1    0    0  501    0 +0.0000000000e+00 +0.0000000000e+00 +1.5970559237e+03 1.5970559237e+03 0.0000000000e+00 0.0000e+00 1.0000e+00
       -2 -1    0    0    0  501 -0.0000000000e+00 -0.0000000000e+00 -3.4960280425e+02 3.4960280425e+02 0.0000000000e+00 0.0000e+00 -1.0000e+00
      -13  1    1    2    0    0 +4.1579073380e+02 -4.9544811208e+02 +1.3636392637e+02 6.6101882461e+02 0.0000000000e+00 0.0000e+00 -1.0000e+00
       13  1    1    2    0    0 -4.1579073380e+02 +4.9544811208e+02 +1.1110891931e+03 1.2856399034e+03 0.0000000000e+00 0.0000e+00 1.0000e+00
<mgrwt>
<rscale>  0 0.14944367E+04</rscale>
<asrwt>0</asrwt>
<pdfrwt beam="1">  1        2 0.24570091E+00 0.14944367E+04</pdfrwt>
<pdfrwt beam="2">  1       -2 0.53785048E-01 0.14944367E+04</pdfrwt>
<totfact> 0.44611540E+01</totfact>
</mgrwt>
<rwgt>
<wgt id='morphing_basis_vector_1'> +2.5528586e-04 </wgt>
<wgt id='morphing_basis_vector_2'> +1.6945354e-04 </wgt>
<wgt id='morphing_basis_vector_3'> +2.6504025e-04 </wgt>
<wgt id='morphing_basis_vector_4'> +1.7573835e-04 </wgt>
<wgt id='morphing_basis_vector_5'> +2.8275036e-04 </wgt>
</rwgt>
</event>
<event>
 4      1 +3.5234200e-07 1.50352000e+03 7.81860800e-03 8.31292300e-02
        2 -1    0    0  501    0 +0.0000000000e+00 +0.0000000000e+00 +1.1848077326e+03 1.1848077326e+03 0.0000000000e+00 0.0000e+00 1.0000e+00
       -2 -1    0    0    0  501 -0.0000000000e+00 -0.0000000000e+00 -4.7699150468e+02 4.7699150468e+02 0.0000000000e+00 0.0000e+00 -1.0000e+00
      -13  1    1    2    0    0 -1.0831302983e+02 +4.0513780110e+02 -3.3569225202e+02 5.3717561223e+02 0.0000000000e+00 0.0000e+00 -1.0000e+00
       13  1    1    2    0    0 +1.0831302983e+02 -4.0513780110e+02 +1.0435084800e+03 1.1246236251e+03 0.0000000000e+00 0.0000e+00 1.0000e+00
<mgrwt>
<rscale>  0 0.15035202E+04</rscale>
<asrwt>0</asrwt>
<pdfrwt beam="1">  1        2 0.18227811E+00 0.15035202E+04</pdfrwt>
<pdfrwt beam="2">  1       -2 0.73383309E-01 0.15035202E+04</pdfrwt>
<totfact> 0.40022822E+01</totfact>
</mgrwt>
<rwgt>
<wgt id='morphing_basis_vector_1'> +2.6026837e-04 </wgt>
<wgt id='morphing_basis_vector_2'> +1.7039274e-04 </wgt>
<wgt id='morphing_basis_vector_3'> +2.7013744e-04 </wgt>
<wgt id='morphing_basis_vector_4'> +1.8217534e-04 </wgt>
<wgt id='morphing_basis_vector_5'> +2.9009009e-04 </wgt>
</rwgt>
</event>
<event>
 4      1 +3.5234200e-07 1.35078400e+03 7.81860800e-03 8.40728200e-02
        2 -1    0    0  501    0 +0.0000000000e+00 +0.0000000000e+00 +1.3633360583e+03 1.3633360583e+03 0.0000000000e+00 0.0000e+00 1.0000e+00
       -2 -1    0    0    0  501 -0.0000000000e+00 -0.0000000000e+00 -3.3458699781e+02 3.3458699781e+02 0.0000000000e+00 0.0000e+00 -1.0000e+00
      -13  1    1    2    0    0 +1.7994560088e+02 -4.1194609177e+02 -1.1922168385e+02 4.6507398519e+02 0.0000000000e+00 0.0000e+00 -1.0000e+00
       13  1    1    2    0    0 -1.7994560088e+02 +4.1194609177e+02 +1.1479707443e+03 1.2328490709e+03 0.0000000000e+00 0.0000e+00 1.0000e+00
<mgrwt>
<rscale>  0 0.13507842E+04</rscale>
<asrwt>0</asrwt>
<pdfrwt beam="1">  1        2 0.20974401E+00 0.13507842E+04</pdfrwt>
<pdfrwt beam="2">  1       -2 0.51474923E-01 0.13507842E+04</pdfrwt>
<totfact> 0.66593099E+01</totfact>
</mgrwt>
<rwgt>
<wgt id='morphing_basis_vector_1'> +1.7251188e-04 </wgt>
<wgt id='morphing_basis_vector_2'> +1.1211412e-04 </wgt>
<wgt id='morphing_basis_vector_3'> +1.7641177e-04 </wgt>
<wgt id='morphing_basis_vector_4'> +1.1657749e-04 </wgt>
<wgt id='morphing_basis_vector_5'> +1.8572124e-04 </wgt>
</rwgt>
</event>
<event>
 4      1 +3.5234200e-07 1.45515700e+03 7.81860800e-03 8.34149300e-02
        2 -1    0    0  501    0 +0.0000000000e+00 +0.0000000000e+00 +4.0926665677e+03 4.0926665677e+03 0.0000000000e+00 0.0000e+00 -1.0000e+00
       -2 -1    0    0    0  501 -0.0000000000e+00 -0.0000000000e+00 -1.2934602492e+02 1.2934602492e+02 0.0000000000e+00 0.0000e+00 1.0000e+00
      -13  1    1    2    0    0 +5.4428408231e+01 +7.2548688308e+02 +2.0070344150e+03 2.1348257101e+03 0.0000000000e+00 0.0000e+00 1.0000e+00
       13  1    1    2    0    0 -5.4428408231e+01 -7.2548688308e+02 +1.9562861277e+03 2.0871868825e+03 0.0000000000e+00 0.0000e+00 -1.0000e+00
<mgrwt>
<rscale>  0 0.14551566E+04</rscale>
<asrwt>0</asrwt>
<pdfrwt beam="1">  1        2 0.62964091E+00 0.14551566E+04</pdfrwt>
<pdfrwt beam="2">  1       -2 0.19899392E-01 0.14551566E+04</pdfrwt>
<totfact> 0.63441577E+00</totfact>
</mgrwt>
<rwgt>
<wgt id='morphing_basis_vector_1'> +2.3806829e-04 </wgt>
<wgt id='morphing_basis_vector_2'> +1.7553948e-04 </wgt>
<wgt id='morphing_basis_vector_3'> +2.4824581e-04 </wgt>
<wgt id='morphing_basis_vector_4'> +1.4316057e-04 </wgt>
<wgt id='morphing_basis_vector_5'> +2.5211168e-04 </wgt>
</rwgt>
</event>
<event>
 4      1 +3.5234200e-07 1.43976900e+03 7.81860800e-03 8.35082600e-02
        2 -1    0    0  501    0 +0.0000000000e+00 +0.0000000000e+00 +9.7671859318e+02 9.7671859318e+02 0.0000000000e+00 0.0000e+00 -1.0000e+00
       -2 -1    0    0    0  501 -0.0000000000e+00 -0.0000000000e+00 -5.3058636914e+02 5.3058636914e+02 0.0000000000e+00 0.0000e+00 1.0000e+00
      -13  1    1    2    0    0 +7.0081838606e+01 -1.6038074496e+02 +9.5410463841e+02 9.7002531332e+02 0.0000000000e+00 0.0000e+00 -1.0000e+00
       13  1    1    2    0    0 -7.0081838606e+01 +1.6038074496e+02 -5.0797241437e+02 5.3727964899e+02 0.0000000000e+00 0.0000e+00 1.0000e+00
<mgrwt>
<rscale>  0 0.14397688E+04</rscale>
<asrwt>0</asrwt>
<pdfrwt beam="1">  1        2 0.15026440E+00 0.14397688E+04</pdfrwt>
<pdfrwt beam="2">  1       -2 0.81628672E-01 0.14397688E+04</pdfrwt>
<totfact> 0.42395556E+01</totfact>
</mgrwt>
<rwgt>
<wgt id='morphing_basis_vector_1'> +3.0122637e-04 </wgt>
<wgt id='morphing_basis_vector_2'> +3.8536980e-04 </wgt>
<wgt id='morphing_basis_vector_3'> +3.3107179e-04 </wgt>
<wgt id='morphing_basis_vector_4'> +3.0338384e-06 </wgt>
<wgt id='morphing_basis_vector_5'> +2.3140750e-04 </wgt>
</rwgt>
</event>
<event>
 4      1 +3.5234200e-07 1.32821500e+03 7.81860800e-03 8.42232400e-02
        2 -1    0    0  501    0 +0.0000000000e+00 +0.0000000000e+00 +1.5044307856e+03 1.5044307856e+03 0.0000000000e+00 0.0000e+00 1.0000e+00
       -2 -1    0    0    0  501 -0.0000000000e+00 -0.0000000000e+00 -2.9316004200e+02 2.9316004200e+02 0.0000000000e+00 0.0000e+00 -1.0000e+00
      -13  1    1    2    0    0 +5.2832878970e+02 -3.7418968525e+02 +8.0587169930e+02 1.0337206713e+03 0.0000000000e+00 0.0000e+00 1.0000e+00
       13  1    1    2    0    0 -5.2832878970e+02 +3.7418968525e+02 +4.0539904434e+02 7.6387015632e+02 0.0000000000e+00 0.0000e+00 -1.0000e+00
<mgrwt>
<rscale>  0 0.13282153E+04</rscale>
<asrwt>0</asrwt>
<pdfrwt beam="1">  1        2 0.23145089E+00 0.13282153E+04</pdfrwt>
<pdfrwt beam="2">  1       -2 0.45101546E-01 0.13282153E+04</pdfrwt>
<totfact> 0.71871529E+01</totfact>
</mgrwt>
<rwgt>
<wgt id='morphing_basis_vector_1'> +1.7426274e-04 </wgt>
<wgt id='morphing_basis_vector_2'> +1.4240625e-04 </wgt>
<wgt id='morphing_basis_vector_3'> +1.8024730e-04 </wgt>
<wgt id='morphing_basis_vector_4'> +8.6240085e-05 </wgt>
<wgt id='morphing_basis_vector_5'> +1.7148425e-04 </wgt>
</rwgt>
</event>
<event>
 4      1 +3.5234200e-07 1.42554100e+03 7.81860800e-03 8.35956300e-02
        2 -1    0    0  501    0 +0.0000000000e+00 +0.0000000000e+00 +1.8763356817e+03 1.8763356817e+03 0.0000000000e+00 0.0000e+00 -1.0000e+00
       -2 -1    0    0    0  501 -0.0000000000e+00 -0.0000000000e+00 -2.7076292517e+02 2.7076292517e+02 0.0000000000e+00 0.0000e+00 1.0000e+00
      -13  1    1    2    0    0 -4.5834853154e+02 -4.3078829595e+02 +2.9787281397e+02 6.9598142619e+02 0.0000000000e+00 0.0000e+00 1.0000e+00
       13  1    1    2    0    0 +4.5834853154e+02 +4.3078829595e+02 +1.3076999426e+03 1.4511171807e+03 0.0000000000e+00 0.0000e+00 -1.0000e+00
<mgrwt>
<rscale>  0 0.14255415E+04</rscale>
<asrwt>0</asrwt>
<pdfrwt beam="1">  1        2 0.28866702E+00 0.14255415E+04</pdfrwt>
<pdfrwt beam="2">  1       -2 0.41655836E-01 0.14255415E+04</pdfrwt>
<totfact> 0.51517449E+01</totfact>
</mgrwt>
<rwgt>
<wgt id='morphing_basis_vector_1'> +2.1301681e-04 </wgt>
<wgt id='morphing_basis_vector_2'> +1.4123045e-04 </wgt>
<wgt id='morphing_basis_vector_3'> +2.1978357e-04 </wgt>
<wgt id='morphing_basis_vector_4'> +1.4420831e-04 </wgt>
<wgt id='morphing_basis_vector_5'> +2.3238917e-04 </wgt>
</rwgt>
</event>
<event>
 4      1 +3.5234200e-07 1.38804900e+03 7.81860800e-03 8.38310400e-02
        2 -1    0    0  501    0 +0.0000000000e+00 +0.0000000000e+00 +3.9036757695e+02 3.9036757695e+02 0.0000000000e+00 0.0000e+00 1.0000e+00
       -2 -1    0    0    0  501 -0.0000000000e+00 -0.0000000000e+00 -1.2338882675e+03 1.2338882675e+03 0.0000000000e+00 0.0000e+00 -1.0000e+00
      -13  1    1    2    0    0 -5.0548219017e+02 -1.4813672079e+02 -9.5056053726e+02 1.0867483920e+03 0.0000000000e+00 0.0000e+00 -1.0000e+00
       13  1    1    2    0    0 +5.0548219017e+02 +1.4813672079e+02 +1.0703984669e+02 5.3750745242e+02 0.0000000000e+00 0.0000e+00 1.0000e+00
<mgrwt>
<rscale>  0 0.13880490E+04</rscale>
<asrwt>0</asrwt>
<pdfrwt beam="1">  1        2 0.60056551E-01 0.13880490E+04</pdfrwt>
<pdfrwt beam="2">  1       -2 0.18982896E+00 0.13880490E+04</pdfrwt>
<totfact> 0.13581628E+01</totfact>
</mgrwt>
<rwgt>
<wgt id='morphing_basis_vector_1'> +1.9165059e-04 </wgt>
<wgt id='morphing_basis_vector_2'> +1.2528106e-04 </wgt>
<wgt id='morphing_basis_vector_3'> +1.9682744e-04 </wgt>
<wgt id='morphing_basis_vector_4'> +1.3025056e-04 </wgt>
<wgt id='morphing_basis_vector_5'> +2.0805018e-04 </wgt>
</rwgt>
</event>
<event>
 4      1 +3.5234200e-07 1.45578800e+03 7.81860800e-03 8.34111300e-02
        2 -1    0    0  501    0 +0.0000000000e+00 +0.0000000000e+00 +1.3582252556e+03 1.3582252556e+03 0.0000000000e+00 0.0000e+00 1.0000e+00
       -2 -1    0    0    0  501 -0.0000000000e+00 -0.0000000000e+00 -3.9008979329e+02 3.9008979329e+02 0.0000000000e+00 0.0000e+00 -1.0000e+00
      -13  1    1    2    0    0 -2.0233665000e+02 -3.9288061399e+02 +1.1786792325e+03 1.2588010287e+03 0.0000000000e+00 0.0000e+00 1.0000e+00
       13  1    1    2    0    0 +2.0233665000e+02 +3.9288061399e+02 -2.1054377018e+02 4.8951402017e+02 0.0000000000e+00 0.0000e+00 -1.0000e+00
<mgrwt>
<rscale>  0 0.14557882E+04</rscale>
<asrwt>0</asrwt>
<pdfrwt beam="1">  1        2 0.20895773E+00 0.14557882E+04</pdfrwt>
<pdfrwt beam="2">  1       -2 0.60013815E-01 0.14557882E+04</pdfrwt>
<totfact> 0.48795121E+01</totfact>
</mgrwt>
<rwgt>
<wgt id='morphing_basis_vector_1'> +3.0544149e-04 </wgt>
<wgt id='morphing_basis_vector_2'> +3.7566419e-04 </wgt>
<wgt id='morphing_basis_vector_3'> +3.3502029e-04 </wgt>
<wgt id='morphing_basis_vector_4'> +1.9583174e-05 </wgt>
<wgt id='morphing_basis_vector_5'> +2.4346503e-04 </wgt>
</rwgt>
</event>
<event>
 4      1 +3.5234200e-07 1.50059000e+03 7.81860800e-03 8.31462200e-02
        2 -1    0    0  501    0 +0.0000000000e+00 +0.0000000000e+00 +3.5124240700e+03 3.5124240700e+03 0.0000000000e+00 0.0000e+00 -1.0000e+00
       -2 -1    0    0    0  501 -0.0000000000e+00 -0.0000000000e+00 -1.6027185902e+02 1.6027185902e+02 0.0000000000e+00 0.0000e+00 1.0000e+00
      -13  1    1    2    0    0 +1.4694639108e+02 +4.9138966905e+02 +3.3578005683e+02 6.1302960390e+02 0.0000000000e+00 0.0000e+00 1.0000e+00
       13  1    1    2    0    0 -1.4694639108e+02 -4.9138966905e+02 +3.0163721542e+03 3.0596663252e+03 0.0000000000e+00 0.0000e+00 -1.0000e+00
<mgrwt>
<rscale>  0 0.15005902E+04</rscale>
<asrwt>0</asrwt>
<pdfrwt beam="1">  1        2 0.54037288E+00 0.15005902E+04</pdfrwt>
<pdfrwt beam="2">  1       -2 0.24657212E-01 0.15005902E+04</pdfrwt>
<totfact> 0.12648794E+01</totfact>
</mgrwt>
<rwgt>
<wgt id='morphing_basis_vector_1'> +2.5847997e-04 </wgt>
<wgt id='morphing_basis_vector_2'> +1.6957627e-04 </wgt>
<wgt id='morphing_basis_vector_3'> +2.6825934e-04 </wgt>
<wgt id='morphing_basis_vector_4'> +1.8040555e-04 </wgt>
<wgt id='morphing_basis_vector_5'> +2.8773130e-04 </wgt>
</rwgt>
</event>
<event>
 4      1 +3.5234200e-07 1.41967200e+03 7.81860800e-03 8.36319800e-02
        2 -1    0    0  501    0 +0.0000000000e+00 +0.0000000000e+00 +1.9561802839e+03 1.9561802839e+03 0.0000000000e+00 0.0000e+00 1.0000e+00
       -2 -1    0    0    0  501 -0.0000000000e+00 -0.0000000000e+00 -2.5757706800e+02 2.5757706800e+02 0.0000000000e+00 0.0000e+00 -1.0000e+00
      -13  1    1    2    0    0 +1.8967421397e+02 -3.6218998895e+02 -5.5533684707e+01 4.1260378776e+02 0.0000000000e+00 0.0000e+00 -1.0000e+00
       13  1    1    2    0    0 -1.8967421397e+02 +3.6218998895e+02 +1.7541369006e+03 1.8011535642e+03 0.0000000000e+00 0.0000e+00 1.0000e+00
<mgrwt>
<rscale>  0 0.14196720E+04</rscale>
<asrwt>0</asrwt>
<pdfrwt beam="1">  1        2 0.30095080E+00 0.14196720E+04</pdfrwt>
<pdfrwt beam="2">  1       -2 0.39627243E-01 0.14196720E+04</pdfrwt>
<totfact> 0.51079507E+01</totfact>
</mgrwt>
<rwgt>
<wgt id='morphing_basis_vector_1'> +2.0867560e-04 </wgt>
<wgt id='morphing_basis_vector_2'> +1.3600493e-04 </wgt>
<wgt id='morphing_basis_vector_3'> +2.1493999e-04 </wgt>
<wgt id='morphing_basis_vector_4'> +1.4357302e-04 </wgt>
<wgt id='morphing_basis_vector_5'> +2.2856470e-04 </wgt>
</rwgt>
</event>
<event>
 4      1 +3.5234200e-07 1.33305900e+03 7.81860800e-03 8.41907000e-02
        2 -1    0    0  501    0 +0.0000000000e+00 +0.0000000000e+00 +1.5789582991e+03 1.5789582991e+03 0.0000000000e+00 0.0000e+00 1.0000e+00
       -2 -1    0    0    0  501 -0.0000000000e+00 -0.0000000000e+00 -2.8136373455e+02 2.8136373455e+02 0.0000000000e+00 0.0000e+00 -1.0000e+00
      -13  1    1    2    0    0 +2.4755225138e+02 +7.3138453021e+01 -2.0877776143e+02 3.3199322906e+02 0.0000000000e+00 0.0000e+00 -1.0000e+00
       13  1    1    2    0    0 -2.4755225138e+02 -7.3138453021e+01 +1.5063723260e+03 1.5283288046e+03 0.0000000000e+00 0.0000e+00 1.0000e+00
<mgrwt>
<rscale>  0 0.13330590E+04</rscale>
<asrwt>0</asrwt>
<pdfrwt beam="1">  1        2 0.24291666E+00 0.13330590E+04</pdfrwt>
<pdfrwt beam="2">  1       -2 0.43286729E-01 0.13330590E+04</pdfrwt>
<totfact> 0.70611155E+01</totfact>
</mgrwt>
<rwgt>
<wgt id='morphing_basis_vector_1'> +1.6388496e-04 </wgt>
<wgt id='morphing_basis_vector_2'> +1.0607609e-04 </wgt>
<wgt id='morphing_basis_vector_3'> +1.6721917e-04 </wgt>
<wgt id='morphing_basis_vector_4'> +1.1055240e-04 </wgt>
<wgt id='morphing_basis_vector_5'> +1.7575272e-04 </wgt>
</rwgt>
</event>
<event>
 4      1 +3.5234200e-07 1.29576600e+03 7.81860800e-03 8.44450800e-02
        2 -1    0    0  501    0 +0.0000000000e+00 +0.0000000000e+00 +1.0240435924e+03 1.0240435924e+03 0.0000000000e+00 0.0000e+00 -1.0000e+00
       -2 -1    0    0    0  501 -0.0000000000e+00 -0.0000000000e+00 -4.0989728758e+02 4.0989728758e+02 0.0000000000e+00 0.0000e+00 1.0000e+00
      -13  1    1    2    0    0 -6.2621495823e+02 +1.6468618677e+02 +2.8267750749e+02 7.0652196516e+02 0.0000000000e+00 0.0000e+00 1.0000e+00
       13  1    1    2    0    0 +6.2621495823e+02 -1.6468618677e+02 +3.3146879731e+02 7.2741891480e+02 0.0000000000e+00 0.0000e+00 -1.0000e+00
<mgrwt>
<rscale>  0 0.12957665E+04</rscale>
<asrwt>0</asrwt>
<pdfrwt beam="1">  1        2 0.15754517E+00 0.12957665E+04</pdfrwt>
<pdfrwt beam="2">  1       -2 0.63061121E-01 0.12957665E+04</pdfrwt>
<totfact> 0.70140249E+01</totfact>
</mgrwt>
<rwgt>
<wgt id='morphing_basis_vector_1'> +1.5175285e-04 </wgt>
<wgt id='morphing_basis_vector_2'> +1.0897822e-04 </wgt>
<wgt id='morphing_basis_vector_3'> +1.5499998e-04 </wgt>
<wgt id='morphing_basis_vector_4'> +8.9857717e-05 </wgt>
<wgt id='morphing_basis_vector_5'> +1.5545819e-04 </wgt>
</rwgt>
</event>
<event>
 4      1 +3.5234200e-07 1.31189300e+03 7.81860800e-03 8.43339900e-02
        2 -1    0    0  501    0 +0.0000000000e+00 +0.0000000000e+00 +7.9021999745e+02 7.9021999745e+02 0.0000000000e+00 0.0000e+00 1.0000e+00
       -2 -1    0    0    0  501 -0.0000000000e+00 -0.0000000000e+00 -5.4448871356e+02 5.4448871356e+02 0.0000000000e+00 0.0000e+00 -1.0000e+00
      -13  1    1    2    0    0 +5.7954401860e+02 -2.7572563704e+02 -1.5027387978e+01 6.4196706988e+02 0.0000000000e+00 0.0000e+00 -1.0000e+00
       13  1    1    2    0    0 -5.7954401860e+02 +2.7572563704e+02 +2.6075867187e+02 6.9274164114e+02 0.0000000000e+00 0.0000e+00 1.0000e+00
<mgrwt>
<rscale>  0 0.13118931E+04</rscale>
<asrwt>0</asrwt>
<pdfrwt beam="1">  1        2 0.12157231E+00 0.13118931E+04</pdfrwt>
<pdfrwt beam="2">  1       -2 0.83767494E-01 0.13118931E+04</pdfrwt>
<totfact> 0.53659170E+01</totfact>
</mgrwt>
<rwgt>
<wgt id='morphing_basis_vector_1'> +1.5671051e-04 </wgt>
<wgt id='morphing_basis_vector_2'> +1.0724993e-04 </wgt>
<wgt id='morphing_basis_vector_3'> +1.5998207e-04 </wgt>
<wgt id='morphing_basis_vector_4'> +9.8861886e-05 </wgt>
<wgt id='morphing_basis_vector_5'> +1.6403368e-04 </wgt>
</rwgt>
</event>
<event>
 4      1 +3.5234200e-07 1.30145600e+03 7.81860800e-03 8.44056900e-02
        2 -1    0    0  501    0 +0.0000000000e+00 +0.0000000000e+00 +4.8695393722e+02 4.8695393722e+02 0.0000000000e+00 0.0000e+00 1.0000e+00
       -2 -1    0    0    0  501 -0.0000000000e+00 -0.0000000000e+00 -8.6958285833e+02 8.6958285833e+02 0.0000000000e+00 0.0000e+00 -1.0000e+00
      -13  1    1    2    0    0 +2.9318560879e+02 -1.6512610200e+02 -7.7186323097e+02 8.4201976110e+02 0.0000000000e+00 0.0000e+00 -1.0000e+00
       13  1    1    2    0    0 -2.9318560879e+02 +1.6512610200e+02 +3.8923430986e+02 5.1451703445e+02 0.0000000000e+00 0.0000e+00 1.0000e+00
<mgrwt>
<rscale>  0 0.13014558E+04</rscale>
<asrwt>0</asrwt>
<pdfrwt beam="1">  1        2 0.74915991E-01 0.13014558E+04</pdfrwt>
<pdfrwt beam="2">  1       -2 0.13378198E+00 0.13014558E+04</pdfrwt>
<totfact> 0.30000350E+01</totfact>
</mgrwt>
<rwgt>
<wgt id='morphing_basis_vector_1'> +1.4956403e-04 </wgt>
<wgt id='morphing_basis_vector_2'> +9.6642704e-05 </wgt>
<wgt id='morphing_basis_vector_3'> +1.5202461e-04 </wgt>
<wgt id='morphing_basis_vector_4'> +9.9953034e-05 </wgt>
<wgt id='morphing_basis_vector_5'> +1.5893633e-04 </wgt>
</rwgt>
</event>
<event>
 4      1 +3.5234200e-07 1.39080700e+03 7.81860800e-03 8.38134600e-02
        2 -1    0    0  501    0 +0.0000000000e+00 +0.0000000000e+00 +2.1034937770e+03 2.1034937770e+03 0.0000000000e+00 0.0000e+00 1.0000e+00
       -2 -1    0    0    0  501 -0.0000000000e+00 -0.0000000000e+00 -2.2989666577e+02 2.2989666577e+02 0.0000000000e+00 0.0000e+00 -1.0000e+00
      -13  1    1    2    0    0 +6.8337562126e+02 +2.3747570789e+01 +7.2444869516e+02 9.9618878671e+02 0.0000000000e+00 0.0000e+00 -1.0000e+00
       13  1    1    2    0    0 -6.8337562126e+02 -2.3747570789e+01 +1.1491484161e+03 1.3372016561e+03 0.0000000000e+00 0.0000e+00 1.0000e+00
<mgrwt>
<rscale>  0 0.13908073E+04</rscale>
<asrwt>0</asrwt>
<pdfrwt beam="1">  1        2 0.32361441E+00 0.13908073E+04</pdfrwt>
<pdfrwt beam="2">  1       -2 0.35368719E-01 0.13908073E+04</pdfrwt>
<totfact> 0.52195073E+01</totfact>
</mgrwt>
<rwgt>
<wgt id='morphing_basis_vector_1'> +1.9630054e-04 </wgt>
<wgt id='morphing_basis_vector_2'> +1.3577698e-04 </wgt>
<wgt id='morphing_basis_vector_3'> +2.0239166e-04 </wgt>
<wgt id='morphing_basis_vector_4'> +1.2553066e-04 </wgt>
<wgt id='morphing_basis_vector_5'> +2.0936015e-04 </wgt>
</rwgt>
</event>
<event>
 4      1 +3.5234200e-07 1.38542000e+03 7.81860800e-03 8.38478300e-02
        2 -1    0    0  501    0 +0.0000000000e+00 +0.0000000000e+00 +1.1807093158e+03 1.1807093158e+03 0.0000000000e+00 0.0000e+00 -1.0000e+00
       -2 -1    0    0    0  501 -0.0000000000e+00 -0.0000000000e+00 -4.0640591062e+02 4.0640591062e+02 0.0000000000e+00 0.0000e+00 1.0000e+00
      -13  1    1    2    0    0 -1.7273433347e+02 +6.3418672169e+02 +1.3664493097e+02 6.7134326919e+02 0.0000000000e+00 0.0000e+00 1.0000e+00
       13  1    1    2    0    0 +1.7273433347e+02 -6.3418672169e+02 +6.3765847423e+02 9.1577195724e+02 0.0000000000e+00 0.0000e+00 -1.0000e+00
<mgrwt>
<rscale>  0 0.13854201E+04</rscale>
<asrwt>0</asrwt>
<pdfrwt beam="1">  1        2 0.18164759E+00 0.13854201E+04</pdfrwt>
<pdfrwt beam="2">  1       -2 0.62523987E-01 0.13854201E+04</pdfrwt>
<totfact> 0.57078049E+01</totfact>
</mgrwt>
<rwgt>
<wgt id='morphing_basis_vector_1'> +1.9193016e-04 </wgt>
<wgt id='morphing_basis_vector_2'> +1.2933707e-04 </wgt>
<wgt id='morphing_basis_vector_3'> +1.9743789e-04 </wgt>
<wgt id='morphing_basis_vector_4'> +1.2619276e-04 </wgt>
<wgt id='morphing_basis_vector_5'> +2.0619224e-04 </wgt>
</rwgt>
</event>
<event>
 4      1 +3.5234200e-07 1.41848300e+03 7.81860800e-03 8.36393600e-02
        2 -1    0    0  501    0 +0.0000000000e+00 +0.0000000000e+00 +2.8962561381e+02 2.8962561381e+02 0.0000000000e+00 0.0000e+00 -1.0000e+00
       -2 -1    0    0    0  501 -0.0000000000e+00 -0.0000000000e+00 -1.7368067434e+03 1.7368067434e+03 0.0000000000e+00 0.0000e+00 1.0000e+00
      -13  1    1    2    0    0 +5.5956261493e+01 +5.7918402938e+02 -1.3028986708e+03 1.4269303380e+03 0.0000000000e+00 0.0000e+00 1.0000e+00
       13  1    1    2    0    0 -5.5956261493e+01 -5.7918402938e+02 -1.4428245873e+02 5.9950201917e+02 0.0000000000e+00 0.0000e+00 -1.0000e+00
<mgrwt>
<rscale>  0 0.14184833E+04</rscale>
<asrwt>0</asrwt>
<pdfrwt beam="1">  1        2 0.44557787E-01 0.14184833E+04</pdfrwt>
<pdfrwt beam="2">  1       -2 0.26720103E+00 0.14184833E+04</pdfrwt>
<totfact> 0.53801179E+00</totfact>
</mgrwt>
<rwgt>
<wgt id='morphing_basis_vector_1'> +2.0853697e-04 </wgt>
<wgt id='morphing_basis_vector_2'> +1.3714666e-04 </wgt>
<wgt id='morphing_basis_vector_3'> +2.1490012e-04 </wgt>
<wgt id='morphing_basis_vector_4'> +1.4209862e-04 </wgt>
<wgt id='morphing_basis_vector_5'> +2.2769785e-04 </wgt>
</rwgt>
</event>
<event>
 4      1 +3.5234200e-07 1.29563700e+03 7.81860800e-03 8.44459700e-02
        2 -1    0    0  501    0 +0.0000000000e+00 +0.0000000000e+00 +1.6603503970e+03 1.6603503970e+03 0.0000000000e+00 0.0000e+00 -1.0000e+00
       -2 -1    0    0    0  501 -0.0000000000e+00 -0.0000000000e+00 -2.5275929776e+02 2.5275929776e+02 0.0000000000e+00 0.0000e+00 1.0000e+00
      -13  1    1    2    0    0 -2.4469333392e+02 -4.0832606998e+02 +5.5001177445e+01 4.7919738795e+02 0.0000000000e+00 0.0000e+00 1.0000e+00
       13  1    1    2    0    0 +2.4469333392e+02 +4.0832606998e+02 +1.3525899217e+03 1.4339123068e+03 0.0000000000e+00 0.0000e+00 -1.0000e+00
<mgrwt>
<rscale>  0 0.12956373E+04</rscale>
<asrwt>0</asrwt>
<pdfrwt beam="1">  1        2 0.25543852E+00 0.12956373E+04</pdfrwt>
<pdfrwt beam="2">  1       -2 0.38886047E-01 0.12956373E+04</pdfrwt>
<totfact> 0.78053272E+01</totfact>
</mgrwt>
<rwgt>
<wgt id='morphing_basis_vector_1'> +1.4721048e-04 </wgt>
<wgt id='morphing_basis_vector_2'> +9.5503333e-05 </wgt>
<wgt id='morphing_basis_vector_3'> +1.4955510e-04 </wgt>
<wgt id='morphing_basis_vector_4'> +9.7775471e-05 </wgt>
<wgt id='morphing_basis_vector_5'> +1.5595298e-04 </wgt>
</rwgt>
</event>
<event>
 4      1 +3.5234200e-07 1.32012700e+03 7.81860800e-03 8.42779100e-02
        2 -1    0    0  501    0 +0.0000000000e+00 +0.0000000000e+00 +1.2492873170e+03 1.2492873170e+03 0.0000000000e+00 0.0000e+00 -1.0000e+00
       -2 -1    0    0    0  501 -0.0000000000e+00 -0.0000000000e+00 -3.4874586029e+02 3.4874586029e+02 0.0000000000e+00 0.0000e+00 1.0000e+00
      -13  1    1    2    0    0 +3.1879246457e+02 -9.8263674325e+01 -2.3919092686e+02 4.1048347671e+02 0.0000000000e+00 0.0000e+00 1.0000e+00
       13  1    1    2    0    0 -3.1879246457e+02 +9.8263674325e+01 +1.1397323836e+03 1.1875497006e+03 0.0000000000e+00 0.0000e+00 -1.0000e+00
<mgrwt>
<rscale>  0 0.13201269E+04</rscale>
<asrwt>0</asrwt>
<pdfrwt beam="1">  1        2 0.19219805E+00 0.13201269E+04</pdfrwt>
<pdfrwt beam="2">  1       -2 0.53653210E-01 0.13201269E+04</pdfrwt>
<totfact> 0.71441723E+01</totfact>
</mgrwt>
<rwgt>
<wgt id='morphing_basis_vector_1'> +1.5791673e-04 </wgt>
<wgt id='morphing_basis_vector_2'> +1.0217336e-04 </wgt>
<wgt id='morphing_basis_vector_3'> +1.6088524e-04 </wgt>
<wgt id='morphing_basis_vector_4'> +1.0609675e-04 </wgt>
<wgt id='morphing_basis_vector_5'> +1.6871861e-04 </wgt>
</rwgt>
</event>
<event>
 4      1 +3.5234200e-07 1.31270800e+03 7.81860800e-03 8.43284200e-02
        2 -1    0    0  501    0 +0.0000000000e+00 +0.0000000000e+00 +4.8592407872e+02 4.8592407872e+02 0.0000000000e+00 0.0000e+00 -1.0000e+00
       -2 -1    0    0    0  501 -0.0000000000e+00 -0.0000000000e+00 -8.8655887573e+02 8.8655887573e+02 0.0000000000e+00 0.0000e+00 1.0000e+00
      -13  1    1    2    0    0 +3.5351473198e+02 +4.7507823201e+02 -4.9627667809e+02 7.7263350528e+02 0.0000000000e+00 0.0000e+00 1.0000e+00
       13  1    1    2    0    0 -3.5351473198e+02 -4.7507823201e+02 +9.5641881076e+01 5.9984944918e+02 0.0000000000e+00 0.0000e+00 -1.0000e+00
<mgrwt>
<rscale>  0 0.13127076E+04</rscale>
<asrwt>0</asrwt>
<pdfrwt beam="1">  1        2 0.74757551E-01 0.13127076E+04</pdfrwt>
<pdfrwt beam="2">  1       -2 0.13639367E+00 0.13127076E+04</pdfrwt>
<totfact> 0.28491700E+01</totfact>
</mgrwt>
<rwgt>
<wgt id='morphing_basis_vector_1'> +1.5548397e-04 </wgt>
<wgt id='morphing_basis_vector_2'> +1.0272538e-04 </wgt>
<wgt id='morphing_basis_vector_3'> +1.5844281e-04 </wgt>
<wgt id='morphing_basis_vector_4'> +1.0196860e-04 </wgt>
<wgt id='morphing_basis_vector_5'> +1.6466265e-04 </wgt>
</rwgt>
</event>
<event>
 4      1 +3.5234200e-07 1.53956400e+03 7.81860800e-03 8.29234500e-02
        2 -1    0    0  501    0 +0.0000000000e+00 +0.0000000000e+00 +4.7254937880e+02 4.7254937880e+02 0.0000000000e+00 0.0000e+00 1.0000e+00
       -2 -1    0    0    0  501 -0.0000000000e+00 -0.0000000000e+00 -1.2539735115e+03 1.2539735115e+03 0.0000000000e+00 0.0000e+00 -1.0000e+00
      -13  1    1    2    0    0 -5.2060739702e+02 -2.1500404312e+01 -1.0261519644e+03 1.1508614961e+03 0.0000000000e+00 0.0000e+00 -1.0000e+00
       13  1    1    2    0    0 +5.2060739702e+02 +2.1500404312e+01 +2.4472783165e+02 5.7566139423e+02 0.0000000000e+00 0.0000e+00 1.0000e+00
<mgrwt>
<rscale>  0 0.15395641E+04</rscale>
<asrwt>0</asrwt>
<pdfrwt beam="1">  1        2 0.72699904E-01 0.15395641E+04</pdfrwt>
<pdfrwt beam="2">  1       -2 0.19291900E+00 0.15395641E+04</pdfrwt>
<totfact> 0.10249140E+01</totfact>
</mgrwt>
<rwgt>
<wgt id='morphing_basis_vector_1'> +2.8537258e-04 </wgt>
<wgt id='morphing_basis_vector_2'> +1.8755112e-04 </wgt>
<wgt id='morphing_basis_vector_3'> +2.9711047e-04 </wgt>
<wgt id='morphing_basis_vector_4'> +2.0061435e-04 </wgt>
<wgt id='morphing_basis_vector_5'> +3.1997086e-04 </wgt>
</rwgt>
</event>
<event>
 4      1 +3.5234200e-07 1.49459300e+03 7.81860800e-03 8.31811200e-02
        2 -1    0    0  501    0 +0.0000000000e+00 +0.0000000000e+00 +1.9638341790e+03 1.9638341790e+03 0.0000000000e+00 0.0000e+00 -1.0000e+00
       -2 -1    0    0    0  501 -0.0000000000e+00 -0.0000000000e+00 -2.8436840045e+02 2.8436840045e+02 0.0000000000e+00 0.0000e+00 1.0000e+00
      -13  1    1    2    0    0 +2.0705687359e+02 -6.9968779683e+02 +5.9710568357e+02 9.4285245892e+02 0.0000000000e+00 0.0000e+00 1.0000e+00
       13  1    1    2    0    0 -2.0705687359e+02 +6.9968779683e+02 +1.0823600949e+03 1.3053501205e+03 0.0000000000e+00 0.0000e+00 -1.0000e+00
<mgrwt>
<rscale>  0 0.14945934E+04</rscale>
<asrwt>0</asrwt>
<pdfrwt beam="1">  1        2 0.30212833E+00 0.14945934E+04</pdfrwt>
<pdfrwt beam="2">  1       -2 0.43748986E-01 0.14945934E+04</pdfrwt>
<totfact> 0.41709208E+01</totfact>
</mgrwt>
<rwgt>
<wgt id='morphing_basis_vector_1'> +2.5834690e-04 </wgt>
<wgt id='morphing_basis_vector_2'> +1.7834113e-04 </wgt>
<wgt id='morphing_basis_vector_3'> +2.6901649e-04 </wgt>
<wgt id='morphing_basis_vector_4'> +1.7030173e-04 </wgt>
<wgt id='morphing_basis_vector_5'> +2.8246488e-04 </wgt>
</rwgt>
</event>
<event>
 4      1 +3.5234200e-07 1.32056200e+03 7.81860800e-03 8.42749600e-02
        2 -1    0    0  501    0 +0.0000000000e+00 +0.0000000000e+00 +5.9848000079e+02 5.9848000079e+02 0.0000000000e+00 0.0000e+00 -1.0000e+00
       -2 -1    0    0    0  501 -0.0000000000e+00 -0.0000000000e+00 -7.2846327640e+02 7.2846327640e+02 0.0000000000e+00 0.0000e+00 1.0000e+00
      -13  1    1    2    0    0 -5.3570006841e+00 +6.3012237325e+02 -2.6314452051e+02 6.8288208455e+02 0.0000000000e+00 0.0000e+00 1.0000e+00
       13  1    1    2    0    0 +5.3570006841e+00 -6.3012237325e+02 +1.3316124490e+02 6.4406119264e+02 0.0000000000e+00 0.0000e+00 -1.0000e+00
<mgrwt>
<rscale>  0 0.13205616E+04</rscale>
<asrwt>0</asrwt>
<pdfrwt beam="1">  1        2 0.92073846E-01 0.13205616E+04</pdfrwt>
<pdfrwt beam="2">  1       -2 0.11207127E+00 0.13205616E+04</pdfrwt>
<totfact> 0.37506739E+01</totfact>
</mgrwt>
<rwgt>
<wgt id='morphing_basis_vector_1'> +1.5987528e-04 </wgt>
<wgt id='morphing_basis_vector_2'> +1.0757282e-04 </wgt>
<wgt id='morphing_basis_vector_3'> +1.6323632e-04 </wgt>
<wgt id='morphing_basis_vector_4'> +1.0309757e-04 </wgt>
<wgt id='morphing_basis_vector_5'> +1.6872834e-04 </wgt>
</rwgt>
</event>
<event>
 4      1 +3.5234200e-07 1.37823400e+03 7.81860800e-03 8.38939400e-02
        2 -1    0    0  501    0 +0.0000000000e+00 +0.0000000000e+00 +2.6824180203e+03 2.6824180203e+03 0.0000000000e+00 0.0000e+00 1.0000e+00
       -2 -1    0    0    0  501 -0.0000000000e+00 -0.0000000000e+00 -1.7703511542e+02 1.7703511542e+02 0.0000000000e+00 0.0000e+00 -1.0000e+00
      -13  1    1    2    0    0 +2.5413504355e+02 -5.3207832527e+02 +5.1276780505e+02 7.8142356407e+02 0.0000000000e+00 0.0000e+00 -1.0000e+00
       13  1    1    2    0    0 -2.5413504355e+02 +5.3207832527e+02 +1.9926150998e+03 2.0780295716e+03 0.0000000000e+00 0.0000e+00 1.0000e+00
<mgrwt>
<rscale>  0 0.13782339E+04</rscale>
<asrwt>0</asrwt>
<pdfrwt beam="1">  1        2 0.41267967E+00 0.13782339E+04</pdfrwt>
<pdfrwt beam="2">  1       -2 0.27236174E-01 0.13782339E+04</pdfrwt>
<totfact> 0.38178914E+01</totfact>
</mgrwt>
<rwgt>
<wgt id='morphing_basis_vector_1'> +1.8692159e-04 </wgt>
<wgt id='morphing_basis_vector_2'> +1.2308395e-04 </wgt>
<wgt id='morphing_basis_vector_3'> +1.9186210e-04 </wgt>
<wgt id='morphing_basis_vector_4'> +1.2570305e-04 </wgt>
<wgt id='morphing_basis_vector_5'> +2.0192612e-04 </wgt>
</rwgt>
</event>
<event>
 4      1 +3.5234200e-07 1.36108600e+03 7.81860800e-03 8.40051700e-02
        2 -1    0    0  501    0 +0.0000000000e+00 +0.0000000000e+00 +9.9348073537e+02 9.9348073537e+02 0.0000000000e+00 0.0000e+00 1.0000e+00
       -2 -1    0    0    0  501 -0.0000000000e+00 -0.0000000000e+00 -4.6617818211e+02 4.6617818211e+02 0.0000000000e+00 0.0000e+00 -1.0000e+00
      -13  1    1    2    0    0 -1.6499284665e+02 -3.7756410596e+02 -3.1720332693e+02 5.1999542706e+02 0.0000000000e+00 0.0000e+00 -1.0000e+00
       13  1    1    2    0    0 +1.6499284665e+02 +3.7756410596e+02 +8.4450588018e+02 9.3966349042e+02 0.0000000000e+00 0.0000e+00 1.0000e+00
<mgrwt>
<rscale>  0 0.13610864E+04</rscale>
<asrwt>0</asrwt>
<pdfrwt beam="1">  1        2 0.15284319E+00 0.13610864E+04</pdfrwt>
<pdfrwt beam="2">  1       -2 0.71719721E-01 0.13610864E+04</pdfrwt>
<totfact> 0.55520283E+01</totfact>
</mgrwt>
<rwgt>
<wgt id='morphing_basis_vector_1'> +1.7754523e-04 </wgt>
<wgt id='morphing_basis_vector_2'> +1.1533023e-04 </wgt>
<wgt id='morphing_basis_vector_3'> +1.8175747e-04 </wgt>
<wgt id='morphing_basis_vector_4'> +1.2043606e-04 </wgt>
<wgt id='morphing_basis_vector_5'> +1.9172130e-04 </wgt>
</rwgt>
</event>
<event>
 4      1 +3.5234200e-07 1.42450400e+03 7.81860800e-03 8.36020400e-02
        2 -1    0    0  501    0 +0.0000000000e+00 +0.0000000000e+00 +1.1095980074e+03 1.1095980074e+03 0.0000000000e+00 0.0000e+00 1.0000e+00
       -2 -1    0    0    0  501 -0.0000000000e+00 -0.0000000000e+00 -4.5719533657e+02 4.5719533657e+02 0.0000000000e+00 0.0000e+00 -1.0000e+00
      -13  1    1    2    0    0 -1.1344503782e+02 +6.0357275826e+02 +7.2297425122e+02 9.4861036208e+02 0.0000000000e+00 0.0000e+00 1.0000e+00
       13  1    1    2    0    0 +1.1344503782e+02 -6.0357275826e+02 -7.0571580403e+01 6.1818298188e+02 0.0000000000e+00 0.0000e+00 -1.0000e+00
<mgrwt>
<rscale>  0 0.14245042E+04</rscale>
<asrwt>0</asrwt>
<pdfrwt beam="1">  1        2 0.17070738E+00 0.14245042E+04</pdfrwt>
<pdfrwt beam="2">  1       -2 0.70337745E-01 0.14245042E+04</pdfrwt>
<totfact> 0.48918408E+01</totfact>
</mgrwt>
<rwgt>
<wgt id='morphing_basis_vector_1'> +2.5063686e-04 </wgt>
<wgt id='morphing_basis_vector_2'> +2.5492314e-04 </wgt>
<wgt id='morphing_basis_vector_3'> +2.6783094e-04 </wgt>
<wgt id='morphing_basis_vector_4'> +7.3605902e-05 </wgt>
<wgt id='morphing_basis_vector_5'> +2.2656588e-04 </wgt>
</rwgt>
</event>
<event>
 4      1 +3.5234200e-07 1.32161600e+03 7.81860800e-03 8.42678200e-02
        2 -1    0    0  501    0 +0.0000000000e+00 +0.0000000000e+00 +4.2264453303e+02 4.2264453303e+02 0.0000000000e+00 0.0000e+00 1.0000e+00
       -2 -1    0    0    0  501 -0.0000000000e+00 -0.0000000000e+00 -1.0331787965e+03 1.0331787965e+03 0.0000000000e+00 0.0000e+00 -1.0000e+00
      -13  1    1    2    0    0 +1.8986547749e+02 -6.2512675909e+02 -4.1450937573e+02 7.7372500737e+02 0.0000000000e+00 0.0000e+00 1.0000e+00
       13  1    1    2    0    0 -1.8986547749e+02 +6.2512675909e+02 -1.9602488773e+02 6.8209832215e+02 0.0000000000e+00 0.0000e+00 -1.0000e+00
<mgrwt>
<rscale>  0 0.13216162E+04</rscale>
<asrwt>0</asrwt>
<pdfrwt beam="1">  1        2 0.65022236E-01 0.13216162E+04</pdfrwt>
<pdfrwt beam="2">  1       -2 0.15895058E+00 0.13216162E+04</pdfrwt>
<totfact> 0.21605234E+01</totfact>
</mgrwt>
<rwgt>
<wgt id='morphing_basis_vector_1'> +1.6184585e-04 </wgt>
<wgt id='morphing_basis_vector_2'> +1.1234581e-04 </wgt>
<wgt id='morphing_basis_vector_3'> +1.6556021e-04 </wgt>
<wgt id='morphing_basis_vector_4'> +1.0079215e-04 </wgt>
<wgt id='morphing_basis_vector_5'> +1.6910554e-04 </wgt>
</rwgt>
</event>
<event>
 4      1 +3.5234200e-07 1.33657300e+03 7.81860800e-03 8.41671700e-02
        2 -1    0    0  501    0 +0.0000000000e+00 +0.0000000000e+00 +2.5290421233e+03 2.5290421233e+03 0.0000000000e+00 0.0000e+00 1.0000e+00
       -2 -1    0    0    0  501 -0.0000000000e+00 -0.0000000000e+00 -1.7659138817e+02 1.7659138817e+02 0.0000000000e+00 0.0000e+00 -1.0000e+00
      -13  1    1    2    0    0 +2.7321259083e+02 +4.4415433588e+02 +3.3015050112e+02 6.1718518069e+02 0.0000000000e+00 0.0000e+00 -1.0000e+00
       13  1    1    2    0    0 -2.7321259083e+02 -4.4415433588e+02 +2.0223002340e+03 2.0884483308e+03 0.0000000000e+00 0.0000e+00 1.0000e+00
<mgrwt>
<rscale>  0 0.13365733E+04</rscale>
<asrwt>0</asrwt>
<pdfrwt beam="1">  1        2 0.38908338E+00 0.13365733E+04</pdfrwt>
<pdfrwt beam="2">  1       -2 0.27167908E-01 0.13365733E+04</pdfrwt>
<totfact> 0.47617517E+01</totfact>
</mgrwt>
<rwgt>
<wgt id='morphing_basis_vector_1'> +1.6588298e-04 </wgt>
<wgt id='morphing_basis_vector_2'> +1.0819375e-04 </wgt>
<wgt id='morphing_basis_vector_3'> +1.6939752e-04 </wgt>
<wgt id='morphing_basis_vector_4'> +1.1116399e-04 </wgt>
<wgt id='morphing_basis_vector_5'> +1.7765670e-04 </wgt>
</rwgt>
</event>
<event>
 4      1 +3.5234200e-07 1.43252900e+03 7.81860800e-03 8.35525900e-02
        2 -1    0    0  501    0 +0.0000000000e+00 +0.0000000000e+00 +2.3225162599e+03 2.3225162599e+03 0.0000000000e+00 0.0000e+00 -1.0000e+00
       -2 -1    0    0    0  501 -0.0000000000e+00 -0.0000000000e+00 -2.2089605269e+02 2.2089605269e+02 0.0000000000e+00 0.0000e+00 1.0000e+00
      -13  1    1    2    0    0 -5.8165400154e+02 +3.9287120007e+02 +1.3041835693e+03 1.4810685129e+03 0.0000000000e+00 0.0000e+00 1.0000e+00
       13  1    1    2    0    0 +5.8165400154e+02 -3.9287120007e+02 +7.9743663787e+02 1.0623437997e+03 0.0000000000e+00 0.0000e+00 -1.0000e+00
<mgrwt>
<rscale>  0 0.14325288E+04</rscale>
<asrwt>0</asrwt>
<pdfrwt beam="1">  1        2 0.35731018E+00 0.14325288E+04</pdfrwt>
<pdfrwt beam="2">  1       -2 0.33984010E-01 0.14325288E+04</pdfrwt>
<totfact> 0.41922772E+01</totfact>
</mgrwt>
<rwgt>
<wgt id='morphing_basis_vector_1'> +2.3161341e-04 </wgt>
<wgt id='morphing_basis_vector_2'> +1.8741405e-04 </wgt>
<wgt id='morphing_basis_vector_3'> +2.4270855e-04 </wgt>
<wgt id='morphing_basis_vector_4'> +1.2039474e-04 </wgt>
<wgt id='morphing_basis_vector_5'> +2.3520811e-04 </wgt>
</rwgt>
</event>
<event>
 4      1 +3.5234200e-07 1.49240300e+03 7.81860800e-03 8.31939100e-02
        2 -1    0    0  501    0 +0.0000000000e+00 +0.0000000000e+00 +1.3198658639e+03 1.3198658639e+03 0.0000000000e+00 0.0000e+00 1.0000e+00
       -2 -1    0    0    0  501 -0.0000000000e+00 -0.0000000000e+00 -4.2187381881e+02 4.2187381881e+02 0.0000000000e+00 0.0000e+00 -1.0000e+00
      -13  1    1    2    0    0 +5.4234552787e+00 +3.7089542295e+02 -3.0665303759e+02 4.8127841641e+02 0.0000000000e+00 0.0000e+00 -1.0000e+00
       13  1    1    2    0    0 -5.4234552787e+00 -3.7089542295e+02 +1.2046450827e+03 1.2604612663e+03 0.0000000000e+00 0.0000e+00 1.0000e+00
<mgrwt>
<rscale>  0 0.14924032E+04</rscale>
<asrwt>0</asrwt>
<pdfrwt beam="1">  1        2 0.20305629E+00 0.14924032E+04</pdfrwt>
<pdfrwt beam="2">  1       -2 0.64903665E-01 0.14924032E+04</pdfrwt>
<totfact> 0.43497255E+01</totfact>
</mgrwt>
<rwgt>
<wgt id='morphing_basis_vector_1'> +2.5288489e-04 </wgt>
<wgt id='morphing_basis_vector_2'> +1.6537704e-04 </wgt>
<wgt id='morphing_basis_vector_3'> +2.6221615e-04 </wgt>
<wgt id='morphing_basis_vector_4'> +1.7673216e-04 </wgt>
<wgt id='morphing_basis_vector_5'> +2.8130516e-04 </wgt>
</rwgt>
</event>
<event>
 4      1 +3.5234200e-07 1.39110400e+03 7.81860800e-03 8.38115700e-02
        2 -1    0    0  501    0 +0.0000000000e+00 +0.0000000000e+00 +4.2693426403e+02 4.2693426403e+02 0.0000000000e+00 0.0000e+00 -1.0000e+00
       -2 -1    0    0    0  501 -0.0000000000e+00 -0.0000000000e+00 -1.1331784092e+03 1.1331784092e+03 0.0000000000e+00 0.0000e+00 1.0000e+00
      -13  1    1    2    0    0 +6.6330775878e+02 +7.3441021227e-01 -5.8787313533e+02 8.8632530453e+02 0.0000000000e+00 0.0000e+00 1.0000e+00
       13  1    1    2    0    0 -6.6330775878e+02 -7.3441021227e-01 -1.1837100980e+02 6.7378736867e+02 0.0000000000e+00 0.0000e+00 -1.0000e+00
<mgrwt>
<rscale>  0 0.13911042E+04</rscale>
<asrwt>0</asrwt>
<pdfrwt beam="1">  1        2 0.65682195E-01 0.13911042E+04</pdfrwt>
<pdfrwt beam="2">  1       -2 0.17433514E+00 0.13911042E+04</pdfrwt>
<totfact> 0.16075735E+01</totfact>
</mgrwt>
<rwgt>
<wgt id='morphing_basis_vector_1'> +1.9510160e-04 </wgt>
<wgt id='morphing_basis_vector_2'> +1.3182772e-04 </wgt>
<wgt id='morphing_basis_vector_3'> +2.0085547e-04 </wgt>
<wgt id='morphing_basis_vector_4'> +1.2811896e-04 </wgt>
<wgt id='morphing_basis_vector_5'> +2.0972581e-04 </wgt>
</rwgt>
</event>
<event>
 4      1 +3.5234200e-07 1.39158100e+03 7.81860800e-03 8.38085300e-02
        2 -1    0    0  501    0 +0.0000000000e+00 +0.0000000000e+00 +1.0966160404e+03 1.0966160404e+03 0.0000000000e+00 0.0000e+00 1.0000e+00
       -2 -1    0    0    0  501 -0.0000000000e+00 -0.0000000000e+00 -4.4147094709e+02 4.4147094709e+02 0.0000000000e+00 0.0000e+00 -1.0000e+00
      -13  1    1    2    0    0 +3.2455594197e+02 -3.0051166458e+02 -2.6607765970e+02 5.1617936902e+02 0.0000000000e+00 0.0000e+00 -1.0000e+00
       13  1    1    2    0    0 -3.2455594197e+02 +3.0051166458e+02 +9.2122275304e+02 1.0219076185e+03 0.0000000000e+00 0.0000e+00 1.0000e+00
<mgrwt>
<rscale>  0 0.13915806E+04</rscale>
<asrwt>0</asrwt>
<pdfrwt beam="1">  1        2 0.16871016E+00 0.13915806E+04</pdfrwt>
<pdfrwt beam="2">  1       -2 0.67918608E-01 0.13915806E+04</pdfrwt>
<totfact> 0.53809192E+01</totfact>
</mgrwt>
<rwgt>
<wgt id='morphing_basis_vector_1'> +1.9331122e-04 </wgt>
<wgt id='morphing_basis_vector_2'> +1.2588906e-04 </wgt>
<wgt id='morphing_basis_vector_3'> +1.9855727e-04 </wgt>
<wgt id='morphing_basis_vector_4'> +1.3203038e-04 </wgt>
<wgt id='morphing_basis_vector_5'> +2.1029536e-04 </wgt>
</rwgt>
</event>
<event>
 4      1 +3.5234200e-07 1.32639800e+03 7.81860800e-03 8.42354900e-02
        2 -1    0    0  501    0 +0.0000000000e+00 +0.0000000000e+00 +3.2912045049e+02 3.2912045049e+02 0.0000000000e+00 0.0000e+00 -1.0000e+00
       -2 -1    0    0    0  501 -0.0000000000e+00 -0.0000000000e+00 -1.3363891416e+03 1.3363891416e+03 0.0000000000e+00 0.0000e+00 1.0000e+00
      -13  1    1    2    0    0 +2.7405078010e+02 -3.9006029275e+02 -1.0825784297e+03 1.1828892250e+03 0.0000000000e+00 0.0000e+00 1.0000e+00
       13  1    1    2    0    0 -2.7405078010e+02 +3.9006029275e+02 +7.5309738587e+01 4.8262036714e+02 0.0000000000e+00 0.0000e+00 -1.0000e+00
<mgrwt>
<rscale>  0 0.13263981E+04</rscale>
<asrwt>0</asrwt>
<pdfrwt beam="1">  1        2 0.50633917E-01 0.13263981E+04</pdfrwt>
<pdfrwt beam="2">  1       -2 0.20559832E+00 0.13263981E+04</pdfrwt>
<totfact> 0.12677138E+01</totfact>
</mgrwt>
<rwgt>
<wgt id='morphing_basis_vector_1'> +1.6097472e-04 </wgt>
<wgt id='morphing_basis_vector_2'> +1.0460532e-04 </wgt>
<wgt id='morphing_basis_vector_3'> +1.6415930e-04 </wgt>
<wgt id='morphing_basis_vector_4'> +1.0790954e-04 </wgt>
<wgt id='morphing_basis_vector_5'> +1.7207964e-04 </wgt>
</rwgt>
</event>
<event>
 4      1 +3.5234200e-07 1.43714000e+03 7.81860800e-03 8.35243200e-02
        2 -1    0    0  501    0 +0.0000000000e+00 +0.0000000000e+00 +2.3137473602e+02 2.3137473602e+02 0.0000000000e+00 0.0000e+00 1.0000e+00
       -2 -1    0    0    0  501 -0.0000000000e+00 -0.0000000000e+00 -2.2316294550e+03 2.2316294550e+03 0.0000000000e+00 0.0000e+00 -1.0000e+00
      -13  1    1    2    0    0 +3.2334999673e+02 +1.8707425396e+02 -2.0521285226e+03 2.0858531756e+03 0.0000000000e+00 0.0000e+00 -1.0000e+00
       13  1    1    2    0    0 -3.2334999673e+02 -1.8707425396e+02 +5.1873803675e+01 3.7715101536e+02 0.0000000000e+00 0.0000e+00 1.0000e+00
<mgrwt>
<rscale>  0 0.14371398E+04</rscale>
<asrwt>0</asrwt>
<pdfrwt beam="1">  1        2 0.35596114E-01 0.14371398E+04</pdfrwt>
<pdfrwt beam="2">  1       -2 0.34332760E+00 0.14371398E+04</pdfrwt>
<totfact> 0.21389964E+00</totfact>
</mgrwt>
<rwgt>
<wgt id='morphing_basis_vector_1'> +2.1868653e-04 </wgt>
<wgt id='morphing_basis_vector_2'> +1.4259753e-04 </wgt>
<wgt id='morphing_basis_vector_3'> +2.2562603e-04 </wgt>
<wgt id='morphing_basis_vector_4'> +1.5111775e-04 </wgt>
<wgt id='morphing_basis_vector_5'> +2.4050140e-04 </wgt>
</rwgt>
</event>
<event>
 4      1 +3.5234200e-07 1.30419600e+03 7.81860800e-03 8.43868000e-02
        2 -1    0    0  501    0 +0.0000000000e+00 +0.0000000000e+00 +3.5488372840e+02 3.5488372840e+02 0.0000000000e+00 0.0000e+00 1.0000e+00
       -2 -1    0    0    0  501 -0.0000000000e+00 -0.0000000000e+00 -1.1982280209e+03 1.1982280209e+03 0.0000000000e+00 0.0000e+00 -1.0000e+00
      -13  1    1    2    0    0 +1.6371772732e+02 +5.4474457594e+02 -8.0140734953e+02 9.8275321782e+02 0.0000000000e+00 0.0000e+00 -1.0000e+00
       13  1    1    2    0    0 -1.6371772732e+02 -5.4474457594e+02 -4.1936942963e+01 5.7035853148e+02 0.0000000000e+00 0.0000e+00 1.0000e+00
<mgrwt>
<rscale>  0 0.13041957E+04</rscale>
<asrwt>0</asrwt>
<pdfrwt beam="1">  1        2 0.54597497E-01 0.13041957E+04</pdfrwt>
<pdfrwt beam="2">  1       -2 0.18434277E+00 0.13041957E+04</pdfrwt>
<totfact> 0.16739014E+01</totfact>
</mgrwt>
<rwgt>
<wgt id='morphing_basis_vector_1'> +1.5143578e-04 </wgt>
<wgt id='morphing_basis_vector_2'> +9.9438873e-05 </wgt>
<wgt id='morphing_basis_vector_3'> +1.5410632e-04 </wgt>
<wgt id='morphing_basis_vector_4'> +9.9650367e-05 </wgt>
<wgt id='morphing_basis_vector_5'> +1.6026114e-04 </wgt>
</rwgt>
</event>
<event>
 4      1 +3.5234200e-07 1.38420100e+03 7.81860800e-03 8.38556300e-02
        2 -1    0    0  501    0 +0.0000000000e+00 +0.0000000000e+00 +6.3326594266e+02 6.3326594266e+02 0.0000000000e+00 0.0000e+00 -1.0000e+00
       -2 -1    0    0    0  501 -0.0000000000e+00 -0.0000000000e+00 -7.5640121613e+02 7.5640121613e+02 0.0000000000e+00 0.0000e+00 1.0000e+00
      -13  1    1    2    0    0 -4.1215442740e+02 +3.5863745503e+02 -4.8811130448e+02 7.3262865201e+02 0.0000000000e+00 0.0000e+00 1.0000e+00
       13  1    1    2    0    0 +4.1215442740e+02 -3.5863745503e+02 +3.6497603102e+02 6.5703850678e+02 0.0000000000e+00 0.0000e+00 -1.0000e+00
<mgrwt>
<rscale>  0 0.13842010E+04</rscale>
<asrwt>0</asrwt>
<pdfrwt beam="1">  1        2 0.97425530E-01 0.13842010E+04</pdfrwt>
<pdfrwt beam="2">  1       -2 0.11636942E+00 0.13842010E+04</pdfrwt>
<totfact> 0.31708772E+01</totfact>
</mgrwt>
<rwgt>
<wgt id='morphing_basis_vector_1'> +1.8971571e-04 </wgt>
<wgt id='morphing_basis_vector_2'> +1.2420715e-04 </wgt>
<wgt id='morphing_basis_vector_3'> +1.9478198e-04 </wgt>
<wgt id='morphing_basis_vector_4'> +1.2858143e-04 </wgt>
<wgt id='morphing_basis_vector_5'> +2.0564233e-04 </wgt>
</rwgt>
</event>
<event>
 4      1 +3.5234200e-07 1.34020600e+03 7.81860800e-03 8.41429400e-02
        2 -1    0    0  501    0 +0.0000000000e+00 +0.0000000000e+00 +1.0980053192e+03 1.0980053192e+03 0.0000000000e+00 0.0000e+00 1.0000e+00
       -2 -1    0    0    0  501 -0.0000000000e+00 -0.0000000000e+00 -4.0895804124e+02 4.0895804124e+02 0.0000000000e+00 0.0000e+00 -1.0000e+00
      -13  1    1    2    0    0 -2.9032737023e+02 +5.6384301186e+02 +5.8785012210e+02 8.6474082244e+02 0.0000000000e+00 0.0000e+00 -1.0000e+00
       13  1    1    2    0    0 +2.9032737023e+02 -5.6384301186e+02 +1.0119715582e+02 6.4222253797e+02 0.0000000000e+00 0.0000e+00 1.0000e+00
<mgrwt>
<rscale>  0 0.13402061E+04</rscale>
<asrwt>0</asrwt>
<pdfrwt beam="1">  1        2 0.16892389E+00 0.13402061E+04</pdfrwt>
<pdfrwt beam="2">  1       -2 0.62916622E-01 0.13402061E+04</pdfrwt>
<totfact> 0.63313247E+01</totfact>
</mgrwt>
<rwgt>
<wgt id='morphing_basis_vector_1'> +1.8537477e-04 </wgt>
<wgt id='morphing_basis_vector_2'> +1.6248495e-04 </wgt>
<wgt id='morphing_basis_vector_3'> +1.9304806e-04 </wgt>
<wgt id='morphing_basis_vector_4'> +8.0510254e-05 </wgt>
<wgt id='morphing_basis_vector_5'> +1.7740811e-04 </wgt>
</rwgt>
</event>
<event>
 4      1 +3.5234200e-07 1.54755300e+03 7.81860800e-03 8.28786300e-02
        2 -1    0    0  501    0 +0.0000000000e+00 +0.0000000000e+00 +6.9476245783e+02 6.9476245783e+02 0.0000000000e+00 0.0000e+00 -1.0000e+00
       -2 -1    0    0    0  501 -0.0000000000e+00 -0.0000000000e+00 -8.6177698629e+02 8.6177698629e+02 0.0000000000e+00 0.0000e+00 1.0000e+00
      -13  1    1    2    0    0 -2.9812460036e+02 +7.0061490322e+02 -2.2211449478e+02 7.9314208610e+02 0.0000000000e+00 0.0000e+00 1.0000e+00
       13  1    1    2    0    0 +2.9812460036e+02 -7.0061490322e+02 +5.5099966325e+01 7.6339735802e+02 0.0000000000e+00 0.0000e+00 -1.0000e+00
<mgrwt>
<rscale>  0 0.15475533E+04</rscale>
<asrwt>0</asrwt>
<pdfrwt beam="1">  1        2 0.10688653E+00 0.15475533E+04</pdfrwt>
<pdfrwt beam="2">  1       -2 0.13258107E+00 0.15475533E+04</pdfrwt>
<totfact> 0.19851687E+01</totfact>
</mgrwt>
<rwgt>
<wgt id='morphing_basis_vector_1'> +2.9629485e-04 </wgt>
<wgt id='morphing_basis_vector_2'> +2.0676596e-04 </wgt>
<wgt id='morphing_basis_vector_3'> +3.1015552e-04 </wgt>
<wgt id='morphing_basis_vector_4'> +1.9524671e-04 </wgt>
<wgt id='morphing_basis_vector_5'> +3.2617023e-04 </wgt>
</rwgt>
</event>
<event>
 4      1 +3.5234200e-07 1.38745700e+03 7.81860800e-03 8.38348200e-02
        2 -1    0    0  501    0 +0.0000000000e+00 +0.0000000000e+00 +4.7448687661e+02 4.7448687661e+02 0.0000000000e+00 0.0000e+00 -1.0000e+00
       -2 -1    0    0    0  501 -0.0000000000e+00 -0.0000000000e+00 -1.0142728917e+03 1.0142728917e+03 0.0000000000e+00 0.0000e+00 1.0000e+00
      -13  1    1    2    0    0 +6.1426112558e+02 +3.1130887748e+02 -1.7993103751e+02 7.1176198680e+02 0.0000000000e+00 0.0000e+00 1.0000e+00
       13  1    1    2    0    0 -6.1426112558e+02 -3.1130887748e+02 -3.5985497762e+02 7.7699778154e+02 0.0000000000e+00 0.0000e+00 -1.0000e+00
<mgrwt>
<rscale>  0 0.13874569E+04</rscale>
<asrwt>0</asrwt>
<pdfrwt beam="1">  1        2 0.72997982E-01 0.13874569E+04</pdfrwt>
<pdfrwt beam="2">  1       -2 0.15604198E+00 0.13874569E+04</pdfrwt>
<totfact> 0.19901756E+01</totfact>
</mgrwt>
<rwgt>
<wgt id='morphing_basis_vector_1'> +2.0160291e-04 </wgt>
<wgt id='morphing_basis_vector_2'> +1.5574686e-04 </wgt>
<wgt id='morphing_basis_vector_3'> +2.0937338e-04 </wgt>
<wgt id='morphing_basis_vector_4'> +1.1133785e-04 </wgt>
<wgt id='morphing_basis_vector_5'> +2.0632954e-04 </wgt>
</rwgt>
</event>
<event>
 4      1 +3.5234200e-07 1.41647700e+03 7.81860800e-03 8.36518500e-02
        2 -1    0    0  501    0 +0.0000000000e+00 +0.0000000000e+00 +1.3575041297e+03 1.3575041297e+03 0.0000000000e+00 0.0000e+00 -1.0000e+00
       -2 -1    0    0    0  501 -0.0000000000e+00 -0.0000000000e+00 -3.6950281955e+02 3.6950281955e+02 0.0000000000e+00 0.0000e+00 1.0000e+00
      -13  1    1    2    0    0 +2.8173131081e+02 -3.8000505941e+02 -1.4864336420e+02 4.9585403738e+02 0.0000000000e+00 0.0000e+00 1.0000e+00
       13  1    1    2    0    0 -2.8173131081e+02 +3.8000505941e+02 +1.1366446744e+03 1.2311529119e+03 0.0000000000e+00 0.0000e+00 -1.0000e+00
<mgrwt>
<rscale>  0 0.14164768E+04</rscale>
<asrwt>0</asrwt>
<pdfrwt beam="1">  1        2 0.20884679E+00 0.14164768E+04</pdfrwt>
<pdfrwt beam="2">  1       -2 0.56846588E-01 0.14164768E+04</pdfrwt>
<totfact> 0.54724930E+01</totfact>
</mgrwt>
<rwgt>
<wgt id='morphing_basis_vector_1'> +2.0697138e-04 </wgt>
<wgt id='morphing_basis_vector_2'> +1.3508916e-04 </wgt>
<wgt id='morphing_basis_vector_3'> +2.1313974e-04 </wgt>
<wgt id='morphing_basis_vector_4'> +1.4206122e-04 </wgt>
<wgt id='morphing_basis_vector_5'> +2.2641774e-04 </wgt>
</rwgt>
</event>
<event>
 4      1 +3.5234200e-07 1.53337100e+03 7.81860800e-03 8.29583900e-02
        2 -1    0    0  501    0 +0.0000000000e+00 +0.0000000000e+00 +8.8377781934e+02 8.8377781934e+02 0.0000000000e+00 0.0000e+00 -1.0000e+00
       -2 -1    0    0    0  501 -0.0000000000e+00 -0.0000000000e+00 -6.6510677966e+02 6.6510677966e+02 0.0000000000e+00 0.0000e+00 1.0000e+00
      -13  1    1    2    0    0 +1.3799079953e+02 +2.6986119530e+02 -6.0201956388e+02 6.7401341291e+02 0.0000000000e+00 0.0000e+00 1.0000e+00
       13  1    1    2    0    0 -1.3799079953e+02 -2.6986119530e+02 +8.2069060356e+02 8.7487118609e+02 0.0000000000e+00 0.0000e+00 -1.0000e+00
<mgrwt>
<rscale>  0 0.15333710E+04</rscale>
<asrwt>0</asrwt>
<pdfrwt beam="1">  1        2 0.13596582E+00 0.15333710E+04</pdfrwt>
<pdfrwt beam="2">  1       -2 0.10232412E+00 0.15333710E+04</pdfrwt>
<totfact> 0.28408970E+01</totfact>
</mgrwt>
<rwgt>
<wgt id='morphing_basis_vector_1'> +2.8072059e-04 </wgt>
<wgt id='morphing_basis_vector_2'> +1.8387945e-04 </wgt>
<wgt id='morphing_basis_vector_3'> +2.9205567e-04 </wgt>
<wgt id='morphing_basis_vector_4'> +1.9775209e-04 </wgt>
<wgt id='morphing_basis_vector_5'> +3.1471126e-04 </wgt>
</rwgt>
</event>
<event>
 4      1 +3.5234200e-07 1.38906700e+03 7.81860800e-03 8.38245400e-02
        2 -1    0    0  501    0 +0.0000000000e+00 +0.0000000000e+00 +2.1233960274e+03 2.1233960274e+03 0.0000000000e+00 0.0000e+00 1.0000e+00
       -2 -1    0    0    0  501 -0.0000000000e+00 -0.0000000000e+00 -2.2717223640e+02 2.2717223640e+02 0.0000000000e+00 0.0000e+00 -1.0000e+00
      -13  1    1    2    0    0 -1.1980407219e+02 -6.8158902355e+02 +1.0476498063e+03 1.2555822273e+03 0.0000000000e+00 0.0000e+00 -1.0000e+00
       13  1    1    2    0    0 +1.1980407219e+02 +6.8158902355e+02 +8.4857398471e+02 1.0949860366e+03 0.0000000000e+00 0.0000e+00 1.0000e+00
<mgrwt>
<rscale>  0 0.13890668E+04</rscale>
<asrwt>0</asrwt>
<pdfrwt beam="1">  1        2 0.32667630E+00 0.13890668E+04</pdfrwt>
<pdfrwt beam="2">  1       -2 0.34949576E-01 0.13890668E+04</pdfrwt>
<totfact> 0.51983893E+01</totfact>
</mgrwt>
<rwgt>
<wgt id='morphing_basis_vector_1'> +2.0124528e-04 </wgt>
<wgt id='morphing_basis_vector_2'> +1.5269876e-04 </wgt>
<wgt id='morphing_basis_vector_3'> +2.0877194e-04 </wgt>
<wgt id='morphing_basis_vector_4'> +1.1416349e-04 </wgt>
<wgt id='morphing_basis_vector_5'> +2.0749479e-04 </wgt>
</rwgt>
</event>
<event>
 4      1 +3.5234200e-07 1.35776900e+03 7.81860800e-03 8.40268800e-02
        2 -1    0    0  501    0 +0.0000000000e+00 +0.0000000000e+00 +1.1943237796e+03 1.1943237796e+03 0.0000000000e+00 0.0000e+00 1.0000e+00
       -2 -1    0    0    0  501 -0.0000000000e+00 -0.0000000000e+00 -3.8589571090e+02 3.8589571090e+02 0.0000000000e+00 0.0000e+00 -1.0000e+00
      -13  1    1    2    0    0 -5.8721313191e+02 +4.6619312675e+01 +1.1444644591e+01 5.8917196343e+02 0.0000000000e+00 0.0000e+00 -1.0000e+00
       13  1    1    2    0    0 +5.8721313191e+02 -4.6619312675e+01 +7.9698342406e+02 9.9104752703e+02 0.0000000000e+00 0.0000e+00 1.0000e+00
<mgrwt>
<rscale>  0 0.13577694E+04</rscale>
<asrwt>0</asrwt>
<pdfrwt beam="1">  1        2 0.18374212E+00 0.13577694E+04</pdfrwt>
<pdfrwt beam="2">  1       -2 0.59368571E-01 0.13577694E+04</pdfrwt>
<totfact> 0.62478421E+01</totfact>
</mgrwt>
<rwgt>
<wgt id='morphing_basis_vector_1'> +1.7659060e-04 </wgt>
<wgt id='morphing_basis_vector_2'> +1.1631466e-04 </wgt>
<wgt id='morphing_basis_vector_3'> +1.8086276e-04 </wgt>
<wgt id='morphing_basis_vector_4'> +1.1795912e-04 </wgt>
<wgt id='morphing_basis_vector_5'> +1.8968621e-04 </wgt>
</rwgt>
</event>
<event>
 4      1 +3.5234200e-07 1.41395900e+03 7.81860800e-03 8.36675400e-02
        2 -1    0    0  501    0 +0.0000000000e+00 +0.0000000000e+00 +2.2272062300e+02 2.2272062300e+02 0.0000000000e+00 0.0000e+00 -1.0000e+00
       -2 -1    0    0    0  501 -0.0000000000e+00 -0.0000000000e+00 -2.2441574081e+03 2.2441574081e+03 0.0000000000e+00 0.0000e+00 1.0000e+00
      -13  1    1    2    0    0 +1.4360573266e+02 -6.2746471337e+02 -5.0061619346e+02 8.1544536674e+02 0.0000000000e+00 0.0000e+00 1.0000e+00
       13  1    1    2    0    0 -1.4360573266e+02 +6.2746471337e+02 -1.5208205916e+03 1.6514326643e+03 0.0000000000e+00 0.0000e+00 -1.0000e+00
<mgrwt>
<rscale>  0 0.14139592E+04</rscale>
<asrwt>0</asrwt>
<pdfrwt beam="1">  1        2 0.34264710E-01 0.14139592E+04</pdfrwt>
<pdfrwt beam="2">  1       -2 0.34525500E+00 0.14139592E+04</pdfrwt>
<totfact> 0.21752279E+00</totfact>
</mgrwt>
<rwgt>
<wgt id='morphing_basis_vector_1'> +2.3477724e-04 </wgt>
<wgt id='morphing_basis_vector_2'> +2.2139533e-04 </wgt>
<wgt id='morphing_basis_vector_3'> +2.4869760e-04 </wgt>
<wgt id='morphing_basis_vector_4'> +8.7503979e-05 </wgt>
<wgt id='morphing_basis_vector_5'> +2.2085164e-04 </wgt>
</rwgt>
</event>
<event>
 4      1 +3.5234200e-07 1.48213200e+03 7.81860800e-03 8.32541900e-02
        2 -1    0    0  501    0 +0.0000000000e+00 +0.0000000000e+00 +2.3131685870e+03 2.3131685870e+03 0.0000000000e+00 0.0000e+00 -1.0000e+00
       -2 -1    0    0    0  501 -0.0000000000e+00 -0.0000000000e+00 -2.3741400714e+02 2.3741400714e+02 0.0000000000e+00 0.0000e+00 1.0000e+00
      -13  1    1    2    0    0 -1.8631495183e+02 -3.6113872123e+02 -2.8579297940e+01 4.0737110049e+02 0.0000000000e+00 0.0000e+00 1.0000e+00
       13  1    1    2    0    0 +1.8631495183e+02 +3.6113872123e+02 +2.1043338778e+03 2.1432114936e+03 0.0000000000e+00 0.0000e+00 -1.0000e+00
<mgrwt>
<rscale>  0 0.14821317E+04</rscale>
<asrwt>0</asrwt>
<pdfrwt beam="1">  1        2 0.35587207E+00 0.14821317E+04</pdfrwt>
<pdfrwt beam="2">  1       -2 0.36525233E-01 0.14821317E+04</pdfrwt>
<totfact> 0.37058427E+01</totfact>
</mgrwt>
<rwgt>
<wgt id='morphing_basis_vector_1'> +2.4626795e-04 </wgt>
<wgt id='morphing_basis_vector_2'> +1.6102931e-04 </wgt>
<wgt id='morphing_basis_vector_3'> +2.5513544e-04 </wgt>
<wgt id='morphing_basis_vector_4'> +1.7169440e-04 </wgt>
<wgt id='morphing_basis_vector_5'> +2.7335638e-04 </wgt>
</rwgt>
</event>
<event>
 4      1 +3.5234200e-07 1.38266100e+03 7.81860800e-03 8.38655000e-02
        2 -1    0    0  501    0 +0.0000000000e+00 +0.0000000000e+00 +1.4136937878e+03 1.4136937878e+03 0.0000000000e+00 0.0000e+00 -1.0000e+00
       -2 -1    0    0    0  501 -0.0000000000e+00 -0.0000000000e+00 -3.3807731630e+02 3.3807731630e+02 0.0000000000e+00 0.0000e+00 1.0000e+00
      -13  1    1    2    0    0 +5.2955359612e+02 +1.0848951054e+02 -8.2203093633e+00 5.4061498180e+02 0.0000000000e+00 0.0000e+00 1.0000e+00
       13  1    1    2    0    0 -5.2955359612e+02 -1.0848951054e+02 +1.0838367809e+03 1.2111561223e+03 0.0000000000e+00 0.0000e+00 -1.0000e+00
<mgrwt>
<rscale>  0 0.13826609E+04</rscale>
<asrwt>0</asrwt>
<pdfrwt beam="1">  1        2 0.21749135E+00 0.13826609E+04</pdfrwt>
<pdfrwt beam="2">  1       -2 0.52011896E-01 0.13826609E+04</pdfrwt>
<totfact> 0.60947947E+01</totfact>
</mgrwt>
<rwgt>
<wgt id='morphing_basis_vector_1'> +1.8888185e-04 </wgt>
<wgt id='morphing_basis_vector_2'> +1.2358913e-04 </wgt>
<wgt id='morphing_basis_vector_3'> +1.9388805e-04 </wgt>
<wgt id='morphing_basis_vector_4'> +1.2803340e-04 </wgt>
<wgt id='morphing_basis_vector_5'> +2.0469275e-04 </wgt>
</rwgt>
</event>
<event>
 4      1 +3.5234200e-07 1.29804600e+03 7.81860800e-03 8.44292700e-02
        2 -1    0    0  501    0 +0.0000000000e+00 +0.0000000000e+00 +1.2246967522e+03 1.2246967522e+03 0.0000000000e+00 0.0000e+00 -1.0000e+00
       -2 -1    0    0    0  501 -0.0000000000e+00 -0.0000000000e+00 -3.4394730710e+02 3.4394730710e+02 0.0000000000e+00 0.0000e+00 1.0000e+00
      -13  1    1    2    0    0 +2.8293148743e+02 -1.3883686209e+02 -2.4526852429e+02 3.9935266352e+02 0.0000000000e+00 0.0000e+00 1.0000e+00
       13  1    1    2    0    0 -2.8293148743e+02 +1.3883686209e+02 +1.1260179694e+03 1.1692913958e+03 0.0000000000e+00 0.0000e+00 -1.0000e+00
<mgrwt>
<rscale>  0 0.12980465E+04</rscale>
<asrwt>0</asrwt>
<pdfrwt beam="1">  1        2 0.18841488E+00 0.12980465E+04</pdfrwt>
<pdfrwt beam="2">  1       -2 0.52914971E-01 0.12980465E+04</pdfrwt>
<totfact> 0.76020455E+01</totfact>
</mgrwt>
<rwgt>
<wgt id='morphing_basis_vector_1'> +1.4806625e-04 </wgt>
<wgt id='morphing_basis_vector_2'> +9.5628791e-05 </wgt>
<wgt id='morphing_basis_vector_3'> +1.5043552e-04 </wgt>
<wgt id='morphing_basis_vector_4'> +9.8877472e-05 </wgt>
<wgt id='morphing_basis_vector_5'> +1.5719758e-04 </wgt>
</rwgt>
</event>
<event>
 4      1 +3.5234200e-07 1.46221300e+03 7.81860800e-03 8.33725300e-02
        2 -1    0    0  501    0 +0.0000000000e+00 +0.0000000000e+00 +8.5785149709e+02 8.5785149709e+02 0.0000000000e+00 0.0000e+00 -1.0000e+00
       -2 -1    0    0    0  501 -0.0000000000e+00 -0.0000000000e+00 -6.2308807485e+02 6.2308807485e+02 0.0000000000e+00 0.0000e+00 1.0000e+00
      -13  1    1    2    0    0 -5.4537266085e+02 +2.8049461971e+02 -2.8572103921e+02 6.7656860933e+02 0.0000000000e+00 0.0000e+00 1.0000e+00
       13  1    1    2    0    0 +5.4537266085e+02 -2.8049461971e+02 +5.2048446144e+02 8.0437096261e+02 0.0000000000e+00 0.0000e+00 -1.0000e+00
<mgrwt>
<rscale>  0 0.14622134E+04</rscale>
<asrwt>0</asrwt>
<pdfrwt beam="1">  1        2 0.13197715E+00 0.14622134E+04</pdfrwt>
<pdfrwt beam="2">  1       -2 0.95859704E-01 0.14622134E+04</pdfrwt>
<totfact> 0.34779950E+01</totfact>
</mgrwt>
<rwgt>
<wgt id='morphing_basis_vector_1'> +2.3449431e-04 </wgt>
<wgt id='morphing_basis_vector_2'> +1.5488049e-04 </wgt>
<wgt id='morphing_basis_vector_3'> +2.4269628e-04 </wgt>
<wgt id='morphing_basis_vector_4'> +1.6096665e-04 </wgt>
<wgt id='morphing_basis_vector_5'> +2.5832506e-04 </wgt>
</rwgt>
</event>
<event>
 4      1 +3.5234200e-07 1.32085000e+03 7.81860800e-03 8.42730100e-02
        2 -1    0    0  501    0 +0.0000000000e+00 +0.0000000000e+00 +1.0371643396e+03 1.0371643396e+03 0.0000000000e+00 0.0000e+00 -1.0000e+00
       -2 -1    0    0    0  501 -0.0000000000e+00 -0.0000000000e+00 -4.2053222448e+02 4.2053222448e+02 0.0000000000e+00 0.0000e+00 1.0000e+00
      -13  1    1    2    0    0 +6.0072609908e+02 +2.6405111723e+02 +2.2597951014e+02 6.9401842744e+02 0.0000000000e+00 0.0000e+00 1.0000e+00
       13  1    1    2    0    0 -6.0072609908e+02 -2.6405111723e+02 +3.9065260500e+02 7.6367813666e+02 0.0000000000e+00 0.0000e+00 -1.0000e+00
<mgrwt>
<rscale>  0 0.13208498E+04</rscale>
<asrwt>0</asrwt>
<pdfrwt beam="1">  1        2 0.15956374E+00 0.13208498E+04</pdfrwt>
<pdfrwt beam="2">  1       -2 0.64697265E-01 0.13208498E+04</pdfrwt>
<totfact> 0.65144837E+01</totfact>
</mgrwt>
<rwgt>
<wgt id='morphing_basis_vector_1'> +1.6198701e-04 </wgt>
<wgt id='morphing_basis_vector_2'> +1.1358632e-04 </wgt>
<wgt id='morphing_basis_vector_3'> +1.6578467e-04 </wgt>
<wgt id='morphing_basis_vector_4'> +9.9655547e-05 </wgt>
<wgt id='morphing_basis_vector_5'> +1.6863180e-04 </wgt>
</rwgt>
</event>
<event>
 4      1 +3.5234200e-07 1.30053600e+03 7.81860800e-03 8.44120500e-02
        2 -1    0    0  501    0 +0.0000000000e+00 +0.0000000000e+00 +8.6928103036e+02 8.6928103036e+02 0.0000000000e+00 0.0000e+00 1.0000e+00
       -2 -1    0    0    0  501 -0.0000000000e+00 -0.0000000000e+00 -4.8643471485e+02 4.8643471485e+02 0.0000000000e+00 0.0000e+00 -1.0000e+00
      -13  1    1    2    0    0 +4.3851763948e+02 -5.8218557827e+01 +6.8825964494e+02 8.1816163407e+02 0.0000000000e+00 0.0000e+00 -1.0000e+00
       13  1    1    2    0    0 -4.3851763948e+02 +5.8218557827e+01 -3.0541332942e+02 5.3755411114e+02 0.0000000000e+00 0.0000e+00 1.0000e+00
<mgrwt>
<rscale>  0 0.13005360E+04</rscale>
<asrwt>0</asrwt>
<pdfrwt beam="1">  1        2 0.13373554E+00 0.13005360E+04</pdfrwt>
<pdfrwt beam="2">  1       -2 0.74836110E-01 0.13005360E+04</pdfrwt>
<totfact> 0.61127676E+01</totfact>
</mgrwt>
<rwgt>
<wgt id='morphing_basis_vector_1'> +1.9423270e-04 </wgt>
<wgt id='morphing_basis_vector_2'> +2.3135542e-04 </wgt>
<wgt id='morphing_basis_vector_3'> +2.0584075e-04 </wgt>
<wgt id='morphing_basis_vector_4'> +1.9586570e-05 </wgt>
<wgt id='morphing_basis_vector_5'> +1.5282169e-04 </wgt>
</rwgt>
</event>
<event>
 4      1 +3.5234200e-07 1.32749200e+03 7.81860800e-03 8.42281200e-02
        2 -1    0    0  501    0 +0.0000000000e+00 +0.0000000000e+00 +1.3861669449e+03 1.3861669449e+03 0.0000000000e+00 0.0000e+00 -1.0000e+00
       -2 -1    0    0    0  501 -0.0000000000e+00 -0.0000000000e+00 -3.1782502879e+02 3.1782502879e+02 0.0000000000e+00 0.0000e+00 1.0000e+00
      -13  1    1    2    0    0 -5.5530492673e+02 +3.4187082905e+02 +3.7529597039e+02 7.5238706183e+02 0.0000000000e+00 0.0000e+00 1.0000e+00
       13  1    1    2    0    0 +5.5530492673e+02 -3.4187082905e+02 +6.9304594575e+02 9.5160491189e+02 0.0000000000e+00 0.0000e+00 -1.0000e+00
<mgrwt>
<rscale>  0 0.13274917E+04</rscale>
<asrwt>0</asrwt>
<pdfrwt beam="1">  1        2 0.21325645E+00 0.13274917E+04</pdfrwt>
<pdfrwt beam="2">  1       -2 0.48896159E-01 0.13274917E+04</pdfrwt>
<totfact> 0.71636446E+01</totfact>
</mgrwt>
<rwgt>
<wgt id='morphing_basis_vector_1'> +1.6417049e-04 </wgt>
<wgt id='morphing_basis_vector_2'> +1.1298785e-04 </wgt>
<wgt id='morphing_basis_vector_3'> +1.6797902e-04 </wgt>
<wgt id='morphing_basis_vector_4'> +1.0346805e-04 </wgt>
<wgt id='morphing_basis_vector_5'> +1.7233238e-04 </wgt>
</rwgt>
</event>
<event>
 4      1 +3.5234200e-07 1.48668100e+03 7.81860800e-03 8.32274300e-02
        2 -1    0    0  501    0 +0.0000000000e+00 +0.0000000000e+00 +8.1734551218e+02 8.1734551218e+02 0.0000000000e+00 0.0000e+00 -1.0000e+00
       -2 -1    0    0    0  501 -0.0000000000e+00 -0.0000000000e+00 -6.7603570364e+02 6.7603570364e+02 0.0000000000e+00 0.0000e+00 1.0000e+00
      -13  1    1    2    0    0 +6.2440743931e+02 +1.4983834118e+02 -3.0549053233e+02 7.1109819583e+02 0.0000000000e+00 0.0000e+00 1.0000e+00
       13  1    1    2    0    0 -6.2440743931e+02 -1.4983834118e+02 +4.4680034088e+02 7.8228301999e+02 0.0000000000e+00 0.0000e+00 -1.0000e+00
<mgrwt>
<rscale>  0 0.14866805E+04</rscale>
<asrwt>0</asrwt>
<pdfrwt beam="1">  1        2 0.12574546E+00 0.14866805E+04</pdfrwt>
<pdfrwt beam="2">  1       -2 0.10400549E+00 0.14866805E+04</pdfrwt>
<totfact> 0.30378088E+01</totfact>
</mgrwt>
<rwgt>
<wgt id='morphing_basis_vector_1'> +2.5019594e-04 </wgt>
<wgt id='morphing_basis_vector_2'> +1.6596758e-04 </wgt>
<wgt id='morphing_basis_vector_3'> +2.5957493e-04 </wgt>
<wgt id='morphing_basis_vector_4'> +1.7202492e-04 </wgt>
<wgt id='morphing_basis_vector_5'> +2.7671610e-04 </wgt>
</rwgt>
</event>
<event>
 4      1 +3.5234200e-07 1.38290100e+03 7.81860800e-03 8.38639600e-02
        2 -1    0    0  501    0 +0.0000000000e+00 +0.0000000000e+00 +2.2099573585e+03 2.2099573585e+03 0.0000000000e+00 0.0000e+00 -1.0000e+00
       -2 -1    0    0    0  501 -0.0000000000e+00 -0.0000000000e+00 -2.1634072108e+02 2.1634072108e+02 0.0000000000e+00 0.0000e+00 1.0000e+00
      -13  1    1    2    0    0 +4.7641298770e+02 -1.9195196091e+02 +1.8462719586e+02 5.4580407804e+02 0.0000000000e+00 0.0000e+00 1.0000e+00
       13  1    1    2    0    0 -4.7641298770e+02 +1.9195196091e+02 +1.8089894415e+03 1.8804940015e+03 0.0000000000e+00 0.0000e+00 -1.0000e+00
<mgrwt>
<rscale>  0 0.13829010E+04</rscale>
<asrwt>0</asrwt>
<pdfrwt beam="1">  1        2 0.33999342E+00 0.13829010E+04</pdfrwt>
<pdfrwt beam="2">  1       -2 0.33283189E-01 0.13829010E+04</pdfrwt>
<totfact> 0.50738866E+01</totfact>
</mgrwt>
<rwgt>
<wgt id='morphing_basis_vector_1'> +1.8889784e-04 </wgt>
<wgt id='morphing_basis_vector_2'> +1.2334525e-04 </wgt>
<wgt id='morphing_basis_vector_3'> +1.9388469e-04 </wgt>
<wgt id='morphing_basis_vector_4'> +1.2832555e-04 </wgt>
<wgt id='morphing_basis_vector_5'> +2.0485548e-04 </wgt>
</rwgt>
</event>
<event>
 4      1 +3.5234200e-07 1.33244900e+03 7.81860800e-03 8.41947900e-02
        2 -1    0    0  501    0 +0.0000000000e+00 +0.0000000000e+00 +1.8737407511e+03 1.8737407511e+03 0.0000000000e+00 0.0000e+00 -1.0000e+00
       -2 -1    0    0    0  501 -0.0000000000e+00 -0.0000000000e+00 -2.3688167493e+02 2.3688167493e+02 0.0000000000e+00 0.0000e+00 1.0000e+00
      -13  1    1    2    0    0 -6.3932106053e+02 +1.4217050368e+02 +6.2500430966e+02 9.0530340640e+02 0.0000000000e+00 0.0000e+00 1.0000e+00
       13  1    1    2    0    0 +6.3932106053e+02 -1.4217050368e+02 +1.0118547665e+03 1.2053190196e+03 0.0000000000e+00 0.0000e+00 -1.0000e+00
<mgrwt>
<rscale>  0 0.13324486E+04</rscale>
<asrwt>0</asrwt>
<pdfrwt beam="1">  1        2 0.28826780E+00 0.13324486E+04</pdfrwt>
<pdfrwt beam="2">  1       -2 0.36443336E-01 0.13324486E+04</pdfrwt>
<totfact> 0.66783386E+01</totfact>
</mgrwt>
<rwgt>
<wgt id='morphing_basis_vector_1'> +1.6656321e-04 </wgt>
<wgt id='morphing_basis_vector_2'> +1.1475764e-04 </wgt>
<wgt id='morphing_basis_vector_3'> +1.7054174e-04 </wgt>
<wgt id='morphing_basis_vector_4'> +1.0502408e-04 </wgt>
<wgt id='morphing_basis_vector_5'> +1.7503751e-04 </wgt>
</rwgt>
</event>
<event>
 4      1 +3.5234200e-07 1.43238300e+03 7.81860800e-03 8.35534800e-02
        2 -1    0    0  501    0 +0.0000000000e+00 +0.0000000000e+00 +9.0473491081e+02 9.0473491081e+02 0.0000000000e+00 0.0000e+00 -1.0000e+00
       -2 -1    0    0    0  501 -0.0000000000e+00 -0.0000000000e+00 -5.6693974404e+02 5.6693974404e+02 0.0000000000e+00 0.0000e+00 1.0000e+00
      -13  1    1    2    0    0 -5.4459455702e+02 +4.3721773961e+02 +5.8381071204e+00 6.9841009934e+02 0.0000000000e+00 0.0000e+00 1.0000e+00
       13  1    1    2    0    0 +5.4459455702e+02 -4.3721773961e+02 +3.3195705964e+02 7.7326455551e+02 0.0000000000e+00 0.0000e+00 -1.0000e+00
<mgrwt>
<rscale>  0 0.14323829E+04</rscale>
<asrwt>0</asrwt>
<pdfrwt beam="1">  1        2 0.13918999E+00 0.14323829E+04</pdfrwt>
<pdfrwt beam="2">  1       -2 0.87221499E-01 0.14323829E+04</pdfrwt>
<totfact> 0.40507848E+01</totfact>
</mgrwt>
<rwgt>
<wgt id='morphing_basis_vector_1'> +2.1924140e-04 </wgt>
<wgt id='morphing_basis_vector_2'> +1.5067879e-04 </wgt>
<wgt id='morphing_basis_vector_3'> +2.2691535e-04 </wgt>
<wgt id='morphing_basis_vector_4'> +1.4293429e-04 </wgt>
<wgt id='morphing_basis_vector_5'> +2.3676010e-04 </wgt>
</rwgt>
</event>
<event>
 4      1 +3.5234200e-07 1.33294100e+03 7.81860800e-03 8.41914900e-02
        2 -1    0    0  501    0 +0.0000000000e+00 +0.0000000000e+00 +1.5393988760e+03 1.5393988760e+03 0.0000000000e+00 0.0000e+00 -1.0000e+00
       -2 -1    0    0    0  501 -0.0000000000e+00 -0.0000000000e+00 -2.8854310423e+02 2.8854310423e+02 0.0000000000e+00 0.0000e+00 1.0000e+00
      -13  1    1    2    0    0 +5.6082395254e+02 +1.3149561314e+02 +1.6572901315e+02 5.9940029014e+02 0.0000000000e+00 0.0000e+00 1.0000e+00
       13  1    1    2    0    0 -5.6082395254e+02 -1.3149561314e+02 +1.0851267586e+03 1.2285416901e+03 0.0000000000e+00 0.0000e+00 -1.0000e+00
<mgrwt>
<rscale>  0 0.13329410E+04</rscale>
<asrwt>0</asrwt>
<pdfrwt beam="1">  1        2 0.23683059E+00 0.13329410E+04</pdfrwt>
<pdfrwt beam="2">  1       -2 0.44391248E-01 0.13329410E+04</pdfrwt>
<totfact> 0.70805000E+01</totfact>
</mgrwt>
<rwgt>
<wgt id='morphing_basis_vector_1'> +1.6452979e-04 </wgt>
<wgt id='morphing_basis_vector_2'> +1.0813474e-04 </wgt>
<wgt id='morphing_basis_vector_3'> +1.6801717e-04 </wgt>
<wgt id='morphing_basis_vector_4'> +1.0925548e-04 </wgt>
<wgt id='morphing_basis_vector_5'> +1.7559814e-04 </wgt>
</rwgt>
</event>
<event>
 4      1 +3.5234200e-07 1.34051500e+03 7.81860800e-03 8.41408800e-02
        2 -1    0    0  501    0 +0.0000000000e+00 +0.0000000000e+00 +1.9061659867e+03 1.9061659867e+03 0.0000000000e+00 0.0000e+00 -1.0000e+00
       -2 -1    0    0    0  501 -0.0000000000e+00 -0.0000000000e+00 -2.3568005502e+02 2.3568005502e+02 0.0000000000e+00 0.0000e+00 1.0000e+00
      -13  1    1    2    0    0 +2.9625865701e+02 -4.5347327637e+02 +2.0449871034e+02 5.7898784682e+02 0.0000000000e+00 0.0000e+00 1.0000e+00
       13  1    1    2    0    0 -2.9625865701e+02 +4.5347327637e+02 +1.4659872214e+03 1.5628581949e+03 0.0000000000e+00 0.0000e+00 -1.0000e+00
<mgrwt>
<rscale>  0 0.13405153E+04</rscale>
<asrwt>0</asrwt>
<pdfrwt beam="1">  1        2 0.29325630E+00 0.13405153E+04</pdfrwt>
<pdfrwt beam="2">  1       -2 0.36258471E-01 0.13405153E+04</pdfrwt>
<totfact> 0.64621352E+01</totfact>
</mgrwt>
<rwgt>
<wgt id='morphing_basis_vector_1'> +1.6785330e-04 </wgt>
<wgt id='morphing_basis_vector_2'> +1.0972346e-04 </wgt>
<wgt id='morphing_basis_vector_3'> +1.7150794e-04 </wgt>
<wgt id='morphing_basis_vector_4'> +1.1237457e-04 </wgt>
<wgt id='morphing_basis_vector_5'> +1.7984780e-04 </wgt>
</rwgt>
</event>
<event>
 4      1 +3.5234200e-07 1.37609500e+03 7.81860800e-03 8.39077300e-02
        2 -1    0    0  501    0 +0.0000000000e+00 +0.0000000000e+00 +5.0157966425e+02 5.0157966425e+02 0.0000000000e+00 0.0000e+00 -1.0000e+00
       -2 -1    0    0    0  501 -0.0000000000e+00 -0.0000000000e+00 -9.4383634300e+02 9.4383634300e+02 0.0000000000e+00 0.0000e+00 1.0000e+00
      -13  1    1    2    0    0 -6.2242421666e+02 +1.1779986592e+02 -5.0320920385e+02 8.0901682104e+02 0.0000000000e+00 0.0000e+00 1.0000e+00
       13  1    1    2    0    0 +6.2242421666e+02 -1.1779986592e+02 +6.0952525098e+01 6.3639918621e+02 0.0000000000e+00 0.0000e+00 -1.0000e+00
<mgrwt>
<rscale>  0 0.13760946E+04</rscale>
<asrwt>0</asrwt>
<pdfrwt beam="1">  1        2 0.77166102E-01 0.13760946E+04</pdfrwt>
<pdfrwt beam="2">  1       -2 0.14520559E+00 0.13760946E+04</pdfrwt>
<totfact> 0.22978209E+01</totfact>
</mgrwt>
<rwgt>
<wgt id='morphing_basis_vector_1'> +1.8646951e-04 </wgt>
<wgt id='morphing_basis_vector_2'> +1.2430218e-04 </wgt>
<wgt id='morphing_basis_vector_3'> +1.9149953e-04 </wgt>
<wgt id='morphing_basis_vector_4'> +1.2369892e-04 </wgt>
<wgt id='morphing_basis_vector_5'> +2.0053513e-04 </wgt>
</rwgt>
</event>
<event>
 4      1 +3.5234200e-07 1.29234100e+03 7.81860800e-03 8.44688900e-02
        2 -1    0    0  501    0 +0.0000000000e+00 +0.0000000000e+00 +1.2887408569e+03 1.2887408569e+03 0.0000000000e+00 0.0000e+00 -1.0000e+00
       -2 -1    0    0    0  501 -0.0000000000e+00 -0.0000000000e+00 -3.2398778117e+02 3.2398778117e+02 0.0000000000e+00 0.0000e+00 1.0000e+00
      -13  1    1    2    0    0 +1.2700617964e+01 +5.9976334799e+02 +1.8272438145e+02 6.2710890511e+02 0.0000000000e+00 0.0000e+00 1.0000e+00
       13  1    1    2    0    0 -1.2700617964e+01 -5.9976334799e+02 +7.8202869425e+02 9.8561973292e+02 0.0000000000e+00 0.0000e+00 -1.0000e+00
<mgrwt>
<rscale>  0 0.12923410E+04</rscale>
<asrwt>0</asrwt>
<pdfrwt beam="1">  1        2 0.19826782E+00 0.12923410E+04</pdfrwt>
<pdfrwt beam="2">  1       -2 0.49844275E-01 0.12923410E+04</pdfrwt>
<totfact> 0.78604407E+01</totfact>
</mgrwt>
<rwgt>
<wgt id='morphing_basis_vector_1'> +1.4677248e-04 </wgt>
<wgt id='morphing_basis_vector_2'> +9.7506073e-05 </wgt>
<wgt id='morphing_basis_vector_3'> +1.4922670e-04 </wgt>
<wgt id='morphing_basis_vector_4'> +9.4992995e-05 </wgt>
<wgt id='morphing_basis_vector_5'> +1.5417139e-04 </wgt>
</rwgt>
</event>
<event>
 4      1 +3.5234200e-07 1.49854700e+03 7.81860800e-03 8.31581000e-02
        2 -1    0    0  501    0 +0.0000000000e+00 +0.0000000000e+00 +2.1647003329e+03 2.1647003329e+03 0.0000000000e+00 0.0000e+00 -1.0000e+00
       -2 -1    0    0    0  501 -0.0000000000e+00 -0.0000000000e+00 -2.5934789922e+02 2.5934789922e+02 0.0000000000e+00 0.0000e+00 1.0000e+00
      -13  1    1    2    0    0 -3.1660960904e+02 +1.2764590320e+02 -1.2624610805e+02 3.6396868126e+02 0.0000000000e+00 0.0000e+00 1.0000e+00
       13  1    1    2    0    0 +3.1660960904e+02 -1.2764590320e+02 +2.0315985417e+03 2.0600795508e+03 0.0000000000e+00 0.0000e+00 -1.0000e+00
<mgrwt>
<rscale>  0 0.14985466E+04</rscale>
<asrwt>0</asrwt>
<pdfrwt beam="1">  1        2 0.33303081E+00 0.14985466E+04</pdfrwt>
<pdfrwt beam="2">  1       -2 0.39899678E-01 0.14985466E+04</pdfrwt>
<totfact> 0.38219414E+01</totfact>
</mgrwt>
<rwgt>
<wgt id='morphing_basis_vector_1'> +2.5690742e-04 </wgt>
<wgt id='morphing_basis_vector_2'> +1.6802232e-04 </wgt>
<wgt id='morphing_basis_vector_3'> +2.6652224e-04 </wgt>
<wgt id='morphing_basis_vector_4'> +1.7979541e-04 </wgt>
<wgt id='morphing_basis_vector_5'> +2.8614030e-04 </wgt>
</rwgt>
</event>
<event>
 4      1 +3.5234200e-07 1.31281200e+03 7.81860800e-03 8.43277100e-02
        2 -1    0    0  501    0 +0.0000000000e+00 +0.0000000000e+00 +1.5659182811e+03 1.5659182811e+03 0.0000000000e+00 0.0000e+00 -1.0000e+00
       -2 -1    0    0    0  501 -0.0000000000e+00 -0.0000000000e+00 -2.7515391669e+02 2.7515391669e+02 0.0000000000e+00 0.0000e+00 1.0000e+00
      -13  1    1    2    0    0 -1.9247556601e+02 -5.8950094097e+02 +9.4717398343e+02 1.1321204696e+03 0.0000000000e+00 0.0000e+00 1.0000e+00
       13  1    1    2    0    0 +1.9247556601e+02 +5.8950094097e+02 +3.4359038096e+02 7.0895172812e+02 0.0000000000e+00 0.0000e+00 -1.0000e+00
<mgrwt>
<rscale>  0 0.13128116E+04</rscale>
<asrwt>0</asrwt>
<pdfrwt beam="1">  1        2 0.24091050E+00 0.13128116E+04</pdfrwt>
<pdfrwt beam="2">  1       -2 0.42331373E-01 0.13128116E+04</pdfrwt>
<totfact> 0.75023555E+01</totfact>
</mgrwt>
<rwgt>
<wgt id='morphing_basis_vector_1'> +1.7155939e-04 </wgt>
<wgt id='morphing_basis_vector_2'> +1.5074292e-04 </wgt>
<wgt id='morphing_basis_vector_3'> +1.7790768e-04 </wgt>
<wgt id='morphing_basis_vector_4'> +7.3421774e-05 </wgt>
<wgt id='morphing_basis_vector_5'> +1.6269479e-04 </wgt>
</rwgt>
</event>
<event>
 4      1 +3.5234200e-07 1.40230900e+03 7.81860800e-03 8.37406000e-02
        2 -1    0    0  501    0 +0.0000000000e+00 +0.0000000000e+00 +1.1701506494e+03 1.1701506494e+03 0.0000000000e+00 0.0000e+00 1.0000e+00
       -2 -1    0    0    0  501 -0.0000000000e+00 -0.0000000000e+00 -4.2013208129e+02 4.2013208129e+02 0.0000000000e+00 0.0000e+00 -1.0000e+00
      -13  1    1    2    0    0 +6.7469874829e+02 +1.7445771997e+02 +4.6258764861e+02 8.3644559276e+02 0.0000000000e+00 0.0000e+00 1.0000e+00
       13  1    1    2    0    0 -6.7469874829e+02 -1.7445771997e+02 +2.8743091946e+02 7.5383713789e+02 0.0000000000e+00 0.0000e+00 -1.0000e+00
<mgrwt>
<rscale>  0 0.14023093E+04</rscale>
<asrwt>0</asrwt>
<pdfrwt beam="1">  1        2 0.18002318E+00 0.14023093E+04</pdfrwt>
<pdfrwt beam="2">  1       -2 0.64635705E-01 0.14023093E+04</pdfrwt>
<totfact> 0.53961875E+01</totfact>
</mgrwt>
<rwgt>
<wgt id='morphing_basis_vector_1'> +2.0961283e-04 </wgt>
<wgt id='morphing_basis_vector_2'> +1.6116377e-04 </wgt>
<wgt id='morphing_basis_vector_3'> +2.1800536e-04 </wgt>
<wgt id='morphing_basis_vector_4'> +1.1710506e-04 </wgt>
<wgt id='morphing_basis_vector_5'> +2.1574299e-04 </wgt>
</rwgt>
</event>
<event>
 4      1 +3.5234200e-07 1.34345300e+03 7.81860800e-03 8.41213400e-02
        2 -1    0    0  501    0 +0.0000000000e+00 +0.0000000000e+00 +2.1069064860e+03 2.1069064860e+03 0.0000000000e+00 0.0000e+00 -1.0000e+00
       -2 -1    0    0    0  501 -0.0000000000e+00 -0.0000000000e+00 -2.1416059021e+02 2.1416059021e+02 0.0000000000e+00 0.0000e+00 1.0000e+00
      -13  1    1    2    0    0 +4.3621902243e+02 -2.0156264924e+02 +1.3545985919e+02 4.9926336793e+02 0.0000000000e+00 0.0000e+00 1.0000e+00
       13  1    1    2    0    0 -4.3621902243e+02 +2.0156264924e+02 +1.7572860366e+03 1.8218037083e+03 0.0000000000e+00 0.0000e+00 -1.0000e+00
<mgrwt>
<rscale>  0 0.13434528E+04</rscale>
<asrwt>0</asrwt>
<pdfrwt beam="1">  1        2 0.32413945E+00 0.13434528E+04</pdfrwt>
<pdfrwt beam="2">  1       -2 0.32947785E-01 0.13434528E+04</pdfrwt>
<totfact> 0.59321941E+01</totfact>
</mgrwt>
<rwgt>
<wgt id='morphing_basis_vector_1'> +1.6902656e-04 </wgt>
<wgt id='morphing_basis_vector_2'> +1.0995665e-04 </wgt>
<wgt id='morphing_basis_vector_3'> +1.7271665e-04 </wgt>
<wgt id='morphing_basis_vector_4'> +1.1383412e-04 </wgt>
<wgt id='morphing_basis_vector_5'> +1.8153287e-04 </wgt>
</rwgt>
</event>
<event>
 4      1 +3.5234200e-07 1.42064700e+03 7.81860800e-03 8.36259300e-02
        2 -1    0    0  501    0 +0.0000000000e+00 +0.0000000000e+00 +1.4026476945e+03 1.4026476945e+03 0.0000000000e+00 0.0000e+00 -1.0000e+00
       -2 -1    0    0    0  501 -0.0000000000e+00 -0.0000000000e+00 -3.5971910449e+02 3.5971910449e+02 0.0000000000e+00 0.0000e+00 1.0000e+00
      -13  1    1    2    0    0 -5.9563077278e+02 -6.8769387045e+01 +9.9393512290e+02 1.1607808900e+03 0.0000000000e+00 0.0000e+00 -1.0000e+00
       13  1    1    2    0    0 +5.9563077278e+02 +6.8769387045e+01 +4.8993467126e+01 6.0158590900e+02 0.0000000000e+00 0.0000e+00 1.0000e+00
<mgrwt>
<rscale>  0 0.14206466E+04</rscale>
<asrwt>0</asrwt>
<pdfrwt beam="1">  1        2 0.21579195E+00 0.14206466E+04</pdfrwt>
<pdfrwt beam="2">  1       -2 0.55341401E-01 0.14206466E+04</pdfrwt>
<totfact> 0.54455733E+01</totfact>
</mgrwt>
<rwgt>
<wgt id='morphing_basis_vector_1'> +2.5117361e-04 </wgt>
<wgt id='morphing_basis_vector_2'> +2.6162016e-04 </wgt>
<wgt id='morphing_basis_vector_3'> +2.6888502e-04 </wgt>
<wgt id='morphing_basis_vector_4'> +6.7033072e-05 </wgt>
<wgt id='morphing_basis_vector_5'> +2.2360845e-04 </wgt>
</rwgt>
</event>
<event>
 4      1 +3.5234200e-07 1.32645900e+03 7.81860800e-03 8.42350800e-02
        2 -1    0    0  501    0 +0.0000000000e+00 +0.0000000000e+00 +3.5637238886e+02 3.5637238886e+02 0.0000000000e+00 0.0000e+00 1.0000e+00
       -2 -1    0    0    0  501 -0.0000000000e+00 -0.0000000000e+00 -1.2343085148e+03 1.2343085148e+03 0.0000000000e+00 0.0000e+00 -1.0000e+00
      -13  1    1    2    0    0 -6.5850611464e+02 +7.5241474218e+01 -4.6789551693e+02 8.1130622901e+02 0.0000000000e+00 0.0000e+00 -1.0000e+00
       13  1    1    2    0    0 +6.5850611464e+02 -7.5241474218e+01 -4.1004060904e+02 7.7937467467e+02 0.0000000000e+00 0.0000e+00 1.0000e+00
<mgrwt>
<rscale>  0 0.13264592E+04</rscale>
<asrwt>0</asrwt>
<pdfrwt beam="1">  1        2 0.54826522E-01 0.13264592E+04</pdfrwt>
<pdfrwt beam="2">  1       -2 0.18989361E+00 0.13264592E+04</pdfrwt>
<totfact> 0.15113850E+01</totfact>
</mgrwt>
<rwgt>
<wgt id='morphing_basis_vector_1'> +1.6589722e-04 </wgt>
<wgt id='morphing_basis_vector_2'> +1.1927106e-04 </wgt>
<wgt id='morphing_basis_vector_3'> +1.7015887e-04 </wgt>
<wgt id='morphing_basis_vector_4'> +9.9168448e-05 </wgt>
<wgt id='morphing_basis_vector_5'> +1.7149012e-04 </wgt>
</rwgt>
</event>
<event>
 4      1 +3.5234200e-07 1.37704200e+03 7.81860800e-03 8.39016200e-02
        2 -1    0    0  501    0 +0.0000000000e+00 +0.0000000000e+00 +1.4134658164e+03 1.4134658164e+03 0.0000000000e+00 0.0000e+00 1.0000e+00
       -2 -1    0    0    0  501 -0.0000000000e+00 -0.0000000000e+00 -3.3538915717e+02 3.3538915717e+02 0.0000000000e+00 0.0000e+00 -1.0000e+00
      -13  1    1    2    0    0 -2.7569506376e+02 -5.6478567791e+02 +1.8191861917e+02 6.5428206009e+02 0.0000000000e+00 0.0000e+00 -1.0000e+00
       13  1    1    2    0    0 +2.7569506376e+02 +5.6478567791e+02 +8.9615804008e+02 1.0945729135e+03 0.0000000000e+00 0.0000e+00 1.0000e+00
<mgrwt>
<rscale>  0 0.13770419E+04</rscale>
<asrwt>0</asrwt>
<pdfrwt beam="1">  1        2 0.21745628E+00 0.13770419E+04</pdfrwt>
<pdfrwt beam="2">  1       -2 0.51598333E-01 0.13770419E+04</pdfrwt>
<totfact> 0.61964829E+01</totfact>
</mgrwt>
<rwgt>
<wgt id='morphing_basis_vector_1'> +1.8684828e-04 </wgt>
<wgt id='morphing_basis_vector_2'> +1.2429794e-04 </wgt>
<wgt id='morphing_basis_vector_3'> +1.9188342e-04 </wgt>
<wgt id='morphing_basis_vector_4'> +1.2426044e-04 </wgt>
<wgt id='morphing_basis_vector_5'> +2.0112681e-04 </wgt>
</rwgt>
</event>
<event>
 4      1 +3.5234200e-07 1.34648800e+03 7.81860800e-03 8.41012100e-02
        2 -1    0    0  501    0 +0.0000000000e+00 +0.0000000000e+00 +1.0255277329e+03 1.0255277329e+03 0.0000000000e+00 0.0000e+00 -1.0000e+00
       -2 -1    0    0    0  501 -0.0000000000e+00 -0.0000000000e+00 -4.4197492456e+02 4.4197492456e+02 0.0000000000e+00 0.0000e+00 1.0000e+00
      -13  1    1    2    0    0 +6.0964187434e+02 -1.1265760559e+02 +5.6920160540e+00 6.1998979838e+02 0.0000000000e+00 0.0000e+00 1.0000e+00
       13  1    1    2    0    0 -6.0964187434e+02 +1.1265760559e+02 +5.7786079228e+02 8.4751285908e+02 0.0000000000e+00 0.0000e+00 -1.0000e+00
<mgrwt>
<rscale>  0 0.13464881E+04</rscale>
<asrwt>0</asrwt>
<pdfrwt beam="1">  1        2 0.15777350E+00 0.13464881E+04</pdfrwt>
<pdfrwt beam="2">  1       -2 0.67996142E-01 0.13464881E+04</pdfrwt>
<totfact> 0.59517659E+01</totfact>
</mgrwt>
<rwgt>
<wgt id='morphing_basis_vector_1'> +1.7156900e-04 </wgt>
<wgt id='morphing_basis_vector_2'> +1.1415438e-04 </wgt>
<wgt id='morphing_basis_vector_3'> +1.7560168e-04 </wgt>
<wgt id='morphing_basis_vector_4'> +1.1297276e-04 </wgt>
<wgt id='morphing_basis_vector_5'> +1.8311597e-04 </wgt>
</rwgt>
</event>
<event>
 4      1 +3.5234200e-07 1.31362200e+03 7.81860800e-03 8.43221800e-02
        2 -1    0    0  501    0 +0.0000000000e+00 +0.0000000000e+00 +4.8984070152e+03 4.8984070152e+03 0.0000000000e+00 0.0000e+00 -1.0000e+00
       -2 -1    0    0    0  501 -0.0000000000e+00 -0.0000000000e+00 -8.8069586896e+01 8.8069586896e+01 0.0000000000e+00 0.0000e+00 1.0000e+00
      -13  1    1    2    0    0 +3.6490990273e+02 -5.2718237885e+02 +1.8640566700e+03 1.9712401596e+03 0.0000000000e+00 0.0000e+00 1.0000e+00
       13  1    1    2    0    0 -3.6490990273e+02 +5.2718237885e+02 +2.9462807583e+03 3.0152364425e+03 0.0000000000e+00 0.0000e+00 -1.0000e+00
<mgrwt>
<rscale>  0 0.13136220E+04</rscale>
<asrwt>0</asrwt>
<pdfrwt beam="1">  1        2 0.75360087E+00 0.13136220E+04</pdfrwt>
<pdfrwt beam="2">  1       -2 0.13549171E-01 0.13136220E+04</pdfrwt>
<totfact> 0.18045767E+00</totfact>
</mgrwt>
<rwgt>
<wgt id='morphing_basis_vector_1'> +1.5739568e-04 </wgt>
<wgt id='morphing_basis_vector_2'> +1.0748970e-04 </wgt>
<wgt id='morphing_basis_vector_3'> +1.6069790e-04 </wgt>
<wgt id='morphing_basis_vector_4'> +9.9594482e-05 </wgt>
<wgt id='morphing_basis_vector_5'> +1.6495489e-04 </wgt>
</rwgt>
</event>
<event>
 4      1 +3.5234200e-07 1.40711700e+03 7.81860800e-03 8.37103600e-02
        2 -1    0    0  501    0 +0.0000000000e+00 +0.0000000000e+00 +3.8140688540e+02 3.8140688540e+02 0.0000000000e+00 0.0000e+00 1.0000e+00
       -2 -1    0    0    0  501 -0.0000000000e+00 -0.0000000000e+00 -1.2978128725e+03 1.2978128725e+03 0.0000000000e+00 0.0000e+00 -1.0000e+00
      -13  1    1    2    0    0 +5.3220790189e+02 +2.1628496430e+02 -9.4291095914e+02 1.1041311125e+03 0.0000000000e+00 0.0000e+00 -1.0000e+00
       13  1    1    2    0    0 -5.3220790189e+02 -2.1628496430e+02 +2.6504972020e+01 5.7508864548e+02 0.0000000000e+00 0.0000e+00 1.0000e+00
<mgrwt>
<rscale>  0 0.14071173E+04</rscale>
<asrwt>0</asrwt>
<pdfrwt beam="1">  1        2 0.58677982E-01 0.14071173E+04</pdfrwt>
<pdfrwt beam="2">  1       -2 0.19966352E+00 0.14071173E+04</pdfrwt>
<totfact> 0.11778168E+01</totfact>
</mgrwt>
<rwgt>
<wgt id='morphing_basis_vector_1'> +2.0217157e-04 </wgt>
<wgt id='morphing_basis_vector_2'> +1.3282406e-04 </wgt>
<wgt id='morphing_basis_vector_3'> +2.0809616e-04 </wgt>
<wgt id='morphing_basis_vector_4'> +1.3746035e-04 </wgt>
<wgt id='morphing_basis_vector_5'> +2.2019752e-04 </wgt>
</rwgt>
</event>
<event>
 4      1 +3.5234200e-07 1.36924600e+03 7.81860800e-03 8.39520300e-02
        2 -1    0    0  501    0 +0.0000000000e+00 +0.0000000000e+00 +1.2791270473e+03 1.2791270473e+03 0.0000000000e+00 0.0000e+00 1.0000e+00
       -2 -1    0    0    0  501 -0.0000000000e+00 -0.0000000000e+00 -3.6642855519e+02 3.6642855519e+02 0.0000000000e+00 0.0000e+00 -1.0000e+00
      -13  1    1    2    0    0 +6.4599898431e+02 -1.3130162746e+02 +2.3424797973e+02 6.9959053818e+02 0.0000000000e+00 0.0000e+00 1.0000e+00
       13  1    1    2    0    0 -6.4599898431e+02 +1.3130162746e+02 +6.7845051235e+02 9.4596506427e+02 0.0000000000e+00 0.0000e+00 -1.0000e+00
<mgrwt>
<rscale>  0 0.13692460E+04</rscale>
<asrwt>0</asrwt>
<pdfrwt beam="1">  1        2 0.19678877E+00 0.13692460E+04</pdfrwt>
<pdfrwt beam="2">  1       -2 0.56373625E-01 0.13692460E+04</pdfrwt>
<totfact> 0.61933083E+01</totfact>
</mgrwt>
<rwgt>
<wgt id='morphing_basis_vector_1'> +1.8389141e-04 </wgt>
<wgt id='morphing_basis_vector_2'> +1.2474534e-04 </wgt>
<wgt id='morphing_basis_vector_3'> +1.8891574e-04 </wgt>
<wgt id='morphing_basis_vector_4'> +1.1942724e-04 </wgt>
<wgt id='morphing_basis_vector_5'> +1.9627707e-04 </wgt>
</rwgt>
</event>
<event>
 4      1 +3.5234200e-07 1.29077700e+03 7.81860800e-03 8.44797900e-02
        2 -1    0    0  501    0 +0.0000000000e+00 +0.0000000000e+00 +4.4970891368e+02 4.4970891368e+02 0.0000000000e+00 0.0000e+00 -1.0000e+00
       -2 -1    0    0    0  501 -0.0000000000e+00 -0.0000000000e+00 -9.2621313696e+02 9.2621313696e+02 0.0000000000e+00 0.0000e+00 1.0000e+00
      -13  1    1    2    0    0 +2.1012762287e+02 -5.7104116676e+02 -4.6758229189e+02 7.6738180309e+02 0.0000000000e+00 0.0000e+00 1.0000e+00
       13  1    1    2    0    0 -2.1012762287e+02 +5.7104116676e+02 -8.9219313835e+00 6.0854024755e+02 0.0000000000e+00 0.0000e+00 -1.0000e+00
<mgrwt>
<rscale>  0 0.12907770E+04</rscale>
<asrwt>0</asrwt>
<pdfrwt beam="1">  1        2 0.69185987E-01 0.12907770E+04</pdfrwt>
<pdfrwt beam="2">  1       -2 0.14249433E+00 0.12907770E+04</pdfrwt>
<totfact> 0.27613463E+01</totfact>
</mgrwt>
<rwgt>
<wgt id='morphing_basis_vector_1'> +1.4631838e-04 </wgt>
<wgt id='morphing_basis_vector_2'> +9.7710165e-05 </wgt>
<wgt id='morphing_basis_vector_3'> +1.4877416e-04 </wgt>
<wgt id='morphing_basis_vector_4'> +9.4119679e-05 </wgt>
<wgt id='morphing_basis_vector_5'> +1.5336195e-04 </wgt>
</rwgt>
</event>
<event>
 4      1 +3.5234200e-07 1.35312300e+03 7.81860800e-03 8.40574100e-02
        2 -1    0    0  501    0 +0.0000000000e+00 +0.0000000000e+00 +1.8978725701e+03 1.8978725701e+03 0.0000000000e+00 0.0000e+00 -1.0000e+00
       -2 -1    0    0    0  501 -0.0000000000e+00 -0.0000000000e+00 -2.4118343281e+02 2.4118343281e+02 0.0000000000e+00 0.0000e+00 1.0000e+00
      -13  1    1    2    0    0 +3.3809327822e+02 -5.3653809499e+02 +4.5574069025e+02 7.8094799372e+02 0.0000000000e+00 0.0000e+00 1.0000e+00
       13  1    1    2    0    0 -3.3809327822e+02 +5.3653809499e+02 +1.2009484470e+03 1.3581080092e+03 0.0000000000e+00 0.0000e+00 -1.0000e+00
<mgrwt>
<rscale>  0 0.13531229E+04</rscale>
<asrwt>0</asrwt>
<pdfrwt beam="1">  1        2 0.29198039E+00 0.13531229E+04</pdfrwt>
<pdfrwt beam="2">  1       -2 0.37105145E-01 0.13531229E+04</pdfrwt>
<totfact> 0.62536414E+01</totfact>
</mgrwt>
<rwgt>
<wgt id='morphing_basis_vector_1'> +1.7509911e-04 </wgt>
<wgt id='morphing_basis_vector_2'> +1.1718738e-04 </wgt>
<wgt id='morphing_basis_vector_3'> +1.7941161e-04 </wgt>
<wgt id='morphing_basis_vector_4'> +1.1482232e-04 </wgt>
<wgt id='morphing_basis_vector_5'> +1.8688307e-04 </wgt>
</rwgt>
</event>
<event>
 4      1 +3.5234200e-07 1.45399100e+03 7.81860800e-03 8.34219600e-02
        2 -1    0    0  501    0 +0.0000000000e+00 +0.0000000000e+00 +2.0415049047e+03 2.0415049047e+03 0.0000000000e+00 0.0000e+00 -1.0000e+00
       -2 -1    0    0    0  501 -0.0000000000e+00 -0.0000000000e+00 -2.5888851085e+02 2.5888851085e+02 0.0000000000e+00 0.0000e+00 1.0000e+00
      -13  1    1    2    0    0 +4.2875785837e+02 +5.7974519130e+02 +7.4472138424e+02 1.0366039398e+03 0.0000000000e+00 0.0000e+00 1.0000e+00
       13  1    1    2    0    0 -4.2875785837e+02 -5.7974519130e+02 +1.0378950096e+03 1.2637894757e+03 0.0000000000e+00 0.0000e+00 -1.0000e+00
<mgrwt>
<rscale>  0 0.14539906E+04</rscale>
<asrwt>0</asrwt>
<pdfrwt beam="1">  1        2 0.31407767E+00 0.14539906E+04</pdfrwt>
<pdfrwt beam="2">  1       -2 0.39829003E-01 0.14539906E+04</pdfrwt>
<totfact> 0.45189253E+01</totfact>
</mgrwt>
<rwgt>
<wgt id='morphing_basis_vector_1'> +2.3384140e-04 </wgt>
<wgt id='morphing_basis_vector_2'> +1.6456630e-04 </wgt>
<wgt id='morphing_basis_vector_3'> +2.4295011e-04 </wgt>
<wgt id='morphing_basis_vector_4'> +1.4914211e-04 </wgt>
<wgt id='morphing_basis_vector_5'> +2.5174802e-04 </wgt>
</rwgt>
</event>
<event>
 4      1 +3.5234200e-07 1.34143400e+03 7.81860800e-03 8.41347600e-02
        2 -1    0    0  501    0 +0.0000000000e+00 +0.0000000000e+00 +3.1140725238e+02 3.1140725238e+02 0.0000000000e+00 0.0000e+00 -1.0000e+00
       -2 -1    0    0    0  501 -0.0000000000e+00 -0.0000000000e+00 -1.4446072471e+03 1.4446072471e+03 0.0000000000e+00 0.0000e+00 1.0000e+00
      -13  1    1    2    0    0 +5.7363693964e+02 +1.8102754274e+02 -9.5499740966e+02 1.1286497961e+03 0.0000000000e+00 0.0000e+00 1.0000e+00
       13  1    1    2    0    0 -5.7363693964e+02 -1.8102754274e+02 -1.7820258506e+02 6.2736470340e+02 0.0000000000e+00 0.0000e+00 -1.0000e+00
<mgrwt>
<rscale>  0 0.13414338E+04</rscale>
<asrwt>0</asrwt>
<pdfrwt beam="1">  1        2 0.47908808E-01 0.13414338E+04</pdfrwt>
<pdfrwt beam="2">  1       -2 0.22224727E+00 0.13414338E+04</pdfrwt>
<totfact> 0.10242136E+01</totfact>
</mgrwt>
<rwgt>
<wgt id='morphing_basis_vector_1'> +1.6883746e-04 </wgt>
<wgt id='morphing_basis_vector_2'> +1.1164523e-04 </wgt>
<wgt id='morphing_basis_vector_3'> +1.7264457e-04 </wgt>
<wgt id='morphing_basis_vector_4'> +1.1171862e-04 </wgt>
<wgt id='morphing_basis_vector_5'> +1.8029415e-04 </wgt>
</rwgt>
</event>
<event>
 4      1 +3.5234200e-07 1.29201900e+03 7.81860800e-03 8.44711300e-02
        2 -1    0    0  501    0 +0.0000000000e+00 +0.0000000000e+00 +3.5733370966e+03 3.5733370966e+03 0.0000000000e+00 0.0000e+00 -1.0000e+00
       -2 -1    0    0    0  501 -0.0000000000e+00 -0.0000000000e+00 -1.1678951030e+02 1.1678951030e+02 0.0000000000e+00 0.0000e+00 1.0000e+00
      -13  1    1    2    0    0 -1.0982873409e+02 +5.7861459231e+02 +2.4864634584e+03 2.5552607944e+03 0.0000000000e+00 0.0000e+00 1.0000e+00
       13  1    1    2    0    0 +1.0982873409e+02 -5.7861459231e+02 +9.7008412794e+02 1.1348658126e+03 0.0000000000e+00 0.0000e+00 -1.0000e+00
<mgrwt>
<rscale>  0 0.12920190E+04</rscale>
<asrwt>0</asrwt>
<pdfrwt beam="1">  1        2 0.54974408E+00 0.12920190E+04</pdfrwt>
<pdfrwt beam="2">  1       -2 0.17967620E-01 0.12920190E+04</pdfrwt>
<totfact> 0.19896833E+01</totfact>
</mgrwt>
<rwgt>
<wgt id='morphing_basis_vector_1'> +1.6603822e-04 </wgt>
<wgt id='morphing_basis_vector_2'> +1.5553916e-04 </wgt>
<wgt id='morphing_basis_vector_3'> +1.7232542e-04 </wgt>
<wgt id='morphing_basis_vector_4'> +6.0510687e-05 </wgt>
<wgt id='morphing_basis_vector_5'> +1.5159357e-04 </wgt>
</rwgt>
</event>
<event>
 4      1 +3.5234200e-07 1.29640400e+03 7.81860800e-03 8.44406600e-02
        2 -1    0    0  501    0 +0.0000000000e+00 +0.0000000000e+00 +1.0898022629e+03 1.0898022629e+03 0.0000000000e+00 0.0000e+00 -1.0000e+00
       -2 -1    0    0    0  501 -0.0000000000e+00 -0.0000000000e+00 -3.8554306988e+02 3.8554306988e+02 0.0000000000e+00 0.0000e+00 1.0000e+00
      -13  1    1    2    0    0 +3.1662488297e+02 -1.5467532147e+02 -2.6701467977e+02 4.4212284582e+02 0.0000000000e+00 0.0000e+00 1.0000e+00
       13  1    1    2    0    0 -3.1662488297e+02 +1.5467532147e+02 +9.7127387276e+02 1.0332224869e+03 0.0000000000e+00 0.0000e+00 -1.0000e+00
<mgrwt>
<rscale>  0 0.12964038E+04</rscale>
<asrwt>0</asrwt>
<pdfrwt beam="1">  1        2 0.16766189E+00 0.12964038E+04</pdfrwt>
<pdfrwt beam="2">  1       -2 0.59314319E-01 0.12964038E+04</pdfrwt>
<totfact> 0.72551214E+01</totfact>
</mgrwt>
<rwgt>
<wgt id='morphing_basis_vector_1'> +1.4737149e-04 </wgt>
<wgt id='morphing_basis_vector_2'> +9.5211413e-05 </wgt>
<wgt id='morphing_basis_vector_3'> +1.4970174e-04 </wgt>
<wgt id='morphing_basis_vector_4'> +9.8321885e-05 </wgt>
<wgt id='morphing_basis_vector_5'> +1.5636202e-04 </wgt>
</rwgt>
</event>
<event>
 4      1 +3.5234200e-07 1.38557500e+03 7.81860800e-03 8.38468400e-02
        2 -1    0    0  501    0 +0.0000000000e+00 +0.0000000000e+00 +1.1032251309e+03 1.1032251309e+03 0.0000000000e+00 0.0000e+00 -1.0000e+00
       -2 -1    0    0    0  501 -0.0000000000e+00 -0.0000000000e+00 -4.3504655814e+02 4.3504655814e+02 0.0000000000e+00 0.0000e+00 1.0000e+00
      -13  1    1    2    0    0 -3.6485339008e+02 -5.8730184400e+02 +3.8264528247e+02 7.9022709673e+02 0.0000000000e+00 0.0000e+00 1.0000e+00
       13  1    1    2    0    0 +3.6485339008e+02 +5.8730184400e+02 +2.8553329028e+02 7.4804459230e+02 0.0000000000e+00 0.0000e+00 -1.0000e+00
<mgrwt>
<rscale>  0 0.13855747E+04</rscale>
<asrwt>0</asrwt>
<pdfrwt beam="1">  1        2 0.16972694E+00 0.13855747E+04</pdfrwt>
<pdfrwt beam="2">  1       -2 0.66930240E-01 0.13855747E+04</pdfrwt>
<totfact> 0.55028667E+01</totfact>
</mgrwt>
<rwgt>
<wgt id='morphing_basis_vector_1'> +1.9863300e-04 </wgt>
<wgt id='morphing_basis_vector_2'> +1.4917817e-04 </wgt>
<wgt id='morphing_basis_vector_3'> +2.0582584e-04 </wgt>
<wgt id='morphing_basis_vector_4'> +1.1420860e-04 </wgt>
<wgt id='morphing_basis_vector_5'> +2.0541787e-04 </wgt>
</rwgt>
</event>
<event>
 4      1 +3.5234200e-07 1.30415800e+03 7.81860800e-03 8.43870700e-02
        2 -1    0    0  501    0 +0.0000000000e+00 +0.0000000000e+00 +2.3405079562e+03 2.3405079562e+03 0.0000000000e+00 0.0000e+00 1.0000e+00
       -2 -1    0    0    0  501 -0.0000000000e+00 -0.0000000000e+00 -1.8167284055e+02 1.8167284055e+02 0.0000000000e+00 0.0000e+00 -1.0000e+00
      -13  1    1    2    0    0 +5.1009907203e+02 -3.4339034249e+01 +2.9664025169e+02 5.9108008889e+02 0.0000000000e+00 0.0000e+00 -1.0000e+00
       13  1    1    2    0    0 -5.1009907203e+02 +3.4339034249e+01 +1.8621948639e+03 1.9311007079e+03 0.0000000000e+00 0.0000e+00 1.0000e+00
<mgrwt>
<rscale>  0 0.13041575E+04</rscale>
<asrwt>0</asrwt>
<pdfrwt beam="1">  1        2 0.36007813E+00 0.13041575E+04</pdfrwt>
<pdfrwt beam="2">  1       -2 0.27949669E-01 0.13041575E+04</pdfrwt>
<totfact> 0.58629035E+01</totfact>
</mgrwt>
<rwgt>
<wgt id='morphing_basis_vector_1'> +1.5104478e-04 </wgt>
<wgt id='morphing_basis_vector_2'> +9.8307311e-05 </wgt>
<wgt id='morphing_basis_vector_3'> +1.5363729e-04 </wgt>
<wgt id='morphing_basis_vector_4'> +1.0030346e-04 </wgt>
<wgt id='morphing_basis_vector_5'> +1.6028841e-04 </wgt>
</rwgt>
</event>
<event>
 4      1 +3.5234200e-07 1.33519100e+03 7.81860800e-03 8.41764100e-02
        2 -1    0    0  501    0 +0.0000000000e+00 +0.0000000000e+00 +3.1346878607e+03 3.1346878607e+03 0.0000000000e+00 0.0000e+00 1.0000e+00
       -2 -1    0    0    0  501 -0.0000000000e+00 -0.0000000000e+00 -1.4217813758e+02 1.4217813758e+02 0.0000000000e+00 0.0000e+00 -1.0000e+00
      -13  1    1    2    0    0 -2.0289761984e+02 +4.1835767679e+02 +3.2054459105e+02 5.6474722197e+02 0.0000000000e+00 0.0000e+00 -1.0000e+00
       13  1    1    2    0    0 +2.0289761984e+02 -4.1835767679e+02 +2.6719651321e+03 2.7121187763e+03 0.0000000000e+00 0.0000e+00 1.0000e+00
<mgrwt>
<rscale>  0 0.13351915E+04</rscale>
<asrwt>0</asrwt>
<pdfrwt beam="1">  1        2 0.48225962E+00 0.13351915E+04</pdfrwt>
<pdfrwt beam="2">  1       -2 0.21873562E-01 0.13351915E+04</pdfrwt>
<totfact> 0.28840277E+01</totfact>
</mgrwt>
<rwgt>
<wgt id='morphing_basis_vector_1'> +1.6505705e-04 </wgt>
<wgt id='morphing_basis_vector_2'> +1.0724403e-04 </wgt>
<wgt id='morphing_basis_vector_3'> +1.6849165e-04 </wgt>
<wgt id='morphing_basis_vector_4'> +1.1099208e-04 </wgt>
<wgt id='morphing_basis_vector_5'> +1.7691114e-04 </wgt>
</rwgt>
</event>
<event>
 4      1 +3.5234200e-07 1.32372100e+03 7.81860800e-03 8.42535700e-02
        2 -1    0    0  501    0 +0.0000000000e+00 +0.0000000000e+00 +1.8307506330e+03 1.8307506330e+03 0.0000000000e+00 0.0000e+00 -1.0000e+00
       -2 -1    0    0    0  501 -0.0000000000e+00 -0.0000000000e+00 -2.3927850497e+02 2.3927850497e+02 0.0000000000e+00 0.0000e+00 1.0000e+00
      -13  1    1    2    0    0 +4.9395634896e+02 +2.3280379605e+01 +1.0780025760e+02 5.0611831254e+02 0.0000000000e+00 0.0000e+00 1.0000e+00
       13  1    1    2    0    0 -4.9395634896e+02 -2.3280379605e+01 +1.4836718704e+03 1.5639108254e+03 0.0000000000e+00 0.0000e+00 -1.0000e+00
<mgrwt>
<rscale>  0 0.13237209E+04</rscale>
<asrwt>0</asrwt>
<pdfrwt beam="1">  1        2 0.28165393E+00 0.13237209E+04</pdfrwt>
<pdfrwt beam="2">  1       -2 0.36812079E-01 0.13237209E+04</pdfrwt>
<totfact> 0.69318622E+01</totfact>
</mgrwt>
<rwgt>
<wgt id='morphing_basis_vector_1'> +1.5978937e-04 </wgt>
<wgt id='morphing_basis_vector_2'> +1.0393791e-04 </wgt>
<wgt id='morphing_basis_vector_3'> +1.6290835e-04 </wgt>
<wgt id='morphing_basis_vector_4'> +1.0690840e-04 </wgt>
<wgt id='morphing_basis_vector_5'> +1.7062288e-04 </wgt>
</rwgt>
</event>
<event>
 4      1 +3.5234200e-07 1.40158400e+03 7.81860800e-03 8.37451700e-02
        2 -1    0    0  501    0 +0.0000000000e+00 +0.0000000000e+00 +1.0090750019e+03 1.0090750019e+03 0.0000000000e+00 0.0000e+00 1.0000e+00
       -2 -1    0    0    0  501 -0.0000000000e+00 -0.0000000000e+00 -4.8669293918e+02 4.8669293918e+02 0.0000000000e+00 0.0000e+00 -1.0000e+00
      -13  1    1    2    0    0 -2.7723103282e+02 +5.0084763314e+02 +6.9258760776e+02 8.9854493021e+02 0.0000000000e+00 0.0000e+00 1.0000e+00
       13  1    1    2    0    0 +2.7723103282e+02 -5.0084763314e+02 -1.7020554501e+02 5.9722301089e+02 0.0000000000e+00 0.0000e+00 -1.0000e+00
<mgrwt>
<rscale>  0 0.14015844E+04</rscale>
<asrwt>0</asrwt>
<pdfrwt beam="1">  1        2 0.15524231E+00 0.14015844E+04</pdfrwt>
<pdfrwt beam="2">  1       -2 0.74875837E-01 0.14015844E+04</pdfrwt>
<totfact> 0.49268953E+01</totfact>
</mgrwt>
<rwgt>
<wgt id='morphing_basis_vector_1'> +2.4267749e-04 </wgt>
<wgt id='morphing_basis_vector_2'> +2.6084993e-04 </wgt>
<wgt id='morphing_basis_vector_3'> +2.5981234e-04 </wgt>
<wgt id='morphing_basis_vector_4'> +5.5713162e-05 </wgt>
<wgt id='morphing_basis_vector_5'> +2.1084210e-04 </wgt>
</rwgt>
</event>
<event>
 4      1 +3.5234200e-07 1.51614500e+03 7.81860800e-03 8.30564800e-02
        2 -1    0    0  501    0 +0.0000000000e+00 +0.0000000000e+00 +2.9836998321e+02 2.9836998321e+02 0.0000000000e+00 0.0000e+00 -1.0000e+00
       -2 -1    0    0    0  501 -0.0000000000e+00 -0.0000000000e+00 -1.9260455867e+03 1.9260455867e+03 0.0000000000e+00 0.0000e+00 1.0000e+00
      -13  1    1    2    0    0 +5.2840301060e+02 -5.8879839629e+01 -1.6066397974e+03 1.6923262144e+03 0.0000000000e+00 0.0000e+00 1.0000e+00
       13  1    1    2    0    0 -5.2840301060e+02 +5.8879839629e+01 -2.1035806043e+01 5.3208935552e+02 0.0000000000e+00 0.0000e+00 -1.0000e+00
<mgrwt>
<rscale>  0 0.15161454E+04</rscale>
<asrwt>0</asrwt>
<pdfrwt beam="1">  1        2 0.45903073E-01 0.15161454E+04</pdfrwt>
<pdfrwt beam="2">  1       -2 0.29631471E+00 0.15161454E+04</pdfrwt>
<totfact> 0.32695070E+00</totfact>
</mgrwt>
<rwgt>
<wgt id='morphing_basis_vector_1'> +2.6901724e-04 </wgt>
<wgt id='morphing_basis_vector_2'> +1.7672305e-04 </wgt>
<wgt id='morphing_basis_vector_3'> +2.7956952e-04 </wgt>
<wgt id='morphing_basis_vector_4'> +1.8819501e-04 </wgt>
<wgt id='morphing_basis_vector_5'> +3.0028847e-04 </wgt>
</rwgt>
</event>
<event>
 4      1 +3.5234200e-07 1.43271400e+03 7.81860800e-03 8.35514500e-02
        2 -1    0    0  501    0 +0.0000000000e+00 +0.0000000000e+00 +1.8632095700e+03 1.8632095700e+03 0.0000000000e+00 0.0000e+00 1.0000e+00
       -2 -1    0    0    0  501 -0.0000000000e+00 -0.0000000000e+00 -2.7542102619e+02 2.7542102619e+02 0.0000000000e+00 0.0000e+00 -1.0000e+00
      -13  1    1    2    0    0 -5.8058341974e+02 -1.1530150751e+02 +1.9161538180e+02 6.2216396509e+02 0.0000000000e+00 0.0000e+00 -1.0000e+00
       13  1    1    2    0    0 +5.8058341974e+02 +1.1530150751e+02 +1.3961731620e+03 1.5164666311e+03 0.0000000000e+00 0.0000e+00 1.0000e+00
<mgrwt>
<rscale>  0 0.14327136E+04</rscale>
<asrwt>0</asrwt>
<pdfrwt beam="1">  1        2 0.28664762E+00 0.14327136E+04</pdfrwt>
<pdfrwt beam="2">  1       -2 0.42372467E-01 0.14327136E+04</pdfrwt>
<totfact> 0.50701178E+01</totfact>
</mgrwt>
<rwgt>
<wgt id='morphing_basis_vector_1'> +2.1672720e-04 </wgt>
<wgt id='morphing_basis_vector_2'> +1.4272892e-04 </wgt>
<wgt id='morphing_basis_vector_3'> +2.2366245e-04 </wgt>
<wgt id='morphing_basis_vector_4'> +1.4805463e-04 </wgt>
<wgt id='morphing_basis_vector_5'> +2.3735194e-04 </wgt>
</rwgt>
</event>
<event>
 4      1 +3.5234200e-07 1.32604100e+03 7.81860800e-03 8.42379000e-02
        2 -1    0    0  501    0 +0.0000000000e+00 +0.0000000000e+00 +1.9739076862e+03 1.9739076862e+03 0.0000000000e+00 0.0000e+00 1.0000e+00
       -2 -1    0    0    0  501 -0.0000000000e+00 -0.0000000000e+00 -2.2270356322e+02 2.2270356322e+02 0.0000000000e+00 0.0000e+00 -1.0000e+00
      -13  1    1    2    0    0 +2.5163365962e+02 -5.7960756017e+02 +5.4292696450e+02 8.3308709703e+02 0.0000000000e+00 0.0000e+00 -1.0000e+00
       13  1    1    2    0    0 -2.5163365962e+02 +5.7960756017e+02 +1.2082771585e+03 1.3635241524e+03 0.0000000000e+00 0.0000e+00 1.0000e+00
<mgrwt>
<rscale>  0 0.13260411E+04</rscale>
<asrwt>0</asrwt>
<pdfrwt beam="1">  1        2 0.30367809E+00 0.13260411E+04</pdfrwt>
<pdfrwt beam="2">  1       -2 0.34262088E-01 0.13260411E+04</pdfrwt>
<totfact> 0.65748064E+01</totfact>
</mgrwt>
<rwgt>
<wgt id='morphing_basis_vector_1'> +1.6239198e-04 </wgt>
<wgt id='morphing_basis_vector_2'> +1.0923183e-04 </wgt>
<wgt id='morphing_basis_vector_3'> +1.6591360e-04 </wgt>
<wgt id='morphing_basis_vector_4'> +1.0495507e-04 </wgt>
<wgt id='morphing_basis_vector_5'> +1.7168444e-04 </wgt>
</rwgt>
</event>
<event>
 4      1 +3.5234200e-07 1.34778100e+03 7.81860800e-03 8.40926600e-02
        2 -1    0    0  501    0 +0.0000000000e+00 +0.0000000000e+00 +1.5936843141e+03 1.5936843141e+03 0.0000000000e+00 0.0000e+00 -1.0000e+00
       -2 -1    0    0    0  501 -0.0000000000e+00 -0.0000000000e+00 -2.8495489526e+02 2.8495489526e+02 0.0000000000e+00 0.0000e+00 1.0000e+00
      -13  1    1    2    0    0 +1.7368892221e+02 +6.1850646118e+02 +3.7071841131e+02 7.4172112327e+02 0.0000000000e+00 0.0000e+00 1.0000e+00
       13  1    1    2    0    0 -1.7368892221e+02 -6.1850646118e+02 +9.3801100749e+02 1.1369180861e+03 0.0000000000e+00 0.0000e+00 -1.0000e+00
<mgrwt>
<rscale>  0 0.13477806E+04</rscale>
<asrwt>0</asrwt>
<pdfrwt beam="1">  1        2 0.24518220E+00 0.13477806E+04</pdfrwt>
<pdfrwt beam="2">  1       -2 0.43839216E-01 0.13477806E+04</pdfrwt>
<totfact> 0.67560109E+01</totfact>
</mgrwt>
<rwgt>
<wgt id='morphing_basis_vector_1'> +1.7281801e-04 </wgt>
<wgt id='morphing_basis_vector_2'> +1.1643256e-04 </wgt>
<wgt id='morphing_basis_vector_3'> +1.7703599e-04 </wgt>
<wgt id='morphing_basis_vector_4'> +1.1231292e-04 </wgt>
<wgt id='morphing_basis_vector_5'> +1.8377256e-04 </wgt>
</rwgt>
</event>
<event>
 4      1 +3.5234200e-07 1.39669300e+03 7.81860800e-03 8.37760800e-02
        2 -1    0    0  501    0 +0.0000000000e+00 +0.0000000000e+00 +2.5608807616e+02 2.5608807616e+02 0.0000000000e+00 0.0000e+00 -1.0000e+00
       -2 -1    0    0    0  501 -0.0000000000e+00 -0.0000000000e+00 -1.9043760871e+03 1.9043760871e+03 0.0000000000e+00 0.0000e+00 1.0000e+00
      -13  1    1    2    0    0 +4.7600005255e+02 +4.2282484387e+02 -1.2679856183e+03 1.4188532084e+03 0.0000000000e+00 0.0000e+00 1.0000e+00
       13  1    1    2    0    0 -4.7600005255e+02 -4.2282484387e+02 -3.8030239266e+02 7.4161095493e+02 0.0000000000e+00 0.0000e+00 -1.0000e+00
<mgrwt>
<rscale>  0 0.13966932E+04</rscale>
<asrwt>0</asrwt>
<pdfrwt beam="1">  1        2 0.39398167E-01 0.13966932E+04</pdfrwt>
<pdfrwt beam="2">  1       -2 0.29298093E+00 0.13966932E+04</pdfrwt>
<totfact> 0.41372447E+00</totfact>
</mgrwt>
<rwgt>
<wgt id='morphing_basis_vector_1'> +1.9726907e-04 </wgt>
<wgt id='morphing_basis_vector_2'> +1.3135423e-04 </wgt>
<wgt id='morphing_basis_vector_3'> +2.0301314e-04 </wgt>
<wgt id='morphing_basis_vector_4'> +1.3183859e-04 </wgt>
<wgt id='morphing_basis_vector_5'> +2.1337462e-04 </wgt>
</rwgt>
</event>
<event>
 4      1 +3.5234200e-07 1.39698200e+03 7.81860800e-03 8.37742500e-02
        2 -1    0    0  501    0 +0.0000000000e+00 +0.0000000000e+00 +1.1688672310e+03 1.1688672310e+03 0.0000000000e+00 0.0000e+00 -1.0000e+00
       -2 -1    0    0    0  501 -0.0000000000e+00 -0.0000000000e+00 -4.1740400113e+02 4.1740400113e+02 0.0000000000e+00 0.0000e+00 1.0000e+00
      -13  1    1    2    0    0 -4.0445380563e+02 -1.2851446571e+02 -2.5423063062e+02 4.9470401487e+02 0.0000000000e+00 0.0000e+00 1.0000e+00
       13  1    1    2    0    0 +4.0445380563e+02 +1.2851446571e+02 +1.0056938605e+03 1.0915672173e+03 0.0000000000e+00 0.0000e+00 -1.0000e+00
<mgrwt>
<rscale>  0 0.13969823E+04</rscale>
<asrwt>0</asrwt>
<pdfrwt beam="1">  1        2 0.17982573E+00 0.13969823E+04</pdfrwt>
<pdfrwt beam="2">  1       -2 0.64216001E-01 0.13969823E+04</pdfrwt>
<totfact> 0.54819581E+01</totfact>
</mgrwt>
<rwgt>
<wgt id='morphing_basis_vector_1'> +1.9617959e-04 </wgt>
<wgt id='morphing_basis_vector_2'> +1.2773791e-04 </wgt>
<wgt id='morphing_basis_vector_3'> +2.0161074e-04 </wgt>
<wgt id='morphing_basis_vector_4'> +1.3422532e-04 </wgt>
<wgt id='morphing_basis_vector_5'> +2.1372350e-04 </wgt>
</rwgt>
</event>
<event>
 4      1 +3.5234200e-07 1.44471000e+03 7.81860800e-03 8.34781600e-02
        2 -1    0    0  501    0 +0.0000000000e+00 +0.0000000000e+00 +7.9861929220e+02 7.9861929220e+02 0.0000000000e+00 0.0000e+00 1.0000e+00
       -2 -1    0    0    0  501 -0.0000000000e+00 -0.0000000000e+00 -6.5337359424e+02 6.5337359424e+02 0.0000000000e+00 0.0000e+00 -1.0000e+00
      -13  1    1    2    0    0 -3.1563096960e+02 -3.9310426105e+02 -4.4732724266e+02 6.7398481515e+02 0.0000000000e+00 0.0000e+00 -1.0000e+00
       13  1    1    2    0    0 +3.1563096960e+02 +3.9310426105e+02 +5.9257294063e+02 7.7800807129e+02 0.0000000000e+00 0.0000e+00 1.0000e+00
<mgrwt>
<rscale>  0 0.14447100E+04</rscale>
<asrwt>0</asrwt>
<pdfrwt beam="1">  1        2 0.12286451E+00 0.14447100E+04</pdfrwt>
<pdfrwt beam="2">  1       -2 0.10051901E+00 0.14447100E+04</pdfrwt>
<totfact> 0.34132933E+01</totfact>
</mgrwt>
<rwgt>
<wgt id='morphing_basis_vector_1'> +2.2334116e-04 </wgt>
<wgt id='morphing_basis_vector_2'> +1.4613865e-04 </wgt>
<wgt id='morphing_basis_vector_3'> +2.3064154e-04 </wgt>
<wgt id='morphing_basis_vector_4'> +1.5410012e-04 </wgt>
<wgt id='morphing_basis_vector_5'> +2.4578777e-04 </wgt>
</rwgt>
</event>
<event>
 4      1 +3.5234200e-07 1.29701200e+03 7.81860800e-03 8.44364400e-02
        2 -1    0    0  501    0 +0.0000000000e+00 +0.0000000000e+00 +1.1138040429e+03 1.1138040429e+03 0.0000000000e+00 0.0000e+00 -1.0000e+00
       -2 -1    0    0    0  501 -0.0000000000e+00 -0.0000000000e+00 -3.7758867451e+02 3.7758867451e+02 0.0000000000e+00 0.0000e+00 1.0000e+00
      -13  1    1    2    0    0 -1.8782456847e+02 +3.3769165645e+02 -2.3075861487e+02 4.5007028528e+02 0.0000000000e+00 0.0000e+00 1.0000e+00
       13  1    1    2    0    0 +1.8782456847e+02 -3.3769165645e+02 +9.6697398328e+02 1.0413224322e+03 0.0000000000e+00 0.0000e+00 -1.0000e+00
<mgrwt>
<rscale>  0 0.12970116E+04</rscale>
<asrwt>0</asrwt>
<pdfrwt beam="1">  1        2 0.17135447E+00 0.12970116E+04</pdfrwt>
<pdfrwt beam="2">  1       -2 0.58090566E-01 0.12970116E+04</pdfrwt>
<totfact> 0.73231041E+01</totfact>
</mgrwt>
<rwgt>
<wgt id='morphing_basis_vector_1'> +1.4766050e-04 </wgt>
<wgt id='morphing_basis_vector_2'> +9.5462195e-05 </wgt>
<wgt id='morphing_basis_vector_3'> +1.5001165e-04 </wgt>
<wgt id='morphing_basis_vector_4'> +9.8470017e-05 </wgt>
<wgt id='morphing_basis_vector_5'> +1.5666679e-04 </wgt>
</rwgt>
</event>
<event>
 4      1 +3.5234200e-07 1.53034700e+03 7.81860800e-03 8.29755200e-02
        2 -1    0    0  501    0 +0.0000000000e+00 +0.0000000000e+00 +6.5334344253e+02 6.5334344253e+02 0.0000000000e+00 0.0000e+00 1.0000e+00
       -2 -1    0    0    0  501 -0.0000000000e+00 -0.0000000000e+00 -8.9614491723e+02 8.9614491723e+02 0.0000000000e+00 0.0000e+00 -1.0000e+00
      -13  1    1    2    0    0 -4.0062613055e+01 -2.0192607855e+02 +6.2477793388e+02 6.5781959596e+02 0.0000000000e+00 0.0000e+00 1.0000e+00
       13  1    1    2    0    0 +4.0062613055e+01 +2.0192607855e+02 -8.6757940858e+02 8.9166876381e+02 0.0000000000e+00 0.0000e+00 -1.0000e+00
<mgrwt>
<rscale>  0 0.15303469E+04</rscale>
<asrwt>0</asrwt>
<pdfrwt beam="1">  1        2 0.10051438E+00 0.15303469E+04</pdfrwt>
<pdfrwt beam="2">  1       -2 0.13786845E+00 0.15303469E+04</pdfrwt>
<totfact> 0.19240958E+01</totfact>
</mgrwt>
<rwgt>
<wgt id='morphing_basis_vector_1'> +3.8107114e-04 </wgt>
<wgt id='morphing_basis_vector_2'> +4.8777372e-04 </wgt>
<wgt id='morphing_basis_vector_3'> +4.2525830e-04 </wgt>
<wgt id='morphing_basis_vector_4'> +3.8056475e-06 </wgt>
<wgt id='morphing_basis_vector_5'> +2.9779960e-04 </wgt>
</rwgt>
</event>
<event>
 4      1 +3.5234200e-07 1.29124800e+03 7.81860800e-03 8.44765100e-02
        2 -1    0    0  501    0 +0.0000000000e+00 +0.0000000000e+00 +4.7396045504e+02 4.7396045504e+02 0.0000000000e+00 0.0000e+00 1.0000e+00
       -2 -1    0    0    0  501 -0.0000000000e+00 -0.0000000000e+00 -8.7946259691e+02 8.7946259691e+02 0.0000000000e+00 0.0000e+00 -1.0000e+00
      -13  1    1    2    0    0 +4.9165183430e+02 +2.0728242889e+02 +1.7826724226e+02 5.6255376735e+02 0.0000000000e+00 0.0000e+00 1.0000e+00
       13  1    1    2    0    0 -4.9165183430e+02 -2.0728242889e+02 -5.8376938412e+02 7.9086928461e+02 0.0000000000e+00 0.0000e+00 -1.0000e+00
<mgrwt>
<rscale>  0 0.12912482E+04</rscale>
<asrwt>0</asrwt>
<pdfrwt beam="1">  1        2 0.72916994E-01 0.12912482E+04</pdfrwt>
<pdfrwt beam="2">  1       -2 0.13530194E+00 0.12912482E+04</pdfrwt>
<totfact> 0.30019341E+01</totfact>
</mgrwt>
<rwgt>
<wgt id='morphing_basis_vector_1'> +1.7622743e-04 </wgt>
<wgt id='morphing_basis_vector_2'> +1.8683401e-04 </wgt>
<wgt id='morphing_basis_vector_3'> +1.8456189e-04 </wgt>
<wgt id='morphing_basis_vector_4'> +4.1642333e-05 </wgt>
<wgt id='morphing_basis_vector_5'> +1.4989962e-04 </wgt>
</rwgt>
</event>
<event>
 4      1 +3.5234200e-07 1.30648300e+03 7.81860800e-03 8.43710700e-02
        2 -1    0    0  501    0 +0.0000000000e+00 +0.0000000000e+00 +1.0352140957e+03 1.0352140957e+03 0.0000000000e+00 0.0000e+00 -1.0000e+00
       -2 -1    0    0    0  501 -0.0000000000e+00 -0.0000000000e+00 -4.1220883728e+02 4.1220883728e+02 0.0000000000e+00 0.0000e+00 1.0000e+00
      -13  1    1    2    0    0 -1.4303342736e+02 -5.4081624432e+02 -6.2204689582e+01 5.6285894758e+02 0.0000000000e+00 0.0000e+00 1.0000e+00
       13  1    1    2    0    0 +1.4303342736e+02 +5.4081624432e+02 +6.8520994803e+02 8.8456398545e+02 0.0000000000e+00 0.0000e+00 -1.0000e+00
<mgrwt>
<rscale>  0 0.13064829E+04</rscale>
<asrwt>0</asrwt>
<pdfrwt beam="1">  1        2 0.15926371E+00 0.13064829E+04</pdfrwt>
<pdfrwt beam="2">  1       -2 0.63416744E-01 0.13064829E+04</pdfrwt>
<totfact> 0.68180199E+01</totfact>
</mgrwt>
<rwgt>
<wgt id='morphing_basis_vector_1'> +1.5235608e-04 </wgt>
<wgt id='morphing_basis_vector_2'> +9.9836870e-05 </wgt>
<wgt id='morphing_basis_vector_3'> +1.5506992e-04 </wgt>
<wgt id='morphing_basis_vector_4'> +1.0055354e-04 </wgt>
<wgt id='morphing_basis_vector_5'> +1.6145527e-04 </wgt>
</rwgt>
</event>
<event>
 4      1 +3.5234200e-07 1.39507900e+03 7.81860800e-03 8.37863100e-02
        2 -1    0    0  501    0 +0.0000000000e+00 +0.0000000000e+00 +2.6173868436e+03 2.6173868436e+03 0.0000000000e+00 0.0000e+00 1.0000e+00
       -2 -1    0    0    0  501 -0.0000000000e+00 -0.0000000000e+00 -1.8589592916e+02 1.8589592916e+02 0.0000000000e+00 0.0000e+00 -1.0000e+00
      -13  1    1    2    0    0 -5.5526126420e+02 +4.2059100260e+02 +1.1419234177e+03 1.3376101655e+03 0.0000000000e+00 0.0000e+00 1.0000e+00
       13  1    1    2    0    0 +5.5526126420e+02 -4.2059100260e+02 +1.2895674967e+03 1.4656726072e+03 0.0000000000e+00 0.0000e+00 -1.0000e+00
<mgrwt>
<rscale>  0 0.13950793E+04</rscale>
<asrwt>0</asrwt>
<pdfrwt beam="1">  1        2 0.40267487E+00 0.13950793E+04</pdfrwt>
<pdfrwt beam="2">  1       -2 0.28599376E-01 0.13950793E+04</pdfrwt>
<totfact> 0.38320323E+01</totfact>
</mgrwt>
<rwgt>
<wgt id='morphing_basis_vector_1'> +2.0089236e-04 </wgt>
<wgt id='morphing_basis_vector_2'> +1.4419411e-04 </wgt>
<wgt id='morphing_basis_vector_3'> +2.0773986e-04 </wgt>
<wgt id='morphing_basis_vector_4'> +1.2300731e-04 </wgt>
<wgt id='morphing_basis_vector_5'> +2.1175465e-04 </wgt>
</rwgt>
</event>
<event>
 4      1 +3.5234200e-07 1.52071900e+03 7.81860800e-03 8.30303100e-02
        2 -1    0    0  501    0 +0.0000000000e+00 +0.0000000000e+00 +8.2851695671e+02 8.2851695671e+02 0.0000000000e+00 0.0000e+00 -1.0000e+00
       -2 -1    0    0    0  501 -0.0000000000e+00 -0.0000000000e+00 -6.9780862241e+02 6.9780862241e+02 0.0000000000e+00 0.0000e+00 1.0000e+00
      -13  1    1    2    0    0 +1.8976665456e+02 -6.4838388765e+02 -2.8483514588e+02 7.3317399659e+02 0.0000000000e+00 0.0000e+00 1.0000e+00
       13  1    1    2    0    0 -1.8976665456e+02 +6.4838388765e+02 +4.1554348017e+02 7.9315158253e+02 0.0000000000e+00 0.0000e+00 -1.0000e+00
<mgrwt>
<rscale>  0 0.15207186E+04</rscale>
<asrwt>0</asrwt>
<pdfrwt beam="1">  1        2 0.12746415E+00 0.15207186E+04</pdfrwt>
<pdfrwt beam="2">  1       -2 0.10735517E+00 0.15207186E+04</pdfrwt>
<totfact> 0.27520082E+01</totfact>
</mgrwt>
<rwgt>
<wgt id='morphing_basis_vector_1'> +2.7334365e-04 </wgt>
<wgt id='morphing_basis_vector_2'> +1.8234502e-04 </wgt>
<wgt id='morphing_basis_vector_3'> +2.8450056e-04 </wgt>
<wgt id='morphing_basis_vector_4'> +1.8834498e-04 </wgt>
<wgt id='morphing_basis_vector_5'> +3.0389349e-04 </wgt>
</rwgt>
</event>
<event>
 4      1 +3.5234200e-07 1.54189300e+03 7.81860800e-03 8.29103600e-02
        2 -1    0    0  501    0 +0.0000000000e+00 +0.0000000000e+00 +1.5414593844e+03 1.5414593844e+03 0.0000000000e+00 0.0000e+00 1.0000e+00
       -2 -1    0    0    0  501 -0.0000000000e+00 -0.0000000000e+00 -3.8558143890e+02 3.8558143890e+02 0.0000000000e+00 0.0000e+00 -1.0000e+00
      -13  1    1    2    0    0 -3.5745158961e+02 -4.0271735083e+02 +1.2674843750e+03 1.3771236489e+03 0.0000000000e+00 0.0000e+00 1.0000e+00
       13  1    1    2    0    0 +3.5745158961e+02 +4.0271735083e+02 -1.1160642949e+02 5.4991717438e+02 0.0000000000e+00 0.0000e+00 -1.0000e+00
<mgrwt>
<rscale>  0 0.15418925E+04</rscale>
<asrwt>0</asrwt>
<pdfrwt beam="1">  1        2 0.23714760E+00 0.15418925E+04</pdfrwt>
<pdfrwt beam="2">  1       -2 0.59320222E-01 0.15418925E+04</pdfrwt>
<totfact> 0.39142430E+01</totfact>
</mgrwt>
<rwgt>
<wgt id='morphing_basis_vector_1'> +3.7138850e-04 </wgt>
<wgt id='morphing_basis_vector_2'> +4.3989425e-04 </wgt>
<wgt id='morphing_basis_vector_3'> +4.1081219e-04 </wgt>
<wgt id='morphing_basis_vector_4'> +4.3241016e-05 </wgt>
<wgt id='morphing_basis_vector_5'> +3.1011765e-04 </wgt>
</rwgt>
</event>
<event>
 4      1 +3.5234200e-07 1.52893600e+03 7.81860800e-03 8.29835200e-02
        2 -1    0    0  501    0 +0.0000000000e+00 +0.0000000000e+00 +5.4935036329e+02 5.4935036329e+02 0.0000000000e+00 0.0000e+00 1.0000e+00
       -2 -1    0    0    0  501 -0.0000000000e+00 -0.0000000000e+00 -1.0638228505e+03 1.0638228505e+03 0.0000000000e+00 0.0000e+00 -1.0000e+00
      -13  1    1    2    0    0 +7.5735930559e+02 -9.7285933850e+01 -2.1841506771e+02 7.9420577466e+02 0.0000000000e+00 0.0000e+00 -1.0000e+00
       13  1    1    2    0    0 -7.5735930559e+02 +9.7285933850e+01 -2.9605741948e+02 8.1896743911e+02 0.0000000000e+00 0.0000e+00 1.0000e+00
<mgrwt>
<rscale>  0 0.15289362E+04</rscale>
<asrwt>0</asrwt>
<pdfrwt beam="1">  1        2 0.84515441E-01 0.15289362E+04</pdfrwt>
<pdfrwt beam="2">  1       -2 0.16366505E+00 0.15289362E+04</pdfrwt>
<totfact> 0.14445200E+01</totfact>
</mgrwt>
<rwgt>
<wgt id='morphing_basis_vector_1'> +2.8956530e-04 </wgt>
<wgt id='morphing_basis_vector_2'> +2.1745194e-04 </wgt>
<wgt id='morphing_basis_vector_3'> +3.0452006e-04 </wgt>
<wgt id='morphing_basis_vector_4'> +1.7294143e-04 </wgt>
<wgt id='morphing_basis_vector_5'> +3.0928541e-04 </wgt>
</rwgt>
</event>
<event>
 4      1 +3.5234200e-07 1.31359900e+03 7.81860800e-03 8.43223400e-02
        2 -1    0    0  501    0 +0.0000000000e+00 +0.0000000000e+00 +4.1278043837e+02 4.1278043837e+02 0.0000000000e+00 0.0000e+00 -1.0000e+00
       -2 -1    0    0    0  501 -0.0000000000e+00 -0.0000000000e+00 -1.0450724048e+03 1.0450724048e+03 0.0000000000e+00 0.0000e+00 1.0000e+00
      -13  1    1    2    0    0 -1.6299894957e+01 +1.8564054934e+02 -1.0151162452e+03 1.0320799830e+03 0.0000000000e+00 0.0000e+00 1.0000e+00
       13  1    1    2    0    0 +1.6299894957e+01 -1.8564054934e+02 +3.8282427868e+02 4.2577286020e+02 0.0000000000e+00 0.0000e+00 -1.0000e+00
<mgrwt>
<rscale>  0 0.13135988E+04</rscale>
<asrwt>0</asrwt>
<pdfrwt beam="1">  1        2 0.63504683E-01 0.13135988E+04</pdfrwt>
<pdfrwt beam="2">  1       -2 0.16078037E+00 0.13135988E+04</pdfrwt>
<totfact> 0.21465328E+01</totfact>
</mgrwt>
<rwgt>
<wgt id='morphing_basis_vector_1'> +1.5492468e-04 </wgt>
<wgt id='morphing_basis_vector_2'> +1.0011656e-04 </wgt>
<wgt id='morphing_basis_vector_3'> +1.5770516e-04 </wgt>
<wgt id='morphing_basis_vector_4'> +1.0397532e-04 </wgt>
<wgt id='morphing_basis_vector_5'> +1.6525329e-04 </wgt>
</rwgt>
</event>
<event>
 4      1 +3.5234200e-07 1.50779100e+03 7.81860800e-03 8.31045400e-02
        2 -1    0    0  501    0 +0.0000000000e+00 +0.0000000000e+00 +7.6949427163e+02 7.6949427163e+02 0.0000000000e+00 0.0000e+00 -1.0000e+00
       -2 -1    0    0    0  501 -0.0000000000e+00 -0.0000000000e+00 -7.3861303462e+02 7.3861303462e+02 0.0000000000e+00 0.0000e+00 1.0000e+00
      -13  1    1    2    0    0 +3.0385120051e+02 +9.0350624453e+01 -6.6871285241e+02 7.4004436784e+02 0.0000000000e+00 0.0000e+00 1.0000e+00
       13  1    1    2    0    0 -3.0385120051e+02 -9.0350624453e+01 +6.9959408943e+02 7.6806293841e+02 0.0000000000e+00 0.0000e+00 -1.0000e+00
<mgrwt>
<rscale>  0 0.15077911E+04</rscale>
<asrwt>0</asrwt>
<pdfrwt beam="1">  1        2 0.11838373E+00 0.15077911E+04</pdfrwt>
<pdfrwt beam="2">  1       -2 0.11363277E+00 0.15077911E+04</pdfrwt>
<totfact> 0.26265249E+01</totfact>
</mgrwt>
<rwgt>
<wgt id='morphing_basis_vector_1'> +2.6306701e-04 </wgt>
<wgt id='morphing_basis_vector_2'> +1.7210829e-04 </wgt>
<wgt id='morphing_basis_vector_3'> +2.7312169e-04 </wgt>
<wgt id='morphing_basis_vector_4'> +1.8445064e-04 </wgt>
<wgt id='morphing_basis_vector_5'> +2.9352982e-04 </wgt>
</rwgt>
</event>
<event>
 4      1 +3.5234200e-07 1.34685800e+03 7.81860800e-03 8.40987700e-02
        2 -1    0    0  501    0 +0.0000000000e+00 +0.0000000000e+00 +7.9882793880e+02 7.9882793880e+02 0.0000000000e+00 0.0000e+00 -1.0000e+00
       -2 -1    0    0    0  501 -0.0000000000e+00 -0.0000000000e+00 -5.6771501852e+02 5.6771501852e+02 0.0000000000e+00 0.0000e+00 1.0000e+00
      -13  1    1    2    0    0 +5.0169724934e+02 -4.4676534313e+02 +6.7888790552e+01 6.7520981162e+02 0.0000000000e+00 0.0000e+00 1.0000e+00
       13  1    1    2    0    0 -5.0169724934e+02 +4.4676534313e+02 +1.6322412973e+02 6.9133314570e+02 0.0000000000e+00 0.0000e+00 -1.0000e+00
<mgrwt>
<rscale>  0 0.13468580E+04</rscale>
<asrwt>0</asrwt>
<pdfrwt beam="1">  1        2 0.12289661E+00 0.13468580E+04</pdfrwt>
<pdfrwt beam="2">  1       -2 0.87340771E-01 0.13468580E+04</pdfrwt>
<totfact> 0.47921893E+01</totfact>
</mgrwt>
<rwgt>
<wgt id='morphing_basis_vector_1'> +1.7524157e-04 </wgt>
<wgt id='morphing_basis_vector_2'> +1.2472273e-04 </wgt>
<wgt id='morphing_basis_vector_3'> +1.8009593e-04 </wgt>
<wgt id='morphing_basis_vector_4'> +1.0681453e-04 </wgt>
<wgt id='morphing_basis_vector_5'> +1.8287686e-04 </wgt>
</rwgt>
</event>
<event>
 4      1 +3.5234200e-07 1.46341500e+03 7.81860800e-03 8.33653400e-02
        2 -1    0    0  501    0 +0.0000000000e+00 +0.0000000000e+00 +9.0813649553e+02 9.0813649553e+02 0.0000000000e+00 0.0000e+00 -1.0000e+00
       -2 -1    0    0    0  501 -0.0000000000e+00 -0.0000000000e+00 -5.8955407697e+02 5.8955407697e+02 0.0000000000e+00 0.0000e+00 1.0000e+00
      -13  1    1    2    0    0 -1.1459072022e+02 -5.1186898364e+02 -3.6280914684e+02 6.3778630168e+02 0.0000000000e+00 0.0000e+00 1.0000e+00
       13  1    1    2    0    0 +1.1459072022e+02 +5.1186898364e+02 +6.8139156540e+02 8.5990427082e+02 0.0000000000e+00 0.0000e+00 -1.0000e+00
<mgrwt>
<rscale>  0 0.14634146E+04</rscale>
<asrwt>0</asrwt>
<pdfrwt beam="1">  1        2 0.13971331E+00 0.14634146E+04</pdfrwt>
<pdfrwt beam="2">  1       -2 0.90700627E-01 0.14634146E+04</pdfrwt>
<totfact> 0.36696761E+01</totfact>
</mgrwt>
<rwgt>
<wgt id='morphing_basis_vector_1'> +2.3472240e-04 </wgt>
<wgt id='morphing_basis_vector_2'> +1.5384590e-04 </wgt>
<wgt id='morphing_basis_vector_3'> +2.4282657e-04 </wgt>
<wgt id='morphing_basis_vector_4'> +1.6246886e-04 </wgt>
<wgt id='morphing_basis_vector_5'> +2.5927773e-04 </wgt>
</rwgt>
</event>
<event>
 4      1 +3.5234200e-07 1.48989800e+03 7.81860800e-03 8.32085600e-02
        2 -1    0    0  501    0 +0.0000000000e+00 +0.0000000000e+00 +1.0319113646e+03 1.0319113646e+03 0.0000000000e+00 0.0000e+00 -1.0000e+00
       -2 -1    0    0    0  501 -0.0000000000e+00 -0.0000000000e+00 -5.3778770822e+02 5.3778770822e+02 0.0000000000e+00 0.0000e+00 1.0000e+00
      -13  1    1    2    0    0 -7.0682991513e+02 -2.1402809042e+02 +1.4419682801e+02 7.5246878847e+02 0.0000000000e+00 0.0000e+00 1.0000e+00
       13  1    1    2    0    0 +7.0682991513e+02 +2.1402809042e+02 +3.4992682833e+02 8.1723028431e+02 0.0000000000e+00 0.0000e+00 -1.0000e+00
<mgrwt>
<rscale>  0 0.14898983E+04</rscale>
<asrwt>0</asrwt>
<pdfrwt beam="1">  1        2 0.15875559E+00 0.14898983E+04</pdfrwt>
<pdfrwt beam="2">  1       -2 0.82736571E-01 0.14898983E+04</pdfrwt>
<totfact> 0.37831671E+01</totfact>
</mgrwt>
<rwgt>
<wgt id='morphing_basis_vector_1'> +2.5681581e-04 </wgt>
<wgt id='morphing_basis_vector_2'> +1.8087660e-04 </wgt>
<wgt id='morphing_basis_vector_3'> +2.6772656e-04 </wgt>
<wgt id='morphing_basis_vector_4'> +1.6514572e-04 </wgt>
<wgt id='morphing_basis_vector_5'> +2.7858506e-04 </wgt>
</rwgt>
</event>
<event>
 4      1 +3.5234200e-07 1.31053500e+03 7.81860800e-03 8.43432800e-02
        2 -1    0    0  501    0 +0.0000000000e+00 +0.0000000000e+00 +1.8168610052e+03 1.8168610052e+03 0.0000000000e+00 0.0000e+00 -1.0000e+00
       -2 -1    0    0    0  501 -0.0000000000e+00 -0.0000000000e+00 -2.3632822966e+02 2.3632822966e+02 0.0000000000e+00 0.0000e+00 1.0000e+00
      -13  1    1    2    0    0 +3.1536603485e+02 +5.2286625080e+02 +4.1776964128e+02 7.3984885303e+02 0.0000000000e+00 0.0000e+00 1.0000e+00
       13  1    1    2    0    0 -3.1536603485e+02 -5.2286625080e+02 +1.1627631342e+03 1.3133403818e+03 0.0000000000e+00 0.0000e+00 -1.0000e+00
<mgrwt>
<rscale>  0 0.13105351E+04</rscale>
<asrwt>0</asrwt>
<pdfrwt beam="1">  1        2 0.27951707E+00 0.13105351E+04</pdfrwt>
<pdfrwt beam="2">  1       -2 0.36358190E-01 0.13105351E+04</pdfrwt>
<totfact> 0.72263876E+01</totfact>
</mgrwt>
<rwgt>
<wgt id='morphing_basis_vector_1'> +1.5486314e-04 </wgt>
<wgt id='morphing_basis_vector_2'> +1.0313713e-04 </wgt>
<wgt id='morphing_basis_vector_3'> +1.5783548e-04 </wgt>
<wgt id='morphing_basis_vector_4'> +1.0062477e-04 </wgt>
<wgt id='morphing_basis_vector_5'> +1.6347794e-04 </wgt>
</rwgt>
</event>
<event>
 4      1 +3.5234200e-07 1.37257500e+03 7.81860800e-03 8.39304600e-02
        2 -1    0    0  501    0 +0.0000000000e+00 +0.0000000000e+00 +1.7202258883e+03 1.7202258883e+03 0.0000000000e+00 0.0000e+00 1.0000e+00
       -2 -1    0    0    0  501 -0.0000000000e+00 -0.0000000000e+00 -2.7379574069e+02 2.7379574069e+02 0.0000000000e+00 0.0000e+00 -1.0000e+00
      -13  1    1    2    0    0 -5.5495074008e+00 +4.8582368625e+02 +1.9060975642e+01 4.8622913523e+02 0.0000000000e+00 0.0000e+00 -1.0000e+00
       13  1    1    2    0    0 +5.5495074008e+00 -4.8582368625e+02 +1.4273691720e+03 1.5077924938e+03 0.0000000000e+00 0.0000e+00 1.0000e+00
<mgrwt>
<rscale>  0 0.13725750E+04</rscale>
<asrwt>0</asrwt>
<pdfrwt beam="1">  1        2 0.26465013E+00 0.13725750E+04</pdfrwt>
<pdfrwt beam="2">  1       -2 0.42122423E-01 0.13725750E+04</pdfrwt>
<totfact> 0.61867752E+01</totfact>
</mgrwt>
<rwgt>
<wgt id='morphing_basis_vector_1'> +1.8347781e-04 </wgt>
<wgt id='morphing_basis_vector_2'> +1.1956226e-04 </wgt>
<wgt id='morphing_basis_vector_3'> +1.8809586e-04 </wgt>
<wgt id='morphing_basis_vector_4'> +1.2450802e-04 </wgt>
<wgt id='morphing_basis_vector_5'> +1.9855553e-04 </wgt>
</rwgt>
</event>
<event>
 4      1 +3.5234200e-07 1.37477200e+03 7.81860800e-03 8.39162600e-02
        2 -1    0    0  501    0 +0.0000000000e+00 +0.0000000000e+00 +6.6799562846e+02 6.6799562846e+02 0.0000000000e+00 0.0000e+00 1.0000e+00
       -2 -1    0    0    0  501 -0.0000000000e+00 -0.0000000000e+00 -7.0733966215e+02 7.0733966215e+02 0.0000000000e+00 0.0000e+00 -1.0000e+00
      -13  1    1    2    0    0 -2.6348694231e+02 -7.9520492756e+01 -6.4981158296e+02 7.0569396404e+02 0.0000000000e+00 0.0000e+00 -1.0000e+00
       13  1    1    2    0    0 +2.6348694231e+02 +7.9520492756e+01 +6.1046754927e+02 6.6964132657e+02 0.0000000000e+00 0.0000e+00 1.0000e+00
<mgrwt>
<rscale>  0 0.13747724E+04</rscale>
<asrwt>0</asrwt>
<pdfrwt beam="1">  1        2 0.10276856E+00 0.13747724E+04</pdfrwt>
<pdfrwt beam="2">  1       -2 0.10882149E+00 0.13747724E+04</pdfrwt>
<totfact> 0.35266477E+01</totfact>
</mgrwt>
<rwgt>
<wgt id='morphing_basis_vector_1'> +1.8440124e-04 </wgt>
<wgt id='morphing_basis_vector_2'> +1.1970245e-04 </wgt>
<wgt id='morphing_basis_vector_3'> +1.8904223e-04 </wgt>
<wgt id='morphing_basis_vector_4'> +1.2571229e-04 </wgt>
<wgt id='morphing_basis_vector_5'> +1.9991278e-04 </wgt>
</rwgt>
</event>
<event>
 4      1 +3.5234200e-07 1.42858000e+03 7.81860800e-03 8.35768800e-02
        2 -1    0    0  501    0 +0.0000000000e+00 +0.0000000000e+00 +1.2033553580e+03 1.2033553580e+03 0.0000000000e+00 0.0000e+00 1.0000e+00
       -2 -1    0    0    0  501 -0.0000000000e+00 -0.0000000000e+00 -4.2398961226e+02 4.2398961226e+02 0.0000000000e+00 0.0000e+00 -1.0000e+00
      -13  1    1    2    0    0 -4.9144902433e+02 +6.7939288032e+01 -1.9569524324e+02 5.3332402777e+02 0.0000000000e+00 0.0000e+00 -1.0000e+00
       13  1    1    2    0    0 +4.9144902433e+02 -6.7939288032e+01 +9.7506098901e+02 1.0940209425e+03 0.0000000000e+00 0.0000e+00 1.0000e+00
<mgrwt>
<rscale>  0 0.14285800E+04</rscale>
<asrwt>0</asrwt>
<pdfrwt beam="1">  1        2 0.18513159E+00 0.14285800E+04</pdfrwt>
<pdfrwt beam="2">  1       -2 0.65229172E-01 0.14285800E+04</pdfrwt>
<totfact> 0.50510996E+01</totfact>
</mgrwt>
<rwgt>
<wgt id='morphing_basis_vector_1'> +2.1389519e-04 </wgt>
<wgt id='morphing_basis_vector_2'> +1.3981190e-04 </wgt>
<wgt id='morphing_basis_vector_3'> +2.2054364e-04 </wgt>
<wgt id='morphing_basis_vector_4'> +1.4709265e-04 </wgt>
<wgt id='morphing_basis_vector_5'> +2.3457443e-04 </wgt>
</rwgt>
</event>
<event>
 4      1 +3.5234200e-07 1.51506400e+03 7.81860800e-03 8.30626800e-02
        2 -1    0    0  501    0 +0.0000000000e+00 +0.0000000000e+00 +1.1672233090e+03 1.1672233090e+03 0.0000000000e+00 0.0000e+00 -1.0000e+00
       -2 -1    0    0    0  501 -0.0000000000e+00 -0.0000000000e+00 -4.9164088752e+02 4.9164088752e+02 0.0000000000e+00 0.0000e+00 1.0000e+00
      -13  1    1    2    0    0 -2.1114299638e+02 +1.9110908667e+02 -4.3079656132e+02 5.1642010532e+02 0.0000000000e+00 0.0000e+00 1.0000e+00
       13  1    1    2    0    0 +2.1114299638e+02 -1.9110908667e+02 +1.1063789829e+03 1.1424440912e+03 0.0000000000e+00 0.0000e+00 -1.0000e+00
<mgrwt>
<rscale>  0 0.15150640E+04</rscale>
<asrwt>0</asrwt>
<pdfrwt beam="1">  1        2 0.17957282E+00 0.15150640E+04</pdfrwt>
<pdfrwt beam="2">  1       -2 0.75637060E-01 0.15150640E+04</pdfrwt>
<totfact> 0.38316568E+01</totfact>
</mgrwt>
<rwgt>
<wgt id='morphing_basis_vector_1'> +2.6798984e-04 </wgt>
<wgt id='morphing_basis_vector_2'> +1.7537121e-04 </wgt>
<wgt id='morphing_basis_vector_3'> +2.7839754e-04 </wgt>
<wgt id='morphing_basis_vector_4'> +1.8817794e-04 </wgt>
<wgt id='morphing_basis_vector_5'> +2.9944221e-04 </wgt>
</rwgt>
</event>
<event>
 4      1 +3.5234200e-07 1.39470100e+03 7.81860800e-03 8.37887100e-02
        2 -1    0    0  501    0 +0.0000000000e+00 +0.0000000000e+00 +7.7729972904e+02 7.7729972904e+02 0.0000000000e+00 0.0000e+00 -1.0000e+00
       -2 -1    0    0    0  501 -0.0000000000e+00 -0.0000000000e+00 -6.2562427536e+02 6.2562427536e+02 0.0000000000e+00 0.0000e+00 1.0000e+00
      -13  1    1    2    0    0 +4.9179433831e+02 -4.9223554597e+02 +1.2237143644e+02 7.0649293865e+02 0.0000000000e+00 0.0000e+00 1.0000e+00
       13  1    1    2    0    0 -4.9179433831e+02 +4.9223554597e+02 +2.9304017236e+01 6.9643106574e+02 0.0000000000e+00 0.0000e+00 -1.0000e+00
<mgrwt>
<rscale>  0 0.13947008E+04</rscale>
<asrwt>0</asrwt>
<pdfrwt beam="1">  1        2 0.11958457E+00 0.13947008E+04</pdfrwt>
<pdfrwt beam="2">  1       -2 0.96249889E-01 0.13947008E+04</pdfrwt>
<totfact> 0.39364531E+01</totfact>
</mgrwt>
<rwgt>
<wgt id='morphing_basis_vector_1'> +2.0380133e-04 </wgt>
<wgt id='morphing_basis_vector_2'> +1.5335674e-04 </wgt>
<wgt id='morphing_basis_vector_3'> +2.1143885e-04 </wgt>
<wgt id='morphing_basis_vector_4'> +1.1718408e-04 </wgt>
<wgt id='morphing_basis_vector_5'> +2.1110352e-04 </wgt>
</rwgt>
</event>
<event>
 4      1 +3.5234200e-07 1.31002500e+03 7.81860800e-03 8.43467700e-02
        2 -1    0    0  501    0 +0.0000000000e+00 +0.0000000000e+00 +1.1433734594e+03 1.1433734594e+03 0.0000000000e+00 0.0000e+00 -1.0000e+00
       -2 -1    0    0    0  501 -0.0000000000e+00 -0.0000000000e+00 -3.7524143052e+02 3.7524143052e+02 0.0000000000e+00 0.0000e+00 1.0000e+00
      -13  1    1    2    0    0 +1.6712575072e+01 +5.9461057253e+02 +6.6175714495e+01 5.9851505271e+02 0.0000000000e+00 0.0000e+00 1.0000e+00
       13  1    1    2    0    0 -1.6712575072e+01 -5.9461057253e+02 +7.0195631440e+02 9.2009983722e+02 0.0000000000e+00 0.0000e+00 -1.0000e+00
<mgrwt>
<rscale>  0 0.13100246E+04</rscale>
<asrwt>0</asrwt>
<pdfrwt beam="1">  1        2 0.17590361E+00 0.13100246E+04</pdfrwt>
<pdfrwt beam="2">  1       -2 0.57729452E-01 0.13100246E+04</pdfrwt>
<totfact> 0.71149461E+01</totfact>
</mgrwt>
<rwgt>
<wgt id='morphing_basis_vector_1'> +1.5433400e-04 </wgt>
<wgt id='morphing_basis_vector_2'> +1.0208486e-04 </wgt>
<wgt id='morphing_basis_vector_3'> +1.5722900e-04 </wgt>
<wgt id='morphing_basis_vector_4'> +1.0099367e-04 </wgt>
<wgt id='morphing_basis_vector_5'> +1.6324878e-04 </wgt>
</rwgt>
</event>
<event>
 4      1 +3.5234200e-07 1.45441200e+03 7.81860800e-03 8.34194200e-02
        2 -1    0    0  501    0 +0.0000000000e+00 +0.0000000000e+00 +1.4328970589e+03 1.4328970589e+03 0.0000000000e+00 0.0000e+00 -1.0000e+00
       -2 -1    0    0    0  501 -0.0000000000e+00 -0.0000000000e+00 -3.6906234286e+02 3.6906234286e+02 0.0000000000e+00 0.0000e+00 1.0000e+00
      -13  1    1    2    0    0 -4.8650286873e+02 -2.4999181470e+02 -6.1811840291e+01 5.5045585863e+02 0.0000000000e+00 0.0000e+00 1.0000e+00
       13  1    1    2    0    0 +4.8650286873e+02 +2.4999181470e+02 +1.1256465563e+03 1.2515035431e+03 0.0000000000e+00 0.0000e+00 -1.0000e+00
<mgrwt>
<rscale>  0 0.14544117E+04</rscale>
<asrwt>0</asrwt>
<pdfrwt beam="1">  1        2 0.22044570E+00 0.14544117E+04</pdfrwt>
<pdfrwt beam="2">  1       -2 0.56778823E-01 0.14544117E+04</pdfrwt>
<totfact> 0.49580677E+01</totfact>
</mgrwt>
<rwgt>
<wgt id='morphing_basis_vector_1'> +2.2930573e-04 </wgt>
<wgt id='morphing_basis_vector_2'> +1.5044206e-04 </wgt>
<wgt id='morphing_basis_vector_3'> +2.3705090e-04 </wgt>
<wgt id='morphing_basis_vector_4'> +1.5818731e-04 </wgt>
<wgt id='morphing_basis_vector_5'> +2.5270248e-04 </wgt>
</rwgt>
</event>
<event>
 4      1 +3.5234200e-07 1.46661300e+03 7.81860800e-03 8.33462300e-02
        2 -1    0    0  501    0 +0.0000000000e+00 +0.0000000000e+00 +1.2664356266e+03 1.2664356266e+03 0.0000000000e+00 0.0000e+00 1.0000e+00
       -2 -1    0    0    0  501 -0.0000000000e+00 -0.0000000000e+00 -4.2460772780e+02 4.2460772780e+02 0.0000000000e+00 0.0000e+00 -1.0000e+00
      -13  1    1    2    0    0 +4.7274110832e+02 +5.2704513948e+02 +6.4113178132e+02 9.5514956712e+02 0.0000000000e+00 0.0000e+00 -1.0000e+00
       13  1    1    2    0    0 -4.7274110832e+02 -5.2704513948e+02 +2.0069611744e+02 7.3589378724e+02 0.0000000000e+00 0.0000e+00 1.0000e+00
<mgrwt>
<rscale>  0 0.14666129E+04</rscale>
<asrwt>0</asrwt>
<pdfrwt beam="1">  1        2 0.19483625E+00 0.14666129E+04</pdfrwt>
<pdfrwt beam="2">  1       -2 0.65324266E-01 0.14666129E+04</pdfrwt>
<totfact> 0.46147347E+01</totfact>
</mgrwt>
<rwgt>
<wgt id='morphing_basis_vector_1'> +2.5740939e-04 </wgt>
<wgt id='morphing_basis_vector_2'> +2.1693313e-04 </wgt>
<wgt id='morphing_basis_vector_3'> +2.7174543e-04 </wgt>
<wgt id='morphing_basis_vector_4'> +1.2557487e-04 </wgt>
<wgt id='morphing_basis_vector_5'> +2.5881232e-04 </wgt>
</rwgt>
</event>
<event>
 4      1 +3.5234200e-07 1.50700400e+03 7.81860800e-03 8.31090900e-02
        2 -1    0    0  501    0 +0.0000000000e+00 +0.0000000000e+00 +1.9112254681e+03 1.9112254681e+03 0.0000000000e+00 0.0000e+00 1.0000e+00
       -2 -1    0    0    0  501 -0.0000000000e+00 -0.0000000000e+00 -2.9706865317e+02 2.9706865317e+02 0.0000000000e+00 0.0000e+00 -1.0000e+00
      -13  1    1    2    0    0 +3.3933785246e+01 -5.4954793629e+02 +5.3295511980e+01 5.5316801033e+02 0.0000000000e+00 0.0000e+00 -1.0000e+00
       13  1    1    2    0    0 -3.3933785246e+01 +5.4954793629e+02 +1.5608613029e+03 1.6551261109e+03 0.0000000000e+00 0.0000e+00 1.0000e+00
<mgrwt>
<rscale>  0 0.15070039E+04</rscale>
<asrwt>0</asrwt>
<pdfrwt beam="1">  1        2 0.29403468E+00 0.15070039E+04</pdfrwt>
<pdfrwt beam="2">  1       -2 0.45702871E-01 0.15070039E+04</pdfrwt>
<totfact> 0.41006652E+01</totfact>
</mgrwt>
<rwgt>
<wgt id='morphing_basis_vector_1'> +2.6288727e-04 </wgt>
<wgt id='morphing_basis_vector_2'> +1.7279795e-04 </wgt>
<wgt id='morphing_basis_vector_3'> +2.7301309e-04 </wgt>
<wgt id='morphing_basis_vector_4'> +1.8339849e-04 </wgt>
<wgt id='morphing_basis_vector_5'> +2.9284666e-04 </wgt>
</rwgt>
</event>
<event>
 4      1 +3.5234200e-07 1.47626200e+03 7.81860800e-03 8.32888600e-02
        2 -1    0    0  501    0 +0.0000000000e+00 +0.0000000000e+00 +7.1515627784e+02 7.1515627784e+02 0.0000000000e+00 0.0000e+00 1.0000e+00
       -2 -1    0    0    0  501 -0.0000000000e+00 -0.0000000000e+00 -7.6184379842e+02 7.6184379842e+02 0.0000000000e+00 0.0000e+00 -1.0000e+00
      -13  1    1    2    0    0 -1.3457217937e+02 -3.9515330911e+02 +5.8571470272e+02 7.1924788644e+02 0.0000000000e+00 0.0000e+00 1.0000e+00
       13  1    1    2    0    0 +1.3457217937e+02 +3.9515330911e+02 -6.3240222329e+02 7.5775218983e+02 0.0000000000e+00 0.0000e+00 -1.0000e+00
<mgrwt>
<rscale>  0 0.14762620E+04</rscale>
<asrwt>0</asrwt>
<pdfrwt beam="1">  1        2 0.11002404E+00 0.14762620E+04</pdfrwt>
<pdfrwt beam="2">  1       -2 0.11720674E+00 0.14762620E+04</pdfrwt>
<totfact> 0.26660300E+01</totfact>
</mgrwt>
<rwgt>
<wgt id='morphing_basis_vector_1'> +3.2495030e-04 </wgt>
<wgt id='morphing_basis_vector_2'> +4.0433976e-04 </wgt>
<wgt id='morphing_basis_vector_3'> +3.5817008e-04 </wgt>
<wgt id='morphing_basis_vector_4'> +1.5839673e-05 </wgt>
<wgt id='morphing_basis_vector_5'> +2.5759314e-04 </wgt>
</rwgt>
</event>
<event>
 4      1 +3.5234200e-07 1.43235000e+03 7.81860800e-03 8.35536900e-02
        2 -1    0    0  501    0 +0.0000000000e+00 +0.0000000000e+00 +7.4795405643e+02 7.4795405643e+02 0.0000000000e+00 0.0000e+00 -1.0000e+00
       -2 -1    0    0    0  501 -0.0000000000e+00 -0.0000000000e+00 -6.8574577384e+02 6.8574577384e+02 0.0000000000e+00 0.0000e+00 1.0000e+00
      -13  1    1    2    0    0 -3.0831978491e+02 -6.5921844864e+01 -6.1254134791e+02 6.8892211628e+02 0.0000000000e+00 0.0000e+00 1.0000e+00
       13  1    1    2    0    0 +3.0831978491e+02 +6.5921844864e+01 +6.7474963050e+02 7.4477771399e+02 0.0000000000e+00 0.0000e+00 -1.0000e+00
<mgrwt>
<rscale>  0 0.14323496E+04</rscale>
<asrwt>0</asrwt>
<pdfrwt beam="1">  1        2 0.11506985E+00 0.14323496E+04</pdfrwt>
<pdfrwt beam="2">  1       -2 0.10549935E+00 0.14323496E+04</pdfrwt>
<totfact> 0.32986872E+01</totfact>
</mgrwt>
<rwgt>
<wgt id='morphing_basis_vector_1'> +2.1586795e-04 </wgt>
<wgt id='morphing_basis_vector_2'> +1.4065348e-04 </wgt>
<wgt id='morphing_basis_vector_3'> +2.2260857e-04 </wgt>
<wgt id='morphing_basis_vector_4'> +1.4908958e-04 </wgt>
<wgt id='morphing_basis_vector_5'> +2.3718822e-04 </wgt>
</rwgt>
</event>
<event>
 4      1 +3.5234200e-07 1.32577800e+03 7.81860800e-03 8.42396800e-02
        2 -1    0    0  501    0 +0.0000000000e+00 +0.0000000000e+00 +1.4201129523e+03 1.4201129523e+03 0.0000000000e+00 0.0000e+00 -1.0000e+00
       -2 -1    0    0    0  501 -0.0000000000e+00 -0.0000000000e+00 -3.0942719504e+02 3.0942719504e+02 0.0000000000e+00 0.0000e+00 1.0000e+00
      -13  1    1    2    0    0 +5.3846984535e+02 -3.8535581822e+02 +5.1465674602e+02 8.3864202567e+02 0.0000000000e+00 0.0000e+00 1.0000e+00
       13  1    1    2    0    0 -5.3846984535e+02 +3.8535581822e+02 +5.9602901127e+02 8.9089812171e+02 0.0000000000e+00 0.0000e+00 -1.0000e+00
<mgrwt>
<rscale>  0 0.13257776E+04</rscale>
<asrwt>0</asrwt>
<pdfrwt beam="1">  1        2 0.21847891E+00 0.13257776E+04</pdfrwt>
<pdfrwt beam="2">  1       -2 0.47604185E-01 0.13257776E+04</pdfrwt>
<totfact> 0.72222464E+01</totfact>
</mgrwt>
<rwgt>
<wgt id='morphing_basis_vector_1'> +1.6537607e-04 </wgt>
<wgt id='morphing_basis_vector_2'> +1.1844654e-04 </wgt>
<wgt id='morphing_basis_vector_3'> +1.6957099e-04 </wgt>
<wgt id='morphing_basis_vector_4'> +9.9306087e-05 </wgt>
<wgt id='morphing_basis_vector_5'> +1.7114641e-04 </wgt>
</rwgt>
</event>
<event>
 4      1 +3.5234200e-07 1.33396200e+03 7.81860800e-03 8.41846400e-02
        2 -1    0    0  501    0 +0.0000000000e+00 +0.0000000000e+00 +2.3873809298e+03 2.3873809298e+03 0.0000000000e+00 0.0000e+00 1.0000e+00
       -2 -1    0    0    0  501 -0.0000000000e+00 -0.0000000000e+00 -1.8633967763e+02 1.8633967763e+02 0.0000000000e+00 0.0000e+00 -1.0000e+00
      -13  1    1    2    0    0 -2.1196668465e+02 -4.9912318211e+02 +3.5126002589e+02 6.4609398086e+02 0.0000000000e+00 0.0000e+00 -1.0000e+00
       13  1    1    2    0    0 +2.1196668465e+02 +4.9912318211e+02 +1.8497812263e+03 1.9276266266e+03 0.0000000000e+00 0.0000e+00 1.0000e+00
<mgrwt>
<rscale>  0 0.13339622E+04</rscale>
<asrwt>0</asrwt>
<pdfrwt beam="1">  1        2 0.36728935E+00 0.13339622E+04</pdfrwt>
<pdfrwt beam="2">  1       -2 0.28667644E-01 0.13339622E+04</pdfrwt>
<totfact> 0.52528303E+01</totfact>
</mgrwt>
<rwgt>
<wgt id='morphing_basis_vector_1'> +1.6475554e-04 </wgt>
<wgt id='morphing_basis_vector_2'> +1.0769164e-04 </wgt>
<wgt id='morphing_basis_vector_3'> +1.6821621e-04 </wgt>
<wgt id='morphing_basis_vector_4'> +1.1006590e-04 </wgt>
<wgt id='morphing_basis_vector_5'> +1.7619476e-04 </wgt>
</rwgt>
</event>
<event>
 4      1 +3.5234200e-07 1.46377600e+03 7.81860800e-03 8.33631800e-02
        2 -1    0    0  501    0 +0.0000000000e+00 +0.0000000000e+00 +2.0789608320e+03 2.0789608320e+03 0.0000000000e+00 0.0000e+00 -1.0000e+00
       -2 -1    0    0    0  501 -0.0000000000e+00 -0.0000000000e+00 -2.5765768913e+02 2.5765768913e+02 0.0000000000e+00 0.0000e+00 1.0000e+00
      -13  1    1    2    0    0 -4.3520715803e+02 -3.0784430121e+02 +1.1013419998e+02 5.4433714387e+02 0.0000000000e+00 0.0000e+00 1.0000e+00
       13  1    1    2    0    0 +4.3520715803e+02 +3.0784430121e+02 +1.7111689429e+03 1.7922813772e+03 0.0000000000e+00 0.0000e+00 -1.0000e+00
<mgrwt>
<rscale>  0 0.14637763E+04</rscale>
<asrwt>0</asrwt>
<pdfrwt beam="1">  1        2 0.31984012E+00 0.14637763E+04</pdfrwt>
<pdfrwt beam="2">  1       -2 0.39639646E-01 0.14637763E+04</pdfrwt>
<totfact> 0.43395074E+01</totfact>
</mgrwt>
<rwgt>
<wgt id='morphing_basis_vector_1'> +2.3497472e-04 </wgt>
<wgt id='morphing_basis_vector_2'> +1.5408139e-04 </wgt>
<wgt id='morphing_basis_vector_3'> +2.4310305e-04 </wgt>
<wgt id='morphing_basis_vector_4'> +1.6258207e-04 </wgt>
<wgt id='morphing_basis_vector_5'> +2.5954004e-04 </wgt>
</rwgt>
</event>
<event>
 4      1 +3.5234200e-07 1.47000200e+03 7.81860800e-03 8.33260300e-02
        2 -1    0    0  501    0 +0.0000000000e+00 +0.0000000000e+00 +1.2337699801e+03 1.2337699801e+03 0.0000000000e+00 0.0000e+00 -1.0000e+00
       -2 -1    0    0    0  501 -0.0000000000e+00 -0.0000000000e+00 -4.3786629558e+02 4.3786629558e+02 0.0000000000e+00 0.0000e+00 1.0000e+00
      -13  1    1    2    0    0 +8.5331160994e+01 -4.8798622258e+02 -2.1949308708e+02 5.4183869901e+02 0.0000000000e+00 0.0000e+00 1.0000e+00
       13  1    1    2    0    0 -8.5331160994e+01 +4.8798622258e+02 +1.0153967716e+03 1.1297975767e+03 0.0000000000e+00 0.0000e+00 -1.0000e+00
<mgrwt>
<rscale>  0 0.14700018E+04</rscale>
<asrwt>0</asrwt>
<pdfrwt beam="1">  1        2 0.18981076E+00 0.14700018E+04</pdfrwt>
<pdfrwt beam="2">  1       -2 0.67364046E-01 0.14700018E+04</pdfrwt>
<totfact> 0.45159426E+01</totfact>
</mgrwt>
<rwgt>
<wgt id='morphing_basis_vector_1'> +2.3873038e-04 </wgt>
<wgt id='morphing_basis_vector_2'> +1.5632402e-04 </wgt>
<wgt id='morphing_basis_vector_3'> +2.4709727e-04 </wgt>
<wgt id='morphing_basis_vector_4'> +1.6568607e-04 </wgt>
<wgt id='morphing_basis_vector_5'> +2.6417060e-04 </wgt>
</rwgt>
</event>
<event>
 4      1 +3.5234200e-07 1.43994700e+03 7.81860800e-03 8.35071700e-02
        2 -1    0    0  501    0 +0.0000000000e+00 +0.0000000000e+00 +2.7024795733e+03 2.7024795733e+03 0.0000000000e+00 0.0000e+00 1.0000e+00
       -2 -1    0    0    0  501 -0.0000000000e+00 -0.0000000000e+00 -1.9180970806e+02 1.9180970806e+02 0.0000000000e+00 0.0000e+00 -1.0000e+00
      -13  1    1    2    0    0 +5.2886878340e+02 -2.0121892246e+02 +3.6055750191e+02 6.7096419948e+02 0.0000000000e+00 0.0000e+00 -1.0000e+00
       13  1    1    2    0    0 -5.2886878340e+02 +2.0121892246e+02 +2.1501123634e+03 2.2233250819e+03 0.0000000000e+00 0.0000e+00 1.0000e+00
<mgrwt>
<rscale>  0 0.14399470E+04</rscale>
<asrwt>0</asrwt>
<pdfrwt beam="1">  1        2 0.41576606E+00 0.14399470E+04</pdfrwt>
<pdfrwt beam="2">  1       -2 0.29509188E-01 0.14399470E+04</pdfrwt>
<totfact> 0.32055403E+01</totfact>
</mgrwt>
<rwgt>
<wgt id='morphing_basis_vector_1'> +2.2077003e-04 </wgt>
<wgt id='morphing_basis_vector_2'> +1.4499602e-04 </wgt>
<wgt id='morphing_basis_vector_3'> +2.2794534e-04 </wgt>
<wgt id='morphing_basis_vector_4'> +1.5154414e-04 </wgt>
<wgt id='morphing_basis_vector_5'> +2.4240238e-04 </wgt>
</rwgt>
</event>
<event>
 4      1 +3.5234200e-07 1.33929500e+03 7.81860800e-03 8.41490100e-02
        2 -1    0    0  501    0 +0.0000000000e+00 +0.0000000000e+00 +1.2656139391e+03 1.2656139391e+03 0.0000000000e+00 0.0000e+00 1.0000e+00
       -2 -1    0    0    0  501 -0.0000000000e+00 -0.0000000000e+00 -3.5431635015e+02 3.5431635015e+02 0.0000000000e+00 0.0000e+00 -1.0000e+00
      -13  1    1    2    0    0 +6.1729135005e+02 -1.8531231273e+02 +6.7550054330e+02 9.3364353374e+02 0.0000000000e+00 0.0000e+00 -1.0000e+00
       13  1    1    2    0    0 -6.1729135005e+02 +1.8531231273e+02 +2.3579704570e+02 6.8628675556e+02 0.0000000000e+00 0.0000e+00 1.0000e+00
<mgrwt>
<rscale>  0 0.13392949E+04</rscale>
<asrwt>0</asrwt>
<pdfrwt beam="1">  1        2 0.19470983E+00 0.13392949E+04</pdfrwt>
<pdfrwt beam="2">  1       -2 0.54510208E-01 0.13392949E+04</pdfrwt>
<totfact> 0.67626484E+01</totfact>
</mgrwt>
<rwgt>
<wgt id='morphing_basis_vector_1'> +1.8214838e-04 </wgt>
<wgt id='morphing_basis_vector_2'> +1.5384538e-04 </wgt>
<wgt id='morphing_basis_vector_3'> +1.8914966e-04 </wgt>
<wgt id='morphing_basis_vector_4'> +8.5214356e-05 </wgt>
<wgt id='morphing_basis_vector_5'> +1.7725646e-04 </wgt>
</rwgt>
</event>
<event>
 4      1 +3.5234200e-07 1.41583000e+03 7.81860800e-03 8.36558700e-02
        2 -1    0    0  501    0 +0.0000000000e+00 +0.0000000000e+00 +1.0284759923e+03 1.0284759923e+03 0.0000000000e+00 0.0000e+00 -1.0000e+00
       -2 -1    0    0    0  501 -0.0000000000e+00 -0.0000000000e+00 -4.8726835032e+02 4.8726835032e+02 0.0000000000e+00 0.0000e+00 1.0000e+00
      -13  1    1    2    0    0 -1.7637126467e+02 -6.3401169298e+02 -8.7022485870e+00 6.5814388926e+02 0.0000000000e+00 0.0000e+00 1.0000e+00
       13  1    1    2    0    0 +1.7637126467e+02 +6.3401169298e+02 +5.4990989051e+02 8.5760045331e+02 0.0000000000e+00 0.0000e+00 -1.0000e+00
<mgrwt>
<rscale>  0 0.14158302E+04</rscale>
<asrwt>0</asrwt>
<pdfrwt beam="1">  1        2 0.15822708E+00 0.14158302E+04</pdfrwt>
<pdfrwt beam="2">  1       -2 0.74964361E-01 0.14158302E+04</pdfrwt>
<totfact> 0.47747440E+01</totfact>
</mgrwt>
<rwgt>
<wgt id='morphing_basis_vector_1'> +2.0815922e-04 </wgt>
<wgt id='morphing_basis_vector_2'> +1.3947739e-04 </wgt>
<wgt id='morphing_basis_vector_3'> +2.1472100e-04 </wgt>
<wgt id='morphing_basis_vector_4'> +1.3895066e-04 </wgt>
<wgt id='morphing_basis_vector_5'> +2.2578080e-04 </wgt>
</rwgt>
</event>
<event>
 4      1 +3.5234200e-07 1.33802400e+03 7.81860800e-03 8.41574800e-02
        2 -1    0    0  501    0 +0.0000000000e+00 +0.0000000000e+00 +7.4181225655e+02 7.4181225655e+02 0.0000000000e+00 0.0000e+00 1.0000e+00
       -2 -1    0    0    0  501 -0.0000000000e+00 -0.0000000000e+00 -6.0335659484e+02 6.0335659484e+02 0.0000000000e+00 0.0000e+00 -1.0000e+00
      -13  1    1    2    0    0 -3.5963142965e+02 +4.3142982999e+02 -2.9618350988e+02 6.3497333403e+02 0.0000000000e+00 0.0000e+00 -1.0000e+00
       13  1    1    2    0    0 +3.5963142965e+02 -4.3142982999e+02 +4.3463917159e+02 7.1019551736e+02 0.0000000000e+00 0.0000e+00 1.0000e+00
<mgrwt>
<rscale>  0 0.13380244E+04</rscale>
<asrwt>0</asrwt>
<pdfrwt beam="1">  1        2 0.11412496E+00 0.13380244E+04</pdfrwt>
<pdfrwt beam="2">  1       -2 0.92824091E-01 0.13380244E+04</pdfrwt>
<totfact> 0.45687768E+01</totfact>
</mgrwt>
<rwgt>
<wgt id='morphing_basis_vector_1'> +1.6679932e-04 </wgt>
<wgt id='morphing_basis_vector_2'> +1.0933277e-04 </wgt>
<wgt id='morphing_basis_vector_3'> +1.7040894e-04 </wgt>
<wgt id='morphing_basis_vector_4'> +1.1126169e-04 </wgt>
<wgt id='morphing_basis_vector_5'> +1.7843623e-04 </wgt>
</rwgt>
</event>
<event>
 4      1 +3.5234200e-07 1.33401300e+03 7.81860800e-03 8.41843000e-02
        2 -1    0    0  501    0 +0.0000000000e+00 +0.0000000000e+00 +1.9864640362e+03 1.9864640362e+03 0.0000000000e+00 0.0000e+00 -1.0000e+00
       -2 -1    0    0    0  501 -0.0000000000e+00 -0.0000000000e+00 -2.2396469216e+02 2.2396469216e+02 0.0000000000e+00 0.0000e+00 1.0000e+00
      -13  1    1    2    0    0 +2.0067216294e+02 +2.7305346322e+02 -7.0712320965e+01 3.4616144079e+02 0.0000000000e+00 0.0000e+00 1.0000e+00
       13  1    1    2    0    0 -2.0067216294e+02 -2.7305346322e+02 +1.8332116650e+03 1.8642672875e+03 0.0000000000e+00 0.0000e+00 -1.0000e+00
<mgrwt>
<rscale>  0 0.13340132E+04</rscale>
<asrwt>0</asrwt>
<pdfrwt beam="1">  1        2 0.30560984E+00 0.13340132E+04</pdfrwt>
<pdfrwt beam="2">  1       -2 0.34456108E-01 0.13340132E+04</pdfrwt>
<totfact> 0.63991937E+01</totfact>
</mgrwt>
<rwgt>
<wgt id='morphing_basis_vector_1'> +1.6435955e-04 </wgt>
<wgt id='morphing_basis_vector_2'> +1.0645087e-04 </wgt>
<wgt id='morphing_basis_vector_3'> +1.6772753e-04 </wgt>
<wgt id='morphing_basis_vector_4'> +1.1083713e-04 </wgt>
<wgt id='morphing_basis_vector_5'> +1.7627664e-04 </wgt>
</rwgt>
</event>
<event>
 4      1 +3.5234200e-07 1.42603700e+03 7.81860800e-03 8.35925600e-02
        2 -1    0    0  501    0 +0.0000000000e+00 +0.0000000000e+00 +1.1739165593e+03 1.1739165593e+03 0.0000000000e+00 0.0000e+00 1.0000e+00
       -2 -1    0    0    0  501 -0.0000000000e+00 -0.0000000000e+00 -4.3307640915e+02 4.3307640915e+02 0.0000000000e+00 0.0000e+00 -1.0000e+00
      -13  1    1    2    0    0 +2.2871255136e+02 +1.0100975634e+02 +1.1228977872e+03 1.1503963849e+03 0.0000000000e+00 0.0000e+00 1.0000e+00
       13  1    1    2    0    0 -2.2871255136e+02 -1.0100975634e+02 -3.8205763705e+02 4.5659658349e+02 0.0000000000e+00 0.0000e+00 -1.0000e+00
<mgrwt>
<rscale>  0 0.14260373E+04</rscale>
<asrwt>0</asrwt>
<pdfrwt beam="1">  1        2 0.18060255E+00 0.14260373E+04</pdfrwt>
<pdfrwt beam="2">  1       -2 0.66627140E-01 0.14260373E+04</pdfrwt>
<totfact> 0.50276340E+01</totfact>
</mgrwt>
<rwgt>
<wgt id='morphing_basis_vector_1'> +2.8972120e-04 </wgt>
<wgt id='morphing_basis_vector_2'> +3.6957426e-04 </wgt>
<wgt id='morphing_basis_vector_3'> +3.1750130e-04 </wgt>
<wgt id='morphing_basis_vector_4'> +4.0535076e-06 </wgt>
<wgt id='morphing_basis_vector_5'> +2.2247918e-04 </wgt>
</rwgt>
</event>
<event>
 4      1 +3.5234200e-07 1.40114300e+03 7.81860800e-03 8.37479500e-02
        2 -1    0    0  501    0 +0.0000000000e+00 +0.0000000000e+00 +7.1202959833e+02 7.1202959833e+02 0.0000000000e+00 0.0000e+00 -1.0000e+00
       -2 -1    0    0    0  501 -0.0000000000e+00 -0.0000000000e+00 -6.8929801881e+02 6.8929801881e+02 0.0000000000e+00 0.0000e+00 1.0000e+00
      -13  1    1    2    0    0 +3.2157027476e+02 +1.3401771253e+01 -6.1098094554e+02 6.9056843606e+02 0.0000000000e+00 0.0000e+00 1.0000e+00
       13  1    1    2    0    0 -3.2157027476e+02 -1.3401771253e+01 +6.3371252505e+02 7.1075918108e+02 0.0000000000e+00 0.0000e+00 -1.0000e+00
<mgrwt>
<rscale>  0 0.14011432E+04</rscale>
<asrwt>0</asrwt>
<pdfrwt beam="1">  1        2 0.10954302E+00 0.14011432E+04</pdfrwt>
<pdfrwt beam="2">  1       -2 0.10604585E+00 0.14011432E+04</pdfrwt>
<totfact> 0.34712381E+01</totfact>
</mgrwt>
<rwgt>
<wgt id='morphing_basis_vector_1'> +1.9835510e-04 </wgt>
<wgt id='morphing_basis_vector_2'> +1.2900877e-04 </wgt>
<wgt id='morphing_basis_vector_3'> +2.0391606e-04 </wgt>
<wgt id='morphing_basis_vector_4'> +1.3603674e-04 </wgt>
<wgt id='morphing_basis_vector_5'> +2.1639972e-04 </wgt>
</rwgt>
</event>
<event>
 4      1 +3.5234200e-07 1.54782600e+03 7.81860800e-03 8.28771000e-02
        2 -1    0    0  501    0 +0.0000000000e+00 +0.0000000000e+00 +2.6265650036e+03 2.6265650036e+03 0.0000000000e+00 0.0000e+00 1.0000e+00
       -2 -1    0    0    0  501 -0.0000000000e+00 -0.0000000000e+00 -2.2803210996e+02 2.2803210996e+02 0.0000000000e+00 0.0000e+00 -1.0000e+00
      -13  1    1    2    0    0 -6.6240334635e+02 +3.5772302950e+02 +8.6833975026e+02 1.1492423073e+03 0.0000000000e+00 0.0000e+00 -1.0000e+00
       13  1    1    2    0    0 +6.6240334635e+02 -3.5772302950e+02 +1.5301931434e+03 1.7053548063e+03 0.0000000000e+00 0.0000e+00 1.0000e+00
<mgrwt>
<rscale>  0 0.15478258E+04</rscale>
<asrwt>0</asrwt>
<pdfrwt beam="1">  1        2 0.40408690E+00 0.15478258E+04</pdfrwt>
<pdfrwt beam="2">  1       -2 0.35081865E-01 0.15478258E+04</pdfrwt>
<totfact> 0.25884263E+01</totfact>
</mgrwt>
<rwgt>
<wgt id='morphing_basis_vector_1'> +2.9544945e-04 </wgt>
<wgt id='morphing_basis_vector_2'> +2.0379041e-04 </wgt>
<wgt id='morphing_basis_vector_3'> +3.0898184e-04 </wgt>
<wgt id='morphing_basis_vector_4'> +1.9736035e-04 </wgt>
<wgt id='morphing_basis_vector_5'> +3.2655539e-04 </wgt>
</rwgt>
</event>
<event>
 4      1 +3.5234200e-07 1.37510500e+03 7.81860800e-03 8.39141100e-02
        2 -1    0    0  501    0 +0.0000000000e+00 +0.0000000000e+00 +8.6515054315e+02 8.6515054315e+02 0.0000000000e+00 0.0000e+00 1.0000e+00
       -2 -1    0    0    0  501 -0.0000000000e+00 -0.0000000000e+00 -5.4641186128e+02 5.4641186128e+02 0.0000000000e+00 0.0000e+00 -1.0000e+00
      -13  1    1    2    0    0 +4.4787170918e+02 -2.6044306687e+02 -3.0461976681e+02 6.0100986789e+02 0.0000000000e+00 0.0000e+00 -1.0000e+00
       13  1    1    2    0    0 -4.4787170918e+02 +2.6044306687e+02 +6.2335844868e+02 8.1055253655e+02 0.0000000000e+00 0.0000e+00 1.0000e+00
<mgrwt>
<rscale>  0 0.13751051E+04</rscale>
<asrwt>0</asrwt>
<pdfrwt beam="1">  1        2 0.13310008E+00 0.13751051E+04</pdfrwt>
<pdfrwt beam="2">  1       -2 0.84063363E-01 0.13751051E+04</pdfrwt>
<totfact> 0.47056468E+01</totfact>
</mgrwt>
<rwgt>
<wgt id='morphing_basis_vector_1'> +1.8487380e-04 </wgt>
<wgt id='morphing_basis_vector_2'> +1.2071724e-04 </wgt>
<wgt id='morphing_basis_vector_3'> +1.8960065e-04 </wgt>
<wgt id='morphing_basis_vector_4'> +1.2529219e-04 </wgt>
<wgt id='morphing_basis_vector_5'> +2.0007541e-04 </wgt>
</rwgt>
</event>
<event>
 4      1 +3.5234200e-07 1.35528800e+03 7.81860800e-03 8.40431700e-02
        2 -1    0    0  501    0 +0.0000000000e+00 +0.0000000000e+00 +4.9083368182e+02 4.9083368182e+02 0.0000000000e+00 0.0000e+00 -1.0000e+00
       -2 -1    0    0    0  501 -0.0000000000e+00 -0.0000000000e+00 -9.3555398425e+02 9.3555398425e+02 0.0000000000e+00 0.0000e+00 1.0000e+00
      -13  1    1    2    0    0 -4.0499473987e+01 +5.1009750097e+02 -6.8992026496e+02 8.5897010419e+02 0.0000000000e+00 0.0000e+00 1.0000e+00
       13  1    1    2    0    0 +4.0499473987e+01 -5.1009750097e+02 +2.4519996254e+02 5.6741756187e+02 0.0000000000e+00 0.0000e+00 -1.0000e+00
<mgrwt>
<rscale>  0 0.13552880E+04</rscale>
<asrwt>0</asrwt>
<pdfrwt beam="1">  1        2 0.75512875E-01 0.13552880E+04</pdfrwt>
<pdfrwt beam="2">  1       -2 0.14393138E+00 0.13552880E+04</pdfrwt>
<totfact> 0.24184142E+01</totfact>
</mgrwt>
<rwgt>
<wgt id='morphing_basis_vector_1'> +1.7487836e-04 </wgt>
<wgt id='morphing_basis_vector_2'> +1.1404877e-04 </wgt>
<wgt id='morphing_basis_vector_3'> +1.7895619e-04 </wgt>
<wgt id='morphing_basis_vector_4'> +1.1792873e-04 </wgt>
<wgt id='morphing_basis_vector_5'> +1.8830370e-04 </wgt>
</rwgt>
</event>
<event>
 4      1 +3.5234200e-07 1.30237700e+03 7.81860800e-03 8.43993400e-02
        2 -1    0    0  501    0 +0.0000000000e+00 +0.0000000000e+00 +5.0882026129e+02 5.0882026129e+02 0.0000000000e+00 0.0000e+00 -1.0000e+00
       -2 -1    0    0    0  501 -0.0000000000e+00 -0.0000000000e+00 -8.3339140186e+02 8.3339140186e+02 0.0000000000e+00 0.0000e+00 1.0000e+00
      -13  1    1    2    0    0 -5.0124930091e+02 +2.6392151878e+02 -4.9326421842e+02 7.5114247578e+02 0.0000000000e+00 0.0000e+00 1.0000e+00
       13  1    1    2    0    0 +5.0124930091e+02 -2.6392151878e+02 +1.6869307786e+02 5.9106918737e+02 0.0000000000e+00 0.0000e+00 -1.0000e+00
<mgrwt>
<rscale>  0 0.13023770E+04</rscale>
<asrwt>0</asrwt>
<pdfrwt beam="1">  1        2 0.78280041E-01 0.13023770E+04</pdfrwt>
<pdfrwt beam="2">  1       -2 0.12821406E+00 0.13023770E+04</pdfrwt>
<totfact> 0.31979115E+01</totfact>
</mgrwt>
<rwgt>
<wgt id='morphing_basis_vector_1'> +1.5061662e-04 </wgt>
<wgt id='morphing_basis_vector_2'> +9.8852375e-05 </wgt>
<wgt id='morphing_basis_vector_3'> +1.5323426e-04 </wgt>
<wgt id='morphing_basis_vector_4'> +9.9096943e-05 </wgt>
<wgt id='morphing_basis_vector_5'> +1.5932756e-04 </wgt>
</rwgt>
</event>
<event>
 4      1 +3.5234200e-07 1.30253400e+03 7.81860800e-03 8.43982500e-02
        2 -1    0    0  501    0 +0.0000000000e+00 +0.0000000000e+00 +7.9521372232e+02 7.9521372232e+02 0.0000000000e+00 0.0000e+00 1.0000e+00
       -2 -1    0    0    0  501 -0.0000000000e+00 -0.0000000000e+00 -5.3337713404e+02 5.3337713404e+02 0.0000000000e+00 0.0000e+00 -1.0000e+00
      -13  1    1    2    0    0 +2.5300944590e+02 +1.3247191688e+02 -4.6609923664e+02 5.4663615584e+02 0.0000000000e+00 0.0000e+00 -1.0000e+00
       13  1    1    2    0    0 -2.5300944590e+02 -1.3247191688e+02 +7.2793582492e+02 7.8195470053e+02 0.0000000000e+00 0.0000e+00 1.0000e+00
<mgrwt>
<rscale>  0 0.13025342E+04</rscale>
<asrwt>0</asrwt>
<pdfrwt beam="1">  1        2 0.12234057E+00 0.13025342E+04</pdfrwt>
<pdfrwt beam="2">  1       -2 0.82058021E-01 0.13025342E+04</pdfrwt>
<totfact> 0.55837822E+01</totfact>
</mgrwt>
<rwgt>
<wgt id='morphing_basis_vector_1'> +1.5001816e-04 </wgt>
<wgt id='morphing_basis_vector_2'> +9.6899170e-05 </wgt>
<wgt id='morphing_basis_vector_3'> +1.5250334e-04 </wgt>
<wgt id='morphing_basis_vector_4'> +1.0033415e-04 </wgt>
<wgt id='morphing_basis_vector_5'> +1.5949200e-04 </wgt>
</rwgt>
</event>
<event>
 4      1 +3.5234200e-07 1.37939600e+03 7.81860800e-03 8.38864700e-02
        2 -1    0    0  501    0 +0.0000000000e+00 +0.0000000000e+00 +1.4236502606e+03 1.4236502606e+03 0.0000000000e+00 0.0000e+00 1.0000e+00
       -2 -1    0    0    0  501 -0.0000000000e+00 -0.0000000000e+00 -3.3412935350e+02 3.3412935350e+02 0.0000000000e+00 0.0000e+00 -1.0000e+00
      -13  1    1    2    0    0 +6.5354301953e+02 -1.5454434480e+02 +3.4456416314e+02 7.5480255392e+02 0.0000000000e+00 0.0000e+00 -1.0000e+00
       13  1    1    2    0    0 -6.5354301953e+02 +1.5454434480e+02 +7.4495674400e+02 1.0029770602e+03 0.0000000000e+00 0.0000e+00 1.0000e+00
<mgrwt>
<rscale>  0 0.13793960E+04</rscale>
<asrwt>0</asrwt>
<pdfrwt beam="1">  1        2 0.21902311E+00 0.13793960E+04</pdfrwt>
<pdfrwt beam="2">  1       -2 0.51404517E-01 0.13793960E+04</pdfrwt>
<totfact> 0.61596293E+01</totfact>
</mgrwt>
<rwgt>
<wgt id='morphing_basis_vector_1'> +1.8962402e-04 </wgt>
<wgt id='morphing_basis_vector_2'> +1.2976026e-04 </wgt>
<wgt id='morphing_basis_vector_3'> +1.9512988e-04 </wgt>
<wgt id='morphing_basis_vector_4'> +1.2233583e-04 </wgt>
<wgt id='morphing_basis_vector_5'> +2.0236278e-04 </wgt>
</rwgt>
</event>
<event>
 4      1 +3.5234200e-07 1.34541000e+03 7.81860800e-03 8.41083600e-02
        2 -1    0    0  501    0 +0.0000000000e+00 +0.0000000000e+00 +7.3927959775e+02 7.3927959775e+02 0.0000000000e+00 0.0000e+00 1.0000e+00
       -2 -1    0    0    0  501 -0.0000000000e+00 -0.0000000000e+00 -6.1212553352e+02 6.1212553352e+02 0.0000000000e+00 0.0000e+00 -1.0000e+00
      -13  1    1    2    0    0 +6.1394521156e+02 +1.1444233645e+02 -1.8754934093e+02 6.5207401915e+02 0.0000000000e+00 0.0000e+00 1.0000e+00
       13  1    1    2    0    0 -6.1394521156e+02 -1.1444233645e+02 +3.1470340515e+02 6.9933111212e+02 0.0000000000e+00 0.0000e+00 -1.0000e+00
<mgrwt>
<rscale>  0 0.13454099E+04</rscale>
<asrwt>0</asrwt>
<pdfrwt beam="1">  1        2 0.11373532E+00 0.13454099E+04</pdfrwt>
<pdfrwt beam="2">  1       -2 0.94173159E-01 0.13454099E+04</pdfrwt>
<totfact> 0.44325525E+01</totfact>
</mgrwt>
<rwgt>
<wgt id='morphing_basis_vector_1'> +1.7115605e-04 </wgt>
<wgt id='morphing_basis_vector_2'> +1.1413213e-04 </wgt>
<wgt id='morphing_basis_vector_3'> +1.7517999e-04 </wgt>
<wgt id='morphing_basis_vector_4'> +1.1239399e-04 </wgt>
<wgt id='morphing_basis_vector_5'> +1.8248909e-04 </wgt>
</rwgt>
</event>
<event>
 4      1 +3.5234200e-07 1.42448300e+03 7.81860800e-03 8.36021700e-02
        2 -1    0    0  501    0 +0.0000000000e+00 +0.0000000000e+00 +8.5480846279e+02 8.5480846279e+02 0.0000000000e+00 0.0000e+00 -1.0000e+00
       -2 -1    0    0    0  501 -0.0000000000e+00 -0.0000000000e+00 -5.9345257044e+02 5.9345257044e+02 0.0000000000e+00 0.0000e+00 1.0000e+00
      -13  1    1    2    0    0 +5.4985790391e+02 +2.7629553248e+02 -2.3392396694e+02 6.5833377406e+02 0.0000000000e+00 0.0000e+00 1.0000e+00
       13  1    1    2    0    0 -5.4985790391e+02 -2.7629553248e+02 +4.9527985929e+02 7.8992725917e+02 0.0000000000e+00 0.0000e+00 -1.0000e+00
<mgrwt>
<rscale>  0 0.14244835E+04</rscale>
<asrwt>0</asrwt>
<pdfrwt beam="1">  1        2 0.13150899E+00 0.14244835E+04</pdfrwt>
<pdfrwt beam="2">  1       -2 0.91300395E-01 0.14244835E+04</pdfrwt>
<totfact> 0.39312582E+01</totfact>
</mgrwt>
<rwgt>
<wgt id='morphing_basis_vector_1'> +2.1223787e-04 </wgt>
<wgt id='morphing_basis_vector_2'> +1.4030620e-04 </wgt>
<wgt id='morphing_basis_vector_3'> +2.1891516e-04 </wgt>
<wgt id='morphing_basis_vector_4'> +1.4407973e-04 </wgt>
<wgt id='morphing_basis_vector_5'> +2.3169521e-04 </wgt>
</rwgt>
</event>
<event>
 4      1 +3.5234200e-07 1.48639300e+03 7.81860800e-03 8.32291200e-02
        2 -1    0    0  501    0 +0.0000000000e+00 +0.0000000000e+00 +3.9298922130e+02 3.9298922130e+02 0.0000000000e+00 0.0000e+00 1.0000e+00
       -2 -1    0    0    0  501 -0.0000000000e+00 -0.0000000000e+00 -1.4054860822e+03 1.4054860822e+03 0.0000000000e+00 0.0000e+00 -1.0000e+00
      -13  1    1    2    0    0 +2.4025286513e+02 +4.4455484065e+02 -1.1656380717e+03 1.2704576182e+03 0.0000000000e+00 0.0000e+00 -1.0000e+00
       13  1    1    2    0    0 -2.4025286513e+02 -4.4455484065e+02 +1.5314121076e+02 5.2801768529e+02 0.0000000000e+00 0.0000e+00 1.0000e+00
<mgrwt>
<rscale>  0 0.14863928E+04</rscale>
<asrwt>0</asrwt>
<pdfrwt beam="1">  1        2 0.60459880E-01 0.14863928E+04</pdfrwt>
<pdfrwt beam="2">  1       -2 0.21622863E+00 0.14863928E+04</pdfrwt>
<totfact> 0.85885985E+00</totfact>
</mgrwt>
<rwgt>
<wgt id='morphing_basis_vector_1'> +2.4916629e-04 </wgt>
<wgt id='morphing_basis_vector_2'> +1.6332778e-04 </wgt>
<wgt id='morphing_basis_vector_3'> +2.5827610e-04 </wgt>
<wgt id='morphing_basis_vector_4'> +1.7345570e-04 </wgt>
<wgt id='morphing_basis_vector_5'> +2.7661005e-04 </wgt>
</rwgt>
</event>
<event>
 4      1 +3.5234200e-07 1.42250500e+03 7.81860800e-03 8.36144100e-02
        2 -1    0    0  501    0 +0.0000000000e+00 +0.0000000000e+00 +3.9474823070e+02 3.9474823070e+02 0.0000000000e+00 0.0000e+00 1.0000e+00
       -2 -1    0    0    0  501 -0.0000000000e+00 -0.0000000000e+00 -1.2815262193e+03 1.2815262193e+03 0.0000000000e+00 0.0000e+00 -1.0000e+00
      -13  1    1    2    0    0 -6.3963437408e+02 -3.1047371456e+02 -4.6556500941e+02 8.4986871805e+02 0.0000000000e+00 0.0000e+00 -1.0000e+00
       13  1    1    2    0    0 +6.3963437408e+02 +3.1047371456e+02 -4.2121297919e+02 8.2640573194e+02 0.0000000000e+00 0.0000e+00 1.0000e+00
<mgrwt>
<rscale>  0 0.14225051E+04</rscale>
<asrwt>0</asrwt>
<pdfrwt beam="1">  1        2 0.60730496E-01 0.14225051E+04</pdfrwt>
<pdfrwt beam="2">  1       -2 0.19715788E+00 0.14225051E+04</pdfrwt>
<totfact> 0.11802689E+01</totfact>
</mgrwt>
<rwgt>
<wgt id='morphing_basis_vector_1'> +2.1712654e-04 </wgt>
<wgt id='morphing_basis_vector_2'> +1.5751479e-04 </wgt>
<wgt id='morphing_basis_vector_3'> +2.2536824e-04 </wgt>
<wgt id='morphing_basis_vector_4'> +1.3220319e-04 </wgt>
<wgt id='morphing_basis_vector_5'> +2.2955309e-04 </wgt>
</rwgt>
</event>
<event>
 4      1 +3.5234200e-07 1.32410500e+03 7.81860800e-03 8.42509700e-02
        2 -1    0    0  501    0 +0.0000000000e+00 +0.0000000000e+00 +1.0997115423e+03 1.0997115423e+03 0.0000000000e+00 0.0000e+00 -1.0000e+00
       -2 -1    0    0    0  501 -0.0000000000e+00 -0.0000000000e+00 -3.9857125201e+02 3.9857125201e+02 0.0000000000e+00 0.0000e+00 1.0000e+00
      -13  1    1    2    0    0 -4.2695623741e+02 -4.7491058150e+02 +1.5301373123e+02 6.5669238691e+02 0.0000000000e+00 0.0000e+00 1.0000e+00
       13  1    1    2    0    0 +4.2695623741e+02 +4.7491058150e+02 +5.4812655908e+02 8.4159040741e+02 0.0000000000e+00 0.0000e+00 -1.0000e+00
<mgrwt>
<rscale>  0 0.13241048E+04</rscale>
<asrwt>0</asrwt>
<pdfrwt beam="1">  1        2 0.16918639E+00 0.13241048E+04</pdfrwt>
<pdfrwt beam="2">  1       -2 0.61318655E-01 0.13241048E+04</pdfrwt>
<totfact> 0.66698096E+01</totfact>
</mgrwt>
<rwgt>
<wgt id='morphing_basis_vector_1'> +1.6180690e-04 </wgt>
<wgt id='morphing_basis_vector_2'> +1.0956417e-04 </wgt>
<wgt id='morphing_basis_vector_3'> +1.6533863e-04 </wgt>
<wgt id='morphing_basis_vector_4'> +1.0374547e-04 </wgt>
<wgt id='morphing_basis_vector_5'> +1.7059643e-04 </wgt>
</rwgt>
</event>
<event>
 4      1 +3.5234200e-07 1.43429800e+03 7.81860800e-03 8.35417300e-02
        2 -1    0    0  501    0 +0.0000000000e+00 +0.0000000000e+00 +4.0214145029e+02 4.0214145029e+02 0.0000000000e+00 0.0000e+00 1.0000e+00
       -2 -1    0    0    0  501 -0.0000000000e+00 -0.0000000000e+00 -1.2789094817e+03 1.2789094817e+03 0.0000000000e+00 0.0000e+00 -1.0000e+00
      -13  1    1    2    0    0 -4.2964506620e+02 -5.6221467122e+02 -5.7517790026e+02 9.1187161180e+02 0.0000000000e+00 0.0000e+00 -1.0000e+00
       13  1    1    2    0    0 +4.2964506620e+02 +5.6221467122e+02 -3.0159013120e+02 7.6917932024e+02 0.0000000000e+00 0.0000e+00 1.0000e+00
<mgrwt>
<rscale>  0 0.14342978E+04</rscale>
<asrwt>0</asrwt>
<pdfrwt beam="1">  1        2 0.61867915E-01 0.14342978E+04</pdfrwt>
<pdfrwt beam="2">  1       -2 0.19675531E+00 0.14342978E+04</pdfrwt>
<totfact> 0.11625487E+01</totfact>
</mgrwt>
<rwgt>
<wgt id='morphing_basis_vector_1'> +2.2126131e-04 </wgt>
<wgt id='morphing_basis_vector_2'> +1.5412898e-04 </wgt>
<wgt id='morphing_basis_vector_3'> +2.2926754e-04 </wgt>
<wgt id='morphing_basis_vector_4'> +1.4209037e-04 </wgt>
<wgt id='morphing_basis_vector_5'> +2.3795951e-04 </wgt>
</rwgt>
</event>
<event>
 4      1 +3.5234200e-07 1.32717000e+03 7.81860800e-03 8.42302800e-02
        2 -1    0    0  501    0 +0.0000000000e+00 +0.0000000000e+00 +2.0549606921e+03 2.0549606921e+03 0.0000000000e+00 0.0000e+00 -1.0000e+00
       -2 -1    0    0    0  501 -0.0000000000e+00 -0.0000000000e+00 -2.1428394395e+02 2.1428394395e+02 0.0000000000e+00 0.0000e+00 1.0000e+00
      -13  1    1    2    0    0 -9.9363668668e+01 +6.2491073834e+02 +1.2621284132e+03 1.4118621395e+03 0.0000000000e+00 0.0000e+00 1.0000e+00
       13  1    1    2    0    0 +9.9363668668e+01 -6.2491073834e+02 +5.7854833498e+02 8.5738249658e+02 0.0000000000e+00 0.0000e+00 -1.0000e+00
<mgrwt>
<rscale>  0 0.13271700E+04</rscale>
<asrwt>0</asrwt>
<pdfrwt beam="1">  1        2 0.31614778E+00 0.13271700E+04</pdfrwt>
<pdfrwt beam="2">  1       -2 0.32966762E-01 0.13271700E+04</pdfrwt>
<totfact> 0.63478610E+01</totfact>
</mgrwt>
<rwgt>
<wgt id='morphing_basis_vector_1'> +1.7741002e-04 </wgt>
<wgt id='morphing_basis_vector_2'> +1.5295689e-04 </wgt>
<wgt id='morphing_basis_vector_3'> +1.8415619e-04 </wgt>
<wgt id='morphing_basis_vector_4'> +7.9384369e-05 </wgt>
<wgt id='morphing_basis_vector_5'> +1.7045309e-04 </wgt>
</rwgt>
</event>
<event>
 4      1 +3.5234200e-07 1.45074400e+03 7.81860800e-03 8.34415700e-02
        2 -1    0    0  501    0 +0.0000000000e+00 +0.0000000000e+00 +2.8301550566e+02 2.8301550566e+02 0.0000000000e+00 0.0000e+00 -1.0000e+00
       -2 -1    0    0    0  501 -0.0000000000e+00 -0.0000000000e+00 -1.8591358509e+03 1.8591358509e+03 0.0000000000e+00 0.0000e+00 1.0000e+00
      -13  1    1    2    0    0 -5.3172672830e+02 -2.6886438101e+02 -1.3989162909e+03 1.5205223307e+03 0.0000000000e+00 0.0000e+00 1.0000e+00
       13  1    1    2    0    0 +5.3172672830e+02 +2.6886438101e+02 -1.7720405428e+02 6.2162902588e+02 0.0000000000e+00 0.0000e+00 -1.0000e+00
<mgrwt>
<rscale>  0 0.14507436E+04</rscale>
<asrwt>0</asrwt>
<pdfrwt beam="1">  1        2 0.43540847E-01 0.14507436E+04</pdfrwt>
<pdfrwt beam="2">  1       -2 0.28602090E+00 0.14507436E+04</pdfrwt>
<totfact> 0.40979257E+00</totfact>
</mgrwt>
<rwgt>
<wgt id='morphing_basis_vector_1'> +2.2738152e-04 </wgt>
<wgt id='morphing_basis_vector_2'> +1.4983336e-04 </wgt>
<wgt id='morphing_basis_vector_3'> +2.3505585e-04 </wgt>
<wgt id='morphing_basis_vector_4'> +1.5599566e-04 </wgt>
<wgt id='morphing_basis_vector_5'> +2.5002465e-04 </wgt>
</rwgt>
</event>
<event>
 4      1 +3.5234200e-07 1.29631900e+03 7.81860800e-03 8.44412400e-02
        2 -1    0    0  501    0 +0.0000000000e+00 +0.0000000000e+00 +3.6642690150e+03 3.6642690150e+03 0.0000000000e+00 0.0000e+00 1.0000e+00
       -2 -1    0    0    0  501 -0.0000000000e+00 -0.0000000000e+00 -1.1465068985e+02 1.1465068985e+02 0.0000000000e+00 0.0000e+00 -1.0000e+00
      -13  1    1    2    0    0 -2.9481716986e+02 +5.3258420508e+02 +2.4236947936e+03 2.4989716989e+03 0.0000000000e+00 0.0000e+00 -1.0000e+00
       13  1    1    2    0    0 +2.9481716986e+02 -5.3258420508e+02 +1.1259235315e+03 1.2799480060e+03 0.0000000000e+00 0.0000e+00 1.0000e+00
<mgrwt>
<rscale>  0 0.12963194E+04</rscale>
<asrwt>0</asrwt>
<pdfrwt beam="1">  1        2 0.56373361E+00 0.12963194E+04</pdfrwt>
<pdfrwt beam="2">  1       -2 0.17638570E-01 0.12963194E+04</pdfrwt>
<totfact> 0.17536744E+01</totfact>
</mgrwt>
<rwgt>
<wgt id='morphing_basis_vector_1'> +1.6428390e-04 </wgt>
<wgt id='morphing_basis_vector_2'> +1.4595187e-04 </wgt>
<wgt id='morphing_basis_vector_3'> +1.7001484e-04 </wgt>
<wgt id='morphing_basis_vector_4'> +6.8223521e-05 </wgt>
<wgt id='morphing_basis_vector_5'> +1.5420263e-04 </wgt>
</rwgt>
</event>
<event>
 4      1 +3.5234200e-07 1.54415900e+03 7.81860800e-03 8.28976300e-02
        2 -1    0    0  501    0 +0.0000000000e+00 +0.0000000000e+00 +1.1929513197e+03 1.1929513197e+03 0.0000000000e+00 0.0000e+00 -1.0000e+00
       -2 -1    0    0    0  501 -0.0000000000e+00 -0.0000000000e+00 -4.9969102835e+02 4.9969102835e+02 0.0000000000e+00 0.0000e+00 1.0000e+00
      -13  1    1    2    0    0 +7.2983311536e+02 +3.3441327492e+01 +6.2030185207e+02 9.5840966520e+02 0.0000000000e+00 0.0000e+00 1.0000e+00
       13  1    1    2    0    0 -7.2983311536e+02 -3.3441327492e+01 +7.2958439243e+01 7.3423268282e+02 0.0000000000e+00 0.0000e+00 -1.0000e+00
<mgrwt>
<rscale>  0 0.15441594E+04</rscale>
<asrwt>0</asrwt>
<pdfrwt beam="1">  1        2 0.18353097E+00 0.15441594E+04</pdfrwt>
<pdfrwt beam="2">  1       -2 0.76875543E-01 0.15441594E+04</pdfrwt>
<totfact> 0.35608440E+01</totfact>
</mgrwt>
<rwgt>
<wgt id='morphing_basis_vector_1'> +3.1980522e-04 </wgt>
<wgt id='morphing_basis_vector_2'> +2.8247210e-04 </wgt>
<wgt id='morphing_basis_vector_3'> +3.4198730e-04 </wgt>
<wgt id='morphing_basis_vector_4'> +1.4453646e-04 </wgt>
<wgt id='morphing_basis_vector_5'> +3.1956057e-04 </wgt>
</rwgt>
</event>
<event>
 4      1 +3.5234200e-07 1.44892500e+03 7.81860800e-03 8.34525800e-02
        2 -1    0    0  501    0 +0.0000000000e+00 +0.0000000000e+00 +3.4595589798e+03 3.4595589798e+03 0.0000000000e+00 0.0000e+00 -1.0000e+00
       -2 -1    0    0    0  501 -0.0000000000e+00 -0.0000000000e+00 -1.5170897983e+02 1.5170897983e+02 0.0000000000e+00 0.0000e+00 1.0000e+00
      -13  1    1    2    0    0 -5.1673275846e+02 -4.1474408508e+02 +2.3840713071e+03 2.4744335508e+03 0.0000000000e+00 0.0000e+00 -1.0000e+00
       13  1    1    2    0    0 +5.1673275846e+02 +4.1474408508e+02 +9.2377869285e+02 1.1368344088e+03 0.0000000000e+00 0.0000e+00 1.0000e+00
<mgrwt>
<rscale>  0 0.14489253E+04</rscale>
<asrwt>0</asrwt>
<pdfrwt beam="1">  1        2 0.53223978E+00 0.14489253E+04</pdfrwt>
<pdfrwt beam="2">  1       -2 0.23339846E-01 0.14489253E+04</pdfrwt>
<totfact> 0.15250434E+01</totfact>
</mgrwt>
<rwgt>
<wgt id='morphing_basis_vector_1'> +2.5705002e-04 </wgt>
<wgt id='morphing_basis_vector_2'> +2.4089548e-04 </wgt>
<wgt id='morphing_basis_vector_3'> +2.7344308e-04 </wgt>
<wgt id='morphing_basis_vector_4'> +9.8390069e-05 </wgt>
<wgt id='morphing_basis_vector_5'> +2.4455684e-04 </wgt>
</rwgt>
</event>
<event>
 4      1 +3.5234200e-07 1.29609800e+03 7.81860800e-03 8.44427800e-02
        2 -1    0    0  501    0 +0.0000000000e+00 +0.0000000000e+00 +1.6830000582e+03 1.6830000582e+03 0.0000000000e+00 0.0000e+00 1.0000e+00
       -2 -1    0    0    0  501 -0.0000000000e+00 -0.0000000000e+00 -2.4953494073e+02 2.4953494073e+02 0.0000000000e+00 0.0000e+00 -1.0000e+00
      -13  1    1    2    0    0 +2.6529041880e+02 -5.1884525239e+02 +2.9398119903e+02 6.5269008543e+02 0.0000000000e+00 0.0000e+00 -1.0000e+00
       13  1    1    2    0    0 -2.6529041880e+02 +5.1884525239e+02 +1.1394839184e+03 1.2798449135e+03 0.0000000000e+00 0.0000e+00 1.0000e+00
<mgrwt>
<rscale>  0 0.12960977E+04</rscale>
<asrwt>0</asrwt>
<pdfrwt beam="1">  1        2 0.25892308E+00 0.12960977E+04</pdfrwt>
<pdfrwt beam="2">  1       -2 0.38389992E-01 0.12960977E+04</pdfrwt>
<totfact> 0.77652156E+01</totfact>
</mgrwt>
<rwgt>
<wgt id='morphing_basis_vector_1'> +1.4808331e-04 </wgt>
<wgt id='morphing_basis_vector_2'> +9.7652754e-05 </wgt>
<wgt id='morphing_basis_vector_3'> +1.5057504e-04 </wgt>
<wgt id='morphing_basis_vector_4'> +9.6726560e-05 </wgt>
<wgt id='morphing_basis_vector_5'> +1.5610167e-04 </wgt>
</rwgt>
</event>
<event>
 4      1 +3.5234200e-07 1.30293700e+03 7.81860800e-03 8.43954700e-02
        2 -1    0    0  501    0 +0.0000000000e+00 +0.0000000000e+00 +1.8820002053e+03 1.8820002053e+03 0.0000000000e+00 0.0000e+00 -1.0000e+00
       -2 -1    0    0    0  501 -0.0000000000e+00 -0.0000000000e+00 -2.2551082754e+02 2.2551082754e+02 0.0000000000e+00 0.0000e+00 1.0000e+00
      -13  1    1    2    0    0 -6.2531450017e+02 +1.6586587779e+02 +7.0419429736e+02 9.5625275005e+02 0.0000000000e+00 0.0000e+00 1.0000e+00
       13  1    1    2    0    0 +6.2531450017e+02 -1.6586587779e+02 +9.5229508037e+02 1.1512582828e+03 0.0000000000e+00 0.0000e+00 -1.0000e+00
<mgrwt>
<rscale>  0 0.13029373E+04</rscale>
<asrwt>0</asrwt>
<pdfrwt beam="1">  1        2 0.28953848E+00 0.13029373E+04</pdfrwt>
<pdfrwt beam="2">  1       -2 0.34693975E-01 0.13029373E+04</pdfrwt>
<totfact> 0.72461635E+01</totfact>
</mgrwt>
<rwgt>
<wgt id='morphing_basis_vector_1'> +1.5369497e-04 </wgt>
<wgt id='morphing_basis_vector_2'> +1.0749651e-04 </wgt>
<wgt id='morphing_basis_vector_3'> +1.5690836e-04 </wgt>
<wgt id='morphing_basis_vector_4'> +9.4242467e-05 </wgt>
<wgt id='morphing_basis_vector_5'> +1.5926032e-04 </wgt>
</rwgt>
</event>
<event>
 4      1 +3.5234200e-07 1.52830200e+03 7.81860800e-03 8.29871200e-02
        2 -1    0    0  501    0 +0.0000000000e+00 +0.0000000000e+00 +1.3033612553e+03 1.3033612553e+03 0.0000000000e+00 0.0000e+00 1.0000e+00
       -2 -1    0    0    0  501 -0.0000000000e+00 -0.0000000000e+00 -4.4801610254e+02 4.4801610254e+02 0.0000000000e+00 0.0000e+00 -1.0000e+00
      -13  1    1    2    0    0 -5.4700183563e+02 +1.7636389163e+02 +1.0047778944e+03 1.1575378385e+03 0.0000000000e+00 0.0000e+00 -1.0000e+00
       13  1    1    2    0    0 +5.4700183563e+02 -1.7636389163e+02 -1.4943274164e+02 5.9383951934e+02 0.0000000000e+00 0.0000e+00 1.0000e+00
<mgrwt>
<rscale>  0 0.15283021E+04</rscale>
<asrwt>0</asrwt>
<pdfrwt beam="1">  1        2 0.20051711E+00 0.15283021E+04</pdfrwt>
<pdfrwt beam="2">  1       -2 0.68925555E-01 0.15283021E+04</pdfrwt>
<totfact> 0.39032478E+01</totfact>
</mgrwt>
<rwgt>
<wgt id='morphing_basis_vector_1'> +3.5091660e-04 </wgt>
<wgt id='morphing_basis_vector_2'> +4.0126409e-04 </wgt>
<wgt id='morphing_basis_vector_3'> +3.8568691e-04 </wgt>
<wgt id='morphing_basis_vector_4'> +5.6676293e-05 </wgt>
<wgt id='morphing_basis_vector_5'> +3.0010578e-04 </wgt>
</rwgt>
</event>
<event>
 4      1 +3.5234200e-07 1.46558100e+03 7.81860800e-03 8.33523900e-02
        2 -1    0    0  501    0 +0.0000000000e+00 +0.0000000000e+00 +7.1451975583e+02 7.1451975583e+02 0.0000000000e+00 0.0000e+00 -1.0000e+00
       -2 -1    0    0    0  501 -0.0000000000e+00 -0.0000000000e+00 -7.5152864400e+02 7.5152864400e+02 0.0000000000e+00 0.0000e+00 1.0000e+00
      -13  1    1    2    0    0 -1.5862472826e+02 +4.9737283705e+02 -5.3290617825e+02 7.4600974409e+02 0.0000000000e+00 0.0000e+00 1.0000e+00
       13  1    1    2    0    0 +1.5862472826e+02 -4.9737283705e+02 +4.9589729008e+02 7.2003865574e+02 0.0000000000e+00 0.0000e+00 -1.0000e+00
<mgrwt>
<rscale>  0 0.14655812E+04</rscale>
<asrwt>0</asrwt>
<pdfrwt beam="1">  1        2 0.10992612E+00 0.14655812E+04</pdfrwt>
<pdfrwt beam="2">  1       -2 0.11561979E+00 0.14655812E+04</pdfrwt>
<totfact> 0.27664776E+01</totfact>
</mgrwt>
<rwgt>
<wgt id='morphing_basis_vector_1'> +2.3605331e-04 </wgt>
<wgt id='morphing_basis_vector_2'> +1.5471232e-04 </wgt>
<wgt id='morphing_basis_vector_3'> +2.4424883e-04 </wgt>
<wgt id='morphing_basis_vector_4'> +1.6348794e-04 </wgt>
<wgt id='morphing_basis_vector_5'> +2.6087708e-04 </wgt>
</rwgt>
</event>
<event>
 4      1 +3.5234200e-07 1.52234400e+03 7.81860800e-03 8.30210300e-02
        2 -1    0    0  501    0 +0.0000000000e+00 +0.0000000000e+00 +9.2395653181e+02 9.2395653181e+02 0.0000000000e+00 0.0000e+00 -1.0000e+00
       -2 -1    0    0    0  501 -0.0000000000e+00 -0.0000000000e+00 -6.2706757053e+02 6.2706757053e+02 0.0000000000e+00 0.0000e+00 1.0000e+00
      -13  1    1    2    0    0 +1.5340988949e+02 -1.7664499729e+02 -5.8952505270e+02 6.3425376390e+02 0.0000000000e+00 0.0000e+00 1.0000e+00
       13  1    1    2    0    0 -1.5340988949e+02 +1.7664499729e+02 +8.8641401398e+02 9.1677033843e+02 0.0000000000e+00 0.0000e+00 -1.0000e+00
<mgrwt>
<rscale>  0 0.15223445E+04</rscale>
<asrwt>0</asrwt>
<pdfrwt beam="1">  1        2 0.14214716E+00 0.15223445E+04</pdfrwt>
<pdfrwt beam="2">  1       -2 0.96471933E-01 0.15223445E+04</pdfrwt>
<totfact> 0.30844282E+01</totfact>
</mgrwt>
<rwgt>
<wgt id='morphing_basis_vector_1'> +2.7298834e-04 </wgt>
<wgt id='morphing_basis_vector_2'> +1.7868645e-04 </wgt>
<wgt id='morphing_basis_vector_3'> +2.8375625e-04 </wgt>
<wgt id='morphing_basis_vector_4'> +1.9196343e-04 </wgt>
<wgt id='morphing_basis_vector_5'> +3.0544868e-04 </wgt>
</rwgt>
</event>
<event>
 4      1 +3.5234200e-07 1.40338000e+03 7.81860800e-03 8.37338500e-02
        2 -1    0    0  501    0 +0.0000000000e+00 +0.0000000000e+00 +8.3399792538e+02 8.3399792538e+02 0.0000000000e+00 0.0000e+00 1.0000e+00
       -2 -1    0    0    0  501 -0.0000000000e+00 -0.0000000000e+00 -5.9037172061e+02 5.9037172061e+02 0.0000000000e+00 0.0000e+00 -1.0000e+00
      -13  1    1    2    0    0 -3.4213458372e+02 -4.4123044251e+02 -3.0954751270e+02 6.3840429149e+02 0.0000000000e+00 0.0000e+00 -1.0000e+00
       13  1    1    2    0    0 +3.4213458372e+02 +4.4123044251e+02 +5.5317371747e+02 7.8596535450e+02 0.0000000000e+00 0.0000e+00 1.0000e+00
<mgrwt>
<rscale>  0 0.14033799E+04</rscale>
<asrwt>0</asrwt>
<pdfrwt beam="1">  1        2 0.12830737E+00 0.14033799E+04</pdfrwt>
<pdfrwt beam="2">  1       -2 0.90826418E-01 0.14033799E+04</pdfrwt>
<totfact> 0.41177046E+01</totfact>
</mgrwt>
<rwgt>
<wgt id='morphing_basis_vector_1'> +2.0002636e-04 </wgt>
<wgt id='morphing_basis_vector_2'> +1.3117225e-04 </wgt>
<wgt id='morphing_basis_vector_3'> +2.0578765e-04 </wgt>
<wgt id='morphing_basis_vector_4'> +1.3611484e-04 </wgt>
<wgt id='morphing_basis_vector_5'> +2.1778293e-04 </wgt>
</rwgt>
</event>
<event>
 4      1 +3.5234200e-07 1.47974300e+03 7.81860800e-03 8.32682800e-02
        2 -1    0    0  501    0 +0.0000000000e+00 +0.0000000000e+00 +2.5058480885e+03 2.5058480885e+03 0.0000000000e+00 0.0000e+00 -1.0000e+00
       -2 -1    0    0    0  501 -0.0000000000e+00 -0.0000000000e+00 -2.1845280941e+02 2.1845280941e+02 0.0000000000e+00 0.0000e+00 1.0000e+00
      -13  1    1    2    0    0 -6.0014367828e+02 -2.6256199327e+02 +5.1047245444e+02 8.3047779117e+02 0.0000000000e+00 0.0000e+00 1.0000e+00
       13  1    1    2    0    0 +6.0014367828e+02 +2.6256199327e+02 +1.7769228246e+03 1.8938231067e+03 0.0000000000e+00 0.0000e+00 -1.0000e+00
<mgrwt>
<rscale>  0 0.14797426E+04</rscale>
<asrwt>0</asrwt>
<pdfrwt beam="1">  1        2 0.38551507E+00 0.14797426E+04</pdfrwt>
<pdfrwt beam="2">  1       -2 0.33608126E-01 0.14797426E+04</pdfrwt>
<totfact> 0.33260122E+01</totfact>
</mgrwt>
<rwgt>
<wgt id='morphing_basis_vector_1'> +2.4595984e-04 </wgt>
<wgt id='morphing_basis_vector_2'> +1.6364468e-04 </wgt>
<wgt id='morphing_basis_vector_3'> +2.5508509e-04 </wgt>
<wgt id='morphing_basis_vector_4'> +1.6828591e-04 </wgt>
<wgt id='morphing_basis_vector_5'> +2.7136527e-04 </wgt>
</rwgt>
</event>
<event>
 4      1 +3.5234200e-07 1.39666000e+03 7.81860800e-03 8.37762900e-02
        2 -1    0    0  501    0 +0.0000000000e+00 +0.0000000000e+00 +6.9194269862e+02 6.9194269862e+02 0.0000000000e+00 0.0000e+00 -1.0000e+00
       -2 -1    0    0    0  501 -0.0000000000e+00 -0.0000000000e+00 -7.0477647807e+02 7.0477647807e+02 0.0000000000e+00 0.0000e+00 1.0000e+00
      -13  1    1    2    0    0 +3.6947297580e+02 +3.7453174337e+02 -4.6565368859e+02 7.0257929399e+02 0.0000000000e+00 0.0000e+00 1.0000e+00
       13  1    1    2    0    0 -3.6947297580e+02 -3.7453174337e+02 +4.5281990915e+02 6.9413988271e+02 0.0000000000e+00 0.0000e+00 -1.0000e+00
<mgrwt>
<rscale>  0 0.13966602E+04</rscale>
<asrwt>0</asrwt>
<pdfrwt beam="1">  1        2 0.10645272E+00 0.13966602E+04</pdfrwt>
<pdfrwt beam="2">  1       -2 0.10842715E+00 0.13966602E+04</pdfrwt>
<totfact> 0.34036189E+01</totfact>
</mgrwt>
<rwgt>
<wgt id='morphing_basis_vector_1'> +1.9623736e-04 </wgt>
<wgt id='morphing_basis_vector_2'> +1.2831330e-04 </wgt>
<wgt id='morphing_basis_vector_3'> +2.0171702e-04 </wgt>
<wgt id='morphing_basis_vector_4'> +1.3367477e-04 </wgt>
<wgt id='morphing_basis_vector_5'> +2.1348760e-04 </wgt>
</rwgt>
</event>
<event>
 4      1 +3.5234200e-07 1.44154800e+03 7.81860800e-03 8.34974100e-02
        2 -1    0    0  501    0 +0.0000000000e+00 +0.0000000000e+00 +1.0641391487e+03 1.0641391487e+03 0.0000000000e+00 0.0000e+00 -1.0000e+00
       -2 -1    0    0    0  501 -0.0000000000e+00 -0.0000000000e+00 -4.8820216169e+02 4.8820216169e+02 0.0000000000e+00 0.0000e+00 1.0000e+00
      -13  1    1    2    0    0 +3.6462929548e+02 -2.8122296457e+02 -3.0915267463e+02 5.5463163916e+02 0.0000000000e+00 0.0000e+00 1.0000e+00
       13  1    1    2    0    0 -3.6462929548e+02 +2.8122296457e+02 +8.8508966168e+02 9.9770967127e+02 0.0000000000e+00 0.0000e+00 -1.0000e+00
<mgrwt>
<rscale>  0 0.14415478E+04</rscale>
<asrwt>0</asrwt>
<pdfrwt beam="1">  1        2 0.16371371E+00 0.14415478E+04</pdfrwt>
<pdfrwt beam="2">  1       -2 0.75108025E-01 0.14415478E+04</pdfrwt>
<totfact> 0.45121719E+01</totfact>
</mgrwt>
<rwgt>
<wgt id='morphing_basis_vector_1'> +2.2137432e-04 </wgt>
<wgt id='morphing_basis_vector_2'> +1.4461147e-04 </wgt>
<wgt id='morphing_basis_vector_3'> +2.2851898e-04 </wgt>
<wgt id='morphing_basis_vector_4'> +1.5287411e-04 </wgt>
<wgt id='morphing_basis_vector_5'> +2.4357107e-04 </wgt>
</rwgt>
</event>
<event>
 4      1 +3.5234200e-07 1.37622200e+03 7.81860800e-03 8.39069100e-02
        2 -1    0    0  501    0 +0.0000000000e+00 +0.0000000000e+00 +1.2114652109e+03 1.2114652109e+03 0.0000000000e+00 0.0000e+00 -1.0000e+00
       -2 -1    0    0    0  501 -0.0000000000e+00 -0.0000000000e+00 -3.9084648366e+02 3.9084648366e+02 0.0000000000e+00 0.0000e+00 1.0000e+00
      -13  1    1    2    0    0 -2.3704172854e+02 -5.7830081763e+02 +7.5132827714e+01 6.2949627365e+02 0.0000000000e+00 0.0000e+00 1.0000e+00
       13  1    1    2    0    0 +2.3704172854e+02 +5.7830081763e+02 +7.4548589952e+02 9.7281542089e+02 0.0000000000e+00 0.0000e+00 -1.0000e+00
<mgrwt>
<rscale>  0 0.13762222E+04</rscale>
<asrwt>0</asrwt>
<pdfrwt beam="1">  1        2 0.18637926E+00 0.13762222E+04</pdfrwt>
<pdfrwt beam="2">  1       -2 0.60130229E-01 0.13762222E+04</pdfrwt>
<totfact> 0.59393088E+01</totfact>
</mgrwt>
<rwgt>
<wgt id='morphing_basis_vector_1'> +1.8636291e-04 </wgt>
<wgt id='morphing_basis_vector_2'> +1.2383060e-04 </wgt>
<wgt id='morphing_basis_vector_3'> +1.9135445e-04 </wgt>
<wgt id='morphing_basis_vector_4'> +1.2406044e-04 </wgt>
<wgt id='morphing_basis_vector_5'> +2.0063537e-04 </wgt>
</rwgt>
</event>
<event>
 4      1 +3.5234200e-07 1.43187300e+03 7.81860800e-03 8.35566100e-02
        2 -1    0    0  501    0 +0.0000000000e+00 +0.0000000000e+00 +6.2117761807e+02 6.2117761807e+02 0.0000000000e+00 0.0000e+00 -1.0000e+00
       -2 -1    0    0    0  501 -0.0000000000e+00 -0.0000000000e+00 -8.2515043131e+02 8.2515043131e+02 0.0000000000e+00 0.0000e+00 1.0000e+00
      -13  1    1    2    0    0 -4.0458243649e+02 +4.5138216980e+02 +2.8282167999e+02 6.6889529360e+02 0.0000000000e+00 0.0000e+00 1.0000e+00
       13  1    1    2    0    0 +4.0458243649e+02 -4.5138216980e+02 -4.8679449323e+02 7.7743275578e+02 0.0000000000e+00 0.0000e+00 -1.0000e+00
<mgrwt>
<rscale>  0 0.14318729E+04</rscale>
<asrwt>0</asrwt>
<pdfrwt beam="1">  1        2 0.95565788E-01 0.14318729E+04</pdfrwt>
<pdfrwt beam="2">  1       -2 0.12694622E+00 0.14318729E+04</pdfrwt>
<totfact> 0.25754349E+01</totfact>
</mgrwt>
<rwgt>
<wgt id='morphing_basis_vector_1'> +2.5844834e-04 </wgt>
<wgt id='morphing_basis_vector_2'> +2.6840160e-04 </wgt>
<wgt id='morphing_basis_vector_3'> +2.7706777e-04 </wgt>
<wgt id='morphing_basis_vector_4'> +7.0061854e-05 </wgt>
<wgt id='morphing_basis_vector_5'> +2.3109810e-04 </wgt>
</rwgt>
</event>
<event>
 4      1 +3.5234200e-07 1.54833400e+03 7.81860800e-03 8.28742600e-02
        2 -1    0    0  501    0 +0.0000000000e+00 +0.0000000000e+00 +5.7474770681e+02 5.7474770681e+02 0.0000000000e+00 0.0000e+00 1.0000e+00
       -2 -1    0    0    0  501 -0.0000000000e+00 -0.0000000000e+00 -1.0427785919e+03 1.0427785919e+03 0.0000000000e+00 0.0000e+00 -1.0000e+00
      -13  1    1    2    0    0 -3.3266164041e+02 +1.0309552866e+02 -9.5631903202e+02 1.0177615369e+03 0.0000000000e+00 0.0000e+00 -1.0000e+00
       13  1    1    2    0    0 +3.3266164041e+02 -1.0309552866e+02 +4.8828814694e+02 5.9976476178e+02 0.0000000000e+00 0.0000e+00 1.0000e+00
<mgrwt>
<rscale>  0 0.15483341E+04</rscale>
<asrwt>0</asrwt>
<pdfrwt beam="1">  1        2 0.88422724E-01 0.15483341E+04</pdfrwt>
<pdfrwt beam="2">  1       -2 0.16042748E+00 0.15483341E+04</pdfrwt>
<totfact> 0.14520038E+01</totfact>
</mgrwt>
<rwgt>
<wgt id='morphing_basis_vector_1'> +2.9147545e-04 </wgt>
<wgt id='morphing_basis_vector_2'> +1.9110055e-04 </wgt>
<wgt id='morphing_basis_vector_3'> +3.0360532e-04 </wgt>
<wgt id='morphing_basis_vector_4'> +2.0581773e-04 </wgt>
<wgt id='morphing_basis_vector_5'> +3.2761217e-04 </wgt>
</rwgt>
</event>
<event>
 4      1 +3.5234200e-07 1.37942800e+03 7.81860800e-03 8.38862600e-02
        2 -1    0    0  501    0 +0.0000000000e+00 +0.0000000000e+00 +2.4077232004e+03 2.4077232004e+03 0.0000000000e+00 0.0000e+00 -1.0000e+00
       -2 -1    0    0    0  501 -0.0000000000e+00 -0.0000000000e+00 -1.9757476068e+02 1.9757476068e+02 0.0000000000e+00 0.0000e+00 1.0000e+00
      -13  1    1    2    0    0 -1.8850016250e+02 +4.8207924486e+02 +2.4417451930e+02 5.7232325259e+02 0.0000000000e+00 0.0000e+00 1.0000e+00
       13  1    1    2    0    0 +1.8850016250e+02 -4.8207924486e+02 +1.9659739204e+03 2.0329747085e+03 0.0000000000e+00 0.0000e+00 -1.0000e+00
<mgrwt>
<rscale>  0 0.13794279E+04</rscale>
<asrwt>0</asrwt>
<pdfrwt beam="1">  1        2 0.37041893E+00 0.13794279E+04</pdfrwt>
<pdfrwt beam="2">  1       -2 0.30396119E-01 0.13794279E+04</pdfrwt>
<totfact> 0.45898144E+01</totfact>
</mgrwt>
<rwgt>
<wgt id='morphing_basis_vector_1'> +1.8710388e-04 </wgt>
<wgt id='morphing_basis_vector_2'> +1.2218979e-04 </wgt>
<wgt id='morphing_basis_vector_3'> +1.9197590e-04 </wgt>
<wgt id='morphing_basis_vector_4'> +1.2695501e-04 </wgt>
<wgt id='morphing_basis_vector_5'> +2.0271473e-04 </wgt>
</rwgt>
</event>
<event>
 4      1 +3.5234200e-07 1.51169200e+03 7.81860800e-03 8.30820600e-02
        2 -1    0    0  501    0 +0.0000000000e+00 +0.0000000000e+00 +7.2616900794e+02 7.2616900794e+02 0.0000000000e+00 0.0000e+00 1.0000e+00
       -2 -1    0    0    0  501 -0.0000000000e+00 -0.0000000000e+00 -7.8673545275e+02 7.8673545275e+02 0.0000000000e+00 0.0000e+00 -1.0000e+00
      -13  1    1    2    0    0 -1.1434798616e+02 +6.9339053016e+02 -3.0878154976e+02 7.6760141657e+02 0.0000000000e+00 0.0000e+00 -1.0000e+00
       13  1    1    2    0    0 +1.1434798616e+02 -6.9339053016e+02 +2.4821510495e+02 7.4530304412e+02 0.0000000000e+00 0.0000e+00 1.0000e+00
<mgrwt>
<rscale>  0 0.15116916E+04</rscale>
<asrwt>0</asrwt>
<pdfrwt beam="1">  1        2 0.11171831E+00 0.15116916E+04</pdfrwt>
<pdfrwt beam="2">  1       -2 0.12103622E+00 0.15116916E+04</pdfrwt>
<totfact> 0.23997800E+01</totfact>
</mgrwt>
<rwgt>
<wgt id='morphing_basis_vector_1'> +2.6791168e-04 </wgt>
<wgt id='morphing_basis_vector_2'> +1.8044805e-04 </wgt>
<wgt id='morphing_basis_vector_3'> +2.7885038e-04 </wgt>
<wgt id='morphing_basis_vector_4'> +1.8230388e-04 </wgt>
<wgt id='morphing_basis_vector_5'> +2.9638213e-04 </wgt>
</rwgt>
</event>
<event>
 4      1 +3.5234200e-07 1.34170500e+03 7.81860800e-03 8.41329600e-02
        2 -1    0    0  501    0 +0.0000000000e+00 +0.0000000000e+00 +1.2433084893e+03 1.2433084893e+03 0.0000000000e+00 0.0000e+00 -1.0000e+00
       -2 -1    0    0    0  501 -0.0000000000e+00 -0.0000000000e+00 -3.6197202512e+02 3.6197202512e+02 0.0000000000e+00 0.0000e+00 1.0000e+00
      -13  1    1    2    0    0 -1.0733869890e+00 -6.6681659963e+02 +5.2856739932e+02 8.5089895130e+02 0.0000000000e+00 0.0000e+00 1.0000e+00
       13  1    1    2    0    0 +1.0733869890e+00 +6.6681659963e+02 +3.5276906491e+02 7.5438156317e+02 0.0000000000e+00 0.0000e+00 -1.0000e+00
<mgrwt>
<rscale>  0 0.13417047E+04</rscale>
<asrwt>0</asrwt>
<pdfrwt beam="1">  1        2 0.19127823E+00 0.13417047E+04</pdfrwt>
<pdfrwt beam="2">  1       -2 0.55688004E-01 0.13417047E+04</pdfrwt>
<totfact> 0.66717399E+01</totfact>
</mgrwt>
<rwgt>
<wgt id='morphing_basis_vector_1'> +1.7693593e-04 </wgt>
<wgt id='morphing_basis_vector_2'> +1.3557003e-04 </wgt>
<wgt id='morphing_basis_vector_3'> +1.8257505e-04 </wgt>
<wgt id='morphing_basis_vector_4'> +9.7486473e-05 </wgt>
<wgt id='morphing_basis_vector_5'> +1.7942371e-04 </wgt>
</rwgt>
</event>
<event>
 4      1 +3.5234200e-07 1.34465100e+03 7.81860800e-03 8.41133900e-02
        2 -1    0    0  501    0 +0.0000000000e+00 +0.0000000000e+00 +1.6022027144e+03 1.6022027144e+03 0.0000000000e+00 0.0000e+00 -1.0000e+00
       -2 -1    0    0    0  501 -0.0000000000e+00 -0.0000000000e+00 -2.8212517488e+02 2.8212517488e+02 0.0000000000e+00 0.0000e+00 1.0000e+00
      -13  1    1    2    0    0 -9.3904544566e+01 +5.6928118173e+02 +1.7637461919e+02 6.0333003710e+02 0.0000000000e+00 0.0000e+00 1.0000e+00
       13  1    1    2    0    0 +9.3904544566e+01 -5.6928118173e+02 +1.1437029204e+03 1.2809978522e+03 0.0000000000e+00 0.0000e+00 -1.0000e+00
<mgrwt>
<rscale>  0 0.13446512E+04</rscale>
<asrwt>0</asrwt>
<pdfrwt beam="1">  1        2 0.24649272E+00 0.13446512E+04</pdfrwt>
<pdfrwt beam="2">  1       -2 0.43403874E-01 0.13446512E+04</pdfrwt>
<totfact> 0.68125869E+01</totfact>
</mgrwt>
<rwgt>
<wgt id='morphing_basis_vector_1'> +1.7008672e-04 </wgt>
<wgt id='morphing_basis_vector_2'> +1.1178523e-04 </wgt>
<wgt id='morphing_basis_vector_3'> +1.7392475e-04 </wgt>
<wgt id='morphing_basis_vector_4'> +1.1339011e-04 </wgt>
<wgt id='morphing_basis_vector_5'> +1.8214917e-04 </wgt>
</rwgt>
</event>
<event>
 4      1 +3.5234200e-07 1.31278600e+03 7.81860800e-03 8.43278900e-02
        2 -1    0    0  501    0 +0.0000000000e+00 +0.0000000000e+00 +8.9266736736e+02 8.9266736736e+02 0.0000000000e+00 0.0000e+00 -1.0000e+00
       -2 -1    0    0    0  501 -0.0000000000e+00 -0.0000000000e+00 -4.8265635033e+02 4.8265635033e+02 0.0000000000e+00 0.0000e+00 1.0000e+00
      -13  1    1    2    0    0 +1.8152702888e+01 -3.5304984497e+02 -3.7440333112e+02 5.1492870188e+02 0.0000000000e+00 0.0000e+00 1.0000e+00
       13  1    1    2    0    0 -1.8152702888e+01 +3.5304984497e+02 +7.8441434815e+02 8.6039501582e+02 0.0000000000e+00 0.0000e+00 -1.0000e+00
<mgrwt>
<rscale>  0 0.13127857E+04</rscale>
<asrwt>0</asrwt>
<pdfrwt beam="1">  1        2 0.13733344E+00 0.13127857E+04</pdfrwt>
<pdfrwt beam="2">  1       -2 0.74254823E-01 0.13127857E+04</pdfrwt>
<totfact> 0.59956284E+01</totfact>
</mgrwt>
<rwgt>
<wgt id='morphing_basis_vector_1'> +1.5460145e-04 </wgt>
<wgt id='morphing_basis_vector_2'> +1.0000146e-04 </wgt>
<wgt id='morphing_basis_vector_3'> +1.5736861e-04 </wgt>
<wgt id='morphing_basis_vector_4'> +1.0363058e-04 </wgt>
<wgt id='morphing_basis_vector_5'> +1.6481954e-04 </wgt>
</rwgt>
</event>
<event>
 4      1 +3.5234200e-07 1.40558400e+03 7.81860800e-03 8.37199800e-02
        2 -1    0    0  501    0 +0.0000000000e+00 +0.0000000000e+00 +8.7366038553e+02 8.7366038553e+02 0.0000000000e+00 0.0000e+00 -1.0000e+00
       -2 -1    0    0    0  501 -0.0000000000e+00 -0.0000000000e+00 -5.6534184722e+02 5.6534184722e+02 0.0000000000e+00 0.0000e+00 1.0000e+00
      -13  1    1    2    0    0 +5.4484213704e+02 -3.9702380161e+02 -4.9146914235e+01 6.7594102740e+02 0.0000000000e+00 0.0000e+00 1.0000e+00
       13  1    1    2    0    0 -5.4484213704e+02 +3.9702380161e+02 +3.5746545255e+02 7.6306120535e+02 0.0000000000e+00 0.0000e+00 -1.0000e+00
<mgrwt>
<rscale>  0 0.14055843E+04</rscale>
<asrwt>0</asrwt>
<pdfrwt beam="1">  1        2 0.13440929E+00 0.14055843E+04</pdfrwt>
<pdfrwt beam="2">  1       -2 0.86975668E-01 0.14055843E+04</pdfrwt>
<totfact> 0.42831288E+01</totfact>
</mgrwt>
<rwgt>
<wgt id='morphing_basis_vector_1'> +2.0319570e-04 </wgt>
<wgt id='morphing_basis_vector_2'> +1.3783820e-04 </wgt>
<wgt id='morphing_basis_vector_3'> +2.0955679e-04 </wgt>
<wgt id='morphing_basis_vector_4'> +1.3342294e-04 </wgt>
<wgt id='morphing_basis_vector_5'> +2.1895161e-04 </wgt>
</rwgt>
</event>
<event>
 4      1 +3.5234200e-07 1.46641100e+03 7.81860800e-03 8.33474300e-02
        2 -1    0    0  501    0 +0.0000000000e+00 +0.0000000000e+00 +2.0288903329e+03 2.0288903329e+03 0.0000000000e+00 0.0000e+00 -1.0000e+00
       -2 -1    0    0    0  501 -0.0000000000e+00 -0.0000000000e+00 -2.6496767126e+02 2.6496767126e+02 0.0000000000e+00 0.0000e+00 1.0000e+00
      -13  1    1    2    0    0 +1.9469383437e+02 -5.7796758632e+02 +2.4532567391e+02 6.5737120888e+02 0.0000000000e+00 0.0000e+00 1.0000e+00
       13  1    1    2    0    0 -1.9469383437e+02 +5.7796758632e+02 +1.5185969878e+03 1.6364867953e+03 0.0000000000e+00 0.0000e+00 -1.0000e+00
<mgrwt>
<rscale>  0 0.14664111E+04</rscale>
<asrwt>0</asrwt>
<pdfrwt beam="1">  1        2 0.31213697E+00 0.14664111E+04</pdfrwt>
<pdfrwt beam="2">  1       -2 0.40764258E-01 0.14664111E+04</pdfrwt>
<totfact> 0.43934172E+01</totfact>
</mgrwt>
<rwgt>
<wgt id='morphing_basis_vector_1'> +2.3704960e-04 </wgt>
<wgt id='morphing_basis_vector_2'> +1.5649190e-04 </wgt>
<wgt id='morphing_basis_vector_3'> +2.4542291e-04 </wgt>
<wgt id='morphing_basis_vector_4'> +1.6298072e-04 </wgt>
<wgt id='morphing_basis_vector_5'> +2.6142539e-04 </wgt>
</rwgt>
</event>
<event>
 4      1 +3.5234200e-07 1.35941100e+03 7.81860800e-03 8.40161300e-02
        2 -1    0    0  501    0 +0.0000000000e+00 +0.0000000000e+00 +1.2868533288e+03 1.2868533288e+03 0.0000000000e+00 0.0000e+00 -1.0000e+00
       -2 -1    0    0    0  501 -0.0000000000e+00 -0.0000000000e+00 -3.5901512172e+02 3.5901512172e+02 0.0000000000e+00 0.0000e+00 1.0000e+00
      -13  1    1    2    0    0 +9.9160913174e+01 +3.0570664180e+02 -2.6121143051e+02 4.1415075633e+02 0.0000000000e+00 0.0000e+00 1.0000e+00
       13  1    1    2    0    0 -9.9160913174e+01 -3.0570664180e+02 +1.1890496376e+03 1.2317176942e+03 0.0000000000e+00 0.0000e+00 -1.0000e+00
<mgrwt>
<rscale>  0 0.13594113E+04</rscale>
<asrwt>0</asrwt>
<pdfrwt beam="1">  1        2 0.19797743E+00 0.13594113E+04</pdfrwt>
<pdfrwt beam="2">  1       -2 0.55233097E-01 0.13594113E+04</pdfrwt>
<totfact> 0.63933175E+01</totfact>
</mgrwt>
<rwgt>
<wgt id='morphing_basis_vector_1'> +1.7664672e-04 </wgt>
<wgt id='morphing_basis_vector_2'> +1.1458548e-04 </wgt>
<wgt id='morphing_basis_vector_3'> +1.8079017e-04 </wgt>
<wgt id='morphing_basis_vector_4'> +1.1993353e-04 </wgt>
<wgt id='morphing_basis_vector_5'> +1.9074554e-04 </wgt>
</rwgt>
</event>
<event>
 4      1 +3.5234200e-07 1.45750000e+03 7.81860800e-03 8.34008300e-02
        2 -1    0    0  501    0 +0.0000000000e+00 +0.0000000000e+00 +9.6086682685e+02 9.6086682685e+02 0.0000000000e+00 0.0000e+00 -1.0000e+00
       -2 -1    0    0    0  501 -0.0000000000e+00 -0.0000000000e+00 -5.5270569546e+02 5.5270569546e+02 0.0000000000e+00 0.0000e+00 1.0000e+00
      -13  1    1    2    0    0 -1.9836244937e+02 +1.2195048012e+02 -5.1303433127e+02 5.6340376817e+02 0.0000000000e+00 0.0000e+00 1.0000e+00
       13  1    1    2    0    0 +1.9836244937e+02 -1.2195048012e+02 +9.2119546266e+02 9.5016875415e+02 0.0000000000e+00 0.0000e+00 -1.0000e+00
<mgrwt>
<rscale>  0 0.14575000E+04</rscale>
<asrwt>0</asrwt>
<pdfrwt beam="1">  1        2 0.14782567E+00 0.14575000E+04</pdfrwt>
<pdfrwt beam="2">  1       -2 0.85031646E-01 0.14575000E+04</pdfrwt>
<totfact> 0.39453483E+01</totfact>
</mgrwt>
<rwgt>
<wgt id='morphing_basis_vector_1'> +2.3080179e-04 </wgt>
<wgt id='morphing_basis_vector_2'> +1.5055534e-04 </wgt>
<wgt id='morphing_basis_vector_3'> +2.3856739e-04 </wgt>
<wgt id='morphing_basis_vector_4'> +1.6029612e-04 </wgt>
<wgt id='morphing_basis_vector_5'> +2.5499169e-04 </wgt>
</rwgt>
</event>
<event>
 4      1 +3.5234200e-07 1.54104600e+03 7.81860800e-03 8.29151100e-02
        2 -1    0    0  501    0 +0.0000000000e+00 +0.0000000000e+00 +2.2681168427e+03 2.2681168427e+03 0.0000000000e+00 0.0000e+00 -1.0000e+00
       -2 -1    0    0    0  501 -0.0000000000e+00 -0.0000000000e+00 -2.6176157388e+02 2.6176157388e+02 0.0000000000e+00 0.0000e+00 1.0000e+00
      -13  1    1    2    0    0 +6.3209643276e+02 +2.6986781939e+02 +4.3134305910e+02 8.1143784413e+02 0.0000000000e+00 0.0000e+00 1.0000e+00
       13  1    1    2    0    0 -6.3209643276e+02 -2.6986781939e+02 +1.5750122097e+03 1.7184405724e+03 0.0000000000e+00 0.0000e+00 -1.0000e+00
<mgrwt>
<rscale>  0 0.15410462E+04</rscale>
<asrwt>0</asrwt>
<pdfrwt beam="1">  1        2 0.34894104E+00 0.15410462E+04</pdfrwt>
<pdfrwt beam="2">  1       -2 0.40271013E-01 0.15410462E+04</pdfrwt>
<totfact> 0.32660633E+01</totfact>
</mgrwt>
<rwgt>
<wgt id='morphing_basis_vector_1'> +2.8778892e-04 </wgt>
<wgt id='morphing_basis_vector_2'> +1.9229330e-04 </wgt>
<wgt id='morphing_basis_vector_3'> +3.0004699e-04 </wgt>
<wgt id='morphing_basis_vector_4'> +1.9886943e-04 </wgt>
<wgt id='morphing_basis_vector_5'> +3.2105715e-04 </wgt>
</rwgt>
</event>
<event>
 4      1 +3.5234200e-07 1.42615600e+03 7.81860800e-03 8.35918300e-02
        2 -1    0    0  501    0 +0.0000000000e+00 +0.0000000000e+00 +6.6726611819e+02 6.6726611819e+02 0.0000000000e+00 0.0000e+00 1.0000e+00
       -2 -1    0    0    0  501 -0.0000000000e+00 -0.0000000000e+00 -7.6203518227e+02 7.6203518227e+02 0.0000000000e+00 0.0000e+00 -1.0000e+00
      -13  1    1    2    0    0 +5.7998538896e+02 -2.7801059310e+02 +2.6120250095e+02 6.9418995080e+02 0.0000000000e+00 0.0000e+00 -1.0000e+00
       13  1    1    2    0    0 -5.7998538896e+02 +2.7801059310e+02 -3.5597156503e+02 7.3511134966e+02 0.0000000000e+00 0.0000e+00 1.0000e+00
<mgrwt>
<rscale>  0 0.14261560E+04</rscale>
<asrwt>0</asrwt>
<pdfrwt beam="1">  1        2 0.10265633E+00 0.14261560E+04</pdfrwt>
<pdfrwt beam="2">  1       -2 0.11723618E+00 0.14261560E+04</pdfrwt>
<totfact> 0.29115981E+01</totfact>
</mgrwt>
<rwgt>
<wgt id='morphing_basis_vector_1'> +2.4432933e-04 </wgt>
<wgt id='morphing_basis_vector_2'> +2.3389863e-04 </wgt>
<wgt id='morphing_basis_vector_3'> +2.5962754e-04 </wgt>
<wgt id='morphing_basis_vector_4'> +8.7600767e-05 </wgt>
<wgt id='morphing_basis_vector_5'> +2.2865504e-04 </wgt>
</rwgt>
</event>
<event>
 4      1 +3.5234200e-07 1.29095800e+03 7.81860800e-03 8.44785300e-02
        2 -1    0    0  501    0 +0.0000000000e+00 +0.0000000000e+00 +6.0953393603e+02 6.0953393603e+02 0.0000000000e+00 0.0000e+00 -1.0000e+00
       -2 -1    0    0    0  501 -0.0000000000e+00 -0.0000000000e+00 -6.8354407371e+02 6.8354407371e+02 0.0000000000e+00 0.0000e+00 1.0000e+00
      -13  1    1    2    0    0 -1.5034524044e+02 -6.1437231183e+02 +9.1994135403e+01 6.3915565383e+02 0.0000000000e+00 0.0000e+00 -1.0000e+00
       13  1    1    2    0    0 +1.5034524044e+02 +6.1437231183e+02 -1.6600427308e+02 6.5392235590e+02 0.0000000000e+00 0.0000e+00 1.0000e+00
<mgrwt>
<rscale>  0 0.12909583E+04</rscale>
<asrwt>0</asrwt>
<pdfrwt beam="1">  1        2 0.93774452E-01 0.12909583E+04</pdfrwt>
<pdfrwt beam="2">  1       -2 0.10516063E+00 0.12909583E+04</pdfrwt>
<totfact> 0.43122812E+01</totfact>
</mgrwt>
<rwgt>
<wgt id='morphing_basis_vector_1'> +1.5547601e-04 </wgt>
<wgt id='morphing_basis_vector_2'> +1.2496167e-04 </wgt>
<wgt id='morphing_basis_vector_3'> +1.5972787e-04 </wgt>
<wgt id='morphing_basis_vector_4'> +7.8093044e-05 </wgt>
<wgt id='morphing_basis_vector_5'> +1.5232248e-04 </wgt>
</rwgt>
</event>
<event>
 4      1 +3.5234200e-07 1.46309900e+03 7.81860800e-03 8.33672300e-02
        2 -1    0    0  501    0 +0.0000000000e+00 +0.0000000000e+00 +1.6023233200e+03 1.6023233200e+03 0.0000000000e+00 0.0000e+00 1.0000e+00
       -2 -1    0    0    0  501 -0.0000000000e+00 -0.0000000000e+00 -3.3399289569e+02 3.3399289569e+02 0.0000000000e+00 0.0000e+00 -1.0000e+00
      -13  1    1    2    0    0 +3.9884190861e+02 +5.0125759566e+02 +1.6657753703e+02 6.6187772369e+02 0.0000000000e+00 0.0000e+00 -1.0000e+00
       13  1    1    2    0    0 -3.9884190861e+02 -5.0125759566e+02 +1.1017528873e+03 1.2744384920e+03 0.0000000000e+00 0.0000e+00 1.0000e+00
<mgrwt>
<rscale>  0 0.14630989E+04</rscale>
<asrwt>0</asrwt>
<pdfrwt beam="1">  1        2 0.24651127E+00 0.14630989E+04</pdfrwt>
<pdfrwt beam="2">  1       -2 0.51383523E-01 0.14630989E+04</pdfrwt>
<totfact> 0.48647613E+01</totfact>
</mgrwt>
<rwgt>
<wgt id='morphing_basis_vector_1'> +2.3536024e-04 </wgt>
<wgt id='morphing_basis_vector_2'> +1.5619979e-04 </wgt>
<wgt id='morphing_basis_vector_3'> +2.4369439e-04 </wgt>
<wgt id='morphing_basis_vector_4'> +1.6078133e-04 </wgt>
<wgt id='morphing_basis_vector_5'> +2.5893198e-04 </wgt>
</rwgt>
</event>
<event>
 4      1 +3.5234200e-07 1.38612300e+03 7.81860800e-03 8.38433400e-02
        2 -1    0    0  501    0 +0.0000000000e+00 +0.0000000000e+00 +1.7102564595e+03 1.7102564595e+03 0.0000000000e+00 0.0000e+00 -1.0000e+00
       -2 -1    0    0    0  501 -0.0000000000e+00 -0.0000000000e+00 -2.8085493935e+02 2.8085493935e+02 0.0000000000e+00 0.0000e+00 1.0000e+00
      -13  1    1    2    0    0 +5.8828041188e+02 +3.6641474494e+02 +7.1556967222e+02 9.9617948388e+02 0.0000000000e+00 0.0000e+00 1.0000e+00
       13  1    1    2    0    0 -5.8828041188e+02 -3.6641474494e+02 +7.1383184792e+02 9.9493191496e+02 0.0000000000e+00 0.0000e+00 -1.0000e+00
<mgrwt>
<rscale>  0 0.13861226E+04</rscale>
<asrwt>0</asrwt>
<pdfrwt beam="1">  1        2 0.26311637E+00 0.13861226E+04</pdfrwt>
<pdfrwt beam="2">  1       -2 0.43208453E-01 0.13861226E+04</pdfrwt>
<totfact> 0.59645475E+01</totfact>
</mgrwt>
<rwgt>
<wgt id='morphing_basis_vector_1'> +1.9721535e-04 </wgt>
<wgt id='morphing_basis_vector_2'> +1.4427154e-04 </wgt>
<wgt id='morphing_basis_vector_3'> +2.0399641e-04 </wgt>
<wgt id='morphing_basis_vector_4'> +1.1752401e-04 </wgt>
<wgt id='morphing_basis_vector_5'> +2.0598285e-04 </wgt>
</rwgt>
</event>
<event>
 4      1 +3.5234200e-07 1.39021100e+03 7.81860800e-03 8.38172500e-02
        2 -1    0    0  501    0 +0.0000000000e+00 +0.0000000000e+00 +8.1788830731e+02 8.1788830731e+02 0.0000000000e+00 0.0000e+00 -1.0000e+00
       -2 -1    0    0    0  501 -0.0000000000e+00 -0.0000000000e+00 -5.9075526129e+02 5.9075526129e+02 0.0000000000e+00 0.0000e+00 1.0000e+00
      -13  1    1    2    0    0 -4.3864222395e+02 -4.3986540015e+02 -2.0247151523e+02 6.5336305785e+02 0.0000000000e+00 0.0000e+00 1.0000e+00
       13  1    1    2    0    0 +4.3864222395e+02 +4.3986540015e+02 +4.2960456125e+02 7.5528051076e+02 0.0000000000e+00 0.0000e+00 -1.0000e+00
<mgrwt>
<rscale>  0 0.13902112E+04</rscale>
<asrwt>0</asrwt>
<pdfrwt beam="1">  1        2 0.12582897E+00 0.13902112E+04</pdfrwt>
<pdfrwt beam="2">  1       -2 0.90885425E-01 0.13902112E+04</pdfrwt>
<totfact> 0.42219318E+01</totfact>
</mgrwt>
<rwgt>
<wgt id='morphing_basis_vector_1'> +1.9355807e-04 </wgt>
<wgt id='morphing_basis_vector_2'> +1.2831860e-04 </wgt>
<wgt id='morphing_basis_vector_3'> +1.9900583e-04 </wgt>
<wgt id='morphing_basis_vector_4'> +1.2971381e-04 </wgt>
<wgt id='morphing_basis_vector_5'> +2.0930516e-04 </wgt>
</rwgt>
</event>
<event>
 4      1 +3.5234200e-07 1.35139900e+03 7.81860800e-03 8.40687700e-02
        2 -1    0    0  501    0 +0.0000000000e+00 +0.0000000000e+00 +1.5258764510e+03 1.5258764510e+03 0.0000000000e+00 0.0000e+00 -1.0000e+00
       -2 -1    0    0    0  501 -0.0000000000e+00 -0.0000000000e+00 -2.9921794072e+02 2.9921794072e+02 0.0000000000e+00 0.0000e+00 1.0000e+00
      -13  1    1    2    0    0 -5.4767421270e+02 -2.8663284509e+02 +9.8186153641e+02 1.1602402802e+03 0.0000000000e+00 0.0000e+00 1.0000e+00
       13  1    1    2    0    0 +5.4767421270e+02 +2.8663284509e+02 +2.4479697383e+02 6.6485411147e+02 0.0000000000e+00 0.0000e+00 -1.0000e+00
<mgrwt>
<rscale>  0 0.13513987E+04</rscale>
<asrwt>0</asrwt>
<pdfrwt beam="1">  1        2 0.23475022E+00 0.13513987E+04</pdfrwt>
<pdfrwt beam="2">  1       -2 0.46033530E-01 0.13513987E+04</pdfrwt>
<totfact> 0.67096866E+01</totfact>
</mgrwt>
<rwgt>
<wgt id='morphing_basis_vector_1'> +1.9664743e-04 </wgt>
<wgt id='morphing_basis_vector_2'> +1.8359952e-04 </wgt>
<wgt id='morphing_basis_vector_3'> +2.0615638e-04 </wgt>
<wgt id='morphing_basis_vector_4'> +7.3829700e-05 </wgt>
<wgt id='morphing_basis_vector_5'> +1.8299832e-04 </wgt>
</rwgt>
</event>
<event>
 4      1 +3.5234200e-07 1.39761700e+03 7.81860800e-03 8.37702300e-02
        2 -1    0    0  501    0 +0.0000000000e+00 +0.0000000000e+00 +2.2846653251e+03 2.2846653251e+03 0.0000000000e+00 0.0000e+00 -1.0000e+00
       -2 -1    0    0    0  501 -0.0000000000e+00 -0.0000000000e+00 -2.1374393507e+02 2.1374393507e+02 0.0000000000e+00 0.0000e+00 1.0000e+00
      -13  1    1    2    0    0 -4.4893729849e+02 -4.0645659652e+02 +4.1214295843e+02 7.3253906450e+02 0.0000000000e+00 0.0000e+00 1.0000e+00
       13  1    1    2    0    0 +4.4893729849e+02 +4.0645659652e+02 +1.6587784316e+03 1.7658701957e+03 0.0000000000e+00 0.0000e+00 -1.0000e+00
<mgrwt>
<rscale>  0 0.13976171E+04</rscale>
<asrwt>0</asrwt>
<pdfrwt beam="1">  1        2 0.35148696E+00 0.13976171E+04</pdfrwt>
<pdfrwt beam="2">  1       -2 0.32883684E-01 0.13976171E+04</pdfrwt>
<totfact> 0.46926207E+01</totfact>
</mgrwt>
<rwgt>
<wgt id='morphing_basis_vector_1'> +1.9729045e-04 </wgt>
<wgt id='morphing_basis_vector_2'> +1.3026182e-04 </wgt>
<wgt id='morphing_basis_vector_3'> +2.0294424e-04 </wgt>
<wgt id='morphing_basis_vector_4'> +1.3307721e-04 </wgt>
<wgt id='morphing_basis_vector_5'> +2.1402701e-04 </wgt>
</rwgt>
</event>
<event>
 4      1 +3.5234200e-07 1.33648900e+03 7.81860800e-03 8.41677400e-02
        2 -1    0    0  501    0 +0.0000000000e+00 +0.0000000000e+00 +8.5125480418e+02 8.5125480418e+02 0.0000000000e+00 0.0000e+00 1.0000e+00
       -2 -1    0    0    0  501 -0.0000000000e+00 -0.0000000000e+00 -5.2457898161e+02 5.2457898161e+02 0.0000000000e+00 0.0000e+00 -1.0000e+00
      -13  1    1    2    0    0 -5.2333829150e+02 -2.5478477473e+02 -1.7458191595e+02 6.0768173756e+02 0.0000000000e+00 0.0000e+00 -1.0000e+00
       13  1    1    2    0    0 +5.2333829150e+02 +2.5478477473e+02 +5.0125773852e+02 7.6815204823e+02 0.0000000000e+00 0.0000e+00 1.0000e+00
<mgrwt>
<rscale>  0 0.13364885E+04</rscale>
<asrwt>0</asrwt>
<pdfrwt beam="1">  1        2 0.13096228E+00 0.13364885E+04</pdfrwt>
<pdfrwt beam="2">  1       -2 0.80704459E-01 0.13364885E+04</pdfrwt>
<totfact> 0.52927568E+01</totfact>
</mgrwt>
<rwgt>
<wgt id='morphing_basis_vector_1'> +1.6625587e-04 </wgt>
<wgt id='morphing_basis_vector_2'> +1.0940292e-04 </wgt>
<wgt id='morphing_basis_vector_3'> +1.6986113e-04 </wgt>
<wgt id='morphing_basis_vector_4'> +1.1039281e-04 </wgt>
<wgt id='morphing_basis_vector_5'> +1.7755665e-04 </wgt>
</rwgt>
</event>
<event>
 4      1 +3.5234200e-07 1.29325900e+03 7.81860800e-03 8.44625000e-02
        2 -1    0    0  501    0 +0.0000000000e+00 +0.0000000000e+00 +1.8917298058e+03 1.8917298058e+03 0.0000000000e+00 0.0000e+00 1.0000e+00
       -2 -1    0    0    0  501 -0.0000000000e+00 -0.0000000000e+00 -2.2103043956e+02 2.2103043956e+02 0.0000000000e+00 0.0000e+00 -1.0000e+00
      -13  1    1    2    0    0 -2.7304551332e+02 +3.4983307919e+02 +1.6036838587e+03 1.6639528102e+03 0.0000000000e+00 0.0000e+00 1.0000e+00
       13  1    1    2    0    0 +2.7304551332e+02 -3.4983307919e+02 +6.7015507494e+01 4.4880743519e+02 0.0000000000e+00 0.0000e+00 -1.0000e+00
<mgrwt>
<rscale>  0 0.12932592E+04</rscale>
<asrwt>0</asrwt>
<pdfrwt beam="1">  1        2 0.29103534E+00 0.12932592E+04</pdfrwt>
<pdfrwt beam="2">  1       -2 0.34004684E-01 0.12932592E+04</pdfrwt>
<totfact> 0.74273505E+01</totfact>
</mgrwt>
<rwgt>
<wgt id='morphing_basis_vector_1'> +1.8973012e-04 </wgt>
<wgt id='morphing_basis_vector_2'> +2.2526039e-04 </wgt>
<wgt id='morphing_basis_vector_3'> +2.0066933e-04 </wgt>
<wgt id='morphing_basis_vector_4'> +1.9836594e-05 </wgt>
<wgt id='morphing_basis_vector_5'> +1.4932730e-04 </wgt>
</rwgt>
</event>
<event>
 4      1 +3.5234200e-07 1.48913300e+03 7.81860800e-03 8.32130400e-02
        2 -1    0    0  501    0 +0.0000000000e+00 +0.0000000000e+00 +2.4150128422e+02 2.4150128422e+02 0.0000000000e+00 0.0000e+00 -1.0000e+00
       -2 -1    0    0    0  501 -0.0000000000e+00 -0.0000000000e+00 -2.2955556545e+03 2.2955556545e+03 0.0000000000e+00 0.0000e+00 1.0000e+00
      -13  1    1    2    0    0 +1.4206871432e+02 -5.9904100385e+02 -1.7404459166e+03 1.8461271984e+03 0.0000000000e+00 0.0000e+00 1.0000e+00
       13  1    1    2    0    0 -1.4206871432e+02 +5.9904100385e+02 -3.1360845363e+02 6.9092974033e+02 0.0000000000e+00 0.0000e+00 -1.0000e+00
<mgrwt>
<rscale>  0 0.14891335E+04</rscale>
<asrwt>0</asrwt>
<pdfrwt beam="1">  1        2 0.37154043E-01 0.14891335E+04</pdfrwt>
<pdfrwt beam="2">  1       -2 0.35316242E+00 0.14891335E+04</pdfrwt>
<totfact> 0.17503610E+00</totfact>
</mgrwt>
<rwgt>
<wgt id='morphing_basis_vector_1'> +2.5149006e-04 </wgt>
<wgt id='morphing_basis_vector_2'> +1.6614818e-04 </wgt>
<wgt id='morphing_basis_vector_3'> +2.6089340e-04 </wgt>
<wgt id='morphing_basis_vector_4'> +1.7376497e-04 </wgt>
<wgt id='morphing_basis_vector_5'> +2.7865642e-04 </wgt>
</rwgt>
</event>
<event>
 4      1 +3.5234200e-07 1.29955600e+03 7.81860800e-03 8.44188200e-02
        2 -1    0    0  501    0 +0.0000000000e+00 +0.0000000000e+00 +8.1131619059e+02 8.1131619059e+02 0.0000000000e+00 0.0000e+00 -1.0000e+00
       -2 -1    0    0    0  501 -0.0000000000e+00 -0.0000000000e+00 -5.2040292097e+02 5.2040292097e+02 0.0000000000e+00 0.0000e+00 1.0000e+00
      -13  1    1    2    0    0 -5.6367065266e+02 +2.3633091999e+02 -8.0533517542e+01 6.1649213772e+02 0.0000000000e+00 0.0000e+00 1.0000e+00
       13  1    1    2    0    0 +5.6367065266e+02 -2.3633091999e+02 +3.7144678717e+02 7.1522697384e+02 0.0000000000e+00 0.0000e+00 -1.0000e+00
<mgrwt>
<rscale>  0 0.12995558E+04</rscale>
<asrwt>0</asrwt>
<pdfrwt beam="1">  1        2 0.12481788E+00 0.12995558E+04</pdfrwt>
<pdfrwt beam="2">  1       -2 0.80061987E-01 0.12995558E+04</pdfrwt>
<totfact> 0.57558854E+01</totfact>
</mgrwt>
<rwgt>
<wgt id='morphing_basis_vector_1'> +1.5011111e-04 </wgt>
<wgt id='morphing_basis_vector_2'> +1.0021916e-04 </wgt>
<wgt id='morphing_basis_vector_3'> +1.5280126e-04 </wgt>
<wgt id='morphing_basis_vector_4'> +9.6896009e-05 </wgt>
<wgt id='morphing_basis_vector_5'> +1.5779250e-04 </wgt>
</rwgt>
</event>
<event>
 4      1 +3.5234200e-07 1.53242500e+03 7.81860800e-03 8.29637400e-02
        2 -1    0    0  501    0 +0.0000000000e+00 +0.0000000000e+00 +6.1717220299e+02 6.1717220299e+02 0.0000000000e+00 0.0000e+00 -1.0000e+00
       -2 -1    0    0    0  501 -0.0000000000e+00 -0.0000000000e+00 -9.5124432573e+02 9.5124432573e+02 0.0000000000e+00 0.0000e+00 1.0000e+00
      -13  1    1    2    0    0 -7.6222145631e+02 -6.9995563394e+01 -2.0249996708e+02 7.9176206276e+02 0.0000000000e+00 0.0000e+00 1.0000e+00
       13  1    1    2    0    0 +7.6222145631e+02 +6.9995563394e+01 -1.3157215566e+02 7.7665446596e+02 0.0000000000e+00 0.0000e+00 -1.0000e+00
<mgrwt>
<rscale>  0 0.15324249E+04</rscale>
<asrwt>0</asrwt>
<pdfrwt beam="1">  1        2 0.94949570E-01 0.15324249E+04</pdfrwt>
<pdfrwt beam="2">  1       -2 0.14634528E+00 0.15324249E+04</pdfrwt>
<totfact> 0.17438275E+01</totfact>
</mgrwt>
<rwgt>
<wgt id='morphing_basis_vector_1'> +2.8867108e-04 </wgt>
<wgt id='morphing_basis_vector_2'> +2.0911007e-04 </wgt>
<wgt id='morphing_basis_vector_3'> +3.0274067e-04 </wgt>
<wgt id='morphing_basis_vector_4'> +1.8106582e-04 </wgt>
<wgt id='morphing_basis_vector_5'> +3.1270053e-04 </wgt>
</rwgt>
</event>
<event>
 4      1 +3.5234200e-07 1.48070200e+03 7.81860800e-03 8.32626200e-02
        2 -1    0    0  501    0 +0.0000000000e+00 +0.0000000000e+00 +7.3965729974e+02 7.3965729974e+02 0.0000000000e+00 0.0000e+00 -1.0000e+00
       -2 -1    0    0    0  501 -0.0000000000e+00 -0.0000000000e+00 -7.4104513169e+02 7.4104513169e+02 0.0000000000e+00 0.0000e+00 1.0000e+00
      -13  1    1    2    0    0 +2.7843352292e+02 -4.0970005048e+02 -5.5091237168e+02 7.4086692416e+02 0.0000000000e+00 0.0000e+00 1.0000e+00
       13  1    1    2    0    0 -2.7843352292e+02 +4.0970005048e+02 +5.4952453973e+02 7.3983550727e+02 0.0000000000e+00 0.0000e+00 -1.0000e+00
<mgrwt>
<rscale>  0 0.14807018E+04</rscale>
<asrwt>0</asrwt>
<pdfrwt beam="1">  1        2 0.11379343E+00 0.14807018E+04</pdfrwt>
<pdfrwt beam="2">  1       -2 0.11400694E+00 0.14807018E+04</pdfrwt>
<totfact> 0.27435055E+01</totfact>
</mgrwt>
<rwgt>
<wgt id='morphing_basis_vector_1'> +2.4548875e-04 </wgt>
<wgt id='morphing_basis_vector_2'> +1.6082294e-04 </wgt>
<wgt id='morphing_basis_vector_3'> +2.5433216e-04 </wgt>
<wgt id='morphing_basis_vector_4'> +1.7075730e-04 </wgt>
<wgt id='morphing_basis_vector_5'> +2.7224508e-04 </wgt>
</rwgt>
</event>
<event>
 4      1 +3.5234200e-07 1.38609800e+03 7.81860800e-03 8.38435000e-02
        2 -1    0    0  501    0 +0.0000000000e+00 +0.0000000000e+00 +9.9766163192e+02 9.9766163192e+02 0.0000000000e+00 0.0000e+00 1.0000e+00
       -2 -1    0    0    0  501 -0.0000000000e+00 -0.0000000000e+00 -4.8144258549e+02 4.8144258549e+02 0.0000000000e+00 0.0000e+00 -1.0000e+00
      -13  1    1    2    0    0 +2.0967381170e+02 +4.0404679217e+02 +8.1576458187e+02 9.3417812574e+02 0.0000000000e+00 0.0000e+00 1.0000e+00
       13  1    1    2    0    0 -2.0967381170e+02 -4.0404679217e+02 -2.9954553544e+02 5.4492609167e+02 0.0000000000e+00 0.0000e+00 -1.0000e+00
<mgrwt>
<rscale>  0 0.13860978E+04</rscale>
<asrwt>0</asrwt>
<pdfrwt beam="1">  1        2 0.15348640E+00 0.13860978E+04</pdfrwt>
<pdfrwt beam="2">  1       -2 0.74068090E-01 0.13860978E+04</pdfrwt>
<totfact> 0.51351622E+01</totfact>
</mgrwt>
<rwgt>
<wgt id='morphing_basis_vector_1'> +2.4972673e-04 </wgt>
<wgt id='morphing_basis_vector_2'> +3.0121861e-04 </wgt>
<wgt id='morphing_basis_vector_3'> +2.6984501e-04 </wgt>
<wgt id='morphing_basis_vector_4'> +2.1962479e-05 </wgt>
<wgt id='morphing_basis_vector_5'> +1.9906107e-04 </wgt>
</rwgt>
</event>
<event>
 4      1 +3.5234200e-07 1.51374300e+03 7.81860800e-03 8.30702700e-02
        2 -1    0    0  501    0 +0.0000000000e+00 +0.0000000000e+00 +5.0302492986e+02 5.0302492986e+02 0.0000000000e+00 0.0000e+00 -1.0000e+00
       -2 -1    0    0    0  501 -0.0000000000e+00 -0.0000000000e+00 -1.1388192471e+03 1.1388192471e+03 0.0000000000e+00 0.0000e+00 1.0000e+00
      -13  1    1    2    0    0 +5.2342135970e+02 +3.7960850488e+02 -7.4461413737e+02 9.8616568098e+02 0.0000000000e+00 0.0000e+00 1.0000e+00
       13  1    1    2    0    0 -5.2342135970e+02 -3.7960850488e+02 +1.0881982018e+02 6.5567849593e+02 0.0000000000e+00 0.0000e+00 -1.0000e+00
<mgrwt>
<rscale>  0 0.15137430E+04</rscale>
<asrwt>0</asrwt>
<pdfrwt beam="1">  1        2 0.77388452E-01 0.15137430E+04</pdfrwt>
<pdfrwt beam="2">  1       -2 0.17520296E+00 0.15137430E+04</pdfrwt>
<totfact> 0.13008039E+01</totfact>
</mgrwt>
<rwgt>
<wgt id='morphing_basis_vector_1'> +2.6813691e-04 </wgt>
<wgt id='morphing_basis_vector_2'> +1.7789338e-04 </wgt>
<wgt id='morphing_basis_vector_3'> +2.7880975e-04 </wgt>
<wgt id='morphing_basis_vector_4'> +1.8553922e-04 </wgt>
<wgt id='morphing_basis_vector_5'> +2.9821624e-04 </wgt>
</rwgt>
</event>
<event>
 4      1 +3.5234200e-07 1.29055000e+03 7.81860800e-03 8.44813800e-02
        2 -1    0    0  501    0 +0.0000000000e+00 +0.0000000000e+00 +2.8150581401e+03 2.8150581401e+03 0.0000000000e+00 0.0000e+00 -1.0000e+00
       -2 -1    0    0    0  501 -0.0000000000e+00 -0.0000000000e+00 -1.4791159244e+02 1.4791159244e+02 0.0000000000e+00 0.0000e+00 1.0000e+00
      -13  1    1    2    0    0 -5.5205652539e+02 +3.1729659497e+02 +1.5736696303e+03 1.6976099793e+03 0.0000000000e+00 0.0000e+00 1.0000e+00
       13  1    1    2    0    0 +5.5205652539e+02 -3.1729659497e+02 +1.0934769174e+03 1.2653597533e+03 0.0000000000e+00 0.0000e+00 -1.0000e+00
<mgrwt>
<rscale>  0 0.12905499E+04</rscale>
<asrwt>0</asrwt>
<pdfrwt beam="1">  1        2 0.43308583E+00 0.12905499E+04</pdfrwt>
<pdfrwt beam="2">  1       -2 0.22755632E-01 0.12905499E+04</pdfrwt>
<totfact> 0.43457723E+01</totfact>
</mgrwt>
<rwgt>
<wgt id='morphing_basis_vector_1'> +1.5404473e-04 </wgt>
<wgt id='morphing_basis_vector_2'> +1.2108218e-04 </wgt>
<wgt id='morphing_basis_vector_3'> +1.5803585e-04 </wgt>
<wgt id='morphing_basis_vector_4'> +8.0192788e-05 </wgt>
<wgt id='morphing_basis_vector_5'> +1.5227518e-04 </wgt>
</rwgt>
</event>
<event>
 4      1 +3.5234200e-07 1.36878200e+03 7.81860800e-03 8.39550400e-02
        2 -1    0    0  501    0 +0.0000000000e+00 +0.0000000000e+00 +1.8222200542e+03 1.8222200542e+03 0.0000000000e+00 0.0000e+00 -1.0000e+00
       -2 -1    0    0    0  501 -0.0000000000e+00 -0.0000000000e+00 -2.5704414532e+02 2.5704414532e+02 0.0000000000e+00 0.0000e+00 1.0000e+00
      -13  1    1    2    0    0 +4.6062219359e+02 +4.6042560668e+02 +4.6312797397e+02 7.9915709644e+02 0.0000000000e+00 0.0000e+00 1.0000e+00
       13  1    1    2    0    0 -4.6062219359e+02 -4.6042560668e+02 +1.1020479349e+03 1.2801071031e+03 0.0000000000e+00 0.0000e+00 -1.0000e+00
<mgrwt>
<rscale>  0 0.13687819E+04</rscale>
<asrwt>0</asrwt>
<pdfrwt beam="1">  1        2 0.28034154E+00 0.13687819E+04</pdfrwt>
<pdfrwt beam="2">  1       -2 0.39545254E-01 0.13687819E+04</pdfrwt>
<totfact> 0.61152047E+01</totfact>
</mgrwt>
<rwgt>
<wgt id='morphing_basis_vector_1'> +1.8331338e-04 </wgt>
<wgt id='morphing_basis_vector_2'> +1.2356539e-04 </wgt>
<wgt id='morphing_basis_vector_3'> +1.8823820e-04 </wgt>
<wgt id='morphing_basis_vector_4'> +1.1987326e-04 </wgt>
<wgt id='morphing_basis_vector_5'> +1.9604365e-04 </wgt>
</rwgt>
</event>
<event>
 4      1 +3.5234200e-07 1.49290400e+03 7.81860800e-03 8.31909800e-02
        2 -1    0    0  501    0 +0.0000000000e+00 +0.0000000000e+00 +1.4381227548e+03 1.4381227548e+03 0.0000000000e+00 0.0000e+00 1.0000e+00
       -2 -1    0    0    0  501 -0.0000000000e+00 -0.0000000000e+00 -3.8744324408e+02 3.8744324408e+02 0.0000000000e+00 0.0000e+00 -1.0000e+00
      -13  1    1    2    0    0 -6.9984725146e+02 +2.5159682954e+01 +2.0935805559e+02 7.3092405930e+02 0.0000000000e+00 0.0000e+00 -1.0000e+00
       13  1    1    2    0    0 +6.9984725146e+02 -2.5159682954e+01 +8.4132145513e+02 1.0946419396e+03 0.0000000000e+00 0.0000e+00 1.0000e+00
<mgrwt>
<rscale>  0 0.14929045E+04</rscale>
<asrwt>0</asrwt>
<pdfrwt beam="1">  1        2 0.22124965E+00 0.14929045E+04</pdfrwt>
<pdfrwt beam="2">  1       -2 0.59606654E-01 0.14929045E+04</pdfrwt>
<totfact> 0.44462541E+01</totfact>
</mgrwt>
<rwgt>
<wgt id='morphing_basis_vector_1'> +2.5550865e-04 </wgt>
<wgt id='morphing_basis_vector_2'> +1.7244089e-04 </wgt>
<wgt id='morphing_basis_vector_3'> +2.6556616e-04 </wgt>
<wgt id='morphing_basis_vector_4'> +1.7269997e-04 </wgt>
<wgt id='morphing_basis_vector_5'> +2.8138029e-04 </wgt>
</rwgt>
</event>
<event>
 4      1 +3.5234200e-07 1.41511000e+03 7.81860800e-03 8.36603600e-02
        2 -1    0    0  501    0 +0.0000000000e+00 +0.0000000000e+00 +1.7948796970e+03 1.7948796970e+03 0.0000000000e+00 0.0000e+00 -1.0000e+00
       -2 -1    0    0    0  501 -0.0000000000e+00 -0.0000000000e+00 -2.7892364491e+02 2.7892364491e+02 0.0000000000e+00 0.0000e+00 1.0000e+00
      -13  1    1    2    0    0 +4.3776972520e+02 +3.2987320370e+02 +1.0231160824e+02 5.5760768288e+02 0.0000000000e+00 0.0000e+00 1.0000e+00
       13  1    1    2    0    0 -4.3776972520e+02 -3.2987320370e+02 +1.4136444438e+03 1.5161956590e+03 0.0000000000e+00 0.0000e+00 -1.0000e+00
<mgrwt>
<rscale>  0 0.14151104E+04</rscale>
<asrwt>0</asrwt>
<pdfrwt beam="1">  1        2 0.27613533E+00 0.14151104E+04</pdfrwt>
<pdfrwt beam="2">  1       -2 0.42911331E-01 0.14151104E+04</pdfrwt>
<totfact> 0.54107836E+01</totfact>
</mgrwt>
<rwgt>
<wgt id='morphing_basis_vector_1'> +2.0644591e-04 </wgt>
<wgt id='morphing_basis_vector_2'> +1.3529623e-04 </wgt>
<wgt id='morphing_basis_vector_3'> +2.1262719e-04 </wgt>
<wgt id='morphing_basis_vector_4'> +1.4105190e-04 </wgt>
<wgt id='morphing_basis_vector_5'> +2.2547758e-04 </wgt>
</rwgt>
</event>
<event>
 4      1 +3.5234200e-07 1.32516700e+03 7.81860800e-03 8.42438000e-02
        2 -1    0    0  501    0 +0.0000000000e+00 +0.0000000000e+00 +1.8951784033e+03 1.8951784033e+03 0.0000000000e+00 0.0000e+00 -1.0000e+00
       -2 -1    0    0    0  501 -0.0000000000e+00 -0.0000000000e+00 -2.3164929540e+02 2.3164929540e+02 0.0000000000e+00 0.0000e+00 1.0000e+00
      -13  1    1    2    0    0 -3.1626821204e+02 -5.3665338202e+02 +4.6933582183e+02 7.7993496398e+02 0.0000000000e+00 0.0000e+00 1.0000e+00
       13  1    1    2    0    0 +3.1626821204e+02 +5.3665338202e+02 +1.1941932861e+03 1.3468927347e+03 0.0000000000e+00 0.0000e+00 -1.0000e+00
<mgrwt>
<rscale>  0 0.13251668E+04</rscale>
<asrwt>0</asrwt>
<pdfrwt beam="1">  1        2 0.29156590E+00 0.13251668E+04</pdfrwt>
<pdfrwt beam="2">  1       -2 0.35638354E-01 0.13251668E+04</pdfrwt>
<totfact> 0.67724724E+01</totfact>
</mgrwt>
<rwgt>
<wgt id='morphing_basis_vector_1'> +1.6171230e-04 </wgt>
<wgt id='morphing_basis_vector_2'> +1.0813952e-04 </wgt>
<wgt id='morphing_basis_vector_3'> +1.6514767e-04 </wgt>
<wgt id='morphing_basis_vector_4'> +1.0515111e-04 </wgt>
<wgt id='morphing_basis_vector_5'> +1.7124529e-04 </wgt>
</rwgt>
</event>
<event>
 4      1 +3.5234200e-07 1.36260300e+03 7.81860800e-03 8.39952700e-02
        2 -1    0    0  501    0 +0.0000000000e+00 +0.0000000000e+00 +1.9336187791e+03 1.9336187791e+03 0.0000000000e+00 0.0000e+00 1.0000e+00
       -2 -1    0    0    0  501 -0.0000000000e+00 -0.0000000000e+00 -2.4005321215e+02 2.4005321215e+02 0.0000000000e+00 0.0000e+00 -1.0000e+00
      -13  1    1    2    0    0 -6.5922991181e+02 +1.5617909867e+02 +9.6176609196e+02 1.1764225445e+03 0.0000000000e+00 0.0000e+00 -1.0000e+00
       13  1    1    2    0    0 +6.5922991181e+02 -1.5617909867e+02 +7.3179947494e+02 9.9724944673e+02 0.0000000000e+00 0.0000e+00 1.0000e+00
<mgrwt>
<rscale>  0 0.13626025E+04</rscale>
<asrwt>0</asrwt>
<pdfrwt beam="1">  1        2 0.29747980E+00 0.13626025E+04</pdfrwt>
<pdfrwt beam="2">  1       -2 0.36931265E-01 0.13626025E+04</pdfrwt>
<totfact> 0.60201429E+01</totfact>
</mgrwt>
<rwgt>
<wgt id='morphing_basis_vector_1'> +1.8760104e-04 </wgt>
<wgt id='morphing_basis_vector_2'> +1.4363303e-04 </wgt>
<wgt id='morphing_basis_vector_3'> +1.9410217e-04 </wgt>
<wgt id='morphing_basis_vector_4'> +1.0418515e-04 </wgt>
<wgt id='morphing_basis_vector_5'> +1.9140773e-04 </wgt>
</rwgt>
</event>
<event>
 4      1 +3.5234200e-07 1.38937400e+03 7.81860800e-03 8.38225900e-02
        2 -1    0    0  501    0 +0.0000000000e+00 +0.0000000000e+00 +1.2914925896e+03 1.2914925896e+03 0.0000000000e+00 0.0000e+00 -1.0000e+00
       -2 -1    0    0    0  501 -0.0000000000e+00 -0.0000000000e+00 -3.7366825116e+02 3.7366825116e+02 0.0000000000e+00 0.0000e+00 1.0000e+00
      -13  1    1    2    0    0 +4.0052738615e+01 +4.9186101337e+02 -1.2707626850e+02 5.0958792799e+02 0.0000000000e+00 0.0000e+00 1.0000e+00
       13  1    1    2    0    0 -4.0052738615e+01 -4.9186101337e+02 +1.0449006070e+03 1.1555729128e+03 0.0000000000e+00 0.0000e+00 -1.0000e+00
<mgrwt>
<rscale>  0 0.13893736E+04</rscale>
<asrwt>0</asrwt>
<pdfrwt beam="1">  1        2 0.19869117E+00 0.13893736E+04</pdfrwt>
<pdfrwt beam="2">  1       -2 0.57487424E-01 0.13893736E+04</pdfrwt>
<totfact> 0.58466222E+01</totfact>
</mgrwt>
<rwgt>
<wgt id='morphing_basis_vector_1'> +1.9224263e-04 </wgt>
<wgt id='morphing_basis_vector_2'> +1.2542068e-04 </wgt>
<wgt id='morphing_basis_vector_3'> +1.9743791e-04 </wgt>
<wgt id='morphing_basis_vector_4'> +1.3097001e-04 </wgt>
<wgt id='morphing_basis_vector_5'> +2.0889413e-04 </wgt>
</rwgt>
</event>
<event>
 4      1 +3.5234200e-07 1.42556700e+03 7.81860800e-03 8.35954700e-02
        2 -1    0    0  501    0 +0.0000000000e+00 +0.0000000000e+00 +1.0574941851e+03 1.0574941851e+03 0.0000000000e+00 0.0000e+00 1.0000e+00
       -2 -1    0    0    0  501 -0.0000000000e+00 -0.0000000000e+00 -4.8043786030e+02 4.8043786030e+02 0.0000000000e+00 0.0000e+00 -1.0000e+00
      -13  1    1    2    0    0 +7.8766123593e+01 +6.8585126350e+02 +9.7165240849e+01 6.9716364069e+02 0.0000000000e+00 0.0000e+00 -1.0000e+00
       13  1    1    2    0    0 -7.8766123593e+01 -6.8585126350e+02 +4.7989108393e+02 8.4076840468e+02 0.0000000000e+00 0.0000e+00 1.0000e+00
<mgrwt>
<rscale>  0 0.14255669E+04</rscale>
<asrwt>0</asrwt>
<pdfrwt beam="1">  1        2 0.16269141E+00 0.14255669E+04</pdfrwt>
<pdfrwt beam="2">  1       -2 0.73913518E-01 0.14255669E+04</pdfrwt>
<totfact> 0.47237034E+01</totfact>
</mgrwt>
<rwgt>
<wgt id='morphing_basis_vector_1'> +2.1490901e-04 </wgt>
<wgt id='morphing_basis_vector_2'> +1.4684601e-04 </wgt>
<wgt id='morphing_basis_vector_3'> +2.2219215e-04 </wgt>
<wgt id='morphing_basis_vector_4'> +1.4077066e-04 </wgt>
<wgt id='morphing_basis_vector_5'> +2.3215470e-04 </wgt>
</rwgt>
</event>
<event>
 4      1 +3.5234200e-07 1.41139100e+03 7.81860800e-03 8.36835800e-02
        2 -1    0    0  501    0 +0.0000000000e+00 +0.0000000000e+00 +1.9633675427e+03 1.9633675427e+03 0.0000000000e+00 0.0000e+00 -1.0000e+00
       -2 -1    0    0    0  501 -0.0000000000e+00 -0.0000000000e+00 -2.5364887416e+02 2.5364887416e+02 0.0000000000e+00 0.0000e+00 1.0000e+00
      -13  1    1    2    0    0 -1.3480704681e+02 +5.0019508514e+02 +1.0212205129e+02 5.2801228814e+02 0.0000000000e+00 0.0000e+00 1.0000e+00
       13  1    1    2    0    0 +1.3480704681e+02 -5.0019508514e+02 +1.6075966173e+03 1.6890041288e+03 0.0000000000e+00 0.0000e+00 -1.0000e+00
<mgrwt>
<rscale>  0 0.14113908E+04</rscale>
<asrwt>0</asrwt>
<pdfrwt beam="1">  1        2 0.30205654E+00 0.14113908E+04</pdfrwt>
<pdfrwt beam="2">  1       -2 0.39022905E-01 0.14113908E+04</pdfrwt>
<totfact> 0.52114660E+01</totfact>
</mgrwt>
<rwgt>
<wgt id='morphing_basis_vector_1'> +2.0425369e-04 </wgt>
<wgt id='morphing_basis_vector_2'> +1.3356023e-04 </wgt>
<wgt id='morphing_basis_vector_3'> +2.1026297e-04 </wgt>
<wgt id='morphing_basis_vector_4'> +1.3972833e-04 </wgt>
<wgt id='morphing_basis_vector_5'> +2.2303484e-04 </wgt>
</rwgt>
</event>
<event>
 4      1 +3.5234200e-07 1.29782400e+03 7.81860800e-03 8.44308100e-02
        2 -1    0    0  501    0 +0.0000000000e+00 +0.0000000000e+00 +1.9758494641e+03 1.9758494641e+03 0.0000000000e+00 0.0000e+00 -1.0000e+00
       -2 -1    0    0    0  501 -0.0000000000e+00 -0.0000000000e+00 -2.1311667611e+02 2.1311667611e+02 0.0000000000e+00 0.0000e+00 1.0000e+00
      -13  1    1    2    0    0 -5.9470812137e+02 -2.5892174435e+02 +9.1373286517e+02 1.1205471736e+03 0.0000000000e+00 0.0000e+00 1.0000e+00
       13  1    1    2    0    0 +5.9470812137e+02 +2.5892174435e+02 +8.4899992286e+02 1.0684189667e+03 0.0000000000e+00 0.0000e+00 -1.0000e+00
<mgrwt>
<rscale>  0 0.12978235E+04</rscale>
<asrwt>0</asrwt>
<pdfrwt beam="1">  1        2 0.30397683E+00 0.12978235E+04</pdfrwt>
<pdfrwt beam="2">  1       -2 0.32787182E-01 0.12978235E+04</pdfrwt>
<totfact> 0.71170012E+01</totfact>
</mgrwt>
<rwgt>
<wgt id='morphing_basis_vector_1'> +1.5389508e-04 </wgt>
<wgt id='morphing_basis_vector_2'> +1.1331236e-04 </wgt>
<wgt id='morphing_basis_vector_3'> +1.5745403e-04 </wgt>
<wgt id='morphing_basis_vector_4'> +8.8287783e-05 </wgt>
<wgt id='morphing_basis_vector_5'> +1.5634355e-04 </wgt>
</rwgt>
</event>
<event>
 4      1 +3.5234200e-07 1.46075000e+03 7.81860800e-03 8.33813100e-02
        2 -1    0    0  501    0 +0.0000000000e+00 +0.0000000000e+00 +6.4449214497e+02 6.4449214497e+02 0.0000000000e+00 0.0000e+00 1.0000e+00
       -2 -1    0    0    0  501 -0.0000000000e+00 -0.0000000000e+00 -8.2770212281e+02 8.2770212281e+02 0.0000000000e+00 0.0000e+00 -1.0000e+00
      -13  1    1    2    0    0 -3.5911170869e+02 -1.1124320310e+02 -7.2269880932e+02 8.1463478845e+02 0.0000000000e+00 0.0000e+00 -1.0000e+00
       13  1    1    2    0    0 +3.5911170869e+02 +1.1124320310e+02 +5.3948883148e+02 6.5755947932e+02 0.0000000000e+00 0.0000e+00 1.0000e+00
<mgrwt>
<rscale>  0 0.14607498E+04</rscale>
<asrwt>0</asrwt>
<pdfrwt beam="1">  1        2 0.99152638E-01 0.14607498E+04</pdfrwt>
<pdfrwt beam="2">  1       -2 0.12733879E+00 0.14607498E+04</pdfrwt>
<totfact> 0.24388883E+01</totfact>
</mgrwt>
<rwgt>
<wgt id='morphing_basis_vector_1'> +2.3283832e-04 </wgt>
<wgt id='morphing_basis_vector_2'> +1.5202458e-04 </wgt>
<wgt id='morphing_basis_vector_3'> +2.4075649e-04 </wgt>
<wgt id='morphing_basis_vector_4'> +1.6169391e-04 </wgt>
<wgt id='morphing_basis_vector_5'> +2.5735534e-04 </wgt>
</rwgt>
</event>
<event>
 4      1 +3.5234200e-07 1.31875200e+03 7.81860800e-03 8.42872500e-02
        2 -1    0    0  501    0 +0.0000000000e+00 +0.0000000000e+00 +7.8207907565e+02 7.8207907565e+02 0.0000000000e+00 0.0000e+00 -1.0000e+00
       -2 -1    0    0    0  501 -0.0000000000e+00 -0.0000000000e+00 -5.5592397727e+02 5.5592397727e+02 0.0000000000e+00 0.0000e+00 1.0000e+00
      -13  1    1    2    0    0 +1.5509713339e+02 -6.0376158646e+02 -1.0498633178e+02 6.3214342038e+02 0.0000000000e+00 0.0000e+00 1.0000e+00
       13  1    1    2    0    0 -1.5509713339e+02 +6.0376158646e+02 +3.3114143017e+02 7.0585963254e+02 0.0000000000e+00 0.0000e+00 -1.0000e+00
<mgrwt>
<rscale>  0 0.13187517E+04</rscale>
<asrwt>0</asrwt>
<pdfrwt beam="1">  1        2 0.12031986E+00 0.13187517E+04</pdfrwt>
<pdfrwt beam="2">  1       -2 0.85526766E-01 0.13187517E+04</pdfrwt>
<totfact> 0.51805621E+01</totfact>
</mgrwt>
<rwgt>
<wgt id='morphing_basis_vector_1'> +1.5884218e-04 </wgt>
<wgt id='morphing_basis_vector_2'> +1.0640520e-04 </wgt>
<wgt id='morphing_basis_vector_3'> +1.6210595e-04 </wgt>
<wgt id='morphing_basis_vector_4'> +1.0286175e-04 </wgt>
<wgt id='morphing_basis_vector_5'> +1.6778669e-04 </wgt>
</rwgt>
</event>
<event>
 4      1 +3.5234200e-07 1.39067900e+03 7.81860800e-03 8.38142700e-02
        2 -1    0    0  501    0 +0.0000000000e+00 +0.0000000000e+00 +1.1468148047e+03 1.1468148047e+03 0.0000000000e+00 0.0000e+00 -1.0000e+00
       -2 -1    0    0    0  501 -0.0000000000e+00 -0.0000000000e+00 -4.2159996362e+02 4.2159996362e+02 0.0000000000e+00 0.0000e+00 1.0000e+00
      -13  1    1    2    0    0 +4.2166397052e+02 -1.0295935884e+02 -2.5004707050e+02 5.0092381763e+02 0.0000000000e+00 0.0000e+00 1.0000e+00
       13  1    1    2    0    0 -4.2166397052e+02 +1.0295935884e+02 +9.7526191162e+02 1.0674909507e+03 0.0000000000e+00 0.0000e+00 -1.0000e+00
<mgrwt>
<rscale>  0 0.13906791E+04</rscale>
<asrwt>0</asrwt>
<pdfrwt beam="1">  1        2 0.17643305E+00 0.13906791E+04</pdfrwt>
<pdfrwt beam="2">  1       -2 0.64861533E-01 0.13906791E+04</pdfrwt>
<totfact> 0.55349034E+01</totfact>
</mgrwt>
<rwgt>
<wgt id='morphing_basis_vector_1'> +1.9281976e-04 </wgt>
<wgt id='morphing_basis_vector_2'> +1.2553501e-04 </wgt>
<wgt id='morphing_basis_vector_3'> +1.9803111e-04 </wgt>
<wgt id='morphing_basis_vector_4'> +1.3169561e-04 </wgt>
<wgt id='morphing_basis_vector_5'> +2.0972932e-04 </wgt>
</rwgt>
</event>
<event>
 4      1 +3.5234200e-07 1.34404400e+03 7.81860800e-03 8.41174200e-02
        2 -1    0    0  501    0 +0.0000000000e+00 +0.0000000000e+00 +1.5544339146e+03 1.5544339146e+03 0.0000000000e+00 0.0000e+00 1.0000e+00
       -2 -1    0    0    0  501 -0.0000000000e+00 -0.0000000000e+00 -2.9053251510e+02 2.9053251510e+02 0.0000000000e+00 0.0000e+00 -1.0000e+00
      -13  1    1    2    0    0 -8.3128514190e+01 +4.0642674145e+02 -9.3790601914e+01 4.2531132485e+02 0.0000000000e+00 0.0000e+00 -1.0000e+00
       13  1    1    2    0    0 +8.3128514190e+01 -4.0642674145e+02 +1.3576920014e+03 1.4196551048e+03 0.0000000000e+00 0.0000e+00 1.0000e+00
<mgrwt>
<rscale>  0 0.13440440E+04</rscale>
<asrwt>0</asrwt>
<pdfrwt beam="1">  1        2 0.23914367E+00 0.13440440E+04</pdfrwt>
<pdfrwt beam="2">  1       -2 0.44697311E-01 0.13440440E+04</pdfrwt>
<totfact> 0.68484521E+01</totfact>
</mgrwt>
<rwgt>
<wgt id='morphing_basis_vector_1'> +1.6919501e-04 </wgt>
<wgt id='morphing_basis_vector_2'> +1.0979854e-04 </wgt>
<wgt id='morphing_basis_vector_3'> +1.7287639e-04 </wgt>
<wgt id='morphing_basis_vector_4'> +1.1425262e-04 </wgt>
<wgt id='morphing_basis_vector_5'> +1.8188226e-04 </wgt>
</rwgt>
</event>
<event>
 4      1 +3.5234200e-07 1.30655700e+03 7.81860800e-03 8.43705600e-02
        2 -1    0    0  501    0 +0.0000000000e+00 +0.0000000000e+00 +1.1703276256e+03 1.1703276256e+03 0.0000000000e+00 0.0000e+00 -1.0000e+00
       -2 -1    0    0    0  501 -0.0000000000e+00 -0.0000000000e+00 -3.6466069020e+02 3.6466069020e+02 0.0000000000e+00 0.0000e+00 1.0000e+00
      -13  1    1    2    0    0 +2.8604022349e+02 -5.7790331796e+02 +2.7972093175e+02 7.0287627220e+02 0.0000000000e+00 0.0000e+00 1.0000e+00
       13  1    1    2    0    0 -2.8604022349e+02 +5.7790331796e+02 +5.2594600368e+02 8.3211204363e+02 0.0000000000e+00 0.0000e+00 -1.0000e+00
<mgrwt>
<rscale>  0 0.13065565E+04</rscale>
<asrwt>0</asrwt>
<pdfrwt beam="1">  1        2 0.18005040E+00 0.13065565E+04</pdfrwt>
<pdfrwt beam="2">  1       -2 0.56101645E-01 0.13065565E+04</pdfrwt>
<totfact> 0.72699471E+01</totfact>
</mgrwt>
<rwgt>
<wgt id='morphing_basis_vector_1'> +1.5479303e-04 </wgt>
<wgt id='morphing_basis_vector_2'> +1.0705777e-04 </wgt>
<wgt id='morphing_basis_vector_3'> +1.5800738e-04 </wgt>
<wgt id='morphing_basis_vector_4'> +9.6298279e-05 </wgt>
<wgt id='morphing_basis_vector_5'> +1.6119123e-04 </wgt>
</rwgt>
</event>
<event>
 4      1 +3.5234200e-07 1.49509800e+03 7.81860800e-03 8.31781800e-02
        2 -1    0    0  501    0 +0.0000000000e+00 +0.0000000000e+00 +8.4464002958e+02 8.4464002958e+02 0.0000000000e+00 0.0000e+00 1.0000e+00
       -2 -1    0    0    0  501 -0.0000000000e+00 -0.0000000000e+00 -6.6161897192e+02 6.6161897192e+02 0.0000000000e+00 0.0000e+00 -1.0000e+00
      -13  1    1    2    0    0 -4.6519918094e+02 +2.5697034246e+02 -4.3813796774e+02 6.8877348499e+02 0.0000000000e+00 0.0000e+00 -1.0000e+00
       13  1    1    2    0    0 +4.6519918094e+02 -2.5697034246e+02 +6.2115902541e+02 8.1748551651e+02 0.0000000000e+00 0.0000e+00 1.0000e+00
<mgrwt>
<rscale>  0 0.14950985E+04</rscale>
<asrwt>0</asrwt>
<pdfrwt beam="1">  1        2 0.12994462E+00 0.14950985E+04</pdfrwt>
<pdfrwt beam="2">  1       -2 0.10178753E+00 0.14950985E+04</pdfrwt>
<totfact> 0.30654157E+01</totfact>
</mgrwt>
<rwgt>
<wgt id='morphing_basis_vector_1'> +2.5491019e-04 </wgt>
<wgt id='morphing_basis_vector_2'> +1.6732802e-04 </wgt>
<wgt id='morphing_basis_vector_3'> +2.6444713e-04 </wgt>
<wgt id='morphing_basis_vector_4'> +1.7757459e-04 </wgt>
<wgt id='morphing_basis_vector_5'> +2.8338213e-04 </wgt>
</rwgt>
</event>
<event>
 4      1 +3.5234200e-07 1.47208200e+03 7.81860800e-03 8.33136600e-02
        2 -1    0    0  501    0 +0.0000000000e+00 +0.0000000000e+00 +1.2557268184e+03 1.2557268184e+03 0.0000000000e+00 0.0000e+00 -1.0000e+00
       -2 -1    0    0    0  501 -0.0000000000e+00 -0.0000000000e+00 -4.3142852361e+02 4.3142852361e+02 0.0000000000e+00 0.0000e+00 1.0000e+00
      -13  1    1    2    0    0 -4.5763706542e+02 +1.2659640345e+02 -2.3242266563e+02 5.2865738292e+02 0.0000000000e+00 0.0000e+00 1.0000e+00
       13  1    1    2    0    0 +4.5763706542e+02 -1.2659640345e+02 +1.0567209604e+03 1.1584979590e+03 0.0000000000e+00 0.0000e+00 -1.0000e+00
<mgrwt>
<rscale>  0 0.14720820E+04</rscale>
<asrwt>0</asrwt>
<pdfrwt beam="1">  1        2 0.19318874E+00 0.14720820E+04</pdfrwt>
<pdfrwt beam="2">  1       -2 0.66373620E-01 0.14720820E+04</pdfrwt>
<totfact> 0.45245363E+01</totfact>
</mgrwt>
<rwgt>
<wgt id='morphing_basis_vector_1'> +2.3998957e-04 </wgt>
<wgt id='morphing_basis_vector_2'> +1.5706128e-04 </wgt>
<wgt id='morphing_basis_vector_3'> +2.4843513e-04 </wgt>
<wgt id='morphing_basis_vector_4'> +1.6674392e-04 </wgt>
<wgt id='morphing_basis_vector_5'> +2.6573229e-04 </wgt>
</rwgt>
</event>
<event>
 4      1 +3.5234200e-07 1.38865900e+03 7.81860800e-03 8.38271400e-02
        2 -1    0    0  501    0 +0.0000000000e+00 +0.0000000000e+00 +6.6569899305e+02 6.6569899305e+02 0.0000000000e+00 0.0000e+00 -1.0000e+00
       -2 -1    0    0    0  501 -0.0000000000e+00 -0.0000000000e+00 -7.2419143334e+02 7.2419143334e+02 0.0000000000e+00 0.0000e+00 1.0000e+00
      -13  1    1    2    0    0 +5.5833293618e+02 +1.9807924054e+02 -3.9167565504e+02 7.1019776957e+02 0.0000000000e+00 0.0000e+00 1.0000e+00
       13  1    1    2    0    0 -5.5833293618e+02 -1.9807924054e+02 +3.3318321474e+02 6.7969265682e+02 0.0000000000e+00 0.0000e+00 -1.0000e+00
<mgrwt>
<rscale>  0 0.13886591E+04</rscale>
<asrwt>0</asrwt>
<pdfrwt beam="1">  1        2 0.10241523E+00 0.13886591E+04</pdfrwt>
<pdfrwt beam="2">  1       -2 0.11141407E+00 0.13886591E+04</pdfrwt>
<totfact> 0.33345917E+01</totfact>
</mgrwt>
<rwgt>
<wgt id='morphing_basis_vector_1'> +1.9238563e-04 </wgt>
<wgt id='morphing_basis_vector_2'> +1.2672750e-04 </wgt>
<wgt id='morphing_basis_vector_3'> +1.9768909e-04 </wgt>
<wgt id='morphing_basis_vector_4'> +1.2973961e-04 </wgt>
<wgt id='morphing_basis_vector_5'> +2.0837768e-04 </wgt>
</rwgt>
</event>
<event>
 4      1 +3.5234200e-07 1.37958000e+03 7.81860800e-03 8.38852800e-02
        2 -1    0    0  501    0 +0.0000000000e+00 +0.0000000000e+00 +1.1390649763e+03 1.1390649763e+03 0.0000000000e+00 0.0000e+00 1.0000e+00
       -2 -1    0    0    0  501 -0.0000000000e+00 -0.0000000000e+00 -4.1772018278e+02 4.1772018278e+02 0.0000000000e+00 0.0000e+00 -1.0000e+00
      -13  1    1    2    0    0 -2.0870661038e+02 -5.1610441976e+02 -9.8937600895e+01 5.6542981013e+02 0.0000000000e+00 0.0000e+00 -1.0000e+00
       13  1    1    2    0    0 +2.0870661038e+02 +5.1610441976e+02 +8.2028239443e+02 9.9135534896e+02 0.0000000000e+00 0.0000e+00 1.0000e+00
<mgrwt>
<rscale>  0 0.13795803E+04</rscale>
<asrwt>0</asrwt>
<pdfrwt beam="1">  1        2 0.17524076E+00 0.13795803E+04</pdfrwt>
<pdfrwt beam="2">  1       -2 0.64264644E-01 0.13795803E+04</pdfrwt>
<totfact> 0.57079195E+01</totfact>
</mgrwt>
<rwgt>
<wgt id='morphing_basis_vector_1'> +1.8736596e-04 </wgt>
<wgt id='morphing_basis_vector_2'> +1.2278919e-04 </wgt>
<wgt id='morphing_basis_vector_3'> +1.9228898e-04 </wgt>
<wgt id='morphing_basis_vector_4'> +1.2668136e-04 </wgt>
<wgt id='morphing_basis_vector_5'> +2.0278423e-04 </wgt>
</rwgt>
</event>
<event>
 4      1 +3.5234200e-07 1.34737600e+03 7.81860800e-03 8.40953300e-02
        2 -1    0    0  501    0 +0.0000000000e+00 +0.0000000000e+00 +1.2961176243e+03 1.2961176243e+03 0.0000000000e+00 0.0000e+00 1.0000e+00
       -2 -1    0    0    0  501 -0.0000000000e+00 -0.0000000000e+00 -3.5016557267e+02 3.5016557267e+02 0.0000000000e+00 0.0000e+00 -1.0000e+00
      -13  1    1    2    0    0 -1.1218671840e+02 -2.1779030351e+02 -2.9380973360e+02 3.8254755997e+02 0.0000000000e+00 0.0000e+00 -1.0000e+00
       13  1    1    2    0    0 +1.1218671840e+02 +2.1779030351e+02 +1.2397617852e+03 1.2637356370e+03 0.0000000000e+00 0.0000e+00 1.0000e+00
<mgrwt>
<rscale>  0 0.13473764E+04</rscale>
<asrwt>0</asrwt>
<pdfrwt beam="1">  1        2 0.19940271E+00 0.13473764E+04</pdfrwt>
<pdfrwt beam="2">  1       -2 0.53871627E-01 0.13473764E+04</pdfrwt>
<totfact> 0.66460290E+01</totfact>
</mgrwt>
<rwgt>
<wgt id='morphing_basis_vector_1'> +1.7071655e-04 </wgt>
<wgt id='morphing_basis_vector_2'> +1.1060328e-04 </wgt>
<wgt id='morphing_basis_vector_3'> +1.7447927e-04 </wgt>
<wgt id='morphing_basis_vector_4'> +1.1559973e-04 </wgt>
<wgt id='morphing_basis_vector_5'> +1.8378728e-04 </wgt>
</rwgt>
</event>
<event>
 4      1 +3.5234200e-07 1.35658400e+03 7.81860800e-03 8.40346600e-02
        2 -1    0    0  501    0 +0.0000000000e+00 +0.0000000000e+00 +1.7787013196e+03 1.7787013196e+03 0.0000000000e+00 0.0000e+00 -1.0000e+00
       -2 -1    0    0    0  501 -0.0000000000e+00 -0.0000000000e+00 -2.5866051995e+02 2.5866051995e+02 0.0000000000e+00 0.0000e+00 1.0000e+00
      -13  1    1    2    0    0 +5.2845900729e+02 +3.6232383594e+02 +1.0942661824e+03 1.2680559777e+03 0.0000000000e+00 0.0000e+00 1.0000e+00
       13  1    1    2    0    0 -5.2845900729e+02 -3.6232383594e+02 +4.2577461725e+02 7.6930586191e+02 0.0000000000e+00 0.0000e+00 -1.0000e+00
<mgrwt>
<rscale>  0 0.13565837E+04</rscale>
<asrwt>0</asrwt>
<pdfrwt beam="1">  1        2 0.27364635E+00 0.13565837E+04</pdfrwt>
<pdfrwt beam="2">  1       -2 0.39793927E-01 0.13565837E+04</pdfrwt>
<totfact> 0.63965325E+01</totfact>
</mgrwt>
<rwgt>
<wgt id='morphing_basis_vector_1'> +1.9451240e-04 </wgt>
<wgt id='morphing_basis_vector_2'> +1.7127372e-04 </wgt>
<wgt id='morphing_basis_vector_3'> +2.0314261e-04 </wgt>
<wgt id='morphing_basis_vector_4'> +8.4111311e-05 </wgt>
<wgt id='morphing_basis_vector_5'> +1.8659873e-04 </wgt>
</rwgt>
</event>
<event>
 4      1 +3.5234200e-07 1.36275500e+03 7.81860800e-03 8.39942700e-02
        2 -1    0    0  501    0 +0.0000000000e+00 +0.0000000000e+00 +4.1181864514e+02 4.1181864514e+02 0.0000000000e+00 0.0000e+00 -1.0000e+00
       -2 -1    0    0    0  501 -0.0000000000e+00 -0.0000000000e+00 -1.1273786714e+03 1.1273786714e+03 0.0000000000e+00 0.0000e+00 1.0000e+00
      -13  1    1    2    0    0 -4.9487053730e+02 +1.7916262035e+02 -8.4656906593e+02 9.9683262216e+02 0.0000000000e+00 0.0000e+00 1.0000e+00
       13  1    1    2    0    0 +4.9487053730e+02 -1.7916262035e+02 +1.3100903968e+02 5.4236469437e+02 0.0000000000e+00 0.0000e+00 -1.0000e+00
<mgrwt>
<rscale>  0 0.13627554E+04</rscale>
<asrwt>0</asrwt>
<pdfrwt beam="1">  1        2 0.63356717E-01 0.13627554E+04</pdfrwt>
<pdfrwt beam="2">  1       -2 0.17344287E+00 0.13627554E+04</pdfrwt>
<totfact> 0.17051078E+01</totfact>
</mgrwt>
<rwgt>
<wgt id='morphing_basis_vector_1'> +1.7864294e-04 </wgt>
<wgt id='morphing_basis_vector_2'> +1.1667067e-04 </wgt>
<wgt id='morphing_basis_vector_3'> +1.8297219e-04 </wgt>
<wgt id='morphing_basis_vector_4'> +1.2057833e-04 </wgt>
<wgt id='morphing_basis_vector_5'> +1.9267135e-04 </wgt>
</rwgt>
</event>
<event>
 4      1 +3.5234200e-07 1.30087700e+03 7.81860800e-03 8.44096900e-02
        2 -1    0    0  501    0 +0.0000000000e+00 +0.0000000000e+00 +1.0025469833e+03 1.0025469833e+03 0.0000000000e+00 0.0000e+00 1.0000e+00
       -2 -1    0    0    0  501 -0.0000000000e+00 -0.0000000000e+00 -4.2199571723e+02 4.2199571723e+02 0.0000000000e+00 0.0000e+00 -1.0000e+00
      -13  1    1    2    0    0 -2.5145884985e+02 +2.5511122275e+02 +8.8480228834e+02 9.5456187782e+02 0.0000000000e+00 0.0000e+00 1.0000e+00
       13  1    1    2    0    0 +2.5145884985e+02 -2.5511122275e+02 -3.0425102228e+02 4.6998082270e+02 0.0000000000e+00 0.0000e+00 -1.0000e+00
<mgrwt>
<rscale>  0 0.13008774E+04</rscale>
<asrwt>0</asrwt>
<pdfrwt beam="1">  1        2 0.15423800E+00 0.13008774E+04</pdfrwt>
<pdfrwt beam="2">  1       -2 0.64922418E-01 0.13008774E+04</pdfrwt>
<totfact> 0.68044777E+01</totfact>
</mgrwt>
<rwgt>
<wgt id='morphing_basis_vector_1'> +2.0045665e-04 </wgt>
<wgt id='morphing_basis_vector_2'> +2.4964500e-04 </wgt>
<wgt id='morphing_basis_vector_3'> +2.1332103e-04 </wgt>
<wgt id='morphing_basis_vector_4'> +8.8950296e-06 </wgt>
<wgt id='morphing_basis_vector_5'> +1.5223430e-04 </wgt>
</rwgt>
</event>
<event>
 4      1 +3.5234200e-07 1.31108600e+03 7.81860800e-03 8.43395100e-02
        2 -1    0    0  501    0 +0.0000000000e+00 +0.0000000000e+00 +2.1339192843e+03 2.1339192843e+03 0.0000000000e+00 0.0000e+00 -1.0000e+00
       -2 -1    0    0    0  501 -0.0000000000e+00 -0.0000000000e+00 -2.0138375685e+02 2.0138375685e+02 0.0000000000e+00 0.0000e+00 1.0000e+00
      -13  1    1    2    0    0 +4.9197501851e+02 -1.2987641069e+01 +1.9492790525e+02 5.2934392025e+02 0.0000000000e+00 0.0000e+00 1.0000e+00
       13  1    1    2    0    0 -4.9197501851e+02 +1.2987641069e+01 +1.7376076222e+03 1.8059591209e+03 0.0000000000e+00 0.0000e+00 -1.0000e+00
<mgrwt>
<rscale>  0 0.13110861E+04</rscale>
<asrwt>0</asrwt>
<pdfrwt beam="1">  1        2 0.32829526E+00 0.13110861E+04</pdfrwt>
<pdfrwt beam="2">  1       -2 0.30982118E-01 0.13110861E+04</pdfrwt>
<totfact> 0.64115097E+01</totfact>
</mgrwt>
<rwgt>
<wgt id='morphing_basis_vector_1'> +1.5405054e-04 </wgt>
<wgt id='morphing_basis_vector_2'> +1.0012943e-04 </wgt>
<wgt id='morphing_basis_vector_3'> +1.5681570e-04 </wgt>
<wgt id='morphing_basis_vector_4'> +1.0269323e-04 </wgt>
<wgt id='morphing_basis_vector_5'> +1.6390007e-04 </wgt>
</rwgt>
</event>
<event>
 4      1 +3.5234200e-07 1.34757800e+03 7.81860800e-03 8.40940000e-02
        2 -1    0    0  501    0 +0.0000000000e+00 +0.0000000000e+00 +9.0223415504e+02 9.0223415504e+02 0.0000000000e+00 0.0000e+00 1.0000e+00
       -2 -1    0    0    0  501 -0.0000000000e+00 -0.0000000000e+00 -5.0318578488e+02 5.0318578488e+02 0.0000000000e+00 0.0000e+00 -1.0000e+00
      -13  1    1    2    0    0 -1.4170998720e+02 +3.6371396788e+02 -3.7325033124e+02 5.4007905039e+02 0.0000000000e+00 0.0000e+00 -1.0000e+00
       13  1    1    2    0    0 +1.4170998720e+02 -3.6371396788e+02 +7.7229870140e+02 8.6534088953e+02 0.0000000000e+00 0.0000e+00 1.0000e+00
<mgrwt>
<rscale>  0 0.13475777E+04</rscale>
<asrwt>0</asrwt>
<pdfrwt beam="1">  1        2 0.13880525E+00 0.13475777E+04</pdfrwt>
<pdfrwt beam="2">  1       -2 0.77413198E-01 0.13475777E+04</pdfrwt>
<totfact> 0.53740689E+01</totfact>
</mgrwt>
<rwgt>
<wgt id='morphing_basis_vector_1'> +1.7087669e-04 </wgt>
<wgt id='morphing_basis_vector_2'> +1.1085509e-04 </wgt>
<wgt id='morphing_basis_vector_3'> +1.7466011e-04 </wgt>
<wgt id='morphing_basis_vector_4'> +1.1555922e-04 </wgt>
<wgt id='morphing_basis_vector_5'> +1.8389409e-04 </wgt>
</rwgt>
</event>
<event>
 4      1 +3.5234200e-07 1.36714400e+03 7.81860800e-03 8.39656900e-02
        2 -1    0    0  501    0 +0.0000000000e+00 +0.0000000000e+00 +4.9463672903e+02 4.9463672903e+02 0.0000000000e+00 0.0000e+00 -1.0000e+00
       -2 -1    0    0    0  501 -0.0000000000e+00 -0.0000000000e+00 -9.4467406831e+02 9.4467406831e+02 0.0000000000e+00 0.0000e+00 1.0000e+00
      -13  1    1    2    0    0 -2.6729053043e+02 -6.5979974434e+01 -8.8372413230e+02 9.2561651168e+02 0.0000000000e+00 0.0000e+00 1.0000e+00
       13  1    1    2    0    0 +2.6729053043e+02 +6.5979974434e+01 +4.3368679302e+02 5.1369428566e+02 0.0000000000e+00 0.0000e+00 -1.0000e+00
<mgrwt>
<rscale>  0 0.13671437E+04</rscale>
<asrwt>0</asrwt>
<pdfrwt beam="1">  1        2 0.76097959E-01 0.13671437E+04</pdfrwt>
<pdfrwt beam="2">  1       -2 0.14533447E+00 0.13671437E+04</pdfrwt>
<totfact> 0.23305827E+01</totfact>
</mgrwt>
<rwgt>
<wgt id='morphing_basis_vector_1'> +1.8051134e-04 </wgt>
<wgt id='morphing_basis_vector_2'> +1.1711883e-04 </wgt>
<wgt id='morphing_basis_vector_3'> +1.8490061e-04 </wgt>
<wgt id='morphing_basis_vector_4'> +1.2283010e-04 </wgt>
<wgt id='morphing_basis_vector_5'> +1.9532125e-04 </wgt>
</rwgt>
</event>
<event>
 4      1 +3.5234200e-07 1.29542400e+03 7.81860800e-03 8.44474500e-02
        2 -1    0    0  501    0 +0.0000000000e+00 +0.0000000000e+00 +1.0781110932e+03 1.0781110932e+03 0.0000000000e+00 0.0000e+00 -1.0000e+00
       -2 -1    0    0    0  501 -0.0000000000e+00 -0.0000000000e+00 -3.8913531847e+02 3.8913531847e+02 0.0000000000e+00 0.0000e+00 1.0000e+00
      -13  1    1    2    0    0 -5.8983453647e+02 +1.5637500666e+02 +5.9048984165e+02 8.4913849060e+02 0.0000000000e+00 0.0000e+00 1.0000e+00
       13  1    1    2    0    0 +5.8983453647e+02 -1.5637500666e+02 +9.8485933130e+01 6.1810792112e+02 0.0000000000e+00 0.0000e+00 -1.0000e+00
<mgrwt>
<rscale>  0 0.12954244E+04</rscale>
<asrwt>0</asrwt>
<pdfrwt beam="1">  1        2 0.16586324E+00 0.12954244E+04</pdfrwt>
<pdfrwt beam="2">  1       -2 0.59866973E-01 0.12954244E+04</pdfrwt>
<totfact> 0.72358631E+01</totfact>
</mgrwt>
<rwgt>
<wgt id='morphing_basis_vector_1'> +1.6342824e-04 </wgt>
<wgt id='morphing_basis_vector_2'> +1.4429389e-04 </wgt>
<wgt id='morphing_basis_vector_3'> +1.6903243e-04 </wgt>
<wgt id='morphing_basis_vector_4'> +6.8778480e-05 </wgt>
<wgt id='morphing_basis_vector_5'> +1.5380978e-04 </wgt>
</rwgt>
</event>
<event>
 4      1 +3.5234200e-07 1.30699700e+03 7.81860800e-03 8.43675400e-02
        2 -1    0    0  501    0 +0.0000000000e+00 +0.0000000000e+00 +1.1618638351e+03 1.1618638351e+03 0.0000000000e+00 0.0000e+00 -1.0000e+00
       -2 -1    0    0    0  501 -0.0000000000e+00 -0.0000000000e+00 -3.6756471171e+02 3.6756471171e+02 0.0000000000e+00 0.0000e+00 1.0000e+00
      -13  1    1    2    0    0 +7.0096566895e+01 -4.4647897402e+02 -1.5520167491e+02 4.7785412296e+02 0.0000000000e+00 0.0000e+00 1.0000e+00
       13  1    1    2    0    0 -7.0096566895e+01 +4.4647897402e+02 +9.4950079827e+02 1.0515744238e+03 0.0000000000e+00 0.0000e+00 -1.0000e+00
<mgrwt>
<rscale>  0 0.13069968E+04</rscale>
<asrwt>0</asrwt>
<pdfrwt beam="1">  1        2 0.17874828E+00 0.13069968E+04</pdfrwt>
<pdfrwt beam="2">  1       -2 0.56548418E-01 0.13069968E+04</pdfrwt>
<totfact> 0.72367457E+01</totfact>
</mgrwt>
<rwgt>
<wgt id='morphing_basis_vector_1'> +1.5212933e-04 </wgt>
<wgt id='morphing_basis_vector_2'> +9.8626598e-05 </wgt>
<wgt id='morphing_basis_vector_3'> +1.5476278e-04 </wgt>
<wgt id='morphing_basis_vector_4'> +1.0152997e-04 </wgt>
<wgt id='morphing_basis_vector_5'> +1.6177905e-04 </wgt>
</rwgt>
</event>
<event>
 4      1 +3.5234200e-07 1.54051700e+03 7.81860800e-03 8.29180900e-02
        2 -1    0    0  501    0 +0.0000000000e+00 +0.0000000000e+00 +1.1313773488e+03 1.1313773488e+03 0.0000000000e+00 0.0000e+00 -1.0000e+00
       -2 -1    0    0    0  501 -0.0000000000e+00 -0.0000000000e+00 -5.2440374716e+02 5.2440374716e+02 0.0000000000e+00 0.0000e+00 1.0000e+00
      -13  1    1    2    0    0 -9.8803772400e+01 -1.5701558542e+02 -5.0003289050e+02 5.3333757705e+02 0.0000000000e+00 0.0000e+00 1.0000e+00
       13  1    1    2    0    0 +9.8803772400e+01 +1.5701558542e+02 +1.1070064922e+03 1.1224435189e+03 0.0000000000e+00 0.0000e+00 -1.0000e+00
<mgrwt>
<rscale>  0 0.15405175E+04</rscale>
<asrwt>0</asrwt>
<pdfrwt beam="1">  1        2 0.17405805E+00 0.15405175E+04</pdfrwt>
<pdfrwt beam="2">  1       -2 0.80677500E-01 0.15405175E+04</pdfrwt>
<totfact> 0.34739414E+01</totfact>
</mgrwt>
<rwgt>
<wgt id='morphing_basis_vector_1'> +2.8579306e-04 </wgt>
<wgt id='morphing_basis_vector_2'> +1.8722505e-04 </wgt>
<wgt id='morphing_basis_vector_3'> +2.9749556e-04 </wgt>
<wgt id='morphing_basis_vector_4'> +2.0162313e-04 </wgt>
<wgt id='morphing_basis_vector_5'> +3.2082854e-04 </wgt>
</rwgt>
</event>
<event>
 4      1 +3.5234200e-07 1.50043400e+03 7.81860800e-03 8.31471300e-02
        2 -1    0    0  501    0 +0.0000000000e+00 +0.0000000000e+00 +6.1993303828e+02 6.1993303828e+02 0.0000000000e+00 0.0000e+00 -1.0000e+00
       -2 -1    0    0    0  501 -0.0000000000e+00 -0.0000000000e+00 -9.0788139422e+02 9.0788139422e+02 0.0000000000e+00 0.0000e+00 1.0000e+00
      -13  1    1    2    0    0 +7.1459527914e+02 -8.5548561137e+01 -3.5964266695e+02 8.0455442151e+02 0.0000000000e+00 0.0000e+00 1.0000e+00
       13  1    1    2    0    0 -7.1459527914e+02 +8.5548561137e+01 +7.1694311014e+01 7.2326001100e+02 0.0000000000e+00 0.0000e+00 -1.0000e+00
<mgrwt>
<rscale>  0 0.15004342E+04</rscale>
<asrwt>0</asrwt>
<pdfrwt beam="1">  1        2 0.95374314E-01 0.15004342E+04</pdfrwt>
<pdfrwt beam="2">  1       -2 0.13967406E+00 0.15004342E+04</pdfrwt>
<totfact> 0.19813093E+01</totfact>
</mgrwt>
<rwgt>
<wgt id='morphing_basis_vector_1'> +2.6127538e-04 </wgt>
<wgt id='morphing_basis_vector_2'> +1.7814878e-04 </wgt>
<wgt id='morphing_basis_vector_3'> +2.7194433e-04 </wgt>
<wgt id='morphing_basis_vector_4'> +1.7491795e-04 </wgt>
<wgt id='morphing_basis_vector_5'> +2.8720596e-04 </wgt>
</rwgt>
</event>
<event>
 4      1 +3.5234200e-07 1.38025600e+03 7.81860800e-03 8.38809400e-02
        2 -1    0    0  501    0 +0.0000000000e+00 +0.0000000000e+00 +1.6217042013e+03 1.6217042013e+03 0.0000000000e+00 0.0000e+00 1.0000e+00
       -2 -1    0    0    0  501 -0.0000000000e+00 -0.0000000000e+00 -2.9368903377e+02 2.9368903377e+02 0.0000000000e+00 0.0000e+00 -1.0000e+00
      -13  1    1    2    0    0 +1.3197684715e+02 +2.4188433704e+02 -2.1404116467e+02 3.4891193855e+02 0.0000000000e+00 0.0000e+00 -1.0000e+00
       13  1    1    2    0    0 -1.3197684715e+02 -2.4188433704e+02 +1.5420563322e+03 1.5664812965e+03 0.0000000000e+00 0.0000e+00 1.0000e+00
<mgrwt>
<rscale>  0 0.13802561E+04</rscale>
<asrwt>0</asrwt>
<pdfrwt beam="1">  1        2 0.24949295E+00 0.13802561E+04</pdfrwt>
<pdfrwt beam="2">  1       -2 0.45182929E-01 0.13802561E+04</pdfrwt>
<totfact> 0.61363201E+01</totfact>
</mgrwt>
<rwgt>
<wgt id='morphing_basis_vector_1'> +1.8723665e-04 </wgt>
<wgt id='morphing_basis_vector_2'> +1.2158635e-04 </wgt>
<wgt id='morphing_basis_vector_3'> +1.9206226e-04 </wgt>
<wgt id='morphing_basis_vector_4'> +1.2781464e-04 </wgt>
<wgt id='morphing_basis_vector_5'> +2.0326225e-04 </wgt>
</rwgt>
</event>
<event>
 4      1 +3.5234200e-07 1.42858400e+03 7.81860800e-03 8.35768500e-02
        2 -1    0    0  501    0 +0.0000000000e+00 +0.0000000000e+00 +1.2340113397e+03 1.2340113397e+03 0.0000000000e+00 0.0000e+00 1.0000e+00
       -2 -1    0    0    0  501 -0.0000000000e+00 -0.0000000000e+00 -4.1345916825e+02 4.1345916825e+02 0.0000000000e+00 0.0000e+00 -1.0000e+00
      -13  1    1    2    0    0 -1.6974771012e+02 +1.9713202154e+02 -3.5688584007e+02 4.4163652685e+02 0.0000000000e+00 0.0000e+00 -1.0000e+00
       13  1    1    2    0    0 +1.6974771012e+02 -1.9713202154e+02 +1.1774380115e+03 1.2058339811e+03 0.0000000000e+00 0.0000e+00 1.0000e+00
<mgrwt>
<rscale>  0 0.14285843E+04</rscale>
<asrwt>0</asrwt>
<pdfrwt beam="1">  1        2 0.18984790E+00 0.14285843E+04</pdfrwt>
<pdfrwt beam="2">  1       -2 0.63609103E-01 0.14285843E+04</pdfrwt>
<totfact> 0.51091667E+01</totfact>
</mgrwt>
<rwgt>
<wgt id='morphing_basis_vector_1'> +2.1368019e-04 </wgt>
<wgt id='morphing_basis_vector_2'> +1.3916420e-04 </wgt>
<wgt id='morphing_basis_vector_3'> +2.2026877e-04 </wgt>
<wgt id='morphing_basis_vector_4'> +1.4749430e-04 </wgt>
<wgt id='morphing_basis_vector_5'> +2.3460663e-04 </wgt>
</rwgt>
</event>
<event>
 4      1 +3.5234200e-07 1.44913900e+03 7.81860800e-03 8.34512900e-02
        2 -1    0    0  501    0 +0.0000000000e+00 +0.0000000000e+00 +2.1077147131e+03 2.1077147131e+03 0.0000000000e+00 0.0000e+00 1.0000e+00
       -2 -1    0    0    0  501 -0.0000000000e+00 -0.0000000000e+00 -2.4908537033e+02 2.4908537033e+02 0.0000000000e+00 0.0000e+00 -1.0000e+00
      -13  1    1    2    0    0 +8.1688180408e+01 +3.2210087570e+02 +1.9764826605e+03 2.0042219539e+03 0.0000000000e+00 0.0000e+00 1.0000e+00
       13  1    1    2    0    0 -8.1688180408e+01 -3.2210087570e+02 -1.1785331776e+02 3.5257812957e+02 0.0000000000e+00 0.0000e+00 -1.0000e+00
<mgrwt>
<rscale>  0 0.14491389E+04</rscale>
<asrwt>0</asrwt>
<pdfrwt beam="1">  1        2 0.32426379E+00 0.14491389E+04</pdfrwt>
<pdfrwt beam="2">  1       -2 0.38320828E-01 0.14491389E+04</pdfrwt>
<totfact> 0.44573132E+01</totfact>
</mgrwt>
<rwgt>
<wgt id='morphing_basis_vector_1'> +3.0645246e-04 </wgt>
<wgt id='morphing_basis_vector_2'> +3.8801563e-04 </wgt>
<wgt id='morphing_basis_vector_3'> +3.3695092e-04 </wgt>
<wgt id='morphing_basis_vector_4'> +7.5076269e-06 </wgt>
<wgt id='morphing_basis_vector_5'> +2.3803236e-04 </wgt>
</rwgt>
</event>
<event>
 4      1 +3.5234200e-07 1.53066600e+03 7.81860800e-03 8.29737100e-02
        2 -1    0    0  501    0 +0.0000000000e+00 +0.0000000000e+00 +1.1070718008e+03 1.1070718008e+03 0.0000000000e+00 0.0000e+00 1.0000e+00
       -2 -1    0    0    0  501 -0.0000000000e+00 -0.0000000000e+00 -5.2908444508e+02 5.2908444508e+02 0.0000000000e+00 0.0000e+00 -1.0000e+00
      -13  1    1    2    0    0 +5.0707902521e+02 +2.8909163473e+02 -2.4012759407e+02 6.3116113039e+02 0.0000000000e+00 0.0000e+00 -1.0000e+00
       13  1    1    2    0    0 -5.0707902521e+02 -2.8909163473e+02 +8.1811494980e+02 1.0049951155e+03 0.0000000000e+00 0.0000e+00 1.0000e+00
<mgrwt>
<rscale>  0 0.15306658E+04</rscale>
<asrwt>0</asrwt>
<pdfrwt beam="1">  1        2 0.17031874E+00 0.15306658E+04</pdfrwt>
<pdfrwt beam="2">  1       -2 0.81397607E-01 0.15306658E+04</pdfrwt>
<totfact> 0.35230073E+01</totfact>
</mgrwt>
<rwgt>
<wgt id='morphing_basis_vector_1'> +2.7930629e-04 </wgt>
<wgt id='morphing_basis_vector_2'> +1.8407822e-04 </wgt>
<wgt id='morphing_basis_vector_3'> +2.9066116e-04 </wgt>
<wgt id='morphing_basis_vector_4'> +1.9538574e-04 </wgt>
<wgt id='morphing_basis_vector_5'> +3.1235013e-04 </wgt>
</rwgt>
</event>
<event>
 4      1 +3.5234200e-07 1.36667500e+03 7.81860800e-03 8.39687400e-02
        2 -1    0    0  501    0 +0.0000000000e+00 +0.0000000000e+00 +1.7021205606e+03 1.7021205606e+03 0.0000000000e+00 0.0000e+00 1.0000e+00
       -2 -1    0    0    0  501 -0.0000000000e+00 -0.0000000000e+00 -2.7433417106e+02 2.7433417106e+02 0.0000000000e+00 0.0000e+00 -1.0000e+00
      -13  1    1    2    0    0 +4.0672495887e+02 +2.8468241867e+02 +3.4835121453e+01 4.9767736271e+02 0.0000000000e+00 0.0000e+00 -1.0000e+00
       13  1    1    2    0    0 -4.0672495887e+02 -2.8468241867e+02 +1.3929512681e+03 1.4787773689e+03 0.0000000000e+00 0.0000e+00 1.0000e+00
<mgrwt>
<rscale>  0 0.13666746E+04</rscale>
<asrwt>0</asrwt>
<pdfrwt beam="1">  1        2 0.26186470E+00 0.13666746E+04</pdfrwt>
<pdfrwt beam="2">  1       -2 0.42205258E-01 0.13666746E+04</pdfrwt>
<totfact> 0.63111316E+01</totfact>
</mgrwt>
<rwgt>
<wgt id='morphing_basis_vector_1'> +1.8050824e-04 </wgt>
<wgt id='morphing_basis_vector_2'> +1.1766111e-04 </wgt>
<wgt id='morphing_basis_vector_3'> +1.8493915e-04 </wgt>
<wgt id='morphing_basis_vector_4'> +1.2223076e-04 </wgt>
<wgt id='morphing_basis_vector_5'> +1.9501097e-04 </wgt>
</rwgt>
</event>
<event>
 4      1 +3.5234200e-07 1.30667100e+03 7.81860800e-03 8.43697800e-02
        2 -1    0    0  501    0 +0.0000000000e+00 +0.0000000000e+00 +1.8590561469e+03 1.8590561469e+03 0.0000000000e+00 0.0000e+00 -1.0000e+00
       -2 -1    0    0    0  501 -0.0000000000e+00 -0.0000000000e+00 -2.2960415423e+02 2.2960415423e+02 0.0000000000e+00 0.0000e+00 1.0000e+00
      -13  1    1    2    0    0 -2.6909718323e+02 +5.9533396846e+02 +8.2007217964e+02 1.0485009336e+03 0.0000000000e+00 0.0000e+00 1.0000e+00
       13  1    1    2    0    0 +2.6909718323e+02 -5.9533396846e+02 +8.0937981300e+02 1.0401593675e+03 0.0000000000e+00 0.0000e+00 -1.0000e+00
<mgrwt>
<rscale>  0 0.13066706E+04</rscale>
<asrwt>0</asrwt>
<pdfrwt beam="1">  1        2 0.28600863E+00 0.13066706E+04</pdfrwt>
<pdfrwt beam="2">  1       -2 0.35323717E-01 0.13066706E+04</pdfrwt>
<totfact> 0.72197843E+01</totfact>
</mgrwt>
<rwgt>
<wgt id='morphing_basis_vector_1'> +1.5742422e-04 </wgt>
<wgt id='morphing_basis_vector_2'> +1.1481837e-04 </wgt>
<wgt id='morphing_basis_vector_3'> +1.6117709e-04 </wgt>
<wgt id='morphing_basis_vector_4'> +9.1742141e-05 </wgt>
<wgt id='morphing_basis_vector_5'> +1.6092599e-04 </wgt>
</rwgt>
</event>
<event>
 4      1 +3.5234200e-07 1.37124400e+03 7.81860800e-03 8.39390800e-02
        2 -1    0    0  501    0 +0.0000000000e+00 +0.0000000000e+00 +1.5242030224e+03 1.5242030224e+03 0.0000000000e+00 0.0000e+00 -1.0000e+00
       -2 -1    0    0    0  501 -0.0000000000e+00 -0.0000000000e+00 -3.0840880933e+02 3.0840880933e+02 0.0000000000e+00 0.0000e+00 1.0000e+00
      -13  1    1    2    0    0 -1.9430039530e+02 -4.8497682688e+02 +1.4529595484e+01 5.2265311189e+02 0.0000000000e+00 0.0000e+00 1.0000e+00
       13  1    1    2    0    0 +1.9430039530e+02 +4.8497682688e+02 +1.2012646176e+03 1.3099587199e+03 0.0000000000e+00 0.0000e+00 -1.0000e+00
<mgrwt>
<rscale>  0 0.13712442E+04</rscale>
<asrwt>0</asrwt>
<pdfrwt beam="1">  1        2 0.23449277E+00 0.13712442E+04</pdfrwt>
<pdfrwt beam="2">  1       -2 0.47447510E-01 0.13712442E+04</pdfrwt>
<totfact> 0.63322172E+01</totfact>
</mgrwt>
<rwgt>
<wgt id='morphing_basis_vector_1'> +1.8291442e-04 </wgt>
<wgt id='morphing_basis_vector_2'> +1.1945910e-04 </wgt>
<wgt id='morphing_basis_vector_3'> +1.8751693e-04 </wgt>
<wgt id='morphing_basis_vector_4'> +1.2379302e-04 </wgt>
<wgt id='morphing_basis_vector_5'> +1.9773764e-04 </wgt>
</rwgt>
</event>
<event>
 4      1 +3.5234200e-07 1.35854300e+03 7.81860800e-03 8.40218100e-02
        2 -1    0    0  501    0 +0.0000000000e+00 +0.0000000000e+00 +2.5770081041e+03 2.5770081041e+03 0.0000000000e+00 0.0000e+00 1.0000e+00
       -2 -1    0    0    0  501 -0.0000000000e+00 -0.0000000000e+00 -1.7904867130e+02 1.7904867130e+02 0.0000000000e+00 0.0000e+00 -1.0000e+00
      -13  1    1    2    0    0 +5.3355773492e+02 +3.4107362375e+02 +7.0042307309e+02 9.4424973107e+02 0.0000000000e+00 0.0000e+00 -1.0000e+00
       13  1    1    2    0    0 -5.3355773492e+02 -3.4107362375e+02 +1.6975363597e+03 1.8118070443e+03 0.0000000000e+00 0.0000e+00 1.0000e+00
<mgrwt>
<rscale>  0 0.13585432E+04</rscale>
<asrwt>0</asrwt>
<pdfrwt beam="1">  1        2 0.39646276E+00 0.13585432E+04</pdfrwt>
<pdfrwt beam="2">  1       -2 0.27545951E-01 0.13585432E+04</pdfrwt>
<totfact> 0.43428205E+01</totfact>
</mgrwt>
<rwgt>
<wgt id='morphing_basis_vector_1'> +1.7770593e-04 </wgt>
<wgt id='morphing_basis_vector_2'> +1.1875663e-04 </wgt>
<wgt id='morphing_basis_vector_3'> +1.8217751e-04 </wgt>
<wgt id='morphing_basis_vector_4'> +1.1692168e-04 </wgt>
<wgt id='morphing_basis_vector_5'> +1.9004380e-04 </wgt>
</rwgt>
</event>
<event>
 4      1 +3.5234200e-07 1.51180700e+03 7.81860800e-03 8.30814000e-02
        2 -1    0    0  501    0 +0.0000000000e+00 +0.0000000000e+00 +5.7887747428e+02 5.7887747428e+02 0.0000000000e+00 0.0000e+00 1.0000e+00
       -2 -1    0    0    0  501 -0.0000000000e+00 -0.0000000000e+00 -9.8706538941e+02 9.8706538941e+02 0.0000000000e+00 0.0000e+00 -1.0000e+00
      -13  1    1    2    0    0 -3.2329181677e+02 +2.2388154096e+02 -8.7277207097e+02 9.5727301802e+02 0.0000000000e+00 0.0000e+00 -1.0000e+00
       13  1    1    2    0    0 +3.2329181677e+02 -2.2388154096e+02 +4.6458415583e+02 6.0866984567e+02 0.0000000000e+00 0.0000e+00 1.0000e+00
<mgrwt>
<rscale>  0 0.15118068E+04</rscale>
<asrwt>0</asrwt>
<pdfrwt beam="1">  1        2 0.89058074E-01 0.15118068E+04</pdfrwt>
<pdfrwt beam="2">  1       -2 0.15185621E+00 0.15118068E+04</pdfrwt>
<totfact> 0.16954615E+01</totfact>
</mgrwt>
<rwgt>
<wgt id='morphing_basis_vector_1'> +2.6582304e-04 </wgt>
<wgt id='morphing_basis_vector_2'> +1.7404273e-04 </wgt>
<wgt id='morphing_basis_vector_3'> +2.7608644e-04 </wgt>
<wgt id='morphing_basis_vector_4'> +1.8641485e-04 </wgt>
<wgt id='morphing_basis_vector_5'> +2.9677703e-04 </wgt>
</rwgt>
</event>
<event>
 4      1 +3.5234200e-07 1.35066800e+03 7.81860800e-03 8.40735800e-02
        2 -1    0    0  501    0 +0.0000000000e+00 +0.0000000000e+00 +1.6964395323e+03 1.6964395323e+03 0.0000000000e+00 0.0000e+00 -1.0000e+00
       -2 -1    0    0    0  501 -0.0000000000e+00 -0.0000000000e+00 -2.6884315411e+02 2.6884315411e+02 0.0000000000e+00 0.0000e+00 1.0000e+00
      -13  1    1    2    0    0 -2.1529771783e+02 -6.3745037413e+02 +6.2920428701e+02 9.2119168558e+02 0.0000000000e+00 0.0000e+00 1.0000e+00
       13  1    1    2    0    0 +2.1529771783e+02 +6.3745037413e+02 +7.9839209117e+02 1.0440910008e+03 0.0000000000e+00 0.0000e+00 -1.0000e+00
<mgrwt>
<rscale>  0 0.13506682E+04</rscale>
<asrwt>0</asrwt>
<pdfrwt beam="1">  1        2 0.26099069E+00 0.13506682E+04</pdfrwt>
<pdfrwt beam="2">  1       -2 0.41360486E-01 0.13506682E+04</pdfrwt>
<totfact> 0.66126635E+01</totfact>
</mgrwt>
<rwgt>
<wgt id='morphing_basis_vector_1'> +1.7686109e-04 </wgt>
<wgt id='morphing_basis_vector_2'> +1.2525375e-04 </wgt>
<wgt id='morphing_basis_vector_3'> +1.8178879e-04 </wgt>
<wgt id='morphing_basis_vector_4'> +1.0859441e-04 </wgt>
<wgt id='morphing_basis_vector_5'> +1.8508610e-04 </wgt>
</rwgt>
</event>
<event>
 4      1 +3.5234200e-07 1.36867800e+03 7.81860800e-03 8.39557200e-02
        2 -1    0    0  501    0 +0.0000000000e+00 +0.0000000000e+00 +8.9207343910e+02 8.9207343910e+02 0.0000000000e+00 0.0000e+00 1.0000e+00
       -2 -1    0    0    0  501 -0.0000000000e+00 -0.0000000000e+00 -5.2497921872e+02 5.2497921872e+02 0.0000000000e+00 0.0000e+00 -1.0000e+00
      -13  1    1    2    0    0 +5.1433302239e+02 -1.4723612471e+01 -2.8358094032e+02 5.8751458910e+02 0.0000000000e+00 0.0000e+00 -1.0000e+00
       13  1    1    2    0    0 -5.1433302239e+02 +1.4723612471e+01 +6.5067516071e+02 8.2953806872e+02 0.0000000000e+00 0.0000e+00 1.0000e+00
<mgrwt>
<rscale>  0 0.13686782E+04</rscale>
<asrwt>0</asrwt>
<pdfrwt beam="1">  1        2 0.13724207E+00 0.13686782E+04</pdfrwt>
<pdfrwt beam="2">  1       -2 0.80766034E-01 0.13686782E+04</pdfrwt>
<totfact> 0.49514016E+01</totfact>
</mgrwt>
<rwgt>
<wgt id='morphing_basis_vector_1'> +1.8158042e-04 </wgt>
<wgt id='morphing_basis_vector_2'> +1.1850712e-04 </wgt>
<wgt id='morphing_basis_vector_3'> +1.8609112e-04 </wgt>
<wgt id='morphing_basis_vector_4'> +1.2287759e-04 </wgt>
<wgt id='morphing_basis_vector_5'> +1.9620049e-04 </wgt>
</rwgt>
</event>
<event>
 4      1 +3.5234200e-07 1.39468400e+03 7.81860800e-03 8.37888200e-02
        2 -1    0    0  501    0 +0.0000000000e+00 +0.0000000000e+00 +1.0864216967e+03 1.0864216967e+03 0.0000000000e+00 0.0000e+00 -1.0000e+00
       -2 -1    0    0    0  501 -0.0000000000e+00 -0.0000000000e+00 -4.4760323184e+02 4.4760323184e+02 0.0000000000e+00 0.0000e+00 1.0000e+00
      -13  1    1    2    0    0 -2.2897981165e+01 -6.9692101232e+02 +3.1070342692e+02 7.6338708036e+02 0.0000000000e+00 0.0000e+00 -1.0000e+00
       13  1    1    2    0    0 +2.2897981165e+01 +6.9692101232e+02 +3.2811503796e+02 7.7063784821e+02 0.0000000000e+00 0.0000e+00 1.0000e+00
<mgrwt>
<rscale>  0 0.13946840E+04</rscale>
<asrwt>0</asrwt>
<pdfrwt beam="1">  1        2 0.16714180E+00 0.13946840E+04</pdfrwt>
<pdfrwt beam="2">  1       -2 0.68862036E-01 0.13946840E+04</pdfrwt>
<totfact> 0.52983503E+01</totfact>
</mgrwt>
<rwgt>
<wgt id='morphing_basis_vector_1'> +2.0162446e-04 </wgt>
<wgt id='morphing_basis_vector_2'> +1.4687397e-04 </wgt>
<wgt id='morphing_basis_vector_3'> +2.0870081e-04 </wgt>
<wgt id='morphing_basis_vector_4'> +1.2112965e-04 </wgt>
<wgt id='morphing_basis_vector_5'> +2.1137916e-04 </wgt>
</rwgt>
</event>
<event>
 4      1 +3.5234200e-07 1.43758600e+03 7.81860800e-03 8.35216000e-02
        2 -1    0    0  501    0 +0.0000000000e+00 +0.0000000000e+00 +1.3946051136e+03 1.3946051136e+03 0.0000000000e+00 0.0000e+00 -1.0000e+00
       -2 -1    0    0    0  501 -0.0000000000e+00 -0.0000000000e+00 -3.7047264831e+02 3.7047264831e+02 0.0000000000e+00 0.0000e+00 1.0000e+00
      -13  1    1    2    0    0 +2.6143159737e+02 +2.6950678580e+01 -3.0936355076e+02 4.0592933587e+02 0.0000000000e+00 0.0000e+00 1.0000e+00
       13  1    1    2    0    0 -2.6143159737e+02 -2.6950678580e+01 +1.3334960161e+03 1.3591484261e+03 0.0000000000e+00 0.0000e+00 -1.0000e+00
<mgrwt>
<rscale>  0 0.14375855E+04</rscale>
<asrwt>0</asrwt>
<pdfrwt beam="1">  1        2 0.21455463E+00 0.14375855E+04</pdfrwt>
<pdfrwt beam="2">  1       -2 0.56995793E-01 0.14375855E+04</pdfrwt>
<totfact> 0.51777616E+01</totfact>
</mgrwt>
<rwgt>
<wgt id='morphing_basis_vector_1'> +2.1890447e-04 </wgt>
<wgt id='morphing_basis_vector_2'> +1.4264283e-04 </wgt>
<wgt id='morphing_basis_vector_3'> +2.2584979e-04 </wgt>
<wgt id='morphing_basis_vector_4'> +1.5139183e-04 </wgt>
<wgt id='morphing_basis_vector_5'> +2.4081764e-04 </wgt>
</rwgt>
</event>
<event>
 4      1 +3.5234200e-07 1.49230600e+03 7.81860800e-03 8.31944800e-02
        2 -1    0    0  501    0 +0.0000000000e+00 +0.0000000000e+00 +5.5326826870e+02 5.5326826870e+02 0.0000000000e+00 0.0000e+00 -1.0000e+00
       -2 -1    0    0    0  501 -0.0000000000e+00 -0.0000000000e+00 -1.0062824693e+03 1.0062824693e+03 0.0000000000e+00 0.0000e+00 1.0000e+00
      -13  1    1    2    0    0 -2.5302530246e+02 +1.6376590397e+02 -9.3983542764e+02 9.8698110723e+02 0.0000000000e+00 0.0000e+00 1.0000e+00
       13  1    1    2    0    0 +2.5302530246e+02 -1.6376590397e+02 +4.8682122704e+02 5.7256963077e+02 0.0000000000e+00 0.0000e+00 -1.0000e+00
<mgrwt>
<rscale>  0 0.14923058E+04</rscale>
<asrwt>0</asrwt>
<pdfrwt beam="1">  1        2 0.85118195E-01 0.14923058E+04</pdfrwt>
<pdfrwt beam="2">  1       -2 0.15481269E+00 0.14923058E+04</pdfrwt>
<totfact> 0.16929240E+01</totfact>
</mgrwt>
<rwgt>
<wgt id='morphing_basis_vector_1'> +2.5279029e-04 </wgt>
<wgt id='morphing_basis_vector_2'> +1.6524233e-04 </wgt>
<wgt id='morphing_basis_vector_3'> +2.6210755e-04 </wgt>
<wgt id='morphing_basis_vector_4'> +1.7674203e-04 </wgt>
<wgt id='morphing_basis_vector_5'> +2.8123328e-04 </wgt>
</rwgt>
</event>
<event>
 4      1 +3.5234200e-07 1.38581100e+03 7.81860800e-03 8.38453300e-02
        2 -1    0    0  501    0 +0.0000000000e+00 +0.0000000000e+00 +6.6205431085e+02 6.6205431085e+02 0.0000000000e+00 0.0000e+00 -1.0000e+00
       -2 -1    0    0    0  501 -0.0000000000e+00 -0.0000000000e+00 -7.2519414471e+02 7.2519414471e+02 0.0000000000e+00 0.0000e+00 1.0000e+00
      -13  1    1    2    0    0 +4.2964780217e+02 -5.0538332967e+02 -2.3204840809e+02 7.0274889364e+02 0.0000000000e+00 0.0000e+00 1.0000e+00
       13  1    1    2    0    0 -4.2964780217e+02 +5.0538332967e+02 +1.6890857423e+02 6.8449956192e+02 0.0000000000e+00 0.0000e+00 -1.0000e+00
<mgrwt>
<rscale>  0 0.13858108E+04</rscale>
<asrwt>0</asrwt>
<pdfrwt beam="1">  1        2 0.10185451E+00 0.13858108E+04</pdfrwt>
<pdfrwt beam="2">  1       -2 0.11156833E+00 0.13858108E+04</pdfrwt>
<totfact> 0.33458577E+01</totfact>
</mgrwt>
<rwgt>
<wgt id='morphing_basis_vector_1'> +1.9237995e-04 </wgt>
<wgt id='morphing_basis_vector_2'> +1.3020360e-04 </wgt>
<wgt id='morphing_basis_vector_3'> +1.9796357e-04 </wgt>
<wgt id='morphing_basis_vector_4'> +1.2590053e-04 </wgt>
<wgt id='morphing_basis_vector_5'> +2.0640305e-04 </wgt>
</rwgt>
</event>
<event>
 4      1 +3.5234200e-07 1.34419000e+03 7.81860800e-03 8.41164500e-02
        2 -1    0    0  501    0 +0.0000000000e+00 +0.0000000000e+00 +2.3418664206e+03 2.3418664206e+03 0.0000000000e+00 0.0000e+00 1.0000e+00
       -2 -1    0    0    0  501 -0.0000000000e+00 -0.0000000000e+00 -1.9288522351e+02 1.9288522351e+02 0.0000000000e+00 0.0000e+00 -1.0000e+00
      -13  1    1    2    0    0 +4.0845344053e+02 +4.9907708998e+02 +1.4312800314e+03 1.5698645429e+03 0.0000000000e+00 0.0000e+00 1.0000e+00
       13  1    1    2    0    0 -4.0845344053e+02 -4.9907708998e+02 +7.1770116568e+02 9.6488710119e+02 0.0000000000e+00 0.0000e+00 -1.0000e+00
<mgrwt>
<rscale>  0 0.13441896E+04</rscale>
<asrwt>0</asrwt>
<pdfrwt beam="1">  1        2 0.36028712E+00 0.13441896E+04</pdfrwt>
<pdfrwt beam="2">  1       -2 0.29674651E-01 0.13441896E+04</pdfrwt>
<totfact> 0.52479114E+01</totfact>
</mgrwt>
<rwgt>
<wgt id='morphing_basis_vector_1'> +1.8522457e-04 </wgt>
<wgt id='morphing_basis_vector_2'> +1.5758507e-04 </wgt>
<wgt id='morphing_basis_vector_3'> +1.9258613e-04 </wgt>
<wgt id='morphing_basis_vector_4'> +8.5589746e-05 </wgt>
<wgt id='morphing_basis_vector_5'> +1.7991313e-04 </wgt>
</rwgt>
</event>
<event>
 4      1 +3.5234200e-07 1.35719700e+03 7.81860800e-03 8.40306300e-02
        2 -1    0    0  501    0 +0.0000000000e+00 +0.0000000000e+00 +5.5797440761e+02 5.5797440761e+02 0.0000000000e+00 0.0000e+00 1.0000e+00
       -2 -1    0    0    0  501 -0.0000000000e+00 -0.0000000000e+00 -8.2529952757e+02 8.2529952757e+02 0.0000000000e+00 0.0000e+00 -1.0000e+00
      -13  1    1    2    0    0 +7.4533538581e+01 +4.0195199500e+02 -6.8571086131e+02 7.9832326784e+02 0.0000000000e+00 0.0000e+00 -1.0000e+00
       13  1    1    2    0    0 -7.4533538581e+01 -4.0195199500e+02 +4.1838574135e+02 5.8495066734e+02 0.0000000000e+00 0.0000e+00 1.0000e+00
<mgrwt>
<rscale>  0 0.13571971E+04</rscale>
<asrwt>0</asrwt>
<pdfrwt beam="1">  1        2 0.85842217E-01 0.13571971E+04</pdfrwt>
<pdfrwt beam="2">  1       -2 0.12696916E+00 0.13571971E+04</pdfrwt>
<totfact> 0.29376360E+01</totfact>
</mgrwt>
<rwgt>
<wgt id='morphing_basis_vector_1'> +1.7560821e-04 </wgt>
<wgt id='morphing_basis_vector_2'> +1.1403659e-04 </wgt>
<wgt id='morphing_basis_vector_3'> +1.7969576e-04 </wgt>
<wgt id='morphing_basis_vector_4'> +1.1901153e-04 </wgt>
<wgt id='morphing_basis_vector_5'> +1.8944267e-04 </wgt>
</rwgt>
</event>
<event>
 4      1 +3.5234200e-07 1.30808300e+03 7.81860800e-03 8.43600900e-02
        2 -1    0    0  501    0 +0.0000000000e+00 +0.0000000000e+00 +2.3674351397e+03 2.3674351397e+03 0.0000000000e+00 0.0000e+00 1.0000e+00
       -2 -1    0    0    0  501 -0.0000000000e+00 -0.0000000000e+00 -1.8068929293e+02 1.8068929293e+02 0.0000000000e+00 0.0000e+00 -1.0000e+00
      -13  1    1    2    0    0 +5.6912462067e+01 -6.0298295619e+02 +1.5742634873e+03 1.6867522050e+03 0.0000000000e+00 0.0000e+00 1.0000e+00
       13  1    1    2    0    0 -5.6912462067e+01 +6.0298295619e+02 +6.1248235948e+02 8.6137222759e+02 0.0000000000e+00 0.0000e+00 -1.0000e+00
<mgrwt>
<rscale>  0 0.13080828E+04</rscale>
<asrwt>0</asrwt>
<pdfrwt beam="1">  1        2 0.36422077E+00 0.13080828E+04</pdfrwt>
<pdfrwt beam="2">  1       -2 0.27798354E-01 0.13080828E+04</pdfrwt>
<totfact> 0.57078082E+01</totfact>
</mgrwt>
<rwgt>
<wgt id='morphing_basis_vector_1'> +1.7199148e-04 </wgt>
<wgt id='morphing_basis_vector_2'> +1.5697247e-04 </wgt>
<wgt id='morphing_basis_vector_3'> +1.7869112e-04 </wgt>
<wgt id='morphing_basis_vector_4'> +6.7376728e-05 </wgt>
<wgt id='morphing_basis_vector_5'> +1.5990538e-04 </wgt>
</rwgt>
</event>
<event>
 4      1 +3.5234200e-07 1.52478900e+03 7.81860800e-03 8.30070900e-02
        2 -1    0    0  501    0 +0.0000000000e+00 +0.0000000000e+00 +1.1917398001e+03 1.1917398001e+03 0.0000000000e+00 0.0000e+00 -1.0000e+00
       -2 -1    0    0    0  501 -0.0000000000e+00 -0.0000000000e+00 -4.8772848780e+02 4.8772848780e+02 0.0000000000e+00 0.0000e+00 1.0000e+00
      -13  1    1    2    0    0 -3.0426006359e+02 -6.9899590305e+02 +3.6160729496e+02 8.4375902635e+02 0.0000000000e+00 0.0000e+00 1.0000e+00
       13  1    1    2    0    0 +3.0426006359e+02 +6.9899590305e+02 +3.4240401737e+02 8.3570926158e+02 0.0000000000e+00 0.0000e+00 -1.0000e+00
<mgrwt>
<rscale>  0 0.15247891E+04</rscale>
<asrwt>0</asrwt>
<pdfrwt beam="1">  1        2 0.18334458E+00 0.15247891E+04</pdfrwt>
<pdfrwt beam="2">  1       -2 0.75035152E-01 0.15247891E+04</pdfrwt>
<totfact> 0.37695903E+01</totfact>
</mgrwt>
<rwgt>
<wgt id='morphing_basis_vector_1'> +2.8508725e-04 </wgt>
<wgt id='morphing_basis_vector_2'> +2.1081116e-04 </wgt>
<wgt id='morphing_basis_vector_3'> +2.9930484e-04 </wgt>
<wgt id='morphing_basis_vector_4'> +1.7373988e-04 </wgt>
<wgt id='morphing_basis_vector_5'> +3.0603148e-04 </wgt>
</rwgt>
</event>
<event>
 4      1 +3.5234200e-07 1.29686600e+03 7.81860800e-03 8.44374500e-02
        2 -1    0    0  501    0 +0.0000000000e+00 +0.0000000000e+00 +8.3009868529e+02 8.3009868529e+02 0.0000000000e+00 0.0000e+00 1.0000e+00
       -2 -1    0    0    0  501 -0.0000000000e+00 -0.0000000000e+00 -5.0652465539e+02 5.0652465539e+02 0.0000000000e+00 0.0000e+00 -1.0000e+00
      -13  1    1    2    0    0 +1.8023060250e+02 -6.1661605980e+01 -4.7703723161e+02 5.1366306473e+02 0.0000000000e+00 0.0000e+00 -1.0000e+00
       13  1    1    2    0    0 -1.8023060250e+02 +6.1661605980e+01 +8.0061126151e+02 8.2296027595e+02 0.0000000000e+00 0.0000e+00 1.0000e+00
<mgrwt>
<rscale>  0 0.12968661E+04</rscale>
<asrwt>0</asrwt>
<pdfrwt beam="1">  1        2 0.12770749E+00 0.12968661E+04</pdfrwt>
<pdfrwt beam="2">  1       -2 0.77926870E-01 0.12968661E+04</pdfrwt>
<totfact> 0.59391632E+01</totfact>
</mgrwt>
<rwgt>
<wgt id='morphing_basis_vector_1'> +1.4752987e-04 </wgt>
<wgt id='morphing_basis_vector_2'> +9.5218165e-05 </wgt>
<wgt id='morphing_basis_vector_3'> +1.4986365e-04 </wgt>
<wgt id='morphing_basis_vector_4'> +9.8543543e-05 </wgt>
<wgt id='morphing_basis_vector_5'> +1.5660148e-04 </wgt>
</rwgt>
</event>
<event>
 4      1 +3.5234200e-07 1.52287300e+03 7.81860800e-03 8.30180100e-02
        2 -1    0    0  501    0 +0.0000000000e+00 +0.0000000000e+00 +7.6794245081e+02 7.6794245081e+02 0.0000000000e+00 0.0000e+00 -1.0000e+00
       -2 -1    0    0    0  501 -0.0000000000e+00 -0.0000000000e+00 -7.5498550516e+02 7.5498550516e+02 0.0000000000e+00 0.0000e+00 1.0000e+00
      -13  1    1    2    0    0 +4.8187008664e+02 +3.3657466125e+01 -5.8214610490e+02 7.5645600855e+02 0.0000000000e+00 0.0000e+00 1.0000e+00
       13  1    1    2    0    0 -4.8187008664e+02 -3.3657466125e+01 +5.9510305055e+02 7.6647194743e+02 0.0000000000e+00 0.0000e+00 -1.0000e+00
<mgrwt>
<rscale>  0 0.15228728E+04</rscale>
<asrwt>0</asrwt>
<pdfrwt beam="1">  1        2 0.11814499E+00 0.15228728E+04</pdfrwt>
<pdfrwt beam="2">  1       -2 0.11615162E+00 0.15228728E+04</pdfrwt>
<totfact> 0.24867755E+01</totfact>
</mgrwt>
<rwgt>
<wgt id='morphing_basis_vector_1'> +2.7352809e-04 </wgt>
<wgt id='morphing_basis_vector_2'> +1.7944814e-04 </wgt>
<wgt id='morphing_basis_vector_3'> +2.8437800e-04 </wgt>
<wgt id='morphing_basis_vector_4'> +1.9191371e-04 </wgt>
<wgt id='morphing_basis_vector_5'> +3.0586370e-04 </wgt>
</rwgt>
</event>
<event>
 4      1 +3.5234200e-07 1.33719900e+03 7.81860800e-03 8.41629900e-02
        2 -1    0    0  501    0 +0.0000000000e+00 +0.0000000000e+00 +1.3662164821e+03 1.3662164821e+03 0.0000000000e+00 0.0000e+00 1.0000e+00
       -2 -1    0    0    0  501 -0.0000000000e+00 -0.0000000000e+00 -3.2719957144e+02 3.2719957144e+02 0.0000000000e+00 0.0000e+00 -1.0000e+00
      -13  1    1    2    0    0 -5.5583663885e+02 +2.4814262127e+02 +1.6925065246e+02 6.3180290672e+02 0.0000000000e+00 0.0000e+00 -1.0000e+00
       13  1    1    2    0    0 +5.5583663885e+02 -2.4814262127e+02 +8.6976625819e+02 1.0616131468e+03 0.0000000000e+00 0.0000e+00 1.0000e+00
<mgrwt>
<rscale>  0 0.13371992E+04</rscale>
<asrwt>0</asrwt>
<pdfrwt beam="1">  1        2 0.21018715E+00 0.13371992E+04</pdfrwt>
<pdfrwt beam="2">  1       -2 0.50338396E-01 0.13371992E+04</pdfrwt>
<totfact> 0.69401473E+01</totfact>
</mgrwt>
<rwgt>
<wgt id='morphing_basis_vector_1'> +1.6695333e-04 </wgt>
<wgt id='morphing_basis_vector_2'> +1.1070545e-04 </wgt>
<wgt id='morphing_basis_vector_3'> +1.7066156e-04 </wgt>
<wgt id='morphing_basis_vector_4'> +1.0999322e-04 </wgt>
<wgt id='morphing_basis_vector_5'> +1.7790615e-04 </wgt>
</rwgt>
</event>
<event>
 4      1 +3.5234200e-07 1.38000600e+03 7.81860800e-03 8.38825500e-02
        2 -1    0    0  501    0 +0.0000000000e+00 +0.0000000000e+00 +1.8269861705e+03 1.8269861705e+03 0.0000000000e+00 0.0000e+00 -1.0000e+00
       -2 -1    0    0    0  501 -0.0000000000e+00 -0.0000000000e+00 -2.6059524604e+02 2.6059524604e+02 0.0000000000e+00 0.0000e+00 1.0000e+00
      -13  1    1    2    0    0 +3.1310180313e+02 +1.2746888652e+02 -1.2673991431e+02 3.6103194046e+02 0.0000000000e+00 0.0000e+00 1.0000e+00
       13  1    1    2    0    0 -3.1310180313e+02 -1.2746888652e+02 +1.6931308388e+03 1.7265494761e+03 0.0000000000e+00 0.0000e+00 -1.0000e+00
<mgrwt>
<rscale>  0 0.13800057E+04</rscale>
<asrwt>0</asrwt>
<pdfrwt beam="1">  1        2 0.28107479E+00 0.13800057E+04</pdfrwt>
<pdfrwt beam="2">  1       -2 0.40091577E-01 0.13800057E+04</pdfrwt>
<totfact> 0.59188624E+01</totfact>
</mgrwt>
<rwgt>
<wgt id='morphing_basis_vector_1'> +1.8712756e-04 </wgt>
<wgt id='morphing_basis_vector_2'> +1.2156298e-04 </wgt>
<wgt id='morphing_basis_vector_3'> +1.9194997e-04 </wgt>
<wgt id='morphing_basis_vector_4'> +1.2767967e-04 </wgt>
<wgt id='morphing_basis_vector_5'> +2.0310560e-04 </wgt>
</rwgt>
</event>
<event>
 4      1 +3.5234200e-07 1.53205300e+03 7.81860800e-03 8.29658500e-02
        2 -1    0    0  501    0 +0.0000000000e+00 +0.0000000000e+00 +1.4445187550e+03 1.4445187550e+03 0.0000000000e+00 0.0000e+00 1.0000e+00
       -2 -1    0    0    0  501 -0.0000000000e+00 -0.0000000000e+00 -4.0622277108e+02 4.0622277108e+02 0.0000000000e+00 0.0000e+00 -1.0000e+00
      -13  1    1    2    0    0 +5.1470160268e+02 +3.7858594254e+01 -1.6468345586e+02 5.4173024061e+02 0.0000000000e+00 0.0000e+00 -1.0000e+00
       13  1    1    2    0    0 -5.1470160268e+02 -3.7858594254e+01 +1.2029794398e+03 1.3090112855e+03 0.0000000000e+00 0.0000e+00 1.0000e+00
<mgrwt>
<rscale>  0 0.15320528E+04</rscale>
<asrwt>0</asrwt>
<pdfrwt beam="1">  1        2 0.22223365E+00 0.15320528E+04</pdfrwt>
<pdfrwt beam="2">  1       -2 0.62495812E-01 0.15320528E+04</pdfrwt>
<totfact> 0.39870970E+01</totfact>
</mgrwt>
<rwgt>
<wgt id='morphing_basis_vector_1'> +2.8002249e-04 </wgt>
<wgt id='morphing_basis_vector_2'> +1.8395258e-04 </wgt>
<wgt id='morphing_basis_vector_3'> +2.9136476e-04 </wgt>
<wgt id='morphing_basis_vector_4'> +1.9661230e-04 </wgt>
<wgt id='morphing_basis_vector_5'> +3.1356020e-04 </wgt>
</rwgt>
</event>
<event>
 4      1 +3.5234200e-07 1.40929500e+03 7.81860800e-03 8.36967000e-02
        2 -1    0    0  501    0 +0.0000000000e+00 +0.0000000000e+00 +1.0948480968e+03 1.0948480968e+03 0.0000000000e+00 0.0000e+00 -1.0000e+00
       -2 -1    0    0    0  501 -0.0000000000e+00 -0.0000000000e+00 -4.5351305497e+02 4.5351305497e+02 0.0000000000e+00 0.0000e+00 1.0000e+00
      -13  1    1    2    0    0 +1.2747608986e+02 -6.0930068475e+02 +6.8344832325e+02 9.2444528690e+02 0.0000000000e+00 0.0000e+00 1.0000e+00
       13  1    1    2    0    0 -1.2747608986e+02 +6.0930068475e+02 -4.2113281443e+01 6.2391586484e+02 0.0000000000e+00 0.0000e+00 -1.0000e+00
<mgrwt>
<rscale>  0 0.14092947E+04</rscale>
<asrwt>0</asrwt>
<pdfrwt beam="1">  1        2 0.16843817E+00 0.14092947E+04</pdfrwt>
<pdfrwt beam="2">  1       -2 0.69771240E-01 0.14092947E+04</pdfrwt>
<totfact> 0.50860995E+01</totfact>
</mgrwt>
<rwgt>
<wgt id='morphing_basis_vector_1'> +2.3679285e-04 </wgt>
<wgt id='morphing_basis_vector_2'> +2.3343766e-04 </wgt>
<wgt id='morphing_basis_vector_3'> +2.5169504e-04 </wgt>
<wgt id='morphing_basis_vector_4'> +7.7208464e-05 </wgt>
<wgt id='morphing_basis_vector_5'> +2.1717541e-04 </wgt>
</rwgt>
</event>
<event>
 4      1 +3.5234200e-07 1.35179500e+03 7.81860800e-03 8.40661500e-02
        2 -1    0    0  501    0 +0.0000000000e+00 +0.0000000000e+00 +1.6847429618e+03 1.6847429618e+03 0.0000000000e+00 0.0000e+00 -1.0000e+00
       -2 -1    0    0    0  501 -0.0000000000e+00 -0.0000000000e+00 -2.7116148829e+02 2.7116148829e+02 0.0000000000e+00 0.0000e+00 1.0000e+00
      -13  1    1    2    0    0 -1.8381514240e+02 +6.4579038326e+02 +5.9467572221e+02 8.9692387652e+02 0.0000000000e+00 0.0000e+00 1.0000e+00
       13  1    1    2    0    0 +1.8381514240e+02 -6.4579038326e+02 +8.1890575133e+02 1.0589805736e+03 0.0000000000e+00 0.0000e+00 -1.0000e+00
<mgrwt>
<rscale>  0 0.13517950E+04</rscale>
<asrwt>0</asrwt>
<pdfrwt beam="1">  1        2 0.25919122E+00 0.13517950E+04</pdfrwt>
<pdfrwt beam="2">  1       -2 0.41717153E-01 0.13517950E+04</pdfrwt>
<totfact> 0.66040281E+01</totfact>
</mgrwt>
<rwgt>
<wgt id='morphing_basis_vector_1'> +1.7696093e-04 </wgt>
<wgt id='morphing_basis_vector_2'> +1.2427029e-04 </wgt>
<wgt id='morphing_basis_vector_3'> +1.8182070e-04 </wgt>
<wgt id='morphing_basis_vector_4'> +1.0981199e-04 </wgt>
<wgt id='morphing_basis_vector_5'> +1.8579242e-04 </wgt>
</rwgt>
</event>
<event>
 4      1 +3.5234200e-07 1.34664500e+03 7.81860800e-03 8.41001700e-02
        2 -1    0    0  501    0 +0.0000000000e+00 +0.0000000000e+00 +3.4724008619e+02 3.4724008619e+02 0.0000000000e+00 0.0000e+00 -1.0000e+00
       -2 -1    0    0    0  501 -0.0000000000e+00 -0.0000000000e+00 -1.3056191781e+03 1.3056191781e+03 0.0000000000e+00 0.0000e+00 1.0000e+00
      -13  1    1    2    0    0 -2.3643402544e+02 +2.8503480699e+02 -1.1693905591e+03 1.2266295974e+03 0.0000000000e+00 0.0000e+00 1.0000e+00
       13  1    1    2    0    0 +2.3643402544e+02 -2.8503480699e+02 +2.1101146722e+02 4.2622966683e+02 0.0000000000e+00 0.0000e+00 -1.0000e+00
<mgrwt>
<rscale>  0 0.13466452E+04</rscale>
<asrwt>0</asrwt>
<pdfrwt beam="1">  1        2 0.53421552E-01 0.13466452E+04</pdfrwt>
<pdfrwt beam="2">  1       -2 0.20086449E+00 0.13466452E+04</pdfrwt>
<totfact> 0.12897110E+01</totfact>
</mgrwt>
<rwgt>
<wgt id='morphing_basis_vector_1'> +1.7040895e-04 </wgt>
<wgt id='morphing_basis_vector_2'> +1.1050753e-04 </wgt>
<wgt id='morphing_basis_vector_3'> +1.7416007e-04 </wgt>
<wgt id='morphing_basis_vector_4'> +1.1525429e-04 </wgt>
<wgt id='morphing_basis_vector_5'> +1.8336453e-04 </wgt>
</rwgt>
</event>
<event>
 4      1 +3.5234200e-07 1.38216200e+03 7.81860800e-03 8.38687000e-02
        2 -1    0    0  501    0 +0.0000000000e+00 +0.0000000000e+00 +1.2442232747e+03 1.2442232747e+03 0.0000000000e+00 0.0000e+00 -1.0000e+00
       -2 -1    0    0    0  501 -0.0000000000e+00 -0.0000000000e+00 -3.8384842606e+02 3.8384842606e+02 0.0000000000e+00 0.0000e+00 1.0000e+00
      -13  1    1    2    0    0 +2.4536284724e+02 +7.6977847558e+01 -3.2539307962e+02 4.1473988485e+02 0.0000000000e+00 0.0000e+00 1.0000e+00
       13  1    1    2    0    0 -2.4536284724e+02 -7.6977847558e+01 +1.1857679282e+03 1.2133318159e+03 0.0000000000e+00 0.0000e+00 -1.0000e+00
<mgrwt>
<rscale>  0 0.13821623E+04</rscale>
<asrwt>0</asrwt>
<pdfrwt beam="1">  1        2 0.19141896E+00 0.13821623E+04</pdfrwt>
<pdfrwt beam="2">  1       -2 0.59053605E-01 0.13821623E+04</pdfrwt>
<totfact> 0.58963389E+01</totfact>
</mgrwt>
<rwgt>
<wgt id='morphing_basis_vector_1'> +1.8822629e-04 </wgt>
<wgt id='morphing_basis_vector_2'> +1.2223540e-04 </wgt>
<wgt id='morphing_basis_vector_3'> +1.9311587e-04 </wgt>
<wgt id='morphing_basis_vector_4'> +1.2855819e-04 </wgt>
<wgt id='morphing_basis_vector_5'> +2.0443668e-04 </wgt>
</rwgt>
</event>
<event>
 4      1 +3.5234200e-07 1.39899700e+03 7.81860800e-03 8.37615100e-02
        2 -1    0    0  501    0 +0.0000000000e+00 +0.0000000000e+00 +2.5391704863e+03 2.5391704863e+03 0.0000000000e+00 0.0000e+00 -1.0000e+00
       -2 -1    0    0    0  501 -0.0000000000e+00 -0.0000000000e+00 -1.9269987333e+02 1.9269987333e+02 0.0000000000e+00 0.0000e+00 1.0000e+00
      -13  1    1    2    0    0 -3.6431228168e+02 +3.1253861502e+02 +1.7965164014e+02 5.1252174224e+02 0.0000000000e+00 0.0000e+00 1.0000e+00
       13  1    1    2    0    0 +3.6431228168e+02 -3.1253861502e+02 +2.1668189728e+03 2.2193486173e+03 0.0000000000e+00 0.0000e+00 -1.0000e+00
<mgrwt>
<rscale>  0 0.13989965E+04</rscale>
<asrwt>0</asrwt>
<pdfrwt beam="1">  1        2 0.39064159E+00 0.13989965E+04</pdfrwt>
<pdfrwt beam="2">  1       -2 0.29646136E-01 0.13989965E+04</pdfrwt>
<totfact> 0.40054243E+01</totfact>
</mgrwt>
<rwgt>
<wgt id='morphing_basis_vector_1'> +1.9736034e-04 </wgt>
<wgt id='morphing_basis_vector_2'> +1.2873999e-04 </wgt>
<wgt id='morphing_basis_vector_3'> +2.0288807e-04 </wgt>
<wgt id='morphing_basis_vector_4'> +1.3486290e-04 </wgt>
<wgt id='morphing_basis_vector_5'> +2.1499875e-04 </wgt>
</rwgt>
</event>
<event>
 4      1 +3.5234200e-07 1.52759000e+03 7.81860800e-03 8.29911600e-02
        2 -1    0    0  501    0 +0.0000000000e+00 +0.0000000000e+00 +1.5506485181e+03 1.5506485181e+03 0.0000000000e+00 0.0000e+00 -1.0000e+00
       -2 -1    0    0    0  501 -0.0000000000e+00 -0.0000000000e+00 -3.7621854250e+02 3.7621854250e+02 0.0000000000e+00 0.0000e+00 1.0000e+00
      -13  1    1    2    0    0 +3.4279212475e+02 -5.4241364282e+02 +6.4597136369e+01 6.4489672874e+02 0.0000000000e+00 0.0000e+00 1.0000e+00
       13  1    1    2    0    0 -3.4279212475e+02 +5.4241364282e+02 +1.1098328392e+03 1.2819703318e+03 0.0000000000e+00 0.0000e+00 -1.0000e+00
<mgrwt>
<rscale>  0 0.15275899E+04</rscale>
<asrwt>0</asrwt>
<pdfrwt beam="1">  1        2 0.23856131E+00 0.15275899E+04</pdfrwt>
<pdfrwt beam="2">  1       -2 0.57879777E-01 0.15275899E+04</pdfrwt>
<totfact> 0.40721830E+01</totfact>
</mgrwt>
<rwgt>
<wgt id='morphing_basis_vector_1'> +2.7760568e-04 </wgt>
<wgt id='morphing_basis_vector_2'> +1.8400137e-04 </wgt>
<wgt id='morphing_basis_vector_3'> +2.8894933e-04 </wgt>
<wgt id='morphing_basis_vector_4'> +1.9290150e-04 </wgt>
<wgt id='morphing_basis_vector_5'> +3.0969520e-04 </wgt>
</rwgt>
</event>
<event>
 4      1 +3.5234200e-07 1.30243900e+03 7.81860800e-03 8.43989100e-02
        2 -1    0    0  501    0 +0.0000000000e+00 +0.0000000000e+00 +3.3911056903e+03 3.3911056903e+03 0.0000000000e+00 0.0000e+00 -1.0000e+00
       -2 -1    0    0    0  501 -0.0000000000e+00 -0.0000000000e+00 -1.2505850914e+02 1.2505850914e+02 0.0000000000e+00 0.0000e+00 1.0000e+00
      -13  1    1    2    0    0 -5.3878729823e+01 -6.0124276728e+02 +9.7344627898e+02 1.1454228218e+03 0.0000000000e+00 0.0000e+00 1.0000e+00
       13  1    1    2    0    0 +5.3878729823e+01 +6.0124276728e+02 +2.2926009022e+03 2.3707413776e+03 0.0000000000e+00 0.0000e+00 -1.0000e+00
<mgrwt>
<rscale>  0 0.13024387E+04</rscale>
<asrwt>0</asrwt>
<pdfrwt beam="1">  1        2 0.52170850E+00 0.13024387E+04</pdfrwt>
<pdfrwt beam="2">  1       -2 0.19239773E-01 0.13024387E+04</pdfrwt>
<totfact> 0.23995134E+01</totfact>
</mgrwt>
<rwgt>
<wgt id='morphing_basis_vector_1'> +1.5117425e-04 </wgt>
<wgt id='morphing_basis_vector_2'> +1.0045906e-04 </wgt>
<wgt id='morphing_basis_vector_3'> +1.5390215e-04 </wgt>
<wgt id='morphing_basis_vector_4'> +9.8173770e-05 </wgt>
<wgt id='morphing_basis_vector_5'> +1.5929274e-04 </wgt>
</rwgt>
</event>
<event>
 4      1 +3.5234200e-07 1.33923100e+03 7.81860800e-03 8.41494400e-02
        2 -1    0    0  501    0 +0.0000000000e+00 +0.0000000000e+00 +1.0670792794e+03 1.0670792794e+03 0.0000000000e+00 0.0000e+00 1.0000e+00
       -2 -1    0    0    0  501 -0.0000000000e+00 -0.0000000000e+00 -4.2019804295e+02 4.2019804295e+02 0.0000000000e+00 0.0000e+00 -1.0000e+00
      -13  1    1    2    0    0 +3.0726814389e+02 -3.4456687678e+01 -3.3617484536e+02 4.5674336582e+02 0.0000000000e+00 0.0000e+00 -1.0000e+00
       13  1    1    2    0    0 -3.0726814389e+02 +3.4456687678e+01 +9.8305608179e+02 1.0305339565e+03 0.0000000000e+00 0.0000e+00 1.0000e+00
<mgrwt>
<rscale>  0 0.13392306E+04</rscale>
<asrwt>0</asrwt>
<pdfrwt beam="1">  1        2 0.16416604E+00 0.13392306E+04</pdfrwt>
<pdfrwt beam="2">  1       -2 0.64645853E-01 0.13392306E+04</pdfrwt>
<totfact> 0.62474708E+01</totfact>
</mgrwt>
<rwgt>
<wgt id='morphing_basis_vector_1'> +1.6681780e-04 </wgt>
<wgt id='morphing_basis_vector_2'> +1.0805221e-04 </wgt>
<wgt id='morphing_basis_vector_3'> +1.7033753e-04 </wgt>
<wgt id='morphing_basis_vector_4'> +1.1268227e-04 </wgt>
<wgt id='morphing_basis_vector_5'> +1.7918170e-04 </wgt>
</rwgt>
</event>
<event>
 4      1 +3.5234200e-07 1.36286500e+03 7.81860800e-03 8.39935500e-02
        2 -1    0    0  501    0 +0.0000000000e+00 +0.0000000000e+00 +5.8787194925e+02 5.8787194925e+02 0.0000000000e+00 0.0000e+00 1.0000e+00
       -2 -1    0    0    0  501 -0.0000000000e+00 -0.0000000000e+00 -7.8988344262e+02 7.8988344262e+02 0.0000000000e+00 0.0000e+00 -1.0000e+00
      -13  1    1    2    0    0 -3.5725825706e+02 +2.4421278260e+02 -6.3313785821e+02 7.6690083644e+02 0.0000000000e+00 0.0000e+00 -1.0000e+00
       13  1    1    2    0    0 +3.5725825706e+02 -2.4421278260e+02 +4.3112636484e+02 6.1085455543e+02 0.0000000000e+00 0.0000e+00 1.0000e+00
<mgrwt>
<rscale>  0 0.13628651E+04</rscale>
<asrwt>0</asrwt>
<pdfrwt beam="1">  1        2 0.90441839E-01 0.13628651E+04</pdfrwt>
<pdfrwt beam="2">  1       -2 0.12152053E+00 0.13628651E+04</pdfrwt>
<totfact> 0.31004019E+01</totfact>
</mgrwt>
<rwgt>
<wgt id='morphing_basis_vector_1'> +1.7846090e-04 </wgt>
<wgt id='morphing_basis_vector_2'> +1.1599849e-04 </wgt>
<wgt id='morphing_basis_vector_3'> +1.8273655e-04 </wgt>
<wgt id='morphing_basis_vector_4'> +1.2104762e-04 </wgt>
<wgt id='morphing_basis_vector_5'> +1.9276697e-04 </wgt>
</rwgt>
</event>
<event>
 4      1 +3.5234200e-07 1.29608400e+03 7.81860800e-03 8.44428700e-02
        2 -1    0    0  501    0 +0.0000000000e+00 +0.0000000000e+00 +7.2684253235e+02 7.2684253235e+02 0.0000000000e+00 0.0000e+00 -1.0000e+00
       -2 -1    0    0    0  501 -0.0000000000e+00 -0.0000000000e+00 -5.7778494092e+02 5.7778494092e+02 0.0000000000e+00 0.0000e+00 1.0000e+00
      -13  1    1    2    0    0 -2.2797546740e+02 +7.0261802033e+01 -5.3197839152e+02 5.8301847621e+02 0.0000000000e+00 0.0000e+00 1.0000e+00
       13  1    1    2    0    0 +2.2797546740e+02 -7.0261802033e+01 +6.8103598295e+02 7.2160899706e+02 0.0000000000e+00 0.0000e+00 -1.0000e+00
<mgrwt>
<rscale>  0 0.12960844E+04</rscale>
<asrwt>0</asrwt>
<pdfrwt beam="1">  1        2 0.11182193E+00 0.12960844E+04</pdfrwt>
<pdfrwt beam="2">  1       -2 0.88889991E-01 0.12960844E+04</pdfrwt>
<totfact> 0.52032728E+01</totfact>
</mgrwt>
<rwgt>
<wgt id='morphing_basis_vector_1'> +1.4719587e-04 </wgt>
<wgt id='morphing_basis_vector_2'> +9.5008190e-05 </wgt>
<wgt id='morphing_basis_vector_3'> +1.4951036e-04 </wgt>
<wgt id='morphing_basis_vector_4'> +9.8286500e-05 </wgt>
<wgt id='morphing_basis_vector_5'> +1.5620501e-04 </wgt>
</rwgt>
</event>
<event>
 4      1 +3.5234200e-07 1.51930400e+03 7.81860800e-03 8.30384000e-02
        2 -1    0    0  501    0 +0.0000000000e+00 +0.0000000000e+00 +1.4842022583e+03 1.4842022583e+03 0.0000000000e+00 0.0000e+00 -1.0000e+00
       -2 -1    0    0    0  501 -0.0000000000e+00 -0.0000000000e+00 -3.8880888425e+02 3.8880888425e+02 0.0000000000e+00 0.0000e+00 1.0000e+00
      -13  1    1    2    0    0 -2.8965918647e+01 +5.0451683414e+02 -1.5152956820e+02 5.2757698055e+02 0.0000000000e+00 0.0000e+00 1.0000e+00
       13  1    1    2    0    0 +2.8965918647e+01 -5.0451683414e+02 +1.2469229422e+03 1.3454341620e+03 0.0000000000e+00 0.0000e+00 -1.0000e+00
<mgrwt>
<rscale>  0 0.15193038E+04</rscale>
<asrwt>0</asrwt>
<pdfrwt beam="1">  1        2 0.22833881E+00 0.15193038E+04</pdfrwt>
<pdfrwt beam="2">  1       -2 0.59816752E-01 0.15193038E+04</pdfrwt>
<totfact> 0.41501679E+01</totfact>
</mgrwt>
<rwgt>
<wgt id='morphing_basis_vector_1'> +2.7111109e-04 </wgt>
<wgt id='morphing_basis_vector_2'> +1.7794835e-04 </wgt>
<wgt id='morphing_basis_vector_3'> +2.8179724e-04 </wgt>
<wgt id='morphing_basis_vector_4'> +1.8996572e-04 </wgt>
<wgt id='morphing_basis_vector_5'> +3.0289884e-04 </wgt>
</rwgt>
</event>
<event>
 4      1 +3.5234200e-07 1.31685600e+03 7.81860800e-03 8.43001400e-02
        2 -1    0    0  501    0 +0.0000000000e+00 +0.0000000000e+00 +3.9116667164e+02 3.9116667164e+02 0.0000000000e+00 0.0000e+00 1.0000e+00
       -2 -1    0    0    0  501 -0.0000000000e+00 -0.0000000000e+00 -1.1082937085e+03 1.1082937085e+03 0.0000000000e+00 0.0000e+00 -1.0000e+00
      -13  1    1    2    0    0 +1.9284543208e+02 +3.1849690829e+02 -9.7691085945e+02 1.0454589751e+03 0.0000000000e+00 0.0000e+00 -1.0000e+00
       13  1    1    2    0    0 -1.9284543208e+02 -3.1849690829e+02 +2.5978382263e+02 4.5400140503e+02 0.0000000000e+00 0.0000e+00 1.0000e+00
<mgrwt>
<rscale>  0 0.13168562E+04</rscale>
<asrwt>0</asrwt>
<pdfrwt beam="1">  1        2 0.60179488E-01 0.13168562E+04</pdfrwt>
<pdfrwt beam="2">  1       -2 0.17050672E+00 0.13168562E+04</pdfrwt>
<totfact> 0.19116091E+01</totfact>
</mgrwt>
<rwgt>
<wgt id='morphing_basis_vector_1'> +1.5645167e-04 </wgt>
<wgt id='morphing_basis_vector_2'> +1.0125707e-04 </wgt>
<wgt id='morphing_basis_vector_3'> +1.5933386e-04 </wgt>
<wgt id='morphing_basis_vector_4'> +1.0495946e-04 </wgt>
<wgt id='morphing_basis_vector_5'> +1.6697078e-04 </wgt>
</rwgt>
</event>
<event>
 4      1 +3.5234200e-07 1.38282100e+03 7.81860800e-03 8.38644800e-02
        2 -1    0    0  501    0 +0.0000000000e+00 +0.0000000000e+00 +1.4523021397e+03 1.4523021397e+03 0.0000000000e+00 0.0000e+00 1.0000e+00
       -2 -1    0    0    0  501 -0.0000000000e+00 -0.0000000000e+00 -3.2916607669e+02 3.2916607669e+02 0.0000000000e+00 0.0000e+00 -1.0000e+00
      -13  1    1    2    0    0 -6.2865661399e+02 +1.6346056251e+02 +2.5637733463e+02 6.9832501854e+02 0.0000000000e+00 0.0000e+00 -1.0000e+00
       13  1    1    2    0    0 +6.2865661399e+02 -1.6346056251e+02 +8.6675872840e+02 1.0831431979e+03 0.0000000000e+00 0.0000e+00 1.0000e+00
<mgrwt>
<rscale>  0 0.13828212E+04</rscale>
<asrwt>0</asrwt>
<pdfrwt beam="1">  1        2 0.22343109E+00 0.13828212E+04</pdfrwt>
<pdfrwt beam="2">  1       -2 0.50640936E-01 0.13828212E+04</pdfrwt>
<totfact> 0.61113989E+01</totfact>
</mgrwt>
<rwgt>
<wgt id='morphing_basis_vector_1'> +1.9033175e-04 </wgt>
<wgt id='morphing_basis_vector_2'> +1.2772741e-04 </wgt>
<wgt id='morphing_basis_vector_3'> +1.9568795e-04 </wgt>
<wgt id='morphing_basis_vector_4'> +1.2561236e-04 </wgt>
<wgt id='morphing_basis_vector_5'> +2.0461245e-04 </wgt>
</rwgt>
</event>
<event>
 4      1 +3.5234200e-07 1.30428400e+03 7.81860800e-03 8.43861900e-02
        2 -1    0    0  501    0 +0.0000000000e+00 +0.0000000000e+00 +1.9428608292e+03 1.9428608292e+03 0.0000000000e+00 0.0000e+00 -1.0000e+00
       -2 -1    0    0    0  501 -0.0000000000e+00 -0.0000000000e+00 -2.1889857838e+02 2.1889857838e+02 0.0000000000e+00 0.0000e+00 1.0000e+00
      -13  1    1    2    0    0 +3.1692449746e+02 -3.0102478052e+02 +5.9825661617e+01 4.4117588937e+02 0.0000000000e+00 0.0000e+00 1.0000e+00
       13  1    1    2    0    0 -3.1692449746e+02 +3.0102478052e+02 +1.6641365892e+03 1.7205835182e+03 0.0000000000e+00 0.0000e+00 -1.0000e+00
<mgrwt>
<rscale>  0 0.13042844E+04</rscale>
<asrwt>0</asrwt>
<pdfrwt beam="1">  1        2 0.29890165E+00 0.13042844E+04</pdfrwt>
<pdfrwt beam="2">  1       -2 0.33676706E-01 0.13042844E+04</pdfrwt>
<totfact> 0.70720550E+01</totfact>
</mgrwt>
<rwgt>
<wgt id='morphing_basis_vector_1'> +1.5090368e-04 </wgt>
<wgt id='morphing_basis_vector_2'> +9.7754290e-05 </wgt>
<wgt id='morphing_basis_vector_3'> +1.5345902e-04 </wgt>
<wgt id='morphing_basis_vector_4'> +1.0069500e-04 </wgt>
<wgt id='morphing_basis_vector_5'> +1.6037859e-04 </wgt>
</rwgt>
</event>
<event>
 4      1 +3.5234200e-07 1.41619100e+03 7.81860800e-03 8.36536200e-02
        2 -1    0    0  501    0 +0.0000000000e+00 +0.0000000000e+00 +2.3802664859e+03 2.3802664859e+03 0.0000000000e+00 0.0000e+00 -1.0000e+00
       -2 -1    0    0    0  501 -0.0000000000e+00 -0.0000000000e+00 -2.1064842237e+02 2.1064842237e+02 0.0000000000e+00 0.0000e+00 1.0000e+00
      -13  1    1    2    0    0 -3.4829333032e+02 +1.7005701968e+02 +6.5486938280e-01 3.8759265052e+02 0.0000000000e+00 0.0000e+00 1.0000e+00
       13  1    1    2    0    0 +3.4829333032e+02 -1.7005701968e+02 +2.1689631942e+03 2.2033222577e+03 0.0000000000e+00 0.0000e+00 -1.0000e+00
<mgrwt>
<rscale>  0 0.14161912E+04</rscale>
<asrwt>0</asrwt>
<pdfrwt beam="1">  1        2 0.36619482E+00 0.14161912E+04</pdfrwt>
<pdfrwt beam="2">  1       -2 0.32407451E-01 0.14161912E+04</pdfrwt>
<totfact> 0.42336166E+01</totfact>
</mgrwt>
<rwgt>
<wgt id='morphing_basis_vector_1'> +2.0669822e-04 </wgt>
<wgt id='morphing_basis_vector_2'> +1.3464508e-04 </wgt>
<wgt id='morphing_basis_vector_3'> +2.1282527e-04 </wgt>
<wgt id='morphing_basis_vector_4'> +1.4214911e-04 </wgt>
<wgt id='morphing_basis_vector_5'> +2.2624280e-04 </wgt>
</rwgt>
</event>
<event>
 4      1 +3.5234200e-07 1.35201800e+03 7.81860800e-03 8.40646900e-02
        2 -1    0    0  501    0 +0.0000000000e+00 +0.0000000000e+00 +2.2462750539e+03 2.2462750539e+03 0.0000000000e+00 0.0000e+00 -1.0000e+00
       -2 -1    0    0    0  501 -0.0000000000e+00 -0.0000000000e+00 -2.0344253370e+02 2.0344253370e+02 0.0000000000e+00 0.0000e+00 1.0000e+00
      -13  1    1    2    0    0 +5.2790775705e+02 +1.2703125996e+02 +2.9177166650e+02 6.1640428806e+02 0.0000000000e+00 0.0000e+00 1.0000e+00
       13  1    1    2    0    0 -5.2790775705e+02 -1.2703125996e+02 +1.7510608537e+03 1.8333132996e+03 0.0000000000e+00 0.0000e+00 -1.0000e+00
<mgrwt>
<rscale>  0 0.13520176E+04</rscale>
<asrwt>0</asrwt>
<pdfrwt beam="1">  1        2 0.34558076E+00 0.13520176E+04</pdfrwt>
<pdfrwt beam="2">  1       -2 0.31298853E-01 0.13520176E+04</pdfrwt>
<totfact> 0.54153062E+01</totfact>
</mgrwt>
<rwgt>
<wgt id='morphing_basis_vector_1'> +1.7341229e-04 </wgt>
<wgt id='morphing_basis_vector_2'> +1.1340359e-04 </wgt>
<wgt id='morphing_basis_vector_3'> +1.7742040e-04 </wgt>
<wgt id='morphing_basis_vector_4'> +1.1648706e-04 </wgt>
<wgt id='morphing_basis_vector_5'> +1.8639293e-04 </wgt>
</rwgt>
</event>
<event>
 4      1 +3.5234200e-07 1.38853500e+03 7.81860800e-03 8.38279400e-02
        2 -1    0    0  501    0 +0.0000000000e+00 +0.0000000000e+00 +1.5672831754e+03 1.5672831754e+03 0.0000000000e+00 0.0000e+00 1.0000e+00
       -2 -1    0    0    0  501 -0.0000000000e+00 -0.0000000000e+00 -3.0754309689e+02 3.0754309689e+02 0.0000000000e+00 0.0000e+00 -1.0000e+00
      -13  1    1    2    0    0 -3.3070120870e+02 -3.7564141755e+02 +1.2795729970e+03 1.3739639073e+03 0.0000000000e+00 0.0000e+00 1.0000e+00
       13  1    1    2    0    0 +3.3070120870e+02 +3.7564141755e+02 -1.9832918438e+01 5.0086236500e+02 0.0000000000e+00 0.0000e+00 -1.0000e+00
<mgrwt>
<rscale>  0 0.13885347E+04</rscale>
<asrwt>0</asrwt>
<pdfrwt beam="1">  1        2 0.24112049E+00 0.13885347E+04</pdfrwt>
<pdfrwt beam="2">  1       -2 0.47314323E-01 0.13885347E+04</pdfrwt>
<totfact> 0.60157734E+01</totfact>
</mgrwt>
<rwgt>
<wgt id='morphing_basis_vector_1'> +2.4585102e-04 </wgt>
<wgt id='morphing_basis_vector_2'> +2.8663881e-04 </wgt>
<wgt id='morphing_basis_vector_3'> +2.6481427e-04 </wgt>
<wgt id='morphing_basis_vector_4'> +3.2247791e-05 </wgt>
<wgt id='morphing_basis_vector_5'> +2.0125227e-04 </wgt>
</rwgt>
</event>
<event>
 4      1 +3.5234200e-07 1.35750700e+03 7.81860800e-03 8.40286000e-02
        2 -1    0    0  501    0 +0.0000000000e+00 +0.0000000000e+00 +1.2342389483e+03 1.2342389483e+03 0.0000000000e+00 0.0000e+00 -1.0000e+00
       -2 -1    0    0    0  501 -0.0000000000e+00 -0.0000000000e+00 -3.7327154157e+02 3.7327154157e+02 0.0000000000e+00 0.0000e+00 1.0000e+00
      -13  1    1    2    0    0 -6.3132341461e+02 -2.3740632371e+02 +5.2047437032e+02 8.5195339458e+02 0.0000000000e+00 0.0000e+00 1.0000e+00
       13  1    1    2    0    0 +6.3132341461e+02 +2.3740632371e+02 +3.4049303637e+02 7.5555709525e+02 0.0000000000e+00 0.0000e+00 -1.0000e+00
<mgrwt>
<rscale>  0 0.13575069E+04</rscale>
<asrwt>0</asrwt>
<pdfrwt beam="1">  1        2 0.18988291E+00 0.13575069E+04</pdfrwt>
<pdfrwt beam="2">  1       -2 0.57426392E-01 0.13575069E+04</pdfrwt>
<totfact> 0.63377776E+01</totfact>
</mgrwt>
<rwgt>
<wgt id='morphing_basis_vector_1'> +1.8512748e-04 </wgt>
<wgt id='morphing_basis_vector_2'> +1.4214529e-04 </wgt>
<wgt id='morphing_basis_vector_3'> +1.9145429e-04 </wgt>
<wgt id='morphing_basis_vector_4'> +1.0221270e-04 </wgt>
<wgt id='morphing_basis_vector_5'> +1.8841053e-04 </wgt>
</rwgt>
</event>
<event>
 4      1 +3.5234200e-07 1.33162200e+03 7.81860800e-03 8.42003400e-02
        2 -1    0    0  501    0 +0.0000000000e+00 +0.0000000000e+00 +1.4004667370e+03 1.4004667370e+03 0.0000000000e+00 0.0000e+00 1.0000e+00
       -2 -1    0    0    0  501 -0.0000000000e+00 -0.0000000000e+00 -3.1654038419e+02 3.1654038419e+02 0.0000000000e+00 0.0000e+00 -1.0000e+00
      -13  1    1    2    0    0 -9.7505562493e+01 -6.5454366098e+02 +6.3644748406e+02 9.1815039009e+02 0.0000000000e+00 0.0000e+00 -1.0000e+00
       13  1    1    2    0    0 +9.7505562493e+01 +6.5454366098e+02 +4.4747886873e+02 7.9885673109e+02 0.0000000000e+00 0.0000e+00 1.0000e+00
<mgrwt>
<rscale>  0 0.13316220E+04</rscale>
<asrwt>0</asrwt>
<pdfrwt beam="1">  1        2 0.21545642E+00 0.13316220E+04</pdfrwt>
<pdfrwt beam="2">  1       -2 0.48698521E-01 0.13316220E+04</pdfrwt>
<totfact> 0.70851940E+01</totfact>
</mgrwt>
<rwgt>
<wgt id='morphing_basis_vector_1'> +1.7191999e-04 </wgt>
<wgt id='morphing_basis_vector_2'> +1.3168963e-04 </wgt>
<wgt id='morphing_basis_vector_3'> +1.7715299e-04 </wgt>
<wgt id='morphing_basis_vector_4'> +9.4440552e-05 </wgt>
<wgt id='morphing_basis_vector_5'> +1.7384944e-04 </wgt>
</rwgt>
</event>
<event>
 4      1 +3.5234200e-07 1.41653400e+03 7.81860800e-03 8.36514900e-02
        2 -1    0    0  501    0 +0.0000000000e+00 +0.0000000000e+00 +2.3017892381e+03 2.3017892381e+03 0.0000000000e+00 0.0000e+00 -1.0000e+00
       -2 -1    0    0    0  501 -0.0000000000e+00 -0.0000000000e+00 -2.1793582834e+02 2.1793582834e+02 0.0000000000e+00 0.0000e+00 1.0000e+00
      -13  1    1    2    0    0 -5.0403057744e+02 +3.0242339089e+02 +3.3905339213e+02 6.7857492812e+02 0.0000000000e+00 0.0000e+00 1.0000e+00
       13  1    1    2    0    0 +5.0403057744e+02 -3.0242339089e+02 +1.7448000176e+03 1.8411501383e+03 0.0000000000e+00 0.0000e+00 -1.0000e+00
<mgrwt>
<rscale>  0 0.14165343E+04</rscale>
<asrwt>0</asrwt>
<pdfrwt beam="1">  1        2 0.35412140E+00 0.14165343E+04</pdfrwt>
<pdfrwt beam="2">  1       -2 0.33528591E-01 0.14165343E+04</pdfrwt>
<totfact> 0.44220588E+01</totfact>
</mgrwt>
<rwgt>
<wgt id='morphing_basis_vector_1'> +2.0748967e-04 </wgt>
<wgt id='morphing_basis_vector_2'> +1.3656195e-04 </wgt>
<wgt id='morphing_basis_vector_3'> +2.1379139e-04 </wgt>
<wgt id='morphing_basis_vector_4'> +1.4119452e-04 </wgt>
<wgt id='morphing_basis_vector_5'> +2.2639115e-04 </wgt>
</rwgt>
</event>
<event>
 4      1 +3.5234200e-07 1.42889200e+03 7.81860800e-03 8.35749500e-02
        2 -1    0    0  501    0 +0.0000000000e+00 +0.0000000000e+00 +2.7267809018e+03 2.7267809018e+03 0.0000000000e+00 0.0000e+00 -1.0000e+00
       -2 -1    0    0    0  501 -0.0000000000e+00 -0.0000000000e+00 -1.8719258537e+02 1.8719258537e+02 0.0000000000e+00 0.0000e+00 1.0000e+00
      -13  1    1    2    0    0 +6.3293772495e+02 -1.4796361016e+02 +6.6507443480e+02 9.2996096553e+02 0.0000000000e+00 0.0000e+00 1.0000e+00
       13  1    1    2    0    0 -6.3293772495e+02 +1.4796361016e+02 +1.8745138817e+03 1.9840125217e+03 0.0000000000e+00 0.0000e+00 -1.0000e+00
<mgrwt>
<rscale>  0 0.14288921E+04</rscale>
<asrwt>0</asrwt>
<pdfrwt beam="1">  1        2 0.41950473E+00 0.14288921E+04</pdfrwt>
<pdfrwt beam="2">  1       -2 0.28798861E-01 0.14288921E+04</pdfrwt>
<totfact> 0.32368894E+01</totfact>
</mgrwt>
<rwgt>
<wgt id='morphing_basis_vector_1'> +2.1529070e-04 </wgt>
<wgt id='morphing_basis_vector_2'> +1.4356140e-04 </wgt>
<wgt id='morphing_basis_vector_3'> +2.2228716e-04 </wgt>
<wgt id='morphing_basis_vector_4'> +1.4499170e-04 </wgt>
<wgt id='morphing_basis_vector_5'> +2.3462456e-04 </wgt>
</rwgt>
</event>
<event>
 4      1 +3.5234200e-07 1.46852200e+03 7.81860800e-03 8.33348400e-02
        2 -1    0    0  501    0 +0.0000000000e+00 +0.0000000000e+00 +9.1544180629e+02 9.1544180629e+02 0.0000000000e+00 0.0000e+00 -1.0000e+00
       -2 -1    0    0    0  501 -0.0000000000e+00 -0.0000000000e+00 -5.8893911010e+02 5.8893911010e+02 0.0000000000e+00 0.0000e+00 1.0000e+00
      -13  1    1    2    0    0 -3.5153712572e+02 -4.5165387144e+02 +6.3445017899e+02 8.5445690352e+02 0.0000000000e+00 0.0000e+00 -1.0000e+00
       13  1    1    2    0    0 +3.5153712572e+02 +4.5165387144e+02 -3.0794748280e+02 6.4992401288e+02 0.0000000000e+00 0.0000e+00 1.0000e+00
<mgrwt>
<rscale>  0 0.14685224E+04</rscale>
<asrwt>0</asrwt>
<pdfrwt beam="1">  1        2 0.14083720E+00 0.14685224E+04</pdfrwt>
<pdfrwt beam="2">  1       -2 0.90606018E-01 0.14685224E+04</pdfrwt>
<totfact> 0.36371097E+01</totfact>
</mgrwt>
<rwgt>
<wgt id='morphing_basis_vector_1'> +2.9670349e-04 </wgt>
<wgt id='morphing_basis_vector_2'> +3.3138526e-04 </wgt>
<wgt id='morphing_basis_vector_3'> +3.2238744e-04 </wgt>
<wgt id='morphing_basis_vector_4'> +5.5800099e-05 </wgt>
<wgt id='morphing_basis_vector_5'> +2.5502081e-04 </wgt>
</rwgt>
</event>
<event>
 4      1 +3.5234200e-07 1.36524500e+03 7.81860800e-03 8.39780400e-02
        2 -1    0    0  501    0 +0.0000000000e+00 +0.0000000000e+00 +1.0088210771e+03 1.0088210771e+03 0.0000000000e+00 0.0000e+00 1.0000e+00
       -2 -1    0    0    0  501 -0.0000000000e+00 -0.0000000000e+00 -4.6189928574e+02 4.6189928574e+02 0.0000000000e+00 0.0000e+00 -1.0000e+00
      -13  1    1    2    0    0 -4.3928699048e+02 +4.5738654579e+02 +1.3639411759e+00 6.3417456005e+02 0.0000000000e+00 0.0000e+00 -1.0000e+00
       13  1    1    2    0    0 +4.3928699048e+02 -4.5738654579e+02 +5.4555785020e+02 8.3654580281e+02 0.0000000000e+00 0.0000e+00 1.0000e+00
<mgrwt>
<rscale>  0 0.13652454E+04</rscale>
<asrwt>0</asrwt>
<pdfrwt beam="1">  1        2 0.15520324E+00 0.13652454E+04</pdfrwt>
<pdfrwt beam="2">  1       -2 0.71061429E-01 0.13652454E+04</pdfrwt>
<totfact> 0.55384894E+01</totfact>
</mgrwt>
<rwgt>
<wgt id='morphing_basis_vector_1'> +1.8103073e-04 </wgt>
<wgt id='morphing_basis_vector_2'> +1.2090012e-04 </wgt>
<wgt id='morphing_basis_vector_3'> +1.8571648e-04 </wgt>
<wgt id='morphing_basis_vector_4'> +1.1944693e-04 </wgt>
<wgt id='morphing_basis_vector_5'> +1.9399874e-04 </wgt>
</rwgt>
</event>
<event>
 4      1 +3.5234200e-07 1.40804200e+03 7.81860800e-03 8.37045500e-02
        2 -1    0    0  501    0 +0.0000000000e+00 +0.0000000000e+00 +1.6051207709e+03 1.6051207709e+03 0.0000000000e+00 0.0000e+00 1.0000e+00
       -2 -1    0    0    0  501 -0.0000000000e+00 -0.0000000000e+00 -3.0879032312e+02 3.0879032312e+02 0.0000000000e+00 0.0000e+00 -1.0000e+00
      -13  1    1    2    0    0 -3.9110949275e+02 +4.0969471128e+02 +7.9818629763e+01 5.7200297677e+02 0.0000000000e+00 0.0000e+00 -1.0000e+00
       13  1    1    2    0    0 +3.9110949275e+02 -4.0969471128e+02 +1.2165118181e+03 1.3419081173e+03 0.0000000000e+00 0.0000e+00 1.0000e+00
<mgrwt>
<rscale>  0 0.14080423E+04</rscale>
<asrwt>0</asrwt>
<pdfrwt beam="1">  1        2 0.24694165E+00 0.14080423E+04</pdfrwt>
<pdfrwt beam="2">  1       -2 0.47506205E-01 0.14080423E+04</pdfrwt>
<totfact> 0.56772596E+01</totfact>
</mgrwt>
<rwgt>
<wgt id='morphing_basis_vector_1'> +2.0262706e-04 </wgt>
<wgt id='morphing_basis_vector_2'> +1.3300188e-04 </wgt>
<wgt id='morphing_basis_vector_3'> +2.0857167e-04 </wgt>
<wgt id='morphing_basis_vector_4'> +1.3793772e-04 </wgt>
<wgt id='morphing_basis_vector_5'> +2.2080855e-04 </wgt>
</rwgt>
</event>
<event>
 4      1 +3.5234200e-07 1.29410600e+03 7.81860800e-03 8.44566100e-02
        2 -1    0    0  501    0 +0.0000000000e+00 +0.0000000000e+00 +7.3909534570e+02 7.3909534570e+02 0.0000000000e+00 0.0000e+00 -1.0000e+00
       -2 -1    0    0    0  501 -0.0000000000e+00 -0.0000000000e+00 -5.6647334379e+02 5.6647334379e+02 0.0000000000e+00 0.0000e+00 1.0000e+00
      -13  1    1    2    0    0 -1.2545034036e+02 -4.1451073531e+02 -3.9869749188e+02 5.8865662964e+02 0.0000000000e+00 0.0000e+00 1.0000e+00
       13  1    1    2    0    0 +1.2545034036e+02 +4.1451073531e+02 +5.7131949378e+02 7.1691205985e+02 0.0000000000e+00 0.0000e+00 -1.0000e+00
<mgrwt>
<rscale>  0 0.12941064E+04</rscale>
<asrwt>0</asrwt>
<pdfrwt beam="1">  1        2 0.11370698E+00 0.12941064E+04</pdfrwt>
<pdfrwt beam="2">  1       -2 0.87149745E-01 0.12941064E+04</pdfrwt>
<totfact> 0.53366633E+01</totfact>
</mgrwt>
<rwgt>
<wgt id='morphing_basis_vector_1'> +1.4646084e-04 </wgt>
<wgt id='morphing_basis_vector_2'> +9.4800365e-05 </wgt>
<wgt id='morphing_basis_vector_3'> +1.4874815e-04 </wgt>
<wgt id='morphing_basis_vector_4'> +9.7447841e-05 </wgt>
<wgt id='morphing_basis_vector_5'> +1.5519180e-04 </wgt>
</rwgt>
</event>
<event>
 4      1 +3.5234200e-07 1.34097400e+03 7.81860800e-03 8.41378300e-02
        2 -1    0    0  501    0 +0.0000000000e+00 +0.0000000000e+00 +2.1820721947e+03 2.1820721947e+03 0.0000000000e+00 0.0000e+00 -1.0000e+00
       -2 -1    0    0    0  501 -0.0000000000e+00 -0.0000000000e+00 -2.0602097307e+02 2.0602097307e+02 0.0000000000e+00 0.0000e+00 1.0000e+00
      -13  1    1    2    0    0 +1.8455595297e+02 +5.5244132284e+02 +3.9657377284e+02 7.0464393296e+02 0.0000000000e+00 0.0000e+00 1.0000e+00
       13  1    1    2    0    0 -1.8455595297e+02 -5.5244132284e+02 +1.5794774488e+03 1.6834492348e+03 0.0000000000e+00 0.0000e+00 -1.0000e+00
<mgrwt>
<rscale>  0 0.13409737E+04</rscale>
<asrwt>0</asrwt>
<pdfrwt beam="1">  1        2 0.33570340E+00 0.13409737E+04</pdfrwt>
<pdfrwt beam="2">  1       -2 0.31695536E-01 0.13409737E+04</pdfrwt>
<totfact> 0.57662638E+01</totfact>
</mgrwt>
<rwgt>
<wgt id='morphing_basis_vector_1'> +1.6838327e-04 </wgt>
<wgt id='morphing_basis_vector_2'> +1.1079887e-04 </wgt>
<wgt id='morphing_basis_vector_3'> +1.7212281e-04 </wgt>
<wgt id='morphing_basis_vector_4'> +1.1197727e-04 </wgt>
<wgt id='morphing_basis_vector_5'> +1.8006546e-04 </wgt>
</rwgt>
</event>
<event>
 4      1 +3.5234200e-07 1.41814700e+03 7.81860800e-03 8.36414500e-02
        2 -1    0    0  501    0 +0.0000000000e+00 +0.0000000000e+00 +1.5353447879e+03 1.5353447879e+03 0.0000000000e+00 0.0000e+00 1.0000e+00
       -2 -1    0    0    0  501 -0.0000000000e+00 -0.0000000000e+00 -3.2747390079e+02 3.2747390079e+02 0.0000000000e+00 0.0000e+00 -1.0000e+00
      -13  1    1    2    0    0 +8.6761139517e+01 -5.7971830937e+02 +7.9852870370e+01 5.9158878831e+02 0.0000000000e+00 0.0000e+00 -1.0000e+00
       13  1    1    2    0    0 -8.6761139517e+01 +5.7971830937e+02 +1.1280180167e+03 1.2712299003e+03 0.0000000000e+00 0.0000e+00 1.0000e+00
<mgrwt>
<rscale>  0 0.14181472E+04</rscale>
<asrwt>0</asrwt>
<pdfrwt beam="1">  1        2 0.23620689E+00 0.14181472E+04</pdfrwt>
<pdfrwt beam="2">  1       -2 0.50380601E-01 0.14181472E+04</pdfrwt>
<totfact> 0.55315375E+01</totfact>
</mgrwt>
<rwgt>
<wgt id='morphing_basis_vector_1'> +2.0838071e-04 </wgt>
<wgt id='morphing_basis_vector_2'> +1.3711930e-04 </wgt>
<wgt id='morphing_basis_vector_3'> +2.1473992e-04 </wgt>
<wgt id='morphing_basis_vector_4'> +1.4189720e-04 </wgt>
<wgt id='morphing_basis_vector_5'> +2.2746880e-04 </wgt>
</rwgt>
</event>
<event>
 4      1 +3.5234200e-07 1.30693100e+03 7.81860800e-03 8.43679900e-02
        2 -1    0    0  501    0 +0.0000000000e+00 +0.0000000000e+00 +1.4764168072e+03 1.4764168072e+03 0.0000000000e+00 0.0000e+00 1.0000e+00
       -2 -1    0    0    0  501 -0.0000000000e+00 -0.0000000000e+00 -2.8922542687e+02 2.8922542687e+02 0.0000000000e+00 0.0000e+00 -1.0000e+00
      -13  1    1    2    0    0 +3.2164246173e+02 -2.5569430345e+02 -9.2863159030e+01 4.2125647332e+02 0.0000000000e+00 0.0000e+00 -1.0000e+00
       13  1    1    2    0    0 -3.2164246173e+02 +2.5569430345e+02 +1.2800545394e+03 1.3443857608e+03 0.0000000000e+00 0.0000e+00 1.0000e+00
<mgrwt>
<rscale>  0 0.13069312E+04</rscale>
<asrwt>0</asrwt>
<pdfrwt beam="1">  1        2 0.22714104E+00 0.13069312E+04</pdfrwt>
<pdfrwt beam="2">  1       -2 0.44496220E-01 0.13069312E+04</pdfrwt>
<totfact> 0.76592086E+01</totfact>
</mgrwt>
<rwgt>
<wgt id='morphing_basis_vector_1'> +1.5203742e-04 </wgt>
<wgt id='morphing_basis_vector_2'> +9.8419242e-05 </wgt>
<wgt id='morphing_basis_vector_3'> +1.5465606e-04 </wgt>
<wgt id='morphing_basis_vector_4'> +1.0162041e-04 </wgt>
<wgt id='morphing_basis_vector_5'> +1.6175289e-04 </wgt>
</rwgt>
</event>
<event>
 4      1 +3.5234200e-07 1.32137300e+03 7.81860800e-03 8.42694600e-02
        2 -1    0    0  501    0 +0.0000000000e+00 +0.0000000000e+00 +7.1265693962e+02 7.1265693962e+02 0.0000000000e+00 0.0000e+00 -1.0000e+00
       -2 -1    0    0    0  501 -0.0000000000e+00 -0.0000000000e+00 -6.1250625851e+02 6.1250625851e+02 0.0000000000e+00 0.0000e+00 1.0000e+00
      -13  1    1    2    0    0 -4.6014244134e+02 +1.1236947056e+02 -4.1184193924e+02 6.2767168740e+02 0.0000000000e+00 0.0000e+00 1.0000e+00
       13  1    1    2    0    0 +4.6014244134e+02 -1.1236947056e+02 +5.1199262035e+02 6.9749151073e+02 0.0000000000e+00 0.0000e+00 -1.0000e+00
<mgrwt>
<rscale>  0 0.13213733E+04</rscale>
<asrwt>0</asrwt>
<pdfrwt beam="1">  1        2 0.10963953E+00 0.13213733E+04</pdfrwt>
<pdfrwt beam="2">  1       -2 0.94231732E-01 0.13213733E+04</pdfrwt>
<totfact> 0.46411802E+01</totfact>
</mgrwt>
<rwgt>
<wgt id='morphing_basis_vector_1'> +1.5865439e-04 </wgt>
<wgt id='morphing_basis_vector_2'> +1.0305287e-04 </wgt>
<wgt id='morphing_basis_vector_3'> +1.6169427e-04 </wgt>
<wgt id='morphing_basis_vector_4'> +1.0621675e-04 </wgt>
<wgt id='morphing_basis_vector_5'> +1.6936577e-04 </wgt>
</rwgt>
</event>
<event>
 4      1 +3.5234200e-07 1.48809400e+03 7.81860800e-03 8.32191400e-02
        2 -1    0    0  501    0 +0.0000000000e+00 +0.0000000000e+00 +2.8478738524e+03 2.8478738524e+03 0.0000000000e+00 0.0000e+00 1.0000e+00
       -2 -1    0    0    0  501 -0.0000000000e+00 -0.0000000000e+00 -1.9439264197e+02 1.9439264197e+02 0.0000000000e+00 0.0000e+00 -1.0000e+00
      -13  1    1    2    0    0 -4.2482171702e+02 -4.3579707186e+02 +4.5166558611e+02 7.5788810571e+02 0.0000000000e+00 0.0000e+00 -1.0000e+00
       13  1    1    2    0    0 +4.2482171702e+02 +4.3579707186e+02 +2.2018156243e+03 2.2843783887e+03 0.0000000000e+00 0.0000e+00 1.0000e+00
<mgrwt>
<rscale>  0 0.14880937E+04</rscale>
<asrwt>0</asrwt>
<pdfrwt beam="1">  1        2 0.43813441E+00 0.14880937E+04</pdfrwt>
<pdfrwt beam="2">  1       -2 0.29906562E-01 0.14880937E+04</pdfrwt>
<totfact> 0.25322200E+01</totfact>
</mgrwt>
<rwgt>
<wgt id='morphing_basis_vector_1'> +2.5075647e-04 </wgt>
<wgt id='morphing_basis_vector_2'> +1.6552210e-04 </wgt>
<wgt id='morphing_basis_vector_3'> +2.6009352e-04 </wgt>
<wgt id='morphing_basis_vector_4'> +1.7336926e-04 </wgt>
<wgt id='morphing_basis_vector_5'> +2.7785812e-04 </wgt>
</rwgt>
</event>
<event>
 4      1 +3.5234200e-07 1.33915700e+03 7.81860800e-03 8.41499300e-02
        2 -1    0    0  501    0 +0.0000000000e+00 +0.0000000000e+00 +2.7471240208e+03 2.7471240208e+03 0.0000000000e+00 0.0000e+00 1.0000e+00
       -2 -1    0    0    0  501 -0.0000000000e+00 -0.0000000000e+00 -1.6320162083e+02 1.6320162083e+02 0.0000000000e+00 0.0000e+00 -1.0000e+00
      -13  1    1    2    0    0 +5.8270552633e+02 +3.2964157639e+02 +1.3163359043e+03 1.4768038164e+03 0.0000000000e+00 0.0000e+00 -1.0000e+00
       13  1    1    2    0    0 -5.8270552633e+02 -3.2964157639e+02 +1.2675864957e+03 1.4335218252e+03 0.0000000000e+00 0.0000e+00 1.0000e+00
<mgrwt>
<rscale>  0 0.13391566E+04</rscale>
<asrwt>0</asrwt>
<pdfrwt beam="1">  1        2 0.42263443E+00 0.13391566E+04</pdfrwt>
<pdfrwt beam="2">  1       -2 0.25107944E-01 0.13391566E+04</pdfrwt>
<totfact> 0.40277288E+01</totfact>
</mgrwt>
<rwgt>
<wgt id='morphing_basis_vector_1'> +1.7317448e-04 </wgt>
<wgt id='morphing_basis_vector_2'> +1.2715158e-04 </wgt>
<wgt id='morphing_basis_vector_3'> +1.7814517e-04 </wgt>
<wgt id='morphing_basis_vector_4'> +1.0117191e-04 </wgt>
<wgt id='morphing_basis_vector_5'> +1.7832099e-04 </wgt>
</rwgt>
</event>
<event>
 4      1 +3.5234200e-07 1.29572000e+03 7.81860800e-03 8.44454000e-02
        2 -1    0    0  501    0 +0.0000000000e+00 +0.0000000000e+00 +2.3450584993e+03 2.3450584993e+03 0.0000000000e+00 0.0000e+00 -1.0000e+00
       -2 -1    0    0    0  501 -0.0000000000e+00 -0.0000000000e+00 -1.7898168644e+02 1.7898168644e+02 0.0000000000e+00 0.0000e+00 1.0000e+00
      -13  1    1    2    0    0 -5.7099156975e+02 -2.0098725709e+02 +6.3333157616e+02 8.7609139683e+02 0.0000000000e+00 0.0000e+00 1.0000e+00
       13  1    1    2    0    0 +5.7099156975e+02 +2.0098725709e+02 +1.5327452367e+03 1.6479487889e+03 0.0000000000e+00 0.0000e+00 -1.0000e+00
<mgrwt>
<rscale>  0 0.12957199E+04</rscale>
<asrwt>0</asrwt>
<pdfrwt beam="1">  1        2 0.36077821E+00 0.12957199E+04</pdfrwt>
<pdfrwt beam="2">  1       -2 0.27535646E-01 0.12957199E+04</pdfrwt>
<totfact> 0.59860696E+01</totfact>
</mgrwt>
<rwgt>
<wgt id='morphing_basis_vector_1'> +1.4832713e-04 </wgt>
<wgt id='morphing_basis_vector_2'> +9.8764540e-05 </wgt>
<wgt id='morphing_basis_vector_3'> +1.5089049e-04 </wgt>
<wgt id='morphing_basis_vector_4'> +9.5884237e-05 </wgt>
<wgt id='morphing_basis_vector_5'> +1.5585980e-04 </wgt>
</rwgt>
</event>
<event>
 4      1 +3.5234200e-07 1.44565600e+03 7.81860800e-03 8.34724100e-02
        2 -1    0    0  501    0 +0.0000000000e+00 +0.0000000000e+00 +6.8407609773e+02 6.8407609773e+02 0.0000000000e+00 0.0000e+00 -1.0000e+00
       -2 -1    0    0    0  501 -0.0000000000e+00 -0.0000000000e+00 -7.6377506961e+02 7.6377506961e+02 0.0000000000e+00 0.0000e+00 1.0000e+00
      -13  1    1    2    0    0 -1.1878114681e+02 +4.6439681489e+01 -7.5241752449e+02 7.6314987782e+02 0.0000000000e+00 0.0000e+00 1.0000e+00
       13  1    1    2    0    0 +1.1878114681e+02 -4.6439681489e+01 +6.7271855260e+02 6.8470128952e+02 0.0000000000e+00 0.0000e+00 -1.0000e+00
<mgrwt>
<rscale>  0 0.14456559E+04</rscale>
<asrwt>0</asrwt>
<pdfrwt beam="1">  1        2 0.10524248E+00 0.14456559E+04</pdfrwt>
<pdfrwt beam="2">  1       -2 0.11750386E+00 0.14456559E+04</pdfrwt>
<totfact> 0.28040210E+01</totfact>
</mgrwt>
<rwgt>
<wgt id='morphing_basis_vector_1'> +2.2365933e-04 </wgt>
<wgt id='morphing_basis_vector_2'> +1.4578381e-04 </wgt>
<wgt id='morphing_basis_vector_3'> +2.3092908e-04 </wgt>
<wgt id='morphing_basis_vector_4'> +1.5497140e-04 </wgt>
<wgt id='morphing_basis_vector_5'> +2.4649064e-04 </wgt>
</rwgt>
</event>
<event>
 4      1 +3.5234200e-07 1.43422900e+03 7.81860800e-03 8.35421500e-02
        2 -1    0    0  501    0 +0.0000000000e+00 +0.0000000000e+00 +7.8248631491e+02 7.8248631491e+02 0.0000000000e+00 0.0000e+00 -1.0000e+00
       -2 -1    0    0    0  501 -0.0000000000e+00 -0.0000000000e+00 -6.5720386304e+02 6.5720386304e+02 0.0000000000e+00 0.0000e+00 1.0000e+00
      -13  1    1    2    0    0 -5.0348206736e+02 -3.7609821660e+02 -2.8408537488e+02 6.8967279264e+02 0.0000000000e+00 0.0000e+00 1.0000e+00
       13  1    1    2    0    0 +5.0348206736e+02 +3.7609821660e+02 +4.0936782676e+02 7.5001738531e+02 0.0000000000e+00 0.0000e+00 -1.0000e+00
<mgrwt>
<rscale>  0 0.14342288E+04</rscale>
<asrwt>0</asrwt>
<pdfrwt beam="1">  1        2 0.12038251E+00 0.14342288E+04</pdfrwt>
<pdfrwt beam="2">  1       -2 0.10110829E+00 0.14342288E+04</pdfrwt>
<totfact> 0.34572158E+01</totfact>
</mgrwt>
<rwgt>
<wgt id='morphing_basis_vector_1'> +2.1798875e-04 </wgt>
<wgt id='morphing_basis_vector_2'> +1.4445360e-04 </wgt>
<wgt id='morphing_basis_vector_3'> +2.2509095e-04 </wgt>
<wgt id='morphing_basis_vector_4'> +1.4800878e-04 </wgt>
<wgt id='morphing_basis_vector_5'> +2.3834685e-04 </wgt>
</rwgt>
</event>
<event>
 4      1 +3.5234200e-07 1.51355700e+03 7.81860800e-03 8.30713400e-02
        2 -1    0    0  501    0 +0.0000000000e+00 +0.0000000000e+00 +3.1480264169e+03 3.1480264169e+03 0.0000000000e+00 0.0000e+00 -1.0000e+00
       -2 -1    0    0    0  501 -0.0000000000e+00 -0.0000000000e+00 -1.8192793507e+02 1.8192793507e+02 0.0000000000e+00 0.0000e+00 1.0000e+00
      -13  1    1    2    0    0 +7.1049070401e+02 -2.5117639967e+02 +1.6359087674e+03 1.8011341203e+03 0.0000000000e+00 0.0000e+00 -1.0000e+00
       13  1    1    2    0    0 -7.1049070401e+02 +2.5117639967e+02 +1.3301897145e+03 1.5288202317e+03 0.0000000000e+00 0.0000e+00 1.0000e+00
<mgrwt>
<rscale>  0 0.15135573E+04</rscale>
<asrwt>0</asrwt>
<pdfrwt beam="1">  1        2 0.48431172E+00 0.15135573E+04</pdfrwt>
<pdfrwt beam="2">  1       -2 0.27988915E-01 0.15135573E+04</pdfrwt>
<totfact> 0.18161267E+01</totfact>
</mgrwt>
<rwgt>
<wgt id='morphing_basis_vector_1'> +2.8038469e-04 </wgt>
<wgt id='morphing_basis_vector_2'> +2.1468590e-04 </wgt>
<wgt id='morphing_basis_vector_3'> +2.9494695e-04 </wgt>
<wgt id='morphing_basis_vector_4'> +1.6229384e-04 </wgt>
<wgt id='morphing_basis_vector_5'> +2.9634287e-04 </wgt>
</rwgt>
</event>
<event>
 4      1 +3.5234200e-07 1.30390500e+03 7.81860800e-03 8.43888000e-02
        2 -1    0    0  501    0 +0.0000000000e+00 +0.0000000000e+00 +1.6844892156e+03 1.6844892156e+03 0.0000000000e+00 0.0000e+00 1.0000e+00
       -2 -1    0    0    0  501 -0.0000000000e+00 -0.0000000000e+00 -2.5232712867e+02 2.5232712867e+02 0.0000000000e+00 0.0000e+00 -1.0000e+00
      -13  1    1    2    0    0 -4.3375113937e+02 +3.8735635225e+02 +2.7831144391e+02 6.4470322967e+02 0.0000000000e+00 0.0000e+00 1.0000e+00
       13  1    1    2    0    0 +4.3375113937e+02 -3.8735635225e+02 +1.1538506430e+03 1.2921131146e+03 0.0000000000e+00 0.0000e+00 -1.0000e+00
<mgrwt>
<rscale>  0 0.13039054E+04</rscale>
<asrwt>0</asrwt>
<pdfrwt beam="1">  1        2 0.25915218E+00 0.13039054E+04</pdfrwt>
<pdfrwt beam="2">  1       -2 0.38819559E-01 0.13039054E+04</pdfrwt>
<totfact> 0.75873919E+01</totfact>
</mgrwt>
<rwgt>
<wgt id='morphing_basis_vector_1'> +1.5145193e-04 </wgt>
<wgt id='morphing_basis_vector_2'> +9.9785698e-05 </wgt>
<wgt id='morphing_basis_vector_3'> +1.5414427e-04 </wgt>
<wgt id='morphing_basis_vector_4'> +9.9300202e-05 </wgt>
<wgt id='morphing_basis_vector_5'> +1.6009338e-04 </wgt>
</rwgt>
</event>
<event>
 4      1 +3.5234200e-07 1.53037100e+03 7.81860800e-03 8.29753800e-02
        2 -1    0    0  501    0 +0.0000000000e+00 +0.0000000000e+00 +1.9695342695e+03 1.9695342695e+03 0.0000000000e+00 0.0000e+00 -1.0000e+00
       -2 -1    0    0    0  501 -0.0000000000e+00 -0.0000000000e+00 -2.9728301439e+02 2.9728301439e+02 0.0000000000e+00 0.0000e+00 1.0000e+00
      -13  1    1    2    0    0 +3.5901856771e+02 +6.7353909751e+02 +9.1671051036e+02 1.1928568261e+03 0.0000000000e+00 0.0000e+00 1.0000e+00
       13  1    1    2    0    0 -3.5901856771e+02 -6.7353909751e+02 +7.5554074476e+02 1.0739604578e+03 0.0000000000e+00 0.0000e+00 -1.0000e+00
<mgrwt>
<rscale>  0 0.15303713E+04</rscale>
<asrwt>0</asrwt>
<pdfrwt beam="1">  1        2 0.30300526E+00 0.15303713E+04</pdfrwt>
<pdfrwt beam="2">  1       -2 0.45735850E-01 0.15303713E+04</pdfrwt>
<totfact> 0.37912340E+01</totfact>
</mgrwt>
<rwgt>
<wgt id='morphing_basis_vector_1'> +2.9163203e-04 </wgt>
<wgt id='morphing_basis_vector_2'> +2.2127792e-04 </wgt>
<wgt id='morphing_basis_vector_3'> +3.0700845e-04 </wgt>
<wgt id='morphing_basis_vector_4'> +1.7170799e-04 </wgt>
<wgt id='morphing_basis_vector_5'> +3.1034641e-04 </wgt>
</rwgt>
</event>
<event>
 4      1 +3.5234200e-07 1.42487000e+03 7.81860800e-03 8.35997700e-02
        2 -1    0    0  501    0 +0.0000000000e+00 +0.0000000000e+00 +1.1064415694e+03 1.1064415694e+03 0.0000000000e+00 0.0000e+00 -1.0000e+00
       -2 -1    0    0    0  501 -0.0000000000e+00 -0.0000000000e+00 -4.5873537546e+02 4.5873537546e+02 0.0000000000e+00 0.0000e+00 1.0000e+00
      -13  1    1    2    0    0 -4.4110216126e+02 +8.0031124878e+01 -2.8437365302e+02 5.3089026375e+02 0.0000000000e+00 0.0000e+00 1.0000e+00
       13  1    1    2    0    0 +4.4110216126e+02 -8.0031124878e+01 +9.3207984695e+02 1.0342866811e+03 0.0000000000e+00 0.0000e+00 -1.0000e+00
<mgrwt>
<rscale>  0 0.14248704E+04</rscale>
<asrwt>0</asrwt>
<pdfrwt beam="1">  1        2 0.17022178E+00 0.14248704E+04</pdfrwt>
<pdfrwt beam="2">  1       -2 0.70574673E-01 0.14248704E+04</pdfrwt>
<totfact> 0.48776972E+01</totfact>
</mgrwt>
<rwgt>
<wgt id='morphing_basis_vector_1'> +2.1167538e-04 </wgt>
<wgt id='morphing_basis_vector_2'> +1.3811474e-04 </wgt>
<wgt id='morphing_basis_vector_3'> +2.1815311e-04 </wgt>
<wgt id='morphing_basis_vector_4'> +1.4568229e-04 </wgt>
<wgt id='morphing_basis_vector_5'> +2.3206232e-04 </wgt>
</rwgt>
</event>
<event>
 4      1 +3.5234200e-07 1.31523500e+03 7.81860800e-03 8.43111800e-02
        2 -1    0    0  501    0 +0.0000000000e+00 +0.0000000000e+00 +7.7907732485e+02 7.7907732485e+02 0.0000000000e+00 0.0000e+00 1.0000e+00
       -2 -1    0    0    0  501 -0.0000000000e+00 -0.0000000000e+00 -5.5509334066e+02 5.5509334066e+02 0.0000000000e+00 0.0000e+00 -1.0000e+00
      -13  1    1    2    0    0 +4.2979248271e+02 +4.4538623954e+02 -1.1340096606e+02 6.2924578637e+02 0.0000000000e+00 0.0000e+00 -1.0000e+00
       13  1    1    2    0    0 -4.2979248271e+02 -4.4538623954e+02 +3.3738495025e+02 7.0492487913e+02 0.0000000000e+00 0.0000e+00 1.0000e+00
<mgrwt>
<rscale>  0 0.13152348E+04</rscale>
<asrwt>0</asrwt>
<pdfrwt beam="1">  1        2 0.11985805E+00 0.13152348E+04</pdfrwt>
<pdfrwt beam="2">  1       -2 0.85398976E-01 0.13152348E+04</pdfrwt>
<totfact> 0.52254258E+01</totfact>
</mgrwt>
<rwgt>
<wgt id='morphing_basis_vector_1'> +1.5715074e-04 </wgt>
<wgt id='morphing_basis_vector_2'> +1.0506055e-04 </wgt>
<wgt id='morphing_basis_vector_3'> +1.6029293e-04 </wgt>
<wgt id='morphing_basis_vector_4'> +1.0186250e-04 </wgt>
<wgt id='morphing_basis_vector_5'> +1.6592967e-04 </wgt>
</rwgt>
</event>
<event>
 4      1 +3.5234200e-07 1.29258800e+03 7.81860800e-03 8.44671700e-02
        2 -1    0    0  501    0 +0.0000000000e+00 +0.0000000000e+00 +1.0557604217e+03 1.0557604217e+03 0.0000000000e+00 0.0000e+00 1.0000e+00
       -2 -1    0    0    0  501 -0.0000000000e+00 -0.0000000000e+00 -3.9563527980e+02 3.9563527980e+02 0.0000000000e+00 0.0000e+00 -1.0000e+00
      -13  1    1    2    0    0 +5.0557348216e+02 -2.9525662963e+02 +2.2728881540e+01 5.8591605650e+02 0.0000000000e+00 0.0000e+00 -1.0000e+00
       13  1    1    2    0    0 -5.0557348216e+02 +2.9525662963e+02 +6.3739626037e+02 8.6547964502e+02 0.0000000000e+00 0.0000e+00 1.0000e+00
<mgrwt>
<rscale>  0 0.12925882E+04</rscale>
<asrwt>0</asrwt>
<pdfrwt beam="1">  1        2 0.16242468E+00 0.12925882E+04</pdfrwt>
<pdfrwt beam="2">  1       -2 0.60866967E-01 0.12925882E+04</pdfrwt>
<totfact> 0.72175798E+01</totfact>
</mgrwt>
<rwgt>
<wgt id='morphing_basis_vector_1'> +1.4662199e-04 </wgt>
<wgt id='morphing_basis_vector_2'> +9.6807471e-05 </wgt>
<wgt id='morphing_basis_vector_3'> +1.4903180e-04 </wgt>
<wgt id='morphing_basis_vector_4'> +9.5525570e-05 </wgt>
<wgt id='morphing_basis_vector_5'> +1.5432734e-04 </wgt>
</rwgt>
</event>
<event>
 4      1 +3.5234200e-07 1.43875600e+03 7.81860800e-03 8.35144400e-02
        2 -1    0    0  501    0 +0.0000000000e+00 +0.0000000000e+00 +2.1401238583e+03 2.1401238583e+03 0.0000000000e+00 0.0000e+00 -1.0000e+00
       -2 -1    0    0    0  501 -0.0000000000e+00 -0.0000000000e+00 -2.4181064774e+02 2.4181064774e+02 0.0000000000e+00 0.0000e+00 1.0000e+00
      -13  1    1    2    0    0 +3.0950079959e+02 -4.8880245958e+02 +2.4135051551e+02 6.2687212474e+02 0.0000000000e+00 0.0000e+00 1.0000e+00
       13  1    1    2    0    0 -3.0950079959e+02 +4.8880245958e+02 +1.6569626950e+03 1.7550623813e+03 0.0000000000e+00 0.0000e+00 -1.0000e+00
<mgrwt>
<rscale>  0 0.14387560E+04</rscale>
<asrwt>0</asrwt>
<pdfrwt beam="1">  1        2 0.32924981E+00 0.14387560E+04</pdfrwt>
<pdfrwt beam="2">  1       -2 0.37201639E-01 0.14387560E+04</pdfrwt>
<totfact> 0.45174657E+01</totfact>
</mgrwt>
<rwgt>
<wgt id='morphing_basis_vector_1'> +2.2014803e-04 </wgt>
<wgt id='morphing_basis_vector_2'> +1.4476286e-04 </wgt>
<wgt id='morphing_basis_vector_3'> +2.2729697e-04 </wgt>
<wgt id='morphing_basis_vector_4'> +1.5087790e-04 </wgt>
<wgt id='morphing_basis_vector_5'> +2.4155901e-04 </wgt>
</rwgt>
</event>
<event>
 4      1 +3.5234200e-07 1.33146800e+03 7.81860800e-03 8.42013700e-02
        2 -1    0    0  501    0 +0.0000000000e+00 +0.0000000000e+00 +7.2281064995e+02 7.2281064995e+02 0.0000000000e+00 0.0000e+00 -1.0000e+00
       -2 -1    0    0    0  501 -0.0000000000e+00 -0.0000000000e+00 -6.1316446922e+02 6.1316446922e+02 0.0000000000e+00 0.0000e+00 1.0000e+00
      -13  1    1    2    0    0 +1.0994945406e+02 +5.3581904972e+02 -3.2594912654e+02 6.3673681344e+02 0.0000000000e+00 0.0000e+00 1.0000e+00
       13  1    1    2    0    0 -1.0994945406e+02 -5.3581904972e+02 +4.3559530726e+02 6.9923830573e+02 0.0000000000e+00 0.0000e+00 -1.0000e+00
<mgrwt>
<rscale>  0 0.13314681E+04</rscale>
<asrwt>0</asrwt>
<pdfrwt beam="1">  1        2 0.11120164E+00 0.13314681E+04</pdfrwt>
<pdfrwt beam="2">  1       -2 0.94332996E-01 0.13314681E+04</pdfrwt>
<totfact> 0.45454416E+01</totfact>
</mgrwt>
<rwgt>
<wgt id='morphing_basis_vector_1'> +1.6361522e-04 </wgt>
<wgt id='morphing_basis_vector_2'> +1.0700719e-04 </wgt>
<wgt id='morphing_basis_vector_3'> +1.6700913e-04 </wgt>
<wgt id='morphing_basis_vector_4'> +1.0914779e-04 </wgt>
<wgt id='morphing_basis_vector_5'> +1.7481543e-04 </wgt>
</rwgt>
</event>
<event>
 4      1 +3.5234200e-07 1.29925400e+03 7.81860800e-03 8.44209100e-02
        2 -1    0    0  501    0 +0.0000000000e+00 +0.0000000000e+00 +7.2521643347e+02 7.2521643347e+02 0.0000000000e+00 0.0000e+00 1.0000e+00
       -2 -1    0    0    0  501 -0.0000000000e+00 -0.0000000000e+00 -5.8191661888e+02 5.8191661888e+02 0.0000000000e+00 0.0000e+00 -1.0000e+00
      -13  1    1    2    0    0 -5.9321136230e+02 -2.4478984760e+02 +1.7322603071e+02 6.6470222474e+02 0.0000000000e+00 0.0000e+00 -1.0000e+00
       13  1    1    2    0    0 +5.9321136230e+02 +2.4478984760e+02 -2.9926216119e+01 6.4243082761e+02 0.0000000000e+00 0.0000e+00 1.0000e+00
<mgrwt>
<rscale>  0 0.12992544E+04</rscale>
<asrwt>0</asrwt>
<pdfrwt beam="1">  1        2 0.11157176E+00 0.12992544E+04</pdfrwt>
<pdfrwt beam="2">  1       -2 0.89525634E-01 0.12992544E+04</pdfrwt>
<totfact> 0.51304993E+01</totfact>
</mgrwt>
<rwgt>
<wgt id='morphing_basis_vector_1'> +1.5783392e-04 </wgt>
<wgt id='morphing_basis_vector_2'> +1.2365493e-04 </wgt>
<wgt id='morphing_basis_vector_3'> +1.6210772e-04 </wgt>
<wgt id='morphing_basis_vector_4'> +8.2851797e-05 </wgt>
<wgt id='morphing_basis_vector_5'> +1.5665613e-04 </wgt>
</rwgt>
</event>
<event>
 4      1 +3.5234200e-07 1.32209000e+03 7.81860800e-03 8.42646100e-02
        2 -1    0    0  501    0 +0.0000000000e+00 +0.0000000000e+00 +2.2917925064e+03 2.2917925064e+03 0.0000000000e+00 0.0000e+00 -1.0000e+00
       -2 -1    0    0    0  501 -0.0000000000e+00 -0.0000000000e+00 -1.9067191083e+02 1.9067191083e+02 0.0000000000e+00 0.0000e+00 1.0000e+00
      -13  1    1    2    0    0 -5.5493131285e+02 +2.6798060029e+02 +1.4997075185e+03 1.6213836699e+03 0.0000000000e+00 0.0000e+00 1.0000e+00
       13  1    1    2    0    0 +5.5493131285e+02 -2.6798060029e+02 +6.0141307713e+02 8.6108074735e+02 0.0000000000e+00 0.0000e+00 -1.0000e+00
<mgrwt>
<rscale>  0 0.13220899E+04</rscale>
<asrwt>0</asrwt>
<pdfrwt beam="1">  1        2 0.35258344E+00 0.13220899E+04</pdfrwt>
<pdfrwt beam="2">  1       -2 0.29334142E-01 0.13220899E+04</pdfrwt>
<totfact> 0.57360192E+01</totfact>
</mgrwt>
<rwgt>
<wgt id='morphing_basis_vector_1'> +1.7818798e-04 </wgt>
<wgt id='morphing_basis_vector_2'> +1.6075239e-04 </wgt>
<wgt id='morphing_basis_vector_3'> +1.8541637e-04 </wgt>
<wgt id='morphing_basis_vector_4'> +7.2120028e-05 </wgt>
<wgt id='morphing_basis_vector_5'> +1.6731391e-04 </wgt>
</rwgt>
</event>
<event>
 4      1 +3.5234200e-07 1.51584600e+03 7.81860800e-03 8.30582000e-02
        2 -1    0    0  501    0 +0.0000000000e+00 +0.0000000000e+00 +1.5122929336e+03 1.5122929336e+03 0.0000000000e+00 0.0000e+00 1.0000e+00
       -2 -1    0    0    0  501 -0.0000000000e+00 -0.0000000000e+00 -3.7985201546e+02 3.7985201546e+02 0.0000000000e+00 0.0000e+00 -1.0000e+00
      -13  1    1    2    0    0 +4.0125521147e+02 +5.4119467815e+02 +1.3282634831e+02 6.8668789358e+02 0.0000000000e+00 0.0000e+00 -1.0000e+00
       13  1    1    2    0    0 -4.0125521147e+02 -5.4119467815e+02 +9.9961456987e+02 1.2054570555e+03 0.0000000000e+00 0.0000e+00 1.0000e+00
<mgrwt>
<rscale>  0 0.15158463E+04</rscale>
<asrwt>0</asrwt>
<pdfrwt beam="1">  1        2 0.23266045E+00 0.15158463E+04</pdfrwt>
<pdfrwt beam="2">  1       -2 0.58438772E-01 0.15158463E+04</pdfrwt>
<totfact> 0.41992636E+01</totfact>
</mgrwt>
<rwgt>
<wgt id='morphing_basis_vector_1'> +2.6998252e-04 </wgt>
<wgt id='morphing_basis_vector_2'> +1.8007276e-04 </wgt>
<wgt id='morphing_basis_vector_3'> +2.8088967e-04 </wgt>
<wgt id='morphing_basis_vector_4'> +1.8585147e-04 </wgt>
<wgt id='morphing_basis_vector_5'> +2.9988025e-04 </wgt>
</rwgt>
</event>
<event>
 4      1 +3.5234200e-07 1.32058400e+03 7.81860800e-03 8.42748100e-02
        2 -1    0    0  501    0 +0.0000000000e+00 +0.0000000000e+00 +1.0338653534e+03 1.0338653534e+03 0.0000000000e+00 0.0000e+00 1.0000e+00
       -2 -1    0    0    0  501 -0.0000000000e+00 -0.0000000000e+00 -4.2170412879e+02 4.2170412879e+02 0.0000000000e+00 0.0000e+00 -1.0000e+00
      -13  1    1    2    0    0 +4.7595283561e+02 -3.0645645103e+02 -6.8573613394e+01 5.7021837795e+02 0.0000000000e+00 0.0000e+00 -1.0000e+00
       13  1    1    2    0    0 -4.7595283561e+02 +3.0645645103e+02 +6.8073483801e+02 8.8535110424e+02 0.0000000000e+00 0.0000e+00 1.0000e+00
<mgrwt>
<rscale>  0 0.13205836E+04</rscale>
<asrwt>0</asrwt>
<pdfrwt beam="1">  1        2 0.15905621E+00 0.13205836E+04</pdfrwt>
<pdfrwt beam="2">  1       -2 0.64877559E-01 0.13205836E+04</pdfrwt>
<totfact> 0.65071112E+01</totfact>
</mgrwt>
<rwgt>
<wgt id='morphing_basis_vector_1'> +1.5873525e-04 </wgt>
<wgt id='morphing_basis_vector_2'> +1.0413695e-04 </wgt>
<wgt id='morphing_basis_vector_3'> +1.6184837e-04 </wgt>
<wgt id='morphing_basis_vector_4'> +1.0516052e-04 </wgt>
<wgt id='morphing_basis_vector_5'> +1.6888600e-04 </wgt>
</rwgt>
</event>
<event>
 4      1 +3.5234200e-07 1.35705200e+03 7.81860800e-03 8.40315900e-02
        2 -1    0    0  501    0 +0.0000000000e+00 +0.0000000000e+00 +1.8673621765e+03 1.8673621765e+03 0.0000000000e+00 0.0000e+00 -1.0000e+00
       -2 -1    0    0    0  501 -0.0000000000e+00 -0.0000000000e+00 -2.4654969432e+02 2.4654969432e+02 0.0000000000e+00 0.0000e+00 1.0000e+00
      -13  1    1    2    0    0 +6.5411194837e+02 -1.5824456076e+02 +9.4525320720e+02 1.1603479684e+03 0.0000000000e+00 0.0000e+00 1.0000e+00
       13  1    1    2    0    0 -6.5411194837e+02 +1.5824456076e+02 +6.7555927499e+02 9.5356390244e+02 0.0000000000e+00 0.0000e+00 -1.0000e+00
<mgrwt>
<rscale>  0 0.13570521E+04</rscale>
<asrwt>0</asrwt>
<pdfrwt beam="1">  1        2 0.28728648E+00 0.13570521E+04</pdfrwt>
<pdfrwt beam="2">  1       -2 0.37930723E-01 0.13570521E+04</pdfrwt>
<totfact> 0.62422558E+01</totfact>
</mgrwt>
<rwgt>
<wgt id='morphing_basis_vector_1'> +1.8541264e-04 </wgt>
<wgt id='morphing_basis_vector_2'> +1.4352241e-04 </wgt>
<wgt id='morphing_basis_vector_3'> +1.9184398e-04 </wgt>
<wgt id='morphing_basis_vector_4'> +1.0112658e-04 </wgt>
<wgt id='morphing_basis_vector_5'> +1.8807932e-04 </wgt>
</rwgt>
</event>
<event>
 4      1 +3.5234200e-07 1.44263900e+03 7.81860800e-03 8.34907600e-02
        2 -1    0    0  501    0 +0.0000000000e+00 +0.0000000000e+00 +3.0018317050e+03 3.0018317050e+03 0.0000000000e+00 0.0000e+00 1.0000e+00
       -2 -1    0    0    0  501 -0.0000000000e+00 -0.0000000000e+00 -1.7332819008e+02 1.7332819008e+02 0.0000000000e+00 0.0000e+00 -1.0000e+00
      -13  1    1    2    0    0 -5.4160259884e+02 +4.5665005208e+02 +1.1153824217e+03 1.3213404526e+03 0.0000000000e+00 0.0000e+00 1.0000e+00
       13  1    1    2    0    0 +5.4160259884e+02 -4.5665005208e+02 +1.7131210932e+03 1.8538194424e+03 0.0000000000e+00 0.0000e+00 -1.0000e+00
<mgrwt>
<rscale>  0 0.14426393E+04</rscale>
<asrwt>0</asrwt>
<pdfrwt beam="1">  1        2 0.46182022E+00 0.14426393E+04</pdfrwt>
<pdfrwt beam="2">  1       -2 0.26665878E-01 0.14426393E+04</pdfrwt>
<totfact> 0.24820133E+01</totfact>
</mgrwt>
<rwgt>
<wgt id='morphing_basis_vector_1'> +2.2583623e-04 </wgt>
<wgt id='morphing_basis_vector_2'> +1.5643187e-04 </wgt>
<wgt id='morphing_basis_vector_3'> +2.3410504e-04 </wgt>
<wgt id='morphing_basis_vector_4'> +1.4631917e-04 </wgt>
<wgt id='morphing_basis_vector_5'> +2.4382323e-04 </wgt>
</rwgt>
</event>
<event>
 4      1 +3.5234200e-07 1.46932600e+03 7.81860800e-03 8.33300500e-02
        2 -1    0    0  501    0 +0.0000000000e+00 +0.0000000000e+00 +1.3016525378e+03 1.3016525378e+03 0.0000000000e+00 0.0000e+00 1.0000e+00
       -2 -1    0    0    0  501 -0.0000000000e+00 -0.0000000000e+00 -4.1464978881e+02 4.1464978881e+02 0.0000000000e+00 0.0000e+00 -1.0000e+00
      -13  1    1    2    0    0 -2.7972268982e+02 +6.7842354424e+02 +4.0259058415e+02 8.3700804478e+02 0.0000000000e+00 0.0000e+00 1.0000e+00
       13  1    1    2    0    0 +2.7972268982e+02 -6.7842354424e+02 +4.8441216479e+02 8.7929428179e+02 0.0000000000e+00 0.0000e+00 -1.0000e+00
<mgrwt>
<rscale>  0 0.14693263E+04</rscale>
<asrwt>0</asrwt>
<pdfrwt beam="1">  1        2 0.20025423E+00 0.14693263E+04</pdfrwt>
<pdfrwt beam="2">  1       -2 0.63792276E-01 0.14693263E+04</pdfrwt>
<totfact> 0.46275960E+01</totfact>
</mgrwt>
<rwgt>
<wgt id='morphing_basis_vector_1'> +2.4536331e-04 </wgt>
<wgt id='morphing_basis_vector_2'> +1.7708582e-04 </wgt>
<wgt id='morphing_basis_vector_3'> +2.5578524e-04 </wgt>
<wgt id='morphing_basis_vector_4'> +1.5228801e-04 </wgt>
<wgt id='morphing_basis_vector_5'> +2.6270264e-04 </wgt>
</rwgt>
</event>
<event>
 4      1 +3.5234200e-07 1.42122200e+03 7.81860800e-03 8.36223600e-02
        2 -1    0    0  501    0 +0.0000000000e+00 +0.0000000000e+00 +2.4732892081e+03 2.4732892081e+03 0.0000000000e+00 0.0000e+00 -1.0000e+00
       -2 -1    0    0    0  501 -0.0000000000e+00 -0.0000000000e+00 -2.0416869540e+02 2.0416869540e+02 0.0000000000e+00 0.0000e+00 1.0000e+00
      -13  1    1    2    0    0 +2.2066821573e+02 +6.6615196820e+02 +9.2380341074e+02 1.1601144977e+03 0.0000000000e+00 0.0000e+00 1.0000e+00
       13  1    1    2    0    0 -2.2066821573e+02 -6.6615196820e+02 +1.3453171019e+03 1.5173434057e+03 0.0000000000e+00 0.0000e+00 -1.0000e+00
<mgrwt>
<rscale>  0 0.14212223E+04</rscale>
<asrwt>0</asrwt>
<pdfrwt beam="1">  1        2 0.38050601E+00 0.14212223E+04</pdfrwt>
<pdfrwt beam="2">  1       -2 0.31410570E-01 0.14212223E+04</pdfrwt>
<totfact> 0.39467463E+01</totfact>
</mgrwt>
<rwgt>
<wgt id='morphing_basis_vector_1'> +2.1369191e-04 </wgt>
<wgt id='morphing_basis_vector_2'> +1.4894840e-04 </wgt>
<wgt id='morphing_basis_vector_3'> +2.2114279e-04 </wgt>
<wgt id='morphing_basis_vector_4'> +1.3663138e-04 </wgt>
<wgt id='morphing_basis_vector_5'> +2.2905183e-04 </wgt>
</rwgt>
</event>
<event>
 4      1 +3.5234200e-07 1.29273200e+03 7.81860800e-03 8.44661700e-02
        2 -1    0    0  501    0 +0.0000000000e+00 +0.0000000000e+00 +1.2631263812e+03 1.2631263812e+03 0.0000000000e+00 0.0000e+00 -1.0000e+00
       -2 -1    0    0    0  501 -0.0000000000e+00 -0.0000000000e+00 -3.3075812880e+02 3.3075812880e+02 0.0000000000e+00 0.0000e+00 1.0000e+00
      -13  1    1    2    0    0 -7.5668746676e+01 -2.1210913062e+02 +1.2131909551e+03 1.2339158546e+03 0.0000000000e+00 0.0000e+00 -1.0000e+00
       13  1    1    2    0    0 +7.5668746676e+01 +2.1210913062e+02 -2.8082270274e+02 3.5996865543e+02 0.0000000000e+00 0.0000e+00 1.0000e+00
<mgrwt>
<rscale>  0 0.12927325E+04</rscale>
<asrwt>0</asrwt>
<pdfrwt beam="1">  1        2 0.19432713E+00 0.12927325E+04</pdfrwt>
<pdfrwt beam="2">  1       -2 0.50885867E-01 0.12927325E+04</pdfrwt>
<totfact> 0.78074528E+01</totfact>
</mgrwt>
<rwgt>
<wgt id='morphing_basis_vector_1'> +1.9892181e-04 </wgt>
<wgt id='morphing_basis_vector_2'> +2.5332404e-04 </wgt>
<wgt id='morphing_basis_vector_3'> +2.1170143e-04 </wgt>
<wgt id='morphing_basis_vector_4'> +2.9917104e-06 </wgt>
<wgt id='morphing_basis_vector_5'> +1.4789118e-04 </wgt>
</rwgt>
</event>
<event>
 4      1 +3.5234200e-07 1.52687100e+03 7.81860800e-03 8.29952500e-02
        2 -1    0    0  501    0 +0.0000000000e+00 +0.0000000000e+00 +5.6217275988e+02 5.6217275988e+02 0.0000000000e+00 0.0000e+00 -1.0000e+00
       -2 -1    0    0    0  501 -0.0000000000e+00 -0.0000000000e+00 -1.0367516404e+03 1.0367516404e+03 0.0000000000e+00 0.0000e+00 1.0000e+00
      -13  1    1    2    0    0 +7.2517787974e+02 -2.3864318427e+02 -2.3735857579e+02 7.9948272036e+02 0.0000000000e+00 0.0000e+00 1.0000e+00
       13  1    1    2    0    0 -7.2517787974e+02 +2.3864318427e+02 -2.3722030478e+02 7.9944167996e+02 0.0000000000e+00 0.0000e+00 -1.0000e+00
<mgrwt>
<rscale>  0 0.15268707E+04</rscale>
<asrwt>0</asrwt>
<pdfrwt beam="1">  1        2 0.86488118E-01 0.15268707E+04</pdfrwt>
<pdfrwt beam="2">  1       -2 0.15950025E+00 0.15268707E+04</pdfrwt>
<totfact> 0.15183524E+01</totfact>
</mgrwt>
<rwgt>
<wgt id='morphing_basis_vector_1'> +2.8616921e-04 </wgt>
<wgt id='morphing_basis_vector_2'> +2.1067793e-04 </wgt>
<wgt id='morphing_basis_vector_3'> +3.0038301e-04 </wgt>
<wgt id='morphing_basis_vector_4'> +1.7551844e-04 </wgt>
<wgt id='morphing_basis_vector_5'> +3.0782384e-04 </wgt>
</rwgt>
</event>
<event>
 4      1 +3.5234200e-07 1.52799000e+03 7.81860800e-03 8.29888900e-02
        2 -1    0    0  501    0 +0.0000000000e+00 +0.0000000000e+00 +5.3535267650e+02 5.3535267650e+02 0.0000000000e+00 0.0000e+00 1.0000e+00
       -2 -1    0    0    0  501 -0.0000000000e+00 -0.0000000000e+00 -1.0902873539e+03 1.0902873539e+03 0.0000000000e+00 0.0000e+00 -1.0000e+00
      -13  1    1    2    0    0 +4.3217659010e+02 -7.4850479092e+01 -9.4299155242e+02 1.0400058977e+03 0.0000000000e+00 0.0000e+00 -1.0000e+00
       13  1    1    2    0    0 -4.3217659010e+02 +7.4850479092e+01 +3.8805687498e+02 5.8563413277e+02 0.0000000000e+00 0.0000e+00 1.0000e+00
<mgrwt>
<rscale>  0 0.15279899E+04</rscale>
<asrwt>0</asrwt>
<pdfrwt beam="1">  1        2 0.82361952E-01 0.15279899E+04</pdfrwt>
<pdfrwt beam="2">  1       -2 0.16773651E+00 0.15279899E+04</pdfrwt>
<totfact> 0.13824827E+01</totfact>
</mgrwt>
<rwgt>
<wgt id='morphing_basis_vector_1'> +2.7702375e-04 </wgt>
<wgt id='morphing_basis_vector_2'> +1.8162044e-04 </wgt>
<wgt id='morphing_basis_vector_3'> +2.8811122e-04 </wgt>
<wgt id='morphing_basis_vector_4'> +1.9472905e-04 </wgt>
<wgt id='morphing_basis_vector_5'> +3.1015176e-04 </wgt>
</rwgt>
</event>
<event>
 4      1 +3.5234200e-07 1.32063000e+03 7.81860800e-03 8.42745000e-02
        2 -1    0    0  501    0 +0.0000000000e+00 +0.0000000000e+00 +1.0611114665e+03 1.0611114665e+03 0.0000000000e+00 0.0000e+00 1.0000e+00
       -2 -1    0    0    0  501 -0.0000000000e+00 -0.0000000000e+00 -4.1090472442e+02 4.1090472442e+02 0.0000000000e+00 0.0000e+00 -1.0000e+00
      -13  1    1    2    0    0 +4.5802749513e+02 -3.3292253101e+01 -2.0375183005e+02 5.0240657704e+02 0.0000000000e+00 0.0000e+00 -1.0000e+00
       13  1    1    2    0    0 -4.5802749513e+02 +3.3292253101e+01 +8.5395857213e+02 9.6960961388e+02 0.0000000000e+00 0.0000e+00 1.0000e+00
<mgrwt>
<rscale>  0 0.13206297E+04</rscale>
<asrwt>0</asrwt>
<pdfrwt beam="1">  1        2 0.16324792E+00 0.13206297E+04</pdfrwt>
<pdfrwt beam="2">  1       -2 0.63216112E-01 0.13206297E+04</pdfrwt>
<totfact> 0.66099662E+01</totfact>
</mgrwt>
<rwgt>
<wgt id='morphing_basis_vector_1'> +1.5828199e-04 </wgt>
<wgt id='morphing_basis_vector_2'> +1.0273117e-04 </wgt>
<wgt id='morphing_basis_vector_3'> +1.6129391e-04 </wgt>
<wgt id='morphing_basis_vector_4'> +1.0602375e-04 </wgt>
<wgt id='morphing_basis_vector_5'> +1.6897084e-04 </wgt>
</rwgt>
</event>
<event>
 4      1 +3.5234200e-07 1.52545000e+03 7.81860800e-03 8.30033300e-02
        2 -1    0    0  501    0 +0.0000000000e+00 +0.0000000000e+00 +1.2374877362e+03 1.2374877362e+03 0.0000000000e+00 0.0000e+00 1.0000e+00
       -2 -1    0    0    0  501 -0.0000000000e+00 -0.0000000000e+00 -4.7010529393e+02 4.7010529393e+02 0.0000000000e+00 0.0000e+00 -1.0000e+00
      -13  1    1    2    0    0 +5.7479639551e+02 -3.1542785022e+01 -1.7641710552e+02 6.0208706904e+02 0.0000000000e+00 0.0000e+00 -1.0000e+00
       13  1    1    2    0    0 -5.7479639551e+02 +3.1542785022e+01 +9.4379954784e+02 1.1055059611e+03 0.0000000000e+00 0.0000e+00 1.0000e+00
<mgrwt>
<rscale>  0 0.15254501E+04</rscale>
<asrwt>0</asrwt>
<pdfrwt beam="1">  1        2 0.19038273E+00 0.15254501E+04</pdfrwt>
<pdfrwt beam="2">  1       -2 0.72323892E-01 0.15254501E+04</pdfrwt>
<totfact> 0.38417909E+01</totfact>
</mgrwt>
<rwgt>
<wgt id='morphing_basis_vector_1'> +2.7561568e-04 </wgt>
<wgt id='morphing_basis_vector_2'> +1.8152640e-04 </wgt>
<wgt id='morphing_basis_vector_3'> +2.8669089e-04 </wgt>
<wgt id='morphing_basis_vector_4'> +1.9270702e-04 </wgt>
<wgt id='morphing_basis_vector_5'> +3.0797166e-04 </wgt>
</rwgt>
</event>
<event>
 4      1 +3.5234200e-07 1.42203000e+03 7.81860800e-03 8.36173500e-02
        2 -1    0    0  501    0 +0.0000000000e+00 +0.0000000000e+00 +1.7795574550e+03 1.7795574550e+03 0.0000000000e+00 0.0000e+00 1.0000e+00
       -2 -1    0    0    0  501 -0.0000000000e+00 -0.0000000000e+00 -2.8408322013e+02 2.8408322013e+02 0.0000000000e+00 0.0000e+00 -1.0000e+00
      -13  1    1    2    0    0 +2.7785496521e+02 -4.4549659882e+02 +5.1963200124e+01 5.2760854373e+02 0.0000000000e+00 0.0000e+00 -1.0000e+00
       13  1    1    2    0    0 -2.7785496521e+02 +4.4549659882e+02 +1.4435110347e+03 1.5360321314e+03 0.0000000000e+00 0.0000e+00 1.0000e+00
<mgrwt>
<rscale>  0 0.14220301E+04</rscale>
<asrwt>0</asrwt>
<pdfrwt beam="1">  1        2 0.27377806E+00 0.14220301E+04</pdfrwt>
<pdfrwt beam="2">  1       -2 0.43705112E-01 0.14220301E+04</pdfrwt>
<totfact> 0.53259351E+01</totfact>
</mgrwt>
<rwgt>
<wgt id='morphing_basis_vector_1'> +2.1024406e-04 </wgt>
<wgt id='morphing_basis_vector_2'> +1.3759113e-04 </wgt>
<wgt id='morphing_basis_vector_3'> +2.1666253e-04 </wgt>
<wgt id='morphing_basis_vector_4'> +1.4413849e-04 </wgt>
<wgt id='morphing_basis_vector_5'> +2.3011809e-04 </wgt>
</rwgt>
</event>
<event>
 4      1 +3.5234200e-07 1.32093100e+03 7.81860800e-03 8.42724600e-02
        2 -1    0    0  501    0 +0.0000000000e+00 +0.0000000000e+00 +2.2040880941e+03 2.2040880941e+03 0.0000000000e+00 0.0000e+00 1.0000e+00
       -2 -1    0    0    0  501 -0.0000000000e+00 -0.0000000000e+00 -1.9791156133e+02 1.9791156133e+02 0.0000000000e+00 0.0000e+00 -1.0000e+00
      -13  1    1    2    0    0 +1.7658160617e+02 +3.7865141430e+02 +7.2926035561e+01 4.2411810130e+02 0.0000000000e+00 0.0000e+00 -1.0000e+00
       13  1    1    2    0    0 -1.7658160617e+02 -3.7865141430e+02 +1.9332504972e+03 1.9778815542e+03 0.0000000000e+00 0.0000e+00 1.0000e+00
<mgrwt>
<rscale>  0 0.13209308E+04</rscale>
<asrwt>0</asrwt>
<pdfrwt beam="1">  1        2 0.33909046E+00 0.13209308E+04</pdfrwt>
<pdfrwt beam="2">  1       -2 0.30447934E-01 0.13209308E+04</pdfrwt>
<totfact> 0.60283702E+01</totfact>
</mgrwt>
<rwgt>
<wgt id='morphing_basis_vector_1'> +1.5835234e-04 </wgt>
<wgt id='morphing_basis_vector_2'> +1.0262088e-04 </wgt>
<wgt id='morphing_basis_vector_3'> +1.6135819e-04 </wgt>
<wgt id='morphing_basis_vector_4'> +1.0624545e-04 </wgt>
<wgt id='morphing_basis_vector_5'> +1.6914084e-04 </wgt>
</rwgt>
</event>
<event>
 4      1 +3.5234200e-07 1.42610400e+03 7.81860800e-03 8.35921500e-02
        2 -1    0    0  501    0 +0.0000000000e+00 +0.0000000000e+00 +1.0545273276e+03 1.0545273276e+03 0.0000000000e+00 0.0000e+00 1.0000e+00
       -2 -1    0    0    0  501 -0.0000000000e+00 -0.0000000000e+00 -4.8215247120e+02 4.8215247120e+02 0.0000000000e+00 0.0000e+00 -1.0000e+00
      -13  1    1    2    0    0 -1.1560105955e+02 -2.6540711930e+02 +9.8835684155e+02 1.0298804737e+03 0.0000000000e+00 0.0000e+00 1.0000e+00
       13  1    1    2    0    0 +1.1560105955e+02 +2.6540711930e+02 -4.1598198513e+02 5.0679932508e+02 0.0000000000e+00 0.0000e+00 -1.0000e+00
<mgrwt>
<rscale>  0 0.14261037E+04</rscale>
<asrwt>0</asrwt>
<pdfrwt beam="1">  1        2 0.16223497E+00 0.14261037E+04</pdfrwt>
<pdfrwt beam="2">  1       -2 0.74177303E-01 0.14261037E+04</pdfrwt>
<totfact> 0.47063812E+01</totfact>
</mgrwt>
<rwgt>
<wgt id='morphing_basis_vector_1'> +2.8911084e-04 </wgt>
<wgt id='morphing_basis_vector_2'> +3.6766347e-04 </wgt>
<wgt id='morphing_basis_vector_3'> +3.1671796e-04 </wgt>
<wgt id='morphing_basis_vector_4'> +5.2706202e-06 </wgt>
<wgt id='morphing_basis_vector_5'> +2.2261097e-04 </wgt>
</rwgt>
</event>
<event>
 4      1 +3.5234200e-07 1.50298100e+03 7.81860800e-03 8.31323600e-02
        2 -1    0    0  501    0 +0.0000000000e+00 +0.0000000000e+00 +2.5559892019e+03 2.5559892019e+03 0.0000000000e+00 0.0000e+00 -1.0000e+00
       -2 -1    0    0    0  501 -0.0000000000e+00 -0.0000000000e+00 -2.2094700190e+02 2.2094700190e+02 0.0000000000e+00 0.0000e+00 1.0000e+00
      -13  1    1    2    0    0 +5.0833568737e+02 -4.2647073986e+02 +5.1571305252e+02 8.4038230321e+02 0.0000000000e+00 0.0000e+00 1.0000e+00
       13  1    1    2    0    0 -5.0833568737e+02 +4.2647073986e+02 +1.8193291474e+03 1.9365539005e+03 0.0000000000e+00 0.0000e+00 -1.0000e+00
<mgrwt>
<rscale>  0 0.15029812E+04</rscale>
<asrwt>0</asrwt>
<pdfrwt beam="1">  1        2 0.39322909E+00 0.15029812E+04</pdfrwt>
<pdfrwt beam="2">  1       -2 0.33991848E-01 0.15029812E+04</pdfrwt>
<totfact> 0.30352342E+01</totfact>
</mgrwt>
<rwgt>
<wgt id='morphing_basis_vector_1'> +2.6116476e-04 </wgt>
<wgt id='morphing_basis_vector_2'> +1.7389690e-04 </wgt>
<wgt id='morphing_basis_vector_3'> +2.7139804e-04 </wgt>
<wgt id='morphing_basis_vector_4'> +1.7955984e-04 </wgt>
<wgt id='morphing_basis_vector_5'> +2.8948525e-04 </wgt>
</rwgt>
</event>
<event>
 4      1 +3.5234200e-07 1.43963200e+03 7.81860800e-03 8.35090900e-02
        2 -1    0    0  501    0 +0.0000000000e+00 +0.0000000000e+00 +1.5020571493e+03 1.5020571493e+03 0.0000000000e+00 0.0000e+00 1.0000e+00
       -2 -1    0    0    0  501 -0.0000000000e+00 -0.0000000000e+00 -3.4495024328e+02 3.4495024328e+02 0.0000000000e+00 0.0000e+00 -1.0000e+00
      -13  1    1    2    0    0 -3.0060636137e+02 +6.4485279289e+02 +7.1871877688e+02 1.0113139914e+03 0.0000000000e+00 0.0000e+00 -1.0000e+00
       13  1    1    2    0    0 +3.0060636137e+02 -6.4485279289e+02 +4.3838812916e+02 8.3569340119e+02 0.0000000000e+00 0.0000e+00 1.0000e+00
<mgrwt>
<rscale>  0 0.14396319E+04</rscale>
<asrwt>0</asrwt>
<pdfrwt beam="1">  1        2 0.23108571E+00 0.14396319E+04</pdfrwt>
<pdfrwt beam="2">  1       -2 0.53069269E-01 0.14396319E+04</pdfrwt>
<totfact> 0.52001074E+01</totfact>
</mgrwt>
<rwgt>
<wgt id='morphing_basis_vector_1'> +2.3369855e-04 </wgt>
<wgt id='morphing_basis_vector_2'> +1.8401258e-04 </wgt>
<wgt id='morphing_basis_vector_3'> +2.4455165e-04 </wgt>
<wgt id='morphing_basis_vector_4'> +1.2724445e-04 </wgt>
<wgt id='morphing_basis_vector_5'> +2.4041246e-04 </wgt>
</rwgt>
</event>
<event>
 4      1 +3.5234200e-07 1.43478200e+03 7.81860800e-03 8.35387600e-02
        2 -1    0    0  501    0 +0.0000000000e+00 +0.0000000000e+00 +7.5987394999e+02 7.5987394999e+02 0.0000000000e+00 0.0000e+00 -1.0000e+00
       -2 -1    0    0    0  501 -0.0000000000e+00 -0.0000000000e+00 -6.7728288154e+02 6.7728288154e+02 0.0000000000e+00 0.0000e+00 1.0000e+00
      -13  1    1    2    0    0 +3.5852242981e+02 +5.9015248445e+02 -1.5352922595e+02 7.0738215329e+02 0.0000000000e+00 0.0000e+00 1.0000e+00
       13  1    1    2    0    0 -3.5852242981e+02 -5.9015248445e+02 +2.3612029440e+02 7.2977467824e+02 0.0000000000e+00 0.0000e+00 -1.0000e+00
<mgrwt>
<rscale>  0 0.14347817E+04</rscale>
<asrwt>0</asrwt>
<pdfrwt beam="1">  1        2 0.11690369E+00 0.14347817E+04</pdfrwt>
<pdfrwt beam="2">  1       -2 0.10419737E+00 0.14347817E+04</pdfrwt>
<totfact> 0.33335863E+01</totfact>
</mgrwt>
<rwgt>
<wgt id='morphing_basis_vector_1'> +2.2003241e-04 </wgt>
<wgt id='morphing_basis_vector_2'> +1.4980737e-04 </wgt>
<wgt id='morphing_basis_vector_3'> +2.2763737e-04 </wgt>
<wgt id='morphing_basis_vector_4'> +1.4507984e-04 </wgt>
<wgt id='morphing_basis_vector_5'> +2.3849770e-04 </wgt>
</rwgt>
</event>
<event>
 4      1 +3.5234200e-07 1.33945800e+03 7.81860800e-03 8.41479200e-02
        2 -1    0    0  501    0 +0.0000000000e+00 +0.0000000000e+00 +1.0680560646e+03 1.0680560646e+03 0.0000000000e+00 0.0000e+00 -1.0000e+00
       -2 -1    0    0    0  501 -0.0000000000e+00 -0.0000000000e+00 -4.1995646749e+02 4.1995646749e+02 0.0000000000e+00 0.0000e+00 1.0000e+00
      -13  1    1    2    0    0 -4.1321829016e+02 +1.6053269667e+02 -2.3363949449e+02 5.0110629153e+02 0.0000000000e+00 0.0000e+00 1.0000e+00
       13  1    1    2    0    0 +4.1321829016e+02 -1.6053269667e+02 +8.8173909160e+02 9.8690624057e+02 0.0000000000e+00 0.0000e+00 -1.0000e+00
<mgrwt>
<rscale>  0 0.13394582E+04</rscale>
<asrwt>0</asrwt>
<pdfrwt beam="1">  1        2 0.16431632E+00 0.13394582E+04</pdfrwt>
<pdfrwt beam="2">  1       -2 0.64608688E-01 0.13394582E+04</pdfrwt>
<totfact> 0.62463305E+01</totfact>
</mgrwt>
<rwgt>
<wgt id='morphing_basis_vector_1'> +1.6703929e-04 </wgt>
<wgt id='morphing_basis_vector_2'> +1.0846237e-04 </wgt>
<wgt id='morphing_basis_vector_3'> +1.7059154e-04 </wgt>
<wgt id='morphing_basis_vector_4'> +1.1255915e-04 </wgt>
<wgt id='morphing_basis_vector_5'> +1.7929467e-04 </wgt>
</rwgt>
</event>
<event>
 4      1 +3.5234200e-07 1.39739900e+03 7.81860800e-03 8.37716100e-02
        2 -1    0    0  501    0 +0.0000000000e+00 +0.0000000000e+00 +1.7754369432e+03 1.7754369432e+03 0.0000000000e+00 0.0000e+00 1.0000e+00
       -2 -1    0    0    0  501 -0.0000000000e+00 -0.0000000000e+00 -2.7496377606e+02 2.7496377606e+02 0.0000000000e+00 0.0000e+00 -1.0000e+00
      -13  1    1    2    0    0 -5.2556820199e+02 -3.3957418431e+02 +2.9407841453e+02 6.9138605388e+02 0.0000000000e+00 0.0000e+00 -1.0000e+00
       13  1    1    2    0    0 +5.2556820199e+02 +3.3957418431e+02 +1.2063947526e+03 1.3590146654e+03 0.0000000000e+00 0.0000e+00 1.0000e+00
<mgrwt>
<rscale>  0 0.13973988E+04</rscale>
<asrwt>0</asrwt>
<pdfrwt beam="1">  1        2 0.27314414E+00 0.13973988E+04</pdfrwt>
<pdfrwt beam="2">  1       -2 0.42302120E-01 0.13973988E+04</pdfrwt>
<totfact> 0.57076023E+01</totfact>
</mgrwt>
<rwgt>
<wgt id='morphing_basis_vector_1'> +1.9744743e-04 </wgt>
<wgt id='morphing_basis_vector_2'> +1.3100416e-04 </wgt>
<wgt id='morphing_basis_vector_3'> +2.0316473e-04 </wgt>
<wgt id='morphing_basis_vector_4'> +1.3248872e-04 </wgt>
<wgt id='morphing_basis_vector_5'> +2.1385132e-04 </wgt>
</rwgt>
</event>
<event>
 4      1 +3.5234200e-07 1.42767800e+03 7.81860800e-03 8.35824400e-02
        2 -1    0    0  501    0 +0.0000000000e+00 +0.0000000000e+00 +1.3524577109e+03 1.3524577109e+03 0.0000000000e+00 0.0000e+00 -1.0000e+00
       -2 -1    0    0    0  501 -0.0000000000e+00 -0.0000000000e+00 -3.7677024354e+02 3.7677024354e+02 0.0000000000e+00 0.0000e+00 1.0000e+00
      -13  1    1    2    0    0 -1.8012018193e+02 -6.0215739344e+02 +7.7941892444e+01 6.3333383378e+02 0.0000000000e+00 0.0000e+00 1.0000e+00
       13  1    1    2    0    0 +1.8012018193e+02 +6.0215739344e+02 +8.9774557490e+02 1.0958941206e+03 0.0000000000e+00 0.0000e+00 -1.0000e+00
<mgrwt>
<rscale>  0 0.14276776E+04</rscale>
<asrwt>0</asrwt>
<pdfrwt beam="1">  1        2 0.20807041E+00 0.14276776E+04</pdfrwt>
<pdfrwt beam="2">  1       -2 0.57964653E-01 0.14276776E+04</pdfrwt>
<totfact> 0.52902572E+01</totfact>
</mgrwt>
<rwgt>
<wgt id='morphing_basis_vector_1'> +2.1422574e-04 </wgt>
<wgt id='morphing_basis_vector_2'> +1.4200137e-04 </wgt>
<wgt id='morphing_basis_vector_3'> +2.2107276e-04 </wgt>
<wgt id='morphing_basis_vector_4'> +1.4514616e-04 </wgt>
<wgt id='morphing_basis_vector_5'> +2.3384449e-04 </wgt>
</rwgt>
</event>
<event>
 4      1 +3.5234200e-07 1.38540200e+03 7.81860800e-03 8.38479500e-02
        2 -1    0    0  501    0 +0.0000000000e+00 +0.0000000000e+00 +1.3412952829e+03 1.3412952829e+03 0.0000000000e+00 0.0000e+00 -1.0000e+00
       -2 -1    0    0    0  501 -0.0000000000e+00 -0.0000000000e+00 -3.5773975427e+02 3.5773975427e+02 0.0000000000e+00 0.0000e+00 1.0000e+00
      -13  1    1    2    0    0 +3.9125365302e+02 -3.9612264961e+02 -1.3638456506e+01 5.5693678459e+02 0.0000000000e+00 0.0000e+00 1.0000e+00
       13  1    1    2    0    0 -3.9125365302e+02 +3.9612264961e+02 +9.9719398511e+02 1.1420982525e+03 0.0000000000e+00 0.0000e+00 -1.0000e+00
<mgrwt>
<rscale>  0 0.13854020E+04</rscale>
<asrwt>0</asrwt>
<pdfrwt beam="1">  1        2 0.20635312E+00 0.13854020E+04</pdfrwt>
<pdfrwt beam="2">  1       -2 0.55036886E-01 0.13854020E+04</pdfrwt>
<totfact> 0.59818030E+01</totfact>
</mgrwt>
<rwgt>
<wgt id='morphing_basis_vector_1'> +1.9040242e-04 </wgt>
<wgt id='morphing_basis_vector_2'> +1.2479396e-04 </wgt>
<wgt id='morphing_basis_vector_3'> +1.9552454e-04 </wgt>
<wgt id='morphing_basis_vector_4'> +1.2894704e-04 </wgt>
<wgt id='morphing_basis_vector_5'> +2.0638048e-04 </wgt>
</rwgt>
</event>
<event>
 4      1 +3.5234200e-07 1.37964800e+03 7.81860800e-03 8.38848500e-02
        2 -1    0    0  501    0 +0.0000000000e+00 +0.0000000000e+00 +8.7694241774e+02 8.7694241774e+02 0.0000000000e+00 0.0000e+00 1.0000e+00
       -2 -1    0    0    0  501 -0.0000000000e+00 -0.0000000000e+00 -5.4263231777e+02 5.4263231777e+02 0.0000000000e+00 0.0000e+00 -1.0000e+00
      -13  1    1    2    0    0 -5.3676645317e+02 -3.3568729477e+02 -1.1473143251e+02 6.4340305153e+02 0.0000000000e+00 0.0000e+00 -1.0000e+00
       13  1    1    2    0    0 +5.3676645317e+02 +3.3568729477e+02 +4.4904153248e+02 7.7617168398e+02 0.0000000000e+00 0.0000e+00 1.0000e+00
<mgrwt>
<rscale>  0 0.13796482E+04</rscale>
<asrwt>0</asrwt>
<pdfrwt beam="1">  1        2 0.13491422E+00 0.13796482E+04</pdfrwt>
<pdfrwt beam="2">  1       -2 0.83481895E-01 0.13796482E+04</pdfrwt>
<totfact> 0.46941562E+01</totfact>
</mgrwt>
<rwgt>
<wgt id='morphing_basis_vector_1'> +1.8827818e-04 </wgt>
<wgt id='morphing_basis_vector_2'> +1.2543351e-04 </wgt>
<wgt id='morphing_basis_vector_3'> +1.9342313e-04 </wgt>
<wgt id='morphing_basis_vector_4'> +1.2511482e-04 </wgt>
<wgt id='morphing_basis_vector_5'> +2.0271100e-04 </wgt>
</rwgt>
</event>
<event>
 4      1 +3.5234200e-07 1.41164900e+03 7.81860800e-03 8.36819700e-02
        2 -1    0    0  501    0 +0.0000000000e+00 +0.0000000000e+00 +9.3791582872e+02 9.3791582872e+02 0.0000000000e+00 0.0000e+00 -1.0000e+00
       -2 -1    0    0    0  501 -0.0000000000e+00 -0.0000000000e+00 -5.3116516572e+02 5.3116516572e+02 0.0000000000e+00 0.0000e+00 1.0000e+00
      -13  1    1    2    0    0 +1.6678835572e+02 -5.5131291848e+02 -2.2117276860e+02 6.1699407068e+02 0.0000000000e+00 0.0000e+00 1.0000e+00
       13  1    1    2    0    0 -1.6678835572e+02 +5.5131291848e+02 +6.2792343160e+02 8.5208692376e+02 0.0000000000e+00 0.0000e+00 -1.0000e+00
<mgrwt>
<rscale>  0 0.14116490E+04</rscale>
<asrwt>0</asrwt>
<pdfrwt beam="1">  1        2 0.14429474E+00 0.14116490E+04</pdfrwt>
<pdfrwt beam="2">  1       -2 0.81717718E-01 0.14116490E+04</pdfrwt>
<totfact> 0.44862913E+01</totfact>
</mgrwt>
<rwgt>
<wgt id='morphing_basis_vector_1'> +2.0468133e-04 </wgt>
<wgt id='morphing_basis_vector_2'> +1.3450456e-04 </wgt>
<wgt id='morphing_basis_vector_3'> +2.1077628e-04 </wgt>
<wgt id='morphing_basis_vector_4'> +1.3931466e-04 </wgt>
<wgt id='morphing_basis_vector_5'> +2.2316704e-04 </wgt>
</rwgt>
</event>
<event>
 4      1 +3.5234200e-07 1.32435900e+03 7.81860800e-03 8.42492500e-02
        2 -1    0    0  501    0 +0.0000000000e+00 +0.0000000000e+00 +1.0141297403e+03 1.0141297403e+03 0.0000000000e+00 0.0000e+00 1.0000e+00
       -2 -1    0    0    0  501 -0.0000000000e+00 -0.0000000000e+00 -4.3237253103e+02 4.3237253103e+02 0.0000000000e+00 0.0000e+00 -1.0000e+00
      -13  1    1    2    0    0 -1.5839718297e+02 -6.3754336500e+02 +3.8180704896e+02 7.5982092132e+02 0.0000000000e+00 0.0000e+00 -1.0000e+00
       13  1    1    2    0    0 +1.5839718297e+02 +6.3754336500e+02 +1.9995016031e+02 6.8668135000e+02 0.0000000000e+00 0.0000e+00 1.0000e+00
<mgrwt>
<rscale>  0 0.13243592E+04</rscale>
<asrwt>0</asrwt>
<pdfrwt beam="1">  1        2 0.15601996E+00 0.13243592E+04</pdfrwt>
<pdfrwt beam="2">  1       -2 0.66518851E-01 0.13243592E+04</pdfrwt>
<totfact> 0.63481184E+01</totfact>
</mgrwt>
<rwgt>
<wgt id='morphing_basis_vector_1'> +1.6883729e-04 </wgt>
<wgt id='morphing_basis_vector_2'> +1.3033197e-04 </wgt>
<wgt id='morphing_basis_vector_3'> +1.7388660e-04 </wgt>
<wgt id='morphing_basis_vector_4'> +9.1462800e-05 </wgt>
<wgt id='morphing_basis_vector_5'> +1.6985548e-04 </wgt>
</rwgt>
</event>
<event>
 4      1 +3.5234200e-07 1.34991700e+03 7.81860800e-03 8.40785400e-02
        2 -1    0    0  501    0 +0.0000000000e+00 +0.0000000000e+00 +2.0432505942e+03 2.0432505942e+03 0.0000000000e+00 0.0000e+00 -1.0000e+00
       -2 -1    0    0    0  501 -0.0000000000e+00 -0.0000000000e+00 -2.2296287057e+02 2.2296287057e+02 0.0000000000e+00 0.0000e+00 1.0000e+00
      -13  1    1    2    0    0 +1.8155399728e+02 +5.9568525598e+02 +4.7312475698e+02 7.8208043946e+02 0.0000000000e+00 0.0000e+00 1.0000e+00
       13  1    1    2    0    0 -1.8155399728e+02 -5.9568525598e+02 +1.3471629666e+03 1.4841330253e+03 0.0000000000e+00 0.0000e+00 -1.0000e+00
<mgrwt>
<rscale>  0 0.13499171E+04</rscale>
<asrwt>0</asrwt>
<pdfrwt beam="1">  1        2 0.31434623E+00 0.13499171E+04</pdfrwt>
<pdfrwt beam="2">  1       -2 0.34301982E-01 0.13499171E+04</pdfrwt>
<totfact> 0.59874425E+01</totfact>
</mgrwt>
<rwgt>
<wgt id='morphing_basis_vector_1'> +1.7327252e-04 </wgt>
<wgt id='morphing_basis_vector_2'> +1.1537372e-04 </wgt>
<wgt id='morphing_basis_vector_3'> +1.7742210e-04 </wgt>
<wgt id='morphing_basis_vector_4'> +1.1413177e-04 </wgt>
<wgt id='morphing_basis_vector_5'> +1.8507052e-04 </wgt>
</rwgt>
</event>
<event>
 4      1 +3.5234200e-07 1.49625100e+03 7.81860800e-03 8.31714600e-02
        2 -1    0    0  501    0 +0.0000000000e+00 +0.0000000000e+00 +2.9679986168e+03 2.9679986168e+03 0.0000000000e+00 0.0000e+00 1.0000e+00
       -2 -1    0    0    0  501 -0.0000000000e+00 -0.0000000000e+00 -1.8857553726e+02 1.8857553726e+02 0.0000000000e+00 0.0000e+00 -1.0000e+00
      -13  1    1    2    0    0 +3.8930878186e+02 -6.0711852361e+02 +1.8091972795e+03 1.9476521829e+03 0.0000000000e+00 0.0000e+00 -1.0000e+00
       13  1    1    2    0    0 -3.8930878186e+02 +6.0711852361e+02 +9.7022580004e+02 1.2089219712e+03 0.0000000000e+00 0.0000e+00 1.0000e+00
<mgrwt>
<rscale>  0 0.14962512E+04</rscale>
<asrwt>0</asrwt>
<pdfrwt beam="1">  1        2 0.45661514E+00 0.14962512E+04</pdfrwt>
<pdfrwt beam="2">  1       -2 0.29011623E-01 0.14962512E+04</pdfrwt>
<totfact> 0.22397525E+01</totfact>
</mgrwt>
<rwgt>
<wgt id='morphing_basis_vector_1'> +2.7845784e-04 </wgt>
<wgt id='morphing_basis_vector_2'> +2.3577224e-04 </wgt>
<wgt id='morphing_basis_vector_3'> +2.9505907e-04 </wgt>
<wgt id='morphing_basis_vector_4'> +1.3565187e-04 </wgt>
<wgt id='morphing_basis_vector_5'> +2.8113971e-04 </wgt>
</rwgt>
</event>
<event>
 4      1 +3.5234200e-07 1.42041000e+03 7.81860800e-03 8.36274000e-02
        2 -1    0    0  501    0 +0.0000000000e+00 +0.0000000000e+00 +8.7956587296e+02 8.7956587296e+02 0.0000000000e+00 0.0000e+00 -1.0000e+00
       -2 -1    0    0    0  501 -0.0000000000e+00 -0.0000000000e+00 -5.7345502806e+02 5.7345502806e+02 0.0000000000e+00 0.0000e+00 1.0000e+00
      -13  1    1    2    0    0 +2.0428350366e+02 +7.3533263483e+01 +8.4478457819e+02 8.7223842741e+02 0.0000000000e+00 0.0000e+00 -1.0000e+00
       13  1    1    2    0    0 -2.0428350366e+02 -7.3533263483e+01 -5.3867373329e+02 5.8078247361e+02 0.0000000000e+00 0.0000e+00 1.0000e+00
<mgrwt>
<rscale>  0 0.14204105E+04</rscale>
<asrwt>0</asrwt>
<pdfrwt beam="1">  1        2 0.13531783E+00 0.14204105E+04</pdfrwt>
<pdfrwt beam="2">  1       -2 0.88223851E-01 0.14204105E+04</pdfrwt>
<totfact> 0.41017120E+01</totfact>
</mgrwt>
<rwgt>
<wgt id='morphing_basis_vector_1'> +2.8567786e-04 </wgt>
<wgt id='morphing_basis_vector_2'> +3.6495627e-04 </wgt>
<wgt id='morphing_basis_vector_3'> +3.1279266e-04 </wgt>
<wgt id='morphing_basis_vector_4'> +3.3997735e-06 </wgt>
<wgt id='morphing_basis_vector_5'> +2.1881846e-04 </wgt>
</rwgt>
</event>
<event>
 4      1 +3.5234200e-07 1.39376600e+03 7.81860800e-03 8.37946400e-02
        2 -1    0    0  501    0 +0.0000000000e+00 +0.0000000000e+00 +1.2743559890e+03 1.2743559890e+03 0.0000000000e+00 0.0000e+00 -1.0000e+00
       -2 -1    0    0    0  501 -0.0000000000e+00 -0.0000000000e+00 -3.8109132325e+02 3.8109132325e+02 0.0000000000e+00 0.0000e+00 1.0000e+00
      -13  1    1    2    0    0 +2.5375931002e+02 +5.4234141774e+02 +8.7010852224e+02 1.0562276465e+03 0.0000000000e+00 0.0000e+00 1.0000e+00
       13  1    1    2    0    0 -2.5375931002e+02 -5.4234141774e+02 +2.3156143505e+01 5.9921966573e+02 0.0000000000e+00 0.0000e+00 -1.0000e+00
<mgrwt>
<rscale>  0 0.13937661E+04</rscale>
<asrwt>0</asrwt>
<pdfrwt beam="1">  1        2 0.19605477E+00 0.13937661E+04</pdfrwt>
<pdfrwt beam="2">  1       -2 0.58629435E-01 0.13937661E+04</pdfrwt>
<totfact> 0.57438289E+01</totfact>
</mgrwt>
<rwgt>
<wgt id='morphing_basis_vector_1'> +2.3097415e-04 </wgt>
<wgt id='morphing_basis_vector_2'> +2.3570440e-04 </wgt>
<wgt id='morphing_basis_vector_3'> +2.4571542e-04 </wgt>
<wgt id='morphing_basis_vector_4'> +6.6376499e-05 </wgt>
<wgt id='morphing_basis_vector_5'> +2.0685859e-04 </wgt>
</rwgt>
</event>
<event>
 4      1 +3.5234200e-07 1.36102100e+03 7.81860800e-03 8.40056000e-02
        2 -1    0    0  501    0 +0.0000000000e+00 +0.0000000000e+00 +7.4930091464e+02 7.4930091464e+02 0.0000000000e+00 0.0000e+00 -1.0000e+00
       -2 -1    0    0    0  501 -0.0000000000e+00 -0.0000000000e+00 -6.1803569859e+02 6.1803569859e+02 0.0000000000e+00 0.0000e+00 1.0000e+00
      -13  1    1    2    0    0 -7.5555877682e+01 +6.0807439037e+02 -2.3176728319e+02 6.5511772105e+02 0.0000000000e+00 0.0000e+00 1.0000e+00
       13  1    1    2    0    0 +7.5555877682e+01 -6.0807439037e+02 +3.6303249924e+02 7.1221889218e+02 0.0000000000e+00 0.0000e+00 -1.0000e+00
<mgrwt>
<rscale>  0 0.13610213E+04</rscale>
<asrwt>0</asrwt>
<pdfrwt beam="1">  1        2 0.11527706E+00 0.13610213E+04</pdfrwt>
<pdfrwt beam="2">  1       -2 0.95082415E-01 0.13610213E+04</pdfrwt>
<totfact> 0.42554274E+01</totfact>
</mgrwt>
<rwgt>
<wgt id='morphing_basis_vector_1'> +1.7850787e-04 </wgt>
<wgt id='morphing_basis_vector_2'> +1.1828422e-04 </wgt>
<wgt id='morphing_basis_vector_3'> +1.8295690e-04 </wgt>
<wgt id='morphing_basis_vector_4'> +1.1861331e-04 </wgt>
<wgt id='morphing_basis_vector_5'> +1.9155384e-04 </wgt>
</rwgt>
</event>
<event>
 4      1 +3.5234200e-07 1.49096100e+03 7.81860800e-03 8.32023500e-02
        2 -1    0    0  501    0 +0.0000000000e+00 +0.0000000000e+00 +9.6409509778e+02 9.6409509778e+02 0.0000000000e+00 0.0000e+00 1.0000e+00
       -2 -1    0    0    0  501 -0.0000000000e+00 -0.0000000000e+00 -5.7643783158e+02 5.7643783158e+02 0.0000000000e+00 0.0000e+00 -1.0000e+00
      -13  1    1    2    0    0 -4.1590147958e+02 +1.8613203318e+02 -4.1580703871e+02 6.1685870987e+02 0.0000000000e+00 0.0000e+00 -1.0000e+00
       13  1    1    2    0    0 +4.1590147958e+02 -1.8613203318e+02 +8.0346430491e+02 9.2367421949e+02 0.0000000000e+00 0.0000e+00 1.0000e+00
<mgrwt>
<rscale>  0 0.14909606E+04</rscale>
<asrwt>0</asrwt>
<pdfrwt beam="1">  1        2 0.14832232E+00 0.14909606E+04</pdfrwt>
<pdfrwt beam="2">  1       -2 0.88682743E-01 0.14909606E+04</pdfrwt>
<totfact> 0.35524070E+01</totfact>
</mgrwt>
<rwgt>
<wgt id='morphing_basis_vector_1'> +2.5202981e-04 </wgt>
<wgt id='morphing_basis_vector_2'> +1.6500654e-04 </wgt>
<wgt id='morphing_basis_vector_3'> +2.6132032e-04 </wgt>
<wgt id='morphing_basis_vector_4'> +1.7586476e-04 </wgt>
<wgt id='morphing_basis_vector_5'> +2.8016720e-04 </wgt>
</rwgt>
</event>
<event>
 4      1 +3.5234200e-07 1.44482300e+03 7.81860800e-03 8.34774700e-02
        2 -1    0    0  501    0 +0.0000000000e+00 +0.0000000000e+00 +1.6363586352e+03 1.6363586352e+03 0.0000000000e+00 0.0000e+00 -1.0000e+00
       -2 -1    0    0    0  501 -0.0000000000e+00 -0.0000000000e+00 -3.1892674703e+02 3.1892674703e+02 0.0000000000e+00 0.0000e+00 1.0000e+00
      -13  1    1    2    0    0 +6.1996385715e+02 -1.7853402269e+02 +2.1884219691e+02 6.8126462449e+02 0.0000000000e+00 0.0000e+00 1.0000e+00
       13  1    1    2    0    0 -6.1996385715e+02 +1.7853402269e+02 +1.0985896913e+03 1.2740207577e+03 0.0000000000e+00 0.0000e+00 -1.0000e+00
<mgrwt>
<rscale>  0 0.14448232E+04</rscale>
<asrwt>0</asrwt>
<pdfrwt beam="1">  1        2 0.25174748E+00 0.14448232E+04</pdfrwt>
<pdfrwt beam="2">  1       -2 0.49065654E-01 0.14448232E+04</pdfrwt>
<totfact> 0.51069957E+01</totfact>
</mgrwt>
<rwgt>
<wgt id='morphing_basis_vector_1'> +2.2443704e-04 </wgt>
<wgt id='morphing_basis_vector_2'> +1.4925310e-04 </wgt>
<wgt id='morphing_basis_vector_3'> +2.3203414e-04 </wgt>
<wgt id='morphing_basis_vector_4'> +1.5225306e-04 </wgt>
<wgt id='morphing_basis_vector_5'> +2.4572875e-04 </wgt>
</rwgt>
</event>
<event>
 4      1 +3.5234200e-07 1.36240300e+03 7.81860800e-03 8.39965700e-02
        2 -1    0    0  501    0 +0.0000000000e+00 +0.0000000000e+00 +1.2232050682e+03 1.2232050682e+03 0.0000000000e+00 0.0000e+00 -1.0000e+00
       -2 -1    0    0    0  501 -0.0000000000e+00 -0.0000000000e+00 -3.7936027210e+02 3.7936027210e+02 0.0000000000e+00 0.0000e+00 1.0000e+00
      -13  1    1    2    0    0 +8.8986256032e+01 -2.8210192257e+02 -2.9987127817e+02 4.2121589708e+02 0.0000000000e+00 0.0000e+00 1.0000e+00
       13  1    1    2    0    0 -8.8986256032e+01 +2.8210192257e+02 +1.1437160743e+03 1.1813494433e+03 0.0000000000e+00 0.0000e+00 -1.0000e+00
<mgrwt>
<rscale>  0 0.13624029E+04</rscale>
<asrwt>0</asrwt>
<pdfrwt beam="1">  1        2 0.18818539E+00 0.13624029E+04</pdfrwt>
<pdfrwt beam="2">  1       -2 0.58363119E-01 0.13624029E+04</pdfrwt>
<totfact> 0.62212186E+01</totfact>
</mgrwt>
<rwgt>
<wgt id='morphing_basis_vector_1'> +1.7813092e-04 </wgt>
<wgt id='morphing_basis_vector_2'> +1.1555042e-04 </wgt>
<wgt id='morphing_basis_vector_3'> +1.8236797e-04 </wgt>
<wgt id='morphing_basis_vector_4'> +1.2105427e-04 </wgt>
<wgt id='morphing_basis_vector_5'> +1.9250674e-04 </wgt>
</rwgt>
</event>
<event>
 4      1 +3.5234200e-07 1.39800700e+03 7.81860800e-03 8.37677600e-02
        2 -1    0    0  501    0 +0.0000000000e+00 +0.0000000000e+00 +5.5246129538e+02 5.5246129538e+02 0.0000000000e+00 0.0000e+00 -1.0000e+00
       -2 -1    0    0    0  501 -0.0000000000e+00 -0.0000000000e+00 -8.8441710619e+02 8.8441710619e+02 0.0000000000e+00 0.0000e+00 1.0000e+00
      -13  1    1    2    0    0 -5.1755181705e+01 +1.6174490915e+02 -8.6289167982e+02 8.7944417991e+02 0.0000000000e+00 0.0000e+00 1.0000e+00
       13  1    1    2    0    0 +5.1755181705e+01 -1.6174490915e+02 +5.3093586901e+02 5.5743422165e+02 0.0000000000e+00 0.0000e+00 -1.0000e+00
<mgrwt>
<rscale>  0 0.13980075E+04</rscale>
<asrwt>0</asrwt>
<pdfrwt beam="1">  1        2 0.84994046E-01 0.13980075E+04</pdfrwt>
<pdfrwt beam="2">  1       -2 0.13606417E+00 0.13980075E+04</pdfrwt>
<totfact> 0.24581142E+01</totfact>
</mgrwt>
<rwgt>
<wgt id='morphing_basis_vector_1'> +1.9663068e-04 </wgt>
<wgt id='morphing_basis_vector_2'> +1.2780153e-04 </wgt>
<wgt id='morphing_basis_vector_3'> +2.0207205e-04 </wgt>
<wgt id='morphing_basis_vector_4'> +1.3482181e-04 </wgt>
<wgt id='morphing_basis_vector_5'> +2.1439160e-04 </wgt>
</rwgt>
</event>
<event>
 4      1 +3.5234200e-07 1.39229300e+03 7.81860800e-03 8.38040000e-02
        2 -1    0    0  501    0 +0.0000000000e+00 +0.0000000000e+00 +2.1295296889e+03 2.1295296889e+03 0.0000000000e+00 0.0000e+00 1.0000e+00
       -2 -1    0    0    0  501 -0.0000000000e+00 -0.0000000000e+00 -2.2757149792e+02 2.2757149792e+02 0.0000000000e+00 0.0000e+00 -1.0000e+00
      -13  1    1    2    0    0 +5.4819775114e+02 -4.2381010673e+02 +1.0643504942e+03 1.2700306120e+03 0.0000000000e+00 0.0000e+00 -1.0000e+00
       13  1    1    2    0    0 -5.4819775114e+02 +4.2381010673e+02 +8.3760769675e+02 1.0870705748e+03 0.0000000000e+00 0.0000e+00 1.0000e+00
<mgrwt>
<rscale>  0 0.13922934E+04</rscale>
<asrwt>0</asrwt>
<pdfrwt beam="1">  1        2 0.32761994E+00 0.13922934E+04</pdfrwt>
<pdfrwt beam="2">  1       -2 0.35011001E-01 0.13922934E+04</pdfrwt>
<totfact> 0.51391209E+01</totfact>
</mgrwt>
<rwgt>
<wgt id='morphing_basis_vector_1'> +2.0343330e-04 </wgt>
<wgt id='morphing_basis_vector_2'> +1.5524916e-04 </wgt>
<wgt id='morphing_basis_vector_3'> +2.1121082e-04 </wgt>
<wgt id='morphing_basis_vector_4'> +1.1456241e-04 </wgt>
<wgt id='morphing_basis_vector_5'> +2.0945999e-04 </wgt>
</rwgt>
</event>
<event>
 4      1 +3.5234200e-07 1.49271700e+03 7.81860800e-03 8.31920700e-02
        2 -1    0    0  501    0 +0.0000000000e+00 +0.0000000000e+00 +3.6965951542e+03 3.6965951542e+03 0.0000000000e+00 0.0000e+00 -1.0000e+00
       -2 -1    0    0    0  501 -0.0000000000e+00 -0.0000000000e+00 -1.5069309997e+02 1.5069309997e+02 0.0000000000e+00 0.0000e+00 1.0000e+00
      -13  1    1    2    0    0 -6.3166140998e+02 -2.1587313542e+02 +9.1250228939e+02 1.1306006260e+03 0.0000000000e+00 0.0000e+00 1.0000e+00
       13  1    1    2    0    0 +6.3166140998e+02 +2.1587313542e+02 +2.6333997648e+03 2.7166876281e+03 0.0000000000e+00 0.0000e+00 -1.0000e+00
<mgrwt>
<rscale>  0 0.14927175E+04</rscale>
<asrwt>0</asrwt>
<pdfrwt beam="1">  1        2 0.56870688E+00 0.14927175E+04</pdfrwt>
<pdfrwt beam="2">  1       -2 0.23183557E-01 0.14927175E+04</pdfrwt>
<totfact> 0.10249024E+01</totfact>
</mgrwt>
<rwgt>
<wgt id='morphing_basis_vector_1'> +2.5450358e-04 </wgt>
<wgt id='morphing_basis_vector_2'> +1.6972747e-04 </wgt>
<wgt id='morphing_basis_vector_3'> +2.6428201e-04 </wgt>
<wgt id='morphing_basis_vector_4'> +1.7425315e-04 </wgt>
<wgt id='morphing_basis_vector_5'> +2.8135586e-04 </wgt>
</rwgt>
</event>
<event>
 4      1 +3.5234200e-07 1.30241500e+03 7.81860800e-03 8.43990700e-02
        2 -1    0    0  501    0 +0.0000000000e+00 +0.0000000000e+00 +3.5075146269e+02 3.5075146269e+02 0.0000000000e+00 0.0000e+00 -1.0000e+00
       -2 -1    0    0    0  501 -0.0000000000e+00 -0.0000000000e+00 -1.2090367593e+03 1.2090367593e+03 0.0000000000e+00 0.0000e+00 1.0000e+00
      -13  1    1    2    0    0 -2.5112703877e+02 -3.0215989498e+02 -1.0511012279e+03 1.1221315356e+03 0.0000000000e+00 0.0000e+00 1.0000e+00
       13  1    1    2    0    0 +2.5112703877e+02 +3.0215989498e+02 +1.9281593137e+02 4.3765668637e+02 0.0000000000e+00 0.0000e+00 -1.0000e+00
<mgrwt>
<rscale>  0 0.13024153E+04</rscale>
<asrwt>0</asrwt>
<pdfrwt beam="1">  1        2 0.53961763E-01 0.13024153E+04</pdfrwt>
<pdfrwt beam="2">  1       -2 0.18600566E+00 0.13024153E+04</pdfrwt>
<totfact> 0.16483190E+01</totfact>
</mgrwt>
<rwgt>
<wgt id='morphing_basis_vector_1'> +1.5002511e-04 </wgt>
<wgt id='morphing_basis_vector_2'> +9.7041739e-05 </wgt>
<wgt id='morphing_basis_vector_3'> +1.5251925e-04 </wgt>
<wgt id='morphing_basis_vector_4'> +1.0019067e-04 </wgt>
<wgt id='morphing_basis_vector_5'> +1.5942353e-04 </wgt>
</rwgt>
</event>
<event>
 4      1 +3.5234200e-07 1.44854100e+03 7.81860800e-03 8.34549100e-02
        2 -1    0    0  501    0 +0.0000000000e+00 +0.0000000000e+00 +8.2301640448e+02 8.2301640448e+02 0.0000000000e+00 0.0000e+00 1.0000e+00
       -2 -1    0    0    0  501 -0.0000000000e+00 -0.0000000000e+00 -6.3737255369e+02 6.3737255369e+02 0.0000000000e+00 0.0000e+00 -1.0000e+00
      -13  1    1    2    0    0 -2.8555596910e+02 -5.9673887340e+02 -2.0442604305e+02 6.9240847886e+02 0.0000000000e+00 0.0000e+00 -1.0000e+00
       13  1    1    2    0    0 +2.8555596910e+02 +5.9673887340e+02 +3.9006989384e+02 7.6798047931e+02 0.0000000000e+00 0.0000e+00 1.0000e+00
<mgrwt>
<rscale>  0 0.14485414E+04</rscale>
<asrwt>0</asrwt>
<pdfrwt beam="1">  1        2 0.12661791E+00 0.14485414E+04</pdfrwt>
<pdfrwt beam="2">  1       -2 0.98057316E-01 0.14485414E+04</pdfrwt>
<totfact> 0.34836398E+01</totfact>
</mgrwt>
<rwgt>
<wgt id='morphing_basis_vector_1'> +2.2696298e-04 </wgt>
<wgt id='morphing_basis_vector_2'> +1.5164822e-04 </wgt>
<wgt id='morphing_basis_vector_3'> +2.3480327e-04 </wgt>
<wgt id='morphing_basis_vector_4'> +1.5334093e-04 </wgt>
<wgt id='morphing_basis_vector_5'> +2.4832813e-04 </wgt>
</rwgt>
</event>
<event>
 4      1 +3.5234200e-07 1.34802700e+03 7.81860800e-03 8.40910300e-02
        2 -1    0    0  501    0 +0.0000000000e+00 +0.0000000000e+00 +6.1348566752e+02 6.1348566752e+02 0.0000000000e+00 0.0000e+00 1.0000e+00
       -2 -1    0    0    0  501 -0.0000000000e+00 -0.0000000000e+00 -7.4051323695e+02 7.4051323695e+02 0.0000000000e+00 0.0000e+00 -1.0000e+00
      -13  1    1    2    0    0 -3.5086686129e+02 +5.4189217916e+02 -2.5812341898e+02 6.9525706585e+02 0.0000000000e+00 0.0000e+00 -1.0000e+00
       13  1    1    2    0    0 +3.5086686129e+02 -5.4189217916e+02 +1.3109584955e+02 6.5874183862e+02 0.0000000000e+00 0.0000e+00 1.0000e+00
<mgrwt>
<rscale>  0 0.13480271E+04</rscale>
<asrwt>0</asrwt>
<pdfrwt beam="1">  1        2 0.94382411E-01 0.13480271E+04</pdfrwt>
<pdfrwt beam="2">  1       -2 0.11392511E+00 0.13480271E+04</pdfrwt>
<totfact> 0.34864919E+01</totfact>
</mgrwt>
<rwgt>
<wgt id='morphing_basis_vector_1'> +1.7306062e-04 </wgt>
<wgt id='morphing_basis_vector_2'> +1.1687979e-04 </wgt>
<wgt id='morphing_basis_vector_3'> +1.7731505e-04 </wgt>
<wgt id='morphing_basis_vector_4'> +1.1217953e-04 </wgt>
<wgt id='morphing_basis_vector_5'> +1.8389745e-04 </wgt>
</rwgt>
</event>
<event>
 4      1 +3.5234200e-07 1.41642900e+03 7.81860800e-03 8.36521500e-02
        2 -1    0    0  501    0 +0.0000000000e+00 +0.0000000000e+00 +1.0553115380e+03 1.0553115380e+03 0.0000000000e+00 0.0000e+00 -1.0000e+00
       -2 -1    0    0    0  501 -0.0000000000e+00 -0.0000000000e+00 -4.7527902332e+02 4.7527902332e+02 0.0000000000e+00 0.0000e+00 1.0000e+00
      -13  1    1    2    0    0 -4.2512284228e+02 +5.2567842412e+02 +6.2063236295e+01 6.7891021639e+02 0.0000000000e+00 0.0000e+00 1.0000e+00
       13  1    1    2    0    0 +4.2512284228e+02 -5.2567842412e+02 +5.1796927838e+02 8.5168034494e+02 0.0000000000e+00 0.0000e+00 -1.0000e+00
<mgrwt>
<rscale>  0 0.14164285E+04</rscale>
<asrwt>0</asrwt>
<pdfrwt beam="1">  1        2 0.16235562E+00 0.14164285E+04</pdfrwt>
<pdfrwt beam="2">  1       -2 0.73119850E-01 0.14164285E+04</pdfrwt>
<totfact> 0.48547237E+01</totfact>
</mgrwt>
<rwgt>
<wgt id='morphing_basis_vector_1'> +2.0912618e-04 </wgt>
<wgt id='morphing_basis_vector_2'> +1.4158648e-04 </wgt>
<wgt id='morphing_basis_vector_3'> +2.1588150e-04 </wgt>
<wgt id='morphing_basis_vector_4'> +1.3804250e-04 </wgt>
<wgt id='morphing_basis_vector_5'> +2.2609440e-04 </wgt>
</rwgt>
</event>
<event>
 4      1 +3.5234200e-07 1.37758900e+03 7.81860800e-03 8.38980900e-02
        2 -1    0    0  501    0 +0.0000000000e+00 +0.0000000000e+00 +3.1538134327e+03 3.1538134327e+03 0.0000000000e+00 0.0000e+00 -1.0000e+00
       -2 -1    0    0    0  501 -0.0000000000e+00 -0.0000000000e+00 -1.5043316140e+02 1.5043316140e+02 0.0000000000e+00 0.0000e+00 1.0000e+00
      -13  1    1    2    0    0 -4.2488237001e+02 -5.0103613474e+02 +1.0050300818e+03 1.2006863462e+03 0.0000000000e+00 0.0000e+00 1.0000e+00
       13  1    1    2    0    0 +4.2488237001e+02 +5.0103613474e+02 +1.9983501894e+03 2.1035602478e+03 0.0000000000e+00 0.0000e+00 -1.0000e+00
<mgrwt>
<rscale>  0 0.13775894E+04</rscale>
<asrwt>0</asrwt>
<pdfrwt beam="1">  1        2 0.48520202E+00 0.13775894E+04</pdfrwt>
<pdfrwt beam="2">  1       -2 0.23143566E-01 0.13775894E+04</pdfrwt>
<totfact> 0.25341920E+01</totfact>
</mgrwt>
<rwgt>
<wgt id='morphing_basis_vector_1'> +1.8793439e-04 </wgt>
<wgt id='morphing_basis_vector_2'> +1.2688640e-04 </wgt>
<wgt id='morphing_basis_vector_3'> +1.9318857e-04 </wgt>
<wgt id='morphing_basis_vector_4'> +1.2301196e-04 </wgt>
<wgt id='morphing_basis_vector_5'> +2.0135586e-04 </wgt>
</rwgt>
</event>
<event>
 4      1 +3.5234200e-07 1.50003000e+03 7.81860800e-03 8.31494800e-02
        2 -1    0    0  501    0 +0.0000000000e+00 +0.0000000000e+00 +1.8181438476e+03 1.8181438476e+03 0.0000000000e+00 0.0000e+00 -1.0000e+00
       -2 -1    0    0    0  501 -0.0000000000e+00 -0.0000000000e+00 -3.0939368425e+02 3.0939368425e+02 0.0000000000e+00 0.0000e+00 1.0000e+00
      -13  1    1    2    0    0 -2.0764592281e+02 +6.8587300078e+02 +4.4046675529e+02 8.4115965486e+02 0.0000000000e+00 0.0000e+00 1.0000e+00
       13  1    1    2    0    0 +2.0764592281e+02 -6.8587300078e+02 +1.0682834081e+03 1.2863778770e+03 0.0000000000e+00 0.0000e+00 -1.0000e+00
<mgrwt>
<rscale>  0 0.15000296E+04</rscale>
<asrwt>0</asrwt>
<pdfrwt beam="1">  1        2 0.27971443E+00 0.15000296E+04</pdfrwt>
<pdfrwt beam="2">  1       -2 0.47599029E-01 0.15000296E+04</pdfrwt>
<totfact> 0.42741209E+01</totfact>
</mgrwt>
<rwgt>
<wgt id='morphing_basis_vector_1'> +2.6083835e-04 </wgt>
<wgt id='morphing_basis_vector_2'> +1.7746722e-04 </wgt>
<wgt id='morphing_basis_vector_3'> +2.7143538e-04 </wgt>
<wgt id='morphing_basis_vector_4'> +1.7503133e-04 </wgt>
<wgt id='morphing_basis_vector_5'> +2.8690800e-04 </wgt>
</rwgt>
</event>
<event>
 4      1 +3.5234200e-07 1.36074300e+03 7.81860800e-03 8.40074200e-02
        2 -1    0    0  501    0 +0.0000000000e+00 +0.0000000000e+00 +7.7955319747e+02 7.7955319747e+02 0.0000000000e+00 0.0000e+00 1.0000e+00
       -2 -1    0    0    0  501 -0.0000000000e+00 -0.0000000000e+00 -5.9380836052e+02 5.9380836052e+02 0.0000000000e+00 0.0000e+00 -1.0000e+00
      -13  1    1    2    0    0 -6.3587031554e+02 +1.5397451835e+02 -9.5583549134e+01 6.6119242687e+02 0.0000000000e+00 0.0000e+00 -1.0000e+00
       13  1    1    2    0    0 +6.3587031554e+02 -1.5397451835e+02 +2.8132838608e+02 7.1216913111e+02 0.0000000000e+00 0.0000e+00 1.0000e+00
<mgrwt>
<rscale>  0 0.13607427E+04</rscale>
<asrwt>0</asrwt>
<pdfrwt beam="1">  1        2 0.11993126E+00 0.13607427E+04</pdfrwt>
<pdfrwt beam="2">  1       -2 0.91355132E-01 0.13607427E+04</pdfrwt>
<totfact> 0.44472660E+01</totfact>
</mgrwt>
<rwgt>
<wgt id='morphing_basis_vector_1'> +1.7951256e-04 </wgt>
<wgt id='morphing_basis_vector_2'> +1.2161166e-04 </wgt>
<wgt id='morphing_basis_vector_3'> +1.8422687e-04 </wgt>
<wgt id='morphing_basis_vector_4'> +1.1644362e-04 </wgt>
<wgt id='morphing_basis_vector_5'> +1.9124163e-04 </wgt>
</rwgt>
</event>
<event>
 4      1 +3.5234200e-07 1.45907200e+03 7.81860800e-03 8.33913800e-02
        2 -1    0    0  501    0 +0.0000000000e+00 +0.0000000000e+00 +2.3577554261e+03 2.3577554261e+03 0.0000000000e+00 0.0000e+00 1.0000e+00
       -2 -1    0    0    0  501 -0.0000000000e+00 -0.0000000000e+00 -2.2573291188e+02 2.2573291188e+02 0.0000000000e+00 0.0000e+00 -1.0000e+00
      -13  1    1    2    0    0 -4.8121917748e+02 -3.7514101092e+02 +3.5793257326e+02 7.0740257410e+02 0.0000000000e+00 0.0000e+00 -1.0000e+00
       13  1    1    2    0    0 +4.8121917748e+02 +3.7514101092e+02 +1.7740899410e+03 1.8760857639e+03 0.0000000000e+00 0.0000e+00 1.0000e+00
<mgrwt>
<rscale>  0 0.14590723E+04</rscale>
<asrwt>0</asrwt>
<pdfrwt beam="1">  1        2 0.36273159E+00 0.14590723E+04</pdfrwt>
<pdfrwt beam="2">  1       -2 0.34728142E-01 0.14590723E+04</pdfrwt>
<totfact> 0.38364824E+01</totfact>
</mgrwt>
<rwgt>
<wgt id='morphing_basis_vector_1'> +2.3254326e-04 </wgt>
<wgt id='morphing_basis_vector_2'> +1.5352586e-04 </wgt>
<wgt id='morphing_basis_vector_3'> +2.4060281e-04 </wgt>
<wgt id='morphing_basis_vector_4'> +1.5956900e-04 </wgt>
<wgt id='morphing_basis_vector_5'> +2.5603010e-04 </wgt>
</rwgt>
</event>
<event>
 4      1 +3.5234200e-07 1.35678100e+03 7.81860800e-03 8.40333600e-02
        2 -1    0    0  501    0 +0.0000000000e+00 +0.0000000000e+00 +2.4992666582e+03 2.4992666582e+03 0.0000000000e+00 0.0000e+00 1.0000e+00
       -2 -1    0    0    0  501 -0.0000000000e+00 -0.0000000000e+00 -1.8413952412e+02 1.8413952412e+02 0.0000000000e+00 0.0000e+00 -1.0000e+00
      -13  1    1    2    0    0 +6.0020162470e+02 +2.8944441049e+02 +9.0588288972e+02 1.1245638563e+03 0.0000000000e+00 0.0000e+00 -1.0000e+00
       13  1    1    2    0    0 -6.0020162470e+02 -2.8944441049e+02 +1.4092442444e+03 1.5588423260e+03 0.0000000000e+00 0.0000e+00 1.0000e+00
<mgrwt>
<rscale>  0 0.13567812E+04</rscale>
<asrwt>0</asrwt>
<pdfrwt beam="1">  1        2 0.38450254E+00 0.13567812E+04</pdfrwt>
<pdfrwt beam="2">  1       -2 0.28329159E-01 0.13567812E+04</pdfrwt>
<totfact> 0.46008797E+01</totfact>
</mgrwt>
<rwgt>
<wgt id='morphing_basis_vector_1'> +1.7845108e-04 </wgt>
<wgt id='morphing_basis_vector_2'> +1.2301681e-04 </wgt>
<wgt id='morphing_basis_vector_3'> +1.8324993e-04 </wgt>
<wgt id='morphing_basis_vector_4'> +1.1335509e-04 </wgt>
<wgt id='morphing_basis_vector_5'> +1.8880542e-04 </wgt>
</rwgt>
</event>
<event>
 4      1 +3.5234200e-07 1.36854000e+03 7.81860800e-03 8.39566100e-02
        2 -1    0    0  501    0 +0.0000000000e+00 +0.0000000000e+00 +5.0569434477e+02 5.0569434477e+02 0.0000000000e+00 0.0000e+00 -1.0000e+00
       -2 -1    0    0    0  501 -0.0000000000e+00 -0.0000000000e+00 -9.2590655346e+02 9.2590655346e+02 0.0000000000e+00 0.0000e+00 1.0000e+00
      -13  1    1    2    0    0 -5.7776724932e+02 -3.6497678248e+02 -1.7382871012e+02 7.0515208757e+02 0.0000000000e+00 0.0000e+00 1.0000e+00
       13  1    1    2    0    0 +5.7776724932e+02 +3.6497678248e+02 -2.4638349857e+02 7.2644881066e+02 0.0000000000e+00 0.0000e+00 -1.0000e+00
<mgrwt>
<rscale>  0 0.13685404E+04</rscale>
<asrwt>0</asrwt>
<pdfrwt beam="1">  1        2 0.77799130E-01 0.13685404E+04</pdfrwt>
<pdfrwt beam="2">  1       -2 0.14244716E+00 0.13685404E+04</pdfrwt>
<totfact> 0.24034801E+01</totfact>
</mgrwt>
<rwgt>
<wgt id='morphing_basis_vector_1'> +1.8907714e-04 </wgt>
<wgt id='morphing_basis_vector_2'> +1.4108122e-04 </wgt>
<wgt id='morphing_basis_vector_3'> +1.9543171e-04 </wgt>
<wgt id='morphing_basis_vector_4'> +1.0912243e-04 </wgt>
<wgt id='morphing_basis_vector_5'> +1.9513216e-04 </wgt>
</rwgt>
</event>
<event>
 4      1 +3.5234200e-07 1.53490200e+03 7.81860800e-03 8.29497400e-02
        2 -1    0    0  501    0 +0.0000000000e+00 +0.0000000000e+00 +2.4466813424e+03 2.4466813424e+03 0.0000000000e+00 0.0000e+00 -1.0000e+00
       -2 -1    0    0    0  501 -0.0000000000e+00 -0.0000000000e+00 -2.4072657464e+02 2.4072657464e+02 0.0000000000e+00 0.0000e+00 1.0000e+00
      -13  1    1    2    0    0 +1.2687583960e+02 +7.5411275855e+02 +1.2164152179e+03 1.4368192348e+03 0.0000000000e+00 0.0000e+00 -1.0000e+00
       13  1    1    2    0    0 -1.2687583960e+02 -7.5411275855e+02 +9.8953954992e+02 1.2505886822e+03 0.0000000000e+00 0.0000e+00 1.0000e+00
<mgrwt>
<rscale>  0 0.15349022E+04</rscale>
<asrwt>0</asrwt>
<pdfrwt beam="1">  1        2 0.37641250E+00 0.15349022E+04</pdfrwt>
<pdfrwt beam="2">  1       -2 0.37034859E-01 0.15349022E+04</pdfrwt>
<totfact> 0.30052919E+01</totfact>
</mgrwt>
<rwgt>
<wgt id='morphing_basis_vector_1'> +2.9561406e-04 </wgt>
<wgt id='morphing_basis_vector_2'> +2.2573876e-04 </wgt>
<wgt id='morphing_basis_vector_3'> +3.1150184e-04 </wgt>
<wgt id='morphing_basis_vector_4'> +1.7263226e-04 </wgt>
<wgt id='morphing_basis_vector_5'> +3.1407732e-04 </wgt>
</rwgt>
</event>
<event>
 4      1 +3.5234200e-07 1.51271700e+03 7.81860800e-03 8.30761700e-02
        2 -1    0    0  501    0 +0.0000000000e+00 +0.0000000000e+00 +9.0780884212e+02 9.0780884212e+02 0.0000000000e+00 0.0000e+00 1.0000e+00
       -2 -1    0    0    0  501 -0.0000000000e+00 -0.0000000000e+00 -6.3017447891e+02 6.3017447891e+02 0.0000000000e+00 0.0000e+00 -1.0000e+00
      -13  1    1    2    0    0 -6.4920159458e+02 -1.2738129952e+02 +5.1153169007e+02 8.3627350538e+02 0.0000000000e+00 0.0000e+00 1.0000e+00
       13  1    1    2    0    0 +6.4920159458e+02 +1.2738129952e+02 -2.3389732686e+02 7.0170981565e+02 0.0000000000e+00 0.0000e+00 -1.0000e+00
<mgrwt>
<rscale>  0 0.15127167E+04</rscale>
<asrwt>0</asrwt>
<pdfrwt beam="1">  1        2 0.13966290E+00 0.15127167E+04</pdfrwt>
<pdfrwt beam="2">  1       -2 0.96949919E-01 0.15127167E+04</pdfrwt>
<totfact> 0.31253025E+01</totfact>
</mgrwt>
<rwgt>
<wgt id='morphing_basis_vector_1'> +3.1313753e-04 </wgt>
<wgt id='morphing_basis_vector_2'> +3.1361884e-04 </wgt>
<wgt id='morphing_basis_vector_3'> +3.3814113e-04 </wgt>
<wgt id='morphing_basis_vector_4'> +9.9532097e-05 </wgt>
<wgt id='morphing_basis_vector_5'> +2.9102248e-04 </wgt>
</rwgt>
</event>
<event>
 4      1 +3.5234200e-07 1.48089500e+03 7.81860800e-03 8.32614800e-02
        2 -1    0    0  501    0 +0.0000000000e+00 +0.0000000000e+00 +8.2879750514e+02 8.2879750514e+02 0.0000000000e+00 0.0000e+00 1.0000e+00
       -2 -1    0    0    0  501 -0.0000000000e+00 -0.0000000000e+00 -6.6151547745e+02 6.6151547745e+02 0.0000000000e+00 0.0000e+00 -1.0000e+00
      -13  1    1    2    0    0 -2.2032779376e+02 -4.5747887876e+02 -4.5870298448e+02 6.8428041707e+02 0.0000000000e+00 0.0000e+00 -1.0000e+00
       13  1    1    2    0    0 +2.2032779376e+02 +4.5747887876e+02 +6.2598501217e+02 8.0603256552e+02 0.0000000000e+00 0.0000e+00 1.0000e+00
<mgrwt>
<rscale>  0 0.14808948E+04</rscale>
<asrwt>0</asrwt>
<pdfrwt beam="1">  1        2 0.12750731E+00 0.14808948E+04</pdfrwt>
<pdfrwt beam="2">  1       -2 0.10177161E+00 0.14808948E+04</pdfrwt>
<totfact> 0.31473805E+01</totfact>
</mgrwt>
<rwgt>
<wgt id='morphing_basis_vector_1'> +2.4564276e-04 </wgt>
<wgt id='morphing_basis_vector_2'> +1.6099671e-04 </wgt>
<wgt id='morphing_basis_vector_3'> +2.5450414e-04 </wgt>
<wgt id='morphing_basis_vector_4'> +1.7079267e-04 </wgt>
<wgt id='morphing_basis_vector_5'> +2.7238820e-04 </wgt>
</rwgt>
</event>
<event>
 4      1 +3.5234200e-07 1.36686800e+03 7.81860800e-03 8.39674800e-02
        2 -1    0    0  501    0 +0.0000000000e+00 +0.0000000000e+00 +1.9704860466e+03 1.9704860466e+03 0.0000000000e+00 0.0000e+00 1.0000e+00
       -2 -1    0    0    0  501 -0.0000000000e+00 -0.0000000000e+00 -2.3703895066e+02 2.3703895066e+02 0.0000000000e+00 0.0000e+00 -1.0000e+00
      -13  1    1    2    0    0 +2.7172236529e+02 -4.3184234885e+02 +1.3235596514e+02 5.2710431564e+02 0.0000000000e+00 0.0000e+00 -1.0000e+00
       13  1    1    2    0    0 -2.7172236529e+02 +4.3184234885e+02 +1.6010911309e+03 1.6804206817e+03 0.0000000000e+00 0.0000e+00 1.0000e+00
<mgrwt>
<rscale>  0 0.13668679E+04</rscale>
<asrwt>0</asrwt>
<pdfrwt beam="1">  1        2 0.30315169E+00 0.13668679E+04</pdfrwt>
<pdfrwt beam="2">  1       -2 0.36467532E-01 0.13668679E+04</pdfrwt>
<totfact> 0.58739869E+01</totfact>
</mgrwt>
<rwgt>
<wgt id='morphing_basis_vector_1'> +1.8064923e-04 </wgt>
<wgt id='morphing_basis_vector_2'> +1.1785543e-04 </wgt>
<wgt id='morphing_basis_vector_3'> +1.8509700e-04 </wgt>
<wgt id='morphing_basis_vector_4'> +1.2222471e-04 </wgt>
<wgt id='morphing_basis_vector_5'> +1.9512059e-04 </wgt>
</rwgt>
</event>
<event>
 4      1 +3.5234200e-07 1.33731700e+03 7.81860800e-03 8.41622100e-02
        2 -1    0    0  501    0 +0.0000000000e+00 +0.0000000000e+00 +5.7753903917e+02 5.7753903917e+02 0.0000000000e+00 0.0000e+00 1.0000e+00
       -2 -1    0    0    0  501 -0.0000000000e+00 -0.0000000000e+00 -7.7415370375e+02 7.7415370375e+02 0.0000000000e+00 0.0000e+00 -1.0000e+00
      -13  1    1    2    0    0 +4.8001762059e+02 +5.7842373924e+01 -5.6516147242e+02 7.4375408987e+02 0.0000000000e+00 0.0000e+00 -1.0000e+00
       13  1    1    2    0    0 -4.8001762059e+02 -5.7842373924e+01 +3.6854680784e+02 6.0793865305e+02 0.0000000000e+00 0.0000e+00 1.0000e+00
<mgrwt>
<rscale>  0 0.13373167E+04</rscale>
<asrwt>0</asrwt>
<pdfrwt beam="1">  1        2 0.88852160E-01 0.13373167E+04</pdfrwt>
<pdfrwt beam="2">  1       -2 0.11910057E+00 0.13373167E+04</pdfrwt>
<totfact> 0.33425352E+01</totfact>
</mgrwt>
<rwgt>
<wgt id='morphing_basis_vector_1'> +1.6610625e-04 </wgt>
<wgt id='morphing_basis_vector_2'> +1.0804141e-04 </wgt>
<wgt id='morphing_basis_vector_3'> +1.6961379e-04 </wgt>
<wgt id='morphing_basis_vector_4'> +1.1165544e-04 </wgt>
<wgt id='morphing_basis_vector_5'> +1.7808720e-04 </wgt>
</rwgt>
</event>
<event>
 4      1 +3.5234200e-07 1.48858900e+03 7.81860800e-03 8.32162300e-02
        2 -1    0    0  501    0 +0.0000000000e+00 +0.0000000000e+00 +9.7320213169e+02 9.7320213169e+02 0.0000000000e+00 0.0000e+00 1.0000e+00
       -2 -1    0    0    0  501 -0.0000000000e+00 -0.0000000000e+00 -5.6922868823e+02 5.6922868823e+02 0.0000000000e+00 0.0000e+00 -1.0000e+00
      -13  1    1    2    0    0 +7.0168130302e+02 +1.7435483399e+02 +3.8506444504e+02 8.1916474899e+02 0.0000000000e+00 0.0000e+00 -1.0000e+00
       13  1    1    2    0    0 -7.0168130302e+02 -1.7435483399e+02 +1.8908998415e+01 7.2326607094e+02 0.0000000000e+00 0.0000e+00 1.0000e+00
<mgrwt>
<rscale>  0 0.14885894E+04</rscale>
<asrwt>0</asrwt>
<pdfrwt beam="1">  1        2 0.14972340E+00 0.14885894E+04</pdfrwt>
<pdfrwt beam="2">  1       -2 0.87573644E-01 0.14885894E+04</pdfrwt>
<totfact> 0.36105151E+01</totfact>
</mgrwt>
<rwgt>
<wgt id='morphing_basis_vector_1'> +2.7098658e-04 </wgt>
<wgt id='morphing_basis_vector_2'> +2.2509608e-04 </wgt>
<wgt id='morphing_basis_vector_3'> +2.8640318e-04 </wgt>
<wgt id='morphing_basis_vector_4'> +1.3654647e-04 </wgt>
<wgt id='morphing_basis_vector_5'> +2.7549930e-04 </wgt>
</rwgt>
</event>
<event>
 4      1 +3.5234200e-07 1.54865700e+03 7.81860800e-03 8.28724600e-02
        2 -1    0    0  501    0 +0.0000000000e+00 +0.0000000000e+00 +9.7682887350e+02 9.7682887350e+02 0.0000000000e+00 0.0000e+00 1.0000e+00
       -2 -1    0    0    0  501 -0.0000000000e+00 -0.0000000000e+00 -6.1380708599e+02 6.1380708599e+02 0.0000000000e+00 0.0000e+00 -1.0000e+00
      -13  1    1    2    0    0 -4.0294146667e+02 -2.1700117901e+02 -4.6002658529e+02 6.4890353399e+02 0.0000000000e+00 0.0000e+00 -1.0000e+00
       13  1    1    2    0    0 +4.0294146667e+02 +2.1700117901e+02 +8.2304837281e+02 9.4173242550e+02 0.0000000000e+00 0.0000e+00 1.0000e+00
<mgrwt>
<rscale>  0 0.15486568E+04</rscale>
<asrwt>0</asrwt>
<pdfrwt beam="1">  1        2 0.15028137E+00 0.15486568E+04</pdfrwt>
<pdfrwt beam="2">  1       -2 0.94431859E-01 0.15486568E+04</pdfrwt>
<totfact> 0.29956256E+01</totfact>
</mgrwt>
<rwgt>
<wgt id='morphing_basis_vector_1'> +2.9180761e-04 </wgt>
<wgt id='morphing_basis_vector_2'> +1.9154688e-04 </wgt>
<wgt id='morphing_basis_vector_3'> +3.0398684e-04 </wgt>
<wgt id='morphing_basis_vector_4'> +2.0581208e-04 </wgt>
<wgt id='morphing_basis_vector_5'> +3.2788103e-04 </wgt>
</rwgt>
</event>
<event>
 4      1 +3.5234200e-07 1.30030900e+03 7.81860800e-03 8.44136200e-02
        2 -1    0    0  501    0 +0.0000000000e+00 +0.0000000000e+00 +1.7885915829e+03 1.7885915829e+03 0.0000000000e+00 0.0000e+00 -1.0000e+00
       -2 -1    0    0    0  501 -0.0000000000e+00 -0.0000000000e+00 -2.3633158960e+02 2.3633158960e+02 0.0000000000e+00 0.0000e+00 1.0000e+00
      -13  1    1    2    0    0 -4.5072881082e+02 -1.9702843387e+02 +1.1411165314e+02 5.0497339934e+02 0.0000000000e+00 0.0000e+00 1.0000e+00
       13  1    1    2    0    0 +4.5072881082e+02 +1.9702843387e+02 +1.4381483402e+03 1.5199497732e+03 0.0000000000e+00 0.0000e+00 -1.0000e+00
<mgrwt>
<rscale>  0 0.13003087E+04</rscale>
<asrwt>0</asrwt>
<pdfrwt beam="1">  1        2 0.27516793E+00 0.13003087E+04</pdfrwt>
<pdfrwt beam="2">  1       -2 0.36358707E-01 0.13003087E+04</pdfrwt>
<totfact> 0.74983846E+01</totfact>
</mgrwt>
<rwgt>
<wgt id='morphing_basis_vector_1'> +1.4928656e-04 </wgt>
<wgt id='morphing_basis_vector_2'> +9.6982701e-05 </wgt>
<wgt id='morphing_basis_vector_3'> +1.5176260e-04 </wgt>
<wgt id='morphing_basis_vector_4'> +9.9185645e-05 </wgt>
<wgt id='morphing_basis_vector_5'> +1.5832123e-04 </wgt>
</rwgt>
</event>
<event>
 4      1 +3.5234200e-07 1.32106200e+03 7.81860800e-03 8.42715700e-02
        2 -1    0    0  501    0 +0.0000000000e+00 +0.0000000000e+00 +2.7922504308e+03 2.7922504308e+03 0.0000000000e+00 0.0000e+00 -1.0000e+00
       -2 -1    0    0    0  501 -0.0000000000e+00 -0.0000000000e+00 -1.5625429829e+02 1.5625429829e+02 0.0000000000e+00 0.0000e+00 1.0000e+00
      -13  1    1    2    0    0 -6.0504932558e+01 +5.9234182685e+02 +6.7976470810e+02 9.0366461980e+02 0.0000000000e+00 0.0000e+00 1.0000e+00
       13  1    1    2    0    0 +6.0504932558e+01 -5.9234182685e+02 +1.9562314244e+03 2.0448401093e+03 0.0000000000e+00 0.0000e+00 -1.0000e+00
<mgrwt>
<rscale>  0 0.13210619E+04</rscale>
<asrwt>0</asrwt>
<pdfrwt beam="1">  1        2 0.42957695E+00 0.13210619E+04</pdfrwt>
<pdfrwt beam="2">  1       -2 0.24039125E-01 0.13210619E+04</pdfrwt>
<totfact> 0.40771453E+01</totfact>
</mgrwt>
<rwgt>
<wgt id='morphing_basis_vector_1'> +1.5928881e-04 </wgt>
<wgt id='morphing_basis_vector_2'> +1.0528400e-04 </wgt>
<wgt id='morphing_basis_vector_3'> +1.6248802e-04 </wgt>
<wgt id='morphing_basis_vector_4'> +1.0472300e-04 </wgt>
<wgt id='morphing_basis_vector_5'> +1.6910006e-04 </wgt>
</rwgt>
</event>
<event>
 4      1 +3.5234200e-07 1.36240000e+03 7.81860800e-03 8.39965900e-02
        2 -1    0    0  501    0 +0.0000000000e+00 +0.0000000000e+00 +1.8655011309e+03 1.8655011309e+03 0.0000000000e+00 0.0000e+00 1.0000e+00
       -2 -1    0    0    0  501 -0.0000000000e+00 -0.0000000000e+00 -2.4874456444e+02 2.4874456444e+02 0.0000000000e+00 0.0000e+00 -1.0000e+00
      -13  1    1    2    0    0 +4.1917583238e+02 +3.7729160699e+02 +2.1546452447e+02 6.0372369215e+02 0.0000000000e+00 0.0000e+00 -1.0000e+00
       13  1    1    2    0    0 -4.1917583238e+02 -3.7729160699e+02 +1.4012920420e+03 1.5105220032e+03 0.0000000000e+00 0.0000e+00 1.0000e+00
<mgrwt>
<rscale>  0 0.13623997E+04</rscale>
<asrwt>0</asrwt>
<pdfrwt beam="1">  1        2 0.28700017E+00 0.13623997E+04</pdfrwt>
<pdfrwt beam="2">  1       -2 0.38268396E-01 0.13623997E+04</pdfrwt>
<totfact> 0.61526458E+01</totfact>
</mgrwt>
<rwgt>
<wgt id='morphing_basis_vector_1'> +1.7867169e-04 </wgt>
<wgt id='morphing_basis_vector_2'> +1.1717094e-04 </wgt>
<wgt id='morphing_basis_vector_3'> +1.8303925e-04 </wgt>
<wgt id='morphing_basis_vector_4'> +1.2007250e-04 </wgt>
<wgt id='morphing_basis_vector_5'> +1.9243446e-04 </wgt>
</rwgt>
</event>
<event>
 4      1 +3.5234200e-07 1.38026100e+03 7.81860800e-03 8.38809100e-02
        2 -1    0    0  501    0 +0.0000000000e+00 +0.0000000000e+00 +7.8905604165e+02 7.8905604165e+02 0.0000000000e+00 0.0000e+00 1.0000e+00
       -2 -1    0    0    0  501 -0.0000000000e+00 -0.0000000000e+00 -6.0360732036e+02 6.0360732036e+02 0.0000000000e+00 0.0000e+00 -1.0000e+00
      -13  1    1    2    0    0 -1.4247758174e+02 +2.6630477506e+02 -5.3338509171e+02 6.1295819644e+02 0.0000000000e+00 0.0000e+00 -1.0000e+00
       13  1    1    2    0    0 +1.4247758174e+02 -2.6630477506e+02 +7.1883381300e+02 7.7970516558e+02 0.0000000000e+00 0.0000e+00 1.0000e+00
<mgrwt>
<rscale>  0 0.13802608E+04</rscale>
<asrwt>0</asrwt>
<pdfrwt beam="1">  1        2 0.12139324E+00 0.13802608E+04</pdfrwt>
<pdfrwt beam="2">  1       -2 0.92862664E-01 0.13802608E+04</pdfrwt>
<totfact> 0.42075786E+01</totfact>
</mgrwt>
<rwgt>
<wgt id='morphing_basis_vector_1'> +1.8724616e-04 </wgt>
<wgt id='morphing_basis_vector_2'> +1.2160906e-04 </wgt>
<wgt id='morphing_basis_vector_3'> +1.9207370e-04 </wgt>
<wgt id='morphing_basis_vector_4'> +1.2780365e-04 </wgt>
<wgt id='morphing_basis_vector_5'> +2.0326423e-04 </wgt>
</rwgt>
</event>
<event>
 4      1 +3.5234200e-07 1.42622800e+03 7.81860800e-03 8.35913800e-02
        2 -1    0    0  501    0 +0.0000000000e+00 +0.0000000000e+00 +9.6386828937e+02 9.6386828937e+02 0.0000000000e+00 0.0000e+00 -1.0000e+00
       -2 -1    0    0    0  501 -0.0000000000e+00 -0.0000000000e+00 -5.2759453887e+02 5.2759453887e+02 0.0000000000e+00 0.0000e+00 1.0000e+00
      -13  1    1    2    0    0 +2.9689546504e+02 +6.1625308961e+02 +7.3824954159e+00 6.8408280848e+02 0.0000000000e+00 0.0000e+00 1.0000e+00
       13  1    1    2    0    0 -2.9689546504e+02 -6.1625308961e+02 +4.2889125509e+02 8.0738001976e+02 0.0000000000e+00 0.0000e+00 -1.0000e+00
<mgrwt>
<rscale>  0 0.14262281E+04</rscale>
<asrwt>0</asrwt>
<pdfrwt beam="1">  1        2 0.14828743E+00 0.14262281E+04</pdfrwt>
<pdfrwt beam="2">  1       -2 0.81168391E-01 0.14262281E+04</pdfrwt>
<totfact> 0.43802509E+01</totfact>
</mgrwt>
<rwgt>
<wgt id='morphing_basis_vector_1'> +2.1490344e-04 </wgt>
<wgt id='morphing_basis_vector_2'> +1.4595199e-04 </wgt>
<wgt id='morphing_basis_vector_3'> +2.2210778e-04 </wgt>
<wgt id='morphing_basis_vector_4'> +1.4175658e-04 </wgt>
<wgt id='morphing_basis_vector_5'> +2.3265526e-04 </wgt>
</rwgt>
</event>
<event>
 4      1 +3.5234200e-07 1.47017500e+03 7.81860800e-03 8.33250000e-02
        2 -1    0    0  501    0 +0.0000000000e+00 +0.0000000000e+00 +1.7590472285e+03 1.7590472285e+03 0.0000000000e+00 0.0000e+00 -1.0000e+00
       -2 -1    0    0    0  501 -0.0000000000e+00 -0.0000000000e+00 -3.0718556814e+02 3.0718556814e+02 0.0000000000e+00 0.0000e+00 1.0000e+00
      -13  1    1    2    0    0 -5.2629840666e+02 +5.1050426932e+02 +7.9962297568e+02 1.0848970113e+03 0.0000000000e+00 0.0000e+00 1.0000e+00
       13  1    1    2    0    0 +5.2629840666e+02 -5.1050426932e+02 +6.5223868467e+02 9.8133578536e+02 0.0000000000e+00 0.0000e+00 -1.0000e+00
<mgrwt>
<rscale>  0 0.14701754E+04</rscale>
<asrwt>0</asrwt>
<pdfrwt beam="1">  1        2 0.27062265E+00 0.14701754E+04</pdfrwt>
<pdfrwt beam="2">  1       -2 0.47259319E-01 0.14701754E+04</pdfrwt>
<totfact> 0.46861020E+01</totfact>
</mgrwt>
<rwgt>
<wgt id='morphing_basis_vector_1'> +2.4979575e-04 </wgt>
<wgt id='morphing_basis_vector_2'> +1.8907718e-04 </wgt>
<wgt id='morphing_basis_vector_3'> +2.6141227e-04 </wgt>
<wgt id='morphing_basis_vector_4'> +1.4544643e-04 </wgt>
<wgt id='morphing_basis_vector_5'> +2.6280202e-04 </wgt>
</rwgt>
</event>
<event>
 4      1 +3.5234200e-07 1.38600800e+03 7.81860800e-03 8.38440700e-02
        2 -1    0    0  501    0 +0.0000000000e+00 +0.0000000000e+00 +1.8513807928e+03 1.8513807928e+03 0.0000000000e+00 0.0000e+00 1.0000e+00
       -2 -1    0    0    0  501 -0.0000000000e+00 -0.0000000000e+00 -2.5940337113e+02 2.5940337113e+02 0.0000000000e+00 0.0000e+00 -1.0000e+00
      -13  1    1    2    0    0 -1.2517706056e+02 +3.2246829820e+02 +1.7105032154e+03 1.7451293218e+03 0.0000000000e+00 0.0000e+00 1.0000e+00
       13  1    1    2    0    0 +1.2517706056e+02 -3.2246829820e+02 -1.1852579371e+02 3.6565484217e+02 0.0000000000e+00 0.0000e+00 -1.0000e+00
<mgrwt>
<rscale>  0 0.13860078E+04</rscale>
<asrwt>0</asrwt>
<pdfrwt beam="1">  1        2 0.28482781E+00 0.13860078E+04</pdfrwt>
<pdfrwt beam="2">  1       -2 0.39908212E-01 0.13860078E+04</pdfrwt>
<totfact> 0.57833492E+01</totfact>
</mgrwt>
<rwgt>
<wgt id='morphing_basis_vector_1'> +2.5723582e-04 </wgt>
<wgt id='morphing_basis_vector_2'> +3.2376810e-04 </wgt>
<wgt id='morphing_basis_vector_3'> +2.7926663e-04 </wgt>
<wgt id='morphing_basis_vector_4'> +8.1834146e-06 </wgt>
<wgt id='morphing_basis_vector_5'> +1.9801185e-04 </wgt>
</rwgt>
</event>
<event>
 4      1 +3.5234200e-07 1.53218700e+03 7.81860800e-03 8.29650900e-02
        2 -1    0    0  501    0 +0.0000000000e+00 +0.0000000000e+00 +1.4612083343e+03 1.4612083343e+03 0.0000000000e+00 0.0000e+00 -1.0000e+00
       -2 -1    0    0    0  501 -0.0000000000e+00 -0.0000000000e+00 -4.0165343329e+02 4.0165343329e+02 0.0000000000e+00 0.0000e+00 1.0000e+00
      -13  1    1    2    0    0 -2.1798794422e+02 -5.8533221425e+02 -9.5403223959e+00 6.2467876755e+02 0.0000000000e+00 0.0000e+00 1.0000e+00
       13  1    1    2    0    0 +2.1798794422e+02 +5.8533221425e+02 +1.0690952234e+03 1.2381830000e+03 0.0000000000e+00 0.0000e+00 -1.0000e+00
<mgrwt>
<rscale>  0 0.15321871E+04</rscale>
<asrwt>0</asrwt>
<pdfrwt beam="1">  1        2 0.22480128E+00 0.15321871E+04</pdfrwt>
<pdfrwt beam="2">  1       -2 0.61792836E-01 0.15321871E+04</pdfrwt>
<totfact> 0.39942986E+01</totfact>
</mgrwt>
<rwgt>
<wgt id='morphing_basis_vector_1'> +2.8066004e-04 </wgt>
<wgt id='morphing_basis_vector_2'> +1.8563269e-04 </wgt>
<wgt id='morphing_basis_vector_3'> +2.9218446e-04 </wgt>
<wgt id='morphing_basis_vector_4'> +1.9566484e-04 </wgt>
<wgt id='morphing_basis_vector_5'> +3.1359801e-04 </wgt>
</rwgt>
</event>
<event>
 4      1 +3.5234200e-07 1.50978400e+03 7.81860800e-03 8.30930500e-02
        2 -1    0    0  501    0 +0.0000000000e+00 +0.0000000000e+00 +2.7156676888e+03 2.7156676888e+03 0.0000000000e+00 0.0000e+00 1.0000e+00
       -2 -1    0    0    0  501 -0.0000000000e+00 -0.0000000000e+00 -2.0984228740e+02 2.0984228740e+02 0.0000000000e+00 0.0000e+00 -1.0000e+00
      -13  1    1    2    0    0 -6.5695781278e+02 +2.1395664635e+02 +6.6361291290e+02 9.5799431755e+02 0.0000000000e+00 0.0000e+00 -1.0000e+00
       13  1    1    2    0    0 +6.5695781278e+02 -2.1395664635e+02 +1.8422124885e+03 1.9675156587e+03 0.0000000000e+00 0.0000e+00 1.0000e+00
<mgrwt>
<rscale>  0 0.15097840E+04</rscale>
<asrwt>0</asrwt>
<pdfrwt beam="1">  1        2 0.41779500E+00 0.15097840E+04</pdfrwt>
<pdfrwt beam="2">  1       -2 0.32283431E-01 0.15097840E+04</pdfrwt>
<totfact> 0.26636339E+01</totfact>
</mgrwt>
<rwgt>
<wgt id='morphing_basis_vector_1'> +2.6628085e-04 </wgt>
<wgt id='morphing_basis_vector_2'> +1.7857636e-04 </wgt>
<wgt id='morphing_basis_vector_3'> +2.7701833e-04 </wgt>
<wgt id='morphing_basis_vector_4'> +1.8196720e-04 </wgt>
<wgt id='morphing_basis_vector_5'> +2.9488116e-04 </wgt>
</rwgt>
</event>
<event>
 4      1 +3.5234200e-07 1.54430900e+03 7.81860800e-03 8.28967900e-02
        2 -1    0    0  501    0 +0.0000000000e+00 +0.0000000000e+00 +9.1584924969e+02 9.1584924969e+02 0.0000000000e+00 0.0000e+00 1.0000e+00
       -2 -1    0    0    0  501 -0.0000000000e+00 -0.0000000000e+00 -6.5100547950e+02 6.5100547950e+02 0.0000000000e+00 0.0000e+00 -1.0000e+00
      -13  1    1    2    0    0 +1.4858673321e+02 -5.4612404498e+01 +8.9920793505e+02 9.1303638616e+02 0.0000000000e+00 0.0000e+00 1.0000e+00
       13  1    1    2    0    0 -1.4858673321e+02 +5.4612404498e+01 -6.3436416486e+02 6.5381834302e+02 0.0000000000e+00 0.0000e+00 -1.0000e+00
<mgrwt>
<rscale>  0 0.15443094E+04</rscale>
<asrwt>0</asrwt>
<pdfrwt beam="1">  1        2 0.14089988E+00 0.15443094E+04</pdfrwt>
<pdfrwt beam="2">  1       -2 0.10015469E+00 0.15443094E+04</pdfrwt>
<totfact> 0.28488498E+01</totfact>
</mgrwt>
<rwgt>
<wgt id='morphing_basis_vector_1'> +3.9492662e-04 </wgt>
<wgt id='morphing_basis_vector_2'> +5.0596504e-04 </wgt>
<wgt id='morphing_basis_vector_3'> +4.4170464e-04 </wgt>
<wgt id='morphing_basis_vector_4'> +3.4739434e-06 </wgt>
<wgt id='morphing_basis_vector_5'> +3.0913313e-04 </wgt>
</rwgt>
</event>
<event>
 4      1 +3.5234200e-07 1.49965500e+03 7.81860800e-03 8.31516600e-02
        2 -1    0    0  501    0 +0.0000000000e+00 +0.0000000000e+00 +1.6603992297e+03 1.6603992297e+03 0.0000000000e+00 0.0000e+00 -1.0000e+00
       -2 -1    0    0    0  501 -0.0000000000e+00 -0.0000000000e+00 -3.3861814775e+02 3.3861814775e+02 0.0000000000e+00 0.0000e+00 1.0000e+00
      -13  1    1    2    0    0 +1.4717405874e+02 -3.4173512884e+02 -2.0687970745e+02 4.2572563372e+02 0.0000000000e+00 0.0000e+00 1.0000e+00
       13  1    1    2    0    0 -1.4717405874e+02 +3.4173512884e+02 +1.5286607894e+03 1.5732917437e+03 0.0000000000e+00 0.0000e+00 -1.0000e+00
<mgrwt>
<rscale>  0 0.14996550E+04</rscale>
<asrwt>0</asrwt>
<pdfrwt beam="1">  1        2 0.25544603E+00 0.14996550E+04</pdfrwt>
<pdfrwt beam="2">  1       -2 0.52095101E-01 0.14996550E+04</pdfrwt>
<totfact> 0.43817079E+01</totfact>
</mgrwt>
<rwgt>
<wgt id='morphing_basis_vector_1'> +2.5765802e-04 </wgt>
<wgt id='morphing_basis_vector_2'> +1.6856167e-04 </wgt>
<wgt id='morphing_basis_vector_3'> +2.6733056e-04 </wgt>
<wgt id='morphing_basis_vector_4'> +1.8031555e-04 </wgt>
<wgt id='morphing_basis_vector_5'> +2.8701649e-04 </wgt>
</rwgt>
</event>
<event>
 4      1 +3.5234200e-07 1.48925900e+03 7.81860800e-03 8.32123100e-02
        2 -1    0    0  501    0 +0.0000000000e+00 +0.0000000000e+00 +1.0044616770e+03 1.0044616770e+03 0.0000000000e+00 0.0000e+00 1.0000e+00
       -2 -1    0    0    0  501 -0.0000000000e+00 -0.0000000000e+00 -5.5201037130e+02 5.5201037130e+02 0.0000000000e+00 0.0000e+00 -1.0000e+00
      -13  1    1    2    0    0 +9.0117131590e+01 -1.7876353800e+02 -5.2335732739e+02 5.6033953284e+02 0.0000000000e+00 0.0000e+00 -1.0000e+00
       13  1    1    2    0    0 -9.0117131590e+01 +1.7876353800e+02 +9.7580863311e+02 9.9613251547e+02 0.0000000000e+00 0.0000e+00 1.0000e+00
<mgrwt>
<rscale>  0 0.14892592E+04</rscale>
<asrwt>0</asrwt>
<pdfrwt beam="1">  1        2 0.15453257E+00 0.14892592E+04</pdfrwt>
<pdfrwt beam="2">  1       -2 0.84924672E-01 0.14892592E+04</pdfrwt>
<totfact> 0.37054666E+01</totfact>
</mgrwt>
<rwgt>
<wgt id='morphing_basis_vector_1'> +2.5078917e-04 </wgt>
<wgt id='morphing_basis_vector_2'> +1.6386945e-04 </wgt>
<wgt id='morphing_basis_vector_3'> +2.5996007e-04 </wgt>
<wgt id='morphing_basis_vector_4'> +1.7528325e-04 </wgt>
<wgt id='morphing_basis_vector_5'> +2.7886191e-04 </wgt>
</rwgt>
</event>
<event>
 4      1 +3.5234200e-07 1.29047100e+03 7.81860800e-03 8.44819300e-02
        2 -1    0    0  501    0 +0.0000000000e+00 +0.0000000000e+00 +1.1463020842e+03 1.1463020842e+03 0.0000000000e+00 0.0000e+00 1.0000e+00
       -2 -1    0    0    0  501 -0.0000000000e+00 -0.0000000000e+00 -3.6319290338e+02 3.6319290338e+02 0.0000000000e+00 0.0000e+00 -1.0000e+00
      -13  1    1    2    0    0 -1.5536652094e+02 +5.6577327360e+02 +7.7487183019e+01 5.9181282216e+02 0.0000000000e+00 0.0000e+00 -1.0000e+00
       13  1    1    2    0    0 +1.5536652094e+02 -5.6577327360e+02 +7.0562199781e+02 9.1768216542e+02 0.0000000000e+00 0.0000e+00 1.0000e+00
<mgrwt>
<rscale>  0 0.12904709E+04</rscale>
<asrwt>0</asrwt>
<pdfrwt beam="1">  1        2 0.17635416E+00 0.12904709E+04</pdfrwt>
<pdfrwt beam="2">  1       -2 0.55875832E-01 0.12904709E+04</pdfrwt>
<totfact> 0.75822227E+01</totfact>
</mgrwt>
<rwgt>
<wgt id='morphing_basis_vector_1'> +1.4574213e-04 </wgt>
<wgt id='morphing_basis_vector_2'> +9.6289471e-05 </wgt>
<wgt id='morphing_basis_vector_3'> +1.4810214e-04 </wgt>
<wgt id='morphing_basis_vector_4'> +9.4812661e-05 </wgt>
<wgt id='morphing_basis_vector_5'> +1.5326456e-04 </wgt>
</rwgt>
</event>
<event>
 4      1 +3.5234200e-07 1.31756900e+03 7.81860800e-03 8.42952900e-02
        2 -1    0    0  501    0 +0.0000000000e+00 +0.0000000000e+00 +1.3107431700e+03 1.3107431700e+03 0.0000000000e+00 0.0000e+00 1.0000e+00
       -2 -1    0    0    0  501 -0.0000000000e+00 -0.0000000000e+00 -3.3110753267e+02 3.3110753267e+02 0.0000000000e+00 0.0000e+00 -1.0000e+00
      -13  1    1    2    0    0 +6.2247774596e+02 -9.8785612876e+01 +7.2873472267e+02 9.6347882049e+02 0.0000000000e+00 0.0000e+00 1.0000e+00
       13  1    1    2    0    0 -6.2247774596e+02 +9.8785612876e+01 +2.5090091465e+02 6.7837188215e+02 0.0000000000e+00 0.0000e+00 -1.0000e+00
<mgrwt>
<rscale>  0 0.13175689E+04</rscale>
<asrwt>0</asrwt>
<pdfrwt beam="1">  1        2 0.20165279E+00 0.13175689E+04</pdfrwt>
<pdfrwt beam="2">  1       -2 0.50939621E-01 0.13175689E+04</pdfrwt>
<totfact> 0.73020741E+01</totfact>
</mgrwt>
<rwgt>
<wgt id='morphing_basis_vector_1'> +1.7204483e-04 </wgt>
<wgt id='morphing_basis_vector_2'> +1.4717997e-04 </wgt>
<wgt id='morphing_basis_vector_3'> +1.7821832e-04 </wgt>
<wgt id='morphing_basis_vector_4'> +7.7931337e-05 </wgt>
<wgt id='morphing_basis_vector_5'> +1.6541742e-04 </wgt>
</rwgt>
</event>
<event>
 4      1 +3.5234200e-07 1.51738600e+03 7.81860800e-03 8.30493700e-02
        2 -1    0    0  501    0 +0.0000000000e+00 +0.0000000000e+00 +2.0214707135e+03 2.0214707135e+03 0.0000000000e+00 0.0000e+00 -1.0000e+00
       -2 -1    0    0    0  501 -0.0000000000e+00 -0.0000000000e+00 -2.8475064029e+02 2.8475064029e+02 0.0000000000e+00 0.0000e+00 1.0000e+00
      -13  1    1    2    0    0 -6.9835195003e+01 +6.3288722040e+02 +2.4135021359e+02 6.8093546963e+02 0.0000000000e+00 0.0000e+00 1.0000e+00
       13  1    1    2    0    0 +6.9835195003e+01 -6.3288722040e+02 +1.4953698596e+03 1.6252858841e+03 0.0000000000e+00 0.0000e+00 -1.0000e+00
<mgrwt>
<rscale>  0 0.15173860E+04</rscale>
<asrwt>0</asrwt>
<pdfrwt beam="1">  1        2 0.31099549E+00 0.15173860E+04</pdfrwt>
<pdfrwt beam="2">  1       -2 0.43807792E-01 0.15173860E+04</pdfrwt>
<totfact> 0.38544077E+01</totfact>
</mgrwt>
<rwgt>
<wgt id='morphing_basis_vector_1'> +2.7050430e-04 </wgt>
<wgt id='morphing_basis_vector_2'> +1.7918840e-04 </wgt>
<wgt id='morphing_basis_vector_3'> +2.8132000e-04 </wgt>
<wgt id='morphing_basis_vector_4'> +1.8764208e-04 </wgt>
<wgt id='morphing_basis_vector_5'> +3.0121902e-04 </wgt>
</rwgt>
</event>
<event>
 4      1 +3.5234200e-07 1.50922500e+03 7.81860800e-03 8.30962700e-02
        2 -1    0    0  501    0 +0.0000000000e+00 +0.0000000000e+00 +1.5584747790e+03 1.5584747790e+03 0.0000000000e+00 0.0000e+00 -1.0000e+00
       -2 -1    0    0    0  501 -0.0000000000e+00 -0.0000000000e+00 -3.6538276903e+02 3.6538276903e+02 0.0000000000e+00 0.0000e+00 1.0000e+00
      -13  1    1    2    0    0 -4.6157770163e+02 -3.6959423093e+02 -1.0655256609e+00 5.9131633288e+02 0.0000000000e+00 0.0000e+00 1.0000e+00
       13  1    1    2    0    0 +4.6157770163e+02 +3.6959423093e+02 +1.1941575357e+03 1.3325412152e+03 0.0000000000e+00 0.0000e+00 -1.0000e+00
<mgrwt>
<rscale>  0 0.15092247E+04</rscale>
<asrwt>0</asrwt>
<pdfrwt beam="1">  1        2 0.23976535E+00 0.15092247E+04</pdfrwt>
<pdfrwt beam="2">  1       -2 0.56212734E-01 0.15092247E+04</pdfrwt>
<totfact> 0.42841866E+01</totfact>
</mgrwt>
<rwgt>
<wgt id='morphing_basis_vector_1'> +2.6458629e-04 </wgt>
<wgt id='morphing_basis_vector_2'> +1.7440004e-04 </wgt>
<wgt id='morphing_basis_vector_3'> +2.7488368e-04 </wgt>
<wgt id='morphing_basis_vector_4'> +1.8414474e-04 </wgt>
<wgt id='morphing_basis_vector_5'> +2.9461136e-04 </wgt>
</rwgt>
</event>
<event>
 4      1 +3.5234200e-07 1.35194100e+03 7.81860800e-03 8.40651900e-02
        2 -1    0    0  501    0 +0.0000000000e+00 +0.0000000000e+00 +1.8339114559e+03 1.8339114559e+03 0.0000000000e+00 0.0000e+00 1.0000e+00
       -2 -1    0    0    0  501 -0.0000000000e+00 -0.0000000000e+00 -2.4915914895e+02 2.4915914895e+02 0.0000000000e+00 0.0000e+00 -1.0000e+00
      -13  1    1    2    0    0 -2.6891746605e+02 +5.0823853305e+02 +2.4476777047e+02 6.2492741297e+02 0.0000000000e+00 0.0000e+00 -1.0000e+00
       13  1    1    2    0    0 +2.6891746605e+02 -5.0823853305e+02 +1.3399845365e+03 1.4581431919e+03 0.0000000000e+00 0.0000e+00 1.0000e+00
<mgrwt>
<rscale>  0 0.13519406E+04</rscale>
<asrwt>0</asrwt>
<pdfrwt beam="1">  1        2 0.28214022E+00 0.13519406E+04</pdfrwt>
<pdfrwt beam="2">  1       -2 0.38332178E-01 0.13519406E+04</pdfrwt>
<totfact> 0.63923477E+01</totfact>
</mgrwt>
<rwgt>
<wgt id='morphing_basis_vector_1'> +1.7359581e-04 </wgt>
<wgt id='morphing_basis_vector_2'> +1.1404021e-04 </wgt>
<wgt id='morphing_basis_vector_3'> +1.7765346e-04 </wgt>
<wgt id='morphing_basis_vector_4'> +1.1606031e-04 </wgt>
<wgt id='morphing_basis_vector_5'> +1.8631996e-04 </wgt>
</rwgt>
</event>
<event>
 4      1 +3.5234200e-07 1.45756600e+03 7.81860800e-03 8.34004300e-02
        2 -1    0    0  501    0 +0.0000000000e+00 +0.0000000000e+00 +1.4276888095e+03 1.4276888095e+03 0.0000000000e+00 0.0000e+00 -1.0000e+00
       -2 -1    0    0    0  501 -0.0000000000e+00 -0.0000000000e+00 -3.7201722227e+02 3.7201722227e+02 0.0000000000e+00 0.0000e+00 1.0000e+00
      -13  1    1    2    0    0 +2.0110583160e+00 -6.6083802966e+02 +1.4844114806e+02 6.7730769982e+02 0.0000000000e+00 0.0000e+00 1.0000e+00
       13  1    1    2    0    0 -2.0110583160e+00 +6.6083802966e+02 +9.0723043914e+02 1.1223983319e+03 0.0000000000e+00 0.0000e+00 -1.0000e+00
<mgrwt>
<rscale>  0 0.14575662E+04</rscale>
<asrwt>0</asrwt>
<pdfrwt beam="1">  1        2 0.21964443E+00 0.14575662E+04</pdfrwt>
<pdfrwt beam="2">  1       -2 0.57233420E-01 0.14575662E+04</pdfrwt>
<totfact> 0.49103255E+01</totfact>
</mgrwt>
<rwgt>
<wgt id='morphing_basis_vector_1'> +2.3234744e-04 </wgt>
<wgt id='morphing_basis_vector_2'> +1.5507317e-04 </wgt>
<wgt id='morphing_basis_vector_3'> +2.4055240e-04 </wgt>
<wgt id='morphing_basis_vector_4'> +1.5754206e-04 </wgt>
<wgt id='morphing_basis_vector_5'> +2.5483511e-04 </wgt>
</rwgt>
</event>
<event>
 4      1 +3.5234200e-07 1.52346900e+03 7.81860800e-03 8.30146100e-02
        2 -1    0    0  501    0 +0.0000000000e+00 +0.0000000000e+00 +4.1701979077e+03 4.1701979077e+03 0.0000000000e+00 0.0000e+00 1.0000e+00
       -2 -1    0    0    0  501 -0.0000000000e+00 -0.0000000000e+00 -1.3913961926e+02 1.3913961926e+02 0.0000000000e+00 0.0000e+00 -1.0000e+00
      -13  1    1    2    0    0 +3.8343620381e+02 -5.0519149422e+02 +8.2213386563e+02 1.0383380284e+03 0.0000000000e+00 0.0000e+00 -1.0000e+00
       13  1    1    2    0    0 -3.8343620381e+02 +5.0519149422e+02 +3.2089244228e+03 3.2709994986e+03 0.0000000000e+00 0.0000e+00 1.0000e+00
<mgrwt>
<rscale>  0 0.15234694E+04</rscale>
<asrwt>0</asrwt>
<pdfrwt beam="1">  1        2 0.64156881E+00 0.15234694E+04</pdfrwt>
<pdfrwt beam="2">  1       -2 0.21406098E-01 0.15234694E+04</pdfrwt>
<totfact> 0.47565932E+00</totfact>
</mgrwt>
<rwgt>
<wgt id='morphing_basis_vector_1'> +2.7466376e-04 </wgt>
<wgt id='morphing_basis_vector_2'> +1.8187508e-04 </wgt>
<wgt id='morphing_basis_vector_3'> +2.8577422e-04 </wgt>
<wgt id='morphing_basis_vector_4'> +1.9087232e-04 </wgt>
<wgt id='morphing_basis_vector_5'> +3.0625939e-04 </wgt>
</rwgt>
</event>
<event>
 4      1 +3.5234200e-07 1.36939800e+03 7.81860800e-03 8.39510400e-02
        2 -1    0    0  501    0 +0.0000000000e+00 +0.0000000000e+00 +9.2632115040e+02 9.2632115040e+02 0.0000000000e+00 0.0000e+00 -1.0000e+00
       -2 -1    0    0    0  501 -0.0000000000e+00 -0.0000000000e+00 -5.0610179614e+02 5.0610179614e+02 0.0000000000e+00 0.0000e+00 1.0000e+00
      -13  1    1    2    0    0 -3.3616652271e+02 +4.7150901795e+02 -1.7206009593e+02 6.0409714584e+02 0.0000000000e+00 0.0000e+00 1.0000e+00
       13  1    1    2    0    0 +3.3616652271e+02 -4.7150901795e+02 +5.9227945018e+02 8.2832580070e+02 0.0000000000e+00 0.0000e+00 -1.0000e+00
<mgrwt>
<rscale>  0 0.13693981E+04</rscale>
<asrwt>0</asrwt>
<pdfrwt beam="1">  1        2 0.14251095E+00 0.13693981E+04</pdfrwt>
<pdfrwt beam="2">  1       -2 0.77861815E-01 0.13693981E+04</pdfrwt>
<totfact> 0.51084166E+01</totfact>
</mgrwt>
<rwgt>
<wgt id='morphing_basis_vector_1'> +1.8230884e-04 </wgt>
<wgt id='morphing_basis_vector_2'> +1.1983461e-04 </wgt>
<wgt id='morphing_basis_vector_3'> +1.8693209e-04 </wgt>
<wgt id='morphing_basis_vector_4'> +1.2249103e-04 </wgt>
<wgt id='morphing_basis_vector_5'> +1.9658459e-04 </wgt>
</rwgt>
</event>
<event>
 4      1 +3.5234200e-07 1.32119800e+03 7.81860800e-03 8.42706500e-02
        2 -1    0    0  501    0 +0.0000000000e+00 +0.0000000000e+00 +1.0714634527e+03 1.0714634527e+03 0.0000000000e+00 0.0000e+00 -1.0000e+00
       -2 -1    0    0    0  501 -0.0000000000e+00 -0.0000000000e+00 -4.0728518994e+02 4.0728518994e+02 0.0000000000e+00 0.0000e+00 1.0000e+00
      -13  1    1    2    0    0 -1.9277344099e+02 +6.1120679273e+02 +1.5281418512e+02 6.5885318410e+02 0.0000000000e+00 0.0000e+00 1.0000e+00
       13  1    1    2    0    0 +1.9277344099e+02 -6.1120679273e+02 +5.1136407766e+02 8.1989545855e+02 0.0000000000e+00 0.0000e+00 -1.0000e+00
<mgrwt>
<rscale>  0 0.13211982E+04</rscale>
<asrwt>0</asrwt>
<pdfrwt beam="1">  1        2 0.16484053E+00 0.13211982E+04</pdfrwt>
<pdfrwt beam="2">  1       -2 0.62659260E-01 0.13211982E+04</pdfrwt>
<totfact> 0.66352574E+01</totfact>
</mgrwt>
<rwgt>
<wgt id='morphing_basis_vector_1'> +1.6064429e-04 </wgt>
<wgt id='morphing_basis_vector_2'> +1.0919566e-04 </wgt>
<wgt id='morphing_basis_vector_3'> +1.6412735e-04 </wgt>
<wgt id='morphing_basis_vector_4'> +1.0245749e-04 </wgt>
<wgt id='morphing_basis_vector_5'> +1.6900923e-04 </wgt>
</rwgt>
</event>
<event>
 4      1 +3.5234200e-07 1.40675900e+03 7.81860800e-03 8.37126100e-02
        2 -1    0    0  501    0 +0.0000000000e+00 +0.0000000000e+00 +6.2486608747e+02 6.2486608747e+02 0.0000000000e+00 0.0000e+00 1.0000e+00
       -2 -1    0    0    0  501 -0.0000000000e+00 -0.0000000000e+00 -7.9175785871e+02 7.9175785871e+02 0.0000000000e+00 0.0000e+00 -1.0000e+00
      -13  1    1    2    0    0 +1.6760287778e+02 +6.6773932236e+02 +6.1704105116e+01 6.9121192398e+02 0.0000000000e+00 0.0000e+00 -1.0000e+00
       13  1    1    2    0    0 -1.6760287778e+02 -6.6773932236e+02 -2.2859587635e+02 7.2541202220e+02 0.0000000000e+00 0.0000e+00 1.0000e+00
<mgrwt>
<rscale>  0 0.14067589E+04</rscale>
<asrwt>0</asrwt>
<pdfrwt beam="1">  1        2 0.96133244E-01 0.14067589E+04</pdfrwt>
<pdfrwt beam="2">  1       -2 0.12180890E+00 0.14067589E+04</pdfrwt>
<totfact> 0.28566970E+01</totfact>
</mgrwt>
<rwgt>
<wgt id='morphing_basis_vector_1'> +2.1628019e-04 </wgt>
<wgt id='morphing_basis_vector_2'> +1.7542140e-04 </wgt>
<wgt id='morphing_basis_vector_3'> +2.2598093e-04 </wgt>
<wgt id='morphing_basis_vector_4'> +1.1115656e-04 </wgt>
<wgt id='morphing_basis_vector_5'> +2.1806329e-04 </wgt>
</rwgt>
</event>
<event>
 4      1 +3.5234200e-07 1.36708300e+03 7.81860800e-03 8.39660800e-02
        2 -1    0    0  501    0 +0.0000000000e+00 +0.0000000000e+00 +4.4128691963e+02 4.4128691963e+02 0.0000000000e+00 0.0000e+00 1.0000e+00
       -2 -1    0    0    0  501 -0.0000000000e+00 -0.0000000000e+00 -1.0587865217e+03 1.0587865217e+03 0.0000000000e+00 0.0000e+00 -1.0000e+00
      -13  1    1    2    0    0 -1.6770962344e+02 -2.6193494995e+02 -9.7664348360e+02 1.0249726483e+03 0.0000000000e+00 0.0000e+00 -1.0000e+00
       13  1    1    2    0    0 +1.6770962344e+02 +2.6193494995e+02 +3.5914388156e+02 4.7510079296e+02 0.0000000000e+00 0.0000e+00 1.0000e+00
<mgrwt>
<rscale>  0 0.13670825E+04</rscale>
<asrwt>0</asrwt>
<pdfrwt beam="1">  1        2 0.67890296E-01 0.13670825E+04</pdfrwt>
<pdfrwt beam="2">  1       -2 0.16289023E+00 0.13670825E+04</pdfrwt>
<totfact> 0.19067576E+01</totfact>
</mgrwt>
<rwgt>
<wgt id='morphing_basis_vector_1'> +1.8049054e-04 </wgt>
<wgt id='morphing_basis_vector_2'> +1.1712863e-04 </wgt>
<wgt id='morphing_basis_vector_3'> +1.8488028e-04 </wgt>
<wgt id='morphing_basis_vector_4'> +1.2278879e-04 </wgt>
<wgt id='morphing_basis_vector_5'> +1.9528340e-04 </wgt>
</rwgt>
</event>
<event>
 4      1 +3.5234200e-07 1.30750200e+03 7.81860800e-03 8.43640700e-02
        2 -1    0    0  501    0 +0.0000000000e+00 +0.0000000000e+00 +7.0307087157e+02 7.0307087157e+02 0.0000000000e+00 0.0000e+00 -1.0000e+00
       -2 -1    0    0    0  501 -0.0000000000e+00 -0.0000000000e+00 -6.0789050490e+02 6.0789050490e+02 0.0000000000e+00 0.0000e+00 1.0000e+00
      -13  1    1    2    0    0 +4.4990155002e+02 -1.2599449015e+01 -4.2781629762e+02 6.2096452019e+02 0.0000000000e+00 0.0000e+00 1.0000e+00
       13  1    1    2    0    0 -4.4990155002e+02 +1.2599449015e+01 +5.2299666428e+02 6.8999685628e+02 0.0000000000e+00 0.0000e+00 -1.0000e+00
<mgrwt>
<rscale>  0 0.13075016E+04</rscale>
<asrwt>0</asrwt>
<pdfrwt beam="1">  1        2 0.10816475E+00 0.13075016E+04</pdfrwt>
<pdfrwt beam="2">  1       -2 0.93521616E-01 0.13075016E+04</pdfrwt>
<totfact> 0.48093362E+01</totfact>
</mgrwt>
<rwgt>
<wgt id='morphing_basis_vector_1'> +1.5234976e-04 </wgt>
<wgt id='morphing_basis_vector_2'> +9.8764077e-05 </wgt>
<wgt id='morphing_basis_vector_3'> +1.5499606e-04 </wgt>
<wgt id='morphing_basis_vector_4'> +1.0170111e-04 </wgt>
<wgt id='morphing_basis_vector_5'> +1.6204177e-04 </wgt>
</rwgt>
</event>
<event>
 4      1 +3.5234200e-07 1.54613600e+03 7.81860800e-03 8.28865600e-02
        2 -1    0    0  501    0 +0.0000000000e+00 +0.0000000000e+00 +1.7724581606e+03 1.7724581606e+03 0.0000000000e+00 0.0000e+00 1.0000e+00
       -2 -1    0    0    0  501 -0.0000000000e+00 -0.0000000000e+00 -3.3717826547e+02 3.3717826547e+02 0.0000000000e+00 0.0000e+00 -1.0000e+00
      -13  1    1    2    0    0 +7.6727571786e+02 +9.4097233703e+01 +7.0638408081e+02 1.0471603441e+03 0.0000000000e+00 0.0000e+00 -1.0000e+00
       13  1    1    2    0    0 -7.6727571786e+02 -9.4097233703e+01 +7.2889581430e+02 1.0624760819e+03 0.0000000000e+00 0.0000e+00 1.0000e+00
<mgrwt>
<rscale>  0 0.15461363E+04</rscale>
<asrwt>0</asrwt>
<pdfrwt beam="1">  1        2 0.27268587E+00 0.15461363E+04</pdfrwt>
<pdfrwt beam="2">  1       -2 0.51873580E-01 0.15461363E+04</pdfrwt>
<totfact> 0.38139215E+01</totfact>
</mgrwt>
<rwgt>
<wgt id='morphing_basis_vector_1'> +2.9998696e-04 </wgt>
<wgt id='morphing_basis_vector_2'> +2.2013894e-04 </wgt>
<wgt id='morphing_basis_vector_3'> +3.1531938e-04 </wgt>
<wgt id='morphing_basis_vector_4'> +1.8558823e-04 </wgt>
<wgt id='morphing_basis_vector_5'> +3.2426927e-04 </wgt>
</rwgt>
</event>
<event>
 4      1 +3.5234200e-07 1.38469200e+03 7.81860800e-03 8.38524900e-02
        2 -1    0    0  501    0 +0.0000000000e+00 +0.0000000000e+00 +1.1188730253e+03 1.1188730253e+03 0.0000000000e+00 0.0000e+00 1.0000e+00
       -2 -1    0    0    0  501 -0.0000000000e+00 -0.0000000000e+00 -4.2841565029e+02 4.2841565029e+02 0.0000000000e+00 0.0000e+00 -1.0000e+00
      -13  1    1    2    0    0 -3.1756602460e+02 -4.8690365614e+02 -7.4987449700e+01 5.8612837157e+02 0.0000000000e+00 0.0000e+00 -1.0000e+00
       13  1    1    2    0    0 +3.1756602460e+02 +4.8690365614e+02 +7.6544482474e+02 9.6116030404e+02 0.0000000000e+00 0.0000e+00 1.0000e+00
<mgrwt>
<rscale>  0 0.13846916E+04</rscale>
<asrwt>0</asrwt>
<pdfrwt beam="1">  1        2 0.17213431E+00 0.13846916E+04</pdfrwt>
<pdfrwt beam="2">  1       -2 0.65910101E-01 0.13846916E+04</pdfrwt>
<totfact> 0.55631337E+01</totfact>
</mgrwt>
<rwgt>
<wgt id='morphing_basis_vector_1'> +1.9020181e-04 </wgt>
<wgt id='morphing_basis_vector_2'> +1.2506166e-04 </wgt>
<wgt id='morphing_basis_vector_3'> +1.9534297e-04 </wgt>
<wgt id='morphing_basis_vector_4'> +1.2835642e-04 </wgt>
<wgt id='morphing_basis_vector_5'> +2.0591659e-04 </wgt>
</rwgt>
</event>
<event>
 4      1 +3.5234200e-07 1.30894600e+03 7.81860800e-03 8.43541600e-02
        2 -1    0    0  501    0 +0.0000000000e+00 +0.0000000000e+00 +9.5596610983e+02 9.5596610983e+02 0.0000000000e+00 0.0000e+00 -1.0000e+00
       -2 -1    0    0    0  501 -0.0000000000e+00 -0.0000000000e+00 -4.4806525603e+02 4.4806525603e+02 0.0000000000e+00 0.0000e+00 1.0000e+00
      -13  1    1    2    0    0 +1.1606844346e+02 -4.7132135487e+02 -2.1693771930e+02 5.3167440900e+02 0.0000000000e+00 0.0000e+00 1.0000e+00
       13  1    1    2    0    0 -1.1606844346e+02 +4.7132135487e+02 +7.2483857310e+02 8.7235695686e+02 0.0000000000e+00 0.0000e+00 -1.0000e+00
<mgrwt>
<rscale>  0 0.13089464E+04</rscale>
<asrwt>0</asrwt>
<pdfrwt beam="1">  1        2 0.14707171E+00 0.13089464E+04</pdfrwt>
<pdfrwt beam="2">  1       -2 0.68933117E-01 0.13089464E+04</pdfrwt>
<totfact> 0.64091451E+01</totfact>
</mgrwt>
<rwgt>
<wgt id='morphing_basis_vector_1'> +1.5307532e-04 </wgt>
<wgt id='morphing_basis_vector_2'> +9.9437756e-05 </wgt>
<wgt id='morphing_basis_vector_3'> +1.5577801e-04 </wgt>
<wgt id='morphing_basis_vector_4'> +1.0202589e-04 </wgt>
<wgt id='morphing_basis_vector_5'> +1.6278369e-04 </wgt>
</rwgt>
</event>
<event>
 4      1 +3.5234200e-07 1.43577300e+03 7.81860800e-03 8.35326900e-02
        2 -1    0    0  501    0 +0.0000000000e+00 +0.0000000000e+00 +7.8975698927e+02 7.8975698927e+02 0.0000000000e+00 0.0000e+00 1.0000e+00
       -2 -1    0    0    0  501 -0.0000000000e+00 -0.0000000000e+00 -6.5255666182e+02 6.5255666182e+02 0.0000000000e+00 0.0000e+00 -1.0000e+00
      -13  1    1    2    0    0 +4.3481207540e+02 +1.8914915919e+02 +6.1005664539e+02 7.7266296399e+02 0.0000000000e+00 0.0000e+00 1.0000e+00
       13  1    1    2    0    0 -4.3481207540e+02 -1.8914915919e+02 -4.7285631794e+02 6.6965068711e+02 0.0000000000e+00 0.0000e+00 -1.0000e+00
<mgrwt>
<rscale>  0 0.14357732E+04</rscale>
<asrwt>0</asrwt>
<pdfrwt beam="1">  1        2 0.12150107E+00 0.14357732E+04</pdfrwt>
<pdfrwt beam="2">  1       -2 0.10039333E+00 0.14357732E+04</pdfrwt>
<totfact> 0.34754932E+01</totfact>
</mgrwt>
<rwgt>
<wgt id='morphing_basis_vector_1'> +2.8561373e-04 </wgt>
<wgt id='morphing_basis_vector_2'> +3.4421830e-04 </wgt>
<wgt id='morphing_basis_vector_3'> +3.1143047e-04 </wgt>
<wgt id='morphing_basis_vector_4'> +2.5850414e-05 </wgt>
<wgt id='morphing_basis_vector_5'> +2.3042990e-04 </wgt>
</rwgt>
</event>
<event>
 4      1 +3.5234200e-07 1.39786800e+03 7.81860800e-03 8.37686400e-02
        2 -1    0    0  501    0 +0.0000000000e+00 +0.0000000000e+00 +1.2043846324e+03 1.2043846324e+03 0.0000000000e+00 0.0000e+00 -1.0000e+00
       -2 -1    0    0    0  501 -0.0000000000e+00 -0.0000000000e+00 -4.0560875311e+02 4.0560875311e+02 0.0000000000e+00 0.0000e+00 1.0000e+00
      -13  1    1    2    0    0 +4.4287811168e+02 +5.7972955462e+01 -2.1978513575e+02 4.9780256253e+02 0.0000000000e+00 0.0000e+00 1.0000e+00
       13  1    1    2    0    0 -4.4287811168e+02 -5.7972955462e+01 +1.0185610151e+03 1.1121908230e+03 0.0000000000e+00 0.0000e+00 -1.0000e+00
<mgrwt>
<rscale>  0 0.13978683E+04</rscale>
<asrwt>0</asrwt>
<pdfrwt beam="1">  1        2 0.18528994E+00 0.13978683E+04</pdfrwt>
<pdfrwt beam="2">  1       -2 0.62401347E-01 0.13978683E+04</pdfrwt>
<totfact> 0.55454596E+01</totfact>
</mgrwt>
<rwgt>
<wgt id='morphing_basis_vector_1'> +1.9668812e-04 </wgt>
<wgt id='morphing_basis_vector_2'> +1.2814758e-04 </wgt>
<wgt id='morphing_basis_vector_3'> +2.0215900e-04 </wgt>
<wgt id='morphing_basis_vector_4'> +1.3452414e-04 </wgt>
<wgt id='morphing_basis_vector_5'> +2.1428512e-04 </wgt>
</rwgt>
</event>
<event>
 4      1 +3.5234200e-07 1.48863700e+03 7.81860800e-03 8.32159600e-02
        2 -1    0    0  501    0 +0.0000000000e+00 +0.0000000000e+00 +2.3897223687e+03 2.3897223687e+03 0.0000000000e+00 0.0000e+00 -1.0000e+00
       -2 -1    0    0    0  501 -0.0000000000e+00 -0.0000000000e+00 -2.3183017806e+02 2.3183017806e+02 0.0000000000e+00 0.0000e+00 1.0000e+00
      -13  1    1    2    0    0 -7.1723902259e+02 +1.6806364919e+02 +8.9147521876e+02 1.1564623951e+03 0.0000000000e+00 0.0000e+00 1.0000e+00
       13  1    1    2    0    0 +7.1723902259e+02 -1.6806364919e+02 +1.2664169719e+03 1.4650901516e+03 0.0000000000e+00 0.0000e+00 -1.0000e+00
<mgrwt>
<rscale>  0 0.14886366E+04</rscale>
<asrwt>0</asrwt>
<pdfrwt beam="1">  1        2 0.36764958E+00 0.14886366E+04</pdfrwt>
<pdfrwt beam="2">  1       -2 0.35666183E-01 0.14886366E+04</pdfrwt>
<totfact> 0.34920386E+01</totfact>
</mgrwt>
<rwgt>
<wgt id='morphing_basis_vector_1'> +2.5572707e-04 </wgt>
<wgt id='morphing_basis_vector_2'> +1.7952757e-04 </wgt>
<wgt id='morphing_basis_vector_3'> +2.6649446e-04 </wgt>
<wgt id='morphing_basis_vector_4'> +1.6503480e-04 </wgt>
<wgt id='morphing_basis_vector_5'> +2.7764263e-04 </wgt>
</rwgt>
</event>
<event>
 4      1 +3.5234200e-07 1.37170200e+03 7.81860800e-03 8.39361100e-02
        2 -1    0    0  501    0 +0.0000000000e+00 +0.0000000000e+00 +1.0557650779e+03 1.0557650779e+03 0.0000000000e+00 0.0000e+00 -1.0000e+00
       -2 -1    0    0    0  501 -0.0000000000e+00 -0.0000000000e+00 -4.4554549847e+02 4.4554549847e+02 0.0000000000e+00 0.0000e+00 1.0000e+00
      -13  1    1    2    0    0 +2.5791955811e+02 -3.8882387693e+02 -2.4506475560e+02 5.2703248492e+02 0.0000000000e+00 0.0000e+00 1.0000e+00
       13  1    1    2    0    0 -2.5791955811e+02 +3.8882387693e+02 +8.5528433502e+02 9.7427809143e+02 0.0000000000e+00 0.0000e+00 -1.0000e+00
<mgrwt>
<rscale>  0 0.13717017E+04</rscale>
<asrwt>0</asrwt>
<pdfrwt beam="1">  1        2 0.16242540E+00 0.13717017E+04</pdfrwt>
<pdfrwt beam="2">  1       -2 0.68545461E-01 0.13717017E+04</pdfrwt>
<totfact> 0.55950326E+01</totfact>
</mgrwt>
<rwgt>
<wgt id='morphing_basis_vector_1'> +1.8298786e-04 </wgt>
<wgt id='morphing_basis_vector_2'> +1.1913561e-04 </wgt>
<wgt id='morphing_basis_vector_3'> +1.8756618e-04 </wgt>
<wgt id='morphing_basis_vector_4'> +1.2425620e-04 </wgt>
<wgt id='morphing_basis_vector_5'> +1.9803421e-04 </wgt>
</rwgt>
</event>
<event>
 4      1 +3.5234200e-07 1.49097700e+03 7.81860800e-03 8.32022500e-02
        2 -1    0    0  501    0 +0.0000000000e+00 +0.0000000000e+00 +1.2457982104e+03 1.2457982104e+03 0.0000000000e+00 0.0000e+00 -1.0000e+00
       -2 -1    0    0    0  501 -0.0000000000e+00 -0.0000000000e+00 -4.4610220694e+02 4.4610220694e+02 0.0000000000e+00 0.0000e+00 1.0000e+00
      -13  1    1    2    0    0 -3.0826983299e+02 +6.5568593538e+02 +2.0070179466e+02 7.5182148557e+02 0.0000000000e+00 0.0000e+00 1.0000e+00
       13  1    1    2    0    0 +3.0826983299e+02 -6.5568593538e+02 +5.9899420878e+02 9.4007893176e+02 0.0000000000e+00 0.0000e+00 -1.0000e+00
<mgrwt>
<rscale>  0 0.14909773E+04</rscale>
<asrwt>0</asrwt>
<pdfrwt beam="1">  1        2 0.19166126E+00 0.14909773E+04</pdfrwt>
<pdfrwt beam="2">  1       -2 0.68631109E-01 0.14909773E+04</pdfrwt>
<totfact> 0.42642396E+01</totfact>
</mgrwt>
<rwgt>
<wgt id='morphing_basis_vector_1'> +2.5563686e-04 </wgt>
<wgt id='morphing_basis_vector_2'> +1.7573559e-04 </wgt>
<wgt id='morphing_basis_vector_3'> +2.6602597e-04 </wgt>
<wgt id='morphing_basis_vector_4'> +1.6917477e-04 </wgt>
<wgt id='morphing_basis_vector_5'> +2.7968425e-04 </wgt>
</rwgt>
</event>
<event>
 4      1 +3.5234200e-07 1.44654000e+03 7.81860800e-03 8.34670500e-02
        2 -1    0    0  501    0 +0.0000000000e+00 +0.0000000000e+00 +6.0822367857e+02 6.0822367857e+02 0.0000000000e+00 0.0000e+00 -1.0000e+00
       -2 -1    0    0    0  501 -0.0000000000e+00 -0.0000000000e+00 -8.6007693690e+02 8.6007693690e+02 0.0000000000e+00 0.0000e+00 1.0000e+00
      -13  1    1    2    0    0 -3.3118460638e+02 -9.3451936426e+01 -7.7165920573e+02 8.4491090519e+02 0.0000000000e+00 0.0000e+00 1.0000e+00
       13  1    1    2    0    0 +3.3118460638e+02 +9.3451936426e+01 +5.1980594740e+02 6.2338971027e+02 0.0000000000e+00 0.0000e+00 -1.0000e+00
<mgrwt>
<rscale>  0 0.14465395E+04</rscale>
<asrwt>0</asrwt>
<pdfrwt beam="1">  1        2 0.93572874E-01 0.14465395E+04</pdfrwt>
<pdfrwt beam="2">  1       -2 0.13231953E+00 0.14465395E+04</pdfrwt>
<totfact> 0.23612361E+01</totfact>
</mgrwt>
<rwgt>
<wgt id='morphing_basis_vector_1'> +2.2422235e-04 </wgt>
<wgt id='morphing_basis_vector_2'> +1.4624335e-04 </wgt>
<wgt id='morphing_basis_vector_3'> +2.3153879e-04 </wgt>
<wgt id='morphing_basis_vector_4'> +1.5529754e-04 </wgt>
<wgt id='morphing_basis_vector_5'> +2.4711262e-04 </wgt>
</rwgt>
</event>
<event>
 4      1 +3.5234200e-07 1.32599600e+03 7.81860800e-03 8.42382000e-02
        2 -1    0    0  501    0 +0.0000000000e+00 +0.0000000000e+00 +1.1546916169e+03 1.1546916169e+03 0.0000000000e+00 0.0000e+00 1.0000e+00
       -2 -1    0    0    0  501 -0.0000000000e+00 -0.0000000000e+00 -3.8067858791e+02 3.8067858791e+02 0.0000000000e+00 0.0000e+00 -1.0000e+00
      -13  1    1    2    0    0 -1.0149246177e+02 -6.5437492303e+02 +3.4932378603e+02 7.4868843131e+02 0.0000000000e+00 0.0000e+00 -1.0000e+00
       13  1    1    2    0    0 +1.0149246177e+02 +6.5437492303e+02 +4.2468924299e+02 7.8668177353e+02 0.0000000000e+00 0.0000e+00 1.0000e+00
<mgrwt>
<rscale>  0 0.13259960E+04</rscale>
<asrwt>0</asrwt>
<pdfrwt beam="1">  1        2 0.17764486E+00 0.13259960E+04</pdfrwt>
<pdfrwt beam="2">  1       -2 0.58565937E-01 0.13259960E+04</pdfrwt>
<totfact> 0.67952777E+01</totfact>
</mgrwt>
<rwgt>
<wgt id='morphing_basis_vector_1'> +1.6544364e-04 </wgt>
<wgt id='morphing_basis_vector_2'> +1.1841326e-04 </wgt>
<wgt id='morphing_basis_vector_3'> +1.6963811e-04 </wgt>
<wgt id='morphing_basis_vector_4'> +9.9439888e-05 </wgt>
<wgt id='morphing_basis_vector_5'> +1.7126915e-04 </wgt>
</rwgt>
</event>
<event>
 4      1 +3.5234200e-07 1.29208500e+03 7.81860800e-03 8.44706800e-02
        2 -1    0    0  501    0 +0.0000000000e+00 +0.0000000000e+00 +2.8813709675e+03 2.8813709675e+03 0.0000000000e+00 0.0000e+00 -1.0000e+00
       -2 -1    0    0    0  501 -0.0000000000e+00 -0.0000000000e+00 -1.4485139817e+02 1.4485139817e+02 0.0000000000e+00 0.0000e+00 1.0000e+00
      -13  1    1    2    0    0 +2.5067567288e+02 +5.9427638185e+02 +1.2816359419e+03 1.4347799129e+03 0.0000000000e+00 0.0000e+00 1.0000e+00
       13  1    1    2    0    0 -2.5067567288e+02 -5.9427638185e+02 +1.4548836274e+03 1.5914424527e+03 0.0000000000e+00 0.0000e+00 -1.0000e+00
<mgrwt>
<rscale>  0 0.12920845E+04</rscale>
<asrwt>0</asrwt>
<pdfrwt beam="1">  1        2 0.44328780E+00 0.12920845E+04</pdfrwt>
<pdfrwt beam="2">  1       -2 0.22284833E-01 0.12920845E+04</pdfrwt>
<totfact> 0.40911266E+01</totfact>
</mgrwt>
<rwgt>
<wgt id='morphing_basis_vector_1'> +1.4973459e-04 </wgt>
<wgt id='morphing_basis_vector_2'> +1.0663594e-04 </wgt>
<wgt id='morphing_basis_vector_3'> +1.5279040e-04 </wgt>
<wgt id='morphing_basis_vector_4'> +8.9468861e-05 </wgt>
<wgt id='morphing_basis_vector_5'> +1.5366027e-04 </wgt>
</rwgt>
</event>
<event>
 4      1 +3.5234200e-07 1.34554200e+03 7.81860800e-03 8.41074800e-02
        2 -1    0    0  501    0 +0.0000000000e+00 +0.0000000000e+00 +1.4963110683e+03 1.4963110683e+03 0.0000000000e+00 0.0000e+00 -1.0000e+00
       -2 -1    0    0    0  501 -0.0000000000e+00 -0.0000000000e+00 -3.0249130819e+02 3.0249130819e+02 0.0000000000e+00 0.0000e+00 1.0000e+00
      -13  1    1    2    0    0 +4.0880221385e+02 -1.2372672878e+02 -9.7992089552e+01 4.3821228084e+02 0.0000000000e+00 0.0000e+00 1.0000e+00
       13  1    1    2    0    0 -4.0880221385e+02 +1.2372672878e+02 +1.2918118497e+03 1.3605900957e+03 0.0000000000e+00 0.0000e+00 -1.0000e+00
<mgrwt>
<rscale>  0 0.13455424E+04</rscale>
<asrwt>0</asrwt>
<pdfrwt beam="1">  1        2 0.23020170E+00 0.13455424E+04</pdfrwt>
<pdfrwt beam="2">  1       -2 0.46537125E-01 0.13455424E+04</pdfrwt>
<totfact> 0.68283146E+01</totfact>
</mgrwt>
<rwgt>
<wgt id='morphing_basis_vector_1'> +1.6993273e-04 </wgt>
<wgt id='morphing_basis_vector_2'> +1.1032392e-04 </wgt>
<wgt id='morphing_basis_vector_3'> +1.7366330e-04 </wgt>
<wgt id='morphing_basis_vector_4'> +1.1475819e-04 </wgt>
<wgt id='morphing_basis_vector_5'> +1.8272997e-04 </wgt>
</rwgt>
</event>
<event>
 4      1 +3.5234200e-07 1.31383800e+03 7.81860800e-03 8.43207100e-02
        2 -1    0    0  501    0 +0.0000000000e+00 +0.0000000000e+00 +1.1666152905e+03 1.1666152905e+03 0.0000000000e+00 0.0000e+00 -1.0000e+00
       -2 -1    0    0    0  501 -0.0000000000e+00 -0.0000000000e+00 -3.6990987369e+02 3.6990987369e+02 0.0000000000e+00 0.0000e+00 1.0000e+00
      -13  1    1    2    0    0 +5.0393792787e+02 +1.6585519909e+02 -5.4712733068e+01 5.3334310287e+02 0.0000000000e+00 0.0000e+00 1.0000e+00
       13  1    1    2    0    0 -5.0393792787e+02 -1.6585519909e+02 +8.5141814986e+02 1.0031820613e+03 0.0000000000e+00 0.0000e+00 -1.0000e+00
<mgrwt>
<rscale>  0 0.13138379E+04</rscale>
<asrwt>0</asrwt>
<pdfrwt beam="1">  1        2 0.17947927E+00 0.13138379E+04</pdfrwt>
<pdfrwt beam="2">  1       -2 0.56909212E-01 0.13138379E+04</pdfrwt>
<totfact> 0.70944346E+01</totfact>
</mgrwt>
<rwgt>
<wgt id='morphing_basis_vector_1'> +1.5544118e-04 </wgt>
<wgt id='morphing_basis_vector_2'> +1.0141179e-04 </wgt>
<wgt id='morphing_basis_vector_3'> +1.5831486e-04 </wgt>
<wgt id='morphing_basis_vector_4'> +1.0332532e-04 </wgt>
<wgt id='morphing_basis_vector_5'> +1.6532781e-04 </wgt>
</rwgt>
</event>
<event>
 4      1 +3.5234200e-07 1.51341000e+03 7.81860800e-03 8.30721800e-02
        2 -1    0    0  501    0 +0.0000000000e+00 +0.0000000000e+00 +1.3434420019e+03 1.3434420019e+03 0.0000000000e+00 0.0000e+00 1.0000e+00
       -2 -1    0    0    0  501 -0.0000000000e+00 -0.0000000000e+00 -4.2622038119e+02 4.2622038119e+02 0.0000000000e+00 0.0000e+00 -1.0000e+00
      -13  1    1    2    0    0 -5.9617274044e+02 -7.4983591709e+01 -7.9223453126e+01 6.0606998853e+02 0.0000000000e+00 0.0000e+00 -1.0000e+00
       13  1    1    2    0    0 +5.9617274044e+02 +7.4983591709e+01 +9.9644507381e+02 1.1635923945e+03 0.0000000000e+00 0.0000e+00 1.0000e+00
<mgrwt>
<rscale>  0 0.15134099E+04</rscale>
<asrwt>0</asrwt>
<pdfrwt beam="1">  1        2 0.20668338E+00 0.15134099E+04</pdfrwt>
<pdfrwt beam="2">  1       -2 0.65572367E-01 0.15134099E+04</pdfrwt>
<totfact> 0.41204547E+01</totfact>
</mgrwt>
<rwgt>
<wgt id='morphing_basis_vector_1'> +2.6748243e-04 </wgt>
<wgt id='morphing_basis_vector_2'> +1.7646766e-04 </wgt>
<wgt id='morphing_basis_vector_3'> +2.7800403e-04 </wgt>
<wgt id='morphing_basis_vector_4'> +1.8616866e-04 </wgt>
<wgt id='morphing_basis_vector_5'> +2.9800382e-04 </wgt>
</rwgt>
</event>
<event>
 4      1 +3.5234200e-07 1.32718600e+03 7.81860800e-03 8.42301700e-02
        2 -1    0    0  501    0 +0.0000000000e+00 +0.0000000000e+00 +1.2249409387e+03 1.2249409387e+03 0.0000000000e+00 0.0000e+00 -1.0000e+00
       -2 -1    0    0    0  501 -0.0000000000e+00 -0.0000000000e+00 -3.5949158741e+02 3.5949158741e+02 0.0000000000e+00 0.0000e+00 1.0000e+00
      -13  1    1    2    0    0 +4.5923408081e+02 -4.7784062440e+02 +3.9262272439e+02 7.7031175962e+02 0.0000000000e+00 0.0000e+00 1.0000e+00
       13  1    1    2    0    0 -4.5923408081e+02 +4.7784062440e+02 +4.7282662688e+02 8.1412076647e+02 0.0000000000e+00 0.0000e+00 -1.0000e+00
<mgrwt>
<rscale>  0 0.13271864E+04</rscale>
<asrwt>0</asrwt>
<pdfrwt beam="1">  1        2 0.18845245E+00 0.13271864E+04</pdfrwt>
<pdfrwt beam="2">  1       -2 0.55306399E-01 0.13271864E+04</pdfrwt>
<totfact> 0.69405349E+01</totfact>
</mgrwt>
<rwgt>
<wgt id='morphing_basis_vector_1'> +1.6598454e-04 </wgt>
<wgt id='morphing_basis_vector_2'> +1.1874672e-04 </wgt>
<wgt id='morphing_basis_vector_3'> +1.7021432e-04 </wgt>
<wgt id='morphing_basis_vector_4'> +9.9862204e-05 </wgt>
<wgt id='morphing_basis_vector_5'> +1.7191726e-04 </wgt>
</rwgt>
</event>
<event>
 4      1 +3.5234200e-07 1.35017500e+03 7.81860800e-03 8.40768400e-02
        2 -1    0    0  501    0 +0.0000000000e+00 +0.0000000000e+00 +1.0359300824e+03 1.0359300824e+03 0.0000000000e+00 0.0000e+00 -1.0000e+00
       -2 -1    0    0    0  501 -0.0000000000e+00 -0.0000000000e+00 -4.3993613619e+02 4.3993613619e+02 0.0000000000e+00 0.0000e+00 1.0000e+00
      -13  1    1    2    0    0 -3.8946414432e+02 -2.1201270638e+02 -2.5841977238e+02 5.1323726105e+02 0.0000000000e+00 0.0000e+00 1.0000e+00
       13  1    1    2    0    0 +3.8946414432e+02 +2.1201270638e+02 +8.5441371861e+02 9.6262895755e+02 0.0000000000e+00 0.0000e+00 -1.0000e+00
<mgrwt>
<rscale>  0 0.13501749E+04</rscale>
<asrwt>0</asrwt>
<pdfrwt beam="1">  1        2 0.15937386E+00 0.13501749E+04</pdfrwt>
<pdfrwt beam="2">  1       -2 0.67682483E-01 0.13501749E+04</pdfrwt>
<totfact> 0.59208198E+01</totfact>
</mgrwt>
<rwgt>
<wgt id='morphing_basis_vector_1'> +1.7220438e-04 </wgt>
<wgt id='morphing_basis_vector_2'> +1.1188645e-04 </wgt>
<wgt id='morphing_basis_vector_3'> +1.7608298e-04 </wgt>
<wgt id='morphing_basis_vector_4'> +1.1637605e-04 </wgt>
<wgt id='morphing_basis_vector_5'> +1.8537248e-04 </wgt>
</rwgt>
</event>
<event>
 4      1 +3.5234200e-07 1.44208400e+03 7.81860800e-03 8.34941400e-02
        2 -1    0    0  501    0 +0.0000000000e+00 +0.0000000000e+00 +1.8446667528e+03 1.8446667528e+03 0.0000000000e+00 0.0000e+00 -1.0000e+00
       -2 -1    0    0    0  501 -0.0000000000e+00 -0.0000000000e+00 -2.8184049741e+02 2.8184049741e+02 0.0000000000e+00 0.0000e+00 1.0000e+00
      -13  1    1    2    0    0 +7.7913175248e+01 +6.3240367328e+02 +2.8375372310e+02 6.9751060510e+02 0.0000000000e+00 0.0000e+00 1.0000e+00
       13  1    1    2    0    0 -7.7913175248e+01 -6.3240367328e+02 +1.2790725323e+03 1.4289966451e+03 0.0000000000e+00 0.0000e+00 -1.0000e+00
<mgrwt>
<rscale>  0 0.14420843E+04</rscale>
<asrwt>0</asrwt>
<pdfrwt beam="1">  1        2 0.28379488E+00 0.14420843E+04</pdfrwt>
<pdfrwt beam="2">  1       -2 0.43360078E-01 0.14420843E+04</pdfrwt>
<totfact> 0.49661833E+01</totfact>
</mgrwt>
<rwgt>
<wgt id='morphing_basis_vector_1'> +2.2269498e-04 </wgt>
<wgt id='morphing_basis_vector_2'> +1.4781811e-04 </wgt>
<wgt id='morphing_basis_vector_3'> +2.3014515e-04 </wgt>
<wgt id='morphing_basis_vector_4'> +1.5126049e-04 </wgt>
<wgt id='morphing_basis_vector_5'> +2.4381267e-04 </wgt>
</rwgt>
</event>
<event>
 4      1 +3.5234200e-07 1.36154600e+03 7.81860800e-03 8.40021700e-02
        2 -1    0    0  501    0 +0.0000000000e+00 +0.0000000000e+00 +3.5574513292e+02 3.5574513292e+02 0.0000000000e+00 0.0000e+00 -1.0000e+00
       -2 -1    0    0    0  501 -0.0000000000e+00 -0.0000000000e+00 -1.3027633224e+03 1.3027633224e+03 0.0000000000e+00 0.0000e+00 1.0000e+00
      -13  1    1    2    0    0 -6.4049494976e+02 -1.4263104353e+02 -6.9436743911e+02 9.5536565552e+02 0.0000000000e+00 0.0000e+00 1.0000e+00
       13  1    1    2    0    0 +6.4049494976e+02 +1.4263104353e+02 -2.5265075035e+02 7.0314279979e+02 0.0000000000e+00 0.0000e+00 -1.0000e+00
<mgrwt>
<rscale>  0 0.13615458E+04</rscale>
<asrwt>0</asrwt>
<pdfrwt beam="1">  1        2 0.54730021E-01 0.13615458E+04</pdfrwt>
<pdfrwt beam="2">  1       -2 0.20042512E+00 0.13615458E+04</pdfrwt>
<totfact> 0.12627775E+01</totfact>
</mgrwt>
<rwgt>
<wgt id='morphing_basis_vector_1'> +1.7999546e-04 </wgt>
<wgt id='morphing_basis_vector_2'> +1.2212275e-04 </wgt>
<wgt id='morphing_basis_vector_3'> +1.8475618e-04 </wgt>
<wgt id='morphing_basis_vector_4'> +1.1659137e-04 </wgt>
<wgt id='morphing_basis_vector_5'> +1.9170357e-04 </wgt>
</rwgt>
</event>
<event>
 4      1 +3.5234200e-07 1.52401500e+03 7.81860800e-03 8.30115000e-02
        2 -1    0    0  501    0 +0.0000000000e+00 +0.0000000000e+00 +3.3371015035e+02 3.3371015035e+02 0.0000000000e+00 0.0000e+00 1.0000e+00
       -2 -1    0    0    0  501 -0.0000000000e+00 -0.0000000000e+00 -1.7399998859e+03 1.7399998859e+03 0.0000000000e+00 0.0000e+00 -1.0000e+00
      -13  1    1    2    0    0 +1.6930211264e+02 -2.5197985906e+02 -1.6541664297e+03 1.6817917920e+03 0.0000000000e+00 0.0000e+00 -1.0000e+00
       13  1    1    2    0    0 -1.6930211264e+02 +2.5197985906e+02 +2.4787669407e+02 3.9191824425e+02 0.0000000000e+00 0.0000e+00 1.0000e+00
<mgrwt>
<rscale>  0 0.15240153E+04</rscale>
<asrwt>0</asrwt>
<pdfrwt beam="1">  1        2 0.51340023E-01 0.15240153E+04</pdfrwt>
<pdfrwt beam="2">  1       -2 0.26769229E+00 0.15240153E+04</pdfrwt>
<totfact> 0.45105231E+00</totfact>
</mgrwt>
<rwgt>
<wgt id='morphing_basis_vector_1'> +2.7416125e-04 </wgt>
<wgt id='morphing_basis_vector_2'> +1.7950130e-04 </wgt>
<wgt id='morphing_basis_vector_3'> +2.8501785e-04 </wgt>
<wgt id='morphing_basis_vector_4'> +1.9281023e-04 </wgt>
<wgt id='morphing_basis_vector_5'> +3.0683737e-04 </wgt>
</rwgt>
</event>
<event>
 4      1 +3.5234200e-07 1.34469700e+03 7.81860800e-03 8.41130800e-02
        2 -1    0    0  501    0 +0.0000000000e+00 +0.0000000000e+00 +3.1718583290e+03 3.1718583290e+03 0.0000000000e+00 0.0000e+00 1.0000e+00
       -2 -1    0    0    0  501 -0.0000000000e+00 -0.0000000000e+00 -1.4251983102e+02 1.4251983102e+02 0.0000000000e+00 0.0000e+00 -1.0000e+00
      -13  1    1    2    0    0 +4.7654610054e+02 +4.4388162533e+02 +1.1027813705e+03 1.2807239493e+03 0.0000000000e+00 0.0000e+00 -1.0000e+00
       13  1    1    2    0    0 -4.7654610054e+02 -4.4388162533e+02 +1.9265571275e+03 2.0336542107e+03 0.0000000000e+00 0.0000e+00 1.0000e+00
<mgrwt>
<rscale>  0 0.13446973E+04</rscale>
<asrwt>0</asrwt>
<pdfrwt beam="1">  1        2 0.48797815E+00 0.13446973E+04</pdfrwt>
<pdfrwt beam="2">  1       -2 0.21926130E-01 0.13446973E+04</pdfrwt>
<totfact> 0.27106457E+01</totfact>
</mgrwt>
<rwgt>
<wgt id='morphing_basis_vector_1'> +1.7178510e-04 </wgt>
<wgt id='morphing_basis_vector_2'> +1.1681387e-04 </wgt>
<wgt id='morphing_basis_vector_3'> +1.7601111e-04 </wgt>
<wgt id='morphing_basis_vector_4'> +1.1039028e-04 </wgt>
<wgt id='morphing_basis_vector_5'> +1.8195977e-04 </wgt>
</rwgt>
</event>
<event>
 4      1 +3.5234200e-07 1.32596800e+03 7.81860800e-03 8.42383900e-02
        2 -1    0    0  501    0 +0.0000000000e+00 +0.0000000000e+00 +3.4759516754e+03 3.4759516754e+03 0.0000000000e+00 0.0000e+00 -1.0000e+00
       -2 -1    0    0    0  501 -0.0000000000e+00 -0.0000000000e+00 -1.2645389944e+02 1.2645389944e+02 0.0000000000e+00 0.0000e+00 1.0000e+00
      -13  1    1    2    0    0 -2.7266542368e+02 -4.6143787425e+02 +6.1457821072e+02 8.1546166198e+02 0.0000000000e+00 0.0000e+00 1.0000e+00
       13  1    1    2    0    0 +2.7266542368e+02 +4.6143787425e+02 +2.7349195652e+03 2.7869439129e+03 0.0000000000e+00 0.0000e+00 -1.0000e+00
<mgrwt>
<rscale>  0 0.13259678E+04</rscale>
<asrwt>0</asrwt>
<pdfrwt beam="1">  1        2 0.53476173E+00 0.13259678E+04</pdfrwt>
<pdfrwt beam="2">  1       -2 0.19454449E-01 0.13259678E+04</pdfrwt>
<totfact> 0.20449480E+01</totfact>
</mgrwt>
<rwgt>
<wgt id='morphing_basis_vector_1'> +1.6099690e-04 </wgt>
<wgt id='morphing_basis_vector_2'> +1.0513578e-04 </wgt>
<wgt id='morphing_basis_vector_3'> +1.6421768e-04 </wgt>
<wgt id='morphing_basis_vector_4'> +1.0736658e-04 </wgt>
<wgt id='morphing_basis_vector_5'> +1.7181775e-04 </wgt>
</rwgt>
</event>
<event>
 4      1 +3.5234200e-07 1.37045700e+03 7.81860800e-03 8.39441800e-02
        2 -1    0    0  501    0 +0.0000000000e+00 +0.0000000000e+00 +1.0361357110e+03 1.0361357110e+03 0.0000000000e+00 0.0000e+00 -1.0000e+00
       -2 -1    0    0    0  501 -0.0000000000e+00 -0.0000000000e+00 -4.5316268008e+02 4.5316268008e+02 0.0000000000e+00 0.0000e+00 1.0000e+00
      -13  1    1    2    0    0 +3.2236129810e+02 -4.9681690998e+02 -8.3067045549e+01 5.9803342934e+02 0.0000000000e+00 0.0000e+00 1.0000e+00
       13  1    1    2    0    0 -3.2236129810e+02 +4.9681690998e+02 +6.6604007649e+02 8.9126496175e+02 0.0000000000e+00 0.0000e+00 -1.0000e+00
<mgrwt>
<rscale>  0 0.13704569E+04</rscale>
<asrwt>0</asrwt>
<pdfrwt beam="1">  1        2 0.15940549E+00 0.13704569E+04</pdfrwt>
<pdfrwt beam="2">  1       -2 0.69717336E-01 0.13704569E+04</pdfrwt>
<totfact> 0.55481401E+01</totfact>
</mgrwt>
<rwgt>
<wgt id='morphing_basis_vector_1'> +1.8297035e-04 </wgt>
<wgt id='morphing_basis_vector_2'> +1.2055948e-04 </wgt>
<wgt id='morphing_basis_vector_3'> +1.8765895e-04 </wgt>
<wgt id='morphing_basis_vector_4'> +1.2266726e-04 </wgt>
<wgt id='morphing_basis_vector_5'> +1.9720431e-04 </wgt>
</rwgt>
</event>
<event>
 4      1 +3.5234200e-07 1.54477200e+03 7.81860800e-03 8.28942000e-02
        2 -1    0    0  501    0 +0.0000000000e+00 +0.0000000000e+00 +1.1452958908e+03 1.1452958908e+03 0.0000000000e+00 0.0000e+00 -1.0000e+00
       -2 -1    0    0    0  501 -0.0000000000e+00 -0.0000000000e+00 -5.2089632556e+02 5.2089632556e+02 0.0000000000e+00 0.0000e+00 1.0000e+00
      -13  1    1    2    0    0 +3.9629635587e+02 +5.3286828508e+02 -1.1324078663e+02 6.7366377866e+02 0.0000000000e+00 0.0000e+00 1.0000e+00
       13  1    1    2    0    0 -3.9629635587e+02 -5.3286828508e+02 +7.3764035187e+02 9.9252843770e+02 0.0000000000e+00 0.0000e+00 -1.0000e+00
<mgrwt>
<rscale>  0 0.15447724E+04</rscale>
<asrwt>0</asrwt>
<pdfrwt beam="1">  1        2 0.17619937E+00 0.15447724E+04</pdfrwt>
<pdfrwt beam="2">  1       -2 0.80137897E-01 0.15447724E+04</pdfrwt>
<totfact> 0.34595275E+01</totfact>
</mgrwt>
<rwgt>
<wgt id='morphing_basis_vector_1'> +2.9006338e-04 </wgt>
<wgt id='morphing_basis_vector_2'> +1.9286462e-04 </wgt>
<wgt id='morphing_basis_vector_3'> +3.0238693e-04 </wgt>
<wgt id='morphing_basis_vector_4'> +2.0166359e-04 </wgt>
<wgt id='morphing_basis_vector_5'> +3.2434091e-04 </wgt>
</rwgt>
</event>
<event>
 4      1 +3.5234200e-07 1.46855600e+03 7.81860800e-03 8.33346400e-02
        2 -1    0    0  501    0 +0.0000000000e+00 +0.0000000000e+00 +2.4976890448e+03 2.4976890448e+03 0.0000000000e+00 0.0000e+00 -1.0000e+00
       -2 -1    0    0    0  501 -0.0000000000e+00 -0.0000000000e+00 -2.1586530208e+02 2.1586530208e+02 0.0000000000e+00 0.0000e+00 1.0000e+00
      -13  1    1    2    0    0 +7.1061182216e+02 -9.0034406358e+01 +1.4393655986e+03 1.6077464609e+03 0.0000000000e+00 0.0000e+00 -1.0000e+00
       13  1    1    2    0    0 -7.1061182216e+02 +9.0034406358e+01 +8.4245814419e+02 1.1058078860e+03 0.0000000000e+00 0.0000e+00 1.0000e+00
<mgrwt>
<rscale>  0 0.14685563E+04</rscale>
<asrwt>0</asrwt>
<pdfrwt beam="1">  1        2 0.38425983E+00 0.14685563E+04</pdfrwt>
<pdfrwt beam="2">  1       -2 0.33210048E-01 0.14685563E+04</pdfrwt>
<totfact> 0.34398840E+01</totfact>
</mgrwt>
<rwgt>
<wgt id='morphing_basis_vector_1'> +2.5609534e-04 </wgt>
<wgt id='morphing_basis_vector_2'> +2.1021032e-04 </wgt>
<wgt id='morphing_basis_vector_3'> +2.6979026e-04 </wgt>
<wgt id='morphing_basis_vector_4'> +1.3114244e-04 </wgt>
<wgt id='morphing_basis_vector_5'> +2.6059757e-04 </wgt>
</rwgt>
</event>
<event>
 4      1 +3.5234200e-07 1.40174100e+03 7.81860800e-03 8.37441800e-02
        2 -1    0    0  501    0 +0.0000000000e+00 +0.0000000000e+00 +1.6017019973e+03 1.6017019973e+03 0.0000000000e+00 0.0000e+00 1.0000e+00
       -2 -1    0    0    0  501 -0.0000000000e+00 -0.0000000000e+00 -3.0668609996e+02 3.0668609996e+02 0.0000000000e+00 0.0000e+00 -1.0000e+00
      -13  1    1    2    0    0 -4.4386019702e+02 -3.3195771420e+01 -8.9566035583e+01 4.5402192509e+02 0.0000000000e+00 0.0000e+00 -1.0000e+00
       13  1    1    2    0    0 +4.4386019702e+02 +3.3195771420e+01 +1.3845819329e+03 1.4543661721e+03 0.0000000000e+00 0.0000e+00 1.0000e+00
<mgrwt>
<rscale>  0 0.14017414E+04</rscale>
<asrwt>0</asrwt>
<pdfrwt beam="1">  1        2 0.24641569E+00 0.14017414E+04</pdfrwt>
<pdfrwt beam="2">  1       -2 0.47182478E-01 0.14017414E+04</pdfrwt>
<totfact> 0.57811967E+01</totfact>
</mgrwt>
<rwgt>
<wgt id='morphing_basis_vector_1'> +1.9878387e-04 </wgt>
<wgt id='morphing_basis_vector_2'> +1.2953433e-04 </wgt>
<wgt id='morphing_basis_vector_3'> +2.0439362e-04 </wgt>
<wgt id='morphing_basis_vector_4'> +1.3608948e-04 </wgt>
<wgt id='morphing_basis_vector_5'> +2.1677129e-04 </wgt>
</rwgt>
</event>
<event>
 4      1 +3.5234200e-07 1.30194900e+03 7.81860800e-03 8.44022900e-02
        2 -1    0    0  501    0 +0.0000000000e+00 +0.0000000000e+00 +1.0944897971e+03 1.0944897971e+03 0.0000000000e+00 0.0000e+00 -1.0000e+00
       -2 -1    0    0    0  501 -0.0000000000e+00 -0.0000000000e+00 -3.8718318659e+02 3.8718318659e+02 0.0000000000e+00 0.0000e+00 1.0000e+00
      -13  1    1    2    0    0 -4.4236393833e+02 +3.5673696834e+02 -7.7013133192e+00 5.6833654532e+02 0.0000000000e+00 0.0000e+00 1.0000e+00
       13  1    1    2    0    0 +4.4236393833e+02 -3.5673696834e+02 +7.1500792382e+02 9.1333643836e+02 0.0000000000e+00 0.0000e+00 -1.0000e+00
<mgrwt>
<rscale>  0 0.13019494E+04</rscale>
<asrwt>0</asrwt>
<pdfrwt beam="1">  1        2 0.16838304E+00 0.13019494E+04</pdfrwt>
<pdfrwt beam="2">  1       -2 0.59566645E-01 0.13019494E+04</pdfrwt>
<totfact> 0.71426981E+01</totfact>
</mgrwt>
<rwgt>
<wgt id='morphing_basis_vector_1'> +1.5044762e-04 </wgt>
<wgt id='morphing_basis_vector_2'> +9.8784016e-05 </wgt>
<wgt id='morphing_basis_vector_3'> +1.5305760e-04 </wgt>
<wgt id='morphing_basis_vector_4'> +9.8926133e-05 </wgt>
<wgt id='morphing_basis_vector_5'> +1.5910578e-04 </wgt>
</rwgt>
</event>
<event>
 4      1 +3.5234200e-07 1.48252300e+03 7.81860800e-03 8.32518900e-02
        2 -1    0    0  501    0 +0.0000000000e+00 +0.0000000000e+00 +4.9218733843e+02 4.9218733843e+02 0.0000000000e+00 0.0000e+00 1.0000e+00
       -2 -1    0    0    0  501 -0.0000000000e+00 -0.0000000000e+00 -1.1163804868e+03 1.1163804868e+03 0.0000000000e+00 0.0000e+00 -1.0000e+00
      -13  1    1    2    0    0 -3.3421321340e+01 -5.7902085854e+02 -8.1295583514e+02 9.9863873810e+02 0.0000000000e+00 0.0000e+00 -1.0000e+00
       13  1    1    2    0    0 +3.3421321340e+01 +5.7902085854e+02 +1.8876268682e+02 6.0992908709e+02 0.0000000000e+00 0.0000e+00 1.0000e+00
<mgrwt>
<rscale>  0 0.14825226E+04</rscale>
<asrwt>0</asrwt>
<pdfrwt beam="1">  1        2 0.75721129E-01 0.14825226E+04</pdfrwt>
<pdfrwt beam="2">  1       -2 0.17175084E+00 0.14825226E+04</pdfrwt>
<totfact> 0.14218924E+01</totfact>
</mgrwt>
<rwgt>
<wgt id='morphing_basis_vector_1'> +2.4697326e-04 </wgt>
<wgt id='morphing_basis_vector_2'> +1.6255271e-04 </wgt>
<wgt id='morphing_basis_vector_3'> +2.5599563e-04 </wgt>
<wgt id='morphing_basis_vector_4'> +1.7103641e-04 </wgt>
<wgt id='morphing_basis_vector_5'> +2.7359314e-04 </wgt>
</rwgt>
</event>
<event>
 4      1 +3.5234200e-07 1.40603800e+03 7.81860800e-03 8.37171300e-02
        2 -1    0    0  501    0 +0.0000000000e+00 +0.0000000000e+00 +2.3123693771e+03 2.3123693771e+03 0.0000000000e+00 0.0000e+00 -1.0000e+00
       -2 -1    0    0    0  501 -0.0000000000e+00 -0.0000000000e+00 -2.1373570592e+02 2.1373570592e+02 0.0000000000e+00 0.0000e+00 1.0000e+00
      -13  1    1    2    0    0 -3.9610642895e+02 -5.3697276618e+02 +6.5163669364e+02 9.3266844868e+02 0.0000000000e+00 0.0000e+00 1.0000e+00
       13  1    1    2    0    0 +3.9610642895e+02 +5.3697276618e+02 +1.4469969776e+03 1.5934366344e+03 0.0000000000e+00 0.0000e+00 -1.0000e+00
<mgrwt>
<rscale>  0 0.14060383E+04</rscale>
<asrwt>0</asrwt>
<pdfrwt beam="1">  1        2 0.35574912E+00 0.14060383E+04</pdfrwt>
<pdfrwt beam="2">  1       -2 0.32882418E-01 0.14060383E+04</pdfrwt>
<totfact> 0.45200864E+01</totfact>
</mgrwt>
<rwgt>
<wgt id='morphing_basis_vector_1'> +2.0313354e-04 </wgt>
<wgt id='morphing_basis_vector_2'> +1.3707410e-04 </wgt>
<wgt id='morphing_basis_vector_3'> +2.0942950e-04 </wgt>
<wgt id='morphing_basis_vector_4'> +1.3417681e-04 </wgt>
<wgt id='morphing_basis_vector_5'> +2.1928814e-04 </wgt>
</rwgt>
</event>
<event>
 4      1 +3.5234200e-07 1.49345800e+03 7.81860800e-03 8.31877500e-02
        2 -1    0    0  501    0 +0.0000000000e+00 +0.0000000000e+00 +1.6404840303e+03 1.6404840303e+03 0.0000000000e+00 0.0000e+00 1.0000e+00
       -2 -1    0    0    0  501 -0.0000000000e+00 -0.0000000000e+00 -3.3990227870e+02 3.3990227870e+02 0.0000000000e+00 0.0000e+00 -1.0000e+00
      -13  1    1    2    0    0 -6.1645941521e+02 -4.8139646387e+01 +9.5148971669e+01 6.2561406871e+02 0.0000000000e+00 0.0000e+00 -1.0000e+00
       13  1    1    2    0    0 +6.1645941521e+02 +4.8139646387e+01 +1.2054327799e+03 1.3547722403e+03 0.0000000000e+00 0.0000e+00 1.0000e+00
<mgrwt>
<rscale>  0 0.14934581E+04</rscale>
<asrwt>0</asrwt>
<pdfrwt beam="1">  1        2 0.25238215E+00 0.14934581E+04</pdfrwt>
<pdfrwt beam="2">  1       -2 0.52292659E-01 0.14934581E+04</pdfrwt>
<totfact> 0.44634588E+01</totfact>
</mgrwt>
<rwgt>
<wgt id='morphing_basis_vector_1'> +2.5432692e-04 </wgt>
<wgt id='morphing_basis_vector_2'> +1.6807918e-04 </wgt>
<wgt id='morphing_basis_vector_3'> +2.6393779e-04 </wgt>
<wgt id='morphing_basis_vector_4'> +1.7584885e-04 </wgt>
<wgt id='morphing_basis_vector_5'> +2.8202684e-04 </wgt>
</rwgt>
</event>
<event>
 4      1 +3.5234200e-07 1.44705800e+03 7.81860800e-03 8.34639000e-02
        2 -1    0    0  501    0 +0.0000000000e+00 +0.0000000000e+00 +1.6851471234e+03 1.6851471234e+03 0.0000000000e+00 0.0000e+00 -1.0000e+00
       -2 -1    0    0    0  501 -0.0000000000e+00 -0.0000000000e+00 -3.1065193790e+02 3.1065193790e+02 0.0000000000e+00 0.0000e+00 1.0000e+00
      -13  1    1    2    0    0 -4.6303636559e+02 +9.1626316789e+01 -6.9053652354e+01 4.7703926955e+02 0.0000000000e+00 0.0000e+00 1.0000e+00
       13  1    1    2    0    0 +4.6303636559e+02 -9.1626316789e+01 +1.4435488378e+03 1.5187597917e+03 0.0000000000e+00 0.0000e+00 -1.0000e+00
<mgrwt>
<rscale>  0 0.14470580E+04</rscale>
<asrwt>0</asrwt>
<pdfrwt beam="1">  1        2 0.25925340E+00 0.14470580E+04</pdfrwt>
<pdfrwt beam="2">  1       -2 0.47792607E-01 0.14470580E+04</pdfrwt>
<totfact> 0.50491896E+01</totfact>
</mgrwt>
<rwgt>
<wgt id='morphing_basis_vector_1'> +2.2466584e-04 </wgt>
<wgt id='morphing_basis_vector_2'> +1.4684957e-04 </wgt>
<wgt id='morphing_basis_vector_3'> +2.3204186e-04 </wgt>
<wgt id='morphing_basis_vector_4'> +1.5528128e-04 </wgt>
<wgt id='morphing_basis_vector_5'> +2.4746286e-04 </wgt>
</rwgt>
</event>
<event>
 4      1 +3.5234200e-07 1.41853200e+03 7.81860800e-03 8.36390600e-02
        2 -1    0    0  501    0 +0.0000000000e+00 +0.0000000000e+00 +9.0986266890e+02 9.0986266890e+02 0.0000000000e+00 0.0000e+00 1.0000e+00
       -2 -1    0    0    0  501 -0.0000000000e+00 -0.0000000000e+00 -5.5289510119e+02 5.5289510119e+02 0.0000000000e+00 0.0000e+00 -1.0000e+00
      -13  1    1    2    0    0 -2.2001132533e+02 -1.3545505381e+02 -5.0264384368e+02 5.6515828621e+02 0.0000000000e+00 0.0000e+00 -1.0000e+00
       13  1    1    2    0    0 +2.2001132533e+02 +1.3545505381e+02 +8.5961141139e+02 8.9759948388e+02 0.0000000000e+00 0.0000e+00 1.0000e+00
<mgrwt>
<rscale>  0 0.14185325E+04</rscale>
<asrwt>0</asrwt>
<pdfrwt beam="1">  1        2 0.13997887E+00 0.14185325E+04</pdfrwt>
<pdfrwt beam="2">  1       -2 0.85060785E-01 0.14185325E+04</pdfrwt>
<totfact> 0.42646582E+01</totfact>
</mgrwt>
<rwgt>
<wgt id='morphing_basis_vector_1'> +2.0795894e-04 </wgt>
<wgt id='morphing_basis_vector_2'> +1.3535635e-04 </wgt>
<wgt id='morphing_basis_vector_3'> +2.1415986e-04 </wgt>
<wgt id='morphing_basis_vector_4'> +1.4322990e-04 </wgt>
<wgt id='morphing_basis_vector_5'> +2.2781168e-04 </wgt>
</rwgt>
</event>
<event>
 4      1 +3.5234200e-07 1.44867400e+03 7.81860800e-03 8.34541000e-02
        2 -1    0    0  501    0 +0.0000000000e+00 +0.0000000000e+00 +8.1849526173e+02 8.1849526173e+02 0.0000000000e+00 0.0000e+00 -1.0000e+00
       -2 -1    0    0    0  501 -0.0000000000e+00 -0.0000000000e+00 -6.4101077051e+02 6.4101077051e+02 0.0000000000e+00 0.0000e+00 1.0000e+00
      -13  1    1    2    0    0 -5.1989477738e+02 -3.3154871877e+02 -2.9416416698e+02 6.8318935121e+02 0.0000000000e+00 0.0000e+00 1.0000e+00
       13  1    1    2    0    0 +5.1989477738e+02 +3.3154871877e+02 +4.7164865820e+02 7.7631668103e+02 0.0000000000e+00 0.0000e+00 -1.0000e+00
<mgrwt>
<rscale>  0 0.14486743E+04</rscale>
<asrwt>0</asrwt>
<pdfrwt beam="1">  1        2 0.12592235E+00 0.14486743E+04</pdfrwt>
<pdfrwt beam="2">  1       -2 0.98617041E-01 0.14486743E+04</pdfrwt>
<totfact> 0.34611660E+01</totfact>
</mgrwt>
<rwgt>
<wgt id='morphing_basis_vector_1'> +2.2633444e-04 </wgt>
<wgt id='morphing_basis_vector_2'> +1.4958822e-04 </wgt>
<wgt id='morphing_basis_vector_3'> +2.3397797e-04 </wgt>
<wgt id='morphing_basis_vector_4'> +1.5470753e-04 </wgt>
<wgt id='morphing_basis_vector_5'> +2.4851879e-04 </wgt>
</rwgt>
</event>
<event>
 4      1 +3.5234200e-07 1.30129900e+03 7.81860800e-03 8.44067800e-02
        2 -1    0    0  501    0 +0.0000000000e+00 +0.0000000000e+00 +3.4738293236e+03 3.4738293236e+03 0.0000000000e+00 0.0000e+00 1.0000e+00
       -2 -1    0    0    0  501 -0.0000000000e+00 -0.0000000000e+00 -1.2186685607e+02 1.2186685607e+02 0.0000000000e+00 0.0000e+00 -1.0000e+00
      -13  1    1    2    0    0 -4.8415042877e+02 +8.7531616232e+01 +4.9950711245e+02 7.0112108577e+02 0.0000000000e+00 0.0000e+00 -1.0000e+00
       13  1    1    2    0    0 +4.8415042877e+02 -8.7531616232e+01 +2.8524553551e+03 2.8945750939e+03 0.0000000000e+00 0.0000e+00 1.0000e+00
<mgrwt>
<rscale>  0 0.13012988E+04</rscale>
<asrwt>0</asrwt>
<pdfrwt beam="1">  1        2 0.53443520E+00 0.13012988E+04</pdfrwt>
<pdfrwt beam="2">  1       -2 0.18748750E-01 0.13012988E+04</pdfrwt>
<totfact> 0.21884420E+01</totfact>
</mgrwt>
<rwgt>
<wgt id='morphing_basis_vector_1'> +1.4971966e-04 </wgt>
<wgt id='morphing_basis_vector_2'> +9.7269185e-05 </wgt>
<wgt id='morphing_basis_vector_3'> +1.5222187e-04 </wgt>
<wgt id='morphing_basis_vector_4'> +9.9503792e-05 </wgt>
<wgt id='morphing_basis_vector_5'> +1.5882779e-04 </wgt>
</rwgt>
</event>
<event>
 4      1 +3.5234200e-07 1.48336200e+03 7.81860800e-03 8.32469400e-02
        2 -1    0    0  501    0 +0.0000000000e+00 +0.0000000000e+00 +1.0163407665e+03 1.0163407665e+03 0.0000000000e+00 0.0000e+00 -1.0000e+00
       -2 -1    0    0    0  501 -0.0000000000e+00 -0.0000000000e+00 -5.4124652260e+02 5.4124652260e+02 0.0000000000e+00 0.0000e+00 1.0000e+00
      -13  1    1    2    0    0 +2.5038357895e+01 +2.4507489704e+02 -4.9703128977e+02 5.5473302365e+02 0.0000000000e+00 0.0000e+00 1.0000e+00
       13  1    1    2    0    0 -2.5038357895e+01 -2.4507489704e+02 +9.7212553371e+02 1.0028542655e+03 0.0000000000e+00 0.0000e+00 -1.0000e+00
<mgrwt>
<rscale>  0 0.14833623E+04</rscale>
<asrwt>0</asrwt>
<pdfrwt beam="1">  1        2 0.15636012E+00 0.14833623E+04</pdfrwt>
<pdfrwt beam="2">  1       -2 0.83268696E-01 0.14833623E+04</pdfrwt>
<totfact> 0.38135331E+01</totfact>
</mgrwt>
<rwgt>
<wgt id='morphing_basis_vector_1'> +2.4698656e-04 </wgt>
<wgt id='morphing_basis_vector_2'> +1.6134551e-04 </wgt>
<wgt id='morphing_basis_vector_3'> +2.5588871e-04 </wgt>
<wgt id='morphing_basis_vector_4'> +1.7241701e-04 </wgt>
<wgt id='morphing_basis_vector_5'> +2.7430899e-04 </wgt>
</rwgt>
</event>
<event>
 4      1 +3.5234200e-07 1.36037600e+03 7.81860800e-03 8.40098100e-02
        2 -1    0    0  501    0 +0.0000000000e+00 +0.0000000000e+00 +1.8511169321e+03 1.8511169321e+03 0.0000000000e+00 0.0000e+00 1.0000e+00
       -2 -1    0    0    0  501 -0.0000000000e+00 -0.0000000000e+00 -2.4993326984e+02 2.4993326984e+02 0.0000000000e+00 0.0000e+00 -1.0000e+00
      -13  1    1    2    0    0 -2.1139481683e+02 -5.6242485517e+02 +1.2929975531e+03 1.4257812450e+03 0.0000000000e+00 0.0000e+00 -1.0000e+00
       13  1    1    2    0    0 +2.1139481683e+02 +5.6242485517e+02 +3.0818610914e+02 6.7526895691e+02 0.0000000000e+00 0.0000e+00 1.0000e+00
<mgrwt>
<rscale>  0 0.13603760E+04</rscale>
<asrwt>0</asrwt>
<pdfrwt beam="1">  1        2 0.28478721E+00 0.13603760E+04</pdfrwt>
<pdfrwt beam="2">  1       -2 0.38451273E-01 0.13603760E+04</pdfrwt>
<totfact> 0.62129521E+01</totfact>
</mgrwt>
<rwgt>
<wgt id='morphing_basis_vector_1'> +2.0677471e-04 </wgt>
<wgt id='morphing_basis_vector_2'> +2.0355395e-04 </wgt>
<wgt id='morphing_basis_vector_3'> +2.1805478e-04 </wgt>
<wgt id='morphing_basis_vector_4'> +6.6711863e-05 </wgt>
<wgt id='morphing_basis_vector_5'> +1.8746614e-04 </wgt>
</rwgt>
</event>
<event>
 4      1 +3.5234200e-07 1.37223200e+03 7.81860800e-03 8.39326800e-02
        2 -1    0    0  501    0 +0.0000000000e+00 +0.0000000000e+00 +2.2723699086e+03 2.2723699086e+03 0.0000000000e+00 0.0000e+00 1.0000e+00
       -2 -1    0    0    0  501 -0.0000000000e+00 -0.0000000000e+00 -2.0716472406e+02 2.0716472406e+02 0.0000000000e+00 0.0000e+00 -1.0000e+00
      -13  1    1    2    0    0 -1.8887306552e+02 -3.0876559352e+02 -2.0618924880e+01 3.6253877956e+02 0.0000000000e+00 0.0000e+00 -1.0000e+00
       13  1    1    2    0    0 +1.8887306552e+02 +3.0876559352e+02 +2.0858241094e+03 2.1169958531e+03 0.0000000000e+00 0.0000e+00 1.0000e+00
<mgrwt>
<rscale>  0 0.13722316E+04</rscale>
<asrwt>0</asrwt>
<pdfrwt beam="1">  1        2 0.34959535E+00 0.13722316E+04</pdfrwt>
<pdfrwt beam="2">  1       -2 0.31871498E-01 0.13722316E+04</pdfrwt>
<totfact> 0.50560878E+01</totfact>
</mgrwt>
<rwgt>
<wgt id='morphing_basis_vector_1'> +1.8313319e-04 </wgt>
<wgt id='morphing_basis_vector_2'> +1.1894046e-04 </wgt>
<wgt id='morphing_basis_vector_3'> +1.8769819e-04 </wgt>
<wgt id='morphing_basis_vector_4'> +1.2468423e-04 </wgt>
<wgt id='morphing_basis_vector_5'> +1.9837024e-04 </wgt>
</rwgt>
</event>
<event>
 4      1 +3.5234200e-07 1.42045200e+03 7.81860800e-03 8.36271400e-02
        2 -1    0    0  501    0 +0.0000000000e+00 +0.0000000000e+00 +6.1604888027e+02 6.1604888027e+02 0.0000000000e+00 0.0000e+00 -1.0000e+00
       -2 -1    0    0    0  501 -0.0000000000e+00 -0.0000000000e+00 -8.1880062189e+02 8.1880062189e+02 0.0000000000e+00 0.0000e+00 1.0000e+00
      -13  1    1    2    0    0 -5.8700990081e+02 +3.7881602592e+00 -5.0521064991e+02 7.7448871818e+02 0.0000000000e+00 0.0000e+00 1.0000e+00
       13  1    1    2    0    0 +5.8700990081e+02 -3.7881602592e+00 +3.0245890829e+02 6.6036078398e+02 0.0000000000e+00 0.0000e+00 -1.0000e+00
<mgrwt>
<rscale>  0 0.14204523E+04</rscale>
<asrwt>0</asrwt>
<pdfrwt beam="1">  1        2 0.94776750E-01 0.14204523E+04</pdfrwt>
<pdfrwt beam="2">  1       -2 0.12596933E+00 0.14204523E+04</pdfrwt>
<totfact> 0.26569355E+01</totfact>
</mgrwt>
<rwgt>
<wgt id='morphing_basis_vector_1'> +2.0968451e-04 </wgt>
<wgt id='morphing_basis_vector_2'> +1.3799428e-04 </wgt>
<wgt id='morphing_basis_vector_3'> +2.1613316e-04 </wgt>
<wgt id='morphing_basis_vector_4'> +1.4285963e-04 </wgt>
<wgt id='morphing_basis_vector_5'> +2.2901221e-04 </wgt>
</rwgt>
</event>
<event>
 4      1 +3.5234200e-07 1.45105500e+03 7.81860800e-03 8.34396900e-02
        2 -1    0    0  501    0 +0.0000000000e+00 +0.0000000000e+00 +9.8972827289e+02 9.8972827289e+02 0.0000000000e+00 0.0000e+00 -1.0000e+00
       -2 -1    0    0    0  501 -0.0000000000e+00 -0.0000000000e+00 -5.3185309120e+02 5.3185309120e+02 0.0000000000e+00 0.0000e+00 1.0000e+00
      -13  1    1    2    0    0 -4.4746302049e+02 +1.0322314984e+02 -3.6006770906e+02 5.8354685199e+02 0.0000000000e+00 0.0000e+00 1.0000e+00
       13  1    1    2    0    0 +4.4746302049e+02 -1.0322314984e+02 +8.1794289075e+02 9.3803451210e+02 0.0000000000e+00 0.0000e+00 -1.0000e+00
<mgrwt>
<rscale>  0 0.14510548E+04</rscale>
<asrwt>0</asrwt>
<pdfrwt beam="1">  1        2 0.15226589E+00 0.14510548E+04</pdfrwt>
<pdfrwt beam="2">  1       -2 0.81823552E-01 0.14510548E+04</pdfrwt>
<totfact> 0.41342648E+01</totfact>
</mgrwt>
<rwgt>
<wgt id='morphing_basis_vector_1'> +2.2703837e-04 </wgt>
<wgt id='morphing_basis_vector_2'> +1.4837541e-04 </wgt>
<wgt id='morphing_basis_vector_3'> +2.3457357e-04 </wgt>
<wgt id='morphing_basis_vector_4'> +1.5711527e-04 </wgt>
<wgt id='morphing_basis_vector_5'> +2.5031964e-04 </wgt>
</rwgt>
</event>
<event>
 4      1 +3.5234200e-07 1.48792700e+03 7.81860800e-03 8.32201200e-02
        2 -1    0    0  501    0 +0.0000000000e+00 +0.0000000000e+00 +1.2267250915e+03 1.2267250915e+03 0.0000000000e+00 0.0000e+00 -1.0000e+00
       -2 -1    0    0    0  501 -0.0000000000e+00 -0.0000000000e+00 -4.5118651211e+02 4.5118651211e+02 0.0000000000e+00 0.0000e+00 1.0000e+00
      -13  1    1    2    0    0 +6.5958808733e+02 +3.1066065810e+02 +2.2082892026e+02 7.6179518341e+02 0.0000000000e+00 0.0000e+00 1.0000e+00
       13  1    1    2    0    0 -6.5958808733e+02 -3.1066065810e+02 +5.5470965915e+02 9.1611642022e+02 0.0000000000e+00 0.0000e+00 -1.0000e+00
<mgrwt>
<rscale>  0 0.14879272E+04</rscale>
<asrwt>0</asrwt>
<pdfrwt beam="1">  1        2 0.18872694E+00 0.14879272E+04</pdfrwt>
<pdfrwt beam="2">  1       -2 0.69413310E-01 0.14879272E+04</pdfrwt>
<totfact> 0.42707200E+01</totfact>
</mgrwt>
<rwgt>
<wgt id='morphing_basis_vector_1'> +2.5420929e-04 </wgt>
<wgt id='morphing_basis_vector_2'> +1.7606686e-04 </wgt>
<wgt id='morphing_basis_vector_3'> +2.6462079e-04 </wgt>
<wgt id='morphing_basis_vector_4'> +1.6666032e-04 </wgt>
<wgt id='morphing_basis_vector_5'> +2.7723865e-04 </wgt>
</rwgt>
</event>
<event>
 4      1 +3.5234200e-07 1.46948600e+03 7.81860800e-03 8.33291000e-02
        2 -1    0    0  501    0 +0.0000000000e+00 +0.0000000000e+00 +2.0478686789e+03 2.0478686789e+03 0.0000000000e+00 0.0000e+00 1.0000e+00
       -2 -1    0    0    0  501 -0.0000000000e+00 -0.0000000000e+00 -2.6361403739e+02 2.6361403739e+02 0.0000000000e+00 0.0000e+00 -1.0000e+00
      -13  1    1    2    0    0 -4.0931639453e+02 -1.9189364228e+02 +1.8032170389e+03 1.8590198413e+03 0.0000000000e+00 0.0000e+00 1.0000e+00
       13  1    1    2    0    0 +4.0931639453e+02 +1.9189364228e+02 -1.8962397397e+01 4.5246287504e+02 0.0000000000e+00 0.0000e+00 -1.0000e+00
<mgrwt>
<rscale>  0 0.14694855E+04</rscale>
<asrwt>0</asrwt>
<pdfrwt beam="1">  1        2 0.31505671E+00 0.14694855E+04</pdfrwt>
<pdfrwt beam="2">  1       -2 0.40556007E-01 0.14694855E+04</pdfrwt>
<totfact> 0.43270149E+01</totfact>
</mgrwt>
<rwgt>
<wgt id='morphing_basis_vector_1'> +3.1608815e-04 </wgt>
<wgt id='morphing_basis_vector_2'> +3.8780916e-04 </wgt>
<wgt id='morphing_basis_vector_3'> +3.4739241e-04 </wgt>
<wgt id='morphing_basis_vector_4'> +2.1395997e-05 </wgt>
<wgt id='morphing_basis_vector_5'> +2.5316710e-04 </wgt>
</rwgt>
</event>
<event>
 4      1 +3.5234200e-07 1.34454200e+03 7.81860800e-03 8.41141100e-02
        2 -1    0    0  501    0 +0.0000000000e+00 +0.0000000000e+00 +8.8484509310e+02 8.8484509310e+02 0.0000000000e+00 0.0000e+00 -1.0000e+00
       -2 -1    0    0    0  501 -0.0000000000e+00 -0.0000000000e+00 -5.1076568481e+02 5.1076568481e+02 0.0000000000e+00 0.0000e+00 1.0000e+00
      -13  1    1    2    0    0 +2.4994200748e+02 -1.8713531371e+02 -4.3093707389e+02 5.3216293970e+02 0.0000000000e+00 0.0000e+00 1.0000e+00
       13  1    1    2    0    0 -2.4994200748e+02 +1.8713531371e+02 +8.0501648217e+02 8.6344783821e+02 0.0000000000e+00 0.0000e+00 -1.0000e+00
<mgrwt>
<rscale>  0 0.13445423E+04</rscale>
<asrwt>0</asrwt>
<pdfrwt beam="1">  1        2 0.13613001E+00 0.13445423E+04</pdfrwt>
<pdfrwt beam="2">  1       -2 0.78579336E-01 0.13445423E+04</pdfrwt>
<totfact> 0.53366250E+01</totfact>
</mgrwt>
<rwgt>
<wgt id='morphing_basis_vector_1'> +1.6936333e-04 </wgt>
<wgt id='morphing_basis_vector_2'> +1.0974351e-04 </wgt>
<wgt id='morphing_basis_vector_3'> +1.7304335e-04 </wgt>
<wgt id='morphing_basis_vector_4'> +1.1455864e-04 </wgt>
<wgt id='morphing_basis_vector_5'> +1.8217371e-04 </wgt>
</rwgt>
</event>
<event>
 4      1 +3.5234200e-07 1.36071000e+03 7.81860800e-03 8.40076300e-02
        2 -1    0    0  501    0 +0.0000000000e+00 +0.0000000000e+00 +1.6743677312e+03 1.6743677312e+03 0.0000000000e+00 0.0000e+00 -1.0000e+00
       -2 -1    0    0    0  501 -0.0000000000e+00 -0.0000000000e+00 -2.7645243563e+02 2.7645243563e+02 0.0000000000e+00 0.0000e+00 1.0000e+00
      -13  1    1    2    0    0 -7.2785734141e+00 +6.6369214980e+02 +9.1325672962e+02 1.1289721438e+03 0.0000000000e+00 0.0000e+00 1.0000e+00
       13  1    1    2    0    0 +7.2785734141e+00 -6.6369214980e+02 +4.8465856593e+02 8.2184802297e+02 0.0000000000e+00 0.0000e+00 -1.0000e+00
<mgrwt>
<rscale>  0 0.13607102E+04</rscale>
<asrwt>0</asrwt>
<pdfrwt beam="1">  1        2 0.25759503E+00 0.13607102E+04</pdfrwt>
<pdfrwt beam="2">  1       -2 0.42531145E-01 0.13607102E+04</pdfrwt>
<totfact> 0.64477274E+01</totfact>
</mgrwt>
<rwgt>
<wgt id='morphing_basis_vector_1'> +1.9101302e-04 </wgt>
<wgt id='morphing_basis_vector_2'> +1.5603680e-04 </wgt>
<wgt id='morphing_basis_vector_3'> +1.9848872e-04 </wgt>
<wgt id='morphing_basis_vector_4'> +9.5617566e-05 </wgt>
<wgt id='morphing_basis_vector_5'> +1.8972835e-04 </wgt>
</rwgt>
</event>
<event>
 4      1 +3.5234200e-07 1.30903700e+03 7.81860800e-03 8.43535400e-02
        2 -1    0    0  501    0 +0.0000000000e+00 +0.0000000000e+00 +1.4122933278e+03 1.4122933278e+03 0.0000000000e+00 0.0000e+00 1.0000e+00
       -2 -1    0    0    0  501 -0.0000000000e+00 -0.0000000000e+00 -3.0333269467e+02 3.0333269467e+02 0.0000000000e+00 0.0000e+00 -1.0000e+00
      -13  1    1    2    0    0 -2.9844375429e+02 +5.4089885172e+02 +2.7109178839e+02 6.7463397483e+02 0.0000000000e+00 0.0000e+00 -1.0000e+00
       13  1    1    2    0    0 +2.9844375429e+02 -5.4089885172e+02 +8.3786884478e+02 1.0409920477e+03 0.0000000000e+00 0.0000e+00 1.0000e+00
<mgrwt>
<rscale>  0 0.13090374E+04</rscale>
<asrwt>0</asrwt>
<pdfrwt beam="1">  1        2 0.21727589E+00 0.13090374E+04</pdfrwt>
<pdfrwt beam="2">  1       -2 0.46666569E-01 0.13090374E+04</pdfrwt>
<totfact> 0.75922777E+01</totfact>
</mgrwt>
<rwgt>
<wgt id='morphing_basis_vector_1'> +1.5439168e-04 </wgt>
<wgt id='morphing_basis_vector_2'> +1.0328452e-04 </wgt>
<wgt id='morphing_basis_vector_3'> +1.5736336e-04 </wgt>
<wgt id='morphing_basis_vector_4'> +9.9783301e-05 </wgt>
<wgt id='morphing_basis_vector_5'> +1.6267053e-04 </wgt>
</rwgt>
</event>
<event>
 4      1 +3.5234200e-07 1.33699700e+03 7.81860800e-03 8.41643400e-02
        2 -1    0    0  501    0 +0.0000000000e+00 +0.0000000000e+00 +1.0093619127e+03 1.0093619127e+03 0.0000000000e+00 0.0000e+00 1.0000e+00
       -2 -1    0    0    0  501 -0.0000000000e+00 -0.0000000000e+00 -4.4274513477e+02 4.4274513477e+02 0.0000000000e+00 0.0000e+00 -1.0000e+00
      -13  1    1    2    0    0 -1.5910881031e+02 +3.9238595907e+02 -2.7853801110e+02 5.0681927550e+02 0.0000000000e+00 0.0000e+00 -1.0000e+00
       13  1    1    2    0    0 +1.5910881031e+02 -3.9238595907e+02 +8.4515478900e+02 9.4528777193e+02 0.0000000000e+00 0.0000e+00 1.0000e+00
<mgrwt>
<rscale>  0 0.13369967E+04</rscale>
<asrwt>0</asrwt>
<pdfrwt beam="1">  1        2 0.15528645E+00 0.13369967E+04</pdfrwt>
<pdfrwt beam="2">  1       -2 0.68114636E-01 0.13369967E+04</pdfrwt>
<totfact> 0.60724452E+01</totfact>
</mgrwt>
<rwgt>
<wgt id='morphing_basis_vector_1'> +1.6584050e-04 </wgt>
<wgt id='morphing_basis_vector_2'> +1.0759953e-04 </wgt>
<wgt id='morphing_basis_vector_3'> +1.6931272e-04 </wgt>
<wgt id='morphing_basis_vector_4'> +1.1174838e-04 </wgt>
<wgt id='morphing_basis_vector_5'> +1.7792354e-04 </wgt>
</rwgt>
</event>
<event>
 4      1 +3.5234200e-07 1.46484200e+03 7.81860800e-03 8.33568100e-02
        2 -1    0    0  501    0 +0.0000000000e+00 +0.0000000000e+00 +9.0821076137e+02 9.0821076137e+02 0.0000000000e+00 0.0000e+00 -1.0000e+00
       -2 -1    0    0    0  501 -0.0000000000e+00 -0.0000000000e+00 -5.9065625579e+02 5.9065625579e+02 0.0000000000e+00 0.0000e+00 1.0000e+00
      -13  1    1    2    0    0 -3.1652694513e+02 -6.1391995387e+02 +4.0806159643e+02 8.0224764458e+02 0.0000000000e+00 0.0000e+00 1.0000e+00
       13  1    1    2    0    0 +3.1652694513e+02 +6.1391995387e+02 -9.0507090854e+01 6.9661937258e+02 0.0000000000e+00 0.0000e+00 -1.0000e+00
<mgrwt>
<rscale>  0 0.14648418E+04</rscale>
<asrwt>0</asrwt>
<pdfrwt beam="1">  1        2 0.13972473E+00 0.14648418E+04</pdfrwt>
<pdfrwt beam="2">  1       -2 0.90870193E-01 0.14648418E+04</pdfrwt>
<totfact> 0.36528423E+01</totfact>
</mgrwt>
<rwgt>
<wgt id='morphing_basis_vector_1'> +2.6164176e-04 </wgt>
<wgt id='morphing_basis_vector_2'> +2.3210403e-04 </wgt>
<wgt id='morphing_basis_vector_3'> +2.7744775e-04 </wgt>
<wgt id='morphing_basis_vector_4'> +1.1489284e-04 </wgt>
<wgt id='morphing_basis_vector_5'> +2.5677747e-04 </wgt>
</rwgt>
</event>
<event>
 4      1 +3.5234200e-07 1.33410800e+03 7.81860800e-03 8.41836600e-02
        2 -1    0    0  501    0 +0.0000000000e+00 +0.0000000000e+00 +1.0663101777e+03 1.0663101777e+03 0.0000000000e+00 0.0000e+00 1.0000e+00
       -2 -1    0    0    0  501 -0.0000000000e+00 -0.0000000000e+00 -4.1729066114e+02 4.1729066114e+02 0.0000000000e+00 0.0000e+00 -1.0000e+00
      -13  1    1    2    0    0 -4.9689741412e+02 +6.1638970119e+01 -1.6562096802e+02 5.2738667773e+02 0.0000000000e+00 0.0000e+00 -1.0000e+00
       13  1    1    2    0    0 +4.9689741412e+02 -6.1638970119e+01 +8.1464048457e+02 9.5621416111e+02 0.0000000000e+00 0.0000e+00 1.0000e+00
<mgrwt>
<rscale>  0 0.13341084E+04</rscale>
<asrwt>0</asrwt>
<pdfrwt beam="1">  1        2 0.16404772E+00 0.13341084E+04</pdfrwt>
<pdfrwt beam="2">  1       -2 0.64198563E-01 0.13341084E+04</pdfrwt>
<totfact> 0.63480663E+01</totfact>
</mgrwt>
<rwgt>
<wgt id='morphing_basis_vector_1'> +1.6464206e-04 </wgt>
<wgt id='morphing_basis_vector_2'> +1.0719179e-04 </wgt>
<wgt id='morphing_basis_vector_3'> +1.6806615e-04 </wgt>
<wgt id='morphing_basis_vector_4'> +1.1044372e-04 </wgt>
<wgt id='morphing_basis_vector_5'> +1.7629890e-04 </wgt>
</rwgt>
</event>
<event>
 4      1 +3.5234200e-07 1.33037500e+03 7.81860800e-03 8.42087100e-02
        2 -1    0    0  501    0 +0.0000000000e+00 +0.0000000000e+00 +1.4378023246e+03 1.4378023246e+03 0.0000000000e+00 0.0000e+00 -1.0000e+00
       -2 -1    0    0    0  501 -0.0000000000e+00 -0.0000000000e+00 -3.0774357372e+02 3.0774357372e+02 0.0000000000e+00 0.0000e+00 1.0000e+00
      -13  1    1    2    0    0 +5.4362880993e+02 +2.3936836787e+02 +9.5787330756e+02 1.1270983861e+03 0.0000000000e+00 0.0000e+00 -1.0000e+00
       13  1    1    2    0    0 -5.4362880993e+02 -2.3936836787e+02 +1.7218544332e+02 6.1844751225e+02 0.0000000000e+00 0.0000e+00 1.0000e+00
<mgrwt>
<rscale>  0 0.13303750E+04</rscale>
<asrwt>0</asrwt>
<pdfrwt beam="1">  1        2 0.22120035E+00 0.13303750E+04</pdfrwt>
<pdfrwt beam="2">  1       -2 0.47345166E-01 0.13303750E+04</pdfrwt>
<totfact> 0.71310658E+01</totfact>
</mgrwt>
<rwgt>
<wgt id='morphing_basis_vector_1'> +1.8845502e-04 </wgt>
<wgt id='morphing_basis_vector_2'> +1.8252852e-04 </wgt>
<wgt id='morphing_basis_vector_3'> +1.9744694e-04 </wgt>
<wgt id='morphing_basis_vector_4'> +6.3335602e-05 </wgt>
<wgt id='morphing_basis_vector_5'> +1.7098229e-04 </wgt>
</rwgt>
</event>
<event>
 4      1 +3.5234200e-07 1.41262200e+03 7.81860800e-03 8.36758900e-02
        2 -1    0    0  501    0 +0.0000000000e+00 +0.0000000000e+00 +1.4954212420e+03 1.4954212420e+03 0.0000000000e+00 0.0000e+00 -1.0000e+00
       -2 -1    0    0    0  501 -0.0000000000e+00 -0.0000000000e+00 -3.3360172809e+02 3.3360172809e+02 0.0000000000e+00 0.0000e+00 1.0000e+00
      -13  1    1    2    0    0 +1.2701050451e+02 -6.8773571380e+02 +7.0884363465e+02 9.9577677151e+02 0.0000000000e+00 0.0000e+00 1.0000e+00
       13  1    1    2    0    0 -1.2701050451e+02 +6.8773571380e+02 +4.5297587929e+02 8.3324619862e+02 0.0000000000e+00 0.0000e+00 -1.0000e+00
<mgrwt>
<rscale>  0 0.14126218E+04</rscale>
<asrwt>0</asrwt>
<pdfrwt beam="1">  1        2 0.23006480E+00 0.14126218E+04</pdfrwt>
<pdfrwt beam="2">  1       -2 0.51323344E-01 0.14126218E+04</pdfrwt>
<totfact> 0.56168202E+01</totfact>
</mgrwt>
<rwgt>
<wgt id='morphing_basis_vector_1'> +2.1677855e-04 </wgt>
<wgt id='morphing_basis_vector_2'> +1.6937638e-04 </wgt>
<wgt id='morphing_basis_vector_3'> +2.2600623e-04 </wgt>
<wgt id='morphing_basis_vector_4'> +1.1855726e-04 </wgt>
<wgt id='morphing_basis_vector_5'> +2.2226881e-04 </wgt>
</rwgt>
</event>
<event>
 4      1 +3.5234200e-07 1.31946600e+03 7.81860800e-03 8.42824000e-02
        2 -1    0    0  501    0 +0.0000000000e+00 +0.0000000000e+00 +1.1560265504e+03 1.1560265504e+03 0.0000000000e+00 0.0000e+00 -1.0000e+00
       -2 -1    0    0    0  501 -0.0000000000e+00 -0.0000000000e+00 -3.7650320315e+02 3.7650320315e+02 0.0000000000e+00 0.0000e+00 1.0000e+00
      -13  1    1    2    0    0 -2.5137062566e+02 -2.3871516243e+02 -2.6219396943e+02 4.3464675062e+02 0.0000000000e+00 0.0000e+00 1.0000e+00
       13  1    1    2    0    0 +2.5137062566e+02 +2.3871516243e+02 +1.0417173167e+03 1.0978830029e+03 0.0000000000e+00 0.0000e+00 -1.0000e+00
<mgrwt>
<rscale>  0 0.13194661E+04</rscale>
<asrwt>0</asrwt>
<pdfrwt beam="1">  1        2 0.17785024E+00 0.13194661E+04</pdfrwt>
<pdfrwt beam="2">  1       -2 0.57923570E-01 0.13194661E+04</pdfrwt>
<totfact> 0.69406141E+01</totfact>
</mgrwt>
<rwgt>
<wgt id='morphing_basis_vector_1'> +1.5762186e-04 </wgt>
<wgt id='morphing_basis_vector_2'> +1.0199363e-04 </wgt>
<wgt id='morphing_basis_vector_3'> +1.6057328e-04 </wgt>
<wgt id='morphing_basis_vector_4'> +1.0586271e-04 </wgt>
<wgt id='morphing_basis_vector_5'> +1.6836413e-04 </wgt>
</rwgt>
</event>
<event>
 4      1 +3.5234200e-07 1.47399900e+03 7.81860800e-03 8.33022700e-02
        2 -1    0    0  501    0 +0.0000000000e+00 +0.0000000000e+00 +5.6341770410e+02 5.6341770410e+02 0.0000000000e+00 0.0000e+00 1.0000e+00
       -2 -1    0    0    0  501 -0.0000000000e+00 -0.0000000000e+00 -9.6406020024e+02 9.6406020024e+02 0.0000000000e+00 0.0000e+00 -1.0000e+00
      -13  1    1    2    0    0 -1.1216018499e+02 -5.1312109454e+02 -7.3608506232e+02 9.0426455406e+02 0.0000000000e+00 0.0000e+00 -1.0000e+00
       13  1    1    2    0    0 +1.1216018499e+02 +5.1312109454e+02 +3.3544256618e+02 6.2321335028e+02 0.0000000000e+00 0.0000e+00 1.0000e+00
<mgrwt>
<rscale>  0 0.14739994E+04</rscale>
<asrwt>0</asrwt>
<pdfrwt beam="1">  1        2 0.86679648E-01 0.14739994E+04</pdfrwt>
<pdfrwt beam="2">  1       -2 0.14831695E+00 0.14739994E+04</pdfrwt>
<totfact> 0.18777670E+01</totfact>
</mgrwt>
<rwgt>
<wgt id='morphing_basis_vector_1'> +2.4132098e-04 </wgt>
<wgt id='morphing_basis_vector_2'> +1.5823917e-04 </wgt>
<wgt id='morphing_basis_vector_3'> +2.4988883e-04 </wgt>
<wgt id='morphing_basis_vector_4'> +1.6741466e-04 </wgt>
<wgt id='morphing_basis_vector_5'> +2.6715500e-04 </wgt>
</rwgt>
</event>
<event>
 4      1 +3.5234200e-07 1.32353700e+03 7.81860800e-03 8.42548100e-02
        2 -1    0    0  501    0 +0.0000000000e+00 +0.0000000000e+00 +2.8424712393e+03 2.8424712393e+03 0.0000000000e+00 0.0000e+00 -1.0000e+00
       -2 -1    0    0    0  501 -0.0000000000e+00 -0.0000000000e+00 -1.5406938844e+02 1.5406938844e+02 0.0000000000e+00 0.0000e+00 1.0000e+00
      -13  1    1    2    0    0 -5.2974589280e+02 +3.5818987072e+02 +1.7298001880e+03 1.8442178247e+03 0.0000000000e+00 0.0000e+00 1.0000e+00
       13  1    1    2    0    0 +5.2974589280e+02 -3.5818987072e+02 +9.5860166283e+02 1.1523228030e+03 0.0000000000e+00 0.0000e+00 -1.0000e+00
<mgrwt>
<rscale>  0 0.13235374E+04</rscale>
<asrwt>0</asrwt>
<pdfrwt beam="1">  1        2 0.43730323E+00 0.13235374E+04</pdfrwt>
<pdfrwt beam="2">  1       -2 0.23702985E-01 0.13235374E+04</pdfrwt>
<totfact> 0.38850594E+01</totfact>
</mgrwt>
<rwgt>
<wgt id='morphing_basis_vector_1'> +1.7343187e-04 </wgt>
<wgt id='morphing_basis_vector_2'> +1.4496587e-04 </wgt>
<wgt id='morphing_basis_vector_3'> +1.7953707e-04 </wgt>
<wgt id='morphing_basis_vector_4'> +8.2292198e-05 </wgt>
<wgt id='morphing_basis_vector_5'> +1.6878034e-04 </wgt>
</rwgt>
</event>
<event>
 4      1 +3.5234200e-07 1.30249200e+03 7.81860800e-03 8.43985400e-02
        2 -1    0    0  501    0 +0.0000000000e+00 +0.0000000000e+00 +3.0466769250e+03 3.0466769250e+03 0.0000000000e+00 0.0000e+00 -1.0000e+00
       -2 -1    0    0    0  501 -0.0000000000e+00 -0.0000000000e+00 -1.3920793026e+02 1.3920793026e+02 0.0000000000e+00 0.0000e+00 1.0000e+00
      -13  1    1    2    0    0 -5.3983370594e+02 +1.5416476042e+02 +6.4642997793e+02 8.5618860059e+02 0.0000000000e+00 0.0000e+00 1.0000e+00
       13  1    1    2    0    0 +5.3983370594e+02 -1.5416476042e+02 +2.2610390168e+03 2.3296962547e+03 0.0000000000e+00 0.0000e+00 -1.0000e+00
<mgrwt>
<rscale>  0 0.13024924E+04</rscale>
<asrwt>0</asrwt>
<pdfrwt beam="1">  1        2 0.46871948E+00 0.13024924E+04</pdfrwt>
<pdfrwt beam="2">  1       -2 0.21416607E-01 0.13024924E+04</pdfrwt>
<totfact> 0.34254073E+01</totfact>
</mgrwt>
<rwgt>
<wgt id='morphing_basis_vector_1'> +1.5062012e-04 </wgt>
<wgt id='morphing_basis_vector_2'> +9.8744633e-05 </wgt>
<wgt id='morphing_basis_vector_3'> +1.5323120e-04 </wgt>
<wgt id='morphing_basis_vector_4'> +9.9217994e-05 </wgt>
<wgt id='morphing_basis_vector_5'> +1.5939275e-04 </wgt>
</rwgt>
</event>
<event>
 4      1 +3.5234200e-07 1.35779400e+03 7.81860800e-03 8.40267200e-02
        2 -1    0    0  501    0 +0.0000000000e+00 +0.0000000000e+00 +6.3215767692e+02 6.3215767692e+02 0.0000000000e+00 0.0000e+00 -1.0000e+00
       -2 -1    0    0    0  501 -0.0000000000e+00 -0.0000000000e+00 -7.2909200930e+02 7.2909200930e+02 0.0000000000e+00 0.0000e+00 1.0000e+00
      -13  1    1    2    0    0 -5.4083681497e+02 +3.3198542778e+02 -2.9029119925e+02 6.9784508671e+02 0.0000000000e+00 0.0000e+00 1.0000e+00
       13  1    1    2    0    0 +5.4083681497e+02 -3.3198542778e+02 +1.9335686687e+02 6.6340459951e+02 0.0000000000e+00 0.0000e+00 -1.0000e+00
<mgrwt>
<rscale>  0 0.13577940E+04</rscale>
<asrwt>0</asrwt>
<pdfrwt beam="1">  1        2 0.97255028E-01 0.13577940E+04</pdfrwt>
<pdfrwt beam="2">  1       -2 0.11216800E+00 0.13577940E+04</pdfrwt>
<totfact> 0.34969439E+01</totfact>
</mgrwt>
<rwgt>
<wgt id='morphing_basis_vector_1'> +1.7737572e-04 </wgt>
<wgt id='morphing_basis_vector_2'> +1.1863408e-04 </wgt>
<wgt id='morphing_basis_vector_3'> +1.8183279e-04 </wgt>
<wgt id='morphing_basis_vector_4'> +1.1657228e-04 </wgt>
<wgt id='morphing_basis_vector_5'> +1.8960045e-04 </wgt>
</rwgt>
</event>
<event>
 4      1 +3.5234200e-07 1.31656700e+03 7.81860800e-03 8.43021000e-02
        2 -1    0    0  501    0 +0.0000000000e+00 +0.0000000000e+00 +2.5252228760e+03 2.5252228760e+03 0.0000000000e+00 0.0000e+00 1.0000e+00
       -2 -1    0    0    0  501 -0.0000000000e+00 -0.0000000000e+00 -1.7160361216e+02 1.7160361216e+02 0.0000000000e+00 0.0000e+00 -1.0000e+00
      -13  1    1    2    0    0 -3.5291488370e+02 -2.3298098246e+02 +1.4342755191e+02 4.4654284898e+02 0.0000000000e+00 0.0000e+00 -1.0000e+00
       13  1    1    2    0    0 +3.5291488370e+02 +2.3298098246e+02 +2.2101917119e+03 2.2502836392e+03 0.0000000000e+00 0.0000e+00 1.0000e+00
<mgrwt>
<rscale>  0 0.13165673E+04</rscale>
<asrwt>0</asrwt>
<pdfrwt beam="1">  1        2 0.38849580E+00 0.13165673E+04</pdfrwt>
<pdfrwt beam="2">  1       -2 0.26400558E-01 0.13165673E+04</pdfrwt>
<totfact> 0.50406489E+01</totfact>
</mgrwt>
<rwgt>
<wgt id='morphing_basis_vector_1'> +1.5637240e-04 </wgt>
<wgt id='morphing_basis_vector_2'> +1.0132502e-04 </wgt>
<wgt id='morphing_basis_vector_3'> +1.5925761e-04 </wgt>
<wgt id='morphing_basis_vector_4'> +1.0477084e-04 </wgt>
<wgt id='morphing_basis_vector_5'> +1.6681077e-04 </wgt>
</rwgt>
</event>
<event>
 4      1 +3.5234200e-07 1.32587400e+03 7.81860800e-03 8.42390200e-02
        2 -1    0    0  501    0 +0.0000000000e+00 +0.0000000000e+00 +9.2800886426e+02 9.2800886426e+02 0.0000000000e+00 0.0000e+00 -1.0000e+00
       -2 -1    0    0    0  501 -0.0000000000e+00 -0.0000000000e+00 -4.7357898344e+02 4.7357898344e+02 0.0000000000e+00 0.0000e+00 1.0000e+00
      -13  1    1    2    0    0 +2.6475475692e+01 -2.6215281864e+02 -4.1584934056e+02 4.9229637941e+02 0.0000000000e+00 0.0000e+00 1.0000e+00
       13  1    1    2    0    0 -2.6475475692e+01 +2.6215281864e+02 +8.7027922139e+02 9.0929146829e+02 0.0000000000e+00 0.0000e+00 -1.0000e+00
<mgrwt>
<rscale>  0 0.13258740E+04</rscale>
<asrwt>0</asrwt>
<pdfrwt beam="1">  1        2 0.14277059E+00 0.13258740E+04</pdfrwt>
<pdfrwt beam="2">  1       -2 0.72858306E-01 0.13258740E+04</pdfrwt>
<totfact> 0.59206972E+01</totfact>
</mgrwt>
<rwgt>
<wgt id='morphing_basis_vector_1'> +1.6053607e-04 </wgt>
<wgt id='morphing_basis_vector_2'> +1.0385768e-04 </wgt>
<wgt id='morphing_basis_vector_3'> +1.6366258e-04 </wgt>
<wgt id='morphing_basis_vector_4'> +1.0808189e-04 </wgt>
<wgt id='morphing_basis_vector_5'> +1.7181996e-04 </wgt>
</rwgt>
</event>
<event>
 4      1 +3.5234200e-07 1.29767800e+03 7.81860800e-03 8.44318200e-02
        2 -1    0    0  501    0 +0.0000000000e+00 +0.0000000000e+00 +6.4526940010e+02 6.4526940010e+02 0.0000000000e+00 0.0000e+00 -1.0000e+00
       -2 -1    0    0    0  501 -0.0000000000e+00 -0.0000000000e+00 -6.5242862316e+02 6.5242862316e+02 0.0000000000e+00 0.0000e+00 1.0000e+00
      -13  1    1    2    0    0 +5.3691345581e+01 -5.3208683662e+02 -3.7099922549e+02 6.5087601554e+02 0.0000000000e+00 0.0000e+00 1.0000e+00
       13  1    1    2    0    0 -5.3691345581e+01 +5.3208683662e+02 +3.6384000244e+02 6.4682200772e+02 0.0000000000e+00 0.0000e+00 -1.0000e+00
<mgrwt>
<rscale>  0 0.12976783E+04</rscale>
<asrwt>0</asrwt>
<pdfrwt beam="1">  1        2 0.99272216E-01 0.12976783E+04</pdfrwt>
<pdfrwt beam="2">  1       -2 0.10037363E+00 0.12976783E+04</pdfrwt>
<totfact> 0.45129238E+01</totfact>
</mgrwt>
<rwgt>
<wgt id='morphing_basis_vector_1'> +1.4833073e-04 </wgt>
<wgt id='morphing_basis_vector_2'> +9.6794293e-05 </wgt>
<wgt id='morphing_basis_vector_3'> +1.5077602e-04 </wgt>
<wgt id='morphing_basis_vector_4'> +9.8006503e-05 </wgt>
<wgt id='morphing_basis_vector_5'> +1.5695746e-04 </wgt>
</rwgt>
</event>
<event>
 4      1 +3.5234200e-07 1.35106700e+03 7.81860800e-03 8.40709500e-02
        2 -1    0    0  501    0 +0.0000000000e+00 +0.0000000000e+00 +1.9756855615e+03 1.9756855615e+03 0.0000000000e+00 0.0000e+00 1.0000e+00
       -2 -1    0    0    0  501 -0.0000000000e+00 -0.0000000000e+00 -2.3098083722e+02 2.3098083722e+02 0.0000000000e+00 0.0000e+00 -1.0000e+00
      -13  1    1    2    0    0 -2.0728133587e+02 -5.8551494422e+02 +4.3852685090e+02 7.6032828506e+02 0.0000000000e+00 0.0000e+00 -1.0000e+00
       13  1    1    2    0    0 +2.0728133587e+02 +5.8551494422e+02 +1.3061778734e+03 1.4463381137e+03 0.0000000000e+00 0.0000e+00 1.0000e+00
<mgrwt>
<rscale>  0 0.13510670E+04</rscale>
<asrwt>0</asrwt>
<pdfrwt beam="1">  1        2 0.30395161E+00 0.13510670E+04</pdfrwt>
<pdfrwt beam="2">  1       -2 0.35535515E-01 0.13510670E+04</pdfrwt>
<totfact> 0.61258826E+01</totfact>
</mgrwt>
<rwgt>
<wgt id='morphing_basis_vector_1'> +1.7379262e-04 </wgt>
<wgt id='morphing_basis_vector_2'> +1.1562314e-04 </wgt>
<wgt id='morphing_basis_vector_3'> +1.7796904e-04 </wgt>
<wgt id='morphing_basis_vector_4'> +1.1461985e-04 </wgt>
<wgt id='morphing_basis_vector_5'> +1.8573640e-04 </wgt>
</rwgt>
</event>
<event>
 4      1 +3.5234200e-07 1.49647800e+03 7.81860800e-03 8.31701400e-02
        2 -1    0    0  501    0 +0.0000000000e+00 +0.0000000000e+00 +1.7809210056e+03 1.7809210056e+03 0.0000000000e+00 0.0000e+00 -1.0000e+00
       -2 -1    0    0    0  501 -0.0000000000e+00 -0.0000000000e+00 -3.1436617266e+02 3.1436617266e+02 0.0000000000e+00 0.0000e+00 1.0000e+00
      -13  1    1    2    0    0 +5.3495354756e+02 +4.9428573158e+02 +4.9333455395e+02 8.7970032660e+02 0.0000000000e+00 0.0000e+00 1.0000e+00
       13  1    1    2    0    0 -5.3495354756e+02 -4.9428573158e+02 +9.7322027903e+02 1.2155868517e+03 0.0000000000e+00 0.0000e+00 -1.0000e+00
<mgrwt>
<rscale>  0 0.14964776E+04</rscale>
<asrwt>0</asrwt>
<pdfrwt beam="1">  1        2 0.27398784E+00 0.14964776E+04</pdfrwt>
<pdfrwt beam="2">  1       -2 0.48364028E-01 0.14964776E+04</pdfrwt>
<totfact> 0.43472651E+01</totfact>
</mgrwt>
<rwgt>
<wgt id='morphing_basis_vector_1'> +2.5939355e-04 </wgt>
<wgt id='morphing_basis_vector_2'> +1.7859398e-04 </wgt>
<wgt id='morphing_basis_vector_3'> +2.7009585e-04 </wgt>
<wgt id='morphing_basis_vector_4'> +1.7158762e-04 </wgt>
<wgt id='morphing_basis_vector_5'> +2.8397347e-04 </wgt>
</rwgt>
</event>
<event>
 4      1 +3.5234200e-07 1.42260600e+03 7.81860800e-03 8.36137800e-02
        2 -1    0    0  501    0 +0.0000000000e+00 +0.0000000000e+00 +6.7306350822e+02 6.7306350822e+02 0.0000000000e+00 0.0000e+00 -1.0000e+00
       -2 -1    0    0    0  501 -0.0000000000e+00 -0.0000000000e+00 -7.5171493403e+02 7.5171493403e+02 0.0000000000e+00 0.0000e+00 1.0000e+00
      -13  1    1    2    0    0 -4.1197536429e+02 -5.6820129568e+02 -1.5515473119e+02 7.1878328014e+02 0.0000000000e+00 0.0000e+00 1.0000e+00
       13  1    1    2    0    0 +4.1197536429e+02 +5.6820129568e+02 +7.6503305368e+01 7.0599516211e+02 0.0000000000e+00 0.0000e+00 -1.0000e+00
<mgrwt>
<rscale>  0 0.14226059E+04</rscale>
<asrwt>0</asrwt>
<pdfrwt beam="1">  1        2 0.10354823E+00 0.14226059E+04</pdfrwt>
<pdfrwt beam="2">  1       -2 0.11564845E+00 0.14226059E+04</pdfrwt>
<totfact> 0.29848230E+01</totfact>
</mgrwt>
<rwgt>
<wgt id='morphing_basis_vector_1'> +2.1440851e-04 </wgt>
<wgt id='morphing_basis_vector_2'> +1.4926664e-04 </wgt>
<wgt id='morphing_basis_vector_3'> +2.2189682e-04 </wgt>
<wgt id='morphing_basis_vector_4'> +1.3733898e-04 </wgt>
<wgt id='morphing_basis_vector_5'> +2.2999254e-04 </wgt>
</rwgt>
</event>
<event>
 4      1 +3.5234200e-07 1.32969300e+03 7.81860800e-03 8.42133000e-02
        2 -1    0    0  501    0 +0.0000000000e+00 +0.0000000000e+00 +6.2916417721e+02 6.2916417721e+02 0.0000000000e+00 0.0000e+00 -1.0000e+00
       -2 -1    0    0    0  501 -0.0000000000e+00 -0.0000000000e+00 -7.0255237363e+02 7.0255237363e+02 0.0000000000e+00 0.0000e+00 1.0000e+00
      -13  1    1    2    0    0 +5.0774068062e+02 +4.2920815341e+02 -3.7435764553e+01 6.6589914715e+02 0.0000000000e+00 0.0000e+00 1.0000e+00
       13  1    1    2    0    0 -5.0774068062e+02 -4.2920815341e+02 -3.5952431870e+01 6.6581740370e+02 0.0000000000e+00 0.0000e+00 -1.0000e+00
<mgrwt>
<rscale>  0 0.13296929E+04</rscale>
<asrwt>0</asrwt>
<pdfrwt beam="1">  1        2 0.96794488E-01 0.13296929E+04</pdfrwt>
<pdfrwt beam="2">  1       -2 0.10808498E+00 0.13296929E+04</pdfrwt>
<totfact> 0.38681894E+01</totfact>
</mgrwt>
<rwgt>
<wgt id='morphing_basis_vector_1'> +1.6815249e-04 </wgt>
<wgt id='morphing_basis_vector_2'> +1.2251736e-04 </wgt>
<wgt id='morphing_basis_vector_3'> +1.7268404e-04 </wgt>
<wgt id='morphing_basis_vector_4'> +9.8919613e-05 </wgt>
<wgt id='morphing_basis_vector_5'> +1.7315720e-04 </wgt>
</rwgt>
</event>
<event>
 4      1 +3.5234200e-07 1.35128700e+03 7.81860800e-03 8.40695000e-02
        2 -1    0    0  501    0 +0.0000000000e+00 +0.0000000000e+00 +1.3496326727e+03 1.3496326727e+03 0.0000000000e+00 0.0000e+00 -1.0000e+00
       -2 -1    0    0    0  501 -0.0000000000e+00 -0.0000000000e+00 -3.3823575447e+02 3.3823575447e+02 0.0000000000e+00 0.0000e+00 1.0000e+00
      -13  1    1    2    0    0 +3.7924111233e+02 +2.2244870973e+02 -1.3510238709e+02 4.5995641613e+02 0.0000000000e+00 0.0000e+00 1.0000e+00
       13  1    1    2    0    0 -3.7924111233e+02 -2.2244870973e+02 +1.1464993053e+03 1.2279120110e+03 0.0000000000e+00 0.0000e+00 -1.0000e+00
<mgrwt>
<rscale>  0 0.13512868E+04</rscale>
<asrwt>0</asrwt>
<pdfrwt beam="1">  1        2 0.20763579E+00 0.13512868E+04</pdfrwt>
<pdfrwt beam="2">  1       -2 0.52036271E-01 0.13512868E+04</pdfrwt>
<totfact> 0.66353517E+01</totfact>
</mgrwt>
<rwgt>
<wgt id='morphing_basis_vector_1'> +1.7274119e-04 </wgt>
<wgt id='morphing_basis_vector_2'> +1.1222849e-04 </wgt>
<wgt id='morphing_basis_vector_3'> +1.7665289e-04 </wgt>
<wgt id='morphing_basis_vector_4'> +1.1678825e-04 </wgt>
<wgt id='morphing_basis_vector_5'> +1.8601245e-04 </wgt>
</rwgt>
</event>
<event>
 4      1 +3.5234200e-07 1.54610300e+03 7.81860800e-03 8.28867400e-02
        2 -1    0    0  501    0 +0.0000000000e+00 +0.0000000000e+00 +9.4278541074e+02 9.4278541074e+02 0.0000000000e+00 0.0000e+00 -1.0000e+00
       -2 -1    0    0    0  501 -0.0000000000e+00 -0.0000000000e+00 -6.3387536558e+02 6.3387536558e+02 0.0000000000e+00 0.0000e+00 1.0000e+00
      -13  1    1    2    0    0 +1.3388063141e+01 +1.8564079883e+02 -6.1068559594e+02 6.3841886213e+02 0.0000000000e+00 0.0000e+00 1.0000e+00
       13  1    1    2    0    0 -1.3388063141e+01 -1.8564079883e+02 +9.1959564110e+02 9.3824191420e+02 0.0000000000e+00 0.0000e+00 -1.0000e+00
<mgrwt>
<rscale>  0 0.15461028E+04</rscale>
<asrwt>0</asrwt>
<pdfrwt beam="1">  1        2 0.14504391E+00 0.15461028E+04</pdfrwt>
<pdfrwt beam="2">  1       -2 0.97519287E-01 0.15461028E+04</pdfrwt>
<totfact> 0.29177518E+01</totfact>
</mgrwt>
<rwgt>
<wgt id='morphing_basis_vector_1'> +2.8981990e-04 </wgt>
<wgt id='morphing_basis_vector_2'> +1.8991425e-04 </wgt>
<wgt id='morphing_basis_vector_3'> +3.0181874e-04 </wgt>
<wgt id='morphing_basis_vector_4'> +2.0466053e-04 </wgt>
<wgt id='morphing_basis_vector_5'> +3.2566849e-04 </wgt>
</rwgt>
</event>
<event>
 4      1 +3.5234200e-07 1.50941000e+03 7.81860800e-03 8.30952100e-02
        2 -1    0    0  501    0 +0.0000000000e+00 +0.0000000000e+00 +5.9492648076e+02 5.9492648076e+02 0.0000000000e+00 0.0000e+00 -1.0000e+00
       -2 -1    0    0    0  501 -0.0000000000e+00 -0.0000000000e+00 -9.5739444530e+02 9.5739444530e+02 0.0000000000e+00 0.0000e+00 1.0000e+00
      -13  1    1    2    0    0 -6.6241457529e+02 +3.1428629350e+02 -3.6523478692e+02 8.1912477280e+02 0.0000000000e+00 0.0000e+00 1.0000e+00
       13  1    1    2    0    0 +6.6241457529e+02 -3.1428629350e+02 +2.7668223685e+00 7.3319615326e+02 0.0000000000e+00 0.0000e+00 -1.0000e+00
<mgrwt>
<rscale>  0 0.15094096E+04</rscale>
<asrwt>0</asrwt>
<pdfrwt beam="1">  1        2 0.91527150E-01 0.15094096E+04</pdfrwt>
<pdfrwt beam="2">  1       -2 0.14729145E+00 0.15094096E+04</pdfrwt>
<totfact> 0.17916817E+01</totfact>
</mgrwt>
<rwgt>
<wgt id='morphing_basis_vector_1'> +2.6802348e-04 </wgt>
<wgt id='morphing_basis_vector_2'> +1.8435538e-04 </wgt>
<wgt id='morphing_basis_vector_3'> +2.7936765e-04 </wgt>
<wgt id='morphing_basis_vector_4'> +1.7804660e-04 </wgt>
<wgt id='morphing_basis_vector_5'> +2.9430078e-04 </wgt>
</rwgt>
</event>
<event>
 4      1 +3.5234200e-07 1.32547200e+03 7.81860800e-03 8.42417400e-02
        2 -1    0    0  501    0 +0.0000000000e+00 +0.0000000000e+00 +1.7137972267e+03 1.7137972267e+03 0.0000000000e+00 0.0000e+00 -1.0000e+00
       -2 -1    0    0    0  501 -0.0000000000e+00 -0.0000000000e+00 -2.5628410982e+02 2.5628410982e+02 0.0000000000e+00 0.0000e+00 1.0000e+00
      -13  1    1    2    0    0 -3.6955655672e+02 +4.2906252380e+02 +2.1699390086e+02 6.0642645964e+02 0.0000000000e+00 0.0000e+00 1.0000e+00
       13  1    1    2    0    0 +3.6955655672e+02 -4.2906252380e+02 +1.2405192160e+03 1.3636548769e+03 0.0000000000e+00 0.0000e+00 -1.0000e+00
<mgrwt>
<rscale>  0 0.13254720E+04</rscale>
<asrwt>0</asrwt>
<pdfrwt beam="1">  1        2 0.26366110E+00 0.13254720E+04</pdfrwt>
<pdfrwt beam="2">  1       -2 0.39428326E-01 0.13254720E+04</pdfrwt>
<totfact> 0.70878398E+01</totfact>
</mgrwt>
<rwgt>
<wgt id='morphing_basis_vector_1'> +1.6097510e-04 </wgt>
<wgt id='morphing_basis_vector_2'> +1.0560471e-04 </wgt>
<wgt id='morphing_basis_vector_3'> +1.6422705e-04 </wgt>
<wgt id='morphing_basis_vector_4'> +1.0682649e-04 </wgt>
<wgt id='morphing_basis_vector_5'> +1.7152237e-04 </wgt>
</rwgt>
</event>
<event>
 4      1 +3.5234200e-07 1.44901100e+03 7.81860800e-03 8.34520600e-02
        2 -1    0    0  501    0 +0.0000000000e+00 +0.0000000000e+00 +2.8178233694e+03 2.8178233694e+03 0.0000000000e+00 0.0000e+00 1.0000e+00
       -2 -1    0    0    0  501 -0.0000000000e+00 -0.0000000000e+00 -1.8628144544e+02 1.8628144544e+02 0.0000000000e+00 0.0000e+00 -1.0000e+00
      -13  1    1    2    0    0 +4.7609813739e+02 -4.4141137798e+02 +1.9824129852e+03 2.0860188602e+03 0.0000000000e+00 0.0000e+00 1.0000e+00
       13  1    1    2    0    0 -4.7609813739e+02 +4.4141137798e+02 +6.4912893872e+02 9.1808595465e+02 0.0000000000e+00 0.0000e+00 -1.0000e+00
<mgrwt>
<rscale>  0 0.14490110E+04</rscale>
<asrwt>0</asrwt>
<pdfrwt beam="1">  1        2 0.43351125E+00 0.14490110E+04</pdfrwt>
<pdfrwt beam="2">  1       -2 0.28658686E-01 0.14490110E+04</pdfrwt>
<totfact> 0.28617858E+01</totfact>
</mgrwt>
<rwgt>
<wgt id='morphing_basis_vector_1'> +2.6095335e-04 </wgt>
<wgt id='morphing_basis_vector_2'> +2.5242392e-04 </wgt>
<wgt id='morphing_basis_vector_3'> +2.7845275e-04 </wgt>
<wgt id='morphing_basis_vector_4'> +9.1315601e-05 </wgt>
<wgt id='morphing_basis_vector_5'> +2.4409591e-04 </wgt>
</rwgt>
</event>
<event>
 4      1 +3.5234200e-07 1.38850900e+03 7.81860800e-03 8.38281000e-02
        2 -1    0    0  501    0 +0.0000000000e+00 +0.0000000000e+00 +6.6915665237e+02 6.6915665237e+02 0.0000000000e+00 0.0000e+00 -1.0000e+00
       -2 -1    0    0    0  501 -0.0000000000e+00 -0.0000000000e+00 -7.2029353920e+02 7.2029353920e+02 0.0000000000e+00 0.0000e+00 1.0000e+00
      -13  1    1    2    0    0 +4.9795443551e+02 -4.7006186427e+02 -1.3998071593e+02 6.9893588899e+02 0.0000000000e+00 0.0000e+00 1.0000e+00
       13  1    1    2    0    0 -4.9795443551e+02 +4.7006186427e+02 +8.8843829098e+01 6.9051430257e+02 0.0000000000e+00 0.0000e+00 -1.0000e+00
<mgrwt>
<rscale>  0 0.13885089E+04</rscale>
<asrwt>0</asrwt>
<pdfrwt beam="1">  1        2 0.10294718E+00 0.13885089E+04</pdfrwt>
<pdfrwt beam="2">  1       -2 0.11081439E+00 0.13885089E+04</pdfrwt>
<totfact> 0.33591132E+01</totfact>
</mgrwt>
<rwgt>
<wgt id='morphing_basis_vector_1'> +1.9530472e-04 </wgt>
<wgt id='morphing_basis_vector_2'> +1.3563466e-04 </wgt>
<wgt id='morphing_basis_vector_3'> +2.0136825e-04 </wgt>
<wgt id='morphing_basis_vector_4'> +1.2422233e-04 </wgt>
<wgt id='morphing_basis_vector_5'> +2.0788887e-04 </wgt>
</rwgt>
</event>
<event>
 4      1 +3.5234200e-07 1.42719500e+03 7.81860800e-03 8.35854200e-02
        2 -1    0    0  501    0 +0.0000000000e+00 +0.0000000000e+00 +6.5597812853e+02 6.5597812853e+02 0.0000000000e+00 0.0000e+00 -1.0000e+00
       -2 -1    0    0    0  501 -0.0000000000e+00 -0.0000000000e+00 -7.7627831723e+02 7.7627831723e+02 0.0000000000e+00 0.0000e+00 1.0000e+00
      -13  1    1    2    0    0 -5.2225274684e+02 +1.8493623175e+02 -5.1149187887e+02 7.5403798548e+02 0.0000000000e+00 0.0000e+00 1.0000e+00
       13  1    1    2    0    0 +5.2225274684e+02 -1.8493623175e+02 +3.9119169017e+02 6.7821846028e+02 0.0000000000e+00 0.0000e+00 -1.0000e+00
<mgrwt>
<rscale>  0 0.14271953E+04</rscale>
<asrwt>0</asrwt>
<pdfrwt beam="1">  1        2 0.10091971E+00 0.14271953E+04</pdfrwt>
<pdfrwt beam="2">  1       -2 0.11942743E+00 0.14271953E+04</pdfrwt>
<totfact> 0.28329528E+01</totfact>
</mgrwt>
<rwgt>
<wgt id='morphing_basis_vector_1'> +2.1331010e-04 </wgt>
<wgt id='morphing_basis_vector_2'> +1.3990969e-04 </wgt>
<wgt id='morphing_basis_vector_3'> +2.1996215e-04 </wgt>
<wgt id='morphing_basis_vector_4'> +1.4611395e-04 </wgt>
<wgt id='morphing_basis_vector_5'> +2.3360147e-04 </wgt>
</rwgt>
</event>
<event>
 4      1 +3.5234200e-07 1.52732800e+03 7.81860800e-03 8.29926500e-02
        2 -1    0    0  501    0 +0.0000000000e+00 +0.0000000000e+00 +7.7064971622e+02 7.7064971622e+02 0.0000000000e+00 0.0000e+00 -1.0000e+00
       -2 -1    0    0    0  501 -0.0000000000e+00 -0.0000000000e+00 -7.5674179560e+02 7.5674179560e+02 0.0000000000e+00 0.0000e+00 1.0000e+00
      -13  1    1    2    0    0 -2.5350425435e+02 -7.0271190426e+02 -1.5152791610e+02 7.6225267250e+02 0.0000000000e+00 0.0000e+00 1.0000e+00
       13  1    1    2    0    0 +2.5350425435e+02 +7.0271190426e+02 +1.6543583673e+02 7.6513883932e+02 0.0000000000e+00 0.0000e+00 -1.0000e+00
<mgrwt>
<rscale>  0 0.15273282E+04</rscale>
<asrwt>0</asrwt>
<pdfrwt beam="1">  1        2 0.11856149E+00 0.15273282E+04</pdfrwt>
<pdfrwt beam="2">  1       -2 0.11642181E+00 0.15273282E+04</pdfrwt>
<totfact> 0.24600971E+01</totfact>
</mgrwt>
<rwgt>
<wgt id='morphing_basis_vector_1'> +2.8103760e-04 </wgt>
<wgt id='morphing_basis_vector_2'> +1.9464951e-04 </wgt>
<wgt id='morphing_basis_vector_3'> +2.9352762e-04 </wgt>
<wgt id='morphing_basis_vector_4'> +1.8598299e-04 </wgt>
<wgt id='morphing_basis_vector_5'> +3.0896988e-04 </wgt>
</rwgt>
</event>
<event>
 4      1 +3.5234200e-07 1.29223100e+03 7.81860800e-03 8.44696600e-02
        2 -1    0    0  501    0 +0.0000000000e+00 +0.0000000000e+00 +5.9667611022e+02 5.9667611022e+02 0.0000000000e+00 0.0000e+00 -1.0000e+00
       -2 -1    0    0    0  501 -0.0000000000e+00 -0.0000000000e+00 -6.9965173021e+02 6.9965173021e+02 0.0000000000e+00 0.0000e+00 1.0000e+00
      -13  1    1    2    0    0 -3.6700840264e+02 -2.6552673659e+02 -5.1367152974e+02 6.8487813216e+02 0.0000000000e+00 0.0000e+00 1.0000e+00
       13  1    1    2    0    0 +3.6700840264e+02 +2.6552673659e+02 +4.1069590975e+02 6.1144970827e+02 0.0000000000e+00 0.0000e+00 -1.0000e+00
<mgrwt>
<rscale>  0 0.12922314E+04</rscale>
<asrwt>0</asrwt>
<pdfrwt beam="1">  1        2 0.91796325E-01 0.12922314E+04</pdfrwt>
<pdfrwt beam="2">  1       -2 0.10763873E+00 0.12922314E+04</pdfrwt>
<totfact> 0.41738861E+01</totfact>
</mgrwt>
<rwgt>
<wgt id='morphing_basis_vector_1'> +1.4569022e-04 </wgt>
<wgt id='morphing_basis_vector_2'> +9.4373987e-05 </wgt>
<wgt id='morphing_basis_vector_3'> +1.4793647e-04 </wgt>
<wgt id='morphing_basis_vector_4'> +9.6792944e-05 </wgt>
<wgt id='morphing_basis_vector_5'> +1.5424539e-04 </wgt>
</rwgt>
</event>
<event>
 4      1 +3.5234200e-07 1.31335000e+03 7.81860800e-03 8.43240300e-02
        2 -1    0    0  501    0 +0.0000000000e+00 +0.0000000000e+00 +1.3147643611e+03 1.3147643611e+03 0.0000000000e+00 0.0000e+00 1.0000e+00
       -2 -1    0    0    0  501 -0.0000000000e+00 -0.0000000000e+00 -3.2798452817e+02 3.2798452817e+02 0.0000000000e+00 0.0000e+00 -1.0000e+00
      -13  1    1    2    0    0 +5.6519199617e+02 +3.0696861330e+02 +3.2768434676e+02 7.2183706832e+02 0.0000000000e+00 0.0000e+00 1.0000e+00
       13  1    1    2    0    0 -5.6519199617e+02 -3.0696861330e+02 +6.5909548618e+02 9.2091182096e+02 0.0000000000e+00 0.0000e+00 -1.0000e+00
<mgrwt>
<rscale>  0 0.13133505E+04</rscale>
<asrwt>0</asrwt>
<pdfrwt beam="1">  1        2 0.20227144E+00 0.13133505E+04</pdfrwt>
<pdfrwt beam="2">  1       -2 0.50459159E-01 0.13133505E+04</pdfrwt>
<totfact> 0.74027404E+01</totfact>
</mgrwt>
<rwgt>
<wgt id='morphing_basis_vector_1'> +1.5742663e-04 </wgt>
<wgt id='morphing_basis_vector_2'> +1.0786730e-04 </wgt>
<wgt id='morphing_basis_vector_3'> +1.6075340e-04 </wgt>
<wgt id='morphing_basis_vector_4'> +9.9231814e-05 </wgt>
<wgt id='morphing_basis_vector_5'> +1.6479246e-04 </wgt>
</rwgt>
</event>
<event>
 4      1 +3.5234200e-07 1.43825300e+03 7.81860800e-03 8.35175200e-02
        2 -1    0    0  501    0 +0.0000000000e+00 +0.0000000000e+00 +9.8128224638e+02 9.8128224638e+02 0.0000000000e+00 0.0000e+00 1.0000e+00
       -2 -1    0    0    0  501 -0.0000000000e+00 -0.0000000000e+00 -5.2700707515e+02 5.2700707515e+02 0.0000000000e+00 0.0000e+00 -1.0000e+00
      -13  1    1    2    0    0 +2.5123543056e+02 -6.3160057061e+02 +4.7331129903e+02 8.2828866233e+02 0.0000000000e+00 0.0000e+00 1.0000e+00
       13  1    1    2    0    0 -2.5123543056e+02 +6.3160057061e+02 -1.9036127802e+01 6.8000065921e+02 0.0000000000e+00 0.0000e+00 -1.0000e+00
<mgrwt>
<rscale>  0 0.14382527E+04</rscale>
<asrwt>0</asrwt>
<pdfrwt beam="1">  1        2 0.15096650E+00 0.14382527E+04</pdfrwt>
<pdfrwt beam="2">  1       -2 0.81078011E-01 0.14382527E+04</pdfrwt>
<totfact> 0.42775214E+01</totfact>
</mgrwt>
<rwgt>
<wgt id='morphing_basis_vector_1'> +2.4334379e-04 </wgt>
<wgt id='morphing_basis_vector_2'> +2.1468036e-04 </wgt>
<wgt id='morphing_basis_vector_3'> +2.5706753e-04 </wgt>
<wgt id='morphing_basis_vector_4'> +1.0739031e-04 </wgt>
<wgt id='morphing_basis_vector_5'> +2.3804014e-04 </wgt>
</rwgt>
</event>
<event>
 4      1 +3.5234200e-07 1.51498900e+03 7.81860800e-03 8.30631100e-02
        2 -1    0    0  501    0 +0.0000000000e+00 +0.0000000000e+00 +1.9853079520e+03 1.9853079520e+03 0.0000000000e+00 0.0000e+00 -1.0000e+00
       -2 -1    0    0    0  501 -0.0000000000e+00 -0.0000000000e+00 -2.8902220233e+02 2.8902220233e+02 0.0000000000e+00 0.0000e+00 1.0000e+00
      -13  1    1    2    0    0 -6.7115528879e+02 -2.7278732027e+02 +5.1605194207e+02 8.8947847117e+02 0.0000000000e+00 0.0000e+00 1.0000e+00
       13  1    1    2    0    0 +6.7115528879e+02 +2.7278732027e+02 +1.1802338076e+03 1.3848516832e+03 0.0000000000e+00 0.0000e+00 -1.0000e+00
<mgrwt>
<rscale>  0 0.15149892E+04</rscale>
<asrwt>0</asrwt>
<pdfrwt beam="1">  1        2 0.30543199E+00 0.15149892E+04</pdfrwt>
<pdfrwt beam="2">  1       -2 0.44464955E-01 0.15149892E+04</pdfrwt>
<totfact> 0.39263875E+01</totfact>
</mgrwt>
<rwgt>
<wgt id='morphing_basis_vector_1'> +2.7106455e-04 </wgt>
<wgt id='morphing_basis_vector_2'> +1.8465209e-04 </wgt>
<wgt id='morphing_basis_vector_3'> +2.8245526e-04 </wgt>
<wgt id='morphing_basis_vector_4'> +1.8229011e-04 </wgt>
<wgt id='morphing_basis_vector_5'> +2.9894584e-04 </wgt>
</rwgt>
</event>
<event>
 4      1 +3.5234200e-07 1.33354600e+03 7.81860800e-03 8.41874300e-02
        2 -1    0    0  501    0 +0.0000000000e+00 +0.0000000000e+00 +9.1623748528e+02 9.1623748528e+02 0.0000000000e+00 0.0000e+00 -1.0000e+00
       -2 -1    0    0    0  501 -0.0000000000e+00 -0.0000000000e+00 -4.8523065413e+02 4.8523065413e+02 0.0000000000e+00 0.0000e+00 1.0000e+00
      -13  1    1    2    0    0 -2.5487910157e+02 +7.2881742450e+01 -4.2746793700e+02 5.0299497211e+02 0.0000000000e+00 0.0000e+00 1.0000e+00
       13  1    1    2    0    0 +2.5487910157e+02 -7.2881742450e+01 +8.5847476816e+02 8.9847316730e+02 0.0000000000e+00 0.0000e+00 -1.0000e+00
<mgrwt>
<rscale>  0 0.13335464E+04</rscale>
<asrwt>0</asrwt>
<pdfrwt beam="1">  1        2 0.14095961E+00 0.13335464E+04</pdfrwt>
<pdfrwt beam="2">  1       -2 0.74650870E-01 0.13335464E+04</pdfrwt>
<totfact> 0.57102955E+01</totfact>
</mgrwt>
<rwgt>
<wgt id='morphing_basis_vector_1'> +1.6411543e-04 </wgt>
<wgt id='morphing_basis_vector_2'> +1.0623205e-04 </wgt>
<wgt id='morphing_basis_vector_3'> +1.6746423e-04 </wgt>
<wgt id='morphing_basis_vector_4'> +1.1071897e-04 </wgt>
<wgt id='morphing_basis_vector_5'> +1.7602170e-04 </wgt>
</rwgt>
</event>
<event>
 4      1 +3.5234200e-07 1.30368600e+03 7.81860800e-03 8.43903100e-02
        2 -1    0    0  501    0 +0.0000000000e+00 +0.0000000000e+00 +1.2613849560e+03 1.2613849560e+03 0.0000000000e+00 0.0000e+00 -1.0000e+00
       -2 -1    0    0    0  501 -0.0000000000e+00 -0.0000000000e+00 -3.3685142127e+02 3.3685142127e+02 0.0000000000e+00 0.0000e+00 1.0000e+00
      -13  1    1    2    0    0 +4.5875904432e+02 -4.1744484061e+02 +2.1653066568e+02 6.5696695874e+02 0.0000000000e+00 0.0000e+00 1.0000e+00
       13  1    1    2    0    0 -4.5875904432e+02 +4.1744484061e+02 +7.0800286907e+02 9.4126941855e+02 0.0000000000e+00 0.0000e+00 -1.0000e+00
<mgrwt>
<rscale>  0 0.13036860E+04</rscale>
<asrwt>0</asrwt>
<pdfrwt beam="1">  1        2 0.19405922E+00 0.13036860E+04</pdfrwt>
<pdfrwt beam="2">  1       -2 0.51823296E-01 0.13036860E+04</pdfrwt>
<totfact> 0.75420673E+01</totfact>
</mgrwt>
<rwgt>
<wgt id='morphing_basis_vector_1'> +1.5215185e-04 </wgt>
<wgt id='morphing_basis_vector_2'> +1.0210703e-04 </wgt>
<wgt id='morphing_basis_vector_3'> +1.5500195e-04 </wgt>
<wgt id='morphing_basis_vector_4'> +9.7812854e-05 </wgt>
<wgt id='morphing_basis_vector_5'> +1.5988041e-04 </wgt>
</rwgt>
</event>
<event>
 4      1 +3.5234200e-07 1.39943000e+03 7.81860800e-03 8.37587700e-02
        2 -1    0    0  501    0 +0.0000000000e+00 +0.0000000000e+00 +1.4561376749e+03 1.4561376749e+03 0.0000000000e+00 0.0000e+00 -1.0000e+00
       -2 -1    0    0    0  501 -0.0000000000e+00 -0.0000000000e+00 -3.3623245333e+02 3.3623245333e+02 0.0000000000e+00 0.0000e+00 1.0000e+00
      -13  1    1    2    0    0 +3.1284815965e+01 -3.8383398369e+02 -1.8828694064e+02 4.2867148116e+02 0.0000000000e+00 0.0000e+00 1.0000e+00
       13  1    1    2    0    0 -3.1284815965e+01 +3.8383398369e+02 +1.3081921622e+03 1.3636986471e+03 0.0000000000e+00 0.0000e+00 -1.0000e+00
<mgrwt>
<rscale>  0 0.13994295E+04</rscale>
<asrwt>0</asrwt>
<pdfrwt beam="1">  1        2 0.22402118E+00 0.13994295E+04</pdfrwt>
<pdfrwt beam="2">  1       -2 0.51728071E-01 0.13994295E+04</pdfrwt>
<totfact> 0.58237939E+01</totfact>
</mgrwt>
<rwgt>
<wgt id='morphing_basis_vector_1'> +1.9746187e-04 </wgt>
<wgt id='morphing_basis_vector_2'> +1.2849909e-04 </wgt>
<wgt id='morphing_basis_vector_3'> +2.0297053e-04 </wgt>
<wgt id='morphing_basis_vector_4'> +1.3527943e-04 </wgt>
<wgt id='morphing_basis_vector_5'> +2.1529386e-04 </wgt>
</rwgt>
</event>
<event>
 4      1 +3.5234200e-07 1.31086200e+03 7.81860800e-03 8.43410400e-02
        2 -1    0    0  501    0 +0.0000000000e+00 +0.0000000000e+00 +2.5201234574e+02 2.5201234574e+02 0.0000000000e+00 0.0000e+00 -1.0000e+00
       -2 -1    0    0    0  501 -0.0000000000e+00 -0.0000000000e+00 -1.7046390907e+03 1.7046390907e+03 0.0000000000e+00 0.0000e+00 1.0000e+00
      -13  1    1    2    0    0 -4.2589316714e+01 +4.3538287736e+02 -1.4548369705e+03 1.5191848836e+03 0.0000000000e+00 0.0000e+00 1.0000e+00
       13  1    1    2    0    0 +4.2589316714e+01 -4.3538287736e+02 +2.2102255098e+00 4.3746655289e+02 0.0000000000e+00 0.0000e+00 -1.0000e+00
<mgrwt>
<rscale>  0 0.13108625E+04</rscale>
<asrwt>0</asrwt>
<pdfrwt beam="1">  1        2 0.38771131E-01 0.13108625E+04</pdfrwt>
<pdfrwt beam="2">  1       -2 0.26225216E+00 0.13108625E+04</pdfrwt>
<totfact> 0.68755920E+00</totfact>
</mgrwt>
<rwgt>
<wgt id='morphing_basis_vector_1'> +1.5382554e-04 </wgt>
<wgt id='morphing_basis_vector_2'> +9.9689152e-05 </wgt>
<wgt id='morphing_basis_vector_3'> +1.5655834e-04 </wgt>
<wgt id='morphing_basis_vector_4'> +1.0284226e-04 </wgt>
<wgt id='morphing_basis_vector_5'> +1.6379861e-04 </wgt>
</rwgt>
</event>
<event>
 4      1 +3.5234200e-07 1.52251000e+03 7.81860800e-03 8.30200800e-02
        2 -1    0    0  501    0 +0.0000000000e+00 +0.0000000000e+00 +9.0857230924e+02 9.0857230924e+02 0.0000000000e+00 0.0000e+00 -1.0000e+00
       -2 -1    0    0    0  501 -0.0000000000e+00 -0.0000000000e+00 -6.3782377853e+02 6.3782377853e+02 0.0000000000e+00 0.0000e+00 1.0000e+00
      -13  1    1    2    0    0 +2.7740404224e+02 +1.1454939365e+02 -5.7519744960e+02 6.4878861909e+02 0.0000000000e+00 0.0000e+00 1.0000e+00
       13  1    1    2    0    0 -2.7740404224e+02 -1.1454939365e+02 +8.4594598030e+02 8.9760746868e+02 0.0000000000e+00 0.0000e+00 -1.0000e+00
<mgrwt>
<rscale>  0 0.15225098E+04</rscale>
<asrwt>0</asrwt>
<pdfrwt beam="1">  1        2 0.13978036E+00 0.15225098E+04</pdfrwt>
<pdfrwt beam="2">  1       -2 0.98126735E-01 0.15225098E+04</pdfrwt>
<totfact> 0.30306792E+01</totfact>
</mgrwt>
<rwgt>
<wgt id='morphing_basis_vector_1'> +2.7311571e-04 </wgt>
<wgt id='morphing_basis_vector_2'> +1.7880116e-04 </wgt>
<wgt id='morphing_basis_vector_3'> +2.8389604e-04 </wgt>
<wgt id='morphing_basis_vector_4'> +1.9202558e-04 </wgt>
<wgt id='morphing_basis_vector_5'> +3.0558428e-04 </wgt>
</rwgt>
</event>
<event>
 4      1 +3.5234200e-07 1.39056500e+03 7.81860800e-03 8.38150000e-02
        2 -1    0    0  501    0 +0.0000000000e+00 +0.0000000000e+00 +8.3754655078e+02 8.3754655078e+02 0.0000000000e+00 0.0000e+00 1.0000e+00
       -2 -1    0    0    0  501 -0.0000000000e+00 -0.0000000000e+00 -5.7718325664e+02 5.7718325664e+02 0.0000000000e+00 0.0000e+00 -1.0000e+00
      -13  1    1    2    0    0 -1.6232713781e+02 -2.0647129851e+02 -5.2477357986e+02 5.8682860095e+02 0.0000000000e+00 0.0000e+00 -1.0000e+00
       13  1    1    2    0    0 +1.6232713781e+02 +2.0647129851e+02 +7.8513687399e+02 8.2790120647e+02 0.0000000000e+00 0.0000e+00 1.0000e+00
<mgrwt>
<rscale>  0 0.13905651E+04</rscale>
<asrwt>0</asrwt>
<pdfrwt beam="1">  1        2 0.12885332E+00 0.13905651E+04</pdfrwt>
<pdfrwt beam="2">  1       -2 0.88797424E-01 0.13905651E+04</pdfrwt>
<totfact> 0.43211394E+01</totfact>
</mgrwt>
<rwgt>
<wgt id='morphing_basis_vector_1'> +1.9265392e-04 </wgt>
<wgt id='morphing_basis_vector_2'> +1.2518024e-04 </wgt>
<wgt id='morphing_basis_vector_3'> +1.9783430e-04 </wgt>
<wgt id='morphing_basis_vector_4'> +1.3184234e-04 </wgt>
<wgt id='morphing_basis_vector_5'> +2.0967153e-04 </wgt>
</rwgt>
</event>
<event>
 4      1 +3.5234200e-07 1.33640400e+03 7.81860800e-03 8.41683100e-02
        2 -1    0    0  501    0 +0.0000000000e+00 +0.0000000000e+00 +1.0171903457e+03 1.0171903457e+03 0.0000000000e+00 0.0000e+00 1.0000e+00
       -2 -1    0    0    0  501 -0.0000000000e+00 -0.0000000000e+00 -4.3894803520e+02 4.3894803520e+02 0.0000000000e+00 0.0000e+00 -1.0000e+00
      -13  1    1    2    0    0 +5.3382722080e+01 -4.4293123668e+02 -2.5289707983e+02 5.1283011654e+02 0.0000000000e+00 0.0000e+00 -1.0000e+00
       13  1    1    2    0    0 -5.3382722080e+01 +4.4293123668e+02 +8.3113939029e+02 9.4330826432e+02 0.0000000000e+00 0.0000e+00 1.0000e+00
<mgrwt>
<rscale>  0 0.13364037E+04</rscale>
<asrwt>0</asrwt>
<pdfrwt beam="1">  1        2 0.15649082E+00 0.13364037E+04</pdfrwt>
<pdfrwt beam="2">  1       -2 0.67530467E-01 0.13364037E+04</pdfrwt>
<totfact> 0.61161146E+01</totfact>
</mgrwt>
<rwgt>
<wgt id='morphing_basis_vector_1'> +1.6559384e-04 </wgt>
<wgt id='morphing_basis_vector_2'> +1.0751567e-04 </wgt>
<wgt id='morphing_basis_vector_3'> +1.6905618e-04 </wgt>
<wgt id='morphing_basis_vector_4'> +1.1147971e-04 </wgt>
<wgt id='morphing_basis_vector_5'> +1.7758906e-04 </wgt>
</rwgt>
</event>
<event>
 4      1 +3.5234200e-07 1.38165900e+03 7.81860800e-03 8.38719300e-02
        2 -1    0    0  501    0 +0.0000000000e+00 +0.0000000000e+00 +6.4603845075e+02 6.4603845075e+02 0.0000000000e+00 0.0000e+00 1.0000e+00
       -2 -1    0    0    0  501 -0.0000000000e+00 -0.0000000000e+00 -7.3872641464e+02 7.3872641464e+02 0.0000000000e+00 0.0000e+00 -1.0000e+00
      -13  1    1    2    0    0 +2.6942055493e+02 -6.3224456876e+02 +2.3992371427e+01 6.8767453351e+02 0.0000000000e+00 0.0000e+00 -1.0000e+00
       13  1    1    2    0    0 -2.6942055493e+02 +6.3224456876e+02 -1.1668033531e+02 6.9709033188e+02 0.0000000000e+00 0.0000e+00 1.0000e+00
<mgrwt>
<rscale>  0 0.13816594E+04</rscale>
<asrwt>0</asrwt>
<pdfrwt beam="1">  1        2 0.99390531E-01 0.13816594E+04</pdfrwt>
<pdfrwt beam="2">  1       -2 0.11365022E+00 0.13816594E+04</pdfrwt>
<totfact> 0.32894763E+01</totfact>
</mgrwt>
<rwgt>
<wgt id='morphing_basis_vector_1'> +1.9771689e-04 </wgt>
<wgt id='morphing_basis_vector_2'> +1.5120856e-04 </wgt>
<wgt id='morphing_basis_vector_3'> +2.0504252e-04 </wgt>
<wgt id='morphing_basis_vector_4'> +1.1064070e-04 </wgt>
<wgt id='morphing_basis_vector_5'> +2.0284700e-04 </wgt>
</rwgt>
</event>
<event>
 4      1 +3.5234200e-07 1.39024400e+03 7.81860800e-03 8.38170400e-02
        2 -1    0    0  501    0 +0.0000000000e+00 +0.0000000000e+00 +2.8292409053e+03 2.8292409053e+03 0.0000000000e+00 0.0000e+00 -1.0000e+00
       -2 -1    0    0    0  501 -0.0000000000e+00 -0.0000000000e+00 -1.7078587565e+02 1.7078587565e+02 0.0000000000e+00 0.0000e+00 1.0000e+00
      -13  1    1    2    0    0 +2.8855245657e+01 +6.6403724915e+02 +1.7683845083e+03 1.8891696225e+03 0.0000000000e+00 0.0000e+00 1.0000e+00
       13  1    1    2    0    0 -2.8855245657e+01 -6.6403724915e+02 +8.9007052141e+02 1.1108571585e+03 0.0000000000e+00 0.0000e+00 -1.0000e+00
<mgrwt>
<rscale>  0 0.13902437E+04</rscale>
<asrwt>0</asrwt>
<pdfrwt beam="1">  1        2 0.43526780E+00 0.13902437E+04</pdfrwt>
<pdfrwt beam="2">  1       -2 0.26274752E-01 0.13902437E+04</pdfrwt>
<totfact> 0.32949821E+01</totfact>
</mgrwt>
<rwgt>
<wgt id='morphing_basis_vector_1'> +2.1143105e-04 </wgt>
<wgt id='morphing_basis_vector_2'> +1.8168208e-04 </wgt>
<wgt id='morphing_basis_vector_3'> +2.2145413e-04 </wgt>
<wgt id='morphing_basis_vector_4'> +9.7209938e-05 </wgt>
<wgt id='morphing_basis_vector_5'> +2.0697277e-04 </wgt>
</rwgt>
</event>
<event>
 4      1 +3.5234200e-07 1.30884500e+03 7.81860800e-03 8.43548600e-02
        2 -1    0    0  501    0 +0.0000000000e+00 +0.0000000000e+00 +7.4226632870e+02 7.4226632870e+02 0.0000000000e+00 0.0000e+00 -1.0000e+00
       -2 -1    0    0    0  501 -0.0000000000e+00 -0.0000000000e+00 -5.7697421745e+02 5.7697421745e+02 0.0000000000e+00 0.0000e+00 1.0000e+00
      -13  1    1    2    0    0 +3.9917810913e+02 -4.2827664702e+02 -2.1208802647e+02 6.2269204280e+02 0.0000000000e+00 0.0000e+00 1.0000e+00
       13  1    1    2    0    0 -3.9917810913e+02 +4.2827664702e+02 +3.7738013771e+02 6.9654850336e+02 0.0000000000e+00 0.0000e+00 -1.0000e+00
<mgrwt>
<rscale>  0 0.13088446E+04</rscale>
<asrwt>0</asrwt>
<pdfrwt beam="1">  1        2 0.11419482E+00 0.13088446E+04</pdfrwt>
<pdfrwt beam="2">  1       -2 0.88765264E-01 0.13088446E+04</pdfrwt>
<totfact> 0.50803764E+01</totfact>
</mgrwt>
<rwgt>
<wgt id='morphing_basis_vector_1'> +1.5367522e-04 </wgt>
<wgt id='morphing_basis_vector_2'> +1.0133974e-04 </wgt>
<wgt id='morphing_basis_vector_3'> +1.5650987e-04 </wgt>
<wgt id='morphing_basis_vector_4'> +1.0084329e-04 </wgt>
<wgt id='morphing_basis_vector_5'> +1.6264934e-04 </wgt>
</rwgt>
</event>
<event>
 4      1 +3.5234200e-07 1.41407500e+03 7.81860800e-03 8.36668100e-02
        2 -1    0    0  501    0 +0.0000000000e+00 +0.0000000000e+00 +2.3393473504e+03 2.3393473504e+03 0.0000000000e+00 0.0000e+00 1.0000e+00
       -2 -1    0    0    0  501 -0.0000000000e+00 -0.0000000000e+00 -2.1369301481e+02 2.1369301481e+02 0.0000000000e+00 0.0000e+00 -1.0000e+00
      -13  1    1    2    0    0 +3.2587697848e+02 -5.9343932144e+02 +6.9486911596e+02 9.7015932797e+02 0.0000000000e+00 0.0000e+00 -1.0000e+00
       13  1    1    2    0    0 -3.2587697848e+02 +5.9343932144e+02 +1.4307852196e+03 1.5828810372e+03 0.0000000000e+00 0.0000e+00 1.0000e+00
<mgrwt>
<rscale>  0 0.14140752E+04</rscale>
<asrwt>0</asrwt>
<pdfrwt beam="1">  1        2 0.35989957E+00 0.14140752E+04</pdfrwt>
<pdfrwt beam="2">  1       -2 0.32875850E-01 0.14140752E+04</pdfrwt>
<totfact> 0.43589710E+01</totfact>
</mgrwt>
<rwgt>
<wgt id='morphing_basis_vector_1'> +2.0789187e-04 </wgt>
<wgt id='morphing_basis_vector_2'> +1.4095685e-04 </wgt>
<wgt id='morphing_basis_vector_3'> +2.1457790e-04 </wgt>
<wgt id='morphing_basis_vector_4'> +1.3691343e-04 </wgt>
<wgt id='morphing_basis_vector_5'> +2.2452141e-04 </wgt>
</rwgt>
</event>
<event>
 4      1 +3.5234200e-07 1.36385000e+03 7.81860800e-03 8.39871300e-02
        2 -1    0    0  501    0 +0.0000000000e+00 +0.0000000000e+00 +1.3082217475e+03 1.3082217475e+03 0.0000000000e+00 0.0000e+00 -1.0000e+00
       -2 -1    0    0    0  501 -0.0000000000e+00 -0.0000000000e+00 -3.5546099282e+02 3.5546099282e+02 0.0000000000e+00 0.0000e+00 1.0000e+00
      -13  1    1    2    0    0 +4.2242543527e+02 -4.1872698988e+02 +6.9518901989e+01 5.9883922563e+02 0.0000000000e+00 0.0000e+00 1.0000e+00
       13  1    1    2    0    0 -4.2242543527e+02 +4.1872698988e+02 +8.8324185268e+02 1.0648435147e+03 0.0000000000e+00 0.0000e+00 -1.0000e+00
<mgrwt>
<rscale>  0 0.13638501E+04</rscale>
<asrwt>0</asrwt>
<pdfrwt beam="1">  1        2 0.20126488E+00 0.13638501E+04</pdfrwt>
<pdfrwt beam="2">  1       -2 0.54686307E-01 0.13638501E+04</pdfrwt>
<totfact> 0.63388610E+01</totfact>
</mgrwt>
<rwgt>
<wgt id='morphing_basis_vector_1'> +1.7967267e-04 </wgt>
<wgt id='morphing_basis_vector_2'> +1.1847208e-04 </wgt>
<wgt id='morphing_basis_vector_3'> +1.8415353e-04 </wgt>
<wgt id='morphing_basis_vector_4'> +1.2011544e-04 </wgt>
<wgt id='morphing_basis_vector_5'> +1.9325648e-04 </wgt>
</rwgt>
</event>
<event>
 4      1 +3.5234200e-07 1.34369100e+03 7.81860800e-03 8.41197600e-02
        2 -1    0    0  501    0 +0.0000000000e+00 +0.0000000000e+00 +1.0463627099e+03 1.0463627099e+03 0.0000000000e+00 0.0000e+00 -1.0000e+00
       -2 -1    0    0    0  501 -0.0000000000e+00 -0.0000000000e+00 -4.3137658390e+02 4.3137658390e+02 0.0000000000e+00 0.0000e+00 1.0000e+00
      -13  1    1    2    0    0 -1.5291220357e+02 -2.5623585382e+02 -3.5450239119e+02 4.6336907551e+02 0.0000000000e+00 0.0000e+00 1.0000e+00
       13  1    1    2    0    0 +1.5291220357e+02 +2.5623585382e+02 +9.6948851716e+02 1.0143702183e+03 0.0000000000e+00 0.0000e+00 -1.0000e+00
<mgrwt>
<rscale>  0 0.13436910E+04</rscale>
<asrwt>0</asrwt>
<pdfrwt beam="1">  1        2 0.16097888E+00 0.13436910E+04</pdfrwt>
<pdfrwt beam="2">  1       -2 0.66365629E-01 0.13436910E+04</pdfrwt>
<totfact> 0.60849364E+01</totfact>
</mgrwt>
<rwgt>
<wgt id='morphing_basis_vector_1'> +1.6894894e-04 </wgt>
<wgt id='morphing_basis_vector_2'> +1.0945783e-04 </wgt>
<wgt id='morphing_basis_vector_3'> +1.7260207e-04 </wgt>
<wgt id='morphing_basis_vector_4'> +1.1426435e-04 </wgt>
<wgt id='morphing_basis_vector_5'> +1.8169228e-04 </wgt>
</rwgt>
</event>
<event>
 4      1 +3.5234200e-07 1.48748900e+03 7.81860800e-03 8.32226900e-02
        2 -1    0    0  501    0 +0.0000000000e+00 +0.0000000000e+00 +2.6406307512e+03 2.6406307512e+03 0.0000000000e+00 0.0000e+00 -1.0000e+00
       -2 -1    0    0    0  501 -0.0000000000e+00 -0.0000000000e+00 -2.0947877206e+02 2.0947877206e+02 0.0000000000e+00 0.0000e+00 1.0000e+00
      -13  1    1    2    0    0 +1.8218056534e+01 -7.3922504520e+02 +1.3685068818e+03 1.5555052718e+03 0.0000000000e+00 0.0000e+00 1.0000e+00
       13  1    1    2    0    0 -1.8218056534e+01 +7.3922504520e+02 +1.0626450974e+03 1.2946042515e+03 0.0000000000e+00 0.0000e+00 -1.0000e+00
<mgrwt>
<rscale>  0 0.14874893E+04</rscale>
<asrwt>0</asrwt>
<pdfrwt beam="1">  1        2 0.40625086E+00 0.14874893E+04</pdfrwt>
<pdfrwt beam="2">  1       -2 0.32227505E-01 0.14874893E+04</pdfrwt>
<totfact> 0.29751478E+01</totfact>
</mgrwt>
<rwgt>
<wgt id='morphing_basis_vector_1'> +2.6289433e-04 </wgt>
<wgt id='morphing_basis_vector_2'> +2.0261905e-04 </wgt>
<wgt id='morphing_basis_vector_3'> +2.7600884e-04 </wgt>
<wgt id='morphing_basis_vector_4'> +1.4975537e-04 </wgt>
<wgt id='morphing_basis_vector_5'> +2.7566460e-04 </wgt>
</rwgt>
</event>
<event>
 4      1 +3.5234200e-07 1.33071800e+03 7.81860800e-03 8.42064100e-02
        2 -1    0    0  501    0 +0.0000000000e+00 +0.0000000000e+00 +1.5881319971e+03 1.5881319971e+03 0.0000000000e+00 0.0000e+00 -1.0000e+00
       -2 -1    0    0    0  501 -0.0000000000e+00 -0.0000000000e+00 -2.7875678754e+02 2.7875678754e+02 0.0000000000e+00 0.0000e+00 1.0000e+00
      -13  1    1    2    0    0 -5.5821068648e+02 +1.5731390814e+02 +1.9716464890e+02 6.1255263853e+02 0.0000000000e+00 0.0000e+00 1.0000e+00
       13  1    1    2    0    0 +5.5821068648e+02 -1.5731390814e+02 +1.1122105607e+03 1.2543361461e+03 0.0000000000e+00 0.0000e+00 -1.0000e+00
<mgrwt>
<rscale>  0 0.13307180E+04</rscale>
<asrwt>0</asrwt>
<pdfrwt beam="1">  1        2 0.24432799E+00 0.13307180E+04</pdfrwt>
<pdfrwt beam="2">  1       -2 0.42885661E-01 0.13307180E+04</pdfrwt>
<totfact> 0.71043308E+01</totfact>
</mgrwt>
<rwgt>
<wgt id='morphing_basis_vector_1'> +1.6353255e-04 </wgt>
<wgt id='morphing_basis_vector_2'> +1.0757733e-04 </wgt>
<wgt id='morphing_basis_vector_3'> +1.6696407e-04 </wgt>
<wgt id='morphing_basis_vector_4'> +1.0840834e-04 </wgt>
<wgt id='morphing_basis_vector_5'> +1.7436912e-04 </wgt>
</rwgt>
</event>
<event>
 4      1 +3.5234200e-07 1.49244400e+03 7.81860800e-03 8.31936700e-02
        2 -1    0    0  501    0 +0.0000000000e+00 +0.0000000000e+00 +1.2078778379e+03 1.2078778379e+03 0.0000000000e+00 0.0000e+00 1.0000e+00
       -2 -1    0    0    0  501 -0.0000000000e+00 -0.0000000000e+00 -4.6101304219e+02 4.6101304219e+02 0.0000000000e+00 0.0000e+00 -1.0000e+00
      -13  1    1    2    0    0 +1.7651875260e+02 -6.2021102798e+02 -4.6501305617e+01 6.4651601734e+02 0.0000000000e+00 0.0000e+00 -1.0000e+00
       13  1    1    2    0    0 -1.7651875260e+02 +6.2021102798e+02 +7.9336610132e+02 1.0223748627e+03 0.0000000000e+00 0.0000e+00 1.0000e+00
<mgrwt>
<rscale>  0 0.14924442E+04</rscale>
<asrwt>0</asrwt>
<pdfrwt beam="1">  1        2 0.18582736E+00 0.14924442E+04</pdfrwt>
<pdfrwt beam="2">  1       -2 0.70925084E-01 0.14924442E+04</pdfrwt>
<totfact> 0.41807006E+01</totfact>
</mgrwt>
<rwgt>
<wgt id='morphing_basis_vector_1'> +2.5396062e-04 </wgt>
<wgt id='morphing_basis_vector_2'> +1.6852219e-04 </wgt>
<wgt id='morphing_basis_vector_3'> +2.6361468e-04 </wgt>
<wgt id='morphing_basis_vector_4'> +1.7479796e-04 </wgt>
<wgt id='morphing_basis_vector_5'> +2.8119245e-04 </wgt>
</rwgt>
</event>
<event>
 4      1 +3.5234200e-07 1.46565800e+03 7.81860800e-03 8.33519300e-02
        2 -1    0    0  501    0 +0.0000000000e+00 +0.0000000000e+00 +7.6194167378e+02 7.6194167378e+02 0.0000000000e+00 0.0000e+00 -1.0000e+00
       -2 -1    0    0    0  501 -0.0000000000e+00 -0.0000000000e+00 -7.0482827634e+02 7.0482827634e+02 0.0000000000e+00 0.0000e+00 1.0000e+00
      -13  1    1    2    0    0 +1.4010386367e+02 +4.5995149806e+02 -5.2490332508e+02 7.1183423201e+02 0.0000000000e+00 0.0000e+00 1.0000e+00
       13  1    1    2    0    0 -1.4010386367e+02 -4.5995149806e+02 +5.8201672252e+02 7.5493571811e+02 0.0000000000e+00 0.0000e+00 -1.0000e+00
<mgrwt>
<rscale>  0 0.14656576E+04</rscale>
<asrwt>0</asrwt>
<pdfrwt beam="1">  1        2 0.11722180E+00 0.14656576E+04</pdfrwt>
<pdfrwt beam="2">  1       -2 0.10843512E+00 0.14656576E+04</pdfrwt>
<totfact> 0.30023527E+01</totfact>
</mgrwt>
<rwgt>
<wgt id='morphing_basis_vector_1'> +2.3599518e-04 </wgt>
<wgt id='morphing_basis_vector_2'> +1.5442927e-04 </wgt>
<wgt id='morphing_basis_vector_3'> +2.4416304e-04 </wgt>
<wgt id='morphing_basis_vector_4'> +1.6371879e-04 </wgt>
<wgt id='morphing_basis_vector_5'> +2.6094795e-04 </wgt>
</rwgt>
</event>
<event>
 4      1 +3.5234200e-07 1.43003000e+03 7.81860800e-03 8.35679500e-02
        2 -1    0    0  501    0 +0.0000000000e+00 +0.0000000000e+00 +8.7852764888e+02 8.7852764888e+02 0.0000000000e+00 0.0000e+00 1.0000e+00
       -2 -1    0    0    0  501 -0.0000000000e+00 -0.0000000000e+00 -5.8193542632e+02 5.8193542632e+02 0.0000000000e+00 0.0000e+00 -1.0000e+00
      -13  1    1    2    0    0 -1.2981714135e+02 -6.8240761416e+02 -2.4761298675e+01 6.9508687512e+02 0.0000000000e+00 0.0000e+00 -1.0000e+00
       13  1    1    2    0    0 +1.2981714135e+02 +6.8240761416e+02 +3.2135352123e+02 7.6537620008e+02 0.0000000000e+00 0.0000e+00 1.0000e+00
<mgrwt>
<rscale>  0 0.14300299E+04</rscale>
<asrwt>0</asrwt>
<pdfrwt beam="1">  1        2 0.13515810E+00 0.14300299E+04</pdfrwt>
<pdfrwt beam="2">  1       -2 0.89528527E-01 0.14300299E+04</pdfrwt>
<totfact> 0.39668959E+01</totfact>
</mgrwt>
<rwgt>
<wgt id='morphing_basis_vector_1'> +2.1765676e-04 </wgt>
<wgt id='morphing_basis_vector_2'> +1.4910420e-04 </wgt>
<wgt id='morphing_basis_vector_3'> +2.2517199e-04 </wgt>
<wgt id='morphing_basis_vector_4'> +1.4233505e-04 </wgt>
<wgt id='morphing_basis_vector_5'> +2.3517365e-04 </wgt>
</rwgt>
</event>
<event>
 4      1 +3.5234200e-07 1.35290900e+03 7.81860800e-03 8.40588200e-02
        2 -1    0    0  501    0 +0.0000000000e+00 +0.0000000000e+00 +9.9605854343e+02 9.9605854343e+02 0.0000000000e+00 0.0000e+00 -1.0000e+00
       -2 -1    0    0    0  501 -0.0000000000e+00 -0.0000000000e+00 -4.5940108577e+02 4.5940108577e+02 0.0000000000e+00 0.0000e+00 1.0000e+00
      -13  1    1    2    0    0 -5.6796161076e+02 -2.6022441528e+02 -1.0744027856e+01 6.2483003428e+02 0.0000000000e+00 0.0000e+00 1.0000e+00
       13  1    1    2    0    0 +5.6796161076e+02 +2.6022441528e+02 +5.4740148552e+02 8.3062959492e+02 0.0000000000e+00 0.0000e+00 -1.0000e+00
<mgrwt>
<rscale>  0 0.13529085E+04</rscale>
<asrwt>0</asrwt>
<pdfrwt beam="1">  1        2 0.15323978E+00 0.13529085E+04</pdfrwt>
<pdfrwt beam="2">  1       -2 0.70677090E-01 0.13529085E+04</pdfrwt>
<totfact> 0.57125090E+01</totfact>
</mgrwt>
<rwgt>
<wgt id='morphing_basis_vector_1'> +1.7476039e-04 </wgt>
<wgt id='morphing_basis_vector_2'> +1.1641922e-04 </wgt>
<wgt id='morphing_basis_vector_3'> +1.7901104e-04 </wgt>
<wgt id='morphing_basis_vector_4'> +1.1516585e-04 </wgt>
<wgt id='morphing_basis_vector_5'> +1.8678936e-04 </wgt>
</rwgt>
</event>
<event>
 4      1 +3.5234200e-07 1.42914600e+03 7.81860800e-03 8.35733900e-02
        2 -1    0    0  501    0 +0.0000000000e+00 +0.0000000000e+00 +7.4616125682e+02 7.4616125682e+02 0.0000000000e+00 0.0000e+00 1.0000e+00
       -2 -1    0    0    0  501 -0.0000000000e+00 -0.0000000000e+00 -6.8432219761e+02 6.8432219761e+02 0.0000000000e+00 0.0000e+00 -1.0000e+00
      -13  1    1    2    0    0 -2.5281660358e+02 -6.4220608685e+02 +2.1621383860e+02 7.2325190427e+02 0.0000000000e+00 0.0000e+00 1.0000e+00
       13  1    1    2    0    0 +2.5281660358e+02 +6.4220608685e+02 -1.5437477939e+02 7.0723155016e+02 0.0000000000e+00 0.0000e+00 -1.0000e+00
<mgrwt>
<rscale>  0 0.14291462E+04</rscale>
<asrwt>0</asrwt>
<pdfrwt beam="1">  1        2 0.11479404E+00 0.14291462E+04</pdfrwt>
<pdfrwt beam="2">  1       -2 0.10528034E+00 0.14291462E+04</pdfrwt>
<totfact> 0.33264993E+01</totfact>
</mgrwt>
<rwgt>
<wgt id='morphing_basis_vector_1'> +2.3290955e-04 </wgt>
<wgt id='morphing_basis_vector_2'> +1.9581973e-04 </wgt>
<wgt id='morphing_basis_vector_3'> +2.4474319e-04 </wgt>
<wgt id='morphing_basis_vector_4'> +1.1298495e-04 </wgt>
<wgt id='morphing_basis_vector_5'> +2.3245218e-04 </wgt>
</rwgt>
</event>
<event>
 4      1 +3.5234200e-07 1.42372900e+03 7.81860800e-03 8.36068300e-02
        2 -1    0    0  501    0 +0.0000000000e+00 +0.0000000000e+00 +4.3088875897e+02 4.3088875897e+02 0.0000000000e+00 0.0000e+00 -1.0000e+00
       -2 -1    0    0    0  501 -0.0000000000e+00 -0.0000000000e+00 -1.1760596069e+03 1.1760596069e+03 0.0000000000e+00 0.0000e+00 1.0000e+00
      -13  1    1    2    0    0 -5.0047120825e+00 +4.0539308288e+02 -1.0330207699e+03 1.1097299265e+03 0.0000000000e+00 0.0000e+00 1.0000e+00
       13  1    1    2    0    0 +5.0047120825e+00 -4.0539308288e+02 +2.8784992200e+02 4.9721843931e+02 0.0000000000e+00 0.0000e+00 -1.0000e+00
<mgrwt>
<rscale>  0 0.14237287E+04</rscale>
<asrwt>0</asrwt>
<pdfrwt beam="1">  1        2 0.66290579E-01 0.14237287E+04</pdfrwt>
<pdfrwt beam="2">  1       -2 0.18093224E+00 0.14237287E+04</pdfrwt>
<totfact> 0.14126627E+01</totfact>
</mgrwt>
<rwgt>
<wgt id='morphing_basis_vector_1'> +2.1097199e-04 </wgt>
<wgt id='morphing_basis_vector_2'> +1.3752451e-04 </wgt>
<wgt id='morphing_basis_vector_3'> +2.1739113e-04 </wgt>
<wgt id='morphing_basis_vector_4'> +1.4529384e-04 </wgt>
<wgt id='morphing_basis_vector_5'> +2.3129641e-04 </wgt>
</rwgt>
</event>
<event>
 4      1 +3.5234200e-07 1.51925900e+03 7.81860800e-03 8.30386500e-02
        2 -1    0    0  501    0 +0.0000000000e+00 +0.0000000000e+00 +4.0150289054e+02 4.0150289054e+02 0.0000000000e+00 0.0000e+00 1.0000e+00
       -2 -1    0    0    0  501 -0.0000000000e+00 -0.0000000000e+00 -1.4371919534e+03 1.4371919534e+03 0.0000000000e+00 0.0000e+00 -1.0000e+00
      -13  1    1    2    0    0 -1.2148209031e+02 -2.0772911906e+02 -1.3898414053e+03 1.4105206191e+03 0.0000000000e+00 0.0000e+00 -1.0000e+00
       13  1    1    2    0    0 +1.2148209031e+02 +2.0772911906e+02 +3.5415234241e+02 4.2817422482e+02 0.0000000000e+00 0.0000e+00 1.0000e+00
<mgrwt>
<rscale>  0 0.15192587E+04</rscale>
<asrwt>0</asrwt>
<pdfrwt beam="1">  1        2 0.61769676E-01 0.15192587E+04</pdfrwt>
<pdfrwt beam="2">  1       -2 0.22110645E+00 0.15192587E+04</pdfrwt>
<totfact> 0.77190390E+00</totfact>
</mgrwt>
<rwgt>
<wgt id='morphing_basis_vector_1'> +2.7085824e-04 </wgt>
<wgt id='morphing_basis_vector_2'> +1.7726681e-04 </wgt>
<wgt id='morphing_basis_vector_3'> +2.8147174e-04 </wgt>
<wgt id='morphing_basis_vector_4'> +1.9035764e-04 </wgt>
<wgt id='morphing_basis_vector_5'> +3.0289247e-04 </wgt>
</rwgt>
</event>
<event>
 4      1 +3.5234200e-07 1.40172000e+03 7.81860800e-03 8.37443100e-02
        2 -1    0    0  501    0 +0.0000000000e+00 +0.0000000000e+00 +7.1173401432e+02 7.1173401432e+02 0.0000000000e+00 0.0000e+00 1.0000e+00
       -2 -1    0    0    0  501 -0.0000000000e+00 -0.0000000000e+00 -6.9015255488e+02 6.9015255488e+02 0.0000000000e+00 0.0000e+00 -1.0000e+00
      -13  1    1    2    0    0 -6.5655650813e+02 +2.7803734706e+01 -2.3288861885e+02 6.9719194259e+02 0.0000000000e+00 0.0000e+00 -1.0000e+00
       13  1    1    2    0    0 +6.5655650813e+02 -2.7803734706e+01 +2.5447007829e+02 7.0469462661e+02 0.0000000000e+00 0.0000e+00 1.0000e+00
<mgrwt>
<rscale>  0 0.14017204E+04</rscale>
<asrwt>0</asrwt>
<pdfrwt beam="1">  1        2 0.10949754E+00 0.14017204E+04</pdfrwt>
<pdfrwt beam="2">  1       -2 0.10617732E+00 0.14017204E+04</pdfrwt>
<totfact> 0.34622241E+01</totfact>
</mgrwt>
<rwgt>
<wgt id='morphing_basis_vector_1'> +2.0046718e-04 </wgt>
<wgt id='morphing_basis_vector_2'> +1.3458912e-04 </wgt>
<wgt id='morphing_basis_vector_3'> +2.0652063e-04 </wgt>
<wgt id='morphing_basis_vector_4'> +1.3298607e-04 </wgt>
<wgt id='morphing_basis_vector_5'> +2.1653319e-04 </wgt>
</rwgt>
</event>
<event>
 4      1 +3.5234200e-07 1.53514700e+03 7.81860800e-03 8.29483600e-02
        2 -1    0    0  501    0 +0.0000000000e+00 +0.0000000000e+00 +1.0196844535e+03 1.0196844535e+03 0.0000000000e+00 0.0000e+00 1.0000e+00
       -2 -1    0    0    0  501 -0.0000000000e+00 -0.0000000000e+00 -5.7779514332e+02 5.7779514332e+02 0.0000000000e+00 0.0000e+00 -1.0000e+00
      -13  1    1    2    0    0 -6.2372407642e+02 +4.4634037269e+02 +2.5246092608e+02 8.0745772087e+02 0.0000000000e+00 0.0000e+00 -1.0000e+00
       13  1    1    2    0    0 +6.2372407642e+02 -4.4634037269e+02 +1.8942838413e+02 7.9002187597e+02 0.0000000000e+00 0.0000e+00 1.0000e+00
<mgrwt>
<rscale>  0 0.15351465E+04</rscale>
<asrwt>0</asrwt>
<pdfrwt beam="1">  1        2 0.15687453E+00 0.15351465E+04</pdfrwt>
<pdfrwt beam="2">  1       -2 0.88891561E-01 0.15351465E+04</pdfrwt>
<totfact> 0.32493180E+01</totfact>
</mgrwt>
<rwgt>
<wgt id='morphing_basis_vector_1'> +2.9376924e-04 </wgt>
<wgt id='morphing_basis_vector_2'> +2.1984225e-04 </wgt>
<wgt id='morphing_basis_vector_3'> +3.0901709e-04 </wgt>
<wgt id='morphing_basis_vector_4'> +1.7655286e-04 </wgt>
<wgt id='morphing_basis_vector_5'> +3.1456848e-04 </wgt>
</rwgt>
</event>
<event>
 4      1 +3.5234200e-07 1.36349400e+03 7.81860800e-03 8.39894500e-02
        2 -1    0    0  501    0 +0.0000000000e+00 +0.0000000000e+00 +3.8844380381e+02 3.8844380381e+02 0.0000000000e+00 0.0000e+00 -1.0000e+00
       -2 -1    0    0    0  501 -0.0000000000e+00 -0.0000000000e+00 -1.1965149592e+03 1.1965149592e+03 0.0000000000e+00 0.0000e+00 1.0000e+00
      -13  1    1    2    0    0 +3.8388337224e+02 +5.1280990592e+02 -6.7525288409e+02 9.3075609080e+02 0.0000000000e+00 0.0000e+00 1.0000e+00
       13  1    1    2    0    0 -3.8388337224e+02 -5.1280990592e+02 -1.3281827127e+02 6.5420267217e+02 0.0000000000e+00 0.0000e+00 -1.0000e+00
<mgrwt>
<rscale>  0 0.13634938E+04</rscale>
<asrwt>0</asrwt>
<pdfrwt beam="1">  1        2 0.59760586E-01 0.13634938E+04</pdfrwt>
<pdfrwt beam="2">  1       -2 0.18407922E+00 0.13634938E+04</pdfrwt>
<totfact> 0.15110460E+01</totfact>
</mgrwt>
<rwgt>
<wgt id='morphing_basis_vector_1'> +1.8033899e-04 </wgt>
<wgt id='morphing_basis_vector_2'> +1.2088042e-04 </wgt>
<wgt id='morphing_basis_vector_3'> +1.8501226e-04 </wgt>
<wgt id='morphing_basis_vector_4'> +1.1845446e-04 </wgt>
<wgt id='morphing_basis_vector_5'> +1.9293570e-04 </wgt>
</rwgt>
</event>
<event>
 4      1 +3.5234200e-07 1.39293900e+03 7.81860800e-03 8.37999000e-02
        2 -1    0    0  501    0 +0.0000000000e+00 +0.0000000000e+00 +1.0574075619e+03 1.0574075619e+03 0.0000000000e+00 0.0000e+00 1.0000e+00
       -2 -1    0    0    0  501 -0.0000000000e+00 -0.0000000000e+00 -4.5873475096e+02 4.5873475096e+02 0.0000000000e+00 0.0000e+00 -1.0000e+00
      -13  1    1    2    0    0 -6.7203084352e+02 +7.1548487317e+01 +4.8252252033e+02 8.3040509590e+02 0.0000000000e+00 0.0000e+00 -1.0000e+00
       13  1    1    2    0    0 +6.7203084352e+02 -7.1548487317e+01 +1.1615029059e+02 6.8573721693e+02 0.0000000000e+00 0.0000e+00 1.0000e+00
<mgrwt>
<rscale>  0 0.13929388E+04</rscale>
<asrwt>0</asrwt>
<pdfrwt beam="1">  1        2 0.16267809E+00 0.13929388E+04</pdfrwt>
<pdfrwt beam="2">  1       -2 0.70574577E-01 0.13929388E+04</pdfrwt>
<totfact> 0.52356692E+01</totfact>
</mgrwt>
<rwgt>
<wgt id='morphing_basis_vector_1'> +2.1008697e-04 </wgt>
<wgt id='morphing_basis_vector_2'> +1.7432814e-04 </wgt>
<wgt id='morphing_basis_vector_3'> +2.1951598e-04 </wgt>
<wgt id='morphing_basis_vector_4'> +1.0331813e-04 </wgt>
<wgt id='morphing_basis_vector_5'> +2.0903472e-04 </wgt>
</rwgt>
</event>
<event>
 4      1 +3.5234200e-07 1.47740000e+03 7.81860800e-03 8.32821300e-02
        2 -1    0    0  501    0 +0.0000000000e+00 +0.0000000000e+00 +1.5862126581e+03 1.5862126581e+03 0.0000000000e+00 0.0000e+00 1.0000e+00
       -2 -1    0    0    0  501 -0.0000000000e+00 -0.0000000000e+00 -3.4401289871e+02 3.4401289871e+02 0.0000000000e+00 0.0000e+00 -1.0000e+00
      -13  1    1    2    0    0 +4.5721381483e+02 -3.9674543571e+02 +6.7990852158e+01 6.0915857477e+02 0.0000000000e+00 0.0000e+00 -1.0000e+00
       13  1    1    2    0    0 -4.5721381483e+02 +3.9674543571e+02 +1.1742089073e+03 1.3210669821e+03 0.0000000000e+00 0.0000e+00 1.0000e+00
<mgrwt>
<rscale>  0 0.14773999E+04</rscale>
<asrwt>0</asrwt>
<pdfrwt beam="1">  1        2 0.24403271E+00 0.14773999E+04</pdfrwt>
<pdfrwt beam="2">  1       -2 0.52925062E-01 0.14773999E+04</pdfrwt>
<totfact> 0.46779789E+01</totfact>
</mgrwt>
<rwgt>
<wgt id='morphing_basis_vector_1'> +2.4388907e-04 </wgt>
<wgt id='morphing_basis_vector_2'> +1.6091893e-04 </wgt>
<wgt id='morphing_basis_vector_3'> +2.5273393e-04 </wgt>
<wgt id='morphing_basis_vector_4'> +1.6824940e-04 </wgt>
<wgt id='morphing_basis_vector_5'> +2.6966544e-04 </wgt>
</rwgt>
</event>
<event>
 4      1 +3.5234200e-07 1.29431500e+03 7.81860800e-03 8.44551600e-02
        2 -1    0    0  501    0 +0.0000000000e+00 +0.0000000000e+00 +1.2888865856e+03 1.2888865856e+03 0.0000000000e+00 0.0000e+00 1.0000e+00
       -2 -1    0    0    0  501 -0.0000000000e+00 -0.0000000000e+00 -3.2494179317e+02 3.2494179317e+02 0.0000000000e+00 0.0000e+00 -1.0000e+00
      -13  1    1    2    0    0 +2.1278707241e+02 -6.1107392779e+02 +4.9582515309e+02 8.1518848486e+02 0.0000000000e+00 0.0000e+00 -1.0000e+00
       13  1    1    2    0    0 -2.1278707241e+02 +6.1107392779e+02 +4.6811963932e+02 7.9863989389e+02 0.0000000000e+00 0.0000e+00 1.0000e+00
<mgrwt>
<rscale>  0 0.12943154E+04</rscale>
<asrwt>0</asrwt>
<pdfrwt beam="1">  1        2 0.19829024E+00 0.12943154E+04</pdfrwt>
<pdfrwt beam="2">  1       -2 0.49991046E-01 0.12943154E+04</pdfrwt>
<totfact> 0.78125684E+01</totfact>
</mgrwt>
<rwgt>
<wgt id='morphing_basis_vector_1'> +1.5205896e-04 </wgt>
<wgt id='morphing_basis_vector_2'> +1.1135811e-04 </wgt>
<wgt id='morphing_basis_vector_3'> +1.5545033e-04 </wgt>
<wgt id='morphing_basis_vector_4'> +8.7747577e-05 </wgt>
<wgt id='morphing_basis_vector_5'> +1.5461014e-04 </wgt>
</rwgt>
</event>
<event>
 4      1 +3.5234200e-07 1.41205000e+03 7.81860800e-03 8.36794600e-02
        2 -1    0    0  501    0 +0.0000000000e+00 +0.0000000000e+00 +8.1232497664e+02 8.1232497664e+02 0.0000000000e+00 0.0000e+00 1.0000e+00
       -2 -1    0    0    0  501 -0.0000000000e+00 -0.0000000000e+00 -6.1363504903e+02 6.1363504903e+02 0.0000000000e+00 0.0000e+00 -1.0000e+00
      -13  1    1    2    0    0 +1.8587988787e+02 +2.5399959866e+02 -5.3886495576e+02 6.2405333857e+02 0.0000000000e+00 0.0000e+00 -1.0000e+00
       13  1    1    2    0    0 -1.8587988787e+02 -2.5399959866e+02 +7.3755488337e+02 8.0190668710e+02 0.0000000000e+00 0.0000e+00 1.0000e+00
<mgrwt>
<rscale>  0 0.14120497E+04</rscale>
<asrwt>0</asrwt>
<pdfrwt beam="1">  1        2 0.12497307E+00 0.14120497E+04</pdfrwt>
<pdfrwt beam="2">  1       -2 0.94405393E-01 0.14120497E+04</pdfrwt>
<totfact> 0.38889686E+01</totfact>
</mgrwt>
<rwgt>
<wgt id='morphing_basis_vector_1'> +2.0434612e-04 </wgt>
<wgt id='morphing_basis_vector_2'> +1.3298673e-04 </wgt>
<wgt id='morphing_basis_vector_3'> +2.1030685e-04 </wgt>
<wgt id='morphing_basis_vector_4'> +1.4050153e-04 </wgt>
<wgt id='morphing_basis_vector_5'> +2.2350538e-04 </wgt>
</rwgt>
</event>
<event>
 4      1 +3.5234200e-07 1.35207700e+03 7.81860800e-03 8.40643000e-02
        2 -1    0    0  501    0 +0.0000000000e+00 +0.0000000000e+00 +1.3171775531e+03 1.3171775531e+03 0.0000000000e+00 0.0000e+00 -1.0000e+00
       -2 -1    0    0    0  501 -0.0000000000e+00 -0.0000000000e+00 -3.4697521521e+02 3.4697521521e+02 0.0000000000e+00 0.0000e+00 1.0000e+00
      -13  1    1    2    0    0 +5.7037041624e+02 +2.0544580807e+02 +1.1688959263e+02 6.1740875329e+02 0.0000000000e+00 0.0000e+00 1.0000e+00
       13  1    1    2    0    0 -5.7037041624e+02 -2.0544580807e+02 +8.5331274529e+02 1.0467440150e+03 0.0000000000e+00 0.0000e+00 -1.0000e+00
<mgrwt>
<rscale>  0 0.13520769E+04</rscale>
<asrwt>0</asrwt>
<pdfrwt beam="1">  1        2 0.20264270E+00 0.13520769E+04</pdfrwt>
<pdfrwt beam="2">  1       -2 0.53380803E-01 0.13520769E+04</pdfrwt>
<totfact> 0.65809922E+01</totfact>
</mgrwt>
<rwgt>
<wgt id='morphing_basis_vector_1'> +1.7401990e-04 </wgt>
<wgt id='morphing_basis_vector_2'> +1.1515324e-04 </wgt>
<wgt id='morphing_basis_vector_3'> +1.7816579e-04 </wgt>
<wgt id='morphing_basis_vector_4'> +1.1546526e-04 </wgt>
<wgt id='morphing_basis_vector_5'> +1.8635240e-04 </wgt>
</rwgt>
</event>
<event>
 4      1 +3.5234200e-07 1.52490500e+03 7.81860800e-03 8.30064400e-02
        2 -1    0    0  501    0 +0.0000000000e+00 +0.0000000000e+00 +9.9090447114e+02 9.9090447114e+02 0.0000000000e+00 0.0000e+00 -1.0000e+00
       -2 -1    0    0    0  501 -0.0000000000e+00 -0.0000000000e+00 -5.8666958076e+02 5.8666958076e+02 0.0000000000e+00 0.0000e+00 1.0000e+00
      -13  1    1    2    0    0 +2.9009027967e+02 +6.1532273696e+01 -5.2456457716e+02 6.0258326120e+02 0.0000000000e+00 0.0000e+00 1.0000e+00
       13  1    1    2    0    0 -2.9009027967e+02 -6.1532273696e+01 +9.2879946753e+02 9.7499079070e+02 0.0000000000e+00 0.0000e+00 -1.0000e+00
<mgrwt>
<rscale>  0 0.15249046E+04</rscale>
<asrwt>0</asrwt>
<pdfrwt beam="1">  1        2 0.15244684E+00 0.15249046E+04</pdfrwt>
<pdfrwt beam="2">  1       -2 0.90256858E-01 0.15249046E+04</pdfrwt>
<totfact> 0.32704169E+01</totfact>
</mgrwt>
<rwgt>
<wgt id='morphing_basis_vector_1'> +2.7477774e-04 </wgt>
<wgt id='morphing_basis_vector_2'> +1.7990815e-04 </wgt>
<wgt id='morphing_basis_vector_3'> +2.8567870e-04 </wgt>
<wgt id='morphing_basis_vector_4'> +1.9327973e-04 </wgt>
<wgt id='morphing_basis_vector_5'> +3.0757978e-04 </wgt>
</rwgt>
</event>
<event>
 4      1 +3.5234200e-07 1.39058300e+03 7.81860800e-03 8.38148800e-02
        2 -1    0    0  501    0 +0.0000000000e+00 +0.0000000000e+00 +9.0994687499e+02 9.0994687499e+02 0.0000000000e+00 0.0000e+00 1.0000e+00
       -2 -1    0    0    0  501 -0.0000000000e+00 -0.0000000000e+00 -5.3127328898e+02 5.3127328898e+02 0.0000000000e+00 0.0000e+00 -1.0000e+00
      -13  1    1    2    0    0 -7.2253542969e+01 +2.9036246735e+02 -4.6113138789e+02 5.4970273222e+02 0.0000000000e+00 0.0000e+00 -1.0000e+00
       13  1    1    2    0    0 +7.2253542969e+01 -2.9036246735e+02 +8.3980497390e+02 8.9151743174e+02 0.0000000000e+00 0.0000e+00 1.0000e+00
<mgrwt>
<rscale>  0 0.13905833E+04</rscale>
<asrwt>0</asrwt>
<pdfrwt beam="1">  1        2 0.13999183E+00 0.13905833E+04</pdfrwt>
<pdfrwt beam="2">  1       -2 0.81734352E-01 0.13905833E+04</pdfrwt>
<totfact> 0.46826676E+01</totfact>
</mgrwt>
<rwgt>
<wgt id='morphing_basis_vector_1'> +1.9267238e-04 </wgt>
<wgt id='morphing_basis_vector_2'> +1.2521297e-04 </wgt>
<wgt id='morphing_basis_vector_3'> +1.9785565e-04 </wgt>
<wgt id='morphing_basis_vector_4'> +1.3183346e-04 </wgt>
<wgt id='morphing_basis_vector_5'> +2.0968178e-04 </wgt>
</rwgt>
</event>
<event>
 4      1 +3.5234200e-07 1.32911700e+03 7.81860800e-03 8.42171700e-02
        2 -1    0    0  501    0 +0.0000000000e+00 +0.0000000000e+00 +4.8836728572e+02 4.8836728572e+02 0.0000000000e+00 0.0000e+00 -1.0000e+00
       -2 -1    0    0    0  501 -0.0000000000e+00 -0.0000000000e+00 -9.0431466618e+02 9.0431466618e+02 0.0000000000e+00 0.0000e+00 1.0000e+00
      -13  1    1    2    0    0 +4.5367154941e+02 +3.5922179681e+02 +1.3442561499e+02 5.9407778953e+02 0.0000000000e+00 0.0000e+00 1.0000e+00
       13  1    1    2    0    0 -4.5367154941e+02 -3.5922179681e+02 -5.5037299545e+02 7.9860416237e+02 0.0000000000e+00 0.0000e+00 -1.0000e+00
<mgrwt>
<rscale>  0 0.13291165E+04</rscale>
<asrwt>0</asrwt>
<pdfrwt beam="1">  1        2 0.75133428E-01 0.13291165E+04</pdfrwt>
<pdfrwt beam="2">  1       -2 0.13912533E+00 0.13291165E+04</pdfrwt>
<totfact> 0.26789502E+01</totfact>
</mgrwt>
<rwgt>
<wgt id='morphing_basis_vector_1'> +1.9094133e-04 </wgt>
<wgt id='morphing_basis_vector_2'> +1.9133889e-04 </wgt>
<wgt id='morphing_basis_vector_3'> +2.0055735e-04 </wgt>
<wgt id='morphing_basis_vector_4'> +5.7413187e-05 </wgt>
<wgt id='morphing_basis_vector_5'> +1.6990383e-04 </wgt>
</rwgt>
</event>
<event>
 4      1 +3.5234200e-07 1.38064300e+03 7.81860800e-03 8.38784600e-02
        2 -1    0    0  501    0 +0.0000000000e+00 +0.0000000000e+00 +1.6957763061e+03 1.6957763061e+03 0.0000000000e+00 0.0000e+00 -1.0000e+00
       -2 -1    0    0    0  501 -0.0000000000e+00 -0.0000000000e+00 -2.8101794064e+02 2.8101794064e+02 0.0000000000e+00 0.0000e+00 1.0000e+00
      -13  1    1    2    0    0 -3.1474191979e+01 +5.8045522977e+02 +1.2404690473e+03 1.3699205656e+03 0.0000000000e+00 0.0000e+00 1.0000e+00
       13  1    1    2    0    0 +3.1474191979e+01 -5.8045522977e+02 +1.7428931816e+02 6.0687368122e+02 0.0000000000e+00 0.0000e+00 -1.0000e+00
<mgrwt>
<rscale>  0 0.13806427E+04</rscale>
<asrwt>0</asrwt>
<pdfrwt beam="1">  1        2 0.26088866E+00 0.13806427E+04</pdfrwt>
<pdfrwt beam="2">  1       -2 0.43233530E-01 0.13806427E+04</pdfrwt>
<totfact> 0.60719794E+01</totfact>
</mgrwt>
<rwgt>
<wgt id='morphing_basis_vector_1'> +2.2537283e-04 </wgt>
<wgt id='morphing_basis_vector_2'> +2.3509387e-04 </wgt>
<wgt id='morphing_basis_vector_3'> +2.3973240e-04 </wgt>
<wgt id='morphing_basis_vector_4'> +5.9047832e-05 </wgt>
<wgt id='morphing_basis_vector_5'> +1.9852593e-04 </wgt>
</rwgt>
</event>
<event>
 4      1 +3.5234200e-07 1.43646400e+03 7.81860800e-03 8.35284600e-02
        2 -1    0    0  501    0 +0.0000000000e+00 +0.0000000000e+00 +1.6759804490e+03 1.6759804490e+03 0.0000000000e+00 0.0000e+00 1.0000e+00
       -2 -1    0    0    0  501 -0.0000000000e+00 -0.0000000000e+00 -3.0779411949e+02 3.0779411949e+02 0.0000000000e+00 0.0000e+00 -1.0000e+00
      -13  1    1    2    0    0 -5.5060970997e+02 +3.3150882370e+02 +1.1268532062e+03 1.2972537536e+03 0.0000000000e+00 0.0000e+00 1.0000e+00
       13  1    1    2    0    0 +5.5060970997e+02 -3.3150882370e+02 +2.4133312337e+02 6.8652081494e+02 0.0000000000e+00 0.0000e+00 -1.0000e+00
<mgrwt>
<rscale>  0 0.14364636E+04</rscale>
<asrwt>0</asrwt>
<pdfrwt beam="1">  1        2 0.25784314E+00 0.14364636E+04</pdfrwt>
<pdfrwt beam="2">  1       -2 0.47352943E-01 0.14364636E+04</pdfrwt>
<totfact> 0.52057132E+01</totfact>
</mgrwt>
<rwgt>
<wgt id='morphing_basis_vector_1'> +2.5261037e-04 </wgt>
<wgt id='morphing_basis_vector_2'> +2.4477113e-04 </wgt>
<wgt id='morphing_basis_vector_3'> +2.6912795e-04 </wgt>
<wgt id='morphing_basis_vector_4'> +8.7637059e-05 </wgt>
<wgt id='morphing_basis_vector_5'> +2.3540733e-04 </wgt>
</rwgt>
</event>
<event>
 4      1 +3.5234200e-07 1.30449200e+03 7.81860800e-03 8.43847600e-02
        2 -1    0    0  501    0 +0.0000000000e+00 +0.0000000000e+00 +6.1775954293e+02 6.1775954293e+02 0.0000000000e+00 0.0000e+00 1.0000e+00
       -2 -1    0    0    0  501 -0.0000000000e+00 -0.0000000000e+00 -6.8865789350e+02 6.8865789350e+02 0.0000000000e+00 0.0000e+00 -1.0000e+00
      -13  1    1    2    0    0 -2.2992598127e+02 -1.4820829907e+02 +5.5753390277e+02 6.2102794584e+02 0.0000000000e+00 0.0000e+00 1.0000e+00
       13  1    1    2    0    0 +2.2992598127e+02 +1.4820829907e+02 -6.2843225334e+02 6.8538949059e+02 0.0000000000e+00 0.0000e+00 -1.0000e+00
<mgrwt>
<rscale>  0 0.13044922E+04</rscale>
<asrwt>0</asrwt>
<pdfrwt beam="1">  1        2 0.95039930E-01 0.13044922E+04</pdfrwt>
<pdfrwt beam="2">  1       -2 0.10594737E+00 0.13044922E+04</pdfrwt>
<totfact> 0.41624902E+01</totfact>
</mgrwt>
<rwgt>
<wgt id='morphing_basis_vector_1'> +2.0528038e-04 </wgt>
<wgt id='morphing_basis_vector_2'> +2.6036992e-04 </wgt>
<wgt id='morphing_basis_vector_3'> +2.1902529e-04 </wgt>
<wgt id='morphing_basis_vector_4'> +4.2066822e-06 </wgt>
<wgt id='morphing_basis_vector_5'> +1.5367121e-04 </wgt>
</rwgt>
</event>
<event>
 4      1 +3.5234200e-07 1.36823700e+03 7.81860800e-03 8.39585800e-02
        2 -1    0    0  501    0 +0.0000000000e+00 +0.0000000000e+00 +1.4500469877e+03 1.4500469877e+03 0.0000000000e+00 0.0000e+00 -1.0000e+00
       -2 -1    0    0    0  501 -0.0000000000e+00 -0.0000000000e+00 -3.2276043863e+02 3.2276043863e+02 0.0000000000e+00 0.0000e+00 1.0000e+00
      -13  1    1    2    0    0 +4.7188842136e+02 -3.0927551652e+02 +6.2348074595e+01 5.6764188512e+02 0.0000000000e+00 0.0000e+00 1.0000e+00
       13  1    1    2    0    0 -4.7188842136e+02 +3.0927551652e+02 +1.0649384745e+03 1.2051655412e+03 0.0000000000e+00 0.0000e+00 -1.0000e+00
<mgrwt>
<rscale>  0 0.13682365E+04</rscale>
<asrwt>0</asrwt>
<pdfrwt beam="1">  1        2 0.22308415E+00 0.13682365E+04</pdfrwt>
<pdfrwt beam="2">  1       -2 0.49655453E-01 0.13682365E+04</pdfrwt>
<totfact> 0.63777416E+01</totfact>
</mgrwt>
<rwgt>
<wgt id='morphing_basis_vector_1'> +1.8160645e-04 </wgt>
<wgt id='morphing_basis_vector_2'> +1.1910591e-04 </wgt>
<wgt id='morphing_basis_vector_3'> +1.8616367e-04 </wgt>
<wgt id='morphing_basis_vector_4'> +1.2225889e-04 </wgt>
<wgt id='morphing_basis_vector_5'> +1.9590358e-04 </wgt>
</rwgt>
</event>
<event>
 4      1 +3.5234200e-07 1.47624600e+03 7.81860800e-03 8.32889600e-02
        2 -1    0    0  501    0 +0.0000000000e+00 +0.0000000000e+00 +1.4576534978e+03 1.4576534978e+03 0.0000000000e+00 0.0000e+00 1.0000e+00
       -2 -1    0    0    0  501 -0.0000000000e+00 -0.0000000000e+00 -3.7376901188e+02 3.7376901188e+02 0.0000000000e+00 0.0000e+00 -1.0000e+00
      -13  1    1    2    0    0 +7.1773369185e+02 -8.6962066605e+01 +7.2646016493e+02 1.0249138621e+03 0.0000000000e+00 0.0000e+00 1.0000e+00
       13  1    1    2    0    0 -7.1773369185e+02 +8.6962066605e+01 +3.5742432102e+02 8.0650864763e+02 0.0000000000e+00 0.0000e+00 -1.0000e+00
<mgrwt>
<rscale>  0 0.14762462E+04</rscale>
<asrwt>0</asrwt>
<pdfrwt beam="1">  1        2 0.22425438E+00 0.14762462E+04</pdfrwt>
<pdfrwt beam="2">  1       -2 0.57502926E-01 0.14762462E+04</pdfrwt>
<totfact> 0.46715210E+01</totfact>
</mgrwt>
<rwgt>
<wgt id='morphing_basis_vector_1'> +2.6017891e-04 </wgt>
<wgt id='morphing_basis_vector_2'> +2.1119361e-04 </wgt>
<wgt id='morphing_basis_vector_3'> +2.7405541e-04 </wgt>
<wgt id='morphing_basis_vector_4'> +1.3609395e-04 </wgt>
<wgt id='morphing_basis_vector_5'> +2.6645896e-04 </wgt>
</rwgt>
</event>
<event>
 4      1 +3.5234200e-07 1.38573100e+03 7.81860800e-03 8.38458500e-02
        2 -1    0    0  501    0 +0.0000000000e+00 +0.0000000000e+00 +1.7848734393e+03 1.7848734393e+03 0.0000000000e+00 0.0000e+00 1.0000e+00
       -2 -1    0    0    0  501 -0.0000000000e+00 -0.0000000000e+00 -2.6896157573e+02 2.6896157573e+02 0.0000000000e+00 0.0000e+00 -1.0000e+00
      -13  1    1    2    0    0 +5.3661553085e-01 +3.4402200721e+02 +1.6493455025e+03 1.6848418371e+03 0.0000000000e+00 0.0000e+00 1.0000e+00
       13  1    1    2    0    0 -5.3661553085e-01 -3.4402200721e+02 -1.3343363890e+02 3.6899317797e+02 0.0000000000e+00 0.0000e+00 -1.0000e+00
<mgrwt>
<rscale>  0 0.13857307E+04</rscale>
<asrwt>0</asrwt>
<pdfrwt beam="1">  1        2 0.27459591E+00 0.13857307E+04</pdfrwt>
<pdfrwt beam="2">  1       -2 0.41378705E-01 0.13857307E+04</pdfrwt>
<totfact> 0.58844595E+01</totfact>
</mgrwt>
<rwgt>
<wgt id='morphing_basis_vector_1'> +2.5711060e-04 </wgt>
<wgt id='morphing_basis_vector_2'> +3.2373414e-04 </wgt>
<wgt id='morphing_basis_vector_3'> +2.7912703e-04 </wgt>
<wgt id='morphing_basis_vector_4'> +8.0461169e-06 </wgt>
<wgt id='morphing_basis_vector_5'> +1.9783792e-04 </wgt>
</rwgt>
</event>
<event>
 4      1 +3.5234200e-07 1.44044100e+03 7.81860800e-03 8.35041500e-02
        2 -1    0    0  501    0 +0.0000000000e+00 +0.0000000000e+00 +4.0366131863e+03 4.0366131863e+03 0.0000000000e+00 0.0000e+00 -1.0000e+00
       -2 -1    0    0    0  501 -0.0000000000e+00 -0.0000000000e+00 -1.2850323125e+02 1.2850323125e+02 0.0000000000e+00 0.0000e+00 1.0000e+00
      -13  1    1    2    0    0 -5.0774639091e+02 -4.3914426980e+02 +1.1996761414e+03 1.3747279481e+03 0.0000000000e+00 0.0000e+00 1.0000e+00
       13  1    1    2    0    0 +5.0774639091e+02 +4.3914426980e+02 +2.7084338137e+03 2.7903884694e+03 0.0000000000e+00 0.0000e+00 -1.0000e+00
<mgrwt>
<rscale>  0 0.14404414E+04</rscale>
<asrwt>0</asrwt>
<pdfrwt beam="1">  1        2 0.62101732E+00 0.14404414E+04</pdfrwt>
<pdfrwt beam="2">  1       -2 0.19769731E-01 0.14404414E+04</pdfrwt>
<totfact> 0.71782216E+00</totfact>
</mgrwt>
<rwgt>
<wgt id='morphing_basis_vector_1'> +2.2247213e-04 </wgt>
<wgt id='morphing_basis_vector_2'> +1.4940105e-04 </wgt>
<wgt id='morphing_basis_vector_3'> +2.3006519e-04 </wgt>
<wgt id='morphing_basis_vector_4'> +1.4916133e-04 </wgt>
<wgt id='morphing_basis_vector_5'> +2.4255831e-04 </wgt>
</rwgt>
</event>
<event>
 4      1 +3.5234200e-07 1.30248500e+03 7.81860800e-03 8.43985900e-02
        2 -1    0    0  501    0 +0.0000000000e+00 +0.0000000000e+00 +1.7603924401e+03 1.7603924401e+03 0.0000000000e+00 0.0000e+00 1.0000e+00
       -2 -1    0    0    0  501 -0.0000000000e+00 -0.0000000000e+00 -2.4092167083e+02 2.4092167083e+02 0.0000000000e+00 0.0000e+00 -1.0000e+00
      -13  1    1    2    0    0 -6.3637242133e+02 -1.3245101265e+02 +8.2126511336e+02 1.0473726728e+03 0.0000000000e+00 0.0000e+00 1.0000e+00
       13  1    1    2    0    0 +6.3637242133e+02 +1.3245101265e+02 +6.9820565591e+02 9.5394143810e+02 0.0000000000e+00 0.0000e+00 -1.0000e+00
<mgrwt>
<rscale>  0 0.13024848E+04</rscale>
<asrwt>0</asrwt>
<pdfrwt beam="1">  1        2 0.27082960E+00 0.13024848E+04</pdfrwt>
<pdfrwt beam="2">  1       -2 0.37064874E-01 0.13024848E+04</pdfrwt>
<totfact> 0.75022121E+01</totfact>
</mgrwt>
<rwgt>
<wgt id='morphing_basis_vector_1'> +1.5673760e-04 </wgt>
<wgt id='morphing_basis_vector_2'> +1.1707197e-04 </wgt>
<wgt id='morphing_basis_vector_3'> +1.6060166e-04 </wgt>
<wgt id='morphing_basis_vector_4'> +8.8335293e-05 </wgt>
<wgt id='morphing_basis_vector_5'> +1.5862149e-04 </wgt>
</rwgt>
</event>
<event>
 4      1 +3.5234200e-07 1.32032000e+03 7.81860800e-03 8.42766000e-02
        2 -1    0    0  501    0 +0.0000000000e+00 +0.0000000000e+00 +1.2720845804e+03 1.2720845804e+03 0.0000000000e+00 0.0000e+00 -1.0000e+00
       -2 -1    0    0    0  501 -0.0000000000e+00 -0.0000000000e+00 -3.4259615810e+02 3.4259615810e+02 0.0000000000e+00 0.0000e+00 1.0000e+00
      -13  1    1    2    0    0 -6.2576654296e+02 +4.9756944962e+01 +7.1463190963e+02 9.5118782904e+02 0.0000000000e+00 0.0000e+00 1.0000e+00
       13  1    1    2    0    0 +6.2576654296e+02 -4.9756944962e+01 +2.1485651268e+02 6.6349290946e+02 0.0000000000e+00 0.0000e+00 -1.0000e+00
<mgrwt>
<rscale>  0 0.13203201E+04</rscale>
<asrwt>0</asrwt>
<pdfrwt beam="1">  1        2 0.19570532E+00 0.13203201E+04</pdfrwt>
<pdfrwt beam="2">  1       -2 0.52707102E-01 0.13203201E+04</pdfrwt>
<totfact> 0.71812944E+01</totfact>
</mgrwt>
<rwgt>
<wgt id='morphing_basis_vector_1'> +1.7436169e-04 </wgt>
<wgt id='morphing_basis_vector_2'> +1.5119058e-04 </wgt>
<wgt id='morphing_basis_vector_3'> +1.8086780e-04 </wgt>
<wgt id='morphing_basis_vector_4'> +7.6931151e-05 </wgt>
<wgt id='morphing_basis_vector_5'> +1.6674865e-04 </wgt>
</rwgt>
</event>
<event>
 4      1 +3.5234200e-07 1.33877600e+03 7.81860800e-03 8.41524700e-02
        2 -1    0    0  501    0 +0.0000000000e+00 +0.0000000000e+00 +4.9325943290e+02 4.9325943290e+02 0.0000000000e+00 0.0000e+00 -1.0000e+00
       -2 -1    0    0    0  501 -0.0000000000e+00 -0.0000000000e+00 -9.0840639102e+02 9.0840639102e+02 0.0000000000e+00 0.0000e+00 1.0000e+00
      -13  1    1    2    0    0 -5.1856534962e+02 +5.6105970695e+01 -6.4683212809e+02 8.3093303202e+02 0.0000000000e+00 0.0000e+00 1.0000e+00
       13  1    1    2    0    0 +5.1856534962e+02 -5.6105970695e+01 +2.3168516998e+02 5.7073279191e+02 0.0000000000e+00 0.0000e+00 -1.0000e+00
<mgrwt>
<rscale>  0 0.13387756E+04</rscale>
<asrwt>0</asrwt>
<pdfrwt beam="1">  1        2 0.75886067E-01 0.13387756E+04</pdfrwt>
<pdfrwt beam="2">  1       -2 0.13975483E+00 0.13387756E+04</pdfrwt>
<totfact> 0.26137778E+01</totfact>
</mgrwt>
<rwgt>
<wgt id='morphing_basis_vector_1'> +1.6692746e-04 </wgt>
<wgt id='morphing_basis_vector_2'> +1.0888456e-04 </wgt>
<wgt id='morphing_basis_vector_3'> +1.7050770e-04 </wgt>
<wgt id='morphing_basis_vector_4'> +1.1193637e-04 </wgt>
<wgt id='morphing_basis_vector_5'> +1.7888531e-04 </wgt>
</rwgt>
</event>
<event>
 4      1 +3.5234200e-07 1.30489500e+03 7.81860800e-03 8.43819900e-02
        2 -1    0    0  501    0 +0.0000000000e+00 +0.0000000000e+00 +2.0207767999e+03 2.0207767999e+03 0.0000000000e+00 0.0000e+00 -1.0000e+00
       -2 -1    0    0    0  501 -0.0000000000e+00 -0.0000000000e+00 -2.1065564132e+02 2.1065564132e+02 0.0000000000e+00 0.0000e+00 1.0000e+00
      -13  1    1    2    0    0 -4.5374715893e+02 +1.2314847480e+02 +1.3149159751e+02 4.8820289972e+02 0.0000000000e+00 0.0000e+00 1.0000e+00
       13  1    1    2    0    0 +4.5374715893e+02 -1.2314847480e+02 +1.6786295611e+03 1.7432295416e+03 0.0000000000e+00 0.0000e+00 -1.0000e+00
<mgrwt>
<rscale>  0 0.13048954E+04</rscale>
<asrwt>0</asrwt>
<pdfrwt beam="1">  1        2 0.31088873E+00 0.13048954E+04</pdfrwt>
<pdfrwt beam="2">  1       -2 0.32408562E-01 0.13048954E+04</pdfrwt>
<totfact> 0.68540956E+01</totfact>
</mgrwt>
<rwgt>
<wgt id='morphing_basis_vector_1'> +1.5123917e-04 </wgt>
<wgt id='morphing_basis_vector_2'> +9.8130094e-05 </wgt>
<wgt id='morphing_basis_vector_3'> +1.5382442e-04 </wgt>
<wgt id='morphing_basis_vector_4'> +1.0077584e-04 </wgt>
<wgt id='morphing_basis_vector_5'> +1.6068575e-04 </wgt>
</rwgt>
</event>
<event>
 4      1 +3.5234200e-07 1.34978000e+03 7.81860800e-03 8.40794500e-02
        2 -1    0    0  501    0 +0.0000000000e+00 +0.0000000000e+00 +2.5760487950e+03 2.5760487950e+03 0.0000000000e+00 0.0000e+00 -1.0000e+00
       -2 -1    0    0    0  501 -0.0000000000e+00 -0.0000000000e+00 -1.7681203382e+02 1.7681203382e+02 0.0000000000e+00 0.0000e+00 1.0000e+00
      -13  1    1    2    0    0 +2.4397209338e+02 -5.8300398543e+02 +7.1672706659e+02 9.5556983908e+02 0.0000000000e+00 0.0000e+00 1.0000e+00
       13  1    1    2    0    0 -2.4397209338e+02 +5.8300398543e+02 +1.6825096946e+03 1.7972909897e+03 0.0000000000e+00 0.0000e+00 -1.0000e+00
<mgrwt>
<rscale>  0 0.13497799E+04</rscale>
<asrwt>0</asrwt>
<pdfrwt beam="1">  1        2 0.39631517E+00 0.13497799E+04</pdfrwt>
<pdfrwt beam="2">  1       -2 0.27201853E-01 0.13497799E+04</pdfrwt>
<totfact> 0.44486644E+01</totfact>
</mgrwt>
<rwgt>
<wgt id='morphing_basis_vector_1'> +1.7343208e-04 </wgt>
<wgt id='morphing_basis_vector_2'> +1.1600657e-04 </wgt>
<wgt id='morphing_basis_vector_3'> +1.7763020e-04 </wgt>
<wgt id='morphing_basis_vector_4'> +1.1367444e-04 </wgt>
<wgt id='morphing_basis_vector_5'> +1.8496263e-04 </wgt>
</rwgt>
</event>
<event>
 4      1 +3.5234200e-07 1.39922600e+03 7.81860800e-03 8.37600500e-02
        2 -1    0    0  501    0 +0.0000000000e+00 +0.0000000000e+00 +1.4852251082e+03 1.4852251082e+03 0.0000000000e+00 0.0000e+00 1.0000e+00
       -2 -1    0    0    0  501 -0.0000000000e+00 -0.0000000000e+00 -3.2955175663e+02 3.2955175663e+02 0.0000000000e+00 0.0000e+00 -1.0000e+00
      -13  1    1    2    0    0 +9.4760777031e+01 -3.0167493982e+02 -2.3158147491e+02 3.9194049765e+02 0.0000000000e+00 0.0000e+00 -1.0000e+00
       13  1    1    2    0    0 -9.4760777031e+01 +3.0167493982e+02 +1.3872548265e+03 1.4228363672e+03 0.0000000000e+00 0.0000e+00 1.0000e+00
<mgrwt>
<rscale>  0 0.13992263E+04</rscale>
<asrwt>0</asrwt>
<pdfrwt beam="1">  1        2 0.22849617E+00 0.13992263E+04</pdfrwt>
<pdfrwt beam="2">  1       -2 0.50700271E-01 0.13992263E+04</pdfrwt>
<totfact> 0.58361094E+01</totfact>
</mgrwt>
<rwgt>
<wgt id='morphing_basis_vector_1'> +1.9731347e-04 </wgt>
<wgt id='morphing_basis_vector_2'> +1.2831126e-04 </wgt>
<wgt id='morphing_basis_vector_3'> +2.0280480e-04 </wgt>
<wgt id='morphing_basis_vector_4'> +1.3526771e-04 </wgt>
<wgt id='morphing_basis_vector_5'> +2.1516863e-04 </wgt>
</rwgt>
</event>
<event>
 4      1 +3.5234200e-07 1.35073500e+03 7.81860800e-03 8.40731400e-02
        2 -1    0    0  501    0 +0.0000000000e+00 +0.0000000000e+00 +1.1650268803e+03 1.1650268803e+03 0.0000000000e+00 0.0000e+00 1.0000e+00
       -2 -1    0    0    0  501 -0.0000000000e+00 -0.0000000000e+00 -3.9151143988e+02 3.9151143988e+02 0.0000000000e+00 0.0000e+00 -1.0000e+00
      -13  1    1    2    0    0 -3.5448735365e+02 +1.7468367756e+02 -2.4436080182e+02 4.6463735598e+02 0.0000000000e+00 0.0000e+00 -1.0000e+00
       13  1    1    2    0    0 +3.5448735365e+02 -1.7468367756e+02 +1.0178762422e+03 1.0919009642e+03 0.0000000000e+00 0.0000e+00 1.0000e+00
<mgrwt>
<rscale>  0 0.13507351E+04</rscale>
<asrwt>0</asrwt>
<pdfrwt beam="1">  1        2 0.17923490E+00 0.13507351E+04</pdfrwt>
<pdfrwt beam="2">  1       -2 0.60232530E-01 0.13507351E+04</pdfrwt>
<totfact> 0.63142604E+01</totfact>
</mgrwt>
<rwgt>
<wgt id='morphing_basis_vector_1'> +1.7241747e-04 </wgt>
<wgt id='morphing_basis_vector_2'> +1.1188757e-04 </wgt>
<wgt id='morphing_basis_vector_3'> +1.7629934e-04 </wgt>
<wgt id='morphing_basis_vector_4'> +1.1668672e-04 </wgt>
<wgt id='morphing_basis_vector_5'> +1.8570209e-04 </wgt>
</rwgt>
</event>
<event>
 4      1 +3.5234200e-07 1.32358600e+03 7.81860800e-03 8.42544800e-02
        2 -1    0    0  501    0 +0.0000000000e+00 +0.0000000000e+00 +2.5604937747e+03 2.5604937747e+03 0.0000000000e+00 0.0000e+00 -1.0000e+00
       -2 -1    0    0    0  501 -0.0000000000e+00 -0.0000000000e+00 -1.7104905596e+02 1.7104905596e+02 0.0000000000e+00 0.0000e+00 1.0000e+00
      -13  1    1    2    0    0 -6.3577044678e+01 -6.5868584913e+02 +1.2108347009e+03 1.3798658491e+03 0.0000000000e+00 0.0000e+00 1.0000e+00
       13  1    1    2    0    0 +6.3577044678e+01 +6.5868584913e+02 +1.1786100178e+03 1.3516769816e+03 0.0000000000e+00 0.0000e+00 -1.0000e+00
<mgrwt>
<rscale>  0 0.13235861E+04</rscale>
<asrwt>0</asrwt>
<pdfrwt beam="1">  1        2 0.39392209E+00 0.13235861E+04</pdfrwt>
<pdfrwt beam="2">  1       -2 0.26315241E-01 0.13235861E+04</pdfrwt>
<totfact> 0.48264238E+01</totfact>
</mgrwt>
<rwgt>
<wgt id='morphing_basis_vector_1'> +1.6549348e-04 </wgt>
<wgt id='morphing_basis_vector_2'> +1.2115453e-04 </wgt>
<wgt id='morphing_basis_vector_3'> +1.6986538e-04 </wgt>
<wgt id='morphing_basis_vector_4'> +9.6548381e-05 </wgt>
<wgt id='morphing_basis_vector_5'> +1.6981770e-04 </wgt>
</rwgt>
</event>
<event>
 4      1 +3.5234200e-07 1.34956600e+03 7.81860800e-03 8.40808600e-02
        2 -1    0    0  501    0 +0.0000000000e+00 +0.0000000000e+00 +8.6134973220e+02 8.6134973220e+02 0.0000000000e+00 0.0000e+00 1.0000e+00
       -2 -1    0    0    0  501 -0.0000000000e+00 -0.0000000000e+00 -5.2862664636e+02 5.2862664636e+02 0.0000000000e+00 0.0000e+00 -1.0000e+00
      -13  1    1    2    0    0 +2.7774335392e+02 -3.8935788675e+02 -3.2390801853e+02 5.7763079825e+02 0.0000000000e+00 0.0000e+00 -1.0000e+00
       13  1    1    2    0    0 -2.7774335392e+02 +3.8935788675e+02 +6.5663110437e+02 8.1234558031e+02 0.0000000000e+00 0.0000e+00 1.0000e+00
<mgrwt>
<rscale>  0 0.13495665E+04</rscale>
<asrwt>0</asrwt>
<pdfrwt beam="1">  1        2 0.13251534E+00 0.13495665E+04</pdfrwt>
<pdfrwt beam="2">  1       -2 0.81327176E-01 0.13495665E+04</pdfrwt>
<totfact> 0.51153260E+01</totfact>
</mgrwt>
<rwgt>
<wgt id='morphing_basis_vector_1'> +1.7197739e-04 </wgt>
<wgt id='morphing_basis_vector_2'> +1.1189769e-04 </wgt>
<wgt id='morphing_basis_vector_3'> +1.7585339e-04 </wgt>
<wgt id='morphing_basis_vector_4'> +1.1603163e-04 </wgt>
<wgt id='morphing_basis_vector_5'> +1.8501444e-04 </wgt>
</rwgt>
</event>
<event>
 4      1 +3.5234200e-07 1.34265500e+03 7.81860800e-03 8.41266500e-02
        2 -1    0    0  501    0 +0.0000000000e+00 +0.0000000000e+00 +3.0766787537e+03 3.0766787537e+03 0.0000000000e+00 0.0000e+00 -1.0000e+00
       -2 -1    0    0    0  501 -0.0000000000e+00 -0.0000000000e+00 -1.4648275147e+02 1.4648275147e+02 0.0000000000e+00 0.0000e+00 1.0000e+00
      -13  1    1    2    0    0 +3.9616047389e+02 -4.2568611644e+02 +2.2703821813e+03 2.3436695671e+03 0.0000000000e+00 0.0000e+00 1.0000e+00
       13  1    1    2    0    0 -3.9616047389e+02 +4.2568611644e+02 +6.5981382102e+02 8.7949193811e+02 0.0000000000e+00 0.0000e+00 -1.0000e+00
<mgrwt>
<rscale>  0 0.13426546E+04</rscale>
<asrwt>0</asrwt>
<pdfrwt beam="1">  1        2 0.47333515E+00 0.13426546E+04</pdfrwt>
<pdfrwt beam="2">  1       -2 0.22535810E-01 0.13426546E+04</pdfrwt>
<totfact> 0.29918941E+01</totfact>
</mgrwt>
<rwgt>
<wgt id='morphing_basis_vector_1'> +1.9914839e-04 </wgt>
<wgt id='morphing_basis_vector_2'> +2.0095672e-04 </wgt>
<wgt id='morphing_basis_vector_3'> +2.0981258e-04 </wgt>
<wgt id='morphing_basis_vector_4'> +5.8689127e-05 </wgt>
<wgt id='morphing_basis_vector_5'> +1.7716415e-04 </wgt>
</rwgt>
</event>
<event>
 4      1 +3.5234200e-07 1.48173100e+03 7.81860800e-03 8.32565500e-02
        2 -1    0    0  501    0 +0.0000000000e+00 +0.0000000000e+00 +5.2958789474e+02 5.2958789474e+02 0.0000000000e+00 0.0000e+00 -1.0000e+00
       -2 -1    0    0    0  501 -0.0000000000e+00 -0.0000000000e+00 -1.0364312447e+03 1.0364312447e+03 0.0000000000e+00 0.0000e+00 1.0000e+00
      -13  1    1    2    0    0 -1.4388870324e+02 -2.0418097532e+02 +4.8374159744e+02 5.4442608561e+02 0.0000000000e+00 0.0000e+00 -1.0000e+00
       13  1    1    2    0    0 +1.4388870324e+02 +2.0418097532e+02 -9.9058494745e+02 1.0215930539e+03 0.0000000000e+00 0.0000e+00 1.0000e+00
<mgrwt>
<rscale>  0 0.14817307E+04</rscale>
<asrwt>0</asrwt>
<pdfrwt beam="1">  1        2 0.81475061E-01 0.14817307E+04</pdfrwt>
<pdfrwt beam="2">  1       -2 0.15945096E+00 0.14817307E+04</pdfrwt>
<totfact> 0.16345372E+01</totfact>
</mgrwt>
<rwgt>
<wgt id='morphing_basis_vector_1'> +3.3593878e-04 </wgt>
<wgt id='morphing_basis_vector_2'> +4.2902168e-04 </wgt>
<wgt id='morphing_basis_vector_3'> +3.7186951e-04 </wgt>
<wgt id='morphing_basis_vector_4'> +4.3186177e-06 </wgt>
<wgt id='morphing_basis_vector_5'> +2.6069401e-04 </wgt>
</rwgt>
</event>
<event>
 4      1 +3.5234200e-07 1.48683300e+03 7.81860800e-03 8.32265400e-02
        2 -1    0    0  501    0 +0.0000000000e+00 +0.0000000000e+00 +8.7220057488e+02 8.7220057488e+02 0.0000000000e+00 0.0000e+00 -1.0000e+00
       -2 -1    0    0    0  501 -0.0000000000e+00 -0.0000000000e+00 -6.3364785194e+02 6.3364785194e+02 0.0000000000e+00 0.0000e+00 1.0000e+00
      -13  1    1    2    0    0 +1.1777134732e+02 +7.2107824066e+02 +2.5830581371e+02 7.7494890980e+02 0.0000000000e+00 0.0000e+00 1.0000e+00
       13  1    1    2    0    0 -1.1777134732e+02 -7.2107824066e+02 -1.9753090772e+01 7.3089951703e+02 0.0000000000e+00 0.0000e+00 -1.0000e+00
<mgrwt>
<rscale>  0 0.14868329E+04</rscale>
<asrwt>0</asrwt>
<pdfrwt beam="1">  1        2 0.13418470E+00 0.14868329E+04</pdfrwt>
<pdfrwt beam="2">  1       -2 0.97484285E-01 0.14868329E+04</pdfrwt>
<totfact> 0.32623969E+01</totfact>
</mgrwt>
<rwgt>
<wgt id='morphing_basis_vector_1'> +2.6644736e-04 </wgt>
<wgt id='morphing_basis_vector_2'> +2.1419630e-04 </wgt>
<wgt id='morphing_basis_vector_3'> +2.8073476e-04 </wgt>
<wgt id='morphing_basis_vector_4'> +1.4203779e-04 </wgt>
<wgt id='morphing_basis_vector_5'> +2.7460987e-04 </wgt>
</rwgt>
</event>
<event>
 4      1 +3.5234200e-07 1.33488800e+03 7.81860800e-03 8.41784400e-02
        2 -1    0    0  501    0 +0.0000000000e+00 +0.0000000000e+00 +9.1004969233e+02 9.1004969233e+02 0.0000000000e+00 0.0000e+00 -1.0000e+00
       -2 -1    0    0    0  501 -0.0000000000e+00 -0.0000000000e+00 -4.8951368643e+02 4.8951368643e+02 0.0000000000e+00 0.0000e+00 1.0000e+00
      -13  1    1    2    0    0 +4.1552938610e+02 +2.2698676961e+02 -2.8294274740e+02 5.5158341400e+02 0.0000000000e+00 0.0000e+00 1.0000e+00
       13  1    1    2    0    0 -4.1552938610e+02 -2.2698676961e+02 +7.0347875330e+02 8.4797996476e+02 0.0000000000e+00 0.0000e+00 -1.0000e+00
<mgrwt>
<rscale>  0 0.13348884E+04</rscale>
<asrwt>0</asrwt>
<pdfrwt beam="1">  1        2 0.14000764E+00 0.13348884E+04</pdfrwt>
<pdfrwt beam="2">  1       -2 0.75309798E-01 0.13348884E+04</pdfrwt>
<totfact> 0.56523051E+01</totfact>
</mgrwt>
<rwgt>
<wgt id='morphing_basis_vector_1'> +1.6493323e-04 </wgt>
<wgt id='morphing_basis_vector_2'> +1.0720666e-04 </wgt>
<wgt id='morphing_basis_vector_3'> +1.6836319e-04 </wgt>
<wgt id='morphing_basis_vector_4'> +1.1085214e-04 </wgt>
<wgt id='morphing_basis_vector_5'> +1.7674065e-04 </wgt>
</rwgt>
</event>
<event>
 4      1 +3.5234200e-07 1.36757100e+03 7.81860800e-03 8.39629100e-02
        2 -1    0    0  501    0 +0.0000000000e+00 +0.0000000000e+00 +1.0475546744e+03 1.0475546744e+03 0.0000000000e+00 0.0000e+00 -1.0000e+00
       -2 -1    0    0    0  501 -0.0000000000e+00 -0.0000000000e+00 -4.4633698304e+02 4.4633698304e+02 0.0000000000e+00 0.0000e+00 1.0000e+00
      -13  1    1    2    0    0 +5.2790964257e+02 +9.5421680364e+01 +7.6376359680e+02 9.3334276640e+02 0.0000000000e+00 0.0000e+00 1.0000e+00
       13  1    1    2    0    0 -5.2790964257e+02 -9.5421680364e+01 -1.6254590549e+02 5.6054889099e+02 0.0000000000e+00 0.0000e+00 -1.0000e+00
<mgrwt>
<rscale>  0 0.13675707E+04</rscale>
<asrwt>0</asrwt>
<pdfrwt beam="1">  1        2 0.16116226E+00 0.13675707E+04</pdfrwt>
<pdfrwt beam="2">  1       -2 0.68667228E-01 0.13675707E+04</pdfrwt>
<totfact> 0.56405240E+01</totfact>
</mgrwt>
<rwgt>
<wgt id='morphing_basis_vector_1'> +2.2500107e-04 </wgt>
<wgt id='morphing_basis_vector_2'> +2.4962191e-04 </wgt>
<wgt id='morphing_basis_vector_3'> +2.4019557e-04 </wgt>
<wgt id='morphing_basis_vector_4'> +4.2829670e-05 </wgt>
<wgt id='morphing_basis_vector_5'> +1.8981095e-04 </wgt>
</rwgt>
</event>
<event>
 4      1 +3.5234200e-07 1.48821000e+03 7.81860800e-03 8.32184600e-02
        2 -1    0    0  501    0 +0.0000000000e+00 +0.0000000000e+00 +2.3519473138e+03 2.3519473138e+03 0.0000000000e+00 0.0000e+00 1.0000e+00
       -2 -1    0    0    0  501 -0.0000000000e+00 -0.0000000000e+00 -2.3541860779e+02 2.3541860779e+02 0.0000000000e+00 0.0000e+00 -1.0000e+00
      -13  1    1    2    0    0 -3.2549833923e+02 +6.0594224547e+02 +1.5517780222e+03 1.6973892317e+03 0.0000000000e+00 0.0000e+00 -1.0000e+00
       13  1    1    2    0    0 +3.2549833923e+02 -6.0594224547e+02 +5.6475068378e+02 8.8997668987e+02 0.0000000000e+00 0.0000e+00 1.0000e+00
<mgrwt>
<rscale>  0 0.14882099E+04</rscale>
<asrwt>0</asrwt>
<pdfrwt beam="1">  1        2 0.36183803E+00 0.14882099E+04</pdfrwt>
<pdfrwt beam="2">  1       -2 0.36218249E-01 0.14882099E+04</pdfrwt>
<totfact> 0.35718845E+01</totfact>
</mgrwt>
<rwgt>
<wgt id='morphing_basis_vector_1'> +2.8266092e-04 </wgt>
<wgt id='morphing_basis_vector_2'> +2.6047439e-04 </wgt>
<wgt id='morphing_basis_vector_3'> +3.0168091e-04 </wgt>
<wgt id='morphing_basis_vector_4'> +1.1417452e-04 </wgt>
<wgt id='morphing_basis_vector_5'> +2.7356339e-04 </wgt>
</rwgt>
</event>
<event>
 4      1 +3.5234200e-07 1.36575100e+03 7.81860800e-03 8.39747400e-02
        2 -1    0    0  501    0 +0.0000000000e+00 +0.0000000000e+00 +9.8755640068e+02 9.8755640068e+02 0.0000000000e+00 0.0000e+00 1.0000e+00
       -2 -1    0    0    0  501 -0.0000000000e+00 -0.0000000000e+00 -4.7219477972e+02 4.7219477972e+02 0.0000000000e+00 0.0000e+00 -1.0000e+00
      -13  1    1    2    0    0 -3.7203823456e+02 -1.1209174052e+02 -3.4252221932e+02 5.1797536330e+02 0.0000000000e+00 0.0000e+00 -1.0000e+00
       13  1    1    2    0    0 +3.7203823456e+02 +1.1209174052e+02 +8.5788384027e+02 9.4177581709e+02 0.0000000000e+00 0.0000e+00 1.0000e+00
<mgrwt>
<rscale>  0 0.13657510E+04</rscale>
<asrwt>0</asrwt>
<pdfrwt beam="1">  1        2 0.15193175E+00 0.13657510E+04</pdfrwt>
<pdfrwt beam="2">  1       -2 0.72645351E-01 0.13657510E+04</pdfrwt>
<totfact> 0.54442211E+01</totfact>
</mgrwt>
<rwgt>
<wgt id='morphing_basis_vector_1'> +1.7986244e-04 </wgt>
<wgt id='morphing_basis_vector_2'> +1.1681451e-04 </wgt>
<wgt id='morphing_basis_vector_3'> +1.8421960e-04 </wgt>
<wgt id='morphing_basis_vector_4'> +1.2221076e-04 </wgt>
<wgt id='morphing_basis_vector_5'> +1.9448444e-04 </wgt>
</rwgt>
</event>
<event>
 4      1 +3.5234200e-07 1.50942400e+03 7.81860800e-03 8.30951200e-02
        2 -1    0    0  501    0 +0.0000000000e+00 +0.0000000000e+00 +1.7748461231e+03 1.7748461231e+03 0.0000000000e+00 0.0000e+00 1.0000e+00
       -2 -1    0    0    0  501 -0.0000000000e+00 -0.0000000000e+00 -3.2092359239e+02 3.2092359239e+02 0.0000000000e+00 0.0000e+00 -1.0000e+00
      -13  1    1    2    0    0 +6.1115603644e+02 -2.6284960038e+02 +1.2217438231e+03 1.3911360762e+03 0.0000000000e+00 0.0000e+00 1.0000e+00
       13  1    1    2    0    0 -6.1115603644e+02 +2.6284960038e+02 +2.3217870759e+02 7.0463363924e+02 0.0000000000e+00 0.0000e+00 -1.0000e+00
<mgrwt>
<rscale>  0 0.15094237E+04</rscale>
<asrwt>0</asrwt>
<pdfrwt beam="1">  1        2 0.27305324E+00 0.15094237E+04</pdfrwt>
<pdfrwt beam="2">  1       -2 0.49372861E-01 0.15094237E+04</pdfrwt>
<totfact> 0.42035924E+01</totfact>
</mgrwt>
<rwgt>
<wgt id='morphing_basis_vector_1'> +3.0893753e-04 </wgt>
<wgt id='morphing_basis_vector_2'> +3.0627221e-04 </wgt>
<wgt id='morphing_basis_vector_3'> +3.3309778e-04 </wgt>
<wgt id='morphing_basis_vector_4'> +1.0158867e-04 </wgt>
<wgt id='morphing_basis_vector_5'> +2.8862973e-04 </wgt>
</rwgt>
</event>
<event>
 4      1 +3.5234200e-07 1.34842900e+03 7.81860800e-03 8.40883700e-02
        2 -1    0    0  501    0 +0.0000000000e+00 +0.0000000000e+00 +2.8779224051e+03 2.8779224051e+03 0.0000000000e+00 0.0000e+00 -1.0000e+00
       -2 -1    0    0    0  501 -0.0000000000e+00 -0.0000000000e+00 -1.5794901237e+02 1.5794901237e+02 0.0000000000e+00 0.0000e+00 1.0000e+00
      -13  1    1    2    0    0 +4.9961565877e+02 -1.5748968396e+02 +2.3155686213e+03 2.3740844229e+03 0.0000000000e+00 0.0000e+00 1.0000e+00
       13  1    1    2    0    0 -4.9961565877e+02 +1.5748968396e+02 +4.0440477145e+02 6.6178699460e+02 0.0000000000e+00 0.0000e+00 -1.0000e+00
<mgrwt>
<rscale>  0 0.13484287E+04</rscale>
<asrwt>0</asrwt>
<pdfrwt beam="1">  1        2 0.44275725E+00 0.13484287E+04</pdfrwt>
<pdfrwt beam="2">  1       -2 0.24299850E-01 0.13484287E+04</pdfrwt>
<totfact> 0.35284535E+01</totfact>
</mgrwt>
<rwgt>
<wgt id='morphing_basis_vector_1'> +2.1403191e-04 </wgt>
<wgt id='morphing_basis_vector_2'> +2.3897106e-04 </wgt>
<wgt id='morphing_basis_vector_3'> +2.2779181e-04 </wgt>
<wgt id='morphing_basis_vector_4'> +3.8872352e-05 </wgt>
<wgt id='morphing_basis_vector_5'> +1.7887270e-04 </wgt>
</rwgt>
</event>
<event>
 4      1 +3.5234200e-07 1.53842500e+03 7.81860800e-03 8.29298700e-02
        2 -1    0    0  501    0 +0.0000000000e+00 +0.0000000000e+00 +3.3908648005e+03 3.3908648005e+03 0.0000000000e+00 0.0000e+00 -1.0000e+00
       -2 -1    0    0    0  501 -0.0000000000e+00 -0.0000000000e+00 -1.7449462619e+02 1.7449462619e+02 0.0000000000e+00 0.0000e+00 1.0000e+00
      -13  1    1    2    0    0 +1.0162070892e+02 +6.3689185025e+02 +6.3666982771e+02 9.0625960238e+02 0.0000000000e+00 0.0000e+00 1.0000e+00
       13  1    1    2    0    0 -1.0162070892e+02 -6.3689185025e+02 +2.5797003466e+03 2.6590998243e+03 0.0000000000e+00 0.0000e+00 -1.0000e+00
<mgrwt>
<rscale>  0 0.15384248E+04</rscale>
<asrwt>0</asrwt>
<pdfrwt beam="1">  1        2 0.52167146E+00 0.15384248E+04</pdfrwt>
<pdfrwt beam="2">  1       -2 0.26845330E-01 0.15384248E+04</pdfrwt>
<totfact> 0.13284195E+01</totfact>
</mgrwt>
<rwgt>
<wgt id='morphing_basis_vector_1'> +2.8527840e-04 </wgt>
<wgt id='morphing_basis_vector_2'> +1.8915339e-04 </wgt>
<wgt id='morphing_basis_vector_3'> +2.9719081e-04 </wgt>
<wgt id='morphing_basis_vector_4'> +1.9864588e-04 </wgt>
<wgt id='morphing_basis_vector_5'> +3.1889084e-04 </wgt>
</rwgt>
</event>
<event>
 4      1 +3.5234200e-07 1.39595100e+03 7.81860800e-03 8.37807800e-02
        2 -1    0    0  501    0 +0.0000000000e+00 +0.0000000000e+00 +2.3570422014e+03 2.3570422014e+03 0.0000000000e+00 0.0000e+00 -1.0000e+00
       -2 -1    0    0    0  501 -0.0000000000e+00 -0.0000000000e+00 -2.0668678768e+02 2.0668678768e+02 0.0000000000e+00 0.0000e+00 1.0000e+00
      -13  1    1    2    0    0 -6.8507891866e+02 -4.8006072726e+01 +1.3040602140e+03 1.4738421726e+03 0.0000000000e+00 0.0000e+00 1.0000e+00
       13  1    1    2    0    0 +6.8507891866e+02 +4.8006072726e+01 +8.4629519972e+02 1.0898868165e+03 0.0000000000e+00 0.0000e+00 -1.0000e+00
<mgrwt>
<rscale>  0 0.13959505E+04</rscale>
<asrwt>0</asrwt>
<pdfrwt beam="1">  1        2 0.36262186E+00 0.13959505E+04</pdfrwt>
<pdfrwt beam="2">  1       -2 0.31797969E-01 0.13959505E+04</pdfrwt>
<totfact> 0.45266790E+01</totfact>
</mgrwt>
<rwgt>
<wgt id='morphing_basis_vector_1'> +2.0874360e-04 </wgt>
<wgt id='morphing_basis_vector_2'> +1.6656298e-04 </wgt>
<wgt id='morphing_basis_vector_3'> +2.1753865e-04 </wgt>
<wgt id='morphing_basis_vector_4'> +1.0988804e-04 </wgt>
<wgt id='morphing_basis_vector_5'> +2.1133254e-04 </wgt>
</rwgt>
</event>
<event>
 4      1 +3.5234200e-07 1.29240000e+03 7.81860800e-03 8.44684800e-02
        2 -1    0    0  501    0 +0.0000000000e+00 +0.0000000000e+00 +1.1319811982e+03 1.1319811982e+03 0.0000000000e+00 0.0000e+00 1.0000e+00
       -2 -1    0    0    0  501 -0.0000000000e+00 -0.0000000000e+00 -3.6888830715e+02 3.6888830715e+02 0.0000000000e+00 0.0000e+00 -1.0000e+00
      -13  1    1    2    0    0 -5.2421194051e+02 +3.2288293892e+02 +1.5361388371e+02 6.3454611817e+02 0.0000000000e+00 0.0000e+00 -1.0000e+00
       13  1    1    2    0    0 +5.2421194051e+02 -3.2288293892e+02 +6.0947900736e+02 8.6632338721e+02 0.0000000000e+00 0.0000e+00 1.0000e+00
<mgrwt>
<rscale>  0 0.12924003E+04</rscale>
<asrwt>0</asrwt>
<pdfrwt beam="1">  1        2 0.17415095E+00 0.12924003E+04</pdfrwt>
<pdfrwt beam="2">  1       -2 0.56752048E-01 0.12924003E+04</pdfrwt>
<totfact> 0.74915544E+01</totfact>
</mgrwt>
<rwgt>
<wgt id='morphing_basis_vector_1'> +1.4721538e-04 </wgt>
<wgt id='morphing_basis_vector_2'> +9.8773304e-05 </wgt>
<wgt id='morphing_basis_vector_3'> +1.4975389e-04 </wgt>
<wgt id='morphing_basis_vector_4'> +9.4271930e-05 </wgt>
<wgt id='morphing_basis_vector_5'> +1.5414913e-04 </wgt>
</rwgt>
</event>
<event>
 4      1 +3.5234200e-07 1.35149800e+03 7.81860800e-03 8.40681100e-02
        2 -1    0    0  501    0 +0.0000000000e+00 +0.0000000000e+00 +2.1330304882e+03 2.1330304882e+03 0.0000000000e+00 0.0000e+00 1.0000e+00
       -2 -1    0    0    0  501 -0.0000000000e+00 -0.0000000000e+00 -2.1407892795e+02 2.1407892795e+02 0.0000000000e+00 0.0000e+00 -1.0000e+00
      -13  1    1    2    0    0 -5.9091336296e+02 -2.8316617264e+02 +6.7266082617e+02 9.3906031272e+02 0.0000000000e+00 0.0000e+00 -1.0000e+00
       13  1    1    2    0    0 +5.9091336296e+02 +2.8316617264e+02 +1.2462907341e+03 1.4080491035e+03 0.0000000000e+00 0.0000e+00 1.0000e+00
<mgrwt>
<rscale>  0 0.13514983E+04</rscale>
<asrwt>0</asrwt>
<pdfrwt beam="1">  1        2 0.32815852E+00 0.13514983E+04</pdfrwt>
<pdfrwt beam="2">  1       -2 0.32935221E-01 0.13514983E+04</pdfrwt>
<totfact> 0.57337898E+01</totfact>
</mgrwt>
<rwgt>
<wgt id='morphing_basis_vector_1'> +1.7517520e-04 </wgt>
<wgt id='morphing_basis_vector_2'> +1.1926749e-04 </wgt>
<wgt id='morphing_basis_vector_3'> +1.7964021e-04 </wgt>
<wgt id='morphing_basis_vector_4'> +1.1266292e-04 </wgt>
<wgt id='morphing_basis_vector_5'> +1.8583334e-04 </wgt>
</rwgt>
</event>
<event>
 4      1 +3.5234200e-07 1.37560400e+03 7.81860800e-03 8.39108900e-02
        2 -1    0    0  501    0 +0.0000000000e+00 +0.0000000000e+00 +5.7275673541e+02 5.7275673541e+02 0.0000000000e+00 0.0000e+00 1.0000e+00
       -2 -1    0    0    0  501 -0.0000000000e+00 -0.0000000000e+00 -8.2595521231e+02 8.2595521231e+02 0.0000000000e+00 0.0000e+00 -1.0000e+00
      -13  1    1    2    0    0 -2.2285561189e+02 -6.3221283819e+02 +2.9980199778e+01 6.7101155645e+02 0.0000000000e+00 0.0000e+00 -1.0000e+00
       13  1    1    2    0    0 +2.2285561189e+02 +6.3221283819e+02 -2.8317867668e+02 7.2770039126e+02 0.0000000000e+00 0.0000e+00 1.0000e+00
<mgrwt>
<rscale>  0 0.13756037E+04</rscale>
<asrwt>0</asrwt>
<pdfrwt beam="1">  1        2 0.88116422E-01 0.13756037E+04</pdfrwt>
<pdfrwt beam="2">  1       -2 0.12707003E+00 0.13756037E+04</pdfrwt>
<totfact> 0.28393847E+01</totfact>
</mgrwt>
<rwgt>
<wgt id='morphing_basis_vector_1'> +1.9935310e-04 </wgt>
<wgt id='morphing_basis_vector_2'> +1.6339916e-04 </wgt>
<wgt id='morphing_basis_vector_3'> +2.0762691e-04 </wgt>
<wgt id='morphing_basis_vector_4'> +9.9677561e-05 </wgt>
<wgt id='morphing_basis_vector_5'> +1.9851853e-04 </wgt>
</rwgt>
</event>
<event>
 4      1 +3.5234200e-07 1.30392300e+03 7.81860800e-03 8.43886800e-02
        2 -1    0    0  501    0 +0.0000000000e+00 +0.0000000000e+00 +1.1390956915e+03 1.1390956915e+03 0.0000000000e+00 0.0000e+00 -1.0000e+00
       -2 -1    0    0    0  501 -0.0000000000e+00 -0.0000000000e+00 -3.7315005024e+02 3.7315005024e+02 0.0000000000e+00 0.0000e+00 1.0000e+00
      -13  1    1    2    0    0 -9.8718166845e+01 -3.8428644712e+02 -2.1701129435e+02 4.5223362522e+02 0.0000000000e+00 0.0000e+00 1.0000e+00
       13  1    1    2    0    0 +9.8718166845e+01 +3.8428644712e+02 +9.8295693566e+02 1.0600121166e+03 0.0000000000e+00 0.0000e+00 -1.0000e+00
<mgrwt>
<rscale>  0 0.13039227E+04</rscale>
<asrwt>0</asrwt>
<pdfrwt beam="1">  1        2 0.17524549E+00 0.13039227E+04</pdfrwt>
<pdfrwt beam="2">  1       -2 0.57407700E-01 0.13039227E+04</pdfrwt>
<totfact> 0.72417838E+01</totfact>
</mgrwt>
<rwgt>
<wgt id='morphing_basis_vector_1'> +1.5069198e-04 </wgt>
<wgt id='morphing_basis_vector_2'> +9.7492208e-05 </wgt>
<wgt id='morphing_basis_vector_3'> +1.5322692e-04 </wgt>
<wgt id='morphing_basis_vector_4'> +1.0067085e-04 </wgt>
<wgt id='morphing_basis_vector_5'> +1.6019862e-04 </wgt>
</rwgt>
</event>
<event>
 4      1 +3.5234200e-07 1.44385800e+03 7.81860800e-03 8.34833400e-02
        2 -1    0    0  501    0 +0.0000000000e+00 +0.0000000000e+00 +1.6573560913e+03 1.6573560913e+03 0.0000000000e+00 0.0000e+00 1.0000e+00
       -2 -1    0    0    0  501 -0.0000000000e+00 -0.0000000000e+00 -3.1446549138e+02 3.1446549138e+02 0.0000000000e+00 0.0000e+00 -1.0000e+00
      -13  1    1    2    0    0 +5.3096050763e+02 +3.5098942043e+02 +2.0617995979e+02 6.6904619402e+02 0.0000000000e+00 0.0000e+00 -1.0000e+00
       13  1    1    2    0    0 -5.3096050763e+02 -3.5098942043e+02 +1.1367106402e+03 1.3027753887e+03 0.0000000000e+00 0.0000e+00 1.0000e+00
<mgrwt>
<rscale>  0 0.14438577E+04</rscale>
<asrwt>0</asrwt>
<pdfrwt beam="1">  1        2 0.25497785E+00 0.14438577E+04</pdfrwt>
<pdfrwt beam="2">  1       -2 0.48379307E-01 0.14438577E+04</pdfrwt>
<totfact> 0.51105530E+01</totfact>
</mgrwt>
<rwgt>
<wgt id='morphing_basis_vector_1'> +2.2372813e-04 </wgt>
<wgt id='morphing_basis_vector_2'> +1.4846664e-04 </wgt>
<wgt id='morphing_basis_vector_3'> +2.3124671e-04 </wgt>
<wgt id='morphing_basis_vector_4'> +1.5207538e-04 </wgt>
<wgt id='morphing_basis_vector_5'> +2.4506472e-04 </wgt>
</rwgt>
</event>
<event>
 4      1 +3.5234200e-07 1.47678900e+03 7.81860800e-03 8.32857400e-02
        2 -1    0    0  501    0 +0.0000000000e+00 +0.0000000000e+00 +9.9273693191e+02 9.9273693191e+02 0.0000000000e+00 0.0000e+00 1.0000e+00
       -2 -1    0    0    0  501 -0.0000000000e+00 -0.0000000000e+00 -5.4921536378e+02 5.4921536378e+02 0.0000000000e+00 0.0000e+00 -1.0000e+00
      -13  1    1    2    0    0 +5.0950343280e+02 +1.0667439568e+02 -3.2503903997e+02 6.1369662883e+02 0.0000000000e+00 0.0000e+00 -1.0000e+00
       13  1    1    2    0    0 -5.0950343280e+02 -1.0667439568e+02 +7.6856060811e+02 9.2825566686e+02 0.0000000000e+00 0.0000e+00 1.0000e+00
<mgrwt>
<rscale>  0 0.14767889E+04</rscale>
<asrwt>0</asrwt>
<pdfrwt beam="1">  1        2 0.15272876E+00 0.14767889E+04</pdfrwt>
<pdfrwt beam="2">  1       -2 0.84494672E-01 0.14767889E+04</pdfrwt>
<totfact> 0.38165704E+01</totfact>
</mgrwt>
<rwgt>
<wgt id='morphing_basis_vector_1'> +2.4306797e-04 </wgt>
<wgt id='morphing_basis_vector_2'> +1.5936728e-04 </wgt>
<wgt id='morphing_basis_vector_3'> +2.5175567e-04 </wgt>
<wgt id='morphing_basis_vector_4'> +1.6876465e-04 </wgt>
<wgt id='morphing_basis_vector_5'> +2.6926221e-04 </wgt>
</rwgt>
</event>
<event>
 4      1 +3.5234200e-07 1.49146400e+03 7.81860800e-03 8.31994000e-02
        2 -1    0    0  501    0 +0.0000000000e+00 +0.0000000000e+00 +4.6622913366e+02 4.6622913366e+02 0.0000000000e+00 0.0000e+00 -1.0000e+00
       -2 -1    0    0    0  501 -0.0000000000e+00 -0.0000000000e+00 -1.1927965287e+03 1.1927965287e+03 0.0000000000e+00 0.0000e+00 1.0000e+00
      -13  1    1    2    0    0 +7.3993088381e+02 +8.7613188773e+01 -3.9743670423e+02 8.4447008090e+02 0.0000000000e+00 0.0000e+00 1.0000e+00
       13  1    1    2    0    0 -7.3993088381e+02 -8.7613188773e+01 -3.2913069082e+02 8.1455558147e+02 0.0000000000e+00 0.0000e+00 -1.0000e+00
<mgrwt>
<rscale>  0 0.14914644E+04</rscale>
<asrwt>0</asrwt>
<pdfrwt beam="1">  1        2 0.71727559E-01 0.14914644E+04</pdfrwt>
<pdfrwt beam="2">  1       -2 0.18350716E+00 0.14914644E+04</pdfrwt>
<totfact> 0.12285379E+01</totfact>
</mgrwt>
<rwgt>
<wgt id='morphing_basis_vector_1'> +2.6011312e-04 </wgt>
<wgt id='morphing_basis_vector_2'> +1.8834609e-04 </wgt>
<wgt id='morphing_basis_vector_3'> +2.7179609e-04 </wgt>
<wgt id='morphing_basis_vector_4'> +1.6166579e-04 </wgt>
<wgt id='morphing_basis_vector_5'> +2.7949032e-04 </wgt>
</rwgt>
</event>
<event>
 4      1 +3.5234200e-07 1.42448000e+03 7.81860800e-03 8.36021900e-02
        2 -1    0    0  501    0 +0.0000000000e+00 +0.0000000000e+00 +1.7165455509e+03 1.7165455509e+03 0.0000000000e+00 0.0000e+00 -1.0000e+00
       -2 -1    0    0    0  501 -0.0000000000e+00 -0.0000000000e+00 -2.9552710599e+02 2.9552710599e+02 0.0000000000e+00 0.0000e+00 1.0000e+00
      -13  1    1    2    0    0 -2.0542682380e+02 -3.8230847445e+02 -8.7177120155e+01 4.4267346866e+02 0.0000000000e+00 0.0000e+00 1.0000e+00
       13  1    1    2    0    0 +2.0542682380e+02 +3.8230847445e+02 +1.5081955650e+03 1.5693991882e+03 0.0000000000e+00 0.0000e+00 -1.0000e+00
<mgrwt>
<rscale>  0 0.14244799E+04</rscale>
<asrwt>0</asrwt>
<pdfrwt beam="1">  1        2 0.26408393E+00 0.14244799E+04</pdfrwt>
<pdfrwt beam="2">  1       -2 0.45465710E-01 0.14244799E+04</pdfrwt>
<totfact> 0.53514303E+01</totfact>
</mgrwt>
<rwgt>
<wgt id='morphing_basis_vector_1'> +2.1143236e-04 </wgt>
<wgt id='morphing_basis_vector_2'> +1.3790599e-04 </wgt>
<wgt id='morphing_basis_vector_3'> +2.1788941e-04 </wgt>
<wgt id='morphing_basis_vector_4'> +1.4555346e-04 </wgt>
<wgt id='morphing_basis_vector_5'> +2.3180045e-04 </wgt>
</rwgt>
</event>
<event>
 4      1 +3.5234200e-07 1.34987500e+03 7.81860800e-03 8.40788200e-02
        2 -1    0    0  501    0 +0.0000000000e+00 +0.0000000000e+00 +3.4040850896e+03 3.4040850896e+03 0.0000000000e+00 0.0000e+00 -1.0000e+00
       -2 -1    0    0    0  501 -0.0000000000e+00 -0.0000000000e+00 -1.3382172942e+02 1.3382172942e+02 0.0000000000e+00 0.0000e+00 1.0000e+00
      -13  1    1    2    0    0 -2.8266724715e+02 +6.1184333889e+02 +1.7291750423e+03 1.8558823699e+03 0.0000000000e+00 0.0000e+00 1.0000e+00
       13  1    1    2    0    0 +2.8266724715e+02 -6.1184333889e+02 +1.5410883180e+03 1.6820244492e+03 0.0000000000e+00 0.0000e+00 -1.0000e+00
<mgrwt>
<rscale>  0 0.13498749E+04</rscale>
<asrwt>0</asrwt>
<pdfrwt beam="1">  1        2 0.52370533E+00 0.13498749E+04</pdfrwt>
<pdfrwt beam="2">  1       -2 0.20587961E-01 0.13498749E+04</pdfrwt>
<totfact> 0.20868382E+01</totfact>
</mgrwt>
<rwgt>
<wgt id='morphing_basis_vector_1'> +1.7945416e-04 </wgt>
<wgt id='morphing_basis_vector_2'> +1.3391020e-04 </wgt>
<wgt id='morphing_basis_vector_3'> +1.8505148e-04 </wgt>
<wgt id='morphing_basis_vector_4'> +1.0294008e-04 </wgt>
<wgt id='morphing_basis_vector_5'> +1.8424649e-04 </wgt>
</rwgt>
</event>
<event>
 4      1 +3.5234200e-07 1.51275000e+03 7.81860800e-03 8.30759800e-02
        2 -1    0    0  501    0 +0.0000000000e+00 +0.0000000000e+00 +4.8696236121e+02 4.8696236121e+02 0.0000000000e+00 0.0000e+00 -1.0000e+00
       -2 -1    0    0    0  501 -0.0000000000e+00 -0.0000000000e+00 -1.1748400258e+03 1.1748400258e+03 0.0000000000e+00 0.0000e+00 1.0000e+00
      -13  1    1    2    0    0 +1.5706279909e+02 -6.8434120687e+02 -6.5291962053e+02 9.5879906192e+02 0.0000000000e+00 0.0000e+00 1.0000e+00
       13  1    1    2    0    0 -1.5706279909e+02 +6.8434120687e+02 -3.4958044097e+01 7.0300332511e+02 0.0000000000e+00 0.0000e+00 -1.0000e+00
<mgrwt>
<rscale>  0 0.15127496E+04</rscale>
<asrwt>0</asrwt>
<pdfrwt beam="1">  1        2 0.74917288E-01 0.15127496E+04</pdfrwt>
<pdfrwt beam="2">  1       -2 0.18074462E+00 0.15127496E+04</pdfrwt>
<totfact> 0.12246497E+01</totfact>
</mgrwt>
<rwgt>
<wgt id='morphing_basis_vector_1'> +2.6859916e-04 </wgt>
<wgt id='morphing_basis_vector_2'> +1.8083466e-04 </wgt>
<wgt id='morphing_basis_vector_3'> +2.7958096e-04 </wgt>
<wgt id='morphing_basis_vector_4'> +1.8290178e-04 </wgt>
<wgt id='morphing_basis_vector_5'> +2.9724762e-04 </wgt>
</rwgt>
</event>
<event>
 4      1 +3.5234200e-07 1.48172400e+03 7.81860800e-03 8.32565900e-02
        2 -1    0    0  501    0 +0.0000000000e+00 +0.0000000000e+00 +7.3571915480e+02 7.3571915480e+02 0.0000000000e+00 0.0000e+00 -1.0000e+00
       -2 -1    0    0    0  501 -0.0000000000e+00 -0.0000000000e+00 -7.4604121646e+02 7.4604121646e+02 0.0000000000e+00 0.0000e+00 1.0000e+00
      -13  1    1    2    0    0 -9.6219292779e+01 -2.9657060346e+02 -6.7723725920e+02 7.4556192257e+02 0.0000000000e+00 0.0000e+00 1.0000e+00
       13  1    1    2    0    0 +9.6219292779e+01 +2.9657060346e+02 +6.6691519754e+02 7.3619844869e+02 0.0000000000e+00 0.0000e+00 -1.0000e+00
<mgrwt>
<rscale>  0 0.14817244E+04</rscale>
<asrwt>0</asrwt>
<pdfrwt beam="1">  1        2 0.11318756E+00 0.14817244E+04</pdfrwt>
<pdfrwt beam="2">  1       -2 0.11477557E+00 0.14817244E+04</pdfrwt>
<totfact> 0.27147180E+01</totfact>
</mgrwt>
<rwgt>
<wgt id='morphing_basis_vector_1'> +2.4595187e-04 </wgt>
<wgt id='morphing_basis_vector_2'> +1.6069044e-04 </wgt>
<wgt id='morphing_basis_vector_3'> +2.5478422e-04 </wgt>
<wgt id='morphing_basis_vector_4'> +1.7160175e-04 </wgt>
<wgt id='morphing_basis_vector_5'> +2.7305239e-04 </wgt>
</rwgt>
</event>
<event>
 4      1 +3.5234200e-07 1.32476000e+03 7.81860800e-03 8.42465500e-02
        2 -1    0    0  501    0 +0.0000000000e+00 +0.0000000000e+00 +1.5270959229e+03 1.5270959229e+03 0.0000000000e+00 0.0000e+00 -1.0000e+00
       -2 -1    0    0    0  501 -0.0000000000e+00 -0.0000000000e+00 -2.8730834785e+02 2.8730834785e+02 0.0000000000e+00 0.0000e+00 1.0000e+00
      -13  1    1    2    0    0 +1.9404491960e+02 +3.0598769281e+02 -1.3954886337e+02 3.8827282192e+02 0.0000000000e+00 0.0000e+00 1.0000e+00
       13  1    1    2    0    0 -1.9404491960e+02 -3.0598769281e+02 +1.3793364384e+03 1.4261314488e+03 0.0000000000e+00 0.0000e+00 -1.0000e+00
<mgrwt>
<rscale>  0 0.13247602E+04</rscale>
<asrwt>0</asrwt>
<pdfrwt beam="1">  1        2 0.23493783E+00 0.13247602E+04</pdfrwt>
<pdfrwt beam="2">  1       -2 0.44201285E-01 0.13247602E+04</pdfrwt>
<totfact> 0.72571863E+01</totfact>
</mgrwt>
<rwgt>
<wgt id='morphing_basis_vector_1'> +1.6006004e-04 </wgt>
<wgt id='morphing_basis_vector_2'> +1.0363191e-04 </wgt>
<wgt id='morphing_basis_vector_3'> +1.6316318e-04 </wgt>
<wgt id='morphing_basis_vector_4'> +1.0763386e-04 </wgt>
<wgt id='morphing_basis_vector_5'> +1.7121129e-04 </wgt>
</rwgt>
</event>
<event>
 4      1 +3.5234200e-07 1.30985200e+03 7.81860800e-03 8.43479600e-02
        2 -1    0    0  501    0 +0.0000000000e+00 +0.0000000000e+00 +1.6197517429e+03 1.6197517429e+03 0.0000000000e+00 0.0000e+00 1.0000e+00
       -2 -1    0    0    0  501 -0.0000000000e+00 -0.0000000000e+00 -2.6481084876e+02 2.6481084876e+02 0.0000000000e+00 0.0000e+00 -1.0000e+00
      -13  1    1    2    0    0 +3.8356068439e+02 +3.0146989595e+02 +4.8804720937e+01 4.9029052363e+02 0.0000000000e+00 0.0000e+00 -1.0000e+00
       13  1    1    2    0    0 -3.8356068439e+02 -3.0146989595e+02 +1.3061361732e+03 1.3942720680e+03 0.0000000000e+00 0.0000e+00 1.0000e+00
<mgrwt>
<rscale>  0 0.13098516E+04</rscale>
<asrwt>0</asrwt>
<pdfrwt beam="1">  1        2 0.24919257E+00 0.13098516E+04</pdfrwt>
<pdfrwt beam="2">  1       -2 0.40740132E-01 0.13098516E+04</pdfrwt>
<totfact> 0.75281454E+01</totfact>
</mgrwt>
<rwgt>
<wgt id='morphing_basis_vector_1'> +1.5348596e-04 </wgt>
<wgt id='morphing_basis_vector_2'> +9.9725856e-05 </wgt>
<wgt id='morphing_basis_vector_3'> +1.5621473e-04 </wgt>
<wgt id='morphing_basis_vector_4'> +1.0231025e-04 </wgt>
<wgt id='morphing_basis_vector_5'> +1.6325547e-04 </wgt>
</rwgt>
</event>
<event>
 4      1 +3.5234200e-07 1.51526600e+03 7.81860800e-03 8.30615200e-02
        2 -1    0    0  501    0 +0.0000000000e+00 +0.0000000000e+00 +2.4262838001e+03 2.4262838001e+03 0.0000000000e+00 0.0000e+00 -1.0000e+00
       -2 -1    0    0    0  501 -0.0000000000e+00 -0.0000000000e+00 -2.3657900804e+02 2.3657900804e+02 0.0000000000e+00 0.0000e+00 1.0000e+00
      -13  1    1    2    0    0 -9.0399829571e+01 -4.0418162348e+02 -2.0027837693e+01 4.1465169507e+02 0.0000000000e+00 0.0000e+00 1.0000e+00
       13  1    1    2    0    0 +9.0399829571e+01 +4.0418162348e+02 +2.2097326298e+03 2.2482111131e+03 0.0000000000e+00 0.0000e+00 -1.0000e+00
<mgrwt>
<rscale>  0 0.15152661E+04</rscale>
<asrwt>0</asrwt>
<pdfrwt beam="1">  1        2 0.37327441E+00 0.15152661E+04</pdfrwt>
<pdfrwt beam="2">  1       -2 0.36396772E-01 0.15152661E+04</pdfrwt>
<totfact> 0.31953605E+01</totfact>
</mgrwt>
<rwgt>
<wgt id='morphing_basis_vector_1'> +2.6819689e-04 </wgt>
<wgt id='morphing_basis_vector_2'> +1.7566896e-04 </wgt>
<wgt id='morphing_basis_vector_3'> +2.7863637e-04 </wgt>
<wgt id='morphing_basis_vector_4'> +1.8815269e-04 </wgt>
<wgt id='morphing_basis_vector_5'> +2.9959811e-04 </wgt>
</rwgt>
</event>
<event>
 4      1 +3.5234200e-07 1.46326700e+03 7.81860800e-03 8.33662200e-02
        2 -1    0    0  501    0 +0.0000000000e+00 +0.0000000000e+00 +1.1580764401e+03 1.1580764401e+03 0.0000000000e+00 0.0000e+00 -1.0000e+00
       -2 -1    0    0    0  501 -0.0000000000e+00 -0.0000000000e+00 -4.6222159130e+02 4.6222159130e+02 0.0000000000e+00 0.0000e+00 1.0000e+00
      -13  1    1    2    0    0 -5.0126936630e+02 +6.5617537095e+01 -2.3770644304e+02 5.5864209636e+02 0.0000000000e+00 0.0000e+00 1.0000e+00
       13  1    1    2    0    0 +5.0126936630e+02 -6.5617537095e+01 +9.3356129183e+02 1.0616559350e+03 0.0000000000e+00 0.0000e+00 -1.0000e+00
<mgrwt>
<rscale>  0 0.14632675E+04</rscale>
<asrwt>0</asrwt>
<pdfrwt beam="1">  1        2 0.17816561E+00 0.14632675E+04</pdfrwt>
<pdfrwt beam="2">  1       -2 0.71111014E-01 0.14632675E+04</pdfrwt>
<totfact> 0.44573711E+01</totfact>
</mgrwt>
<rwgt>
<wgt id='morphing_basis_vector_1'> +2.3457566e-04 </wgt>
<wgt id='morphing_basis_vector_2'> +1.5361840e-04 </wgt>
<wgt id='morphing_basis_vector_3'> +2.4265708e-04 </wgt>
<wgt id='morphing_basis_vector_4'> +1.6250463e-04 </wgt>
<wgt id='morphing_basis_vector_5'> +2.5917711e-04 </wgt>
</rwgt>
</event>
<event>
 4      1 +3.5234200e-07 1.53449300e+03 7.81860800e-03 8.29520500e-02
        2 -1    0    0  501    0 +0.0000000000e+00 +0.0000000000e+00 +1.3834705922e+03 1.3834705922e+03 0.0000000000e+00 0.0000e+00 1.0000e+00
       -2 -1    0    0    0  501 -0.0000000000e+00 -0.0000000000e+00 -4.2550060193e+02 4.2550060193e+02 0.0000000000e+00 0.0000e+00 -1.0000e+00
      -13  1    1    2    0    0 -1.5712540493e+02 +2.0721238501e+02 -3.7196306282e+02 4.5385227275e+02 0.0000000000e+00 0.0000e+00 -1.0000e+00
       13  1    1    2    0    0 +1.5712540493e+02 -2.0721238501e+02 +1.3299330530e+03 1.3551189213e+03 0.0000000000e+00 0.0000e+00 1.0000e+00
<mgrwt>
<rscale>  0 0.15344935E+04</rscale>
<asrwt>0</asrwt>
<pdfrwt beam="1">  1        2 0.21284163E+00 0.15344935E+04</pdfrwt>
<pdfrwt beam="2">  1       -2 0.65461632E-01 0.15344935E+04</pdfrwt>
<totfact> 0.39177121E+01</totfact>
</mgrwt>
<rwgt>
<wgt id='morphing_basis_vector_1'> +2.8150571e-04 </wgt>
<wgt id='morphing_basis_vector_2'> +1.8438086e-04 </wgt>
<wgt id='morphing_basis_vector_3'> +2.9289579e-04 </wgt>
<wgt id='morphing_basis_vector_4'> +1.9836975e-04 </wgt>
<wgt id='morphing_basis_vector_5'> +3.1566735e-04 </wgt>
</rwgt>
</event>
<event>
 4      1 +3.5234200e-07 1.29559600e+03 7.81860800e-03 8.44462600e-02
        2 -1    0    0  501    0 +0.0000000000e+00 +0.0000000000e+00 +7.5927534973e+02 7.5927534973e+02 0.0000000000e+00 0.0000e+00 -1.0000e+00
       -2 -1    0    0    0  501 -0.0000000000e+00 -0.0000000000e+00 -5.5268785777e+02 5.5268785777e+02 0.0000000000e+00 0.0000e+00 1.0000e+00
      -13  1    1    2    0    0 +2.2515672390e+02 -5.8325021068e+02 +2.7504150985e+02 6.8302576138e+02 0.0000000000e+00 0.0000e+00 1.0000e+00
       13  1    1    2    0    0 -2.2515672390e+02 +5.8325021068e+02 -6.8454017887e+01 6.2893744612e+02 0.0000000000e+00 0.0000e+00 -1.0000e+00
<mgrwt>
<rscale>  0 0.12955960E+04</rscale>
<asrwt>0</asrwt>
<pdfrwt beam="1">  1        2 0.11681159E+00 0.12955960E+04</pdfrwt>
<pdfrwt beam="2">  1       -2 0.85028901E-01 0.12955960E+04</pdfrwt>
<totfact> 0.54612483E+01</totfact>
</mgrwt>
<rwgt>
<wgt id='morphing_basis_vector_1'> +1.6004856e-04 </wgt>
<wgt id='morphing_basis_vector_2'> +1.3399768e-04 </wgt>
<wgt id='morphing_basis_vector_3'> +1.6496720e-04 </wgt>
<wgt id='morphing_basis_vector_4'> +7.4958005e-05 </wgt>
<wgt id='morphing_basis_vector_5'> +1.5432739e-04 </wgt>
</rwgt>
</event>
<event>
 4      1 +3.5234200e-07 1.40888000e+03 7.81860800e-03 8.36993000e-02
        2 -1    0    0  501    0 +0.0000000000e+00 +0.0000000000e+00 +1.7416659538e+03 1.7416659538e+03 0.0000000000e+00 0.0000e+00 -1.0000e+00
       -2 -1    0    0    0  501 -0.0000000000e+00 -0.0000000000e+00 -2.8491997477e+02 2.8491997477e+02 0.0000000000e+00 0.0000e+00 1.0000e+00
      -13  1    1    2    0    0 +2.8594580564e+02 +5.9217572647e+02 +3.6504756873e+02 7.5212819534e+02 0.0000000000e+00 0.0000e+00 1.0000e+00
       13  1    1    2    0    0 -2.8594580564e+02 -5.9217572647e+02 +1.0916984103e+03 1.2744577333e+03 0.0000000000e+00 0.0000e+00 -1.0000e+00
<mgrwt>
<rscale>  0 0.14088796E+04</rscale>
<asrwt>0</asrwt>
<pdfrwt beam="1">  1        2 0.26794860E+00 0.14088796E+04</pdfrwt>
<pdfrwt beam="2">  1       -2 0.43833843E-01 0.14088796E+04</pdfrwt>
<totfact> 0.55650042E+01</totfact>
</mgrwt>
<rwgt>
<wgt id='morphing_basis_vector_1'> +2.0433890e-04 </wgt>
<wgt id='morphing_basis_vector_2'> +1.3704213e-04 </wgt>
<wgt id='morphing_basis_vector_3'> +2.1064710e-04 </wgt>
<wgt id='morphing_basis_vector_4'> +1.3599477e-04 </wgt>
<wgt id='morphing_basis_vector_5'> +2.2119000e-04 </wgt>
</rwgt>
</event>
<event>
 4      1 +3.5234200e-07 1.33837900e+03 7.81860800e-03 8.41551200e-02
        2 -1    0    0  501    0 +0.0000000000e+00 +0.0000000000e+00 +2.6252470287e+03 2.6252470287e+03 0.0000000000e+00 0.0000e+00 -1.0000e+00
       -2 -1    0    0    0  501 -0.0000000000e+00 -0.0000000000e+00 -1.7058002083e+02 1.7058002083e+02 0.0000000000e+00 0.0000e+00 1.0000e+00
      -13  1    1    2    0    0 -9.2427974823e+01 -4.2849767950e+02 +1.7109059952e+02 4.7055837588e+02 0.0000000000e+00 0.0000e+00 1.0000e+00
       13  1    1    2    0    0 +9.2427974823e+01 +4.2849767950e+02 +2.2835764084e+03 2.3252686737e+03 0.0000000000e+00 0.0000e+00 -1.0000e+00
<mgrwt>
<rscale>  0 0.13383792E+04</rscale>
<asrwt>0</asrwt>
<pdfrwt beam="1">  1        2 0.40388413E+00 0.13383792E+04</pdfrwt>
<pdfrwt beam="2">  1       -2 0.26243082E-01 0.13383792E+04</pdfrwt>
<totfact> 0.44278569E+01</totfact>
</mgrwt>
<rwgt>
<wgt id='morphing_basis_vector_1'> +1.6651795e-04 </wgt>
<wgt id='morphing_basis_vector_2'> +1.0809840e-04 </wgt>
<wgt id='morphing_basis_vector_3'> +1.7003616e-04 </wgt>
<wgt id='morphing_basis_vector_4'> +1.1219425e-04 </wgt>
<wgt id='morphing_basis_vector_5'> +1.7869201e-04 </wgt>
</rwgt>
</event>
<event>
 4      1 +3.5234200e-07 1.33937500e+03 7.81860800e-03 8.41484700e-02
        2 -1    0    0  501    0 +0.0000000000e+00 +0.0000000000e+00 +1.9984146985e+03 1.9984146985e+03 0.0000000000e+00 0.0000e+00 -1.0000e+00
       -2 -1    0    0    0  501 -0.0000000000e+00 -0.0000000000e+00 -2.2441860456e+02 2.2441860456e+02 0.0000000000e+00 0.0000e+00 1.0000e+00
      -13  1    1    2    0    0 +2.7019946224e+02 -1.5531386411e+02 -9.6730875759e+01 3.2632347158e+02 0.0000000000e+00 0.0000e+00 1.0000e+00
       13  1    1    2    0    0 -2.7019946224e+02 +1.5531386411e+02 +1.8707269697e+03 1.8965098315e+03 0.0000000000e+00 0.0000e+00 -1.0000e+00
<mgrwt>
<rscale>  0 0.13393751E+04</rscale>
<asrwt>0</asrwt>
<pdfrwt beam="1">  1        2 0.30744840E+00 0.13393751E+04</pdfrwt>
<pdfrwt beam="2">  1       -2 0.34525940E-01 0.13393751E+04</pdfrwt>
<totfact> 0.62754543E+01</totfact>
</mgrwt>
<rwgt>
<wgt id='morphing_basis_vector_1'> +1.6688754e-04 </wgt>
<wgt id='morphing_basis_vector_2'> +1.0810052e-04 </wgt>
<wgt id='morphing_basis_vector_3'> +1.7041179e-04 </wgt>
<wgt id='morphing_basis_vector_4'> +1.1273152e-04 </wgt>
<wgt id='morphing_basis_vector_5'> +1.7926254e-04 </wgt>
</rwgt>
</event>
<event>
 4      1 +3.5234200e-07 1.29647200e+03 7.81860800e-03 8.44401800e-02
        2 -1    0    0  501    0 +0.0000000000e+00 +0.0000000000e+00 +1.3261659149e+03 1.3261659149e+03 0.0000000000e+00 0.0000e+00 1.0000e+00
       -2 -1    0    0    0  501 -0.0000000000e+00 -0.0000000000e+00 -3.1686093856e+02 3.1686093856e+02 0.0000000000e+00 0.0000e+00 -1.0000e+00
      -13  1    1    2    0    0 -4.0413455428e+02 -2.3901559509e+02 -6.1759411684e+01 4.7356880977e+02 0.0000000000e+00 0.0000e+00 -1.0000e+00
       13  1    1    2    0    0 +4.0413455428e+02 +2.3901559509e+02 +1.0710643880e+03 1.1694580437e+03 0.0000000000e+00 0.0000e+00 1.0000e+00
<mgrwt>
<rscale>  0 0.12964724E+04</rscale>
<asrwt>0</asrwt>
<pdfrwt beam="1">  1        2 0.20402552E+00 0.12964724E+04</pdfrwt>
<pdfrwt beam="2">  1       -2 0.48747837E-01 0.12964724E+04</pdfrwt>
<totfact> 0.78125250E+01</totfact>
</mgrwt>
<rwgt>
<wgt id='morphing_basis_vector_1'> +1.4755516e-04 </wgt>
<wgt id='morphing_basis_vector_2'> +9.5692179e-05 </wgt>
<wgt id='morphing_basis_vector_3'> +1.4991811e-04 </wgt>
<wgt id='morphing_basis_vector_4'> +9.8070543e-05 </wgt>
<wgt id='morphing_basis_vector_5'> +1.5637753e-04 </wgt>
</rwgt>
</event>
<event>
 4      1 +3.5234200e-07 1.30313900e+03 7.81860800e-03 8.43940800e-02
        2 -1    0    0  501    0 +0.0000000000e+00 +0.0000000000e+00 +3.5616380928e+02 3.5616380928e+02 0.0000000000e+00 0.0000e+00 1.0000e+00
       -2 -1    0    0    0  501 -0.0000000000e+00 -0.0000000000e+00 -1.1919878278e+03 1.1919878278e+03 0.0000000000e+00 0.0000e+00 -1.0000e+00
      -13  1    1    2    0    0 -1.2057094263e+02 +5.0898911647e+02 -8.7946185997e+02 1.0232597109e+03 0.0000000000e+00 0.0000e+00 -1.0000e+00
       13  1    1    2    0    0 +1.2057094263e+02 -5.0898911647e+02 +4.3637841483e+01 5.2489192611e+02 0.0000000000e+00 0.0000e+00 1.0000e+00
<mgrwt>
<rscale>  0 0.13031392E+04</rscale>
<asrwt>0</asrwt>
<pdfrwt beam="1">  1        2 0.54794432E-01 0.13031392E+04</pdfrwt>
<pdfrwt beam="2">  1       -2 0.18338274E+00 0.13031392E+04</pdfrwt>
<totfact> 0.16952455E+01</totfact>
</mgrwt>
<rwgt>
<wgt id='morphing_basis_vector_1'> +1.5065013e-04 </wgt>
<wgt id='morphing_basis_vector_2'> +9.8171415e-05 </wgt>
<wgt id='morphing_basis_vector_3'> +1.5322643e-04 </wgt>
<wgt id='morphing_basis_vector_4'> +9.9878643e-05 </wgt>
<wgt id='morphing_basis_vector_5'> +1.5975712e-04 </wgt>
</rwgt>
</event>
<event>
 4      1 +3.5234200e-07 1.39926900e+03 7.81860800e-03 8.37597800e-02
        2 -1    0    0  501    0 +0.0000000000e+00 +0.0000000000e+00 +3.7980130198e+03 3.7980130198e+03 0.0000000000e+00 0.0000e+00 -1.0000e+00
       -2 -1    0    0    0  501 -0.0000000000e+00 -0.0000000000e+00 -1.2888017930e+02 1.2888017930e+02 0.0000000000e+00 0.0000e+00 1.0000e+00
      -13  1    1    2    0    0 +1.0600145931e+02 -6.6759083474e+02 +1.3280559089e+03 1.4901833206e+03 0.0000000000e+00 0.0000e+00 1.0000e+00
       13  1    1    2    0    0 -1.0600145931e+02 +6.6759083474e+02 +2.3410769317e+03 2.4367098785e+03 0.0000000000e+00 0.0000e+00 -1.0000e+00
<mgrwt>
<rscale>  0 0.13992692E+04</rscale>
<asrwt>0</asrwt>
<pdfrwt beam="1">  1        2 0.58430961E+00 0.13992692E+04</pdfrwt>
<pdfrwt beam="2">  1       -2 0.19827723E-01 0.13992692E+04</pdfrwt>
<totfact> 0.11249207E+01</totfact>
</mgrwt>
<rwgt>
<wgt id='morphing_basis_vector_1'> +1.9997207e-04 </wgt>
<wgt id='morphing_basis_vector_2'> +1.3619938e-04 </wgt>
<wgt id='morphing_basis_vector_3'> +2.0615270e-04 </wgt>
<wgt id='morphing_basis_vector_4'> +1.3047512e-04 </wgt>
<wgt id='morphing_basis_vector_5'> +2.1484734e-04 </wgt>
</rwgt>
</event>
<event>
 4      1 +3.5234200e-07 1.38592200e+03 7.81860800e-03 8.38446200e-02
        2 -1    0    0  501    0 +0.0000000000e+00 +0.0000000000e+00 +4.8444964383e+02 4.8444964383e+02 0.0000000000e+00 0.0000e+00 1.0000e+00
       -2 -1    0    0    0  501 -0.0000000000e+00 -0.0000000000e+00 -9.9121791626e+02 9.9121791626e+02 0.0000000000e+00 0.0000e+00 -1.0000e+00
      -13  1    1    2    0    0 +4.5515766720e+02 +7.5157857239e+01 -8.0395401258e+02 9.2690844201e+02 0.0000000000e+00 0.0000e+00 -1.0000e+00
       13  1    1    2    0    0 -4.5515766720e+02 -7.5157857239e+01 +2.9718574016e+02 5.4875911808e+02 0.0000000000e+00 0.0000e+00 1.0000e+00
<mgrwt>
<rscale>  0 0.13859223E+04</rscale>
<asrwt>0</asrwt>
<pdfrwt beam="1">  1        2 0.74530716E-01 0.13859223E+04</pdfrwt>
<pdfrwt beam="2">  1       -2 0.15249506E+00 0.13859223E+04</pdfrwt>
<totfact> 0.20780336E+01</totfact>
</mgrwt>
<rwgt>
<wgt id='morphing_basis_vector_1'> +1.9034815e-04 </wgt>
<wgt id='morphing_basis_vector_2'> +1.2399573e-04 </wgt>
<wgt id='morphing_basis_vector_3'> +1.9540510e-04 </wgt>
<wgt id='morphing_basis_vector_4'> +1.2974675e-04 </wgt>
<wgt id='morphing_basis_vector_5'> +2.0674726e-04 </wgt>
</rwgt>
</event>
<event>
 4      1 +3.5234200e-07 1.34003000e+03 7.81860800e-03 8.41441100e-02
        2 -1    0    0  501    0 +0.0000000000e+00 +0.0000000000e+00 +4.2131434764e+02 4.2131434764e+02 0.0000000000e+00 0.0000e+00 1.0000e+00
       -2 -1    0    0    0  501 -0.0000000000e+00 -0.0000000000e+00 -1.0655228416e+03 1.0655228416e+03 0.0000000000e+00 0.0000e+00 -1.0000e+00
      -13  1    1    2    0    0 -5.0152587656e+01 -6.5517539891e+02 -4.6740928262e+02 8.0637554704e+02 0.0000000000e+00 0.0000e+00 -1.0000e+00
       13  1    1    2    0    0 +5.0152587656e+01 +6.5517539891e+02 -1.7679921137e+02 6.8046164222e+02 0.0000000000e+00 0.0000e+00 1.0000e+00
<mgrwt>
<rscale>  0 0.13400299E+04</rscale>
<asrwt>0</asrwt>
<pdfrwt beam="1">  1        2 0.64817592E-01 0.13400299E+04</pdfrwt>
<pdfrwt beam="2">  1       -2 0.16392659E+00 0.13400299E+04</pdfrwt>
<totfact> 0.19759569E+01</totfact>
</mgrwt>
<rwgt>
<wgt id='morphing_basis_vector_1'> +1.7007376e-04 </wgt>
<wgt id='morphing_basis_vector_2'> +1.1690569e-04 </wgt>
<wgt id='morphing_basis_vector_3'> +1.7427248e-04 </wgt>
<wgt id='morphing_basis_vector_4'> +1.0779686e-04 </wgt>
<wgt id='morphing_basis_vector_5'> +1.7926097e-04 </wgt>
</rwgt>
</event>
<event>
 4      1 +3.5234200e-07 1.50946200e+03 7.81860800e-03 8.30949000e-02
        2 -1    0    0  501    0 +0.0000000000e+00 +0.0000000000e+00 +2.2751320996e+03 2.2751320996e+03 0.0000000000e+00 0.0000e+00 -1.0000e+00
       -2 -1    0    0    0  501 -0.0000000000e+00 -0.0000000000e+00 -2.5036750050e+02 2.5036750050e+02 0.0000000000e+00 0.0000e+00 1.0000e+00
      -13  1    1    2    0    0 +3.8220314681e+02 +2.6703686342e+02 +1.9405876072e+01 4.6665246156e+02 0.0000000000e+00 0.0000e+00 1.0000e+00
       13  1    1    2    0    0 -3.8220314681e+02 -2.6703686342e+02 +2.0053587230e+03 2.0588471385e+03 0.0000000000e+00 0.0000e+00 -1.0000e+00
<mgrwt>
<rscale>  0 0.15094623E+04</rscale>
<asrwt>0</asrwt>
<pdfrwt beam="1">  1        2 0.35002031E+00 0.15094623E+04</pdfrwt>
<pdfrwt beam="2">  1       -2 0.38518079E-01 0.15094623E+04</pdfrwt>
<totfact> 0.35253851E+01</totfact>
</mgrwt>
<rwgt>
<wgt id='morphing_basis_vector_1'> +2.6432133e-04 </wgt>
<wgt id='morphing_basis_vector_2'> +1.7323912e-04 </wgt>
<wgt id='morphing_basis_vector_3'> +2.7449704e-04 </wgt>
<wgt id='morphing_basis_vector_4'> +1.8506069e-04 </wgt>
<wgt id='morphing_basis_vector_5'> +2.9486275e-04 </wgt>
</rwgt>
</event>
<event>
 4      1 +3.5234200e-07 1.29892700e+03 7.81860800e-03 8.44231700e-02
        2 -1    0    0  501    0 +0.0000000000e+00 +0.0000000000e+00 +2.7524044558e+03 2.7524044558e+03 0.0000000000e+00 0.0000e+00 -1.0000e+00
       -2 -1    0    0    0  501 -0.0000000000e+00 -0.0000000000e+00 -1.5324890248e+02 1.5324890248e+02 0.0000000000e+00 0.0000e+00 1.0000e+00
      -13  1    1    2    0    0 -2.6224972208e+02 +5.6910450229e+02 +1.6814905639e+03 1.7944540584e+03 0.0000000000e+00 0.0000e+00 1.0000e+00
       13  1    1    2    0    0 +2.6224972208e+02 -5.6910450229e+02 +9.1766498943e+02 1.1111992999e+03 0.0000000000e+00 0.0000e+00 -1.0000e+00
<mgrwt>
<rscale>  0 0.12989272E+04</rscale>
<asrwt>0</asrwt>
<pdfrwt beam="1">  1        2 0.42344680E+00 0.12989272E+04</pdfrwt>
<pdfrwt beam="2">  1       -2 0.23576756E-01 0.12989272E+04</pdfrwt>
<totfact> 0.44702755E+01</totfact>
</mgrwt>
<rwgt>
<wgt id='morphing_basis_vector_1'> +1.6167002e-04 </wgt>
<wgt id='morphing_basis_vector_2'> +1.3547676e-04 </wgt>
<wgt id='morphing_basis_vector_3'> +1.6673885e-04 </wgt>
<wgt id='morphing_basis_vector_4'> +7.5683886e-05 </wgt>
<wgt id='morphing_basis_vector_5'> +1.5599194e-04 </wgt>
</rwgt>
</event>
<event>
 4      1 +3.5234200e-07 1.42666600e+03 7.81860800e-03 8.35886800e-02
        2 -1    0    0  501    0 +0.0000000000e+00 +0.0000000000e+00 +1.1527771388e+03 1.1527771388e+03 0.0000000000e+00 0.0000e+00 -1.0000e+00
       -2 -1    0    0    0  501 -0.0000000000e+00 -0.0000000000e+00 -4.4140701108e+02 4.4140701108e+02 0.0000000000e+00 0.0000e+00 1.0000e+00
      -13  1    1    2    0    0 +1.9831677886e+02 -3.9611671061e+02 -2.6907721143e+02 5.1830544944e+02 0.0000000000e+00 0.0000e+00 1.0000e+00
       13  1    1    2    0    0 -1.9831677886e+02 +3.9611671061e+02 +9.8044733913e+02 1.0758787004e+03 0.0000000000e+00 0.0000e+00 -1.0000e+00
<mgrwt>
<rscale>  0 0.14266659E+04</rscale>
<asrwt>0</asrwt>
<pdfrwt beam="1">  1        2 0.17735033E+00 0.14266659E+04</pdfrwt>
<pdfrwt beam="2">  1       -2 0.67908772E-01 0.14266659E+04</pdfrwt>
<totfact> 0.49692393E+01</totfact>
</mgrwt>
<rwgt>
<wgt id='morphing_basis_vector_1'> +2.1269384e-04 </wgt>
<wgt id='morphing_basis_vector_2'> +1.3877370e-04 </wgt>
<wgt id='morphing_basis_vector_3'> +2.1923912e-04 </wgt>
<wgt id='morphing_basis_vector_4'> +1.4646257e-04 </wgt>
<wgt id='morphing_basis_vector_5'> +2.3328298e-04 </wgt>
</rwgt>
</event>
<event>
 4      1 +3.5234200e-07 1.30641500e+03 7.81860800e-03 8.43715400e-02
        2 -1    0    0  501    0 +0.0000000000e+00 +0.0000000000e+00 +5.4533317163e+02 5.4533317163e+02 0.0000000000e+00 0.0000e+00 1.0000e+00
       -2 -1    0    0    0  501 -0.0000000000e+00 -0.0000000000e+00 -7.8242073363e+02 7.8242073363e+02 0.0000000000e+00 0.0000e+00 -1.0000e+00
      -13  1    1    2    0    0 -3.2780353378e+02 -5.5941464616e+02 -3.8002423126e+01 6.4949525576e+02 0.0000000000e+00 0.0000e+00 -1.0000e+00
       13  1    1    2    0    0 +3.2780353378e+02 +5.5941464616e+02 -1.9908513887e+02 6.7825864949e+02 0.0000000000e+00 0.0000e+00 1.0000e+00
<mgrwt>
<rscale>  0 0.13064149E+04</rscale>
<asrwt>0</asrwt>
<pdfrwt beam="1">  1        2 0.83897411E-01 0.13064149E+04</pdfrwt>
<pdfrwt beam="2">  1       -2 0.12037242E+00 0.13064149E+04</pdfrwt>
<totfact> 0.34844241E+01</totfact>
</mgrwt>
<rwgt>
<wgt id='morphing_basis_vector_1'> +1.6013582e-04 </wgt>
<wgt id='morphing_basis_vector_2'> +1.2320212e-04 </wgt>
<wgt id='morphing_basis_vector_3'> +1.6446639e-04 </wgt>
<wgt id='morphing_basis_vector_4'> +8.6632097e-05 </wgt>
<wgt id='morphing_basis_vector_5'> +1.6043843e-04 </wgt>
</rwgt>
</event>
<event>
 4      1 +3.5234200e-07 1.31847400e+03 7.81860800e-03 8.42891400e-02
        2 -1    0    0  501    0 +0.0000000000e+00 +0.0000000000e+00 +1.1488560992e+03 1.1488560992e+03 0.0000000000e+00 0.0000e+00 -1.0000e+00
       -2 -1    0    0    0  501 -0.0000000000e+00 -0.0000000000e+00 -3.7828340015e+02 3.7828340015e+02 0.0000000000e+00 0.0000e+00 1.0000e+00
      -13  1    1    2    0    0 -3.6170436833e+02 +3.3635962383e+02 -1.2041903371e+02 5.0839806283e+02 0.0000000000e+00 0.0000e+00 1.0000e+00
       13  1    1    2    0    0 +3.6170436833e+02 -3.3635962383e+02 +8.9099173273e+02 1.0187414365e+03 0.0000000000e+00 0.0000e+00 -1.0000e+00
<mgrwt>
<rscale>  0 0.13184737E+04</rscale>
<asrwt>0</asrwt>
<pdfrwt beam="1">  1        2 0.17674709E+00 0.13184737E+04</pdfrwt>
<pdfrwt beam="2">  1       -2 0.58197447E-01 0.13184737E+04</pdfrwt>
<totfact> 0.69422856E+01</totfact>
</mgrwt>
<rwgt>
<wgt id='morphing_basis_vector_1'> +1.5738784e-04 </wgt>
<wgt id='morphing_basis_vector_2'> +1.0234690e-04 </wgt>
<wgt id='morphing_basis_vector_3'> +1.6035836e-04 </wgt>
<wgt id='morphing_basis_vector_4'> +1.0514036e-04 </wgt>
<wgt id='morphing_basis_vector_5'> +1.6780647e-04 </wgt>
</rwgt>
</event>
<event>
 4      1 +3.5234200e-07 1.37152300e+03 7.81860800e-03 8.39372700e-02
        2 -1    0    0  501    0 +0.0000000000e+00 +0.0000000000e+00 +7.5538744029e+02 7.5538744029e+02 0.0000000000e+00 0.0000e+00 -1.0000e+00
       -2 -1    0    0    0  501 -0.0000000000e+00 -0.0000000000e+00 -6.2255301067e+02 6.2255301067e+02 0.0000000000e+00 0.0000e+00 1.0000e+00
      -13  1    1    2    0    0 -2.5609285781e+02 -1.5956646919e+02 -5.5227570995e+02 6.2932779194e+02 0.0000000000e+00 0.0000e+00 1.0000e+00
       13  1    1    2    0    0 +2.5609285781e+02 +1.5956646919e+02 +6.8511013957e+02 7.4861265902e+02 0.0000000000e+00 0.0000e+00 -1.0000e+00
<mgrwt>
<rscale>  0 0.13715228E+04</rscale>
<asrwt>0</asrwt>
<pdfrwt beam="1">  1        2 0.11621345E+00 0.13715228E+04</pdfrwt>
<pdfrwt beam="2">  1       -2 0.95777386E-01 0.13715228E+04</pdfrwt>
<totfact> 0.41369419E+01</totfact>
</mgrwt>
<rwgt>
<wgt id='morphing_basis_vector_1'> +1.8274361e-04 </wgt>
<wgt id='morphing_basis_vector_2'> +1.1861780e-04 </wgt>
<wgt id='morphing_basis_vector_3'> +1.8727839e-04 </wgt>
<wgt id='morphing_basis_vector_4'> +1.2446572e-04 </wgt>
<wgt id='morphing_basis_vector_5'> +1.9794637e-04 </wgt>
</rwgt>
</event>
<event>
 4      1 +3.5234200e-07 1.51829400e+03 7.81860800e-03 8.30441700e-02
        2 -1    0    0  501    0 +0.0000000000e+00 +0.0000000000e+00 +1.7187864745e+03 1.7187864745e+03 0.0000000000e+00 0.0000e+00 -1.0000e+00
       -2 -1    0    0    0  501 -0.0000000000e+00 -0.0000000000e+00 -3.3529722546e+02 3.3529722546e+02 0.0000000000e+00 0.0000e+00 1.0000e+00
      -13  1    1    2    0    0 -2.9555388820e+02 +6.8678196862e+02 +8.6960073152e+02 1.1468334690e+03 0.0000000000e+00 0.0000e+00 1.0000e+00
       13  1    1    2    0    0 +2.9555388820e+02 -6.8678196862e+02 +5.1388851757e+02 9.0725023105e+02 0.0000000000e+00 0.0000e+00 -1.0000e+00
<mgrwt>
<rscale>  0 0.15182942E+04</rscale>
<asrwt>0</asrwt>
<pdfrwt beam="1">  1        2 0.26442868E+00 0.15182942E+04</pdfrwt>
<pdfrwt beam="2">  1       -2 0.51584189E-01 0.15182942E+04</pdfrwt>
<totfact> 0.41400454E+01</totfact>
</mgrwt>
<rwgt>
<wgt id='morphing_basis_vector_1'> +2.8817132e-04 </wgt>
<wgt id='morphing_basis_vector_2'> +2.3039159e-04 </wgt>
<wgt id='morphing_basis_vector_3'> +3.0443641e-04 </wgt>
<wgt id='morphing_basis_vector_4'> +1.5619665e-04 </wgt>
<wgt id='morphing_basis_vector_5'> +2.9959102e-04 </wgt>
</rwgt>
</event>
<event>
 4      1 +3.5234200e-07 1.33963500e+03 7.81860800e-03 8.41467400e-02
        2 -1    0    0  501    0 +0.0000000000e+00 +0.0000000000e+00 +1.6556169357e+03 1.6556169357e+03 0.0000000000e+00 0.0000e+00 1.0000e+00
       -2 -1    0    0    0  501 -0.0000000000e+00 -0.0000000000e+00 -2.7098972020e+02 2.7098972020e+02 0.0000000000e+00 0.0000e+00 -1.0000e+00
      -13  1    1    2    0    0 -6.1768461416e+02 +2.3233056529e+01 +3.2122104839e+02 6.9660391860e+02 0.0000000000e+00 0.0000e+00 -1.0000e+00
       13  1    1    2    0    0 +6.1768461416e+02 -2.3233056529e+01 +1.0634061671e+03 1.2300027372e+03 0.0000000000e+00 0.0000e+00 1.0000e+00
<mgrwt>
<rscale>  0 0.13396345E+04</rscale>
<asrwt>0</asrwt>
<pdfrwt beam="1">  1        2 0.25471029E+00 0.13396345E+04</pdfrwt>
<pdfrwt beam="2">  1       -2 0.41690727E-01 0.13396345E+04</pdfrwt>
<totfact> 0.68694101E+01</totfact>
</mgrwt>
<rwgt>
<wgt id='morphing_basis_vector_1'> +1.6827985e-04 </wgt>
<wgt id='morphing_basis_vector_2'> +1.1197804e-04 </wgt>
<wgt id='morphing_basis_vector_3'> +1.7210065e-04 </wgt>
<wgt id='morphing_basis_vector_4'> +1.1054297e-04 </wgt>
<wgt id='morphing_basis_vector_5'> +1.7924520e-04 </wgt>
</rwgt>
</event>
<event>
 4      1 +3.5234200e-07 1.44304700e+03 7.81860800e-03 8.34882800e-02
        2 -1    0    0  501    0 +0.0000000000e+00 +0.0000000000e+00 +8.8971496124e+02 8.8971496124e+02 0.0000000000e+00 0.0000e+00 -1.0000e+00
       -2 -1    0    0    0  501 -0.0000000000e+00 -0.0000000000e+00 -5.8512665325e+02 5.8512665325e+02 0.0000000000e+00 0.0000e+00 1.0000e+00
      -13  1    1    2    0    0 -1.8945475822e+02 -3.9142327143e+02 -4.3614375686e+02 6.1589500687e+02 0.0000000000e+00 0.0000e+00 1.0000e+00
       13  1    1    2    0    0 +1.8945475822e+02 +3.9142327143e+02 +7.4073206486e+02 8.5894660762e+02 0.0000000000e+00 0.0000e+00 -1.0000e+00
<mgrwt>
<rscale>  0 0.14430467E+04</rscale>
<asrwt>0</asrwt>
<pdfrwt beam="1">  1        2 0.13687923E+00 0.14430467E+04</pdfrwt>
<pdfrwt beam="2">  1       -2 0.90019485E-01 0.14430467E+04</pdfrwt>
<totfact> 0.38466144E+01</totfact>
</mgrwt>
<rwgt>
<wgt id='morphing_basis_vector_1'> +2.2222224e-04 </wgt>
<wgt id='morphing_basis_vector_2'> +1.4508707e-04 </wgt>
<wgt id='morphing_basis_vector_3'> +2.2941708e-04 </wgt>
<wgt id='morphing_basis_vector_4'> +1.5360686e-04 </wgt>
<wgt id='morphing_basis_vector_5'> +2.4463110e-04 </wgt>
</rwgt>
</event>
<event>
 4      1 +3.5234200e-07 1.30548300e+03 7.81860800e-03 8.43779400e-02
        2 -1    0    0  501    0 +0.0000000000e+00 +0.0000000000e+00 +6.2582554352e+02 6.2582554352e+02 0.0000000000e+00 0.0000e+00 -1.0000e+00
       -2 -1    0    0    0  501 -0.0000000000e+00 -0.0000000000e+00 -6.8081537666e+02 6.8081537666e+02 0.0000000000e+00 0.0000e+00 1.0000e+00
      -13  1    1    2    0    0 -1.7470674912e+02 -2.9988838987e+02 -5.8081074611e+02 6.7660669326e+02 0.0000000000e+00 0.0000e+00 1.0000e+00
       13  1    1    2    0    0 +1.7470674912e+02 +2.9988838987e+02 +5.2582091297e+02 6.3003422692e+02 0.0000000000e+00 0.0000e+00 -1.0000e+00
<mgrwt>
<rscale>  0 0.13054833E+04</rscale>
<asrwt>0</asrwt>
<pdfrwt beam="1">  1        2 0.96280853E-01 0.13054833E+04</pdfrwt>
<pdfrwt beam="2">  1       -2 0.10474083E+00 0.13054833E+04</pdfrwt>
<totfact> 0.42159957E+01</totfact>
</mgrwt>
<rwgt>
<wgt id='morphing_basis_vector_1'> +1.5134250e-04 </wgt>
<wgt id='morphing_basis_vector_2'> +9.7833761e-05 </wgt>
<wgt id='morphing_basis_vector_3'> +1.5391119e-04 </wgt>
<wgt id='morphing_basis_vector_4'> +1.0124488e-04 </wgt>
<wgt id='morphing_basis_vector_5'> +1.6100929e-04 </wgt>
</rwgt>
</event>
<event>
 4      1 +3.5234200e-07 1.32723900e+03 7.81860800e-03 8.42298200e-02
        2 -1    0    0  501    0 +0.0000000000e+00 +0.0000000000e+00 +5.5604891977e+02 5.5604891977e+02 0.0000000000e+00 0.0000e+00 -1.0000e+00
       -2 -1    0    0    0  501 -0.0000000000e+00 -0.0000000000e+00 -7.9200035948e+02 7.9200035948e+02 0.0000000000e+00 0.0000e+00 1.0000e+00
      -13  1    1    2    0    0 +1.3928827121e+02 -1.2813355232e+02 -7.6400802185e+02 7.8710081132e+02 0.0000000000e+00 0.0000e+00 1.0000e+00
       13  1    1    2    0    0 -1.3928827121e+02 +1.2813355232e+02 +5.2805658215e+02 5.6094846793e+02 0.0000000000e+00 0.0000e+00 -1.0000e+00
<mgrwt>
<rscale>  0 0.13272392E+04</rscale>
<asrwt>0</asrwt>
<pdfrwt beam="1">  1        2 0.85545988E-01 0.13272392E+04</pdfrwt>
<pdfrwt beam="2">  1       -2 0.12184621E+00 0.13272392E+04</pdfrwt>
<totfact> 0.32947614E+01</totfact>
</mgrwt>
<rwgt>
<wgt id='morphing_basis_vector_1'> +1.6115950e-04 </wgt>
<wgt id='morphing_basis_vector_2'> +1.0425014e-04 </wgt>
<wgt id='morphing_basis_vector_3'> +1.6432317e-04 </wgt>
<wgt id='morphing_basis_vector_4'> +1.0856383e-04 </wgt>
<wgt id='morphing_basis_vector_5'> +1.7256323e-04 </wgt>
</rwgt>
</event>
<event>
 4      1 +3.5234200e-07 1.53649800e+03 7.81860800e-03 8.29407300e-02
        2 -1    0    0  501    0 +0.0000000000e+00 +0.0000000000e+00 +6.2011165728e+02 6.2011165728e+02 0.0000000000e+00 0.0000e+00 -1.0000e+00
       -2 -1    0    0    0  501 -0.0000000000e+00 -0.0000000000e+00 -9.5177500180e+02 9.5177500180e+02 0.0000000000e+00 0.0000e+00 1.0000e+00
      -13  1    1    2    0    0 +5.4308787764e+02 +4.7847176886e+02 -4.2930377245e+02 8.4153514809e+02 0.0000000000e+00 0.0000e+00 1.0000e+00
       13  1    1    2    0    0 -5.4308787764e+02 -4.7847176886e+02 +9.7640427924e+01 7.3035151099e+02 0.0000000000e+00 0.0000e+00 -1.0000e+00
<mgrwt>
<rscale>  0 0.15364983E+04</rscale>
<asrwt>0</asrwt>
<pdfrwt beam="1">  1        2 0.95401794E-01 0.15364983E+04</pdfrwt>
<pdfrwt beam="2">  1       -2 0.14642692E+00 0.15364983E+04</pdfrwt>
<totfact> 0.17307148E+01</totfact>
</mgrwt>
<rwgt>
<wgt id='morphing_basis_vector_1'> +2.8567414e-04 </wgt>
<wgt id='morphing_basis_vector_2'> +1.9350676e-04 </wgt>
<wgt id='morphing_basis_vector_3'> +2.9805936e-04 </wgt>
<wgt id='morphing_basis_vector_4'> +1.9428674e-04 </wgt>
<wgt id='morphing_basis_vector_5'> +3.1699262e-04 </wgt>
</rwgt>
</event>
<event>
 4      1 +3.5234200e-07 1.32572500e+03 7.81860800e-03 8.42400300e-02
        2 -1    0    0  501    0 +0.0000000000e+00 +0.0000000000e+00 +5.9469291758e+02 5.9469291758e+02 0.0000000000e+00 0.0000e+00 1.0000e+00
       -2 -1    0    0    0  501 -0.0000000000e+00 -0.0000000000e+00 -7.3884593018e+02 7.3884593018e+02 0.0000000000e+00 0.0000e+00 -1.0000e+00
      -13  1    1    2    0    0 +9.7701212068e+01 -4.8213879801e+02 -5.1897339067e+02 7.1507812693e+02 0.0000000000e+00 0.0000e+00 -1.0000e+00
       13  1    1    2    0    0 -9.7701212068e+01 +4.8213879801e+02 +3.7482037807e+02 6.1846072083e+02 0.0000000000e+00 0.0000e+00 1.0000e+00
<mgrwt>
<rscale>  0 0.13257246E+04</rscale>
<asrwt>0</asrwt>
<pdfrwt beam="1">  1        2 0.91491218E-01 0.13257246E+04</pdfrwt>
<pdfrwt beam="2">  1       -2 0.11366860E+00 0.13257246E+04</pdfrwt>
<totfact> 0.36442375E+01</totfact>
</mgrwt>
<rwgt>
<wgt id='morphing_basis_vector_1'> +1.6070518e-04 </wgt>
<wgt id='morphing_basis_vector_2'> +1.0452479e-04 </wgt>
<wgt id='morphing_basis_vector_3'> +1.6387965e-04 </wgt>
<wgt id='morphing_basis_vector_4'> +1.0760460e-04 </wgt>
<wgt id='morphing_basis_vector_5'> +1.7170858e-04 </wgt>
</rwgt>
</event>
<event>
 4      1 +3.5234200e-07 1.35845000e+03 7.81860800e-03 8.40224200e-02
        2 -1    0    0  501    0 +0.0000000000e+00 +0.0000000000e+00 +1.2335170897e+03 1.2335170897e+03 0.0000000000e+00 0.0000e+00 -1.0000e+00
       -2 -1    0    0    0  501 -0.0000000000e+00 -0.0000000000e+00 -3.7400889490e+02 3.7400889490e+02 0.0000000000e+00 0.0000e+00 1.0000e+00
      -13  1    1    2    0    0 +1.2199171030e+02 +5.2992275807e+02 -5.1866739670e+01 5.4625110122e+02 0.0000000000e+00 0.0000e+00 1.0000e+00
       13  1    1    2    0    0 -1.2199171030e+02 -5.2992275807e+02 +9.1137493443e+02 1.0612748833e+03 0.0000000000e+00 0.0000e+00 -1.0000e+00
<mgrwt>
<rscale>  0 0.13584497E+04</rscale>
<asrwt>0</asrwt>
<pdfrwt beam="1">  1        2 0.18977186E+00 0.13584497E+04</pdfrwt>
<pdfrwt beam="2">  1       -2 0.57539831E-01 0.13584497E+04</pdfrwt>
<totfact> 0.63180360E+01</totfact>
</mgrwt>
<rwgt>
<wgt id='morphing_basis_vector_1'> +1.7658212e-04 </wgt>
<wgt id='morphing_basis_vector_2'> +1.1550416e-04 </wgt>
<wgt id='morphing_basis_vector_3'> +1.8079361e-04 </wgt>
<wgt id='morphing_basis_vector_4'> +1.1883338e-04 </wgt>
<wgt id='morphing_basis_vector_5'> +1.9012870e-04 </wgt>
</rwgt>
</event>
<event>
 4      1 +3.5234200e-07 1.39409800e+03 7.81860800e-03 8.37925300e-02
        2 -1    0    0  501    0 +0.0000000000e+00 +0.0000000000e+00 +1.4428884039e+03 1.4428884039e+03 0.0000000000e+00 0.0000e+00 -1.0000e+00
       -2 -1    0    0    0  501 -0.0000000000e+00 -0.0000000000e+00 -3.3673953427e+02 3.3673953427e+02 0.0000000000e+00 0.0000e+00 1.0000e+00
      -13  1    1    2    0    0 -3.7106219878e+02 -4.9610255815e+02 +1.4523377332e+02 6.3631576475e+02 0.0000000000e+00 0.0000e+00 1.0000e+00
       13  1    1    2    0    0 +3.7106219878e+02 +4.9610255815e+02 +9.6091509633e+02 1.1433121734e+03 0.0000000000e+00 0.0000e+00 -1.0000e+00
<mgrwt>
<rscale>  0 0.13940984E+04</rscale>
<asrwt>0</asrwt>
<pdfrwt beam="1">  1        2 0.22198283E+00 0.13940984E+04</pdfrwt>
<pdfrwt beam="2">  1       -2 0.51806083E-01 0.13940984E+04</pdfrwt>
<totfact> 0.59092935E+01</totfact>
</mgrwt>
<rwgt>
<wgt id='morphing_basis_vector_1'> +1.9559084e-04 </wgt>
<wgt id='morphing_basis_vector_2'> +1.2957652e-04 </wgt>
<wgt id='morphing_basis_vector_3'> +2.0116727e-04 </wgt>
<wgt id='morphing_basis_vector_4'> +1.3132460e-04 </wgt>
<wgt id='morphing_basis_vector_5'> +2.1176318e-04 </wgt>
</rwgt>
</event>
<event>
 4      1 +3.5234200e-07 1.31633000e+03 7.81860800e-03 8.43037200e-02
        2 -1    0    0  501    0 +0.0000000000e+00 +0.0000000000e+00 +1.9211218122e+03 1.9211218122e+03 0.0000000000e+00 0.0000e+00 -1.0000e+00
       -2 -1    0    0    0  501 -0.0000000000e+00 -0.0000000000e+00 -2.2548354354e+02 2.2548354354e+02 0.0000000000e+00 0.0000e+00 1.0000e+00
      -13  1    1    2    0    0 -4.8827679601e+02 -3.2981748004e+02 +3.6962402101e+02 6.9556862822e+02 0.0000000000e+00 0.0000e+00 1.0000e+00
       13  1    1    2    0    0 +4.8827679601e+02 +3.2981748004e+02 +1.3260142477e+03 1.4510367276e+03 0.0000000000e+00 0.0000e+00 -1.0000e+00
<mgrwt>
<rscale>  0 0.13163303E+04</rscale>
<asrwt>0</asrwt>
<pdfrwt beam="1">  1        2 0.29555719E+00 0.13163303E+04</pdfrwt>
<pdfrwt beam="2">  1       -2 0.34689777E-01 0.13163303E+04</pdfrwt>
<totfact> 0.68855126E+01</totfact>
</mgrwt>
<rwgt>
<wgt id='morphing_basis_vector_1'> +1.5706332e-04 </wgt>
<wgt id='morphing_basis_vector_2'> +1.0364357e-04 </wgt>
<wgt id='morphing_basis_vector_3'> +1.6011236e-04 </wgt>
<wgt id='morphing_basis_vector_4'> +1.0326690e-04 </wgt>
<wgt id='morphing_basis_vector_5'> +1.6658398e-04 </wgt>
</rwgt>
</event>
<event>
 4      1 +3.5234200e-07 1.37455000e+03 7.81860800e-03 8.39177000e-02
        2 -1    0    0  501    0 +0.0000000000e+00 +0.0000000000e+00 +1.0576124393e+03 1.0576124393e+03 0.0000000000e+00 0.0000e+00 1.0000e+00
       -2 -1    0    0    0  501 -0.0000000000e+00 -0.0000000000e+00 -4.4661597735e+02 4.4661597735e+02 0.0000000000e+00 0.0000e+00 -1.0000e+00
      -13  1    1    2    0    0 -6.1832226707e+02 -1.7697408790e+02 +4.0350101771e+01 6.4441476120e+02 0.0000000000e+00 0.0000e+00 -1.0000e+00
       13  1    1    2    0    0 +6.1832226707e+02 +1.7697408790e+02 +5.7064636022e+02 8.5981365550e+02 0.0000000000e+00 0.0000e+00 1.0000e+00
<mgrwt>
<rscale>  0 0.13745495E+04</rscale>
<asrwt>0</asrwt>
<pdfrwt beam="1">  1        2 0.16270961E+00 0.13745495E+04</pdfrwt>
<pdfrwt beam="2">  1       -2 0.68710151E-01 0.13745495E+04</pdfrwt>
<totfact> 0.55508273E+01</totfact>
</mgrwt>
<rwgt>
<wgt id='morphing_basis_vector_1'> +1.8592917e-04 </wgt>
<wgt id='morphing_basis_vector_2'> +1.2453582e-04 </wgt>
<wgt id='morphing_basis_vector_3'> +1.9096944e-04 </wgt>
<wgt id='morphing_basis_vector_4'> +1.2264819e-04 </wgt>
<wgt id='morphing_basis_vector_5'> +1.9956285e-04 </wgt>
</rwgt>
</event>
<event>
 4      1 +3.5234200e-07 1.48353900e+03 7.81860800e-03 8.32459000e-02
        2 -1    0    0  501    0 +0.0000000000e+00 +0.0000000000e+00 +1.1317910754e+03 1.1317910754e+03 0.0000000000e+00 0.0000e+00 -1.0000e+00
       -2 -1    0    0    0  501 -0.0000000000e+00 -0.0000000000e+00 -4.8615187192e+02 4.8615187192e+02 0.0000000000e+00 0.0000e+00 1.0000e+00
      -13  1    1    2    0    0 -2.6439637000e+02 -3.6811847699e+02 -3.1758037854e+02 5.5342022949e+02 0.0000000000e+00 0.0000e+00 1.0000e+00
       13  1    1    2    0    0 +2.6439637000e+02 +3.6811847699e+02 +9.6321958201e+02 1.0645227178e+03 0.0000000000e+00 0.0000e+00 -1.0000e+00
<mgrwt>
<rscale>  0 0.14835395E+04</rscale>
<asrwt>0</asrwt>
<pdfrwt beam="1">  1        2 0.17412170E+00 0.14835395E+04</pdfrwt>
<pdfrwt beam="2">  1       -2 0.74792596E-01 0.14835395E+04</pdfrwt>
<totfact> 0.41328602E+01</totfact>
</mgrwt>
<rwgt>
<wgt id='morphing_basis_vector_1'> +2.4722637e-04 </wgt>
<wgt id='morphing_basis_vector_2'> +1.6179718e-04 </wgt>
<wgt id='morphing_basis_vector_3'> +2.5617464e-04 </wgt>
<wgt id='morphing_basis_vector_4'> +1.7226796e-04 </wgt>
<wgt id='morphing_basis_vector_5'> +2.7442765e-04 </wgt>
</rwgt>
</event>
<event>
 4      1 +3.5234200e-07 1.50836700e+03 7.81860800e-03 8.31012200e-02
        2 -1    0    0  501    0 +0.0000000000e+00 +0.0000000000e+00 +6.3671193666e+02 6.3671193666e+02 0.0000000000e+00 0.0000e+00 1.0000e+00
       -2 -1    0    0    0  501 -0.0000000000e+00 -0.0000000000e+00 -8.9332832488e+02 8.9332832488e+02 0.0000000000e+00 0.0000e+00 -1.0000e+00
      -13  1    1    2    0    0 -2.6688901373e+02 -7.0389720347e+02 -1.7470144045e+02 7.7280114648e+02 0.0000000000e+00 0.0000e+00 -1.0000e+00
       13  1    1    2    0    0 +2.6688901373e+02 +7.0389720347e+02 -8.1914947767e+01 7.5723911506e+02 0.0000000000e+00 0.0000e+00 1.0000e+00
<mgrwt>
<rscale>  0 0.15083671E+04</rscale>
<asrwt>0</asrwt>
<pdfrwt beam="1">  1        2 0.97955682E-01 0.15083671E+04</pdfrwt>
<pdfrwt beam="2">  1       -2 0.13743513E+00 0.15083671E+04</pdfrwt>
<totfact> 0.20053897E+01</totfact>
</mgrwt>
<rwgt>
<wgt id='morphing_basis_vector_1'> +2.7110512e-04 </wgt>
<wgt id='morphing_basis_vector_2'> +1.9516760e-04 </wgt>
<wgt id='morphing_basis_vector_3'> +2.8358105e-04 </wgt>
<wgt id='morphing_basis_vector_4'> +1.7044471e-04 </wgt>
<wgt id='morphing_basis_vector_5'> +2.9293245e-04 </wgt>
</rwgt>
</event>
<event>
 4      1 +3.5234200e-07 1.35765200e+03 7.81860800e-03 8.40276500e-02
        2 -1    0    0  501    0 +0.0000000000e+00 +0.0000000000e+00 +1.6735217516e+03 1.6735217516e+03 0.0000000000e+00 0.0000e+00 1.0000e+00
       -2 -1    0    0    0  501 -0.0000000000e+00 -0.0000000000e+00 -2.7535024277e+02 2.7535024277e+02 0.0000000000e+00 0.0000e+00 -1.0000e+00
      -13  1    1    2    0    0 -5.4129141167e+02 -4.0900926252e+02 +7.3180859199e+02 9.9791221282e+02 0.0000000000e+00 0.0000e+00 -1.0000e+00
       13  1    1    2    0    0 +5.4129141167e+02 +4.0900926252e+02 +6.6636291679e+02 9.5095978151e+02 0.0000000000e+00 0.0000e+00 1.0000e+00
<mgrwt>
<rscale>  0 0.13576518E+04</rscale>
<asrwt>0</asrwt>
<pdfrwt beam="1">  1        2 0.25746488E+00 0.13576518E+04</pdfrwt>
<pdfrwt beam="2">  1       -2 0.42361577E-01 0.13576518E+04</pdfrwt>
<totfact> 0.65052767E+01</totfact>
</mgrwt>
<rwgt>
<wgt id='morphing_basis_vector_1'> +1.8292857e-04 </wgt>
<wgt id='morphing_basis_vector_2'> +1.3540274e-04 </wgt>
<wgt id='morphing_basis_vector_3'> +1.8872005e-04 </wgt>
<wgt id='morphing_basis_vector_4'> +1.0636562e-04 </wgt>
<wgt id='morphing_basis_vector_5'> +1.8878913e-04 </wgt>
</rwgt>
</event>
<event>
 4      1 +3.5234200e-07 1.29756800e+03 7.81860800e-03 8.44325900e-02
        2 -1    0    0  501    0 +0.0000000000e+00 +0.0000000000e+00 +1.0213544511e+03 1.0213544511e+03 0.0000000000e+00 0.0000e+00 1.0000e+00
       -2 -1    0    0    0  501 -0.0000000000e+00 -0.0000000000e+00 -4.1211999962e+02 4.1211999962e+02 0.0000000000e+00 0.0000e+00 -1.0000e+00
      -13  1    1    2    0    0 +3.1218410765e+02 +4.9706549208e+02 -7.1401026895e-01 5.8696978653e+02 0.0000000000e+00 0.0000e+00 -1.0000e+00
       13  1    1    2    0    0 -3.1218410765e+02 -4.9706549208e+02 +6.0994846174e+02 8.4650466418e+02 0.0000000000e+00 0.0000e+00 1.0000e+00
<mgrwt>
<rscale>  0 0.12975679E+04</rscale>
<asrwt>0</asrwt>
<pdfrwt beam="1">  1        2 0.15713145E+00 0.12975679E+04</pdfrwt>
<pdfrwt beam="2">  1       -2 0.63403077E-01 0.12975679E+04</pdfrwt>
<totfact> 0.69612887E+01</totfact>
</mgrwt>
<rwgt>
<wgt id='morphing_basis_vector_1'> +1.4877595e-04 </wgt>
<wgt id='morphing_basis_vector_2'> +9.8239639e-05 </wgt>
<wgt id='morphing_basis_vector_3'> +1.5131775e-04 </wgt>
<wgt id='morphing_basis_vector_4'> +9.7095974e-05 </wgt>
<wgt id='morphing_basis_vector_5'> +1.5683977e-04 </wgt>
</rwgt>
</event>
<event>
 4      1 +3.5234200e-07 1.45578500e+03 7.81860800e-03 8.34111500e-02
        2 -1    0    0  501    0 +0.0000000000e+00 +0.0000000000e+00 +1.5361548907e+03 1.5361548907e+03 0.0000000000e+00 0.0000e+00 -1.0000e+00
       -2 -1    0    0    0  501 -0.0000000000e+00 -0.0000000000e+00 -3.4490490614e+02 3.4490490614e+02 0.0000000000e+00 0.0000e+00 1.0000e+00
      -13  1    1    2    0    0 -3.7357205130e+02 -1.3121414790e+01 -2.1141098401e+02 4.2944481973e+02 0.0000000000e+00 0.0000e+00 1.0000e+00
       13  1    1    2    0    0 +3.7357205130e+02 +1.3121414790e+01 +1.4026609686e+03 1.4516149772e+03 0.0000000000e+00 0.0000e+00 -1.0000e+00
<mgrwt>
<rscale>  0 0.14557848E+04</rscale>
<asrwt>0</asrwt>
<pdfrwt beam="1">  1        2 0.23633152E+00 0.14557848E+04</pdfrwt>
<pdfrwt beam="2">  1       -2 0.53062294E-01 0.14557848E+04</pdfrwt>
<totfact> 0.49715898E+01</totfact>
</mgrwt>
<rwgt>
<wgt id='morphing_basis_vector_1'> +2.2980503e-04 </wgt>
<wgt id='morphing_basis_vector_2'> +1.5000082e-04 </wgt>
<wgt id='morphing_basis_vector_3'> +2.3751173e-04 </wgt>
<wgt id='morphing_basis_vector_4'> +1.5942772e-04 </wgt>
<wgt id='morphing_basis_vector_5'> +2.5374083e-04 </wgt>
</rwgt>
</event>
<event>
 4      1 +3.5234200e-07 1.39174200e+03 7.81860800e-03 8.38075100e-02
        2 -1    0    0  501    0 +0.0000000000e+00 +0.0000000000e+00 +6.8040520580e+02 6.8040520580e+02 0.0000000000e+00 0.0000e+00 -1.0000e+00
       -2 -1    0    0    0  501 -0.0000000000e+00 -0.0000000000e+00 -7.1168837161e+02 7.1168837161e+02 0.0000000000e+00 0.0000e+00 1.0000e+00
      -13  1    1    2    0    0 -5.4902921053e+02 +2.9261230635e+02 -3.2745969936e+02 7.0305397414e+02 0.0000000000e+00 0.0000e+00 1.0000e+00
       13  1    1    2    0    0 +5.4902921053e+02 -2.9261230635e+02 +2.9617653356e+02 6.8903960327e+02 0.0000000000e+00 0.0000e+00 -1.0000e+00
<mgrwt>
<rscale>  0 0.13917420E+04</rscale>
<asrwt>0</asrwt>
<pdfrwt beam="1">  1        2 0.10467772E+00 0.13917420E+04</pdfrwt>
<pdfrwt beam="2">  1       -2 0.10949052E+00 0.13917420E+04</pdfrwt>
<totfact> 0.33917359E+01</totfact>
</mgrwt>
<rwgt>
<wgt id='morphing_basis_vector_1'> +1.9438105e-04 </wgt>
<wgt id='morphing_basis_vector_2'> +1.2888572e-04 </wgt>
<wgt id='morphing_basis_vector_3'> +1.9988560e-04 </wgt>
<wgt id='morphing_basis_vector_4'> +1.3030199e-04 </wgt>
<wgt id='morphing_basis_vector_5'> +2.1026741e-04 </wgt>
</rwgt>
</event>
<event>
 4      1 +3.5234200e-07 1.30515000e+03 7.81860800e-03 8.43802300e-02
        2 -1    0    0  501    0 +0.0000000000e+00 +0.0000000000e+00 +1.2142777868e+03 1.2142777868e+03 0.0000000000e+00 0.0000e+00 1.0000e+00
       -2 -1    0    0    0  501 -0.0000000000e+00 -0.0000000000e+00 -3.5070581306e+02 3.5070581306e+02 0.0000000000e+00 0.0000e+00 -1.0000e+00
      -13  1    1    2    0    0 -5.1832599882e+02 -1.0726733178e+02 +8.8946229479e+02 1.0350416877e+03 0.0000000000e+00 0.0000e+00 1.0000e+00
       13  1    1    2    0    0 +5.1832599882e+02 +1.0726733178e+02 -2.5890321025e+01 5.2994191214e+02 0.0000000000e+00 0.0000e+00 -1.0000e+00
<mgrwt>
<rscale>  0 0.13051502E+04</rscale>
<asrwt>0</asrwt>
<pdfrwt beam="1">  1        2 0.18681196E+00 0.13051502E+04</pdfrwt>
<pdfrwt beam="2">  1       -2 0.53954741E-01 0.13051502E+04</pdfrwt>
<totfact> 0.74113196E+01</totfact>
</mgrwt>
<rwgt>
<wgt id='morphing_basis_vector_1'> +1.8532612e-04 </wgt>
<wgt id='morphing_basis_vector_2'> +1.9993814e-04 </wgt>
<wgt id='morphing_basis_vector_3'> +1.9493198e-04 </wgt>
<wgt id='morphing_basis_vector_4'> +4.0416908e-05 </wgt>
<wgt id='morphing_basis_vector_5'> +1.5655072e-04 </wgt>
</rwgt>
</event>
<event>
 4      1 +3.5234200e-07 1.41902700e+03 7.81860800e-03 8.36359800e-02
        2 -1    0    0  501    0 +0.0000000000e+00 +0.0000000000e+00 +9.8728857063e+02 9.8728857063e+02 0.0000000000e+00 0.0000e+00 1.0000e+00
       -2 -1    0    0    0  501 -0.0000000000e+00 -0.0000000000e+00 -5.0989097071e+02 5.0989097071e+02 0.0000000000e+00 0.0000e+00 -1.0000e+00
      -13  1    1    2    0    0 +1.5947470733e+01 +5.7041752707e+02 -2.0616130930e+02 6.0673961669e+02 0.0000000000e+00 0.0000e+00 -1.0000e+00
       13  1    1    2    0    0 -1.5947470733e+01 -5.7041752707e+02 +6.8355890922e+02 8.9043992464e+02 0.0000000000e+00 0.0000e+00 1.0000e+00
<mgrwt>
<rscale>  0 0.14190272E+04</rscale>
<asrwt>0</asrwt>
<pdfrwt beam="1">  1        2 0.15189055E+00 0.14190272E+04</pdfrwt>
<pdfrwt beam="2">  1       -2 0.78444765E-01 0.14190272E+04</pdfrwt>
<totfact> 0.45764685E+01</totfact>
</mgrwt>
<rwgt>
<wgt id='morphing_basis_vector_1'> +2.0876620e-04 </wgt>
<wgt id='morphing_basis_vector_2'> +1.3711987e-04 </wgt>
<wgt id='morphing_basis_vector_3'> +2.1512925e-04 </wgt>
<wgt id='morphing_basis_vector_4'> +1.4246852e-04 </wgt>
<wgt id='morphing_basis_vector_5'> +2.2807200e-04 </wgt>
</rwgt>
</event>
<event>
 4      1 +3.5234200e-07 1.30285400e+03 7.81860800e-03 8.43960500e-02
        2 -1    0    0  501    0 +0.0000000000e+00 +0.0000000000e+00 +5.6283593330e+02 5.6283593330e+02 0.0000000000e+00 0.0000e+00 1.0000e+00
       -2 -1    0    0    0  501 -0.0000000000e+00 -0.0000000000e+00 -7.5396213958e+02 7.5396213958e+02 0.0000000000e+00 0.0000e+00 -1.0000e+00
      -13  1    1    2    0    0 +4.5035167593e+02 +3.5765397989e+02 -4.0481834259e+02 7.0328578249e+02 0.0000000000e+00 0.0000e+00 -1.0000e+00
       13  1    1    2    0    0 -4.5035167593e+02 -3.5765397989e+02 +2.1369213631e+02 6.1351229040e+02 0.0000000000e+00 0.0000e+00 1.0000e+00
<mgrwt>
<rscale>  0 0.13028538E+04</rscale>
<asrwt>0</asrwt>
<pdfrwt beam="1">  1        2 0.86590144E-01 0.13028538E+04</pdfrwt>
<pdfrwt beam="2">  1       -2 0.11599417E+00 0.13028538E+04</pdfrwt>
<totfact> 0.36976079E+01</totfact>
</mgrwt>
<rwgt>
<wgt id='morphing_basis_vector_1'> +1.5091499e-04 </wgt>
<wgt id='morphing_basis_vector_2'> +9.9257269e-05 </wgt>
<wgt id='morphing_basis_vector_3'> +1.5356367e-04 </wgt>
<wgt id='morphing_basis_vector_4'> +9.9092571e-05 </wgt>
<wgt id='morphing_basis_vector_5'> +1.5956139e-04 </wgt>
</rwgt>
</event>
<event>
 4      1 +3.5234200e-07 1.34465900e+03 7.81860800e-03 8.41133400e-02
        2 -1    0    0  501    0 +0.0000000000e+00 +0.0000000000e+00 +9.4899409233e+02 9.4899409233e+02 0.0000000000e+00 0.0000e+00 -1.0000e+00
       -2 -1    0    0    0  501 -0.0000000000e+00 -0.0000000000e+00 -4.7632198395e+02 4.7632198395e+02 0.0000000000e+00 0.0000e+00 1.0000e+00
      -13  1    1    2    0    0 +2.8469700123e+02 -1.4971293063e+02 -3.8946767386e+02 5.0512514596e+02 0.0000000000e+00 0.0000e+00 1.0000e+00
       13  1    1    2    0    0 -2.8469700123e+02 +1.4971293063e+02 +8.6213978224e+02 9.2019093031e+02 0.0000000000e+00 0.0000e+00 -1.0000e+00
<mgrwt>
<rscale>  0 0.13446587E+04</rscale>
<asrwt>0</asrwt>
<pdfrwt beam="1">  1        2 0.14599909E+00 0.13446587E+04</pdfrwt>
<pdfrwt beam="2">  1       -2 0.73280305E-01 0.13446587E+04</pdfrwt>
<totfact> 0.56599661E+01</totfact>
</mgrwt>
<rwgt>
<wgt id='morphing_basis_vector_1'> +1.6942302e-04 </wgt>
<wgt id='morphing_basis_vector_2'> +1.0979153e-04 </wgt>
<wgt id='morphing_basis_vector_3'> +1.7310741e-04 </wgt>
<wgt id='morphing_basis_vector_4'> +1.1459355e-04 </wgt>
<wgt id='morphing_basis_vector_5'> +1.8223921e-04 </wgt>
</rwgt>
</event>
<event>
 4      1 +3.5234200e-07 1.50525400e+03 7.81860800e-03 8.31192000e-02
        2 -1    0    0  501    0 +0.0000000000e+00 +0.0000000000e+00 +2.2634487236e+03 2.2634487236e+03 0.0000000000e+00 0.0000e+00 1.0000e+00
       -2 -1    0    0    0  501 -0.0000000000e+00 -0.0000000000e+00 -2.5025865936e+02 2.5025865936e+02 0.0000000000e+00 0.0000e+00 -1.0000e+00
      -13  1    1    2    0    0 +4.0345995832e+02 -1.2985117984e+02 -3.2012936213e+01 4.2504834426e+02 0.0000000000e+00 0.0000e+00 -1.0000e+00
       13  1    1    2    0    0 -4.0345995832e+02 +1.2985117984e+02 +2.0452030005e+03 2.0886590387e+03 0.0000000000e+00 0.0000e+00 1.0000e+00
<mgrwt>
<rscale>  0 0.15052543E+04</rscale>
<asrwt>0</asrwt>
<pdfrwt beam="1">  1        2 0.34822287E+00 0.15052543E+04</pdfrwt>
<pdfrwt beam="2">  1       -2 0.38501334E-01 0.15052543E+04</pdfrwt>
<totfact> 0.35845976E+01</totfact>
</mgrwt>
<rwgt>
<wgt id='morphing_basis_vector_1'> +2.6143309e-04 </wgt>
<wgt id='morphing_basis_vector_2'> +1.7118047e-04 </wgt>
<wgt id='morphing_basis_vector_3'> +2.7138701e-04 </wgt>
<wgt id='morphing_basis_vector_4'> +1.8303857e-04 </wgt>
<wgt id='morphing_basis_vector_5'> +2.9147880e-04 </wgt>
</rwgt>
</event>
<event>
 4      1 +3.5234200e-07 1.33688500e+03 7.81860800e-03 8.41650900e-02
        2 -1    0    0  501    0 +0.0000000000e+00 +0.0000000000e+00 +8.7164973117e+02 8.7164973117e+02 0.0000000000e+00 0.0000e+00 -1.0000e+00
       -2 -1    0    0    0  501 -0.0000000000e+00 -0.0000000000e+00 -5.1260901902e+02 5.1260901902e+02 0.0000000000e+00 0.0000e+00 1.0000e+00
      -13  1    1    2    0    0 -6.5115893566e+02 +1.4333367525e+02 +2.2877719721e+02 7.0490531841e+02 0.0000000000e+00 0.0000e+00 1.0000e+00
       13  1    1    2    0    0 +6.5115893566e+02 -1.4333367525e+02 +1.3026351494e+02 6.7935343178e+02 0.0000000000e+00 0.0000e+00 -1.0000e+00
<mgrwt>
<rscale>  0 0.13368852E+04</rscale>
<asrwt>0</asrwt>
<pdfrwt beam="1">  1        2 0.13409996E+00 0.13368852E+04</pdfrwt>
<pdfrwt beam="2">  1       -2 0.78862926E-01 0.13368852E+04</pdfrwt>
<totfact> 0.54039675E+01</totfact>
</mgrwt>
<rwgt>
<wgt id='morphing_basis_vector_1'> +1.7341068e-04 </wgt>
<wgt id='morphing_basis_vector_2'> +1.3037177e-04 </wgt>
<wgt id='morphing_basis_vector_3'> +1.7860236e-04 </wgt>
<wgt id='morphing_basis_vector_4'> +9.8021732e-05 </wgt>
<wgt id='morphing_basis_vector_5'> +1.7688559e-04 </wgt>
</rwgt>
</event>
<event>
 4      1 +3.5234200e-07 1.32619100e+03 7.81860800e-03 8.42368900e-02
        2 -1    0    0  501    0 +0.0000000000e+00 +0.0000000000e+00 +1.1203625473e+03 1.1203625473e+03 0.0000000000e+00 0.0000e+00 1.0000e+00
       -2 -1    0    0    0  501 -0.0000000000e+00 -0.0000000000e+00 -3.9245806730e+02 3.9245806730e+02 0.0000000000e+00 0.0000e+00 -1.0000e+00
      -13  1    1    2    0    0 -4.4548087742e+02 +4.8678225099e+02 +2.8927909748e+02 7.2048078966e+02 0.0000000000e+00 0.0000e+00 -1.0000e+00
       13  1    1    2    0    0 +4.4548087742e+02 -4.8678225099e+02 +4.3862538257e+02 7.9233982499e+02 0.0000000000e+00 0.0000e+00 1.0000e+00
<mgrwt>
<rscale>  0 0.13261905E+04</rscale>
<asrwt>0</asrwt>
<pdfrwt beam="1">  1        2 0.17236347E+00 0.13261905E+04</pdfrwt>
<pdfrwt beam="2">  1       -2 0.60378165E-01 0.13261905E+04</pdfrwt>
<totfact> 0.66909938E+01</totfact>
</mgrwt>
<rwgt>
<wgt id='morphing_basis_vector_1'> +1.6471586e-04 </wgt>
<wgt id='morphing_basis_vector_2'> +1.1602548e-04 </wgt>
<wgt id='morphing_basis_vector_3'> +1.6873693e-04 </wgt>
<wgt id='morphing_basis_vector_4'> +1.0096961e-04 </wgt>
<wgt id='morphing_basis_vector_5'> +1.7147871e-04 </wgt>
</rwgt>
</event>
<event>
 4      1 +3.5234200e-07 1.49541400e+03 7.81860800e-03 8.31763400e-02
        2 -1    0    0  501    0 +0.0000000000e+00 +0.0000000000e+00 +2.0320893279e+03 2.0320893279e+03 0.0000000000e+00 0.0000e+00 -1.0000e+00
       -2 -1    0    0    0  501 -0.0000000000e+00 -0.0000000000e+00 -2.7511867574e+02 2.7511867574e+02 0.0000000000e+00 0.0000e+00 1.0000e+00
      -13  1    1    2    0    0 +6.7883649263e+01 +4.1590319225e+02 -7.4447714602e+01 4.2793237476e+02 0.0000000000e+00 0.0000e+00 1.0000e+00
       13  1    1    2    0    0 -6.7883649263e+01 -4.1590319225e+02 +1.8314183667e+03 1.8792756289e+03 0.0000000000e+00 0.0000e+00 -1.0000e+00
<mgrwt>
<rscale>  0 0.14954140E+04</rscale>
<asrwt>0</asrwt>
<pdfrwt beam="1">  1        2 0.31262912E+00 0.14954140E+04</pdfrwt>
<pdfrwt beam="2">  1       -2 0.42325951E-01 0.14954140E+04</pdfrwt>
<totfact> 0.40661286E+01</totfact>
</mgrwt>
<rwgt>
<wgt id='morphing_basis_vector_1'> +2.5490010e-04 </wgt>
<wgt id='morphing_basis_vector_2'> +1.6681820e-04 </wgt>
<wgt id='morphing_basis_vector_3'> +2.6438510e-04 </wgt>
<wgt id='morphing_basis_vector_4'> +1.7813550e-04 </wgt>
<wgt id='morphing_basis_vector_5'> +2.8366022e-04 </wgt>
</rwgt>
</event>
<event>
 4      1 +3.5234200e-07 1.52890900e+03 7.81860800e-03 8.29836700e-02
        2 -1    0    0  501    0 +0.0000000000e+00 +0.0000000000e+00 +1.3627717603e+03 1.3627717603e+03 0.0000000000e+00 0.0000e+00 -1.0000e+00
       -2 -1    0    0    0  501 -0.0000000000e+00 -0.0000000000e+00 -4.2882497265e+02 4.2882497265e+02 0.0000000000e+00 0.0000e+00 1.0000e+00
      -13  1    1    2    0    0 +3.3051674386e+02 -2.5418279884e+02 -2.8384792082e+02 5.0440049103e+02 0.0000000000e+00 0.0000e+00 1.0000e+00
       13  1    1    2    0    0 -3.3051674386e+02 +2.5418279884e+02 +1.2177947085e+03 1.2871962419e+03 0.0000000000e+00 0.0000e+00 -1.0000e+00
<mgrwt>
<rscale>  0 0.15289088E+04</rscale>
<asrwt>0</asrwt>
<pdfrwt beam="1">  1        2 0.20965719E+00 0.15289088E+04</pdfrwt>
<pdfrwt beam="2">  1       -2 0.65973073E-01 0.15289088E+04</pdfrwt>
<totfact> 0.39614222E+01</totfact>
</mgrwt>
<rwgt>
<wgt id='morphing_basis_vector_1'> +2.7764371e-04 </wgt>
<wgt id='morphing_basis_vector_2'> +1.8197868e-04 </wgt>
<wgt id='morphing_basis_vector_3'> +2.8877047e-04 </wgt>
<wgt id='morphing_basis_vector_4'> +1.9525929e-04 </wgt>
<wgt id='morphing_basis_vector_5'> +3.1092816e-04 </wgt>
</rwgt>
</event>
<event>
 4      1 +3.5234200e-07 1.47275800e+03 7.81860800e-03 8.33096400e-02
        2 -1    0    0  501    0 +0.0000000000e+00 +0.0000000000e+00 +1.4548230000e+03 1.4548230000e+03 0.0000000000e+00 0.0000e+00 1.0000e+00
       -2 -1    0    0    0  501 -0.0000000000e+00 -0.0000000000e+00 -3.7272865475e+02 3.7272865475e+02 0.0000000000e+00 0.0000e+00 -1.0000e+00
      -13  1    1    2    0    0 -6.3249396066e+02 +3.6432512743e+02 +6.6182233495e+02 9.8528686776e+02 0.0000000000e+00 0.0000e+00 1.0000e+00
       13  1    1    2    0    0 +6.3249396066e+02 -3.6432512743e+02 +4.2027201028e+02 8.4226478697e+02 0.0000000000e+00 0.0000e+00 -1.0000e+00
<mgrwt>
<rscale>  0 0.14727583E+04</rscale>
<asrwt>0</asrwt>
<pdfrwt beam="1">  1        2 0.22381892E+00 0.14727583E+04</pdfrwt>
<pdfrwt beam="2">  1       -2 0.57342870E-01 0.14727583E+04</pdfrwt>
<totfact> 0.47166078E+01</totfact>
</mgrwt>
<rwgt>
<wgt id='morphing_basis_vector_1'> +2.5413718e-04 </wgt>
<wgt id='morphing_basis_vector_2'> +1.9827319e-04 </wgt>
<wgt id='morphing_basis_vector_3'> +2.6668933e-04 </wgt>
<wgt id='morphing_basis_vector_4'> +1.4159752e-04 </wgt>
<wgt id='morphing_basis_vector_5'> +2.6436103e-04 </wgt>
</rwgt>
</event>
<event>
 4      1 +3.5234200e-07 1.54191900e+03 7.81860800e-03 8.29102100e-02
        2 -1    0    0  501    0 +0.0000000000e+00 +0.0000000000e+00 +1.8357237148e+03 1.8357237148e+03 0.0000000000e+00 0.0000e+00 -1.0000e+00
       -2 -1    0    0    0  501 -0.0000000000e+00 -0.0000000000e+00 -3.2378444497e+02 3.2378444497e+02 0.0000000000e+00 0.0000e+00 1.0000e+00
      -13  1    1    2    0    0 +1.4326092119e+02 -4.8044566583e+02 -6.4301428616e+01 5.0545662829e+02 0.0000000000e+00 0.0000e+00 1.0000e+00
       13  1    1    2    0    0 -1.4326092119e+02 +4.8044566583e+02 +1.5762406985e+03 1.6540515315e+03 0.0000000000e+00 0.0000e+00 -1.0000e+00
<mgrwt>
<rscale>  0 0.15419193E+04</rscale>
<asrwt>0</asrwt>
<pdfrwt beam="1">  1        2 0.28241903E+00 0.15419193E+04</pdfrwt>
<pdfrwt beam="2">  1       -2 0.49812993E-01 0.15419193E+04</pdfrwt>
<totfact> 0.38108417E+01</totfact>
</mgrwt>
<rwgt>
<wgt id='morphing_basis_vector_1'> +2.8701255e-04 </wgt>
<wgt id='morphing_basis_vector_2'> +1.8853120e-04 </wgt>
<wgt id='morphing_basis_vector_3'> +2.9885859e-04 </wgt>
<wgt id='morphing_basis_vector_4'> +2.0198203e-04 </wgt>
<wgt id='morphing_basis_vector_5'> +3.2200832e-04 </wgt>
</rwgt>
</event>
<event>
 4      1 +3.5234200e-07 1.42110500e+03 7.81860800e-03 8.36230900e-02
        2 -1    0    0  501    0 +0.0000000000e+00 +0.0000000000e+00 +1.7679405380e+03 1.7679405380e+03 0.0000000000e+00 0.0000e+00 -1.0000e+00
       -2 -1    0    0    0  501 -0.0000000000e+00 -0.0000000000e+00 -2.8557792919e+02 2.8557792919e+02 0.0000000000e+00 0.0000e+00 1.0000e+00
      -13  1    1    2    0    0 +6.6039615268e+02 +2.6031232386e+02 +6.9550388259e+02 9.9378631261e+02 0.0000000000e+00 0.0000e+00 1.0000e+00
       13  1    1    2    0    0 -6.6039615268e+02 -2.6031232386e+02 +7.8685872623e+02 1.0597321546e+03 0.0000000000e+00 0.0000e+00 -1.0000e+00
<mgrwt>
<rscale>  0 0.14211049E+04</rscale>
<asrwt>0</asrwt>
<pdfrwt beam="1">  1        2 0.27199084E+00 0.14211049E+04</pdfrwt>
<pdfrwt beam="2">  1       -2 0.43935067E-01 0.14211049E+04</pdfrwt>
<totfact> 0.53522464E+01</totfact>
</mgrwt>
<rwgt>
<wgt id='morphing_basis_vector_1'> +2.1586535e-04 </wgt>
<wgt id='morphing_basis_vector_2'> +1.5559229e-04 </wgt>
<wgt id='morphing_basis_vector_3'> +2.2392128e-04 </wgt>
<wgt id='morphing_basis_vector_4'> +1.3247251e-04 </wgt>
<wgt id='morphing_basis_vector_5'> +2.2867325e-04 </wgt>
</rwgt>
</event>
<event>
 4      1 +3.5234200e-07 1.39667600e+03 7.81860800e-03 8.37761900e-02
        2 -1    0    0  501    0 +0.0000000000e+00 +0.0000000000e+00 +3.2030123398e+03 3.2030123398e+03 0.0000000000e+00 0.0000e+00 -1.0000e+00
       -2 -1    0    0    0  501 -0.0000000000e+00 -0.0000000000e+00 -1.5225542070e+02 1.5225542070e+02 0.0000000000e+00 0.0000e+00 1.0000e+00
      -13  1    1    2    0    0 -4.1676598282e+02 -3.9652235614e+02 +5.7425208859e+02 8.1282797971e+02 0.0000000000e+00 0.0000e+00 1.0000e+00
       13  1    1    2    0    0 +4.1676598282e+02 +3.9652235614e+02 +2.4765048305e+03 2.5424397808e+03 0.0000000000e+00 0.0000e+00 -1.0000e+00
<mgrwt>
<rscale>  0 0.13966760E+04</rscale>
<asrwt>0</asrwt>
<pdfrwt beam="1">  1        2 0.49277108E+00 0.13966760E+04</pdfrwt>
<pdfrwt beam="2">  1       -2 0.23423913E-01 0.13966760E+04</pdfrwt>
<totfact> 0.22968142E+01</totfact>
</mgrwt>
<rwgt>
<wgt id='morphing_basis_vector_1'> +1.9650818e-04 </wgt>
<wgt id='morphing_basis_vector_2'> +1.2910257e-04 </wgt>
<wgt id='morphing_basis_vector_3'> +2.0205650e-04 </wgt>
<wgt id='morphing_basis_vector_4'> +1.3320268e-04 </wgt>
<wgt id='morphing_basis_vector_5'> +2.1346302e-04 </wgt>
</rwgt>
</event>
<event>
 4      1 +3.5234200e-07 1.37413500e+03 7.81860800e-03 8.39203700e-02
        2 -1    0    0  501    0 +0.0000000000e+00 +0.0000000000e+00 +3.1900806946e+03 3.1900806946e+03 0.0000000000e+00 0.0000e+00 -1.0000e+00
       -2 -1    0    0    0  501 -0.0000000000e+00 -0.0000000000e+00 -1.4797808804e+02 1.4797808804e+02 0.0000000000e+00 0.0000e+00 1.0000e+00
      -13  1    1    2    0    0 -6.7511941254e+02 +7.4605819071e+01 +1.7724453400e+03 1.8981345402e+03 0.0000000000e+00 0.0000e+00 1.0000e+00
       13  1    1    2    0    0 +6.7511941254e+02 -7.4605819071e+01 +1.2696572665e+03 1.4399242424e+03 0.0000000000e+00 0.0000e+00 -1.0000e+00
<mgrwt>
<rscale>  0 0.13741354E+04</rscale>
<asrwt>0</asrwt>
<pdfrwt beam="1">  1        2 0.49078160E+00 0.13741354E+04</pdfrwt>
<pdfrwt beam="2">  1       -2 0.22765862E-01 0.13741354E+04</pdfrwt>
<totfact> 0.24653992E+01</totfact>
</mgrwt>
<rwgt>
<wgt id='morphing_basis_vector_1'> +1.9537692e-04 </wgt>
<wgt id='morphing_basis_vector_2'> +1.5327058e-04 </wgt>
<wgt id='morphing_basis_vector_3'> +2.0279298e-04 </wgt>
<wgt id='morphing_basis_vector_4'> +1.0497013e-04 </wgt>
<wgt id='morphing_basis_vector_5'> +1.9804939e-04 </wgt>
</rwgt>
</event>
<event>
 4      1 +3.5234200e-07 1.48057100e+03 7.81860800e-03 8.32633900e-02
        2 -1    0    0  501    0 +0.0000000000e+00 +0.0000000000e+00 +1.6952498911e+03 1.6952498911e+03 0.0000000000e+00 0.0000e+00 1.0000e+00
       -2 -1    0    0    0  501 -0.0000000000e+00 -0.0000000000e+00 -3.2326949753e+02 3.2326949753e+02 0.0000000000e+00 0.0000e+00 -1.0000e+00
      -13  1    1    2    0    0 -6.0721650415e+02 +1.4931528416e+02 +1.4576459159e+02 6.4207028677e+02 0.0000000000e+00 0.0000e+00 -1.0000e+00
       13  1    1    2    0    0 +6.0721650415e+02 -1.4931528416e+02 +1.2262158020e+03 1.3764491019e+03 0.0000000000e+00 0.0000e+00 1.0000e+00
<mgrwt>
<rscale>  0 0.14805709E+04</rscale>
<asrwt>0</asrwt>
<pdfrwt beam="1">  1        2 0.26080767E+00 0.14805709E+04</pdfrwt>
<pdfrwt beam="2">  1       -2 0.49733770E-01 0.14805709E+04</pdfrwt>
<totfact> 0.45991251E+01</totfact>
</mgrwt>
<rwgt>
<wgt id='morphing_basis_vector_1'> +2.4608772e-04 </wgt>
<wgt id='morphing_basis_vector_2'> +1.6280253e-04 </wgt>
<wgt id='morphing_basis_vector_3'> +2.5513039e-04 </wgt>
<wgt id='morphing_basis_vector_4'> +1.6942612e-04 </wgt>
<wgt id='morphing_basis_vector_5'> +2.7205154e-04 </wgt>
</rwgt>
</event>
<event>
 4      1 +3.5234200e-07 1.51999200e+03 7.81860800e-03 8.30344600e-02
        2 -1    0    0  501    0 +0.0000000000e+00 +0.0000000000e+00 +7.1449391988e+02 7.1449391988e+02 0.0000000000e+00 0.0000e+00 -1.0000e+00
       -2 -1    0    0    0  501 -0.0000000000e+00 -0.0000000000e+00 -8.0839566605e+02 8.0839566605e+02 0.0000000000e+00 0.0000e+00 1.0000e+00
      -13  1    1    2    0    0 +5.4730271807e+02 +4.4529574407e+02 -3.2991667847e+02 7.7889253407e+02 0.0000000000e+00 0.0000e+00 1.0000e+00
       13  1    1    2    0    0 -5.4730271807e+02 -4.4529574407e+02 +2.3601493230e+02 7.4399705185e+02 0.0000000000e+00 0.0000e+00 -1.0000e+00
<mgrwt>
<rscale>  0 0.15199918E+04</rscale>
<asrwt>0</asrwt>
<pdfrwt beam="1">  1        2 0.10992214E+00 0.15199918E+04</pdfrwt>
<pdfrwt beam="2">  1       -2 0.12436856E+00 0.15199918E+04</pdfrwt>
<totfact> 0.22785965E+01</totfact>
</mgrwt>
<rwgt>
<wgt id='morphing_basis_vector_1'> +2.7360157e-04 </wgt>
<wgt id='morphing_basis_vector_2'> +1.8427320e-04 </wgt>
<wgt id='morphing_basis_vector_3'> +2.8496295e-04 </wgt>
<wgt id='morphing_basis_vector_4'> +1.8654544e-04 </wgt>
<wgt id='morphing_basis_vector_5'> +3.0318614e-04 </wgt>
</rwgt>
</event>
<event>
 4      1 +3.5234200e-07 1.48677100e+03 7.81860800e-03 8.32269000e-02
        2 -1    0    0  501    0 +0.0000000000e+00 +0.0000000000e+00 +5.3608890542e+02 5.3608890542e+02 0.0000000000e+00 0.0000e+00 1.0000e+00
       -2 -1    0    0    0  501 -0.0000000000e+00 -0.0000000000e+00 -1.0308405338e+03 1.0308405338e+03 0.0000000000e+00 0.0000e+00 -1.0000e+00
      -13  1    1    2    0    0 +6.8087753525e+02 +1.1619898682e+02 +4.2260369846e+01 6.9201326679e+02 0.0000000000e+00 0.0000e+00 1.0000e+00
       13  1    1    2    0    0 -6.8087753525e+02 -1.1619898682e+02 -5.3701199825e+02 8.7491617245e+02 0.0000000000e+00 0.0000e+00 -1.0000e+00
<mgrwt>
<rscale>  0 0.14867712E+04</rscale>
<asrwt>0</asrwt>
<pdfrwt beam="1">  1        2 0.82475216E-01 0.14867712E+04</pdfrwt>
<pdfrwt beam="2">  1       -2 0.15859085E+00 0.14867712E+04</pdfrwt>
<totfact> 0.16369244E+01</totfact>
</mgrwt>
<rwgt>
<wgt id='morphing_basis_vector_1'> +2.8046445e-04 </wgt>
<wgt id='morphing_basis_vector_2'> +2.5608331e-04 </wgt>
<wgt id='morphing_basis_vector_3'> +2.9901351e-04 </wgt>
<wgt id='morphing_basis_vector_4'> +1.1584834e-04 </wgt>
<wgt id='morphing_basis_vector_5'> +2.7262694e-04 </wgt>
</rwgt>
</event>
<event>
 4      1 +3.5234200e-07 1.42033800e+03 7.81860800e-03 8.36278400e-02
        2 -1    0    0  501    0 +0.0000000000e+00 +0.0000000000e+00 +1.2799984953e+03 1.2799984953e+03 0.0000000000e+00 0.0000e+00 -1.0000e+00
       -2 -1    0    0    0  501 -0.0000000000e+00 -0.0000000000e+00 -3.9401623698e+02 3.9401623698e+02 0.0000000000e+00 0.0000e+00 1.0000e+00
      -13  1    1    2    0    0 +1.1469509290e+02 -6.4645256342e+02 +1.2393066644e+02 6.6814271766e+02 0.0000000000e+00 0.0000e+00 1.0000e+00
       13  1    1    2    0    0 -1.1469509290e+02 +6.4645256342e+02 +7.6205159187e+02 1.0058720146e+03 0.0000000000e+00 0.0000e+00 -1.0000e+00
<mgrwt>
<rscale>  0 0.14203383E+04</rscale>
<asrwt>0</asrwt>
<pdfrwt beam="1">  1        2 0.19692284E+00 0.14203383E+04</pdfrwt>
<pdfrwt beam="2">  1       -2 0.60617883E-01 0.14203383E+04</pdfrwt>
<totfact> 0.53132237E+01</totfact>
</mgrwt>
<rwgt>
<wgt id='morphing_basis_vector_1'> +2.1061969e-04 </wgt>
<wgt id='morphing_basis_vector_2'> +1.4093632e-04 </wgt>
<wgt id='morphing_basis_vector_3'> +2.1733571e-04 </wgt>
<wgt id='morphing_basis_vector_4'> +1.4097784e-04 </wgt>
<wgt id='morphing_basis_vector_5'> +2.2880195e-04 </wgt>
</rwgt>
</event>
<event>
 4      1 +3.5234200e-07 1.49745900e+03 7.81860800e-03 8.31644300e-02
        2 -1    0    0  501    0 +0.0000000000e+00 +0.0000000000e+00 +5.8022754339e+02 5.8022754339e+02 0.0000000000e+00 0.0000e+00 1.0000e+00
       -2 -1    0    0    0  501 -0.0000000000e+00 -0.0000000000e+00 -9.6616547136e+02 9.6616547136e+02 0.0000000000e+00 0.0000e+00 -1.0000e+00
      -13  1    1    2    0    0 +2.3285178943e+02 -6.0969851761e+02 +1.8595998180e+02 6.7862607749e+02 0.0000000000e+00 0.0000e+00 -1.0000e+00
       13  1    1    2    0    0 -2.3285178943e+02 +6.0969851761e+02 -5.7189790977e+02 8.6776693726e+02 0.0000000000e+00 0.0000e+00 1.0000e+00
<mgrwt>
<rscale>  0 0.14974589E+04</rscale>
<asrwt>0</asrwt>
<pdfrwt beam="1">  1        2 0.89265775E-01 0.14974589E+04</pdfrwt>
<pdfrwt beam="2">  1       -2 0.14864084E+00 0.14974589E+04</pdfrwt>
<totfact> 0.17997629E+01</totfact>
</mgrwt>
<rwgt>
<wgt id='morphing_basis_vector_1'> +3.0178175e-04 </wgt>
<wgt id='morphing_basis_vector_2'> +3.0345837e-04 </wgt>
<wgt id='morphing_basis_vector_3'> +3.2539349e-04 </wgt>
<wgt id='morphing_basis_vector_4'> +9.4225507e-05 </wgt>
<wgt id='morphing_basis_vector_5'> +2.7897602e-04 </wgt>
</rwgt>
</event>
<event>
 4      1 +3.5234200e-07 1.39254600e+03 7.81860800e-03 8.38024000e-02
        2 -1    0    0  501    0 +0.0000000000e+00 +0.0000000000e+00 +2.1650687415e+03 2.1650687415e+03 0.0000000000e+00 0.0000e+00 -1.0000e+00
       -2 -1    0    0    0  501 -0.0000000000e+00 -0.0000000000e+00 -2.2391713852e+02 2.2391713852e+02 0.0000000000e+00 0.0000e+00 1.0000e+00
      -13  1    1    2    0    0 -3.4445129066e+02 +1.9193535528e+02 -1.3903560806e+01 3.9456201191e+02 0.0000000000e+00 0.0000e+00 1.0000e+00
       13  1    1    2    0    0 +3.4445129066e+02 -1.9193535528e+02 +1.9550551638e+03 1.9944238681e+03 0.0000000000e+00 0.0000e+00 -1.0000e+00
<mgrwt>
<rscale>  0 0.13925459E+04</rscale>
<asrwt>0</asrwt>
<pdfrwt beam="1">  1        2 0.33308748E+00 0.13925459E+04</pdfrwt>
<pdfrwt beam="2">  1       -2 0.34448792E-01 0.13925459E+04</pdfrwt>
<totfact> 0.50523901E+01</totfact>
</mgrwt>
<rwgt>
<wgt id='morphing_basis_vector_1'> +1.9376966e-04 </wgt>
<wgt id='morphing_basis_vector_2'> +1.2606324e-04 </wgt>
<wgt id='morphing_basis_vector_3'> +1.9903526e-04 </wgt>
<wgt id='morphing_basis_vector_4'> +1.3251501e-04 </wgt>
<wgt id='morphing_basis_vector_5'> +2.1091180e-04 </wgt>
</rwgt>
</event>
<event>
 4      1 +3.5234200e-07 1.38590000e+03 7.81860800e-03 8.38447600e-02
        2 -1    0    0  501    0 +0.0000000000e+00 +0.0000000000e+00 +2.7611956268e+03 2.7611956268e+03 0.0000000000e+00 0.0000e+00 -1.0000e+00
       -2 -1    0    0    0  501 -0.0000000000e+00 -0.0000000000e+00 -1.7390284418e+02 1.7390284418e+02 0.0000000000e+00 0.0000e+00 1.0000e+00
      -13  1    1    2    0    0 +5.7429199394e+02 -1.4510728604e+02 +5.3207475926e+02 7.9622293875e+02 0.0000000000e+00 0.0000e+00 1.0000e+00
       13  1    1    2    0    0 -5.7429199394e+02 +1.4510728604e+02 +2.0552180234e+03 2.1388755323e+03 0.0000000000e+00 0.0000e+00 -1.0000e+00
<mgrwt>
<rscale>  0 0.13859001E+04</rscale>
<asrwt>0</asrwt>
<pdfrwt beam="1">  1        2 0.42479930E+00 0.13859001E+04</pdfrwt>
<pdfrwt beam="2">  1       -2 0.26754286E-01 0.13859001E+04</pdfrwt>
<totfact> 0.35211109E+01</totfact>
</mgrwt>
<rwgt>
<wgt id='morphing_basis_vector_1'> +1.9093417e-04 </wgt>
<wgt id='morphing_basis_vector_2'> +1.2577407e-04 </wgt>
<wgt id='morphing_basis_vector_3'> +1.9614207e-04 </wgt>
<wgt id='morphing_basis_vector_4'> +1.2865078e-04 </wgt>
<wgt id='morphing_basis_vector_5'> +2.0665485e-04 </wgt>
</rwgt>
</event>
<event>
 4      1 +3.5234200e-07 1.39574700e+03 7.81860800e-03 8.37820800e-02
        2 -1    0    0  501    0 +0.0000000000e+00 +0.0000000000e+00 +3.5350927933e+02 3.5350927933e+02 0.0000000000e+00 0.0000e+00 1.0000e+00
       -2 -1    0    0    0  501 -0.0000000000e+00 -0.0000000000e+00 -1.3776934121e+03 1.3776934121e+03 0.0000000000e+00 0.0000e+00 -1.0000e+00
      -13  1    1    2    0    0 +9.7770647732e+01 +5.2686990607e+02 +4.2434032108e+01 5.3754222584e+02 0.0000000000e+00 0.0000e+00 1.0000e+00
       13  1    1    2    0    0 -9.7770647732e+01 -5.2686990607e+02 -1.0666181649e+03 1.1936604656e+03 0.0000000000e+00 0.0000e+00 -1.0000e+00
<mgrwt>
<rscale>  0 0.13957470E+04</rscale>
<asrwt>0</asrwt>
<pdfrwt beam="1">  1        2 0.54386044E-01 0.13957470E+04</pdfrwt>
<pdfrwt beam="2">  1       -2 0.21195283E+00 0.13957470E+04</pdfrwt>
<totfact> 0.10465958E+01</totfact>
</mgrwt>
<rwgt>
<wgt id='morphing_basis_vector_1'> +2.4546100e-04 </wgt>
<wgt id='morphing_basis_vector_2'> +2.7651283e-04 </wgt>
<wgt id='morphing_basis_vector_3'> +2.6378954e-04 </wgt>
<wgt id='morphing_basis_vector_4'> +4.2652160e-05 </wgt>
<wgt id='morphing_basis_vector_5'> +2.0633717e-04 </wgt>
</rwgt>
</event>
<event>
 4      1 +3.5234200e-07 1.37813000e+03 7.81860800e-03 8.38946100e-02
        2 -1    0    0  501    0 +0.0000000000e+00 +0.0000000000e+00 +1.4085021971e+03 1.4085021971e+03 0.0000000000e+00 0.0000e+00 1.0000e+00
       -2 -1    0    0    0  501 -0.0000000000e+00 -0.0000000000e+00 -3.3710321508e+02 3.3710321508e+02 0.0000000000e+00 0.0000e+00 -1.0000e+00
      -13  1    1    2    0    0 -4.6600045693e+02 -4.6041441138e+02 +2.6500182253e+02 7.0665679224e+02 0.0000000000e+00 0.0000e+00 -1.0000e+00
       13  1    1    2    0    0 +4.6600045693e+02 +4.6041441138e+02 +8.0639715953e+02 1.0389486200e+03 0.0000000000e+00 0.0000e+00 1.0000e+00
<mgrwt>
<rscale>  0 0.13781301E+04</rscale>
<asrwt>0</asrwt>
<pdfrwt beam="1">  1        2 0.21669264E+00 0.13781301E+04</pdfrwt>
<pdfrwt beam="2">  1       -2 0.51862034E-01 0.13781301E+04</pdfrwt>
<totfact> 0.61734218E+01</totfact>
</mgrwt>
<rwgt>
<wgt id='morphing_basis_vector_1'> +1.8813351e-04 </wgt>
<wgt id='morphing_basis_vector_2'> +1.2683116e-04 </wgt>
<wgt id='morphing_basis_vector_3'> +1.9338640e-04 </wgt>
<wgt id='morphing_basis_vector_4'> +1.2336531e-04 </wgt>
<wgt id='morphing_basis_vector_5'> +2.0169685e-04 </wgt>
</rwgt>
</event>
<event>
 4      1 +3.5234200e-07 1.35412700e+03 7.81860800e-03 8.40508000e-02
        2 -1    0    0  501    0 +0.0000000000e+00 +0.0000000000e+00 +1.4219257228e+03 1.4219257228e+03 0.0000000000e+00 0.0000e+00 1.0000e+00
       -2 -1    0    0    0  501 -0.0000000000e+00 -0.0000000000e+00 -3.2239041245e+02 3.2239041245e+02 0.0000000000e+00 0.0000e+00 -1.0000e+00
      -13  1    1    2    0    0 -2.2511215905e+02 +2.4223343049e+02 -2.1128974071e+02 3.9242307976e+02 0.0000000000e+00 0.0000e+00 -1.0000e+00
       13  1    1    2    0    0 +2.2511215905e+02 -2.4223343049e+02 +1.3108250510e+03 1.3518930555e+03 0.0000000000e+00 0.0000e+00 1.0000e+00
<mgrwt>
<rscale>  0 0.13541274E+04</rscale>
<asrwt>0</asrwt>
<pdfrwt beam="1">  1        2 0.21875780E+00 0.13541274E+04</pdfrwt>
<pdfrwt beam="2">  1       -2 0.49598526E-01 0.13541274E+04</pdfrwt>
<totfact> 0.66365790E+01</totfact>
</mgrwt>
<rwgt>
<wgt id='morphing_basis_vector_1'> +1.7403686e-04 </wgt>
<wgt id='morphing_basis_vector_2'> +1.1286224e-04 </wgt>
<wgt id='morphing_basis_vector_3'> +1.7801436e-04 </wgt>
<wgt id='morphing_basis_vector_4'> +1.1799314e-04 </wgt>
<wgt id='morphing_basis_vector_5'> +1.8766529e-04 </wgt>
</rwgt>
</event>
<event>
 4      1 +3.5234200e-07 1.42848100e+03 7.81860800e-03 8.35774900e-02
        2 -1    0    0  501    0 +0.0000000000e+00 +0.0000000000e+00 +7.3320580682e+02 7.3320580682e+02 0.0000000000e+00 0.0000e+00 -1.0000e+00
       -2 -1    0    0    0  501 -0.0000000000e+00 -0.0000000000e+00 -6.9576599426e+02 6.9576599426e+02 0.0000000000e+00 0.0000e+00 1.0000e+00
      -13  1    1    2    0    0 +3.5337014888e+02 -9.0389616295e+00 -6.0212798379e+02 6.9821935937e+02 0.0000000000e+00 0.0000e+00 1.0000e+00
       13  1    1    2    0    0 -3.5337014888e+02 +9.0389616295e+00 +6.3956779635e+02 7.3075244171e+02 0.0000000000e+00 0.0000e+00 -1.0000e+00
<mgrwt>
<rscale>  0 0.14284812E+04</rscale>
<asrwt>0</asrwt>
<pdfrwt beam="1">  1        2 0.11280089E+00 0.14284812E+04</pdfrwt>
<pdfrwt beam="2">  1       -2 0.10704092E+00 0.14284812E+04</pdfrwt>
<totfact> 0.32635098E+01</totfact>
</mgrwt>
<rwgt>
<wgt id='morphing_basis_vector_1'> +2.1365230e-04 </wgt>
<wgt id='morphing_basis_vector_2'> +1.3921846e-04 </wgt>
<wgt id='morphing_basis_vector_3'> +2.2024552e-04 </wgt>
<wgt id='morphing_basis_vector_4'> +1.4739240e-04 </wgt>
<wgt id='morphing_basis_vector_5'> +2.3453197e-04 </wgt>
</rwgt>
</event>
<event>
 4      1 +3.5234200e-07 1.39680500e+03 7.81860800e-03 8.37753700e-02
        2 -1    0    0  501    0 +0.0000000000e+00 +0.0000000000e+00 +1.2897442825e+03 1.2897442825e+03 0.0000000000e+00 0.0000e+00 1.0000e+00
       -2 -1    0    0    0  501 -0.0000000000e+00 -0.0000000000e+00 -3.7818820143e+02 3.7818820143e+02 0.0000000000e+00 0.0000e+00 -1.0000e+00
      -13  1    1    2    0    0 +3.7889654347e+02 +4.4491947706e+02 -8.7969750726e-01 5.8439430660e+02 0.0000000000e+00 0.0000e+00 -1.0000e+00
       13  1    1    2    0    0 -3.7889654347e+02 -4.4491947706e+02 +9.1243577860e+02 1.0835381774e+03 0.0000000000e+00 0.0000e+00 1.0000e+00
<mgrwt>
<rscale>  0 0.13968050E+04</rscale>
<asrwt>0</asrwt>
<pdfrwt beam="1">  1        2 0.19842220E+00 0.13968050E+04</pdfrwt>
<pdfrwt beam="2">  1       -2 0.58182801E-01 0.13968050E+04</pdfrwt>
<totfact> 0.57151383E+01</totfact>
</mgrwt>
<rwgt>
<wgt id='morphing_basis_vector_1'> +1.9664823e-04 </wgt>
<wgt id='morphing_basis_vector_2'> +1.2935968e-04 </wgt>
<wgt id='morphing_basis_vector_3'> +2.0221953e-04 </wgt>
<wgt id='morphing_basis_vector_4'> +1.3312546e-04 </wgt>
<wgt id='morphing_basis_vector_5'> +2.1353590e-04 </wgt>
</rwgt>
</event>
<event>
 4      1 +3.5234200e-07 1.46734700e+03 7.81860800e-03 8.33418500e-02
        2 -1    0    0  501    0 +0.0000000000e+00 +0.0000000000e+00 +1.9689851192e+03 1.9689851192e+03 0.0000000000e+00 0.0000e+00 1.0000e+00
       -2 -1    0    0    0  501 -0.0000000000e+00 -0.0000000000e+00 -2.7337791939e+02 2.7337791939e+02 0.0000000000e+00 0.0000e+00 -1.0000e+00
      -13  1    1    2    0    0 -7.2022935315e+02 +5.5139123273e+01 +6.5146787703e+02 9.7271837592e+02 0.0000000000e+00 0.0000e+00 -1.0000e+00
       13  1    1    2    0    0 +7.2022935315e+02 -5.5139123273e+01 +1.0441393227e+03 1.2696446626e+03 0.0000000000e+00 0.0000e+00 1.0000e+00
<mgrwt>
<rscale>  0 0.14673473E+04</rscale>
<asrwt>0</asrwt>
<pdfrwt beam="1">  1        2 0.30292078E+00 0.14673473E+04</pdfrwt>
<pdfrwt beam="2">  1       -2 0.42058143E-01 0.14673473E+04</pdfrwt>
<totfact> 0.44752956E+01</totfact>
</mgrwt>
<rwgt>
<wgt id='morphing_basis_vector_1'> +2.4132165e-04 </wgt>
<wgt id='morphing_basis_vector_2'> +1.6788735e-04 </wgt>
<wgt id='morphing_basis_vector_3'> +2.5082316e-04 </wgt>
<wgt id='morphing_basis_vector_4'> +1.5657584e-04 </wgt>
<wgt id='morphing_basis_vector_5'> +2.6161546e-04 </wgt>
</rwgt>
</event>
<event>
 4      1 +3.5234200e-07 1.50195100e+03 7.81860800e-03 8.31383300e-02
        2 -1    0    0  501    0 +0.0000000000e+00 +0.0000000000e+00 +1.6278342245e+03 1.6278342245e+03 0.0000000000e+00 0.0000e+00 -1.0000e+00
       -2 -1    0    0    0  501 -0.0000000000e+00 -0.0000000000e+00 -3.4645059249e+02 3.4645059249e+02 0.0000000000e+00 0.0000e+00 1.0000e+00
      -13  1    1    2    0    0 +3.0272675610e+02 -6.5224649337e+02 +3.5603731580e+02 8.0239114353e+02 0.0000000000e+00 0.0000e+00 1.0000e+00
       13  1    1    2    0    0 -3.0272675610e+02 +6.5224649337e+02 +9.2534631619e+02 1.1718936734e+03 0.0000000000e+00 0.0000e+00 -1.0000e+00
<mgrwt>
<rscale>  0 0.15019509E+04</rscale>
<asrwt>0</asrwt>
<pdfrwt beam="1">  1        2 0.25043603E+00 0.15019509E+04</pdfrwt>
<pdfrwt beam="2">  1       -2 0.53300092E-01 0.15019509E+04</pdfrwt>
<totfact> 0.43642547E+01</totfact>
</mgrwt>
<rwgt>
<wgt id='morphing_basis_vector_1'> +2.6221661e-04 </wgt>
<wgt id='morphing_basis_vector_2'> +1.7862112e-04 </wgt>
<wgt id='morphing_basis_vector_3'> +2.7293912e-04 </wgt>
<wgt id='morphing_basis_vector_4'> +1.7579911e-04 </wgt>
<wgt id='morphing_basis_vector_5'> +2.8842226e-04 </wgt>
</rwgt>
</event>
<event>
 4      1 +3.5234200e-07 1.32410200e+03 7.81860800e-03 8.42509900e-02
        2 -1    0    0  501    0 +0.0000000000e+00 +0.0000000000e+00 +1.9894762552e+03 1.9894762552e+03 0.0000000000e+00 0.0000e+00 -1.0000e+00
       -2 -1    0    0    0  501 -0.0000000000e+00 -0.0000000000e+00 -2.2031519655e+02 2.2031519655e+02 0.0000000000e+00 0.0000e+00 1.0000e+00
      -13  1    1    2    0    0 +5.7538714455e+02 +2.1882506670e+01 +3.3927570161e+02 6.6832418175e+02 0.0000000000e+00 0.0000e+00 1.0000e+00
       13  1    1    2    0    0 -5.7538714455e+02 -2.1882506670e+01 +1.4298853570e+03 1.5414672700e+03 0.0000000000e+00 0.0000e+00 -1.0000e+00
<mgrwt>
<rscale>  0 0.13241025E+04</rscale>
<asrwt>0</asrwt>
<pdfrwt beam="1">  1        2 0.30607326E+00 0.13241025E+04</pdfrwt>
<pdfrwt beam="2">  1       -2 0.33894647E-01 0.13241025E+04</pdfrwt>
<totfact> 0.65723245E+01</totfact>
</mgrwt>
<rwgt>
<wgt id='morphing_basis_vector_1'> +1.6043466e-04 </wgt>
<wgt id='morphing_basis_vector_2'> +1.0545972e-04 </wgt>
<wgt id='morphing_basis_vector_3'> +1.6366703e-04 </wgt>
<wgt id='morphing_basis_vector_4'> +1.0619773e-04 </wgt>
<wgt id='morphing_basis_vector_5'> +1.7076937e-04 </wgt>
</rwgt>
</event>
<event>
 4      1 +3.5234200e-07 1.47483700e+03 7.81860800e-03 8.32973100e-02
        2 -1    0    0  501    0 +0.0000000000e+00 +0.0000000000e+00 +1.5027010509e+03 1.5027010509e+03 0.0000000000e+00 0.0000e+00 -1.0000e+00
       -2 -1    0    0    0  501 -0.0000000000e+00 -0.0000000000e+00 -3.6187216269e+02 3.6187216269e+02 0.0000000000e+00 0.0000e+00 1.0000e+00
      -13  1    1    2    0    0 -2.2754280132e+02 +2.0076049509e+02 -2.7928062087e+02 4.1240534431e+02 0.0000000000e+00 0.0000e+00 1.0000e+00
       13  1    1    2    0    0 +2.2754280132e+02 -2.0076049509e+02 +1.4201095091e+03 1.4521678693e+03 0.0000000000e+00 0.0000e+00 -1.0000e+00
<mgrwt>
<rscale>  0 0.14748365E+04</rscale>
<asrwt>0</asrwt>
<pdfrwt beam="1">  1        2 0.23118477E+00 0.14748365E+04</pdfrwt>
<pdfrwt beam="2">  1       -2 0.55672641E-01 0.14748365E+04</pdfrwt>
<totfact> 0.47067309E+01</totfact>
</mgrwt>
<rwgt>
<wgt id='morphing_basis_vector_1'> +2.4157186e-04 </wgt>
<wgt id='morphing_basis_vector_2'> +1.5776477e-04 </wgt>
<wgt id='morphing_basis_vector_3'> +2.5009441e-04 </wgt>
<wgt id='morphing_basis_vector_4'> +1.6832454e-04 </wgt>
<wgt id='morphing_basis_vector_5'> +2.6782336e-04 </wgt>
</rwgt>
</event>
<event>
 4      1 +3.5234200e-07 1.38281600e+03 7.81860800e-03 8.38645100e-02
        2 -1    0    0  501    0 +0.0000000000e+00 +0.0000000000e+00 +1.5451223685e+03 1.5451223685e+03 0.0000000000e+00 0.0000e+00 1.0000e+00
       -2 -1    0    0    0  501 -0.0000000000e+00 -0.0000000000e+00 -3.0938970765e+02 3.0938970765e+02 0.0000000000e+00 0.0000e+00 -1.0000e+00
      -13  1    1    2    0    0 -4.6096210196e+02 -2.6396397834e+02 +2.4309275365e+01 5.3174616329e+02 0.0000000000e+00 0.0000e+00 -1.0000e+00
       13  1    1    2    0    0 +4.6096210196e+02 +2.6396397834e+02 +1.2114233855e+03 1.3227659128e+03 0.0000000000e+00 0.0000e+00 1.0000e+00
<mgrwt>
<rscale>  0 0.13828159E+04</rscale>
<asrwt>0</asrwt>
<pdfrwt beam="1">  1        2 0.23771113E+00 0.13828159E+04</pdfrwt>
<pdfrwt beam="2">  1       -2 0.47598417E-01 0.13828159E+04</pdfrwt>
<totfact> 0.61206940E+01</totfact>
</mgrwt>
<rwgt>
<wgt id='morphing_basis_vector_1'> +1.8892053e-04 </wgt>
<wgt id='morphing_basis_vector_2'> +1.2351643e-04 </wgt>
<wgt id='morphing_basis_vector_3'> +1.9392139e-04 </wgt>
<wgt id='morphing_basis_vector_4'> +1.2817047e-04 </wgt>
<wgt id='morphing_basis_vector_5'> +2.0479408e-04 </wgt>
</rwgt>
</event>
<event>
 4      1 +3.5234200e-07 1.31550500e+03 7.81860800e-03 8.43093400e-02
        2 -1    0    0  501    0 +0.0000000000e+00 +0.0000000000e+00 +4.3477019890e+03 4.3477019890e+03 0.0000000000e+00 0.0000e+00 -1.0000e+00
       -2 -1    0    0    0  501 -0.0000000000e+00 -0.0000000000e+00 -9.9509692139e+01 9.9509692139e+01 0.0000000000e+00 0.0000e+00 1.0000e+00
      -13  1    1    2    0    0 -5.4609970633e+02 -2.2498085079e+02 +1.1454853117e+03 1.2887893046e+03 0.0000000000e+00 0.0000e+00 1.0000e+00
       13  1    1    2    0    0 +5.4609970633e+02 +2.2498085079e+02 +3.1027069852e+03 3.1584223765e+03 0.0000000000e+00 0.0000e+00 -1.0000e+00
<mgrwt>
<rscale>  0 0.13155052E+04</rscale>
<asrwt>0</asrwt>
<pdfrwt beam="1">  1        2 0.66887708E+00 0.13155052E+04</pdfrwt>
<pdfrwt beam="2">  1       -2 0.15309187E-01 0.13155052E+04</pdfrwt>
<totfact> 0.58339919E+00</totfact>
</mgrwt>
<rwgt>
<wgt id='morphing_basis_vector_1'> +1.5671217e-04 </wgt>
<wgt id='morphing_basis_vector_2'> +1.0346272e-04 </wgt>
<wgt id='morphing_basis_vector_3'> +1.5974265e-04 </wgt>
<wgt id='morphing_basis_vector_4'> +1.0295297e-04 </wgt>
<wgt id='morphing_basis_vector_5'> +1.6614373e-04 </wgt>
</rwgt>
</event>
<event>
 4      1 +3.5234200e-07 1.47965300e+03 7.81860800e-03 8.32688100e-02
        2 -1    0    0  501    0 +0.0000000000e+00 +0.0000000000e+00 +9.1501092946e+02 9.1501092946e+02 0.0000000000e+00 0.0000e+00 -1.0000e+00
       -2 -1    0    0    0  501 -0.0000000000e+00 -0.0000000000e+00 -5.9818259615e+02 5.9818259615e+02 0.0000000000e+00 0.0000e+00 1.0000e+00
      -13  1    1    2    0    0 -3.2297516410e+02 +5.6317239249e+02 -2.0440588174e+02 6.8063049063e+02 0.0000000000e+00 0.0000e+00 1.0000e+00
       13  1    1    2    0    0 +3.2297516410e+02 -5.6317239249e+02 +5.2123421505e+02 8.3256303498e+02 0.0000000000e+00 0.0000e+00 -1.0000e+00
<mgrwt>
<rscale>  0 0.14796535E+04</rscale>
<asrwt>0</asrwt>
<pdfrwt beam="1">  1        2 0.14077091E+00 0.14796535E+04</pdfrwt>
<pdfrwt beam="2">  1       -2 0.92028091E-01 0.14796535E+04</pdfrwt>
<totfact> 0.35059192E+01</totfact>
</mgrwt>
<rwgt>
<wgt id='morphing_basis_vector_1'> +2.4580966e-04 </wgt>
<wgt id='morphing_basis_vector_2'> +1.6332836e-04 </wgt>
<wgt id='morphing_basis_vector_3'> +2.5490281e-04 </wgt>
<wgt id='morphing_basis_vector_4'> +1.6841688e-04 </wgt>
<wgt id='morphing_basis_vector_5'> +2.7131022e-04 </wgt>
</rwgt>
</event>
<event>
 4      1 +3.5234200e-07 1.43898300e+03 7.81860800e-03 8.35130500e-02
        2 -1    0    0  501    0 +0.0000000000e+00 +0.0000000000e+00 +8.3172921419e+02 8.3172921419e+02 0.0000000000e+00 0.0000e+00 -1.0000e+00
       -2 -1    0    0    0  501 -0.0000000000e+00 -0.0000000000e+00 -6.2240010440e+02 6.2240010440e+02 0.0000000000e+00 0.0000e+00 1.0000e+00
      -13  1    1    2    0    0 +6.7749721684e+02 +4.0651811609e+01 -1.3662322235e+02 6.9233008998e+02 0.0000000000e+00 0.0000e+00 1.0000e+00
       13  1    1    2    0    0 -6.7749721684e+02 -4.0651811609e+01 +3.4595233213e+02 7.6179922861e+02 0.0000000000e+00 0.0000e+00 -1.0000e+00
<mgrwt>
<rscale>  0 0.14389835E+04</rscale>
<asrwt>0</asrwt>
<pdfrwt beam="1">  1        2 0.12795834E+00 0.14389835E+04</pdfrwt>
<pdfrwt beam="2">  1       -2 0.95753862E-01 0.14389835E+04</pdfrwt>
<totfact> 0.36389055E+01</totfact>
</mgrwt>
<rwgt>
<wgt id='morphing_basis_vector_1'> +2.2188018e-04 </wgt>
<wgt id='morphing_basis_vector_2'> +1.4962305e-04 </wgt>
<wgt id='morphing_basis_vector_3'> +2.2948772e-04 </wgt>
<wgt id='morphing_basis_vector_4'> +1.4803270e-04 </wgt>
<wgt id='morphing_basis_vector_5'> +2.4150226e-04 </wgt>
</rwgt>
</event>
<event>
 4      1 +3.5234200e-07 1.38054500e+03 7.81860800e-03 8.38790800e-02
        2 -1    0    0  501    0 +0.0000000000e+00 +0.0000000000e+00 +1.2593394135e+03 1.2593394135e+03 0.0000000000e+00 0.0000e+00 -1.0000e+00
       -2 -1    0    0    0  501 -0.0000000000e+00 -0.0000000000e+00 -3.7835384885e+02 3.7835384885e+02 0.0000000000e+00 0.0000e+00 1.0000e+00
      -13  1    1    2    0    0 -3.2758215356e+01 +6.4865132499e+02 +7.1782105557e+02 9.6803342396e+02 0.0000000000e+00 0.0000e+00 1.0000e+00
       13  1    1    2    0    0 +3.2758215356e+01 -6.4865132499e+02 +1.6316450905e+02 6.6965983835e+02 0.0000000000e+00 0.0000e+00 -1.0000e+00
<mgrwt>
<rscale>  0 0.13805447E+04</rscale>
<asrwt>0</asrwt>
<pdfrwt beam="1">  1        2 0.19374452E+00 0.13805447E+04</pdfrwt>
<pdfrwt beam="2">  1       -2 0.58208285E-01 0.13805447E+04</pdfrwt>
<totfact> 0.59523772E+01</totfact>
</mgrwt>
<rwgt>
<wgt id='morphing_basis_vector_1'> +2.0871281e-04 </wgt>
<wgt id='morphing_basis_vector_2'> +1.8542191e-04 </wgt>
<wgt id='morphing_basis_vector_3'> +2.1889943e-04 </wgt>
<wgt id='morphing_basis_vector_4'> +8.9184289e-05 </wgt>
<wgt id='morphing_basis_vector_5'> +2.0064355e-04 </wgt>
</rwgt>
</event>
<event>
 4      1 +3.5234200e-07 1.32590200e+03 7.81860800e-03 8.42388400e-02
        2 -1    0    0  501    0 +0.0000000000e+00 +0.0000000000e+00 +2.2530376064e+03 2.2530376064e+03 0.0000000000e+00 0.0000e+00 1.0000e+00
       -2 -1    0    0    0  501 -0.0000000000e+00 -0.0000000000e+00 -1.9507179174e+02 1.9507179174e+02 0.0000000000e+00 0.0000e+00 -1.0000e+00
      -13  1    1    2    0    0 -6.0554429253e+02 -2.5255341175e+02 +8.5346125020e+02 1.0765050959e+03 0.0000000000e+00 0.0000e+00 -1.0000e+00
       13  1    1    2    0    0 +6.0554429253e+02 +2.5255341175e+02 +1.2045045645e+03 1.3716043022e+03 0.0000000000e+00 0.0000e+00 1.0000e+00
<mgrwt>
<rscale>  0 0.13259021E+04</rscale>
<asrwt>0</asrwt>
<pdfrwt beam="1">  1        2 0.34662115E+00 0.13259021E+04</pdfrwt>
<pdfrwt beam="2">  1       -2 0.30011047E-01 0.13259021E+04</pdfrwt>
<totfact> 0.57968855E+01</totfact>
</mgrwt>
<rwgt>
<wgt id='morphing_basis_vector_1'> +1.6394716e-04 </wgt>
<wgt id='morphing_basis_vector_2'> +1.1403600e-04 </wgt>
<wgt id='morphing_basis_vector_3'> +1.6781992e-04 </wgt>
<wgt id='morphing_basis_vector_4'> +1.0200893e-04 </wgt>
<wgt id='morphing_basis_vector_5'> +1.7140298e-04 </wgt>
</rwgt>
</event>
<event>
 4      1 +3.5234200e-07 1.47862300e+03 7.81860800e-03 8.32749000e-02
        2 -1    0    0  501    0 +0.0000000000e+00 +0.0000000000e+00 +2.7408361857e+03 2.7408361857e+03 0.0000000000e+00 0.0000e+00 -1.0000e+00
       -2 -1    0    0    0  501 -0.0000000000e+00 -0.0000000000e+00 -1.9942137378e+02 1.9942137378e+02 0.0000000000e+00 0.0000e+00 1.0000e+00
      -13  1    1    2    0    0 +8.6286121839e+01 +4.5493825193e+02 +1.2465001292e+02 4.7953282851e+02 0.0000000000e+00 0.0000e+00 1.0000e+00
       13  1    1    2    0    0 -8.6286121839e+01 -4.5493825193e+02 +2.4167647991e+03 2.4607247310e+03 0.0000000000e+00 0.0000e+00 -1.0000e+00
<mgrwt>
<rscale>  0 0.14786228E+04</rscale>
<asrwt>0</asrwt>
<pdfrwt beam="1">  1        2 0.42166708E+00 0.14786228E+04</pdfrwt>
<pdfrwt beam="2">  1       -2 0.30680213E-01 0.14786228E+04</pdfrwt>
<totfact> 0.28234873E+01</totfact>
</mgrwt>
<rwgt>
<wgt id='morphing_basis_vector_1'> +2.4410042e-04 </wgt>
<wgt id='morphing_basis_vector_2'> +1.5975056e-04 </wgt>
<wgt id='morphing_basis_vector_3'> +2.5283102e-04 </wgt>
<wgt id='morphing_basis_vector_4'> +1.6988185e-04 </wgt>
<wgt id='morphing_basis_vector_5'> +2.7067086e-04 </wgt>
</rwgt>
</event>
<event>
 4      1 +3.5234200e-07 1.37404400e+03 7.81860800e-03 8.39209700e-02
        2 -1    0    0  501    0 +0.0000000000e+00 +0.0000000000e+00 +7.3996335342e+02 7.3996335342e+02 0.0000000000e+00 0.0000e+00 -1.0000e+00
       -2 -1    0    0    0  501 -0.0000000000e+00 -0.0000000000e+00 -6.3786793328e+02 6.3786793328e+02 0.0000000000e+00 0.0000e+00 1.0000e+00
      -13  1    1    2    0    0 +4.8500178187e+02 -4.8637294475e+02 +3.6394928831e+01 6.8782989223e+02 0.0000000000e+00 0.0000e+00 1.0000e+00
       13  1    1    2    0    0 -4.8500178187e+02 +4.8637294475e+02 +6.5700491312e+01 6.9000139446e+02 0.0000000000e+00 0.0000e+00 -1.0000e+00
<mgrwt>
<rscale>  0 0.13740435E+04</rscale>
<asrwt>0</asrwt>
<pdfrwt beam="1">  1        2 0.11384051E+00 0.13740435E+04</pdfrwt>
<pdfrwt beam="2">  1       -2 0.98133529E-01 0.13740435E+04</pdfrwt>
<totfact> 0.40058235E+01</totfact>
</mgrwt>
<rwgt>
<wgt id='morphing_basis_vector_1'> +1.9018968e-04 </wgt>
<wgt id='morphing_basis_vector_2'> +1.3787513e-04 </wgt>
<wgt id='morphing_basis_vector_3'> +1.9633072e-04 </wgt>
<wgt id='morphing_basis_vector_4'> +1.1425774e-04 </wgt>
<wgt id='morphing_basis_vector_5'> +1.9866538e-04 </wgt>
</rwgt>
</event>
<event>
 4      1 +3.5234200e-07 1.29697000e+03 7.81860800e-03 8.44367300e-02
        2 -1    0    0  501    0 +0.0000000000e+00 +0.0000000000e+00 +1.5439877297e+03 1.5439877297e+03 0.0000000000e+00 0.0000e+00 1.0000e+00
       -2 -1    0    0    0  501 -0.0000000000e+00 -0.0000000000e+00 -2.7236789123e+02 2.7236789123e+02 0.0000000000e+00 0.0000e+00 -1.0000e+00
      -13  1    1    2    0    0 -1.3182496918e+02 +5.9559431707e+02 +3.2763763454e+02 6.9242821476e+02 0.0000000000e+00 0.0000e+00 -1.0000e+00
       13  1    1    2    0    0 +1.3182496918e+02 -5.9559431707e+02 +9.4398220398e+02 1.1239274062e+03 0.0000000000e+00 0.0000e+00 1.0000e+00
<mgrwt>
<rscale>  0 0.12969698E+04</rscale>
<asrwt>0</asrwt>
<pdfrwt beam="1">  1        2 0.23753657E+00 0.12969698E+04</pdfrwt>
<pdfrwt beam="2">  1       -2 0.41902753E-01 0.12969698E+04</pdfrwt>
<totfact> 0.78759059E+01</totfact>
</mgrwt>
<rwgt>
<wgt id='morphing_basis_vector_1'> +1.4897552e-04 </wgt>
<wgt id='morphing_basis_vector_2'> +9.9443109e-05 </wgt>
<wgt id='morphing_basis_vector_3'> +1.5159381e-04 </wgt>
<wgt id='morphing_basis_vector_4'> +9.6090902e-05 </wgt>
<wgt id='morphing_basis_vector_5'> +1.5647904e-04 </wgt>
</rwgt>
</event>
<event>
 4      1 +3.5234200e-07 1.34284400e+03 7.81860800e-03 8.41253900e-02
        2 -1    0    0  501    0 +0.0000000000e+00 +0.0000000000e+00 +6.6495870192e+02 6.6495870192e+02 0.0000000000e+00 0.0000e+00 -1.0000e+00
       -2 -1    0    0    0  501 -0.0000000000e+00 -0.0000000000e+00 -6.7794814615e+02 6.7794814615e+02 0.0000000000e+00 0.0000e+00 1.0000e+00
      -13  1    1    2    0    0 +4.3148613950e+02 -4.7123628792e+02 -2.1281382984e+02 6.7344907291e+02 0.0000000000e+00 0.0000e+00 1.0000e+00
       13  1    1    2    0    0 -4.3148613950e+02 +4.7123628792e+02 +1.9982438561e+02 6.6945777516e+02 0.0000000000e+00 0.0000e+00 -1.0000e+00
<mgrwt>
<rscale>  0 0.13428440E+04</rscale>
<asrwt>0</asrwt>
<pdfrwt beam="1">  1        2 0.10230134E+00 0.13428440E+04</pdfrwt>
<pdfrwt beam="2">  1       -2 0.10429971E+00 0.13428440E+04</pdfrwt>
<totfact> 0.39494704E+01</totfact>
</mgrwt>
<rwgt>
<wgt id='morphing_basis_vector_1'> +1.7036635e-04 </wgt>
<wgt id='morphing_basis_vector_2'> +1.1464524e-04 </wgt>
<wgt id='morphing_basis_vector_3'> +1.7441258e-04 </wgt>
<wgt id='morphing_basis_vector_4'> +1.1068272e-04 </wgt>
<wgt id='morphing_basis_vector_5'> +1.8097932e-04 </wgt>
</rwgt>
</event>
<event>
 4      1 +3.5234200e-07 1.42864500e+03 7.81860800e-03 8.35764800e-02
        2 -1    0    0  501    0 +0.0000000000e+00 +0.0000000000e+00 +2.4506257242e+03 2.4506257242e+03 0.0000000000e+00 0.0000e+00 1.0000e+00
       -2 -1    0    0    0  501 -0.0000000000e+00 -0.0000000000e+00 -2.0821486768e+02 2.0821486768e+02 0.0000000000e+00 0.0000e+00 -1.0000e+00
      -13  1    1    2    0    0 -6.9630017733e+02 -1.5762805630e+01 +8.2591680706e+02 1.0803800142e+03 0.0000000000e+00 0.0000e+00 -1.0000e+00
       13  1    1    2    0    0 +6.9630017733e+02 +1.5762805630e+01 +1.4164940495e+03 1.5784605776e+03 0.0000000000e+00 0.0000e+00 1.0000e+00
<mgrwt>
<rscale>  0 0.14286451E+04</rscale>
<asrwt>0</asrwt>
<pdfrwt beam="1">  1        2 0.37701932E+00 0.14286451E+04</pdfrwt>
<pdfrwt beam="2">  1       -2 0.32033058E-01 0.14286451E+04</pdfrwt>
<totfact> 0.39270682E+01</totfact>
</mgrwt>
<rwgt>
<wgt id='morphing_basis_vector_1'> +2.1704250e-04 </wgt>
<wgt id='morphing_basis_vector_2'> +1.4912077e-04 </wgt>
<wgt id='morphing_basis_vector_3'> +2.2455187e-04 </wgt>
<wgt id='morphing_basis_vector_4'> +1.4140517e-04 </wgt>
<wgt id='morphing_basis_vector_5'> +2.3420148e-04 </wgt>
</rwgt>
</event>
<event>
 4      1 +3.5234200e-07 1.49289200e+03 7.81860800e-03 8.31910500e-02
        2 -1    0    0  501    0 +0.0000000000e+00 +0.0000000000e+00 +1.3133585574e+03 1.3133585574e+03 0.0000000000e+00 0.0000e+00 1.0000e+00
       -2 -1    0    0    0  501 -0.0000000000e+00 -0.0000000000e+00 -4.2424183702e+02 4.2424183702e+02 0.0000000000e+00 0.0000e+00 -1.0000e+00
      -13  1    1    2    0    0 -5.2053944635e+02 -4.3037100619e+02 +7.4658111427e+01 6.7952509282e+02 0.0000000000e+00 0.0000e+00 -1.0000e+00
       13  1    1    2    0    0 +5.2053944635e+02 +4.3037100619e+02 +8.1445860895e+02 1.0580753016e+03 0.0000000000e+00 0.0000e+00 1.0000e+00
<mgrwt>
<rscale>  0 0.14928920E+04</rscale>
<asrwt>0</asrwt>
<pdfrwt beam="1">  1        2 0.20205516E+00 0.14928920E+04</pdfrwt>
<pdfrwt beam="2">  1       -2 0.65267976E-01 0.14928920E+04</pdfrwt>
<totfact> 0.43358050E+01</totfact>
</mgrwt>
<rwgt>
<wgt id='morphing_basis_vector_1'> +2.5478009e-04 </wgt>
<wgt id='morphing_basis_vector_2'> +1.7028767e-04 </wgt>
<wgt id='morphing_basis_vector_3'> +2.6461648e-04 </wgt>
<wgt id='morphing_basis_vector_4'> +1.7403620e-04 </wgt>
<wgt id='morphing_basis_vector_5'> +2.8146998e-04 </wgt>
</rwgt>
</event>
<event>
 4      1 +3.5234200e-07 1.36756300e+03 7.81860800e-03 8.39629600e-02
        2 -1    0    0  501    0 +0.0000000000e+00 +0.0000000000e+00 +1.4581644449e+03 1.4581644449e+03 0.0000000000e+00 0.0000e+00 1.0000e+00
       -2 -1    0    0    0  501 -0.0000000000e+00 -0.0000000000e+00 -3.2064764066e+02 3.2064764066e+02 0.0000000000e+00 0.0000e+00 -1.0000e+00
      -13  1    1    2    0    0 +5.2763947923e+02 -2.6911281453e+02 +1.2435486628e+02 6.0521835708e+02 0.0000000000e+00 0.0000e+00 -1.0000e+00
       13  1    1    2    0    0 -5.2763947923e+02 +2.6911281453e+02 +1.0131619380e+03 1.1735937285e+03 0.0000000000e+00 0.0000e+00 1.0000e+00
<mgrwt>
<rscale>  0 0.13675628E+04</rscale>
<asrwt>0</asrwt>
<pdfrwt beam="1">  1        2 0.22433299E+00 0.13675628E+04</pdfrwt>
<pdfrwt beam="2">  1       -2 0.49330407E-01 0.13675628E+04</pdfrwt>
<totfact> 0.63931935E+01</totfact>
</mgrwt>
<rwgt>
<wgt id='morphing_basis_vector_1'> +1.8150820e-04 </wgt>
<wgt id='morphing_basis_vector_2'> +1.1960593e-04 </wgt>
<wgt id='morphing_basis_vector_3'> +1.8610243e-04 </wgt>
<wgt id='morphing_basis_vector_4'> +1.2156618e-04 </wgt>
<wgt id='morphing_basis_vector_5'> +1.9546923e-04 </wgt>
</rwgt>
</event>
<event>
 4      1 +3.5234200e-07 1.39524600e+03 7.81860800e-03 8.37852500e-02
        2 -1    0    0  501    0 +0.0000000000e+00 +0.0000000000e+00 +1.1162987423e+03 1.1162987423e+03 0.0000000000e+00 0.0000e+00 -1.0000e+00
       -2 -1    0    0    0  501 -0.0000000000e+00 -0.0000000000e+00 -4.3597477946e+02 4.3597477946e+02 0.0000000000e+00 0.0000e+00 1.0000e+00
      -13  1    1    2    0    0 +9.1225396298e+01 +1.8232149364e+02 -4.0209350768e+02 4.5082412190e+02 0.0000000000e+00 0.0000e+00 1.0000e+00
       13  1    1    2    0    0 -9.1225396298e+01 -1.8232149364e+02 +1.0824174705e+03 1.1014493999e+03 0.0000000000e+00 0.0000e+00 -1.0000e+00
<mgrwt>
<rscale>  0 0.13952464E+04</rscale>
<asrwt>0</asrwt>
<pdfrwt beam="1">  1        2 0.17173827E+00 0.13952464E+04</pdfrwt>
<pdfrwt beam="2">  1       -2 0.67073043E-01 0.13952464E+04</pdfrwt>
<totfact> 0.53761092E+01</totfact>
</mgrwt>
<rwgt>
<wgt id='morphing_basis_vector_1'> +1.9514656e-04 </wgt>
<wgt id='morphing_basis_vector_2'> +1.2681966e-04 </wgt>
<wgt id='morphing_basis_vector_3'> +2.0049003e-04 </wgt>
<wgt id='morphing_basis_vector_4'> +1.3371346e-04 </wgt>
<wgt id='morphing_basis_vector_5'> +2.1263158e-04 </wgt>
</rwgt>
</event>
<event>
 4      1 +3.5234200e-07 1.43754000e+03 7.81860800e-03 8.35218700e-02
        2 -1    0    0  501    0 +0.0000000000e+00 +0.0000000000e+00 +1.9066266903e+03 1.9066266903e+03 0.0000000000e+00 0.0000e+00 -1.0000e+00
       -2 -1    0    0    0  501 -0.0000000000e+00 -0.0000000000e+00 -2.7096565219e+02 2.7096565219e+02 0.0000000000e+00 0.0000e+00 1.0000e+00
      -13  1    1    2    0    0 -2.1272929187e+02 +5.3511747531e+02 +1.6624283135e+02 5.9936728554e+02 0.0000000000e+00 0.0000e+00 1.0000e+00
       13  1    1    2    0    0 +2.1272929187e+02 -5.3511747531e+02 +1.4694182068e+03 1.5782250570e+03 0.0000000000e+00 0.0000e+00 -1.0000e+00
<mgrwt>
<rscale>  0 0.14375400E+04</rscale>
<asrwt>0</asrwt>
<pdfrwt beam="1">  1        2 0.29332717E+00 0.14375400E+04</pdfrwt>
<pdfrwt beam="2">  1       -2 0.41687025E-01 0.14375400E+04</pdfrwt>
<totfact> 0.49433930E+01</totfact>
</mgrwt>
<rwgt>
<wgt id='morphing_basis_vector_1'> +2.1941890e-04 </wgt>
<wgt id='morphing_basis_vector_2'> +1.4424008e-04 </wgt>
<wgt id='morphing_basis_vector_3'> +2.2651412e-04 </wgt>
<wgt id='morphing_basis_vector_4'> +1.5037550e-04 </wgt>
<wgt id='morphing_basis_vector_5'> +2.4071300e-04 </wgt>
</rwgt>
</event>
<event>
 4      1 +3.5234200e-07 1.53606200e+03 7.81860800e-03 8.29431900e-02
        2 -1    0    0  501    0 +0.0000000000e+00 +0.0000000000e+00 +2.5124150344e+03 2.5124150344e+03 0.0000000000e+00 0.0000e+00 1.0000e+00
       -2 -1    0    0    0  501 -0.0000000000e+00 -0.0000000000e+00 -2.3478280633e+02 2.3478280633e+02 0.0000000000e+00 0.0000e+00 -1.0000e+00
      -13  1    1    2    0    0 +4.8371343168e+02 -5.6475430161e+01 +2.2009667380e+03 2.2542011312e+03 0.0000000000e+00 0.0000e+00 1.0000e+00
       13  1    1    2    0    0 -4.8371343168e+02 +5.6475430161e+01 +7.6665490048e+01 4.9299670949e+02 0.0000000000e+00 0.0000e+00 -1.0000e+00
<mgrwt>
<rscale>  0 0.15360623E+04</rscale>
<asrwt>0</asrwt>
<pdfrwt beam="1">  1        2 0.38652537E+00 0.15360623E+04</pdfrwt>
<pdfrwt beam="2">  1       -2 0.36120433E-01 0.15360623E+04</pdfrwt>
<totfact> 0.28765444E+01</totfact>
</mgrwt>
<rwgt>
<wgt id='morphing_basis_vector_1'> +3.7336399e-04 </wgt>
<wgt id='morphing_basis_vector_2'> +4.5544075e-04 </wgt>
<wgt id='morphing_basis_vector_3'> +4.1427509e-04 </wgt>
<wgt id='morphing_basis_vector_4'> +2.8722838e-05 </wgt>
<wgt id='morphing_basis_vector_5'> +3.0427188e-04 </wgt>
</rwgt>
</event>
<event>
 4      1 +3.5234200e-07 1.53417700e+03 7.81860800e-03 8.29538400e-02
        2 -1    0    0  501    0 +0.0000000000e+00 +0.0000000000e+00 +8.6065342305e+02 8.6065342305e+02 0.0000000000e+00 0.0000e+00 -1.0000e+00
       -2 -1    0    0    0  501 -0.0000000000e+00 -0.0000000000e+00 -6.8369517413e+02 6.8369517413e+02 0.0000000000e+00 0.0000e+00 1.0000e+00
      -13  1    1    2    0    0 -2.7670083740e+01 -5.9895051269e+02 -3.9314605856e+02 7.1698756862e+02 0.0000000000e+00 0.0000e+00 1.0000e+00
       13  1    1    2    0    0 +2.7670083740e+01 +5.9895051269e+02 +5.7010430748e+02 8.2736102857e+02 0.0000000000e+00 0.0000e+00 -1.0000e+00
<mgrwt>
<rscale>  0 0.15341768E+04</rscale>
<asrwt>0</asrwt>
<pdfrwt beam="1">  1        2 0.13240822E+00 0.15341768E+04</pdfrwt>
<pdfrwt beam="2">  1       -2 0.10518387E+00 0.15341768E+04</pdfrwt>
<totfact> 0.27503143E+01</totfact>
</mgrwt>
<rwgt>
<wgt id='morphing_basis_vector_1'> +2.8187654e-04 </wgt>
<wgt id='morphing_basis_vector_2'> +1.8600439e-04 </wgt>
<wgt id='morphing_basis_vector_3'> +2.9344286e-04 </wgt>
<wgt id='morphing_basis_vector_4'> +1.9708252e-04 </wgt>
<wgt id='morphing_basis_vector_5'> +3.1531429e-04 </wgt>
</rwgt>
</event>
<event>
 4      1 +3.5234200e-07 1.31822200e+03 7.81860800e-03 8.42908500e-02
        2 -1    0    0  501    0 +0.0000000000e+00 +0.0000000000e+00 +8.7462347159e+02 8.7462347159e+02 0.0000000000e+00 0.0000e+00 1.0000e+00
       -2 -1    0    0    0  501 -0.0000000000e+00 -0.0000000000e+00 -4.9670177924e+02 4.9670177924e+02 0.0000000000e+00 0.0000e+00 -1.0000e+00
      -13  1    1    2    0    0 -5.3343248860e+02 +2.8603354894e+02 -8.2435007017e+01 6.1086900510e+02 0.0000000000e+00 0.0000e+00 -1.0000e+00
       13  1    1    2    0    0 +5.3343248860e+02 -2.8603354894e+02 +4.6035669937e+02 7.6045624573e+02 0.0000000000e+00 0.0000e+00 1.0000e+00
<mgrwt>
<rscale>  0 0.13182216E+04</rscale>
<asrwt>0</asrwt>
<pdfrwt beam="1">  1        2 0.13455746E+00 0.13182216E+04</pdfrwt>
<pdfrwt beam="2">  1       -2 0.76415658E-01 0.13182216E+04</pdfrwt>
<totfact> 0.57813749E+01</totfact>
</mgrwt>
<rwgt>
<wgt id='morphing_basis_vector_1'> +1.5817149e-04 </wgt>
<wgt id='morphing_basis_vector_2'> +1.0495992e-04 </wgt>
<wgt id='morphing_basis_vector_3'> +1.6132777e-04 </wgt>
<wgt id='morphing_basis_vector_4'> +1.0345160e-04 </wgt>
<wgt id='morphing_basis_vector_5'> +1.6755832e-04 </wgt>
</rwgt>
</event>
<event>
 4      1 +3.5234200e-07 1.39550700e+03 7.81860800e-03 8.37835900e-02
        2 -1    0    0  501    0 +0.0000000000e+00 +0.0000000000e+00 +3.9894957768e+02 3.9894957768e+02 0.0000000000e+00 0.0000e+00 -1.0000e+00
       -2 -1    0    0    0  501 -0.0000000000e+00 -0.0000000000e+00 -1.2203550936e+03 1.2203550936e+03 0.0000000000e+00 0.0000e+00 1.0000e+00
      -13  1    1    2    0    0 +4.0262436905e+02 -3.6872479524e+02 -9.1489088487e+02 1.0654058797e+03 0.0000000000e+00 0.0000e+00 1.0000e+00
       13  1    1    2    0    0 -4.0262436905e+02 +3.6872479524e+02 +9.3485368943e+01 5.5389879164e+02 0.0000000000e+00 0.0000e+00 -1.0000e+00
<mgrwt>
<rscale>  0 0.13955073E+04</rscale>
<asrwt>0</asrwt>
<pdfrwt beam="1">  1        2 0.61376858E-01 0.13955073E+04</pdfrwt>
<pdfrwt beam="2">  1       -2 0.18774694E+00 0.13955073E+04</pdfrwt>
<totfact> 0.13726112E+01</totfact>
</mgrwt>
<rwgt>
<wgt id='morphing_basis_vector_1'> +1.9570493e-04 </wgt>
<wgt id='morphing_basis_vector_2'> +1.2816245e-04 </wgt>
<wgt id='morphing_basis_vector_3'> +2.0116600e-04 </wgt>
<wgt id='morphing_basis_vector_4'> +1.3305483e-04 </wgt>
<wgt id='morphing_basis_vector_5'> +2.1274216e-04 </wgt>
</rwgt>
</event>
<event>
 4      1 +3.5234200e-07 1.48939000e+03 7.81860800e-03 8.32115400e-02
        2 -1    0    0  501    0 +0.0000000000e+00 +0.0000000000e+00 +2.4306157095e+03 2.4306157095e+03 0.0000000000e+00 0.0000e+00 -1.0000e+00
       -2 -1    0    0    0  501 -0.0000000000e+00 -0.0000000000e+00 -2.2816054010e+02 2.2816054010e+02 0.0000000000e+00 0.0000e+00 1.0000e+00
      -13  1    1    2    0    0 +7.1846072823e+02 +1.9433255835e+02 +1.1456641246e+03 1.3661980997e+03 0.0000000000e+00 0.0000e+00 1.0000e+00
       13  1    1    2    0    0 -7.1846072823e+02 -1.9433255835e+02 +1.0567910448e+03 1.2925781499e+03 0.0000000000e+00 0.0000e+00 -1.0000e+00
<mgrwt>
<rscale>  0 0.14893899E+04</rscale>
<asrwt>0</asrwt>
<pdfrwt beam="1">  1        2 0.37394086E+00 0.14893899E+04</pdfrwt>
<pdfrwt beam="2">  1       -2 0.35101623E-01 0.14893899E+04</pdfrwt>
<totfact> 0.34020393E+01</totfact>
</mgrwt>
<rwgt>
<wgt id='morphing_basis_vector_1'> +2.6114793e-04 </wgt>
<wgt id='morphing_basis_vector_2'> +1.9455797e-04 </wgt>
<wgt id='morphing_basis_vector_3'> +2.7345398e-04 </wgt>
<wgt id='morphing_basis_vector_4'> +1.5621723e-04 </wgt>
<wgt id='morphing_basis_vector_5'> +2.7754745e-04 </wgt>
</rwgt>
</event>
<event>
 4      1 +3.5234200e-07 1.47644600e+03 7.81860800e-03 8.32877700e-02
        2 -1    0    0  501    0 +0.0000000000e+00 +0.0000000000e+00 +8.2612149953e+02 8.2612149953e+02 0.0000000000e+00 0.0000e+00 1.0000e+00
       -2 -1    0    0    0  501 -0.0000000000e+00 -0.0000000000e+00 -6.5967683239e+02 6.5967683239e+02 0.0000000000e+00 0.0000e+00 -1.0000e+00
      -13  1    1    2    0    0 -2.1385625517e+01 +1.5315612871e+02 -6.4319428649e+02 6.6152326862e+02 0.0000000000e+00 0.0000e+00 -1.0000e+00
       13  1    1    2    0    0 +2.1385625517e+01 -1.5315612871e+02 +8.0963895364e+02 8.2427506330e+02 0.0000000000e+00 0.0000e+00 1.0000e+00
<mgrwt>
<rscale>  0 0.14764460E+04</rscale>
<asrwt>0</asrwt>
<pdfrwt beam="1">  1        2 0.12709562E+00 0.14764460E+04</pdfrwt>
<pdfrwt beam="2">  1       -2 0.10148874E+00 0.14764460E+04</pdfrwt>
<totfact> 0.31833409E+01</totfact>
</mgrwt>
<rwgt>
<wgt id='morphing_basis_vector_1'> +2.4256972e-04 </wgt>
<wgt id='morphing_basis_vector_2'> +1.5838432e-04 </wgt>
<wgt id='morphing_basis_vector_3'> +2.5115810e-04 </wgt>
<wgt id='morphing_basis_vector_4'> +1.6912380e-04 </wgt>
<wgt id='morphing_basis_vector_5'> +2.6904132e-04 </wgt>
</rwgt>
</event>
<event>
 4      1 +3.5234200e-07 1.29585400e+03 7.81860800e-03 8.44444700e-02
        2 -1    0    0  501    0 +0.0000000000e+00 +0.0000000000e+00 +5.9291803737e+02 5.9291803737e+02 0.0000000000e+00 0.0000e+00 -1.0000e+00
       -2 -1    0    0    0  501 -0.0000000000e+00 -0.0000000000e+00 -7.0803964989e+02 7.0803964989e+02 0.0000000000e+00 0.0000e+00 1.0000e+00
      -13  1    1    2    0    0 -5.2938455126e+02 +3.3321153732e+02 -2.2713888954e+02 6.6548479085e+02 0.0000000000e+00 0.0000e+00 1.0000e+00
       13  1    1    2    0    0 +5.2938455126e+02 -3.3321153732e+02 +1.1201727702e+02 6.3547289641e+02 0.0000000000e+00 0.0000e+00 -1.0000e+00
<mgrwt>
<rscale>  0 0.12958541E+04</rscale>
<asrwt>0</asrwt>
<pdfrwt beam="1">  1        2 0.91218160E-01 0.12958541E+04</pdfrwt>
<pdfrwt beam="2">  1       -2 0.10892918E+00 0.12958541E+04</pdfrwt>
<totfact> 0.40808039E+01</totfact>
</mgrwt>
<rwgt>
<wgt id='morphing_basis_vector_1'> +1.4904476e-04 </wgt>
<wgt id='morphing_basis_vector_2'> +1.0077847e-04 </wgt>
<wgt id='morphing_basis_vector_3'> +1.5174393e-04 </wgt>
<wgt id='morphing_basis_vector_4'> +9.4756696e-05 </wgt>
<wgt id='morphing_basis_vector_5'> +1.5584529e-04 </wgt>
</rwgt>
</event>
<event>
 4      1 +3.5234200e-07 1.31502100e+03 7.81860800e-03 8.43126400e-02
        2 -1    0    0  501    0 +0.0000000000e+00 +0.0000000000e+00 +1.9057981757e+03 1.9057981757e+03 0.0000000000e+00 0.0000e+00 -1.0000e+00
       -2 -1    0    0    0  501 -0.0000000000e+00 -0.0000000000e+00 -2.2684446491e+02 2.2684446491e+02 0.0000000000e+00 0.0000e+00 1.0000e+00
      -13  1    1    2    0    0 -3.4357877593e+02 -7.3488763430e+01 -6.1835602745e+01 3.5675007412e+02 0.0000000000e+00 0.0000e+00 1.0000e+00
       13  1    1    2    0    0 +3.4357877593e+02 +7.3488763430e+01 +1.7407893135e+03 1.7758925665e+03 0.0000000000e+00 0.0000e+00 -1.0000e+00
<mgrwt>
<rscale>  0 0.13150206E+04</rscale>
<asrwt>0</asrwt>
<pdfrwt beam="1">  1        2 0.29319971E+00 0.13150206E+04</pdfrwt>
<pdfrwt beam="2">  1       -2 0.34899150E-01 0.13150206E+04</pdfrwt>
<totfact> 0.69466844E+01</totfact>
</mgrwt>
<rwgt>
<wgt id='morphing_basis_vector_1'> +1.5560696e-04 </wgt>
<wgt id='morphing_basis_vector_2'> +1.0066467e-04 </wgt>
<wgt id='morphing_basis_vector_3'> +1.5843532e-04 </wgt>
<wgt id='morphing_basis_vector_4'> +1.0437337e-04 </wgt>
<wgt id='morphing_basis_vector_5'> +1.6599915e-04 </wgt>
</rwgt>
</event>
<event>
 4      1 +3.5234200e-07 1.34540900e+03 7.81860800e-03 8.41083600e-02
        2 -1    0    0  501    0 +0.0000000000e+00 +0.0000000000e+00 +1.2926107778e+03 1.2926107778e+03 0.0000000000e+00 0.0000e+00 1.0000e+00
       -2 -1    0    0    0  501 -0.0000000000e+00 -0.0000000000e+00 -3.5009113218e+02 3.5009113218e+02 0.0000000000e+00 0.0000e+00 -1.0000e+00
      -13  1    1    2    0    0 -2.6875762457e+02 +4.4105437753e+00 -2.8167416102e+02 3.8934617841e+02 0.0000000000e+00 0.0000e+00 -1.0000e+00
       13  1    1    2    0    0 +2.6875762457e+02 -4.4105437753e+00 +1.2241938066e+03 1.2533557316e+03 0.0000000000e+00 0.0000e+00 1.0000e+00
<mgrwt>
<rscale>  0 0.13454093E+04</rscale>
<asrwt>0</asrwt>
<pdfrwt beam="1">  1        2 0.19886320E+00 0.13454093E+04</pdfrwt>
<pdfrwt beam="2">  1       -2 0.53860175E-01 0.13454093E+04</pdfrwt>
<totfact> 0.66807393E+01</totfact>
</mgrwt>
<rwgt>
<wgt id='morphing_basis_vector_1'> +1.6976930e-04 </wgt>
<wgt id='morphing_basis_vector_2'> +1.0998460e-04 </wgt>
<wgt id='morphing_basis_vector_3'> +1.7347289e-04 </wgt>
<wgt id='morphing_basis_vector_4'> +1.1488927e-04 </wgt>
<wgt id='morphing_basis_vector_5'> +1.8266715e-04 </wgt>
</rwgt>
</event>
<event>
 4      1 +3.5234200e-07 1.40682200e+03 7.81860800e-03 8.37122100e-02
        2 -1    0    0  501    0 +0.0000000000e+00 +0.0000000000e+00 +1.7659256980e+03 1.7659256980e+03 0.0000000000e+00 0.0000e+00 -1.0000e+00
       -2 -1    0    0    0  501 -0.0000000000e+00 -0.0000000000e+00 -2.8018544918e+02 2.8018544918e+02 0.0000000000e+00 0.0000e+00 1.0000e+00
      -13  1    1    2    0    0 +4.7419298570e+02 +3.2110844101e+02 +1.4883727255e+02 5.9171120682e+02 0.0000000000e+00 0.0000e+00 1.0000e+00
       13  1    1    2    0    0 -4.7419298570e+02 -3.2110844101e+02 +1.3369029763e+03 1.4543999404e+03 0.0000000000e+00 0.0000e+00 -1.0000e+00
<mgrwt>
<rscale>  0 0.14068215E+04</rscale>
<asrwt>0</asrwt>
<pdfrwt beam="1">  1        2 0.27168087E+00 0.14068215E+04</pdfrwt>
<pdfrwt beam="2">  1       -2 0.43105455E-01 0.14068215E+04</pdfrwt>
<totfact> 0.55708070E+01</totfact>
</mgrwt>
<rwgt>
<wgt id='morphing_basis_vector_1'> +2.0199700e-04 </wgt>
<wgt id='morphing_basis_vector_2'> +1.3268037e-04 </wgt>
<wgt id='morphing_basis_vector_3'> +2.0790748e-04 </wgt>
<wgt id='morphing_basis_vector_4'> +1.3736112e-04 </wgt>
<wgt id='morphing_basis_vector_5'> +2.2000626e-04 </wgt>
</rwgt>
</event>
<event>
 4      1 +3.5234200e-07 1.48845000e+03 7.81860800e-03 8.32170500e-02
        2 -1    0    0  501    0 +0.0000000000e+00 +0.0000000000e+00 +1.0717320598e+03 1.0717320598e+03 0.0000000000e+00 0.0000e+00 1.0000e+00
       -2 -1    0    0    0  501 -0.0000000000e+00 -0.0000000000e+00 -5.1679981453e+02 5.1679981453e+02 0.0000000000e+00 0.0000e+00 -1.0000e+00
      -13  1    1    2    0    0 -5.0645559339e+02 -4.3492340517e+02 +6.2854602791e+02 9.1691098022e+02 0.0000000000e+00 0.0000e+00 -1.0000e+00
       13  1    1    2    0    0 +5.0645559339e+02 +4.3492340517e+02 -7.3613782618e+01 6.7162089413e+02 0.0000000000e+00 0.0000e+00 1.0000e+00
<mgrwt>
<rscale>  0 0.14884501E+04</rscale>
<asrwt>0</asrwt>
<pdfrwt beam="1">  1        2 0.16488185E+00 0.14884501E+04</pdfrwt>
<pdfrwt beam="2">  1       -2 0.79507664E-01 0.14884501E+04</pdfrwt>
<totfact> 0.39162882E+01</totfact>
</mgrwt>
<rwgt>
<wgt id='morphing_basis_vector_1'> +2.8921866e-04 </wgt>
<wgt id='morphing_basis_vector_2'> +2.7966595e-04 </wgt>
<wgt id='morphing_basis_vector_3'> +3.1020038e-04 </wgt>
<wgt id='morphing_basis_vector_4'> +1.0237029e-04 </wgt>
<wgt id='morphing_basis_vector_5'> +2.7286716e-04 </wgt>
</rwgt>
</event>
<event>
 4      1 +3.5234200e-07 1.33914000e+03 7.81860800e-03 8.41500400e-02
        2 -1    0    0  501    0 +0.0000000000e+00 +0.0000000000e+00 +1.6394894016e+03 1.6394894016e+03 0.0000000000e+00 0.0000e+00 -1.0000e+00
       -2 -1    0    0    0  501 -0.0000000000e+00 -0.0000000000e+00 -2.7345347551e+02 2.7345347551e+02 0.0000000000e+00 0.0000e+00 1.0000e+00
      -13  1    1    2    0    0 -5.6131153342e+02 -2.1019582690e+02 +2.5668932233e+02 6.5202939458e+02 0.0000000000e+00 0.0000e+00 1.0000e+00
       13  1    1    2    0    0 +5.6131153342e+02 +2.1019582690e+02 +1.1093466038e+03 1.2609134826e+03 0.0000000000e+00 0.0000e+00 -1.0000e+00
<mgrwt>
<rscale>  0 0.13391401E+04</rscale>
<asrwt>0</asrwt>
<pdfrwt beam="1">  1        2 0.25222913E+00 0.13391401E+04</pdfrwt>
<pdfrwt beam="2">  1       -2 0.42069767E-01 0.13391401E+04</pdfrwt>
<totfact> 0.68940705E+01</totfact>
</mgrwt>
<rwgt>
<wgt id='morphing_basis_vector_1'> +1.6771985e-04 </wgt>
<wgt id='morphing_basis_vector_2'> +1.1085115e-04 </wgt>
<wgt id='morphing_basis_vector_3'> +1.7145174e-04 </wgt>
<wgt id='morphing_basis_vector_4'> +1.1095242e-04 </wgt>
<wgt id='morphing_basis_vector_5'> +1.7900994e-04 </wgt>
</rwgt>
</event>
<event>
 4      1 +3.5234200e-07 1.52164600e+03 7.81860800e-03 8.30250100e-02
        2 -1    0    0  501    0 +0.0000000000e+00 +0.0000000000e+00 +1.2580991648e+03 1.2580991648e+03 0.0000000000e+00 0.0000e+00 -1.0000e+00
       -2 -1    0    0    0  501 -0.0000000000e+00 -0.0000000000e+00 -4.6010041540e+02 4.6010041540e+02 0.0000000000e+00 0.0000e+00 1.0000e+00
      -13  1    1    2    0    0 -7.4233616837e+02 +6.6655995111e+01 +5.7152974078e+02 9.3922960619e+02 0.0000000000e+00 0.0000e+00 1.0000e+00
       13  1    1    2    0    0 +7.4233616837e+02 -6.6655995111e+01 +2.2646900863e+02 7.7896997401e+02 0.0000000000e+00 0.0000e+00 -1.0000e+00
<mgrwt>
<rscale>  0 0.15216464E+04</rscale>
<asrwt>0</asrwt>
<pdfrwt beam="1">  1        2 0.19355372E+00 0.15216464E+04</pdfrwt>
<pdfrwt beam="2">  1       -2 0.70784680E-01 0.15216464E+04</pdfrwt>
<totfact> 0.39167601E+01</totfact>
</mgrwt>
<rwgt>
<wgt id='morphing_basis_vector_1'> +2.9240452e-04 </wgt>
<wgt id='morphing_basis_vector_2'> +2.3765759e-04 </wgt>
<wgt id='morphing_basis_vector_3'> +3.0947468e-04 </wgt>
<wgt id='morphing_basis_vector_4'> +1.5431371e-04 </wgt>
<wgt id='morphing_basis_vector_5'> +3.0209167e-04 </wgt>
</rwgt>
</event>
<event>
 4      1 +3.5234200e-07 1.34307300e+03 7.81860800e-03 8.41238700e-02
        2 -1    0    0  501    0 +0.0000000000e+00 +0.0000000000e+00 +2.6597936914e+03 2.6597936914e+03 0.0000000000e+00 0.0000e+00 1.0000e+00
       -2 -1    0    0    0  501 -0.0000000000e+00 -0.0000000000e+00 -1.6954748554e+02 1.6954748554e+02 0.0000000000e+00 0.0000e+00 -1.0000e+00
      -13  1    1    2    0    0 +4.8893925501e+01 -6.6108237863e+02 +1.4714330935e+03 1.6138574522e+03 0.0000000000e+00 0.0000e+00 1.0000e+00
       13  1    1    2    0    0 -4.8893925501e+01 +6.6108237863e+02 +1.0188131124e+03 1.2154837248e+03 0.0000000000e+00 0.0000e+00 -1.0000e+00
<mgrwt>
<rscale>  0 0.13430731E+04</rscale>
<asrwt>0</asrwt>
<pdfrwt beam="1">  1        2 0.40919900E+00 0.13430731E+04</pdfrwt>
<pdfrwt beam="2">  1       -2 0.26084231E-01 0.13430731E+04</pdfrwt>
<totfact> 0.42624657E+01</totfact>
</mgrwt>
<rwgt>
<wgt id='morphing_basis_vector_1'> +1.7932772e-04 </wgt>
<wgt id='morphing_basis_vector_2'> +1.4119631e-04 </wgt>
<wgt id='morphing_basis_vector_3'> +1.8541394e-04 </wgt>
<wgt id='morphing_basis_vector_4'> +9.4843060e-05 </wgt>
<wgt id='morphing_basis_vector_5'> +1.7997155e-04 </wgt>
</rwgt>
</event>
<event>
 4      1 +3.5234200e-07 1.35323700e+03 7.81860800e-03 8.40566600e-02
        2 -1    0    0  501    0 +0.0000000000e+00 +0.0000000000e+00 +1.4101543027e+03 1.4101543027e+03 0.0000000000e+00 0.0000e+00 -1.0000e+00
       -2 -1    0    0    0  501 -0.0000000000e+00 -0.0000000000e+00 -3.2465420753e+02 3.2465420753e+02 0.0000000000e+00 0.0000e+00 1.0000e+00
      -13  1    1    2    0    0 +2.2600255324e+02 +5.8697627689e+02 +2.2304261087e+02 6.6735770766e+02 0.0000000000e+00 0.0000e+00 1.0000e+00
       13  1    1    2    0    0 -2.2600255324e+02 -5.8697627689e+02 +8.6245748433e+02 1.0674508026e+03 0.0000000000e+00 0.0000e+00 -1.0000e+00
<mgrwt>
<rscale>  0 0.13532369E+04</rscale>
<asrwt>0</asrwt>
<pdfrwt beam="1">  1        2 0.21694681E+00 0.13532369E+04</pdfrwt>
<pdfrwt beam="2">  1       -2 0.49946802E-01 0.13532369E+04</pdfrwt>
<totfact> 0.66474500E+01</totfact>
</mgrwt>
<rwgt>
<wgt id='morphing_basis_vector_1'> +1.7501810e-04 </wgt>
<wgt id='morphing_basis_vector_2'> +1.1681492e-04 </wgt>
<wgt id='morphing_basis_vector_3'> +1.7930199e-04 </wgt>
<wgt id='morphing_basis_vector_4'> +1.1511061e-04 </wgt>
<wgt id='morphing_basis_vector_5'> +1.8696663e-04 </wgt>
</rwgt>
</event>
<event>
 4      1 +3.5234200e-07 1.36215400e+03 7.81860800e-03 8.39982000e-02
        2 -1    0    0  501    0 +0.0000000000e+00 +0.0000000000e+00 +1.7664890830e+03 1.7664890830e+03 0.0000000000e+00 0.0000e+00 -1.0000e+00
       -2 -1    0    0    0  501 -0.0000000000e+00 -0.0000000000e+00 -2.6259194134e+02 2.6259194134e+02 0.0000000000e+00 0.0000e+00 1.0000e+00
      -13  1    1    2    0    0 -4.9953546186e+02 +4.2308592922e+02 +4.7196322345e+02 8.0702333638e+02 0.0000000000e+00 0.0000e+00 1.0000e+00
       13  1    1    2    0    0 +4.9953546186e+02 -4.2308592922e+02 +1.0319339182e+03 1.2220576880e+03 0.0000000000e+00 0.0000e+00 -1.0000e+00
<mgrwt>
<rscale>  0 0.13621539E+04</rscale>
<asrwt>0</asrwt>
<pdfrwt beam="1">  1        2 0.27176754E+00 0.13621539E+04</pdfrwt>
<pdfrwt beam="2">  1       -2 0.40398761E-01 0.13621539E+04</pdfrwt>
<totfact> 0.63136422E+01</totfact>
</mgrwt>
<rwgt>
<wgt id='morphing_basis_vector_1'> +1.8021234e-04 </wgt>
<wgt id='morphing_basis_vector_2'> +1.2206373e-04 </wgt>
<wgt id='morphing_basis_vector_3'> +1.8497237e-04 </wgt>
<wgt id='morphing_basis_vector_4'> +1.1697349e-04 </wgt>
<wgt id='morphing_basis_vector_5'> +1.9207336e-04 </wgt>
</rwgt>
</event>
<event>
 4      1 +3.5234200e-07 1.44972500e+03 7.81860800e-03 8.34477400e-02
        2 -1    0    0  501    0 +0.0000000000e+00 +0.0000000000e+00 +7.0317726186e+02 7.0317726186e+02 0.0000000000e+00 0.0000e+00 -1.0000e+00
       -2 -1    0    0    0  501 -0.0000000000e+00 -0.0000000000e+00 -7.4721635096e+02 7.4721635096e+02 0.0000000000e+00 0.0000e+00 1.0000e+00
      -13  1    1    2    0    0 -1.7976046838e+02 +7.0092725024e+02 -6.4615134973e+01 7.2649015946e+02 0.0000000000e+00 0.0000e+00 1.0000e+00
       13  1    1    2    0    0 +1.7976046838e+02 -7.0092725024e+02 +2.0576045872e+01 7.2390345336e+02 0.0000000000e+00 0.0000e+00 -1.0000e+00
<mgrwt>
<rscale>  0 0.14497249E+04</rscale>
<asrwt>0</asrwt>
<pdfrwt beam="1">  1        2 0.10818112E+00 0.14497249E+04</pdfrwt>
<pdfrwt beam="2">  1       -2 0.11495636E+00 0.14497249E+04</pdfrwt>
<totfact> 0.28670971E+01</totfact>
</mgrwt>
<rwgt>
<wgt id='morphing_basis_vector_1'> +2.3271759e-04 </wgt>
<wgt id='morphing_basis_vector_2'> +1.6717503e-04 </wgt>
<wgt id='morphing_basis_vector_3'> +2.4205221e-04 </wgt>
<wgt id='morphing_basis_vector_4'> +1.4455465e-04 </wgt>
<wgt id='morphing_basis_vector_5'> +2.4848932e-04 </wgt>
</rwgt>
</event>
<event>
 4      1 +3.5234200e-07 1.43454600e+03 7.81860800e-03 8.35402100e-02
        2 -1    0    0  501    0 +0.0000000000e+00 +0.0000000000e+00 +5.3808378124e+02 5.3808378124e+02 0.0000000000e+00 0.0000e+00 -1.0000e+00
       -2 -1    0    0    0  501 -0.0000000000e+00 -0.0000000000e+00 -9.5613440994e+02 9.5613440994e+02 0.0000000000e+00 0.0000e+00 1.0000e+00
      -13  1    1    2    0    0 -6.0385126839e+02 -1.5975660233e+02 -5.7628512395e+02 8.4986061823e+02 0.0000000000e+00 0.0000e+00 1.0000e+00
       13  1    1    2    0    0 +6.0385126839e+02 +1.5975660233e+02 +1.5823449525e+02 6.4435757295e+02 0.0000000000e+00 0.0000e+00 -1.0000e+00
<mgrwt>
<rscale>  0 0.14345458E+04</rscale>
<asrwt>0</asrwt>
<pdfrwt beam="1">  1        2 0.82782121E-01 0.14345458E+04</pdfrwt>
<pdfrwt beam="2">  1       -2 0.14709760E+00 0.14345458E+04</pdfrwt>
<totfact> 0.20340153E+01</totfact>
</mgrwt>
<rwgt>
<wgt id='morphing_basis_vector_1'> +2.1812139e-04 </wgt>
<wgt id='morphing_basis_vector_2'> +1.4442163e-04 </wgt>
<wgt id='morphing_basis_vector_3'> +2.2522190e-04 </wgt>
<wgt id='morphing_basis_vector_4'> +1.4824175e-04 </wgt>
<wgt id='morphing_basis_vector_5'> +2.3857319e-04 </wgt>
</rwgt>
</event>
<event>
 4      1 +3.5234200e-07 1.44962700e+03 7.81860800e-03 8.34483300e-02
        2 -1    0    0  501    0 +0.0000000000e+00 +0.0000000000e+00 +1.3131360712e+03 1.3131360712e+03 0.0000000000e+00 0.0000e+00 1.0000e+00
       -2 -1    0    0    0  501 -0.0000000000e+00 -0.0000000000e+00 -4.0007611364e+02 4.0007611364e+02 0.0000000000e+00 0.0000e+00 -1.0000e+00
      -13  1    1    2    0    0 +8.0082872748e+01 -6.8158914007e+02 +1.8093962261e+02 7.0972964529e+02 0.0000000000e+00 0.0000e+00 -1.0000e+00
       13  1    1    2    0    0 -8.0082872748e+01 +6.8158914007e+02 +7.3212033497e+02 1.0034825396e+03 0.0000000000e+00 0.0000e+00 1.0000e+00
<mgrwt>
<rscale>  0 0.14496267E+04</rscale>
<asrwt>0</asrwt>
<pdfrwt beam="1">  1        2 0.20202093E+00 0.14496267E+04</pdfrwt>
<pdfrwt beam="2">  1       -2 0.61550172E-01 0.14496267E+04</pdfrwt>
<totfact> 0.49167987E+01</totfact>
</mgrwt>
<rwgt>
<wgt id='morphing_basis_vector_1'> +2.2836296e-04 </wgt>
<wgt id='morphing_basis_vector_2'> +1.5431755e-04 </wgt>
<wgt id='morphing_basis_vector_3'> +2.3646355e-04 </wgt>
<wgt id='morphing_basis_vector_4'> +1.5244285e-04 </wgt>
<wgt id='morphing_basis_vector_5'> +2.4900135e-04 </wgt>
</rwgt>
</event>
<event>
 4      1 +3.5234200e-07 1.29531300e+03 7.81860800e-03 8.44482300e-02
        2 -1    0    0  501    0 +0.0000000000e+00 +0.0000000000e+00 +1.6816561522e+03 1.6816561522e+03 0.0000000000e+00 0.0000e+00 1.0000e+00
       -2 -1    0    0    0  501 -0.0000000000e+00 -0.0000000000e+00 -2.4943198639e+02 2.4943198639e+02 0.0000000000e+00 0.0000e+00 -1.0000e+00
      -13  1    1    2    0    0 +4.7994460618e+02 +2.1185576142e+02 +1.4993283986e+02 5.4562766162e+02 0.0000000000e+00 0.0000e+00 -1.0000e+00
       13  1    1    2    0    0 -4.7994460618e+02 -2.1185576142e+02 +1.2822913260e+03 1.3854604770e+03 0.0000000000e+00 0.0000e+00 1.0000e+00
<mgrwt>
<rscale>  0 0.12953128E+04</rscale>
<asrwt>0</asrwt>
<pdfrwt beam="1">  1        2 0.25871632E+00 0.12953128E+04</pdfrwt>
<pdfrwt beam="2">  1       -2 0.38374153E-01 0.12953128E+04</pdfrwt>
<totfact> 0.77849956E+01</totfact>
</mgrwt>
<rwgt>
<wgt id='morphing_basis_vector_1'> +1.4725190e-04 </wgt>
<wgt id='morphing_basis_vector_2'> +9.5954716e-05 </wgt>
<wgt id='morphing_basis_vector_3'> +1.4962446e-04 </wgt>
<wgt id='morphing_basis_vector_4'> +9.7350304e-05 </wgt>
<wgt id='morphing_basis_vector_5'> +1.5576641e-04 </wgt>
</rwgt>
</event>
<event>
 4      1 +3.5234200e-07 1.45566900e+03 7.81860800e-03 8.34118500e-02
        2 -1    0    0  501    0 +0.0000000000e+00 +0.0000000000e+00 +2.6685396286e+03 2.6685396286e+03 0.0000000000e+00 0.0000e+00 -1.0000e+00
       -2 -1    0    0    0  501 -0.0000000000e+00 -0.0000000000e+00 -1.9851413917e+02 1.9851413917e+02 0.0000000000e+00 0.0000e+00 1.0000e+00
      -13  1    1    2    0    0 +6.3121931946e+02 +2.0499274751e+02 +6.4649758055e+02 9.2650902718e+02 0.0000000000e+00 0.0000e+00 1.0000e+00
       13  1    1    2    0    0 -6.3121931946e+02 -2.0499274751e+02 +1.8235279089e+03 1.9405447406e+03 0.0000000000e+00 0.0000e+00 -1.0000e+00
<mgrwt>
<rscale>  0 0.14556687E+04</rscale>
<asrwt>0</asrwt>
<pdfrwt beam="1">  1        2 0.41054453E+00 0.14556687E+04</pdfrwt>
<pdfrwt beam="2">  1       -2 0.30540639E-01 0.14556687E+04</pdfrwt>
<totfact> 0.31588120E+01</totfact>
</mgrwt>
<rwgt>
<wgt id='morphing_basis_vector_1'> +2.3126619e-04 </wgt>
<wgt id='morphing_basis_vector_2'> +1.5452382e-04 </wgt>
<wgt id='morphing_basis_vector_3'> +2.3941085e-04 </wgt>
<wgt id='morphing_basis_vector_4'> +1.5654294e-04 </wgt>
<wgt id='morphing_basis_vector_5'> +2.5344861e-04 </wgt>
</rwgt>
</event>
<event>
 4      1 +3.5234200e-07 1.35607200e+03 7.81860800e-03 8.40380200e-02
        2 -1    0    0  501    0 +0.0000000000e+00 +0.0000000000e+00 +1.4293080531e+03 1.4293080531e+03 0.0000000000e+00 0.0000e+00 1.0000e+00
       -2 -1    0    0    0  501 -0.0000000000e+00 -0.0000000000e+00 -3.2164702616e+02 3.2164702616e+02 0.0000000000e+00 0.0000e+00 -1.0000e+00
      -13  1    1    2    0    0 -2.6285309588e+02 -5.3540274609e+02 +1.3746253678e+02 6.1208153015e+02 0.0000000000e+00 0.0000e+00 -1.0000e+00
       13  1    1    2    0    0 +2.6285309588e+02 +5.3540274609e+02 +9.7019849015e+02 1.1388735491e+03 0.0000000000e+00 0.0000e+00 1.0000e+00
<mgrwt>
<rscale>  0 0.13560718E+04</rscale>
<asrwt>0</asrwt>
<pdfrwt beam="1">  1        2 0.21989354E+00 0.13560718E+04</pdfrwt>
<pdfrwt beam="2">  1       -2 0.49484159E-01 0.13560718E+04</pdfrwt>
<totfact> 0.66021095E+01</totfact>
</mgrwt>
<rwgt>
<wgt id='morphing_basis_vector_1'> +1.7583906e-04 </wgt>
<wgt id='morphing_basis_vector_2'> +1.1602170e-04 </wgt>
<wgt id='morphing_basis_vector_3'> +1.8007782e-04 </wgt>
<wgt id='morphing_basis_vector_4'> +1.1717876e-04 </wgt>
<wgt id='morphing_basis_vector_5'> +1.8868510e-04 </wgt>
</rwgt>
</event>
<event>
 4      1 +3.5234200e-07 1.35193200e+03 7.81860800e-03 8.40652500e-02
        2 -1    0    0  501    0 +0.0000000000e+00 +0.0000000000e+00 +1.7126071467e+03 1.7126071467e+03 0.0000000000e+00 0.0000e+00 1.0000e+00
       -2 -1    0    0    0  501 -0.0000000000e+00 -0.0000000000e+00 -2.6680382885e+02 2.6680382885e+02 0.0000000000e+00 0.0000e+00 -1.0000e+00
      -13  1    1    2    0    0 +4.4410891944e+02 -1.5272361733e+01 +1.4686971743e+03 1.5344501840e+03 0.0000000000e+00 0.0000e+00 1.0000e+00
       13  1    1    2    0    0 -4.4410891944e+02 +1.5272361733e+01 -2.2893856447e+01 4.4496079155e+02 0.0000000000e+00 0.0000e+00 -1.0000e+00
<mgrwt>
<rscale>  0 0.13519322E+04</rscale>
<asrwt>0</asrwt>
<pdfrwt beam="1">  1        2 0.26347802E+00 0.13519322E+04</pdfrwt>
<pdfrwt beam="2">  1       -2 0.41046744E-01 0.13519322E+04</pdfrwt>
<totfact> 0.65701498E+01</totfact>
</mgrwt>
<rwgt>
<wgt id='morphing_basis_vector_1'> +2.2689424e-04 </wgt>
<wgt id='morphing_basis_vector_2'> +2.7345148e-04 </wgt>
<wgt id='morphing_basis_vector_3'> +2.4346881e-04 </wgt>
<wgt id='morphing_basis_vector_4'> +1.9950905e-05 </wgt>
<wgt id='morphing_basis_vector_5'> +1.7943330e-04 </wgt>
</rwgt>
</event>
<event>
 4      1 +3.5234200e-07 1.52839900e+03 7.81860800e-03 8.29865700e-02
        2 -1    0    0  501    0 +0.0000000000e+00 +0.0000000000e+00 +8.4567594547e+02 8.4567594547e+02 0.0000000000e+00 0.0000e+00 -1.0000e+00
       -2 -1    0    0    0  501 -0.0000000000e+00 -0.0000000000e+00 -6.9057257972e+02 6.9057257972e+02 0.0000000000e+00 0.0000e+00 1.0000e+00
      -13  1    1    2    0    0 +3.6210882012e+02 +3.6761460113e+02 -4.8902532705e+02 7.1092127769e+02 0.0000000000e+00 0.0000e+00 1.0000e+00
       13  1    1    2    0    0 -3.6210882012e+02 -3.6761460113e+02 +6.4412869281e+02 8.2532724750e+02 0.0000000000e+00 0.0000e+00 -1.0000e+00
<mgrwt>
<rscale>  0 0.15283987E+04</rscale>
<asrwt>0</asrwt>
<pdfrwt beam="1">  1        2 0.13010399E+00 0.15283987E+04</pdfrwt>
<pdfrwt beam="2">  1       -2 0.10624193E+00 0.15283987E+04</pdfrwt>
<totfact> 0.27474029E+01</totfact>
</mgrwt>
<rwgt>
<wgt id='morphing_basis_vector_1'> +2.7745368e-04 </wgt>
<wgt id='morphing_basis_vector_2'> +1.8223937e-04 </wgt>
<wgt id='morphing_basis_vector_3'> +2.8860819e-04 </wgt>
<wgt id='morphing_basis_vector_4'> +1.9467536e-04 </wgt>
<wgt id='morphing_basis_vector_5'> +3.1047537e-04 </wgt>
</rwgt>
</event>
<event>
 4      1 +3.5234200e-07 1.44551900e+03 7.81860800e-03 8.34732400e-02
        2 -1    0    0  501    0 +0.0000000000e+00 +0.0000000000e+00 +3.0937157189e+03 3.0937157189e+03 0.0000000000e+00 0.0000e+00 -1.0000e+00
       -2 -1    0    0    0  501 -0.0000000000e+00 -0.0000000000e+00 -1.6885240050e+02 1.6885240050e+02 0.0000000000e+00 0.0000e+00 1.0000e+00
      -13  1    1    2    0    0 -4.5682466492e+02 +5.0824849722e+02 +9.3130680437e+02 1.1551353485e+03 0.0000000000e+00 0.0000e+00 1.0000e+00
       13  1    1    2    0    0 +4.5682466492e+02 -5.0824849722e+02 +1.9935565140e+03 2.1074327710e+03 0.0000000000e+00 0.0000e+00 -1.0000e+00
<mgrwt>
<rscale>  0 0.14455190E+04</rscale>
<asrwt>0</asrwt>
<pdfrwt beam="1">  1        2 0.47595622E+00 0.14455190E+04</pdfrwt>
<pdfrwt beam="2">  1       -2 0.25977295E-01 0.14455190E+04</pdfrwt>
<totfact> 0.22619880E+01</totfact>
</mgrwt>
<rwgt>
<wgt id='morphing_basis_vector_1'> +2.2584410e-04 </wgt>
<wgt id='morphing_basis_vector_2'> +1.5249260e-04 </wgt>
<wgt id='morphing_basis_vector_3'> +2.3375248e-04 </wgt>
<wgt id='morphing_basis_vector_4'> +1.5072965e-04 </wgt>
<wgt id='morphing_basis_vector_5'> +2.4608704e-04 </wgt>
</rwgt>
</event>
<event>
 4      1 +3.5234200e-07 1.31867400e+03 7.81860800e-03 8.42877700e-02
        2 -1    0    0  501    0 +0.0000000000e+00 +0.0000000000e+00 +1.0112701878e+03 1.0112701878e+03 0.0000000000e+00 0.0000e+00 -1.0000e+00
       -2 -1    0    0    0  501 -0.0000000000e+00 -0.0000000000e+00 -4.2988069154e+02 4.2988069154e+02 0.0000000000e+00 0.0000e+00 1.0000e+00
      -13  1    1    2    0    0 +6.5601700107e+02 +1.0918371615e+01 +3.6192503719e+02 7.4931118307e+02 0.0000000000e+00 0.0000e+00 1.0000e+00
       13  1    1    2    0    0 -6.5601700107e+02 -1.0918371615e+01 +2.1946445907e+02 6.9183969626e+02 0.0000000000e+00 0.0000e+00 -1.0000e+00
<mgrwt>
<rscale>  0 0.13186744E+04</rscale>
<asrwt>0</asrwt>
<pdfrwt beam="1">  1        2 0.15558003E+00 0.13186744E+04</pdfrwt>
<pdfrwt beam="2">  1       -2 0.66135491E-01 0.13186744E+04</pdfrwt>
<totfact> 0.64550541E+01</totfact>
</mgrwt>
<rwgt>
<wgt id='morphing_basis_vector_1'> +1.6529767e-04 </wgt>
<wgt id='morphing_basis_vector_2'> +1.2581062e-04 </wgt>
<wgt id='morphing_basis_vector_3'> +1.6995425e-04 </wgt>
<wgt id='morphing_basis_vector_4'> +9.1242166e-05 </wgt>
<wgt id='morphing_basis_vector_5'> +1.6692346e-04 </wgt>
</rwgt>
</event>
<event>
 4      1 +3.5234200e-07 1.35184900e+03 7.81860800e-03 8.40658000e-02
        2 -1    0    0  501    0 +0.0000000000e+00 +0.0000000000e+00 +2.1795144986e+03 2.1795144986e+03 0.0000000000e+00 0.0000e+00 -1.0000e+00
       -2 -1    0    0    0  501 -0.0000000000e+00 -0.0000000000e+00 -2.0962181374e+02 2.0962181374e+02 0.0000000000e+00 0.0000e+00 1.0000e+00
      -13  1    1    2    0    0 +5.5004908606e+01 +5.9933316174e+02 +4.4123481105e+02 7.4626666629e+02 0.0000000000e+00 0.0000e+00 1.0000e+00
       13  1    1    2    0    0 -5.5004908606e+01 -5.9933316174e+02 +1.5286578738e+03 1.6428696460e+03 0.0000000000e+00 0.0000e+00 -1.0000e+00
<mgrwt>
<rscale>  0 0.13518488E+04</rscale>
<asrwt>0</asrwt>
<pdfrwt beam="1">  1        2 0.33530991E+00 0.13518488E+04</pdfrwt>
<pdfrwt beam="2">  1       -2 0.32249511E-01 0.13518488E+04</pdfrwt>
<totfact> 0.56036421E+01</totfact>
</mgrwt>
<rwgt>
<wgt id='morphing_basis_vector_1'> +1.7384590e-04 </wgt>
<wgt id='morphing_basis_vector_2'> +1.1489272e-04 </wgt>
<wgt id='morphing_basis_vector_3'> +1.7796993e-04 </wgt>
<wgt id='morphing_basis_vector_4'> +1.1549522e-04 </wgt>
<wgt id='morphing_basis_vector_5'> +1.8622898e-04 </wgt>
</rwgt>
</event>
<event>
 4      1 +3.5234200e-07 1.34984900e+03 7.81860800e-03 8.40789900e-02
        2 -1    0    0  501    0 +0.0000000000e+00 +0.0000000000e+00 +2.1752288937e+03 2.1752288937e+03 0.0000000000e+00 0.0000e+00 -1.0000e+00
       -2 -1    0    0    0  501 -0.0000000000e+00 -0.0000000000e+00 -2.0941390477e+02 2.0941390477e+02 0.0000000000e+00 0.0000e+00 1.0000e+00
      -13  1    1    2    0    0 +2.4754318396e+02 -4.6256701394e+02 +2.3282569194e+02 5.7398055118e+02 0.0000000000e+00 0.0000e+00 1.0000e+00
       13  1    1    2    0    0 -2.4754318396e+02 +4.6256701394e+02 +1.7329892970e+03 1.8106622473e+03 0.0000000000e+00 0.0000e+00 -1.0000e+00
<mgrwt>
<rscale>  0 0.13498491E+04</rscale>
<asrwt>0</asrwt>
<pdfrwt beam="1">  1        2 0.33465058E+00 0.13498491E+04</pdfrwt>
<pdfrwt beam="2">  1       -2 0.32217525E-01 0.13498491E+04</pdfrwt>
<totfact> 0.56461583E+01</totfact>
</mgrwt>
<rwgt>
<wgt id='morphing_basis_vector_1'> +1.7226594e-04 </wgt>
<wgt id='morphing_basis_vector_2'> +1.1244021e-04 </wgt>
<wgt id='morphing_basis_vector_3'> +1.7618594e-04 </wgt>
<wgt id='morphing_basis_vector_4'> +1.1586156e-04 </wgt>
<wgt id='morphing_basis_vector_5'> +1.8515709e-04 </wgt>
</rwgt>
</event>
<event>
 4      1 +3.5234200e-07 1.46214200e+03 7.81860800e-03 8.33729700e-02
        2 -1    0    0  501    0 +0.0000000000e+00 +0.0000000000e+00 +3.8132228452e+03 3.8132228452e+03 0.0000000000e+00 0.0000e+00 1.0000e+00
       -2 -1    0    0    0  501 -0.0000000000e+00 -0.0000000000e+00 -1.4016082476e+02 1.4016082476e+02 0.0000000000e+00 0.0000e+00 -1.0000e+00
      -13  1    1    2    0    0 +3.6908482217e+02 -6.1739504097e+02 +2.1897326638e+03 2.3048491017e+03 0.0000000000e+00 0.0000e+00 1.0000e+00
       13  1    1    2    0    0 -3.6908482217e+02 +6.1739504097e+02 +1.4833293567e+03 1.6485345683e+03 0.0000000000e+00 0.0000e+00 -1.0000e+00
<mgrwt>
<rscale>  0 0.14621415E+04</rscale>
<asrwt>0</asrwt>
<pdfrwt beam="1">  1        2 0.58664959E+00 0.14621415E+04</pdfrwt>
<pdfrwt beam="2">  1       -2 0.21563207E-01 0.14621415E+04</pdfrwt>
<totfact> 0.94350389E+00</totfact>
</mgrwt>
<rwgt>
<wgt id='morphing_basis_vector_1'> +2.4946629e-04 </wgt>
<wgt id='morphing_basis_vector_2'> +1.9964735e-04 </wgt>
<wgt id='morphing_basis_vector_3'> +2.6205237e-04 </wgt>
<wgt id='morphing_basis_vector_4'> +1.3313101e-04 </wgt>
<wgt id='morphing_basis_vector_5'> +2.5622604e-04 </wgt>
</rwgt>
</event>
<event>
 4      1 +3.5234200e-07 1.54404400e+03 7.81860800e-03 8.28982800e-02
        2 -1    0    0  501    0 +0.0000000000e+00 +0.0000000000e+00 +2.2588602489e+03 2.2588602489e+03 0.0000000000e+00 0.0000e+00 1.0000e+00
       -2 -1    0    0    0  501 -0.0000000000e+00 -0.0000000000e+00 -2.6385770614e+02 2.6385770614e+02 0.0000000000e+00 0.0000e+00 -1.0000e+00
      -13  1    1    2    0    0 -3.9177013131e+02 -1.8808628869e+02 -4.5032888206e+01 4.3690759756e+02 0.0000000000e+00 0.0000e+00 -1.0000e+00
       13  1    1    2    0    0 +3.9177013131e+02 +1.8808628869e+02 +2.0400354309e+03 2.0858103575e+03 0.0000000000e+00 0.0000e+00 1.0000e+00
<mgrwt>
<rscale>  0 0.15440436E+04</rscale>
<asrwt>0</asrwt>
<pdfrwt beam="1">  1        2 0.34751695E+00 0.15440436E+04</pdfrwt>
<pdfrwt beam="2">  1       -2 0.40593495E-01 0.15440436E+04</pdfrwt>
<totfact> 0.32564704E+01</totfact>
</mgrwt>
<rwgt>
<wgt id='morphing_basis_vector_1'> +2.8843261e-04 </wgt>
<wgt id='morphing_basis_vector_2'> +1.8922405e-04 </wgt>
<wgt id='morphing_basis_vector_3'> +3.0035522e-04 </wgt>
<wgt id='morphing_basis_vector_4'> +2.0334439e-04 </wgt>
<wgt id='morphing_basis_vector_5'> +3.2386349e-04 </wgt>
</rwgt>
</event>
<event>
 4      1 +3.5234200e-07 1.43478000e+03 7.81860800e-03 8.35387700e-02
        2 -1    0    0  501    0 +0.0000000000e+00 +0.0000000000e+00 +1.3335371836e+03 1.3335371836e+03 0.0000000000e+00 0.0000e+00 -1.0000e+00
       -2 -1    0    0    0  501 -0.0000000000e+00 -0.0000000000e+00 -3.8592717340e+02 3.8592717340e+02 0.0000000000e+00 0.0000e+00 1.0000e+00
      -13  1    1    2    0    0 +5.5654191154e+02 +1.5433322026e+01 -6.8365954675e+01 5.6093759946e+02 0.0000000000e+00 0.0000e+00 1.0000e+00
       13  1    1    2    0    0 -5.5654191154e+02 -1.5433322026e+01 +1.0159759649e+03 1.1585267576e+03 0.0000000000e+00 0.0000e+00 -1.0000e+00
<mgrwt>
<rscale>  0 0.14347798E+04</rscale>
<asrwt>0</asrwt>
<pdfrwt beam="1">  1        2 0.20515956E+00 0.14347798E+04</pdfrwt>
<pdfrwt beam="2">  1       -2 0.59373412E-01 0.14347798E+04</pdfrwt>
<totfact> 0.51605807E+01</totfact>
</mgrwt>
<rwgt>
<wgt id='morphing_basis_vector_1'> +2.1770090e-04 </wgt>
<wgt id='morphing_basis_vector_2'> +1.4285058e-04 </wgt>
<wgt id='morphing_basis_vector_3'> +2.2465549e-04 </wgt>
<wgt id='morphing_basis_vector_4'> +1.4936788e-04 </wgt>
<wgt id='morphing_basis_vector_5'> +2.3881010e-04 </wgt>
</rwgt>
</event>
<event>
 4      1 +3.5234200e-07 1.34971100e+03 7.81860800e-03 8.40799000e-02
        2 -1    0    0  501    0 +0.0000000000e+00 +0.0000000000e+00 +1.3536311419e+03 1.3536311419e+03 0.0000000000e+00 0.0000e+00 1.0000e+00
       -2 -1    0    0    0  501 -0.0000000000e+00 -0.0000000000e+00 -3.3645056120e+02 3.3645056120e+02 0.0000000000e+00 0.0000e+00 -1.0000e+00
      -13  1    1    2    0    0 +4.0720737332e+02 +1.6392372332e+02 -1.3325585173e+02 4.5874388713e+02 0.0000000000e+00 0.0000e+00 -1.0000e+00
       13  1    1    2    0    0 -4.0720737332e+02 -1.6392372332e+02 +1.1504364324e+03 1.2313378160e+03 0.0000000000e+00 0.0000e+00 1.0000e+00
<mgrwt>
<rscale>  0 0.13497110E+04</rscale>
<asrwt>0</asrwt>
<pdfrwt beam="1">  1        2 0.20825094E+00 0.13497110E+04</pdfrwt>
<pdfrwt beam="2">  1       -2 0.51761625E-01 0.13497110E+04</pdfrwt>
<totfact> 0.66711267E+01</totfact>
</mgrwt>
<rwgt>
<wgt id='morphing_basis_vector_1'> +1.7197125e-04 </wgt>
<wgt id='morphing_basis_vector_2'> +1.1171544e-04 </wgt>
<wgt id='morphing_basis_vector_3'> +1.7583385e-04 </wgt>
<wgt id='morphing_basis_vector_4'> +1.1622159e-04 </wgt>
<wgt id='morphing_basis_vector_5'> +1.8510719e-04 </wgt>
</rwgt>
</event>
<event>
 4      1 +3.5234200e-07 1.39295500e+03 7.81860800e-03 8.37997900e-02
        2 -1    0    0  501    0 +0.0000000000e+00 +0.0000000000e+00 +1.1808916768e+03 1.1808916768e+03 0.0000000000e+00 0.0000e+00 -1.0000e+00
       -2 -1    0    0    0  501 -0.0000000000e+00 -0.0000000000e+00 -4.1077514558e+02 4.1077514558e+02 0.0000000000e+00 0.0000e+00 1.0000e+00
      -13  1    1    2    0    0 +2.4430437197e+02 -5.7468961101e+02 +7.3748564553e+02 9.6635286130e+02 0.0000000000e+00 0.0000e+00 -1.0000e+00
       13  1    1    2    0    0 -2.4430437197e+02 +5.7468961101e+02 +3.2630885640e+01 6.2531396103e+02 0.0000000000e+00 0.0000e+00 1.0000e+00
<mgrwt>
<rscale>  0 0.13929551E+04</rscale>
<asrwt>0</asrwt>
<pdfrwt beam="1">  1        2 0.18167564E+00 0.13929551E+04</pdfrwt>
<pdfrwt beam="2">  1       -2 0.63196177E-01 0.13929551E+04</pdfrwt>
<totfact> 0.55778990E+01</totfact>
</mgrwt>
<rwgt>
<wgt id='morphing_basis_vector_1'> +2.2412808e-04 </wgt>
<wgt id='morphing_basis_vector_2'> +2.1625934e-04 </wgt>
<wgt id='morphing_basis_vector_3'> +2.3717289e-04 </wgt>
<wgt id='morphing_basis_vector_4'> +7.7753202e-05 </wgt>
<wgt id='morphing_basis_vector_5'> +2.0719347e-04 </wgt>
</rwgt>
</event>
<event>
 4      1 +3.5234200e-07 1.36612600e+03 7.81860800e-03 8.39723000e-02
        2 -1    0    0  501    0 +0.0000000000e+00 +0.0000000000e+00 +5.3016595702e+02 5.3016595702e+02 0.0000000000e+00 0.0000e+00 1.0000e+00
       -2 -1    0    0    0  501 -0.0000000000e+00 -0.0000000000e+00 -8.8005528169e+02 8.8005528169e+02 0.0000000000e+00 0.0000e+00 -1.0000e+00
      -13  1    1    2    0    0 -3.0969352833e+02 +5.8650728558e+02 -3.4353950480e+02 7.4694060599e+02 0.0000000000e+00 0.0000e+00 -1.0000e+00
       13  1    1    2    0    0 +3.0969352833e+02 -5.8650728558e+02 -6.3498198702e+00 6.6328063271e+02 0.0000000000e+00 0.0000e+00 1.0000e+00
<mgrwt>
<rscale>  0 0.13661264E+04</rscale>
<asrwt>0</asrwt>
<pdfrwt beam="1">  1        2 0.81563995E-01 0.13661264E+04</pdfrwt>
<pdfrwt beam="2">  1       -2 0.13539312E+00 0.13661264E+04</pdfrwt>
<totfact> 0.26200870E+01</totfact>
</mgrwt>
<rwgt>
<wgt id='morphing_basis_vector_1'> +1.8260390e-04 </wgt>
<wgt id='morphing_basis_vector_2'> +1.2457020e-04 </wgt>
<wgt id='morphing_basis_vector_3'> +1.8759324e-04 </wgt>
<wgt id='morphing_basis_vector_4'> +1.1773200e-04 </wgt>
<wgt id='morphing_basis_vector_5'> +1.9437575e-04 </wgt>
</rwgt>
</event>
<event>
 4      1 +3.5234200e-07 1.54566400e+03 7.81860800e-03 8.28892000e-02
        2 -1    0    0  501    0 +0.0000000000e+00 +0.0000000000e+00 +3.1704438928e+02 3.1704438928e+02 0.0000000000e+00 0.0000e+00 -1.0000e+00
       -2 -1    0    0    0  501 -0.0000000000e+00 -0.0000000000e+00 -1.8838652942e+03 1.8838652942e+03 0.0000000000e+00 0.0000e+00 1.0000e+00
      -13  1    1    2    0    0 -7.1641887721e+02 -1.3435380498e+02 -1.1491181258e+03 1.3608010213e+03 0.0000000000e+00 0.0000e+00 1.0000e+00
       13  1    1    2    0    0 +7.1641887721e+02 +1.3435380498e+02 -4.1770277905e+02 8.4010866212e+02 0.0000000000e+00 0.0000e+00 -1.0000e+00
<mgrwt>
<rscale>  0 0.15456635E+04</rscale>
<asrwt>0</asrwt>
<pdfrwt beam="1">  1        2 0.48776061E-01 0.15456635E+04</pdfrwt>
<pdfrwt beam="2">  1       -2 0.28982542E+00 0.15456635E+04</pdfrwt>
<totfact> 0.33698570E+00</totfact>
</mgrwt>
<rwgt>
<wgt id='morphing_basis_vector_1'> +2.9235466e-04 </wgt>
<wgt id='morphing_basis_vector_2'> +1.9819896e-04 </wgt>
<wgt id='morphing_basis_vector_3'> +3.0526668e-04 </wgt>
<wgt id='morphing_basis_vector_4'> +1.9905097e-04 </wgt>
<wgt id='morphing_basis_vector_5'> +3.2488416e-04 </wgt>
</rwgt>
</event>
<event>
 4      1 +3.5234200e-07 1.49435000e+03 7.81860800e-03 8.31825400e-02
        2 -1    0    0  501    0 +0.0000000000e+00 +0.0000000000e+00 +8.0037985391e+02 8.0037985391e+02 0.0000000000e+00 0.0000e+00 -1.0000e+00
       -2 -1    0    0    0  501 -0.0000000000e+00 -0.0000000000e+00 -6.9750671655e+02 6.9750671655e+02 0.0000000000e+00 0.0000e+00 1.0000e+00
      -13  1    1    2    0    0 +4.1718774586e+02 -6.1964449595e+02 +6.7766450505e+01 7.5006480285e+02 0.0000000000e+00 0.0000e+00 1.0000e+00
       13  1    1    2    0    0 -4.1718774586e+02 +6.1964449595e+02 +3.5106686855e+01 7.4782176761e+02 0.0000000000e+00 0.0000e+00 -1.0000e+00
<mgrwt>
<rscale>  0 0.14943498E+04</rscale>
<asrwt>0</asrwt>
<pdfrwt beam="1">  1        2 0.12313536E+00 0.14943498E+04</pdfrwt>
<pdfrwt beam="2">  1       -2 0.10730873E+00 0.14943498E+04</pdfrwt>
<totfact> 0.28874718E+01</totfact>
</mgrwt>
<rwgt>
<wgt id='morphing_basis_vector_1'> +2.6409631e-04 </wgt>
<wgt id='morphing_basis_vector_2'> +1.9585155e-04 </wgt>
<wgt id='morphing_basis_vector_3'> +2.7656679e-04 </wgt>
<wgt id='morphing_basis_vector_4'> +1.5916817e-04 </wgt>
<wgt id='morphing_basis_vector_5'> +2.8145759e-04 </wgt>
</rwgt>
</event>
<event>
 4      1 +3.5234200e-07 1.42842200e+03 7.81860800e-03 8.35778500e-02
        2 -1    0    0  501    0 +0.0000000000e+00 +0.0000000000e+00 +2.1276723392e+03 2.1276723392e+03 0.0000000000e+00 0.0000e+00 -1.0000e+00
       -2 -1    0    0    0  501 -0.0000000000e+00 -0.0000000000e+00 -2.3974431321e+02 2.3974431321e+02 0.0000000000e+00 0.0000e+00 1.0000e+00
      -13  1    1    2    0    0 +4.4318397673e+02 -8.7556559549e+01 +2.7126282361e+01 4.5256383367e+02 0.0000000000e+00 0.0000e+00 1.0000e+00
       13  1    1    2    0    0 -4.4318397673e+02 +8.7556559549e+01 +1.8608017436e+03 1.9148528187e+03 0.0000000000e+00 0.0000e+00 -1.0000e+00
<mgrwt>
<rscale>  0 0.14284220E+04</rscale>
<asrwt>0</asrwt>
<pdfrwt beam="1">  1        2 0.32733419E+00 0.14284220E+04</pdfrwt>
<pdfrwt beam="2">  1       -2 0.36883742E-01 0.14284220E+04</pdfrwt>
<totfact> 0.46687396E+01</totfact>
</mgrwt>
<rwgt>
<wgt id='morphing_basis_vector_1'> +2.1371452e-04 </wgt>
<wgt id='morphing_basis_vector_2'> +1.3948324e-04 </wgt>
<wgt id='morphing_basis_vector_3'> +2.2033199e-04 </wgt>
<wgt id='morphing_basis_vector_4'> +1.4719004e-04 </wgt>
<wgt id='morphing_basis_vector_5'> +2.3447857e-04 </wgt>
</rwgt>
</event>
<event>
 4      1 +3.5234200e-07 1.40399100e+03 7.81860800e-03 8.37300000e-02
        2 -1    0    0  501    0 +0.0000000000e+00 +0.0000000000e+00 +1.8777036613e+03 1.8777036613e+03 0.0000000000e+00 0.0000e+00 -1.0000e+00
       -2 -1    0    0    0  501 -0.0000000000e+00 -0.0000000000e+00 -2.6244709163e+02 2.6244709163e+02 0.0000000000e+00 0.0000e+00 1.0000e+00
      -13  1    1    2    0    0 +1.6323415646e+02 +4.3955716771e+02 +1.1257858594e+01 4.6902306223e+02 0.0000000000e+00 0.0000e+00 1.0000e+00
       13  1    1    2    0    0 -1.6323415646e+02 -4.3955716771e+02 +1.6039987110e+03 1.6711276907e+03 0.0000000000e+00 0.0000e+00 -1.0000e+00
<mgrwt>
<rscale>  0 0.14039913E+04</rscale>
<asrwt>0</asrwt>
<pdfrwt beam="1">  1        2 0.28887748E+00 0.14039913E+04</pdfrwt>
<pdfrwt beam="2">  1       -2 0.40376477E-01 0.14039913E+04</pdfrwt>
<totfact> 0.54627508E+01</totfact>
</mgrwt>
<rwgt>
<wgt id='morphing_basis_vector_1'> +2.0005180e-04 </wgt>
<wgt id='morphing_basis_vector_2'> +1.3047281e-04 </wgt>
<wgt id='morphing_basis_vector_3'> +2.0575422e-04 </wgt>
<wgt id='morphing_basis_vector_4'> +1.3692681e-04 </wgt>
<wgt id='morphing_basis_vector_5'> +2.1821958e-04 </wgt>
</rwgt>
</event>
<event>
 4      1 +3.5234200e-07 1.32524100e+03 7.81860800e-03 8.42433000e-02
        2 -1    0    0  501    0 +0.0000000000e+00 +0.0000000000e+00 +7.1103535705e+02 7.1103535705e+02 0.0000000000e+00 0.0000e+00 1.0000e+00
       -2 -1    0    0    0  501 -0.0000000000e+00 -0.0000000000e+00 -6.1750207079e+02 6.1750207079e+02 0.0000000000e+00 0.0000e+00 -1.0000e+00
      -13  1    1    2    0    0 +8.9559764539e+01 -8.3423549895e+01 -6.0607166925e+02 6.1830680764e+02 0.0000000000e+00 0.0000e+00 -1.0000e+00
       13  1    1    2    0    0 -8.9559764539e+01 +8.3423549895e+01 +6.9960495551e+02 7.1023062021e+02 0.0000000000e+00 0.0000e+00 1.0000e+00
<mgrwt>
<rscale>  0 0.13252408E+04</rscale>
<asrwt>0</asrwt>
<pdfrwt beam="1">  1        2 0.10939005E+00 0.13252408E+04</pdfrwt>
<pdfrwt beam="2">  1       -2 0.95000319E-01 0.13252408E+04</pdfrwt>
<totfact> 0.45644389E+01</totfact>
</mgrwt>
<rwgt>
<wgt id='morphing_basis_vector_1'> +1.6023195e-04 </wgt>
<wgt id='morphing_basis_vector_2'> +1.0362945e-04 </wgt>
<wgt id='morphing_basis_vector_3'> +1.6333787e-04 </wgt>
<wgt id='morphing_basis_vector_4'> +1.0788671e-04 </wgt>
<wgt id='morphing_basis_vector_5'> +1.7147797e-04 </wgt>
</rwgt>
</event>
<event>
 4      1 +3.5234200e-07 1.35188600e+03 7.81860800e-03 8.40655500e-02
        2 -1    0    0  501    0 +0.0000000000e+00 +0.0000000000e+00 +2.4216067599e+03 2.4216067599e+03 0.0000000000e+00 0.0000e+00 1.0000e+00
       -2 -1    0    0    0  501 -0.0000000000e+00 -0.0000000000e+00 -1.8867603472e+02 1.8867603472e+02 0.0000000000e+00 0.0000e+00 -1.0000e+00
      -13  1    1    2    0    0 +5.6158147919e+02 -1.2726160205e+00 +3.9008833541e+02 6.8377210146e+02 0.0000000000e+00 0.0000e+00 -1.0000e+00
       13  1    1    2    0    0 -5.6158147919e+02 +1.2726160205e+00 +1.8428423898e+03 1.9265106932e+03 0.0000000000e+00 0.0000e+00 1.0000e+00
<mgrwt>
<rscale>  0 0.13518863E+04</rscale>
<asrwt>0</asrwt>
<pdfrwt beam="1">  1        2 0.37255487E+00 0.13518863E+04</pdfrwt>
<pdfrwt beam="2">  1       -2 0.29027084E-01 0.13518863E+04</pdfrwt>
<totfact> 0.48997433E+01</totfact>
</mgrwt>
<rwgt>
<wgt id='morphing_basis_vector_1'> +1.7346391e-04 </wgt>
<wgt id='morphing_basis_vector_2'> +1.1370752e-04 </wgt>
<wgt id='morphing_basis_vector_3'> +1.7749512e-04 </wgt>
<wgt id='morphing_basis_vector_4'> +1.1623065e-04 </wgt>
<wgt id='morphing_basis_vector_5'> +1.8630230e-04 </wgt>
</rwgt>
</event>
<event>
 4      1 +3.5234200e-07 1.41420500e+03 7.81860800e-03 8.36660000e-02
        2 -1    0    0  501    0 +0.0000000000e+00 +0.0000000000e+00 +3.5738412288e+02 3.5738412288e+02 0.0000000000e+00 0.0000e+00 1.0000e+00
       -2 -1    0    0    0  501 -0.0000000000e+00 -0.0000000000e+00 -1.3990386753e+03 1.3990386753e+03 0.0000000000e+00 0.0000e+00 -1.0000e+00
      -13  1    1    2    0    0 -1.8322377358e+02 -4.8999492746e+02 -1.1116891204e+03 1.2286247110e+03 0.0000000000e+00 0.0000e+00 -1.0000e+00
       13  1    1    2    0    0 +1.8322377358e+02 +4.8999492746e+02 +7.0034567925e+01 5.2779808720e+02 0.0000000000e+00 0.0000e+00 1.0000e+00
<mgrwt>
<rscale>  0 0.14142054E+04</rscale>
<asrwt>0</asrwt>
<pdfrwt beam="1">  1        2 0.54982173E-01 0.14142054E+04</pdfrwt>
<pdfrwt beam="2">  1       -2 0.21523672E+00 0.14142054E+04</pdfrwt>
<totfact> 0.97779007E+00</totfact>
</mgrwt>
<rwgt>
<wgt id='morphing_basis_vector_1'> +2.0583693e-04 </wgt>
<wgt id='morphing_basis_vector_2'> +1.3465153e-04 </wgt>
<wgt id='morphing_basis_vector_3'> +2.1195626e-04 </wgt>
<wgt id='morphing_basis_vector_4'> +1.4086448e-04 </wgt>
<wgt id='morphing_basis_vector_5'> +2.2489127e-04 </wgt>
</rwgt>
</event>
<event>
 4      1 +3.5234200e-07 1.30125200e+03 7.81860800e-03 8.44071000e-02
        2 -1    0    0  501    0 +0.0000000000e+00 +0.0000000000e+00 +2.5983393012e+03 2.5983393012e+03 0.0000000000e+00 0.0000e+00 -1.0000e+00
       -2 -1    0    0    0  501 -0.0000000000e+00 -0.0000000000e+00 -1.6291713848e+02 1.6291713848e+02 0.0000000000e+00 0.0000e+00 1.0000e+00
      -13  1    1    2    0    0 -1.6979769707e+00 -4.0612415073e+02 +1.3908707888e+02 4.2928420009e+02 0.0000000000e+00 0.0000e+00 1.0000e+00
       13  1    1    2    0    0 +1.6979769707e+00 +4.0612415073e+02 +2.2963350838e+03 2.3319722396e+03 0.0000000000e+00 0.0000e+00 -1.0000e+00
<mgrwt>
<rscale>  0 0.13012517E+04</rscale>
<asrwt>0</asrwt>
<pdfrwt beam="1">  1        2 0.39974448E+00 0.13012517E+04</pdfrwt>
<pdfrwt beam="2">  1       -2 0.25064177E-01 0.13012517E+04</pdfrwt>
<totfact> 0.49936871E+01</totfact>
</mgrwt>
<rwgt>
<wgt id='morphing_basis_vector_1'> +1.4952877e-04 </wgt>
<wgt id='morphing_basis_vector_2'> +9.6745659e-05 </wgt>
<wgt id='morphing_basis_vector_3'> +1.5199501e-04 </wgt>
<wgt id='morphing_basis_vector_4'> +9.9791173e-05 </wgt>
<wgt id='morphing_basis_vector_5'> +1.5882499e-04 </wgt>
</rwgt>
</event>
<event>
 4      1 +3.5234200e-07 1.37464000e+03 7.81860800e-03 8.39171200e-02
        2 -1    0    0  501    0 +0.0000000000e+00 +0.0000000000e+00 +3.3868212427e+02 3.3868212427e+02 0.0000000000e+00 0.0000e+00 1.0000e+00
       -2 -1    0    0    0  501 -0.0000000000e+00 -0.0000000000e+00 -1.3948437272e+03 1.3948437272e+03 0.0000000000e+00 0.0000e+00 -1.0000e+00
      -13  1    1    2    0    0 -6.8065122228e+02 +5.7543474241e+01 -6.2421502273e+02 9.2533330883e+02 0.0000000000e+00 0.0000e+00 -1.0000e+00
       13  1    1    2    0    0 +6.8065122228e+02 -5.7543474241e+01 -4.3194658018e+02 8.0819254263e+02 0.0000000000e+00 0.0000e+00 1.0000e+00
<mgrwt>
<rscale>  0 0.13746398E+04</rscale>
<asrwt>0</asrwt>
<pdfrwt beam="1">  1        2 0.52104942E-01 0.13746398E+04</pdfrwt>
<pdfrwt beam="2">  1       -2 0.21459134E+00 0.13746398E+04</pdfrwt>
<totfact> 0.10533477E+01</totfact>
</mgrwt>
<rwgt>
<wgt id='morphing_basis_vector_1'> +1.8875627e-04 </wgt>
<wgt id='morphing_basis_vector_2'> +1.3287839e-04 </wgt>
<wgt id='morphing_basis_vector_3'> +1.9448836e-04 </wgt>
<wgt id='morphing_basis_vector_4'> +1.1763854e-04 </wgt>
<wgt id='morphing_basis_vector_5'> +1.9925414e-04 </wgt>
</rwgt>
</event>
<event>
 4      1 +3.5234200e-07 1.31610400e+03 7.81860800e-03 8.43052600e-02
        2 -1    0    0  501    0 +0.0000000000e+00 +0.0000000000e+00 +8.5014409893e+02 8.5014409893e+02 0.0000000000e+00 0.0000e+00 -1.0000e+00
       -2 -1    0    0    0  501 -0.0000000000e+00 -0.0000000000e+00 -5.0936353350e+02 5.0936353350e+02 0.0000000000e+00 0.0000e+00 1.0000e+00
      -13  1    1    2    0    0 +4.7282416680e+02 -6.1616258014e+01 -2.9807806528e+02 5.6232534085e+02 0.0000000000e+00 0.0000e+00 1.0000e+00
       13  1    1    2    0    0 -4.7282416680e+02 +6.1616258014e+01 +6.3885863071e+02 7.9718229157e+02 0.0000000000e+00 0.0000e+00 -1.0000e+00
<mgrwt>
<rscale>  0 0.13161040E+04</rscale>
<asrwt>0</asrwt>
<pdfrwt beam="1">  1        2 0.13079140E+00 0.13161040E+04</pdfrwt>
<pdfrwt beam="2">  1       -2 0.78363621E-01 0.13161040E+04</pdfrwt>
<totfact> 0.56755375E+01</totfact>
</mgrwt>
<rwgt>
<wgt id='morphing_basis_vector_1'> +1.5626434e-04 </wgt>
<wgt id='morphing_basis_vector_2'> +1.0149070e-04 </wgt>
<wgt id='morphing_basis_vector_3'> +1.5915839e-04 </wgt>
<wgt id='morphing_basis_vector_4'> +1.0443475e-04 </wgt>
<wgt id='morphing_basis_vector_5'> +1.6655196e-04 </wgt>
</rwgt>
</event>
<event>
 4      1 +3.5234200e-07 1.29287100e+03 7.81860800e-03 8.44652000e-02
        2 -1    0    0  501    0 +0.0000000000e+00 +0.0000000000e+00 +2.5855486059e+03 2.5855486059e+03 0.0000000000e+00 0.0000e+00 -1.0000e+00
       -2 -1    0    0    0  501 -0.0000000000e+00 -0.0000000000e+00 -1.6162087629e+02 1.6162087629e+02 0.0000000000e+00 0.0000e+00 1.0000e+00
      -13  1    1    2    0    0 +4.0194973553e+01 +6.3254154101e+02 +1.4820318024e+03 1.6118755226e+03 0.0000000000e+00 0.0000e+00 1.0000e+00
       13  1    1    2    0    0 -4.0194973553e+01 -6.3254154101e+02 +9.4189592712e+02 1.1352939595e+03 0.0000000000e+00 0.0000e+00 -1.0000e+00
<mgrwt>
<rscale>  0 0.12928707E+04</rscale>
<asrwt>0</asrwt>
<pdfrwt beam="1">  1        2 0.39777668E+00 0.12928707E+04</pdfrwt>
<pdfrwt beam="2">  1       -2 0.24864752E-01 0.12928707E+04</pdfrwt>
<totfact> 0.51572092E+01</totfact>
</mgrwt>
<rwgt>
<wgt id='morphing_basis_vector_1'> +1.5625398e-04 </wgt>
<wgt id='morphing_basis_vector_2'> +1.2537625e-04 </wgt>
<wgt id='morphing_basis_vector_3'> +1.6055933e-04 </wgt>
<wgt id='morphing_basis_vector_4'> +7.8758352e-05 </wgt>
<wgt id='morphing_basis_vector_5'> +1.5328399e-04 </wgt>
</rwgt>
</event>
<event>
 4      1 +3.5234200e-07 1.33484700e+03 7.81860800e-03 8.41787200e-02
        2 -1    0    0  501    0 +0.0000000000e+00 +0.0000000000e+00 +2.3641021194e+03 2.3641021194e+03 0.0000000000e+00 0.0000e+00 -1.0000e+00
       -2 -1    0    0    0  501 -0.0000000000e+00 -0.0000000000e+00 -1.8842431499e+02 1.8842431499e+02 0.0000000000e+00 0.0000e+00 1.0000e+00
      -13  1    1    2    0    0 -7.5646197754e+01 +4.7488303001e+02 +2.0279109928e+02 5.2188166223e+02 0.0000000000e+00 0.0000e+00 1.0000e+00
       13  1    1    2    0    0 +7.5646197754e+01 -4.7488303001e+02 +1.9728867051e+03 2.0306447721e+03 0.0000000000e+00 0.0000e+00 -1.0000e+00
<mgrwt>
<rscale>  0 0.13348473E+04</rscale>
<asrwt>0</asrwt>
<pdfrwt beam="1">  1        2 0.36370800E+00 0.13348473E+04</pdfrwt>
<pdfrwt beam="2">  1       -2 0.28988358E-01 0.13348473E+04</pdfrwt>
<totfact> 0.53136550E+01</totfact>
</mgrwt>
<rwgt>
<wgt id='morphing_basis_vector_1'> +1.6493208e-04 </wgt>
<wgt id='morphing_basis_vector_2'> +1.0724841e-04 </wgt>
<wgt id='morphing_basis_vector_3'> +1.6836493e-04 </wgt>
<wgt id='morphing_basis_vector_4'> +1.1080507e-04 </wgt>
<wgt id='morphing_basis_vector_5'> +1.7671551e-04 </wgt>
</rwgt>
</event>
<event>
 4      1 +3.5234200e-07 1.29277200e+03 7.81860800e-03 8.44658900e-02
        2 -1    0    0  501    0 +0.0000000000e+00 +0.0000000000e+00 +1.8743617050e+03 1.8743617050e+03 0.0000000000e+00 0.0000e+00 1.0000e+00
       -2 -1    0    0    0  501 -0.0000000000e+00 -0.0000000000e+00 -2.2291038562e+02 2.2291038562e+02 0.0000000000e+00 0.0000e+00 -1.0000e+00
      -13  1    1    2    0    0 +1.9957419566e+02 -5.3825373748e+02 +3.4374019123e+02 6.6910706509e+02 0.0000000000e+00 0.0000e+00 -1.0000e+00
       13  1    1    2    0    0 -1.9957419566e+02 +5.3825373748e+02 +1.3077111282e+03 1.4281650255e+03 0.0000000000e+00 0.0000e+00 1.0000e+00
<mgrwt>
<rscale>  0 0.12927717E+04</rscale>
<asrwt>0</asrwt>
<pdfrwt beam="1">  1        2 0.28836333E+00 0.12927717E+04</pdfrwt>
<pdfrwt beam="2">  1       -2 0.34293907E-01 0.12927717E+04</pdfrwt>
<totfact> 0.74791719E+01</totfact>
</mgrwt>
<rwgt>
<wgt id='morphing_basis_vector_1'> +1.4654875e-04 </wgt>
<wgt id='morphing_basis_vector_2'> +9.6404063e-05 </wgt>
<wgt id='morphing_basis_vector_3'> +1.4893318e-04 </wgt>
<wgt id='morphing_basis_vector_4'> +9.5852855e-05 </wgt>
<wgt id='morphing_basis_vector_5'> +1.5443837e-04 </wgt>
</rwgt>
</event>
<event>
 4      1 +3.5234200e-07 1.40270300e+03 7.81860800e-03 8.37381200e-02
        2 -1    0    0  501    0 +0.0000000000e+00 +0.0000000000e+00 +1.5187196419e+03 1.5187196419e+03 0.0000000000e+00 0.0000e+00 -1.0000e+00
       -2 -1    0    0    0  501 -0.0000000000e+00 -0.0000000000e+00 -3.2388704443e+02 3.2388704443e+02 0.0000000000e+00 0.0000e+00 1.0000e+00
      -13  1    1    2    0    0 -5.8011315214e+02 -1.7056586149e+02 +1.3063170428e+02 6.1861831896e+02 0.0000000000e+00 0.0000e+00 1.0000e+00
       13  1    1    2    0    0 +5.8011315214e+02 +1.7056586149e+02 +1.0642008931e+03 1.2239883673e+03 0.0000000000e+00 0.0000e+00 -1.0000e+00
<mgrwt>
<rscale>  0 0.14027026E+04</rscale>
<asrwt>0</asrwt>
<pdfrwt beam="1">  1        2 0.23364917E+00 0.14027026E+04</pdfrwt>
<pdfrwt beam="2">  1       -2 0.49828777E-01 0.14027026E+04</pdfrwt>
<totfact> 0.57818117E+01</totfact>
</mgrwt>
<rwgt>
<wgt id='morphing_basis_vector_1'> +2.0002516e-04 </wgt>
<wgt id='morphing_basis_vector_2'> +1.3202671e-04 </wgt>
<wgt id='morphing_basis_vector_3'> +2.0585845e-04 </wgt>
<wgt id='morphing_basis_vector_4'> +1.3516740e-04 </wgt>
<wgt id='morphing_basis_vector_5'> +2.1729628e-04 </wgt>
</rwgt>
</event>
<event>
 4      1 +3.5234200e-07 1.43472900e+03 7.81860800e-03 8.35390800e-02
        2 -1    0    0  501    0 +0.0000000000e+00 +0.0000000000e+00 +1.4219770286e+03 1.4219770286e+03 0.0000000000e+00 0.0000e+00 -1.0000e+00
       -2 -1    0    0    0  501 -0.0000000000e+00 -0.0000000000e+00 -3.6189902616e+02 3.6189902616e+02 0.0000000000e+00 0.0000e+00 1.0000e+00
      -13  1    1    2    0    0 +4.9774550635e+02 -3.4205595090e+02 +4.8716190062e+01 6.0590934125e+02 0.0000000000e+00 0.0000e+00 1.0000e+00
       13  1    1    2    0    0 -4.9774550635e+02 +3.4205595090e+02 +1.0113618124e+03 1.1779667136e+03 0.0000000000e+00 0.0000e+00 -1.0000e+00
<mgrwt>
<rscale>  0 0.14347294E+04</rscale>
<asrwt>0</asrwt>
<pdfrwt beam="1">  1        2 0.21876569E+00 0.14347294E+04</pdfrwt>
<pdfrwt beam="2">  1       -2 0.55676774E-01 0.14347294E+04</pdfrwt>
<totfact> 0.52403646E+01</totfact>
</mgrwt>
<rwgt>
<wgt id='morphing_basis_vector_1'> +2.1799966e-04 </wgt>
<wgt id='morphing_basis_vector_2'> +1.4381038e-04 </wgt>
<wgt id='morphing_basis_vector_3'> +2.2504378e-04 </wgt>
<wgt id='morphing_basis_vector_4'> +1.4874218e-04 </wgt>
<wgt id='morphing_basis_vector_5'> +2.3873105e-04 </wgt>
</rwgt>
</event>
<event>
 4      1 +3.5234200e-07 1.40473400e+03 7.81860800e-03 8.37253300e-02
        2 -1    0    0  501    0 +0.0000000000e+00 +0.0000000000e+00 +1.3095017156e+03 1.3095017156e+03 0.0000000000e+00 0.0000e+00 1.0000e+00
       -2 -1    0    0    0  501 -0.0000000000e+00 -0.0000000000e+00 -3.7672306249e+02 3.7672306249e+02 0.0000000000e+00 0.0000e+00 -1.0000e+00
      -13  1    1    2    0    0 +2.5486624863e+02 -6.2816310439e+02 +2.4578636682e+02 7.2108018175e+02 0.0000000000e+00 0.0000e+00 -1.0000e+00
       13  1    1    2    0    0 -2.5486624863e+02 +6.2816310439e+02 +6.8699228627e+02 9.6514459631e+02 0.0000000000e+00 0.0000e+00 1.0000e+00
<mgrwt>
<rscale>  0 0.14047341E+04</rscale>
<asrwt>0</asrwt>
<pdfrwt beam="1">  1        2 0.20146180E+00 0.14047341E+04</pdfrwt>
<pdfrwt beam="2">  1       -2 0.57957395E-01 0.14047341E+04</pdfrwt>
<totfact> 0.56087371E+01</totfact>
</mgrwt>
<rwgt>
<wgt id='morphing_basis_vector_1'> +2.0294644e-04 </wgt>
<wgt id='morphing_basis_vector_2'> +1.3817538e-04 </wgt>
<wgt id='morphing_basis_vector_3'> +2.0933251e-04 </wgt>
<wgt id='morphing_basis_vector_4'> +1.3268159e-04 </wgt>
<wgt id='morphing_basis_vector_5'> +2.1837092e-04 </wgt>
</rwgt>
</event>
<event>
 4      1 +3.5234200e-07 1.30387500e+03 7.81860800e-03 8.43890100e-02
        2 -1    0    0  501    0 +0.0000000000e+00 +0.0000000000e+00 +4.1743732887e+02 4.1743732887e+02 0.0000000000e+00 0.0000e+00 -1.0000e+00
       -2 -1    0    0    0  501 -0.0000000000e+00 -0.0000000000e+00 -1.0181712836e+03 1.0181712836e+03 0.0000000000e+00 0.0000e+00 1.0000e+00
      -13  1    1    2    0    0 +1.6928508270e+02 +1.2050828096e+02 -9.8073269436e+02 1.0025050139e+03 0.0000000000e+00 0.0000e+00 1.0000e+00
       13  1    1    2    0    0 -1.6928508270e+02 -1.2050828096e+02 +3.7999873964e+02 4.3310359861e+02 0.0000000000e+00 0.0000e+00 -1.0000e+00
<mgrwt>
<rscale>  0 0.13038753E+04</rscale>
<asrwt>0</asrwt>
<pdfrwt beam="1">  1        2 0.64221127E-01 0.13038753E+04</pdfrwt>
<pdfrwt beam="2">  1       -2 0.15664174E+00 0.13038753E+04</pdfrwt>
<totfact> 0.22904496E+01</totfact>
</mgrwt>
<rwgt>
<wgt id='morphing_basis_vector_1'> +1.5059540e-04 </wgt>
<wgt id='morphing_basis_vector_2'> +9.7251726e-05 </wgt>
<wgt id='morphing_basis_vector_3'> +1.5311352e-04 </wgt>
<wgt id='morphing_basis_vector_4'> +1.0079010e-04 </wgt>
<wgt id='morphing_basis_vector_5'> +1.6018368e-04 </wgt>
</rwgt>
</event>
<event>
 4      1 +3.5234200e-07 1.31107000e+03 7.81860800e-03 8.43396200e-02
        2 -1    0    0  501    0 +0.0000000000e+00 +0.0000000000e+00 +5.2131491435e+02 5.2131491435e+02 0.0000000000e+00 0.0000e+00 -1.0000e+00
       -2 -1    0    0    0  501 -0.0000000000e+00 -0.0000000000e+00 -8.2431197821e+02 8.2431197821e+02 0.0000000000e+00 0.0000e+00 1.0000e+00
      -13  1    1    2    0    0 -3.3228175427e+02 +4.0159905717e+02 -5.5951049415e+02 7.6468618400e+02 0.0000000000e+00 0.0000e+00 1.0000e+00
       13  1    1    2    0    0 +3.3228175427e+02 -4.0159905717e+02 +2.5651343029e+02 5.8094070856e+02 0.0000000000e+00 0.0000e+00 -1.0000e+00
<mgrwt>
<rscale>  0 0.13110700E+04</rscale>
<asrwt>0</asrwt>
<pdfrwt beam="1">  1        2 0.80202295E-01 0.13110700E+04</pdfrwt>
<pdfrwt beam="2">  1       -2 0.12681723E+00 0.13110700E+04</pdfrwt>
<totfact> 0.31994079E+01</totfact>
</mgrwt>
<rwgt>
<wgt id='morphing_basis_vector_1'> +1.5415475e-04 </wgt>
<wgt id='morphing_basis_vector_2'> +1.0045821e-04 </wgt>
<wgt id='morphing_basis_vector_3'> +1.5694288e-04 </wgt>
<wgt id='morphing_basis_vector_4'> +1.0248938e-04 </wgt>
<wgt id='morphing_basis_vector_5'> +1.6387759e-04 </wgt>
</rwgt>
</event>
<event>
 4      1 +3.5234200e-07 1.31712600e+03 7.81860800e-03 8.42983000e-02
        2 -1    0    0  501    0 +0.0000000000e+00 +0.0000000000e+00 +1.0272157729e+03 1.0272157729e+03 0.0000000000e+00 0.0000e+00 -1.0000e+00
       -2 -1    0    0    0  501 -0.0000000000e+00 -0.0000000000e+00 -4.2221403432e+02 4.2221403432e+02 0.0000000000e+00 0.0000e+00 1.0000e+00
      -13  1    1    2    0    0 +2.1830451306e+02 -4.2573465404e+02 -1.9550325453e+02 5.1684463681e+02 0.0000000000e+00 0.0000e+00 1.0000e+00
       13  1    1    2    0    0 -2.1830451306e+02 +4.2573465404e+02 +8.0050499309e+02 9.3258517039e+02 0.0000000000e+00 0.0000e+00 -1.0000e+00
<mgrwt>
<rscale>  0 0.13171255E+04</rscale>
<asrwt>0</asrwt>
<pdfrwt beam="1">  1        2 0.15803320E+00 0.13171255E+04</pdfrwt>
<pdfrwt beam="2">  1       -2 0.64956006E-01 0.13171255E+04</pdfrwt>
<totfact> 0.65538962E+01</totfact>
</mgrwt>
<rwgt>
<wgt id='morphing_basis_vector_1'> +1.5673123e-04 </wgt>
<wgt id='morphing_basis_vector_2'> +1.0180916e-04 </wgt>
<wgt id='morphing_basis_vector_3'> +1.5965458e-04 </wgt>
<wgt id='morphing_basis_vector_4'> +1.0476834e-04 </wgt>
<wgt id='morphing_basis_vector_5'> +1.6709405e-04 </wgt>
</rwgt>
</event>
<event>
 4      1 +3.5234200e-07 1.42576900e+03 7.81860800e-03 8.35942200e-02
        2 -1    0    0  501    0 +0.0000000000e+00 +0.0000000000e+00 +4.5878295219e+02 4.5878295219e+02 0.0000000000e+00 0.0000e+00 1.0000e+00
       -2 -1    0    0    0  501 -0.0000000000e+00 -0.0000000000e+00 -1.1077224569e+03 1.1077224569e+03 0.0000000000e+00 0.0000e+00 -1.0000e+00
      -13  1    1    2    0    0 -5.1193200955e+02 +1.8866131571e+02 -8.2860457573e+02 9.9209526627e+02 0.0000000000e+00 0.0000e+00 -1.0000e+00
       13  1    1    2    0    0 +5.1193200955e+02 -1.8866131571e+02 +1.7966507100e+02 5.7441014283e+02 0.0000000000e+00 0.0000e+00 1.0000e+00
<mgrwt>
<rscale>  0 0.14257688E+04</rscale>
<asrwt>0</asrwt>
<pdfrwt beam="1">  1        2 0.70581993E-01 0.14257688E+04</pdfrwt>
<pdfrwt beam="2">  1       -2 0.17041884E+00 0.14257688E+04</pdfrwt>
<totfact> 0.15847759E+01</totfact>
</mgrwt>
<rwgt>
<wgt id='morphing_basis_vector_1'> +2.1245421e-04 </wgt>
<wgt id='morphing_basis_vector_2'> +1.3924932e-04 </wgt>
<wgt id='morphing_basis_vector_3'> +2.1903975e-04 </wgt>
<wgt id='morphing_basis_vector_4'> +1.4557702e-04 </wgt>
<wgt id='morphing_basis_vector_5'> +2.3263636e-04 </wgt>
</rwgt>
</event>
<event>
 4      1 +3.5234200e-07 1.44032500e+03 7.81860800e-03 8.35048600e-02
        2 -1    0    0  501    0 +0.0000000000e+00 +0.0000000000e+00 +3.7660073940e+03 3.7660073940e+03 0.0000000000e+00 0.0000e+00 1.0000e+00
       -2 -1    0    0    0  501 -0.0000000000e+00 -0.0000000000e+00 -1.3771448348e+02 1.3771448348e+02 0.0000000000e+00 0.0000e+00 -1.0000e+00
      -13  1    1    2    0    0 -5.6264655667e+01 -7.0937840287e+02 +1.5141663668e+03 1.6730460891e+03 0.0000000000e+00 0.0000e+00 -1.0000e+00
       13  1    1    2    0    0 +5.6264655667e+01 +7.0937840287e+02 +2.1141265436e+03 2.2306757883e+03 0.0000000000e+00 0.0000e+00 1.0000e+00
<mgrwt>
<rscale>  0 0.14403246E+04</rscale>
<asrwt>0</asrwt>
<pdfrwt beam="1">  1        2 0.57938568E+00 0.14403246E+04</pdfrwt>
<pdfrwt beam="2">  1       -2 0.21186846E-01 0.14403246E+04</pdfrwt>
<totfact> 0.10612323E+01</totfact>
</mgrwt>
<rwgt>
<wgt id='morphing_basis_vector_1'> +2.2501532e-04 </wgt>
<wgt id='morphing_basis_vector_2'> +1.5715083e-04 </wgt>
<wgt id='morphing_basis_vector_3'> +2.3333950e-04 </wgt>
<wgt id='morphing_basis_vector_4'> +1.4429701e-04 </wgt>
<wgt id='morphing_basis_vector_5'> +2.4212398e-04 </wgt>
</rwgt>
</event>
<event>
 4      1 +3.5234200e-07 1.47188500e+03 7.81860800e-03 8.33148300e-02
        2 -1    0    0  501    0 +0.0000000000e+00 +0.0000000000e+00 +1.4250814048e+03 1.4250814048e+03 0.0000000000e+00 0.0000e+00 -1.0000e+00
       -2 -1    0    0    0  501 -0.0000000000e+00 -0.0000000000e+00 -3.8005632717e+02 3.8005632717e+02 0.0000000000e+00 0.0000e+00 1.0000e+00
      -13  1    1    2    0    0 -1.9627065052e+02 -3.5694615803e+02 -2.2918769522e+02 4.6739675612e+02 0.0000000000e+00 0.0000e+00 1.0000e+00
       13  1    1    2    0    0 +1.9627065052e+02 +3.5694615803e+02 +1.2742127728e+03 1.3377409758e+03 0.0000000000e+00 0.0000e+00 -1.0000e+00
<mgrwt>
<rscale>  0 0.14718848E+04</rscale>
<asrwt>0</asrwt>
<pdfrwt beam="1">  1        2 0.21924329E+00 0.14718848E+04</pdfrwt>
<pdfrwt beam="2">  1       -2 0.58470205E-01 0.14718848E+04</pdfrwt>
<totfact> 0.47116969E+01</totfact>
</mgrwt>
<rwgt>
<wgt id='morphing_basis_vector_1'> +2.3977356e-04 </wgt>
<wgt id='morphing_basis_vector_2'> +1.5670371e-04 </wgt>
<wgt id='morphing_basis_vector_3'> +2.4818304e-04 </wgt>
<wgt id='morphing_basis_vector_4'> +1.6682228e-04 </wgt>
<wgt id='morphing_basis_vector_5'> +2.6559712e-04 </wgt>
</rwgt>
</event>
<event>
 4      1 +3.5234200e-07 1.31259300e+03 7.81860800e-03 8.43292000e-02
        2 -1    0    0  501    0 +0.0000000000e+00 +0.0000000000e+00 +1.5956049724e+03 1.5956049724e+03 0.0000000000e+00 0.0000e+00 1.0000e+00
       -2 -1    0    0    0  501 -0.0000000000e+00 -0.0000000000e+00 -2.6994476341e+02 2.6994476341e+02 0.0000000000e+00 0.0000e+00 -1.0000e+00
      -13  1    1    2    0    0 +4.8453645551e+02 +4.0448479336e+02 +4.0723178540e+02 7.5114662471e+02 0.0000000000e+00 0.0000e+00 -1.0000e+00
       13  1    1    2    0    0 -4.8453645551e+02 -4.0448479336e+02 +9.1842842359e+02 1.1144031111e+03 0.0000000000e+00 0.0000e+00 1.0000e+00
<mgrwt>
<rscale>  0 0.13125932E+04</rscale>
<asrwt>0</asrwt>
<pdfrwt beam="1">  1        2 0.24547768E+00 0.13125932E+04</pdfrwt>
<pdfrwt beam="2">  1       -2 0.41529965E-01 0.13125932E+04</pdfrwt>
<totfact> 0.74876778E+01</totfact>
</mgrwt>
<rwgt>
<wgt id='morphing_basis_vector_1'> +1.5641449e-04 </wgt>
<wgt id='morphing_basis_vector_2'> +1.0563100e-04 </wgt>
<wgt id='morphing_basis_vector_3'> +1.5957744e-04 </wgt>
<wgt id='morphing_basis_vector_4'> +1.0018009e-04 </wgt>
<wgt id='morphing_basis_vector_5'> +1.6447856e-04 </wgt>
</rwgt>
</event>
<event>
 4      1 +3.5234200e-07 1.53486200e+03 7.81860800e-03 8.29499600e-02
        2 -1    0    0  501    0 +0.0000000000e+00 +0.0000000000e+00 +2.2279436704e+03 2.2279436704e+03 0.0000000000e+00 0.0000e+00 -1.0000e+00
       -2 -1    0    0    0  501 -0.0000000000e+00 -0.0000000000e+00 -2.6434702909e+02 2.6434702909e+02 0.0000000000e+00 0.0000e+00 1.0000e+00
      -13  1    1    2    0    0 -7.1010631196e+02 -3.1295676054e+01 +5.1196509842e+02 8.7597868446e+02 0.0000000000e+00 0.0000e+00 1.0000e+00
       13  1    1    2    0    0 +7.1010631196e+02 +3.1295676054e+01 +1.4516315429e+03 1.6163120150e+03 0.0000000000e+00 0.0000e+00 -1.0000e+00
<mgrwt>
<rscale>  0 0.15348619E+04</rscale>
<asrwt>0</asrwt>
<pdfrwt beam="1">  1        2 0.34276055E+00 0.15348619E+04</pdfrwt>
<pdfrwt beam="2">  1       -2 0.40668775E-01 0.15348619E+04</pdfrwt>
<totfact> 0.33831384E+01</totfact>
</mgrwt>
<rwgt>
<wgt id='morphing_basis_vector_1'> +2.8403224e-04 </wgt>
<wgt id='morphing_basis_vector_2'> +1.9130330e-04 </wgt>
<wgt id='morphing_basis_vector_3'> +2.9617523e-04 </wgt>
<wgt id='morphing_basis_vector_4'> +1.9431182e-04 </wgt>
<wgt id='morphing_basis_vector_5'> +3.1566345e-04 </wgt>
</rwgt>
</event>
<event>
 4      1 +3.5234200e-07 1.50643500e+03 7.81860800e-03 8.31123700e-02
        2 -1    0    0  501    0 +0.0000000000e+00 +0.0000000000e+00 +1.7983279194e+03 1.7983279194e+03 0.0000000000e+00 0.0000e+00 1.0000e+00
       -2 -1    0    0    0  501 -0.0000000000e+00 -0.0000000000e+00 -3.1547992070e+02 3.1547992070e+02 0.0000000000e+00 0.0000e+00 -1.0000e+00
      -13  1    1    2    0    0 +9.4798305658e+01 +5.8652705504e+02 +1.3910485124e+03 1.5126191420e+03 0.0000000000e+00 0.0000e+00 1.0000e+00
       13  1    1    2    0    0 -9.4798305658e+01 -5.8652705504e+02 +9.1799486372e+01 6.0118869812e+02 0.0000000000e+00 0.0000e+00 -1.0000e+00
<mgrwt>
<rscale>  0 0.15064347E+04</rscale>
<asrwt>0</asrwt>
<pdfrwt beam="1">  1        2 0.27666583E+00 0.15064347E+04</pdfrwt>
<pdfrwt beam="2">  1       -2 0.48535373E-01 0.15064347E+04</pdfrwt>
<totfact> 0.42187459E+01</totfact>
</mgrwt>
<rwgt>
<wgt id='morphing_basis_vector_1'> +3.2572625e-04 </wgt>
<wgt id='morphing_basis_vector_2'> +3.6097703e-04 </wgt>
<wgt id='morphing_basis_vector_3'> +3.5555070e-04 </wgt>
<wgt id='morphing_basis_vector_4'> +6.4995900e-05 </wgt>
<wgt id='morphing_basis_vector_5'> +2.8361583e-04 </wgt>
</rwgt>
</event>
<event>
 4      1 +3.5234200e-07 1.38490100e+03 7.81860800e-03 8.38511500e-02
        2 -1    0    0  501    0 +0.0000000000e+00 +0.0000000000e+00 +1.2553592550e+03 1.2553592550e+03 0.0000000000e+00 0.0000e+00 -1.0000e+00
       -2 -1    0    0    0  501 -0.0000000000e+00 -0.0000000000e+00 -3.8195282170e+02 3.8195282170e+02 0.0000000000e+00 0.0000e+00 1.0000e+00
      -13  1    1    2    0    0 +4.8064660199e+02 -3.9263222145e+02 +7.3638470593e+01 6.2498307311e+02 0.0000000000e+00 0.0000e+00 1.0000e+00
       13  1    1    2    0    0 -4.8064660199e+02 +3.9263222145e+02 +7.9976796272e+02 1.0123290036e+03 0.0000000000e+00 0.0000e+00 -1.0000e+00
<mgrwt>
<rscale>  0 0.13849015E+04</rscale>
<asrwt>0</asrwt>
<pdfrwt beam="1">  1        2 0.19313219E+00 0.13849015E+04</pdfrwt>
<pdfrwt beam="2">  1       -2 0.58761973E-01 0.13849015E+04</pdfrwt>
<totfact> 0.58674422E+01</totfact>
</mgrwt>
<rwgt>
<wgt id='morphing_basis_vector_1'> +1.9076590e-04 </wgt>
<wgt id='morphing_basis_vector_2'> +1.2649130e-04 </wgt>
<wgt id='morphing_basis_vector_3'> +1.9602933e-04 </wgt>
<wgt id='morphing_basis_vector_4'> +1.2761264e-04 </wgt>
<wgt id='morphing_basis_vector_5'> +2.0598721e-04 </wgt>
</rwgt>
</event>
<event>
 4      1 +3.5234200e-07 1.38704700e+03 7.81860800e-03 8.38374300e-02
        2 -1    0    0  501    0 +0.0000000000e+00 +0.0000000000e+00 +1.4634839012e+03 1.4634839012e+03 0.0000000000e+00 0.0000e+00 -1.0000e+00
       -2 -1    0    0    0  501 -0.0000000000e+00 -0.0000000000e+00 -3.2865058665e+02 3.2865058665e+02 0.0000000000e+00 0.0000e+00 1.0000e+00
      -13  1    1    2    0    0 +6.4459334771e+02 -2.5443172346e+02 +5.3229862440e+02 8.7382945210e+02 0.0000000000e+00 0.0000e+00 1.0000e+00
       13  1    1    2    0    0 -6.4459334771e+02 +2.5443172346e+02 +6.0253469014e+02 9.1830503573e+02 0.0000000000e+00 0.0000e+00 -1.0000e+00
<mgrwt>
<rscale>  0 0.13870470E+04</rscale>
<asrwt>0</asrwt>
<pdfrwt beam="1">  1        2 0.22515137E+00 0.13870470E+04</pdfrwt>
<pdfrwt beam="2">  1       -2 0.50561630E-01 0.13870470E+04</pdfrwt>
<totfact> 0.60403521E+01</totfact>
</mgrwt>
<rwgt>
<wgt id='morphing_basis_vector_1'> +1.9677987e-04 </wgt>
<wgt id='morphing_basis_vector_2'> +1.4183779e-04 </wgt>
<wgt id='morphing_basis_vector_3'> +2.0336160e-04 </wgt>
<wgt id='morphing_basis_vector_4'> +1.1956165e-04 </wgt>
<wgt id='morphing_basis_vector_5'> +2.0667996e-04 </wgt>
</rwgt>
</event>
<event>
 4      1 +3.5234200e-07 1.34722600e+03 7.81860800e-03 8.40963300e-02
        2 -1    0    0  501    0 +0.0000000000e+00 +0.0000000000e+00 +6.9377954329e+02 6.9377954329e+02 0.0000000000e+00 0.0000e+00 1.0000e+00
       -2 -1    0    0    0  501 -0.0000000000e+00 -0.0000000000e+00 -6.5403297323e+02 6.5403297323e+02 0.0000000000e+00 0.0000e+00 -1.0000e+00
      -13  1    1    2    0    0 -5.0759431510e+02 +4.4224199891e+02 -3.0435179372e+00 6.7323044890e+02 0.0000000000e+00 0.0000e+00 -1.0000e+00
       13  1    1    2    0    0 +5.0759431510e+02 -4.4224199891e+02 +4.2790087999e+01 6.7458206762e+02 0.0000000000e+00 0.0000e+00 1.0000e+00
<mgrwt>
<rscale>  0 0.13472263E+04</rscale>
<asrwt>0</asrwt>
<pdfrwt beam="1">  1        2 0.10673531E+00 0.13472263E+04</pdfrwt>
<pdfrwt beam="2">  1       -2 0.10062046E+00 0.13472263E+04</pdfrwt>
<totfact> 0.40932395E+01</totfact>
</mgrwt>
<rwgt>
<wgt id='morphing_basis_vector_1'> +1.7609961e-04 </wgt>
<wgt id='morphing_basis_vector_2'> +1.2687377e-04 </wgt>
<wgt id='morphing_basis_vector_3'> +1.8112400e-04 </wgt>
<wgt id='morphing_basis_vector_4'> +1.0572167e-04 </wgt>
<wgt id='morphing_basis_vector_5'> +1.8299917e-04 </wgt>
</rwgt>
</event>
<event>
 4      1 +3.5234200e-07 1.36812800e+03 7.81860800e-03 8.39592900e-02
        2 -1    0    0  501    0 +0.0000000000e+00 +0.0000000000e+00 +2.1463229103e+03 2.1463229103e+03 0.0000000000e+00 0.0000e+00 1.0000e+00
       -2 -1    0    0    0  501 -0.0000000000e+00 -0.0000000000e+00 -2.1802088339e+02 2.1802088339e+02 0.0000000000e+00 0.0000e+00 -1.0000e+00
      -13  1    1    2    0    0 -4.0442255255e+02 +4.5733601394e+02 +4.3085351636e+02 7.4722726343e+02 0.0000000000e+00 0.0000e+00 -1.0000e+00
       13  1    1    2    0    0 +4.0442255255e+02 -4.5733601394e+02 +1.4974485105e+03 1.6171165302e+03 0.0000000000e+00 0.0000e+00 1.0000e+00
<mgrwt>
<rscale>  0 0.13681275E+04</rscale>
<asrwt>0</asrwt>
<pdfrwt beam="1">  1        2 0.33020351E+00 0.13681275E+04</pdfrwt>
<pdfrwt beam="2">  1       -2 0.33541676E-01 0.13681275E+04</pdfrwt>
<totfact> 0.54451897E+01</totfact>
</mgrwt>
<rwgt>
<wgt id='morphing_basis_vector_1'> +1.8202038e-04 </wgt>
<wgt id='morphing_basis_vector_2'> +1.2047187e-04 </wgt>
<wgt id='morphing_basis_vector_3'> +1.8668850e-04 </wgt>
<wgt id='morphing_basis_vector_4'> +1.2136837e-04 </wgt>
<wgt id='morphing_basis_vector_5'> +1.9577726e-04 </wgt>
</rwgt>
</event>
<event>
 4      1 +3.5234200e-07 1.40074600e+03 7.81860800e-03 8.37504600e-02
        2 -1    0    0  501    0 +0.0000000000e+00 +0.0000000000e+00 +6.7556087467e+02 6.7556087467e+02 0.0000000000e+00 0.0000e+00 -1.0000e+00
       -2 -1    0    0    0  501 -0.0000000000e+00 -0.0000000000e+00 -7.2609607577e+02 7.2609607577e+02 0.0000000000e+00 0.0000e+00 1.0000e+00
      -13  1    1    2    0    0 +4.7194479701e+02 -2.5325059188e+02 -4.7684197745e+02 7.1710949315e+02 0.0000000000e+00 0.0000e+00 1.0000e+00
       13  1    1    2    0    0 -4.7194479701e+02 +2.5325059188e+02 +4.2630677636e+02 6.8454745729e+02 0.0000000000e+00 0.0000e+00 -1.0000e+00
<mgrwt>
<rscale>  0 0.14007457E+04</rscale>
<asrwt>0</asrwt>
<pdfrwt beam="1">  1        2 0.10393244E+00 0.14007457E+04</pdfrwt>
<pdfrwt beam="2">  1       -2 0.11170709E+00 0.14007457E+04</pdfrwt>
<totfact> 0.32509587E+01</totfact>
</mgrwt>
<rwgt>
<wgt id='morphing_basis_vector_1'> +1.9848223e-04 </wgt>
<wgt id='morphing_basis_vector_2'> +1.2988999e-04 </wgt>
<wgt id='morphing_basis_vector_3'> +2.0411862e-04 </wgt>
<wgt id='morphing_basis_vector_4'> +1.3524981e-04 </wgt>
<wgt id='morphing_basis_vector_5'> +2.1609846e-04 </wgt>
</rwgt>
</event>
<event>
 4      1 +3.5234200e-07 1.36454300e+03 7.81860800e-03 8.39826100e-02
        2 -1    0    0  501    0 +0.0000000000e+00 +0.0000000000e+00 +1.9680510614e+03 1.9680510614e+03 0.0000000000e+00 0.0000e+00 1.0000e+00
       -2 -1    0    0    0  501 -0.0000000000e+00 -0.0000000000e+00 -2.3652558000e+02 2.3652558000e+02 0.0000000000e+00 0.0000e+00 -1.0000e+00
      -13  1    1    2    0    0 +6.7672247750e+02 +7.3004206127e+01 +9.4173949918e+02 1.1619622240e+03 0.0000000000e+00 0.0000e+00 -1.0000e+00
       13  1    1    2    0    0 -6.7672247750e+02 -7.3004206127e+01 +7.8978598220e+02 1.0426144174e+03 0.0000000000e+00 0.0000e+00 1.0000e+00
<mgrwt>
<rscale>  0 0.13645430E+04</rscale>
<asrwt>0</asrwt>
<pdfrwt beam="1">  1        2 0.30277708E+00 0.13645430E+04</pdfrwt>
<pdfrwt beam="2">  1       -2 0.36388552E-01 0.13645430E+04</pdfrwt>
<totfact> 0.59170606E+01</totfact>
</mgrwt>
<rwgt>
<wgt id='morphing_basis_vector_1'> +1.8748669e-04 </wgt>
<wgt id='morphing_basis_vector_2'> +1.4102445e-04 </wgt>
<wgt id='morphing_basis_vector_3'> +1.9379727e-04 </wgt>
<wgt id='morphing_basis_vector_4'> +1.0686646e-04 </wgt>
<wgt id='morphing_basis_vector_5'> +1.9269656e-04 </wgt>
</rwgt>
</event>
<event>
 4      1 +3.5234200e-07 1.32190100e+03 7.81860800e-03 8.42658900e-02
        2 -1    0    0  501    0 +0.0000000000e+00 +0.0000000000e+00 +1.8250064389e+02 1.8250064389e+02 0.0000000000e+00 0.0000e+00 -1.0000e+00
       -2 -1    0    0    0  501 -0.0000000000e+00 -0.0000000000e+00 -2.3937211786e+03 2.3937211786e+03 0.0000000000e+00 0.0000e+00 1.0000e+00
      -13  1    1    2    0    0 +2.6566916411e+02 -5.9856759415e+02 -9.3138043210e+02 1.1385661065e+03 0.0000000000e+00 0.0000e+00 1.0000e+00
       13  1    1    2    0    0 -2.6566916411e+02 +5.9856759415e+02 -1.2798401026e+03 1.4376557160e+03 0.0000000000e+00 0.0000e+00 -1.0000e+00
<mgrwt>
<rscale>  0 0.13219011E+04</rscale>
<asrwt>0</asrwt>
<pdfrwt beam="1">  1        2 0.28077024E-01 0.13219011E+04</pdfrwt>
<pdfrwt beam="2">  1       -2 0.36826477E+00 0.13219011E+04</pdfrwt>
<totfact> 0.19640511E+00</totfact>
</mgrwt>
<rwgt>
<wgt id='morphing_basis_vector_1'> +1.6794093e-04 </wgt>
<wgt id='morphing_basis_vector_2'> +1.3028438e-04 </wgt>
<wgt id='morphing_basis_vector_3'> +1.7295772e-04 </wgt>
<wgt id='morphing_basis_vector_4'> +9.0223976e-05 </wgt>
<wgt id='morphing_basis_vector_5'> +1.6850183e-04 </wgt>
</rwgt>
</event>
<event>
 4      1 +3.5234200e-07 1.45128300e+03 7.81860800e-03 8.34383100e-02
        2 -1    0    0  501    0 +0.0000000000e+00 +0.0000000000e+00 +4.9966229262e+02 4.9966229262e+02 0.0000000000e+00 0.0000e+00 1.0000e+00
       -2 -1    0    0    0  501 -0.0000000000e+00 -0.0000000000e+00 -1.0538229429e+03 1.0538229429e+03 0.0000000000e+00 0.0000e+00 -1.0000e+00
      -13  1    1    2    0    0 -2.4104059758e+02 +1.8980214236e+02 -9.8098364266e+02 1.0278396422e+03 0.0000000000e+00 0.0000e+00 -1.0000e+00
       13  1    1    2    0    0 +2.4104059758e+02 -1.8980214236e+02 +4.2682299239e+02 5.2564559330e+02 0.0000000000e+00 0.0000e+00 1.0000e+00
<mgrwt>
<rscale>  0 0.14512830E+04</rscale>
<asrwt>0</asrwt>
<pdfrwt beam="1">  1        2 0.76871123E-01 0.14512830E+04</pdfrwt>
<pdfrwt beam="2">  1       -2 0.16212660E+00 0.14512830E+04</pdfrwt>
<totfact> 0.16675154E+01</totfact>
</mgrwt>
<rwgt>
<wgt id='morphing_basis_vector_1'> +2.2705008e-04 </wgt>
<wgt id='morphing_basis_vector_2'> +1.4809198e-04 </wgt>
<wgt id='morphing_basis_vector_3'> +2.3455873e-04 </wgt>
<wgt id='morphing_basis_vector_4'> +1.5745005e-04 </wgt>
<wgt id='morphing_basis_vector_5'> +2.5050031e-04 </wgt>
</rwgt>
</event>
<event>
 4      1 +3.5234200e-07 1.48568600e+03 7.81860800e-03 8.32332700e-02
        2 -1    0    0  501    0 +0.0000000000e+00 +0.0000000000e+00 +2.6435609219e+03 2.6435609219e+03 0.0000000000e+00 0.0000e+00 -1.0000e+00
       -2 -1    0    0    0  501 -0.0000000000e+00 -0.0000000000e+00 -2.0873962810e+02 2.0873962810e+02 0.0000000000e+00 0.0000e+00 1.0000e+00
      -13  1    1    2    0    0 -5.5584144265e+02 -4.1565784443e+02 +7.0915758456e+02 9.9228807951e+02 0.0000000000e+00 0.0000e+00 1.0000e+00
       13  1    1    2    0    0 +5.5584144265e+02 +4.1565784443e+02 +1.7256637093e+03 1.8600124705e+03 0.0000000000e+00 0.0000e+00 -1.0000e+00
<mgrwt>
<rscale>  0 0.14856863E+04</rscale>
<asrwt>0</asrwt>
<pdfrwt beam="1">  1        2 0.40670166E+00 0.14856863E+04</pdfrwt>
<pdfrwt beam="2">  1       -2 0.32113791E-01 0.14856863E+04</pdfrwt>
<totfact> 0.29823323E+01</totfact>
</mgrwt>
<rwgt>
<wgt id='morphing_basis_vector_1'> +2.5067443e-04 </wgt>
<wgt id='morphing_basis_vector_2'> +1.6888020e-04 </wgt>
<wgt id='morphing_basis_vector_3'> +2.6034677e-04 </wgt>
<wgt id='morphing_basis_vector_4'> +1.6945931e-04 </wgt>
<wgt id='morphing_basis_vector_5'> +2.7579466e-04 </wgt>
</rwgt>
</event>
<event>
 4      1 +3.5234200e-07 1.33298600e+03 7.81860800e-03 8.41911900e-02
        2 -1    0    0  501    0 +0.0000000000e+00 +0.0000000000e+00 +8.2360497405e+02 8.2360497405e+02 0.0000000000e+00 0.0000e+00 1.0000e+00
       -2 -1    0    0    0  501 -0.0000000000e+00 -0.0000000000e+00 -5.3935159507e+02 5.3935159507e+02 0.0000000000e+00 0.0000e+00 -1.0000e+00
      -13  1    1    2    0    0 -6.6376110765e+01 +6.0271870871e+02 -1.4074686675e+02 6.2248318082e+02 0.0000000000e+00 0.0000e+00 -1.0000e+00
       13  1    1    2    0    0 +6.6376110765e+01 -6.0271870871e+02 +4.2500024573e+02 7.4047338830e+02 0.0000000000e+00 0.0000e+00 1.0000e+00
<mgrwt>
<rscale>  0 0.13329856E+04</rscale>
<asrwt>0</asrwt>
<pdfrwt beam="1">  1        2 0.12670846E+00 0.13329856E+04</pdfrwt>
<pdfrwt beam="2">  1       -2 0.82977168E-01 0.13329856E+04</pdfrwt>
<totfact> 0.51897463E+01</totfact>
</mgrwt>
<rwgt>
<wgt id='morphing_basis_vector_1'> +1.6494342e-04 </wgt>
<wgt id='morphing_basis_vector_2'> +1.0932357e-04 </wgt>
<wgt id='morphing_basis_vector_3'> +1.6851994e-04 </wgt>
<wgt id='morphing_basis_vector_4'> +1.0856663e-04 </wgt>
<wgt id='morphing_basis_vector_5'> +1.7557260e-04 </wgt>
</rwgt>
</event>
<event>
 4      1 +3.5234200e-07 1.30808100e+03 7.81860800e-03 8.43601000e-02
        2 -1    0    0  501    0 +0.0000000000e+00 +0.0000000000e+00 +1.9064071812e+03 1.9064071812e+03 0.0000000000e+00 0.0000e+00 -1.0000e+00
       -2 -1    0    0    0  501 -0.0000000000e+00 -0.0000000000e+00 -2.2438480849e+02 2.2438480849e+02 0.0000000000e+00 0.0000e+00 1.0000e+00
      -13  1    1    2    0    0 +4.8831011502e+02 -4.0421063998e+02 +5.7867613059e+02 8.5831175806e+02 0.0000000000e+00 0.0000e+00 1.0000e+00
       13  1    1    2    0    0 -4.8831011502e+02 +4.0421063998e+02 +1.1033462422e+03 1.2724802317e+03 0.0000000000e+00 0.0000e+00 -1.0000e+00
<mgrwt>
<rscale>  0 0.13080807E+04</rscale>
<asrwt>0</asrwt>
<pdfrwt beam="1">  1        2 0.29329340E+00 0.13080807E+04</pdfrwt>
<pdfrwt beam="2">  1       -2 0.34520741E-01 0.13080807E+04</pdfrwt>
<totfact> 0.70840957E+01</totfact>
</mgrwt>
<rwgt>
<wgt id='morphing_basis_vector_1'> +1.5460556e-04 </wgt>
<wgt id='morphing_basis_vector_2'> +1.0491815e-04 </wgt>
<wgt id='morphing_basis_vector_3'> +1.5768378e-04 </wgt>
<wgt id='morphing_basis_vector_4'> +9.8331843e-05 </wgt>
<wgt id='morphing_basis_vector_5'> +1.6209159e-04 </wgt>
</rwgt>
</event>
<event>
 4      1 +3.5234200e-07 1.45484800e+03 7.81860800e-03 8.34167900e-02
        2 -1    0    0  501    0 +0.0000000000e+00 +0.0000000000e+00 +2.1200765816e+03 2.1200765816e+03 0.0000000000e+00 0.0000e+00 1.0000e+00
       -2 -1    0    0    0  501 -0.0000000000e+00 -0.0000000000e+00 -2.4958793280e+02 2.4958793280e+02 0.0000000000e+00 0.0000e+00 -1.0000e+00
      -13  1    1    2    0    0 +3.4321383097e+02 +6.3894141609e+02 +1.0259859764e+03 1.2564589491e+03 0.0000000000e+00 0.0000e+00 -1.0000e+00
       13  1    1    2    0    0 -3.4321383097e+02 -6.3894141609e+02 +8.4450267240e+02 1.1132055653e+03 0.0000000000e+00 0.0000e+00 1.0000e+00
<mgrwt>
<rscale>  0 0.14548478E+04</rscale>
<asrwt>0</asrwt>
<pdfrwt beam="1">  1        2 0.32616561E+00 0.14548478E+04</pdfrwt>
<pdfrwt beam="2">  1       -2 0.38398145E-01 0.14548478E+04</pdfrwt>
<totfact> 0.43676015E+01</totfact>
</mgrwt>
<rwgt>
<wgt id='morphing_basis_vector_1'> +2.4010994e-04 </wgt>
<wgt id='morphing_basis_vector_2'> +1.8206531e-04 </wgt>
<wgt id='morphing_basis_vector_3'> +2.5091676e-04 </wgt>
<wgt id='morphing_basis_vector_4'> +1.3890108e-04 </wgt>
<wgt id='morphing_basis_vector_5'> +2.5158583e-04 </wgt>
</rwgt>
</event>
<event>
 4      1 +3.5234200e-07 1.42513200e+03 7.81860800e-03 8.35981600e-02
        2 -1    0    0  501    0 +0.0000000000e+00 +0.0000000000e+00 +2.3480795212e+03 2.3480795212e+03 0.0000000000e+00 0.0000e+00 1.0000e+00
       -2 -1    0    0    0  501 -0.0000000000e+00 -0.0000000000e+00 -2.1624064088e+02 2.1624064088e+02 0.0000000000e+00 0.0000e+00 -1.0000e+00
      -13  1    1    2    0    0 -6.8331542025e+02 -2.0201251700e+02 +1.0742042837e+03 1.2890476576e+03 0.0000000000e+00 0.0000e+00 1.0000e+00
       13  1    1    2    0    0 +6.8331542025e+02 +2.0201251700e+02 +1.0576345966e+03 1.2752725044e+03 0.0000000000e+00 0.0000e+00 -1.0000e+00
<mgrwt>
<rscale>  0 0.14251319E+04</rscale>
<asrwt>0</asrwt>
<pdfrwt beam="1">  1        2 0.36124299E+00 0.14251319E+04</pdfrwt>
<pdfrwt beam="2">  1       -2 0.33267793E-01 0.14251319E+04</pdfrwt>
<totfact> 0.42133236E+01</totfact>
</mgrwt>
<rwgt>
<wgt id='morphing_basis_vector_1'> +2.1955579e-04 </wgt>
<wgt id='morphing_basis_vector_2'> +1.6129589e-04 </wgt>
<wgt id='morphing_basis_vector_3'> +2.2816400e-04 </wgt>
<wgt id='morphing_basis_vector_4'> +1.3159641e-04 </wgt>
<wgt id='morphing_basis_vector_5'> +2.3120349e-04 </wgt>
</rwgt>
</event>
<event>
 4      1 +3.5234200e-07 1.30034600e+03 7.81860800e-03 8.44133600e-02
        2 -1    0    0  501    0 +0.0000000000e+00 +0.0000000000e+00 +1.4865820940e+03 1.4865820940e+03 0.0000000000e+00 0.0000e+00 1.0000e+00
       -2 -1    0    0    0  501 -0.0000000000e+00 -0.0000000000e+00 -2.8436048140e+02 2.8436048140e+02 0.0000000000e+00 0.0000e+00 -1.0000e+00
      -13  1    1    2    0    0 +1.8909614357e+02 +4.4426286748e+02 +8.0998813504e+00 4.8290004660e+02 0.0000000000e+00 0.0000e+00 -1.0000e+00
       13  1    1    2    0    0 -1.8909614357e+02 -4.4426286748e+02 +1.1941217313e+03 1.2880425288e+03 0.0000000000e+00 0.0000e+00 1.0000e+00
<mgrwt>
<rscale>  0 0.13003464E+04</rscale>
<asrwt>0</asrwt>
<pdfrwt beam="1">  1        2 0.22870493E+00 0.13003464E+04</pdfrwt>
<pdfrwt beam="2">  1       -2 0.43747767E-01 0.13003464E+04</pdfrwt>
<totfact> 0.78123050E+01</totfact>
</mgrwt>
<rwgt>
<wgt id='morphing_basis_vector_1'> +1.4927538e-04 </wgt>
<wgt id='morphing_basis_vector_2'> +9.6910786e-05 </wgt>
<wgt id='morphing_basis_vector_3'> +1.5174679e-04 </wgt>
<wgt id='morphing_basis_vector_4'> +9.9246865e-05 </wgt>
<wgt id='morphing_basis_vector_5'> +1.5834396e-04 </wgt>
</rwgt>
</event>
<event>
 4      1 +3.5234200e-07 1.37516700e+03 7.81860800e-03 8.39137100e-02
        2 -1    0    0  501    0 +0.0000000000e+00 +0.0000000000e+00 +2.5888879321e+03 2.5888879321e+03 0.0000000000e+00 0.0000e+00 1.0000e+00
       -2 -1    0    0    0  501 -0.0000000000e+00 -0.0000000000e+00 -1.8261559763e+02 1.8261559763e+02 0.0000000000e+00 0.0000e+00 -1.0000e+00
      -13  1    1    2    0    0 -5.6955059175e+02 -2.8706291322e+02 +6.8545719957e+02 9.3629299108e+02 0.0000000000e+00 0.0000e+00 -1.0000e+00
       13  1    1    2    0    0 +5.6955059175e+02 +2.8706291322e+02 +1.7208151349e+03 1.8352105387e+03 0.0000000000e+00 0.0000e+00 1.0000e+00
<mgrwt>
<rscale>  0 0.13751674E+04</rscale>
<asrwt>0</asrwt>
<pdfrwt beam="1">  1        2 0.39829042E+00 0.13751674E+04</pdfrwt>
<pdfrwt beam="2">  1       -2 0.28094709E-01 0.13751674E+04</pdfrwt>
<totfact> 0.41207496E+01</totfact>
</mgrwt>
<rwgt>
<wgt id='morphing_basis_vector_1'> +1.8609980e-04 </wgt>
<wgt id='morphing_basis_vector_2'> +1.2430734e-04 </wgt>
<wgt id='morphing_basis_vector_3'> +1.9112481e-04 </wgt>
<wgt id='morphing_basis_vector_4'> +1.2314988e-04 </wgt>
<wgt id='morphing_basis_vector_5'> +1.9995712e-04 </wgt>
</rwgt>
</event>
<event>
 4      1 +3.5234200e-07 1.40561800e+03 7.81860800e-03 8.37197700e-02
        2 -1    0    0  501    0 +0.0000000000e+00 +0.0000000000e+00 +8.4453839115e+02 8.4453839115e+02 0.0000000000e+00 0.0000e+00 -1.0000e+00
       -2 -1    0    0    0  501 -0.0000000000e+00 -0.0000000000e+00 -5.8486429743e+02 5.8486429743e+02 0.0000000000e+00 0.0000e+00 1.0000e+00
      -13  1    1    2    0    0 -5.1151990606e+02 +3.5263656864e+02 +4.6393119843e+02 7.7539494499e+02 0.0000000000e+00 0.0000e+00 1.0000e+00
       13  1    1    2    0    0 +5.1151990606e+02 -3.5263656864e+02 -2.0425710471e+02 6.5400774358e+02 0.0000000000e+00 0.0000e+00 -1.0000e+00
<mgrwt>
<rscale>  0 0.14056178E+04</rscale>
<asrwt>0</asrwt>
<pdfrwt beam="1">  1        2 0.12992898E+00 0.14056178E+04</pdfrwt>
<pdfrwt beam="2">  1       -2 0.89979123E-01 0.14056178E+04</pdfrwt>
<totfact> 0.41393153E+01</totfact>
</mgrwt>
<rwgt>
<wgt id='morphing_basis_vector_1'> +2.3431998e-04 </wgt>
<wgt id='morphing_basis_vector_2'> +2.3076000e-04 </wgt>
<wgt id='morphing_basis_vector_3'> +2.4890348e-04 </wgt>
<wgt id='morphing_basis_vector_4'> +7.6576872e-05 </wgt>
<wgt id='morphing_basis_vector_5'> +2.1484316e-04 </wgt>
</rwgt>
</event>
<event>
 4      1 +3.5234200e-07 1.41678200e+03 7.81860800e-03 8.36499400e-02
        2 -1    0    0  501    0 +0.0000000000e+00 +0.0000000000e+00 +1.7987908920e+03 1.7987908920e+03 0.0000000000e+00 0.0000e+00 -1.0000e+00
       -2 -1    0    0    0  501 -0.0000000000e+00 -0.0000000000e+00 -2.7897522851e+02 2.7897522851e+02 0.0000000000e+00 0.0000e+00 1.0000e+00
      -13  1    1    2    0    0 -4.6820300043e+02 -1.4174676142e+02 +8.5133407076e+00 4.8926339630e+02 0.0000000000e+00 0.0000e+00 1.0000e+00
       13  1    1    2    0    0 +4.6820300043e+02 +1.4174676142e+02 +1.5113023228e+03 1.5885027242e+03 0.0000000000e+00 0.0000e+00 -1.0000e+00
<mgrwt>
<rscale>  0 0.14167824E+04</rscale>
<asrwt>0</asrwt>
<pdfrwt beam="1">  1        2 0.27673705E+00 0.14167824E+04</pdfrwt>
<pdfrwt beam="2">  1       -2 0.42919267E-01 0.14167824E+04</pdfrwt>
<totfact> 0.53811349E+01</totfact>
</mgrwt>
<rwgt>
<wgt id='morphing_basis_vector_1'> +2.0717853e-04 </wgt>
<wgt id='morphing_basis_vector_2'> +1.3530972e-04 </wgt>
<wgt id='morphing_basis_vector_3'> +2.1336810e-04 </wgt>
<wgt id='morphing_basis_vector_4'> +1.4212360e-04 </wgt>
<wgt id='morphing_basis_vector_5'> +2.2661651e-04 </wgt>
</rwgt>
</event>
<event>
 4      1 +3.5234200e-07 1.43314900e+03 7.81860800e-03 8.35487800e-02
        2 -1    0    0  501    0 +0.0000000000e+00 +0.0000000000e+00 +2.3144186298e+03 2.3144186298e+03 0.0000000000e+00 0.0000e+00 -1.0000e+00
       -2 -1    0    0    0  501 -0.0000000000e+00 -0.0000000000e+00 -2.2186097515e+02 2.2186097515e+02 0.0000000000e+00 0.0000e+00 1.0000e+00
      -13  1    1    2    0    0 +3.9333289801e+02 +5.3565736338e+02 +1.5206165377e+03 1.6594921615e+03 0.0000000000e+00 0.0000e+00 1.0000e+00
       13  1    1    2    0    0 -3.9333289801e+02 -5.3565736338e+02 +5.7194111696e+02 8.7678744338e+02 0.0000000000e+00 0.0000e+00 -1.0000e+00
<mgrwt>
<rscale>  0 0.14331492E+04</rscale>
<asrwt>0</asrwt>
<pdfrwt beam="1">  1        2 0.35606439E+00 0.14331492E+04</pdfrwt>
<pdfrwt beam="2">  1       -2 0.34132459E-01 0.14331492E+04</pdfrwt>
<totfact> 0.42041802E+01</totfact>
</mgrwt>
<rwgt>
<wgt id='morphing_basis_vector_1'> +2.4380921e-04 </wgt>
<wgt id='morphing_basis_vector_2'> +2.2298364e-04 </wgt>
<wgt id='morphing_basis_vector_3'> +2.5822701e-04 </wgt>
<wgt id='morphing_basis_vector_4'> +9.8884328e-05 </wgt>
<wgt id='morphing_basis_vector_5'> +2.3404319e-04 </wgt>
</rwgt>
</event>
<event>
 4      1 +3.5234200e-07 1.32941900e+03 7.81860800e-03 8.42151400e-02
        2 -1    0    0  501    0 +0.0000000000e+00 +0.0000000000e+00 +7.5235529021e+02 7.5235529021e+02 0.0000000000e+00 0.0000e+00 -1.0000e+00
       -2 -1    0    0    0  501 -0.0000000000e+00 -0.0000000000e+00 -5.8727410202e+02 5.8727410202e+02 0.0000000000e+00 0.0000e+00 1.0000e+00
      -13  1    1    2    0    0 +4.8785916332e+02 +2.3044256269e+02 +4.7375997293e+02 7.1802426831e+02 0.0000000000e+00 0.0000e+00 -1.0000e+00
       13  1    1    2    0    0 -4.8785916332e+02 -2.3044256269e+02 -3.0867878474e+02 6.2160512392e+02 0.0000000000e+00 0.0000e+00 1.0000e+00
<mgrwt>
<rscale>  0 0.13294191E+04</rscale>
<asrwt>0</asrwt>
<pdfrwt beam="1">  1        2 0.11574697E+00 0.13294191E+04</pdfrwt>
<pdfrwt beam="2">  1       -2 0.90349862E-01 0.13294191E+04</pdfrwt>
<totfact> 0.47852917E+01</totfact>
</mgrwt>
<rwgt>
<wgt id='morphing_basis_vector_1'> +1.9877792e-04 </wgt>
<wgt id='morphing_basis_vector_2'> +2.1446054e-04 </wgt>
<wgt id='morphing_basis_vector_3'> +2.1011262e-04 </wgt>
<wgt id='morphing_basis_vector_4'> +4.3723873e-05 </wgt>
<wgt id='morphing_basis_vector_5'> +1.6908786e-04 </wgt>
</rwgt>
</event>
<event>
 4      1 +3.5234200e-07 1.32238000e+03 7.81860800e-03 8.42626400e-02
        2 -1    0    0  501    0 +0.0000000000e+00 +0.0000000000e+00 +7.3336938387e+02 7.3336938387e+02 0.0000000000e+00 0.0000e+00 -1.0000e+00
       -2 -1    0    0    0  501 -0.0000000000e+00 -0.0000000000e+00 -5.9611454488e+02 5.9611454488e+02 0.0000000000e+00 0.0000e+00 1.0000e+00
      -13  1    1    2    0    0 +3.3040550076e+02 -9.1890677051e+01 -4.9970623158e+02 6.0606766070e+02 0.0000000000e+00 0.0000e+00 1.0000e+00
       13  1    1    2    0    0 -3.3040550076e+02 +9.1890677051e+01 +6.3696107058e+02 7.2341626806e+02 0.0000000000e+00 0.0000e+00 -1.0000e+00
<mgrwt>
<rscale>  0 0.13223799E+04</rscale>
<asrwt>0</asrwt>
<pdfrwt beam="1">  1        2 0.11282606E+00 0.13223799E+04</pdfrwt>
<pdfrwt beam="2">  1       -2 0.91709930E-01 0.13223799E+04</pdfrwt>
<totfact> 0.47736031E+01</totfact>
</mgrwt>
<rwgt>
<wgt id='morphing_basis_vector_1'> +1.5895304e-04 </wgt>
<wgt id='morphing_basis_vector_2'> +1.0287122e-04 </wgt>
<wgt id='morphing_basis_vector_3'> +1.6198606e-04 </wgt>
<wgt id='morphing_basis_vector_4'> +1.0684778e-04 </wgt>
<wgt id='morphing_basis_vector_5'> +1.6992772e-04 </wgt>
</rwgt>
</event>
<event>
 4      1 +3.5234200e-07 1.29983600e+03 7.81860800e-03 8.44168800e-02
        2 -1    0    0  501    0 +0.0000000000e+00 +0.0000000000e+00 +1.8367008277e+03 1.8367008277e+03 0.0000000000e+00 0.0000e+00 1.0000e+00
       -2 -1    0    0    0  501 -0.0000000000e+00 -0.0000000000e+00 -2.2997412279e+02 2.2997412279e+02 0.0000000000e+00 0.0000e+00 -1.0000e+00
      -13  1    1    2    0    0 -1.6699378322e+02 -3.6488104749e+02 -9.4861710686e+00 4.0139144222e+02 0.0000000000e+00 0.0000e+00 -1.0000e+00
       13  1    1    2    0    0 +1.6699378322e+02 +3.6488104749e+02 +1.6162128760e+03 1.6652835083e+03 0.0000000000e+00 0.0000e+00 1.0000e+00
<mgrwt>
<rscale>  0 0.12998364E+04</rscale>
<asrwt>0</asrwt>
<pdfrwt beam="1">  1        2 0.28256935E+00 0.12998364E+04</pdfrwt>
<pdfrwt beam="2">  1       -2 0.35380635E-01 0.12998364E+04</pdfrwt>
<totfact> 0.74116305E+01</totfact>
</mgrwt>
<rwgt>
<wgt id='morphing_basis_vector_1'> +1.4890455e-04 </wgt>
<wgt id='morphing_basis_vector_2'> +9.6319979e-05 </wgt>
<wgt id='morphing_basis_vector_3'> +1.5133246e-04 </wgt>
<wgt id='morphing_basis_vector_4'> +9.9346261e-05 </wgt>
<wgt id='morphing_basis_vector_5'> +1.5810200e-04 </wgt>
</rwgt>
</event>
<event>
 4      1 +3.5234200e-07 1.46925900e+03 7.81860800e-03 8.33304500e-02
        2 -1    0    0  501    0 +0.0000000000e+00 +0.0000000000e+00 +6.8545555619e+02 6.8545555619e+02 0.0000000000e+00 0.0000e+00 -1.0000e+00
       -2 -1    0    0    0  501 -0.0000000000e+00 -0.0000000000e+00 -7.8733109076e+02 7.8733109076e+02 0.0000000000e+00 0.0000e+00 1.0000e+00
      -13  1    1    2    0    0 -4.4046909557e+02 -5.0923273019e+02 -3.4549611623e+02 7.5676850092e+02 0.0000000000e+00 0.0000e+00 1.0000e+00
       13  1    1    2    0    0 +4.4046909557e+02 +5.0923273019e+02 +2.4362058166e+02 7.1601814604e+02 0.0000000000e+00 0.0000e+00 -1.0000e+00
<mgrwt>
<rscale>  0 0.14692590E+04</rscale>
<asrwt>0</asrwt>
<pdfrwt beam="1">  1        2 0.10545470E+00 0.14692590E+04</pdfrwt>
<pdfrwt beam="2">  1       -2 0.12112786E+00 0.14692590E+04</pdfrwt>
<totfact> 0.25801818E+01</totfact>
</mgrwt>
<rwgt>
<wgt id='morphing_basis_vector_1'> +2.3977714e-04 </wgt>
<wgt id='morphing_basis_vector_2'> +1.6052107e-04 </wgt>
<wgt id='morphing_basis_vector_3'> +2.4855778e-04 </wgt>
<wgt id='morphing_basis_vector_4'> +1.6253711e-04 </wgt>
<wgt id='morphing_basis_vector_5'> +2.6341026e-04 </wgt>
</rwgt>
</event>
<event>
 4      1 +3.5234200e-07 1.37067400e+03 7.81860800e-03 8.39427700e-02
        2 -1    0    0  501    0 +0.0000000000e+00 +0.0000000000e+00 +7.1780505254e+02 7.1780505254e+02 0.0000000000e+00 0.0000e+00 -1.0000e+00
       -2 -1    0    0    0  501 -0.0000000000e+00 -0.0000000000e+00 -6.5433718512e+02 6.5433718512e+02 0.0000000000e+00 0.0000e+00 1.0000e+00
      -13  1    1    2    0    0 +1.4212069122e+02 +1.1482406562e+02 -6.2950667898e+02 6.5548570983e+02 0.0000000000e+00 0.0000e+00 1.0000e+00
       13  1    1    2    0    0 -1.4212069122e+02 -1.1482406562e+02 +6.9297454639e+02 7.1665652782e+02 0.0000000000e+00 0.0000e+00 -1.0000e+00
<mgrwt>
<rscale>  0 0.13706736E+04</rscale>
<asrwt>0</asrwt>
<pdfrwt beam="1">  1        2 0.11043155E+00 0.13706736E+04</pdfrwt>
<pdfrwt beam="2">  1       -2 0.10066726E+00 0.13706736E+04</pdfrwt>
<totfact> 0.39136066E+01</totfact>
</mgrwt>
<rwgt>
<wgt id='morphing_basis_vector_1'> +1.8229173e-04 </wgt>
<wgt id='morphing_basis_vector_2'> +1.1827412e-04 </wgt>
<wgt id='morphing_basis_vector_3'> +1.8679387e-04 </wgt>
<wgt id='morphing_basis_vector_4'> +1.2417872e-04 </wgt>
<wgt id='morphing_basis_vector_5'> +1.9743752e-04 </wgt>
</rwgt>
</event>
<event>
 4      1 +3.5234200e-07 1.46924500e+03 7.81860800e-03 8.33305300e-02
        2 -1    0    0  501    0 +0.0000000000e+00 +0.0000000000e+00 +8.1766913407e+02 8.1766913407e+02 0.0000000000e+00 0.0000e+00 -1.0000e+00
       -2 -1    0    0    0  501 -0.0000000000e+00 -0.0000000000e+00 -6.6001065619e+02 6.6001065619e+02 0.0000000000e+00 0.0000e+00 1.0000e+00
      -13  1    1    2    0    0 +2.3610134625e+02 +6.0729128946e+02 -2.6241756581e+02 7.0243116019e+02 0.0000000000e+00 0.0000e+00 1.0000e+00
       13  1    1    2    0    0 -2.3610134625e+02 -6.0729128946e+02 +4.2007604369e+02 7.7524863008e+02 0.0000000000e+00 0.0000e+00 -1.0000e+00
<mgrwt>
<rscale>  0 0.14692452E+04</rscale>
<asrwt>0</asrwt>
<pdfrwt beam="1">  1        2 0.12579525E+00 0.14692452E+04</pdfrwt>
<pdfrwt beam="2">  1       -2 0.10154010E+00 0.14692452E+04</pdfrwt>
<totfact> 0.32241947E+01</totfact>
</mgrwt>
<rwgt>
<wgt id='morphing_basis_vector_1'> +2.3932214e-04 </wgt>
<wgt id='morphing_basis_vector_2'> +1.5918385e-04 </wgt>
<wgt id='morphing_basis_vector_3'> +2.4797028e-04 </wgt>
<wgt id='morphing_basis_vector_4'> +1.6335841e-04 </wgt>
<wgt id='morphing_basis_vector_5'> +2.6346101e-04 </wgt>
</rwgt>
</event>
<event>
 4      1 +3.5234200e-07 1.48260500e+03 7.81860800e-03 8.32514000e-02
        2 -1    0    0  501    0 +0.0000000000e+00 +0.0000000000e+00 +7.4472874775e+02 7.4472874775e+02 0.0000000000e+00 0.0000e+00 1.0000e+00
       -2 -1    0    0    0  501 -0.0000000000e+00 -0.0000000000e+00 -7.3789152989e+02 7.3789152989e+02 0.0000000000e+00 0.0000e+00 -1.0000e+00
      -13  1    1    2    0    0 +2.6939791663e+02 -5.1317405476e+02 -4.5876179940e+02 7.3917875819e+02 0.0000000000e+00 0.0000e+00 -1.0000e+00
       13  1    1    2    0    0 -2.6939791663e+02 +5.1317405476e+02 +4.6559901726e+02 7.4344151945e+02 0.0000000000e+00 0.0000e+00 1.0000e+00
<mgrwt>
<rscale>  0 0.14826045E+04</rscale>
<asrwt>0</asrwt>
<pdfrwt beam="1">  1        2 0.11457365E+00 0.14826045E+04</pdfrwt>
<pdfrwt beam="2">  1       -2 0.11352177E+00 0.14826045E+04</pdfrwt>
<totfact> 0.27493969E+01</totfact>
</mgrwt>
<rwgt>
<wgt id='morphing_basis_vector_1'> +2.4702334e-04 </wgt>
<wgt id='morphing_basis_vector_2'> +1.6258055e-04 </wgt>
<wgt id='morphing_basis_vector_3'> +2.5604873e-04 </wgt>
<wgt id='morphing_basis_vector_4'> +1.7108021e-04 </wgt>
<wgt id='morphing_basis_vector_5'> +2.7365618e-04 </wgt>
</rwgt>
</event>
<event>
 4      1 +3.5234200e-07 1.32076600e+03 7.81860800e-03 8.42735800e-02
        2 -1    0    0  501    0 +0.0000000000e+00 +0.0000000000e+00 +1.0094636508e+03 1.0094636508e+03 0.0000000000e+00 0.0000e+00 1.0000e+00
       -2 -1    0    0    0  501 -0.0000000000e+00 -0.0000000000e+00 -4.3201716288e+02 4.3201716288e+02 0.0000000000e+00 0.0000e+00 -1.0000e+00
      -13  1    1    2    0    0 -5.9125461163e+02 -1.2849026323e+02 +5.7750851239e+02 8.3642563651e+02 0.0000000000e+00 0.0000e+00 1.0000e+00
       13  1    1    2    0    0 +5.9125461163e+02 +1.2849026323e+02 -6.2024511310e-02 6.0505517713e+02 0.0000000000e+00 0.0000e+00 -1.0000e+00
<mgrwt>
<rscale>  0 0.13207659E+04</rscale>
<asrwt>0</asrwt>
<pdfrwt beam="1">  1        2 0.15530210E+00 0.13207659E+04</pdfrwt>
<pdfrwt beam="2">  1       -2 0.66464179E-01 0.13207659E+04</pdfrwt>
<totfact> 0.64034394E+01</totfact>
</mgrwt>
<rwgt>
<wgt id='morphing_basis_vector_1'> +1.7992227e-04 </wgt>
<wgt id='morphing_basis_vector_2'> +1.6735878e-04 </wgt>
<wgt id='morphing_basis_vector_3'> +1.8760367e-04 </wgt>
<wgt id='morphing_basis_vector_4'> +6.7503167e-05 </wgt>
<wgt id='morphing_basis_vector_5'> +1.6630782e-04 </wgt>
</rwgt>
</event>
<event>
 4      1 +3.5234200e-07 1.33622700e+03 7.81860800e-03 8.41694900e-02
        2 -1    0    0  501    0 +0.0000000000e+00 +0.0000000000e+00 +1.0184509612e+03 1.0184509612e+03 0.0000000000e+00 0.0000e+00 1.0000e+00
       -2 -1    0    0    0  501 -0.0000000000e+00 -0.0000000000e+00 -4.3828871012e+02 4.3828871012e+02 0.0000000000e+00 0.0000e+00 -1.0000e+00
      -13  1    1    2    0    0 -1.5140134837e+02 -3.1380140164e+02 +9.1156707639e+02 9.7588330384e+02 0.0000000000e+00 0.0000e+00 -1.0000e+00
       13  1    1    2    0    0 +1.5140134837e+02 +3.1380140164e+02 -3.3140482528e+02 4.8085636751e+02 0.0000000000e+00 0.0000e+00 1.0000e+00
<mgrwt>
<rscale>  0 0.13362269E+04</rscale>
<asrwt>0</asrwt>
<pdfrwt beam="1">  1        2 0.15668476E+00 0.13362269E+04</pdfrwt>
<pdfrwt beam="2">  1       -2 0.67429033E-01 0.13362269E+04</pdfrwt>
<totfact> 0.61247199E+01</totfact>
</mgrwt>
<rwgt>
<wgt id='morphing_basis_vector_1'> +2.2300083e-04 </wgt>
<wgt id='morphing_basis_vector_2'> +2.7946879e-04 </wgt>
<wgt id='morphing_basis_vector_3'> +2.3942791e-04 </wgt>
<wgt id='morphing_basis_vector_4'> +8.2089585e-06 </wgt>
<wgt id='morphing_basis_vector_5'> +1.7013415e-04 </wgt>
</rwgt>
</event>
<event>
 4      1 +3.5234200e-07 1.53820100e+03 7.81860800e-03 8.29311300e-02
        2 -1    0    0  501    0 +0.0000000000e+00 +0.0000000000e+00 +2.1013096816e+03 2.1013096816e+03 0.0000000000e+00 0.0000e+00 1.0000e+00
       -2 -1    0    0    0  501 -0.0000000000e+00 -0.0000000000e+00 -2.8149837990e+02 2.8149837990e+02 0.0000000000e+00 0.0000e+00 -1.0000e+00
      -13  1    1    2    0    0 -2.3880840441e+02 +6.0123407244e+02 +2.6558297987e+02 6.9931837032e+02 0.0000000000e+00 0.0000e+00 -1.0000e+00
       13  1    1    2    0    0 +2.3880840441e+02 -6.0123407244e+02 +1.5542283218e+03 1.6834896911e+03 0.0000000000e+00 0.0000e+00 1.0000e+00
<mgrwt>
<rscale>  0 0.15382006E+04</rscale>
<asrwt>0</asrwt>
<pdfrwt beam="1">  1        2 0.32327840E+00 0.15382006E+04</pdfrwt>
<pdfrwt beam="2">  1       -2 0.43307445E-01 0.15382006E+04</pdfrwt>
<totfact> 0.35455689E+01</totfact>
</mgrwt>
<rwgt>
<wgt id='morphing_basis_vector_1'> +2.8514108e-04 </wgt>
<wgt id='morphing_basis_vector_2'> +1.8911432e-04 </wgt>
<wgt id='morphing_basis_vector_3'> +2.9704906e-04 </wgt>
<wgt id='morphing_basis_vector_4'> +1.9848247e-04 </wgt>
<wgt id='morphing_basis_vector_5'> +3.1869533e-04 </wgt>
</rwgt>
</event>
<event>
 4      1 +3.5234200e-07 1.29516500e+03 7.81860800e-03 8.44492500e-02
        2 -1    0    0  501    0 +0.0000000000e+00 +0.0000000000e+00 +1.0820420588e+03 1.0820420588e+03 0.0000000000e+00 0.0000e+00 -1.0000e+00
       -2 -1    0    0    0  501 -0.0000000000e+00 -0.0000000000e+00 -3.8756658311e+02 3.8756658311e+02 0.0000000000e+00 0.0000e+00 1.0000e+00
      -13  1    1    2    0    0 -6.0434846800e+02 +3.0305991897e+01 +8.5501292719e+01 6.1111864230e+02 0.0000000000e+00 0.0000e+00 1.0000e+00
       13  1    1    2    0    0 +6.0434846800e+02 -3.0305991897e+01 +6.0897418301e+02 8.5848999964e+02 0.0000000000e+00 0.0000e+00 -1.0000e+00
<mgrwt>
<rscale>  0 0.12951654E+04</rscale>
<asrwt>0</asrwt>
<pdfrwt beam="1">  1        2 0.16646801E+00 0.12951654E+04</pdfrwt>
<pdfrwt beam="2">  1       -2 0.59625629E-01 0.12951654E+04</pdfrwt>
<totfact> 0.72563176E+01</totfact>
</mgrwt>
<rwgt>
<wgt id='morphing_basis_vector_1'> +1.4808604e-04 </wgt>
<wgt id='morphing_basis_vector_2'> +9.8601857e-05 </wgt>
<wgt id='morphing_basis_vector_3'> +1.5063436e-04 </wgt>
<wgt id='morphing_basis_vector_4'> +9.5711139e-05 </wgt>
<wgt id='morphing_basis_vector_5'> +1.5557992e-04 </wgt>
</rwgt>
</event>
<event>
 4      1 +3.5234200e-07 1.47673100e+03 7.81860800e-03 8.32860900e-02
        2 -1    0    0  501    0 +0.0000000000e+00 +0.0000000000e+00 +3.7623944969e+02 3.7623944969e+02 0.0000000000e+00 0.0000e+00 1.0000e+00
       -2 -1    0    0    0  501 -0.0000000000e+00 -0.0000000000e+00 -1.4490330719e+03 1.4490330719e+03 0.0000000000e+00 0.0000e+00 -1.0000e+00
      -13  1    1    2    0    0 +3.7579028177e+02 -9.5846823828e+01 -1.3130070788e+03 1.3690845622e+03 0.0000000000e+00 0.0000e+00 -1.0000e+00
       13  1    1    2    0    0 -3.7579028177e+02 +9.5846823828e+01 +2.4021345663e+02 4.5618795935e+02 0.0000000000e+00 0.0000e+00 1.0000e+00
<mgrwt>
<rscale>  0 0.14767307E+04</rscale>
<asrwt>0</asrwt>
<pdfrwt beam="1">  1        2 0.57882994E-01 0.14767307E+04</pdfrwt>
<pdfrwt beam="2">  1       -2 0.22292816E+00 0.14767307E+04</pdfrwt>
<totfact> 0.80935311E+00</totfact>
</mgrwt>
<rwgt>
<wgt id='morphing_basis_vector_1'> +2.4281221e-04 </wgt>
<wgt id='morphing_basis_vector_2'> +1.5868990e-04 </wgt>
<wgt id='morphing_basis_vector_3'> +2.5143188e-04 </wgt>
<wgt id='morphing_basis_vector_4'> +1.6914353e-04 </wgt>
<wgt id='morphing_basis_vector_5'> +2.6924818e-04 </wgt>
</rwgt>
</event>
<event>
 4      1 +3.5234200e-07 1.31982800e+03 7.81860800e-03 8.42799400e-02
        2 -1    0    0  501    0 +0.0000000000e+00 +0.0000000000e+00 +3.4026396004e+03 3.4026396004e+03 0.0000000000e+00 0.0000e+00 1.0000e+00
       -2 -1    0    0    0  501 -0.0000000000e+00 -0.0000000000e+00 -1.2798494410e+02 1.2798494410e+02 0.0000000000e+00 0.0000e+00 -1.0000e+00
      -13  1    1    2    0    0 -6.3969791617e+02 -8.3873739814e+01 +1.2662890459e+03 1.4211742243e+03 0.0000000000e+00 0.0000e+00 -1.0000e+00
       13  1    1    2    0    0 +6.3969791617e+02 +8.3873739814e+01 +2.0083656104e+03 2.1094503202e+03 0.0000000000e+00 0.0000e+00 1.0000e+00
<mgrwt>
<rscale>  0 0.13198282E+04</rscale>
<asrwt>0</asrwt>
<pdfrwt beam="1">  1        2 0.52348295E+00 0.13198282E+04</pdfrwt>
<pdfrwt beam="2">  1       -2 0.19689994E-01 0.13198282E+04</pdfrwt>
<totfact> 0.22614996E+01</totfact>
</mgrwt>
<rwgt>
<wgt id='morphing_basis_vector_1'> +1.6032427e-04 </wgt>
<wgt id='morphing_basis_vector_2'> +1.0969752e-04 </wgt>
<wgt id='morphing_basis_vector_3'> +1.6383298e-04 </wgt>
<wgt id='morphing_basis_vector_4'> +1.0145084e-04 </wgt>
<wgt id='morphing_basis_vector_5'> +1.6823632e-04 </wgt>
</rwgt>
</event>
<event>
 4      1 +3.5234200e-07 1.48841800e+03 7.81860800e-03 8.32172400e-02
        2 -1    0    0  501    0 +0.0000000000e+00 +0.0000000000e+00 +8.9332471637e+02 8.9332471637e+02 0.0000000000e+00 0.0000e+00 1.0000e+00
       -2 -1    0    0    0  501 -0.0000000000e+00 -0.0000000000e+00 -6.1998406436e+02 6.1998406436e+02 0.0000000000e+00 0.0000e+00 -1.0000e+00
      -13  1    1    2    0    0 -6.9456489606e+02 -1.2343967636e+02 -1.0433663305e+02 7.1312262727e+02 0.0000000000e+00 0.0000e+00 -1.0000e+00
       13  1    1    2    0    0 +6.9456489606e+02 +1.2343967636e+02 +3.7767728505e+02 8.0018615345e+02 0.0000000000e+00 0.0000e+00 1.0000e+00
<mgrwt>
<rscale>  0 0.14884181E+04</rscale>
<asrwt>0</asrwt>
<pdfrwt beam="1">  1        2 0.13743457E+00 0.14884181E+04</pdfrwt>
<pdfrwt beam="2">  1       -2 0.95382164E-01 0.14884181E+04</pdfrwt>
<totfact> 0.33269892E+01</totfact>
</mgrwt>
<rwgt>
<wgt id='morphing_basis_vector_1'> +2.5285823e-04 </wgt>
<wgt id='morphing_basis_vector_2'> +1.7130202e-04 </wgt>
<wgt id='morphing_basis_vector_3'> +2.6278561e-04 </wgt>
<wgt id='morphing_basis_vector_4'> +1.7000567e-04 </wgt>
<wgt id='morphing_basis_vector_5'> +2.7784891e-04 </wgt>
</rwgt>
</event>
<event>
 4      1 +3.5234200e-07 1.43471100e+03 7.81860800e-03 8.35392000e-02
        2 -1    0    0  501    0 +0.0000000000e+00 +0.0000000000e+00 +2.7097805339e+03 2.7097805339e+03 0.0000000000e+00 0.0000e+00 1.0000e+00
       -2 -1    0    0    0  501 -0.0000000000e+00 -0.0000000000e+00 -1.8990430028e+02 1.8990430028e+02 0.0000000000e+00 0.0000e+00 -1.0000e+00
      -13  1    1    2    0    0 -2.6731958964e+02 +4.2244485822e+02 +2.2014595234e+02 5.4624505634e+02 0.0000000000e+00 0.0000e+00 -1.0000e+00
       13  1    1    2    0    0 +2.6731958964e+02 -4.2244485822e+02 +2.2997302813e+03 2.3534397778e+03 0.0000000000e+00 0.0000e+00 1.0000e+00
<mgrwt>
<rscale>  0 0.14347111E+04</rscale>
<asrwt>0</asrwt>
<pdfrwt beam="1">  1        2 0.41688929E+00 0.14347111E+04</pdfrwt>
<pdfrwt beam="2">  1       -2 0.29216048E-01 0.14347111E+04</pdfrwt>
<totfact> 0.32307602E+01</totfact>
</mgrwt>
<rwgt>
<wgt id='morphing_basis_vector_1'> +2.1745109e-04 </wgt>
<wgt id='morphing_basis_vector_2'> +1.4219766e-04 </wgt>
<wgt id='morphing_basis_vector_3'> +2.2434439e-04 </wgt>
<wgt id='morphing_basis_vector_4'> +1.4972420e-04 </wgt>
<wgt id='morphing_basis_vector_5'> +2.3879080e-04 </wgt>
</rwgt>
</event>
<event>
 4      1 +3.5234200e-07 1.30886000e+03 7.81860800e-03 8.43547500e-02
        2 -1    0    0  501    0 +0.0000000000e+00 +0.0000000000e+00 +5.1636067791e+02 5.1636067791e+02 0.0000000000e+00 0.0000e+00 1.0000e+00
       -2 -1    0    0    0  501 -0.0000000000e+00 -0.0000000000e+00 -8.2941772276e+02 8.2941772276e+02 0.0000000000e+00 0.0000e+00 -1.0000e+00
      -13  1    1    2    0    0 +4.0679027914e+02 +4.8338193826e+02 -3.3205474086e+02 7.1372037968e+02 0.0000000000e+00 0.0000e+00 -1.0000e+00
       13  1    1    2    0    0 -4.0679027914e+02 -4.8338193826e+02 +1.8997696005e+01 6.3205802099e+02 0.0000000000e+00 0.0000e+00 1.0000e+00
<mgrwt>
<rscale>  0 0.13088601E+04</rscale>
<asrwt>0</asrwt>
<pdfrwt beam="1">  1        2 0.79440105E-01 0.13088601E+04</pdfrwt>
<pdfrwt beam="2">  1       -2 0.12760273E+00 0.13088601E+04</pdfrwt>
<totfact> 0.31828613E+01</totfact>
</mgrwt>
<rwgt>
<wgt id='morphing_basis_vector_1'> +1.5483140e-04 </wgt>
<wgt id='morphing_basis_vector_2'> +1.0478533e-04 </wgt>
<wgt id='morphing_basis_vector_3'> +1.5790643e-04 </wgt>
<wgt id='morphing_basis_vector_4'> +9.8801517e-05 </wgt>
<wgt id='morphing_basis_vector_5'> +1.6251277e-04 </wgt>
</rwgt>
</event>
<event>
 4      1 +3.5234200e-07 1.43922300e+03 7.81860800e-03 8.35115900e-02
        2 -1    0    0  501    0 +0.0000000000e+00 +0.0000000000e+00 +9.6197468373e+02 9.6197468373e+02 0.0000000000e+00 0.0000e+00 -1.0000e+00
       -2 -1    0    0    0  501 -0.0000000000e+00 -0.0000000000e+00 -5.3831022704e+02 5.3831022704e+02 0.0000000000e+00 0.0000e+00 1.0000e+00
      -13  1    1    2    0    0 -2.2506750219e+02 +2.9616164791e+02 -4.3031772367e+02 5.6880615814e+02 0.0000000000e+00 0.0000e+00 1.0000e+00
       13  1    1    2    0    0 +2.2506750219e+02 -2.9616164791e+02 +8.5398218036e+02 9.3147875263e+02 0.0000000000e+00 0.0000e+00 -1.0000e+00
<mgrwt>
<rscale>  0 0.14392231E+04</rscale>
<asrwt>0</asrwt>
<pdfrwt beam="1">  1        2 0.14799611E+00 0.14392231E+04</pdfrwt>
<pdfrwt beam="2">  1       -2 0.82816958E-01 0.14392231E+04</pdfrwt>
<totfact> 0.41911938E+01</totfact>
</mgrwt>
<rwgt>
<wgt id='morphing_basis_vector_1'> +2.1990708e-04 </wgt>
<wgt id='morphing_basis_vector_2'> +1.4340748e-04 </wgt>
<wgt id='morphing_basis_vector_3'> +2.2693003e-04 </wgt>
<wgt id='morphing_basis_vector_4'> +1.5203200e-04 </wgt>
<wgt id='morphing_basis_vector_5'> +2.4195492e-04 </wgt>
</rwgt>
</event>
<event>
 4      1 +3.5234200e-07 1.39235300e+03 7.81860800e-03 8.38036200e-02
        2 -1    0    0  501    0 +0.0000000000e+00 +0.0000000000e+00 +1.2500798404e+03 1.2500798404e+03 0.0000000000e+00 0.0000e+00 -1.0000e+00
       -2 -1    0    0    0  501 -0.0000000000e+00 -0.0000000000e+00 -3.8770480117e+02 3.8770480117e+02 0.0000000000e+00 0.0000e+00 1.0000e+00
      -13  1    1    2    0    0 -1.7192999756e+02 -5.0498763406e+02 -9.4974512097e+01 5.4184185198e+02 0.0000000000e+00 0.0000e+00 1.0000e+00
       13  1    1    2    0    0 +1.7192999756e+02 +5.0498763406e+02 +9.5734955131e+02 1.0959427896e+03 0.0000000000e+00 0.0000e+00 -1.0000e+00
<mgrwt>
<rscale>  0 0.13923533E+04</rscale>
<asrwt>0</asrwt>
<pdfrwt beam="1">  1        2 0.19231997E+00 0.13923533E+04</pdfrwt>
<pdfrwt beam="2">  1       -2 0.59646893E-01 0.13923533E+04</pdfrwt>
<totfact> 0.57274425E+01</totfact>
</mgrwt>
<rwgt>
<wgt id='morphing_basis_vector_1'> +1.9396161e-04 </wgt>
<wgt id='morphing_basis_vector_2'> +1.2687536e-04 </wgt>
<wgt id='morphing_basis_vector_3'> +1.9929624e-04 </wgt>
<wgt id='morphing_basis_vector_4'> +1.3190181e-04 </wgt>
<wgt id='morphing_basis_vector_5'> +2.1075136e-04 </wgt>
</rwgt>
</event>
<event>
 4      1 +3.5234200e-07 1.39967200e+03 7.81860800e-03 8.37572400e-02
        2 -1    0    0  501    0 +0.0000000000e+00 +0.0000000000e+00 +1.9427244923e+03 1.9427244923e+03 0.0000000000e+00 0.0000e+00 -1.0000e+00
       -2 -1    0    0    0  501 -0.0000000000e+00 -0.0000000000e+00 -2.5210484040e+02 2.5210484040e+02 0.0000000000e+00 0.0000e+00 1.0000e+00
      -13  1    1    2    0    0 -5.4585572258e+02 +2.9925113997e+02 +3.4385872734e+02 7.1115999537e+02 0.0000000000e+00 0.0000e+00 1.0000e+00
       13  1    1    2    0    0 +5.4585572258e+02 -2.9925113997e+02 +1.3467609245e+03 1.4836693373e+03 0.0000000000e+00 0.0000e+00 -1.0000e+00
<mgrwt>
<rscale>  0 0.13996717E+04</rscale>
<asrwt>0</asrwt>
<pdfrwt beam="1">  1        2 0.29888068E+00 0.13996717E+04</pdfrwt>
<pdfrwt beam="2">  1       -2 0.38785361E-01 0.13996717E+04</pdfrwt>
<totfact> 0.54181871E+01</totfact>
</mgrwt>
<rwgt>
<wgt id='morphing_basis_vector_1'> +1.9861655e-04 </wgt>
<wgt id='morphing_basis_vector_2'> +1.3164381e-04 </wgt>
<wgt id='morphing_basis_vector_3'> +2.0440125e-04 </wgt>
<wgt id='morphing_basis_vector_4'> +1.3350875e-04 </wgt>
<wgt id='morphing_basis_vector_5'> +2.1531373e-04 </wgt>
</rwgt>
</event>
<event>
 4      1 +3.5234200e-07 1.46886700e+03 7.81860800e-03 8.33327800e-02
        2 -1    0    0  501    0 +0.0000000000e+00 +0.0000000000e+00 +4.1135615076e+03 4.1135615076e+03 0.0000000000e+00 0.0000e+00 1.0000e+00
       -2 -1    0    0    0  501 -0.0000000000e+00 -0.0000000000e+00 -1.3112551331e+02 1.3112551331e+02 0.0000000000e+00 0.0000e+00 -1.0000e+00
      -13  1    1    2    0    0 +9.5591626663e+01 -6.2985032813e+02 +9.3519170333e+02 1.1315620694e+03 0.0000000000e+00 0.0000e+00 1.0000e+00
       13  1    1    2    0    0 -9.5591626663e+01 +6.2985032813e+02 +3.0472442910e+03 3.1131249515e+03 0.0000000000e+00 0.0000e+00 -1.0000e+00
<mgrwt>
<rscale>  0 0.14688674E+04</rscale>
<asrwt>0</asrwt>
<pdfrwt beam="1">  1        2 0.63285552E+00 0.14688674E+04</pdfrwt>
<pdfrwt beam="2">  1       -2 0.20173159E-01 0.14688674E+04</pdfrwt>
<totfact> 0.59361326E+00</totfact>
</mgrwt>
<rwgt>
<wgt id='morphing_basis_vector_1'> +2.3887104e-04 </wgt>
<wgt id='morphing_basis_vector_2'> +1.5838436e-04 </wgt>
<wgt id='morphing_basis_vector_3'> +2.4743883e-04 </wgt>
<wgt id='morphing_basis_vector_4'> +1.6358137e-04 </wgt>
<wgt id='morphing_basis_vector_5'> +2.6320913e-04 </wgt>
</rwgt>
</event>
<event>
 4      1 +3.5234200e-07 1.29928500e+03 7.81860800e-03 8.44206900e-02
        2 -1    0    0  501    0 +0.0000000000e+00 +0.0000000000e+00 +3.2788403806e+03 3.2788403806e+03 0.0000000000e+00 0.0000e+00 1.0000e+00
       -2 -1    0    0    0  501 -0.0000000000e+00 -0.0000000000e+00 -1.2871488006e+02 1.2871488006e+02 0.0000000000e+00 0.0000e+00 -1.0000e+00
      -13  1    1    2    0    0 -4.8958491409e+01 -6.1334266400e+02 +1.0283864673e+03 1.1984009694e+03 0.0000000000e+00 0.0000e+00 -1.0000e+00
       13  1    1    2    0    0 +4.8958491409e+01 +6.1334266400e+02 +2.1217390333e+03 2.2091542913e+03 0.0000000000e+00 0.0000e+00 1.0000e+00
<mgrwt>
<rscale>  0 0.12992853E+04</rscale>
<asrwt>0</asrwt>
<pdfrwt beam="1">  1        2 0.50443692E+00 0.12992853E+04</pdfrwt>
<pdfrwt beam="2">  1       -2 0.19802292E-01 0.12992853E+04</pdfrwt>
<totfact> 0.27364857E+01</totfact>
</mgrwt>
<rwgt>
<wgt id='morphing_basis_vector_1'> +1.5011113e-04 </wgt>
<wgt id='morphing_basis_vector_2'> +1.0049454e-04 </wgt>
<wgt id='morphing_basis_vector_3'> +1.5281788e-04 </wgt>
<wgt id='morphing_basis_vector_4'> +9.6599990e-05 </wgt>
<wgt id='morphing_basis_vector_5'> +1.5763980e-04 </wgt>
</rwgt>
</event>
<event>
 4      1 +3.5234200e-07 1.35661900e+03 7.81860800e-03 8.40344300e-02
        2 -1    0    0  501    0 +0.0000000000e+00 +0.0000000000e+00 +9.6275892270e+02 9.6275892270e+02 0.0000000000e+00 0.0000e+00 -1.0000e+00
       -2 -1    0    0    0  501 -0.0000000000e+00 -0.0000000000e+00 -4.7790134820e+02 4.7790134820e+02 0.0000000000e+00 0.0000e+00 1.0000e+00
      -13  1    1    2    0    0 +4.8929951950e+02 +4.3489198534e+02 +5.3775912112e+01 6.5683857029e+02 0.0000000000e+00 0.0000e+00 1.0000e+00
       13  1    1    2    0    0 -4.8929951950e+02 -4.3489198534e+02 +4.3108166239e+02 7.8382170061e+02 0.0000000000e+00 0.0000e+00 -1.0000e+00
<mgrwt>
<rscale>  0 0.13566190E+04</rscale>
<asrwt>0</asrwt>
<pdfrwt beam="1">  1        2 0.14811676E+00 0.13566190E+04</pdfrwt>
<pdfrwt beam="2">  1       -2 0.73523285E-01 0.13566190E+04</pdfrwt>
<totfact> 0.55019500E+01</totfact>
</mgrwt>
<rwgt>
<wgt id='morphing_basis_vector_1'> +1.7755637e-04 </wgt>
<wgt id='morphing_basis_vector_2'> +1.2052788e-04 </wgt>
<wgt id='morphing_basis_vector_3'> +1.8215633e-04 </wgt>
<wgt id='morphing_basis_vector_4'> +1.1476649e-04 </wgt>
<wgt id='morphing_basis_vector_5'> +1.8881641e-04 </wgt>
</rwgt>
</event>
<event>
 4      1 +3.5234200e-07 1.54625200e+03 7.81860800e-03 8.28859100e-02
        2 -1    0    0  501    0 +0.0000000000e+00 +0.0000000000e+00 +1.4974039266e+03 1.4974039266e+03 0.0000000000e+00 0.0000e+00 1.0000e+00
       -2 -1    0    0    0  501 -0.0000000000e+00 -0.0000000000e+00 -3.9917353008e+02 3.9917353008e+02 0.0000000000e+00 0.0000e+00 -1.0000e+00
      -13  1    1    2    0    0 +6.5310896416e+02 +3.1563856389e+02 +2.2103512852e+02 7.5831098510e+02 0.0000000000e+00 0.0000e+00 -1.0000e+00
       13  1    1    2    0    0 -6.5310896416e+02 -3.1563856389e+02 +8.7719526796e+02 1.1382664715e+03 0.0000000000e+00 0.0000e+00 1.0000e+00
<mgrwt>
<rscale>  0 0.15462523E+04</rscale>
<asrwt>0</asrwt>
<pdfrwt beam="1">  1        2 0.23036983E+00 0.15462523E+04</pdfrwt>
<pdfrwt beam="2">  1       -2 0.61411313E-01 0.15462523E+04</pdfrwt>
<totfact> 0.38566518E+01</totfact>
</mgrwt>
<rwgt>
<wgt id='morphing_basis_vector_1'> +2.9261873e-04 </wgt>
<wgt id='morphing_basis_vector_2'> +1.9799971e-04 </wgt>
<wgt id='morphing_basis_vector_3'> +3.0550947e-04 </wgt>
<wgt id='morphing_basis_vector_4'> +1.9967819e-04 </wgt>
<wgt id='morphing_basis_vector_5'> +3.2541984e-04 </wgt>
</rwgt>
</event>
<event>
 4      1 +3.5234200e-07 1.31284300e+03 7.81860800e-03 8.43275000e-02
        2 -1    0    0  501    0 +0.0000000000e+00 +0.0000000000e+00 +2.3850577904e+03 2.3850577904e+03 0.0000000000e+00 0.0000e+00 -1.0000e+00
       -2 -1    0    0    0  501 -0.0000000000e+00 -0.0000000000e+00 -1.8066197763e+02 1.8066197763e+02 0.0000000000e+00 0.0000e+00 1.0000e+00
      -13  1    1    2    0    0 -1.7842441514e+01 -5.2628729660e+02 +3.3628124417e+02 6.2480536686e+02 0.0000000000e+00 0.0000e+00 1.0000e+00
       13  1    1    2    0    0 +1.7842441514e+01 +5.2628729660e+02 +1.8681145686e+03 1.9409144012e+03 0.0000000000e+00 0.0000e+00 -1.0000e+00
<mgrwt>
<rscale>  0 0.13128431E+04</rscale>
<asrwt>0</asrwt>
<pdfrwt beam="1">  1        2 0.36693194E+00 0.13128431E+04</pdfrwt>
<pdfrwt beam="2">  1       -2 0.27794152E-01 0.13128431E+04</pdfrwt>
<totfact> 0.55737764E+01</totfact>
</mgrwt>
<rwgt>
<wgt id='morphing_basis_vector_1'> +1.5497436e-04 </wgt>
<wgt id='morphing_basis_vector_2'> +1.0105773e-04 </wgt>
<wgt id='morphing_basis_vector_3'> +1.5781644e-04 </wgt>
<wgt id='morphing_basis_vector_4'> +1.0303061e-04 </wgt>
<wgt id='morphing_basis_vector_5'> +1.6480596e-04 </wgt>
</rwgt>
</event>
<event>
 4      1 +3.5234200e-07 1.36593000e+03 7.81860800e-03 8.39735800e-02
        2 -1    0    0  501    0 +0.0000000000e+00 +0.0000000000e+00 +3.6887837958e+02 3.6887837958e+02 0.0000000000e+00 0.0000e+00 1.0000e+00
       -2 -1    0    0    0  501 -0.0000000000e+00 -0.0000000000e+00 -1.2644851035e+03 1.2644851035e+03 0.0000000000e+00 0.0000e+00 -1.0000e+00
      -13  1    1    2    0    0 -4.5539512495e+02 -4.2497144659e+02 -7.8274321043e+02 1.0003361354e+03 0.0000000000e+00 0.0000e+00 -1.0000e+00
       13  1    1    2    0    0 +4.5539512495e+02 +4.2497144659e+02 -1.1286351346e+02 6.3302734768e+02 0.0000000000e+00 0.0000e+00 1.0000e+00
<mgrwt>
<rscale>  0 0.13659300E+04</rscale>
<asrwt>0</asrwt>
<pdfrwt beam="1">  1        2 0.56750521E-01 0.13659300E+04</pdfrwt>
<pdfrwt beam="2">  1       -2 0.19453617E+00 0.13659300E+04</pdfrwt>
<totfact> 0.13384447E+01</totfact>
</mgrwt>
<rwgt>
<wgt id='morphing_basis_vector_1'> +1.8112587e-04 </wgt>
<wgt id='morphing_basis_vector_2'> +1.2038182e-04 </wgt>
<wgt id='morphing_basis_vector_3'> +1.8577371e-04 </wgt>
<wgt id='morphing_basis_vector_4'> +1.2015445e-04 </wgt>
<wgt id='morphing_basis_vector_5'> +1.9443830e-04 </wgt>
</rwgt>
</event>
<event>
 4      1 +3.5234200e-07 1.43840600e+03 7.81860800e-03 8.35165800e-02
        2 -1    0    0  501    0 +0.0000000000e+00 +0.0000000000e+00 +1.3984548984e+03 1.3984548984e+03 0.0000000000e+00 0.0000e+00 -1.0000e+00
       -2 -1    0    0    0  501 -0.0000000000e+00 -0.0000000000e+00 -3.6987456203e+02 3.6987456203e+02 0.0000000000e+00 0.0000e+00 1.0000e+00
      -13  1    1    2    0    0 +6.6159471390e+02 +2.7952302073e+02 +5.6048901456e+02 9.1103711232e+02 0.0000000000e+00 0.0000e+00 1.0000e+00
       13  1    1    2    0    0 -6.6159471390e+02 -2.7952302073e+02 +4.6809132182e+02 8.5729234812e+02 0.0000000000e+00 0.0000e+00 -1.0000e+00
<mgrwt>
<rscale>  0 0.14384059E+04</rscale>
<asrwt>0</asrwt>
<pdfrwt beam="1">  1        2 0.21514690E+00 0.14384059E+04</pdfrwt>
<pdfrwt beam="2">  1       -2 0.56903780E-01 0.14384059E+04</pdfrwt>
<totfact> 0.51684693E+01</totfact>
</mgrwt>
<rwgt>
<wgt id='morphing_basis_vector_1'> +2.2897240e-04 </wgt>
<wgt id='morphing_basis_vector_2'> +1.7157744e-04 </wgt>
<wgt id='morphing_basis_vector_3'> +2.3864298e-04 </wgt>
<wgt id='morphing_basis_vector_4'> +1.3409234e-04 </wgt>
<wgt id='morphing_basis_vector_5'> +2.4009691e-04 </wgt>
</rwgt>
</event>
<event>
 4      1 +3.5234200e-07 1.35885900e+03 7.81860800e-03 8.40197400e-02
        2 -1    0    0  501    0 +0.0000000000e+00 +0.0000000000e+00 +1.5975695659e+03 1.5975695659e+03 0.0000000000e+00 0.0000e+00 -1.0000e+00
       -2 -1    0    0    0  501 -0.0000000000e+00 -0.0000000000e+00 -2.8895414080e+02 2.8895414080e+02 0.0000000000e+00 0.0000e+00 1.0000e+00
      -13  1    1    2    0    0 -4.6915953572e+02 -2.8703196066e+02 +1.0050007955e+02 5.5910489391e+02 0.0000000000e+00 0.0000e+00 1.0000e+00
       13  1    1    2    0    0 +4.6915953572e+02 +2.8703196066e+02 +1.2081153455e+03 1.3274188128e+03 0.0000000000e+00 0.0000e+00 -1.0000e+00
<mgrwt>
<rscale>  0 0.13588588E+04</rscale>
<asrwt>0</asrwt>
<pdfrwt beam="1">  1        2 0.24577993E+00 0.13588588E+04</pdfrwt>
<pdfrwt beam="2">  1       -2 0.44454484E-01 0.13588588E+04</pdfrwt>
<totfact> 0.65402136E+01</totfact>
</mgrwt>
<rwgt>
<wgt id='morphing_basis_vector_1'> +1.7681987e-04 </wgt>
<wgt id='morphing_basis_vector_2'> +1.1574228e-04 </wgt>
<wgt id='morphing_basis_vector_3'> +1.8105270e-04 </wgt>
<wgt id='morphing_basis_vector_4'> +1.1892130e-04 </wgt>
<wgt id='morphing_basis_vector_5'> +1.9036373e-04 </wgt>
</rwgt>
</event>
<event>
 4      1 +3.5234200e-07 1.33650800e+03 7.81860800e-03 8.41676100e-02
        2 -1    0    0  501    0 +0.0000000000e+00 +0.0000000000e+00 +2.3789690522e+03 2.3789690522e+03 0.0000000000e+00 0.0000e+00 -1.0000e+00
       -2 -1    0    0    0  501 -0.0000000000e+00 -0.0000000000e+00 -1.8771286681e+02 1.8771286681e+02 0.0000000000e+00 0.0000e+00 1.0000e+00
      -13  1    1    2    0    0 +6.0419012423e+02 +3.8558490605e+01 +5.5234176451e+02 8.1952052337e+02 0.0000000000e+00 0.0000e+00 1.0000e+00
       13  1    1    2    0    0 -6.0419012423e+02 -3.8558490605e+01 +1.6389144209e+03 1.7471613956e+03 0.0000000000e+00 0.0000e+00 -1.0000e+00
<mgrwt>
<rscale>  0 0.13365075E+04</rscale>
<asrwt>0</asrwt>
<pdfrwt beam="1">  1        2 0.36599522E+00 0.13365075E+04</pdfrwt>
<pdfrwt beam="2">  1       -2 0.28878904E-01 0.13365075E+04</pdfrwt>
<totfact> 0.52429835E+01</totfact>
</mgrwt>
<rwgt>
<wgt id='morphing_basis_vector_1'> +1.6657284e-04 </wgt>
<wgt id='morphing_basis_vector_2'> +1.1033027e-04 </wgt>
<wgt id='morphing_basis_vector_3'> +1.7024819e-04 </wgt>
<wgt id='morphing_basis_vector_4'> +1.0984657e-04 </wgt>
<wgt id='morphing_basis_vector_5'> +1.7752783e-04 </wgt>
</rwgt>
</event>
<event>
 4      1 +3.5234200e-07 1.35455400e+03 7.81860800e-03 8.40479900e-02
        2 -1    0    0  501    0 +0.0000000000e+00 +0.0000000000e+00 +7.4877171569e+02 7.4877171569e+02 0.0000000000e+00 0.0000e+00 1.0000e+00
       -2 -1    0    0    0  501 -0.0000000000e+00 -0.0000000000e+00 -6.1260911768e+02 6.1260911768e+02 0.0000000000e+00 0.0000e+00 -1.0000e+00
      -13  1    1    2    0    0 -6.4613550641e+01 -6.7207225164e+02 +1.4442325296e+01 6.7532555343e+02 0.0000000000e+00 0.0000e+00 -1.0000e+00
       13  1    1    2    0    0 +6.4613550641e+01 +6.7207225164e+02 +1.2172027271e+02 6.8605527995e+02 0.0000000000e+00 0.0000e+00 1.0000e+00
<mgrwt>
<rscale>  0 0.13545544E+04</rscale>
<asrwt>0</asrwt>
<pdfrwt beam="1">  1        2 0.11519565E+00 0.13545544E+04</pdfrwt>
<pdfrwt beam="2">  1       -2 0.94247556E-01 0.13545544E+04</pdfrwt>
<totfact> 0.43510687E+01</totfact>
</mgrwt>
<rwgt>
<wgt id='morphing_basis_vector_1'> +1.7894412e-04 </wgt>
<wgt id='morphing_basis_vector_2'> +1.2704868e-04 </wgt>
<wgt id='morphing_basis_vector_3'> +1.8404515e-04 </wgt>
<wgt id='morphing_basis_vector_4'> +1.0967341e-04 </wgt>
<wgt id='morphing_basis_vector_5'> +1.8730547e-04 </wgt>
</rwgt>
</event>
<event>
 4      1 +3.5234200e-07 1.54011000e+03 7.81860800e-03 8.29203800e-02
        2 -1    0    0  501    0 +0.0000000000e+00 +0.0000000000e+00 +1.0706567568e+03 1.0706567568e+03 0.0000000000e+00 0.0000e+00 1.0000e+00
       -2 -1    0    0    0  501 -0.0000000000e+00 -0.0000000000e+00 -5.5385126145e+02 5.5385126145e+02 0.0000000000e+00 0.0000e+00 -1.0000e+00
      -13  1    1    2    0    0 +1.5297284218e+02 -5.0442881271e+02 +8.5053512316e+02 1.0006293586e+03 0.0000000000e+00 0.0000e+00 1.0000e+00
       13  1    1    2    0    0 -1.5297284218e+02 +5.0442881271e+02 -3.3372962779e+02 6.2387865968e+02 0.0000000000e+00 0.0000e+00 -1.0000e+00
<mgrwt>
<rscale>  0 0.15401099E+04</rscale>
<asrwt>0</asrwt>
<pdfrwt beam="1">  1        2 0.16471642E+00 0.15401099E+04</pdfrwt>
<pdfrwt beam="2">  1       -2 0.85207887E-01 0.15401099E+04</pdfrwt>
<totfact> 0.33345107E+01</totfact>
</mgrwt>
<rwgt>
<wgt id='morphing_basis_vector_1'> +3.7155599e-04 </wgt>
<wgt id='morphing_basis_vector_2'> +4.4335833e-04 </wgt>
<wgt id='morphing_basis_vector_3'> +4.1129657e-04 </wgt>
<wgt id='morphing_basis_vector_4'> +3.9606764e-05 </wgt>
<wgt id='morphing_basis_vector_5'> +3.0838429e-04 </wgt>
</rwgt>
</event>
<event>
 4      1 +3.5234200e-07 1.39839300e+03 7.81860800e-03 8.37653200e-02
        2 -1    0    0  501    0 +0.0000000000e+00 +0.0000000000e+00 +1.6770891846e+03 1.6770891846e+03 0.0000000000e+00 0.0000e+00 -1.0000e+00
       -2 -1    0    0    0  501 -0.0000000000e+00 -0.0000000000e+00 -2.9150261638e+02 2.9150261638e+02 0.0000000000e+00 0.0000e+00 1.0000e+00
      -13  1    1    2    0    0 -1.4943590350e+02 +6.6572171653e+02 +4.7763546334e+02 8.3285780837e+02 0.0000000000e+00 0.0000e+00 1.0000e+00
       13  1    1    2    0    0 +1.4943590350e+02 -6.6572171653e+02 +9.0795110489e+02 1.1357339926e+03 0.0000000000e+00 0.0000e+00 -1.0000e+00
<mgrwt>
<rscale>  0 0.13983932E+04</rscale>
<asrwt>0</asrwt>
<pdfrwt beam="1">  1        2 0.25801372E+00 0.13983932E+04</pdfrwt>
<pdfrwt beam="2">  1       -2 0.44846557E-01 0.13983932E+04</pdfrwt>
<totfact> 0.57907035E+01</totfact>
</mgrwt>
<rwgt>
<wgt id='morphing_basis_vector_1'> +1.9995380e-04 </wgt>
<wgt id='morphing_basis_vector_2'> +1.3724514e-04 </wgt>
<wgt id='morphing_basis_vector_3'> +2.0622041e-04 </wgt>
<wgt id='morphing_basis_vector_4'> +1.2929294e-04 </wgt>
<wgt id='morphing_basis_vector_5'> +2.1422619e-04 </wgt>
</rwgt>
</event>
<event>
 4      1 +3.5234200e-07 1.52838100e+03 7.81860800e-03 8.29866700e-02
        2 -1    0    0  501    0 +0.0000000000e+00 +0.0000000000e+00 +2.9184426636e+02 2.9184426636e+02 0.0000000000e+00 0.0000e+00 1.0000e+00
       -2 -1    0    0    0  501 -0.0000000000e+00 -0.0000000000e+00 -2.0010243185e+03 2.0010243185e+03 0.0000000000e+00 0.0000e+00 -1.0000e+00
      -13  1    1    2    0    0 +4.2459290668e+02 -3.4823874072e+02 -1.6518666965e+03 1.7407506829e+03 0.0000000000e+00 0.0000e+00 -1.0000e+00
       13  1    1    2    0    0 -4.2459290668e+02 +3.4823874072e+02 -5.7313355616e+01 5.5211790197e+02 0.0000000000e+00 0.0000e+00 1.0000e+00
<mgrwt>
<rscale>  0 0.15283815E+04</rscale>
<asrwt>0</asrwt>
<pdfrwt beam="1">  1        2 0.44899120E-01 0.15283815E+04</pdfrwt>
<pdfrwt beam="2">  1       -2 0.30784988E+00 0.15283815E+04</pdfrwt>
<totfact> 0.28005276E+00</totfact>
</mgrwt>
<rwgt>
<wgt id='morphing_basis_vector_1'> +2.7754684e-04 </wgt>
<wgt id='morphing_basis_vector_2'> +1.8254477e-04 </wgt>
<wgt id='morphing_basis_vector_3'> +2.8873426e-04 </wgt>
<wgt id='morphing_basis_vector_4'> +1.9446890e-04 </wgt>
<wgt id='morphing_basis_vector_5'> +3.1044618e-04 </wgt>
</rwgt>
</event>
<event>
 4      1 +3.5234200e-07 1.42028700e+03 7.81860800e-03 8.36281600e-02
        2 -1    0    0  501    0 +0.0000000000e+00 +0.0000000000e+00 +2.7083559130e+03 2.7083559130e+03 0.0000000000e+00 0.0000e+00 -1.0000e+00
       -2 -1    0    0    0  501 -0.0000000000e+00 -0.0000000000e+00 -1.8620285803e+02 1.8620285803e+02 0.0000000000e+00 0.0000e+00 1.0000e+00
      -13  1    1    2    0    0 +6.1499404244e+02 +3.1942289648e+02 +9.4498810486e+02 1.1718580022e+03 0.0000000000e+00 0.0000e+00 1.0000e+00
       13  1    1    2    0    0 -6.1499404244e+02 -3.1942289648e+02 +1.5771649501e+03 1.7227007688e+03 0.0000000000e+00 0.0000e+00 -1.0000e+00
<mgrwt>
<rscale>  0 0.14202867E+04</rscale>
<asrwt>0</asrwt>
<pdfrwt beam="1">  1        2 0.41667011E+00 0.14202867E+04</pdfrwt>
<pdfrwt beam="2">  1       -2 0.28646596E-01 0.14202867E+04</pdfrwt>
<totfact> 0.33560993E+01</totfact>
</mgrwt>
<rwgt>
<wgt id='morphing_basis_vector_1'> +2.1225066e-04 </wgt>
<wgt id='morphing_basis_vector_2'> +1.4587378e-04 </wgt>
<wgt id='morphing_basis_vector_3'> +2.1941592e-04 </wgt>
<wgt id='morphing_basis_vector_4'> +1.3791107e-04 </wgt>
<wgt id='morphing_basis_vector_5'> +2.2854539e-04 </wgt>
</rwgt>
</event>
<event>
 4      1 +3.5234200e-07 1.38434300e+03 7.81860800e-03 8.38547200e-02
        2 -1    0    0  501    0 +0.0000000000e+00 +0.0000000000e+00 +1.7945438543e+03 1.7945438543e+03 0.0000000000e+00 0.0000e+00 -1.0000e+00
       -2 -1    0    0    0  501 -0.0000000000e+00 -0.0000000000e+00 -2.6697672523e+02 2.6697672523e+02 0.0000000000e+00 0.0000e+00 1.0000e+00
      -13  1    1    2    0    0 -6.4184801876e+02 -1.0703509981e+02 +1.1151644615e+03 1.2911301902e+03 0.0000000000e+00 0.0000e+00 1.0000e+00
       13  1    1    2    0    0 +6.4184801876e+02 +1.0703509981e+02 +4.1240266753e+02 7.7039038933e+02 0.0000000000e+00 0.0000e+00 -1.0000e+00
<mgrwt>
<rscale>  0 0.13843431E+04</rscale>
<asrwt>0</asrwt>
<pdfrwt beam="1">  1        2 0.27608366E+00 0.13843431E+04</pdfrwt>
<pdfrwt beam="2">  1       -2 0.41073343E-01 0.13843431E+04</pdfrwt>
<totfact> 0.58942778E+01</totfact>
</mgrwt>
<rwgt>
<wgt id='morphing_basis_vector_1'> +2.1107445e-04 </wgt>
<wgt id='morphing_basis_vector_2'> +1.8786179e-04 </wgt>
<wgt id='morphing_basis_vector_3'> +2.2153038e-04 </wgt>
<wgt id='morphing_basis_vector_4'> +8.9933698e-05 </wgt>
<wgt id='morphing_basis_vector_5'> +2.0293430e-04 </wgt>
</rwgt>
</event>
<event>
 4      1 +3.5234200e-07 1.30257000e+03 7.81860800e-03 8.43980100e-02
        2 -1    0    0  501    0 +0.0000000000e+00 +0.0000000000e+00 +1.3645897527e+03 1.3645897527e+03 0.0000000000e+00 0.0000e+00 1.0000e+00
       -2 -1    0    0    0  501 -0.0000000000e+00 -0.0000000000e+00 -3.1084204467e+02 3.1084204467e+02 0.0000000000e+00 0.0000e+00 -1.0000e+00
      -13  1    1    2    0    0 +3.4954786042e+02 +5.1362178265e+02 +2.7554144766e+02 6.7964265001e+02 0.0000000000e+00 0.0000e+00 -1.0000e+00
       13  1    1    2    0    0 -3.4954786042e+02 -5.1362178265e+02 +7.7820626040e+02 9.9578914739e+02 0.0000000000e+00 0.0000e+00 1.0000e+00
<mgrwt>
<rscale>  0 0.13025696E+04</rscale>
<asrwt>0</asrwt>
<pdfrwt beam="1">  1        2 0.20993688E+00 0.13025696E+04</pdfrwt>
<pdfrwt beam="2">  1       -2 0.47821854E-01 0.13025696E+04</pdfrwt>
<totfact> 0.77084012E+01</totfact>
</mgrwt>
<rwgt>
<wgt id='morphing_basis_vector_1'> +1.5170863e-04 </wgt>
<wgt id='morphing_basis_vector_2'> +1.0192523e-04 </wgt>
<wgt id='morphing_basis_vector_3'> +1.5453776e-04 </wgt>
<wgt id='morphing_basis_vector_4'> +9.7368164e-05 </wgt>
<wgt id='morphing_basis_vector_5'> +1.5930018e-04 </wgt>
</rwgt>
</event>
<event>
 4      1 +3.5234200e-07 1.29355800e+03 7.81860800e-03 8.44604200e-02
        2 -1    0    0  501    0 +0.0000000000e+00 +0.0000000000e+00 +1.6944733535e+03 1.6944733535e+03 0.0000000000e+00 0.0000e+00 1.0000e+00
       -2 -1    0    0    0  501 -0.0000000000e+00 -0.0000000000e+00 -2.4687486955e+02 2.4687486955e+02 0.0000000000e+00 0.0000e+00 -1.0000e+00
      -13  1    1    2    0    0 +2.8914263005e+02 -5.3254615444e+02 +3.8449627544e+02 7.1766722995e+02 0.0000000000e+00 0.0000e+00 -1.0000e+00
       13  1    1    2    0    0 -2.8914263005e+02 +5.3254615444e+02 +1.0631022085e+03 1.2236809931e+03 0.0000000000e+00 0.0000e+00 1.0000e+00
<mgrwt>
<rscale>  0 0.12935577E+04</rscale>
<asrwt>0</asrwt>
<pdfrwt beam="1">  1        2 0.26068820E+00 0.12935577E+04</pdfrwt>
<pdfrwt beam="2">  1       -2 0.37980750E-01 0.12935577E+04</pdfrwt>
<totfact> 0.78071379E+01</totfact>
</mgrwt>
<rwgt>
<wgt id='morphing_basis_vector_1'> +1.4742520e-04 </wgt>
<wgt id='morphing_basis_vector_2'> +9.8240452e-05 </wgt>
<wgt id='morphing_basis_vector_3'> +1.4993729e-04 </wgt>
<wgt id='morphing_basis_vector_4'> +9.5146044e-05 </wgt>
<wgt id='morphing_basis_vector_5'> +1.5476606e-04 </wgt>
</rwgt>
</event>
<event>
 4      1 +3.5234200e-07 1.29367600e+03 7.81860800e-03 8.44596000e-02
        2 -1    0    0  501    0 +0.0000000000e+00 +0.0000000000e+00 +1.4377960916e+03 1.4377960916e+03 0.0000000000e+00 0.0000e+00 1.0000e+00
       -2 -1    0    0    0  501 -0.0000000000e+00 -0.0000000000e+00 -2.9100060339e+02 2.9100060339e+02 0.0000000000e+00 0.0000e+00 -1.0000e+00
      -13  1    1    2    0    0 +3.1792715201e+02 +4.9295572492e+01 +1.3232902466e+03 1.3618387585e+03 0.0000000000e+00 0.0000e+00 1.0000e+00
       13  1    1    2    0    0 -3.1792715201e+02 -4.9295572492e+01 -1.7649475835e+02 3.6695793652e+02 0.0000000000e+00 0.0000e+00 -1.0000e+00
<mgrwt>
<rscale>  0 0.12936762E+04</rscale>
<asrwt>0</asrwt>
<pdfrwt beam="1">  1        2 0.22119939E+00 0.12936762E+04</pdfrwt>
<pdfrwt beam="2">  1       -2 0.44769325E-01 0.12936762E+04</pdfrwt>
<totfact> 0.79652859E+01</totfact>
</mgrwt>
<rwgt>
<wgt id='morphing_basis_vector_1'> +1.9761125e-04 </wgt>
<wgt id='morphing_basis_vector_2'> +2.4844696e-04 </wgt>
<wgt id='morphing_basis_vector_3'> +2.1010609e-04 </wgt>
<wgt id='morphing_basis_vector_4'> +6.3047676e-06 </wgt>
<wgt id='morphing_basis_vector_5'> +1.4857527e-04 </wgt>
</rwgt>
</event>
<event>
 4      1 +3.5234200e-07 1.37600600e+03 7.81860800e-03 8.39083000e-02
        2 -1    0    0  501    0 +0.0000000000e+00 +0.0000000000e+00 +2.2711033698e+03 2.2711033698e+03 0.0000000000e+00 0.0000e+00 -1.0000e+00
       -2 -1    0    0    0  501 -0.0000000000e+00 -0.0000000000e+00 -2.0842205583e+02 2.0842205583e+02 0.0000000000e+00 0.0000e+00 1.0000e+00
      -13  1    1    2    0    0 +1.6474945687e+02 -4.1179180353e+02 +8.3576236694e+01 4.5133120912e+02 0.0000000000e+00 0.0000e+00 1.0000e+00
       13  1    1    2    0    0 -1.6474945687e+02 +4.1179180353e+02 +1.9791050773e+03 2.0281942165e+03 0.0000000000e+00 0.0000e+00 -1.0000e+00
<mgrwt>
<rscale>  0 0.13760059E+04</rscale>
<asrwt>0</asrwt>
<pdfrwt beam="1">  1        2 0.34940050E+00 0.13760059E+04</pdfrwt>
<pdfrwt beam="2">  1       -2 0.32064933E-01 0.13760059E+04</pdfrwt>
<totfact> 0.50083491E+01</totfact>
</mgrwt>
<rwgt>
<wgt id='morphing_basis_vector_1'> +1.8515431e-04 </wgt>
<wgt id='morphing_basis_vector_2'> +1.2047747e-04 </wgt>
<wgt id='morphing_basis_vector_3'> +1.8986591e-04 </wgt>
<wgt id='morphing_basis_vector_4'> +1.2596849e-04 </wgt>
<wgt id='morphing_basis_vector_5'> +2.0064713e-04 </wgt>
</rwgt>
</event>
<event>
 4      1 +3.5234200e-07 1.30710600e+03 7.81860800e-03 8.43667900e-02
        2 -1    0    0  501    0 +0.0000000000e+00 +0.0000000000e+00 +8.1867751672e+02 8.1867751672e+02 0.0000000000e+00 0.0000e+00 -1.0000e+00
       -2 -1    0    0    0  501 -0.0000000000e+00 -0.0000000000e+00 -5.2173369131e+02 5.2173369131e+02 0.0000000000e+00 0.0000e+00 1.0000e+00
      -13  1    1    2    0    0 +1.2595046122e+02 -4.3955953623e+02 -3.3039049259e+02 5.6412231135e+02 0.0000000000e+00 0.0000e+00 1.0000e+00
       13  1    1    2    0    0 -1.2595046122e+02 +4.3955953623e+02 +6.2733431800e+02 7.7628889668e+02 0.0000000000e+00 0.0000e+00 -1.0000e+00
<mgrwt>
<rscale>  0 0.13071062E+04</rscale>
<asrwt>0</asrwt>
<pdfrwt beam="1">  1        2 0.12595039E+00 0.13071062E+04</pdfrwt>
<pdfrwt beam="2">  1       -2 0.80266722E-01 0.13071062E+04</pdfrwt>
<totfact> 0.56526717E+01</totfact>
</mgrwt>
<rwgt>
<wgt id='morphing_basis_vector_1'> +1.5218843e-04 </wgt>
<wgt id='morphing_basis_vector_2'> +9.8690352e-05 </wgt>
<wgt id='morphing_basis_vector_3'> +1.5482701e-04 </wgt>
<wgt id='morphing_basis_vector_4'> +1.0154685e-04 </wgt>
<wgt id='morphing_basis_vector_5'> +1.6183453e-04 </wgt>
</rwgt>
</event>
<event>
 4      1 +3.5234200e-07 1.47495700e+03 7.81860800e-03 8.32965900e-02
        2 -1    0    0  501    0 +0.0000000000e+00 +0.0000000000e+00 +1.7584734521e+03 1.7584734521e+03 0.0000000000e+00 0.0000e+00 1.0000e+00
       -2 -1    0    0    0  501 -0.0000000000e+00 -0.0000000000e+00 -3.0928797858e+02 3.0928797858e+02 0.0000000000e+00 0.0000e+00 -1.0000e+00
      -13  1    1    2    0    0 -6.8444507926e+02 -6.8200446387e+01 +3.5167778215e+02 7.7252419371e+02 0.0000000000e+00 0.0000e+00 -1.0000e+00
       13  1    1    2    0    0 +6.8444507926e+02 +6.8200446387e+01 +1.0975076913e+03 1.2952372369e+03 0.0000000000e+00 0.0000e+00 1.0000e+00
<mgrwt>
<rscale>  0 0.14749572E+04</rscale>
<asrwt>0</asrwt>
<pdfrwt beam="1">  1        2 0.27053437E+00 0.14749572E+04</pdfrwt>
<pdfrwt beam="2">  1       -2 0.47582767E-01 0.14749572E+04</pdfrwt>
<totfact> 0.46260843E+01</totfact>
</mgrwt>
<rwgt>
<wgt id='morphing_basis_vector_1'> +2.4372618e-04 </wgt>
<wgt id='morphing_basis_vector_2'> +1.6401335e-04 </wgt>
<wgt id='morphing_basis_vector_3'> +2.5287354e-04 </wgt>
<wgt id='morphing_basis_vector_4'> +1.6452364e-04 </wgt>
<wgt id='morphing_basis_vector_5'> +2.6762964e-04 </wgt>
</rwgt>
</event>
<event>
 4      1 +3.5234200e-07 1.35412800e+03 7.81860800e-03 8.40507900e-02
        2 -1    0    0  501    0 +0.0000000000e+00 +0.0000000000e+00 +1.5007679854e+03 1.5007679854e+03 0.0000000000e+00 0.0000e+00 1.0000e+00
       -2 -1    0    0    0  501 -0.0000000000e+00 -0.0000000000e+00 -3.0545399121e+02 3.0545399121e+02 0.0000000000e+00 0.0000e+00 -1.0000e+00
      -13  1    1    2    0    0 -2.6593978803e+02 +1.2917846391e+02 -2.1480124549e+02 3.6544578457e+02 0.0000000000e+00 0.0000e+00 -1.0000e+00
       13  1    1    2    0    0 +2.6593978803e+02 -1.2917846391e+02 +1.4101152397e+03 1.4407761920e+03 0.0000000000e+00 0.0000e+00 1.0000e+00
<mgrwt>
<rscale>  0 0.13541279E+04</rscale>
<asrwt>0</asrwt>
<pdfrwt beam="1">  1        2 0.23088738E+00 0.13541279E+04</pdfrwt>
<pdfrwt beam="2">  1       -2 0.46992923E-01 0.13541279E+04</pdfrwt>
<totfact> 0.66580057E+01</totfact>
</mgrwt>
<rwgt>
<wgt id='morphing_basis_vector_1'> +1.7402430e-04 </wgt>
<wgt id='morphing_basis_vector_2'> +1.1282406e-04 </wgt>
<wgt id='morphing_basis_vector_3'> +1.7799878e-04 </wgt>
<wgt id='morphing_basis_vector_4'> +1.1801647e-04 </wgt>
<wgt id='morphing_basis_vector_5'> +1.8766725e-04 </wgt>
</rwgt>
</event>
<event>
 4      1 +3.5234200e-07 1.43029600e+03 7.81860800e-03 8.35663100e-02
        2 -1    0    0  501    0 +0.0000000000e+00 +0.0000000000e+00 +1.0222704509e+03 1.0222704509e+03 0.0000000000e+00 0.0000e+00 -1.0000e+00
       -2 -1    0    0    0  501 -0.0000000000e+00 -0.0000000000e+00 -5.0029517683e+02 5.0029517683e+02 0.0000000000e+00 0.0000e+00 1.0000e+00
      -13  1    1    2    0    0 +2.6739908958e+02 -6.1268842159e+02 -9.4642502823e+00 6.6856484136e+02 0.0000000000e+00 0.0000e+00 1.0000e+00
       13  1    1    2    0    0 -2.6739908958e+02 +6.1268842159e+02 +5.3143952434e+02 8.5400078636e+02 0.0000000000e+00 0.0000e+00 -1.0000e+00
<mgrwt>
<rscale>  0 0.14302964E+04</rscale>
<asrwt>0</asrwt>
<pdfrwt beam="1">  1        2 0.15727238E+00 0.14302964E+04</pdfrwt>
<pdfrwt beam="2">  1       -2 0.76968489E-01 0.14302964E+04</pdfrwt>
<totfact> 0.45379892E+01</totfact>
</mgrwt>
<rwgt>
<wgt id='morphing_basis_vector_1'> +2.1656445e-04 </wgt>
<wgt id='morphing_basis_vector_2'> +1.4548666e-04 </wgt>
<wgt id='morphing_basis_vector_3'> +2.2374561e-04 </wgt>
<wgt id='morphing_basis_vector_4'> +1.4474040e-04 </wgt>
<wgt id='morphing_basis_vector_5'> +2.3552379e-04 </wgt>
</rwgt>
</event>
<event>
 4      1 +3.5234200e-07 1.34099000e+03 7.81860800e-03 8.41377200e-02
        2 -1    0    0  501    0 +0.0000000000e+00 +0.0000000000e+00 +3.1123118510e+03 3.1123118510e+03 0.0000000000e+00 0.0000e+00 -1.0000e+00
       -2 -1    0    0    0  501 -0.0000000000e+00 -0.0000000000e+00 -1.4444683012e+02 1.4444683012e+02 0.0000000000e+00 0.0000e+00 1.0000e+00
      -13  1    1    2    0    0 +4.8280798819e+02 -3.5021591602e+02 +7.4008843999e+02 9.5051861649e+02 0.0000000000e+00 0.0000e+00 1.0000e+00
       13  1    1    2    0    0 -4.8280798819e+02 +3.5021591602e+02 +2.2277765809e+03 2.3062400646e+03 0.0000000000e+00 0.0000e+00 -1.0000e+00
<mgrwt>
<rscale>  0 0.13409901E+04</rscale>
<asrwt>0</asrwt>
<pdfrwt beam="1">  1        2 0.47881716E+00 0.13409901E+04</pdfrwt>
<pdfrwt beam="2">  1       -2 0.22222592E-01 0.13409901E+04</pdfrwt>
<totfact> 0.29033541E+01</totfact>
</mgrwt>
<rwgt>
<wgt id='morphing_basis_vector_1'> +1.6855579e-04 </wgt>
<wgt id='morphing_basis_vector_2'> +1.1129682e-04 </wgt>
<wgt id='morphing_basis_vector_3'> +1.7233346e-04 </wgt>
<wgt id='morphing_basis_vector_4'> +1.1168692e-04 </wgt>
<wgt id='morphing_basis_vector_5'> +1.8005350e-04 </wgt>
</rwgt>
</event>
<event>
 4      1 +3.5234200e-07 1.40119300e+03 7.81860800e-03 8.37476400e-02
        2 -1    0    0  501    0 +0.0000000000e+00 +0.0000000000e+00 +2.1441414391e+03 2.1441414391e+03 0.0000000000e+00 0.0000e+00 -1.0000e+00
       -2 -1    0    0    0  501 -0.0000000000e+00 -0.0000000000e+00 -2.2891929910e+02 2.2891929910e+02 0.0000000000e+00 0.0000e+00 1.0000e+00
      -13  1    1    2    0    0 -1.9316150323e+02 +6.7342294988e+02 +9.6616662594e+02 1.1934352872e+03 0.0000000000e+00 0.0000e+00 1.0000e+00
       13  1    1    2    0    0 +1.9316150323e+02 -6.7342294988e+02 +9.4905551402e+02 1.1796254509e+03 0.0000000000e+00 0.0000e+00 -1.0000e+00
<mgrwt>
<rscale>  0 0.14011929E+04</rscale>
<asrwt>0</asrwt>
<pdfrwt beam="1">  1        2 0.32986790E+00 0.14011929E+04</pdfrwt>
<pdfrwt beam="2">  1       -2 0.35218355E-01 0.14011929E+04</pdfrwt>
<totfact> 0.49843415E+01</totfact>
</mgrwt>
<rwgt>
<wgt id='morphing_basis_vector_1'> +2.0573945e-04 </wgt>
<wgt id='morphing_basis_vector_2'> +1.5100459e-04 </wgt>
<wgt id='morphing_basis_vector_3'> +2.1322972e-04 </wgt>
<wgt id='morphing_basis_vector_4'> +1.2262229e-04 </wgt>
<wgt id='morphing_basis_vector_5'> +2.1545687e-04 </wgt>
</rwgt>
</event>
<event>
 4      1 +3.5234200e-07 1.41878000e+03 7.81860800e-03 8.36375200e-02
        2 -1    0    0  501    0 +0.0000000000e+00 +0.0000000000e+00 +5.5702271993e+02 5.5702271993e+02 0.0000000000e+00 0.0000e+00 -1.0000e+00
       -2 -1    0    0    0  501 -0.0000000000e+00 -0.0000000000e+00 -9.0343514748e+02 9.0343514748e+02 0.0000000000e+00 0.0000e+00 1.0000e+00
      -13  1    1    2    0    0 +1.0929196934e+01 +6.6099634700e+02 -4.3805467873e+02 7.9304950644e+02 0.0000000000e+00 0.0000e+00 1.0000e+00
       13  1    1    2    0    0 -1.0929196934e+01 -6.6099634700e+02 +9.1642251188e+01 6.6740836098e+02 0.0000000000e+00 0.0000e+00 -1.0000e+00
<mgrwt>
<rscale>  0 0.14187796E+04</rscale>
<asrwt>0</asrwt>
<pdfrwt beam="1">  1        2 0.85695805E-01 0.14187796E+04</pdfrwt>
<pdfrwt beam="2">  1       -2 0.13899002E+00 0.14187796E+04</pdfrwt>
<totfact> 0.22924578E+01</totfact>
</mgrwt>
<rwgt>
<wgt id='morphing_basis_vector_1'> +2.0987697e-04 </wgt>
<wgt id='morphing_basis_vector_2'> +1.4076046e-04 </wgt>
<wgt id='morphing_basis_vector_3'> +2.1656944e-04 </wgt>
<wgt id='morphing_basis_vector_4'> +1.4007195e-04 </wgt>
<wgt id='morphing_basis_vector_5'> +2.2773927e-04 </wgt>
</rwgt>
</event>
<event>
 4      1 +3.5234200e-07 1.29132500e+03 7.81860800e-03 8.44759700e-02
        2 -1    0    0  501    0 +0.0000000000e+00 +0.0000000000e+00 +1.0279043093e+03 1.0279043093e+03 0.0000000000e+00 0.0000e+00 1.0000e+00
       -2 -1    0    0    0  501 -0.0000000000e+00 -0.0000000000e+00 -4.0556292972e+02 4.0556292972e+02 0.0000000000e+00 0.0000e+00 -1.0000e+00
      -13  1    1    2    0    0 +5.8653644466e+02 -2.4742103697e+02 +1.9141776680e+02 6.6474275618e+02 0.0000000000e+00 0.0000e+00 -1.0000e+00
       13  1    1    2    0    0 -5.8653644466e+02 +2.4742103697e+02 +4.3092361277e+02 7.6872448283e+02 0.0000000000e+00 0.0000e+00 1.0000e+00
<mgrwt>
<rscale>  0 0.12913247E+04</rscale>
<asrwt>0</asrwt>
<pdfrwt beam="1">  1        2 0.15813912E+00 0.12913247E+04</pdfrwt>
<pdfrwt beam="2">  1       -2 0.62394297E-01 0.12913247E+04</pdfrwt>
<totfact> 0.71335028E+01</totfact>
</mgrwt>
<rwgt>
<wgt id='morphing_basis_vector_1'> +1.4794808e-04 </wgt>
<wgt id='morphing_basis_vector_2'> +1.0204479e-04 </wgt>
<wgt id='morphing_basis_vector_3'> +1.5069388e-04 </wgt>
<wgt id='morphing_basis_vector_4'> +9.1819530e-05 </wgt>
<wgt id='morphing_basis_vector_5'> +1.5346199e-04 </wgt>
</rwgt>
</event>
<event>
 4      1 +3.5234200e-07 1.30487700e+03 7.81860800e-03 8.43821100e-02
        2 -1    0    0  501    0 +0.0000000000e+00 +0.0000000000e+00 +2.0697587916e+03 2.0697587916e+03 0.0000000000e+00 0.0000e+00 -1.0000e+00
       -2 -1    0    0    0  501 -0.0000000000e+00 -0.0000000000e+00 -2.0566462218e+02 2.0566462218e+02 0.0000000000e+00 0.0000e+00 1.0000e+00
      -13  1    1    2    0    0 -3.8039501353e+01 +5.7320709747e+02 +1.4713888606e+03 1.5795564438e+03 0.0000000000e+00 0.0000e+00 1.0000e+00
       13  1    1    2    0    0 +3.8039501353e+01 -5.7320709747e+02 +3.9270530886e+02 6.9586696994e+02 0.0000000000e+00 0.0000e+00 -1.0000e+00
<mgrwt>
<rscale>  0 0.13048773E+04</rscale>
<asrwt>0</asrwt>
<pdfrwt beam="1">  1        2 0.31842441E+00 0.13048773E+04</pdfrwt>
<pdfrwt beam="2">  1       -2 0.31640713E-01 0.13048773E+04</pdfrwt>
<totfact> 0.67156877E+01</totfact>
</mgrwt>
<rwgt>
<wgt id='morphing_basis_vector_1'> +1.7669286e-04 </wgt>
<wgt id='morphing_basis_vector_2'> +1.7436833e-04 </wgt>
<wgt id='morphing_basis_vector_3'> +1.8452960e-04 </wgt>
<wgt id='morphing_basis_vector_4'> +5.5476447e-05 </wgt>
<wgt id='morphing_basis_vector_5'> +1.5747928e-04 </wgt>
</rwgt>
</event>
<event>
 4      1 +3.5234200e-07 1.50430000e+03 7.81860800e-03 8.31247200e-02
        2 -1    0    0  501    0 +0.0000000000e+00 +0.0000000000e+00 +5.5586803037e+02 5.5586803037e+02 0.0000000000e+00 0.0000e+00 -1.0000e+00
       -2 -1    0    0    0  501 -0.0000000000e+00 -0.0000000000e+00 -1.0177407729e+03 1.0177407729e+03 0.0000000000e+00 0.0000e+00 1.0000e+00
      -13  1    1    2    0    0 +3.6445074366e+02 -6.3863636431e+02 -6.5376194476e+01 7.3821053717e+02 0.0000000000e+00 0.0000e+00 1.0000e+00
       13  1    1    2    0    0 -3.6445074366e+02 +6.3863636431e+02 -3.9649654804e+02 8.3539826609e+02 0.0000000000e+00 0.0000e+00 -1.0000e+00
<mgrwt>
<rscale>  0 0.15042999E+04</rscale>
<asrwt>0</asrwt>
<pdfrwt beam="1">  1        2 0.85518159E-01 0.15042999E+04</pdfrwt>
<pdfrwt beam="2">  1       -2 0.15657550E+00 0.15042999E+04</pdfrwt>
<totfact> 0.16274254E+01</totfact>
</mgrwt>
<rwgt>
<wgt id='morphing_basis_vector_1'> +2.8035710e-04 </wgt>
<wgt id='morphing_basis_vector_2'> +2.2906481e-04 </wgt>
<wgt id='morphing_basis_vector_3'> +2.9635106e-04 </wgt>
<wgt id='morphing_basis_vector_4'> +1.4602458e-04 </wgt>
<wgt id='morphing_basis_vector_5'> +2.8800125e-04 </wgt>
</rwgt>
</event>
<event>
 4      1 +3.5234200e-07 1.34010200e+03 7.81860800e-03 8.41436300e-02
        2 -1    0    0  501    0 +0.0000000000e+00 +0.0000000000e+00 +1.4584342160e+03 1.4584342160e+03 0.0000000000e+00 0.0000e+00 -1.0000e+00
       -2 -1    0    0    0  501 -0.0000000000e+00 -0.0000000000e+00 -3.0784276680e+02 3.0784276680e+02 0.0000000000e+00 0.0000e+00 1.0000e+00
      -13  1    1    2    0    0 -4.3579285759e+02 -4.8862761864e+02 +7.6306597333e+02 1.0054561373e+03 0.0000000000e+00 0.0000e+00 -1.0000e+00
       13  1    1    2    0    0 +4.3579285759e+02 +4.8862761864e+02 +3.8752547583e+02 7.6082084543e+02 0.0000000000e+00 0.0000e+00 1.0000e+00
<mgrwt>
<rscale>  0 0.13401021E+04</rscale>
<asrwt>0</asrwt>
<pdfrwt beam="1">  1        2 0.22437449E+00 0.13401021E+04</pdfrwt>
<pdfrwt beam="2">  1       -2 0.47360427E-01 0.13401021E+04</pdfrwt>
<totfact> 0.69337413E+01</totfact>
</mgrwt>
<rwgt>
<wgt id='morphing_basis_vector_1'> +1.7986925e-04 </wgt>
<wgt id='morphing_basis_vector_2'> +1.4613009e-04 </wgt>
<wgt id='morphing_basis_vector_3'> +1.8629487e-04 </wgt>
<wgt id='morphing_basis_vector_4'> +9.0279797e-05 </wgt>
<wgt id='morphing_basis_vector_5'> +1.7804961e-04 </wgt>
</rwgt>
</event>
<event>
 4      1 +3.5234200e-07 1.47362300e+03 7.81860800e-03 8.33045100e-02
        2 -1    0    0  501    0 +0.0000000000e+00 +0.0000000000e+00 +1.0628899802e+03 1.0628899802e+03 0.0000000000e+00 0.0000e+00 1.0000e+00
       -2 -1    0    0    0  501 -0.0000000000e+00 -0.0000000000e+00 -5.1076902191e+02 5.1076902191e+02 0.0000000000e+00 0.0000e+00 -1.0000e+00
      -13  1    1    2    0    0 +9.5829024538e+01 -2.1849971139e+02 -4.6837510422e+02 5.2564300060e+02 0.0000000000e+00 0.0000e+00 -1.0000e+00
       13  1    1    2    0    0 -9.5829024538e+01 +2.1849971139e+02 +1.0204960625e+03 1.0480160015e+03 0.0000000000e+00 0.0000e+00 1.0000e+00
<mgrwt>
<rscale>  0 0.14736231E+04</rscale>
<asrwt>0</asrwt>
<pdfrwt beam="1">  1        2 0.16352153E+00 0.14736231E+04</pdfrwt>
<pdfrwt beam="2">  1       -2 0.78579850E-01 0.14736231E+04</pdfrwt>
<totfact> 0.40763511E+01</totfact>
</mgrwt>
<rwgt>
<wgt id='morphing_basis_vector_1'> +2.4079343e-04 </wgt>
<wgt id='morphing_basis_vector_2'> +1.5721475e-04 </wgt>
<wgt id='morphing_basis_vector_3'> +2.4925813e-04 </wgt>
<wgt id='morphing_basis_vector_4'> +1.6777623e-04 </wgt>
<wgt id='morphing_basis_vector_5'> +2.6691173e-04 </wgt>
</rwgt>
</event>
<event>
 4      1 +3.5234200e-07 1.46083300e+03 7.81860800e-03 8.33808100e-02
        2 -1    0    0  501    0 +0.0000000000e+00 +0.0000000000e+00 +9.0406576254e+02 9.0406576254e+02 0.0000000000e+00 0.0000e+00 -1.0000e+00
       -2 -1    0    0    0  501 -0.0000000000e+00 -0.0000000000e+00 -5.9012090300e+02 5.9012090300e+02 0.0000000000e+00 0.0000e+00 1.0000e+00
      -13  1    1    2    0    0 -1.4972964340e+02 +4.5829991514e+02 -4.0423563197e+02 6.2917741892e+02 0.0000000000e+00 0.0000e+00 1.0000e+00
       13  1    1    2    0    0 +1.4972964340e+02 -4.5829991514e+02 +7.1818049152e+02 8.6500924661e+02 0.0000000000e+00 0.0000e+00 -1.0000e+00
<mgrwt>
<rscale>  0 0.14608328E+04</rscale>
<asrwt>0</asrwt>
<pdfrwt beam="1">  1        2 0.13908704E+00 0.14608328E+04</pdfrwt>
<pdfrwt beam="2">  1       -2 0.90787831E-01 0.14608328E+04</pdfrwt>
<totfact> 0.36846863E+01</totfact>
</mgrwt>
<rwgt>
<wgt id='morphing_basis_vector_1'> +2.3302290e-04 </wgt>
<wgt id='morphing_basis_vector_2'> +1.5245727e-04 </wgt>
<wgt id='morphing_basis_vector_3'> +2.4098359e-04 </wgt>
<wgt id='morphing_basis_vector_4'> +1.6148460e-04 </wgt>
<wgt id='morphing_basis_vector_5'> +2.5739785e-04 </wgt>
</rwgt>
</event>
<event>
 4      1 +3.5234200e-07 1.33513700e+03 7.81860800e-03 8.41767800e-02
        2 -1    0    0  501    0 +0.0000000000e+00 +0.0000000000e+00 +9.9601340037e+02 9.9601340037e+02 0.0000000000e+00 0.0000e+00 -1.0000e+00
       -2 -1    0    0    0  501 -0.0000000000e+00 -0.0000000000e+00 -4.4743157734e+02 4.4743157734e+02 0.0000000000e+00 0.0000e+00 1.0000e+00
      -13  1    1    2    0    0 -3.9098687089e+02 +3.5970187926e+02 -1.6271699036e+02 5.5563746643e+02 0.0000000000e+00 0.0000e+00 1.0000e+00
       13  1    1    2    0    0 +3.9098687089e+02 -3.5970187926e+02 +7.1129881339e+02 8.8780751128e+02 0.0000000000e+00 0.0000e+00 -1.0000e+00
<mgrwt>
<rscale>  0 0.13351372E+04</rscale>
<asrwt>0</asrwt>
<pdfrwt beam="1">  1        2 0.15323283E+00 0.13351372E+04</pdfrwt>
<pdfrwt beam="2">  1       -2 0.68835627E-01 0.13351372E+04</pdfrwt>
<totfact> 0.60534283E+01</totfact>
</mgrwt>
<rwgt>
<wgt id='morphing_basis_vector_1'> +1.6525008e-04 </wgt>
<wgt id='morphing_basis_vector_2'> +1.0788126e-04 </wgt>
<wgt id='morphing_basis_vector_3'> +1.6873226e-04 </wgt>
<wgt id='morphing_basis_vector_4'> +1.1058077e-04 </wgt>
<wgt id='morphing_basis_vector_5'> +1.7685308e-04 </wgt>
</rwgt>
</event>
<event>
 4      1 +3.5234200e-07 1.48038100e+03 7.81860800e-03 8.32645100e-02
        2 -1    0    0  501    0 +0.0000000000e+00 +0.0000000000e+00 +8.9883476963e+02 8.9883476963e+02 0.0000000000e+00 0.0000e+00 -1.0000e+00
       -2 -1    0    0    0  501 -0.0000000000e+00 -0.0000000000e+00 -6.0954704087e+02 6.0954704087e+02 0.0000000000e+00 0.0000e+00 1.0000e+00
      -13  1    1    2    0    0 -1.5500867931e+02 -5.8906364078e+02 -2.8385591648e+02 6.7201030116e+02 0.0000000000e+00 0.0000e+00 1.0000e+00
       13  1    1    2    0    0 +1.5500867931e+02 +5.8906364078e+02 +5.7314364525e+02 8.3637150934e+02 0.0000000000e+00 0.0000e+00 -1.0000e+00
<mgrwt>
<rscale>  0 0.14803811E+04</rscale>
<asrwt>0</asrwt>
<pdfrwt beam="1">  1        2 0.13828227E+00 0.14803811E+04</pdfrwt>
<pdfrwt beam="2">  1       -2 0.93776468E-01 0.14803811E+04</pdfrwt>
<totfact> 0.34365637E+01</totfact>
</mgrwt>
<rwgt>
<wgt id='morphing_basis_vector_1'> +2.4581292e-04 </wgt>
<wgt id='morphing_basis_vector_2'> +1.6226360e-04 </wgt>
<wgt id='morphing_basis_vector_3'> +2.5480078e-04 </wgt>
<wgt id='morphing_basis_vector_4'> +1.6962089e-04 </wgt>
<wgt id='morphing_basis_vector_5'> +2.7192788e-04 </wgt>
</rwgt>
</event>
<event>
 4      1 +3.5234200e-07 1.54162200e+03 7.81860800e-03 8.29118800e-02
        2 -1    0    0  501    0 +0.0000000000e+00 +0.0000000000e+00 +1.3886132442e+03 1.3886132442e+03 0.0000000000e+00 0.0000e+00 -1.0000e+00
       -2 -1    0    0    0  501 -0.0000000000e+00 -0.0000000000e+00 -4.2787265004e+02 4.2787265004e+02 0.0000000000e+00 0.0000e+00 1.0000e+00
      -13  1    1    2    0    0 -3.2255741249e+02 -6.6671325885e+02 +7.3198468291e+02 1.0413219626e+03 0.0000000000e+00 0.0000e+00 1.0000e+00
       13  1    1    2    0    0 +3.2255741249e+02 +6.6671325885e+02 +2.2875591124e+02 7.7516393157e+02 0.0000000000e+00 0.0000e+00 -1.0000e+00
<mgrwt>
<rscale>  0 0.15416220E+04</rscale>
<asrwt>0</asrwt>
<pdfrwt beam="1">  1        2 0.21363281E+00 0.15416220E+04</pdfrwt>
<pdfrwt beam="2">  1       -2 0.65826562E-01 0.15416220E+04</pdfrwt>
<totfact> 0.38441213E+01</totfact>
</mgrwt>
<rwgt>
<wgt id='morphing_basis_vector_1'> +3.1348961e-04 </wgt>
<wgt id='morphing_basis_vector_2'> +2.6788880e-04 </wgt>
<wgt id='morphing_basis_vector_3'> +3.3403913e-04 </wgt>
<wgt id='morphing_basis_vector_4'> +1.5162466e-04 </wgt>
<wgt id='morphing_basis_vector_5'> +3.1799867e-04 </wgt>
</rwgt>
</event>
<event>
 4      1 +3.5234200e-07 1.39053700e+03 7.81860800e-03 8.38151800e-02
        2 -1    0    0  501    0 +0.0000000000e+00 +0.0000000000e+00 +4.2305054481e+02 4.2305054481e+02 0.0000000000e+00 0.0000e+00 -1.0000e+00
       -2 -1    0    0    0  501 -0.0000000000e+00 -0.0000000000e+00 -1.1426482766e+03 1.1426482766e+03 0.0000000000e+00 0.0000e+00 1.0000e+00
      -13  1    1    2    0    0 +5.1992318187e+02 +4.0301304925e+02 -6.1322494565e+02 8.9932445028e+02 0.0000000000e+00 0.0000e+00 1.0000e+00
       13  1    1    2    0    0 -5.1992318187e+02 -4.0301304925e+02 -1.0637278617e+02 6.6637437116e+02 0.0000000000e+00 0.0000e+00 -1.0000e+00
<mgrwt>
<rscale>  0 0.13905366E+04</rscale>
<asrwt>0</asrwt>
<pdfrwt beam="1">  1        2 0.65084700E-01 0.13905366E+04</pdfrwt>
<pdfrwt beam="2">  1       -2 0.17579204E+00 0.13905366E+04</pdfrwt>
<totfact> 0.15828627E+01</totfact>
</mgrwt>
<rwgt>
<wgt id='morphing_basis_vector_1'> +1.9459377e-04 </wgt>
<wgt id='morphing_basis_vector_2'> +1.3101166e-04 </wgt>
<wgt id='morphing_basis_vector_3'> +2.0027428e-04 </wgt>
<wgt id='morphing_basis_vector_4'> +1.2827052e-04 </wgt>
<wgt id='morphing_basis_vector_5'> +2.0939591e-04 </wgt>
</rwgt>
</event>
<event>
 4      1 +3.5234200e-07 1.47191900e+03 7.81860800e-03 8.33146300e-02
        2 -1    0    0  501    0 +0.0000000000e+00 +0.0000000000e+00 +9.6795622674e+02 9.6795622674e+02 0.0000000000e+00 0.0000e+00 -1.0000e+00
       -2 -1    0    0    0  501 -0.0000000000e+00 -0.0000000000e+00 -5.5956708952e+02 5.5956708952e+02 0.0000000000e+00 0.0000e+00 1.0000e+00
      -13  1    1    2    0    0 -4.0149856323e+01 +4.1622818506e+02 -4.2430627881e+02 5.9572957895e+02 0.0000000000e+00 0.0000e+00 1.0000e+00
       13  1    1    2    0    0 +4.0149856323e+01 -4.1622818506e+02 +8.3269541603e+02 9.3179373730e+02 0.0000000000e+00 0.0000e+00 -1.0000e+00
<mgrwt>
<rscale>  0 0.14719191E+04</rscale>
<asrwt>0</asrwt>
<pdfrwt beam="1">  1        2 0.14891634E+00 0.14719191E+04</pdfrwt>
<pdfrwt beam="2">  1       -2 0.86087244E-01 0.14719191E+04</pdfrwt>
<totfact> 0.37906295E+01</totfact>
</mgrwt>
<rwgt>
<wgt id='morphing_basis_vector_1'> +2.3980590e-04 </wgt>
<wgt id='morphing_basis_vector_2'> +1.5675032e-04 </wgt>
<wgt id='morphing_basis_vector_3'> +2.4822010e-04 </wgt>
<wgt id='morphing_basis_vector_4'> +1.6681834e-04 </wgt>
<wgt id='morphing_basis_vector_5'> +2.6562134e-04 </wgt>
</rwgt>
</event>
<event>
 4      1 +3.5234200e-07 1.29647500e+03 7.81860800e-03 8.44401600e-02
        2 -1    0    0  501    0 +0.0000000000e+00 +0.0000000000e+00 +4.3184285217e+02 4.3184285217e+02 0.0000000000e+00 0.0000e+00 1.0000e+00
       -2 -1    0    0    0  501 -0.0000000000e+00 -0.0000000000e+00 -9.7306653337e+02 9.7306653337e+02 0.0000000000e+00 0.0000e+00 -1.0000e+00
      -13  1    1    2    0    0 -4.2366760970e+02 +2.7925696955e+02 -7.0775347254e+02 8.7085801165e+02 0.0000000000e+00 0.0000e+00 -1.0000e+00
       13  1    1    2    0    0 +4.2366760970e+02 -2.7925696955e+02 +1.6652979134e+02 5.3405137389e+02 0.0000000000e+00 0.0000e+00 1.0000e+00
<mgrwt>
<rscale>  0 0.12964750E+04</rscale>
<asrwt>0</asrwt>
<pdfrwt beam="1">  1        2 0.66437363E-01 0.12964750E+04</pdfrwt>
<pdfrwt beam="2">  1       -2 0.14970254E+00 0.12964750E+04</pdfrwt>
<totfact> 0.25143520E+01</totfact>
</mgrwt>
<rwgt>
<wgt id='morphing_basis_vector_1'> +1.4767586e-04 </wgt>
<wgt id='morphing_basis_vector_2'> +9.6051098e-05 </wgt>
<wgt id='morphing_basis_vector_3'> +1.5006290e-04 </wgt>
<wgt id='morphing_basis_vector_4'> +9.7859161e-05 </wgt>
<wgt id='morphing_basis_vector_5'> +1.5636388e-04 </wgt>
</rwgt>
</event>
<event>
 4      1 +3.5234200e-07 1.34009200e+03 7.81860800e-03 8.41437000e-02
        2 -1    0    0  501    0 +0.0000000000e+00 +0.0000000000e+00 +6.7862114157e+02 6.7862114157e+02 0.0000000000e+00 0.0000e+00 -1.0000e+00
       -2 -1    0    0    0  501 -0.0000000000e+00 -0.0000000000e+00 -6.6157910189e+02 6.6157910189e+02 0.0000000000e+00 0.0000e+00 1.0000e+00
      -13  1    1    2    0    0 +9.3720638672e+01 -6.1628676736e+02 -2.3719912723e+02 6.6697553455e+02 0.0000000000e+00 0.0000e+00 1.0000e+00
       13  1    1    2    0    0 -9.3720638672e+01 +6.1628676736e+02 +2.5424116690e+02 6.7322470891e+02 0.0000000000e+00 0.0000e+00 -1.0000e+00
<mgrwt>
<rscale>  0 0.13400919E+04</rscale>
<asrwt>0</asrwt>
<pdfrwt beam="1">  1        2 0.10440325E+00 0.13400919E+04</pdfrwt>
<pdfrwt beam="2">  1       -2 0.10178140E+00 0.13400919E+04</pdfrwt>
<totfact> 0.40917036E+01</totfact>
</mgrwt>
<rwgt>
<wgt id='morphing_basis_vector_1'> +1.6861385e-04 </wgt>
<wgt id='morphing_basis_vector_2'> +1.1246934e-04 </wgt>
<wgt id='morphing_basis_vector_3'> +1.7247509e-04 </wgt>
<wgt id='morphing_basis_vector_4'> +1.1049541e-04 </wgt>
<wgt id='morphing_basis_vector_5'> +1.7948673e-04 </wgt>
</rwgt>
</event>
<event>
 4      1 +3.5234200e-07 1.33492300e+03 7.81860800e-03 8.41782100e-02
        2 -1    0    0  501    0 +0.0000000000e+00 +0.0000000000e+00 +2.7749745911e+03 2.7749745911e+03 0.0000000000e+00 0.0000e+00 -1.0000e+00
       -2 -1    0    0    0  501 -0.0000000000e+00 -0.0000000000e+00 -1.6054380633e+02 1.6054380633e+02 0.0000000000e+00 0.0000e+00 1.0000e+00
      -13  1    1    2    0    0 -4.1567677311e+02 +1.0746300072e+02 +1.8341349138e+02 4.6687898330e+02 0.0000000000e+00 0.0000e+00 1.0000e+00
       13  1    1    2    0    0 +4.1567677311e+02 -1.0746300072e+02 +2.4310172934e+03 2.4686394141e+03 0.0000000000e+00 0.0000e+00 -1.0000e+00
<mgrwt>
<rscale>  0 0.13349232E+04</rscale>
<asrwt>0</asrwt>
<pdfrwt beam="1">  1        2 0.42691913E+00 0.13349232E+04</pdfrwt>
<pdfrwt beam="2">  1       -2 0.24699049E-01 0.13349232E+04</pdfrwt>
<totfact> 0.39839694E+01</totfact>
</mgrwt>
<rwgt>
<wgt id='morphing_basis_vector_1'> +1.6486823e-04 </wgt>
<wgt id='morphing_basis_vector_2'> +1.0697398e-04 </wgt>
<wgt id='morphing_basis_vector_3'> +1.6828092e-04 </wgt>
<wgt id='morphing_basis_vector_4'> +1.1101031e-04 </wgt>
<wgt id='morphing_basis_vector_5'> +1.7677033e-04 </wgt>
</rwgt>
</event>
<event>
 4      1 +3.5234200e-07 1.50249900e+03 7.81860800e-03 8.31351500e-02
        2 -1    0    0  501    0 +0.0000000000e+00 +0.0000000000e+00 +9.3791271022e+02 9.3791271022e+02 0.0000000000e+00 0.0000e+00 -1.0000e+00
       -2 -1    0    0    0  501 -0.0000000000e+00 -0.0000000000e+00 -6.0173624101e+02 6.0173624101e+02 0.0000000000e+00 0.0000e+00 1.0000e+00
      -13  1    1    2    0    0 -3.6089879444e+02 +3.6732338119e+02 -3.9242958115e+02 6.4743755093e+02 0.0000000000e+00 0.0000e+00 1.0000e+00
       13  1    1    2    0    0 +3.6089879444e+02 -3.6732338119e+02 +7.2860605037e+02 8.9221140030e+02 0.0000000000e+00 0.0000e+00 -1.0000e+00
<mgrwt>
<rscale>  0 0.15024993E+04</rscale>
<asrwt>0</asrwt>
<pdfrwt beam="1">  1        2 0.14429426E+00 0.15024993E+04</pdfrwt>
<pdfrwt beam="2">  1       -2 0.92574806E-01 0.15024993E+04</pdfrwt>
<totfact> 0.33355887E+01</totfact>
</mgrwt>
<rwgt>
<wgt id='morphing_basis_vector_1'> +2.5975512e-04 </wgt>
<wgt id='morphing_basis_vector_2'> +1.7043861e-04 </wgt>
<wgt id='morphing_basis_vector_3'> +2.6962735e-04 </wgt>
<wgt id='morphing_basis_vector_4'> +1.8135027e-04 </wgt>
<wgt id='morphing_basis_vector_5'> +2.8925128e-04 </wgt>
</rwgt>
</event>
<event>
 4      1 +3.5234200e-07 1.29230700e+03 7.81860800e-03 8.44691300e-02
        2 -1    0    0  501    0 +0.0000000000e+00 +0.0000000000e+00 +9.6263343761e+02 9.6263343761e+02 0.0000000000e+00 0.0000e+00 -1.0000e+00
       -2 -1    0    0    0  501 -0.0000000000e+00 -0.0000000000e+00 -4.3372068248e+02 4.3372068248e+02 0.0000000000e+00 0.0000e+00 1.0000e+00
      -13  1    1    2    0    0 -4.9298249004e+02 -3.8403503282e+02 +8.6911964554e+01 6.3092656585e+02 0.0000000000e+00 0.0000e+00 1.0000e+00
       13  1    1    2    0    0 +4.9298249004e+02 +3.8403503282e+02 +4.4200079057e+02 7.6542755423e+02 0.0000000000e+00 0.0000e+00 -1.0000e+00
<mgrwt>
<rscale>  0 0.12923065E+04</rscale>
<asrwt>0</asrwt>
<pdfrwt beam="1">  1        2 0.14809745E+00 0.12923065E+04</pdfrwt>
<pdfrwt beam="2">  1       -2 0.66726259E-01 0.12923065E+04</pdfrwt>
<totfact> 0.68096662E+01</totfact>
</mgrwt>
<rwgt>
<wgt id='morphing_basis_vector_1'> +1.4754683e-04 </wgt>
<wgt id='morphing_basis_vector_2'> +9.9860147e-05 </wgt>
<wgt id='morphing_basis_vector_3'> +1.5015652e-04 </wgt>
<wgt id='morphing_basis_vector_4'> +9.3583791e-05 </wgt>
<wgt id='morphing_basis_vector_5'> +1.5405582e-04 </wgt>
</rwgt>
</event>
<event>
 4      1 +3.5234200e-07 1.29776400e+03 7.81860800e-03 8.44312200e-02
        2 -1    0    0  501    0 +0.0000000000e+00 +0.0000000000e+00 +1.5690185374e+03 1.5690185374e+03 0.0000000000e+00 0.0000e+00 -1.0000e+00
       -2 -1    0    0    0  501 -0.0000000000e+00 -0.0000000000e+00 -2.6835130059e+02 2.6835130059e+02 0.0000000000e+00 0.0000e+00 1.0000e+00
      -13  1    1    2    0    0 +4.1634069137e+02 -3.3207200097e+02 +1.2546309525e+02 5.4713103859e+02 0.0000000000e+00 0.0000e+00 1.0000e+00
       13  1    1    2    0    0 -4.1634069137e+02 +3.3207200097e+02 +1.1752041415e+03 1.2902387994e+03 0.0000000000e+00 0.0000e+00 -1.0000e+00
<mgrwt>
<rscale>  0 0.12977645E+04</rscale>
<asrwt>0</asrwt>
<pdfrwt beam="1">  1        2 0.24138746E+00 0.12977645E+04</pdfrwt>
<pdfrwt beam="2">  1       -2 0.41284816E-01 0.12977645E+04</pdfrwt>
<totfact> 0.78429899E+01</totfact>
</mgrwt>
<rwgt>
<wgt id='morphing_basis_vector_1'> +1.4835510e-04 </wgt>
<wgt id='morphing_basis_vector_2'> +9.6779883e-05 </wgt>
<wgt id='morphing_basis_vector_3'> +1.5080002e-04 </wgt>
<wgt id='morphing_basis_vector_4'> +9.8057213e-05 </wgt>
<wgt id='morphing_basis_vector_5'> +1.5700288e-04 </wgt>
</rwgt>
</event>
<event>
 4      1 +3.5234200e-07 1.38314000e+03 7.81860800e-03 8.38624300e-02
        2 -1    0    0  501    0 +0.0000000000e+00 +0.0000000000e+00 +5.5601939987e+02 5.5601939987e+02 0.0000000000e+00 0.0000e+00 1.0000e+00
       -2 -1    0    0    0  501 -0.0000000000e+00 -0.0000000000e+00 -8.6016609348e+02 8.6016609348e+02 0.0000000000e+00 0.0000e+00 -1.0000e+00
      -13  1    1    2    0    0 +5.4033405446e+02 +1.6737504162e+02 +2.5529369007e+02 6.2060467542e+02 0.0000000000e+00 0.0000e+00 1.0000e+00
       13  1    1    2    0    0 -5.4033405446e+02 -1.6737504162e+02 -5.5944038368e+02 7.9558081793e+02 0.0000000000e+00 0.0000e+00 -1.0000e+00
<mgrwt>
<rscale>  0 0.13831400E+04</rscale>
<asrwt>0</asrwt>
<pdfrwt beam="1">  1        2 0.85541447E-01 0.13831400E+04</pdfrwt>
<pdfrwt beam="2">  1       -2 0.13233324E+00 0.13831400E+04</pdfrwt>
<totfact> 0.26357693E+01</totfact>
</mgrwt>
<rwgt>
<wgt id='morphing_basis_vector_1'> +2.3048799e-04 </wgt>
<wgt id='morphing_basis_vector_2'> +2.4734489e-04 </wgt>
<wgt id='morphing_basis_vector_3'> +2.4594630e-04 </wgt>
<wgt id='morphing_basis_vector_4'> +5.3041548e-05 </wgt>
<wgt id='morphing_basis_vector_5'> +1.9955937e-04 </wgt>
</rwgt>
</event>
<event>
 4      1 +3.5234200e-07 1.33372200e+03 7.81860800e-03 8.41862500e-02
        2 -1    0    0  501    0 +0.0000000000e+00 +0.0000000000e+00 +2.9502584028e+02 2.9502584028e+02 0.0000000000e+00 0.0000e+00 1.0000e+00
       -2 -1    0    0    0  501 -0.0000000000e+00 -0.0000000000e+00 -1.5073377113e+03 1.5073377113e+03 0.0000000000e+00 0.0000e+00 -1.0000e+00
      -13  1    1    2    0    0 +3.0884640746e+02 +5.4923082874e+01 -1.4014063734e+03 1.4360858164e+03 0.0000000000e+00 0.0000e+00 -1.0000e+00
       13  1    1    2    0    0 -3.0884640746e+02 -5.4923082874e+01 +1.8909450245e+02 3.6627773519e+02 0.0000000000e+00 0.0000e+00 1.0000e+00
<mgrwt>
<rscale>  0 0.13337220E+04</rscale>
<asrwt>0</asrwt>
<pdfrwt beam="1">  1        2 0.45388591E-01 0.13337220E+04</pdfrwt>
<pdfrwt beam="2">  1       -2 0.23189811E+00 0.13337220E+04</pdfrwt>
<totfact> 0.93128135E+00</totfact>
</mgrwt>
<rwgt>
<wgt id='morphing_basis_vector_1'> +1.6421156e-04 </wgt>
<wgt id='morphing_basis_vector_2'> +1.0632731e-04 </wgt>
<wgt id='morphing_basis_vector_3'> +1.6756853e-04 </wgt>
<wgt id='morphing_basis_vector_4'> +1.1075561e-04 </wgt>
<wgt id='morphing_basis_vector_5'> +1.7611699e-04 </wgt>
</rwgt>
</event>
<event>
 4      1 +3.5234200e-07 1.37723900e+03 7.81860800e-03 8.39003500e-02
        2 -1    0    0  501    0 +0.0000000000e+00 +0.0000000000e+00 +7.0662987182e+02 7.0662987182e+02 0.0000000000e+00 0.0000e+00 1.0000e+00
       -2 -1    0    0    0  501 -0.0000000000e+00 -0.0000000000e+00 -6.7106793345e+02 6.7106793345e+02 0.0000000000e+00 0.0000e+00 -1.0000e+00
      -13  1    1    2    0    0 +6.5851187049e+02 -1.0047106782e+02 -1.5681754265e+02 6.8434206413e+02 0.0000000000e+00 0.0000e+00 -1.0000e+00
       13  1    1    2    0    0 -6.5851187049e+02 +1.0047106782e+02 +1.9237948102e+02 6.9335574114e+02 0.0000000000e+00 0.0000e+00 1.0000e+00
<mgrwt>
<rscale>  0 0.13772388E+04</rscale>
<asrwt>0</asrwt>
<pdfrwt beam="1">  1        2 0.10871229E+00 0.13772388E+04</pdfrwt>
<pdfrwt beam="2">  1       -2 0.10324122E+00 0.13772388E+04</pdfrwt>
<totfact> 0.37501266E+01</totfact>
</mgrwt>
<rwgt>
<wgt id='morphing_basis_vector_1'> +1.8820792e-04 </wgt>
<wgt id='morphing_basis_vector_2'> +1.2812531e-04 </wgt>
<wgt id='morphing_basis_vector_3'> +1.9356318e-04 </wgt>
<wgt id='morphing_basis_vector_4'> +1.2205243e-04 </wgt>
<wgt id='morphing_basis_vector_5'> +2.0108227e-04 </wgt>
</rwgt>
</event>
<event>
 4      1 +3.5234200e-07 1.50179700e+03 7.81860800e-03 8.31392200e-02
        2 -1    0    0  501    0 +0.0000000000e+00 +0.0000000000e+00 +1.5809992940e+03 1.5809992940e+03 0.0000000000e+00 0.0000e+00 -1.0000e+00
       -2 -1    0    0    0  501 -0.0000000000e+00 -0.0000000000e+00 -3.5664054509e+02 3.5664054509e+02 0.0000000000e+00 0.0000e+00 1.0000e+00
      -13  1    1    2    0    0 +3.9882096073e+02 +2.5234489226e+02 -1.4136803936e+02 4.9266725680e+02 0.0000000000e+00 0.0000e+00 1.0000e+00
       13  1    1    2    0    0 -3.9882096073e+02 -2.5234489226e+02 +1.3657267883e+03 1.4449725823e+03 0.0000000000e+00 0.0000e+00 -1.0000e+00
<mgrwt>
<rscale>  0 0.15017969E+04</rscale>
<asrwt>0</asrwt>
<pdfrwt beam="1">  1        2 0.24323066E+00 0.15017969E+04</pdfrwt>
<pdfrwt beam="2">  1       -2 0.54867777E-01 0.15017969E+04</pdfrwt>
<totfact> 0.43729743E+01</totfact>
</mgrwt>
<rwgt>
<wgt id='morphing_basis_vector_1'> +2.5919181e-04 </wgt>
<wgt id='morphing_basis_vector_2'> +1.6984206e-04 </wgt>
<wgt id='morphing_basis_vector_3'> +2.6900082e-04 </wgt>
<wgt id='morphing_basis_vector_4'> +1.8117685e-04 </wgt>
<wgt id='morphing_basis_vector_5'> +2.8870426e-04 </wgt>
</rwgt>
</event>
<event>
 4      1 +3.5234200e-07 1.29295600e+03 7.81860800e-03 8.44646100e-02
        2 -1    0    0  501    0 +0.0000000000e+00 +0.0000000000e+00 +7.9135796607e+02 7.9135796607e+02 0.0000000000e+00 0.0000e+00 1.0000e+00
       -2 -1    0    0    0  501 -0.0000000000e+00 -0.0000000000e+00 -5.2812237935e+02 5.2812237935e+02 0.0000000000e+00 0.0000e+00 -1.0000e+00
      -13  1    1    2    0    0 -1.6188762678e+02 +3.9242844049e+02 +6.2919175950e+02 7.5900589908e+02 0.0000000000e+00 0.0000e+00 1.0000e+00
       13  1    1    2    0    0 +1.6188762678e+02 -3.9242844049e+02 -3.6595617278e+02 5.6047444634e+02 0.0000000000e+00 0.0000e+00 -1.0000e+00
<mgrwt>
<rscale>  0 0.12929561E+04</rscale>
<asrwt>0</asrwt>
<pdfrwt beam="1">  1        2 0.12174738E+00 0.12929561E+04</pdfrwt>
<pdfrwt beam="2">  1       -2 0.81249597E-01 0.12929561E+04</pdfrwt>
<totfact> 0.57510490E+01</totfact>
</mgrwt>
<rwgt>
<wgt id='morphing_basis_vector_1'> +1.9135794e-04 </wgt>
<wgt id='morphing_basis_vector_2'> +2.3044179e-04 </wgt>
<wgt id='morphing_basis_vector_3'> +2.0262989e-04 </wgt>
<wgt id='morphing_basis_vector_4'> +1.6632057e-05 </wgt>
<wgt id='morphing_basis_vector_5'> +1.4895699e-04 </wgt>
</rwgt>
</event>
<event>
 4      1 +3.5234200e-07 1.46611900e+03 7.81860800e-03 8.33491800e-02
        2 -1    0    0  501    0 +0.0000000000e+00 +0.0000000000e+00 +1.7030293555e+03 1.7030293555e+03 0.0000000000e+00 0.0000e+00 1.0000e+00
       -2 -1    0    0    0  501 -0.0000000000e+00 -0.0000000000e+00 -3.1554133195e+02 3.1554133195e+02 0.0000000000e+00 0.0000e+00 -1.0000e+00
      -13  1    1    2    0    0 -4.3378712145e+02 -3.7271395373e+02 +1.3251130051e+03 1.4432641596e+03 0.0000000000e+00 0.0000e+00 1.0000e+00
       13  1    1    2    0    0 +4.3378712145e+02 +3.7271395373e+02 +6.2375018395e+01 5.7530652782e+02 0.0000000000e+00 0.0000e+00 -1.0000e+00
<mgrwt>
<rscale>  0 0.14661189E+04</rscale>
<asrwt>0</asrwt>
<pdfrwt beam="1">  1        2 0.26200451E+00 0.14661189E+04</pdfrwt>
<pdfrwt beam="2">  1       -2 0.48544821E-01 0.14661189E+04</pdfrwt>
<totfact> 0.47797975E+01</totfact>
</mgrwt>
<rwgt>
<wgt id='morphing_basis_vector_1'> +2.9472519e-04 </wgt>
<wgt id='morphing_basis_vector_2'> +3.2895505e-04 </wgt>
<wgt id='morphing_basis_vector_3'> +3.2009652e-04 </wgt>
<wgt id='morphing_basis_vector_4'> +5.5632728e-05 </wgt>
<wgt id='morphing_basis_vector_5'> +2.5331163e-04 </wgt>
</rwgt>
</event>
<event>
 4      1 +3.5234200e-07 1.45456100e+03 7.81860800e-03 8.34185200e-02
        2 -1    0    0  501    0 +0.0000000000e+00 +0.0000000000e+00 +2.8538018881e+03 2.8538018881e+03 0.0000000000e+00 0.0000e+00 -1.0000e+00
       -2 -1    0    0    0  501 -0.0000000000e+00 -0.0000000000e+00 -1.8534466818e+02 1.8534466818e+02 0.0000000000e+00 0.0000e+00 1.0000e+00
      -13  1    1    2    0    0 -4.4583523666e+02 -2.4382570950e+02 +2.4710883366e+02 5.6505115745e+02 0.0000000000e+00 0.0000e+00 1.0000e+00
       13  1    1    2    0    0 +4.4583523666e+02 +2.4382570950e+02 +2.4213483863e+03 2.4740953988e+03 0.0000000000e+00 0.0000e+00 -1.0000e+00
<mgrwt>
<rscale>  0 0.14545611E+04</rscale>
<asrwt>0</asrwt>
<pdfrwt beam="1">  1        2 0.43904641E+00 0.14545611E+04</pdfrwt>
<pdfrwt beam="2">  1       -2 0.28514566E-01 0.14545611E+04</pdfrwt>
<totfact> 0.27397957E+01</totfact>
</mgrwt>
<rwgt>
<wgt id='morphing_basis_vector_1'> +2.2926152e-04 </wgt>
<wgt id='morphing_basis_vector_2'> +1.5010039e-04 </wgt>
<wgt id='morphing_basis_vector_3'> +2.3697413e-04 </wgt>
<wgt id='morphing_basis_vector_4'> +1.5850402e-04 </wgt>
<wgt id='morphing_basis_vector_5'> +2.5282864e-04 </wgt>
</rwgt>
</event>
<event>
 4      1 +3.5234200e-07 1.37760200e+03 7.81860800e-03 8.38980100e-02
        2 -1    0    0  501    0 +0.0000000000e+00 +0.0000000000e+00 +5.3552129086e+02 5.3552129086e+02 0.0000000000e+00 0.0000e+00 -1.0000e+00
       -2 -1    0    0    0  501 -0.0000000000e+00 -0.0000000000e+00 -8.8595385825e+02 8.8595385825e+02 0.0000000000e+00 0.0000e+00 1.0000e+00
      -13  1    1    2    0    0 +1.6038679965e+02 +7.1236176138e+01 -8.6249821770e+02 8.8017140026e+02 0.0000000000e+00 0.0000e+00 1.0000e+00
       13  1    1    2    0    0 -1.6038679965e+02 -7.1236176138e+01 +5.1206565031e+02 5.4130374885e+02 0.0000000000e+00 0.0000e+00 -1.0000e+00
<mgrwt>
<rscale>  0 0.13776025E+04</rscale>
<asrwt>0</asrwt>
<pdfrwt beam="1">  1        2 0.82387892E-01 0.13776025E+04</pdfrwt>
<pdfrwt beam="2">  1       -2 0.13630059E+00 0.13776025E+04</pdfrwt>
<totfact> 0.25403196E+01</totfact>
</mgrwt>
<rwgt>
<wgt id='morphing_basis_vector_1'> +1.8584840e-04 </wgt>
<wgt id='morphing_basis_vector_2'> +1.2063593e-04 </wgt>
<wgt id='morphing_basis_vector_3'> +1.9058128e-04 </wgt>
<wgt id='morphing_basis_vector_4'> +1.2681593e-04 </wgt>
<wgt id='morphing_basis_vector_5'> +2.0163784e-04 </wgt>
</rwgt>
</event>
<event>
 4      1 +3.5234200e-07 1.39087800e+03 7.81860800e-03 8.38130100e-02
        2 -1    0    0  501    0 +0.0000000000e+00 +0.0000000000e+00 +9.3925813698e+02 9.3925813698e+02 0.0000000000e+00 0.0000e+00 -1.0000e+00
       -2 -1    0    0    0  501 -0.0000000000e+00 -0.0000000000e+00 -5.1491209314e+02 5.1491209314e+02 0.0000000000e+00 0.0000e+00 1.0000e+00
      -13  1    1    2    0    0 -1.9690523073e+02 +5.0273258330e+02 +6.7043797294e+02 8.6081286919e+02 0.0000000000e+00 0.0000e+00 -1.0000e+00
       13  1    1    2    0    0 +1.9690523073e+02 -5.0273258330e+02 -2.4609192910e+02 5.9335736093e+02 0.0000000000e+00 0.0000e+00 1.0000e+00
<mgrwt>
<rscale>  0 0.13908780E+04</rscale>
<asrwt>0</asrwt>
<pdfrwt beam="1">  1        2 0.14450125E+00 0.13908780E+04</pdfrwt>
<pdfrwt beam="2">  1       -2 0.79217245E-01 0.13908780E+04</pdfrwt>
<totfact> 0.48123731E+01</totfact>
</mgrwt>
<rwgt>
<wgt id='morphing_basis_vector_1'> +2.4112718e-04 </wgt>
<wgt id='morphing_basis_vector_2'> +2.6962732e-04 </wgt>
<wgt id='morphing_basis_vector_3'> +2.5870992e-04 </wgt>
<wgt id='morphing_basis_vector_4'> +4.3981328e-05 </wgt>
<wgt id='morphing_basis_vector_5'> +2.0350101e-04 </wgt>
</rwgt>
</event>
<event>
 4      1 +3.5234200e-07 1.31525100e+03 7.81860800e-03 8.43110700e-02
        2 -1    0    0  501    0 +0.0000000000e+00 +0.0000000000e+00 +9.0726381048e+02 9.0726381048e+02 0.0000000000e+00 0.0000e+00 -1.0000e+00
       -2 -1    0    0    0  501 -0.0000000000e+00 -0.0000000000e+00 -4.7667632570e+02 4.7667632570e+02 0.0000000000e+00 0.0000e+00 1.0000e+00
      -13  1    1    2    0    0 +6.9313069218e+01 +4.4987336236e+02 -2.8413191277e+02 5.3658297362e+02 0.0000000000e+00 0.0000e+00 1.0000e+00
       13  1    1    2    0    0 -6.9313069218e+01 -4.4987336236e+02 +7.1471939755e+02 8.4735716257e+02 0.0000000000e+00 0.0000e+00 -1.0000e+00
<mgrwt>
<rscale>  0 0.13152508E+04</rscale>
<asrwt>0</asrwt>
<pdfrwt beam="1">  1        2 0.13957905E+00 0.13152508E+04</pdfrwt>
<pdfrwt beam="2">  1       -2 0.73334819E-01 0.13152508E+04</pdfrwt>
<totfact> 0.60258620E+01</totfact>
</mgrwt>
<rwgt>
<wgt id='morphing_basis_vector_1'> +1.5582987e-04 </wgt>
<wgt id='morphing_basis_vector_2'> +1.0108949e-04 </wgt>
<wgt id='morphing_basis_vector_3'> +1.5868988e-04 </wgt>
<wgt id='morphing_basis_vector_4'> +1.0423774e-04 </wgt>
<wgt id='morphing_basis_vector_5'> +1.6610599e-04 </wgt>
</rwgt>
</event>
<event>
 4      1 +3.5234200e-07 1.30850900e+03 7.81860800e-03 8.43571700e-02
        2 -1    0    0  501    0 +0.0000000000e+00 +0.0000000000e+00 +1.7309895096e+03 1.7309895096e+03 0.0000000000e+00 0.0000e+00 -1.0000e+00
       -2 -1    0    0    0  501 -0.0000000000e+00 -0.0000000000e+00 -2.4728551169e+02 2.4728551169e+02 0.0000000000e+00 0.0000e+00 1.0000e+00
      -13  1    1    2    0    0 -2.1355185163e+01 -6.0060634394e+02 +1.1327903265e+03 1.2823408081e+03 0.0000000000e+00 0.0000e+00 1.0000e+00
       13  1    1    2    0    0 +2.1355185163e+01 +6.0060634394e+02 +3.5091367143e+02 6.9593421321e+02 0.0000000000e+00 0.0000e+00 -1.0000e+00
<mgrwt>
<rscale>  0 0.13085085E+04</rscale>
<asrwt>0</asrwt>
<pdfrwt beam="1">  1        2 0.26630607E+00 0.13085085E+04</pdfrwt>
<pdfrwt beam="2">  1       -2 0.38043926E-01 0.13085085E+04</pdfrwt>
<totfact> 0.74197308E+01</totfact>
</mgrwt>
<rwgt>
<wgt id='morphing_basis_vector_1'> +1.7328535e-04 </wgt>
<wgt id='morphing_basis_vector_2'> +1.6040422e-04 </wgt>
<wgt id='morphing_basis_vector_3'> +1.8023209e-04 </wgt>
<wgt id='morphing_basis_vector_4'> +6.5544577e-05 </wgt>
<wgt id='morphing_basis_vector_5'> +1.5998742e-04 </wgt>
</rwgt>
</event>
<event>
 4      1 +3.5234200e-07 1.35925400e+03 7.81860800e-03 8.40171600e-02
        2 -1    0    0  501    0 +0.0000000000e+00 +0.0000000000e+00 +1.3086712792e+03 1.3086712792e+03 0.0000000000e+00 0.0000e+00 1.0000e+00
       -2 -1    0    0    0  501 -0.0000000000e+00 -0.0000000000e+00 -3.5294800455e+02 3.5294800455e+02 0.0000000000e+00 0.0000e+00 -1.0000e+00
      -13  1    1    2    0    0 +7.3367761805e+01 -6.7452154348e+02 +4.3003315188e+02 8.0329985236e+02 0.0000000000e+00 0.0000e+00 -1.0000e+00
       13  1    1    2    0    0 -7.3367761805e+01 +6.7452154348e+02 +5.2569012274e+02 8.5831943135e+02 0.0000000000e+00 0.0000e+00 1.0000e+00
<mgrwt>
<rscale>  0 0.13592541E+04</rscale>
<asrwt>0</asrwt>
<pdfrwt beam="1">  1        2 0.20133404E+00 0.13592541E+04</pdfrwt>
<pdfrwt beam="2">  1       -2 0.54299694E-01 0.13592541E+04</pdfrwt>
<totfact> 0.64282068E+01</totfact>
</mgrwt>
<rwgt>
<wgt id='morphing_basis_vector_1'> +1.8172625e-04 </wgt>
<wgt id='morphing_basis_vector_2'> +1.2995623e-04 </wgt>
<wgt id='morphing_basis_vector_3'> +1.8709760e-04 </wgt>
<wgt id='morphing_basis_vector_4'> +1.1055770e-04 </wgt>
<wgt id='morphing_basis_vector_5'> +1.8998473e-04 </wgt>
</rwgt>
</event>
<event>
 4      1 +3.5234200e-07 1.33934400e+03 7.81860800e-03 8.41486800e-02
        2 -1    0    0  501    0 +0.0000000000e+00 +0.0000000000e+00 +1.9681063350e+03 1.9681063350e+03 0.0000000000e+00 0.0000e+00 1.0000e+00
       -2 -1    0    0    0  501 -0.0000000000e+00 -0.0000000000e+00 -2.2786406973e+02 2.2786406973e+02 0.0000000000e+00 0.0000e+00 -1.0000e+00
      -13  1    1    2    0    0 -1.8479909253e+02 -5.0800185271e+02 +2.2202990839e+02 5.8439187809e+02 0.0000000000e+00 0.0000e+00 -1.0000e+00
       13  1    1    2    0    0 +1.8479909253e+02 +5.0800185271e+02 +1.5182123569e+03 1.6115785267e+03 0.0000000000e+00 0.0000e+00 1.0000e+00
<mgrwt>
<rscale>  0 0.13393442E+04</rscale>
<asrwt>0</asrwt>
<pdfrwt beam="1">  1        2 0.30278558E+00 0.13393442E+04</pdfrwt>
<pdfrwt beam="2">  1       -2 0.35056012E-01 0.13393442E+04</pdfrwt>
<totfact> 0.63472013E+01</totfact>
</mgrwt>
<rwgt>
<wgt id='morphing_basis_vector_1'> +1.6728972e-04 </wgt>
<wgt id='morphing_basis_vector_2'> +1.0933804e-04 </wgt>
<wgt id='morphing_basis_vector_3'> +1.7090788e-04 </wgt>
<wgt id='morphing_basis_vector_4'> +1.1197152e-04 </wgt>
<wgt id='morphing_basis_vector_5'> +1.7919177e-04 </wgt>
</rwgt>
</event>
<event>
 4      1 +3.5234200e-07 1.42519900e+03 7.81860800e-03 8.35977400e-02
        2 -1    0    0  501    0 +0.0000000000e+00 +0.0000000000e+00 +5.7051857783e+02 5.7051857783e+02 0.0000000000e+00 0.0000e+00 1.0000e+00
       -2 -1    0    0    0  501 -0.0000000000e+00 -0.0000000000e+00 -8.9006340489e+02 8.9006340489e+02 0.0000000000e+00 0.0000e+00 -1.0000e+00
      -13  1    1    2    0    0 -2.1664030949e+02 +6.6136122870e+02 -2.7830620011e+00 6.9594500067e+02 0.0000000000e+00 0.0000e+00 1.0000e+00
       13  1    1    2    0    0 +2.1664030949e+02 -6.6136122870e+02 -3.1676176506e+02 7.6463698205e+02 0.0000000000e+00 0.0000e+00 -1.0000e+00
<mgrwt>
<rscale>  0 0.14251985E+04</rscale>
<asrwt>0</asrwt>
<pdfrwt beam="1">  1        2 0.87772089E-01 0.14251985E+04</pdfrwt>
<pdfrwt beam="2">  1       -2 0.13693283E+00 0.14251985E+04</pdfrwt>
<totfact> 0.23216792E+01</totfact>
</mgrwt>
<rwgt>
<wgt id='morphing_basis_vector_1'> +2.2791498e-04 </wgt>
<wgt id='morphing_basis_vector_2'> +1.8616443e-04 </wgt>
<wgt id='morphing_basis_vector_3'> +2.3880846e-04 </wgt>
<wgt id='morphing_basis_vector_4'> +1.1634371e-04 </wgt>
<wgt id='morphing_basis_vector_5'> +2.3013338e-04 </wgt>
</rwgt>
</event>
<event>
 4      1 +3.5234200e-07 1.39139700e+03 7.81860800e-03 8.38097000e-02
        2 -1    0    0  501    0 +0.0000000000e+00 +0.0000000000e+00 +7.3853164074e+02 7.3853164074e+02 0.0000000000e+00 0.0000e+00 -1.0000e+00
       -2 -1    0    0    0  501 -0.0000000000e+00 -0.0000000000e+00 -6.5534926795e+02 6.5534926795e+02 0.0000000000e+00 0.0000e+00 1.0000e+00
      -13  1    1    2    0    0 -3.6956329957e+02 -1.2120831850e+02 -5.3626421664e+02 6.6245588450e+02 0.0000000000e+00 0.0000e+00 1.0000e+00
       13  1    1    2    0    0 +3.6956329957e+02 +1.2120831850e+02 +6.1944658943e+02 7.3142502419e+02 0.0000000000e+00 0.0000e+00 -1.0000e+00
<mgrwt>
<rscale>  0 0.13913967E+04</rscale>
<asrwt>0</asrwt>
<pdfrwt beam="1">  1        2 0.11362025E+00 0.13913967E+04</pdfrwt>
<pdfrwt beam="2">  1       -2 0.10082296E+00 0.13913967E+04</pdfrwt>
<totfact> 0.37571428E+01</totfact>
</mgrwt>
<rwgt>
<wgt id='morphing_basis_vector_1'> +1.9315250e-04 </wgt>
<wgt id='morphing_basis_vector_2'> +1.2564232e-04 </wgt>
<wgt id='morphing_basis_vector_3'> +1.9837647e-04 </wgt>
<wgt id='morphing_basis_vector_4'> +1.3206840e-04 </wgt>
<wgt id='morphing_basis_vector_5'> +2.1018749e-04 </wgt>
</rwgt>
</event>
<event>
 4      1 +3.5234200e-07 1.35511300e+03 7.81860800e-03 8.40443200e-02
        2 -1    0    0  501    0 +0.0000000000e+00 +0.0000000000e+00 +1.2539277267e+03 1.2539277267e+03 0.0000000000e+00 0.0000e+00 -1.0000e+00
       -2 -1    0    0    0  501 -0.0000000000e+00 -0.0000000000e+00 -3.6611577752e+02 3.6611577752e+02 0.0000000000e+00 0.0000e+00 1.0000e+00
      -13  1    1    2    0    0 +4.3243411052e+02 +1.5641074504e+02 -1.5099312935e+02 4.8400672125e+02 0.0000000000e+00 0.0000e+00 1.0000e+00
       13  1    1    2    0    0 -4.3243411052e+02 -1.5641074504e+02 +1.0388050785e+03 1.1360367829e+03 0.0000000000e+00 0.0000e+00 -1.0000e+00
<mgrwt>
<rscale>  0 0.13551129E+04</rscale>
<asrwt>0</asrwt>
<pdfrwt beam="1">  1        2 0.19291196E+00 0.13551129E+04</pdfrwt>
<pdfrwt beam="2">  1       -2 0.56325505E-01 0.13551129E+04</pdfrwt>
<totfact> 0.64219641E+01</totfact>
</mgrwt>
<rwgt>
<wgt id='morphing_basis_vector_1'> +1.7465379e-04 </wgt>
<wgt id='morphing_basis_vector_2'> +1.1357810e-04 </wgt>
<wgt id='morphing_basis_vector_3'> +1.7869338e-04 </wgt>
<wgt id='morphing_basis_vector_4'> +1.1811433e-04 </wgt>
<wgt id='morphing_basis_vector_5'> +1.8821986e-04 </wgt>
</rwgt>
</event>
<event>
 4      1 +3.5234200e-07 1.39472400e+03 7.81860800e-03 8.37885600e-02
        2 -1    0    0  501    0 +0.0000000000e+00 +0.0000000000e+00 +1.2527120086e+03 1.2527120086e+03 0.0000000000e+00 0.0000e+00 1.0000e+00
       -2 -1    0    0    0  501 -0.0000000000e+00 -0.0000000000e+00 -3.8820870875e+02 3.8820870875e+02 0.0000000000e+00 0.0000e+00 -1.0000e+00
      -13  1    1    2    0    0 -3.7267103830e+02 +3.1777910017e+02 -1.5181260831e+02 5.1275172095e+02 0.0000000000e+00 0.0000e+00 -1.0000e+00
       13  1    1    2    0    0 +3.7267103830e+02 -3.1777910017e+02 +1.0163159082e+03 1.1281689964e+03 0.0000000000e+00 0.0000e+00 1.0000e+00
<mgrwt>
<rscale>  0 0.13947239E+04</rscale>
<asrwt>0</asrwt>
<pdfrwt beam="1">  1        2 0.19272492E+00 0.13947239E+04</pdfrwt>
<pdfrwt beam="2">  1       -2 0.59724417E-01 0.13947239E+04</pdfrwt>
<totfact> 0.56911880E+01</totfact>
</mgrwt>
<rwgt>
<wgt id='morphing_basis_vector_1'> +1.9508381e-04 </wgt>
<wgt id='morphing_basis_vector_2'> +1.2728312e-04 </wgt>
<wgt id='morphing_basis_vector_3'> +2.0046498e-04 </wgt>
<wgt id='morphing_basis_vector_4'> +1.3310872e-04 </wgt>
<wgt id='morphing_basis_vector_5'> +2.1227110e-04 </wgt>
</rwgt>
</event>
<event>
 4      1 +3.5234200e-07 1.46877000e+03 7.81860800e-03 8.33333700e-02
        2 -1    0    0  501    0 +0.0000000000e+00 +0.0000000000e+00 +1.3862597500e+03 1.3862597500e+03 0.0000000000e+00 0.0000e+00 -1.0000e+00
       -2 -1    0    0    0  501 -0.0000000000e+00 -0.0000000000e+00 -3.8904760653e+02 3.8904760653e+02 0.0000000000e+00 0.0000e+00 1.0000e+00
      -13  1    1    2    0    0 -4.8476625410e+02 -3.3116953874e+02 -3.4663090818e+01 5.8810978088e+02 0.0000000000e+00 0.0000e+00 1.0000e+00
       13  1    1    2    0    0 +4.8476625410e+02 +3.3116953874e+02 +1.0318752343e+03 1.1871975757e+03 0.0000000000e+00 0.0000e+00 -1.0000e+00
<mgrwt>
<rscale>  0 0.14687696E+04</rscale>
<asrwt>0</asrwt>
<pdfrwt beam="1">  1        2 0.21327073E+00 0.14687696E+04</pdfrwt>
<pdfrwt beam="2">  1       -2 0.59853478E-01 0.14687696E+04</pdfrwt>
<totfact> 0.47252702E+01</totfact>
</mgrwt>
<rwgt>
<wgt id='morphing_basis_vector_1'> +2.3833645e-04 </wgt>
<wgt id='morphing_basis_vector_2'> +1.5693110e-04 </wgt>
<wgt id='morphing_basis_vector_3'> +2.4676009e-04 </wgt>
<wgt id='morphing_basis_vector_4'> +1.6441380e-04 </wgt>
<wgt id='morphing_basis_vector_5'> +2.6320106e-04 </wgt>
</rwgt>
</event>
<event>
 4      1 +3.5234200e-07 1.29134500e+03 7.81860800e-03 8.44758300e-02
        2 -1    0    0  501    0 +0.0000000000e+00 +0.0000000000e+00 +1.9880616361e+03 1.9880616361e+03 0.0000000000e+00 0.0000e+00 -1.0000e+00
       -2 -1    0    0    0  501 -0.0000000000e+00 -0.0000000000e+00 -2.0969828523e+02 2.0969828523e+02 0.0000000000e+00 0.0000e+00 1.0000e+00
      -13  1    1    2    0    0 +1.3762147947e+02 +4.1740456251e+02 +8.4179654784e+01 4.4749575941e+02 0.0000000000e+00 0.0000e+00 1.0000e+00
       13  1    1    2    0    0 -1.3762147947e+02 -4.1740456251e+02 +1.6941836961e+03 1.7502641619e+03 0.0000000000e+00 0.0000e+00 -1.0000e+00
<mgrwt>
<rscale>  0 0.12913452E+04</rscale>
<asrwt>0</asrwt>
<pdfrwt beam="1">  1        2 0.30585562E+00 0.12913452E+04</pdfrwt>
<pdfrwt beam="2">  1       -2 0.32261276E-01 0.12913452E+04</pdfrwt>
<totfact> 0.72161615E+01</totfact>
</mgrwt>
<rwgt>
<wgt id='morphing_basis_vector_1'> +1.4528529e-04 </wgt>
<wgt id='morphing_basis_vector_2'> +9.4047739e-05 </wgt>
<wgt id='morphing_basis_vector_3'> +1.4750393e-04 </wgt>
<wgt id='morphing_basis_vector_4'> +9.6558619e-05 </wgt>
<wgt id='morphing_basis_vector_5'> +1.5380480e-04 </wgt>
</rwgt>
</event>
<event>
 4      1 +3.5234200e-07 1.34473000e+03 7.81860800e-03 8.41128600e-02
        2 -1    0    0  501    0 +0.0000000000e+00 +0.0000000000e+00 +8.7012756031e+02 8.7012756031e+02 0.0000000000e+00 0.0000e+00 1.0000e+00
       -2 -1    0    0    0  501 -0.0000000000e+00 -0.0000000000e+00 -5.1955022450e+02 5.1955022450e+02 0.0000000000e+00 0.0000e+00 -1.0000e+00
      -13  1    1    2    0    0 -1.7961085917e+01 +4.5323552255e+02 -3.3761697855e+02 5.6544695924e+02 0.0000000000e+00 0.0000e+00 -1.0000e+00
       13  1    1    2    0    0 +1.7961085917e+01 -4.5323552255e+02 +6.8819431435e+02 8.2423082557e+02 0.0000000000e+00 0.0000e+00 1.0000e+00
<mgrwt>
<rscale>  0 0.13447304E+04</rscale>
<asrwt>0</asrwt>
<pdfrwt beam="1">  1        2 0.13386578E+00 0.13447304E+04</pdfrwt>
<pdfrwt beam="2">  1       -2 0.79930804E-01 0.13447304E+04</pdfrwt>
<totfact> 0.52512393E+01</totfact>
</mgrwt>
<rwgt>
<wgt id='morphing_basis_vector_1'> +1.6958304e-04 </wgt>
<wgt id='morphing_basis_vector_2'> +1.1018973e-04 </wgt>
<wgt id='morphing_basis_vector_3'> +1.7329854e-04 </wgt>
<wgt id='morphing_basis_vector_4'> +1.1439332e-04 </wgt>
<wgt id='morphing_basis_vector_5'> +1.8226374e-04 </wgt>
</rwgt>
</event>
<event>
 4      1 +3.5234200e-07 1.49289000e+03 7.81860800e-03 8.31910700e-02
        2 -1    0    0  501    0 +0.0000000000e+00 +0.0000000000e+00 +1.3416692697e+03 1.3416692697e+03 0.0000000000e+00 0.0000e+00 -1.0000e+00
       -2 -1    0    0    0  501 -0.0000000000e+00 -0.0000000000e+00 -4.1528850616e+02 4.1528850616e+02 0.0000000000e+00 0.0000e+00 1.0000e+00
      -13  1    1    2    0    0 +3.7258241852e+02 +6.0489715796e+02 +1.9363103947e+02 7.3634992344e+02 0.0000000000e+00 0.0000e+00 1.0000e+00
       13  1    1    2    0    0 -3.7258241852e+02 -6.0489715796e+02 +7.3274972407e+02 1.0206078524e+03 0.0000000000e+00 0.0000e+00 -1.0000e+00
<mgrwt>
<rscale>  0 0.14928896E+04</rscale>
<asrwt>0</asrwt>
<pdfrwt beam="1">  1        2 0.20641066E+00 0.14928896E+04</pdfrwt>
<pdfrwt beam="2">  1       -2 0.63890540E-01 0.14928896E+04</pdfrwt>
<totfact> 0.43680213E+01</totfact>
</mgrwt>
<rwgt>
<wgt id='morphing_basis_vector_1'> +2.5593733e-04 </wgt>
<wgt id='morphing_basis_vector_2'> +1.7374146e-04 </wgt>
<wgt id='morphing_basis_vector_3'> +2.6612834e-04 </wgt>
<wgt id='morphing_basis_vector_4'> +1.7187576e-04 </wgt>
<wgt id='morphing_basis_vector_5'> +2.8130813e-04 </wgt>
</rwgt>
</event>
<event>
 4      1 +3.5234200e-07 1.49340500e+03 7.81860800e-03 8.31880600e-02
        2 -1    0    0  501    0 +0.0000000000e+00 +0.0000000000e+00 +8.4023471163e+02 8.4023471163e+02 0.0000000000e+00 0.0000e+00 1.0000e+00
       -2 -1    0    0    0  501 -0.0000000000e+00 -0.0000000000e+00 -6.6358207989e+02 6.6358207989e+02 0.0000000000e+00 0.0000e+00 -1.0000e+00
      -13  1    1    2    0    0 +1.0035248232e+01 +2.2893820453e+02 -6.2729792322e+02 6.6784436224e+02 0.0000000000e+00 0.0000e+00 -1.0000e+00
       13  1    1    2    0    0 -1.0035248232e+01 -2.2893820453e+02 +8.0395055496e+02 8.3597242928e+02 0.0000000000e+00 0.0000e+00 1.0000e+00
<mgrwt>
<rscale>  0 0.14934051E+04</rscale>
<asrwt>0</asrwt>
<pdfrwt beam="1">  1        2 0.12926688E+00 0.14934051E+04</pdfrwt>
<pdfrwt beam="2">  1       -2 0.10208955E+00 0.14934051E+04</pdfrwt>
<totfact> 0.30648027E+01</totfact>
</mgrwt>
<rwgt>
<wgt id='morphing_basis_vector_1'> +2.5349533e-04 </wgt>
<wgt id='morphing_basis_vector_2'> +1.6568027e-04 </wgt>
<wgt id='morphing_basis_vector_3'> +2.6285959e-04 </wgt>
<wgt id='morphing_basis_vector_4'> +1.7730782e-04 </wgt>
<wgt id='morphing_basis_vector_5'> +2.8209535e-04 </wgt>
</rwgt>
</event>
<event>
 4      1 +3.5234200e-07 1.30276600e+03 7.81860800e-03 8.43966500e-02
        2 -1    0    0  501    0 +0.0000000000e+00 +0.0000000000e+00 +1.0174645482e+03 1.0174645482e+03 0.0000000000e+00 0.0000e+00 1.0000e+00
       -2 -1    0    0    0  501 -0.0000000000e+00 -0.0000000000e+00 -4.1701683822e+02 4.1701683822e+02 0.0000000000e+00 0.0000e+00 -1.0000e+00
      -13  1    1    2    0    0 +1.0911920872e+02 -6.2597736790e+02 +4.5805164676e+02 7.8330452440e+02 0.0000000000e+00 0.0000e+00 1.0000e+00
       13  1    1    2    0    0 -1.0911920872e+02 +6.2597736790e+02 +1.4239606325e+02 6.5117686205e+02 0.0000000000e+00 0.0000e+00 -1.0000e+00
<mgrwt>
<rscale>  0 0.13027661E+04</rscale>
<asrwt>0</asrwt>
<pdfrwt beam="1">  1        2 0.15653301E+00 0.13027661E+04</pdfrwt>
<pdfrwt beam="2">  1       -2 0.64156437E-01 0.13027661E+04</pdfrwt>
<totfact> 0.68271748E+01</totfact>
</mgrwt>
<rwgt>
<wgt id='morphing_basis_vector_1'> +1.6174142e-04 </wgt>
<wgt id='morphing_basis_vector_2'> +1.3176814e-04 </wgt>
<wgt id='morphing_basis_vector_3'> +1.6661421e-04 </wgt>
<wgt id='morphing_basis_vector_4'> +7.9749121e-05 </wgt>
<wgt id='morphing_basis_vector_5'> +1.5815387e-04 </wgt>
</rwgt>
</event>
<event>
 4      1 +3.5234200e-07 1.36422300e+03 7.81860800e-03 8.39847000e-02
        2 -1    0    0  501    0 +0.0000000000e+00 +0.0000000000e+00 +2.7382513522e+03 2.7382513522e+03 0.0000000000e+00 0.0000e+00 -1.0000e+00
       -2 -1    0    0    0  501 -0.0000000000e+00 -0.0000000000e+00 -1.6991721163e+02 1.6991721163e+02 0.0000000000e+00 0.0000e+00 1.0000e+00
      -13  1    1    2    0    0 +5.0528825888e+02 +4.4583758055e+02 +1.5096550056e+03 1.6532227946e+03 0.0000000000e+00 0.0000e+00 1.0000e+00
       13  1    1    2    0    0 -5.0528825888e+02 -4.4583758055e+02 +1.0586791350e+03 1.2549457692e+03 0.0000000000e+00 0.0000e+00 -1.0000e+00
<mgrwt>
<rscale>  0 0.13642229E+04</rscale>
<asrwt>0</asrwt>
<pdfrwt beam="1">  1        2 0.42126941E+00 0.13642229E+04</pdfrwt>
<pdfrwt beam="2">  1       -2 0.26141112E-01 0.13642229E+04</pdfrwt>
<totfact> 0.37949638E+01</totfact>
</mgrwt>
<rwgt>
<wgt id='morphing_basis_vector_1'> +1.9019755e-04 </wgt>
<wgt id='morphing_basis_vector_2'> +1.4950399e-04 </wgt>
<wgt id='morphing_basis_vector_3'> +1.9719085e-04 </wgt>
<wgt id='morphing_basis_vector_4'> +1.0155352e-04 </wgt>
<wgt id='morphing_basis_vector_5'> +1.9213363e-04 </wgt>
</rwgt>
</event>
<event>
 4      1 +3.5234200e-07 1.44441800e+03 7.81860800e-03 8.34799300e-02
        2 -1    0    0  501    0 +0.0000000000e+00 +0.0000000000e+00 +1.2488702042e+03 1.2488702042e+03 0.0000000000e+00 0.0000e+00 -1.0000e+00
       -2 -1    0    0    0  501 -0.0000000000e+00 -0.0000000000e+00 -4.1764627320e+02 4.1764627320e+02 0.0000000000e+00 0.0000e+00 1.0000e+00
      -13  1    1    2    0    0 +4.3552285196e+02 -4.4009828420e+02 +8.4455641663e+02 1.0472068541e+03 0.0000000000e+00 0.0000e+00 1.0000e+00
       13  1    1    2    0    0 -4.3552285196e+02 +4.4009828420e+02 -1.3332485656e+01 6.1930962330e+02 0.0000000000e+00 0.0000e+00 -1.0000e+00
<mgrwt>
<rscale>  0 0.14444182E+04</rscale>
<asrwt>0</asrwt>
<pdfrwt beam="1">  1        2 0.19213388E+00 0.14444182E+04</pdfrwt>
<pdfrwt beam="2">  1       -2 0.64253273E-01 0.14444182E+04</pdfrwt>
<totfact> 0.48986715E+01</totfact>
</mgrwt>
<rwgt>
<wgt id='morphing_basis_vector_1'> +2.6531792e-04 </wgt>
<wgt id='morphing_basis_vector_2'> +2.7181223e-04 </wgt>
<wgt id='morphing_basis_vector_3'> +2.8456633e-04 </wgt>
<wgt id='morphing_basis_vector_4'> +7.6229675e-05 </wgt>
<wgt id='morphing_basis_vector_5'> +2.3988216e-04 </wgt>
</rwgt>
</event>
<event>
 4      1 +3.5234200e-07 1.48706000e+03 7.81860800e-03 8.32252000e-02
        2 -1    0    0  501    0 +0.0000000000e+00 +0.0000000000e+00 +1.2404712506e+03 1.2404712506e+03 0.0000000000e+00 0.0000e+00 -1.0000e+00
       -2 -1    0    0    0  501 -0.0000000000e+00 -0.0000000000e+00 -4.4566692675e+02 4.4566692675e+02 0.0000000000e+00 0.0000e+00 1.0000e+00
      -13  1    1    2    0    0 +2.5093318166e+02 +9.0026095410e+01 -3.8961131027e+02 4.7209017423e+02 0.0000000000e+00 0.0000e+00 1.0000e+00
       13  1    1    2    0    0 -2.5093318166e+02 -9.0026095410e+01 +1.1844156341e+03 1.2140480031e+03 0.0000000000e+00 0.0000e+00 -1.0000e+00
<mgrwt>
<rscale>  0 0.14870602E+04</rscale>
<asrwt>0</asrwt>
<pdfrwt beam="1">  1        2 0.19084173E+00 0.14870602E+04</pdfrwt>
<pdfrwt beam="2">  1       -2 0.68564143E-01 0.14870602E+04</pdfrwt>
<totfact> 0.43049257E+01</totfact>
</mgrwt>
<rwgt>
<wgt id='morphing_basis_vector_1'> +2.4937246e-04 </wgt>
<wgt id='morphing_basis_vector_2'> +1.6294409e-04 </wgt>
<wgt id='morphing_basis_vector_3'> +2.5844462e-04 </wgt>
<wgt id='morphing_basis_vector_4'> +1.7419825e-04 </wgt>
<wgt id='morphing_basis_vector_5'> +2.7715669e-04 </wgt>
</rwgt>
</event>
<event>
 4      1 +3.5234200e-07 1.29634800e+03 7.81860800e-03 8.44410400e-02
        2 -1    0    0  501    0 +0.0000000000e+00 +0.0000000000e+00 +1.2673989084e+03 1.2673989084e+03 0.0000000000e+00 0.0000e+00 -1.0000e+00
       -2 -1    0    0    0  501 -0.0000000000e+00 -0.0000000000e+00 -3.3148952819e+02 3.3148952819e+02 0.0000000000e+00 0.0000e+00 1.0000e+00
      -13  1    1    2    0    0 +5.1394132576e+02 +1.7603087796e+02 +3.1877264996e+01 5.4418628827e+02 0.0000000000e+00 0.0000e+00 1.0000e+00
       13  1    1    2    0    0 -5.1394132576e+02 -1.7603087796e+02 +9.0403211518e+02 1.0547021483e+03 0.0000000000e+00 0.0000e+00 -1.0000e+00
<mgrwt>
<rscale>  0 0.12963479E+04</rscale>
<asrwt>0</asrwt>
<pdfrwt beam="1">  1        2 0.19498444E+00 0.12963479E+04</pdfrwt>
<pdfrwt beam="2">  1       -2 0.50998390E-01 0.12963479E+04</pdfrwt>
<totfact> 0.77274850E+01</totfact>
</mgrwt>
<rwgt>
<wgt id='morphing_basis_vector_1'> +1.4780866e-04 </wgt>
<wgt id='morphing_basis_vector_2'> +9.6577309e-05 </wgt>
<wgt id='morphing_basis_vector_3'> +1.5023010e-04 </wgt>
<wgt id='morphing_basis_vector_4'> +9.7485487e-05 </wgt>
<wgt id='morphing_basis_vector_5'> +1.5627609e-04 </wgt>
</rwgt>
</event>
<event>
 4      1 +3.5234200e-07 1.29225900e+03 7.81860800e-03 8.44694600e-02
        2 -1    0    0  501    0 +0.0000000000e+00 +0.0000000000e+00 +7.5461592490e+02 7.5461592490e+02 0.0000000000e+00 0.0000e+00 -1.0000e+00
       -2 -1    0    0    0  501 -0.0000000000e+00 -0.0000000000e+00 -5.5323970830e+02 5.5323970830e+02 0.0000000000e+00 0.0000e+00 1.0000e+00
      -13  1    1    2    0    0 -5.5093494035e+02 +3.2955809760e+02 +1.7468445081e+02 6.6532135509e+02 0.0000000000e+00 0.0000e+00 1.0000e+00
       13  1    1    2    0    0 +5.5093494035e+02 -3.2955809760e+02 +2.6691765797e+01 6.4253427811e+02 0.0000000000e+00 0.0000e+00 -1.0000e+00
<mgrwt>
<rscale>  0 0.12922593E+04</rscale>
<asrwt>0</asrwt>
<pdfrwt beam="1">  1        2 0.11609476E+00 0.12922593E+04</pdfrwt>
<pdfrwt beam="2">  1       -2 0.85113802E-01 0.12922593E+04</pdfrwt>
<totfact> 0.54925032E+01</totfact>
</mgrwt>
<rwgt>
<wgt id='morphing_basis_vector_1'> +1.5339121e-04 </wgt>
<wgt id='morphing_basis_vector_2'> +1.1741422e-04 </wgt>
<wgt id='morphing_basis_vector_3'> +1.5716159e-04 </wgt>
<wgt id='morphing_basis_vector_4'> +8.3176773e-05 </wgt>
<wgt id='morphing_basis_vector_5'> +1.5330166e-04 </wgt>
</rwgt>
</event>
<event>
 4      1 +3.5234200e-07 1.31016200e+03 7.81860800e-03 8.43458300e-02
        2 -1    0    0  501    0 +0.0000000000e+00 +0.0000000000e+00 +1.8414843019e+03 1.8414843019e+03 0.0000000000e+00 0.0000e+00 -1.0000e+00
       -2 -1    0    0    0  501 -0.0000000000e+00 -0.0000000000e+00 -2.3303560123e+02 2.3303560123e+02 0.0000000000e+00 0.0000e+00 1.0000e+00
      -13  1    1    2    0    0 +5.7422626281e+02 -3.1116696576e+02 +8.8450665791e+02 1.0995056659e+03 0.0000000000e+00 0.0000e+00 1.0000e+00
       13  1    1    2    0    0 -5.7422626281e+02 +3.1116696576e+02 +7.2394204272e+02 9.7501423718e+02 0.0000000000e+00 0.0000e+00 -1.0000e+00
<mgrwt>
<rscale>  0 0.13101624E+04</rscale>
<asrwt>0</asrwt>
<pdfrwt beam="1">  1        2 0.28330527E+00 0.13101624E+04</pdfrwt>
<pdfrwt beam="2">  1       -2 0.35851632E-01 0.13101624E+04</pdfrwt>
<totfact> 0.71847063E+01</totfact>
</mgrwt>
<rwgt>
<wgt id='morphing_basis_vector_1'> +1.6069103e-04 </wgt>
<wgt id='morphing_basis_vector_2'> +1.2097425e-04 </wgt>
<wgt id='morphing_basis_vector_3'> +1.6490948e-04 </wgt>
<wgt id='morphing_basis_vector_4'> +8.9822184e-05 </wgt>
<wgt id='morphing_basis_vector_5'> +1.6252779e-04 </wgt>
</rwgt>
</event>
<event>
 4      1 +3.5234200e-07 1.51805400e+03 7.81860800e-03 8.30455500e-02
        2 -1    0    0  501    0 +0.0000000000e+00 +0.0000000000e+00 +1.8248256925e+03 1.8248256925e+03 0.0000000000e+00 0.0000e+00 -1.0000e+00
       -2 -1    0    0    0  501 -0.0000000000e+00 -0.0000000000e+00 -3.1571323013e+02 3.1571323013e+02 0.0000000000e+00 0.0000e+00 1.0000e+00
      -13  1    1    2    0    0 +7.5344843526e+02 +4.4697726393e+01 +8.6770541217e+02 1.1500413530e+03 0.0000000000e+00 0.0000e+00 1.0000e+00
       13  1    1    2    0    0 -7.5344843526e+02 -4.4697726393e+01 +6.4140705018e+02 9.9049756959e+02 0.0000000000e+00 0.0000e+00 -1.0000e+00
<mgrwt>
<rscale>  0 0.15180535E+04</rscale>
<asrwt>0</asrwt>
<pdfrwt beam="1">  1        2 0.28074241E+00 0.15180535E+04</pdfrwt>
<pdfrwt beam="2">  1       -2 0.48571267E-01 0.15180535E+04</pdfrwt>
<totfact> 0.40680938E+01</totfact>
</mgrwt>
<rwgt>
<wgt id='morphing_basis_vector_1'> +2.8428894e-04 </wgt>
<wgt id='morphing_basis_vector_2'> +2.1920525e-04 </wgt>
<wgt id='morphing_basis_vector_3'> +2.9936207e-04 </wgt>
<wgt id='morphing_basis_vector_4'> +1.6303362e-04 </wgt>
<wgt id='morphing_basis_vector_5'> +2.9991100e-04 </wgt>
</rwgt>
</event>
<event>
 4      1 +3.5234200e-07 1.33351200e+03 7.81860800e-03 8.41876600e-02
        2 -1    0    0  501    0 +0.0000000000e+00 +0.0000000000e+00 +7.5961410384e+02 7.5961410384e+02 0.0000000000e+00 0.0000e+00 -1.0000e+00
       -2 -1    0    0    0  501 -0.0000000000e+00 -0.0000000000e+00 -5.8524914539e+02 5.8524914539e+02 0.0000000000e+00 0.0000e+00 1.0000e+00
      -13  1    1    2    0    0 +6.5433013950e+02 +8.6502723336e+01 +1.8250078349e+02 6.8478988645e+02 0.0000000000e+00 0.0000e+00 1.0000e+00
       13  1    1    2    0    0 -6.5433013950e+02 -8.6502723336e+01 -8.1358250397e+00 6.6007336278e+02 0.0000000000e+00 0.0000e+00 -1.0000e+00
<mgrwt>
<rscale>  0 0.13335119E+04</rscale>
<asrwt>0</asrwt>
<pdfrwt beam="1">  1        2 0.11686371E+00 0.13335119E+04</pdfrwt>
<pdfrwt beam="2">  1       -2 0.90038330E-01 0.13335119E+04</pdfrwt>
<totfact> 0.47646167E+01</totfact>
</mgrwt>
<rwgt>
<wgt id='morphing_basis_vector_1'> +1.7386559e-04 </wgt>
<wgt id='morphing_basis_vector_2'> +1.3544381e-04 </wgt>
<wgt id='morphing_basis_vector_3'> +1.7940081e-04 </wgt>
<wgt id='morphing_basis_vector_4'> +9.3187494e-05 </wgt>
<wgt id='morphing_basis_vector_5'> +1.7475488e-04 </wgt>
</rwgt>
</event>
<event>
 4      1 +3.5234200e-07 1.52656600e+03 7.81860800e-03 8.29969900e-02
        2 -1    0    0  501    0 +0.0000000000e+00 +0.0000000000e+00 +9.3292830359e+02 9.3292830359e+02 0.0000000000e+00 0.0000e+00 -1.0000e+00
       -2 -1    0    0    0  501 -0.0000000000e+00 -0.0000000000e+00 -6.2448588963e+02 6.2448588963e+02 0.0000000000e+00 0.0000e+00 1.0000e+00
      -13  1    1    2    0    0 +3.2849741673e+02 -4.9568893867e+02 -3.3396984512e+02 6.8202194552e+02 0.0000000000e+00 0.0000e+00 1.0000e+00
       13  1    1    2    0    0 -3.2849741673e+02 +4.9568893867e+02 +6.4241225908e+02 8.7539224770e+02 0.0000000000e+00 0.0000e+00 -1.0000e+00
<mgrwt>
<rscale>  0 0.15265655E+04</rscale>
<asrwt>0</asrwt>
<pdfrwt beam="1">  1        2 0.14352743E+00 0.15265655E+04</pdfrwt>
<pdfrwt beam="2">  1       -2 0.96074752E-01 0.15265655E+04</pdfrwt>
<totfact> 0.30725110E+01</totfact>
</mgrwt>
<rwgt>
<wgt id='morphing_basis_vector_1'> +2.7649900e-04 </wgt>
<wgt id='morphing_basis_vector_2'> +1.8235950e-04 </wgt>
<wgt id='morphing_basis_vector_3'> +2.8766485e-04 </wgt>
<wgt id='morphing_basis_vector_4'> +1.9309523e-04 </wgt>
<wgt id='morphing_basis_vector_5'> +3.0889054e-04 </wgt>
</rwgt>
</event>
<event>
 4      1 +3.5234200e-07 1.36077100e+03 7.81860800e-03 8.40072300e-02
        2 -1    0    0  501    0 +0.0000000000e+00 +0.0000000000e+00 +1.3831508834e+03 1.3831508834e+03 0.0000000000e+00 0.0000e+00 1.0000e+00
       -2 -1    0    0    0  501 -0.0000000000e+00 -0.0000000000e+00 -3.3468840468e+02 3.3468840468e+02 0.0000000000e+00 0.0000e+00 -1.0000e+00
      -13  1    1    2    0    0 +3.3369945948e+02 -4.7786466425e+02 +9.6735853422e+02 1.1293770408e+03 0.0000000000e+00 0.0000e+00 1.0000e+00
       13  1    1    2    0    0 -3.3369945948e+02 +4.7786466425e+02 +8.1103944467e+01 5.8846224723e+02 0.0000000000e+00 0.0000e+00 -1.0000e+00
<mgrwt>
<rscale>  0 0.13607712E+04</rscale>
<asrwt>0</asrwt>
<pdfrwt beam="1">  1        2 0.21279244E+00 0.13607712E+04</pdfrwt>
<pdfrwt beam="2">  1       -2 0.51490525E-01 0.13607712E+04</pdfrwt>
<totfact> 0.64805747E+01</totfact>
</mgrwt>
<rwgt>
<wgt id='morphing_basis_vector_1'> +2.1106968e-04 </wgt>
<wgt id='morphing_basis_vector_2'> +2.1593692e-04 </wgt>
<wgt id='morphing_basis_vector_3'> +2.2335214e-04 </wgt>
<wgt id='morphing_basis_vector_4'> +5.9445895e-05 </wgt>
<wgt id='morphing_basis_vector_5'> +1.8716600e-04 </wgt>
</rwgt>
</event>
<event>
 4      1 +3.5234200e-07 1.37269000e+03 7.81860800e-03 8.39297200e-02
        2 -1    0    0  501    0 +0.0000000000e+00 +0.0000000000e+00 +1.2648096401e+03 1.2648096401e+03 0.0000000000e+00 0.0000e+00 1.0000e+00
       -2 -1    0    0    0  501 -0.0000000000e+00 -0.0000000000e+00 -3.7244305605e+02 3.7244305605e+02 0.0000000000e+00 0.0000e+00 -1.0000e+00
      -13  1    1    2    0    0 -5.5715557099e+02 +2.7958162099e+02 +1.0363556764e+02 6.3192447647e+02 0.0000000000e+00 0.0000e+00 -1.0000e+00
       13  1    1    2    0    0 +5.5715557099e+02 -2.7958162099e+02 +7.8873101646e+02 1.0053282197e+03 0.0000000000e+00 0.0000e+00 1.0000e+00
<mgrwt>
<rscale>  0 0.13726902E+04</rscale>
<asrwt>0</asrwt>
<pdfrwt beam="1">  1        2 0.19458610E+00 0.13726902E+04</pdfrwt>
<pdfrwt beam="2">  1       -2 0.57298932E-01 0.13726902E+04</pdfrwt>
<totfact> 0.61054348E+01</totfact>
</mgrwt>
<rwgt>
<wgt id='morphing_basis_vector_1'> +1.8453584e-04 </wgt>
<wgt id='morphing_basis_vector_2'> +1.2258789e-04 </wgt>
<wgt id='morphing_basis_vector_3'> +1.8940410e-04 </wgt>
<wgt id='morphing_basis_vector_4'> +1.2274035e-04 </wgt>
<wgt id='morphing_basis_vector_5'> +1.9849465e-04 </wgt>
</rwgt>
</event>
<event>
 4      1 +3.5234200e-07 1.35765400e+03 7.81860800e-03 8.40276400e-02
        2 -1    0    0  501    0 +0.0000000000e+00 +0.0000000000e+00 +6.7402112117e+02 6.7402112117e+02 0.0000000000e+00 0.0000e+00 -1.0000e+00
       -2 -1    0    0    0  501 -0.0000000000e+00 -0.0000000000e+00 -6.8366758758e+02 6.8366758758e+02 0.0000000000e+00 0.0000e+00 1.0000e+00
      -13  1    1    2    0    0 +4.4380566170e+02 -1.6337634877e+02 -4.9181714452e+02 6.8230447773e+02 0.0000000000e+00 0.0000e+00 1.0000e+00
       13  1    1    2    0    0 -4.4380566170e+02 +1.6337634877e+02 +4.8217067810e+02 6.7538423102e+02 0.0000000000e+00 0.0000e+00 -1.0000e+00
<mgrwt>
<rscale>  0 0.13576544E+04</rscale>
<asrwt>0</asrwt>
<pdfrwt beam="1">  1        2 0.10369556E+00 0.13576544E+04</pdfrwt>
<pdfrwt beam="2">  1       -2 0.10517963E+00 0.13576544E+04</pdfrwt>
<totfact> 0.38012560E+01</totfact>
</mgrwt>
<rwgt>
<wgt id='morphing_basis_vector_1'> +1.7593672e-04 </wgt>
<wgt id='morphing_basis_vector_2'> +1.1449193e-04 </wgt>
<wgt id='morphing_basis_vector_3'> +1.8006305e-04 </wgt>
<wgt id='morphing_basis_vector_4'> +1.1899492e-04 </wgt>
<wgt id='morphing_basis_vector_5'> +1.8969639e-04 </wgt>
</rwgt>
</event>
<event>
 4      1 +3.5234200e-07 1.44269200e+03 7.81860800e-03 8.34904300e-02
        2 -1    0    0  501    0 +0.0000000000e+00 +0.0000000000e+00 +1.4767907232e+03 1.4767907232e+03 0.0000000000e+00 0.0000e+00 1.0000e+00
       -2 -1    0    0    0  501 -0.0000000000e+00 -0.0000000000e+00 -3.5234531937e+02 3.5234531937e+02 0.0000000000e+00 0.0000e+00 -1.0000e+00
      -13  1    1    2    0    0 -2.8699019217e+02 +1.0435296466e+02 -2.6635006262e+02 4.0521015226e+02 0.0000000000e+00 0.0000e+00 -1.0000e+00
       13  1    1    2    0    0 +2.8699019217e+02 -1.0435296466e+02 +1.3907954664e+03 1.4239258903e+03 0.0000000000e+00 0.0000e+00 1.0000e+00
<mgrwt>
<rscale>  0 0.14426923E+04</rscale>
<asrwt>0</asrwt>
<pdfrwt beam="1">  1        2 0.22719857E+00 0.14426923E+04</pdfrwt>
<pdfrwt beam="2">  1       -2 0.54206973E-01 0.14426923E+04</pdfrwt>
<totfact> 0.51480516E+01</totfact>
</mgrwt>
<rwgt>
<wgt id='morphing_basis_vector_1'> +2.2192142e-04 </wgt>
<wgt id='morphing_basis_vector_2'> +1.4467566e-04 </wgt>
<wgt id='morphing_basis_vector_3'> +2.2907606e-04 </wgt>
<wgt id='morphing_basis_vector_4'> +1.5361802e-04 </wgt>
<wgt id='morphing_basis_vector_5'> +2.4439372e-04 </wgt>
</rwgt>
</event>
<event>
 4      1 +3.5234200e-07 1.46534300e+03 7.81860800e-03 8.33538100e-02
        2 -1    0    0  501    0 +0.0000000000e+00 +0.0000000000e+00 +1.5501013735e+03 1.5501013735e+03 0.0000000000e+00 0.0000e+00 1.0000e+00
       -2 -1    0    0    0  501 -0.0000000000e+00 -0.0000000000e+00 -3.4630500553e+02 3.4630500553e+02 0.0000000000e+00 0.0000e+00 -1.0000e+00
      -13  1    1    2    0    0 -1.0476211520e+02 -5.0135188019e+02 -7.6128182535e+01 5.1780721193e+02 0.0000000000e+00 0.0000e+00 -1.0000e+00
       13  1    1    2    0    0 +1.0476211520e+02 +5.0135188019e+02 +1.2799245505e+03 1.3785991671e+03 0.0000000000e+00 0.0000e+00 1.0000e+00
<mgrwt>
<rscale>  0 0.14653435E+04</rscale>
<asrwt>0</asrwt>
<pdfrwt beam="1">  1        2 0.23847713E+00 0.14653435E+04</pdfrwt>
<pdfrwt beam="2">  1       -2 0.53277694E-01 0.14653435E+04</pdfrwt>
<totfact> 0.48402279E+01</totfact>
</mgrwt>
<rwgt>
<wgt id='morphing_basis_vector_1'> +2.3587646e-04 </wgt>
<wgt id='morphing_basis_vector_2'> +1.5452600e-04 </wgt>
<wgt id='morphing_basis_vector_3'> +2.4405297e-04 </wgt>
<wgt id='morphing_basis_vector_4'> +1.6343245e-04 </wgt>
<wgt id='morphing_basis_vector_5'> +2.6070539e-04 </wgt>
</rwgt>
</event>
<event>
 4      1 +3.5234200e-07 1.32892600e+03 7.81860800e-03 8.42184600e-02
        2 -1    0    0  501    0 +0.0000000000e+00 +0.0000000000e+00 +6.0433988145e+02 6.0433988145e+02 0.0000000000e+00 0.0000e+00 1.0000e+00
       -2 -1    0    0    0  501 -0.0000000000e+00 -0.0000000000e+00 -7.3056768993e+02 7.3056768993e+02 0.0000000000e+00 0.0000e+00 -1.0000e+00
      -13  1    1    2    0    0 +1.1113973206e+02 +6.3794091049e+02 +8.6521490837e+01 6.5330438059e+02 0.0000000000e+00 0.0000e+00 1.0000e+00
       13  1    1    2    0    0 -1.1113973206e+02 -6.3794091049e+02 -2.1274929932e+02 6.8160319078e+02 0.0000000000e+00 0.0000e+00 -1.0000e+00
<mgrwt>
<rscale>  0 0.13289262E+04</rscale>
<asrwt>0</asrwt>
<pdfrwt beam="1">  1        2 0.92975366E-01 0.13289262E+04</pdfrwt>
<pdfrwt beam="2">  1       -2 0.11239503E+00 0.13289262E+04</pdfrwt>
<totfact> 0.36784208E+01</totfact>
</mgrwt>
<rwgt>
<wgt id='morphing_basis_vector_1'> +1.7467880e-04 </wgt>
<wgt id='morphing_basis_vector_2'> +1.4288014e-04 </wgt>
<wgt id='morphing_basis_vector_3'> +1.8070819e-04 </wgt>
<wgt id='morphing_basis_vector_4'> +8.6326389e-05 </wgt>
<wgt id='morphing_basis_vector_5'> +1.7186096e-04 </wgt>
</rwgt>
</event>
<event>
 4      1 +3.5234200e-07 1.29198000e+03 7.81860800e-03 8.44714100e-02
        2 -1    0    0  501    0 +0.0000000000e+00 +0.0000000000e+00 +3.3243997619e+03 3.3243997619e+03 0.0000000000e+00 0.0000e+00 -1.0000e+00
       -2 -1    0    0    0  501 -0.0000000000e+00 -0.0000000000e+00 -1.2552729549e+02 1.2552729549e+02 0.0000000000e+00 0.0000e+00 1.0000e+00
      -13  1    1    2    0    0 -5.6090127913e+02 -2.5982779543e+02 +1.0985770953e+03 1.2605524037e+03 0.0000000000e+00 0.0000e+00 1.0000e+00
       13  1    1    2    0    0 +5.6090127913e+02 +2.5982779543e+02 +2.1002953712e+03 2.1893746537e+03 0.0000000000e+00 0.0000e+00 -1.0000e+00
<mgrwt>
<rscale>  0 0.12919797E+04</rscale>
<asrwt>0</asrwt>
<pdfrwt beam="1">  1        2 0.51144605E+00 0.12919797E+04</pdfrwt>
<pdfrwt beam="2">  1       -2 0.19311894E-01 0.12919797E+04</pdfrwt>
<totfact> 0.26570051E+01</totfact>
</mgrwt>
<rwgt>
<wgt id='morphing_basis_vector_1'> +1.4712727e-04 </wgt>
<wgt id='morphing_basis_vector_2'> +9.8930627e-05 </wgt>
<wgt id='morphing_basis_vector_3'> +1.4967289e-04 </wgt>
<wgt id='morphing_basis_vector_4'> +9.3976262e-05 </wgt>
<wgt id='morphing_basis_vector_5'> +1.5392690e-04 </wgt>
</rwgt>
</event>
<event>
 4      1 +3.5234200e-07 1.53343800e+03 7.81860800e-03 8.29580100e-02
        2 -1    0    0  501    0 +0.0000000000e+00 +0.0000000000e+00 +1.3873934531e+03 1.3873934531e+03 0.0000000000e+00 0.0000e+00 -1.0000e+00
       -2 -1    0    0    0  501 -0.0000000000e+00 -0.0000000000e+00 -4.2371393826e+02 4.2371393826e+02 0.0000000000e+00 0.0000e+00 1.0000e+00
      -13  1    1    2    0    0 +6.8276897157e+02 -8.8151256102e+01 +8.3213188677e+01 6.9344685972e+02 0.0000000000e+00 0.0000e+00 1.0000e+00
       13  1    1    2    0    0 -6.8276897157e+02 +8.8151256102e+01 +8.8046632619e+02 1.1176605317e+03 0.0000000000e+00 0.0000e+00 -1.0000e+00
<mgrwt>
<rscale>  0 0.15334379E+04</rscale>
<asrwt>0</asrwt>
<pdfrwt beam="1">  1        2 0.21344514E+00 0.15334379E+04</pdfrwt>
<pdfrwt beam="2">  1       -2 0.65186760E-01 0.15334379E+04</pdfrwt>
<totfact> 0.39326480E+01</totfact>
</mgrwt>
<rwgt>
<wgt id='morphing_basis_vector_1'> +2.8243108e-04 </wgt>
<wgt id='morphing_basis_vector_2'> +1.8886558e-04 </wgt>
<wgt id='morphing_basis_vector_3'> +2.9430741e-04 </wgt>
<wgt id='morphing_basis_vector_4'> +1.9466467e-04 </wgt>
<wgt id='morphing_basis_vector_5'> +3.1453498e-04 </wgt>
</rwgt>
</event>
<event>
 4      1 +3.5234200e-07 1.40974000e+03 7.81860800e-03 8.36939100e-02
        2 -1    0    0  501    0 +0.0000000000e+00 +0.0000000000e+00 +1.0750098793e+03 1.0750098793e+03 0.0000000000e+00 0.0000e+00 1.0000e+00
       -2 -1    0    0    0  501 -0.0000000000e+00 -0.0000000000e+00 -4.6217402793e+02 4.6217402793e+02 0.0000000000e+00 0.0000e+00 -1.0000e+00
      -13  1    1    2    0    0 +5.3889051527e+02 +1.5005932225e+01 -1.8874185717e+02 5.7118443090e+02 0.0000000000e+00 0.0000e+00 -1.0000e+00
       13  1    1    2    0    0 -5.3889051527e+02 -1.5005932225e+01 +8.0157770851e+02 9.6599947631e+02 0.0000000000e+00 0.0000e+00 1.0000e+00
<mgrwt>
<rscale>  0 0.14097399E+04</rscale>
<asrwt>0</asrwt>
<pdfrwt beam="1">  1        2 0.16538613E+00 0.14097399E+04</pdfrwt>
<pdfrwt beam="2">  1       -2 0.71103697E-01 0.14097399E+04</pdfrwt>
<totfact> 0.50200727E+01</totfact>
</mgrwt>
<rwgt>
<wgt id='morphing_basis_vector_1'> +2.0342082e-04 </wgt>
<wgt id='morphing_basis_vector_2'> +1.3319633e-04 </wgt>
<wgt id='morphing_basis_vector_3'> +2.0939036e-04 </wgt>
<wgt id='morphing_basis_vector_4'> +1.3889781e-04 </wgt>
<wgt id='morphing_basis_vector_5'> +2.2193912e-04 </wgt>
</rwgt>
</event>
<event>
 4      1 +3.5234200e-07 1.35836300e+03 7.81860800e-03 8.40229900e-02
        2 -1    0    0  501    0 +0.0000000000e+00 +0.0000000000e+00 +2.0063988490e+03 2.0063988490e+03 0.0000000000e+00 0.0000e+00 -1.0000e+00
       -2 -1    0    0    0  501 -0.0000000000e+00 -0.0000000000e+00 -2.2990814715e+02 2.2990814715e+02 0.0000000000e+00 0.0000e+00 1.0000e+00
      -13  1    1    2    0    0 -9.7766509651e+01 +6.4134496028e+02 +1.2191763346e+03 1.3810403989e+03 0.0000000000e+00 0.0000e+00 1.0000e+00
       13  1    1    2    0    0 +9.7766509651e+01 -6.4134496028e+02 +5.5731436730e+02 8.5526659732e+02 0.0000000000e+00 0.0000e+00 -1.0000e+00
<mgrwt>
<rscale>  0 0.13583629E+04</rscale>
<asrwt>0</asrwt>
<pdfrwt beam="1">  1        2 0.30867674E+00 0.13583629E+04</pdfrwt>
<pdfrwt beam="2">  1       -2 0.35370485E-01 0.13583629E+04</pdfrwt>
<totfact> 0.59346321E+01</totfact>
</mgrwt>
<rwgt>
<wgt id='morphing_basis_vector_1'> +1.9361065e-04 </wgt>
<wgt id='morphing_basis_vector_2'> +1.6652404e-04 </wgt>
<wgt id='morphing_basis_vector_3'> +2.0189144e-04 </wgt>
<wgt id='morphing_basis_vector_4'> +8.7967503e-05 </wgt>
<wgt id='morphing_basis_vector_5'> +1.8786601e-04 </wgt>
</rwgt>
</event>
<event>
 4      1 +3.5234200e-07 1.29219900e+03 7.81860800e-03 8.44698800e-02
        2 -1    0    0  501    0 +0.0000000000e+00 +0.0000000000e+00 +3.6610237476e+02 3.6610237476e+02 0.0000000000e+00 0.0000e+00 -1.0000e+00
       -2 -1    0    0    0  501 -0.0000000000e+00 -0.0000000000e+00 -1.1402396766e+03 1.1402396766e+03 0.0000000000e+00 0.0000e+00 1.0000e+00
      -13  1    1    2    0    0 -1.2055974596e+02 +4.3398437226e+02 -9.2704668281e+02 1.0306758170e+03 0.0000000000e+00 0.0000e+00 1.0000e+00
       13  1    1    2    0    0 +1.2055974596e+02 -4.3398437226e+02 +1.5290938095e+02 4.7566623434e+02 0.0000000000e+00 0.0000e+00 -1.0000e+00
<mgrwt>
<rscale>  0 0.12921988E+04</rscale>
<asrwt>0</asrwt>
<pdfrwt beam="1">  1        2 0.56323443E-01 0.12921988E+04</pdfrwt>
<pdfrwt beam="2">  1       -2 0.17542149E+00 0.12921988E+04</pdfrwt>
<totfact> 0.18910790E+01</totfact>
</mgrwt>
<rwgt>
<wgt id='morphing_basis_vector_1'> +1.4567116e-04 </wgt>
<wgt id='morphing_basis_vector_2'> +9.4349476e-05 </wgt>
<wgt id='morphing_basis_vector_3'> +1.4791556e-04 </wgt>
<wgt id='morphing_basis_vector_4'> +9.6791740e-05 </wgt>
<wgt id='morphing_basis_vector_5'> +1.5422972e-04 </wgt>
</rwgt>
</event>
<event>
 4      1 +3.5234200e-07 1.29495600e+03 7.81860800e-03 8.44507000e-02
        2 -1    0    0  501    0 +0.0000000000e+00 +0.0000000000e+00 +8.4737421706e+02 8.4737421706e+02 0.0000000000e+00 0.0000e+00 1.0000e+00
       -2 -1    0    0    0  501 -0.0000000000e+00 -0.0000000000e+00 -4.9473774168e+02 4.9473774168e+02 0.0000000000e+00 0.0000e+00 -1.0000e+00
      -13  1    1    2    0    0 +5.4162207953e+02 +2.1696938285e+02 -1.1461322992e+02 5.9461448234e+02 0.0000000000e+00 0.0000e+00 -1.0000e+00
       13  1    1    2    0    0 -5.4162207953e+02 -2.1696938285e+02 +4.6724970530e+02 7.4749747641e+02 0.0000000000e+00 0.0000e+00 1.0000e+00
<mgrwt>
<rscale>  0 0.12949564E+04</rscale>
<asrwt>0</asrwt>
<pdfrwt beam="1">  1        2 0.13036526E+00 0.12949564E+04</pdfrwt>
<pdfrwt beam="2">  1       -2 0.76113498E-01 0.12949564E+04</pdfrwt>
<totfact> 0.60933636E+01</totfact>
</mgrwt>
<rwgt>
<wgt id='morphing_basis_vector_1'> +1.4760397e-04 </wgt>
<wgt id='morphing_basis_vector_2'> +9.7368591e-05 </wgt>
<wgt id='morphing_basis_vector_3'> +1.5006840e-04 </wgt>
<wgt id='morphing_basis_vector_4'> +9.6339899e-05 </wgt>
<wgt id='morphing_basis_vector_5'> +1.5552335e-04 </wgt>
</rwgt>
</event>
<event>
 4      1 +3.5234200e-07 1.53678000e+03 7.81860800e-03 8.29391400e-02
        2 -1    0    0  501    0 +0.0000000000e+00 +0.0000000000e+00 +7.2550716127e+02 7.2550716127e+02 0.0000000000e+00 0.0000e+00 -1.0000e+00
       -2 -1    0    0    0  501 -0.0000000000e+00 -0.0000000000e+00 -8.1380795377e+02 8.1380795377e+02 0.0000000000e+00 0.0000e+00 1.0000e+00
      -13  1    1    2    0    0 -7.0795341371e+02 +2.7426890524e+02 +7.4374947360e+01 7.6285850665e+02 0.0000000000e+00 0.0000e+00 1.0000e+00
       13  1    1    2    0    0 +7.0795341371e+02 -2.7426890524e+02 -1.6267573987e+02 7.7645660839e+02 0.0000000000e+00 0.0000e+00 -1.0000e+00
<mgrwt>
<rscale>  0 0.15367804E+04</rscale>
<asrwt>0</asrwt>
<pdfrwt beam="1">  1        2 0.11161649E+00 0.15367804E+04</pdfrwt>
<pdfrwt beam="2">  1       -2 0.12520122E+00 0.15367804E+04</pdfrwt>
<totfact> 0.21938651E+01</totfact>
</mgrwt>
<rwgt>
<wgt id='morphing_basis_vector_1'> +3.0078336e-04 </wgt>
<wgt id='morphing_basis_vector_2'> +2.3805051e-04 </wgt>
<wgt id='morphing_basis_vector_3'> +3.1802459e-04 </wgt>
<wgt id='morphing_basis_vector_4'> +1.6642489e-04 </wgt>
<wgt id='morphing_basis_vector_5'> +3.1514127e-04 </wgt>
</rwgt>
</event>
<event>
 4      1 +3.5234200e-07 1.37228800e+03 7.81860800e-03 8.39323200e-02
        2 -1    0    0  501    0 +0.0000000000e+00 +0.0000000000e+00 +7.8072367845e+02 7.8072367845e+02 0.0000000000e+00 0.0000e+00 -1.0000e+00
       -2 -1    0    0    0  501 -0.0000000000e+00 -0.0000000000e+00 -6.0302219894e+02 6.0302219894e+02 0.0000000000e+00 0.0000e+00 1.0000e+00
      -13  1    1    2    0    0 -2.8803710228e+02 +6.1863914739e+02 +1.6095965014e+02 7.0113320842e+02 0.0000000000e+00 0.0000e+00 1.0000e+00
       13  1    1    2    0    0 +2.8803710228e+02 -6.1863914739e+02 +1.6741829362e+01 6.8261266896e+02 0.0000000000e+00 0.0000e+00 -1.0000e+00
<mgrwt>
<rscale>  0 0.13722882E+04</rscale>
<asrwt>0</asrwt>
<pdfrwt beam="1">  1        2 0.12011134E+00 0.13722882E+04</pdfrwt>
<pdfrwt beam="2">  1       -2 0.92772646E-01 0.13722882E+04</pdfrwt>
<totfact> 0.42774059E+01</totfact>
</mgrwt>
<rwgt>
<wgt id='morphing_basis_vector_1'> +1.9271099e-04 </wgt>
<wgt id='morphing_basis_vector_2'> +1.4750347e-04 </wgt>
<wgt id='morphing_basis_vector_3'> +1.9963046e-04 </wgt>
<wgt id='morphing_basis_vector_4'> +1.0739555e-04 </wgt>
<wgt id='morphing_basis_vector_5'> +1.9715784e-04 </wgt>
</rwgt>
</event>
<event>
 4      1 +3.5234200e-07 1.50394900e+03 7.81860800e-03 8.31267500e-02
        2 -1    0    0  501    0 +0.0000000000e+00 +0.0000000000e+00 +1.4567457226e+03 1.4567457226e+03 0.0000000000e+00 0.0000e+00 1.0000e+00
       -2 -1    0    0    0  501 -0.0000000000e+00 -0.0000000000e+00 -3.8817060746e+02 3.8817060746e+02 0.0000000000e+00 0.0000e+00 -1.0000e+00
      -13  1    1    2    0    0 +3.3227050711e+01 +3.2165898967e+02 -2.9852176068e+02 4.4009519894e+02 0.0000000000e+00 0.0000e+00 -1.0000e+00
       13  1    1    2    0    0 -3.3227050711e+01 -3.2165898967e+02 +1.3670968758e+03 1.4048211311e+03 0.0000000000e+00 0.0000e+00 1.0000e+00
<mgrwt>
<rscale>  0 0.15039493E+04</rscale>
<asrwt>0</asrwt>
<pdfrwt beam="1">  1        2 0.22411472E+00 0.15039493E+04</pdfrwt>
<pdfrwt beam="2">  1       -2 0.59718556E-01 0.15039493E+04</pdfrwt>
<totfact> 0.43198275E+01</totfact>
</mgrwt>
<rwgt>
<wgt id='morphing_basis_vector_1'> +2.6049195e-04 </wgt>
<wgt id='morphing_basis_vector_2'> +1.7039583e-04 </wgt>
<wgt id='morphing_basis_vector_3'> +2.7036199e-04 </wgt>
<wgt id='morphing_basis_vector_4'> +1.8250870e-04 </wgt>
<wgt id='morphing_basis_vector_5'> +2.9044219e-04 </wgt>
</rwgt>
</event>
<event>
 4      1 +3.5234200e-07 1.40204700e+03 7.81860800e-03 8.37422500e-02
        2 -1    0    0  501    0 +0.0000000000e+00 +0.0000000000e+00 +2.2636226273e+03 2.2636226273e+03 0.0000000000e+00 0.0000e+00 -1.0000e+00
       -2 -1    0    0    0  501 -0.0000000000e+00 -0.0000000000e+00 -2.1710074456e+02 2.1710074456e+02 0.0000000000e+00 0.0000e+00 1.0000e+00
      -13  1    1    2    0    0 -2.9819090339e+02 +2.8745916087e+02 +2.2543100199e+01 4.1479968105e+02 0.0000000000e+00 0.0000e+00 1.0000e+00
       13  1    1    2    0    0 +2.9819090339e+02 -2.8745916087e+02 +2.0239787826e+03 2.0659236908e+03 0.0000000000e+00 0.0000e+00 -1.0000e+00
<mgrwt>
<rscale>  0 0.14020473E+04</rscale>
<asrwt>0</asrwt>
<pdfrwt beam="1">  1        2 0.34824962E+00 0.14020473E+04</pdfrwt>
<pdfrwt beam="2">  1       -2 0.33400116E-01 0.14020473E+04</pdfrwt>
<totfact> 0.46898597E+01</totfact>
</mgrwt>
<rwgt>
<wgt id='morphing_basis_vector_1'> +1.9891020e-04 </wgt>
<wgt id='morphing_basis_vector_2'> +1.2952513e-04 </wgt>
<wgt id='morphing_basis_vector_3'> +2.0452052e-04 </wgt>
<wgt id='morphing_basis_vector_4'> +1.3628656e-04 </wgt>
<wgt id='morphing_basis_vector_5'> +2.1697384e-04 </wgt>
</rwgt>
</event>
<event>
 4      1 +3.5234200e-07 1.33012400e+03 7.81860800e-03 8.42104000e-02
        2 -1    0    0  501    0 +0.0000000000e+00 +0.0000000000e+00 +1.0353239398e+03 1.0353239398e+03 0.0000000000e+00 0.0000e+00 1.0000e+00
       -2 -1    0    0    0  501 -0.0000000000e+00 -0.0000000000e+00 -4.2721666432e+02 4.2721666432e+02 0.0000000000e+00 0.0000e+00 -1.0000e+00
      -13  1    1    2    0    0 -6.1627958863e+02 +2.4898374903e+02 +3.2898708648e+02 7.4163733840e+02 0.0000000000e+00 0.0000e+00 1.0000e+00
       13  1    1    2    0    0 +6.1627958863e+02 -2.4898374903e+02 +2.7912018902e+02 7.2090326574e+02 0.0000000000e+00 0.0000e+00 -1.0000e+00
<mgrwt>
<rscale>  0 0.13301243E+04</rscale>
<asrwt>0</asrwt>
<pdfrwt beam="1">  1        2 0.15928061E+00 0.13301243E+04</pdfrwt>
<pdfrwt beam="2">  1       -2 0.65725641E-01 0.13301243E+04</pdfrwt>
<totfact> 0.63145623E+01</totfact>
</mgrwt>
<rwgt>
<wgt id='morphing_basis_vector_1'> +1.6914954e-04 </wgt>
<wgt id='morphing_basis_vector_2'> +1.2503182e-04 </wgt>
<wgt id='morphing_basis_vector_3'> +1.7387172e-04 </wgt>
<wgt id='morphing_basis_vector_4'> +9.7640646e-05 </wgt>
<wgt id='morphing_basis_vector_5'> +1.7329191e-04 </wgt>
</rwgt>
</event>
<event>
 4      1 +3.5234200e-07 1.35341400e+03 7.81860800e-03 8.40554900e-02
        2 -1    0    0  501    0 +0.0000000000e+00 +0.0000000000e+00 +4.6784137125e+02 4.6784137125e+02 0.0000000000e+00 0.0000e+00 -1.0000e+00
       -2 -1    0    0    0  501 -0.0000000000e+00 -0.0000000000e+00 -9.7881949219e+02 9.7881949219e+02 0.0000000000e+00 0.0000e+00 1.0000e+00
      -13  1    1    2    0    0 +9.7406173615e+01 +5.8578455126e+02 -6.0234717035e+02 8.4584491296e+02 0.0000000000e+00 0.0000e+00 1.0000e+00
       13  1    1    2    0    0 -9.7406173615e+01 -5.8578455126e+02 +9.1369049407e+01 6.0081595047e+02 0.0000000000e+00 0.0000e+00 -1.0000e+00
<mgrwt>
<rscale>  0 0.13534138E+04</rscale>
<asrwt>0</asrwt>
<pdfrwt beam="1">  1        2 0.71975596E-01 0.13534138E+04</pdfrwt>
<pdfrwt beam="2">  1       -2 0.15058761E+00 0.13534138E+04</pdfrwt>
<totfact> 0.22477424E+01</totfact>
</mgrwt>
<rwgt>
<wgt id='morphing_basis_vector_1'> +1.7450599e-04 </wgt>
<wgt id='morphing_basis_vector_2'> +1.1508123e-04 </wgt>
<wgt id='morphing_basis_vector_3'> +1.7865439e-04 </wgt>
<wgt id='morphing_basis_vector_4'> +1.1625513e-04 </wgt>
<wgt id='morphing_basis_vector_5'> +1.8714633e-04 </wgt>
</rwgt>
</event>
<event>
 4      1 +3.5234200e-07 1.35291300e+03 7.81860800e-03 8.40587900e-02
        2 -1    0    0  501    0 +0.0000000000e+00 +0.0000000000e+00 +8.5053794783e+02 8.5053794783e+02 0.0000000000e+00 0.0000e+00 -1.0000e+00
       -2 -1    0    0    0  501 -0.0000000000e+00 -0.0000000000e+00 -5.3800446568e+02 5.3800446568e+02 0.0000000000e+00 0.0000e+00 1.0000e+00
      -13  1    1    2    0    0 +2.0174826365e+01 +3.9686014333e+02 -4.0558819499e+02 5.6780875381e+02 0.0000000000e+00 0.0000e+00 1.0000e+00
       13  1    1    2    0    0 -2.0174826365e+01 -3.9686014333e+02 +7.1812167714e+02 8.2073365970e+02 0.0000000000e+00 0.0000e+00 -1.0000e+00
<mgrwt>
<rscale>  0 0.13529127E+04</rscale>
<asrwt>0</asrwt>
<pdfrwt beam="1">  1        2 0.13085199E+00 0.13529127E+04</pdfrwt>
<pdfrwt beam="2">  1       -2 0.82769918E-01 0.13529127E+04</pdfrwt>
<totfact> 0.49958247E+01</totfact>
</mgrwt>
<rwgt>
<wgt id='morphing_basis_vector_1'> +1.7348521e-04 </wgt>
<wgt id='morphing_basis_vector_2'> +1.1260079e-04 </wgt>
<wgt id='morphing_basis_vector_3'> +1.7743533e-04 </wgt>
<wgt id='morphing_basis_vector_4'> +1.1747089e-04 </wgt>
<wgt id='morphing_basis_vector_5'> +1.8695678e-04 </wgt>
</rwgt>
</event>
<event>
 4      1 +3.5234200e-07 1.34966000e+03 7.81860800e-03 8.40802400e-02
        2 -1    0    0  501    0 +0.0000000000e+00 +0.0000000000e+00 +1.8992577214e+03 1.8992577214e+03 0.0000000000e+00 0.0000e+00 -1.0000e+00
       -2 -1    0    0    0  501 -0.0000000000e+00 -0.0000000000e+00 -2.3977568167e+02 2.3977568167e+02 0.0000000000e+00 0.0000e+00 1.0000e+00
      -13  1    1    2    0    0 -5.1426942592e+02 -2.1948663298e+02 +2.3094533331e+02 6.0496542998e+02 0.0000000000e+00 0.0000e+00 1.0000e+00
       13  1    1    2    0    0 +5.1426942592e+02 +2.1948663298e+02 +1.4285367065e+03 1.5340679731e+03 0.0000000000e+00 0.0000e+00 -1.0000e+00
<mgrwt>
<rscale>  0 0.13496604E+04</rscale>
<asrwt>0</asrwt>
<pdfrwt beam="1">  1        2 0.29219349E+00 0.13496604E+04</pdfrwt>
<pdfrwt beam="2">  1       -2 0.36888568E-01 0.13496604E+04</pdfrwt>
<totfact> 0.63119527E+01</totfact>
</mgrwt>
<rwgt>
<wgt id='morphing_basis_vector_1'> +1.7236285e-04 </wgt>
<wgt id='morphing_basis_vector_2'> +1.1294405e-04 </wgt>
<wgt id='morphing_basis_vector_3'> +1.7632108e-04 </wgt>
<wgt id='morphing_basis_vector_4'> +1.1545333e-04 </wgt>
<wgt id='morphing_basis_vector_5'> +1.8502450e-04 </wgt>
</rwgt>
</event>
<event>
 4      1 +3.5234200e-07 1.37615600e+03 7.81860800e-03 8.39073300e-02
        2 -1    0    0  501    0 +0.0000000000e+00 +0.0000000000e+00 +2.6661616460e+03 2.6661616460e+03 0.0000000000e+00 0.0000e+00 -1.0000e+00
       -2 -1    0    0    0  501 -0.0000000000e+00 -0.0000000000e+00 -1.7757800795e+02 1.7757800795e+02 0.0000000000e+00 0.0000e+00 1.0000e+00
      -13  1    1    2    0    0 +5.3948520016e+02 -3.2583303060e+02 +1.8148686150e+03 1.9211870120e+03 0.0000000000e+00 0.0000e+00 1.0000e+00
       13  1    1    2    0    0 -5.3948520016e+02 +3.2583303060e+02 +6.7371502299e+02 9.2255264198e+02 0.0000000000e+00 0.0000e+00 -1.0000e+00
<mgrwt>
<rscale>  0 0.13761565E+04</rscale>
<asrwt>0</asrwt>
<pdfrwt beam="1">  1        2 0.41017869E+00 0.13761565E+04</pdfrwt>
<pdfrwt beam="2">  1       -2 0.27319695E-01 0.13761565E+04</pdfrwt>
<totfact> 0.38858622E+01</totfact>
</mgrwt>
<rwgt>
<wgt id='morphing_basis_vector_1'> +2.1062410e-04 </wgt>
<wgt id='morphing_basis_vector_2'> +1.9642499e-04 </wgt>
<wgt id='morphing_basis_vector_3'> +2.2165109e-04 </wgt>
<wgt id='morphing_basis_vector_4'> +7.9949414e-05 </wgt>
<wgt id='morphing_basis_vector_5'> +1.9741725e-04 </wgt>
</rwgt>
</event>
<event>
 4      1 +3.5234200e-07 1.35732300e+03 7.81860800e-03 8.40298100e-02
        2 -1    0    0  501    0 +0.0000000000e+00 +0.0000000000e+00 +4.0671456246e+02 4.0671456246e+02 0.0000000000e+00 0.0000e+00 -1.0000e+00
       -2 -1    0    0    0  501 -0.0000000000e+00 -0.0000000000e+00 -1.1324440743e+03 1.1324440743e+03 0.0000000000e+00 0.0000e+00 1.0000e+00
      -13  1    1    2    0    0 +2.8680132965e+02 +1.3681345958e+02 -1.0428745406e+03 1.0902110956e+03 0.0000000000e+00 0.0000e+00 1.0000e+00
       13  1    1    2    0    0 -2.8680132965e+02 -1.3681345958e+02 +3.1714502882e+02 4.4894754116e+02 0.0000000000e+00 0.0000e+00 -1.0000e+00
<mgrwt>
<rscale>  0 0.13573231E+04</rscale>
<asrwt>0</asrwt>
<pdfrwt beam="1">  1        2 0.62571471E-01 0.13573231E+04</pdfrwt>
<pdfrwt beam="2">  1       -2 0.17422216E+00 0.13573231E+04</pdfrwt>
<totfact> 0.17061993E+01</totfact>
</mgrwt>
<rwgt>
<wgt id='morphing_basis_vector_1'> +1.7560877e-04 </wgt>
<wgt id='morphing_basis_vector_2'> +1.1389314e-04 </wgt>
<wgt id='morphing_basis_vector_3'> +1.7968560e-04 </wgt>
<wgt id='morphing_basis_vector_4'> +1.1916928e-04 </wgt>
<wgt id='morphing_basis_vector_5'> +1.8952417e-04 </wgt>
</rwgt>
</event>
<event>
 4      1 +3.5234200e-07 1.40016300e+03 7.81860800e-03 8.37541400e-02
        2 -1    0    0  501    0 +0.0000000000e+00 +0.0000000000e+00 +1.3681279376e+03 1.3681279376e+03 0.0000000000e+00 0.0000e+00 -1.0000e+00
       -2 -1    0    0    0  501 -0.0000000000e+00 -0.0000000000e+00 -3.5823693014e+02 3.5823693014e+02 0.0000000000e+00 0.0000e+00 1.0000e+00
      -13  1    1    2    0    0 -6.7923733072e+02 -3.8182201278e+01 +3.0125186128e+02 7.4402548065e+02 0.0000000000e+00 0.0000e+00 1.0000e+00
       13  1    1    2    0    0 +6.7923733072e+02 +3.8182201278e+01 +7.0863914619e+02 9.8233938710e+02 0.0000000000e+00 0.0000e+00 -1.0000e+00
<mgrwt>
<rscale>  0 0.14001628E+04</rscale>
<asrwt>0</asrwt>
<pdfrwt beam="1">  1        2 0.21048122E+00 0.14001628E+04</pdfrwt>
<pdfrwt beam="2">  1       -2 0.55113374E-01 0.14001628E+04</pdfrwt>
<totfact> 0.57527920E+01</totfact>
</mgrwt>
<rwgt>
<wgt id='morphing_basis_vector_1'> +2.0071424e-04 </wgt>
<wgt id='morphing_basis_vector_2'> +1.3729208e-04 </wgt>
<wgt id='morphing_basis_vector_3'> +2.0699574e-04 </wgt>
<wgt id='morphing_basis_vector_4'> +1.3036280e-04 </wgt>
<wgt id='morphing_basis_vector_5'> +2.1538638e-04 </wgt>
</rwgt>
</event>
<event>
 4      1 +3.5234200e-07 1.35712400e+03 7.81860800e-03 8.40311100e-02
        2 -1    0    0  501    0 +0.0000000000e+00 +0.0000000000e+00 +1.5373564224e+03 1.5373564224e+03 0.0000000000e+00 0.0000e+00 -1.0000e+00
       -2 -1    0    0    0  501 -0.0000000000e+00 -0.0000000000e+00 -2.9950539836e+02 2.9950539836e+02 0.0000000000e+00 0.0000e+00 1.0000e+00
      -13  1    1    2    0    0 +4.0681602396e+02 +1.5087215870e+02 -8.7211320339e+01 4.4256920365e+02 0.0000000000e+00 0.0000e+00 1.0000e+00
       13  1    1    2    0    0 -4.0681602396e+02 -1.5087215870e+02 +1.3250623444e+03 1.3942926171e+03 0.0000000000e+00 0.0000e+00 -1.0000e+00
<mgrwt>
<rscale>  0 0.13571242E+04</rscale>
<asrwt>0</asrwt>
<pdfrwt beam="1">  1        2 0.23651637E+00 0.13571242E+04</pdfrwt>
<pdfrwt beam="2">  1       -2 0.46077754E-01 0.13571242E+04</pdfrwt>
<totfact> 0.65961713E+01</totfact>
</mgrwt>
<rwgt>
<wgt id='morphing_basis_vector_1'> +1.7560359e-04 </wgt>
<wgt id='morphing_basis_vector_2'> +1.1410674e-04 </wgt>
<wgt id='morphing_basis_vector_3'> +1.7969632e-04 </wgt>
<wgt id='morphing_basis_vector_4'> +1.1892801e-04 </wgt>
<wgt id='morphing_basis_vector_5'> +1.8939607e-04 </wgt>
</rwgt>
</event>
<event>
 4      1 +3.5234200e-07 1.31481400e+03 7.81860800e-03 8.43140500e-02
        2 -1    0    0  501    0 +0.0000000000e+00 +0.0000000000e+00 +6.4748334277e+02 6.4748334277e+02 0.0000000000e+00 0.0000e+00 -1.0000e+00
       -2 -1    0    0    0  501 -0.0000000000e+00 -0.0000000000e+00 -6.6748272105e+02 6.6748272105e+02 0.0000000000e+00 0.0000e+00 1.0000e+00
      -13  1    1    2    0    0 +1.3592044266e+01 -5.3944607563e+02 +3.6553959454e+02 6.5177143797e+02 0.0000000000e+00 0.0000e+00 -1.0000e+00
       13  1    1    2    0    0 -1.3592044266e+01 +5.3944607563e+02 -3.8553897282e+02 6.6319462584e+02 0.0000000000e+00 0.0000e+00 1.0000e+00
<mgrwt>
<rscale>  0 0.13148140E+04</rscale>
<asrwt>0</asrwt>
<pdfrwt beam="1">  1        2 0.99612822E-01 0.13148140E+04</pdfrwt>
<pdfrwt beam="2">  1       -2 0.10268965E+00 0.13148140E+04</pdfrwt>
<totfact> 0.42461295E+01</totfact>
</mgrwt>
<rwgt>
<wgt id='morphing_basis_vector_1'> +1.8949473e-04 </wgt>
<wgt id='morphing_basis_vector_2'> +2.0232956e-04 </wgt>
<wgt id='morphing_basis_vector_3'> +1.9953944e-04 </wgt>
<wgt id='morphing_basis_vector_4'> +4.3676439e-05 </wgt>
<wgt id='morphing_basis_vector_5'> +1.6159670e-04 </wgt>
</rwgt>
</event>
<event>
 4      1 +3.5234200e-07 1.30436100e+03 7.81860800e-03 8.43856600e-02
        2 -1    0    0  501    0 +0.0000000000e+00 +0.0000000000e+00 +9.0013167632e+02 9.0013167632e+02 0.0000000000e+00 0.0000e+00 1.0000e+00
       -2 -1    0    0    0  501 -0.0000000000e+00 -0.0000000000e+00 -4.7253025529e+02 4.7253025529e+02 0.0000000000e+00 0.0000e+00 -1.0000e+00
      -13  1    1    2    0    0 +1.8791753433e+02 -1.5718283627e+02 +8.4986716144e+02 8.8447364902e+02 0.0000000000e+00 0.0000e+00 1.0000e+00
       13  1    1    2    0    0 -1.8791753433e+02 +1.5718283627e+02 -4.2226574041e+02 4.8818828259e+02 0.0000000000e+00 0.0000e+00 -1.0000e+00
<mgrwt>
<rscale>  0 0.13043611E+04</rscale>
<asrwt>0</asrwt>
<pdfrwt beam="1">  1        2 0.13848180E+00 0.13043611E+04</pdfrwt>
<pdfrwt beam="2">  1       -2 0.72696963E-01 0.13043611E+04</pdfrwt>
<totfact> 0.62130572E+01</totfact>
</mgrwt>
<rwgt>
<wgt id='morphing_basis_vector_1'> +2.0564058e-04 </wgt>
<wgt id='morphing_basis_vector_2'> +2.6158403e-04 </wgt>
<wgt id='morphing_basis_vector_3'> +2.1946355e-04 </wgt>
<wgt id='morphing_basis_vector_4'> +3.4244883e-06 </wgt>
<wgt id='morphing_basis_vector_5'> +1.5355163e-04 </wgt>
</rwgt>
</event>
<event>
 4      1 +3.5234200e-07 1.35338000e+03 7.81860800e-03 8.40557200e-02
        2 -1    0    0  501    0 +0.0000000000e+00 +0.0000000000e+00 +8.7066082977e+02 8.7066082977e+02 0.0000000000e+00 0.0000e+00 -1.0000e+00
       -2 -1    0    0    0  501 -0.0000000000e+00 -0.0000000000e+00 -5.2593296181e+02 5.2593296181e+02 0.0000000000e+00 0.0000e+00 1.0000e+00
      -13  1    1    2    0    0 +3.8071263900e+02 +6.2551057486e+01 -4.0131372241e+02 5.5669331960e+02 0.0000000000e+00 0.0000e+00 1.0000e+00
       13  1    1    2    0    0 -3.8071263900e+02 -6.2551057486e+01 +7.4604159037e+02 8.3990047199e+02 0.0000000000e+00 0.0000e+00 -1.0000e+00
<mgrwt>
<rscale>  0 0.13533798E+04</rscale>
<asrwt>0</asrwt>
<pdfrwt beam="1">  1        2 0.13394782E+00 0.13533798E+04</pdfrwt>
<pdfrwt beam="2">  1       -2 0.80912764E-01 0.13533798E+04</pdfrwt>
<totfact> 0.51001806E+01</totfact>
</mgrwt>
<rwgt>
<wgt id='morphing_basis_vector_1'> +1.7370403e-04 </wgt>
<wgt id='morphing_basis_vector_2'> +1.1272175e-04 </wgt>
<wgt id='morphing_basis_vector_3'> +1.7766629e-04 </wgt>
<wgt id='morphing_basis_vector_4'> +1.1765918e-04 </wgt>
<wgt id='morphing_basis_vector_5'> +1.8722812e-04 </wgt>
</rwgt>
</event>
<event>
 4      1 +3.5234200e-07 1.38116600e+03 7.81860800e-03 8.38750900e-02
        2 -1    0    0  501    0 +0.0000000000e+00 +0.0000000000e+00 +1.9916842195e+03 1.9916842195e+03 0.0000000000e+00 0.0000e+00 -1.0000e+00
       -2 -1    0    0    0  501 -0.0000000000e+00 -0.0000000000e+00 -2.3944813528e+02 2.3944813528e+02 0.0000000000e+00 0.0000e+00 1.0000e+00
      -13  1    1    2    0    0 +5.7477712836e+02 -2.8971328980e+02 +4.7193756982e+02 7.9814009258e+02 0.0000000000e+00 0.0000e+00 1.0000e+00
       13  1    1    2    0    0 -5.7477712836e+02 +2.8971328980e+02 +1.2802985144e+03 1.4329922622e+03 0.0000000000e+00 0.0000e+00 -1.0000e+00
<mgrwt>
<rscale>  0 0.13811663E+04</rscale>
<asrwt>0</asrwt>
<pdfrwt beam="1">  1        2 0.30641295E+00 0.13811663E+04</pdfrwt>
<pdfrwt beam="2">  1       -2 0.36838176E-01 0.13811663E+04</pdfrwt>
<totfact> 0.56038000E+01</totfact>
</mgrwt>
<rwgt>
<wgt id='morphing_basis_vector_1'> +1.8931168e-04 </wgt>
<wgt id='morphing_basis_vector_2'> +1.2668661e-04 </wgt>
<wgt id='morphing_basis_vector_3'> +1.9457056e-04 </wgt>
<wgt id='morphing_basis_vector_4'> +1.2525676e-04 </wgt>
<wgt id='morphing_basis_vector_5'> +2.0361215e-04 </wgt>
</rwgt>
</event>
<event>
 4      1 +3.5234200e-07 1.31402500e+03 7.81860800e-03 8.43194300e-02
        2 -1    0    0  501    0 +0.0000000000e+00 +0.0000000000e+00 +2.1714561882e+03 2.1714561882e+03 0.0000000000e+00 0.0000e+00 1.0000e+00
       -2 -1    0    0    0  501 -0.0000000000e+00 -0.0000000000e+00 -1.9879085479e+02 1.9879085479e+02 0.0000000000e+00 0.0000e+00 -1.0000e+00
      -13  1    1    2    0    0 +5.2730639586e+02 -1.5973599289e+02 +1.6319290247e+03 1.7224285077e+03 0.0000000000e+00 0.0000e+00 1.0000e+00
       13  1    1    2    0    0 -5.2730639586e+02 +1.5973599289e+02 +3.4073630866e+02 6.4781853523e+02 0.0000000000e+00 0.0000e+00 -1.0000e+00
<mgrwt>
<rscale>  0 0.13140253E+04</rscale>
<asrwt>0</asrwt>
<pdfrwt beam="1">  1        2 0.33407017E+00 0.13140253E+04</pdfrwt>
<pdfrwt beam="2">  1       -2 0.30583210E-01 0.13140253E+04</pdfrwt>
<totfact> 0.62458588E+01</totfact>
</mgrwt>
<rwgt>
<wgt id='morphing_basis_vector_1'> +1.8691762e-04 </wgt>
<wgt id='morphing_basis_vector_2'> +1.9544579e-04 </wgt>
<wgt id='morphing_basis_vector_3'> +1.9645283e-04 </wgt>
<wgt id='morphing_basis_vector_4'> +4.7391452e-05 </wgt>
<wgt id='morphing_basis_vector_5'> +1.6146258e-04 </wgt>
</rwgt>
</event>
<event>
 4      1 +3.5234200e-07 1.46909200e+03 7.81860800e-03 8.33314400e-02
        2 -1    0    0  501    0 +0.0000000000e+00 +0.0000000000e+00 +9.3013003811e+02 9.3013003811e+02 0.0000000000e+00 0.0000e+00 -1.0000e+00
       -2 -1    0    0    0  501 -0.0000000000e+00 -0.0000000000e+00 -5.8008889146e+02 5.8008889146e+02 0.0000000000e+00 0.0000e+00 1.0000e+00
      -13  1    1    2    0    0 -3.9006930746e+02 +5.4384542943e+02 -1.3616847848e+02 6.8298152996e+02 0.0000000000e+00 0.0000e+00 1.0000e+00
       13  1    1    2    0    0 +3.9006930746e+02 -5.4384542943e+02 +4.8620962513e+02 8.2723739960e+02 0.0000000000e+00 0.0000e+00 -1.0000e+00
<mgrwt>
<rscale>  0 0.14690924E+04</rscale>
<asrwt>0</asrwt>
<pdfrwt beam="1">  1        2 0.14309693E+00 0.14690924E+04</pdfrwt>
<pdfrwt beam="2">  1       -2 0.89244445E-01 0.14690924E+04</pdfrwt>
<totfact> 0.36863878E+01</totfact>
</mgrwt>
<rwgt>
<wgt id='morphing_basis_vector_1'> +2.3957692e-04 </wgt>
<wgt id='morphing_basis_vector_2'> +1.6016471e-04 </wgt>
<wgt id='morphing_basis_vector_3'> +2.4832171e-04 </wgt>
<wgt id='morphing_basis_vector_4'> +1.6263781e-04 </wgt>
<wgt id='morphing_basis_vector_5'> +2.6329934e-04 </wgt>
</rwgt>
</event>
<event>
 4      1 +3.5234200e-07 1.36744600e+03 7.81860800e-03 8.39637200e-02
        2 -1    0    0  501    0 +0.0000000000e+00 +0.0000000000e+00 +2.3048439394e+03 2.3048439394e+03 0.0000000000e+00 0.0000e+00 -1.0000e+00
       -2 -1    0    0    0  501 -0.0000000000e+00 -0.0000000000e+00 -2.0282367121e+02 2.0282367121e+02 0.0000000000e+00 0.0000e+00 1.0000e+00
      -13  1    1    2    0    0 -8.9057298997e+01 +3.4668004175e+02 -1.7280345687e+01 3.5835298827e+02 0.0000000000e+00 0.0000e+00 1.0000e+00
       13  1    1    2    0    0 +8.9057298997e+01 -3.4668004175e+02 +2.1193006139e+03 2.1493146224e+03 0.0000000000e+00 0.0000e+00 -1.0000e+00
<mgrwt>
<rscale>  0 0.13674457E+04</rscale>
<asrwt>0</asrwt>
<pdfrwt beam="1">  1        2 0.35459136E+00 0.13674457E+04</pdfrwt>
<pdfrwt beam="2">  1       -2 0.31203643E-01 0.13674457E+04</pdfrwt>
<totfact> 0.50318289E+01</totfact>
</mgrwt>
<rwgt>
<wgt id='morphing_basis_vector_1'> +1.8069626e-04 </wgt>
<wgt id='morphing_basis_vector_2'> +1.1731641e-04 </wgt>
<wgt id='morphing_basis_vector_3'> +1.8510321e-04 </wgt>
<wgt id='morphing_basis_vector_4'> +1.2288503e-04 </wgt>
<wgt id='morphing_basis_vector_5'> +1.9549729e-04 </wgt>
</rwgt>
</event>
<event>
 4      1 +3.5234200e-07 1.35276000e+03 7.81860800e-03 8.40597900e-02
        2 -1    0    0  501    0 +0.0000000000e+00 +0.0000000000e+00 +9.0544694106e+02 9.0544694106e+02 0.0000000000e+00 0.0000e+00 1.0000e+00
       -2 -1    0    0    0  501 -0.0000000000e+00 -0.0000000000e+00 -5.0526441376e+02 5.0526441376e+02 0.0000000000e+00 0.0000e+00 -1.0000e+00
      -13  1    1    2    0    0 +2.8033131647e+02 -4.9654569258e+01 -4.3973866736e+02 5.2385238266e+02 0.0000000000e+00 0.0000e+00 -1.0000e+00
       13  1    1    2    0    0 -2.8033131647e+02 +4.9654569258e+01 +8.3992119467e+02 8.8685897216e+02 0.0000000000e+00 0.0000e+00 1.0000e+00
<mgrwt>
<rscale>  0 0.13527603E+04</rscale>
<asrwt>0</asrwt>
<pdfrwt beam="1">  1        2 0.13929953E+00 0.13527603E+04</pdfrwt>
<pdfrwt beam="2">  1       -2 0.77732987E-01 0.13527603E+04</pdfrwt>
<totfact> 0.52968385E+01</totfact>
</mgrwt>
<rwgt>
<wgt id='morphing_basis_vector_1'> +1.7334963e-04 </wgt>
<wgt id='morphing_basis_vector_2'> +1.1236925e-04 </wgt>
<wgt id='morphing_basis_vector_3'> +1.7728067e-04 </wgt>
<wgt id='morphing_basis_vector_4'> +1.1752533e-04 </wgt>
<wgt id='morphing_basis_vector_5'> +1.8687660e-04 </wgt>
</rwgt>
</event>
<event>
 4      1 +3.5234200e-07 1.50275400e+03 7.81860800e-03 8.31336700e-02
        2 -1    0    0  501    0 +0.0000000000e+00 +0.0000000000e+00 +3.7203173584e+02 3.7203173584e+02 0.0000000000e+00 0.0000e+00 -1.0000e+00
       -2 -1    0    0    0  501 -0.0000000000e+00 -0.0000000000e+00 -1.5175245970e+03 1.5175245970e+03 0.0000000000e+00 0.0000e+00 1.0000e+00
      -13  1    1    2    0    0 +2.5058315614e+02 +5.3063869375e+02 -1.1627826049e+03 1.3024717761e+03 0.0000000000e+00 0.0000e+00 1.0000e+00
       13  1    1    2    0    0 -2.5058315614e+02 -5.3063869375e+02 +1.7289743752e+01 5.8708455667e+02 0.0000000000e+00 0.0000e+00 -1.0000e+00
<mgrwt>
<rscale>  0 0.15027539E+04</rscale>
<asrwt>0</asrwt>
<pdfrwt beam="1">  1        2 0.57235652E-01 0.15027539E+04</pdfrwt>
<pdfrwt beam="2">  1       -2 0.23346532E+00 0.15027539E+04</pdfrwt>
<totfact> 0.68949051E+00</totfact>
</mgrwt>
<rwgt>
<wgt id='morphing_basis_vector_1'> +2.6022261e-04 </wgt>
<wgt id='morphing_basis_vector_2'> +1.7143945e-04 </wgt>
<wgt id='morphing_basis_vector_3'> +2.7019948e-04 </wgt>
<wgt id='morphing_basis_vector_4'> +1.8092181e-04 </wgt>
<wgt id='morphing_basis_vector_5'> +2.8941321e-04 </wgt>
</rwgt>
</event>
<event>
 4      1 +3.5234200e-07 1.46327600e+03 7.81860800e-03 8.33661700e-02
        2 -1    0    0  501    0 +0.0000000000e+00 +0.0000000000e+00 +1.2658179624e+03 1.2658179624e+03 0.0000000000e+00 0.0000e+00 1.0000e+00
       -2 -1    0    0    0  501 -0.0000000000e+00 -0.0000000000e+00 -4.2288390636e+02 4.2288390636e+02 0.0000000000e+00 0.0000e+00 -1.0000e+00
      -13  1    1    2    0    0 +7.1974387727e+02 +6.5262699409e+01 +5.5306772219e+02 9.1004086399e+02 0.0000000000e+00 0.0000e+00 -1.0000e+00
       13  1    1    2    0    0 -7.1974387727e+02 -6.5262699409e+01 +2.8986633380e+02 7.7866100472e+02 0.0000000000e+00 0.0000e+00 1.0000e+00
<mgrwt>
<rscale>  0 0.14632758E+04</rscale>
<asrwt>0</asrwt>
<pdfrwt beam="1">  1        2 0.19474122E+00 0.14632758E+04</pdfrwt>
<pdfrwt beam="2">  1       -2 0.65059063E-01 0.14632758E+04</pdfrwt>
<totfact> 0.46593267E+01</totfact>
</mgrwt>
<rwgt>
<wgt id='morphing_basis_vector_1'> +2.4903149e-04 </wgt>
<wgt id='morphing_basis_vector_2'> +1.9672997e-04 </wgt>
<wgt id='morphing_basis_vector_3'> +2.6134290e-04 </wgt>
<wgt id='morphing_basis_vector_4'> +1.3574663e-04 </wgt>
<wgt id='morphing_basis_vector_5'> +2.5721314e-04 </wgt>
</rwgt>
</event>
<event>
 4      1 +3.5234200e-07 1.45859900e+03 7.81860800e-03 8.33942200e-02
        2 -1    0    0  501    0 +0.0000000000e+00 +0.0000000000e+00 +1.3066908483e+03 1.3066908483e+03 0.0000000000e+00 0.0000e+00 -1.0000e+00
       -2 -1    0    0    0  501 -0.0000000000e+00 -0.0000000000e+00 -4.0704165453e+02 4.0704165453e+02 0.0000000000e+00 0.0000e+00 1.0000e+00
      -13  1    1    2    0    0 -7.0119090277e+02 +1.1126385259e+01 +2.1459129002e+02 7.3337705195e+02 0.0000000000e+00 0.0000e+00 1.0000e+00
       13  1    1    2    0    0 +7.0119090277e+02 -1.1126385259e+01 +6.8505790378e+02 9.8035545090e+02 0.0000000000e+00 0.0000e+00 -1.0000e+00
<mgrwt>
<rscale>  0 0.14585988E+04</rscale>
<asrwt>0</asrwt>
<pdfrwt beam="1">  1        2 0.20102936E+00 0.14585988E+04</pdfrwt>
<pdfrwt beam="2">  1       -2 0.62621794E-01 0.14585988E+04</pdfrwt>
<totfact> 0.47813899E+01</totfact>
</mgrwt>
<rwgt>
<wgt id='morphing_basis_vector_1'> +2.3438390e-04 </wgt>
<wgt id='morphing_basis_vector_2'> +1.5968810e-04 </wgt>
<wgt id='morphing_basis_vector_3'> +2.4304194e-04 </wgt>
<wgt id='morphing_basis_vector_4'> +1.5541157e-04 </wgt>
<wgt id='morphing_basis_vector_5'> +2.5539514e-04 </wgt>
</rwgt>
</event>
<event>
 4      1 +3.5234200e-07 1.29824400e+03 7.81860800e-03 8.44279000e-02
        2 -1    0    0  501    0 +0.0000000000e+00 +0.0000000000e+00 +1.1855656880e+03 1.1855656880e+03 0.0000000000e+00 0.0000e+00 -1.0000e+00
       -2 -1    0    0    0  501 -0.0000000000e+00 -0.0000000000e+00 -3.5540779687e+02 3.5540779687e+02 0.0000000000e+00 0.0000e+00 1.0000e+00
      -13  1    1    2    0    0 +4.1334448086e+02 -3.4330375683e+02 -1.7225298232e+01 5.3759449421e+02 0.0000000000e+00 0.0000e+00 1.0000e+00
       13  1    1    2    0    0 -4.1334448086e+02 +3.4330375683e+02 +8.4738318937e+02 1.0033789907e+03 0.0000000000e+00 0.0000e+00 -1.0000e+00
<mgrwt>
<rscale>  0 0.12982439E+04</rscale>
<asrwt>0</asrwt>
<pdfrwt beam="1">  1        2 0.18239472E+00 0.12982439E+04</pdfrwt>
<pdfrwt beam="2">  1       -2 0.54678123E-01 0.12982439E+04</pdfrwt>
<totfact> 0.75045140E+01</totfact>
</mgrwt>
<rwgt>
<wgt id='morphing_basis_vector_1'> +1.4859126e-04 </wgt>
<wgt id='morphing_basis_vector_2'> +9.7000847e-05 </wgt>
<wgt id='morphing_basis_vector_3'> +1.5105438e-04 </wgt>
<wgt id='morphing_basis_vector_4'> +9.8160897e-05 </wgt>
<wgt id='morphing_basis_vector_5'> +1.5724304e-04 </wgt>
</rwgt>
</event>
<event>
 4      1 +3.5234200e-07 1.38094600e+03 7.81860800e-03 8.38765100e-02
        2 -1    0    0  501    0 +0.0000000000e+00 +0.0000000000e+00 +2.0391936033e+03 2.0391936033e+03 0.0000000000e+00 0.0000e+00 1.0000e+00
       -2 -1    0    0    0  501 -0.0000000000e+00 -0.0000000000e+00 -2.3379491241e+02 2.3379491241e+02 0.0000000000e+00 0.0000e+00 -1.0000e+00
      -13  1    1    2    0    0 -6.3947755780e+02 +2.6037423046e+02 +9.1122077703e+02 1.1432626957e+03 0.0000000000e+00 0.0000e+00 -1.0000e+00
       13  1    1    2    0    0 +6.3947755780e+02 -2.6037423046e+02 +8.9417791381e+02 1.1297258200e+03 0.0000000000e+00 0.0000e+00 1.0000e+00
<mgrwt>
<rscale>  0 0.13809462E+04</rscale>
<asrwt>0</asrwt>
<pdfrwt beam="1">  1        2 0.31372208E+00 0.13809462E+04</pdfrwt>
<pdfrwt beam="2">  1       -2 0.35968449E-01 0.13809462E+04</pdfrwt>
<totfact> 0.55064814E+01</totfact>
</mgrwt>
<rwgt>
<wgt id='morphing_basis_vector_1'> +1.9456990e-04 </wgt>
<wgt id='morphing_basis_vector_2'> +1.4266791e-04 </wgt>
<wgt id='morphing_basis_vector_3'> +2.0117047e-04 </wgt>
<wgt id='morphing_basis_vector_4'> +1.1541029e-04 </wgt>
<wgt id='morphing_basis_vector_5'> +2.0277208e-04 </wgt>
</rwgt>
</event>
<event>
 4      1 +3.5234200e-07 1.37103200e+03 7.81860800e-03 8.39404500e-02
        2 -1    0    0  501    0 +0.0000000000e+00 +0.0000000000e+00 +9.5957360928e+02 9.5957360928e+02 0.0000000000e+00 0.0000e+00 -1.0000e+00
       -2 -1    0    0    0  501 -0.0000000000e+00 -0.0000000000e+00 -4.8973017572e+02 4.8973017572e+02 0.0000000000e+00 0.0000e+00 1.0000e+00
      -13  1    1    2    0    0 +2.1695657915e+02 -2.8569619598e+02 -3.8258489620e+02 5.2446513367e+02 0.0000000000e+00 0.0000e+00 1.0000e+00
       13  1    1    2    0    0 -2.1695657915e+02 +2.8569619598e+02 +8.5242832976e+02 9.2483865134e+02 0.0000000000e+00 0.0000e+00 -1.0000e+00
<mgrwt>
<rscale>  0 0.13710320E+04</rscale>
<asrwt>0</asrwt>
<pdfrwt beam="1">  1        2 0.14762671E+00 0.13710320E+04</pdfrwt>
<pdfrwt beam="2">  1       -2 0.75343104E-01 0.13710320E+04</pdfrwt>
<totfact> 0.52328183E+01</totfact>
</mgrwt>
<rwgt>
<wgt id='morphing_basis_vector_1'> +1.8251864e-04 </wgt>
<wgt id='morphing_basis_vector_2'> +1.1852769e-04 </wgt>
<wgt id='morphing_basis_vector_3'> +1.8704347e-04 </wgt>
<wgt id='morphing_basis_vector_4'> +1.2423391e-04 </wgt>
<wgt id='morphing_basis_vector_5'> +1.9764738e-04 </wgt>
</rwgt>
</event>
<event>
 4      1 +3.5234200e-07 1.29030800e+03 7.81860800e-03 8.44830600e-02
        2 -1    0    0  501    0 +0.0000000000e+00 +0.0000000000e+00 +1.6769414988e+03 1.6769414988e+03 0.0000000000e+00 0.0000e+00 -1.0000e+00
       -2 -1    0    0    0  501 -0.0000000000e+00 -0.0000000000e+00 -2.4820414973e+02 2.4820414973e+02 0.0000000000e+00 0.0000e+00 1.0000e+00
      -13  1    1    2    0    0 +5.3535884969e+02 +2.7935512004e+02 +1.0532063292e+03 1.2140395187e+03 0.0000000000e+00 0.0000e+00 -1.0000e+00
       13  1    1    2    0    0 -5.3535884969e+02 -2.7935512004e+02 +3.7553101988e+02 7.1110612986e+02 0.0000000000e+00 0.0000e+00 1.0000e+00
<mgrwt>
<rscale>  0 0.12903082E+04</rscale>
<asrwt>0</asrwt>
<pdfrwt beam="1">  1        2 0.25799099E+00 0.12903082E+04</pdfrwt>
<pdfrwt beam="2">  1       -2 0.38185255E-01 0.12903082E+04</pdfrwt>
<totfact> 0.79070752E+01</totfact>
</mgrwt>
<rwgt>
<wgt id='morphing_basis_vector_1'> +1.6184772e-04 </wgt>
<wgt id='morphing_basis_vector_2'> +1.4469844e-04 </wgt>
<wgt id='morphing_basis_vector_3'> +1.6738762e-04 </wgt>
<wgt id='morphing_basis_vector_4'> +6.6116899e-05 </wgt>
<wgt id='morphing_basis_vector_5'> +1.5117124e-04 </wgt>
</rwgt>
</event>
<event>
 4      1 +3.5234200e-07 1.38934900e+03 7.81860800e-03 8.38227400e-02
        2 -1    0    0  501    0 +0.0000000000e+00 +0.0000000000e+00 +2.3828288983e+03 2.3828288983e+03 0.0000000000e+00 0.0000e+00 1.0000e+00
       -2 -1    0    0    0  501 -0.0000000000e+00 -0.0000000000e+00 -2.0252100412e+02 2.0252100412e+02 0.0000000000e+00 0.0000e+00 -1.0000e+00
      -13  1    1    2    0    0 +6.0834012041e+02 -2.8326931979e+02 +7.5596076773e+02 1.0108392018e+03 0.0000000000e+00 0.0000e+00 -1.0000e+00
       13  1    1    2    0    0 -6.0834012041e+02 +2.8326931979e+02 +1.4243471265e+03 1.5745107006e+03 0.0000000000e+00 0.0000e+00 1.0000e+00
<mgrwt>
<rscale>  0 0.13893493E+04</rscale>
<asrwt>0</asrwt>
<pdfrwt beam="1">  1        2 0.36658904E+00 0.13893493E+04</pdfrwt>
<pdfrwt beam="2">  1       -2 0.31157079E-01 0.13893493E+04</pdfrwt>
<totfact> 0.45375671E+01</totfact>
</mgrwt>
<rwgt>
<wgt id='morphing_basis_vector_1'> +1.9458009e-04 </wgt>
<wgt id='morphing_basis_vector_2'> +1.3243498e-04 </wgt>
<wgt id='morphing_basis_vector_3'> +2.0037549e-04 </wgt>
<wgt id='morphing_basis_vector_4'> +1.2668124e-04 </wgt>
<wgt id='morphing_basis_vector_5'> +2.0856934e-04 </wgt>
</rwgt>
</event>
<event>
 4      1 +3.5234200e-07 1.30428300e+03 7.81860800e-03 8.43862000e-02
        2 -1    0    0  501    0 +0.0000000000e+00 +0.0000000000e+00 +8.9197773656e+02 8.9197773656e+02 0.0000000000e+00 0.0000e+00 -1.0000e+00
       -2 -1    0    0    0  501 -0.0000000000e+00 -0.0000000000e+00 -4.7679250840e+02 4.7679250840e+02 0.0000000000e+00 0.0000e+00 1.0000e+00
      -13  1    1    2    0    0 -5.9748632730e+02 +2.2846266450e+02 +7.4419988385e+01 6.4399024453e+02 0.0000000000e+00 0.0000e+00 1.0000e+00
       13  1    1    2    0    0 +5.9748632730e+02 -2.2846266450e+02 +3.4076523977e+02 7.2478000042e+02 0.0000000000e+00 0.0000e+00 -1.0000e+00
<mgrwt>
<rscale>  0 0.13042826E+04</rscale>
<asrwt>0</asrwt>
<pdfrwt beam="1">  1        2 0.13722734E+00 0.13042826E+04</pdfrwt>
<pdfrwt beam="2">  1       -2 0.73352693E-01 0.13042826E+04</pdfrwt>
<totfact> 0.61684767E+01</totfact>
</mgrwt>
<rwgt>
<wgt id='morphing_basis_vector_1'> +1.5339155e-04 </wgt>
<wgt id='morphing_basis_vector_2'> +1.0520604e-04 </wgt>
<wgt id='morphing_basis_vector_3'> +1.5645924e-04 </wgt>
<wgt id='morphing_basis_vector_4'> +9.6268162e-05 </wgt>
<wgt id='morphing_basis_vector_5'> +1.6006529e-04 </wgt>
</rwgt>
</event>
<event>
 4      1 +3.5234200e-07 1.35551300e+03 7.81860800e-03 8.40416900e-02
        2 -1    0    0  501    0 +0.0000000000e+00 +0.0000000000e+00 +7.5679483620e+02 7.5679483620e+02 0.0000000000e+00 0.0000e+00 1.0000e+00
       -2 -1    0    0    0  501 -0.0000000000e+00 -0.0000000000e+00 -6.0697312201e+02 6.0697312201e+02 0.0000000000e+00 0.0000e+00 -1.0000e+00
      -13  1    1    2    0    0 +2.2118424409e+02 -6.1405506685e+02 +2.5869242698e+02 7.0207397526e+02 0.0000000000e+00 0.0000e+00 1.0000e+00
       13  1    1    2    0    0 -2.2118424409e+02 +6.1405506685e+02 -1.0887071279e+02 6.6169398294e+02 0.0000000000e+00 0.0000e+00 -1.0000e+00
<mgrwt>
<rscale>  0 0.13555134E+04</rscale>
<asrwt>0</asrwt>
<pdfrwt beam="1">  1        2 0.11642997E+00 0.13555134E+04</pdfrwt>
<pdfrwt beam="2">  1       -2 0.93380480E-01 0.13555134E+04</pdfrwt>
<totfact> 0.43873581E+01</totfact>
</mgrwt>
<rwgt>
<wgt id='morphing_basis_vector_1'> +1.9063996e-04 </wgt>
<wgt id='morphing_basis_vector_2'> +1.6092476e-04 </wgt>
<wgt id='morphing_basis_vector_3'> +1.9843247e-04 </wgt>
<wgt id='morphing_basis_vector_4'> +8.9765247e-05 </wgt>
<wgt id='morphing_basis_vector_5'> +1.8640999e-04 </wgt>
</rwgt>
</event>
<event>
 4      1 +3.5234200e-07 1.36885900e+03 7.81860800e-03 8.39545400e-02
        2 -1    0    0  501    0 +0.0000000000e+00 +0.0000000000e+00 +3.8458416780e+02 3.8458416780e+02 0.0000000000e+00 0.0000e+00 -1.0000e+00
       -2 -1    0    0    0  501 -0.0000000000e+00 -0.0000000000e+00 -1.2180530808e+03 1.2180530808e+03 0.0000000000e+00 0.0000e+00 1.0000e+00
      -13  1    1    2    0    0 -2.0078120404e+02 -3.9369757454e+02 -1.0286106588e+03 1.1195314910e+03 0.0000000000e+00 0.0000e+00 1.0000e+00
       13  1    1    2    0    0 +2.0078120404e+02 +3.9369757454e+02 +1.9514174573e+02 4.8310575759e+02 0.0000000000e+00 0.0000e+00 -1.0000e+00
<mgrwt>
<rscale>  0 0.13688593E+04</rscale>
<asrwt>0</asrwt>
<pdfrwt beam="1">  1        2 0.59166796E-01 0.13688593E+04</pdfrwt>
<pdfrwt beam="2">  1       -2 0.18739278E+00 0.13688593E+04</pdfrwt>
<totfact> 0.14426011E+01</totfact>
</mgrwt>
<rwgt>
<wgt id='morphing_basis_vector_1'> +1.8149722e-04 </wgt>
<wgt id='morphing_basis_vector_2'> +1.1804472e-04 </wgt>
<wgt id='morphing_basis_vector_3'> +1.8597109e-04 </wgt>
<wgt id='morphing_basis_vector_4'> +1.2326275e-04 </wgt>
<wgt id='morphing_basis_vector_5'> +1.9633174e-04 </wgt>
</rwgt>
</event>
<event>
 4      1 +3.5234200e-07 1.46623400e+03 7.81860800e-03 8.33484900e-02
        2 -1    0    0  501    0 +0.0000000000e+00 +0.0000000000e+00 +1.3005788503e+03 1.3005788503e+03 0.0000000000e+00 0.0000e+00 -1.0000e+00
       -2 -1    0    0    0  501 -0.0000000000e+00 -0.0000000000e+00 -4.1324721943e+02 4.1324721943e+02 0.0000000000e+00 0.0000e+00 1.0000e+00
      -13  1    1    2    0    0 +4.9329568489e+02 +3.1607699418e+01 -1.8916386318e+02 5.2926613959e+02 0.0000000000e+00 0.0000e+00 1.0000e+00
       13  1    1    2    0    0 -4.9329568489e+02 -3.1607699418e+01 +1.0764954940e+03 1.1845599301e+03 0.0000000000e+00 0.0000e+00 -1.0000e+00
<mgrwt>
<rscale>  0 0.14662341E+04</rscale>
<asrwt>0</asrwt>
<pdfrwt beam="1">  1        2 0.20008905E+00 0.14662341E+04</pdfrwt>
<pdfrwt beam="2">  1       -2 0.63576496E-01 0.14662341E+04</pdfrwt>
<totfact> 0.46681253E+01</totfact>
</mgrwt>
<rwgt>
<wgt id='morphing_basis_vector_1'> +2.3638210e-04 </wgt>
<wgt id='morphing_basis_vector_2'> +1.5475525e-04 </wgt>
<wgt id='morphing_basis_vector_3'> +2.4458368e-04 </wgt>
<wgt id='morphing_basis_vector_4'> +1.6393194e-04 </wgt>
<wgt id='morphing_basis_vector_5'> +2.6137047e-04 </wgt>
</rwgt>
</event>
<event>
 4      1 +3.5234200e-07 1.45541700e+03 7.81860800e-03 8.34133700e-02
        2 -1    0    0  501    0 +0.0000000000e+00 +0.0000000000e+00 +6.4621379891e+02 6.4621379891e+02 0.0000000000e+00 0.0000e+00 -1.0000e+00
       -2 -1    0    0    0  501 -0.0000000000e+00 -0.0000000000e+00 -8.1948037818e+02 8.1948037818e+02 0.0000000000e+00 0.0000e+00 1.0000e+00
      -13  1    1    2    0    0 -6.6005263050e+02 -8.1969564429e+01 -3.8396559395e+02 7.6799613402e+02 0.0000000000e+00 0.0000e+00 1.0000e+00
       13  1    1    2    0    0 +6.6005263050e+02 +8.1969564429e+01 +2.1069901468e+02 6.9769804308e+02 0.0000000000e+00 0.0000e+00 -1.0000e+00
<mgrwt>
<rscale>  0 0.14554168E+04</rscale>
<asrwt>0</asrwt>
<pdfrwt beam="1">  1        2 0.99417509E-01 0.14554168E+04</pdfrwt>
<pdfrwt beam="2">  1       -2 0.12607390E+00 0.14554168E+04</pdfrwt>
<totfact> 0.24971289E+01</totfact>
</mgrwt>
<rwgt>
<wgt id='morphing_basis_vector_1'> +2.3114847e-04 </wgt>
<wgt id='morphing_basis_vector_2'> +1.5452716e-04 </wgt>
<wgt id='morphing_basis_vector_3'> +2.3929251e-04 </wgt>
<wgt id='morphing_basis_vector_4'> +1.5636346e-04 </wgt>
<wgt id='morphing_basis_vector_5'> +2.5326151e-04 </wgt>
</rwgt>
</event>
<event>
 4      1 +3.5234200e-07 1.43346800e+03 7.81860800e-03 8.35468200e-02
        2 -1    0    0  501    0 +0.0000000000e+00 +0.0000000000e+00 +1.0070092163e+03 1.0070092163e+03 0.0000000000e+00 0.0000e+00 -1.0000e+00
       -2 -1    0    0    0  501 -0.0000000000e+00 -0.0000000000e+00 -5.1013190626e+02 5.1013190626e+02 0.0000000000e+00 0.0000e+00 1.0000e+00
      -13  1    1    2    0    0 +1.4922033780e+02 -1.8747061059e+02 -4.6648744932e+02 5.2442585693e+02 0.0000000000e+00 0.0000e+00 1.0000e+00
       13  1    1    2    0    0 -1.4922033780e+02 +1.8747061059e+02 +9.6336475932e+02 9.9271526559e+02 0.0000000000e+00 0.0000e+00 -1.0000e+00
<mgrwt>
<rscale>  0 0.14334679E+04</rscale>
<asrwt>0</asrwt>
<pdfrwt beam="1">  1        2 0.15492449E+00 0.14334679E+04</pdfrwt>
<pdfrwt beam="2">  1       -2 0.78481832E-01 0.14334679E+04</pdfrwt>
<totfact> 0.44387338E+01</totfact>
</mgrwt>
<rwgt>
<wgt id='morphing_basis_vector_1'> +2.1649920e-04 </wgt>
<wgt id='morphing_basis_vector_2'> +1.4103307e-04 </wgt>
<wgt id='morphing_basis_vector_3'> +2.2327923e-04 </wgt>
<wgt id='morphing_basis_vector_4'> +1.4960591e-04 </wgt>
<wgt id='morphing_basis_vector_5'> +2.3796191e-04 </wgt>
</rwgt>
</event>
<event>
 4      1 +3.5234200e-07 1.52500100e+03 7.81860800e-03 8.30058900e-02
        2 -1    0    0  501    0 +0.0000000000e+00 +0.0000000000e+00 +3.8200013946e+03 3.8200013946e+03 0.0000000000e+00 0.0000e+00 1.0000e+00
       -2 -1    0    0    0  501 -0.0000000000e+00 -0.0000000000e+00 -1.5220078931e+02 1.5220078931e+02 0.0000000000e+00 0.0000e+00 -1.0000e+00
      -13  1    1    2    0    0 -1.6390974265e+02 +6.1178551328e+02 +7.2801524877e+02 9.6496327414e+02 0.0000000000e+00 0.0000e+00 -1.0000e+00
       13  1    1    2    0    0 +1.6390974265e+02 -6.1178551328e+02 +2.9397853565e+03 3.0072389098e+03 0.0000000000e+00 0.0000e+00 1.0000e+00
<mgrwt>
<rscale>  0 0.15250013E+04</rscale>
<asrwt>0</asrwt>
<pdfrwt beam="1">  1        2 0.58769245E+00 0.15250013E+04</pdfrwt>
<pdfrwt beam="2">  1       -2 0.23415509E-01 0.15250013E+04</pdfrwt>
<totfact> 0.80463075E+00</totfact>
</mgrwt>
<rwgt>
<wgt id='morphing_basis_vector_1'> +2.7571701e-04 </wgt>
<wgt id='morphing_basis_vector_2'> +1.8255109e-04 </wgt>
<wgt id='morphing_basis_vector_3'> +2.8690178e-04 </wgt>
<wgt id='morphing_basis_vector_4'> +1.9169555e-04 </wgt>
<wgt id='morphing_basis_vector_5'> +3.0753868e-04 </wgt>
</rwgt>
</event>
<event>
 4      1 +3.5234200e-07 1.52315700e+03 7.81860800e-03 8.30163900e-02
        2 -1    0    0  501    0 +0.0000000000e+00 +0.0000000000e+00 +7.6584338119e+02 7.6584338119e+02 0.0000000000e+00 0.0000e+00 1.0000e+00
       -2 -1    0    0    0  501 -0.0000000000e+00 -0.0000000000e+00 -7.5733780257e+02 7.5733780257e+02 0.0000000000e+00 0.0000e+00 -1.0000e+00
      -13  1    1    2    0    0 -7.0075211707e+02 -7.4980152623e+01 -2.8441516688e+02 7.5997864445e+02 0.0000000000e+00 0.0000e+00 -1.0000e+00
       13  1    1    2    0    0 +7.0075211707e+02 +7.4980152623e+01 +2.9292074550e+02 7.6320253931e+02 0.0000000000e+00 0.0000e+00 1.0000e+00
<mgrwt>
<rscale>  0 0.15231574E+04</rscale>
<asrwt>0</asrwt>
<pdfrwt beam="1">  1        2 0.11782206E+00 0.15231574E+04</pdfrwt>
<pdfrwt beam="2">  1       -2 0.11651351E+00 0.15231574E+04</pdfrwt>
<totfact> 0.24754857E+01</totfact>
</mgrwt>
<rwgt>
<wgt id='morphing_basis_vector_1'> +2.7573396e-04 </wgt>
<wgt id='morphing_basis_vector_2'> +1.8556437e-04 </wgt>
<wgt id='morphing_basis_vector_3'> +2.8723915e-04 </wgt>
<wgt id='morphing_basis_vector_4'> +1.8829786e-04 </wgt>
<wgt id='morphing_basis_vector_5'> +3.0582000e-04 </wgt>
</rwgt>
</event>
<event>
 4      1 +3.5234200e-07 1.31669100e+03 7.81860800e-03 8.43012600e-02
        2 -1    0    0  501    0 +0.0000000000e+00 +0.0000000000e+00 +8.0512880968e+02 8.0512880968e+02 0.0000000000e+00 0.0000e+00 -1.0000e+00
       -2 -1    0    0    0  501 -0.0000000000e+00 -0.0000000000e+00 -5.3832265400e+02 5.3832265400e+02 0.0000000000e+00 0.0000e+00 1.0000e+00
      -13  1    1    2    0    0 +4.8242934187e+02 -2.2717950465e+02 +5.2734645069e+02 7.4996191655e+02 0.0000000000e+00 0.0000e+00 1.0000e+00
       13  1    1    2    0    0 -4.8242934187e+02 +2.2717950465e+02 -2.6054029500e+02 5.9348954712e+02 0.0000000000e+00 0.0000e+00 -1.0000e+00
<mgrwt>
<rscale>  0 0.13166914E+04</rscale>
<asrwt>0</asrwt>
<pdfrwt beam="1">  1        2 0.12386597E+00 0.13166914E+04</pdfrwt>
<pdfrwt beam="2">  1       -2 0.82818869E-01 0.13166914E+04</pdfrwt>
<totfact> 0.53750039E+01</totfact>
</mgrwt>
<rwgt>
<wgt id='morphing_basis_vector_1'> +1.9179686e-04 </wgt>
<wgt id='morphing_basis_vector_2'> +2.0723629e-04 </wgt>
<wgt id='morphing_basis_vector_3'> +2.0224372e-04 </wgt>
<wgt id='morphing_basis_vector_4'> +4.1674022e-05 </wgt>
<wgt id='morphing_basis_vector_5'> +1.6240316e-04 </wgt>
</rwgt>
</event>
<event>
 4      1 +3.5234200e-07 1.40922400e+03 7.81860800e-03 8.36971400e-02
        2 -1    0    0  501    0 +0.0000000000e+00 +0.0000000000e+00 +1.9960832879e+03 1.9960832879e+03 0.0000000000e+00 0.0000e+00 -1.0000e+00
       -2 -1    0    0    0  501 -0.0000000000e+00 -0.0000000000e+00 -2.4872621295e+02 2.4872621295e+02 0.0000000000e+00 0.0000e+00 1.0000e+00
      -13  1    1    2    0    0 -6.1663480068e+01 -6.6783007669e+02 +1.2178377659e+03 1.3902978890e+03 0.0000000000e+00 0.0000e+00 1.0000e+00
       13  1    1    2    0    0 +6.1663480068e+01 +6.6783007669e+02 +5.2951930901e+02 8.5451161181e+02 0.0000000000e+00 0.0000e+00 -1.0000e+00
<mgrwt>
<rscale>  0 0.14092242E+04</rscale>
<asrwt>0</asrwt>
<pdfrwt beam="1">  1        2 0.30708973E+00 0.14092242E+04</pdfrwt>
<pdfrwt beam="2">  1       -2 0.38265573E-01 0.14092242E+04</pdfrwt>
<totfact> 0.51822781E+01</totfact>
</mgrwt>
<rwgt>
<wgt id='morphing_basis_vector_1'> +2.2363917e-04 </wgt>
<wgt id='morphing_basis_vector_2'> +1.9424300e-04 </wgt>
<wgt id='morphing_basis_vector_3'> +2.3504682e-04 </wgt>
<wgt id='morphing_basis_vector_4'> +1.0117421e-04 </wgt>
<wgt id='morphing_basis_vector_5'> +2.1887382e-04 </wgt>
</rwgt>
</event>
<event>
 4      1 +3.5234200e-07 1.42624200e+03 7.81860800e-03 8.35913000e-02
        2 -1    0    0  501    0 +0.0000000000e+00 +0.0000000000e+00 +2.0942537883e+03 2.0942537883e+03 0.0000000000e+00 0.0000e+00 -1.0000e+00
       -2 -1    0    0    0  501 -0.0000000000e+00 -0.0000000000e+00 -2.4282699158e+02 2.4282699158e+02 0.0000000000e+00 0.0000e+00 1.0000e+00
      -13  1    1    2    0    0 +3.9509193159e+01 +4.1771291307e+02 -1.9160816366e+01 4.2001451282e+02 0.0000000000e+00 0.0000e+00 1.0000e+00
       13  1    1    2    0    0 -3.9509193159e+01 -4.1771291307e+02 +1.8705876131e+03 1.9170662671e+03 0.0000000000e+00 0.0000e+00 -1.0000e+00
<mgrwt>
<rscale>  0 0.14262417E+04</rscale>
<asrwt>0</asrwt>
<pdfrwt beam="1">  1        2 0.32219288E+00 0.14262417E+04</pdfrwt>
<pdfrwt beam="2">  1       -2 0.37358000E-01 0.14262417E+04</pdfrwt>
<totfact> 0.47638654E+01</totfact>
</mgrwt>
<rwgt>
<wgt id='morphing_basis_vector_1'> +2.1242107e-04 </wgt>
<wgt id='morphing_basis_vector_2'> +1.3852283e-04 </wgt>
<wgt id='morphing_basis_vector_3'> +2.1894162e-04 </wgt>
<wgt id='morphing_basis_vector_4'> +1.4633637e-04 </wgt>
<wgt id='morphing_basis_vector_5'> +2.3299843e-04 </wgt>
</rwgt>
</event>
<event>
 4      1 +3.5234200e-07 1.36398300e+03 7.81860800e-03 8.39862600e-02
        2 -1    0    0  501    0 +0.0000000000e+00 +0.0000000000e+00 +1.8891933454e+03 1.8891933454e+03 0.0000000000e+00 0.0000e+00 -1.0000e+00
       -2 -1    0    0    0  501 -0.0000000000e+00 -0.0000000000e+00 -2.4619633823e+02 2.4619633823e+02 0.0000000000e+00 0.0000e+00 1.0000e+00
      -13  1    1    2    0    0 +2.0658303064e+02 -6.4927202992e+02 +8.6798693933e+02 1.1034636579e+03 0.0000000000e+00 0.0000e+00 1.0000e+00
       13  1    1    2    0    0 -2.0658303064e+02 +6.4927202992e+02 +7.7501006785e+02 1.0319260258e+03 0.0000000000e+00 0.0000e+00 -1.0000e+00
<mgrwt>
<rscale>  0 0.13639831E+04</rscale>
<asrwt>0</asrwt>
<pdfrwt beam="1">  1        2 0.29064512E+00 0.13639831E+04</pdfrwt>
<pdfrwt beam="2">  1       -2 0.37876361E-01 0.13639831E+04</pdfrwt>
<totfact> 0.60826625E+01</totfact>
</mgrwt>
<rwgt>
<wgt id='morphing_basis_vector_1'> +1.8648159e-04 </wgt>
<wgt id='morphing_basis_vector_2'> +1.3867430e-04 </wgt>
<wgt id='morphing_basis_vector_3'> +1.9259652e-04 </wgt>
<wgt id='morphing_basis_vector_4'> +1.0796929e-04 </wgt>
<wgt id='morphing_basis_vector_5'> +1.9245900e-04 </wgt>
</rwgt>
</event>
<event>
 4      1 +3.5234200e-07 1.45570300e+03 7.81860800e-03 8.34116400e-02
        2 -1    0    0  501    0 +0.0000000000e+00 +0.0000000000e+00 +1.0829147836e+03 1.0829147836e+03 0.0000000000e+00 0.0000e+00 -1.0000e+00
       -2 -1    0    0    0  501 -0.0000000000e+00 -0.0000000000e+00 -4.8920543480e+02 4.8920543480e+02 0.0000000000e+00 0.0000e+00 1.0000e+00
      -13  1    1    2    0    0 -6.6155824356e+02 +2.7926631463e+02 +1.6852943618e+02 7.3759823412e+02 0.0000000000e+00 0.0000e+00 1.0000e+00
       13  1    1    2    0    0 +6.6155824356e+02 -2.7926631463e+02 +4.2517991258e+02 8.3452198424e+02 0.0000000000e+00 0.0000e+00 -1.0000e+00
<mgrwt>
<rscale>  0 0.14557030E+04</rscale>
<asrwt>0</asrwt>
<pdfrwt beam="1">  1        2 0.16660227E+00 0.14557030E+04</pdfrwt>
<pdfrwt beam="2">  1       -2 0.75262375E-01 0.14557030E+04</pdfrwt>
<totfact> 0.43705461E+01</totfact>
</mgrwt>
<rwgt>
<wgt id='morphing_basis_vector_1'> +2.3423332e-04 </wgt>
<wgt id='morphing_basis_vector_2'> +1.6332828e-04 </wgt>
<wgt id='morphing_basis_vector_3'> +2.4323135e-04 </wgt>
<wgt id='morphing_basis_vector_4'> +1.5111095e-04 </wgt>
<wgt id='morphing_basis_vector_5'> +2.5307306e-04 </wgt>
</rwgt>
</event>
<event>
 4      1 +3.5234200e-07 1.44836200e+03 7.81860800e-03 8.34559900e-02
        2 -1    0    0  501    0 +0.0000000000e+00 +0.0000000000e+00 +1.2772319419e+03 1.2772319419e+03 0.0000000000e+00 0.0000e+00 -1.0000e+00
       -2 -1    0    0    0  501 -0.0000000000e+00 -0.0000000000e+00 -4.1060549115e+02 4.1060549115e+02 0.0000000000e+00 0.0000e+00 1.0000e+00
      -13  1    1    2    0    0 -3.7660738604e+02 -2.0656364103e+02 -2.4612885350e+02 4.9505663670e+02 0.0000000000e+00 0.0000e+00 1.0000e+00
       13  1    1    2    0    0 +3.7660738604e+02 +2.0656364103e+02 +1.1127553042e+03 1.1927807963e+03 0.0000000000e+00 0.0000e+00 -1.0000e+00
<mgrwt>
<rscale>  0 0.14483625E+04</rscale>
<asrwt>0</asrwt>
<pdfrwt beam="1">  1        2 0.19649722E+00 0.14483625E+04</pdfrwt>
<pdfrwt beam="2">  1       -2 0.63170076E-01 0.14483625E+04</pdfrwt>
<totfact> 0.48861174E+01</totfact>
</mgrwt>
<rwgt>
<wgt id='morphing_basis_vector_1'> +2.2538015e-04 </wgt>
<wgt id='morphing_basis_vector_2'> +1.4717339e-04 </wgt>
<wgt id='morphing_basis_vector_3'> +2.3279139e-04 </wgt>
<wgt id='morphing_basis_vector_4'> +1.5598501e-04 </wgt>
<wgt id='morphing_basis_vector_5'> +2.4840040e-04 </wgt>
</rwgt>
</event>
<event>
 4      1 +3.5234200e-07 1.46886800e+03 7.81860800e-03 8.33327800e-02
        2 -1    0    0  501    0 +0.0000000000e+00 +0.0000000000e+00 +1.2732759521e+03 1.2732759521e+03 0.0000000000e+00 0.0000e+00 1.0000e+00
       -2 -1    0    0    0  501 -0.0000000000e+00 -0.0000000000e+00 -4.2362636084e+02 4.2362636084e+02 0.0000000000e+00 0.0000e+00 -1.0000e+00
      -13  1    1    2    0    0 +6.1313480312e+02 +1.2174237260e+02 +8.7021296152e+02 1.0714597941e+03 0.0000000000e+00 0.0000e+00 1.0000e+00
       13  1    1    2    0    0 -6.1313480312e+02 -1.2174237260e+02 -2.0563370290e+01 6.2544251877e+02 0.0000000000e+00 0.0000e+00 -1.0000e+00
<mgrwt>
<rscale>  0 0.14688679E+04</rscale>
<asrwt>0</asrwt>
<pdfrwt beam="1">  1        2 0.19588861E+00 0.14688679E+04</pdfrwt>
<pdfrwt beam="2">  1       -2 0.65173287E-01 0.14688679E+04</pdfrwt>
<totfact> 0.45944741E+01</totfact>
</mgrwt>
<rwgt>
<wgt id='morphing_basis_vector_1'> +2.8426668e-04 </wgt>
<wgt id='morphing_basis_vector_2'> +2.9378863e-04 </wgt>
<wgt id='morphing_basis_vector_3'> +3.0623911e-04 </wgt>
<wgt id='morphing_basis_vector_4'> +7.9412604e-05 </wgt>
<wgt id='morphing_basis_vector_5'> +2.5700585e-04 </wgt>
</rwgt>
</event>
<event>
 4      1 +3.5234200e-07 1.36763500e+03 7.81860800e-03 8.39624900e-02
        2 -1    0    0  501    0 +0.0000000000e+00 +0.0000000000e+00 +9.2721145045e+02 9.2721145045e+02 0.0000000000e+00 0.0000e+00 1.0000e+00
       -2 -1    0    0    0  501 -0.0000000000e+00 -0.0000000000e+00 -5.0431466536e+02 5.0431466536e+02 0.0000000000e+00 0.0000e+00 -1.0000e+00
      -13  1    1    2    0    0 -1.7649566739e+02 -3.3085043353e+02 -3.8709923778e+02 5.3894206540e+02 0.0000000000e+00 0.0000e+00 -1.0000e+00
       13  1    1    2    0    0 +1.7649566739e+02 +3.3085043353e+02 +8.0999602286e+02 8.9258405040e+02 0.0000000000e+00 0.0000e+00 1.0000e+00
<mgrwt>
<rscale>  0 0.13676349E+04</rscale>
<asrwt>0</asrwt>
<pdfrwt beam="1">  1        2 0.14264792E+00 0.13676349E+04</pdfrwt>
<pdfrwt beam="2">  1       -2 0.77586872E-01 0.13676349E+04</pdfrwt>
<totfact> 0.51429775E+01</totfact>
</mgrwt>
<rwgt>
<wgt id='morphing_basis_vector_1'> +1.8080348e-04 </wgt>
<wgt id='morphing_basis_vector_2'> +1.1741415e-04 </wgt>
<wgt id='morphing_basis_vector_3'> +1.8521940e-04 </wgt>
<wgt id='morphing_basis_vector_4'> +1.2293532e-04 </wgt>
<wgt id='morphing_basis_vector_5'> +1.9560885e-04 </wgt>
</rwgt>
</event>
</LesHouchesEvents>
