<LesHouchesEvents version="3.0">
<header>
<!--
#*********************************************************************
#                                                                    *
#                        MadGraph5_aMC@NLO                           *
#                                                                    *
#                           Going Beyond                             *
#                                                                    *
#                   http://madgraph.hep.uiuc.edu                     *
#                   http://madgraph.phys.ucl.ac.be                   *
#                   http://amcatnlo.cern.ch                          *
#                                                                    *
#                     The MadGraph5_aMC@NLO team                     *
#                                                                    *
#....................................................................*
#                                                                    *
# This file contains all the information necessary to reproduce      *
# the events generated:                                              *
#                                                                    *
# 1. software version                                                *
# 2. proc_card          : code generation info including model       *
# 3. param_card         : model primary parameters in the LH format  *
# 4. run_card           : running parameters (collider and cuts)     *
# 5. pythia_card        : present only if pythia has been run        *
# 6. pgs_card           : present only if pgs has been run           *
# 7. delphes_cards      : present only if delphes has been run       *
#                                                                    *
#                                                                    *
#*********************************************************************
-->
<MGVersion>
2.6.4
</MGVersion>
<MG5ProcCard>
<![CDATA[
#************************************************************
#*                     MadGraph5_aMC@NLO                    *
#*                                                          *
#*                *                       *                 *
#*                  *        * *        *                   *
#*                    * * * * 5 * * * *                     *
#*                  *        * *        *                   *
#*                *                       *                 *
#*                                                          *
#*                                                          *
#*         VERSION 2.6.4                 2018-11-09         *
#*                                                          *
#*    The MadGraph5_aMC@NLO Development Team - Find us at   *
#*    https://server06.fynu.ucl.ac.be/projects/madgraph     *
#*                                                          *
#************************************************************
#*                                                          *
#*               Command File for MadGraph5_aMC@NLO         *
#*                                                          *
#*     run as ./bin/mg5_aMC  filename                       *
#*                                                          *
#************************************************************
set default_unset_couplings 99
set group_subprocesses Auto
set ignore_six_quark_processes False
set loop_optimized_output True
set loop_color_flows False
set gauge unitary
set complex_mass_scheme False
set max_npoint_for_channel 0
import model SM4fLL_UFO
define p = g u c d s u~ c~ d~ s~
define j = g u c d s u~ c~ d~ s~
define l+ = e+ mu+
define l- = e- mu-
define vl = ve vm vt
define vl~ = ve~ vm~ vt~
generate u u~ > mu+ mu- NP=2 QED=99 QCD=0
output /Users/dpappadopulo/Projects/~Physics/madminer/examples/example\
4_systematics_DY/data/mg_processes/DY_sys/
]]>
</MG5ProcCard>
<MGProcCard>
#*********************************************************************
#                        MadGraph/MadEvent                           *
#                   http://madgraph.hep.uiuc.edu                     *
#                                                                    *
#                          proc_card.dat                             *
#*********************************************************************
#                                                                    *
#            This Files is generated by MADGRAPH 5                   *
#                                                                    *
# WARNING: This Files is generated for MADEVENT (compatibility issue)*
#          This files is NOT a valid MG4 proc_card.dat               *
#          Running this in MG4 will NEVER reproduce the result of MG5*
#                                                                    *
#*********************************************************************
#*********************************************************************
# Process(es) requested : mg2 input                                  *
#*********************************************************************
# Begin PROCESS # This is TAG. Do not modify this line
u u~ > mu+ mu-           #Process
# Be carefull the coupling are here in MG5 convention
NP=2
QED=99
QCD=0
          
end_coup           # End the couplings input

done               # this tells MG there are no more procs
# End PROCESS  # This is TAG. Do not modify this line
#*********************************************************************
# Model information                                                  *
#*********************************************************************
# Begin MODEL  # This is TAG. Do not modify this line
SM4fLL_UFO
# End   MODEL  # This is TAG. Do not modify this line
#*********************************************************************
# Start multiparticle definitions                                    *
#*********************************************************************
# Begin MULTIPARTICLES # This is TAG. Do not modify this line

# End  MULTIPARTICLES # This is TAG. Do not modify this line
</MGProcCard>
<MGRunCard>
<![CDATA[
#*********************************************************************
#                       MadGraph5_aMC@NLO                            *
#                                                                    *
#                     run_card.dat MadEvent                          *
#                                                                    *
#  This file is used to set the parameters of the run.               *
#                                                                    *
#  Some notation/conventions:                                        *
#                                                                    *
#   Lines starting with a '# ' are info or comments                  *
#                                                                    *
#   mind the format:   value    = variable     ! comment             *
#*********************************************************************
#
#*******************                                                 
# Running parameters
#*******************                                                 
#                                                                    
#*********************************************************************
# Tag name for the run (one word)                                    *
#*********************************************************************
  tag_1     = run_tag ! name of the run 
#*********************************************************************
# Run to generate the grid pack                                      *
#*********************************************************************
  False     = gridpack  !True = setting up the grid pack
#*********************************************************************
# Number of events and rnd seed                                      *
# Warning: Do not generate more than 1M events in a single run       *
# If you want to run Pythia, avoid more than 50k events in a run.    *
#*********************************************************************
  1000 = nevents ! Number of unweighted events requested
 30 = iseed   ! rnd seed (0=assigned automatically=default))
#*********************************************************************
# Collider type and energy                                           *
# lpp: 0=No PDF, 1=proton, -1=antiproton, 2=photon from proton,      *
#                                         3=photon from electron     *
#*********************************************************************
     1        = lpp1    ! beam 1 type 
     1        = lpp2    ! beam 2 type
     6500.0     = ebeam1  ! beam 1 total energy in GeV
     6500.0     = ebeam2  ! beam 2 total energy in GeV
#*********************************************************************
# Beam polarization from -100 (left-handed) to 100 (right-handed)    *
#*********************************************************************
     0.0     = polbeam1 ! beam polarization for beam 1
     0.0     = polbeam2 ! beam polarization for beam 2
#*********************************************************************
# PDF CHOICE: this automatically fixes also alpha_s and its evol.    *
#*********************************************************************
     lhapdf    = pdlabel     ! PDF set
     90900   = lhaid     ! if pdlabel=lhapdf, this is the lhapdf number
#*********************************************************************
# Renormalization and factorization scales                           *
#*********************************************************************
 False = fixed_ren_scale  ! if .true. use fixed ren scale
 False        = fixed_fac_scale  ! if .true. use fixed fac scale
 91.188  = scale            ! fixed ren scale
 91.188  = dsqrt_q2fact1    ! fixed fact scale for pdf1
 91.188  = dsqrt_q2fact2    ! fixed fact scale for pdf2
 -1 = dynamical_scale_choice ! Choose one of the preselected dynamical choices
 1.0  = scalefact        ! scale factor for event-by-event scales
#*********************************************************************
# Type and output format
#*********************************************************************
  False     = gridpack  !True = setting up the grid pack
  -1.0 = time_of_flight ! threshold (in mm) below which the invariant livetime is not written (-1 means not written)
  3.0 = lhe_version       ! Change the way clustering information pass to shower.        
  True = clusinfo         ! include clustering tag in output
  sum =  event_norm       ! average/sum. Normalization of the weight in the LHEF
#*********************************************************************
# Matching - Warning! ickkw > 1 is still beta
#*********************************************************************
 0 = ickkw            ! 0 no matching, 1 MLM, 2 CKKW matching
 1 = highestmult      ! for ickkw=2, highest mult group
 1 = ktscheme         ! for ickkw=1, 1 Durham kT, 2 Pythia pTE
 1.0 = alpsfact         ! scale factor for QCD emission vx
 False = chcluster        ! cluster only according to channel diag
 True = pdfwgt           ! for ickkw=1, perform pdf reweighting
 4 = asrwgtflavor     ! highest quark flavor for a_s reweight    
#*********************************************************************
#**********************************************************
#
#**********************************************************
# Automatic ptj and mjj cuts if xqcut > 0
# (turn off for VBF and single top processes)
#**********************************************************
   False  = auto_ptj_mjj  ! Automatic setting of ptj and mjj
#**********************************************************
#                                                                    
#**********************************
# BW cutoff (M+/-bwcutoff*Gamma)
#**********************************
  15.0  = bwcutoff      ! (M+/-bwcutoff*Gamma)
#**********************************************************
# Apply pt/E/eta/dr/mij/kt_durham cuts on decay products or not
# (note that etmiss/ptll/ptheavy/ht/sorted cuts always apply)
#*************************************************************
   False  = cut_decays    ! Cut decay products 
#*************************************************************
# Number of helicities to sum per event (0 = all helicities)
# 0 gives more stable result, but longer run time (needed for
# long decay chains e.g.).
# Use >=2 if most helicities contribute, e.g. pure QCD.
#*************************************************************
   0  = nhel          ! Number of helicities used per event
#*******************                                                 
# Standard Cuts
#*******************                                                 
#                                                                    
#*********************************************************************
# Minimum and maximum pt's (for max, -1 means no cut)                *
#*********************************************************************
 15.0  = ptj       ! minimum pt for the jets
 0.0  = ptb       ! minimum pt for the b 
 0.0 = pta       ! minimum pt for the photons
 25.0  = ptl       ! minimum pt for the charged leptons
 0.0  = misset    ! minimum missing Et (sum of neutrino's momenta)
 0.0  = ptheavy   ! minimum pt for one heavy final state
 -1.0  = ptjmax    ! maximum pt for the jets
 -1.0  = ptbmax    ! maximum pt for the b
 -1.0 = ptamax       ! maximum pt for the photons
 -1.0  = ptlmax    ! maximum pt for the charged leptons
 -1.0  = missetmax ! maximum missing Et (sum of neutrino's momenta)
#*********************************************************************
# Minimum and maximum E's (in the center of mass frame)              *
#*********************************************************************
  0.0  = ej     ! minimum E for the jets 
  0.0  = eb     ! minimum E for the b 
  0.0  = ea     ! minimum E for the photons 
  0.0  = el     ! minimum E for the charged leptons 
  -1.0   = ejmax ! maximum E for the jets
 -1.0   = ebmax ! maximum E for the b
 -1.0   = eamax ! maximum E for the photons
 -1.0   = elmax ! maximum E for the charged leptons
#*********************************************************************
# Maximum and minimum absolute rapidity (for max, -1 means no cut)   *
#*********************************************************************
 2.5 = etaj    ! max rap for the jets
  -1.0  = etab    ! max rap for the b
 3.0  = etaa    ! max rap for the photons
 2.5  = etal    ! max rap for the charged leptons
 0.0  = etajmin ! min rap for the jets
 0.0  = etabmin ! min rap for the b
 0.0  = etaamin ! min rap for the photons
 0.0  = etalmin ! main rap for the charged leptons
#*********************************************************************
# Minimum and maximum DeltaR distance                                *
#*********************************************************************
 0.0 = drjj    ! min distance between jets
 0.0 = drbb    ! min distance between b's
 0.0 = drll    ! min distance between leptons
 0.0 = draa    ! min distance between gammas
 0.0 = drbj    ! min distance between b and jet
 0.0 = draj    ! min distance between gamma and jet
 0.0 = drjl    ! min distance between jet and lepton
 0.0 = drab    ! min distance between gamma and b
 0.0 = drbl    ! min distance between b and lepton
 0.0 = dral    ! min distance between gamma and lepton
 -1.0  = drjjmax ! max distance between jets
 -1.0  = drbbmax ! max distance between b's
 -1.0  = drllmax ! max distance between leptons
 -1.0  = draamax ! max distance between gammas
 -1.0  = drbjmax ! max distance between b and jet
 -1.0  = drajmax ! max distance between gamma and jet
 -1.0  = drjlmax ! max distance between jet and lepton
 -1.0  = drabmax ! max distance between gamma and b
 -1.0  = drblmax ! max distance between b and lepton
 -1.0  = dralmax ! maxdistance between gamma and lepton
#*********************************************************************
# Minimum and maximum invariant mass for pairs                       *
# WARNING: for four lepton final state mmll cut require to have      *
#          different lepton masses for each flavor!                  *           
#*********************************************************************
 0.0   = mmjj    ! min invariant mass of a jet pair 
 0.0   = mmbb    ! min invariant mass of a b pair 
 0.0   = mmaa    ! min invariant mass of gamma gamma pair
 360   = mmll    ! min invariant mass of l+l- (same flavour) lepton pair
 -1.0  = mmjjmax ! max invariant mass of a jet pair
 -1.0  = mmbbmax ! max invariant mass of a b pair
 -1.0  = mmaamax ! max invariant mass of gamma gamma pair
 430  = mmllmax ! max invariant mass of l+l- (same flavour) lepton pair
#*********************************************************************
# Minimum and maximum invariant mass for all letpons                 *
#*********************************************************************
 0.0   = mmnl    ! min invariant mass for all letpons (l+- and vl) 
 -1.0  = mmnlmax ! max invariant mass for all letpons (l+- and vl) 
#*********************************************************************
# Minimum and maximum pt for 4-momenta sum of leptons                *
#*********************************************************************
 0.0   = ptllmin  ! Minimum pt for 4-momenta sum of leptons(l and vl)
 -1.0  = ptllmax  ! Maximum pt for 4-momenta sum of leptons(l and vl)
#*********************************************************************
# Inclusive cuts                                                     *
#*********************************************************************
 0.0  = xptj ! minimum pt for at least one jet  
 0.0  = xptb ! minimum pt for at least one b 
 0.0  = xpta ! minimum pt for at least one photon 
 0.0  = xptl ! minimum pt for at least one charged lepton 
#*********************************************************************
# Control the pt's of the jets sorted by pt                          *
#*********************************************************************
 0.0   = ptj1min ! minimum pt for the leading jet in pt
 0.0   = ptj2min ! minimum pt for the second jet in pt
 0.0   = ptj3min ! minimum pt for the third jet in pt
 0.0   = ptj4min ! minimum pt for the fourth jet in pt
 -1.0  = ptj1max ! maximum pt for the leading jet in pt 
 -1.0  = ptj2max ! maximum pt for the second jet in pt
 -1.0  = ptj3max ! maximum pt for the third jet in pt
 -1.0  = ptj4max ! maximum pt for the fourth jet in pt
 0   = cutuse  ! reject event if fails any (0) / all (1) jet pt cuts
#*********************************************************************
# Control the pt's of leptons sorted by pt                           *
#*********************************************************************
 0.0   = ptl1min ! minimum pt for the leading lepton in pt
 0.0   = ptl2min ! minimum pt for the second lepton in pt
 0.0   = ptl3min ! minimum pt for the third lepton in pt
 0.0   = ptl4min ! minimum pt for the fourth lepton in pt
 -1.0  = ptl1max ! maximum pt for the leading lepton in pt 
 -1.0  = ptl2max ! maximum pt for the second lepton in pt
 -1.0  = ptl3max ! maximum pt for the third lepton in pt
 -1.0  = ptl4max ! maximum pt for the fourth lepton in pt
#*********************************************************************
# Control the Ht(k)=Sum of k leading jets                            *
#*********************************************************************
 0.0   = htjmin ! minimum jet HT=Sum(jet pt)
 -1.0  = htjmax ! maximum jet HT=Sum(jet pt)
 0.0   = ihtmin  !inclusive Ht for all partons (including b)
 -1.0  = ihtmax  !inclusive Ht for all partons (including b)
 0.0   = ht2min ! minimum Ht for the two leading jets
 0.0   = ht3min ! minimum Ht for the three leading jets
 0.0   = ht4min ! minimum Ht for the four leading jets
 -1.0  = ht2max ! maximum Ht for the two leading jets
 -1.0  = ht3max ! maximum Ht for the three leading jets
 -1.0  = ht4max ! maximum Ht for the four leading jets
#***********************************************************************
# Photon-isolation cuts, according to hep-ph/9801442                   *
# When ptgmin=0, all the other parameters are ignored                  *
# When ptgmin>0, pta and draj are not going to be used                 *
#***********************************************************************
 0.0 = ptgmin ! Min photon transverse momentum
 0.4 = R0gamma ! Radius of isolation code
 1.0 = xn ! n parameter of eq.(3.4) in hep-ph/9801442
 1.0 = epsgamma ! epsilon_gamma parameter of eq.(3.4) in hep-ph/9801442
 True = isoEM ! isolate photons from EM energy (photons and leptons)
#*********************************************************************
# WBF cuts                                                           *
#*********************************************************************
 0.0   = xetamin ! minimum rapidity for two jets in the WBF case  
 0.0   = deltaeta ! minimum rapidity for two jets in the WBF case 
#*********************************************************************
# KT DURHAM CUT                                                      *
#*********************************************************************
 -1.0    =  ktdurham        
 0.4  =  dparameter 
#*********************************************************************
# maximal pdg code for quark to be considered as a light jet         *
# (otherwise b cuts are applied)                                     *
#*********************************************************************
 4 = maxjetflavor    ! Maximum jet pdg code
#*********************************************************************
# Jet measure cuts                                                   *
#*********************************************************************
 0.0   = xqcut   ! minimum kt jet measure between partons
#*********************************************************************
#
#*********************************************************************
# Store info for systematics studies                                 *
# WARNING: If use_syst is T, matched Pythia output is                *
#          meaningful ONLY if plotted taking matchscale              *
#          reweighting into account!                                 *
#*********************************************************************
#    False  = use_syst      ! Enable systematics studies # Commented out by MadMiner
#
#**************************************
# Parameter of the systematics study
#  will be used by SysCalc (if installed)
#**************************************                                  
#
0.5 1 2 = sys_scalefact  # factorization/renormalization scale factor
None = sys_alpsfact  # \alpha_s emission scale factors
30 50 = sys_matchscale # variation of merging scale
# PDF sets and number of members (0 or none for all members).
NNPDF23_lo_as_0130_qed = sys_pdf # matching scales
# MSTW2008nlo68cl.LHgrid 1  = sys_pdf


#*********************************************************************
# MadMiner systematics setup                                         *
#*********************************************************************
True = use_syst
systematics = systematics_program
['--pdf=90900'] = systematics_arguments
]]>
</MGRunCard>
<slha>
######################################################################
## PARAM_CARD AUTOMATICALY GENERATED BY MG5 FOLLOWING UFO MODEL   ####
######################################################################
##                                                                  ##
##  Width set on Auto will be computed following the information    ##
##        present in the decay.py files of the model.               ##
##        See  arXiv:1402.1178 for more details.                    ##
##                                                                  ##
######################################################################

###################################
## INFORMATION FOR CKMBLOCK
###################################
Block ckmblock 
    1 2.277360e-01 # cabi 

###################################
## INFORMATION FOR MASS
###################################
Block mass 
    5 4.700000e+00 # MB 
    6 1.720000e+02 # MT 
   15 1.777000e+00 # MTA 
   23 9.118760e+01 # MZ 
   25 1.250000e+02 # MH 
## Dependent parameters, given by model restrictions.
## Those values should be edited following the 
## analytical expression. MG5 ignores those values 
## but they are important for interfacing the output of MG5
## to external program such as Pythia.
  1 0.000000 # d : 0.0 
  2 0.000000 # u : 0.0 
  3 0.000000 # s : 0.0 
  4 0.000000 # c : 0.0 
  11 0.000000 # e- : 0.0 
  12 0.000000 # ve : 0.0 
  13 0.000000 # mu- : 0.0 
  14 0.000000 # vm : 0.0 
  16 0.000000 # vt : 0.0 
  21 0.000000 # g : 0.0 
  22 0.000000 # a : 0.0 
  24 79.824360 # w+ : cmath.sqrt(MZ__exp__2/2. + cmath.sqrt(MZ__exp__4/4. - (aEW*cmath.pi*MZ__exp__2)/(Gf*sqrt__2))) 

###################################
## INFORMATION FOR OBLIQUE
###################################
Block oblique 
    1    0.0    # MadMiner
    2    0.0    # MadMiner

###################################
## INFORMATION FOR SMINPUTS
###################################
Block sminputs 
    1 1.279000e+02 # aEWM1 
    2 1.166370e-05 # Gf 
    3 1.184000e-01 # aS 

###################################
## INFORMATION FOR YUKAWA
###################################
Block yukawa 
    5 4.700000e+00 # ymb 
    6 1.720000e+02 # ymt 
   15 1.777000e+00 # ymtau 

###################################
## INFORMATION FOR DECAY
###################################
DECAY   6 1.508336e+00 # WT 
DECAY  23 2.495200e+00 # WZ 
DECAY  24 2.085000e+00 # WW 
DECAY  25 4.070000e-03 # WH 
## Dependent parameters, given by model restrictions.
## Those values should be edited following the 
## analytical expression. MG5 ignores those values 
## but they are important for interfacing the output of MG5
## to external program such as Pythia.
DECAY  1 0.000000 # d : 0.0 
DECAY  2 0.000000 # u : 0.0 
DECAY  3 0.000000 # s : 0.0 
DECAY  4 0.000000 # c : 0.0 
DECAY  5 0.000000 # b : 0.0 
DECAY  11 0.000000 # e- : 0.0 
DECAY  12 0.000000 # ve : 0.0 
DECAY  13 0.000000 # mu- : 0.0 
DECAY  14 0.000000 # vm : 0.0 
DECAY  15 0.000000 # ta- : 0.0 
DECAY  16 0.000000 # vt : 0.0 
DECAY  21 0.000000 # g : 0.0 
DECAY  22 0.000000 # a : 0.0
</slha>
<initrwgt>
<weightgroup name='mg_reweighting' weight_name_strategy='includeIdInWeightName'>
<weight id='morphing_basis_vector_1'>set param_card oblique 1 -0.06391685 # orig: 0.0
set param_card oblique 2 -0.08653588 # orig: 0.0
</weight>
<weight id='morphing_basis_vector_2'>set param_card oblique 1 0.0342439 # orig: 0.0
set param_card oblique 2 -0.09831893 # orig: 0.0
</weight>
<weight id='morphing_basis_vector_3'>set param_card oblique 1 -0.08145691 # orig: 0.0
set param_card oblique 2 0.09700122 # orig: 0.0
</weight>
<weight id='morphing_basis_vector_4'>set param_card oblique 1 0.09132942 # orig: 0.0
set param_card oblique 2 -0.005442744 # orig: 0.0
</weight>
<weight id='morphing_basis_vector_5'>set param_card oblique 1 0.08535809 # orig: 0.0
set param_card oblique 2 0.08156918 # orig: 0.0
</weight>
</weightgroup>
</initrwgt>
<MGGenerationInfo>
#  Number of Events        :       1000
#  Integrated weight (pb)  :       0.0318949
</MGGenerationInfo>
</header>
<init>
2212 2212 6.500000e+03 6.500000e+03 0 0 90900 90900 -3 1
3.189490e-02 2.228658e-04 3.189490e-05 1
<generator name='MadGraph5_aMC@NLO' version='2.6.4'>please cite 1405.0301 </generator>
</init>
<event>
 4      1 +3.1894900e-05 3.95485700e+02 7.81860800e-03 9.66986300e-02
        2 -1    0    0  501    0 +0.0000000000e+00 +0.0000000000e+00 +7.0021333082e+02 7.0021333082e+02 0.0000000000e+00 0.0000e+00 1.0000e+00
       -2 -1    0    0    0  501 -0.0000000000e+00 -0.0000000000e+00 -5.5843325509e+01 5.5843325509e+01 0.0000000000e+00 0.0000e+00 -1.0000e+00
      -13  1    1    2    0    0 +1.4282411021e+02 -6.7520071634e+01 +9.4822857900e+01 1.8425270937e+02 0.0000000000e+00 0.0000e+00 -1.0000e+00
       13  1    1    2    0    0 -1.4282411021e+02 +6.7520071634e+01 +5.4954714741e+02 5.7180394696e+02 0.0000000000e+00 0.0000e+00 1.0000e+00
<mgrwt>
<rscale>  0 0.39548573E+03</rscale>
<asrwt>0</asrwt>
<pdfrwt beam="1">  1        2 0.10772512E+00 0.39548573E+03</pdfrwt>
<pdfrwt beam="2">  1       -2 0.85912814E-02 0.39548573E+03</pdfrwt>
<totfact> 0.38027293E+03</totfact>
</mgrwt>
<rwgt>
<wgt id='morphing_basis_vector_1'> +2.4551898e-04 </wgt>
<wgt id='morphing_basis_vector_2'> +1.3307773e-04 </wgt>
<wgt id='morphing_basis_vector_3'> +1.5577551e-04 </wgt>
<wgt id='morphing_basis_vector_4'> +3.4008697e-05 </wgt>
<wgt id='morphing_basis_vector_5'> +3.2977495e-05 </wgt>
</rwgt>
</event>
<event>
 4      1 +3.1894900e-05 3.66654600e+02 7.81860800e-03 9.76037600e-02
        2 -1    0    0  501    0 +0.0000000000e+00 +0.0000000000e+00 +2.4865898308e+02 2.4865898308e+02 0.0000000000e+00 0.0000e+00 1.0000e+00
       -2 -1    0    0    0  501 -0.0000000000e+00 -0.0000000000e+00 -1.3516064244e+02 1.3516064244e+02 0.0000000000e+00 0.0000e+00 -1.0000e+00
      -13  1    1    2    0    0 -1.5329800373e+02 +1.0039852034e+02 +6.2363756957e+01 1.9357008812e+02 0.0000000000e+00 0.0000e+00 1.0000e+00
       13  1    1    2    0    0 +1.5329800373e+02 -1.0039852034e+02 +5.1134583689e+01 1.9024953740e+02 0.0000000000e+00 0.0000e+00 -1.0000e+00
<mgrwt>
<rscale>  0 0.36665465E+03</rscale>
<asrwt>0</asrwt>
<pdfrwt beam="1">  1        2 0.38255228E-01 0.36665465E+03</pdfrwt>
<pdfrwt beam="2">  1       -2 0.20793945E-01 0.36665465E+03</pdfrwt>
<totfact> 0.29893126E+03</totfact>
</mgrwt>
<rwgt>
<wgt id='morphing_basis_vector_1'> +2.0889309e-04 </wgt>
<wgt id='morphing_basis_vector_2'> +1.2938790e-04 </wgt>
<wgt id='morphing_basis_vector_3'> +1.1701353e-04 </wgt>
<wgt id='morphing_basis_vector_4'> +2.5201609e-05 </wgt>
<wgt id='morphing_basis_vector_5'> +1.7308710e-05 </wgt>
</rwgt>
</event>
<event>
 4      1 +3.1894900e-05 3.63411100e+02 7.81860800e-03 9.77111700e-02
        2 -1    0    0  501    0 +0.0000000000e+00 +0.0000000000e+00 +1.5051591894e+03 1.5051591894e+03 0.0000000000e+00 0.0000e+00 1.0000e+00
       -2 -1    0    0    0  501 -0.0000000000e+00 -0.0000000000e+00 -2.1935822893e+01 2.1935822893e+01 0.0000000000e+00 0.0000e+00 -1.0000e+00
      -13  1    1    2    0    0 -1.6205919787e+02 +5.2513408131e+01 +4.7597742478e+02 5.0554460787e+02 0.0000000000e+00 0.0000e+00 -1.0000e+00
       13  1    1    2    0    0 +1.6205919787e+02 -5.2513408131e+01 +1.0072459417e+03 1.0215504044e+03 0.0000000000e+00 0.0000e+00 1.0000e+00
<mgrwt>
<rscale>  0 0.36341109E+03</rscale>
<asrwt>0</asrwt>
<pdfrwt beam="1">  1        2 0.23156287E+00 0.36341109E+03</pdfrwt>
<pdfrwt beam="2">  1       -2 0.33747432E-02 0.36341109E+03</pdfrwt>
<totfact> 0.51301442E+03</totfact>
</mgrwt>
<rwgt>
<wgt id='morphing_basis_vector_1'> +1.9915189e-04 </wgt>
<wgt id='morphing_basis_vector_2'> +1.1094593e-04 </wgt>
<wgt id='morphing_basis_vector_3'> +1.1993920e-04 </wgt>
<wgt id='morphing_basis_vector_4'> +2.3082688e-05 </wgt>
<wgt id='morphing_basis_vector_5'> +1.5543042e-05 </wgt>
</rwgt>
</event>
<event>
 4      1 +3.1894900e-05 3.60140800e+02 7.81860800e-03 9.78206900e-02
        2 -1    0    0  501    0 +0.0000000000e+00 +0.0000000000e+00 +1.4319830185e+02 1.4319830185e+02 0.0000000000e+00 0.0000e+00 -1.0000e+00
       -2 -1    0    0    0  501 -0.0000000000e+00 -0.0000000000e+00 -2.2643667244e+02 2.2643667244e+02 0.0000000000e+00 0.0000e+00 1.0000e+00
      -13  1    1    2    0    0 +3.1623294940e+01 +1.7721763387e+02 -4.6119340868e+01 1.8583088047e+02 0.0000000000e+00 0.0000e+00 1.0000e+00
       13  1    1    2    0    0 -3.1623294940e+01 -1.7721763387e+02 -3.7119029727e+01 1.8380409382e+02 0.0000000000e+00 0.0000e+00 -1.0000e+00
<mgrwt>
<rscale>  0 0.36014079E+03</rscale>
<asrwt>0</asrwt>
<pdfrwt beam="1">  1        2 0.22030508E-01 0.36014079E+03</pdfrwt>
<pdfrwt beam="2">  1       -2 0.34836411E-01 0.36014079E+03</pdfrwt>
<totfact> 0.23226291E+03</totfact>
</mgrwt>
<rwgt>
<wgt id='morphing_basis_vector_1'> +1.9868016e-04 </wgt>
<wgt id='morphing_basis_vector_2'> +1.2027900e-04 </wgt>
<wgt id='morphing_basis_vector_3'> +1.1233304e-04 </wgt>
<wgt id='morphing_basis_vector_4'> +2.3242134e-05 </wgt>
<wgt id='morphing_basis_vector_5'> +1.4439427e-05 </wgt>
</rwgt>
</event>
<event>
 4      1 +3.1894900e-05 3.63340300e+02 7.81860800e-03 9.77135300e-02
        2 -1    0    0  501    0 +0.0000000000e+00 +0.0000000000e+00 +9.6406251125e+02 9.6406251125e+02 0.0000000000e+00 0.0000e+00 1.0000e+00
       -2 -1    0    0    0  501 -0.0000000000e+00 -0.0000000000e+00 -3.4234338304e+01 3.4234338304e+01 0.0000000000e+00 0.0000e+00 -1.0000e+00
      -13  1    1    2    0    0 +1.5441445030e+02 +7.8653589717e+00 +7.2699029491e+02 7.4325000856e+02 0.0000000000e+00 0.0000e+00 1.0000e+00
       13  1    1    2    0    0 -1.5441445030e+02 -7.8653589717e+00 +2.0283787803e+02 2.5504684099e+02 0.0000000000e+00 0.0000e+00 -1.0000e+00
<mgrwt>
<rscale>  0 0.36334029E+03</rscale>
<asrwt>0</asrwt>
<pdfrwt beam="1">  1        2 0.14831729E+00 0.36334029E+03</pdfrwt>
<pdfrwt beam="2">  1       -2 0.52668220E-02 0.36334029E+03</pdfrwt>
<totfact> 0.53286833E+03</totfact>
</mgrwt>
<rwgt>
<wgt id='morphing_basis_vector_1'> +2.3206443e-04 </wgt>
<wgt id='morphing_basis_vector_2'> +2.1019954e-04 </wgt>
<wgt id='morphing_basis_vector_3'> +8.1853164e-05 </wgt>
<wgt id='morphing_basis_vector_4'> +3.1176332e-05 </wgt>
<wgt id='morphing_basis_vector_5'> +1.7657435e-05 </wgt>
</rwgt>
</event>
<event>
 4      1 +3.1894900e-05 3.84539700e+02 7.81860800e-03 9.70322400e-02
        2 -1    0    0  501    0 +0.0000000000e+00 +0.0000000000e+00 +6.9345110427e+02 6.9345110427e+02 0.0000000000e+00 0.0000e+00 1.0000e+00
       -2 -1    0    0    0  501 -0.0000000000e+00 -0.0000000000e+00 -5.3309741623e+01 5.3309741623e+01 0.0000000000e+00 0.0000e+00 -1.0000e+00
      -13  1    1    2    0    0 +3.1565338835e+01 +1.7541008265e+02 +1.7999850870e+02 2.5330718672e+02 0.0000000000e+00 0.0000e+00 -1.0000e+00
       13  1    1    2    0    0 -3.1565338835e+01 -1.7541008265e+02 +4.6014285395e+02 4.9345365917e+02 0.0000000000e+00 0.0000e+00 1.0000e+00
<mgrwt>
<rscale>  0 0.38453972E+03</rscale>
<asrwt>0</asrwt>
<pdfrwt beam="1">  1        2 0.10668478E+00 0.38453972E+03</pdfrwt>
<pdfrwt beam="2">  1       -2 0.82014992E-02 0.38453972E+03</pdfrwt>
<totfact> 0.41293978E+03</totfact>
</mgrwt>
<rwgt>
<wgt id='morphing_basis_vector_1'> +2.2937832e-04 </wgt>
<wgt id='morphing_basis_vector_2'> +1.2706436e-04 </wgt>
<wgt id='morphing_basis_vector_3'> +1.4188076e-04 </wgt>
<wgt id='morphing_basis_vector_4'> +2.9770092e-05 </wgt>
<wgt id='morphing_basis_vector_5'> +2.6164047e-05 </wgt>
</rwgt>
</event>
<event>
 4      1 +3.1894900e-05 4.08638000e+02 7.81860800e-03 9.63127000e-02
        2 -1    0    0  501    0 +0.0000000000e+00 +0.0000000000e+00 +5.0326185919e+01 5.0326185919e+01 0.0000000000e+00 0.0000e+00 -1.0000e+00
       -2 -1    0    0    0  501 -0.0000000000e+00 -0.0000000000e+00 -8.2951364144e+02 8.2951364144e+02 0.0000000000e+00 0.0000e+00 1.0000e+00
      -13  1    1    2    0    0 +1.2833670161e+02 +1.5548943453e+02 -3.1821634290e+02 3.7670799583e+02 0.0000000000e+00 0.0000e+00 1.0000e+00
       13  1    1    2    0    0 -1.2833670161e+02 -1.5548943453e+02 -4.6097111262e+02 5.0313183153e+02 0.0000000000e+00 0.0000e+00 -1.0000e+00
<mgrwt>
<rscale>  0 0.40863802E+03</rscale>
<asrwt>0</asrwt>
<pdfrwt beam="1">  1        2 0.77424905E-02 0.40863802E+03</pdfrwt>
<pdfrwt beam="2">  1       -2 0.12761748E+00 0.40863802E+03</pdfrwt>
<totfact> 0.53456330E+02</totfact>
</mgrwt>
<rwgt>
<wgt id='morphing_basis_vector_1'> +2.8214642e-04 </wgt>
<wgt id='morphing_basis_vector_2'> +1.8940001e-04 </wgt>
<wgt id='morphing_basis_vector_3'> +1.5962501e-04 </wgt>
<wgt id='morphing_basis_vector_4'> +4.0443567e-05 </wgt>
<wgt id='morphing_basis_vector_5'> +4.3549265e-05 </wgt>
</rwgt>
</event>
<event>
 4      1 +3.1894900e-05 3.60836200e+02 7.81860800e-03 9.77973000e-02
        2 -1    0    0  501    0 +0.0000000000e+00 +0.0000000000e+00 +5.0981007742e+02 5.0981007742e+02 0.0000000000e+00 0.0000e+00 -1.0000e+00
       -2 -1    0    0    0  501 -0.0000000000e+00 -0.0000000000e+00 -6.3848650265e+01 6.3848650265e+01 0.0000000000e+00 0.0000e+00 1.0000e+00
      -13  1    1    2    0    0 +1.4541788020e+02 -1.0693730644e+01 +5.4057269611e+01 1.5550853403e+02 0.0000000000e+00 0.0000e+00 1.0000e+00
       13  1    1    2    0    0 -1.4541788020e+02 +1.0693730644e+01 +3.9190415754e+02 4.1815019366e+02 0.0000000000e+00 0.0000e+00 -1.0000e+00
<mgrwt>
<rscale>  0 0.36083617E+03</rscale>
<asrwt>0</asrwt>
<pdfrwt beam="1">  1        2 0.78432317E-01 0.36083617E+03</pdfrwt>
<pdfrwt beam="2">  1       -2 0.98228696E-02 0.36083617E+03</pdfrwt>
<totfact> 0.44481362E+03</totfact>
</mgrwt>
<rwgt>
<wgt id='morphing_basis_vector_1'> +1.9465408e-04 </wgt>
<wgt id='morphing_basis_vector_2'> +1.0591849e-04 </wgt>
<wgt id='morphing_basis_vector_3'> +1.1875676e-04 </wgt>
<wgt id='morphing_basis_vector_4'> +2.2130591e-05 </wgt>
<wgt id='morphing_basis_vector_5'> +1.4402105e-05 </wgt>
</rwgt>
</event>
<event>
 4      1 +3.1894900e-05 3.83919900e+02 7.81860800e-03 9.70514800e-02
        2 -1    0    0  501    0 +0.0000000000e+00 +0.0000000000e+00 +6.4435778704e+01 6.4435778704e+01 0.0000000000e+00 0.0000e+00 -1.0000e+00
       -2 -1    0    0    0  501 -0.0000000000e+00 -0.0000000000e+00 -5.7186590640e+02 5.7186590640e+02 0.0000000000e+00 0.0000e+00 1.0000e+00
      -13  1    1    2    0    0 -8.6585860279e+00 -9.3234645919e+01 -5.3144862872e+02 5.3963442745e+02 0.0000000000e+00 0.0000e+00 1.0000e+00
       13  1    1    2    0    0 +8.6585860279e+00 +9.3234645919e+01 +2.4018501027e+01 9.6667257659e+01 0.0000000000e+00 0.0000e+00 -1.0000e+00
<mgrwt>
<rscale>  0 0.38391991E+03</rscale>
<asrwt>0</asrwt>
<pdfrwt beam="1">  1        2 0.99131962E-02 0.38391991E+03</pdfrwt>
<pdfrwt beam="2">  1       -2 0.87979374E-01 0.38391991E+03</pdfrwt>
<totfact> 0.96600076E+02</totfact>
</mgrwt>
<rwgt>
<wgt id='morphing_basis_vector_1'> +2.2690699e-04 </wgt>
<wgt id='morphing_basis_vector_2'> +1.2191191e-04 </wgt>
<wgt id='morphing_basis_vector_3'> +1.4276956e-04 </wgt>
<wgt id='morphing_basis_vector_4'> +2.9323944e-05 </wgt>
<wgt id='morphing_basis_vector_5'> +2.5702493e-05 </wgt>
</rwgt>
</event>
<event>
 4      1 +3.1894900e-05 3.63142300e+02 7.81860800e-03 9.77201200e-02
        2 -1    0    0  501    0 +0.0000000000e+00 +0.0000000000e+00 +9.9413292306e+02 9.9413292306e+02 0.0000000000e+00 0.0000e+00 1.0000e+00
       -2 -1    0    0    0  501 -0.0000000000e+00 -0.0000000000e+00 -3.3162644126e+01 3.3162644126e+01 0.0000000000e+00 0.0000e+00 -1.0000e+00
      -13  1    1    2    0    0 -1.4369651495e+02 -5.0484234878e+01 +2.0085619701e+02 2.5207252579e+02 0.0000000000e+00 0.0000e+00 -1.0000e+00
       13  1    1    2    0    0 +1.4369651495e+02 +5.0484234878e+01 +7.6011408191e+02 7.7522304139e+02 0.0000000000e+00 0.0000e+00 1.0000e+00
<mgrwt>
<rscale>  0 0.36314227E+03</rscale>
<asrwt>0</asrwt>
<pdfrwt beam="1">  1        2 0.15294350E+00 0.36314227E+03</pdfrwt>
<pdfrwt beam="2">  1       -2 0.51019460E-02 0.36314227E+03</pdfrwt>
<totfact> 0.53590582E+03</totfact>
</mgrwt>
<rwgt>
<wgt id='morphing_basis_vector_1'> +1.9785144e-04 </wgt>
<wgt id='morphing_basis_vector_2'> +1.0792731e-04 </wgt>
<wgt id='morphing_basis_vector_3'> +1.2076695e-04 </wgt>
<wgt id='morphing_basis_vector_4'> +2.2778814e-05 </wgt>
<wgt id='morphing_basis_vector_5'> +1.5367941e-05 </wgt>
</rwgt>
</event>
<event>
 4      1 +3.1894900e-05 3.85039200e+02 7.81860800e-03 9.70167600e-02
        2 -1    0    0  501    0 +0.0000000000e+00 +0.0000000000e+00 +1.5681548508e+03 1.5681548508e+03 0.0000000000e+00 0.0000e+00 -1.0000e+00
       -2 -1    0    0    0  501 -0.0000000000e+00 -0.0000000000e+00 -2.3635292566e+01 2.3635292566e+01 0.0000000000e+00 0.0000e+00 1.0000e+00
      -13  1    1    2    0    0 +1.1388712638e+02 +1.5102309757e+02 +6.2403373595e+02 6.5207082219e+02 0.0000000000e+00 0.0000e+00 1.0000e+00
       13  1    1    2    0    0 -1.1388712638e+02 -1.5102309757e+02 +9.2048582227e+02 9.3971932116e+02 0.0000000000e+00 0.0000e+00 -1.0000e+00
<mgrwt>
<rscale>  0 0.38503921E+03</rscale>
<asrwt>0</asrwt>
<pdfrwt beam="1">  1        2 0.24125451E+00 0.38503921E+03</pdfrwt>
<pdfrwt beam="2">  1       -2 0.36362001E-02 0.38503921E+03</pdfrwt>
<totfact> 0.42484808E+03</totfact>
</mgrwt>
<rwgt>
<wgt id='morphing_basis_vector_1'> +2.3206925e-04 </wgt>
<wgt id='morphing_basis_vector_2'> +1.3333786e-04 </wgt>
<wgt id='morphing_basis_vector_3'> +1.4045680e-04 </wgt>
<wgt id='morphing_basis_vector_4'> +3.0220253e-05 </wgt>
<wgt id='morphing_basis_vector_5'> +2.6584339e-05 </wgt>
</rwgt>
</event>
<event>
 4      1 +3.1894900e-05 3.74760300e+02 7.81860800e-03 9.73405000e-02
        2 -1    0    0  501    0 +0.0000000000e+00 +0.0000000000e+00 +4.4223941659e+02 4.4223941659e+02 0.0000000000e+00 0.0000e+00 1.0000e+00
       -2 -1    0    0    0  501 -0.0000000000e+00 -0.0000000000e+00 -7.9394378321e+01 7.9394378321e+01 0.0000000000e+00 0.0000e+00 -1.0000e+00
      -13  1    1    2    0    0 -7.8272262529e+01 -1.6481703435e+02 +1.2203949201e+02 2.1951045420e+02 0.0000000000e+00 0.0000e+00 -1.0000e+00
       13  1    1    2    0    0 +7.8272262529e+01 +1.6481703435e+02 +2.4080554627e+02 3.0212334072e+02 0.0000000000e+00 0.0000e+00 1.0000e+00
<mgrwt>
<rscale>  0 0.37476032E+03</rscale>
<asrwt>0</asrwt>
<pdfrwt beam="1">  1        2 0.68036832E-01 0.37476032E+03</pdfrwt>
<pdfrwt beam="2">  1       -2 0.12214520E-01 0.37476032E+03</pdfrwt>
<totfact> 0.37145026E+03</totfact>
</mgrwt>
<rwgt>
<wgt id='morphing_basis_vector_1'> +2.1611062e-04 </wgt>
<wgt id='morphing_basis_vector_2'> +1.2294602e-04 </wgt>
<wgt id='morphing_basis_vector_3'> +1.2996707e-04 </wgt>
<wgt id='morphing_basis_vector_4'> +2.6640121e-05 </wgt>
<wgt id='morphing_basis_vector_5'> +2.0909775e-05 </wgt>
</rwgt>
</event>
<event>
 4      1 +3.1894900e-05 3.84641100e+02 7.81860800e-03 9.70290900e-02
        2 -1    0    0  501    0 +0.0000000000e+00 +0.0000000000e+00 +1.1869219064e+03 1.1869219064e+03 0.0000000000e+00 0.0000e+00 -1.0000e+00
       -2 -1    0    0    0  501 -0.0000000000e+00 -0.0000000000e+00 -3.1162281246e+01 3.1162281246e+01 0.0000000000e+00 0.0000e+00 1.0000e+00
      -13  1    1    2    0    0 +1.7284820089e+02 +7.2777651762e+01 +4.4299809756e+02 4.8106174405e+02 0.0000000000e+00 0.0000e+00 1.0000e+00
       13  1    1    2    0    0 -1.7284820089e+02 -7.2777651762e+01 +7.1276152762e+02 7.3702244362e+02 0.0000000000e+00 0.0000e+00 -1.0000e+00
<mgrwt>
<rscale>  0 0.38464110E+03</rscale>
<asrwt>0</asrwt>
<pdfrwt beam="1">  1        2 0.18260334E+00 0.38464110E+03</pdfrwt>
<pdfrwt beam="2">  1       -2 0.47941980E-02 0.38464110E+03</pdfrwt>
<totfact> 0.45459318E+03</totfact>
</mgrwt>
<rwgt>
<wgt id='morphing_basis_vector_1'> +2.3099365e-04 </wgt>
<wgt id='morphing_basis_vector_2'> +1.3158716e-04 </wgt>
<wgt id='morphing_basis_vector_3'> +1.4048663e-04 </wgt>
<wgt id='morphing_basis_vector_4'> +3.0011707e-05 </wgt>
<wgt id='morphing_basis_vector_5'> +2.6319951e-05 </wgt>
</rwgt>
</event>
<event>
 4      1 +3.1894900e-05 3.77579000e+02 7.81860800e-03 9.72506300e-02
        2 -1    0    0  501    0 +0.0000000000e+00 +0.0000000000e+00 +7.2476117602e+01 7.2476117602e+01 0.0000000000e+00 0.0000e+00 1.0000e+00
       -2 -1    0    0    0  501 -0.0000000000e+00 -0.0000000000e+00 -4.9176861679e+02 4.9176861679e+02 0.0000000000e+00 0.0000e+00 -1.0000e+00
      -13  1    1    2    0    0 +3.5759676061e+01 +1.5344770988e+02 -5.4227448997e+01 1.6663004028e+02 0.0000000000e+00 0.0000e+00 1.0000e+00
       13  1    1    2    0    0 -3.5759676061e+01 -1.5344770988e+02 -3.6506505019e+02 3.9761469411e+02 0.0000000000e+00 0.0000e+00 -1.0000e+00
<mgrwt>
<rscale>  0 0.37757903E+03</rscale>
<asrwt>0</asrwt>
<pdfrwt beam="1">  1        2 0.11150172E-01 0.37757903E+03</pdfrwt>
<pdfrwt beam="2">  1       -2 0.75656711E-01 0.37757903E+03</pdfrwt>
<totfact> 0.11677040E+03</totfact>
</mgrwt>
<rwgt>
<wgt id='morphing_basis_vector_1'> +2.5850421e-04 </wgt>
<wgt id='morphing_basis_vector_2'> +2.4120593e-04 </wgt>
<wgt id='morphing_basis_vector_3'> +9.1883966e-05 </wgt>
<wgt id='morphing_basis_vector_4'> +3.4249866e-05 </wgt>
<wgt id='morphing_basis_vector_5'> +2.4903801e-05 </wgt>
</rwgt>
</event>
<event>
 4      1 +3.1894900e-05 3.66527600e+02 7.81860800e-03 9.76079500e-02
        2 -1    0    0  501    0 +0.0000000000e+00 +0.0000000000e+00 +1.2540338674e+03 1.2540338674e+03 0.0000000000e+00 0.0000e+00 -1.0000e+00
       -2 -1    0    0    0  501 -0.0000000000e+00 -0.0000000000e+00 -2.6782063419e+01 2.6782063419e+01 0.0000000000e+00 0.0000e+00 1.0000e+00
      -13  1    1    2    0    0 -5.7719507051e+01 +1.7036018831e+02 +7.3625502858e+02 7.5790870319e+02 0.0000000000e+00 0.0000e+00 1.0000e+00
       13  1    1    2    0    0 +5.7719507051e+01 -1.7036018831e+02 +4.9099677535e+02 5.2290722759e+02 0.0000000000e+00 0.0000e+00 -1.0000e+00
<mgrwt>
<rscale>  0 0.36652757E+03</rscale>
<asrwt>0</asrwt>
<pdfrwt beam="1">  1        2 0.19292824E+00 0.36652757E+03</pdfrwt>
<pdfrwt beam="2">  1       -2 0.41203184E-02 0.36652757E+03</pdfrwt>
<totfact> 0.52259801E+03</totfact>
</mgrwt>
<rwgt>
<wgt id='morphing_basis_vector_1'> +2.1402069e-04 </wgt>
<wgt id='morphing_basis_vector_2'> +1.4527127e-04 </wgt>
<wgt id='morphing_basis_vector_3'> +1.1087300e-04 </wgt>
<wgt id='morphing_basis_vector_4'> +2.6388476e-05 </wgt>
<wgt id='morphing_basis_vector_5'> +1.7598215e-05 </wgt>
</rwgt>
</event>
<event>
 4      1 +3.1894900e-05 3.89366500e+02 7.81860800e-03 9.68836900e-02
        2 -1    0    0  501    0 +0.0000000000e+00 +0.0000000000e+00 +2.3821255963e+02 2.3821255963e+02 0.0000000000e+00 0.0000e+00 -1.0000e+00
       -2 -1    0    0    0  501 -0.0000000000e+00 -0.0000000000e+00 -1.5910816942e+02 1.5910816942e+02 0.0000000000e+00 0.0000e+00 1.0000e+00
      -13  1    1    2    0    0 -9.3942117238e+01 -1.4272768741e+02 -5.5655771154e+01 1.7970497770e+02 0.0000000000e+00 0.0000e+00 1.0000e+00
       13  1    1    2    0    0 +9.3942117238e+01 +1.4272768741e+02 +1.3476016137e+02 2.1761575135e+02 0.0000000000e+00 0.0000e+00 -1.0000e+00
<mgrwt>
<rscale>  0 0.38936648E+03</rscale>
<asrwt>0</asrwt>
<pdfrwt beam="1">  1        2 0.36648086E-01 0.38936648E+03</pdfrwt>
<pdfrwt beam="2">  1       -2 0.24478180E-01 0.38936648E+03</pdfrwt>
<totfact> 0.23938636E+03</totfact>
</mgrwt>
<rwgt>
<wgt id='morphing_basis_vector_1'> +2.3623812e-04 </wgt>
<wgt id='morphing_basis_vector_2'> +1.2926614e-04 </wgt>
<wgt id='morphing_basis_vector_3'> +1.4801622e-04 </wgt>
<wgt id='morphing_basis_vector_4'> +3.1533531e-05 </wgt>
<wgt id='morphing_basis_vector_5'> +2.9037586e-05 </wgt>
</rwgt>
</event>
<event>
 4      1 +3.1894900e-05 3.66171100e+02 7.81860800e-03 9.76197000e-02
        2 -1    0    0  501    0 +0.0000000000e+00 +0.0000000000e+00 +4.3188570158e+02 4.3188570158e+02 0.0000000000e+00 0.0000e+00 -1.0000e+00
       -2 -1    0    0    0  501 -0.0000000000e+00 -0.0000000000e+00 -7.7613876603e+01 7.7613876603e+01 0.0000000000e+00 0.0000e+00 1.0000e+00
      -13  1    1    2    0    0 +9.1733796608e+01 +1.4592871165e+02 +9.1249433727e+01 1.9503009378e+02 0.0000000000e+00 0.0000e+00 1.0000e+00
       13  1    1    2    0    0 -9.1733796608e+01 -1.4592871165e+02 +2.6302239125e+02 3.1446948441e+02 0.0000000000e+00 0.0000e+00 -1.0000e+00
<mgrwt>
<rscale>  0 0.36617113E+03</rscale>
<asrwt>0</asrwt>
<pdfrwt beam="1">  1        2 0.66443953E-01 0.36617113E+03</pdfrwt>
<pdfrwt beam="2">  1       -2 0.11940597E-01 0.36617113E+03</pdfrwt>
<totfact> 0.39490909E+03</totfact>
</mgrwt>
<rwgt>
<wgt id='morphing_basis_vector_1'> +2.0298463e-04 </wgt>
<wgt id='morphing_basis_vector_2'> +1.1322124e-04 </wgt>
<wgt id='morphing_basis_vector_3'> +1.2248877e-04 </wgt>
<wgt id='morphing_basis_vector_4'> +2.3862114e-05 </wgt>
<wgt id='morphing_basis_vector_5'> +1.6749823e-05 </wgt>
</rwgt>
</event>
<event>
 4      1 +3.1894900e-05 3.71227200e+02 7.81860800e-03 9.74543700e-02
        2 -1    0    0  501    0 +0.0000000000e+00 +0.0000000000e+00 +9.3777771402e+01 9.3777771402e+01 0.0000000000e+00 0.0000e+00 1.0000e+00
       -2 -1    0    0    0  501 -0.0000000000e+00 -0.0000000000e+00 -3.6738356403e+02 3.6738356403e+02 0.0000000000e+00 0.0000e+00 -1.0000e+00
      -13  1    1    2    0    0 +6.6927903239e+01 +6.7645107329e+00 -3.5170809001e+02 3.5808334703e+02 0.0000000000e+00 0.0000e+00 -1.0000e+00
       13  1    1    2    0    0 -6.6927903239e+01 -6.7645107329e+00 +7.8102297383e+01 1.0307798841e+02 0.0000000000e+00 0.0000e+00 1.0000e+00
<mgrwt>
<rscale>  0 0.37122722E+03</rscale>
<asrwt>0</asrwt>
<pdfrwt beam="1">  1        2 0.14427349E-01 0.37122722E+03</pdfrwt>
<pdfrwt beam="2">  1       -2 0.56520548E-01 0.37122722E+03</pdfrwt>
<totfact> 0.15526567E+03</totfact>
</mgrwt>
<rwgt>
<wgt id='morphing_basis_vector_1'> +2.0836637e-04 </wgt>
<wgt id='morphing_basis_vector_2'> +1.1204144e-04 </wgt>
<wgt id='morphing_basis_vector_3'> +1.2932081e-04 </wgt>
<wgt id='morphing_basis_vector_4'> +2.4998660e-05 </wgt>
<wgt id='morphing_basis_vector_5'> +1.8983552e-05 </wgt>
</rwgt>
</event>
<event>
 4      1 +3.1894900e-05 3.82392200e+02 7.81860800e-03 9.70990900e-02
        2 -1    0    0  501    0 +0.0000000000e+00 +0.0000000000e+00 +9.4667737989e+02 9.4667737989e+02 0.0000000000e+00 0.0000e+00 -1.0000e+00
       -2 -1    0    0    0  501 -0.0000000000e+00 -0.0000000000e+00 -3.8614996792e+01 3.8614996792e+01 0.0000000000e+00 0.0000e+00 1.0000e+00
      -13  1    1    2    0    0 -5.2191814189e+01 +1.5600848355e+02 +2.0297843580e+02 2.6127165519e+02 0.0000000000e+00 0.0000e+00 1.0000e+00
       13  1    1    2    0    0 +5.2191814189e+01 -1.5600848355e+02 +7.0508394730e+02 7.2402072149e+02 0.0000000000e+00 0.0000e+00 -1.0000e+00
<mgrwt>
<rscale>  0 0.38239218E+03</rscale>
<asrwt>0</asrwt>
<pdfrwt beam="1">  1        2 0.14564266E+00 0.38239218E+03</pdfrwt>
<pdfrwt beam="2">  1       -2 0.59407694E-02 0.38239218E+03</pdfrwt>
<totfact> 0.45588050E+03</totfact>
</mgrwt>
<rwgt>
<wgt id='morphing_basis_vector_1'> +2.2536325e-04 </wgt>
<wgt id='morphing_basis_vector_2'> +1.2299433e-04 </wgt>
<wgt id='morphing_basis_vector_3'> +1.4028232e-04 </wgt>
<wgt id='morphing_basis_vector_4'> +2.8876987e-05 </wgt>
<wgt id='morphing_basis_vector_5'> +2.4877918e-05 </wgt>
</rwgt>
</event>
<event>
 4      1 +3.1894900e-05 3.71915600e+02 7.81860800e-03 9.74320700e-02
        2 -1    0    0  501    0 +0.0000000000e+00 +0.0000000000e+00 +8.6977638958e+01 8.6977638958e+01 0.0000000000e+00 0.0000e+00 1.0000e+00
       -2 -1    0    0    0  501 -0.0000000000e+00 -0.0000000000e+00 -3.9757703610e+02 3.9757703610e+02 0.0000000000e+00 0.0000e+00 -1.0000e+00
      -13  1    1    2    0    0 -8.2494704171e+01 +1.4178892159e+02 -2.6940865350e+02 3.1542114242e+02 0.0000000000e+00 0.0000e+00 -1.0000e+00
       13  1    1    2    0    0 +8.2494704171e+01 -1.4178892159e+02 -4.1190743636e+01 1.6913353264e+02 0.0000000000e+00 0.0000e+00 1.0000e+00
<mgrwt>
<rscale>  0 0.37191565E+03</rscale>
<asrwt>0</asrwt>
<pdfrwt beam="1">  1        2 0.13381175E-01 0.37191565E+03</pdfrwt>
<pdfrwt beam="2">  1       -2 0.61165698E-01 0.37191565E+03</pdfrwt>
<totfact> 0.14531488E+03</totfact>
</mgrwt>
<rwgt>
<wgt id='morphing_basis_vector_1'> +2.1022427e-04 </wgt>
<wgt id='morphing_basis_vector_2'> +1.1523863e-04 </wgt>
<wgt id='morphing_basis_vector_3'> +1.2903591e-04 </wgt>
<wgt id='morphing_basis_vector_4'> +2.5394059e-05 </wgt>
<wgt id='morphing_basis_vector_5'> +1.9375011e-05 </wgt>
</rwgt>
</event>
<event>
 4      1 +3.1894900e-05 4.15891800e+02 7.81860800e-03 9.61064100e-02
        2 -1    0    0  501    0 +0.0000000000e+00 +0.0000000000e+00 +6.3535433548e+02 6.3535433548e+02 0.0000000000e+00 0.0000e+00 -1.0000e+00
       -2 -1    0    0    0  501 -0.0000000000e+00 -0.0000000000e+00 -6.8058878636e+01 6.8058878636e+01 0.0000000000e+00 0.0000e+00 1.0000e+00
      -13  1    1    2    0    0 +4.8370345862e+01 +1.4424138229e+02 +4.3881780279e+01 1.5833785828e+02 0.0000000000e+00 0.0000e+00 1.0000e+00
       13  1    1    2    0    0 -4.8370345862e+01 -1.4424138229e+02 +5.2341367656e+02 5.4507535583e+02 0.0000000000e+00 0.0000e+00 -1.0000e+00
<mgrwt>
<rscale>  0 0.41589183E+03</rscale>
<asrwt>0</asrwt>
<pdfrwt beam="1">  1        2 0.97746817E-01 0.41589183E+03</pdfrwt>
<pdfrwt beam="2">  1       -2 0.10470597E-01 0.41589183E+03</pdfrwt>
<totfact> 0.31419522E+03</totfact>
</mgrwt>
<rwgt>
<wgt id='morphing_basis_vector_1'> +2.8046576e-04 </wgt>
<wgt id='morphing_basis_vector_2'> +1.5161602e-04 </wgt>
<wgt id='morphing_basis_vector_3'> +1.8273539e-04 </wgt>
<wgt id='morphing_basis_vector_4'> +4.3957634e-05 </wgt>
<wgt id='morphing_basis_vector_5'> +4.8607508e-05 </wgt>
</rwgt>
</event>
<event>
 4      1 +3.1894900e-05 3.69606100e+02 7.81860800e-03 9.75070700e-02
        2 -1    0    0  501    0 +0.0000000000e+00 +0.0000000000e+00 +5.4771960735e+01 5.4771960735e+01 0.0000000000e+00 0.0000e+00 -1.0000e+00
       -2 -1    0    0    0  501 -0.0000000000e+00 -0.0000000000e+00 -6.2353381452e+02 6.2353381452e+02 0.0000000000e+00 0.0000e+00 1.0000e+00
      -13  1    1    2    0    0 +9.8737612176e+00 -1.3178759757e+02 -5.2144825086e+02 5.3793469898e+02 0.0000000000e+00 0.0000e+00 1.0000e+00
       13  1    1    2    0    0 -9.8737612176e+00 +1.3178759757e+02 -4.7313602917e+01 1.4037107628e+02 0.0000000000e+00 0.0000e+00 -1.0000e+00
<mgrwt>
<rscale>  0 0.36960611E+03</rscale>
<asrwt>0</asrwt>
<pdfrwt beam="1">  1        2 0.84264552E-02 0.36960611E+03</pdfrwt>
<pdfrwt beam="2">  1       -2 0.95928283E-01 0.36960611E+03</pdfrwt>
<totfact> 0.97284096E+02</totfact>
</mgrwt>
<rwgt>
<wgt id='morphing_basis_vector_1'> +2.0630960e-04 </wgt>
<wgt id='morphing_basis_vector_2'> +1.1147901e-04 </wgt>
<wgt id='morphing_basis_vector_3'> +1.2746206e-04 </wgt>
<wgt id='morphing_basis_vector_4'> +2.4546611e-05 </wgt>
<wgt id='morphing_basis_vector_5'> +1.8227069e-05 </wgt>
</rwgt>
</event>
<event>
 4      1 +3.1894900e-05 3.72440200e+02 7.81860800e-03 9.74151200e-02
        2 -1    0    0  501    0 +0.0000000000e+00 +0.0000000000e+00 +1.3642696885e+02 1.3642696885e+02 0.0000000000e+00 0.0000e+00 1.0000e+00
       -2 -1    0    0    0  501 -0.0000000000e+00 -0.0000000000e+00 -2.5418672303e+02 2.5418672303e+02 0.0000000000e+00 0.0000e+00 -1.0000e+00
      -13  1    1    2    0    0 +1.4142681241e+02 -4.6516037558e+01 -1.7619807413e+02 2.3067519664e+02 0.0000000000e+00 0.0000e+00 -1.0000e+00
       13  1    1    2    0    0 -1.4142681241e+02 +4.6516037558e+01 +5.8438319948e+01 1.5993849523e+02 0.0000000000e+00 0.0000e+00 1.0000e+00
<mgrwt>
<rscale>  0 0.37244019E+03</rscale>
<asrwt>0</asrwt>
<pdfrwt beam="1">  1        2 0.20988764E-01 0.37244019E+03</pdfrwt>
<pdfrwt beam="2">  1       -2 0.39105650E-01 0.37244019E+03</pdfrwt>
<totfact> 0.19970389E+03</totfact>
</mgrwt>
<rwgt>
<wgt id='morphing_basis_vector_1'> +2.1050320e-04 </wgt>
<wgt id='morphing_basis_vector_2'> +1.1423358e-04 </wgt>
<wgt id='morphing_basis_vector_3'> +1.3008058e-04 </wgt>
<wgt id='morphing_basis_vector_4'> +2.5464112e-05 </wgt>
<wgt id='morphing_basis_vector_5'> +1.9600649e-05 </wgt>
</rwgt>
</event>
<event>
 4      1 +3.1894900e-05 3.84291100e+02 7.81860800e-03 9.70399500e-02
        2 -1    0    0  501    0 +0.0000000000e+00 +0.0000000000e+00 +5.6908306423e+02 5.6908306423e+02 0.0000000000e+00 0.0000e+00 -1.0000e+00
       -2 -1    0    0    0  501 -0.0000000000e+00 -0.0000000000e+00 -6.4876140815e+01 6.4876140815e+01 0.0000000000e+00 0.0000e+00 1.0000e+00
      -13  1    1    2    0    0 +3.4979061013e+00 +1.8667667336e+02 +1.7723798507e+02 2.5743682541e+02 0.0000000000e+00 0.0000e+00 1.0000e+00
       13  1    1    2    0    0 -3.4979061013e+00 -1.8667667336e+02 +3.2696893835e+02 3.7652237964e+02 0.0000000000e+00 0.0000e+00 -1.0000e+00
<mgrwt>
<rscale>  0 0.38429110E+03</rscale>
<asrwt>0</asrwt>
<pdfrwt beam="1">  1        2 0.87551238E-01 0.38429110E+03</pdfrwt>
<pdfrwt beam="2">  1       -2 0.99809451E-02 0.38429110E+03</pdfrwt>
<totfact> 0.38382906E+03</totfact>
</mgrwt>
<rwgt>
<wgt id='morphing_basis_vector_1'> +2.3027839e-04 </wgt>
<wgt id='morphing_basis_vector_2'> +1.3074549e-04 </wgt>
<wgt id='morphing_basis_vector_3'> +1.4027866e-04 </wgt>
<wgt id='morphing_basis_vector_4'> +2.9859945e-05 </wgt>
<wgt id='morphing_basis_vector_5'> +2.6103727e-05 </wgt>
</rwgt>
</event>
<event>
 4      1 +3.1894900e-05 3.75891900e+02 7.81860800e-03 9.73043200e-02
        2 -1    0    0  501    0 +0.0000000000e+00 +0.0000000000e+00 +7.5912763715e+02 7.5912763715e+02 0.0000000000e+00 0.0000e+00 1.0000e+00
       -2 -1    0    0    0  501 -0.0000000000e+00 -0.0000000000e+00 -4.6531935608e+01 4.6531935608e+01 0.0000000000e+00 0.0000e+00 -1.0000e+00
      -13  1    1    2    0    0 -2.2102847719e+01 +1.8351489846e+02 +4.2921588468e+02 4.6732486505e+02 0.0000000000e+00 0.0000e+00 1.0000e+00
       13  1    1    2    0    0 +2.2102847719e+01 -1.8351489846e+02 +2.8337981686e+02 3.3833470771e+02 0.0000000000e+00 0.0000e+00 -1.0000e+00
<mgrwt>
<rscale>  0 0.37589189E+03</rscale>
<asrwt>0</asrwt>
<pdfrwt beam="1">  1        2 0.11678886E+00 0.37589189E+03</pdfrwt>
<pdfrwt beam="2">  1       -2 0.71587599E-02 0.37589189E+03</pdfrwt>
<totfact> 0.45553114E+03</totfact>
</mgrwt>
<rwgt>
<wgt id='morphing_basis_vector_1'> +2.2758602e-04 </wgt>
<wgt id='morphing_basis_vector_2'> +1.5362248e-04 </wgt>
<wgt id='morphing_basis_vector_3'> +1.2051258e-04 </wgt>
<wgt id='morphing_basis_vector_4'> +2.8804185e-05 </wgt>
<wgt id='morphing_basis_vector_5'> +2.2139372e-05 </wgt>
</rwgt>
</event>
<event>
 4      1 +3.1894900e-05 3.87086300e+02 7.81860800e-03 9.69535700e-02
        2 -1    0    0  501    0 +0.0000000000e+00 +0.0000000000e+00 +4.3559948104e+02 4.3559948104e+02 0.0000000000e+00 0.0000e+00 1.0000e+00
       -2 -1    0    0    0  501 -0.0000000000e+00 -0.0000000000e+00 -8.5994027447e+01 8.5994027447e+01 0.0000000000e+00 0.0000e+00 -1.0000e+00
      -13  1    1    2    0    0 +1.8015063994e+02 -5.2400124868e+01 +1.1075915963e+02 2.1787064419e+02 0.0000000000e+00 0.0000e+00 -1.0000e+00
       13  1    1    2    0    0 -1.8015063994e+02 +5.2400124868e+01 +2.3884629396e+02 3.0372286429e+02 0.0000000000e+00 0.0000e+00 1.0000e+00
<mgrwt>
<rscale>  0 0.38708631E+03</rscale>
<asrwt>0</asrwt>
<pdfrwt beam="1">  1        2 0.67015303E-01 0.38708631E+03</pdfrwt>
<pdfrwt beam="2">  1       -2 0.13229851E-01 0.38708631E+03</pdfrwt>
<totfact> 0.33329788E+03</totfact>
</mgrwt>
<rwgt>
<wgt id='morphing_basis_vector_1'> +2.3450730e-04 </wgt>
<wgt id='morphing_basis_vector_2'> +1.3288386e-04 </wgt>
<wgt id='morphing_basis_vector_3'> +1.4353178e-04 </wgt>
<wgt id='morphing_basis_vector_4'> +3.0878183e-05 </wgt>
<wgt id='morphing_basis_vector_5'> +2.7757959e-05 </wgt>
</rwgt>
</event>
<event>
 4      1 +3.1894900e-05 4.06652100e+02 7.81860800e-03 9.63699800e-02
        2 -1    0    0  501    0 +0.0000000000e+00 +0.0000000000e+00 +1.9890292088e+02 1.9890292088e+02 0.0000000000e+00 0.0000e+00 -1.0000e+00
       -2 -1    0    0    0  501 -0.0000000000e+00 -0.0000000000e+00 -2.0784755038e+02 2.0784755038e+02 0.0000000000e+00 0.0000e+00 1.0000e+00
      -13  1    1    2    0    0 -1.0053266046e+02 -9.3948442596e+01 -1.5420274141e+02 2.0666787642e+02 0.0000000000e+00 0.0000e+00 1.0000e+00
       13  1    1    2    0    0 +1.0053266046e+02 +9.3948442596e+01 +1.4525811191e+02 2.0008259485e+02 0.0000000000e+00 0.0000e+00 -1.0000e+00
<mgrwt>
<rscale>  0 0.40665211E+03</rscale>
<asrwt>0</asrwt>
<pdfrwt beam="1">  1        2 0.30600449E-01 0.40665211E+03</pdfrwt>
<pdfrwt beam="2">  1       -2 0.31976546E-01 0.40665211E+03</pdfrwt>
<totfact> 0.18539775E+03</totfact>
</mgrwt>
<rwgt>
<wgt id='morphing_basis_vector_1'> +2.6391708e-04 </wgt>
<wgt id='morphing_basis_vector_2'> +1.4224878e-04 </wgt>
<wgt id='morphing_basis_vector_3'> +1.7023738e-04 </wgt>
<wgt id='morphing_basis_vector_4'> +3.9143966e-05 </wgt>
<wgt id='morphing_basis_vector_5'> +4.1043181e-05 </wgt>
</rwgt>
</event>
<event>
 4      1 +3.1894900e-05 4.20003100e+02 7.81860800e-03 9.59914600e-02
        2 -1    0    0  501    0 +0.0000000000e+00 +0.0000000000e+00 +5.1713669431e+02 5.1713669431e+02 0.0000000000e+00 0.0000e+00 -1.0000e+00
       -2 -1    0    0    0  501 -0.0000000000e+00 -0.0000000000e+00 -8.5278523288e+01 8.5278523288e+01 0.0000000000e+00 0.0000e+00 1.0000e+00
      -13  1    1    2    0    0 +9.0712085193e+01 +1.8231445650e+02 +1.4232487136e+02 2.4844237250e+02 0.0000000000e+00 0.0000e+00 1.0000e+00
       13  1    1    2    0    0 -9.0712085193e+01 -1.8231445650e+02 +2.8953329967e+02 3.5397284510e+02 0.0000000000e+00 0.0000e+00 -1.0000e+00
<mgrwt>
<rscale>  0 0.42000311E+03</rscale>
<asrwt>0</asrwt>
<pdfrwt beam="1">  1        2 0.79559489E-01 0.42000311E+03</pdfrwt>
<pdfrwt beam="2">  1       -2 0.13119773E-01 0.42000311E+03</pdfrwt>
<totfact> 0.27926122E+03</totfact>
</mgrwt>
<rwgt>
<wgt id='morphing_basis_vector_1'> +2.9127083e-04 </wgt>
<wgt id='morphing_basis_vector_2'> +1.6567369e-04 </wgt>
<wgt id='morphing_basis_vector_3'> +1.8593836e-04 </wgt>
<wgt id='morphing_basis_vector_4'> +4.6151488e-05 </wgt>
<wgt id='morphing_basis_vector_5'> +5.2434609e-05 </wgt>
</rwgt>
</event>
<event>
 4      1 +3.1894900e-05 4.07630900e+02 7.81860800e-03 9.63417100e-02
        2 -1    0    0  501    0 +0.0000000000e+00 +0.0000000000e+00 +2.0253708758e+03 2.0253708758e+03 0.0000000000e+00 0.0000e+00 -1.0000e+00
       -2 -1    0    0    0  501 -0.0000000000e+00 -0.0000000000e+00 -2.0510188391e+01 2.0510188391e+01 0.0000000000e+00 0.0000e+00 1.0000e+00
      -13  1    1    2    0    0 -8.3257373677e+01 +1.8507842355e+02 +9.0787596767e+02 9.3028199263e+02 0.0000000000e+00 0.0000e+00 1.0000e+00
       13  1    1    2    0    0 +8.3257373677e+01 -1.8507842355e+02 +1.0969847198e+03 1.1155990716e+03 0.0000000000e+00 0.0000e+00 -1.0000e+00
<mgrwt>
<rscale>  0 0.40763090E+03</rscale>
<asrwt>0</asrwt>
<pdfrwt beam="1">  1        2 0.31159536E+00 0.40763090E+03</pdfrwt>
<pdfrwt beam="2">  1       -2 0.31554152E-02 0.40763090E+03</pdfrwt>
<totfact> 0.29770132E+03</totfact>
</mgrwt>
<rwgt>
<wgt id='morphing_basis_vector_1'> +2.7133880e-04 </wgt>
<wgt id='morphing_basis_vector_2'> +1.6070571e-04 </wgt>
<wgt id='morphing_basis_vector_3'> +1.6636741e-04 </wgt>
<wgt id='morphing_basis_vector_4'> +3.9777631e-05 </wgt>
<wgt id='morphing_basis_vector_5'> +4.2174386e-05 </wgt>
</rwgt>
</event>
<event>
 4      1 +3.1894900e-05 4.19735600e+02 7.81860800e-03 9.59989000e-02
        2 -1    0    0  501    0 +0.0000000000e+00 +0.0000000000e+00 +4.2176815840e+02 4.2176815840e+02 0.0000000000e+00 0.0000e+00 -1.0000e+00
       -2 -1    0    0    0  501 -0.0000000000e+00 -0.0000000000e+00 -1.0442819033e+02 1.0442819033e+02 0.0000000000e+00 0.0000e+00 1.0000e+00
      -13  1    1    2    0    0 +1.5886072334e+02 +1.2679178678e+02 +2.2419098576e+02 3.0261276363e+02 0.0000000000e+00 0.0000e+00 1.0000e+00
       13  1    1    2    0    0 -1.5886072334e+02 -1.2679178678e+02 +9.3148982314e+01 2.2358358509e+02 0.0000000000e+00 0.0000e+00 -1.0000e+00
<mgrwt>
<rscale>  0 0.41973556E+03</rscale>
<asrwt>0</asrwt>
<pdfrwt beam="1">  1        2 0.64887408E-01 0.41973556E+03</pdfrwt>
<pdfrwt beam="2">  1       -2 0.16065876E-01 0.41973556E+03</pdfrwt>
<totfact> 0.25383935E+03</totfact>
</mgrwt>
<rwgt>
<wgt id='morphing_basis_vector_1'> +3.0899661e-04 </wgt>
<wgt id='morphing_basis_vector_2'> +2.2140849e-04 </wgt>
<wgt id='morphing_basis_vector_3'> +1.7032893e-04 </wgt>
<wgt id='morphing_basis_vector_4'> +4.5390560e-05 </wgt>
<wgt id='morphing_basis_vector_5'> +5.3333416e-05 </wgt>
</rwgt>
</event>
<event>
 4      1 +3.1894900e-05 3.62137300e+02 7.81860800e-03 9.77536800e-02
        2 -1    0    0  501    0 +0.0000000000e+00 +0.0000000000e+00 +7.3230435468e+02 7.3230435468e+02 0.0000000000e+00 0.0000e+00 1.0000e+00
       -2 -1    0    0    0  501 -0.0000000000e+00 -0.0000000000e+00 -4.4770817515e+01 4.4770817515e+01 0.0000000000e+00 0.0000e+00 -1.0000e+00
      -13  1    1    2    0    0 +9.0002623634e+01 -1.2849150599e+02 +5.3778486402e+02 5.6019916042e+02 0.0000000000e+00 0.0000e+00 -1.0000e+00
       13  1    1    2    0    0 -9.0002623634e+01 +1.2849150599e+02 +1.4974867314e+02 2.1687601177e+02 0.0000000000e+00 0.0000e+00 1.0000e+00
<mgrwt>
<rscale>  0 0.36213735E+03</rscale>
<asrwt>0</asrwt>
<pdfrwt beam="1">  1        2 0.11266220E+00 0.36213735E+03</pdfrwt>
<pdfrwt beam="2">  1       -2 0.68878186E-02 0.36213735E+03</pdfrwt>
<totfact> 0.50425917E+03</totfact>
</mgrwt>
<rwgt>
<wgt id='morphing_basis_vector_1'> +2.2774128e-04 </wgt>
<wgt id='morphing_basis_vector_2'> +2.0111834e-04 </wgt>
<wgt id='morphing_basis_vector_3'> +8.3638654e-05 </wgt>
<wgt id='morphing_basis_vector_4'> +3.0369926e-05 </wgt>
<wgt id='morphing_basis_vector_5'> +1.6970125e-05 </wgt>
</rwgt>
</event>
<event>
 4      1 +3.1894900e-05 4.28157000e+02 7.81860800e-03 9.57675500e-02
        2 -1    0    0  501    0 +0.0000000000e+00 +0.0000000000e+00 +7.6784846838e+02 7.6784846838e+02 0.0000000000e+00 0.0000e+00 1.0000e+00
       -2 -1    0    0    0  501 -0.0000000000e+00 -0.0000000000e+00 -5.9685748382e+01 5.9685748382e+01 0.0000000000e+00 0.0000e+00 -1.0000e+00
      -13  1    1    2    0    0 -1.1918104230e+02 +1.2026383847e+02 +1.0087880712e+02 1.9708892768e+02 0.0000000000e+00 0.0000e+00 -1.0000e+00
       13  1    1    2    0    0 +1.1918104230e+02 -1.2026383847e+02 +6.0728391288e+02 6.3044528909e+02 0.0000000000e+00 0.0000e+00 1.0000e+00
<mgrwt>
<rscale>  0 0.42815703E+03</rscale>
<asrwt>0</asrwt>
<pdfrwt beam="1">  1        2 0.11813053E+00 0.42815703E+03</pdfrwt>
<pdfrwt beam="2">  1       -2 0.91824234E-02 0.42815703E+03</pdfrwt>
<totfact> 0.30715168E+03</totfact>
</mgrwt>
<rwgt>
<wgt id='morphing_basis_vector_1'> +3.0388146e-04 </wgt>
<wgt id='morphing_basis_vector_2'> +1.6515892e-04 </wgt>
<wgt id='morphing_basis_vector_3'> +2.0060415e-04 </wgt>
<wgt id='morphing_basis_vector_4'> +5.1133361e-05 </wgt>
<wgt id='morphing_basis_vector_5'> +5.9941159e-05 </wgt>
</rwgt>
</event>
<event>
 4      1 +3.1894900e-05 3.92419500e+02 7.81860800e-03 9.67909100e-02
        2 -1    0    0  501    0 +0.0000000000e+00 +0.0000000000e+00 +3.0330110760e+01 3.0330110760e+01 0.0000000000e+00 0.0000e+00 -1.0000e+00
       -2 -1    0    0    0  501 -0.0000000000e+00 -0.0000000000e+00 -1.2693081443e+03 1.2693081443e+03 0.0000000000e+00 0.0000e+00 1.0000e+00
      -13  1    1    2    0    0 +1.1028336104e+02 -1.4608416495e+02 -3.8541633465e+02 4.2667171688e+02 0.0000000000e+00 0.0000e+00 1.0000e+00
       13  1    1    2    0    0 -1.1028336104e+02 +1.4608416495e+02 -8.5356169891e+02 8.7296653820e+02 0.0000000000e+00 0.0000e+00 -1.0000e+00
<mgrwt>
<rscale>  0 0.39241945E+03</rscale>
<asrwt>0</asrwt>
<pdfrwt beam="1">  1        2 0.46661723E-02 0.39241945E+03</pdfrwt>
<pdfrwt beam="2">  1       -2 0.19527812E+00 0.39241945E+03</pdfrwt>
<totfact> 0.30309654E+02</totfact>
</mgrwt>
<rwgt>
<wgt id='morphing_basis_vector_1'> +2.6593168e-04 </wgt>
<wgt id='morphing_basis_vector_2'> +2.0767246e-04 </wgt>
<wgt id='morphing_basis_vector_3'> +1.2703067e-04 </wgt>
<wgt id='morphing_basis_vector_4'> +3.5279103e-05 </wgt>
<wgt id='morphing_basis_vector_5'> +3.2617915e-05 </wgt>
</rwgt>
</event>
<event>
 4      1 +3.1894900e-05 3.89368100e+02 7.81860800e-03 9.68836400e-02
        2 -1    0    0  501    0 +0.0000000000e+00 +0.0000000000e+00 +2.7538912281e+02 2.7538912281e+02 0.0000000000e+00 0.0000e+00 1.0000e+00
       -2 -1    0    0    0  501 -0.0000000000e+00 -0.0000000000e+00 -1.3763030110e+02 1.3763030110e+02 0.0000000000e+00 0.0000e+00 -1.0000e+00
      -13  1    1    2    0    0 -1.3226415937e+01 -1.9262300692e+02 +9.5362463031e+01 2.1534288989e+02 0.0000000000e+00 0.0000e+00 1.0000e+00
       13  1    1    2    0    0 +1.3226415937e+01 +1.9262300692e+02 +4.2396358677e+01 1.9767653402e+02 0.0000000000e+00 0.0000e+00 -1.0000e+00
<mgrwt>
<rscale>  0 0.38936814E+03</rscale>
<asrwt>0</asrwt>
<pdfrwt beam="1">  1        2 0.42367557E-01 0.38936814E+03</pdfrwt>
<pdfrwt beam="2">  1       -2 0.21173893E-01 0.38936814E+03</pdfrwt>
<totfact> 0.25921236E+03</totfact>
</mgrwt>
<rwgt>
<wgt id='morphing_basis_vector_1'> +2.4683349e-04 </wgt>
<wgt id='morphing_basis_vector_2'> +1.6151965e-04 </wgt>
<wgt id='morphing_basis_vector_3'> +1.3736421e-04 </wgt>
<wgt id='morphing_basis_vector_4'> +3.2766360e-05 </wgt>
<wgt id='morphing_basis_vector_5'> +2.9738164e-05 </wgt>
</rwgt>
</event>
<event>
 4      1 +3.1894900e-05 4.11120900e+02 7.81860800e-03 9.62415800e-02
        2 -1    0    0  501    0 +0.0000000000e+00 +0.0000000000e+00 +3.3605641072e+02 3.3605641072e+02 0.0000000000e+00 0.0000e+00 -1.0000e+00
       -2 -1    0    0    0  501 -0.0000000000e+00 -0.0000000000e+00 -1.2573808431e+02 1.2573808431e+02 0.0000000000e+00 0.0000e+00 1.0000e+00
      -13  1    1    2    0    0 -1.5245805608e+02 +1.1607515833e+02 +2.1567475573e+01 1.9282649519e+02 0.0000000000e+00 0.0000e+00 1.0000e+00
       13  1    1    2    0    0 +1.5245805608e+02 -1.1607515833e+02 +1.8875085084e+02 2.6896799984e+02 0.0000000000e+00 0.0000e+00 -1.0000e+00
<mgrwt>
<rscale>  0 0.41112085E+03</rscale>
<asrwt>0</asrwt>
<pdfrwt beam="1">  1        2 0.51700986E-01 0.41112085E+03</pdfrwt>
<pdfrwt beam="2">  1       -2 0.19344321E-01 0.41112085E+03</pdfrwt>
<totfact> 0.24153541E+03</totfact>
</mgrwt>
<rwgt>
<wgt id='morphing_basis_vector_1'> +2.7355751e-04 </wgt>
<wgt id='morphing_basis_vector_2'> +1.5206142e-04 </wgt>
<wgt id='morphing_basis_vector_3'> +1.7463559e-04 </wgt>
<wgt id='morphing_basis_vector_4'> +4.1425130e-05 </wgt>
<wgt id='morphing_basis_vector_5'> +4.4712437e-05 </wgt>
</rwgt>
</event>
<event>
 4      1 +3.1894900e-05 4.20216400e+02 7.81860800e-03 9.59855300e-02
        2 -1    0    0  501    0 +0.0000000000e+00 +0.0000000000e+00 +7.8101779608e+02 7.8101779608e+02 0.0000000000e+00 0.0000e+00 -1.0000e+00
       -2 -1    0    0    0  501 -0.0000000000e+00 -0.0000000000e+00 -5.6522995456e+01 5.6522995456e+01 0.0000000000e+00 0.0000e+00 1.0000e+00
      -13  1    1    2    0    0 +1.8647358196e+02 -8.0017470151e+01 +2.5362207010e+02 3.2480662976e+02 0.0000000000e+00 0.0000e+00 1.0000e+00
       13  1    1    2    0    0 -1.8647358196e+02 +8.0017470151e+01 +4.7087273052e+02 5.1273416177e+02 0.0000000000e+00 0.0000e+00 -1.0000e+00
<mgrwt>
<rscale>  0 0.42021645E+03</rscale>
<asrwt>0</asrwt>
<pdfrwt beam="1">  1        2 0.12015658E+00 0.42021645E+03</pdfrwt>
<pdfrwt beam="2">  1       -2 0.86958460E-02 0.42021645E+03</pdfrwt>
<totfact> 0.32706268E+03</totfact>
</mgrwt>
<rwgt>
<wgt id='morphing_basis_vector_1'> +2.9145961e-04 </wgt>
<wgt id='morphing_basis_vector_2'> +1.6524882e-04 </wgt>
<wgt id='morphing_basis_vector_3'> +1.8642676e-04 </wgt>
<wgt id='morphing_basis_vector_4'> +4.6278202e-05 </wgt>
<wgt id='morphing_basis_vector_5'> +5.2614091e-05 </wgt>
</rwgt>
</event>
<event>
 4      1 +3.1894900e-05 3.89734200e+02 7.81860800e-03 9.68724600e-02
        2 -1    0    0  501    0 +0.0000000000e+00 +0.0000000000e+00 +7.5394151991e+02 7.5394151991e+02 0.0000000000e+00 0.0000e+00 1.0000e+00
       -2 -1    0    0    0  501 -0.0000000000e+00 -0.0000000000e+00 -5.0366221947e+01 5.0366221947e+01 0.0000000000e+00 0.0000e+00 -1.0000e+00
      -13  1    1    2    0    0 +1.3692262434e+02 +9.2370363920e+01 +1.3838221022e+02 2.1547557934e+02 0.0000000000e+00 0.0000e+00 -1.0000e+00
       13  1    1    2    0    0 -1.3692262434e+02 -9.2370363920e+01 +5.6519308775e+02 5.8883216252e+02 0.0000000000e+00 0.0000e+00 1.0000e+00
<mgrwt>
<rscale>  0 0.38973420E+03</rscale>
<asrwt>0</asrwt>
<pdfrwt beam="1">  1        2 0.11599099E+00 0.38973420E+03</pdfrwt>
<pdfrwt beam="2">  1       -2 0.77486501E-02 0.38973420E+03</pdfrwt>
<totfact> 0.40734663E+03</totfact>
</mgrwt>
<rwgt>
<wgt id='morphing_basis_vector_1'> +2.3658109e-04 </wgt>
<wgt id='morphing_basis_vector_2'> +1.2886536e-04 </wgt>
<wgt id='morphing_basis_vector_3'> +1.4867969e-04 </wgt>
<wgt id='morphing_basis_vector_4'> +3.1652404e-05 </wgt>
<wgt id='morphing_basis_vector_5'> +2.9251915e-05 </wgt>
</rwgt>
</event>
<event>
 4      1 +3.1894900e-05 4.03113700e+02 7.81860800e-03 9.64728900e-02
        2 -1    0    0  501    0 +0.0000000000e+00 +0.0000000000e+00 +2.4399800419e+02 2.4399800419e+02 0.0000000000e+00 0.0000e+00 1.0000e+00
       -2 -1    0    0    0  501 -0.0000000000e+00 -0.0000000000e+00 -1.6649795071e+02 1.6649795071e+02 0.0000000000e+00 0.0000e+00 -1.0000e+00
      -13  1    1    2    0    0 +8.6668480337e+00 -1.6578904273e+02 +1.5514123204e+02 2.2722218823e+02 0.0000000000e+00 0.0000e+00 -1.0000e+00
       13  1    1    2    0    0 -8.6668480337e+00 +1.6578904273e+02 -7.7641178556e+01 1.8327376668e+02 0.0000000000e+00 0.0000e+00 1.0000e+00
<mgrwt>
<rscale>  0 0.40311372E+03</rscale>
<asrwt>0</asrwt>
<pdfrwt beam="1">  1        2 0.37538154E-01 0.40311372E+03</pdfrwt>
<pdfrwt beam="2">  1       -2 0.25615069E-01 0.40311372E+03</pdfrwt>
<totfact> 0.21592525E+03</totfact>
</mgrwt>
<rwgt>
<wgt id='morphing_basis_vector_1'> +3.0892986e-04 </wgt>
<wgt id='morphing_basis_vector_2'> +2.9520290e-04 </wgt>
<wgt id='morphing_basis_vector_3'> +1.1822071e-04 </wgt>
<wgt id='morphing_basis_vector_4'> +3.9887013e-05 </wgt>
<wgt id='morphing_basis_vector_5'> +4.1678696e-05 </wgt>
</rwgt>
</event>
<event>
 4      1 +3.1894900e-05 3.60027800e+02 7.81860800e-03 9.78245000e-02
        2 -1    0    0  501    0 +0.0000000000e+00 +0.0000000000e+00 +2.5386171474e+02 2.5386171474e+02 0.0000000000e+00 0.0000e+00 -1.0000e+00
       -2 -1    0    0    0  501 -0.0000000000e+00 -0.0000000000e+00 -1.2764822099e+02 1.2764822099e+02 0.0000000000e+00 0.0000e+00 1.0000e+00
      -13  1    1    2    0    0 +1.3313228849e+02 +1.2058064436e+02 +7.5693990987e+01 1.9491915838e+02 0.0000000000e+00 0.0000e+00 1.0000e+00
       13  1    1    2    0    0 -1.3313228849e+02 -1.2058064436e+02 +5.0519502758e+01 1.8659077735e+02 0.0000000000e+00 0.0000e+00 -1.0000e+00
<mgrwt>
<rscale>  0 0.36002776E+03</rscale>
<asrwt>0</asrwt>
<pdfrwt beam="1">  1        2 0.39055648E-01 0.36002776E+03</pdfrwt>
<pdfrwt beam="2">  1       -2 0.19638188E-01 0.36002776E+03</pdfrwt>
<totfact> 0.32072282E+03</totfact>
</mgrwt>
<rwgt>
<wgt id='morphing_basis_vector_1'> +2.0061186e-04 </wgt>
<wgt id='morphing_basis_vector_2'> +1.2644690e-04 </wgt>
<wgt id='morphing_basis_vector_3'> +1.0979150e-04 </wgt>
<wgt id='morphing_basis_vector_4'> +2.3760924e-05 </wgt>
<wgt id='morphing_basis_vector_5'> +1.4528045e-05 </wgt>
</rwgt>
</event>
<event>
 4      1 +3.1894900e-05 3.79953200e+02 7.81860800e-03 9.71755800e-02
        2 -1    0    0  501    0 +0.0000000000e+00 +0.0000000000e+00 +3.1886885003e+02 3.1886885003e+02 0.0000000000e+00 0.0000e+00 1.0000e+00
       -2 -1    0    0    0  501 -0.0000000000e+00 -0.0000000000e+00 -1.1318481009e+02 1.1318481009e+02 0.0000000000e+00 0.0000e+00 -1.0000e+00
      -13  1    1    2    0    0 -1.0223126245e+02 +1.0221561722e+02 -3.7314355587e+01 1.4930379955e+02 0.0000000000e+00 0.0000e+00 -1.0000e+00
       13  1    1    2    0    0 +1.0223126245e+02 -1.0221561722e+02 +2.4299839553e+02 2.8274986057e+02 0.0000000000e+00 0.0000e+00 1.0000e+00
<mgrwt>
<rscale>  0 0.37995321E+03</rscale>
<asrwt>0</asrwt>
<pdfrwt beam="1">  1        2 0.49056746E-01 0.37995321E+03</pdfrwt>
<pdfrwt beam="2">  1       -2 0.17413048E-01 0.37995321E+03</pdfrwt>
<totfact> 0.30334841E+03</totfact>
</mgrwt>
<rwgt>
<wgt id='morphing_basis_vector_1'> +2.2127128e-04 </wgt>
<wgt id='morphing_basis_vector_2'> +1.1967562e-04 </wgt>
<wgt id='morphing_basis_vector_3'> +1.3809423e-04 </wgt>
<wgt id='morphing_basis_vector_4'> +2.7938871e-05 </wgt>
<wgt id='morphing_basis_vector_5'> +2.3489290e-05 </wgt>
</rwgt>
</event>
<event>
 4      1 +3.1894900e-05 4.07798600e+02 7.81860800e-03 9.63368700e-02
        2 -1    0    0  501    0 +0.0000000000e+00 +0.0000000000e+00 +6.1831863638e+02 6.1831863638e+02 0.0000000000e+00 0.0000e+00 -1.0000e+00
       -2 -1    0    0    0  501 -0.0000000000e+00 -0.0000000000e+00 -6.7238676316e+01 6.7238676316e+01 0.0000000000e+00 0.0000e+00 1.0000e+00
      -13  1    1    2    0    0 -7.0364964465e+01 +1.2556943402e+02 +3.2759537655e+01 1.4762146962e+02 0.0000000000e+00 0.0000e+00 1.0000e+00
       13  1    1    2    0    0 +7.0364964465e+01 -1.2556943402e+02 +5.1832042241e+02 5.3793584308e+02 0.0000000000e+00 0.0000e+00 -1.0000e+00
<mgrwt>
<rscale>  0 0.40779861E+03</rscale>
<asrwt>0</asrwt>
<pdfrwt beam="1">  1        2 0.95125940E-01 0.40779861E+03</pdfrwt>
<pdfrwt beam="2">  1       -2 0.10344412E-01 0.40779861E+03</pdfrwt>
<totfact> 0.33036943E+03</totfact>
</mgrwt>
<rwgt>
<wgt id='morphing_basis_vector_1'> +2.6596402e-04 </wgt>
<wgt id='morphing_basis_vector_2'> +1.4350517e-04 </wgt>
<wgt id='morphing_basis_vector_3'> +1.7170613e-04 </wgt>
<wgt id='morphing_basis_vector_4'> +3.9715500e-05 </wgt>
<wgt id='morphing_basis_vector_5'> +4.1940815e-05 </wgt>
</rwgt>
</event>
<event>
 4      1 +3.1894900e-05 3.75180500e+02 7.81860800e-03 9.73270500e-02
        2 -1    0    0  501    0 +0.0000000000e+00 +0.0000000000e+00 +1.2830613104e+03 1.2830613104e+03 0.0000000000e+00 0.0000e+00 1.0000e+00
       -2 -1    0    0    0  501 -0.0000000000e+00 -0.0000000000e+00 -2.7426676850e+01 2.7426676850e+01 0.0000000000e+00 0.0000e+00 -1.0000e+00
      -13  1    1    2    0    0 +8.1616313580e+01 -1.6373553677e+02 +4.8297304409e+02 5.1646249618e+02 0.0000000000e+00 0.0000e+00 -1.0000e+00
       13  1    1    2    0    0 -8.1616313580e+01 +1.6373553677e+02 +7.7266158946e+02 7.9402549107e+02 0.0000000000e+00 0.0000e+00 1.0000e+00
<mgrwt>
<rscale>  0 0.37518053E+03</rscale>
<asrwt>0</asrwt>
<pdfrwt beam="1">  1        2 0.19739400E+00 0.37518053E+03</pdfrwt>
<pdfrwt beam="2">  1       -2 0.42194897E-02 0.37518053E+03</pdfrwt>
<totfact> 0.48612679E+03</totfact>
</mgrwt>
<rwgt>
<wgt id='morphing_basis_vector_1'> +2.1679760e-04 </wgt>
<wgt id='morphing_basis_vector_2'> +1.2351903e-04 </wgt>
<wgt id='morphing_basis_vector_3'> +1.3031978e-04 </wgt>
<wgt id='morphing_basis_vector_4'> +2.6787773e-05 </wgt>
<wgt id='morphing_basis_vector_5'> +2.1129246e-05 </wgt>
</rwgt>
</event>
<event>
 4      1 +3.1894900e-05 3.89616500e+02 7.81860800e-03 9.68760600e-02
        2 -1    0    0  501    0 +0.0000000000e+00 +0.0000000000e+00 +1.4965552700e+03 1.4965552700e+03 0.0000000000e+00 0.0000e+00 -1.0000e+00
       -2 -1    0    0    0  501 -0.0000000000e+00 -0.0000000000e+00 -2.5358401162e+01 2.5358401162e+01 0.0000000000e+00 0.0000e+00 1.0000e+00
      -13  1    1    2    0    0 +1.7621967849e+01 -1.8155000121e+02 +4.6839396403e+02 5.0265678373e+02 0.0000000000e+00 0.0000e+00 1.0000e+00
       13  1    1    2    0    0 -1.7621967849e+01 +1.8155000121e+02 +1.0028029048e+03 1.0192568875e+03 0.0000000000e+00 0.0000e+00 -1.0000e+00
<mgrwt>
<rscale>  0 0.38961647E+03</rscale>
<asrwt>0</asrwt>
<pdfrwt beam="1">  1        2 0.23023920E+00 0.38961647E+03</pdfrwt>
<pdfrwt beam="2">  1       -2 0.39012937E-02 0.38961647E+03</pdfrwt>
<totfact> 0.41807014E+03</totfact>
</mgrwt>
<rwgt>
<wgt id='morphing_basis_vector_1'> +2.3746009e-04 </wgt>
<wgt id='morphing_basis_vector_2'> +1.3200496e-04 </wgt>
<wgt id='morphing_basis_vector_3'> +1.4747399e-04 </wgt>
<wgt id='morphing_basis_vector_4'> +3.1727990e-05 </wgt>
<wgt id='morphing_basis_vector_5'> +2.9248474e-05 </wgt>
</rwgt>
</event>
<event>
 4      1 +3.1894900e-05 3.93042800e+02 7.81860800e-03 9.67720800e-02
        2 -1    0    0  501    0 +0.0000000000e+00 +0.0000000000e+00 +1.6687054688e+03 1.6687054688e+03 0.0000000000e+00 0.0000e+00 -1.0000e+00
       -2 -1    0    0    0  501 -0.0000000000e+00 -0.0000000000e+00 -2.3144082142e+01 2.3144082142e+01 0.0000000000e+00 0.0000e+00 1.0000e+00
      -13  1    1    2    0    0 -1.8708003868e+02 +2.5475287867e+01 +5.8808814146e+02 6.1765329537e+02 0.0000000000e+00 0.0000e+00 1.0000e+00
       13  1    1    2    0    0 +1.8708003868e+02 -2.5475287867e+01 +1.0574732452e+03 1.0741962555e+03 0.0000000000e+00 0.0000e+00 -1.0000e+00
<mgrwt>
<rscale>  0 0.39304278E+03</rscale>
<asrwt>0</asrwt>
<pdfrwt beam="1">  1        2 0.25672382E+00 0.39304278E+03</pdfrwt>
<pdfrwt beam="2">  1       -2 0.35606293E-02 0.39304278E+03</pdfrwt>
<totfact> 0.38715042E+03</totfact>
</mgrwt>
<rwgt>
<wgt id='morphing_basis_vector_1'> +2.4362750e-04 </wgt>
<wgt id='morphing_basis_vector_2'> +1.3718852e-04 </wgt>
<wgt id='morphing_basis_vector_3'> +1.5081389e-04 </wgt>
<wgt id='morphing_basis_vector_4'> +3.3175113e-05 </wgt>
<wgt id='morphing_basis_vector_5'> +3.1488739e-05 </wgt>
</rwgt>
</event>
<event>
 4      1 +3.1894900e-05 3.87383100e+02 7.81860800e-03 9.69444500e-02
        2 -1    0    0  501    0 +0.0000000000e+00 +0.0000000000e+00 +1.1793679208e+02 1.1793679208e+02 0.0000000000e+00 0.0000e+00 1.0000e+00
       -2 -1    0    0    0  501 -0.0000000000e+00 -0.0000000000e+00 -3.1810607419e+02 3.1810607419e+02 0.0000000000e+00 0.0000e+00 -1.0000e+00
      -13  1    1    2    0    0 -6.7580675443e+01 +1.4963460871e+02 -2.1574771426e+02 2.7111757602e+02 0.0000000000e+00 0.0000e+00 -1.0000e+00
       13  1    1    2    0    0 +6.7580675443e+01 -1.4963460871e+02 +1.5578432146e+01 1.6492529025e+02 0.0000000000e+00 0.0000e+00 1.0000e+00
<mgrwt>
<rscale>  0 0.38738307E+03</rscale>
<asrwt>0</asrwt>
<pdfrwt beam="1">  1        2 0.18144122E-01 0.38738307E+03</pdfrwt>
<pdfrwt beam="2">  1       -2 0.48939395E-01 0.38738307E+03</pdfrwt>
<totfact> 0.15607541E+03</totfact>
</mgrwt>
<rwgt>
<wgt id='morphing_basis_vector_1'> +2.3290827e-04 </wgt>
<wgt id='morphing_basis_vector_2'> +1.2686995e-04 </wgt>
<wgt id='morphing_basis_vector_3'> +1.4596802e-04 </wgt>
<wgt id='morphing_basis_vector_4'> +3.0729715e-05 </wgt>
<wgt id='morphing_basis_vector_5'> +2.7801638e-05 </wgt>
</rwgt>
</event>
<event>
 4      1 +3.1894900e-05 4.05490600e+02 7.81860800e-03 9.64036400e-02
        2 -1    0    0  501    0 +0.0000000000e+00 +0.0000000000e+00 +1.0743836458e+02 1.0743836458e+02 0.0000000000e+00 0.0000e+00 -1.0000e+00
       -2 -1    0    0    0  501 -0.0000000000e+00 -0.0000000000e+00 -3.8259761788e+02 3.8259761788e+02 0.0000000000e+00 0.0000e+00 1.0000e+00
      -13  1    1    2    0    0 -1.3394639927e+02 +5.8789093880e+01 -3.0723474254e+02 3.4028074066e+02 0.0000000000e+00 0.0000e+00 1.0000e+00
       13  1    1    2    0    0 +1.3394639927e+02 -5.8789093880e+01 +3.2075489249e+01 1.4975524180e+02 0.0000000000e+00 0.0000e+00 -1.0000e+00
<mgrwt>
<rscale>  0 0.40549063E+03</rscale>
<asrwt>0</asrwt>
<pdfrwt beam="1">  1        2 0.16528979E-01 0.40549063E+03</pdfrwt>
<pdfrwt beam="2">  1       -2 0.58861171E-01 0.40549063E+03</pdfrwt>
<totfact> 0.12149640E+03</totfact>
</mgrwt>
<rwgt>
<wgt id='morphing_basis_vector_1'> +2.6200238e-04 </wgt>
<wgt id='morphing_basis_vector_2'> +1.4143040e-04 </wgt>
<wgt id='morphing_basis_vector_3'> +1.6862969e-04 </wgt>
<wgt id='morphing_basis_vector_4'> +3.8577365e-05 </wgt>
<wgt id='morphing_basis_vector_5'> +4.0155567e-05 </wgt>
</rwgt>
</event>
<event>
 4      1 +3.1894900e-05 3.65581800e+02 7.81860800e-03 9.76391600e-02
        2 -1    0    0  501    0 +0.0000000000e+00 +0.0000000000e+00 +2.9325406654e+02 2.9325406654e+02 0.0000000000e+00 0.0000e+00 -1.0000e+00
       -2 -1    0    0    0  501 -0.0000000000e+00 -0.0000000000e+00 -1.1393710554e+02 1.1393710554e+02 0.0000000000e+00 0.0000e+00 1.0000e+00
      -13  1    1    2    0    0 -3.6954713073e+01 +8.0934324307e+01 -8.8191598305e+01 1.2527479268e+02 0.0000000000e+00 0.0000e+00 1.0000e+00
       13  1    1    2    0    0 +3.6954713073e+01 -8.0934324307e+01 +2.6750855931e+02 2.8191637940e+02 0.0000000000e+00 0.0000e+00 -1.0000e+00
<mgrwt>
<rscale>  0 0.36558184E+03</rscale>
<asrwt>0</asrwt>
<pdfrwt beam="1">  1        2 0.45116010E-01 0.36558184E+03</pdfrwt>
<pdfrwt beam="2">  1       -2 0.17528786E-01 0.36558184E+03</pdfrwt>
<totfact> 0.32887646E+03</totfact>
</mgrwt>
<rwgt>
<wgt id='morphing_basis_vector_1'> +2.0059865e-04 </wgt>
<wgt id='morphing_basis_vector_2'> +1.0802606e-04 </wgt>
<wgt id='morphing_basis_vector_3'> +1.2371933e-04 </wgt>
<wgt id='morphing_basis_vector_4'> +2.3326422e-05 </wgt>
<wgt id='morphing_basis_vector_5'> +1.6385694e-05 </wgt>
</rwgt>
</event>
<event>
 4      1 +3.1894900e-05 4.12507800e+02 7.81860800e-03 9.62020900e-02
        2 -1    0    0  501    0 +0.0000000000e+00 +0.0000000000e+00 +1.4144796726e+03 1.4144796726e+03 0.0000000000e+00 0.0000e+00 -1.0000e+00
       -2 -1    0    0    0  501 -0.0000000000e+00 -0.0000000000e+00 -3.0075135685e+01 3.0075135685e+01 0.0000000000e+00 0.0000e+00 1.0000e+00
      -13  1    1    2    0    0 +7.1352374241e+01 -1.6655775960e+02 +3.4716405602e+02 3.9160634620e+02 0.0000000000e+00 0.0000e+00 1.0000e+00
       13  1    1    2    0    0 -7.1352374241e+01 +1.6655775960e+02 +1.0372404809e+03 1.0529484620e+03 0.0000000000e+00 0.0000e+00 -1.0000e+00
<mgrwt>
<rscale>  0 0.41250778E+03</rscale>
<asrwt>0</asrwt>
<pdfrwt beam="1">  1        2 0.21761221E+00 0.41250778E+03</pdfrwt>
<pdfrwt beam="2">  1       -2 0.46269450E-02 0.41250778E+03</pdfrwt>
<totfact> 0.35881531E+03</totfact>
</mgrwt>
<rwgt>
<wgt id='morphing_basis_vector_1'> +2.7518018e-04 </wgt>
<wgt id='morphing_basis_vector_2'> +1.5080905e-04 </wgt>
<wgt id='morphing_basis_vector_3'> +1.7729291e-04 </wgt>
<wgt id='morphing_basis_vector_4'> +4.2138478e-05 </wgt>
<wgt id='morphing_basis_vector_5'> +4.5799008e-05 </wgt>
</rwgt>
</event>
<event>
 4      1 +3.1894900e-05 3.94746500e+02 7.81860800e-03 9.67208000e-02
        2 -1    0    0  501    0 +0.0000000000e+00 +0.0000000000e+00 +1.3634948061e+03 1.3634948061e+03 0.0000000000e+00 0.0000e+00 1.0000e+00
       -2 -1    0    0    0  501 -0.0000000000e+00 -0.0000000000e+00 -2.8570849321e+01 2.8570849321e+01 0.0000000000e+00 0.0000e+00 -1.0000e+00
      -13  1    1    2    0    0 +7.3075222181e+01 +1.6958291851e+02 +4.2167239815e+02 4.6033245129e+02 0.0000000000e+00 0.0000e+00 -1.0000e+00
       13  1    1    2    0    0 -7.3075222181e+01 -1.6958291851e+02 +9.1325155860e+02 9.3173320410e+02 0.0000000000e+00 0.0000e+00 1.0000e+00
<mgrwt>
<rscale>  0 0.39474652E+03</rscale>
<asrwt>0</asrwt>
<pdfrwt beam="1">  1        2 0.20976838E+00 0.39474652E+03</pdfrwt>
<pdfrwt beam="2">  1       -2 0.43955164E-02 0.39474652E+03</pdfrwt>
<totfact> 0.41312311E+03</totfact>
</mgrwt>
<rwgt>
<wgt id='morphing_basis_vector_1'> +2.4567267e-04 </wgt>
<wgt id='morphing_basis_vector_2'> +1.3655210e-04 </wgt>
<wgt id='morphing_basis_vector_3'> +1.5356053e-04 </wgt>
<wgt id='morphing_basis_vector_4'> +3.3813392e-05 </wgt>
<wgt id='morphing_basis_vector_5'> +3.2569677e-05 </wgt>
</rwgt>
</event>
<event>
 4      1 +3.1894900e-05 3.73244400e+02 7.81860800e-03 9.73891900e-02
        2 -1    0    0  501    0 +0.0000000000e+00 +0.0000000000e+00 +7.2236785760e+01 7.2236785760e+01 0.0000000000e+00 0.0000e+00 -1.0000e+00
       -2 -1    0    0    0  501 -0.0000000000e+00 -0.0000000000e+00 -4.8213449808e+02 4.8213449808e+02 0.0000000000e+00 0.0000e+00 1.0000e+00
      -13  1    1    2    0    0 +9.2627026968e+01 +1.5594489562e+02 -1.3971036494e+02 2.2894882107e+02 0.0000000000e+00 0.0000e+00 1.0000e+00
       13  1    1    2    0    0 -9.2627026968e+01 -1.5594489562e+02 -2.7018734738e+02 3.2542246278e+02 0.0000000000e+00 0.0000e+00 -1.0000e+00
<mgrwt>
<rscale>  0 0.37324440E+03</rscale>
<asrwt>0</asrwt>
<pdfrwt beam="1">  1        2 0.11113352E-01 0.37324440E+03</pdfrwt>
<pdfrwt beam="2">  1       -2 0.74174536E-01 0.37324440E+03</pdfrwt>
<totfact> 0.12237964E+03</totfact>
</mgrwt>
<rwgt>
<wgt id='morphing_basis_vector_1'> +2.2607391e-04 </wgt>
<wgt id='morphing_basis_vector_2'> +1.5846981e-04 </wgt>
<wgt id='morphing_basis_vector_3'> +1.1508051e-04 </wgt>
<wgt id='morphing_basis_vector_4'> +2.8555627e-05 </wgt>
<wgt id='morphing_basis_vector_5'> +2.0948387e-05 </wgt>
</rwgt>
</event>
<event>
 4      1 +3.1894900e-05 4.15356600e+02 7.81860800e-03 9.61214800e-02
        2 -1    0    0  501    0 +0.0000000000e+00 +0.0000000000e+00 +4.2306382156e+02 4.2306382156e+02 0.0000000000e+00 0.0000e+00 -1.0000e+00
       -2 -1    0    0    0  501 -0.0000000000e+00 -0.0000000000e+00 -1.0194746151e+02 1.0194746151e+02 0.0000000000e+00 0.0000e+00 1.0000e+00
      -13  1    1    2    0    0 +1.3374841579e+02 -9.5980672104e+01 +5.2666887015e-01 1.6462443781e+02 0.0000000000e+00 0.0000e+00 1.0000e+00
       13  1    1    2    0    0 -1.3374841579e+02 +9.5980672104e+01 +3.2058969118e+02 3.6038684525e+02 0.0000000000e+00 0.0000e+00 -1.0000e+00
<mgrwt>
<rscale>  0 0.41535663E+03</rscale>
<asrwt>0</asrwt>
<pdfrwt beam="1">  1        2 0.65086741E-01 0.41535663E+03</pdfrwt>
<pdfrwt beam="2">  1       -2 0.15684225E-01 0.41535663E+03</pdfrwt>
<totfact> 0.26289192E+03</totfact>
</mgrwt>
<rwgt>
<wgt id='morphing_basis_vector_1'> +2.7971118e-04 </wgt>
<wgt id='morphing_basis_vector_2'> +1.5175759e-04 </wgt>
<wgt id='morphing_basis_vector_3'> +1.8179254e-04 </wgt>
<wgt id='morphing_basis_vector_4'> +4.3662391e-05 </wgt>
<wgt id='morphing_basis_vector_5'> +4.8161570e-05 </wgt>
</rwgt>
</event>
<event>
 4      1 +3.1894900e-05 4.05386000e+02 7.81860800e-03 9.64066700e-02
        2 -1    0    0  501    0 +0.0000000000e+00 +0.0000000000e+00 +7.7072340387e+01 7.7072340387e+01 0.0000000000e+00 0.0000e+00 1.0000e+00
       -2 -1    0    0    0  501 -0.0000000000e+00 -0.0000000000e+00 -5.3306344253e+02 5.3306344253e+02 0.0000000000e+00 0.0000e+00 -1.0000e+00
      -13  1    1    2    0    0 +2.7860923027e+01 -1.3755700651e+02 -4.4809829785e+02 4.6956388874e+02 0.0000000000e+00 0.0000e+00 -1.0000e+00
       13  1    1    2    0    0 -2.7860923027e+01 +1.3755700651e+02 -7.8928042885e+00 1.4057189417e+02 0.0000000000e+00 0.0000e+00 1.0000e+00
<mgrwt>
<rscale>  0 0.40538597E+03</rscale>
<asrwt>0</asrwt>
<pdfrwt beam="1">  1        2 0.11857283E-01 0.40538597E+03</pdfrwt>
<pdfrwt beam="2">  1       -2 0.82009762E-01 0.40538597E+03</pdfrwt>
<totfact> 0.90481358E+02</totfact>
</mgrwt>
<rwgt>
<wgt id='morphing_basis_vector_1'> +2.6176088e-04 </wgt>
<wgt id='morphing_basis_vector_2'> +1.4114390e-04 </wgt>
<wgt id='morphing_basis_vector_3'> +1.6854914e-04 </wgt>
<wgt id='morphing_basis_vector_4'> +3.8524179e-05 </wgt>
<wgt id='morphing_basis_vector_5'> +4.0071692e-05 </wgt>
</rwgt>
</event>
<event>
 4      1 +3.1894900e-05 3.70849500e+02 7.81860800e-03 9.74666200e-02
        2 -1    0    0  501    0 +0.0000000000e+00 +0.0000000000e+00 +1.6330927915e+02 1.6330927915e+02 0.0000000000e+00 0.0000e+00 -1.0000e+00
       -2 -1    0    0    0  501 -0.0000000000e+00 -0.0000000000e+00 -2.1053507091e+02 2.1053507091e+02 0.0000000000e+00 0.0000e+00 1.0000e+00
      -13  1    1    2    0    0 -1.4000917205e+02 -1.6715311991e-01 -1.4616661218e+02 2.0240374185e+02 0.0000000000e+00 0.0000e+00 1.0000e+00
       13  1    1    2    0    0 +1.4000917205e+02 +1.6715311991e-01 +9.8940820417e+01 1.7144060821e+02 0.0000000000e+00 0.0000e+00 -1.0000e+00
<mgrwt>
<rscale>  0 0.37084946E+03</rscale>
<asrwt>0</asrwt>
<pdfrwt beam="1">  1        2 0.25124505E-01 0.37084946E+03</pdfrwt>
<pdfrwt beam="2">  1       -2 0.32390011E-01 0.37084946E+03</pdfrwt>
<totfact> 0.22694572E+03</totfact>
</mgrwt>
<rwgt>
<wgt id='morphing_basis_vector_1'> +2.0812852e-04 </wgt>
<wgt id='morphing_basis_vector_2'> +1.1264444e-04 </wgt>
<wgt id='morphing_basis_vector_3'> +1.2861596e-04 </wgt>
<wgt id='morphing_basis_vector_4'> +2.4942701e-05 </wgt>
<wgt id='morphing_basis_vector_5'> +1.8821557e-05 </wgt>
</rwgt>
</event>
<event>
 4      1 +3.1894900e-05 3.93688700e+02 7.81860800e-03 9.67526000e-02
        2 -1    0    0  501    0 +0.0000000000e+00 +0.0000000000e+00 +1.1342440893e+02 1.1342440893e+02 0.0000000000e+00 0.0000e+00 -1.0000e+00
       -2 -1    0    0    0  501 -0.0000000000e+00 -0.0000000000e+00 -3.4161698830e+02 3.4161698830e+02 0.0000000000e+00 0.0000e+00 1.0000e+00
      -13  1    1    2    0    0 +9.1945054824e+01 +1.6621598315e+02 -1.7377683512e+02 2.5744909125e+02 0.0000000000e+00 0.0000e+00 1.0000e+00
       13  1    1    2    0    0 -9.1945054824e+01 -1.6621598315e+02 -5.4415744258e+01 1.9759230598e+02 0.0000000000e+00 0.0000e+00 -1.0000e+00
<mgrwt>
<rscale>  0 0.39368873E+03</rscale>
<asrwt>0</asrwt>
<pdfrwt beam="1">  1        2 0.17449909E-01 0.39368873E+03</pdfrwt>
<pdfrwt beam="2">  1       -2 0.52556461E-01 0.39368873E+03</pdfrwt>
<totfact> 0.14246568E+03</totfact>
</mgrwt>
<rwgt>
<wgt id='morphing_basis_vector_1'> +2.4484209e-04 </wgt>
<wgt id='morphing_basis_vector_2'> +1.3829471e-04 </wgt>
<wgt id='morphing_basis_vector_3'> +1.5141960e-04 </wgt>
<wgt id='morphing_basis_vector_4'> +3.3455842e-05 </wgt>
<wgt id='morphing_basis_vector_5'> +3.1924752e-05 </wgt>
</rwgt>
</event>
<event>
 4      1 +3.1894900e-05 3.92319900e+02 7.81860800e-03 9.67939200e-02
        2 -1    0    0  501    0 +0.0000000000e+00 +0.0000000000e+00 +6.3113976415e+01 6.3113976415e+01 0.0000000000e+00 0.0000e+00 -1.0000e+00
       -2 -1    0    0    0  501 -0.0000000000e+00 -0.0000000000e+00 -6.0967033663e+02 6.0967033663e+02 0.0000000000e+00 0.0000e+00 1.0000e+00
      -13  1    1    2    0    0 +8.6242189135e+01 +8.8087591871e+01 -5.3494085944e+02 5.4896162172e+02 0.0000000000e+00 0.0000e+00 1.0000e+00
       13  1    1    2    0    0 -8.6242189135e+01 -8.8087591871e+01 -1.1615500780e+01 1.2382269132e+02 0.0000000000e+00 0.0000e+00 -1.0000e+00
<mgrwt>
<rscale>  0 0.39231987E+03</rscale>
<asrwt>0</asrwt>
<pdfrwt beam="1">  1        2 0.97098428E-02 0.39231987E+03</pdfrwt>
<pdfrwt beam="2">  1       -2 0.93795434E-01 0.39231987E+03</pdfrwt>
<totfact> 0.85570852E+02</totfact>
</mgrwt>
<rwgt>
<wgt id='morphing_basis_vector_1'> +2.4004404e-04 </wgt>
<wgt id='morphing_basis_vector_2'> +1.2916016e-04 </wgt>
<wgt id='morphing_basis_vector_3'> +1.5234649e-04 </wgt>
<wgt id='morphing_basis_vector_4'> +3.2635704e-05 </wgt>
<wgt id='morphing_basis_vector_5'> +3.0858093e-05 </wgt>
</rwgt>
</event>
<event>
 4      1 +3.1894900e-05 4.14133000e+02 7.81860800e-03 9.61560200e-02
        2 -1    0    0  501    0 +0.0000000000e+00 +0.0000000000e+00 +1.2300389682e+02 1.2300389682e+02 0.0000000000e+00 0.0000e+00 -1.0000e+00
       -2 -1    0    0    0  501 -0.0000000000e+00 -0.0000000000e+00 -3.4857871553e+02 3.4857871553e+02 0.0000000000e+00 0.0000e+00 1.0000e+00
      -13  1    1    2    0    0 -6.1781306994e+01 -1.6305243599e+02 -2.3996550646e+02 2.9662513560e+02 0.0000000000e+00 0.0000e+00 1.0000e+00
       13  1    1    2    0    0 +6.1781306994e+01 +1.6305243599e+02 +1.4390687752e+01 1.7495747675e+02 0.0000000000e+00 0.0000e+00 -1.0000e+00
<mgrwt>
<rscale>  0 0.41413302E+03</rscale>
<asrwt>0</asrwt>
<pdfrwt beam="1">  1        2 0.18923676E-01 0.41413302E+03</pdfrwt>
<pdfrwt beam="2">  1       -2 0.53627495E-01 0.41413302E+03</pdfrwt>
<totfact> 0.12433435E+03</totfact>
</mgrwt>
<rwgt>
<wgt id='morphing_basis_vector_1'> +2.7778100e-04 </wgt>
<wgt id='morphing_basis_vector_2'> +1.5142431e-04 </wgt>
<wgt id='morphing_basis_vector_3'> +1.7982984e-04 </wgt>
<wgt id='morphing_basis_vector_4'> +4.2999604e-05 </wgt>
<wgt id='morphing_basis_vector_5'> +4.7138867e-05 </wgt>
</rwgt>
</event>
<event>
 4      1 +3.1894900e-05 3.64792300e+02 7.81860800e-03 9.76652800e-02
        2 -1    0    0  501    0 +0.0000000000e+00 +0.0000000000e+00 +6.8146910962e+02 6.8146910962e+02 0.0000000000e+00 0.0000e+00 1.0000e+00
       -2 -1    0    0    0  501 -0.0000000000e+00 -0.0000000000e+00 -4.8818594129e+01 4.8818594129e+01 0.0000000000e+00 0.0000e+00 -1.0000e+00
      -13  1    1    2    0    0 -1.4087689839e+02 -4.9696132483e+01 +1.0681654786e+02 1.8364580306e+02 0.0000000000e+00 0.0000e+00 -1.0000e+00
       13  1    1    2    0    0 +1.4087689839e+02 +4.9696132483e+01 +5.2583396762e+02 5.4664190069e+02 0.0000000000e+00 0.0000e+00 1.0000e+00
<mgrwt>
<rscale>  0 0.36479235E+03</rscale>
<asrwt>0</asrwt>
<pdfrwt beam="1">  1        2 0.10484139E+00 0.36479235E+03</pdfrwt>
<pdfrwt beam="2">  1       -2 0.75105534E-02 0.36479235E+03</pdfrwt>
<totfact> 0.48177875E+03</totfact>
</mgrwt>
<rwgt>
<wgt id='morphing_basis_vector_1'> +1.9998490e-04 </wgt>
<wgt id='morphing_basis_vector_2'> +1.0883635e-04 </wgt>
<wgt id='morphing_basis_vector_3'> +1.2243945e-04 </wgt>
<wgt id='morphing_basis_vector_4'> +2.3211858e-05 </wgt>
<wgt id='morphing_basis_vector_5'> +1.6070056e-05 </wgt>
</rwgt>
</event>
<event>
 4      1 +3.1894900e-05 3.60362400e+02 7.81860800e-03 9.78132300e-02
        2 -1    0    0  501    0 +0.0000000000e+00 +0.0000000000e+00 +5.5610860634e+01 5.5610860634e+01 0.0000000000e+00 0.0000e+00 -1.0000e+00
       -2 -1    0    0    0  501 -0.0000000000e+00 -0.0000000000e+00 -5.8379364596e+02 5.8379364596e+02 0.0000000000e+00 0.0000e+00 1.0000e+00
      -13  1    1    2    0    0 -1.2843010524e+02 +1.2144580379e+02 -2.0206841695e+02 2.6846791301e+02 0.0000000000e+00 0.0000e+00 1.0000e+00
       13  1    1    2    0    0 +1.2843010524e+02 -1.2144580379e+02 -3.2611436838e+02 3.7093659358e+02 0.0000000000e+00 0.0000e+00 -1.0000e+00
<mgrwt>
<rscale>  0 0.36036241E+03</rscale>
<asrwt>0</asrwt>
<pdfrwt beam="1">  1        2 0.85555169E-02 0.36036241E+03</pdfrwt>
<pdfrwt beam="2">  1       -2 0.89814408E-01 0.36036241E+03</pdfrwt>
<totfact> 0.11110238E+03</totfact>
</mgrwt>
<rwgt>
<wgt id='morphing_basis_vector_1'> +2.0531431e-04 </wgt>
<wgt id='morphing_basis_vector_2'> +1.3948436e-04 </wgt>
<wgt id='morphing_basis_vector_3'> +1.0513393e-04 </wgt>
<wgt id='morphing_basis_vector_4'> +2.4946383e-05 </wgt>
<wgt id='morphing_basis_vector_5'> +1.4938284e-05 </wgt>
</rwgt>
</event>
<event>
 4      1 +3.1894900e-05 3.80581500e+02 7.81860800e-03 9.71558100e-02
        2 -1    0    0  501    0 +0.0000000000e+00 +0.0000000000e+00 +7.0509862137e+02 7.0509862137e+02 0.0000000000e+00 0.0000e+00 1.0000e+00
       -2 -1    0    0    0  501 -0.0000000000e+00 -0.0000000000e+00 -5.1355329970e+01 5.1355329970e+01 0.0000000000e+00 0.0000e+00 -1.0000e+00
      -13  1    1    2    0    0 -1.0812743104e+02 -6.0985065433e+01 +6.1353021976e+02 6.2596329773e+02 0.0000000000e+00 0.0000e+00 1.0000e+00
       13  1    1    2    0    0 +1.0812743104e+02 +6.0985065433e+01 +4.0213071643e+01 1.3049065361e+02 0.0000000000e+00 0.0000e+00 -1.0000e+00
<mgrwt>
<rscale>  0 0.38058151E+03</rscale>
<asrwt>0</asrwt>
<pdfrwt beam="1">  1        2 0.10847670E+00 0.38058151E+03</pdfrwt>
<pdfrwt beam="2">  1       -2 0.79008205E-02 0.38058151E+03</pdfrwt>
<totfact> 0.42858018E+03</totfact>
</mgrwt>
<rwgt>
<wgt id='morphing_basis_vector_1'> +2.8766238e-04 </wgt>
<wgt id='morphing_basis_vector_2'> +3.1876764e-04 </wgt>
<wgt id='morphing_basis_vector_3'> +6.9693052e-05 </wgt>
<wgt id='morphing_basis_vector_4'> +3.8640423e-05 </wgt>
<wgt id='morphing_basis_vector_5'> +2.8166535e-05 </wgt>
</rwgt>
</event>
<event>
 4      1 +3.1894900e-05 3.85981600e+02 7.81860800e-03 9.69876200e-02
        2 -1    0    0  501    0 +0.0000000000e+00 +0.0000000000e+00 +3.6985665933e+01 3.6985665933e+01 0.0000000000e+00 0.0000e+00 -1.0000e+00
       -2 -1    0    0    0  501 -0.0000000000e+00 -0.0000000000e+00 -1.0070238602e+03 1.0070238602e+03 0.0000000000e+00 0.0000e+00 1.0000e+00
      -13  1    1    2    0    0 -1.6519820162e+01 -1.7323246870e+02 -7.1072233517e+02 7.3171622257e+02 0.0000000000e+00 0.0000e+00 1.0000e+00
       13  1    1    2    0    0 +1.6519820162e+01 +1.7323246870e+02 -2.5931585914e+02 3.1229330360e+02 0.0000000000e+00 0.0000e+00 -1.0000e+00
<mgrwt>
<rscale>  0 0.38598160E+03</rscale>
<asrwt>0</asrwt>
<pdfrwt beam="1">  1        2 0.56901023E-02 0.38598160E+03</pdfrwt>
<pdfrwt beam="2">  1       -2 0.15492675E+00 0.38598160E+03</pdfrwt>
<totfact> 0.47088929E+02</totfact>
</mgrwt>
<rwgt>
<wgt id='morphing_basis_vector_1'> +2.3122330e-04 </wgt>
<wgt id='morphing_basis_vector_2'> +1.2715574e-04 </wgt>
<wgt id='morphing_basis_vector_3'> +1.4388237e-04 </wgt>
<wgt id='morphing_basis_vector_4'> +3.0257151e-05 </wgt>
<wgt id='morphing_basis_vector_5'> +2.6990504e-05 </wgt>
</rwgt>
</event>
<event>
 4      1 +3.1894900e-05 3.76181600e+02 7.81860800e-03 9.72950800e-02
        2 -1    0    0  501    0 +0.0000000000e+00 +0.0000000000e+00 +9.5643143293e+01 9.5643143293e+01 0.0000000000e+00 0.0000e+00 -1.0000e+00
       -2 -1    0    0    0  501 -0.0000000000e+00 -0.0000000000e+00 -3.6989739175e+02 3.6989739175e+02 0.0000000000e+00 0.0000e+00 1.0000e+00
      -13  1    1    2    0    0 +6.8958563258e+01 +1.6622655761e+02 -2.0481509900e+02 2.7264588146e+02 0.0000000000e+00 0.0000e+00 1.0000e+00
       13  1    1    2    0    0 -6.8958563258e+01 -1.6622655761e+02 -6.9439149464e+01 1.9289465358e+02 0.0000000000e+00 0.0000e+00 -1.0000e+00
<mgrwt>
<rscale>  0 0.37618160E+03</rscale>
<asrwt>0</asrwt>
<pdfrwt beam="1">  1        2 0.14714330E-01 0.37618160E+03</pdfrwt>
<pdfrwt beam="2">  1       -2 0.56907291E-01 0.37618160E+03</pdfrwt>
<totfact> 0.14956363E+03</totfact>
</mgrwt>
<rwgt>
<wgt id='morphing_basis_vector_1'> +2.1754820e-04 </wgt>
<wgt id='morphing_basis_vector_2'> +1.2218692e-04 </wgt>
<wgt id='morphing_basis_vector_3'> +1.3213099e-04 </wgt>
<wgt id='morphing_basis_vector_4'> +2.6979116e-05 </wgt>
<wgt id='morphing_basis_vector_5'> +2.1598548e-05 </wgt>
</rwgt>
</event>
<event>
 4      1 +3.1894900e-05 3.96629000e+02 7.81860800e-03 9.66644500e-02
        2 -1    0    0  501    0 +0.0000000000e+00 +0.0000000000e+00 +4.9680676427e+01 4.9680676427e+01 0.0000000000e+00 0.0000e+00 -1.0000e+00
       -2 -1    0    0    0  501 -0.0000000000e+00 -0.0000000000e+00 -7.9162864208e+02 7.9162864208e+02 0.0000000000e+00 0.0000e+00 1.0000e+00
      -13  1    1    2    0    0 -3.6173419870e+01 +1.8190700252e+02 -5.1990784585e+02 5.5199895113e+02 0.0000000000e+00 0.0000e+00 1.0000e+00
       13  1    1    2    0    0 +3.6173419870e+01 -1.8190700252e+02 -2.2204011981e+02 2.8931036738e+02 0.0000000000e+00 0.0000e+00 -1.0000e+00
<mgrwt>
<rscale>  0 0.39662903E+03</rscale>
<asrwt>0</asrwt>
<pdfrwt beam="1">  1        2 0.76431811E-02 0.39662903E+03</pdfrwt>
<pdfrwt beam="2">  1       -2 0.12178902E+00 0.39662903E+03</pdfrwt>
<totfact> 0.61376289E+02</totfact>
</mgrwt>
<rwgt>
<wgt id='morphing_basis_vector_1'> +2.4874692e-04 </wgt>
<wgt id='morphing_basis_vector_2'> +1.3825482e-04 </wgt>
<wgt id='morphing_basis_vector_3'> +1.5585515e-04 </wgt>
<wgt id='morphing_basis_vector_4'> +3.4613292e-05 </wgt>
<wgt id='morphing_basis_vector_5'> +3.3844493e-05 </wgt>
</rwgt>
</event>
<event>
 4      1 +3.1894900e-05 3.70239300e+02 7.81860800e-03 9.74864500e-02
        2 -1    0    0  501    0 +0.0000000000e+00 +0.0000000000e+00 +1.3514605770e+03 1.3514605770e+03 0.0000000000e+00 0.0000e+00 -1.0000e+00
       -2 -1    0    0    0  501 -0.0000000000e+00 -0.0000000000e+00 -2.5357214678e+01 2.5357214678e+01 0.0000000000e+00 0.0000e+00 1.0000e+00
      -13  1    1    2    0    0 -4.0067143275e+01 -1.7919280182e+02 +5.7553595820e+02 6.0411677297e+02 0.0000000000e+00 0.0000e+00 1.0000e+00
       13  1    1    2    0    0 +4.0067143275e+01 +1.7919280182e+02 +7.5056740415e+02 7.7270101875e+02 0.0000000000e+00 0.0000e+00 -1.0000e+00
<mgrwt>
<rscale>  0 0.37023925E+03</rscale>
<asrwt>0</asrwt>
<pdfrwt beam="1">  1        2 0.20791696E+00 0.37023925E+03</pdfrwt>
<pdfrwt beam="2">  1       -2 0.39011110E-02 0.37023925E+03</pdfrwt>
<totfact> 0.50107634E+03</totfact>
</mgrwt>
<rwgt>
<wgt id='morphing_basis_vector_1'> +2.1091472e-04 </wgt>
<wgt id='morphing_basis_vector_2'> +1.2318431e-04 </wgt>
<wgt id='morphing_basis_vector_3'> +1.2395003e-04 </wgt>
<wgt id='morphing_basis_vector_4'> +2.5526294e-05 </wgt>
<wgt id='morphing_basis_vector_5'> +1.8770206e-05 </wgt>
</rwgt>
</event>
<event>
 4      1 +3.1894900e-05 3.86103300e+02 7.81860800e-03 9.69838600e-02
        2 -1    0    0  501    0 +0.0000000000e+00 +0.0000000000e+00 +3.3780524263e+02 3.3780524263e+02 0.0000000000e+00 0.0000e+00 1.0000e+00
       -2 -1    0    0    0  501 -0.0000000000e+00 -0.0000000000e+00 -1.1032669089e+02 1.1032669089e+02 0.0000000000e+00 0.0000e+00 -1.0000e+00
      -13  1    1    2    0    0 +1.0087639773e+02 -3.1821968009e+01 +3.0117755027e+02 3.1921247164e+02 0.0000000000e+00 0.0000e+00 1.0000e+00
       13  1    1    2    0    0 -1.0087639773e+02 +3.1821968009e+01 -7.3698998524e+01 1.2891946188e+02 0.0000000000e+00 0.0000e+00 -1.0000e+00
<mgrwt>
<rscale>  0 0.38610327E+03</rscale>
<asrwt>0</asrwt>
<pdfrwt beam="1">  1        2 0.51970037E-01 0.38610327E+03</pdfrwt>
<pdfrwt beam="2">  1       -2 0.16973337E-01 0.38610327E+03</pdfrwt>
<totfact> 0.29674251E+03</totfact>
</mgrwt>
<rwgt>
<wgt id='morphing_basis_vector_1'> +3.0582459e-04 </wgt>
<wgt id='morphing_basis_vector_2'> +3.5353947e-04 </wgt>
<wgt id='morphing_basis_vector_3'> +6.7804661e-05 </wgt>
<wgt id='morphing_basis_vector_4'> +4.0169328e-05 </wgt>
<wgt id='morphing_basis_vector_5'> +3.1985035e-05 </wgt>
</rwgt>
</event>
<event>
 4      1 +3.1894900e-05 3.72743000e+02 7.81860800e-03 9.74053500e-02
        2 -1    0    0  501    0 +0.0000000000e+00 +0.0000000000e+00 +4.2721011813e+01 4.2721011813e+01 0.0000000000e+00 0.0000e+00 -1.0000e+00
       -2 -1    0    0    0  501 -0.0000000000e+00 -0.0000000000e+00 -8.1305042204e+02 8.1305042204e+02 0.0000000000e+00 0.0000e+00 1.0000e+00
      -13  1    1    2    0    0 +1.0403530430e+02 -1.1925128117e+02 -6.1116705460e+02 6.3132351551e+02 0.0000000000e+00 0.0000e+00 1.0000e+00
       13  1    1    2    0    0 -1.0403530430e+02 +1.1925128117e+02 -1.5916235563e+02 2.2444791835e+02 0.0000000000e+00 0.0000e+00 -1.0000e+00
<mgrwt>
<rscale>  0 0.37274300E+03</rscale>
<asrwt>0</asrwt>
<pdfrwt beam="1">  1        2 0.65724632E-02 0.37274300E+03</pdfrwt>
<pdfrwt beam="2">  1       -2 0.12508468E+00 0.37274300E+03</pdfrwt>
<totfact> 0.69719768E+02</totfact>
</mgrwt>
<rwgt>
<wgt id='morphing_basis_vector_1'> +2.1116342e-04 </wgt>
<wgt id='morphing_basis_vector_2'> +1.1515957e-04 </wgt>
<wgt id='morphing_basis_vector_3'> +1.3013578e-04 </wgt>
<wgt id='morphing_basis_vector_4'> +2.5605432e-05 </wgt>
<wgt id='morphing_basis_vector_5'> +1.9764642e-05 </wgt>
</rwgt>
</event>
<event>
 4      1 +3.1894900e-05 3.78917700e+02 7.81860800e-03 9.72082400e-02
        2 -1    0    0  501    0 +0.0000000000e+00 +0.0000000000e+00 +2.4267417373e+02 2.4267417373e+02 0.0000000000e+00 0.0000e+00 -1.0000e+00
       -2 -1    0    0    0  501 -0.0000000000e+00 -0.0000000000e+00 -1.4791293801e+02 1.4791293801e+02 0.0000000000e+00 0.0000e+00 1.0000e+00
      -13  1    1    2    0    0 +7.8081230394e+01 -1.0175055727e+02 -9.6358422893e+01 1.6042069726e+02 0.0000000000e+00 0.0000e+00 1.0000e+00
       13  1    1    2    0    0 -7.8081230394e+01 +1.0175055727e+02 +1.9111965862e+02 2.3016641448e+02 0.0000000000e+00 0.0000e+00 -1.0000e+00
<mgrwt>
<rscale>  0 0.37891767E+03</rscale>
<asrwt>0</asrwt>
<pdfrwt beam="1">  1        2 0.37334488E-01 0.37891767E+03</pdfrwt>
<pdfrwt beam="2">  1       -2 0.22755837E-01 0.37891767E+03</pdfrwt>
<totfact> 0.26478178E+03</totfact>
</mgrwt>
<rwgt>
<wgt id='morphing_basis_vector_1'> +2.1957762e-04 </wgt>
<wgt id='morphing_basis_vector_2'> +1.1836142e-04 </wgt>
<wgt id='morphing_basis_vector_3'> +1.3715447e-04 </wgt>
<wgt id='morphing_basis_vector_4'> +2.7550764e-05 </wgt>
<wgt id='morphing_basis_vector_5'> +2.2915654e-05 </wgt>
</rwgt>
</event>
<event>
 4      1 +3.1894900e-05 3.82488500e+02 7.81860800e-03 9.70960800e-02
        2 -1    0    0  501    0 +0.0000000000e+00 +0.0000000000e+00 +4.6055170003e+02 4.6055170003e+02 0.0000000000e+00 0.0000e+00 -1.0000e+00
       -2 -1    0    0    0  501 -0.0000000000e+00 -0.0000000000e+00 -7.9414229924e+01 7.9414229924e+01 0.0000000000e+00 0.0000e+00 1.0000e+00
      -13  1    1    2    0    0 +1.7584850292e+02 +7.4587755010e+01 +2.0383658939e+02 2.7934814185e+02 0.0000000000e+00 0.0000e+00 1.0000e+00
       13  1    1    2    0    0 -1.7584850292e+02 -7.4587755010e+01 +1.7730088071e+02 2.6061778811e+02 0.0000000000e+00 0.0000e+00 -1.0000e+00
<mgrwt>
<rscale>  0 0.38248848E+03</rscale>
<asrwt>0</asrwt>
<pdfrwt beam="1">  1        2 0.70854106E-01 0.38248848E+03</pdfrwt>
<pdfrwt beam="2">  1       -2 0.12217574E-01 0.38248848E+03</pdfrwt>
<totfact> 0.35512718E+03</totfact>
</mgrwt>
<rwgt>
<wgt id='morphing_basis_vector_1'> +2.3302145e-04 </wgt>
<wgt id='morphing_basis_vector_2'> +1.4588523e-04 </wgt>
<wgt id='morphing_basis_vector_3'> +1.3254011e-04 </wgt>
<wgt id='morphing_basis_vector_4'> +3.0043249e-05 </wgt>
<wgt id='morphing_basis_vector_5'> +2.5429804e-05 </wgt>
</rwgt>
</event>
<event>
 4      1 +3.1894900e-05 4.23948700e+02 7.81860800e-03 9.58824500e-02
        2 -1    0    0  501    0 +0.0000000000e+00 +0.0000000000e+00 +5.2529836376e+01 5.2529836376e+01 0.0000000000e+00 0.0000e+00 -1.0000e+00
       -2 -1    0    0    0  501 -0.0000000000e+00 -0.0000000000e+00 -8.5538308317e+02 8.5538308317e+02 0.0000000000e+00 0.0000e+00 1.0000e+00
      -13  1    1    2    0    0 +1.3685178627e+02 +8.5956727302e+01 -6.9518914101e+02 7.1372607641e+02 0.0000000000e+00 0.0000e+00 1.0000e+00
       13  1    1    2    0    0 -1.3685178627e+02 -8.5956727302e+01 -1.0766410579e+02 1.9418684314e+02 0.0000000000e+00 0.0000e+00 -1.0000e+00
<mgrwt>
<rscale>  0 0.42394874E+03</rscale>
<asrwt>0</asrwt>
<pdfrwt beam="1">  1        2 0.80815133E-02 0.42394874E+03</pdfrwt>
<pdfrwt beam="2">  1       -2 0.13159740E+00 0.42394874E+03</pdfrwt>
<totfact> 0.46634792E+02</totfact>
</mgrwt>
<rwgt>
<wgt id='morphing_basis_vector_1'> +2.9561728e-04 </wgt>
<wgt id='morphing_basis_vector_2'> +1.6024474e-04 </wgt>
<wgt id='morphing_basis_vector_3'> +1.9433545e-04 </wgt>
<wgt id='morphing_basis_vector_4'> +4.8569890e-05 </wgt>
<wgt id='morphing_basis_vector_5'> +5.5878536e-05 </wgt>
</rwgt>
</event>
<event>
 4      1 +3.1894900e-05 3.96596100e+02 7.81860800e-03 9.66654400e-02
        2 -1    0    0  501    0 +0.0000000000e+00 +0.0000000000e+00 +4.9504238957e+02 4.9504238957e+02 0.0000000000e+00 0.0000e+00 -1.0000e+00
       -2 -1    0    0    0  501 -0.0000000000e+00 -0.0000000000e+00 -7.9431806098e+01 7.9431806098e+01 0.0000000000e+00 0.0000e+00 1.0000e+00
      -13  1    1    2    0    0 +1.0048796663e+02 -1.5844129687e+02 +1.1482215425e+02 2.1996727733e+02 0.0000000000e+00 0.0000e+00 1.0000e+00
       13  1    1    2    0    0 -1.0048796663e+02 +1.5844129687e+02 +3.0078842922e+02 3.5450691833e+02 0.0000000000e+00 0.0000e+00 -1.0000e+00
<mgrwt>
<rscale>  0 0.39659607E+03</rscale>
<asrwt>0</asrwt>
<pdfrwt beam="1">  1        2 0.76160366E-01 0.39659607E+03</pdfrwt>
<pdfrwt beam="2">  1       -2 0.12220278E-01 0.39659607E+03</pdfrwt>
<totfact> 0.32777326E+03</totfact>
</mgrwt>
<rwgt>
<wgt id='morphing_basis_vector_1'> +2.4896277e-04 </wgt>
<wgt id='morphing_basis_vector_2'> +1.3904896e-04 </wgt>
<wgt id='morphing_basis_vector_3'> +1.5555420e-04 </wgt>
<wgt id='morphing_basis_vector_4'> +3.4620823e-05 </wgt>
<wgt id='morphing_basis_vector_5'> +3.3839622e-05 </wgt>
</rwgt>
</event>
<event>
 4      1 +3.1894900e-05 4.15629600e+02 7.81860800e-03 9.61137900e-02
        2 -1    0    0  501    0 +0.0000000000e+00 +0.0000000000e+00 +8.4734707509e+02 8.4734707509e+02 0.0000000000e+00 0.0000e+00 -1.0000e+00
       -2 -1    0    0    0  501 -0.0000000000e+00 -0.0000000000e+00 -5.0967301903e+01 5.0967301903e+01 0.0000000000e+00 0.0000e+00 1.0000e+00
      -13  1    1    2    0    0 +1.7992288600e+02 -9.3962354030e+01 +3.0187522868e+02 3.6377166269e+02 0.0000000000e+00 0.0000e+00 1.0000e+00
       13  1    1    2    0    0 -1.7992288600e+02 +9.3962354030e+01 +4.9450454450e+02 5.3454271430e+02 0.0000000000e+00 0.0000e+00 -1.0000e+00
<mgrwt>
<rscale>  0 0.41562961E+03</rscale>
<asrwt>0</asrwt>
<pdfrwt beam="1">  1        2 0.13036108E+00 0.41562961E+03</pdfrwt>
<pdfrwt beam="2">  1       -2 0.78411240E-02 0.41562961E+03</pdfrwt>
<totfact> 0.34593465E+03</totfact>
</mgrwt>
<rwgt>
<wgt id='morphing_basis_vector_1'> +2.8354776e-04 </wgt>
<wgt id='morphing_basis_vector_2'> +1.6228345e-04 </wgt>
<wgt id='morphing_basis_vector_3'> +1.7931187e-04 </wgt>
<wgt id='morphing_basis_vector_4'> +4.3765916e-05 </wgt>
<wgt id='morphing_basis_vector_5'> +4.8606989e-05 </wgt>
</rwgt>
</event>
<event>
 4      1 +3.1894900e-05 3.91483800e+02 7.81860800e-03 9.68192500e-02
        2 -1    0    0  501    0 +0.0000000000e+00 +0.0000000000e+00 +2.1441151251e+02 2.1441151251e+02 0.0000000000e+00 0.0000e+00 -1.0000e+00
       -2 -1    0    0    0  501 -0.0000000000e+00 -0.0000000000e+00 -1.7869793021e+02 1.7869793021e+02 0.0000000000e+00 0.0000e+00 1.0000e+00
      -13  1    1    2    0    0 +1.5822402085e+02 +9.6090381601e+01 -4.6020972949e+01 1.9075149321e+02 0.0000000000e+00 0.0000e+00 1.0000e+00
       13  1    1    2    0    0 -1.5822402085e+02 -9.6090381601e+01 +8.1734555250e+01 2.0235794951e+02 0.0000000000e+00 0.0000e+00 -1.0000e+00
<mgrwt>
<rscale>  0 0.39148381E+03</rscale>
<asrwt>0</asrwt>
<pdfrwt beam="1">  1        2 0.32986387E-01 0.39148381E+03</pdfrwt>
<pdfrwt beam="2">  1       -2 0.27491989E-01 0.39148381E+03</pdfrwt>
<totfact> 0.22125828E+03</totfact>
</mgrwt>
<rwgt>
<wgt id='morphing_basis_vector_1'> +2.4065177e-04 </wgt>
<wgt id='morphing_basis_vector_2'> +1.3434553e-04 </wgt>
<wgt id='morphing_basis_vector_3'> +1.4943286e-04 </wgt>
<wgt id='morphing_basis_vector_4'> +3.2495610e-05 </wgt>
<wgt id='morphing_basis_vector_5'> +3.0446951e-05 </wgt>
</rwgt>
</event>
<event>
 4      1 +3.1894900e-05 3.74349100e+02 7.81860800e-03 9.73536900e-02
        2 -1    0    0  501    0 +0.0000000000e+00 +0.0000000000e+00 +1.4017172770e+03 1.4017172770e+03 0.0000000000e+00 0.0000e+00 -1.0000e+00
       -2 -1    0    0    0  501 -0.0000000000e+00 -0.0000000000e+00 -2.4993855909e+01 2.4993855909e+01 0.0000000000e+00 0.0000e+00 1.0000e+00
      -13  1    1    2    0    0 +1.8588851390e+02 -2.1557094815e+01 +7.0315757966e+02 7.2763303235e+02 0.0000000000e+00 0.0000e+00 1.0000e+00
       13  1    1    2    0    0 -1.8588851390e+02 +2.1557094815e+01 +6.7356584143e+02 6.9907810055e+02 0.0000000000e+00 0.0000e+00 -1.0000e+00
<mgrwt>
<rscale>  0 0.37434914E+03</rscale>
<asrwt>0</asrwt>
<pdfrwt beam="1">  1        2 0.21564875E+00 0.37434914E+03</pdfrwt>
<pdfrwt beam="2">  1       -2 0.38452097E-02 0.37434914E+03</pdfrwt>
<totfact> 0.48071838E+03</totfact>
</mgrwt>
<rwgt>
<wgt id='morphing_basis_vector_1'> +2.1983705e-04 </wgt>
<wgt id='morphing_basis_vector_2'> +1.3568938e-04 </wgt>
<wgt id='morphing_basis_vector_3'> +1.2482910e-04 </wgt>
<wgt id='morphing_basis_vector_4'> +2.7336633e-05 </wgt>
<wgt id='morphing_basis_vector_5'> +2.0986437e-05 </wgt>
</rwgt>
</event>
<event>
 4      1 +3.1894900e-05 3.96600000e+02 7.81860800e-03 9.66653200e-02
        2 -1    0    0  501    0 +0.0000000000e+00 +0.0000000000e+00 +8.7987780263e+02 8.7987780263e+02 0.0000000000e+00 0.0000e+00 -1.0000e+00
       -2 -1    0    0    0  501 -0.0000000000e+00 -0.0000000000e+00 -4.4691307537e+01 4.4691307537e+01 0.0000000000e+00 0.0000e+00 1.0000e+00
      -13  1    1    2    0    0 -2.5006338165e+01 -1.9298703292e+02 +5.0647360458e+02 5.4257241356e+02 0.0000000000e+00 0.0000e+00 1.0000e+00
       13  1    1    2    0    0 +2.5006338165e+01 +1.9298703292e+02 +3.2871289051e+02 3.8199669660e+02 0.0000000000e+00 0.0000e+00 -1.0000e+00
<mgrwt>
<rscale>  0 0.39660000E+03</rscale>
<asrwt>0</asrwt>
<pdfrwt beam="1">  1        2 0.13536580E+00 0.39660000E+03</pdfrwt>
<pdfrwt beam="2">  1       -2 0.68755865E-02 0.39660000E+03</pdfrwt>
<totfact> 0.40255595E+03</totfact>
</mgrwt>
<rwgt>
<wgt id='morphing_basis_vector_1'> +2.6205205e-04 </wgt>
<wgt id='morphing_basis_vector_2'> +1.7899063e-04 </wgt>
<wgt id='morphing_basis_vector_3'> +1.4293507e-04 </wgt>
<wgt id='morphing_basis_vector_4'> +3.5673744e-05 </wgt>
<wgt id='morphing_basis_vector_5'> +3.4700558e-05 </wgt>
</rwgt>
</event>
<event>
 4      1 +3.1894900e-05 3.69426900e+02 7.81860800e-03 9.75129100e-02
        2 -1    0    0  501    0 +0.0000000000e+00 +0.0000000000e+00 +7.7629927224e+02 7.7629927224e+02 0.0000000000e+00 0.0000e+00 1.0000e+00
       -2 -1    0    0    0  501 -0.0000000000e+00 -0.0000000000e+00 -4.3950899542e+01 4.3950899542e+01 0.0000000000e+00 0.0000e+00 -1.0000e+00
      -13  1    1    2    0    0 -1.6703799452e+02 +5.9609321217e+01 +2.5157218871e+02 3.0780436794e+02 0.0000000000e+00 0.0000e+00 -1.0000e+00
       13  1    1    2    0    0 +1.6703799452e+02 -5.9609321217e+01 +4.8077618398e+02 5.1244580384e+02 0.0000000000e+00 0.0000e+00 1.0000e+00
<mgrwt>
<rscale>  0 0.36942686E+03</rscale>
<asrwt>0</asrwt>
<pdfrwt beam="1">  1        2 0.11943065E+00 0.36942686E+03</pdfrwt>
<pdfrwt beam="2">  1       -2 0.67616774E-02 0.36942686E+03</pdfrwt>
<totfact> 0.48321711E+03</totfact>
</mgrwt>
<rwgt>
<wgt id='morphing_basis_vector_1'> +2.0796872e-04 </wgt>
<wgt id='morphing_basis_vector_2'> +1.1710734e-04 </wgt>
<wgt id='morphing_basis_vector_3'> +1.2515004e-04 </wgt>
<wgt id='morphing_basis_vector_4'> +2.4904061e-05 </wgt>
<wgt id='morphing_basis_vector_5'> +1.8268339e-05 </wgt>
</rwgt>
</event>
<event>
 4      1 +3.1894900e-05 3.86720600e+02 7.81860800e-03 9.69648300e-02
        2 -1    0    0  501    0 +0.0000000000e+00 +0.0000000000e+00 +1.0828351679e+03 1.0828351679e+03 0.0000000000e+00 0.0000e+00 -1.0000e+00
       -2 -1    0    0    0  501 -0.0000000000e+00 -0.0000000000e+00 -3.4528064566e+01 3.4528064566e+01 0.0000000000e+00 0.0000e+00 1.0000e+00
      -13  1    1    2    0    0 +1.4537030610e+02 +8.7951036923e+01 +2.5745274978e+02 3.0846365939e+02 0.0000000000e+00 0.0000e+00 1.0000e+00
       13  1    1    2    0    0 -1.4537030610e+02 -8.7951036923e+01 +7.9085435352e+02 8.0889957304e+02 0.0000000000e+00 0.0000e+00 -1.0000e+00
<mgrwt>
<rscale>  0 0.38672058E+03</rscale>
<asrwt>0</asrwt>
<pdfrwt beam="1">  1        2 0.16659000E+00 0.38672058E+03</pdfrwt>
<pdfrwt beam="2">  1       -2 0.53120108E-02 0.38672058E+03</pdfrwt>
<totfact> 0.44726663E+03</totfact>
</mgrwt>
<rwgt>
<wgt id='morphing_basis_vector_1'> +2.3212143e-04 </wgt>
<wgt id='morphing_basis_vector_2'> +1.2704001e-04 </wgt>
<wgt id='morphing_basis_vector_3'> +1.4496882e-04 </wgt>
<wgt id='morphing_basis_vector_4'> +3.0505789e-05 </wgt>
<wgt id='morphing_basis_vector_5'> +2.7416996e-05 </wgt>
</rwgt>
</event>
<event>
 4      1 +3.1894900e-05 3.79717600e+02 7.81860800e-03 9.71830000e-02
        2 -1    0    0  501    0 +0.0000000000e+00 +0.0000000000e+00 +2.8496034039e+02 2.8496034039e+02 0.0000000000e+00 0.0000e+00 1.0000e+00
       -2 -1    0    0    0  501 -0.0000000000e+00 -0.0000000000e+00 -1.2649607787e+02 1.2649607787e+02 0.0000000000e+00 0.0000e+00 -1.0000e+00
      -13  1    1    2    0    0 -5.0571805584e+01 +1.3825613204e+02 +2.0914537711e+02 2.5576171398e+02 0.0000000000e+00 0.0000e+00 1.0000e+00
       13  1    1    2    0    0 +5.0571805584e+01 -1.3825613204e+02 -5.0681114591e+01 1.5569470429e+02 0.0000000000e+00 0.0000e+00 -1.0000e+00
<mgrwt>
<rscale>  0 0.37971761E+03</rscale>
<asrwt>0</asrwt>
<pdfrwt beam="1">  1        2 0.43840052E-01 0.37971761E+03</pdfrwt>
<pdfrwt beam="2">  1       -2 0.19460935E-01 0.37971761E+03</pdfrwt>
<totfact> 0.28660058E+03</totfact>
</mgrwt>
<rwgt>
<wgt id='morphing_basis_vector_1'> +2.7164261e-04 </wgt>
<wgt id='morphing_basis_vector_2'> +2.7331096e-04 </wgt>
<wgt id='morphing_basis_vector_3'> +8.4065439e-05 </wgt>
<wgt id='morphing_basis_vector_4'> +3.6195354e-05 </wgt>
<wgt id='morphing_basis_vector_5'> +2.6716297e-05 </wgt>
</rwgt>
</event>
<event>
 4      1 +3.1894900e-05 4.03167700e+02 7.81860800e-03 9.64713100e-02
        2 -1    0    0  501    0 +0.0000000000e+00 +0.0000000000e+00 +1.1853660323e+03 1.1853660323e+03 0.0000000000e+00 0.0000e+00 -1.0000e+00
       -2 -1    0    0    0  501 -0.0000000000e+00 -0.0000000000e+00 -3.4281442339e+01 3.4281442339e+01 0.0000000000e+00 0.0000e+00 1.0000e+00
      -13  1    1    2    0    0 +4.5353072590e+01 -1.9596711644e+02 +6.1568076758e+02 6.4770581245e+02 0.0000000000e+00 0.0000e+00 1.0000e+00
       13  1    1    2    0    0 -4.5353072590e+01 +1.9596711644e+02 +5.3540382234e+02 5.7194166215e+02 0.0000000000e+00 0.0000e+00 -1.0000e+00
<mgrwt>
<rscale>  0 0.40316774E+03</rscale>
<asrwt>0</asrwt>
<pdfrwt beam="1">  1        2 0.18236397E+00 0.40316774E+03</pdfrwt>
<pdfrwt beam="2">  1       -2 0.52740690E-02 0.40316774E+03</pdfrwt>
<totfact> 0.39486719E+03</totfact>
</mgrwt>
<rwgt>
<wgt id='morphing_basis_vector_1'> +2.6800578e-04 </wgt>
<wgt id='morphing_basis_vector_2'> +1.6977674e-04 </wgt>
<wgt id='morphing_basis_vector_3'> +1.5636290e-04 </wgt>
<wgt id='morphing_basis_vector_4'> +3.7938537e-05 </wgt>
<wgt id='morphing_basis_vector_5'> +3.9053648e-05 </wgt>
</rwgt>
</event>
<event>
 4      1 +3.1894900e-05 4.08367800e+02 7.81860800e-03 9.63204800e-02
        2 -1    0    0  501    0 +0.0000000000e+00 +0.0000000000e+00 +7.5015622043e+02 7.5015622043e+02 0.0000000000e+00 0.0000e+00 1.0000e+00
       -2 -1    0    0    0  501 -0.0000000000e+00 -0.0000000000e+00 -5.5576522055e+01 5.5576522055e+01 0.0000000000e+00 0.0000e+00 -1.0000e+00
      -13  1    1    2    0    0 +6.1349148676e+01 +1.7175287862e+02 +5.2842785493e+02 5.5901589174e+02 0.0000000000e+00 0.0000e+00 -1.0000e+00
       13  1    1    2    0    0 -6.1349148676e+01 -1.7175287862e+02 +1.6615184345e+02 2.4671685075e+02 0.0000000000e+00 0.0000e+00 1.0000e+00
<mgrwt>
<rscale>  0 0.40836784E+03</rscale>
<asrwt>0</asrwt>
<pdfrwt beam="1">  1        2 0.11540864E+00 0.40836784E+03</pdfrwt>
<pdfrwt beam="2">  1       -2 0.85502347E-02 0.40836784E+03</pdfrwt>
<totfact> 0.35263730E+03</totfact>
</mgrwt>
<rwgt>
<wgt id='morphing_basis_vector_1'> +3.0491664e-04 </wgt>
<wgt id='morphing_basis_vector_2'> +2.6035596e-04 </wgt>
<wgt id='morphing_basis_vector_3'> +1.3835542e-04 </wgt>
<wgt id='morphing_basis_vector_4'> +4.0841117e-05 </wgt>
<wgt id='morphing_basis_vector_5'> +4.4831143e-05 </wgt>
</rwgt>
</event>
<event>
 4      1 +3.1894900e-05 3.81973800e+02 7.81860800e-03 9.71121600e-02
        2 -1    0    0  501    0 +0.0000000000e+00 +0.0000000000e+00 +2.6437769615e+02 2.6437769615e+02 0.0000000000e+00 0.0000e+00 1.0000e+00
       -2 -1    0    0    0  501 -0.0000000000e+00 -0.0000000000e+00 -1.3796924963e+02 1.3796924963e+02 0.0000000000e+00 0.0000e+00 -1.0000e+00
      -13  1    1    2    0    0 -6.2579039858e+01 -6.1960616848e+01 -1.1530676468e+02 1.4508929750e+02 0.0000000000e+00 0.0000e+00 -1.0000e+00
       13  1    1    2    0    0 +6.2579039858e+01 +6.1960616848e+01 +2.4171521120e+02 2.5725764827e+02 0.0000000000e+00 0.0000e+00 1.0000e+00
<mgrwt>
<rscale>  0 0.38197378E+03</rscale>
<asrwt>0</asrwt>
<pdfrwt beam="1">  1        2 0.40673492E-01 0.38197378E+03</pdfrwt>
<pdfrwt beam="2">  1       -2 0.21226039E-01 0.38197378E+03</pdfrwt>
<totfact> 0.27005689E+03</totfact>
</mgrwt>
<rwgt>
<wgt id='morphing_basis_vector_1'> +2.2396783e-04 </wgt>
<wgt id='morphing_basis_vector_2'> +1.2032882e-04 </wgt>
<wgt id='morphing_basis_vector_3'> +1.4062497e-04 </wgt>
<wgt id='morphing_basis_vector_4'> +2.8609108e-05 </wgt>
<wgt id='morphing_basis_vector_5'> +2.4590722e-05 </wgt>
</rwgt>
</event>
<event>
 4      1 +3.1894900e-05 3.74456000e+02 7.81860800e-03 9.73502600e-02
        2 -1    0    0  501    0 +0.0000000000e+00 +0.0000000000e+00 +3.3810211074e+02 3.3810211074e+02 0.0000000000e+00 0.0000e+00 -1.0000e+00
       -2 -1    0    0    0  501 -0.0000000000e+00 -0.0000000000e+00 -1.0367969115e+02 1.0367969115e+02 0.0000000000e+00 0.0000e+00 1.0000e+00
      -13  1    1    2    0    0 -1.2694517408e+01 +1.2115899756e+02 -5.0526076487e+01 1.3188456266e+02 0.0000000000e+00 0.0000e+00 1.0000e+00
       13  1    1    2    0    0 +1.2694517408e+01 -1.2115899756e+02 +2.8494849608e+02 3.0989723923e+02 0.0000000000e+00 0.0000e+00 -1.0000e+00
<mgrwt>
<rscale>  0 0.37445599E+03</rscale>
<asrwt>0</asrwt>
<pdfrwt beam="1">  1        2 0.52015709E-01 0.37445599E+03</pdfrwt>
<pdfrwt beam="2">  1       -2 0.15950722E-01 0.37445599E+03</pdfrwt>
<totfact> 0.32740195E+03</totfact>
</mgrwt>
<rwgt>
<wgt id='morphing_basis_vector_1'> +2.1306805e-04 </wgt>
<wgt id='morphing_basis_vector_2'> +1.1482866e-04 </wgt>
<wgt id='morphing_basis_vector_3'> +1.3248741e-04 </wgt>
<wgt id='morphing_basis_vector_4'> +2.6048184e-05 </wgt>
<wgt id='morphing_basis_vector_5'> +2.0583670e-05 </wgt>
</rwgt>
</event>
<event>
 4      1 +3.1894900e-05 3.88246400e+02 7.81860800e-03 9.69179500e-02
        2 -1    0    0  501    0 +0.0000000000e+00 +0.0000000000e+00 +5.1931493296e+02 5.1931493296e+02 0.0000000000e+00 0.0000e+00 1.0000e+00
       -2 -1    0    0    0  501 -0.0000000000e+00 -0.0000000000e+00 -7.2564462462e+01 7.2564462462e+01 0.0000000000e+00 0.0000e+00 -1.0000e+00
      -13  1    1    2    0    0 +1.6089050431e+02 +7.6540452298e+01 +3.4086632470e+02 3.8462195274e+02 0.0000000000e+00 0.0000e+00 1.0000e+00
       13  1    1    2    0    0 -1.6089050431e+02 -7.6540452298e+01 +1.0588414581e+02 2.0725744269e+02 0.0000000000e+00 0.0000e+00 -1.0000e+00
<mgrwt>
<rscale>  0 0.38824636E+03</rscale>
<asrwt>0</asrwt>
<pdfrwt beam="1">  1        2 0.79894603E-01 0.38824636E+03</pdfrwt>
<pdfrwt beam="2">  1       -2 0.11163764E-01 0.38824636E+03</pdfrwt>
<totfact> 0.35773778E+03</totfact>
</mgrwt>
<rwgt>
<wgt id='morphing_basis_vector_1'> +2.6170745e-04 </wgt>
<wgt id='morphing_basis_vector_2'> +2.1116052e-04 </wgt>
<wgt id='morphing_basis_vector_3'> +1.1916905e-04 </wgt>
<wgt id='morphing_basis_vector_4'> +3.4412402e-05 </wgt>
<wgt id='morphing_basis_vector_5'> +3.0143240e-05 </wgt>
</rwgt>
</event>
<event>
 4      1 +3.1894900e-05 3.85985700e+02 7.81860800e-03 9.69874900e-02
        2 -1    0    0  501    0 +0.0000000000e+00 +0.0000000000e+00 +9.0756398954e+02 9.0756398954e+02 0.0000000000e+00 0.0000e+00 1.0000e+00
       -2 -1    0    0    0  501 -0.0000000000e+00 -0.0000000000e+00 -4.1039784811e+01 4.1039784811e+01 0.0000000000e+00 0.0000e+00 -1.0000e+00
      -13  1    1    2    0    0 +1.5725033590e+02 -2.6419161634e+01 +7.0046014678e+02 7.1838016222e+02 0.0000000000e+00 0.0000e+00 1.0000e+00
       13  1    1    2    0    0 -1.5725033590e+02 +2.6419161634e+01 +1.6606405795e+02 2.3022361213e+02 0.0000000000e+00 0.0000e+00 -1.0000e+00
<mgrwt>
<rscale>  0 0.38598565E+03</rscale>
<asrwt>0</asrwt>
<pdfrwt beam="1">  1        2 0.13962521E+00 0.38598565E+03</pdfrwt>
<pdfrwt beam="2">  1       -2 0.63138137E-02 0.38598565E+03</pdfrwt>
<totfact> 0.43983369E+03</totfact>
</mgrwt>
<rwgt>
<wgt id='morphing_basis_vector_1'> +2.7507048e-04 </wgt>
<wgt id='morphing_basis_vector_2'> +2.6046676e-04 </wgt>
<wgt id='morphing_basis_vector_3'> +9.8955449e-05 </wgt>
<wgt id='morphing_basis_vector_4'> +3.6097086e-05 </wgt>
<wgt id='morphing_basis_vector_5'> +2.9892815e-05 </wgt>
</rwgt>
</event>
<event>
 4      1 +3.1894900e-05 3.77503900e+02 7.81860800e-03 9.72530100e-02
        2 -1    0    0  501    0 +0.0000000000e+00 +0.0000000000e+00 +5.3550585659e+02 5.3550585659e+02 0.0000000000e+00 0.0000e+00 -1.0000e+00
       -2 -1    0    0    0  501 -0.0000000000e+00 -0.0000000000e+00 -6.6530163602e+01 6.6530163602e+01 0.0000000000e+00 0.0000e+00 1.0000e+00
      -13  1    1    2    0    0 -1.7723241133e+02 +5.4284081333e+01 +2.9130332135e+02 3.4527628668e+02 0.0000000000e+00 0.0000e+00 1.0000e+00
       13  1    1    2    0    0 +1.7723241133e+02 -5.4284081333e+01 +1.7767237163e+02 2.5675973351e+02 0.0000000000e+00 0.0000e+00 -1.0000e+00
<mgrwt>
<rscale>  0 0.37750387E+03</rscale>
<asrwt>0</asrwt>
<pdfrwt beam="1">  1        2 0.82385514E-01 0.37750387E+03</pdfrwt>
<pdfrwt beam="2">  1       -2 0.10235410E-01 0.37750387E+03</pdfrwt>
<totfact> 0.39527407E+03</totfact>
</mgrwt>
<rwgt>
<wgt id='morphing_basis_vector_1'> +2.3042085e-04 </wgt>
<wgt id='morphing_basis_vector_2'> +1.5638953e-04 </wgt>
<wgt id='morphing_basis_vector_3'> +1.2179363e-04 </wgt>
<wgt id='morphing_basis_vector_4'> +2.9331931e-05 </wgt>
<wgt id='morphing_basis_vector_5'> +2.3014633e-05 </wgt>
</rwgt>
</event>
<event>
 4      1 +3.1894900e-05 4.00531000e+02 7.81860800e-03 9.65487200e-02
        2 -1    0    0  501    0 +0.0000000000e+00 +0.0000000000e+00 +8.8406913566e+02 8.8406913566e+02 0.0000000000e+00 0.0000e+00 -1.0000e+00
       -2 -1    0    0    0  501 -0.0000000000e+00 -0.0000000000e+00 -4.5365529016e+01 4.5365529016e+01 0.0000000000e+00 0.0000e+00 1.0000e+00
      -13  1    1    2    0    0 +1.5040691321e+02 +7.3551541127e+01 +1.6436842901e+02 2.3462533793e+02 0.0000000000e+00 0.0000e+00 1.0000e+00
       13  1    1    2    0    0 -1.5040691321e+02 -7.3551541127e+01 +6.7433517763e+02 6.9480932675e+02 0.0000000000e+00 0.0000e+00 -1.0000e+00
<mgrwt>
<rscale>  0 0.40053097E+03</rscale>
<asrwt>0</asrwt>
<pdfrwt beam="1">  1        2 0.13601062E+00 0.40053097E+03</pdfrwt>
<pdfrwt beam="2">  1       -2 0.69793128E-02 0.40053097E+03</pdfrwt>
<totfact> 0.39110989E+03</totfact>
</mgrwt>
<rwgt>
<wgt id='morphing_basis_vector_1'> +2.5403775e-04 </wgt>
<wgt id='morphing_basis_vector_2'> +1.3821655e-04 </wgt>
<wgt id='morphing_basis_vector_3'> +1.6183613e-04 </wgt>
<wgt id='morphing_basis_vector_4'> +3.6259806e-05 </wgt>
<wgt id='morphing_basis_vector_5'> +3.6507464e-05 </wgt>
</rwgt>
</event>
<event>
 4      1 +3.1894900e-05 4.18878100e+02 7.81860800e-03 9.60227700e-02
        2 -1    0    0  501    0 +0.0000000000e+00 +0.0000000000e+00 +5.1235179139e+02 5.1235179139e+02 0.0000000000e+00 0.0000e+00 -1.0000e+00
       -2 -1    0    0    0  501 -0.0000000000e+00 -0.0000000000e+00 -8.5614467060e+01 8.5614467060e+01 0.0000000000e+00 0.0000e+00 1.0000e+00
      -13  1    1    2    0    0 -1.1395300557e+02 +8.9705454690e+01 -2.3384509873e+00 1.4504421544e+02 0.0000000000e+00 0.0000e+00 1.0000e+00
       13  1    1    2    0    0 +1.1395300557e+02 -8.9705454690e+01 +4.2907577531e+02 4.5292204301e+02 0.0000000000e+00 0.0000e+00 -1.0000e+00
<mgrwt>
<rscale>  0 0.41887815E+03</rscale>
<asrwt>0</asrwt>
<pdfrwt beam="1">  1        2 0.78823350E-01 0.41887815E+03</pdfrwt>
<pdfrwt beam="2">  1       -2 0.13171457E-01 0.41887815E+03</pdfrwt>
<totfact> 0.28043680E+03</totfact>
</mgrwt>
<rwgt>
<wgt id='morphing_basis_vector_1'> +2.8586873e-04 </wgt>
<wgt id='morphing_basis_vector_2'> +1.5435382e-04 </wgt>
<wgt id='morphing_basis_vector_3'> +1.8706915e-04 </wgt>
<wgt id='morphing_basis_vector_4'> +4.5624975e-05 </wgt>
<wgt id='morphing_basis_vector_5'> +5.1219137e-05 </wgt>
</rwgt>
</event>
<event>
 4      1 +3.1894900e-05 3.98069900e+02 7.81860800e-03 9.66215500e-02
        2 -1    0    0  501    0 +0.0000000000e+00 +0.0000000000e+00 +1.2104182348e+03 1.2104182348e+03 0.0000000000e+00 0.0000e+00 -1.0000e+00
       -2 -1    0    0    0  501 -0.0000000000e+00 -0.0000000000e+00 -3.2728282516e+01 3.2728282516e+01 0.0000000000e+00 0.0000e+00 1.0000e+00
      -13  1    1    2    0    0 +1.4925112415e+02 +7.8596019239e+01 +9.1877947074e+02 9.3413540140e+02 0.0000000000e+00 0.0000e+00 1.0000e+00
       13  1    1    2    0    0 -1.4925112415e+02 -7.8596019239e+01 +2.5891048152e+02 3.0901111589e+02 0.0000000000e+00 0.0000e+00 -1.0000e+00
<mgrwt>
<rscale>  0 0.39806989E+03</rscale>
<asrwt>0</asrwt>
<pdfrwt beam="1">  1        2 0.18621816E+00 0.39806989E+03</pdfrwt>
<pdfrwt beam="2">  1       -2 0.50351213E-02 0.39806989E+03</pdfrwt>
<totfact> 0.40975626E+03</totfact>
</mgrwt>
<rwgt>
<wgt id='morphing_basis_vector_1'> +2.9415518e-04 </wgt>
<wgt id='morphing_basis_vector_2'> +2.7100348e-04 </wgt>
<wgt id='morphing_basis_vector_3'> +1.1646743e-04 </wgt>
<wgt id='morphing_basis_vector_4'> +3.8382145e-05 </wgt>
<wgt id='morphing_basis_vector_5'> +3.7658662e-05 </wgt>
</rwgt>
</event>
<event>
 4      1 +3.1894900e-05 3.94237700e+02 7.81860800e-03 9.67360800e-02
        2 -1    0    0  501    0 +0.0000000000e+00 +0.0000000000e+00 +3.3406722174e+02 3.3406722174e+02 0.0000000000e+00 0.0000e+00 -1.0000e+00
       -2 -1    0    0    0  501 -0.0000000000e+00 -0.0000000000e+00 -1.1631142840e+02 1.1631142840e+02 0.0000000000e+00 0.0000e+00 1.0000e+00
      -13  1    1    2    0    0 +1.2229388239e+02 +1.1238516712e+02 -1.2397928030e+01 1.6655307886e+02 0.0000000000e+00 0.0000e+00 1.0000e+00
       13  1    1    2    0    0 -1.2229388239e+02 -1.1238516712e+02 +2.3015372137e+02 2.8382557129e+02 0.0000000000e+00 0.0000e+00 -1.0000e+00
<mgrwt>
<rscale>  0 0.39423767E+03</rscale>
<asrwt>0</asrwt>
<pdfrwt beam="1">  1        2 0.51394957E-01 0.39423767E+03</pdfrwt>
<pdfrwt beam="2">  1       -2 0.17894066E-01 0.39423767E+03</pdfrwt>
<totfact> 0.27590046E+03</totfact>
</mgrwt>
<rwgt>
<wgt id='morphing_basis_vector_1'> +2.4372753e-04 </wgt>
<wgt id='morphing_basis_vector_2'> +1.3267950e-04 </wgt>
<wgt id='morphing_basis_vector_3'> +1.5404139e-04 </wgt>
<wgt id='morphing_basis_vector_4'> +3.3497281e-05 </wgt>
<wgt id='morphing_basis_vector_5'> +3.2156653e-05 </wgt>
</rwgt>
</event>
<event>
 4      1 +3.1894900e-05 4.03065600e+02 7.81860800e-03 9.64743000e-02
        2 -1    0    0  501    0 +0.0000000000e+00 +0.0000000000e+00 +1.6266791999e+03 1.6266791999e+03 0.0000000000e+00 0.0000e+00 -1.0000e+00
       -2 -1    0    0    0  501 -0.0000000000e+00 -0.0000000000e+00 -2.4968336063e+01 2.4968336063e+01 0.0000000000e+00 0.0000e+00 1.0000e+00
      -13  1    1    2    0    0 +1.3996952010e+02 -1.3695900506e+02 +6.0578371202e+02 6.3664993629e+02 0.0000000000e+00 0.0000e+00 1.0000e+00
       13  1    1    2    0    0 -1.3996952010e+02 +1.3695900506e+02 +9.9592715179e+02 1.0149975997e+03 0.0000000000e+00 0.0000e+00 -1.0000e+00
<mgrwt>
<rscale>  0 0.40306562E+03</rscale>
<asrwt>0</asrwt>
<pdfrwt beam="1">  1        2 0.25025826E+00 0.40306562E+03</pdfrwt>
<pdfrwt beam="2">  1       -2 0.38412837E-02 0.40306562E+03</pdfrwt>
<totfact> 0.36414847E+03</totfact>
</mgrwt>
<rwgt>
<wgt id='morphing_basis_vector_1'> +2.6083377e-04 </wgt>
<wgt id='morphing_basis_vector_2'> +1.4827109e-04 </wgt>
<wgt id='morphing_basis_vector_3'> +1.6272374e-04 </wgt>
<wgt id='morphing_basis_vector_4'> +3.7557184e-05 </wgt>
<wgt id='morphing_basis_vector_5'> +3.8523155e-05 </wgt>
</rwgt>
</event>
<event>
 4      1 +3.1894900e-05 3.93639600e+02 7.81860800e-03 9.67540800e-02
        2 -1    0    0  501    0 +0.0000000000e+00 +0.0000000000e+00 +3.4291678634e+02 3.4291678634e+02 0.0000000000e+00 0.0000e+00 1.0000e+00
       -2 -1    0    0    0  501 -0.0000000000e+00 -0.0000000000e+00 -1.1296630041e+02 1.1296630041e+02 0.0000000000e+00 0.0000e+00 -1.0000e+00
      -13  1    1    2    0    0 -7.9515325048e+01 -2.4159130149e+00 +3.2346798417e+02 3.3310668011e+02 0.0000000000e+00 0.0000e+00 1.0000e+00
       13  1    1    2    0    0 +7.9515325048e+01 +2.4159130149e+00 -9.3517498233e+01 1.2277640665e+02 0.0000000000e+00 0.0000e+00 -1.0000e+00
<mgrwt>
<rscale>  0 0.39363964E+03</rscale>
<asrwt>0</asrwt>
<pdfrwt beam="1">  1        2 0.52756428E-01 0.39363964E+03</pdfrwt>
<pdfrwt beam="2">  1       -2 0.17379431E-01 0.39363964E+03</pdfrwt>
<totfact> 0.28102178E+03</totfact>
</mgrwt>
<rwgt>
<wgt id='morphing_basis_vector_1'> +3.2640779e-04 </wgt>
<wgt id='morphing_basis_vector_2'> +3.8723049e-04 </wgt>
<wgt id='morphing_basis_vector_3'> +7.1213956e-05 </wgt>
<wgt id='morphing_basis_vector_4'> +4.1197259e-05 </wgt>
<wgt id='morphing_basis_vector_5'> +3.7265754e-05 </wgt>
</rwgt>
</event>
<event>
 4      1 +3.1894900e-05 3.65726800e+02 7.81860800e-03 9.76343600e-02
        2 -1    0    0  501    0 +0.0000000000e+00 +0.0000000000e+00 +6.0700649422e+02 6.0700649422e+02 0.0000000000e+00 0.0000e+00 -1.0000e+00
       -2 -1    0    0    0  501 -0.0000000000e+00 -0.0000000000e+00 -5.5088422696e+01 5.5088422696e+01 0.0000000000e+00 0.0000e+00 1.0000e+00
      -13  1    1    2    0    0 -1.6879685878e+02 -3.6700835223e+01 +1.6734235080e+02 2.4050528729e+02 0.0000000000e+00 0.0000e+00 1.0000e+00
       13  1    1    2    0    0 +1.6879685878e+02 +3.6700835223e+01 +3.8457572073e+02 4.2158962963e+02 0.0000000000e+00 0.0000e+00 -1.0000e+00
<mgrwt>
<rscale>  0 0.36572684E+03</rscale>
<asrwt>0</asrwt>
<pdfrwt beam="1">  1        2 0.93385610E-01 0.36572684E+03</pdfrwt>
<pdfrwt beam="2">  1       -2 0.84751423E-02 0.36572684E+03</pdfrwt>
<totfact> 0.45832121E+03</totfact>
</mgrwt>
<rwgt>
<wgt id='morphing_basis_vector_1'> +2.0244048e-04 </wgt>
<wgt id='morphing_basis_vector_2'> +1.1308450e-04 </wgt>
<wgt id='morphing_basis_vector_3'> +1.2198642e-04 </wgt>
<wgt id='morphing_basis_vector_4'> +2.3752584e-05 </wgt>
<wgt id='morphing_basis_vector_5'> +1.6556951e-05 </wgt>
</rwgt>
</event>
<event>
 4      1 +3.1894900e-05 3.66447300e+02 7.81860800e-03 9.76105900e-02
        2 -1    0    0  501    0 +0.0000000000e+00 +0.0000000000e+00 +6.4349342797e+02 6.4349342797e+02 0.0000000000e+00 0.0000e+00 -1.0000e+00
       -2 -1    0    0    0  501 -0.0000000000e+00 -0.0000000000e+00 -5.2169786414e+01 5.2169786414e+01 0.0000000000e+00 0.0000e+00 1.0000e+00
      -13  1    1    2    0    0 -3.0071960173e+01 +1.2024130169e+02 +3.9493165957e+01 1.3008460162e+02 0.0000000000e+00 0.0000e+00 1.0000e+00
       13  1    1    2    0    0 +3.0071960173e+01 -1.2024130169e+02 +5.5183047560e+02 5.6557861277e+02 0.0000000000e+00 0.0000e+00 -1.0000e+00
<mgrwt>
<rscale>  0 0.36644735E+03</rscale>
<asrwt>0</asrwt>
<pdfrwt beam="1">  1        2 0.98998983E-01 0.36644735E+03</pdfrwt>
<pdfrwt beam="2">  1       -2 0.80261214E-02 0.36644735E+03</pdfrwt>
<totfact> 0.46566218E+03</totfact>
</mgrwt>
<rwgt>
<wgt id='morphing_basis_vector_1'> +2.0190000e-04 </wgt>
<wgt id='morphing_basis_vector_2'> +1.0901617e-04 </wgt>
<wgt id='morphing_basis_vector_3'> +1.2441706e-04 </wgt>
<wgt id='morphing_basis_vector_4'> +2.3602753e-05 </wgt>
<wgt id='morphing_basis_vector_5'> +1.6777405e-05 </wgt>
</rwgt>
</event>
<event>
 4      1 +3.1894900e-05 3.92554000e+02 7.81860800e-03 9.67868400e-02
        2 -1    0    0  501    0 +0.0000000000e+00 +0.0000000000e+00 +1.2816804815e+03 1.2816804815e+03 0.0000000000e+00 0.0000e+00 1.0000e+00
       -2 -1    0    0    0  501 -0.0000000000e+00 -0.0000000000e+00 -3.0057925015e+01 3.0057925015e+01 0.0000000000e+00 0.0000e+00 -1.0000e+00
      -13  1    1    2    0    0 +1.1767798477e+02 +1.4909324906e+02 +7.9113358437e+02 8.1361492939e+02 0.0000000000e+00 0.0000e+00 1.0000e+00
       13  1    1    2    0    0 -1.1767798477e+02 -1.4909324906e+02 +4.6048897210e+02 4.9812347710e+02 0.0000000000e+00 0.0000e+00 -1.0000e+00
<mgrwt>
<rscale>  0 0.39255397E+03</rscale>
<asrwt>0</asrwt>
<pdfrwt beam="1">  1        2 0.19718157E+00 0.39255397E+03</pdfrwt>
<pdfrwt beam="2">  1       -2 0.46242972E-02 0.39255397E+03</pdfrwt>
<totfact> 0.42473620E+03</totfact>
</mgrwt>
<rwgt>
<wgt id='morphing_basis_vector_1'> +2.5842143e-04 </wgt>
<wgt id='morphing_basis_vector_2'> +1.8424408e-04 </wgt>
<wgt id='morphing_basis_vector_3'> +1.3484044e-04 </wgt>
<wgt id='morphing_basis_vector_4'> +3.4541739e-05 </wgt>
<wgt id='morphing_basis_vector_5'> +3.2196162e-05 </wgt>
</rwgt>
</event>
<event>
 4      1 +3.1894900e-05 3.67902000e+02 7.81860800e-03 9.75627800e-02
        2 -1    0    0  501    0 +0.0000000000e+00 +0.0000000000e+00 +1.2386839829e+03 1.2386839829e+03 0.0000000000e+00 0.0000e+00 1.0000e+00
       -2 -1    0    0    0  501 -0.0000000000e+00 -0.0000000000e+00 -2.7317674519e+01 2.7317674519e+01 0.0000000000e+00 0.0000e+00 -1.0000e+00
      -13  1    1    2    0    0 +1.6324491799e+02 -6.5193922500e+01 +4.1913614720e+02 4.5450441216e+02 0.0000000000e+00 0.0000e+00 -1.0000e+00
       13  1    1    2    0    0 -1.6324491799e+02 +6.5193922500e+01 +7.9223016116e+02 8.1149724524e+02 0.0000000000e+00 0.0000e+00 1.0000e+00
<mgrwt>
<rscale>  0 0.36790198E+03</rscale>
<asrwt>0</asrwt>
<pdfrwt beam="1">  1        2 0.19056672E+00 0.36790198E+03</pdfrwt>
<pdfrwt beam="2">  1       -2 0.42027201E-02 0.36790198E+03</pdfrwt>
<totfact> 0.51748298E+03</totfact>
</mgrwt>
<rwgt>
<wgt id='morphing_basis_vector_1'> +2.0570523e-04 </wgt>
<wgt id='morphing_basis_vector_2'> +1.1552703e-04 </wgt>
<wgt id='morphing_basis_vector_3'> +1.2379863e-04 </wgt>
<wgt id='morphing_basis_vector_4'> +2.4430385e-05 </wgt>
<wgt id='morphing_basis_vector_5'> +1.7552931e-05 </wgt>
</rwgt>
</event>
<event>
 4      1 +3.1894900e-05 4.18227200e+02 7.81860800e-03 9.60409400e-02
        2 -1    0    0  501    0 +0.0000000000e+00 +0.0000000000e+00 +3.8378714062e+02 3.8378714062e+02 0.0000000000e+00 0.0000e+00 -1.0000e+00
       -2 -1    0    0    0  501 -0.0000000000e+00 -0.0000000000e+00 -1.1393948013e+02 1.1393948013e+02 0.0000000000e+00 0.0000e+00 1.0000e+00
      -13  1    1    2    0    0 +1.6974111542e+02 +1.3178874591e+01 -9.5762920560e+00 1.7052106723e+02 0.0000000000e+00 0.0000e+00 1.0000e+00
       13  1    1    2    0    0 -1.6974111542e+02 -1.3178874591e+01 +2.7942395255e+02 3.2720555353e+02 0.0000000000e+00 0.0000e+00 -1.0000e+00
<mgrwt>
<rscale>  0 0.41822725E+03</rscale>
<asrwt>0</asrwt>
<pdfrwt beam="1">  1        2 0.59044175E-01 0.41822725E+03</pdfrwt>
<pdfrwt beam="2">  1       -2 0.17529151E-01 0.41822725E+03</pdfrwt>
<totfact> 0.24485191E+03</totfact>
</mgrwt>
<rwgt>
<wgt id='morphing_basis_vector_1'> +2.8509653e-04 </wgt>
<wgt id='morphing_basis_vector_2'> +1.5502201e-04 </wgt>
<wgt id='morphing_basis_vector_3'> +1.8576858e-04 </wgt>
<wgt id='morphing_basis_vector_4'> +4.5245809e-05 </wgt>
<wgt id='morphing_basis_vector_5'> +5.0668398e-05 </wgt>
</rwgt>
</event>
<event>
 4      1 +3.1894900e-05 3.74486200e+02 7.81860800e-03 9.73492900e-02
        2 -1    0    0  501    0 +0.0000000000e+00 +0.0000000000e+00 +5.0353464040e+02 5.0353464040e+02 0.0000000000e+00 0.0000e+00 -1.0000e+00
       -2 -1    0    0    0  501 -0.0000000000e+00 -0.0000000000e+00 -6.9627746884e+01 6.9627746884e+01 0.0000000000e+00 0.0000e+00 1.0000e+00
      -13  1    1    2    0    0 -1.8015157873e+02 +2.3699987538e+01 +1.4776228874e+02 2.3420071457e+02 0.0000000000e+00 0.0000e+00 1.0000e+00
       13  1    1    2    0    0 +1.8015157873e+02 -2.3699987538e+01 +2.8614460478e+02 3.3896167272e+02 0.0000000000e+00 0.0000e+00 -1.0000e+00
<mgrwt>
<rscale>  0 0.37448622E+03</rscale>
<asrwt>0</asrwt>
<pdfrwt beam="1">  1        2 0.77466865E-01 0.37448622E+03</pdfrwt>
<pdfrwt beam="2">  1       -2 0.10711961E-01 0.37448622E+03</pdfrwt>
<totfact> 0.39462073E+03</totfact>
</mgrwt>
<rwgt>
<wgt id='morphing_basis_vector_1'> +2.1556282e-04 </wgt>
<wgt id='morphing_basis_vector_2'> +1.2226867e-04 </wgt>
<wgt id='morphing_basis_vector_3'> +1.2984754e-04 </wgt>
<wgt id='morphing_basis_vector_4'> +2.6524931e-05 </wgt>
<wgt id='morphing_basis_vector_5'> +2.0760708e-05 </wgt>
</rwgt>
</event>
<event>
 4      1 +3.1894900e-05 4.23124600e+02 7.81860800e-03 9.59051100e-02
        2 -1    0    0  501    0 +0.0000000000e+00 +0.0000000000e+00 +3.6353001799e+02 3.6353001799e+02 0.0000000000e+00 0.0000e+00 1.0000e+00
       -2 -1    0    0    0  501 -0.0000000000e+00 -0.0000000000e+00 -1.2312220084e+02 1.2312220084e+02 0.0000000000e+00 0.0000e+00 -1.0000e+00
      -13  1    1    2    0    0 +1.5558816609e+02 +9.1054261504e+00 -4.4342499778e+01 1.6203963558e+02 0.0000000000e+00 0.0000e+00 -1.0000e+00
       13  1    1    2    0    0 -1.5558816609e+02 -9.1054261504e+00 +2.8475031693e+02 3.2461258325e+02 0.0000000000e+00 0.0000e+00 1.0000e+00
<mgrwt>
<rscale>  0 0.42312464E+03</rscale>
<asrwt>0</asrwt>
<pdfrwt beam="1">  1        2 0.55927695E-01 0.42312464E+03</pdfrwt>
<pdfrwt beam="2">  1       -2 0.18941877E-01 0.42312464E+03</pdfrwt>
<totfact> 0.22925038E+03</totfact>
</mgrwt>
<rwgt>
<wgt id='morphing_basis_vector_1'> +2.9395860e-04 </wgt>
<wgt id='morphing_basis_vector_2'> +1.5910406e-04 </wgt>
<wgt id='morphing_basis_vector_3'> +1.9318126e-04 </wgt>
<wgt id='morphing_basis_vector_4'> +4.8083698e-05 </wgt>
<wgt id='morphing_basis_vector_5'> +5.5100260e-05 </wgt>
</rwgt>
</event>
<event>
 4      1 +3.1894900e-05 3.95259700e+02 7.81860800e-03 9.67054000e-02
        2 -1    0    0  501    0 +0.0000000000e+00 +0.0000000000e+00 +6.5175658931e+02 6.5175658931e+02 0.0000000000e+00 0.0000e+00 -1.0000e+00
       -2 -1    0    0    0  501 -0.0000000000e+00 -0.0000000000e+00 -5.9926607061e+01 5.9926607061e+01 0.0000000000e+00 0.0000e+00 1.0000e+00
      -13  1    1    2    0    0 -1.4204818163e+02 -1.3633435309e+02 +3.2672586360e+02 3.8146367020e+02 0.0000000000e+00 0.0000e+00 -1.0000e+00
       13  1    1    2    0    0 +1.4204818163e+02 +1.3633435309e+02 +2.6510411865e+02 3.3021952617e+02 0.0000000000e+00 0.0000e+00 1.0000e+00
<mgrwt>
<rscale>  0 0.39525972E+03</rscale>
<asrwt>0</asrwt>
<pdfrwt beam="1">  1        2 0.10027024E+00 0.39525972E+03</pdfrwt>
<pdfrwt beam="2">  1       -2 0.92194784E-02 0.39525972E+03</pdfrwt>
<totfact> 0.37128653E+03</totfact>
</mgrwt>
<rwgt>
<wgt id='morphing_basis_vector_1'> +2.5507084e-04 </wgt>
<wgt id='morphing_basis_vector_2'> +1.6314374e-04 </wgt>
<wgt id='morphing_basis_vector_3'> +1.4585497e-04 </wgt>
<wgt id='morphing_basis_vector_4'> +3.4774690e-05 </wgt>
<wgt id='morphing_basis_vector_5'> +3.3476826e-05 </wgt>
</rwgt>
</event>
<event>
 4      1 +3.1894900e-05 3.79174000e+02 7.81860800e-03 9.72001400e-02
        2 -1    0    0  501    0 +0.0000000000e+00 +0.0000000000e+00 +2.6191050130e+02 2.6191050130e+02 0.0000000000e+00 0.0000e+00 1.0000e+00
       -2 -1    0    0    0  501 -0.0000000000e+00 -0.0000000000e+00 -1.3723477488e+02 1.3723477488e+02 0.0000000000e+00 0.0000e+00 -1.0000e+00
      -13  1    1    2    0    0 -1.0648100555e+02 +1.5683291589e+02 +6.5399783749e+01 2.0052904968e+02 0.0000000000e+00 0.0000e+00 -1.0000e+00
       13  1    1    2    0    0 +1.0648100555e+02 -1.5683291589e+02 +5.9275942674e+01 1.9861622650e+02 0.0000000000e+00 0.0000e+00 1.0000e+00
<mgrwt>
<rscale>  0 0.37917399E+03</rscale>
<asrwt>0</asrwt>
<pdfrwt beam="1">  1        2 0.40293923E-01 0.37917399E+03</pdfrwt>
<pdfrwt beam="2">  1       -2 0.21113042E-01 0.37917399E+03</pdfrwt>
<totfact> 0.27527234E+03</totfact>
</mgrwt>
<rwgt>
<wgt id='morphing_basis_vector_1'> +2.2695763e-04 </wgt>
<wgt id='morphing_basis_vector_2'> +1.3979413e-04 </wgt>
<wgt id='morphing_basis_vector_3'> +1.2998387e-04 </wgt>
<wgt id='morphing_basis_vector_4'> +2.8809935e-05 </wgt>
<wgt id='morphing_basis_vector_5'> +2.3517398e-05 </wgt>
</rwgt>
</event>
<event>
 4      1 +3.1894900e-05 3.72080900e+02 7.81860800e-03 9.74267300e-02
        2 -1    0    0  501    0 +0.0000000000e+00 +0.0000000000e+00 +1.0744620837e+03 1.0744620837e+03 0.0000000000e+00 0.0000e+00 1.0000e+00
       -2 -1    0    0    0  501 -0.0000000000e+00 -0.0000000000e+00 -3.2212434790e+01 3.2212434790e+01 0.0000000000e+00 0.0000e+00 -1.0000e+00
      -13  1    1    2    0    0 -5.0581043667e+01 +1.7641799233e+02 +4.3045595951e+02 4.6794666691e+02 0.0000000000e+00 0.0000e+00 -1.0000e+00
       13  1    1    2    0    0 +5.0581043667e+01 -1.7641799233e+02 +6.1179368944e+02 6.3872785161e+02 0.0000000000e+00 0.0000e+00 1.0000e+00
<mgrwt>
<rscale>  0 0.37208085E+03</rscale>
<asrwt>0</asrwt>
<pdfrwt beam="1">  1        2 0.16530183E+00 0.37208085E+03</pdfrwt>
<pdfrwt beam="2">  1       -2 0.49557600E-02 0.37208085E+03</pdfrwt>
<totfact> 0.50177854E+03</totfact>
</mgrwt>
<rwgt>
<wgt id='morphing_basis_vector_1'> +2.1302308e-04 </wgt>
<wgt id='morphing_basis_vector_2'> +1.2311558e-04 </wgt>
<wgt id='morphing_basis_vector_3'> +1.2637422e-04 </wgt>
<wgt id='morphing_basis_vector_4'> +2.5964563e-05 </wgt>
<wgt id='morphing_basis_vector_5'> +1.9624371e-05 </wgt>
</rwgt>
</event>
<event>
 4      1 +3.1894900e-05 4.20852300e+02 7.81860800e-03 9.59678900e-02
        2 -1    0    0  501    0 +0.0000000000e+00 +0.0000000000e+00 +2.4414109031e+02 2.4414109031e+02 0.0000000000e+00 0.0000e+00 -1.0000e+00
       -2 -1    0    0    0  501 -0.0000000000e+00 -0.0000000000e+00 -1.8136712679e+02 1.8136712679e+02 0.0000000000e+00 0.0000e+00 1.0000e+00
      -13  1    1    2    0    0 +8.0240279040e+01 -4.6136723223e+01 -1.5968003908e+02 1.8456655843e+02 0.0000000000e+00 0.0000e+00 1.0000e+00
       13  1    1    2    0    0 -8.0240279040e+01 +4.6136723223e+01 +2.2245400260e+02 2.4094165867e+02 0.0000000000e+00 0.0000e+00 -1.0000e+00
<mgrwt>
<rscale>  0 0.42085232E+03</rscale>
<asrwt>0</asrwt>
<pdfrwt beam="1">  1        2 0.37560168E-01 0.42085232E+03</pdfrwt>
<pdfrwt beam="2">  1       -2 0.27902635E-01 0.42085232E+03</pdfrwt>
<totfact> 0.18654069E+03</totfact>
</mgrwt>
<rwgt>
<wgt id='morphing_basis_vector_1'> +2.8931892e-04 </wgt>
<wgt id='morphing_basis_vector_2'> +1.5566469e-04 </wgt>
<wgt id='morphing_basis_vector_3'> +1.9012495e-04 </wgt>
<wgt id='morphing_basis_vector_4'> +4.6765733e-05 </wgt>
<wgt id='morphing_basis_vector_5'> +5.2983165e-05 </wgt>
</rwgt>
</event>
<event>
 4      1 +3.1894900e-05 3.61562800e+02 7.81860800e-03 9.77729100e-02
        2 -1    0    0  501    0 +0.0000000000e+00 +0.0000000000e+00 +6.2641560985e+02 6.2641560985e+02 0.0000000000e+00 0.0000e+00 -1.0000e+00
       -2 -1    0    0    0  501 -0.0000000000e+00 -0.0000000000e+00 -5.2172880135e+01 5.2172880135e+01 0.0000000000e+00 0.0000e+00 1.0000e+00
      -13  1    1    2    0    0 +4.5303578002e+00 +1.6137557535e+02 +1.3442488235e+02 2.1007772242e+02 0.0000000000e+00 0.0000e+00 1.0000e+00
       13  1    1    2    0    0 -4.5303578002e+00 -1.6137557535e+02 +4.3981784736e+02 4.6851076756e+02 0.0000000000e+00 0.0000e+00 -1.0000e+00
<mgrwt>
<rscale>  0 0.36156276E+03</rscale>
<asrwt>0</asrwt>
<pdfrwt beam="1">  1        2 0.96371627E-01 0.36156276E+03</pdfrwt>
<pdfrwt beam="2">  1       -2 0.80265974E-02 0.36156276E+03</pdfrwt>
<totfact> 0.48024973E+03</totfact>
</mgrwt>
<rwgt>
<wgt id='morphing_basis_vector_1'> +1.9610540e-04 </wgt>
<wgt id='morphing_basis_vector_2'> +1.0789674e-04 </wgt>
<wgt id='morphing_basis_vector_3'> +1.1886427e-04 </wgt>
<wgt id='morphing_basis_vector_4'> +2.2446856e-05 </wgt>
<wgt id='morphing_basis_vector_5'> +1.4731461e-05 </wgt>
</rwgt>
</event>
<event>
 4      1 +3.1894900e-05 3.72399200e+02 7.81860800e-03 9.74164500e-02
        2 -1    0    0  501    0 +0.0000000000e+00 +0.0000000000e+00 +1.3292398701e+03 1.3292398701e+03 0.0000000000e+00 0.0000e+00 -1.0000e+00
       -2 -1    0    0    0  501 -0.0000000000e+00 -0.0000000000e+00 -2.6082798206e+01 2.6082798206e+01 0.0000000000e+00 0.0000e+00 1.0000e+00
      -13  1    1    2    0    0 -1.6287706356e+02 +4.4263305158e+01 +3.6542273389e+02 4.0251950569e+02 0.0000000000e+00 0.0000e+00 1.0000e+00
       13  1    1    2    0    0 +1.6287706356e+02 -4.4263305158e+01 +9.3773433805e+02 9.5280316266e+02 0.0000000000e+00 0.0000e+00 -1.0000e+00
<mgrwt>
<rscale>  0 0.37239922E+03</rscale>
<asrwt>0</asrwt>
<pdfrwt beam="1">  1        2 0.20449839E+00 0.37239922E+03</pdfrwt>
<pdfrwt beam="2">  1       -2 0.40127392E-02 0.37239922E+03</pdfrwt>
<totfact> 0.49412102E+03</totfact>
</mgrwt>
<rwgt>
<wgt id='morphing_basis_vector_1'> +2.1115498e-04 </wgt>
<wgt id='morphing_basis_vector_2'> +1.1634819e-04 </wgt>
<wgt id='morphing_basis_vector_3'> +1.2925710e-04 </wgt>
<wgt id='morphing_basis_vector_4'> +2.5593809e-05 </wgt>
<wgt id='morphing_basis_vector_5'> +1.9627322e-05 </wgt>
</rwgt>
</event>
<event>
 4      1 +3.1894900e-05 3.64981500e+02 7.81860800e-03 9.76590200e-02
        2 -1    0    0  501    0 +0.0000000000e+00 +0.0000000000e+00 +4.4184610545e+02 4.4184610545e+02 0.0000000000e+00 0.0000e+00 1.0000e+00
       -2 -1    0    0    0  501 -0.0000000000e+00 -0.0000000000e+00 -7.5372114648e+01 7.5372114648e+01 0.0000000000e+00 0.0000e+00 -1.0000e+00
      -13  1    1    2    0    0 -1.0397887043e+02 +1.4995677342e+02 +1.8032039413e+02 2.5654255774e+02 0.0000000000e+00 0.0000e+00 -1.0000e+00
       13  1    1    2    0    0 +1.0397887043e+02 -1.4995677342e+02 +1.8615359667e+02 2.6067566235e+02 0.0000000000e+00 0.0000e+00 1.0000e+00
<mgrwt>
<rscale>  0 0.36498151E+03</rscale>
<asrwt>0</asrwt>
<pdfrwt beam="1">  1        2 0.67976322E-01 0.36498151E+03</pdfrwt>
<pdfrwt beam="2">  1       -2 0.11595710E-01 0.36498151E+03</pdfrwt>
<totfact> 0.40309293E+03</totfact>
</mgrwt>
<rwgt>
<wgt id='morphing_basis_vector_1'> +2.0560254e-04 </wgt>
<wgt id='morphing_basis_vector_2'> +1.2511642e-04 </wgt>
<wgt id='morphing_basis_vector_3'> +1.1649421e-04 </wgt>
<wgt id='morphing_basis_vector_4'> +2.4538993e-05 </wgt>
<wgt id='morphing_basis_vector_5'> +1.6501876e-05 </wgt>
</rwgt>
</event>
<event>
 4      1 +3.1894900e-05 3.70402400e+02 7.81860800e-03 9.74811400e-02
        2 -1    0    0  501    0 +0.0000000000e+00 +0.0000000000e+00 +6.2840102178e+02 6.2840102178e+02 0.0000000000e+00 0.0000e+00 1.0000e+00
       -2 -1    0    0    0  501 -0.0000000000e+00 -0.0000000000e+00 -5.4582152768e+01 5.4582152768e+01 0.0000000000e+00 0.0000e+00 -1.0000e+00
      -13  1    1    2    0    0 +8.8092965893e+01 +1.0451204342e+02 +5.6486393844e+01 1.4789810867e+02 0.0000000000e+00 0.0000e+00 -1.0000e+00
       13  1    1    2    0    0 -8.8092965893e+01 -1.0451204342e+02 +5.1733247517e+02 5.3508506587e+02 0.0000000000e+00 0.0000e+00 1.0000e+00
<mgrwt>
<rscale>  0 0.37040238E+03</rscale>
<asrwt>0</asrwt>
<pdfrwt beam="1">  1        2 0.96677075E-01 0.37040238E+03</pdfrwt>
<pdfrwt beam="2">  1       -2 0.83972547E-02 0.37040238E+03</pdfrwt>
<totfact> 0.44675227E+03</totfact>
</mgrwt>
<rwgt>
<wgt id='morphing_basis_vector_1'> +2.0746400e-04 </wgt>
<wgt id='morphing_basis_vector_2'> +1.1219736e-04 </wgt>
<wgt id='morphing_basis_vector_3'> +1.2820946e-04 </wgt>
<wgt id='morphing_basis_vector_4'> +2.4797683e-05 </wgt>
<wgt id='morphing_basis_vector_5'> +1.8605894e-05 </wgt>
</rwgt>
</event>
<event>
 4      1 +3.1894900e-05 3.89482400e+02 7.81860800e-03 9.68801500e-02
        2 -1    0    0  501    0 +0.0000000000e+00 +0.0000000000e+00 +5.7279971799e+02 5.7279971799e+02 0.0000000000e+00 0.0000e+00 1.0000e+00
       -2 -1    0    0    0  501 -0.0000000000e+00 -0.0000000000e+00 -6.6208368503e+01 6.6208368503e+01 0.0000000000e+00 0.0000e+00 -1.0000e+00
      -13  1    1    2    0    0 +1.1046788869e+02 -1.1984361168e+02 +7.8440374730e+01 1.8088266385e+02 0.0000000000e+00 0.0000e+00 -1.0000e+00
       13  1    1    2    0    0 -1.1046788869e+02 +1.1984361168e+02 +4.2815097475e+02 4.5812542265e+02 0.0000000000e+00 0.0000e+00 1.0000e+00
<mgrwt>
<rscale>  0 0.38948240E+03</rscale>
<asrwt>0</asrwt>
<pdfrwt beam="1">  1        2 0.88123030E-01 0.38948240E+03</pdfrwt>
<pdfrwt beam="2">  1       -2 0.10185903E-01 0.38948240E+03</pdfrwt>
<totfact> 0.36923020E+03</totfact>
</mgrwt>
<rwgt>
<wgt id='morphing_basis_vector_1'> +2.3611891e-04 </wgt>
<wgt id='morphing_basis_vector_2'> +1.2844796e-04 </wgt>
<wgt id='morphing_basis_vector_3'> +1.4845371e-04 </wgt>
<wgt id='morphing_basis_vector_4'> +3.1544537e-05 </wgt>
<wgt id='morphing_basis_vector_5'> +2.9090026e-05 </wgt>
</rwgt>
</event>
<event>
 4      1 +3.1894900e-05 4.08104800e+02 7.81860800e-03 9.63280500e-02
        2 -1    0    0  501    0 +0.0000000000e+00 +0.0000000000e+00 +4.5702217572e+02 4.5702217572e+02 0.0000000000e+00 0.0000e+00 1.0000e+00
       -2 -1    0    0    0  501 -0.0000000000e+00 -0.0000000000e+00 -9.1105836034e+01 9.1105836034e+01 0.0000000000e+00 0.0000e+00 -1.0000e+00
      -13  1    1    2    0    0 +1.5878717486e+02 +1.7463859975e+01 +1.2436423104e+01 1.6022801854e+02 0.0000000000e+00 0.0000e+00 -1.0000e+00
       13  1    1    2    0    0 -1.5878717486e+02 -1.7463859975e+01 +3.5347991659e+02 3.8789999322e+02 0.0000000000e+00 0.0000e+00 1.0000e+00
<mgrwt>
<rscale>  0 0.40810483E+03</rscale>
<asrwt>0</asrwt>
<pdfrwt beam="1">  1        2 0.70311103E-01 0.40810483E+03</pdfrwt>
<pdfrwt beam="2">  1       -2 0.14016283E-01 0.40810483E+03</pdfrwt>
<totfact> 0.28862185E+03</totfact>
</mgrwt>
<rwgt>
<wgt id='morphing_basis_vector_1'> +2.6672720e-04 </wgt>
<wgt id='morphing_basis_vector_2'> +1.4449855e-04 </wgt>
<wgt id='morphing_basis_vector_3'> +1.7190783e-04 </wgt>
<wgt id='morphing_basis_vector_4'> +3.9874354e-05 </wgt>
<wgt id='morphing_basis_vector_5'> +4.2196408e-05 </wgt>
</rwgt>
</event>
<event>
 4      1 +3.1894900e-05 3.94098400e+02 7.81860800e-03 9.67402700e-02
        2 -1    0    0  501    0 +0.0000000000e+00 +0.0000000000e+00 +1.6600783109e+02 1.6600783109e+02 0.0000000000e+00 0.0000e+00 1.0000e+00
       -2 -1    0    0    0  501 -0.0000000000e+00 -0.0000000000e+00 -2.3389487688e+02 2.3389487688e+02 0.0000000000e+00 0.0000e+00 -1.0000e+00
      -13  1    1    2    0    0 -1.4154338343e+02 +8.8094259610e+01 -1.4052985080e+02 2.1804533229e+02 0.0000000000e+00 0.0000e+00 -1.0000e+00
       13  1    1    2    0    0 +1.4154338343e+02 -8.8094259610e+01 +7.2642805004e+01 1.8185737567e+02 0.0000000000e+00 0.0000e+00 1.0000e+00
<mgrwt>
<rscale>  0 0.39409837E+03</rscale>
<asrwt>0</asrwt>
<pdfrwt beam="1">  1        2 0.25539666E-01 0.39409837E+03</pdfrwt>
<pdfrwt beam="2">  1       -2 0.35983827E-01 0.39409837E+03</pdfrwt>
<totfact> 0.18489678E+03</totfact>
</mgrwt>
<rwgt>
<wgt id='morphing_basis_vector_1'> +2.4352560e-04 </wgt>
<wgt id='morphing_basis_vector_2'> +1.3262675e-04 </wgt>
<wgt id='morphing_basis_vector_3'> +1.5385134e-04 </wgt>
<wgt id='morphing_basis_vector_4'> +3.3440625e-05 </wgt>
<wgt id='morphing_basis_vector_5'> +3.2065673e-05 </wgt>
</rwgt>
</event>
<event>
 4      1 +3.1894900e-05 4.03111900e+02 7.81860800e-03 9.64729400e-02
        2 -1    0    0  501    0 +0.0000000000e+00 +0.0000000000e+00 +6.2426379520e+01 6.2426379520e+01 0.0000000000e+00 0.0000e+00 1.0000e+00
       -2 -1    0    0    0  501 -0.0000000000e+00 -0.0000000000e+00 -6.5076333992e+02 6.5076333992e+02 0.0000000000e+00 0.0000e+00 -1.0000e+00
      -13  1    1    2    0    0 +8.1544993334e+01 +7.5277834614e+01 +3.5032513502e+00 1.1103427891e+02 0.0000000000e+00 0.0000e+00 1.0000e+00
       13  1    1    2    0    0 -8.1544993334e+01 -7.5277834614e+01 -5.9184021175e+02 6.0215544053e+02 0.0000000000e+00 0.0000e+00 -1.0000e+00
<mgrwt>
<rscale>  0 0.40311189E+03</rscale>
<asrwt>0</asrwt>
<pdfrwt beam="1">  1        2 0.96040586E-02 0.40311189E+03</pdfrwt>
<pdfrwt beam="2">  1       -2 0.10011743E+00 0.40311189E+03</pdfrwt>
<totfact> 0.74434378E+02</totfact>
</mgrwt>
<rwgt>
<wgt id='morphing_basis_vector_1'> +3.4227829e-04 </wgt>
<wgt id='morphing_basis_vector_2'> +3.9723099e-04 </wgt>
<wgt id='morphing_basis_vector_3'> +8.7261545e-05 </wgt>
<wgt id='morphing_basis_vector_4'> +4.1489924e-05 </wgt>
<wgt id='morphing_basis_vector_5'> +4.3844455e-05 </wgt>
</rwgt>
</event>
<event>
 4      1 +3.1894900e-05 3.91823900e+02 7.81860800e-03 9.68089400e-02
        2 -1    0    0  501    0 +0.0000000000e+00 +0.0000000000e+00 +3.1788557804e+02 3.1788557804e+02 0.0000000000e+00 0.0000e+00 1.0000e+00
       -2 -1    0    0    0  501 -0.0000000000e+00 -0.0000000000e+00 -1.2073995164e+02 1.2073995164e+02 0.0000000000e+00 0.0000e+00 -1.0000e+00
      -13  1    1    2    0    0 -1.4658251804e+02 -9.9437595710e+01 +4.8649892709e+00 1.7719463355e+02 0.0000000000e+00 0.0000e+00 -1.0000e+00
       13  1    1    2    0    0 +1.4658251804e+02 +9.9437595710e+01 +1.9228063713e+02 2.6143089613e+02 0.0000000000e+00 0.0000e+00 1.0000e+00
<mgrwt>
<rscale>  0 0.39182389E+03</rscale>
<asrwt>0</asrwt>
<pdfrwt beam="1">  1        2 0.48905473E-01 0.39182389E+03</pdfrwt>
<pdfrwt beam="2">  1       -2 0.18575377E-01 0.39182389E+03</pdfrwt>
<totfact> 0.27423330E+03</totfact>
</mgrwt>
<rwgt>
<wgt id='morphing_basis_vector_1'> +2.4042300e-04 </wgt>
<wgt id='morphing_basis_vector_2'> +1.3229483e-04 </wgt>
<wgt id='morphing_basis_vector_3'> +1.5060041e-04 </wgt>
<wgt id='morphing_basis_vector_4'> +3.2552205e-05 </wgt>
<wgt id='morphing_basis_vector_5'> +3.0614723e-05 </wgt>
</rwgt>
</event>
<event>
 4      1 +3.1894900e-05 3.72161800e+02 7.81860800e-03 9.74241200e-02
        2 -1    0    0  501    0 +0.0000000000e+00 +0.0000000000e+00 +1.2590966922e+02 1.2590966922e+02 0.0000000000e+00 0.0000e+00 -1.0000e+00
       -2 -1    0    0    0  501 -0.0000000000e+00 -0.0000000000e+00 -2.7500742111e+02 2.7500742111e+02 0.0000000000e+00 0.0000e+00 1.0000e+00
      -13  1    1    2    0    0 +1.5312794831e+02 -9.1043342007e+01 -1.3245162837e+02 2.2199210016e+02 0.0000000000e+00 0.0000e+00 1.0000e+00
       13  1    1    2    0    0 -1.5312794831e+02 +9.1043342007e+01 -1.6646123522e+01 1.7892499016e+02 0.0000000000e+00 0.0000e+00 -1.0000e+00
<mgrwt>
<rscale>  0 0.37216176E+03</rscale>
<asrwt>0</asrwt>
<pdfrwt beam="1">  1        2 0.19370718E-01 0.37216176E+03</pdfrwt>
<pdfrwt beam="2">  1       -2 0.42308834E-01 0.37216176E+03</pdfrwt>
<totfact> 0.18994855E+03</totfact>
</mgrwt>
<rwgt>
<wgt id='morphing_basis_vector_1'> +2.1175752e-04 </wgt>
<wgt id='morphing_basis_vector_2'> +1.1900615e-04 </wgt>
<wgt id='morphing_basis_vector_3'> +1.2797946e-04 </wgt>
<wgt id='morphing_basis_vector_4'> +2.5709849e-05 </wgt>
<wgt id='morphing_basis_vector_5'> +1.9572990e-05 </wgt>
</rwgt>
</event>
<event>
 4      1 +3.1894900e-05 4.05398900e+02 7.81860800e-03 9.64063000e-02
        2 -1    0    0  501    0 +0.0000000000e+00 +0.0000000000e+00 +3.3227048356e+02 3.3227048356e+02 0.0000000000e+00 0.0000e+00 -1.0000e+00
       -2 -1    0    0    0  501 -0.0000000000e+00 -0.0000000000e+00 -1.2365545787e+02 1.2365545787e+02 0.0000000000e+00 0.0000e+00 1.0000e+00
      -13  1    1    2    0    0 +1.2349438702e+02 -5.1288389739e+01 -6.7012888321e+01 1.4957302480e+02 0.0000000000e+00 0.0000e+00 1.0000e+00
       13  1    1    2    0    0 -1.2349438702e+02 +5.1288389739e+01 +2.7562791400e+02 3.0635291663e+02 0.0000000000e+00 0.0000e+00 -1.0000e+00
<mgrwt>
<rscale>  0 0.40539886E+03</rscale>
<asrwt>0</asrwt>
<pdfrwt beam="1">  1        2 0.51118536E-01 0.40539886E+03</pdfrwt>
<pdfrwt beam="2">  1       -2 0.19023917E-01 0.40539886E+03</pdfrwt>
<totfact> 0.25131062E+03</totfact>
</mgrwt>
<rwgt>
<wgt id='morphing_basis_vector_1'> +2.6172867e-04 </wgt>
<wgt id='morphing_basis_vector_2'> +1.4098955e-04 </wgt>
<wgt id='morphing_basis_vector_3'> +1.6861574e-04 </wgt>
<wgt id='morphing_basis_vector_4'> +3.8528450e-05 </wgt>
<wgt id='morphing_basis_vector_5'> +4.0078005e-05 </wgt>
</rwgt>
</event>
<event>
 4      1 +3.1894900e-05 4.10005600e+02 7.81860800e-03 9.62734700e-02
        2 -1    0    0  501    0 +0.0000000000e+00 +0.0000000000e+00 +8.0765953229e+01 8.0765953229e+01 0.0000000000e+00 0.0000e+00 1.0000e+00
       -2 -1    0    0    0  501 -0.0000000000e+00 -0.0000000000e+00 -5.2034475809e+02 5.2034475809e+02 0.0000000000e+00 0.0000e+00 -1.0000e+00
      -13  1    1    2    0    0 -7.1016105511e+01 +1.0436120980e+02 +1.7028755708e+01 1.2737553876e+02 0.0000000000e+00 0.0000e+00 1.0000e+00
       13  1    1    2    0    0 +7.1016105511e+01 -1.0436120980e+02 -4.5660756056e+02 4.7373517256e+02 0.0000000000e+00 0.0000e+00 -1.0000e+00
<mgrwt>
<rscale>  0 0.41000556E+03</rscale>
<asrwt>0</asrwt>
<pdfrwt beam="1">  1        2 0.12425532E-01 0.41000556E+03</pdfrwt>
<pdfrwt beam="2">  1       -2 0.80053037E-01 0.41000556E+03</pdfrwt>
<totfact> 0.90104575E+02</totfact>
</mgrwt>
<rwgt>
<wgt id='morphing_basis_vector_1'> +3.5343172e-04 </wgt>
<wgt id='morphing_basis_vector_2'> +4.0188537e-04 </wgt>
<wgt id='morphing_basis_vector_3'> +1.0031554e-04 </wgt>
<wgt id='morphing_basis_vector_4'> +4.2009624e-05 </wgt>
<wgt id='morphing_basis_vector_5'> +4.9055096e-05 </wgt>
</rwgt>
</event>
<event>
 4      1 +3.1894900e-05 3.78012600e+02 7.81860800e-03 9.72368800e-02
        2 -1    0    0  501    0 +0.0000000000e+00 +0.0000000000e+00 +4.8790928161e+02 4.8790928161e+02 0.0000000000e+00 0.0000e+00 1.0000e+00
       -2 -1    0    0    0  501 -0.0000000000e+00 -0.0000000000e+00 -7.3217250117e+01 7.3217250117e+01 0.0000000000e+00 0.0000e+00 -1.0000e+00
      -13  1    1    2    0    0 -1.7247944881e+02 +1.9840137742e+01 +9.6455498603e+01 1.9861131523e+02 0.0000000000e+00 0.0000e+00 -1.0000e+00
       13  1    1    2    0    0 +1.7247944881e+02 -1.9840137742e+01 +3.1823653289e+02 3.6251521649e+02 0.0000000000e+00 0.0000e+00 1.0000e+00
<mgrwt>
<rscale>  0 0.37801257E+03</rscale>
<asrwt>0</asrwt>
<pdfrwt beam="1">  1        2 0.75062964E-01 0.37801257E+03</pdfrwt>
<pdfrwt beam="2">  1       -2 0.11264193E-01 0.37801257E+03</pdfrwt>
<totfact> 0.37808955E+03</totfact>
</mgrwt>
<rwgt>
<wgt id='morphing_basis_vector_1'> +2.1943870e-04 </wgt>
<wgt id='morphing_basis_vector_2'> +1.2125953e-04 </wgt>
<wgt id='morphing_basis_vector_3'> +1.3491519e-04 </wgt>
<wgt id='morphing_basis_vector_4'> +2.7445037e-05 </wgt>
<wgt id='morphing_basis_vector_5'> +2.2509293e-05 </wgt>
</rwgt>
</event>
<event>
 4      1 +3.1894900e-05 3.92126500e+02 7.81860800e-03 9.67997700e-02
        2 -1    0    0  501    0 +0.0000000000e+00 +0.0000000000e+00 +6.7256103620e+01 6.7256103620e+01 0.0000000000e+00 0.0000e+00 1.0000e+00
       -2 -1    0    0    0  501 -0.0000000000e+00 -0.0000000000e+00 -5.7155852126e+02 5.7155852126e+02 0.0000000000e+00 0.0000e+00 -1.0000e+00
      -13  1    1    2    0    0 -1.6151212695e+01 -1.9521256656e+02 -2.6597377609e+02 3.3031932638e+02 0.0000000000e+00 0.0000e+00 1.0000e+00
       13  1    1    2    0    0 +1.6151212695e+01 +1.9521256656e+02 -2.3832864155e+02 3.0849529850e+02 0.0000000000e+00 0.0000e+00 -1.0000e+00
<mgrwt>
<rscale>  0 0.39212651E+03</rscale>
<asrwt>0</asrwt>
<pdfrwt beam="1">  1        2 0.10347093E-01 0.39212651E+03</pdfrwt>
<pdfrwt beam="2">  1       -2 0.87932082E-01 0.39212651E+03</pdfrwt>
<totfact> 0.91617767E+02</totfact>
</mgrwt>
<rwgt>
<wgt id='morphing_basis_vector_1'> +2.4597822e-04 </wgt>
<wgt id='morphing_basis_vector_2'> +1.4801937e-04 </wgt>
<wgt id='morphing_basis_vector_3'> +1.4593632e-04 </wgt>
<wgt id='morphing_basis_vector_4'> +3.3195978e-05 </wgt>
<wgt id='morphing_basis_vector_5'> +3.1144336e-05 </wgt>
</rwgt>
</event>
<event>
 4      1 +3.1894900e-05 3.94257200e+02 7.81860800e-03 9.67355000e-02
        2 -1    0    0  501    0 +0.0000000000e+00 +0.0000000000e+00 +1.0038452140e+03 1.0038452140e+03 0.0000000000e+00 0.0000e+00 -1.0000e+00
       -2 -1    0    0    0  501 -0.0000000000e+00 -0.0000000000e+00 -3.8710824786e+01 3.8710824786e+01 0.0000000000e+00 0.0000e+00 1.0000e+00
      -13  1    1    2    0    0 +6.1105865449e+01 -1.6394555932e+02 +2.4241658288e+02 2.9896132336e+02 0.0000000000e+00 0.0000e+00 1.0000e+00
       13  1    1    2    0    0 -6.1105865449e+01 +1.6394555932e+02 +7.2271780634e+02 7.4359471543e+02 0.0000000000e+00 0.0000e+00 -1.0000e+00
<mgrwt>
<rscale>  0 0.39425716E+03</rscale>
<asrwt>0</asrwt>
<pdfrwt beam="1">  1        2 0.15443771E+00 0.39425716E+03</pdfrwt>
<pdfrwt beam="2">  1       -2 0.59555123E-02 0.39425716E+03</pdfrwt>
<totfact> 0.41930750E+03</totfact>
</mgrwt>
<rwgt>
<wgt id='morphing_basis_vector_1'> +2.4413629e-04 </wgt>
<wgt id='morphing_basis_vector_2'> +1.3384751e-04 </wgt>
<wgt id='morphing_basis_vector_3'> +1.5369579e-04 </wgt>
<wgt id='morphing_basis_vector_4'> +3.3540220e-05 </wgt>
<wgt id='morphing_basis_vector_5'> +3.2194417e-05 </wgt>
</rwgt>
</event>
<event>
 4      1 +3.1894900e-05 4.18142000e+02 7.81860800e-03 9.60433200e-02
        2 -1    0    0  501    0 +0.0000000000e+00 +0.0000000000e+00 +1.6134536566e+03 1.6134536566e+03 0.0000000000e+00 0.0000e+00 -1.0000e+00
       -2 -1    0    0    0  501 -0.0000000000e+00 -0.0000000000e+00 -2.7091373879e+01 2.7091373879e+01 0.0000000000e+00 0.0000e+00 1.0000e+00
      -13  1    1    2    0    0 -1.9893963731e+02 -1.4561842719e+01 +5.4748473990e+02 5.8269079877e+02 0.0000000000e+00 0.0000e+00 1.0000e+00
       13  1    1    2    0    0 +1.9893963731e+02 +1.4561842719e+01 +1.0388775428e+03 1.0578542317e+03 0.0000000000e+00 0.0000e+00 -1.0000e+00
<mgrwt>
<rscale>  0 0.41814197E+03</rscale>
<asrwt>0</asrwt>
<pdfrwt beam="1">  1        2 0.24822356E+00 0.41814197E+03</pdfrwt>
<pdfrwt beam="2">  1       -2 0.41679049E-02 0.41814197E+03</pdfrwt>
<totfact> 0.32758493E+03</totfact>
</mgrwt>
<rwgt>
<wgt id='morphing_basis_vector_1'> +2.8704263e-04 </wgt>
<wgt id='morphing_basis_vector_2'> +1.6139809e-04 </wgt>
<wgt id='morphing_basis_vector_3'> +1.8387103e-04 </wgt>
<wgt id='morphing_basis_vector_4'> +4.5143710e-05 </wgt>
<wgt id='morphing_basis_vector_5'> +5.0725142e-05 </wgt>
</rwgt>
</event>
<event>
 4      1 +3.1894900e-05 3.68211200e+02 7.81860800e-03 9.75526500e-02
        2 -1    0    0  501    0 +0.0000000000e+00 +0.0000000000e+00 +2.0373503973e+02 2.0373503973e+02 0.0000000000e+00 0.0000e+00 -1.0000e+00
       -2 -1    0    0    0  501 -0.0000000000e+00 -0.0000000000e+00 -1.6636738528e+02 1.6636738528e+02 0.0000000000e+00 0.0000e+00 1.0000e+00
      -13  1    1    2    0    0 +5.9691838015e+01 +6.4997722532e+01 -1.4372283685e+02 1.6865370821e+02 0.0000000000e+00 0.0000e+00 1.0000e+00
       13  1    1    2    0    0 -5.9691838015e+01 -6.4997722532e+01 +1.8109049131e+02 2.0144871680e+02 0.0000000000e+00 0.0000e+00 -1.0000e+00
<mgrwt>
<rscale>  0 0.36821117E+03</rscale>
<asrwt>0</asrwt>
<pdfrwt beam="1">  1        2 0.31343852E-01 0.36821117E+03</pdfrwt>
<pdfrwt beam="2">  1       -2 0.25594982E-01 0.36821117E+03</pdfrwt>
<totfact> 0.26446859E+03</totfact>
</mgrwt>
<rwgt>
<wgt id='morphing_basis_vector_1'> +2.0419186e-04 </wgt>
<wgt id='morphing_basis_vector_2'> +1.0990212e-04 </wgt>
<wgt id='morphing_basis_vector_3'> +1.2628752e-04 </wgt>
<wgt id='morphing_basis_vector_4'> +2.4088936e-05 </wgt>
<wgt id='morphing_basis_vector_5'> +1.7567491e-05 </wgt>
</rwgt>
</event>
<event>
 4      1 +3.1894900e-05 3.90534300e+02 7.81860800e-03 9.68480900e-02
        2 -1    0    0  501    0 +0.0000000000e+00 +0.0000000000e+00 +7.6413058831e+02 7.6413058831e+02 0.0000000000e+00 0.0000e+00 -1.0000e+00
       -2 -1    0    0    0  501 -0.0000000000e+00 -0.0000000000e+00 -4.9898875768e+01 4.9898875768e+01 0.0000000000e+00 0.0000e+00 1.0000e+00
      -13  1    1    2    0    0 +8.8853684262e+01 +1.4083555070e+02 +1.4455178820e+02 2.2051042837e+02 0.0000000000e+00 0.0000e+00 1.0000e+00
       13  1    1    2    0    0 -8.8853684262e+01 -1.4083555070e+02 +5.6967992434e+02 5.9351903570e+02 0.0000000000e+00 0.0000e+00 -1.0000e+00
<mgrwt>
<rscale>  0 0.39053429E+03</rscale>
<asrwt>0</asrwt>
<pdfrwt beam="1">  1        2 0.11755854E+00 0.39053429E+03</pdfrwt>
<pdfrwt beam="2">  1       -2 0.76767507E-02 0.39053429E+03</pdfrwt>
<totfact> 0.40647215E+03</totfact>
</mgrwt>
<rwgt>
<wgt id='morphing_basis_vector_1'> +2.3787835e-04 </wgt>
<wgt id='morphing_basis_vector_2'> +1.2966060e-04 </wgt>
<wgt id='morphing_basis_vector_3'> +1.4957781e-04 </wgt>
<wgt id='morphing_basis_vector_4'> +3.1976868e-05 </wgt>
<wgt id='morphing_basis_vector_5'> +2.9758253e-05 </wgt>
</rwgt>
</event>
<event>
 4      1 +3.1894900e-05 4.12092800e+02 7.81860800e-03 9.62138900e-02
        2 -1    0    0  501    0 +0.0000000000e+00 +0.0000000000e+00 +2.3070394144e+02 2.3070394144e+02 0.0000000000e+00 0.0000e+00 -1.0000e+00
       -2 -1    0    0    0  501 -0.0000000000e+00 -0.0000000000e+00 -1.8402422614e+02 1.8402422614e+02 0.0000000000e+00 0.0000e+00 1.0000e+00
      -13  1    1    2    0    0 +7.7145161957e+01 +1.8972758419e+02 +6.7513142710e-01 2.0481305627e+02 0.0000000000e+00 0.0000e+00 1.0000e+00
       13  1    1    2    0    0 -7.7145161957e+01 -1.8972758419e+02 +4.6004583872e+01 2.0991511130e+02 0.0000000000e+00 0.0000e+00 -1.0000e+00
<mgrwt>
<rscale>  0 0.41209278E+03</rscale>
<asrwt>0</asrwt>
<pdfrwt beam="1">  1        2 0.35492914E-01 0.41209278E+03</pdfrwt>
<pdfrwt beam="2">  1       -2 0.28311419E-01 0.41209278E+03</pdfrwt>
<totfact> 0.19383628E+03</totfact>
</mgrwt>
<rwgt>
<wgt id='morphing_basis_vector_1'> +2.7901362e-04 </wgt>
<wgt id='morphing_basis_vector_2'> +1.6443644e-04 </wgt>
<wgt id='morphing_basis_vector_3'> +1.7270472e-04 </wgt>
<wgt id='morphing_basis_vector_4'> +4.1939050e-05 </wgt>
<wgt id='morphing_basis_vector_5'> +4.5747604e-05 </wgt>
</rwgt>
</event>
<event>
 4      1 +3.1894900e-05 3.64514300e+02 7.81860800e-03 9.76745000e-02
        2 -1    0    0  501    0 +0.0000000000e+00 +0.0000000000e+00 +4.4703001607e+02 4.4703001607e+02 0.0000000000e+00 0.0000e+00 1.0000e+00
       -2 -1    0    0    0  501 -0.0000000000e+00 -0.0000000000e+00 -7.4307458749e+01 7.4307458749e+01 0.0000000000e+00 0.0000e+00 -1.0000e+00
      -13  1    1    2    0    0 -1.7785207791e+02 +5.6743779341e+00 +1.2997875876e+02 2.2035888435e+02 0.0000000000e+00 0.0000e+00 -1.0000e+00
       13  1    1    2    0    0 +1.7785207791e+02 -5.6743779341e+00 +2.4274379856e+02 3.0097859047e+02 0.0000000000e+00 0.0000e+00 1.0000e+00
<mgrwt>
<rscale>  0 0.36451428E+03</rscale>
<asrwt>0</asrwt>
<pdfrwt beam="1">  1        2 0.68773847E-01 0.36451428E+03</pdfrwt>
<pdfrwt beam="2">  1       -2 0.11431917E-01 0.36451428E+03</pdfrwt>
<totfact> 0.40684525E+03</totfact>
</mgrwt>
<rwgt>
<wgt id='morphing_basis_vector_1'> +2.0177903e-04 </wgt>
<wgt id='morphing_basis_vector_2'> +1.1517042e-04 </wgt>
<wgt id='morphing_basis_vector_3'> +1.1968785e-04 </wgt>
<wgt id='morphing_basis_vector_4'> +2.3655142e-05 </wgt>
<wgt id='morphing_basis_vector_5'> +1.6090746e-05 </wgt>
</rwgt>
</event>
<event>
 4      1 +3.1894900e-05 3.65121500e+02 7.81860800e-03 9.76543800e-02
        2 -1    0    0  501    0 +0.0000000000e+00 +0.0000000000e+00 +2.8858803723e+02 2.8858803723e+02 0.0000000000e+00 0.0000e+00 -1.0000e+00
       -2 -1    0    0    0  501 -0.0000000000e+00 -0.0000000000e+00 -1.1548791992e+02 1.1548791992e+02 0.0000000000e+00 0.0000e+00 1.0000e+00
      -13  1    1    2    0    0 +6.1049584736e+01 -4.9388860290e+01 -9.5842624039e+01 1.2390367186e+02 0.0000000000e+00 0.0000e+00 1.0000e+00
       13  1    1    2    0    0 -6.1049584736e+01 +4.9388860290e+01 +2.6894274136e+02 2.8017228529e+02 0.0000000000e+00 0.0000e+00 -1.0000e+00
<mgrwt>
<rscale>  0 0.36512153E+03</rscale>
<asrwt>0</asrwt>
<pdfrwt beam="1">  1        2 0.44398159E-01 0.36512153E+03</pdfrwt>
<pdfrwt beam="2">  1       -2 0.17767372E-01 0.36512153E+03</pdfrwt>
<totfact> 0.32750679E+03</totfact>
</mgrwt>
<rwgt>
<wgt id='morphing_basis_vector_1'> +1.9996218e-04 </wgt>
<wgt id='morphing_basis_vector_2'> +1.0766109e-04 </wgt>
<wgt id='morphing_basis_vector_3'> +1.2329045e-04 </wgt>
<wgt id='morphing_basis_vector_4'> +2.3192979e-05 </wgt>
<wgt id='morphing_basis_vector_5'> +1.6183012e-05 </wgt>
</rwgt>
</event>
<event>
 4      1 +3.1894900e-05 4.04023600e+02 7.81860800e-03 9.64463200e-02
        2 -1    0    0  501    0 +0.0000000000e+00 +0.0000000000e+00 +8.9125995081e+02 8.9125995081e+02 0.0000000000e+00 0.0000e+00 -1.0000e+00
       -2 -1    0    0    0  501 -0.0000000000e+00 -0.0000000000e+00 -4.5787723659e+01 4.5787723659e+01 0.0000000000e+00 0.0000e+00 1.0000e+00
      -13  1    1    2    0    0 +1.4699715162e+02 +1.3734987622e+02 +3.8024730811e+02 4.3018736198e+02 0.0000000000e+00 0.0000e+00 1.0000e+00
       13  1    1    2    0    0 -1.4699715162e+02 -1.3734987622e+02 +4.6522491903e+02 5.0686031248e+02 0.0000000000e+00 0.0000e+00 -1.0000e+00
<mgrwt>
<rscale>  0 0.40402359E+03</rscale>
<asrwt>0</asrwt>
<pdfrwt beam="1">  1        2 0.13711690E+00 0.40402359E+03</pdfrwt>
<pdfrwt beam="2">  1       -2 0.70442658E-02 0.40402359E+03</pdfrwt>
<totfact> 0.38160868E+03</totfact>
</mgrwt>
<rwgt>
<wgt id='morphing_basis_vector_1'> +2.6501398e-04 </wgt>
<wgt id='morphing_basis_vector_2'> +1.5696639e-04 </wgt>
<wgt id='morphing_basis_vector_3'> +1.6162111e-04 </wgt>
<wgt id='morphing_basis_vector_4'> +3.8109967e-05 </wgt>
<wgt id='morphing_basis_vector_5'> +3.9403132e-05 </wgt>
</rwgt>
</event>
<event>
 4      1 +3.1894900e-05 3.95700200e+02 7.81860800e-03 9.66922100e-02
        2 -1    0    0  501    0 +0.0000000000e+00 +0.0000000000e+00 +2.2993535682e+02 2.2993535682e+02 0.0000000000e+00 0.0000e+00 1.0000e+00
       -2 -1    0    0    0  501 -0.0000000000e+00 -0.0000000000e+00 -1.7024201871e+02 1.7024201871e+02 0.0000000000e+00 0.0000e+00 -1.0000e+00
      -13  1    1    2    0    0 -1.1351868606e+02 +1.5765931134e+02 +6.7709682384e+01 2.0573660740e+02 0.0000000000e+00 0.0000e+00 1.0000e+00
       13  1    1    2    0    0 +1.1351868606e+02 -1.5765931134e+02 -8.0163442782e+00 1.9444076813e+02 0.0000000000e+00 0.0000e+00 -1.0000e+00
<mgrwt>
<rscale>  0 0.39570019E+03</rscale>
<asrwt>0</asrwt>
<pdfrwt beam="1">  1        2 0.35374671E-01 0.39570019E+03</pdfrwt>
<pdfrwt beam="2">  1       -2 0.26191079E-01 0.39570019E+03</pdfrwt>
<totfact> 0.22219325E+03</totfact>
</mgrwt>
<rwgt>
<wgt id='morphing_basis_vector_1'> +2.6033135e-04 </wgt>
<wgt id='morphing_basis_vector_2'> +1.7740691e-04 </wgt>
<wgt id='morphing_basis_vector_3'> +1.4200650e-04 </wgt>
<wgt id='morphing_basis_vector_4'> +3.5327886e-05 </wgt>
<wgt id='morphing_basis_vector_5'> +3.4072318e-05 </wgt>
</rwgt>
</event>
<event>
 4      1 +3.1894900e-05 3.98255100e+02 7.81860800e-03 9.66160500e-02
        2 -1    0    0  501    0 +0.0000000000e+00 +0.0000000000e+00 +1.0112327883e+02 1.0112327883e+02 0.0000000000e+00 0.0000e+00 1.0000e+00
       -2 -1    0    0    0  501 -0.0000000000e+00 -0.0000000000e+00 -3.9211323578e+02 3.9211323578e+02 0.0000000000e+00 0.0000e+00 -1.0000e+00
      -13  1    1    2    0    0 -5.7242267678e+01 -1.2176966950e+02 -3.2729326752e+02 3.5387202854e+02 0.0000000000e+00 0.0000e+00 -1.0000e+00
       13  1    1    2    0    0 +5.7242267678e+01 +1.2176966950e+02 +3.6303310559e+01 1.3936448607e+02 0.0000000000e+00 0.0000e+00 1.0000e+00
<mgrwt>
<rscale>  0 0.39825507E+03</rscale>
<asrwt>0</asrwt>
<pdfrwt beam="1">  1        2 0.15557428E-01 0.39825507E+03</pdfrwt>
<pdfrwt beam="2">  1       -2 0.60325113E-01 0.39825507E+03</pdfrwt>
<totfact> 0.12439763E+03</totfact>
</mgrwt>
<rwgt>
<wgt id='morphing_basis_vector_1'> +2.4972465e-04 </wgt>
<wgt id='morphing_basis_vector_2'> +1.3453511e-04 </wgt>
<wgt id='morphing_basis_vector_3'> +1.5949245e-04 </wgt>
<wgt id='morphing_basis_vector_4'> +3.5196556e-05 </wgt>
<wgt id='morphing_basis_vector_5'> +3.4858741e-05 </wgt>
</rwgt>
</event>
<event>
 4      1 +3.1894900e-05 4.10119300e+02 7.81860800e-03 9.62702100e-02
        2 -1    0    0  501    0 +0.0000000000e+00 +0.0000000000e+00 +1.6836042982e+02 1.6836042982e+02 0.0000000000e+00 0.0000e+00 -1.0000e+00
       -2 -1    0    0    0  501 -0.0000000000e+00 -0.0000000000e+00 -2.4975853819e+02 2.4975853819e+02 0.0000000000e+00 0.0000e+00 1.0000e+00
      -13  1    1    2    0    0 -2.0434898475e+02 -1.0852474851e+01 -2.7282921428e+01 2.0644767275e+02 0.0000000000e+00 0.0000e+00 1.0000e+00
       13  1    1    2    0    0 +2.0434898475e+02 +1.0852474851e+01 -5.4115186944e+01 2.1167129526e+02 0.0000000000e+00 0.0000e+00 -1.0000e+00
<mgrwt>
<rscale>  0 0.41011927E+03</rscale>
<asrwt>0</asrwt>
<pdfrwt beam="1">  1        2 0.25901605E-01 0.41011927E+03</pdfrwt>
<pdfrwt beam="2">  1       -2 0.38424390E-01 0.41011927E+03</pdfrwt>
<totfact> 0.16162607E+03</totfact>
</mgrwt>
<rwgt>
<wgt id='morphing_basis_vector_1'> +2.8049359e-04 </wgt>
<wgt id='morphing_basis_vector_2'> +1.7779041e-04 </wgt>
<wgt id='morphing_basis_vector_3'> +1.6552488e-04 </wgt>
<wgt id='morphing_basis_vector_4'> +4.1033624e-05 </wgt>
<wgt id='morphing_basis_vector_5'> +4.4458123e-05 </wgt>
</rwgt>
</event>
<event>
 4      1 +3.1894900e-05 3.96650100e+02 7.81860800e-03 9.66638200e-02
        2 -1    0    0  501    0 +0.0000000000e+00 +0.0000000000e+00 +6.6701694566e+02 6.6701694566e+02 0.0000000000e+00 0.0000e+00 1.0000e+00
       -2 -1    0    0    0  501 -0.0000000000e+00 -0.0000000000e+00 -5.8968269287e+01 5.8968269287e+01 0.0000000000e+00 0.0000e+00 -1.0000e+00
      -13  1    1    2    0    0 +1.0670896564e+02 -1.8669090860e+01 -3.2657545224e-02 1.0832977139e+02 0.0000000000e+00 0.0000e+00 -1.0000e+00
       13  1    1    2    0    0 -1.0670896564e+02 +1.8669090860e+01 +6.0808133392e+02 6.1765544357e+02 0.0000000000e+00 0.0000e+00 1.0000e+00
<mgrwt>
<rscale>  0 0.39665015E+03</rscale>
<asrwt>0</asrwt>
<pdfrwt beam="1">  1        2 0.10261799E+00 0.39665015E+03</pdfrwt>
<pdfrwt beam="2">  1       -2 0.90720419E-02 0.39665015E+03</pdfrwt>
<totfact> 0.37044232E+03</totfact>
</mgrwt>
<rwgt>
<wgt id='morphing_basis_vector_1'> +2.4696275e-04 </wgt>
<wgt id='morphing_basis_vector_2'> +1.3272153e-04 </wgt>
<wgt id='morphing_basis_vector_3'> +1.5763562e-04 </wgt>
<wgt id='morphing_basis_vector_4'> +3.4476678e-05 </wgt>
<wgt id='morphing_basis_vector_5'> +3.3739657e-05 </wgt>
</rwgt>
</event>
<event>
 4      1 +3.1894900e-05 4.14673700e+02 7.81860800e-03 9.61407400e-02
        2 -1    0    0  501    0 +0.0000000000e+00 +0.0000000000e+00 +9.9281565044e+02 9.9281565044e+02 0.0000000000e+00 0.0000e+00 1.0000e+00
       -2 -1    0    0    0  501 -0.0000000000e+00 -0.0000000000e+00 -4.3299649467e+01 4.3299649467e+01 0.0000000000e+00 0.0000e+00 -1.0000e+00
      -13  1    1    2    0    0 -1.4290016323e+02 +1.4580748464e+02 +3.8438188423e+02 4.3523523772e+02 0.0000000000e+00 0.0000e+00 -1.0000e+00
       13  1    1    2    0    0 +1.4290016323e+02 -1.4580748464e+02 +5.6513411674e+02 6.0088006219e+02 0.0000000000e+00 0.0000e+00 1.0000e+00
<mgrwt>
<rscale>  0 0.41467370E+03</rscale>
<asrwt>0</asrwt>
<pdfrwt beam="1">  1        2 0.15274085E+00 0.41467370E+03</pdfrwt>
<pdfrwt beam="2">  1       -2 0.66614853E-02 0.41467370E+03</pdfrwt>
<totfact> 0.35938512E+03</totfact>
</mgrwt>
<rwgt>
<wgt id='morphing_basis_vector_1'> +2.8245514e-04 </wgt>
<wgt id='morphing_basis_vector_2'> +1.6330506e-04 </wgt>
<wgt id='morphing_basis_vector_3'> +1.7739559e-04 </wgt>
<wgt id='morphing_basis_vector_4'> +4.3257089e-05 </wgt>
<wgt id='morphing_basis_vector_5'> +4.7831353e-05 </wgt>
</rwgt>
</event>
<event>
 4      1 +3.1894900e-05 3.67334900e+02 7.81860800e-03 9.75813900e-02
        2 -1    0    0  501    0 +0.0000000000e+00 +0.0000000000e+00 +9.6871871364e+02 9.6871871364e+02 0.0000000000e+00 0.0000e+00 1.0000e+00
       -2 -1    0    0    0  501 -0.0000000000e+00 -0.0000000000e+00 -3.4823045027e+01 3.4823045027e+01 0.0000000000e+00 0.0000e+00 -1.0000e+00
      -13  1    1    2    0    0 +1.0166501958e+02 +1.4965318966e+02 +3.8047463570e+02 4.2129894587e+02 0.0000000000e+00 0.0000e+00 -1.0000e+00
       13  1    1    2    0    0 -1.0166501958e+02 -1.4965318966e+02 +5.5342103291e+02 5.8224281279e+02 0.0000000000e+00 0.0000e+00 1.0000e+00
<mgrwt>
<rscale>  0 0.36733492E+03</rscale>
<asrwt>0</asrwt>
<pdfrwt beam="1">  1        2 0.14903363E+00 0.36733492E+03</pdfrwt>
<pdfrwt beam="2">  1       -2 0.53573923E-02 0.36733492E+03</pdfrwt>
<totfact> 0.51610017E+03</totfact>
</mgrwt>
<rwgt>
<wgt id='morphing_basis_vector_1'> +2.0619007e-04 </wgt>
<wgt id='morphing_basis_vector_2'> +1.1892705e-04 </wgt>
<wgt id='morphing_basis_vector_3'> +1.2180853e-04 </wgt>
<wgt id='morphing_basis_vector_4'> +2.4555020e-05 </wgt>
<wgt id='morphing_basis_vector_5'> +1.7377672e-05 </wgt>
</rwgt>
</event>
<event>
 4      1 +3.1894900e-05 3.87215000e+02 7.81860800e-03 9.69496100e-02
        2 -1    0    0  501    0 +0.0000000000e+00 +0.0000000000e+00 +1.1728251402e+02 1.1728251402e+02 0.0000000000e+00 0.0000e+00 -1.0000e+00
       -2 -1    0    0    0  501 -0.0000000000e+00 -0.0000000000e+00 -3.1960322043e+02 3.1960322043e+02 0.0000000000e+00 0.0000e+00 1.0000e+00
      -13  1    1    2    0    0 -1.1066070797e+02 +9.6094626828e+01 +4.1574019433e+01 1.5234293120e+02 0.0000000000e+00 0.0000e+00 -1.0000e+00
       13  1    1    2    0    0 +1.1066070797e+02 -9.6094626828e+01 -2.4389472584e+02 2.8454280326e+02 0.0000000000e+00 0.0000e+00 1.0000e+00
<mgrwt>
<rscale>  0 0.38721503E+03</rscale>
<asrwt>0</asrwt>
<pdfrwt beam="1">  1        2 0.18043464E-01 0.38721503E+03</pdfrwt>
<pdfrwt beam="2">  1       -2 0.49169726E-01 0.38721503E+03</pdfrwt>
<totfact> 0.15570487E+03</totfact>
</mgrwt>
<rwgt>
<wgt id='morphing_basis_vector_1'> +2.8844679e-04 </wgt>
<wgt id='morphing_basis_vector_2'> +2.9648014e-04 </wgt>
<wgt id='morphing_basis_vector_3'> +8.8976203e-05 </wgt>
<wgt id='morphing_basis_vector_4'> +3.7753959e-05 </wgt>
<wgt id='morphing_basis_vector_5'> +3.1388874e-05 </wgt>
</rwgt>
</event>
<event>
 4      1 +3.1894900e-05 4.17908600e+02 7.81860800e-03 9.60498500e-02
        2 -1    0    0  501    0 +0.0000000000e+00 +0.0000000000e+00 +5.0542496970e+02 5.0542496970e+02 0.0000000000e+00 0.0000e+00 -1.0000e+00
       -2 -1    0    0    0  501 -0.0000000000e+00 -0.0000000000e+00 -8.6386514387e+01 8.6386514387e+01 0.0000000000e+00 0.0000e+00 1.0000e+00
      -13  1    1    2    0    0 -8.1899309837e+01 -1.2228636460e+02 -5.2843219351e-01 1.4717924840e+02 0.0000000000e+00 0.0000e+00 1.0000e+00
       13  1    1    2    0    0 +8.1899309837e+01 +1.2228636460e+02 +4.1956688751e+02 4.4463223569e+02 0.0000000000e+00 0.0000e+00 -1.0000e+00
<mgrwt>
<rscale>  0 0.41790861E+03</rscale>
<asrwt>0</asrwt>
<pdfrwt beam="1">  1        2 0.77757686E-01 0.41790861E+03</pdfrwt>
<pdfrwt beam="2">  1       -2 0.13290233E-01 0.41790861E+03</pdfrwt>
<totfact> 0.28072986E+03</totfact>
</mgrwt>
<rwgt>
<wgt id='morphing_basis_vector_1'> +2.8409987e-04 </wgt>
<wgt id='morphing_basis_vector_2'> +1.5344461e-04 </wgt>
<wgt id='morphing_basis_vector_3'> +1.8565652e-04 </wgt>
<wgt id='morphing_basis_vector_4'> +4.5077453e-05 </wgt>
<wgt id='morphing_basis_vector_5'> +5.0361364e-05 </wgt>
</rwgt>
</event>
<event>
 4      1 +3.1894900e-05 3.76438200e+02 7.81860800e-03 9.72869000e-02
        2 -1    0    0  501    0 +0.0000000000e+00 +0.0000000000e+00 +8.4039102749e+02 8.4039102749e+02 0.0000000000e+00 0.0000e+00 1.0000e+00
       -2 -1    0    0    0  501 -0.0000000000e+00 -0.0000000000e+00 -4.2154689374e+01 4.2154689374e+01 0.0000000000e+00 0.0000e+00 -1.0000e+00
      -13  1    1    2    0    0 +1.6805925951e+02 -4.2341292550e+01 +5.7123636553e+02 5.9694864525e+02 0.0000000000e+00 0.0000e+00 1.0000e+00
       13  1    1    2    0    0 -1.6805925951e+02 +4.2341292550e+01 +2.2699997258e+02 2.8559707161e+02 0.0000000000e+00 0.0000e+00 -1.0000e+00
<mgrwt>
<rscale>  0 0.37643816E+03</rscale>
<asrwt>0</asrwt>
<pdfrwt beam="1">  1        2 0.12929091E+00 0.37643816E+03</pdfrwt>
<pdfrwt beam="2">  1       -2 0.64853375E-02 0.37643816E+03</pdfrwt>
<totfact> 0.46629452E+03</totfact>
</mgrwt>
<rwgt>
<wgt id='morphing_basis_vector_1'> +2.4110983e-04 </wgt>
<wgt id='morphing_basis_vector_2'> +1.9261121e-04 </wgt>
<wgt id='morphing_basis_vector_3'> +1.0738914e-04 </wgt>
<wgt id='morphing_basis_vector_4'> +3.1253754e-05 </wgt>
<wgt id='morphing_basis_vector_5'> +2.3264026e-05 </wgt>
</rwgt>
</event>
<event>
 4      1 +3.1894900e-05 3.82203700e+02 7.81860800e-03 9.71049700e-02
        2 -1    0    0  501    0 +0.0000000000e+00 +0.0000000000e+00 +1.4530899867e+02 1.4530899867e+02 0.0000000000e+00 0.0000e+00 -1.0000e+00
       -2 -1    0    0    0  501 -0.0000000000e+00 -0.0000000000e+00 -2.5132588262e+02 2.5132588262e+02 0.0000000000e+00 0.0000e+00 1.0000e+00
      -13  1    1    2    0    0 +1.1760385047e+02 -4.8430654304e+01 +9.5008427224e+01 1.5875388236e+02 0.0000000000e+00 0.0000e+00 -1.0000e+00
       13  1    1    2    0    0 -1.1760385047e+02 +4.8430654304e+01 -2.0102531117e+02 2.3788099893e+02 0.0000000000e+00 0.0000e+00 1.0000e+00
<mgrwt>
<rscale>  0 0.38220368E+03</rscale>
<asrwt>0</asrwt>
<pdfrwt beam="1">  1        2 0.22355231E-01 0.38220368E+03</pdfrwt>
<pdfrwt beam="2">  1       -2 0.38665520E-01 0.38220368E+03</pdfrwt>
<totfact> 0.18943104E+03</totfact>
</mgrwt>
<rwgt>
<wgt id='morphing_basis_vector_1'> +2.8960234e-04 </wgt>
<wgt id='morphing_basis_vector_2'> +3.1873174e-04 </wgt>
<wgt id='morphing_basis_vector_3'> +7.2570455e-05 </wgt>
<wgt id='morphing_basis_vector_4'> +3.8617889e-05 </wgt>
<wgt id='morphing_basis_vector_5'> +2.9041633e-05 </wgt>
</rwgt>
</event>
<event>
 4      1 +3.1894900e-05 3.98117800e+02 7.81860800e-03 9.66201300e-02
        2 -1    0    0  501    0 +0.0000000000e+00 +0.0000000000e+00 +5.1968900550e+02 5.1968900550e+02 0.0000000000e+00 0.0000e+00 -1.0000e+00
       -2 -1    0    0    0  501 -0.0000000000e+00 -0.0000000000e+00 -7.6246476104e+01 7.6246476104e+01 0.0000000000e+00 0.0000e+00 1.0000e+00
      -13  1    1    2    0    0 -8.6946393655e+00 -1.7329275787e+02 +7.5681418975e+01 1.8929779149e+02 0.0000000000e+00 0.0000e+00 1.0000e+00
       13  1    1    2    0    0 +8.6946393655e+00 +1.7329275787e+02 +3.6776111042e+02 4.0663769012e+02 0.0000000000e+00 0.0000e+00 -1.0000e+00
<mgrwt>
<rscale>  0 0.39811785E+03</rscale>
<asrwt>0</asrwt>
<pdfrwt beam="1">  1        2 0.79952152E-01 0.39811785E+03</pdfrwt>
<pdfrwt beam="2">  1       -2 0.11730227E-01 0.39811785E+03</pdfrwt>
<totfact> 0.33098589E+03</totfact>
</mgrwt>
<rwgt>
<wgt id='morphing_basis_vector_1'> +2.5029362e-04 </wgt>
<wgt id='morphing_basis_vector_2'> +1.3684142e-04 </wgt>
<wgt id='morphing_basis_vector_3'> +1.5856178e-04 </wgt>
<wgt id='morphing_basis_vector_4'> +3.5193228e-05 </wgt>
<wgt id='morphing_basis_vector_5'> +3.4814956e-05 </wgt>
</rwgt>
</event>
<event>
 4      1 +3.1894900e-05 4.13727700e+02 7.81860800e-03 9.61674900e-02
        2 -1    0    0  501    0 +0.0000000000e+00 +0.0000000000e+00 +1.8452781042e+02 1.8452781042e+02 0.0000000000e+00 0.0000e+00 1.0000e+00
       -2 -1    0    0    0  501 -0.0000000000e+00 -0.0000000000e+00 -2.3190353828e+02 2.3190353828e+02 0.0000000000e+00 0.0000e+00 -1.0000e+00
      -13  1    1    2    0    0 +3.1753405986e+01 +7.0116983663e+01 -2.1695299306e+02 2.3020267459e+02 0.0000000000e+00 0.0000e+00 -1.0000e+00
       13  1    1    2    0    0 -3.1753405986e+01 -7.0116983663e+01 +1.6957726520e+02 1.8622867411e+02 0.0000000000e+00 0.0000e+00 1.0000e+00
<mgrwt>
<rscale>  0 0.41372770E+03</rscale>
<asrwt>0</asrwt>
<pdfrwt beam="1">  1        2 0.28388894E-01 0.41372770E+03</pdfrwt>
<pdfrwt beam="2">  1       -2 0.35677468E-01 0.41372770E+03</pdfrwt>
<totfact> 0.16632020E+03</totfact>
</mgrwt>
<rwgt>
<wgt id='morphing_basis_vector_1'> +2.7620998e-04 </wgt>
<wgt id='morphing_basis_vector_2'> +1.4844666e-04 </wgt>
<wgt id='morphing_basis_vector_3'> +1.7999417e-04 </wgt>
<wgt id='morphing_basis_vector_4'> +4.2786754e-05 </wgt>
<wgt id='morphing_basis_vector_5'> +4.6743876e-05 </wgt>
</rwgt>
</event>
<event>
 4      1 +3.1894900e-05 3.95588200e+02 7.81860800e-03 9.66955600e-02
        2 -1    0    0  501    0 +0.0000000000e+00 +0.0000000000e+00 +3.3603460178e+02 3.3603460178e+02 0.0000000000e+00 0.0000e+00 1.0000e+00
       -2 -1    0    0    0  501 -0.0000000000e+00 -0.0000000000e+00 -1.1642402520e+02 1.1642402520e+02 0.0000000000e+00 0.0000e+00 -1.0000e+00
      -13  1    1    2    0    0 -1.3810682362e+02 +1.4125557662e+02 +1.2100412887e+02 2.3166491289e+02 0.0000000000e+00 0.0000e+00 -1.0000e+00
       13  1    1    2    0    0 +1.3810682362e+02 -1.4125557662e+02 +9.8606447702e+01 2.2079371410e+02 0.0000000000e+00 0.0000e+00 1.0000e+00
<mgrwt>
<rscale>  0 0.39558817E+03</rscale>
<asrwt>0</asrwt>
<pdfrwt beam="1">  1        2 0.51697631E-01 0.39558817E+03</pdfrwt>
<pdfrwt beam="2">  1       -2 0.17911389E-01 0.39558817E+03</pdfrwt>
<totfact> 0.27370327E+03</totfact>
</mgrwt>
<rwgt>
<wgt id='morphing_basis_vector_1'> +2.5433205e-04 </wgt>
<wgt id='morphing_basis_vector_2'> +1.5955441e-04 </wgt>
<wgt id='morphing_basis_vector_3'> +1.4750738e-04 </wgt>
<wgt id='morphing_basis_vector_4'> +3.4791012e-05 </wgt>
<wgt id='morphing_basis_vector_5'> +3.3614600e-05 </wgt>
</rwgt>
</event>
<event>
 4      1 +3.1894900e-05 3.82605900e+02 7.81860800e-03 9.70924100e-02
        2 -1    0    0  501    0 +0.0000000000e+00 +0.0000000000e+00 +8.0321018151e+01 8.0321018151e+01 0.0000000000e+00 0.0000e+00 1.0000e+00
       -2 -1    0    0    0  501 -0.0000000000e+00 -0.0000000000e+00 -4.5563191612e+02 4.5563191612e+02 0.0000000000e+00 0.0000e+00 -1.0000e+00
      -13  1    1    2    0    0 -1.1546183125e+01 -1.2451284784e+02 -3.9045696768e+02 4.0999195996e+02 0.0000000000e+00 0.0000e+00 -1.0000e+00
       13  1    1    2    0    0 +1.1546183125e+01 +1.2451284784e+02 +1.5146069708e+01 1.2596097431e+02 0.0000000000e+00 0.0000e+00 1.0000e+00
<mgrwt>
<rscale>  0 0.38260590E+03</rscale>
<asrwt>0</asrwt>
<pdfrwt beam="1">  1        2 0.12357080E-01 0.38260590E+03</pdfrwt>
<pdfrwt beam="2">  1       -2 0.70097218E-01 0.38260590E+03</pdfrwt>
<totfact> 0.12099956E+03</totfact>
</mgrwt>
<rwgt>
<wgt id='morphing_basis_vector_1'> +2.2503488e-04 </wgt>
<wgt id='morphing_basis_vector_2'> +1.2119326e-04 </wgt>
<wgt id='morphing_basis_vector_3'> +1.4119682e-04 </wgt>
<wgt id='morphing_basis_vector_4'> +2.8856645e-05 </wgt>
<wgt id='morphing_basis_vector_5'> +2.4956212e-05 </wgt>
</rwgt>
</event>
<event>
 4      1 +3.1894900e-05 3.84481200e+02 7.81860800e-03 9.70340500e-02
        2 -1    0    0  501    0 +0.0000000000e+00 +0.0000000000e+00 +2.3876756205e+02 2.3876756205e+02 0.0000000000e+00 0.0000e+00 1.0000e+00
       -2 -1    0    0    0  501 -0.0000000000e+00 -0.0000000000e+00 -1.5478003656e+02 1.5478003656e+02 0.0000000000e+00 0.0000e+00 -1.0000e+00
      -13  1    1    2    0    0 +1.6283739647e+02 -6.1966523435e+01 -4.1166016162e+01 1.7902655837e+02 0.0000000000e+00 0.0000e+00 -1.0000e+00
       13  1    1    2    0    0 -1.6283739647e+02 +6.1966523435e+01 +1.2515354165e+02 2.1452104024e+02 0.0000000000e+00 0.0000e+00 1.0000e+00
<mgrwt>
<rscale>  0 0.38448122E+03</rscale>
<asrwt>0</asrwt>
<pdfrwt beam="1">  1        2 0.36733471E-01 0.38448122E+03</pdfrwt>
<pdfrwt beam="2">  1       -2 0.23812313E-01 0.38448122E+03</pdfrwt>
<totfact> 0.25002825E+03</totfact>
</mgrwt>
<rwgt>
<wgt id='morphing_basis_vector_1'> +2.2897707e-04 </wgt>
<wgt id='morphing_basis_vector_2'> +1.2606779e-04 </wgt>
<wgt id='morphing_basis_vector_3'> +1.4213750e-04 </wgt>
<wgt id='morphing_basis_vector_4'> +2.9704692e-05 </wgt>
<wgt id='morphing_basis_vector_5'> +2.6109245e-05 </wgt>
</rwgt>
</event>
<event>
 4      1 +3.1894900e-05 3.87133100e+02 7.81860800e-03 9.69521300e-02
        2 -1    0    0  501    0 +0.0000000000e+00 +0.0000000000e+00 +1.9507539637e+02 1.9507539637e+02 0.0000000000e+00 0.0000e+00 -1.0000e+00
       -2 -1    0    0    0  501 -0.0000000000e+00 -0.0000000000e+00 -1.9206936368e+02 1.9206936368e+02 0.0000000000e+00 0.0000e+00 1.0000e+00
      -13  1    1    2    0    0 -1.9126057849e+02 -1.0962887745e+01 +2.9202469740e+01 1.9378745581e+02 0.0000000000e+00 0.0000e+00 1.0000e+00
       13  1    1    2    0    0 +1.9126057849e+02 +1.0962887745e+01 -2.6196437051e+01 1.9335730424e+02 0.0000000000e+00 0.0000e+00 -1.0000e+00
<mgrwt>
<rscale>  0 0.38713309E+03</rscale>
<asrwt>0</asrwt>
<pdfrwt beam="1">  1        2 0.30011599E-01 0.38713309E+03</pdfrwt>
<pdfrwt beam="2">  1       -2 0.29549133E-01 0.38713309E+03</pdfrwt>
<totfact> 0.21741718E+03</totfact>
</mgrwt>
<rwgt>
<wgt id='morphing_basis_vector_1'> +2.4377854e-04 </wgt>
<wgt id='morphing_basis_vector_2'> +1.6090689e-04 </wgt>
<wgt id='morphing_basis_vector_3'> +1.3421765e-04 </wgt>
<wgt id='morphing_basis_vector_4'> +3.2068145e-05 </wgt>
<wgt id='morphing_basis_vector_5'> +2.8394450e-05 </wgt>
</rwgt>
</event>
<event>
 4      1 +3.1894900e-05 4.13275900e+02 7.81860800e-03 9.61802900e-02
        2 -1    0    0  501    0 +0.0000000000e+00 +0.0000000000e+00 +5.7079781703e+02 5.7079781703e+02 0.0000000000e+00 0.0000e+00 -1.0000e+00
       -2 -1    0    0    0  501 -0.0000000000e+00 -0.0000000000e+00 -7.4806238916e+01 7.4806238916e+01 0.0000000000e+00 0.0000e+00 1.0000e+00
      -13  1    1    2    0    0 +1.5040343102e+02 +9.9364965011e+01 +9.0189161101e+01 2.0156555538e+02 0.0000000000e+00 0.0000e+00 1.0000e+00
       13  1    1    2    0    0 -1.5040343102e+02 -9.9364965011e+01 +4.0580241701e+02 4.4403850057e+02 0.0000000000e+00 0.0000e+00 -1.0000e+00
<mgrwt>
<rscale>  0 0.41327588E+03</rscale>
<asrwt>0</asrwt>
<pdfrwt beam="1">  1        2 0.87815046E-01 0.41327588E+03</pdfrwt>
<pdfrwt beam="2">  1       -2 0.11508653E-01 0.41327588E+03</pdfrwt>
<totfact> 0.30681169E+03</totfact>
</mgrwt>
<rwgt>
<wgt id='morphing_basis_vector_1'> +2.7649748e-04 </wgt>
<wgt id='morphing_basis_vector_2'> +1.5137860e-04 </wgt>
<wgt id='morphing_basis_vector_3'> +1.7840966e-04 </wgt>
<wgt id='morphing_basis_vector_4'> +4.2542647e-05 </wgt>
<wgt id='morphing_basis_vector_5'> +4.6434882e-05 </wgt>
</rwgt>
</event>
<event>
 4      1 +3.1894900e-05 3.81804600e+02 7.81860800e-03 9.71174600e-02
        2 -1    0    0  501    0 +0.0000000000e+00 +0.0000000000e+00 +9.7080201850e+02 9.7080201850e+02 0.0000000000e+00 0.0000e+00 -1.0000e+00
       -2 -1    0    0    0  501 -0.0000000000e+00 -0.0000000000e+00 -3.7539767363e+01 3.7539767363e+01 0.0000000000e+00 0.0000e+00 1.0000e+00
      -13  1    1    2    0    0 -1.1046013893e+02 +1.2328830578e+02 +7.1776453878e+02 7.3660530935e+02 0.0000000000e+00 0.0000e+00 1.0000e+00
       13  1    1    2    0    0 +1.1046013893e+02 -1.2328830578e+02 +2.1549771236e+02 2.7173647651e+02 0.0000000000e+00 0.0000e+00 -1.0000e+00
<mgrwt>
<rscale>  0 0.38180457E+03</rscale>
<asrwt>0</asrwt>
<pdfrwt beam="1">  1        2 0.14935414E+00 0.38180457E+03</pdfrwt>
<pdfrwt beam="2">  1       -2 0.57753496E-02 0.38180457E+03</pdfrwt>
<totfact> 0.45978734E+03</totfact>
</mgrwt>
<rwgt>
<wgt id='morphing_basis_vector_1'> +2.6021117e-04 </wgt>
<wgt id='morphing_basis_vector_2'> +2.3097887e-04 </wgt>
<wgt id='morphing_basis_vector_3'> +1.0217403e-04 </wgt>
<wgt id='morphing_basis_vector_4'> +3.4168802e-05 </wgt>
<wgt id='morphing_basis_vector_5'> +2.6911012e-05 </wgt>
</rwgt>
</event>
<event>
 4      1 +3.1894900e-05 4.04015000e+02 7.81860800e-03 9.64465700e-02
        2 -1    0    0  501    0 +0.0000000000e+00 +0.0000000000e+00 +6.4128375969e+02 6.4128375969e+02 0.0000000000e+00 0.0000e+00 1.0000e+00
       -2 -1    0    0    0  501 -0.0000000000e+00 -0.0000000000e+00 -6.3633328928e+01 6.3633328928e+01 0.0000000000e+00 0.0000e+00 -1.0000e+00
      -13  1    1    2    0    0 +5.9586322401e+01 +1.2133958988e+02 +2.6915273903e+01 1.3783416797e+02 0.0000000000e+00 0.0000e+00 -1.0000e+00
       13  1    1    2    0    0 -5.9586322401e+01 -1.2133958988e+02 +5.5073515686e+02 5.6708292065e+02 0.0000000000e+00 0.0000e+00 1.0000e+00
<mgrwt>
<rscale>  0 0.40401495E+03</rscale>
<asrwt>0</asrwt>
<pdfrwt beam="1">  1        2 0.98659036E-01 0.40401495E+03</pdfrwt>
<pdfrwt beam="2">  1       -2 0.97897433E-02 0.40401495E+03</pdfrwt>
<totfact> 0.34493697E+03</totfact>
</mgrwt>
<rwgt>
<wgt id='morphing_basis_vector_1'> +2.5937397e-04 </wgt>
<wgt id='morphing_basis_vector_2'> +1.3974448e-04 </wgt>
<wgt id='morphing_basis_vector_3'> +1.6680233e-04 </wgt>
<wgt id='morphing_basis_vector_4'> +3.7860767e-05 </wgt>
<wgt id='morphing_basis_vector_5'> +3.9031716e-05 </wgt>
</rwgt>
</event>
<event>
 4      1 +3.1894900e-05 3.96083100e+02 7.81860800e-03 9.66807600e-02
        2 -1    0    0  501    0 +0.0000000000e+00 +0.0000000000e+00 +6.4268544325e+02 6.4268544325e+02 0.0000000000e+00 0.0000e+00 1.0000e+00
       -2 -1    0    0    0  501 -0.0000000000e+00 -0.0000000000e+00 -6.1025898266e+01 6.1025898266e+01 0.0000000000e+00 0.0000e+00 -1.0000e+00
      -13  1    1    2    0    0 -1.0968513483e+02 -1.0998246092e+02 +7.2555268271e+01 1.7143872802e+02 0.0000000000e+00 0.0000e+00 -1.0000e+00
       13  1    1    2    0    0 +1.0968513483e+02 +1.0998246092e+02 +5.0910427671e+02 5.3227261350e+02 0.0000000000e+00 0.0000e+00 1.0000e+00
<mgrwt>
<rscale>  0 0.39608310E+03</rscale>
<asrwt>0</asrwt>
<pdfrwt beam="1">  1        2 0.98874679E-01 0.39608310E+03</pdfrwt>
<pdfrwt beam="2">  1       -2 0.93886001E-02 0.39608310E+03</pdfrwt>
<totfact> 0.36698765E+03</totfact>
</mgrwt>
<rwgt>
<wgt id='morphing_basis_vector_1'> +2.4643286e-04 </wgt>
<wgt id='morphing_basis_vector_2'> +1.3342764e-04 </wgt>
<wgt id='morphing_basis_vector_3'> +1.5655982e-04 </wgt>
<wgt id='morphing_basis_vector_4'> +3.4261703e-05 </wgt>
<wgt id='morphing_basis_vector_5'> +3.3378502e-05 </wgt>
</rwgt>
</event>
<event>
 4      1 +3.1894900e-05 4.14089100e+02 7.81860800e-03 9.61572600e-02
        2 -1    0    0  501    0 +0.0000000000e+00 +0.0000000000e+00 +1.5146591658e+02 1.5146591658e+02 0.0000000000e+00 0.0000e+00 -1.0000e+00
       -2 -1    0    0    0  501 -0.0000000000e+00 -0.0000000000e+00 -2.8301715212e+02 2.8301715212e+02 0.0000000000e+00 0.0000e+00 1.0000e+00
      -13  1    1    2    0    0 +1.8446920754e+02 +9.4007843458e+01 -6.4680575152e+01 2.1690998125e+02 0.0000000000e+00 0.0000e+00 1.0000e+00
       13  1    1    2    0    0 -1.8446920754e+02 -9.4007843458e+01 -6.6870660396e+01 2.1757308745e+02 0.0000000000e+00 0.0000e+00 -1.0000e+00
<mgrwt>
<rscale>  0 0.41408913E+03</rscale>
<asrwt>0</asrwt>
<pdfrwt beam="1">  1        2 0.23302449E-01 0.41408913E+03</pdfrwt>
<pdfrwt beam="2">  1       -2 0.43541100E-01 0.41408913E+03</pdfrwt>
<totfact> 0.14508965E+03</totfact>
</mgrwt>
<rwgt>
<wgt id='morphing_basis_vector_1'> +2.8576900e-04 </wgt>
<wgt id='morphing_basis_vector_2'> +1.7613841e-04 </wgt>
<wgt id='morphing_basis_vector_3'> +1.7277843e-04 </wgt>
<wgt id='morphing_basis_vector_4'> +4.2927826e-05 </wgt>
<wgt id='morphing_basis_vector_5'> +4.7613993e-05 </wgt>
</rwgt>
</event>
<event>
 4      1 +3.1894900e-05 4.25618300e+02 7.81860800e-03 9.58366900e-02
        2 -1    0    0  501    0 +0.0000000000e+00 +0.0000000000e+00 +7.1511355240e+02 7.1511355240e+02 0.0000000000e+00 0.0000e+00 -1.0000e+00
       -2 -1    0    0    0  501 -0.0000000000e+00 -0.0000000000e+00 -6.3329433320e+01 6.3329433320e+01 0.0000000000e+00 0.0000e+00 1.0000e+00
      -13  1    1    2    0    0 +4.9395411607e+01 +1.2675717737e+02 +2.6586059997e+01 1.3861496056e+02 0.0000000000e+00 0.0000e+00 1.0000e+00
       13  1    1    2    0    0 -4.9395411607e+01 -1.2675717737e+02 +6.2519805909e+02 6.3982802517e+02 0.0000000000e+00 0.0000e+00 -1.0000e+00
<mgrwt>
<rscale>  0 0.42561831E+03</rscale>
<asrwt>0</asrwt>
<pdfrwt beam="1">  1        2 0.11001746E+00 0.42561831E+03</pdfrwt>
<pdfrwt beam="2">  1       -2 0.97429902E-02 0.42561831E+03</pdfrwt>
<totfact> 0.30558356E+03</totfact>
</mgrwt>
<rwgt>
<wgt id='morphing_basis_vector_1'> +2.9852358e-04 </wgt>
<wgt id='morphing_basis_vector_2'> +1.6110414e-04 </wgt>
<wgt id='morphing_basis_vector_3'> +1.9707998e-04 </wgt>
<wgt id='morphing_basis_vector_4'> +4.9595604e-05 </wgt>
<wgt id='morphing_basis_vector_5'> +5.7447111e-05 </wgt>
</rwgt>
</event>
<event>
 4      1 +3.1894900e-05 4.12575700e+02 7.81860800e-03 9.62001600e-02
        2 -1    0    0  501    0 +0.0000000000e+00 +0.0000000000e+00 +2.8539340765e+02 2.8539340765e+02 0.0000000000e+00 0.0000e+00 1.0000e+00
       -2 -1    0    0    0  501 -0.0000000000e+00 -0.0000000000e+00 -1.4910885517e+02 1.4910885517e+02 0.0000000000e+00 0.0000e+00 -1.0000e+00
      -13  1    1    2    0    0 +6.6252373854e+01 +1.8913170234e+02 +1.6607978413e+01 2.0108705284e+02 0.0000000000e+00 0.0000e+00 -1.0000e+00
       13  1    1    2    0    0 -6.6252373854e+01 -1.8913170234e+02 +1.1967657406e+02 2.3341520999e+02 0.0000000000e+00 0.0000e+00 1.0000e+00
<mgrwt>
<rscale>  0 0.41257574E+03</rscale>
<asrwt>0</asrwt>
<pdfrwt beam="1">  1        2 0.43906678E-01 0.41257574E+03</pdfrwt>
<pdfrwt beam="2">  1       -2 0.22939824E-01 0.41257574E+03</pdfrwt>
<totfact> 0.21830113E+03</totfact>
</mgrwt>
<rwgt>
<wgt id='morphing_basis_vector_1'> +2.7761393e-04 </wgt>
<wgt id='morphing_basis_vector_2'> +1.5796845e-04 </wgt>
<wgt id='morphing_basis_vector_3'> +1.7536380e-04 </wgt>
<wgt id='morphing_basis_vector_4'> +4.2177397e-05 </wgt>
<wgt id='morphing_basis_vector_5'> +4.6002716e-05 </wgt>
</rwgt>
</event>
<event>
 4      1 +3.1894900e-05 3.86807100e+02 7.81860800e-03 9.69621700e-02
        2 -1    0    0  501    0 +0.0000000000e+00 +0.0000000000e+00 +8.0066281330e+02 8.0066281330e+02 0.0000000000e+00 0.0000e+00 -1.0000e+00
       -2 -1    0    0    0  501 -0.0000000000e+00 -0.0000000000e+00 -4.6717457012e+01 4.6717457012e+01 0.0000000000e+00 0.0000e+00 1.0000e+00
      -13  1    1    2    0    0 +8.1021856310e+01 -1.2687167588e+02 +1.1096687926e+02 1.8701500377e+02 0.0000000000e+00 0.0000e+00 1.0000e+00
       13  1    1    2    0    0 -8.1021856310e+01 +1.2687167588e+02 +6.4297847703e+02 6.6036526655e+02 0.0000000000e+00 0.0000e+00 -1.0000e+00
<mgrwt>
<rscale>  0 0.38680709E+03</rscale>
<asrwt>0</asrwt>
<pdfrwt beam="1">  1        2 0.12317888E+00 0.38680709E+03</pdfrwt>
<pdfrwt beam="2">  1       -2 0.71873017E-02 0.38680709E+03</pdfrwt>
<totfact> 0.42415599E+03</totfact>
</mgrwt>
<rwgt>
<wgt id='morphing_basis_vector_1'> +2.3169160e-04 </wgt>
<wgt id='morphing_basis_vector_2'> +1.2539846e-04 </wgt>
<wgt id='morphing_basis_vector_3'> +1.4564228e-04 </wgt>
<wgt id='morphing_basis_vector_4'> +3.0466097e-05 </wgt>
<wgt id='morphing_basis_vector_5'> +2.7431814e-05 </wgt>
</rwgt>
</event>
<event>
 4      1 +3.1894900e-05 3.95865000e+02 7.81860800e-03 9.66872800e-02
        2 -1    0    0  501    0 +0.0000000000e+00 +0.0000000000e+00 +5.8794639943e+02 5.8794639943e+02 0.0000000000e+00 0.0000e+00 -1.0000e+00
       -2 -1    0    0    0  501 -0.0000000000e+00 -0.0000000000e+00 -6.6634100129e+01 6.6634100129e+01 0.0000000000e+00 0.0000e+00 1.0000e+00
      -13  1    1    2    0    0 +5.3395154719e+01 +1.2213434573e+02 +1.8710081935e+01 1.3460277902e+02 0.0000000000e+00 0.0000e+00 1.0000e+00
       13  1    1    2    0    0 -5.3395154719e+01 -1.2213434573e+02 +5.0260221737e+02 5.1997772054e+02 0.0000000000e+00 0.0000e+00 -1.0000e+00
<mgrwt>
<rscale>  0 0.39586502E+03</rscale>
<asrwt>0</asrwt>
<pdfrwt beam="1">  1        2 0.90453289E-01 0.39586502E+03</pdfrwt>
<pdfrwt beam="2">  1       -2 0.10251400E-01 0.39586502E+03</pdfrwt>
<totfact> 0.35491833E+03</totfact>
</mgrwt>
<rwgt>
<wgt id='morphing_basis_vector_1'> +2.4580671e-04 </wgt>
<wgt id='morphing_basis_vector_2'> +1.3240811e-04 </wgt>
<wgt id='morphing_basis_vector_3'> +1.5655626e-04 </wgt>
<wgt id='morphing_basis_vector_4'> +3.4144535e-05 </wgt>
<wgt id='morphing_basis_vector_5'> +3.3212570e-05 </wgt>
</rwgt>
</event>
<event>
 4      1 +3.1894900e-05 3.88016400e+02 7.81860800e-03 9.69250000e-02
        2 -1    0    0  501    0 +0.0000000000e+00 +0.0000000000e+00 +7.6589243222e+02 7.6589243222e+02 0.0000000000e+00 0.0000e+00 1.0000e+00
       -2 -1    0    0    0  501 -0.0000000000e+00 -0.0000000000e+00 -4.9144213503e+01 4.9144213503e+01 0.0000000000e+00 0.0000e+00 -1.0000e+00
      -13  1    1    2    0    0 -2.9271492660e+01 -1.9166384824e+02 +3.4392316417e+02 3.9481007315e+02 0.0000000000e+00 0.0000e+00 -1.0000e+00
       13  1    1    2    0    0 +2.9271492660e+01 +1.9166384824e+02 +3.7282505454e+02 4.2022657257e+02 0.0000000000e+00 0.0000e+00 1.0000e+00
<mgrwt>
<rscale>  0 0.38801640E+03</rscale>
<asrwt>0</asrwt>
<pdfrwt beam="1">  1        2 0.11782960E+00 0.38801640E+03</pdfrwt>
<pdfrwt beam="2">  1       -2 0.75606488E-02 0.38801640E+03</pdfrwt>
<totfact> 0.41482991E+03</totfact>
</mgrwt>
<rwgt>
<wgt id='morphing_basis_vector_1'> +2.3951289e-04 </wgt>
<wgt id='morphing_basis_vector_2'> +1.4450762e-04 </wgt>
<wgt id='morphing_basis_vector_3'> +1.4099808e-04 </wgt>
<wgt id='morphing_basis_vector_4'> +3.1667063e-05 </wgt>
<wgt id='morphing_basis_vector_5'> +2.8559262e-05 </wgt>
</rwgt>
</event>
<event>
 4      1 +3.1894900e-05 4.18234900e+02 7.81860800e-03 9.60407300e-02
        2 -1    0    0  501    0 +0.0000000000e+00 +0.0000000000e+00 +4.9626953011e+02 4.9626953011e+02 0.0000000000e+00 0.0000e+00 -1.0000e+00
       -2 -1    0    0    0  501 -0.0000000000e+00 -0.0000000000e+00 -8.8117640277e+01 8.8117640277e+01 0.0000000000e+00 0.0000e+00 1.0000e+00
      -13  1    1    2    0    0 +1.7715699284e+02 -6.2782623144e+01 +7.5984718727e+01 2.0273118990e+02 0.0000000000e+00 0.0000e+00 1.0000e+00
       13  1    1    2    0    0 -1.7715699284e+02 +6.2782623144e+01 +3.3216717111e+02 3.8165598049e+02 0.0000000000e+00 0.0000e+00 -1.0000e+00
<mgrwt>
<rscale>  0 0.41823486E+03</rscale>
<asrwt>0</asrwt>
<pdfrwt beam="1">  1        2 0.76349156E-01 0.41823486E+03</pdfrwt>
<pdfrwt beam="2">  1       -2 0.13556560E-01 0.41823486E+03</pdfrwt>
<totfact> 0.27767436E+03</totfact>
</mgrwt>
<rwgt>
<wgt id='morphing_basis_vector_1'> +2.8590592e-04 </wgt>
<wgt id='morphing_basis_vector_2'> +1.5747304e-04 </wgt>
<wgt id='morphing_basis_vector_3'> +1.8510884e-04 </wgt>
<wgt id='morphing_basis_vector_4'> +4.5229198e-05 </wgt>
<wgt id='morphing_basis_vector_5'> +5.0725082e-05 </wgt>
</rwgt>
</event>
<event>
 4      1 +3.1894900e-05 4.20712300e+02 7.81860800e-03 9.59717700e-02
        2 -1    0    0  501    0 +0.0000000000e+00 +0.0000000000e+00 +1.3302256785e+03 1.3302256785e+03 0.0000000000e+00 0.0000e+00 -1.0000e+00
       -2 -1    0    0    0  501 -0.0000000000e+00 -0.0000000000e+00 -3.3264811911e+01 3.3264811911e+01 0.0000000000e+00 0.0000e+00 1.0000e+00
      -13  1    1    2    0    0 +2.0150665554e+02 -3.6918776997e+01 +4.9366877016e+02 5.3448740205e+02 0.0000000000e+00 0.0000e+00 1.0000e+00
       13  1    1    2    0    0 -2.0150665554e+02 +3.6918776997e+01 +8.0329209646e+02 8.2900308839e+02 0.0000000000e+00 0.0000e+00 -1.0000e+00
<mgrwt>
<rscale>  0 0.42071229E+03</rscale>
<asrwt>0</asrwt>
<pdfrwt beam="1">  1        2 0.20465006E+00 0.42071229E+03</pdfrwt>
<pdfrwt beam="2">  1       -2 0.51176644E-02 0.42071229E+03</pdfrwt>
<totfact> 0.34297490E+03</totfact>
</mgrwt>
<rwgt>
<wgt id='morphing_basis_vector_1'> +2.9287710e-04 </wgt>
<wgt id='morphing_basis_vector_2'> +1.6726511e-04 </wgt>
<wgt id='morphing_basis_vector_3'> +1.8675150e-04 </wgt>
<wgt id='morphing_basis_vector_4'> +4.6538062e-05 </wgt>
<wgt id='morphing_basis_vector_5'> +5.3093981e-05 </wgt>
</rwgt>
</event>
<event>
 4      1 +3.1894900e-05 3.78132900e+02 7.81860800e-03 9.72330700e-02
        2 -1    0    0  501    0 +0.0000000000e+00 +0.0000000000e+00 +1.4669000931e+02 1.4669000931e+02 0.0000000000e+00 0.0000e+00 1.0000e+00
       -2 -1    0    0    0  501 -0.0000000000e+00 -0.0000000000e+00 -2.4368477214e+02 2.4368477214e+02 0.0000000000e+00 0.0000e+00 -1.0000e+00
      -13  1    1    2    0    0 -9.9694337148e-01 -4.8768997590e+01 +1.4008191209e+02 1.4833189514e+02 0.0000000000e+00 0.0000e+00 1.0000e+00
       13  1    1    2    0    0 +9.9694337148e-01 +4.8768997590e+01 -2.3707667492e+02 2.4204288631e+02 0.0000000000e+00 0.0000e+00 -1.0000e+00
<mgrwt>
<rscale>  0 0.37813289E+03</rscale>
<asrwt>0</asrwt>
<pdfrwt beam="1">  1        2 0.22567694E-01 0.37813289E+03</pdfrwt>
<pdfrwt beam="2">  1       -2 0.37489965E-01 0.37813289E+03</pdfrwt>
<totfact> 0.19811852E+03</totfact>
</mgrwt>
<rwgt>
<wgt id='morphing_basis_vector_1'> +2.9563949e-04 </wgt>
<wgt id='morphing_basis_vector_2'> +3.5175591e-04 </wgt>
<wgt id='morphing_basis_vector_3'> +5.3763386e-05 </wgt>
<wgt id='morphing_basis_vector_4'> +4.0585079e-05 </wgt>
<wgt id='morphing_basis_vector_5'> +2.7600771e-05 </wgt>
</rwgt>
</event>
<event>
 4      1 +3.1894900e-05 4.14694100e+02 7.81860800e-03 9.61401600e-02
        2 -1    0    0  501    0 +0.0000000000e+00 +0.0000000000e+00 +7.8819390227e+02 7.8819390227e+02 0.0000000000e+00 0.0000e+00 -1.0000e+00
       -2 -1    0    0    0  501 -0.0000000000e+00 -0.0000000000e+00 -5.4545979191e+01 5.4545979191e+01 0.0000000000e+00 0.0000e+00 1.0000e+00
      -13  1    1    2    0    0 -8.9892899408e+01 -1.3122051081e+02 +9.6509375517e+01 1.8604734716e+02 0.0000000000e+00 0.0000e+00 1.0000e+00
       13  1    1    2    0    0 +8.9892899408e+01 +1.3122051081e+02 +6.3713854756e+02 6.5669253431e+02 0.0000000000e+00 0.0000e+00 -1.0000e+00
<mgrwt>
<rscale>  0 0.41469414E+03</rscale>
<asrwt>0</asrwt>
<pdfrwt beam="1">  1        2 0.12126059E+00 0.41469414E+03</pdfrwt>
<pdfrwt beam="2">  1       -2 0.83916897E-02 0.41469414E+03</pdfrwt>
<totfact> 0.34153645E+03</totfact>
</mgrwt>
<rwgt>
<wgt id='morphing_basis_vector_1'> +2.7840029e-04 </wgt>
<wgt id='morphing_basis_vector_2'> +1.5076587e-04 </wgt>
<wgt id='morphing_basis_vector_3'> +1.8095635e-04 </wgt>
<wgt id='morphing_basis_vector_4'> +4.3304351e-05 </wgt>
<wgt id='morphing_basis_vector_5'> +4.7589317e-05 </wgt>
</rwgt>
</event>
<event>
 4      1 +3.1894900e-05 4.19238800e+02 7.81860800e-03 9.60127200e-02
        2 -1    0    0  501    0 +0.0000000000e+00 +0.0000000000e+00 +3.1234533563e+02 3.1234533563e+02 0.0000000000e+00 0.0000e+00 -1.0000e+00
       -2 -1    0    0    0  501 -0.0000000000e+00 -0.0000000000e+00 -1.4067856092e+02 1.4067856092e+02 0.0000000000e+00 0.0000e+00 1.0000e+00
      -13  1    1    2    0    0 -7.0825353254e+01 -1.8979659925e+02 +2.7628841512e+01 2.0445618757e+02 0.0000000000e+00 0.0000e+00 1.0000e+00
       13  1    1    2    0    0 +7.0825353254e+01 +1.8979659925e+02 +1.4403793319e+02 2.4856770898e+02 0.0000000000e+00 0.0000e+00 -1.0000e+00
<mgrwt>
<rscale>  0 0.41923880E+03</rscale>
<asrwt>0</asrwt>
<pdfrwt beam="1">  1        2 0.48053129E-01 0.41923880E+03</pdfrwt>
<pdfrwt beam="2">  1       -2 0.21642855E-01 0.41923880E+03</pdfrwt>
<totfact> 0.21767280E+03</totfact>
</mgrwt>
<rwgt>
<wgt id='morphing_basis_vector_1'> +2.8964863e-04 </wgt>
<wgt id='morphing_basis_vector_2'> +1.6427922e-04 </wgt>
<wgt id='morphing_basis_vector_3'> +1.8498386e-04 </wgt>
<wgt id='morphing_basis_vector_4'> +4.5733012e-05 </wgt>
<wgt id='morphing_basis_vector_5'> +5.1735930e-05 </wgt>
</rwgt>
</event>
<event>
 4      1 +3.1894900e-05 3.85122500e+02 7.81860800e-03 9.70141800e-02
        2 -1    0    0  501    0 +0.0000000000e+00 +0.0000000000e+00 +6.9154137215e+02 6.9154137215e+02 0.0000000000e+00 0.0000e+00 -1.0000e+00
       -2 -1    0    0    0  501 -0.0000000000e+00 -0.0000000000e+00 -5.3619119365e+01 5.3619119365e+01 0.0000000000e+00 0.0000e+00 1.0000e+00
      -13  1    1    2    0    0 +6.6523839845e+01 -1.3666591281e+02 +9.0214078081e+01 1.7675285818e+02 0.0000000000e+00 0.0000e+00 1.0000e+00
       13  1    1    2    0    0 -6.6523839845e+01 +1.3666591281e+02 +5.4770817471e+02 5.6840763333e+02 0.0000000000e+00 0.0000e+00 -1.0000e+00
<mgrwt>
<rscale>  0 0.38512252E+03</rscale>
<asrwt>0</asrwt>
<pdfrwt beam="1">  1        2 0.10639097E+00 0.38512252E+03</pdfrwt>
<pdfrwt beam="2">  1       -2 0.82490958E-02 0.38512252E+03</pdfrwt>
<totfact> 0.41064448E+03</totfact>
</mgrwt>
<rwgt>
<wgt id='morphing_basis_vector_1'> +2.2914175e-04 </wgt>
<wgt id='morphing_basis_vector_2'> +1.2412106e-04 </wgt>
<wgt id='morphing_basis_vector_3'> +1.4369756e-04 </wgt>
<wgt id='morphing_basis_vector_4'> +2.9830337e-05 </wgt>
<wgt id='morphing_basis_vector_5'> +2.6431233e-05 </wgt>
</rwgt>
</event>
<event>
 4      1 +3.1894900e-05 3.95722600e+02 7.81860800e-03 9.66915400e-02
        2 -1    0    0  501    0 +0.0000000000e+00 +0.0000000000e+00 +3.2811862258e+02 3.2811862258e+02 0.0000000000e+00 0.0000e+00 1.0000e+00
       -2 -1    0    0    0  501 -0.0000000000e+00 -0.0000000000e+00 -1.1931381933e+02 1.1931381933e+02 0.0000000000e+00 0.0000e+00 -1.0000e+00
      -13  1    1    2    0    0 +4.8178293135e+01 -1.0027548784e+02 -8.0602515292e+01 1.3737935384e+02 0.0000000000e+00 0.0000e+00 -1.0000e+00
       13  1    1    2    0    0 -4.8178293135e+01 +1.0027548784e+02 +2.8940731854e+02 3.1005308806e+02 0.0000000000e+00 0.0000e+00 1.0000e+00
<mgrwt>
<rscale>  0 0.39572256E+03</rscale>
<asrwt>0</asrwt>
<pdfrwt beam="1">  1        2 0.50479788E-01 0.39572256E+03</pdfrwt>
<pdfrwt beam="2">  1       -2 0.18355972E-01 0.39572256E+03</pdfrwt>
<totfact> 0.27002685E+03</totfact>
</mgrwt>
<rwgt>
<wgt id='morphing_basis_vector_1'> +2.4546189e-04 </wgt>
<wgt id='morphing_basis_vector_2'> +1.3193754e-04 </wgt>
<wgt id='morphing_basis_vector_3'> +1.5649248e-04 </wgt>
<wgt id='morphing_basis_vector_4'> +3.4073235e-05 </wgt>
<wgt id='morphing_basis_vector_5'> +3.3108590e-05 </wgt>
</rwgt>
</event>
<event>
 4      1 +3.1894900e-05 3.74851000e+02 7.81860800e-03 9.73376000e-02
        2 -1    0    0  501    0 +0.0000000000e+00 +0.0000000000e+00 +4.0310941030e+02 4.0310941030e+02 0.0000000000e+00 0.0000e+00 1.0000e+00
       -2 -1    0    0    0  501 -0.0000000000e+00 -0.0000000000e+00 -8.7143403503e+01 8.7143403503e+01 0.0000000000e+00 0.0000e+00 -1.0000e+00
      -13  1    1    2    0    0 +7.6932926341e+01 -1.5829345464e+02 +7.3701240936e+01 1.9080714308e+02 0.0000000000e+00 0.0000e+00 -1.0000e+00
       13  1    1    2    0    0 -7.6932926341e+01 +1.5829345464e+02 +2.4226476586e+02 2.9944567072e+02 0.0000000000e+00 0.0000e+00 1.0000e+00
<mgrwt>
<rscale>  0 0.37485104E+03</rscale>
<asrwt>0</asrwt>
<pdfrwt beam="1">  1        2 0.62016831E-01 0.37485104E+03</pdfrwt>
<pdfrwt beam="2">  1       -2 0.13406678E-01 0.37485104E+03</pdfrwt>
<totfact> 0.35536138E+03</totfact>
</mgrwt>
<rwgt>
<wgt id='morphing_basis_vector_1'> +2.1517649e-04 </wgt>
<wgt id='morphing_basis_vector_2'> +1.1979445e-04 </wgt>
<wgt id='morphing_basis_vector_3'> +1.3122018e-04 </wgt>
<wgt id='morphing_basis_vector_4'> +2.6467777e-05 </wgt>
<wgt id='morphing_basis_vector_5'> +2.0885609e-05 </wgt>
</rwgt>
</event>
<event>
 4      1 +3.1894900e-05 3.72137800e+02 7.81860800e-03 9.74248900e-02
        2 -1    0    0  501    0 +0.0000000000e+00 +0.0000000000e+00 +6.2223702836e+02 6.2223702836e+02 0.0000000000e+00 0.0000e+00 -1.0000e+00
       -2 -1    0    0    0  501 -0.0000000000e+00 -0.0000000000e+00 -5.5640600323e+01 5.5640600323e+01 0.0000000000e+00 0.0000e+00 1.0000e+00
      -13  1    1    2    0    0 -1.0907620054e+02 -7.6269469867e+01 +4.6444252361e+01 1.4096708174e+02 0.0000000000e+00 0.0000e+00 1.0000e+00
       13  1    1    2    0    0 +1.0907620054e+02 +7.6269469867e+01 +5.2015217568e+02 5.3691054694e+02 0.0000000000e+00 0.0000e+00 -1.0000e+00
<mgrwt>
<rscale>  0 0.37213783E+03</rscale>
<asrwt>0</asrwt>
<pdfrwt beam="1">  1        2 0.95728769E-01 0.37213783E+03</pdfrwt>
<pdfrwt beam="2">  1       -2 0.85600928E-02 0.37213783E+03</pdfrwt>
<totfact> 0.43880095E+03</totfact>
</mgrwt>
<rwgt>
<wgt id='morphing_basis_vector_1'> +2.0986009e-04 </wgt>
<wgt id='morphing_basis_vector_2'> +1.1335598e-04 </wgt>
<wgt id='morphing_basis_vector_3'> +1.3001007e-04 </wgt>
<wgt id='morphing_basis_vector_4'> +2.5325835e-05 </wgt>
<wgt id='morphing_basis_vector_5'> +1.9438601e-05 </wgt>
</rwgt>
</event>
<event>
 4      1 +3.1894900e-05 3.61397200e+02 7.81860800e-03 9.77784600e-02
        2 -1    0    0  501    0 +0.0000000000e+00 +0.0000000000e+00 +2.5452202538e+01 2.5452202538e+01 0.0000000000e+00 0.0000e+00 1.0000e+00
       -2 -1    0    0    0  501 -0.0000000000e+00 -0.0000000000e+00 -1.2828747804e+03 1.2828747804e+03 0.0000000000e+00 0.0000e+00 -1.0000e+00
      -13  1    1    2    0    0 +1.6394722120e+02 -7.5415562242e+01 -5.9517995975e+02 6.2193679972e+02 0.0000000000e+00 0.0000e+00 -1.0000e+00
       13  1    1    2    0    0 -1.6394722120e+02 +7.5415562242e+01 -6.6224261811e+02 6.8639018321e+02 0.0000000000e+00 0.0000e+00 1.0000e+00
<mgrwt>
<rscale>  0 0.36139723E+03</rscale>
<asrwt>0</asrwt>
<pdfrwt beam="1">  1        2 0.39157241E-02 0.36139723E+03</pdfrwt>
<pdfrwt beam="2">  1       -2 0.19736532E+00 0.36139723E+03</pdfrwt>
<totfact> 0.37097728E+02</totfact>
</mgrwt>
<rwgt>
<wgt id='morphing_basis_vector_1'> +2.0210537e-04 </wgt>
<wgt id='morphing_basis_vector_2'> +1.2647217e-04 </wgt>
<wgt id='morphing_basis_vector_3'> +1.1147888e-04 </wgt>
<wgt id='morphing_basis_vector_4'> +2.3991702e-05 </wgt>
<wgt id='morphing_basis_vector_5'> +1.5065688e-05 </wgt>
</rwgt>
</event>
<event>
 4      1 +3.1894900e-05 3.92282100e+02 7.81860800e-03 9.67950600e-02
        2 -1    0    0  501    0 +0.0000000000e+00 +0.0000000000e+00 +1.6350546484e+02 1.6350546484e+02 0.0000000000e+00 0.0000e+00 -1.0000e+00
       -2 -1    0    0    0  501 -0.0000000000e+00 -0.0000000000e+00 -2.3529067618e+02 2.3529067618e+02 0.0000000000e+00 0.0000e+00 1.0000e+00
      -13  1    1    2    0    0 -8.6896749694e+01 -7.2640357574e+01 -1.9868808170e+02 2.2870203424e+02 0.0000000000e+00 0.0000e+00 1.0000e+00
       13  1    1    2    0    0 +8.6896749694e+01 +7.2640357574e+01 +1.2690287036e+02 1.7009410678e+02 0.0000000000e+00 0.0000e+00 -1.0000e+00
<mgrwt>
<rscale>  0 0.39228210E+03</rscale>
<asrwt>0</asrwt>
<pdfrwt beam="1">  1        2 0.25154687E-01 0.39228210E+03</pdfrwt>
<pdfrwt beam="2">  1       -2 0.36198565E-01 0.39228210E+03</pdfrwt>
<totfact> 0.18616214E+03</totfact>
</mgrwt>
<rwgt>
<wgt id='morphing_basis_vector_1'> +2.3993975e-04 </wgt>
<wgt id='morphing_basis_vector_2'> +1.2899325e-04 </wgt>
<wgt id='morphing_basis_vector_3'> +1.5234533e-04 </wgt>
<wgt id='morphing_basis_vector_4'> +3.2615549e-05 </wgt>
<wgt id='morphing_basis_vector_5'> +3.0830718e-05 </wgt>
</rwgt>
</event>
<event>
 4      1 +3.1894900e-05 3.66089300e+02 7.81860800e-03 9.76224000e-02
        2 -1    0    0  501    0 +0.0000000000e+00 +0.0000000000e+00 +5.6582861764e+01 5.6582861764e+01 0.0000000000e+00 0.0000e+00 -1.0000e+00
       -2 -1    0    0    0  501 -0.0000000000e+00 -0.0000000000e+00 -5.9214659978e+02 5.9214659978e+02 0.0000000000e+00 0.0000e+00 1.0000e+00
      -13  1    1    2    0    0 +1.4639502992e+02 -9.4730686473e+01 -3.6644463746e+02 4.0581655963e+02 0.0000000000e+00 0.0000e+00 1.0000e+00
       13  1    1    2    0    0 -1.4639502992e+02 +9.4730686473e+01 -1.6911910055e+02 2.4291290191e+02 0.0000000000e+00 0.0000e+00 -1.0000e+00
<mgrwt>
<rscale>  0 0.36608933E+03</rscale>
<asrwt>0</asrwt>
<pdfrwt beam="1">  1        2 0.87050555E-02 0.36608933E+03</pdfrwt>
<pdfrwt beam="2">  1       -2 0.91099478E-01 0.36608933E+03</pdfrwt>
<totfact> 0.10518499E+03</totfact>
</mgrwt>
<rwgt>
<wgt id='morphing_basis_vector_1'> +2.0312137e-04 </wgt>
<wgt id='morphing_basis_vector_2'> +1.1391022e-04 </wgt>
<wgt id='morphing_basis_vector_3'> +1.2212677e-04 </wgt>
<wgt id='morphing_basis_vector_4'> +2.3896899e-05 </wgt>
<wgt id='morphing_basis_vector_5'> +1.6729689e-05 </wgt>
</rwgt>
</event>
<event>
 4      1 +3.1894900e-05 3.89593100e+02 7.81860800e-03 9.68767700e-02
        2 -1    0    0  501    0 +0.0000000000e+00 +0.0000000000e+00 +8.8493031447e+02 8.8493031447e+02 0.0000000000e+00 0.0000e+00 1.0000e+00
       -2 -1    0    0    0  501 -0.0000000000e+00 -0.0000000000e+00 -4.2879878166e+01 4.2879878166e+01 0.0000000000e+00 0.0000e+00 -1.0000e+00
      -13  1    1    2    0    0 -1.2620492001e+02 -1.4751336989e+02 +3.8278566367e+02 4.2920011701e+02 0.0000000000e+00 0.0000e+00 -1.0000e+00
       13  1    1    2    0    0 +1.2620492001e+02 +1.4751336989e+02 +4.5926477263e+02 4.9861007562e+02 0.0000000000e+00 0.0000e+00 1.0000e+00
<mgrwt>
<rscale>  0 0.38959314E+03</rscale>
<asrwt>0</asrwt>
<pdfrwt beam="1">  1        2 0.13614311E+00 0.38959314E+03</pdfrwt>
<pdfrwt beam="2">  1       -2 0.65969050E-02 0.38959314E+03</pdfrwt>
<totfact> 0.42542938E+03</totfact>
</mgrwt>
<rwgt>
<wgt id='morphing_basis_vector_1'> +2.4101121e-04 </wgt>
<wgt id='morphing_basis_vector_2'> +1.4290978e-04 </wgt>
<wgt id='morphing_basis_vector_3'> +1.4384277e-04 </wgt>
<wgt id='morphing_basis_vector_4'> +3.2132151e-05 </wgt>
<wgt id='morphing_basis_vector_5'> +2.9470785e-05 </wgt>
</rwgt>
</event>
<event>
 4      1 +3.1894900e-05 4.21698500e+02 7.81860800e-03 9.59444600e-02
        2 -1    0    0  501    0 +0.0000000000e+00 +0.0000000000e+00 +6.8440669678e+02 6.8440669678e+02 0.0000000000e+00 0.0000e+00 -1.0000e+00
       -2 -1    0    0    0  501 -0.0000000000e+00 -0.0000000000e+00 -6.4957583752e+01 6.4957583752e+01 0.0000000000e+00 0.0000e+00 1.0000e+00
      -13  1    1    2    0    0 -1.4181685390e+02 -1.3243577549e+02 +1.6312194221e+02 2.5349560689e+02 0.0000000000e+00 0.0000e+00 -1.0000e+00
       13  1    1    2    0    0 +1.4181685390e+02 +1.3243577549e+02 +4.5632717082e+02 4.9586867365e+02 0.0000000000e+00 0.0000e+00 1.0000e+00
<mgrwt>
<rscale>  0 0.42169850E+03</rscale>
<asrwt>0</asrwt>
<pdfrwt beam="1">  1        2 0.10529333E+00 0.42169850E+03</pdfrwt>
<pdfrwt beam="2">  1       -2 0.99934749E-02 0.42169850E+03</pdfrwt>
<totfact> 0.30956733E+03</totfact>
</mgrwt>
<rwgt>
<wgt id='morphing_basis_vector_1'> +2.9278758e-04 </wgt>
<wgt id='morphing_basis_vector_2'> +1.6231374e-04 </wgt>
<wgt id='morphing_basis_vector_3'> +1.8981609e-04 </wgt>
<wgt id='morphing_basis_vector_4'> +4.7178269e-05 </wgt>
<wgt id='morphing_basis_vector_5'> +5.3874151e-05 </wgt>
</rwgt>
</event>
<event>
 4      1 +3.1894900e-05 3.67784200e+02 7.81860800e-03 9.75666400e-02
        2 -1    0    0  501    0 +0.0000000000e+00 +0.0000000000e+00 +2.4070125579e+02 2.4070125579e+02 0.0000000000e+00 0.0000e+00 1.0000e+00
       -2 -1    0    0    0  501 -0.0000000000e+00 -0.0000000000e+00 -1.4049078054e+02 1.4049078054e+02 0.0000000000e+00 0.0000e+00 -1.0000e+00
      -13  1    1    2    0    0 -1.7916267928e+02 +2.8439648420e+01 +8.1340718000e+01 1.9880742353e+02 0.0000000000e+00 0.0000e+00 -1.0000e+00
       13  1    1    2    0    0 +1.7916267928e+02 -2.8439648420e+01 +1.8869757254e+01 1.8238461280e+02 0.0000000000e+00 0.0000e+00 1.0000e+00
<mgrwt>
<rscale>  0 0.36778422E+03</rscale>
<asrwt>0</asrwt>
<pdfrwt beam="1">  1        2 0.37030962E-01 0.36778422E+03</pdfrwt>
<pdfrwt beam="2">  1       -2 0.21613966E-01 0.36778422E+03</pdfrwt>
<totfact> 0.29086951E+03</totfact>
</mgrwt>
<rwgt>
<wgt id='morphing_basis_vector_1'> +2.1473774e-04 </wgt>
<wgt id='morphing_basis_vector_2'> +1.4316881e-04 </wgt>
<wgt id='morphing_basis_vector_3'> +1.1331837e-04 </wgt>
<wgt id='morphing_basis_vector_4'> +2.6454317e-05 </wgt>
<wgt id='morphing_basis_vector_5'> +1.8101266e-05 </wgt>
</rwgt>
</event>
<event>
 4      1 +3.1894900e-05 3.94291900e+02 7.81860800e-03 9.67344500e-02
        2 -1    0    0  501    0 +0.0000000000e+00 +0.0000000000e+00 +4.9286001164e+02 4.9286001164e+02 0.0000000000e+00 0.0000e+00 1.0000e+00
       -2 -1    0    0    0  501 -0.0000000000e+00 -0.0000000000e+00 -7.8859147101e+01 7.8859147101e+01 0.0000000000e+00 0.0000e+00 -1.0000e+00
      -13  1    1    2    0    0 +1.5580137432e+02 -1.6013732400e+01 +3.3388686835e+01 1.6014153826e+02 0.0000000000e+00 0.0000e+00 -1.0000e+00
       13  1    1    2    0    0 -1.5580137432e+02 +1.6013732400e+01 +3.8061217770e+02 4.1157762048e+02 0.0000000000e+00 0.0000e+00 1.0000e+00
<mgrwt>
<rscale>  0 0.39429187E+03</rscale>
<asrwt>0</asrwt>
<pdfrwt beam="1">  1        2 0.75824615E-01 0.39429187E+03</pdfrwt>
<pdfrwt beam="2">  1       -2 0.12132177E-01 0.39429187E+03</pdfrwt>
<totfact> 0.33312723E+03</totfact>
</mgrwt>
<rwgt>
<wgt id='morphing_basis_vector_1'> +2.4356685e-04 </wgt>
<wgt id='morphing_basis_vector_2'> +1.3197013e-04 </wgt>
<wgt id='morphing_basis_vector_3'> +1.5434940e-04 </wgt>
<wgt id='morphing_basis_vector_4'> +3.3497388e-05 </wgt>
<wgt id='morphing_basis_vector_5'> +3.2176356e-05 </wgt>
</rwgt>
</event>
<event>
 4      1 +3.1894900e-05 4.12240900e+02 7.81860800e-03 9.62096800e-02
        2 -1    0    0  501    0 +0.0000000000e+00 +0.0000000000e+00 +1.2157181931e+02 1.2157181931e+02 0.0000000000e+00 0.0000e+00 -1.0000e+00
       -2 -1    0    0    0  501 -0.0000000000e+00 -0.0000000000e+00 -3.4946943833e+02 3.4946943833e+02 0.0000000000e+00 0.0000e+00 1.0000e+00
      -13  1    1    2    0    0 +1.9391027973e+02 -4.6313488719e+01 -1.7375463829e+02 2.6445568655e+02 0.0000000000e+00 0.0000e+00 -1.0000e+00
       13  1    1    2    0    0 -1.9391027973e+02 +4.6313488719e+01 -5.4142980722e+01 2.0658557109e+02 0.0000000000e+00 0.0000e+00 1.0000e+00
<mgrwt>
<rscale>  0 0.41224088E+03</rscale>
<asrwt>0</asrwt>
<pdfrwt beam="1">  1        2 0.18703357E-01 0.41224088E+03</pdfrwt>
<pdfrwt beam="2">  1       -2 0.53764529E-01 0.41224088E+03</pdfrwt>
<totfact> 0.12544844E+03</totfact>
</mgrwt>
<rwgt>
<wgt id='morphing_basis_vector_1'> +2.7677610e-04 </wgt>
<wgt id='morphing_basis_vector_2'> +1.5690706e-04 </wgt>
<wgt id='morphing_basis_vector_3'> +1.7510658e-04 </wgt>
<wgt id='morphing_basis_vector_4'> +4.2005285e-05 </wgt>
<wgt id='morphing_basis_vector_5'> +4.5710253e-05 </wgt>
</rwgt>
</event>
<event>
 4      1 +3.1894900e-05 4.24597800e+02 7.81860800e-03 9.58646300e-02
        2 -1    0    0  501    0 +0.0000000000e+00 +0.0000000000e+00 +4.0483896733e+02 4.0483896733e+02 0.0000000000e+00 0.0000e+00 1.0000e+00
       -2 -1    0    0    0  501 -0.0000000000e+00 -0.0000000000e+00 -1.1133027300e+02 1.1133027300e+02 0.0000000000e+00 0.0000e+00 -1.0000e+00
      -13  1    1    2    0    0 +2.4830602219e+01 +1.4808647541e+02 +3.2920421354e+02 3.6183086825e+02 0.0000000000e+00 0.0000e+00 1.0000e+00
       13  1    1    2    0    0 -2.4830602219e+01 -1.4808647541e+02 -3.5695519211e+01 1.5433837208e+02 0.0000000000e+00 0.0000e+00 -1.0000e+00
<mgrwt>
<rscale>  0 0.42459785E+03</rscale>
<asrwt>0</asrwt>
<pdfrwt beam="1">  1        2 0.62282917E-01 0.42459785E+03</pdfrwt>
<pdfrwt beam="2">  1       -2 0.17127734E-01 0.42459785E+03</pdfrwt>
<totfact> 0.23962131E+03</totfact>
</mgrwt>
<rwgt>
<wgt id='morphing_basis_vector_1'> +3.7762393e-04 </wgt>
<wgt id='morphing_basis_vector_2'> +4.0942432e-04 </wgt>
<wgt id='morphing_basis_vector_3'> +1.3005806e-04 </wgt>
<wgt id='morphing_basis_vector_4'> +4.4340797e-05 </wgt>
<wgt id='morphing_basis_vector_5'> +6.1468690e-05 </wgt>
</rwgt>
</event>
<event>
 4      1 +3.1894900e-05 4.02170700e+02 7.81860800e-03 9.65005100e-02
        2 -1    0    0  501    0 +0.0000000000e+00 +0.0000000000e+00 +1.7147584394e+02 1.7147584394e+02 0.0000000000e+00 0.0000e+00 1.0000e+00
       -2 -1    0    0    0  501 -0.0000000000e+00 -0.0000000000e+00 -2.3580763584e+02 2.3580763584e+02 0.0000000000e+00 0.0000e+00 -1.0000e+00
      -13  1    1    2    0    0 +6.3999751239e+00 -1.9129960336e+02 -9.4583988017e+01 2.1350088692e+02 0.0000000000e+00 0.0000e+00 -1.0000e+00
       13  1    1    2    0    0 -6.3999751239e+00 +1.9129960336e+02 +3.0252196117e+01 1.9378259286e+02 0.0000000000e+00 0.0000e+00 1.0000e+00
<mgrwt>
<rscale>  0 0.40217068E+03</rscale>
<asrwt>0</asrwt>
<pdfrwt beam="1">  1        2 0.26380899E-01 0.40217068E+03</pdfrwt>
<pdfrwt beam="2">  1       -2 0.36278098E-01 0.40217068E+03</pdfrwt>
<totfact> 0.17555859E+03</totfact>
</mgrwt>
<rwgt>
<wgt id='morphing_basis_vector_1'> +2.5847266e-04 </wgt>
<wgt id='morphing_basis_vector_2'> +1.4485458e-04 </wgt>
<wgt id='morphing_basis_vector_3'> +1.6235269e-04 </wgt>
<wgt id='morphing_basis_vector_4'> +3.7104623e-05 </wgt>
<wgt id='morphing_basis_vector_5'> +3.7808008e-05 </wgt>
</rwgt>
</event>
<event>
 4      1 +3.1894900e-05 3.75373100e+02 7.81860800e-03 9.73208900e-02
        2 -1    0    0  501    0 +0.0000000000e+00 +0.0000000000e+00 +2.4454738969e+02 2.4454738969e+02 0.0000000000e+00 0.0000e+00 1.0000e+00
       -2 -1    0    0    0  501 -0.0000000000e+00 -0.0000000000e+00 -1.4404664793e+02 1.4404664793e+02 0.0000000000e+00 0.0000e+00 -1.0000e+00
      -13  1    1    2    0    0 +6.6931903694e+01 -1.4781149775e+00 -1.3126541894e+02 1.4735221331e+02 0.0000000000e+00 0.0000e+00 -1.0000e+00
       13  1    1    2    0    0 -6.6931903694e+01 +1.4781149775e+00 +2.3176616070e+02 2.4124182432e+02 0.0000000000e+00 0.0000e+00 1.0000e+00
<mgrwt>
<rscale>  0 0.37537305E+03</rscale>
<asrwt>0</asrwt>
<pdfrwt beam="1">  1        2 0.37622675E-01 0.37537305E+03</pdfrwt>
<pdfrwt beam="2">  1       -2 0.22161023E-01 0.37537305E+03</pdfrwt>
<totfact> 0.27427549E+03</totfact>
</mgrwt>
<rwgt>
<wgt id='morphing_basis_vector_1'> +2.1425875e-04 </wgt>
<wgt id='morphing_basis_vector_2'> +1.1514306e-04 </wgt>
<wgt id='morphing_basis_vector_3'> +1.3357766e-04 </wgt>
<wgt id='morphing_basis_vector_4'> +2.6324572e-05 </wgt>
<wgt id='morphing_basis_vector_5'> +2.1041790e-05 </wgt>
</rwgt>
</event>
<event>
 4      1 +3.1894900e-05 4.02257900e+02 7.81860800e-03 9.64979500e-02
        2 -1    0    0  501    0 +0.0000000000e+00 +0.0000000000e+00 +2.4937381164e+02 2.4937381164e+02 0.0000000000e+00 0.0000e+00 -1.0000e+00
       -2 -1    0    0    0  501 -0.0000000000e+00 -0.0000000000e+00 -1.6221777332e+02 1.6221777332e+02 0.0000000000e+00 0.0000e+00 1.0000e+00
      -13  1    1    2    0    0 -1.5845398936e+02 +5.6629371664e+01 -6.9152368194e+01 1.8192471659e+02 0.0000000000e+00 0.0000e+00 1.0000e+00
       13  1    1    2    0    0 +1.5845398936e+02 -5.6629371664e+01 +1.5630840652e+02 2.2966686837e+02 0.0000000000e+00 0.0000e+00 -1.0000e+00
<mgrwt>
<rscale>  0 0.40225795E+03</rscale>
<asrwt>0</asrwt>
<pdfrwt beam="1">  1        2 0.38365202E-01 0.40225795E+03</pdfrwt>
<pdfrwt beam="2">  1       -2 0.24956581E-01 0.40225795E+03</pdfrwt>
<totfact> 0.22020201E+03</totfact>
</mgrwt>
<rwgt>
<wgt id='morphing_basis_vector_1'> +2.5694892e-04 </wgt>
<wgt id='morphing_basis_vector_2'> +1.3982411e-04 </wgt>
<wgt id='morphing_basis_vector_3'> +1.6402431e-04 </wgt>
<wgt id='morphing_basis_vector_4'> +3.7057173e-05 </wgt>
<wgt id='morphing_basis_vector_5'> +3.7763326e-05 </wgt>
</rwgt>
</event>
<event>
 4      1 +3.1894900e-05 4.10508800e+02 7.81860800e-03 9.62590700e-02
        2 -1    0    0  501    0 +0.0000000000e+00 +0.0000000000e+00 +1.4445646642e+02 1.4445646642e+02 0.0000000000e+00 0.0000e+00 1.0000e+00
       -2 -1    0    0    0  501 -0.0000000000e+00 -0.0000000000e+00 -2.9164058492e+02 2.9164058492e+02 0.0000000000e+00 0.0000e+00 -1.0000e+00
      -13  1    1    2    0    0 +6.7820260819e+01 -1.8107369107e+02 -1.4674739169e+02 2.4273867913e+02 0.0000000000e+00 0.0000e+00 -1.0000e+00
       13  1    1    2    0    0 -6.7820260819e+01 +1.8107369107e+02 -4.3672681304e-01 1.9335837222e+02 0.0000000000e+00 0.0000e+00 1.0000e+00
<mgrwt>
<rscale>  0 0.41050880E+03</rscale>
<asrwt>0</asrwt>
<pdfrwt beam="1">  1        2 0.22224072E-01 0.41050880E+03</pdfrwt>
<pdfrwt beam="2">  1       -2 0.44867783E-01 0.41050880E+03</pdfrwt>
<totfact> 0.14492628E+03</totfact>
</mgrwt>
<rwgt>
<wgt id='morphing_basis_vector_1'> +2.7271676e-04 </wgt>
<wgt id='morphing_basis_vector_2'> +1.5221613e-04 </wgt>
<wgt id='morphing_basis_vector_3'> +1.7358067e-04 </wgt>
<wgt id='morphing_basis_vector_4'> +4.1116136e-05 </wgt>
<wgt id='morphing_basis_vector_5'> +4.4230448e-05 </wgt>
</rwgt>
</event>
<event>
 4      1 +3.1894900e-05 4.15356200e+02 7.81860800e-03 9.61214900e-02
        2 -1    0    0  501    0 +0.0000000000e+00 +0.0000000000e+00 +8.0139781738e+01 8.0139781738e+01 0.0000000000e+00 0.0000e+00 1.0000e+00
       -2 -1    0    0    0  501 -0.0000000000e+00 -0.0000000000e+00 -5.3818707042e+02 5.3818707042e+02 0.0000000000e+00 0.0000e+00 -1.0000e+00
      -13  1    1    2    0    0 +6.7827559095e+01 -8.6451884192e+01 -4.9136573995e+02 5.0350252874e+02 0.0000000000e+00 0.0000e+00 -1.0000e+00
       13  1    1    2    0    0 -6.7827559095e+01 +8.6451884192e+01 +3.3318451267e+01 1.1482432342e+02 0.0000000000e+00 0.0000e+00 1.0000e+00
<mgrwt>
<rscale>  0 0.41535621E+03</rscale>
<asrwt>0</asrwt>
<pdfrwt beam="1">  1        2 0.12329197E-01 0.41535621E+03</pdfrwt>
<pdfrwt beam="2">  1       -2 0.82798010E-01 0.41535621E+03</pdfrwt>
<totfact> 0.84357650E+02</totfact>
</mgrwt>
<rwgt>
<wgt id='morphing_basis_vector_1'> +2.7920819e-04 </wgt>
<wgt id='morphing_basis_vector_2'> +1.5021542e-04 </wgt>
<wgt id='morphing_basis_vector_3'> +1.8222354e-04 </wgt>
<wgt id='morphing_basis_vector_4'> +4.3668282e-05 </wgt>
<wgt id='morphing_basis_vector_5'> +4.8129422e-05 </wgt>
</rwgt>
</event>
<event>
 4      1 +3.1894900e-05 3.80002600e+02 7.81860800e-03 9.71740200e-02
        2 -1    0    0  501    0 +0.0000000000e+00 +0.0000000000e+00 +1.8523195333e+02 1.8523195333e+02 0.0000000000e+00 0.0000e+00 -1.0000e+00
       -2 -1    0    0    0  501 -0.0000000000e+00 -0.0000000000e+00 -1.9489346812e+02 1.9489346812e+02 0.0000000000e+00 0.0000e+00 1.0000e+00
      -13  1    1    2    0    0 +1.7577706952e+01 -1.0301129797e+02 -1.6356472218e+02 1.9409719635e+02 0.0000000000e+00 0.0000e+00 1.0000e+00
       13  1    1    2    0    0 -1.7577706952e+01 +1.0301129797e+02 +1.5390320738e+02 1.8602822510e+02 0.0000000000e+00 0.0000e+00 -1.0000e+00
<mgrwt>
<rscale>  0 0.38000262E+03</rscale>
<asrwt>0</asrwt>
<pdfrwt beam="1">  1        2 0.28497224E-01 0.38000262E+03</pdfrwt>
<pdfrwt beam="2">  1       -2 0.29983610E-01 0.38000262E+03</pdfrwt>
<totfact> 0.22480937E+03</totfact>
</mgrwt>
<rwgt>
<wgt id='morphing_basis_vector_1'> +2.2106705e-04 </wgt>
<wgt id='morphing_basis_vector_2'> +1.1887319e-04 </wgt>
<wgt id='morphing_basis_vector_3'> +1.3844134e-04 </wgt>
<wgt id='morphing_basis_vector_4'> +2.7910980e-05 </wgt>
<wgt id='morphing_basis_vector_5'> +2.3497994e-05 </wgt>
</rwgt>
</event>
<event>
 4      1 +3.1894900e-05 3.72352400e+02 7.81860800e-03 9.74179600e-02
        2 -1    0    0  501    0 +0.0000000000e+00 +0.0000000000e+00 +1.4417557021e+03 1.4417557021e+03 0.0000000000e+00 0.0000e+00 -1.0000e+00
       -2 -1    0    0    0  501 -0.0000000000e+00 -0.0000000000e+00 -2.4041225062e+01 2.4041225062e+01 0.0000000000e+00 0.0000e+00 1.0000e+00
      -13  1    1    2    0    0 -1.5979090507e+02 +8.2789421802e+01 +8.9659363560e+02 9.1447655470e+02 0.0000000000e+00 0.0000e+00 1.0000e+00
       13  1    1    2    0    0 +1.5979090507e+02 -8.2789421802e+01 +5.2112084143e+02 5.5132037245e+02 0.0000000000e+00 0.0000e+00 -1.0000e+00
<mgrwt>
<rscale>  0 0.37235238E+03</rscale>
<asrwt>0</asrwt>
<pdfrwt beam="1">  1        2 0.22180850E+00 0.37235238E+03</pdfrwt>
<pdfrwt beam="2">  1       -2 0.36986511E-02 0.37235238E+03</pdfrwt>
<totfact> 0.48448229E+03</totfact>
</mgrwt>
<rwgt>
<wgt id='morphing_basis_vector_1'> +2.2578837e-04 </wgt>
<wgt id='morphing_basis_vector_2'> +1.6074282e-04 </wgt>
<wgt id='morphing_basis_vector_3'> +1.1301615e-04 </wgt>
<wgt id='morphing_basis_vector_4'> +2.8535138e-05 </wgt>
<wgt id='morphing_basis_vector_5'> +2.0572512e-05 </wgt>
</rwgt>
</event>
<event>
 4      1 +3.1894900e-05 3.94581500e+02 7.81860800e-03 9.67257500e-02
        2 -1    0    0  501    0 +0.0000000000e+00 +0.0000000000e+00 +9.9496904646e+02 9.9496904646e+02 0.0000000000e+00 0.0000e+00 -1.0000e+00
       -2 -1    0    0    0  501 -0.0000000000e+00 -0.0000000000e+00 -3.9120450685e+01 3.9120450685e+01 0.0000000000e+00 0.0000e+00 1.0000e+00
      -13  1    1    2    0    0 +2.4965704756e+01 -1.4352058863e+02 +1.2923795139e+02 1.9474058091e+02 0.0000000000e+00 0.0000e+00 1.0000e+00
       13  1    1    2    0    0 -2.4965704756e+01 +1.4352058863e+02 +8.2661064438e+02 8.3934891623e+02 0.0000000000e+00 0.0000e+00 -1.0000e+00
<mgrwt>
<rscale>  0 0.39458149E+03</rscale>
<asrwt>0</asrwt>
<pdfrwt beam="1">  1        2 0.15307214E+00 0.39458149E+03</pdfrwt>
<pdfrwt beam="2">  1       -2 0.60185316E-02 0.39458149E+03</pdfrwt>
<totfact> 0.41780437E+03</totfact>
</mgrwt>
<rwgt>
<wgt id='morphing_basis_vector_1'> +2.4385408e-04 </wgt>
<wgt id='morphing_basis_vector_2'> +1.3167340e-04 </wgt>
<wgt id='morphing_basis_vector_3'> +1.5487487e-04 </wgt>
<wgt id='morphing_basis_vector_4'> +3.3604013e-05 </wgt>
<wgt id='morphing_basis_vector_5'> +3.2357409e-05 </wgt>
</rwgt>
</event>
<event>
 4      1 +3.1894900e-05 3.94435700e+02 7.81860800e-03 9.67301300e-02
        2 -1    0    0  501    0 +0.0000000000e+00 +0.0000000000e+00 +2.4821556039e+02 2.4821556039e+02 0.0000000000e+00 0.0000e+00 1.0000e+00
       -2 -1    0    0    0  501 -0.0000000000e+00 -0.0000000000e+00 -1.5669799590e+02 1.5669799590e+02 0.0000000000e+00 0.0000e+00 -1.0000e+00
      -13  1    1    2    0    0 +1.0765124410e+01 +1.8394331229e+02 -2.6421533505e+01 1.8614276100e+02 0.0000000000e+00 0.0000e+00 -1.0000e+00
       13  1    1    2    0    0 -1.0765124410e+01 -1.8394331229e+02 +1.1793909799e+02 2.1877079530e+02 0.0000000000e+00 0.0000e+00 1.0000e+00
<mgrwt>
<rscale>  0 0.39443570E+03</rscale>
<asrwt>0</asrwt>
<pdfrwt beam="1">  1        2 0.38187009E-01 0.39443570E+03</pdfrwt>
<pdfrwt beam="2">  1       -2 0.24107384E-01 0.39443570E+03</pdfrwt>
<totfact> 0.23458277E+03</totfact>
</mgrwt>
<rwgt>
<wgt id='morphing_basis_vector_1'> +2.4513896e-04 </wgt>
<wgt id='morphing_basis_vector_2'> +1.3618346e-04 </wgt>
<wgt id='morphing_basis_vector_3'> +1.5321344e-04 </wgt>
<wgt id='morphing_basis_vector_4'> +3.3680462e-05 </wgt>
<wgt id='morphing_basis_vector_5'> +3.2360191e-05 </wgt>
</rwgt>
</event>
<event>
 4      1 +3.1894900e-05 3.66682100e+02 7.81860800e-03 9.76028600e-02
        2 -1    0    0  501    0 +0.0000000000e+00 +0.0000000000e+00 +9.6270986088e+02 9.6270986088e+02 0.0000000000e+00 0.0000e+00 -1.0000e+00
       -2 -1    0    0    0  501 -0.0000000000e+00 -0.0000000000e+00 -3.4915970489e+01 3.4915970489e+01 0.0000000000e+00 0.0000e+00 1.0000e+00
      -13  1    1    2    0    0 +1.3142880796e+02 +9.4489138640e+01 +2.2966178948e+02 2.8097378246e+02 0.0000000000e+00 0.0000e+00 1.0000e+00
       13  1    1    2    0    0 -1.3142880796e+02 -9.4489138640e+01 +6.9813210091e+02 7.1665204891e+02 0.0000000000e+00 0.0000e+00 -1.0000e+00
<mgrwt>
<rscale>  0 0.36668215E+03</rscale>
<asrwt>0</asrwt>
<pdfrwt beam="1">  1        2 0.14810919E+00 0.36668215E+03</pdfrwt>
<pdfrwt beam="2">  1       -2 0.53716885E-02 0.36668215E+03</pdfrwt>
<totfact> 0.51838555E+03</totfact>
</mgrwt>
<rwgt>
<wgt id='morphing_basis_vector_1'> +2.0293456e-04 </wgt>
<wgt id='morphing_basis_vector_2'> +1.1133629e-04 </wgt>
<wgt id='morphing_basis_vector_3'> +1.2383643e-04 </wgt>
<wgt id='morphing_basis_vector_4'> +2.3834099e-05 </wgt>
<wgt id='morphing_basis_vector_5'> +1.6929078e-05 </wgt>
</rwgt>
</event>
<event>
 4      1 +3.1894900e-05 3.68660800e+02 7.81860800e-03 9.75379300e-02
        2 -1    0    0  501    0 +0.0000000000e+00 +0.0000000000e+00 +1.0461524218e+03 1.0461524218e+03 0.0000000000e+00 0.0000e+00 -1.0000e+00
       -2 -1    0    0    0  501 -0.0000000000e+00 -0.0000000000e+00 -3.2478719615e+01 3.2478719615e+01 0.0000000000e+00 0.0000e+00 1.0000e+00
      -13  1    1    2    0    0 +1.4904692413e+02 -7.4560102344e+01 +2.7639343453e+02 3.2274994207e+02 0.0000000000e+00 0.0000e+00 1.0000e+00
       13  1    1    2    0    0 -1.4904692413e+02 +7.4560102344e+01 +7.3728026766e+02 7.5588119936e+02 0.0000000000e+00 0.0000e+00 -1.0000e+00
<mgrwt>
<rscale>  0 0.36866077E+03</rscale>
<asrwt>0</asrwt>
<pdfrwt beam="1">  1        2 0.16094650E+00 0.36866077E+03</pdfrwt>
<pdfrwt beam="2">  1       -2 0.49967269E-02 0.36866077E+03</pdfrwt>
<totfact> 0.51491162E+03</totfact>
</mgrwt>
<rwgt>
<wgt id='morphing_basis_vector_1'> +2.0587085e-04 </wgt>
<wgt id='morphing_basis_vector_2'> +1.1342077e-04 </wgt>
<wgt id='morphing_basis_vector_3'> +1.2554388e-04 </wgt>
<wgt id='morphing_basis_vector_4'> +2.4454791e-05 </wgt>
<wgt id='morphing_basis_vector_5'> +1.7843981e-05 </wgt>
</rwgt>
</event>
<event>
 4      1 +3.1894900e-05 4.17237000e+02 7.81860800e-03 9.60686400e-02
        2 -1    0    0  501    0 +0.0000000000e+00 +0.0000000000e+00 +2.6288967112e+02 2.6288967112e+02 0.0000000000e+00 0.0000e+00 -1.0000e+00
       -2 -1    0    0    0  501 -0.0000000000e+00 -0.0000000000e+00 -1.6555110123e+02 1.6555110123e+02 0.0000000000e+00 0.0000e+00 1.0000e+00
      -13  1    1    2    0    0 -2.1519866274e+01 +2.0700026282e+02 +6.3530683885e+01 2.1759678593e+02 0.0000000000e+00 0.0000e+00 1.0000e+00
       13  1    1    2    0    0 +2.1519866274e+01 -2.0700026282e+02 +3.3807886012e+01 2.1084398642e+02 0.0000000000e+00 0.0000e+00 -1.0000e+00
<mgrwt>
<rscale>  0 0.41723698E+03</rscale>
<asrwt>0</asrwt>
<pdfrwt beam="1">  1        2 0.40444565E-01 0.41723698E+03</pdfrwt>
<pdfrwt beam="2">  1       -2 0.25469400E-01 0.41723698E+03</pdfrwt>
<totfact> 0.20062466E+03</totfact>
</mgrwt>
<rwgt>
<wgt id='morphing_basis_vector_1'> +2.9407963e-04 </wgt>
<wgt id='morphing_basis_vector_2'> +1.8721584e-04 </wgt>
<wgt id='morphing_basis_vector_3'> +1.7517650e-04 </wgt>
<wgt id='morphing_basis_vector_4'> +4.4462195e-05 </wgt>
<wgt id='morphing_basis_vector_5'> +5.0477834e-05 </wgt>
</rwgt>
</event>
<event>
 4      1 +3.1894900e-05 4.27605200e+02 7.81860800e-03 9.57825400e-02
        2 -1    0    0  501    0 +0.0000000000e+00 +0.0000000000e+00 +1.3923830059e+03 1.3923830059e+03 0.0000000000e+00 0.0000e+00 -1.0000e+00
       -2 -1    0    0    0  501 -0.0000000000e+00 -0.0000000000e+00 -3.2829732764e+01 3.2829732764e+01 0.0000000000e+00 0.0000e+00 1.0000e+00
      -13  1    1    2    0    0 +5.1839783815e+01 -2.0058502790e+02 +5.0373040358e+02 5.4467057576e+02 0.0000000000e+00 0.0000e+00 1.0000e+00
       13  1    1    2    0    0 -5.1839783815e+01 +2.0058502790e+02 +8.5582286958e+02 8.8054216293e+02 0.0000000000e+00 0.0000e+00 -1.0000e+00
<mgrwt>
<rscale>  0 0.42760525E+03</rscale>
<asrwt>0</asrwt>
<pdfrwt beam="1">  1        2 0.21421272E+00 0.42760525E+03</pdfrwt>
<pdfrwt beam="2">  1       -2 0.50507292E-02 0.42760525E+03</pdfrwt>
<totfact> 0.32339934E+03</totfact>
</mgrwt>
<rwgt>
<wgt id='morphing_basis_vector_1'> +3.0591886e-04 </wgt>
<wgt id='morphing_basis_vector_2'> +1.7414994e-04 </wgt>
<wgt id='morphing_basis_vector_3'> +1.9729328e-04 </wgt>
<wgt id='morphing_basis_vector_4'> +5.0566410e-05 </wgt>
<wgt id='morphing_basis_vector_5'> +5.9589173e-05 </wgt>
</rwgt>
</event>
<event>
 4      1 +3.1894900e-05 3.72358000e+02 7.81860800e-03 9.74177800e-02
        2 -1    0    0  501    0 +0.0000000000e+00 +0.0000000000e+00 +4.5037798165e+01 4.5037798165e+01 0.0000000000e+00 0.0000e+00 -1.0000e+00
       -2 -1    0    0    0  501 -0.0000000000e+00 -0.0000000000e+00 -7.6963412128e+02 7.6963412128e+02 0.0000000000e+00 0.0000e+00 1.0000e+00
      -13  1    1    2    0    0 +1.0901249315e+02 +3.7333934677e+01 -6.8224473090e+02 6.9190708855e+02 0.0000000000e+00 0.0000e+00 1.0000e+00
       13  1    1    2    0    0 -1.0901249315e+02 -3.7333934677e+01 -4.2351592207e+01 1.2276483089e+02 0.0000000000e+00 0.0000e+00 -1.0000e+00
<mgrwt>
<rscale>  0 0.37235803E+03</rscale>
<asrwt>0</asrwt>
<pdfrwt beam="1">  1        2 0.69288924E-02 0.37235803E+03</pdfrwt>
<pdfrwt beam="2">  1       -2 0.11840524E+00 0.37235803E+03</pdfrwt>
<totfact> 0.74942330E+02</totfact>
</mgrwt>
<rwgt>
<wgt id='morphing_basis_vector_1'> +2.1005209e-04 </wgt>
<wgt id='morphing_basis_vector_2'> +1.1315997e-04 </wgt>
<wgt id='morphing_basis_vector_3'> +1.3036562e-04 </wgt>
<wgt id='morphing_basis_vector_4'> +2.5371011e-05 </wgt>
<wgt id='morphing_basis_vector_5'> +1.9538351e-05 </wgt>
</rwgt>
</event>
<event>
 4      1 +3.1894900e-05 4.08933300e+02 7.81860800e-03 9.63042200e-02
        2 -1    0    0  501    0 +0.0000000000e+00 +0.0000000000e+00 +9.6378481045e+02 9.6378481045e+02 0.0000000000e+00 0.0000e+00 1.0000e+00
       -2 -1    0    0    0  501 -0.0000000000e+00 -0.0000000000e+00 -4.3377539575e+01 4.3377539575e+01 0.0000000000e+00 0.0000e+00 -1.0000e+00
      -13  1    1    2    0    0 -6.5134610589e+01 +1.2549239095e+02 +9.6429241927e+01 1.7114162667e+02 0.0000000000e+00 0.0000e+00 -1.0000e+00
       13  1    1    2    0    0 +6.5134610589e+01 -1.2549239095e+02 +8.2397802895e+02 8.3602072335e+02 0.0000000000e+00 0.0000e+00 1.0000e+00
<mgrwt>
<rscale>  0 0.40893331E+03</rscale>
<asrwt>0</asrwt>
<pdfrwt beam="1">  1        2 0.14827457E+00 0.40893331E+03</pdfrwt>
<pdfrwt beam="2">  1       -2 0.66734684E-02 0.40893331E+03</pdfrwt>
<totfact> 0.37327963E+03</totfact>
</mgrwt>
<rwgt>
<wgt id='morphing_basis_vector_1'> +2.6791895e-04 </wgt>
<wgt id='morphing_basis_vector_2'> +1.4449979e-04 </wgt>
<wgt id='morphing_basis_vector_3'> +1.7324799e-04 </wgt>
<wgt id='morphing_basis_vector_4'> +4.0286448e-05 </wgt>
<wgt id='morphing_basis_vector_5'> +4.2835804e-05 </wgt>
</rwgt>
</event>
<event>
 4      1 +3.1894900e-05 3.79455400e+02 7.81860800e-03 9.71912600e-02
        2 -1    0    0  501    0 +0.0000000000e+00 +0.0000000000e+00 +8.3439494080e+01 8.3439494080e+01 0.0000000000e+00 0.0000e+00 -1.0000e+00
       -2 -1    0    0    0  501 -0.0000000000e+00 -0.0000000000e+00 -4.3140965259e+02 4.3140965259e+02 0.0000000000e+00 0.0000e+00 1.0000e+00
      -13  1    1    2    0    0 +9.3102715173e+01 +1.5644574046e+02 -2.4645982650e+02 3.0640794924e+02 0.0000000000e+00 0.0000e+00 1.0000e+00
       13  1    1    2    0    0 -9.3102715173e+01 -1.5644574046e+02 -1.0151033200e+02 2.0844119742e+02 0.0000000000e+00 0.0000e+00 -1.0000e+00
<mgrwt>
<rscale>  0 0.37945542E+03</rscale>
<asrwt>0</asrwt>
<pdfrwt beam="1">  1        2 0.12836846E-01 0.37945542E+03</pdfrwt>
<pdfrwt beam="2">  1       -2 0.66370714E-01 0.37945542E+03</pdfrwt>
<totfact> 0.12940632E+03</totfact>
</mgrwt>
<rwgt>
<wgt id='morphing_basis_vector_1'> +2.2247032e-04 </wgt>
<wgt id='morphing_basis_vector_2'> +1.2515150e-04 </wgt>
<wgt id='morphing_basis_vector_3'> +1.3550247e-04 </wgt>
<wgt id='morphing_basis_vector_4'> +2.8085680e-05 </wgt>
<wgt id='morphing_basis_vector_5'> +2.3345762e-05 </wgt>
</rwgt>
</event>
<event>
 4      1 +3.1894900e-05 4.02244200e+02 7.81860800e-03 9.64983500e-02
        2 -1    0    0  501    0 +0.0000000000e+00 +0.0000000000e+00 +5.4003481349e+01 5.4003481349e+01 0.0000000000e+00 0.0000e+00 -1.0000e+00
       -2 -1    0    0    0  501 -0.0000000000e+00 -0.0000000000e+00 -7.4902773729e+02 7.4902773729e+02 0.0000000000e+00 0.0000e+00 1.0000e+00
      -13  1    1    2    0    0 +1.7867577781e+02 -1.3822130645e+00 -5.3181960733e+02 5.6103390168e+02 0.0000000000e+00 0.0000e+00 1.0000e+00
       13  1    1    2    0    0 -1.7867577781e+02 +1.3822130645e+00 -1.6320464861e+02 2.4199731696e+02 0.0000000000e+00 0.0000e+00 -1.0000e+00
<mgrwt>
<rscale>  0 0.40224423E+03</rscale>
<asrwt>0</asrwt>
<pdfrwt beam="1">  1        2 0.83082286E-02 0.40224423E+03</pdfrwt>
<pdfrwt beam="2">  1       -2 0.11523503E+00 0.40224423E+03</pdfrwt>
<totfact> 0.63456333E+02</totfact>
</mgrwt>
<rwgt>
<wgt id='morphing_basis_vector_1'> +2.5737554e-04 </wgt>
<wgt id='morphing_basis_vector_2'> +1.4118711e-04 </wgt>
<wgt id='morphing_basis_vector_3'> +1.6358707e-04 </wgt>
<wgt id='morphing_basis_vector_4'> +3.7074332e-05 </wgt>
<wgt id='morphing_basis_vector_5'> +3.7782519e-05 </wgt>
</rwgt>
</event>
<event>
 4      1 +3.1894900e-05 3.91768200e+02 7.81860800e-03 9.68106200e-02
        2 -1    0    0  501    0 +0.0000000000e+00 +0.0000000000e+00 +3.7853832160e+02 3.7853832160e+02 0.0000000000e+00 0.0000e+00 -1.0000e+00
       -2 -1    0    0    0  501 -0.0000000000e+00 -0.0000000000e+00 -1.0136512299e+02 1.0136512299e+02 0.0000000000e+00 0.0000e+00 1.0000e+00
      -13  1    1    2    0    0 -1.6368076057e+02 +1.0759007330e+02 +1.4090054819e+02 2.4128816741e+02 0.0000000000e+00 0.0000e+00 1.0000e+00
       13  1    1    2    0    0 +1.6368076057e+02 -1.0759007330e+02 +1.3627265042e+02 2.3861527718e+02 0.0000000000e+00 0.0000e+00 -1.0000e+00
<mgrwt>
<rscale>  0 0.39176821E+03</rscale>
<asrwt>0</asrwt>
<pdfrwt beam="1">  1        2 0.58236664E-01 0.39176821E+03</pdfrwt>
<pdfrwt beam="2">  1       -2 0.15594635E-01 0.39176821E+03</pdfrwt>
<totfact> 0.29985394E+03</totfact>
</mgrwt>
<rwgt>
<wgt id='morphing_basis_vector_1'> +2.4675497e-04 </wgt>
<wgt id='morphing_basis_vector_2'> +1.5181311e-04 </wgt>
<wgt id='morphing_basis_vector_3'> +1.4416380e-04 </wgt>
<wgt id='morphing_basis_vector_4'> +3.3199713e-05 </wgt>
<wgt id='morphing_basis_vector_5'> +3.1002162e-05 </wgt>
</rwgt>
</event>
<event>
 4      1 +3.1894900e-05 4.07715100e+02 7.81860800e-03 9.63392800e-02
        2 -1    0    0  501    0 +0.0000000000e+00 +0.0000000000e+00 +4.0650583854e+02 4.0650583854e+02 0.0000000000e+00 0.0000e+00 1.0000e+00
       -2 -1    0    0    0  501 -0.0000000000e+00 -0.0000000000e+00 -1.0223196609e+02 1.0223196609e+02 0.0000000000e+00 0.0000e+00 -1.0000e+00
      -13  1    1    2    0    0 -7.7229793612e+01 +8.1753284181e+01 -6.0021443117e+01 1.2747789663e+02 0.0000000000e+00 0.0000e+00 -1.0000e+00
       13  1    1    2    0    0 +7.7229793612e+01 -8.1753284181e+01 +3.6429531557e+02 3.8125990799e+02 0.0000000000e+00 0.0000e+00 1.0000e+00
<mgrwt>
<rscale>  0 0.40771505E+03</rscale>
<asrwt>0</asrwt>
<pdfrwt beam="1">  1        2 0.62539359E-01 0.40771505E+03</pdfrwt>
<pdfrwt beam="2">  1       -2 0.15727995E-01 0.40771505E+03</pdfrwt>
<totfact> 0.27349074E+03</totfact>
</mgrwt>
<rwgt>
<wgt id='morphing_basis_vector_1'> +2.6562656e-04 </wgt>
<wgt id='morphing_basis_vector_2'> +1.4283789e-04 </wgt>
<wgt id='morphing_basis_vector_3'> +1.7176811e-04 </wgt>
<wgt id='morphing_basis_vector_4'> +3.9668849e-05 </wgt>
<wgt id='morphing_basis_vector_5'> +4.1862885e-05 </wgt>
</rwgt>
</event>
<event>
 4      1 +3.1894900e-05 3.76655500e+02 7.81860800e-03 9.72799800e-02
        2 -1    0    0  501    0 +0.0000000000e+00 +0.0000000000e+00 +1.2179954292e+02 1.2179954292e+02 0.0000000000e+00 0.0000e+00 -1.0000e+00
       -2 -1    0    0    0  501 -0.0000000000e+00 -0.0000000000e+00 -2.9119436188e+02 2.9119436188e+02 0.0000000000e+00 0.0000e+00 1.0000e+00
      -13  1    1    2    0    0 +9.2873815219e+01 -1.6252706750e+02 -6.2046557065e+01 1.9720641082e+02 0.0000000000e+00 0.0000e+00 1.0000e+00
       13  1    1    2    0    0 -9.2873815219e+01 +1.6252706750e+02 -1.0734826190e+02 2.1578749398e+02 0.0000000000e+00 0.0000e+00 -1.0000e+00
<mgrwt>
<rscale>  0 0.37665549E+03</rscale>
<asrwt>0</asrwt>
<pdfrwt beam="1">  1        2 0.18738392E-01 0.37665549E+03</pdfrwt>
<pdfrwt beam="2">  1       -2 0.44799131E-01 0.37665549E+03</pdfrwt>
<totfact> 0.17759989E+03</totfact>
</mgrwt>
<rwgt>
<wgt id='morphing_basis_vector_1'> +2.2597202e-04 </wgt>
<wgt id='morphing_basis_vector_2'> +1.4598463e-04 </wgt>
<wgt id='morphing_basis_vector_3'> +1.2429846e-04 </wgt>
<wgt id='morphing_basis_vector_4'> +2.8522873e-05 </wgt>
<wgt id='morphing_basis_vector_5'> +2.2356322e-05 </wgt>
</rwgt>
</event>
<event>
 4      1 +3.1894900e-05 4.14460500e+02 7.81860800e-03 9.61467600e-02
        2 -1    0    0  501    0 +0.0000000000e+00 +0.0000000000e+00 +3.5295082475e+02 3.5295082475e+02 0.0000000000e+00 0.0000e+00 -1.0000e+00
       -2 -1    0    0    0  501 -0.0000000000e+00 -0.0000000000e+00 -1.2167242881e+02 1.2167242881e+02 0.0000000000e+00 0.0000e+00 1.0000e+00
      -13  1    1    2    0    0 +5.9512082488e+00 +1.8253512769e+02 +2.2778234494e+02 2.9195767910e+02 0.0000000000e+00 0.0000e+00 1.0000e+00
       13  1    1    2    0    0 -5.9512082488e+00 -1.8253512769e+02 +3.4960509949e+00 1.8266557446e+02 0.0000000000e+00 0.0000e+00 -1.0000e+00
<mgrwt>
<rscale>  0 0.41446054E+03</rscale>
<asrwt>0</asrwt>
<pdfrwt beam="1">  1        2 0.54300127E-01 0.41446054E+03</pdfrwt>
<pdfrwt beam="2">  1       -2 0.18718835E-01 0.41446054E+03</pdfrwt>
<totfact> 0.24144967E+03</totfact>
</mgrwt>
<rwgt>
<wgt id='morphing_basis_vector_1'> +3.2020607e-04 </wgt>
<wgt id='morphing_basis_vector_2'> +2.8014224e-04 </wgt>
<wgt id='morphing_basis_vector_3'> +1.4412703e-04 </wgt>
<wgt id='morphing_basis_vector_4'> +4.2848610e-05 </wgt>
<wgt id='morphing_basis_vector_5'> +5.0069593e-05 </wgt>
</rwgt>
</event>
<event>
 4      1 +3.1894900e-05 3.67444200e+02 7.81860800e-03 9.75778000e-02
        2 -1    0    0  501    0 +0.0000000000e+00 +0.0000000000e+00 +2.6694910959e+02 2.6694910959e+02 0.0000000000e+00 0.0000e+00 -1.0000e+00
       -2 -1    0    0    0  501 -0.0000000000e+00 -0.0000000000e+00 -1.2644283625e+02 1.2644283625e+02 0.0000000000e+00 0.0000e+00 1.0000e+00
      -13  1    1    2    0    0 -4.3651858620e+01 +1.3239462721e+02 -5.7863440875e+01 1.5093707253e+02 0.0000000000e+00 0.0000e+00 1.0000e+00
       13  1    1    2    0    0 +4.3651858620e+01 -1.3239462721e+02 +1.9836971421e+02 2.4245487331e+02 0.0000000000e+00 0.0000e+00 -1.0000e+00
<mgrwt>
<rscale>  0 0.36744416E+03</rscale>
<asrwt>0</asrwt>
<pdfrwt beam="1">  1        2 0.41069094E-01 0.36744416E+03</pdfrwt>
<pdfrwt beam="2">  1       -2 0.19452744E-01 0.36744416E+03</pdfrwt>
<totfact> 0.30813293E+03</totfact>
</mgrwt>
<rwgt>
<wgt id='morphing_basis_vector_1'> +2.0340983e-04 </wgt>
<wgt id='morphing_basis_vector_2'> +1.1017167e-04 </wgt>
<wgt id='morphing_basis_vector_3'> +1.2522557e-04 </wgt>
<wgt id='morphing_basis_vector_4'> +2.3924616e-05 </wgt>
<wgt id='morphing_basis_vector_5'> +1.7235427e-05 </wgt>
</rwgt>
</event>
<event>
 4      1 +3.1894900e-05 3.74752200e+02 7.81860800e-03 9.73407700e-02
        2 -1    0    0  501    0 +0.0000000000e+00 +0.0000000000e+00 +1.4126416133e+03 1.4126416133e+03 0.0000000000e+00 0.0000e+00 -1.0000e+00
       -2 -1    0    0    0  501 -0.0000000000e+00 -0.0000000000e+00 -2.4853999799e+01 2.4853999799e+01 0.0000000000e+00 0.0000e+00 1.0000e+00
      -13  1    1    2    0    0 +1.7031035242e+02 -6.0910584451e+01 +5.0620791771e+02 5.3755201739e+02 0.0000000000e+00 0.0000e+00 1.0000e+00
       13  1    1    2    0    0 -1.7031035242e+02 +6.0910584451e+01 +8.8157969582e+02 8.9994359575e+02 0.0000000000e+00 0.0000e+00 -1.0000e+00
<mgrwt>
<rscale>  0 0.37475215E+03</rscale>
<asrwt>0</asrwt>
<pdfrwt beam="1">  1        2 0.21732942E+00 0.37475215E+03</pdfrwt>
<pdfrwt beam="2">  1       -2 0.38236934E-02 0.37475215E+03</pdfrwt>
<totfact> 0.47817601E+03</totfact>
</mgrwt>
<rwgt>
<wgt id='morphing_basis_vector_1'> +2.1574670e-04 </wgt>
<wgt id='morphing_basis_vector_2'> +1.2187402e-04 </wgt>
<wgt id='morphing_basis_vector_3'> +1.3034174e-04 </wgt>
<wgt id='morphing_basis_vector_4'> +2.6570946e-05 </wgt>
<wgt id='morphing_basis_vector_5'> +2.0882387e-05 </wgt>
</rwgt>
</event>
<event>
 4      1 +3.1894900e-05 3.61170900e+02 7.81860800e-03 9.77860600e-02
        2 -1    0    0  501    0 +0.0000000000e+00 +0.0000000000e+00 +1.0578089824e+02 1.0578089824e+02 0.0000000000e+00 0.0000e+00 -1.0000e+00
       -2 -1    0    0    0  501 -0.0000000000e+00 -0.0000000000e+00 -3.0828909216e+02 3.0828909216e+02 0.0000000000e+00 0.0000e+00 1.0000e+00
      -13  1    1    2    0    0 -6.4328373255e+01 +5.7656766195e+01 -2.8306437697e+02 2.9595250261e+02 0.0000000000e+00 0.0000e+00 1.0000e+00
       13  1    1    2    0    0 +6.4328373255e+01 -5.7656766195e+01 +8.0556183051e+01 1.1811748779e+02 0.0000000000e+00 0.0000e+00 -1.0000e+00
<mgrwt>
<rscale>  0 0.36117086E+03</rscale>
<asrwt>0</asrwt>
<pdfrwt beam="1">  1        2 0.16273985E-01 0.36117086E+03</pdfrwt>
<pdfrwt beam="2">  1       -2 0.47429090E-01 0.36117086E+03</pdfrwt>
<totfact> 0.18863287E+03</totfact>
</mgrwt>
<rwgt>
<wgt id='morphing_basis_vector_1'> +1.9469329e-04 </wgt>
<wgt id='morphing_basis_vector_2'> +1.0493983e-04 </wgt>
<wgt id='morphing_basis_vector_3'> +1.1953709e-04 </wgt>
<wgt id='morphing_basis_vector_4'> +2.2115147e-05 </wgt>
<wgt id='morphing_basis_vector_5'> +1.4512693e-05 </wgt>
</rwgt>
</event>
<event>
 4      1 +3.1894900e-05 3.71391300e+02 7.81860800e-03 9.74490500e-02
        2 -1    0    0  501    0 +0.0000000000e+00 +0.0000000000e+00 +2.8146154487e+02 2.8146154487e+02 0.0000000000e+00 0.0000e+00 1.0000e+00
       -2 -1    0    0    0  501 -0.0000000000e+00 -0.0000000000e+00 -1.2251360972e+02 1.2251360972e+02 0.0000000000e+00 0.0000e+00 -1.0000e+00
      -13  1    1    2    0    0 +5.0533849794e+01 +1.1549405015e+02 -6.8834668572e+01 1.4363410873e+02 0.0000000000e+00 0.0000e+00 -1.0000e+00
       13  1    1    2    0    0 -5.0533849794e+01 -1.1549405015e+02 +2.2778260373e+02 2.6034104585e+02 0.0000000000e+00 0.0000e+00 1.0000e+00
<mgrwt>
<rscale>  0 0.37139128E+03</rscale>
<asrwt>0</asrwt>
<pdfrwt beam="1">  1        2 0.43301776E-01 0.37139128E+03</pdfrwt>
<pdfrwt beam="2">  1       -2 0.18848248E-01 0.37139128E+03</pdfrwt>
<totfact> 0.30600519E+03</totfact>
</mgrwt>
<rwgt>
<wgt id='morphing_basis_vector_1'> +2.0875215e-04 </wgt>
<wgt id='morphing_basis_vector_2'> +1.1263197e-04 </wgt>
<wgt id='morphing_basis_vector_3'> +1.2931461e-04 </wgt>
<wgt id='morphing_basis_vector_4'> +2.5081586e-05 </wgt>
<wgt id='morphing_basis_vector_5'> +1.9072789e-05 </wgt>
</rwgt>
</event>
<event>
 4      1 +3.1894900e-05 3.99891200e+02 7.81860800e-03 9.65676000e-02
        2 -1    0    0  501    0 +0.0000000000e+00 +0.0000000000e+00 +2.0666934144e+02 2.0666934144e+02 0.0000000000e+00 0.0000e+00 -1.0000e+00
       -2 -1    0    0    0  501 -0.0000000000e+00 -0.0000000000e+00 -1.9344057640e+02 1.9344057640e+02 0.0000000000e+00 0.0000e+00 1.0000e+00
      -13  1    1    2    0    0 +6.4379262084e+01 -1.0227031496e+02 -1.5276597430e+02 1.9478539373e+02 0.0000000000e+00 0.0000e+00 1.0000e+00
       13  1    1    2    0    0 -6.4379262084e+01 +1.0227031496e+02 +1.6599473934e+02 2.0532452410e+02 0.0000000000e+00 0.0000e+00 -1.0000e+00
<mgrwt>
<rscale>  0 0.39989117E+03</rscale>
<asrwt>0</asrwt>
<pdfrwt beam="1">  1        2 0.31795283E-01 0.39989117E+03</pdfrwt>
<pdfrwt beam="2">  1       -2 0.29760089E-01 0.39989117E+03</pdfrwt>
<totfact> 0.20121877E+03</totfact>
</mgrwt>
<rwgt>
<wgt id='morphing_basis_vector_1'> +2.5234868e-04 </wgt>
<wgt id='morphing_basis_vector_2'> +1.3573722e-04 </wgt>
<wgt id='morphing_basis_vector_3'> +1.6161728e-04 </wgt>
<wgt id='morphing_basis_vector_4'> +3.5929033e-05 </wgt>
<wgt id='morphing_basis_vector_5'> +3.6008581e-05 </wgt>
</rwgt>
</event>
<event>
 4      1 +3.1894900e-05 4.10755100e+02 7.81860800e-03 9.62520300e-02
        2 -1    0    0  501    0 +0.0000000000e+00 +0.0000000000e+00 +1.4088022201e+03 1.4088022201e+03 0.0000000000e+00 0.0000e+00 -1.0000e+00
       -2 -1    0    0    0  501 -0.0000000000e+00 -0.0000000000e+00 -2.9940290269e+01 2.9940290269e+01 0.0000000000e+00 0.0000e+00 1.0000e+00
      -13  1    1    2    0    0 +7.0703548806e+01 +1.7198259575e+02 +3.8401557891e+02 4.2666728244e+02 0.0000000000e+00 0.0000e+00 1.0000e+00
       13  1    1    2    0    0 -7.0703548806e+01 -1.7198259575e+02 +9.9484635091e+02 1.0120752279e+03 0.0000000000e+00 0.0000e+00 -1.0000e+00
<mgrwt>
<rscale>  0 0.41075515E+03</rscale>
<asrwt>0</asrwt>
<pdfrwt beam="1">  1        2 0.21673875E+00 0.41075515E+03</pdfrwt>
<pdfrwt beam="2">  1       -2 0.46061996E-02 0.41075515E+03</pdfrwt>
<totfact> 0.36382664E+03</totfact>
</mgrwt>
<rwgt>
<wgt id='morphing_basis_vector_1'> +2.7239543e-04 </wgt>
<wgt id='morphing_basis_vector_2'> +1.5013221e-04 </wgt>
<wgt id='morphing_basis_vector_3'> +1.7458860e-04 </wgt>
<wgt id='morphing_basis_vector_4'> +4.1233218e-05 </wgt>
<wgt id='morphing_basis_vector_5'> +4.4381824e-05 </wgt>
</rwgt>
</event>
<event>
 4      1 +3.1894900e-05 3.96428400e+02 7.81860800e-03 9.66704400e-02
        2 -1    0    0  501    0 +0.0000000000e+00 +0.0000000000e+00 +1.5531913310e+02 1.5531913310e+02 0.0000000000e+00 0.0000e+00 1.0000e+00
       -2 -1    0    0    0  501 -0.0000000000e+00 -0.0000000000e+00 -2.5295575383e+02 2.5295575383e+02 0.0000000000e+00 0.0000e+00 -1.0000e+00
      -13  1    1    2    0    0 -8.9436694587e+01 -9.2377323390e+01 -2.0417840014e+02 2.4129092669e+02 0.0000000000e+00 0.0000e+00 -1.0000e+00
       13  1    1    2    0    0 +8.9436694587e+01 +9.2377323390e+01 +1.0654177942e+02 1.6698396024e+02 0.0000000000e+00 0.0000e+00 1.0000e+00
<mgrwt>
<rscale>  0 0.39642840E+03</rscale>
<asrwt>0</asrwt>
<pdfrwt beam="1">  1        2 0.23895251E-01 0.39642840E+03</pdfrwt>
<pdfrwt beam="2">  1       -2 0.38916270E-01 0.39642840E+03</pdfrwt>
<totfact> 0.17332561E+03</totfact>
</mgrwt>
<rwgt>
<wgt id='morphing_basis_vector_1'> +2.4669025e-04 </wgt>
<wgt id='morphing_basis_vector_2'> +1.3279935e-04 </wgt>
<wgt id='morphing_basis_vector_3'> +1.5727757e-04 </wgt>
<wgt id='morphing_basis_vector_4'> +3.4386864e-05 </wgt>
<wgt id='morphing_basis_vector_5'> +3.3593827e-05 </wgt>
</rwgt>
</event>
<event>
 4      1 +3.1894900e-05 4.22056300e+02 7.81860800e-03 9.59345700e-02
        2 -1    0    0  501    0 +0.0000000000e+00 +0.0000000000e+00 +9.9433818891e+02 9.9433818891e+02 0.0000000000e+00 0.0000e+00 -1.0000e+00
       -2 -1    0    0    0  501 -0.0000000000e+00 -0.0000000000e+00 -4.4786457247e+01 4.4786457247e+01 0.0000000000e+00 0.0000e+00 1.0000e+00
      -13  1    1    2    0    0 +7.5964833460e+01 -1.9551572610e+02 +4.1778429450e+02 4.6748344549e+02 0.0000000000e+00 0.0000e+00 1.0000e+00
       13  1    1    2    0    0 -7.5964833460e+01 +1.9551572610e+02 +5.3176743716e+02 5.7164120067e+02 0.0000000000e+00 0.0000e+00 -1.0000e+00
<mgrwt>
<rscale>  0 0.42205632E+03</rscale>
<asrwt>0</asrwt>
<pdfrwt beam="1">  1        2 0.15297509E+00 0.42205632E+03</pdfrwt>
<pdfrwt beam="2">  1       -2 0.68902249E-02 0.42205632E+03</pdfrwt>
<totfact> 0.34068394E+03</totfact>
</mgrwt>
<rwgt>
<wgt id='morphing_basis_vector_1'> +2.9771710e-04 </wgt>
<wgt id='morphing_basis_vector_2'> +1.7576829e-04 </wgt>
<wgt id='morphing_basis_vector_3'> +1.8684851e-04 </wgt>
<wgt id='morphing_basis_vector_4'> +4.7194196e-05 </wgt>
<wgt id='morphing_basis_vector_5'> +5.4467826e-05 </wgt>
</rwgt>
</event>
<event>
 4      1 +3.1894900e-05 4.27977400e+02 7.81860800e-03 9.57724300e-02
        2 -1    0    0  501    0 +0.0000000000e+00 +0.0000000000e+00 +4.4783133318e+02 4.4783133318e+02 0.0000000000e+00 0.0000e+00 1.0000e+00
       -2 -1    0    0    0  501 -0.0000000000e+00 -0.0000000000e+00 -1.0225090728e+02 1.0225090728e+02 0.0000000000e+00 0.0000e+00 -1.0000e+00
      -13  1    1    2    0    0 -6.4412571306e+01 -1.9256514952e+02 +8.5988276773e+01 2.2050918324e+02 0.0000000000e+00 0.0000e+00 -1.0000e+00
       13  1    1    2    0    0 +6.4412571306e+01 +1.9256514952e+02 +2.5959214913e+02 3.2957305721e+02 0.0000000000e+00 0.0000e+00 1.0000e+00
<mgrwt>
<rscale>  0 0.42797738E+03</rscale>
<asrwt>0</asrwt>
<pdfrwt beam="1">  1        2 0.68897127E-01 0.42797738E+03</pdfrwt>
<pdfrwt beam="2">  1       -2 0.15730909E-01 0.42797738E+03</pdfrwt>
<totfact> 0.24570718E+03</totfact>
</mgrwt>
<rwgt>
<wgt id='morphing_basis_vector_1'> +3.0571640e-04 </wgt>
<wgt id='morphing_basis_vector_2'> +1.7169469e-04 </wgt>
<wgt id='morphing_basis_vector_3'> +1.9860307e-04 </wgt>
<wgt id='morphing_basis_vector_4'> +5.0860583e-05 </wgt>
<wgt id='morphing_basis_vector_5'> +5.9897549e-05 </wgt>
</rwgt>
</event>
<event>
 4      1 +3.1894900e-05 3.62604000e+02 7.81860800e-03 9.77380800e-02
        2 -1    0    0  501    0 +0.0000000000e+00 +0.0000000000e+00 +1.4362816289e+02 1.4362816289e+02 0.0000000000e+00 0.0000e+00 -1.0000e+00
       -2 -1    0    0    0  501 -0.0000000000e+00 -0.0000000000e+00 -2.2885773482e+02 2.2885773482e+02 0.0000000000e+00 0.0000e+00 1.0000e+00
      -13  1    1    2    0    0 +7.2788387071e+01 +5.1441254520e+01 -2.0479732397e+02 2.2335240286e+02 0.0000000000e+00 0.0000e+00 1.0000e+00
       13  1    1    2    0    0 -7.2788387071e+01 -5.1441254520e+01 +1.1956775204e+02 1.4913349485e+02 0.0000000000e+00 0.0000e+00 -1.0000e+00
<mgrwt>
<rscale>  0 0.36260400E+03</rscale>
<asrwt>0</asrwt>
<pdfrwt beam="1">  1        2 0.22096640E-01 0.36260400E+03</pdfrwt>
<pdfrwt beam="2">  1       -2 0.35208882E-01 0.36260400E+03</pdfrwt>
<totfact> 0.22713540E+03</totfact>
</mgrwt>
<rwgt>
<wgt id='morphing_basis_vector_1'> +1.9659738e-04 </wgt>
<wgt id='morphing_basis_vector_2'> +1.0594063e-04 </wgt>
<wgt id='morphing_basis_vector_3'> +1.2087627e-04 </wgt>
<wgt id='morphing_basis_vector_4'> +2.2500032e-05 </wgt>
<wgt id='morphing_basis_vector_5'> +1.5106508e-05 </wgt>
</rwgt>
</event>
<event>
 4      1 +3.1894900e-05 3.90445600e+02 7.81860800e-03 9.68507900e-02
        2 -1    0    0  501    0 +0.0000000000e+00 +0.0000000000e+00 +6.2086282680e+01 6.2086282680e+01 0.0000000000e+00 0.0000e+00 -1.0000e+00
       -2 -1    0    0    0  501 -0.0000000000e+00 -0.0000000000e+00 -6.1385446869e+02 6.1385446869e+02 0.0000000000e+00 0.0000e+00 1.0000e+00
      -13  1    1    2    0    0 -8.7679060499e+00 +1.5412146744e+02 -4.8277296070e+02 5.0685306992e+02 0.0000000000e+00 0.0000e+00 1.0000e+00
       13  1    1    2    0    0 +8.7679060499e+00 -1.5412146744e+02 -6.8995225311e+01 1.6908768145e+02 0.0000000000e+00 0.0000e+00 -1.0000e+00
<mgrwt>
<rscale>  0 0.39044560E+03</rscale>
<asrwt>0</asrwt>
<pdfrwt beam="1">  1        2 0.95517355E-02 0.39044560E+03</pdfrwt>
<pdfrwt beam="2">  1       -2 0.94439152E-01 0.39044560E+03</pdfrwt>
<totfact> 0.85996397E+02</totfact>
</mgrwt>
<rwgt>
<wgt id='morphing_basis_vector_1'> +2.3741468e-04 </wgt>
<wgt id='morphing_basis_vector_2'> +1.2859882e-04 </wgt>
<wgt id='morphing_basis_vector_3'> +1.4979745e-04 </wgt>
<wgt id='morphing_basis_vector_4'> +3.1905293e-05 </wgt>
<wgt id='morphing_basis_vector_5'> +2.9680776e-05 </wgt>
</rwgt>
</event>
<event>
 4      1 +3.1894900e-05 4.06833000e+02 7.81860800e-03 9.63647500e-02
        2 -1    0    0  501    0 +0.0000000000e+00 +0.0000000000e+00 +1.3162308269e+02 1.3162308269e+02 0.0000000000e+00 0.0000e+00 -1.0000e+00
       -2 -1    0    0    0  501 -0.0000000000e+00 -0.0000000000e+00 -3.1436947689e+02 3.1436947689e+02 0.0000000000e+00 0.0000e+00 1.0000e+00
      -13  1    1    2    0    0 +1.8752676107e+02 +6.5405232248e+01 -1.3958533396e+02 2.4275130480e+02 0.0000000000e+00 0.0000e+00 1.0000e+00
       13  1    1    2    0    0 -1.8752676107e+02 -6.5405232248e+01 -4.3161060238e+01 2.0324125478e+02 0.0000000000e+00 0.0000e+00 -1.0000e+00
<mgrwt>
<rscale>  0 0.40683304E+03</rscale>
<asrwt>0</asrwt>
<pdfrwt beam="1">  1        2 0.20249705E-01 0.40683304E+03</pdfrwt>
<pdfrwt beam="2">  1       -2 0.48364535E-01 0.40683304E+03</pdfrwt>
<totfact> 0.14017750E+03</totfact>
</mgrwt>
<rwgt>
<wgt id='morphing_basis_vector_1'> +2.6766163e-04 </wgt>
<wgt id='morphing_basis_vector_2'> +1.5292821e-04 </wgt>
<wgt id='morphing_basis_vector_3'> +1.6736339e-04 </wgt>
<wgt id='morphing_basis_vector_4'> +3.9335308e-05 </wgt>
<wgt id='morphing_basis_vector_5'> +4.1404882e-05 </wgt>
</rwgt>
</event>
<event>
 4      1 +3.1894900e-05 3.65846000e+02 7.81860800e-03 9.76304300e-02
        2 -1    0    0  501    0 +0.0000000000e+00 +0.0000000000e+00 +1.3056432902e+02 1.3056432902e+02 0.0000000000e+00 0.0000e+00 1.0000e+00
       -2 -1    0    0    0  501 -0.0000000000e+00 -0.0000000000e+00 -2.5627851128e+02 2.5627851128e+02 0.0000000000e+00 0.0000e+00 -1.0000e+00
      -13  1    1    2    0    0 +1.6174321432e+02 -6.9738738886e+01 -1.1505065877e+02 2.1038301539e+02 0.0000000000e+00 0.0000e+00 -1.0000e+00
       13  1    1    2    0    0 -1.6174321432e+02 +6.9738738886e+01 -1.0663523488e+01 1.7645982492e+02 0.0000000000e+00 0.0000e+00 1.0000e+00
<mgrwt>
<rscale>  0 0.36584604E+03</rscale>
<asrwt>0</asrwt>
<pdfrwt beam="1">  1        2 0.20086820E-01 0.36584604E+03</pdfrwt>
<pdfrwt beam="2">  1       -2 0.39427463E-01 0.36584604E+03</pdfrwt>
<totfact> 0.20712142E+03</totfact>
</mgrwt>
<rwgt>
<wgt id='morphing_basis_vector_1'> +2.0307847e-04 </wgt>
<wgt id='morphing_basis_vector_2'> +1.1460375e-04 </wgt>
<wgt id='morphing_basis_vector_3'> +1.2156106e-04 </wgt>
<wgt id='morphing_basis_vector_4'> +2.3896718e-05 </wgt>
<wgt id='morphing_basis_vector_5'> +1.6640689e-05 </wgt>
</rwgt>
</event>
<event>
 4      1 +3.1894900e-05 3.77834900e+02 7.81860800e-03 9.72425100e-02
        2 -1    0    0  501    0 +0.0000000000e+00 +0.0000000000e+00 +4.6804932286e+02 4.6804932286e+02 0.0000000000e+00 0.0000e+00 -1.0000e+00
       -2 -1    0    0    0  501 -0.0000000000e+00 -0.0000000000e+00 -7.6252229215e+01 7.6252229215e+01 0.0000000000e+00 0.0000e+00 1.0000e+00
      -13  1    1    2    0    0 -8.6208131972e+01 +1.0977545703e+02 +1.2501228709e+01 1.4013840910e+02 0.0000000000e+00 0.0000e+00 1.0000e+00
       13  1    1    2    0    0 +8.6208131972e+01 -1.0977545703e+02 +3.7929586494e+02 4.0416314298e+02 0.0000000000e+00 0.0000e+00 -1.0000e+00
<mgrwt>
<rscale>  0 0.37783491E+03</rscale>
<asrwt>0</asrwt>
<pdfrwt beam="1">  1        2 0.72007586E-01 0.37783491E+03</pdfrwt>
<pdfrwt beam="2">  1       -2 0.11731112E-01 0.37783491E+03</pdfrwt>
<totfact> 0.37165015E+03</totfact>
</mgrwt>
<rwgt>
<wgt id='morphing_basis_vector_1'> +2.1809800e-04 </wgt>
<wgt id='morphing_basis_vector_2'> +1.1784604e-04 </wgt>
<wgt id='morphing_basis_vector_3'> +1.3588236e-04 </wgt>
<wgt id='morphing_basis_vector_4'> +2.7197601e-05 </wgt>
<wgt id='morphing_basis_vector_5'> +2.2343365e-05 </wgt>
</rwgt>
</event>
<event>
 4      1 +3.1894900e-05 4.16931600e+02 7.81860800e-03 9.60772100e-02
        2 -1    0    0  501    0 +0.0000000000e+00 +0.0000000000e+00 +1.4186800431e+03 1.4186800431e+03 0.0000000000e+00 0.0000e+00 1.0000e+00
       -2 -1    0    0    0  501 -0.0000000000e+00 -0.0000000000e+00 -3.0632685993e+01 3.0632685993e+01 0.0000000000e+00 0.0000e+00 -1.0000e+00
      -13  1    1    2    0    0 +2.2915998742e+01 +1.8233149496e+02 +3.5187424606e+02 3.9697027860e+02 0.0000000000e+00 0.0000e+00 -1.0000e+00
       13  1    1    2    0    0 -2.2915998742e+01 -1.8233149496e+02 +1.0361731111e+03 1.0523424505e+03 0.0000000000e+00 0.0000e+00 1.0000e+00
<mgrwt>
<rscale>  0 0.41693155E+03</rscale>
<asrwt>0</asrwt>
<pdfrwt beam="1">  1        2 0.21825842E+00 0.41693155E+03</pdfrwt>
<pdfrwt beam="2">  1       -2 0.47127220E-02 0.41693155E+03</pdfrwt>
<totfact> 0.34722058E+03</totfact>
</mgrwt>
<rwgt>
<wgt id='morphing_basis_vector_1'> +2.8326499e-04 </wgt>
<wgt id='morphing_basis_vector_2'> +1.5541463e-04 </wgt>
<wgt id='morphing_basis_vector_3'> +1.8344457e-04 </wgt>
<wgt id='morphing_basis_vector_4'> +4.4513140e-05 </wgt>
<wgt id='morphing_basis_vector_5'> +4.9565393e-05 </wgt>
</rwgt>
</event>
<event>
 4      1 +3.1894900e-05 3.71260600e+02 7.81860800e-03 9.74532800e-02
        2 -1    0    0  501    0 +0.0000000000e+00 +0.0000000000e+00 +2.0112538433e+02 2.0112538433e+02 0.0000000000e+00 0.0000e+00 -1.0000e+00
       -2 -1    0    0    0  501 -0.0000000000e+00 -0.0000000000e+00 -1.7132901410e+02 1.7132901410e+02 0.0000000000e+00 0.0000e+00 1.0000e+00
      -13  1    1    2    0    0 +1.0114526470e+02 -3.9386811053e+01 -1.3617463078e+02 1.7414136650e+02 0.0000000000e+00 0.0000e+00 1.0000e+00
       13  1    1    2    0    0 -1.0114526470e+02 +3.9386811053e+01 +1.6597100102e+02 1.9831303194e+02 0.0000000000e+00 0.0000e+00 -1.0000e+00
<mgrwt>
<rscale>  0 0.37126063E+03</rscale>
<asrwt>0</asrwt>
<pdfrwt beam="1">  1        2 0.30942367E-01 0.37126063E+03</pdfrwt>
<pdfrwt beam="2">  1       -2 0.26358310E-01 0.37126063E+03</pdfrwt>
<totfact> 0.25534419E+03</totfact>
</mgrwt>
<rwgt>
<wgt id='morphing_basis_vector_1'> +2.0848052e-04 </wgt>
<wgt id='morphing_basis_vector_2'> +1.1226922e-04 </wgt>
<wgt id='morphing_basis_vector_3'> +1.2928008e-04 </wgt>
<wgt id='morphing_basis_vector_4'> +2.5022910e-05 </wgt>
<wgt id='morphing_basis_vector_5'> +1.9004051e-05 </wgt>
</rwgt>
</event>
<event>
 4      1 +3.1894900e-05 4.09621800e+02 7.81860800e-03 9.62844600e-02
        2 -1    0    0  501    0 +0.0000000000e+00 +0.0000000000e+00 +2.7983765546e+02 2.7983765546e+02 0.0000000000e+00 0.0000e+00 -1.0000e+00
       -2 -1    0    0    0  501 -0.0000000000e+00 -0.0000000000e+00 -1.4989946174e+02 1.4989946174e+02 0.0000000000e+00 0.0000e+00 1.0000e+00
      -13  1    1    2    0    0 +7.6416153597e+01 +1.2704626327e+02 -8.3275809729e+01 1.7004423550e+02 0.0000000000e+00 0.0000e+00 1.0000e+00
       13  1    1    2    0    0 -7.6416153597e+01 -1.2704626327e+02 +2.1321400345e+02 2.5969288170e+02 0.0000000000e+00 0.0000e+00 -1.0000e+00
<mgrwt>
<rscale>  0 0.40962184E+03</rscale>
<asrwt>0</asrwt>
<pdfrwt beam="1">  1        2 0.43051947E-01 0.40962184E+03</pdfrwt>
<pdfrwt beam="2">  1       -2 0.23061456E-01 0.40962184E+03</pdfrwt>
<totfact> 0.22113624E+03</totfact>
</mgrwt>
<rwgt>
<wgt id='morphing_basis_vector_1'> +2.6920022e-04 </wgt>
<wgt id='morphing_basis_vector_2'> +1.4537921e-04 </wgt>
<wgt id='morphing_basis_vector_3'> +1.7411035e-04 </wgt>
<wgt id='morphing_basis_vector_4'> +4.0638144e-05 </wgt>
<wgt id='morphing_basis_vector_5'> +4.3390428e-05 </wgt>
</rwgt>
</event>
<event>
 4      1 +3.1894900e-05 3.90884700e+02 7.81860800e-03 9.68374300e-02
        2 -1    0    0  501    0 +0.0000000000e+00 +0.0000000000e+00 +8.4918243667e+02 8.4918243667e+02 0.0000000000e+00 0.0000e+00 1.0000e+00
       -2 -1    0    0    0  501 -0.0000000000e+00 -0.0000000000e+00 -4.4981761059e+01 4.4981761059e+01 0.0000000000e+00 0.0000e+00 -1.0000e+00
      -13  1    1    2    0    0 +6.3906386190e+01 +1.8076736864e+02 +3.1538921137e+02 3.6909514005e+02 0.0000000000e+00 0.0000e+00 -1.0000e+00
       13  1    1    2    0    0 -6.3906386190e+01 -1.8076736864e+02 +4.8881146424e+02 5.2506905768e+02 0.0000000000e+00 0.0000e+00 1.0000e+00
<mgrwt>
<rscale>  0 0.39088475E+03</rscale>
<asrwt>0</asrwt>
<pdfrwt beam="1">  1        2 0.13064344E+00 0.39088475E+03</pdfrwt>
<pdfrwt beam="2">  1       -2 0.69202716E-02 0.39088475E+03</pdfrwt>
<totfact> 0.41716377E+03</totfact>
</mgrwt>
<rwgt>
<wgt id='morphing_basis_vector_1'> +2.4118335e-04 </wgt>
<wgt id='morphing_basis_vector_2'> +1.3834188e-04 </wgt>
<wgt id='morphing_basis_vector_3'> +1.4724584e-04 </wgt>
<wgt id='morphing_basis_vector_4'> +3.2417430e-05 </wgt>
<wgt id='morphing_basis_vector_5'> +3.0162148e-05 </wgt>
</rwgt>
</event>
<event>
 4      1 +3.1894900e-05 4.23615600e+02 7.81860800e-03 9.58916000e-02
        2 -1    0    0  501    0 +0.0000000000e+00 +0.0000000000e+00 +3.4130345455e+02 3.4130345455e+02 0.0000000000e+00 0.0000e+00 -1.0000e+00
       -2 -1    0    0    0  501 -0.0000000000e+00 -0.0000000000e+00 -1.3144474302e+02 1.3144474302e+02 0.0000000000e+00 0.0000e+00 1.0000e+00
      -13  1    1    2    0    0 +8.1760730885e+01 +1.0955038206e+02 -7.5627189764e+01 1.5622283814e+02 0.0000000000e+00 0.0000e+00 1.0000e+00
       13  1    1    2    0    0 -8.1760730885e+01 -1.0955038206e+02 +2.8548590130e+02 3.1652535943e+02 0.0000000000e+00 0.0000e+00 -1.0000e+00
<mgrwt>
<rscale>  0 0.42361560E+03</rscale>
<asrwt>0</asrwt>
<pdfrwt beam="1">  1        2 0.52508223E-01 0.42361560E+03</pdfrwt>
<pdfrwt beam="2">  1       -2 0.20222268E-01 0.42361560E+03</pdfrwt>
<totfact> 0.22080628E+03</totfact>
</mgrwt>
<rwgt>
<wgt id='morphing_basis_vector_1'> +2.9469513e-04 </wgt>
<wgt id='morphing_basis_vector_2'> +1.5901169e-04 </wgt>
<wgt id='morphing_basis_vector_3'> +1.9407189e-04 </wgt>
<wgt id='morphing_basis_vector_4'> +4.8386062e-05 </wgt>
<wgt id='morphing_basis_vector_5'> +5.5547597e-05 </wgt>
</rwgt>
</event>
<event>
 4      1 +3.1894900e-05 3.78751500e+02 7.81860800e-03 9.72134900e-02
        2 -1    0    0  501    0 +0.0000000000e+00 +0.0000000000e+00 +1.0803220814e+02 1.0803220814e+02 0.0000000000e+00 0.0000e+00 -1.0000e+00
       -2 -1    0    0    0  501 -0.0000000000e+00 -0.0000000000e+00 -3.3196739449e+02 3.3196739449e+02 0.0000000000e+00 0.0000e+00 1.0000e+00
      -13  1    1    2    0    0 -7.5709042529e+00 +1.1211488917e+02 -2.8905170603e+02 3.1012570956e+02 0.0000000000e+00 0.0000e+00 1.0000e+00
       13  1    1    2    0    0 +7.5709042529e+00 -1.1211488917e+02 +6.5116519682e+01 1.2987389307e+02 0.0000000000e+00 0.0000e+00 -1.0000e+00
<mgrwt>
<rscale>  0 0.37875148E+03</rscale>
<asrwt>0</asrwt>
<pdfrwt beam="1">  1        2 0.16620340E-01 0.37875148E+03</pdfrwt>
<pdfrwt beam="2">  1       -2 0.51071907E-01 0.37875148E+03</pdfrwt>
<totfact> 0.15965370E+03</totfact>
</mgrwt>
<rwgt>
<wgt id='morphing_basis_vector_1'> +2.1924874e-04 </wgt>
<wgt id='morphing_basis_vector_2'> +1.1797544e-04 </wgt>
<wgt id='morphing_basis_vector_3'> +1.3706641e-04 </wgt>
<wgt id='morphing_basis_vector_4'> +2.7479002e-05 </wgt>
<wgt id='morphing_basis_vector_5'> +2.2820538e-05 </wgt>
</rwgt>
</event>
<event>
 4      1 +3.1894900e-05 4.00028900e+02 7.81860800e-03 9.65635400e-02
        2 -1    0    0  501    0 +0.0000000000e+00 +0.0000000000e+00 +2.7647459427e+02 2.7647459427e+02 0.0000000000e+00 0.0000e+00 1.0000e+00
       -2 -1    0    0    0  501 -0.0000000000e+00 -0.0000000000e+00 -1.4469962940e+02 1.4469962940e+02 0.0000000000e+00 0.0000e+00 -1.0000e+00
      -13  1    1    2    0    0 -6.1004726569e+01 -4.7748975803e+01 -1.2826231269e+02 1.4984245797e+02 0.0000000000e+00 0.0000e+00 -1.0000e+00
       13  1    1    2    0    0 +6.1004726569e+01 +4.7748975803e+01 +2.6003727757e+02 2.7133176570e+02 0.0000000000e+00 0.0000e+00 1.0000e+00
<mgrwt>
<rscale>  0 0.40002886E+03</rscale>
<asrwt>0</asrwt>
<pdfrwt beam="1">  1        2 0.42534553E-01 0.40002886E+03</pdfrwt>
<pdfrwt beam="2">  1       -2 0.22261481E-01 0.40002886E+03</pdfrwt>
<totfact> 0.23762978E+03</totfact>
</mgrwt>
<rwgt>
<wgt id='morphing_basis_vector_1'> +2.5248126e-04 </wgt>
<wgt id='morphing_basis_vector_2'> +1.3556579e-04 </wgt>
<wgt id='morphing_basis_vector_3'> +1.6188172e-04 </wgt>
<wgt id='morphing_basis_vector_4'> +3.5985752e-05 </wgt>
<wgt id='morphing_basis_vector_5'> +3.6100586e-05 </wgt>
</rwgt>
</event>
<event>
 4      1 +3.1894900e-05 3.87122400e+02 7.81860800e-03 9.69524600e-02
        2 -1    0    0  501    0 +0.0000000000e+00 +0.0000000000e+00 +1.5299236777e+02 1.5299236777e+02 0.0000000000e+00 0.0000e+00 -1.0000e+00
       -2 -1    0    0    0  501 -0.0000000000e+00 -0.0000000000e+00 -2.4488765358e+02 2.4488765358e+02 0.0000000000e+00 0.0000e+00 1.0000e+00
      -13  1    1    2    0    0 -6.5853909845e+01 -1.0337935794e+02 -1.9991680447e+02 2.3450108273e+02 0.0000000000e+00 0.0000e+00 1.0000e+00
       13  1    1    2    0    0 +6.5853909845e+01 +1.0337935794e+02 +1.0802151866e+02 1.6337893862e+02 0.0000000000e+00 0.0000e+00 -1.0000e+00
<mgrwt>
<rscale>  0 0.38712242E+03</rscale>
<asrwt>0</asrwt>
<pdfrwt beam="1">  1        2 0.23537288E-01 0.38712242E+03</pdfrwt>
<pdfrwt beam="2">  1       -2 0.37675023E-01 0.38712242E+03</pdfrwt>
<totfact> 0.18704290E+03</totfact>
</mgrwt>
<rwgt>
<wgt id='morphing_basis_vector_1'> +2.3189659e-04 </wgt>
<wgt id='morphing_basis_vector_2'> +1.2480218e-04 </wgt>
<wgt id='morphing_basis_vector_3'> +1.4628923e-04 </wgt>
<wgt id='morphing_basis_vector_4'> +3.0551694e-05 </wgt>
<wgt id='morphing_basis_vector_5'> +2.7603485e-05 </wgt>
</rwgt>
</event>
<event>
 4      1 +3.1894900e-05 3.70831000e+02 7.81860800e-03 9.74672200e-02
        2 -1    0    0  501    0 +0.0000000000e+00 +0.0000000000e+00 +6.3988291975e+02 6.3988291975e+02 0.0000000000e+00 0.0000e+00 1.0000e+00
       -2 -1    0    0    0  501 -0.0000000000e+00 -0.0000000000e+00 -5.3726886088e+01 5.3726886088e+01 0.0000000000e+00 0.0000e+00 -1.0000e+00
      -13  1    1    2    0    0 -4.0444542902e+01 +1.8077191972e+02 +2.7803668475e+02 3.3409376839e+02 0.0000000000e+00 0.0000e+00 -1.0000e+00
       13  1    1    2    0    0 +4.0444542902e+01 -1.8077191972e+02 +3.0811934891e+02 3.5951603745e+02 0.0000000000e+00 0.0000e+00 1.0000e+00
<mgrwt>
<rscale>  0 0.37083105E+03</rscale>
<asrwt>0</asrwt>
<pdfrwt beam="1">  1        2 0.98443521E-01 0.37083105E+03</pdfrwt>
<pdfrwt beam="2">  1       -2 0.82656753E-02 0.37083105E+03</pdfrwt>
<totfact> 0.44818915E+03</totfact>
</mgrwt>
<rwgt>
<wgt id='morphing_basis_vector_1'> +2.1323251e-04 </wgt>
<wgt id='morphing_basis_vector_2'> +1.2812413e-04 </wgt>
<wgt id='morphing_basis_vector_3'> +1.2290281e-04 </wgt>
<wgt id='morphing_basis_vector_4'> +2.6007358e-05 </wgt>
<wgt id='morphing_basis_vector_5'> +1.9150046e-05 </wgt>
</rwgt>
</event>
<event>
 4      1 +3.1894900e-05 4.02344400e+02 7.81860800e-03 9.64954200e-02
        2 -1    0    0  501    0 +0.0000000000e+00 +0.0000000000e+00 +4.8561109471e+02 4.8561109471e+02 0.0000000000e+00 0.0000e+00 -1.0000e+00
       -2 -1    0    0    0  501 -0.0000000000e+00 -0.0000000000e+00 -8.3338821180e+01 8.3338821180e+01 0.0000000000e+00 0.0000e+00 1.0000e+00
      -13  1    1    2    0    0 +1.3323420658e+02 +2.9063981205e+01 -8.0062351584e+00 1.3660222768e+02 0.0000000000e+00 0.0000e+00 1.0000e+00
       13  1    1    2    0    0 -1.3323420658e+02 -2.9063981205e+01 +4.1027850869e+02 4.3234768821e+02 0.0000000000e+00 0.0000e+00 -1.0000e+00
<mgrwt>
<rscale>  0 0.40234441E+03</rscale>
<asrwt>0</asrwt>
<pdfrwt beam="1">  1        2 0.74709398E-01 0.40234441E+03</pdfrwt>
<pdfrwt beam="2">  1       -2 0.12821357E-01 0.40234441E+03</pdfrwt>
<totfact> 0.31058299E+03</totfact>
</mgrwt>
<rwgt>
<wgt id='morphing_basis_vector_1'> +2.5655306e-04 </wgt>
<wgt id='morphing_basis_vector_2'> +1.3824623e-04 </wgt>
<wgt id='morphing_basis_vector_3'> +1.6464036e-04 </wgt>
<wgt id='morphing_basis_vector_4'> +3.7069396e-05 </wgt>
<wgt id='morphing_basis_vector_5'> +3.7791614e-05 </wgt>
</rwgt>
</event>
<event>
 4      1 +3.1894900e-05 4.27917800e+02 7.81860800e-03 9.57740400e-02
        2 -1    0    0  501    0 +0.0000000000e+00 +0.0000000000e+00 +9.0229948369e+01 9.0229948369e+01 0.0000000000e+00 0.0000e+00 1.0000e+00
       -2 -1    0    0    0  501 -0.0000000000e+00 -0.0000000000e+00 -5.0735275113e+02 5.0735275113e+02 0.0000000000e+00 0.0000e+00 -1.0000e+00
      -13  1    1    2    0    0 +1.9805221548e+02 +9.8623748188e+00 -3.2077231323e+02 3.7711645871e+02 0.0000000000e+00 0.0000e+00 -1.0000e+00
       13  1    1    2    0    0 -1.9805221548e+02 -9.8623748188e+00 -9.6350489530e+01 2.2046624079e+02 0.0000000000e+00 0.0000e+00 1.0000e+00
<mgrwt>
<rscale>  0 0.42791781E+03</rscale>
<asrwt>0</asrwt>
<pdfrwt beam="1">  1        2 0.13881531E-01 0.42791781E+03</pdfrwt>
<pdfrwt beam="2">  1       -2 0.78054268E-01 0.42791781E+03</pdfrwt>
<totfact> 0.83104672E+02</totfact>
</mgrwt>
<rwgt>
<wgt id='morphing_basis_vector_1'> +3.0494518e-04 </wgt>
<wgt id='morphing_basis_vector_2'> +1.6961367e-04 </wgt>
<wgt id='morphing_basis_vector_3'> +1.9902793e-04 </wgt>
<wgt id='morphing_basis_vector_4'> +5.0872043e-05 </wgt>
<wgt id='morphing_basis_vector_5'> +5.9799102e-05 </wgt>
</rwgt>
</event>
<event>
 4      1 +3.1894900e-05 4.26413300e+02 7.81860800e-03 9.58149900e-02
        2 -1    0    0  501    0 +0.0000000000e+00 +0.0000000000e+00 +2.2418333809e+02 2.2418333809e+02 0.0000000000e+00 0.0000e+00 -1.0000e+00
       -2 -1    0    0    0  501 -0.0000000000e+00 -0.0000000000e+00 -2.0276740082e+02 2.0276740082e+02 0.0000000000e+00 0.0000e+00 1.0000e+00
      -13  1    1    2    0    0 +2.3612494275e+01 -3.9820312829e+01 +2.1909011795e+02 2.2392786112e+02 0.0000000000e+00 0.0000e+00 -1.0000e+00
       13  1    1    2    0    0 -2.3612494275e+01 +3.9820312829e+01 -1.9767418068e+02 2.0302287779e+02 0.0000000000e+00 0.0000e+00 1.0000e+00
<mgrwt>
<rscale>  0 0.42641329E+03</rscale>
<asrwt>0</asrwt>
<pdfrwt beam="1">  1        2 0.34489744E-01 0.42641329E+03</pdfrwt>
<pdfrwt beam="2">  1       -2 0.31194985E-01 0.42641329E+03</pdfrwt>
<totfact> 0.16918379E+03</totfact>
</mgrwt>
<rwgt>
<wgt id='morphing_basis_vector_1'> +4.0663158e-04 </wgt>
<wgt id='morphing_basis_vector_2'> +4.8998099e-04 </wgt>
<wgt id='morphing_basis_vector_3'> +1.1325721e-04 </wgt>
<wgt id='morphing_basis_vector_4'> +4.3052560e-05 </wgt>
<wgt id='morphing_basis_vector_5'> +6.4740887e-05 </wgt>
</rwgt>
</event>
<event>
 4      1 +3.1894900e-05 3.73848000e+02 7.81860800e-03 9.73697800e-02
        2 -1    0    0  501    0 +0.0000000000e+00 +0.0000000000e+00 +2.9089103132e+02 2.9089103132e+02 0.0000000000e+00 0.0000e+00 -1.0000e+00
       -2 -1    0    0    0  501 -0.0000000000e+00 -0.0000000000e+00 -1.2011571495e+02 1.2011571495e+02 0.0000000000e+00 0.0000e+00 1.0000e+00
      -13  1    1    2    0    0 -1.2476225875e+02 +7.6340759017e+01 -4.2572940918e+01 1.5233511740e+02 0.0000000000e+00 0.0000e+00 1.0000e+00
       13  1    1    2    0    0 +1.2476225875e+02 -7.6340759017e+01 +2.1334825728e+02 2.5867162887e+02 0.0000000000e+00 0.0000e+00 -1.0000e+00
<mgrwt>
<rscale>  0 0.37384801E+03</rscale>
<asrwt>0</asrwt>
<pdfrwt beam="1">  1        2 0.44752466E-01 0.37384801E+03</pdfrwt>
<pdfrwt beam="2">  1       -2 0.18479341E-01 0.37384801E+03</pdfrwt>
<totfact> 0.30474438E+03</totfact>
</mgrwt>
<rwgt>
<wgt id='morphing_basis_vector_1'> +2.1244943e-04 </wgt>
<wgt id='morphing_basis_vector_2'> +1.1512693e-04 </wgt>
<wgt id='morphing_basis_vector_3'> +1.3158534e-04 </wgt>
<wgt id='morphing_basis_vector_4'> +2.5900081e-05 </wgt>
<wgt id='morphing_basis_vector_5'> +2.0294444e-05 </wgt>
</rwgt>
</event>
<event>
 4      1 +3.1894900e-05 4.24510300e+02 7.81860800e-03 9.58670300e-02
        2 -1    0    0  501    0 +0.0000000000e+00 +0.0000000000e+00 +8.3464193847e+02 8.3464193847e+02 0.0000000000e+00 0.0000e+00 -1.0000e+00
       -2 -1    0    0    0  501 -0.0000000000e+00 -0.0000000000e+00 -5.3977933505e+01 5.3977933505e+01 0.0000000000e+00 0.0000e+00 1.0000e+00
      -13  1    1    2    0    0 +2.7291447760e+01 +1.3127911359e+02 +4.5904566084e+01 1.4172599611e+02 0.0000000000e+00 0.0000e+00 1.0000e+00
       13  1    1    2    0    0 -2.7291447760e+01 -1.3127911359e+02 +7.3475943889e+02 7.4689387587e+02 0.0000000000e+00 0.0000e+00 -1.0000e+00
<mgrwt>
<rscale>  0 0.42451029E+03</rscale>
<asrwt>0</asrwt>
<pdfrwt beam="1">  1        2 0.12840644E+00 0.42451029E+03</pdfrwt>
<pdfrwt beam="2">  1       -2 0.83042981E-02 0.42451029E+03</pdfrwt>
<totfact> 0.32299402E+03</totfact>
</mgrwt>
<rwgt>
<wgt id='morphing_basis_vector_1'> +2.9638471e-04 </wgt>
<wgt id='morphing_basis_vector_2'> +1.5989566e-04 </wgt>
<wgt id='morphing_basis_vector_3'> +1.9542307e-04 </wgt>
<wgt id='morphing_basis_vector_4'> +4.8924093e-05 </wgt>
<wgt id='morphing_basis_vector_5'> +5.6390181e-05 </wgt>
</rwgt>
</event>
<event>
 4      1 +3.1894900e-05 3.98787300e+02 7.81860800e-03 9.66002600e-02
        2 -1    0    0  501    0 +0.0000000000e+00 +0.0000000000e+00 +5.5831288881e+02 5.5831288881e+02 0.0000000000e+00 0.0000e+00 1.0000e+00
       -2 -1    0    0    0  501 -0.0000000000e+00 -0.0000000000e+00 -7.1210673668e+01 7.1210673668e+01 0.0000000000e+00 0.0000e+00 -1.0000e+00
      -13  1    1    2    0    0 +1.4050364640e+02 +1.3697562212e+02 +2.9945745968e+02 3.5802006349e+02 0.0000000000e+00 0.0000e+00 1.0000e+00
       13  1    1    2    0    0 -1.4050364640e+02 -1.3697562212e+02 +1.8764475547e+02 2.7150349899e+02 0.0000000000e+00 0.0000e+00 -1.0000e+00
<mgrwt>
<rscale>  0 0.39878735E+03</rscale>
<asrwt>0</asrwt>
<pdfrwt beam="1">  1        2 0.85894288E-01 0.39878735E+03</pdfrwt>
<pdfrwt beam="2">  1       -2 0.10955489E-01 0.39878735E+03</pdfrwt>
<totfact> 0.33961503E+03</totfact>
</mgrwt>
<rwgt>
<wgt id='morphing_basis_vector_1'> +2.6512720e-04 </wgt>
<wgt id='morphing_basis_vector_2'> +1.7937943e-04 </wgt>
<wgt id='morphing_basis_vector_3'> +1.4631961e-04 </wgt>
<wgt id='morphing_basis_vector_4'> +3.6444358e-05 </wgt>
<wgt id='morphing_basis_vector_5'> +3.6182127e-05 </wgt>
</rwgt>
</event>
<event>
 4      1 +3.1894900e-05 3.72461900e+02 7.81860800e-03 9.74144200e-02
        2 -1    0    0  501    0 +0.0000000000e+00 +0.0000000000e+00 +3.5034989334e+02 3.5034989334e+02 0.0000000000e+00 0.0000e+00 -1.0000e+00
       -2 -1    0    0    0  501 -0.0000000000e+00 -0.0000000000e+00 -9.8992381399e+01 9.8992381399e+01 0.0000000000e+00 0.0000e+00 1.0000e+00
      -13  1    1    2    0    0 -7.3774101413e+01 -1.6155738215e+01 -7.9688966832e+01 1.0979051576e+02 0.0000000000e+00 0.0000e+00 1.0000e+00
       13  1    1    2    0    0 +7.3774101413e+01 +1.6155738215e+01 +3.3104647878e+02 3.3955175898e+02 0.0000000000e+00 0.0000e+00 -1.0000e+00
<mgrwt>
<rscale>  0 0.37246192E+03</rscale>
<asrwt>0</asrwt>
<pdfrwt beam="1">  1        2 0.53899983E-01 0.37246192E+03</pdfrwt>
<pdfrwt beam="2">  1       -2 0.15229597E-01 0.37246192E+03</pdfrwt>
<totfact> 0.33892006E+03</totfact>
</mgrwt>
<rwgt>
<wgt id='morphing_basis_vector_1'> +2.1011147e-04 </wgt>
<wgt id='morphing_basis_vector_2'> +1.1297280e-04 </wgt>
<wgt id='morphing_basis_vector_3'> +1.3056790e-04 </wgt>
<wgt id='morphing_basis_vector_4'> +2.5386208e-05 </wgt>
<wgt id='morphing_basis_vector_5'> +1.9583471e-05 </wgt>
</rwgt>
</event>
<event>
 4      1 +3.1894900e-05 3.92795200e+02 7.81860800e-03 9.67795500e-02
        2 -1    0    0  501    0 +0.0000000000e+00 +0.0000000000e+00 +1.0332496874e+03 1.0332496874e+03 0.0000000000e+00 0.0000e+00 1.0000e+00
       -2 -1    0    0    0  501 -0.0000000000e+00 -0.0000000000e+00 -3.7330773319e+01 3.7330773319e+01 0.0000000000e+00 0.0000e+00 -1.0000e+00
      -13  1    1    2    0    0 -2.6613039163e+01 -1.9416864683e+02 +4.6323763251e+02 5.0298988204e+02 0.0000000000e+00 0.0000e+00 -1.0000e+00
       13  1    1    2    0    0 +2.6613039163e+01 +1.9416864683e+02 +5.3268128157e+02 5.6759057868e+02 0.0000000000e+00 0.0000e+00 1.0000e+00
<mgrwt>
<rscale>  0 0.39279516E+03</rscale>
<asrwt>0</asrwt>
<pdfrwt beam="1">  1        2 0.15896147E+00 0.39279516E+03</pdfrwt>
<pdfrwt beam="2">  1       -2 0.57431967E-02 0.39279516E+03</pdfrwt>
<totfact> 0.42535846E+03</totfact>
</mgrwt>
<rwgt>
<wgt id='morphing_basis_vector_1'> +2.4658037e-04 </wgt>
<wgt id='morphing_basis_vector_2'> +1.4718362e-04 </wgt>
<wgt id='morphing_basis_vector_3'> +1.4721202e-04 </wgt>
<wgt id='morphing_basis_vector_4'> +3.3407017e-05 </wgt>
<wgt id='morphing_basis_vector_5'> +3.1547631e-05 </wgt>
</rwgt>
</event>
<event>
 4      1 +3.1894900e-05 3.88480300e+02 7.81860800e-03 9.69107900e-02
        2 -1    0    0  501    0 +0.0000000000e+00 +0.0000000000e+00 +1.9645936018e+02 1.9645936018e+02 0.0000000000e+00 0.0000e+00 -1.0000e+00
       -2 -1    0    0    0  501 -0.0000000000e+00 -0.0000000000e+00 -1.9204599041e+02 1.9204599041e+02 0.0000000000e+00 0.0000e+00 1.0000e+00
      -13  1    1    2    0    0 -2.2830507034e+01 +7.9568072908e+01 -1.7352295746e+02 1.9225640963e+02 0.0000000000e+00 0.0000e+00 1.0000e+00
       13  1    1    2    0    0 +2.2830507034e+01 -7.9568072908e+01 +1.7793632724e+02 1.9624894096e+02 0.0000000000e+00 0.0000e+00 -1.0000e+00
<mgrwt>
<rscale>  0 0.38848028E+03</rscale>
<asrwt>0</asrwt>
<pdfrwt beam="1">  1        2 0.30224517E-01 0.38848028E+03</pdfrwt>
<pdfrwt beam="2">  1       -2 0.29545537E-01 0.38848028E+03</pdfrwt>
<totfact> 0.21573187E+03</totfact>
</mgrwt>
<rwgt>
<wgt id='morphing_basis_vector_1'> +2.3389326e-04 </wgt>
<wgt id='morphing_basis_vector_2'> +1.2559754e-04 </wgt>
<wgt id='morphing_basis_vector_3'> +1.4795797e-04 </wgt>
<wgt id='morphing_basis_vector_4'> +3.1069507e-05 </wgt>
<wgt id='morphing_basis_vector_5'> +2.8425019e-05 </wgt>
</rwgt>
</event>
<event>
 4      1 +3.1894900e-05 4.28580600e+02 7.81860800e-03 9.57560600e-02
        2 -1    0    0  501    0 +0.0000000000e+00 +0.0000000000e+00 +8.6174590107e+02 8.6174590107e+02 0.0000000000e+00 0.0000e+00 -1.0000e+00
       -2 -1    0    0    0  501 -0.0000000000e+00 -0.0000000000e+00 -5.3287559699e+01 5.3287559699e+01 0.0000000000e+00 0.0000e+00 1.0000e+00
      -13  1    1    2    0    0 -4.5706161688e+01 -2.0107532073e+02 +2.7973649468e+02 3.4752387584e+02 0.0000000000e+00 0.0000e+00 1.0000e+00
       13  1    1    2    0    0 +4.5706161688e+01 +2.0107532073e+02 +5.2872184669e+02 5.6750958493e+02 0.0000000000e+00 0.0000e+00 -1.0000e+00
<mgrwt>
<rscale>  0 0.42858062E+03</rscale>
<asrwt>0</asrwt>
<pdfrwt beam="1">  1        2 0.13257628E+00 0.42858062E+03</pdfrwt>
<pdfrwt beam="2">  1       -2 0.81980867E-02 0.42858062E+03</pdfrwt>
<totfact> 0.31623943E+03</totfact>
</mgrwt>
<rwgt>
<wgt id='morphing_basis_vector_1'> +3.0747835e-04 </wgt>
<wgt id='morphing_basis_vector_2'> +1.7414230e-04 </wgt>
<wgt id='morphing_basis_vector_3'> +1.9908125e-04 </wgt>
<wgt id='morphing_basis_vector_4'> +5.1186952e-05 </wgt>
<wgt id='morphing_basis_vector_5'> +6.0527691e-05 </wgt>
</rwgt>
</event>
<event>
 4      1 +3.1894900e-05 3.94366400e+02 7.81860800e-03 9.67322100e-02
        2 -1    0    0  501    0 +0.0000000000e+00 +0.0000000000e+00 +1.1298553415e+03 1.1298553415e+03 0.0000000000e+00 0.0000e+00 -1.0000e+00
       -2 -1    0    0    0  501 -0.0000000000e+00 -0.0000000000e+00 -3.4412556767e+01 3.4412556767e+01 0.0000000000e+00 0.0000e+00 1.0000e+00
      -13  1    1    2    0    0 +1.9385773077e+02 -3.5799759827e+01 +5.3493147454e+02 5.7010010089e+02 0.0000000000e+00 0.0000e+00 1.0000e+00
       13  1    1    2    0    0 -1.9385773077e+02 +3.5799759827e+01 +5.6051131019e+02 5.9416779737e+02 0.0000000000e+00 0.0000e+00 -1.0000e+00
<mgrwt>
<rscale>  0 0.39436638E+03</rscale>
<asrwt>0</asrwt>
<pdfrwt beam="1">  1        2 0.17382387E+00 0.39436638E+03</pdfrwt>
<pdfrwt beam="2">  1       -2 0.52942404E-02 0.39436638E+03</pdfrwt>
<totfact> 0.42227700E+03</totfact>
</mgrwt>
<rwgt>
<wgt id='morphing_basis_vector_1'> +2.5019868e-04 </wgt>
<wgt id='morphing_basis_vector_2'> +1.5189785e-04 </wgt>
<wgt id='morphing_basis_vector_3'> +1.4807385e-04 </wgt>
<wgt id='morphing_basis_vector_4'> +3.4124464e-05 </wgt>
<wgt id='morphing_basis_vector_5'> +3.2654162e-05 </wgt>
</rwgt>
</event>
<event>
 4      1 +3.1894900e-05 3.80643000e+02 7.81860800e-03 9.71538800e-02
        2 -1    0    0  501    0 +0.0000000000e+00 +0.0000000000e+00 +1.6694792384e+02 1.6694792384e+02 0.0000000000e+00 0.0000e+00 -1.0000e+00
       -2 -1    0    0    0  501 -0.0000000000e+00 -0.0000000000e+00 -2.1696746183e+02 2.1696746183e+02 0.0000000000e+00 0.0000e+00 1.0000e+00
      -13  1    1    2    0    0 -5.0619508327e+01 -4.7305884604e+01 -2.0379647052e+02 2.1525144073e+02 0.0000000000e+00 0.0000e+00 1.0000e+00
       13  1    1    2    0    0 +5.0619508327e+01 +4.7305884604e+01 +1.5377693253e+02 1.6866394493e+02 0.0000000000e+00 0.0000e+00 -1.0000e+00
<mgrwt>
<rscale>  0 0.38064297E+03</rscale>
<asrwt>0</asrwt>
<pdfrwt beam="1">  1        2 0.25684296E-01 0.38064297E+03</pdfrwt>
<pdfrwt beam="2">  1       -2 0.33379609E-01 0.38064297E+03</pdfrwt>
<totfact> 0.20989946E+03</totfact>
</mgrwt>
<rwgt>
<wgt id='morphing_basis_vector_1'> +2.2196563e-04 </wgt>
<wgt id='morphing_basis_vector_2'> +1.1922244e-04 </wgt>
<wgt id='morphing_basis_vector_3'> +1.3918940e-04 </wgt>
<wgt id='morphing_basis_vector_4'> +2.8129200e-05 </wgt>
<wgt id='morphing_basis_vector_5'> +2.3846979e-05 </wgt>
</rwgt>
</event>
<event>
 4      1 +3.1894900e-05 4.04079100e+02 7.81860800e-03 9.64447000e-02
        2 -1    0    0  501    0 +0.0000000000e+00 +0.0000000000e+00 +7.3049101004e+02 7.3049101004e+02 0.0000000000e+00 0.0000e+00 1.0000e+00
       -2 -1    0    0    0  501 -0.0000000000e+00 -0.0000000000e+00 -5.5880188178e+01 5.5880188178e+01 0.0000000000e+00 0.0000e+00 -1.0000e+00
      -13  1    1    2    0    0 +9.6129477433e+01 +9.2484747729e+01 +4.2002740550e+01 1.3985183305e+02 0.0000000000e+00 0.0000e+00 -1.0000e+00
       13  1    1    2    0    0 -9.6129477433e+01 -9.2484747729e+01 +6.3260808131e+02 6.4651936516e+02 0.0000000000e+00 0.0000e+00 1.0000e+00
<mgrwt>
<rscale>  0 0.40407908E+03</rscale>
<asrwt>0</asrwt>
<pdfrwt beam="1">  1        2 0.11238323E+00 0.40407908E+03</pdfrwt>
<pdfrwt beam="2">  1       -2 0.85969525E-02 0.40407908E+03</pdfrwt>
<totfact> 0.36113016E+03</totfact>
</mgrwt>
<rwgt>
<wgt id='morphing_basis_vector_1'> +2.5946988e-04 </wgt>
<wgt id='morphing_basis_vector_2'> +1.3976282e-04 </wgt>
<wgt id='morphing_basis_vector_3'> +1.6689775e-04 </wgt>
<wgt id='morphing_basis_vector_4'> +3.7890906e-05 </wgt>
<wgt id='morphing_basis_vector_5'> +3.9078984e-05 </wgt>
</rwgt>
</event>
<event>
 4      1 +3.1894900e-05 4.26429400e+02 7.81860800e-03 9.58145500e-02
        2 -1    0    0  501    0 +0.0000000000e+00 +0.0000000000e+00 +1.3610747183e+03 1.3610747183e+03 0.0000000000e+00 0.0000e+00 -1.0000e+00
       -2 -1    0    0    0  501 -0.0000000000e+00 -0.0000000000e+00 -3.3400445004e+01 3.3400445004e+01 0.0000000000e+00 0.0000e+00 1.0000e+00
      -13  1    1    2    0    0 +4.9121130802e+01 -2.0736794127e+02 +6.8605295519e+02 7.1838917439e+02 0.0000000000e+00 0.0000e+00 1.0000e+00
       13  1    1    2    0    0 -4.9121130802e+01 +2.0736794127e+02 +6.4162131814e+02 6.7608598895e+02 0.0000000000e+00 0.0000e+00 -1.0000e+00
<mgrwt>
<rscale>  0 0.42642937E+03</rscale>
<asrwt>0</asrwt>
<pdfrwt beam="1">  1        2 0.20939607E+00 0.42642937E+03</pdfrwt>
<pdfrwt beam="2">  1       -2 0.51385311E-02 0.42642937E+03</pdfrwt>
<totfact> 0.32781293E+03</totfact>
</mgrwt>
<rwgt>
<wgt id='morphing_basis_vector_1'> +3.1064009e-04 </wgt>
<wgt id='morphing_basis_vector_2'> +1.9444366e-04 </wgt>
<wgt id='morphing_basis_vector_3'> +1.8989097e-04 </wgt>
<wgt id='morphing_basis_vector_4'> +4.9395822e-05 </wgt>
<wgt id='morphing_basis_vector_5'> +5.8874499e-05 </wgt>
</rwgt>
</event>
<event>
 4      1 +3.1894900e-05 3.96356300e+02 7.81860800e-03 9.66725900e-02
        2 -1    0    0  501    0 +0.0000000000e+00 +0.0000000000e+00 +1.6455040217e+02 1.6455040217e+02 0.0000000000e+00 0.0000e+00 -1.0000e+00
       -2 -1    0    0    0  501 -0.0000000000e+00 -0.0000000000e+00 -2.3867810133e+02 2.3867810133e+02 0.0000000000e+00 0.0000e+00 1.0000e+00
      -13  1    1    2    0    0 -1.0474062281e+02 -1.2703309524e+02 -1.4927850654e+02 2.2224328532e+02 0.0000000000e+00 0.0000e+00 1.0000e+00
       13  1    1    2    0    0 +1.0474062281e+02 +1.2703309524e+02 +7.5150807374e+01 1.8098521818e+02 0.0000000000e+00 0.0000e+00 -1.0000e+00
<mgrwt>
<rscale>  0 0.39635629E+03</rscale>
<asrwt>0</asrwt>
<pdfrwt beam="1">  1        2 0.25315447E-01 0.39635629E+03</pdfrwt>
<pdfrwt beam="2">  1       -2 0.36719708E-01 0.39635629E+03</pdfrwt>
<totfact> 0.18012282E+03</totfact>
</mgrwt>
<rwgt>
<wgt id='morphing_basis_vector_1'> +2.4709750e-04 </wgt>
<wgt id='morphing_basis_vector_2'> +1.3433797e-04 </wgt>
<wgt id='morphing_basis_vector_3'> +1.5668214e-04 </wgt>
<wgt id='morphing_basis_vector_4'> +3.4398195e-05 </wgt>
<wgt id='morphing_basis_vector_5'> +3.3579033e-05 </wgt>
</rwgt>
</event>
<event>
 4      1 +3.1894900e-05 3.76389100e+02 7.81860800e-03 9.72884700e-02
        2 -1    0    0  501    0 +0.0000000000e+00 +0.0000000000e+00 +9.6934917867e+02 9.6934917867e+02 0.0000000000e+00 0.0000e+00 -1.0000e+00
       -2 -1    0    0    0  501 -0.0000000000e+00 -0.0000000000e+00 -3.6537084130e+01 3.6537084130e+01 0.0000000000e+00 0.0000e+00 1.0000e+00
      -13  1    1    2    0    0 -1.5775394396e+02 +7.9915418259e+01 +2.9436057221e+02 3.4339616681e+02 0.0000000000e+00 0.0000e+00 1.0000e+00
       13  1    1    2    0    0 +1.5775394396e+02 -7.9915418259e+01 +6.3845152233e+02 6.6249009598e+02 0.0000000000e+00 0.0000e+00 -1.0000e+00
<mgrwt>
<rscale>  0 0.37638912E+03</rscale>
<asrwt>0</asrwt>
<pdfrwt beam="1">  1        2 0.14913062E+00 0.37638912E+03</pdfrwt>
<pdfrwt beam="2">  1       -2 0.56210906E-02 0.37638912E+03</pdfrwt>
<totfact> 0.47984082E+03</totfact>
</mgrwt>
<rwgt>
<wgt id='morphing_basis_vector_1'> +2.1742628e-04 </wgt>
<wgt id='morphing_basis_vector_2'> +1.2106749e-04 </wgt>
<wgt id='morphing_basis_vector_3'> +1.3280711e-04 </wgt>
<wgt id='morphing_basis_vector_4'> +2.6969820e-05 </wgt>
<wgt id='morphing_basis_vector_5'> +2.1678371e-05 </wgt>
</rwgt>
</event>
<event>
 4      1 +3.1894900e-05 3.66327400e+02 7.81860800e-03 9.76145500e-02
        2 -1    0    0  501    0 +0.0000000000e+00 +0.0000000000e+00 +4.5875480002e+01 4.5875480002e+01 0.0000000000e+00 0.0000e+00 1.0000e+00
       -2 -1    0    0    0  501 -0.0000000000e+00 -0.0000000000e+00 -7.3130447875e+02 7.3130447875e+02 0.0000000000e+00 0.0000e+00 -1.0000e+00
      -13  1    1    2    0    0 +1.4063290702e+02 +4.1746997932e+00 -5.9152294734e+02 6.0802503229e+02 0.0000000000e+00 0.0000e+00 -1.0000e+00
       13  1    1    2    0    0 -1.4063290702e+02 -4.1746997932e+00 -9.3906051403e+01 1.6915492646e+02 0.0000000000e+00 0.0000e+00 1.0000e+00
<mgrwt>
<rscale>  0 0.36632742E+03</rscale>
<asrwt>0</asrwt>
<pdfrwt beam="1">  1        2 0.70577660E-02 0.36632742E+03</pdfrwt>
<pdfrwt beam="2">  1       -2 0.11250838E+00 0.36632742E+03</pdfrwt>
<totfact> 0.83212544E+02</totfact>
</mgrwt>
<rwgt>
<wgt id='morphing_basis_vector_1'> +2.0190407e-04 </wgt>
<wgt id='morphing_basis_vector_2'> +1.0943549e-04 </wgt>
<wgt id='morphing_basis_vector_3'> +1.2411020e-04 </wgt>
<wgt id='morphing_basis_vector_4'> +2.3607006e-05 </wgt>
<wgt id='morphing_basis_vector_5'> +1.6734878e-05 </wgt>
</rwgt>
</event>
<event>
 4      1 +3.1894900e-05 4.22839900e+02 7.81860800e-03 9.59129500e-02
        2 -1    0    0  501    0 +0.0000000000e+00 +0.0000000000e+00 +3.0558622067e+02 3.0558622067e+02 0.0000000000e+00 0.0000e+00 1.0000e+00
       -2 -1    0    0    0  501 -0.0000000000e+00 -0.0000000000e+00 -1.4627099595e+02 1.4627099595e+02 0.0000000000e+00 0.0000e+00 -1.0000e+00
      -13  1    1    2    0    0 -1.2642644127e+02 +2.3004766299e+01 -9.9748975872e+01 1.6267366877e+02 0.0000000000e+00 0.0000e+00 -1.0000e+00
       13  1    1    2    0    0 +1.2642644127e+02 -2.3004766299e+01 +2.5906420058e+02 2.8918354785e+02 0.0000000000e+00 0.0000e+00 1.0000e+00
<mgrwt>
<rscale>  0 0.42283993E+03</rscale>
<asrwt>0</asrwt>
<pdfrwt beam="1">  1        2 0.47013265E-01 0.42283993E+03</pdfrwt>
<pdfrwt beam="2">  1       -2 0.22503230E-01 0.42283993E+03</pdfrwt>
<totfact> 0.20902670E+03</totfact>
</mgrwt>
<rwgt>
<wgt id='morphing_basis_vector_1'> +2.9317185e-04 </wgt>
<wgt id='morphing_basis_vector_2'> +1.5804865e-04 </wgt>
<wgt id='morphing_basis_vector_3'> +1.9296042e-04 </wgt>
<wgt id='morphing_basis_vector_4'> +4.7927044e-05 </wgt>
<wgt id='morphing_basis_vector_5'> +5.4819621e-05 </wgt>
</rwgt>
</event>
<event>
 4      1 +3.1894900e-05 3.73969000e+02 7.81860800e-03 9.73658900e-02
        2 -1    0    0  501    0 +0.0000000000e+00 +0.0000000000e+00 +6.3599054190e+02 6.3599054190e+02 0.0000000000e+00 0.0000e+00 1.0000e+00
       -2 -1    0    0    0  501 -0.0000000000e+00 -0.0000000000e+00 -5.4974396882e+01 5.4974396882e+01 0.0000000000e+00 0.0000e+00 -1.0000e+00
      -13  1    1    2    0    0 -1.3285583840e+02 -1.2037633595e+02 +1.9235506691e+02 2.6294791846e+02 0.0000000000e+00 0.0000e+00 -1.0000e+00
       13  1    1    2    0    0 +1.3285583840e+02 +1.2037633595e+02 +3.8866107810e+02 4.2801702032e+02 0.0000000000e+00 0.0000e+00 1.0000e+00
<mgrwt>
<rscale>  0 0.37396896E+03</rscale>
<asrwt>0</asrwt>
<pdfrwt beam="1">  1        2 0.97844694E-01 0.37396896E+03</pdfrwt>
<pdfrwt beam="2">  1       -2 0.84575999E-02 0.37396896E+03</pdfrwt>
<totfact> 0.43584091E+03</totfact>
</mgrwt>
<rwgt>
<wgt id='morphing_basis_vector_1'> +2.1439426e-04 </wgt>
<wgt id='morphing_basis_vector_2'> +1.2057876e-04 </wgt>
<wgt id='morphing_basis_vector_3'> +1.2977410e-04 </wgt>
<wgt id='morphing_basis_vector_4'> +2.6281007e-05 </wgt>
<wgt id='morphing_basis_vector_5'> +2.0471939e-05 </wgt>
</rwgt>
</event>
<event>
 4      1 +3.1894900e-05 3.93331600e+02 7.81860800e-03 9.67633700e-02
        2 -1    0    0  501    0 +0.0000000000e+00 +0.0000000000e+00 +1.9685929310e+02 1.9685929310e+02 0.0000000000e+00 0.0000e+00 1.0000e+00
       -2 -1    0    0    0  501 -0.0000000000e+00 -0.0000000000e+00 -1.9647247203e+02 1.9647247203e+02 0.0000000000e+00 0.0000e+00 -1.0000e+00
      -13  1    1    2    0    0 +6.0919332881e+01 -1.8554287090e+02 +2.3433686297e+01 1.9668873815e+02 0.0000000000e+00 0.0000e+00 1.0000e+00
       13  1    1    2    0    0 -6.0919332881e+01 +1.8554287090e+02 -2.3046865234e+01 1.9664302698e+02 0.0000000000e+00 0.0000e+00 -1.0000e+00
<mgrwt>
<rscale>  0 0.39333157E+03</rscale>
<asrwt>0</asrwt>
<pdfrwt beam="1">  1        2 0.30286045E-01 0.39333157E+03</pdfrwt>
<pdfrwt beam="2">  1       -2 0.30226534E-01 0.39333157E+03</pdfrwt>
<totfact> 0.20691370E+03</totfact>
</mgrwt>
<rwgt>
<wgt id='morphing_basis_vector_1'> +2.5303380e-04 </wgt>
<wgt id='morphing_basis_vector_2'> +1.6471016e-04 </wgt>
<wgt id='morphing_basis_vector_3'> +1.4236757e-04 </wgt>
<wgt id='morphing_basis_vector_4'> +3.4156697e-05 </wgt>
<wgt id='morphing_basis_vector_5'> +3.2266772e-05 </wgt>
</rwgt>
</event>
<event>
 4      1 +3.1894900e-05 4.19371900e+02 7.81860800e-03 9.60090200e-02
        2 -1    0    0  501    0 +0.0000000000e+00 +0.0000000000e+00 +1.1424318854e+02 1.1424318854e+02 0.0000000000e+00 0.0000e+00 -1.0000e+00
       -2 -1    0    0    0  501 -0.0000000000e+00 -0.0000000000e+00 -3.8486493653e+02 3.8486493653e+02 0.0000000000e+00 0.0000e+00 1.0000e+00
      -13  1    1    2    0    0 +1.4064478717e+02 -1.0506303711e+02 -2.7178228097e+02 3.2355031475e+02 0.0000000000e+00 0.0000e+00 1.0000e+00
       13  1    1    2    0    0 -1.4064478717e+02 +1.0506303711e+02 +1.1605329861e+00 1.7555781031e+02 0.0000000000e+00 0.0000e+00 -1.0000e+00
<mgrwt>
<rscale>  0 0.41937190E+03</rscale>
<asrwt>0</asrwt>
<pdfrwt beam="1">  1        2 0.17575875E-01 0.41937190E+03</pdfrwt>
<pdfrwt beam="2">  1       -2 0.59209990E-01 0.41937190E+03</pdfrwt>
<totfact> 0.11152141E+03</totfact>
</mgrwt>
<rwgt>
<wgt id='morphing_basis_vector_1'> +2.8737535e-04 </wgt>
<wgt id='morphing_basis_vector_2'> +1.5666921e-04 </wgt>
<wgt id='morphing_basis_vector_3'> +1.8728824e-04 </wgt>
<wgt id='morphing_basis_vector_4'> +4.5886994e-05 </wgt>
<wgt id='morphing_basis_vector_5'> +5.1697225e-05 </wgt>
</rwgt>
</event>
<event>
 4      1 +3.1894900e-05 3.81557100e+02 7.81860800e-03 9.71252100e-02
        2 -1    0    0  501    0 +0.0000000000e+00 +0.0000000000e+00 +3.6778813492e+02 3.6778813492e+02 0.0000000000e+00 0.0000e+00 1.0000e+00
       -2 -1    0    0    0  501 -0.0000000000e+00 -0.0000000000e+00 -9.8960375135e+01 9.8960375135e+01 0.0000000000e+00 0.0000e+00 -1.0000e+00
      -13  1    1    2    0    0 +1.2141128147e+02 +1.4141327984e+02 +1.8422433454e+02 2.6206300850e+02 0.0000000000e+00 0.0000e+00 -1.0000e+00
       13  1    1    2    0    0 -1.2141128147e+02 -1.4141327984e+02 +8.4603425237e+01 2.0468550155e+02 0.0000000000e+00 0.0000e+00 1.0000e+00
<mgrwt>
<rscale>  0 0.38155708E+03</rscale>
<asrwt>0</asrwt>
<pdfrwt beam="1">  1        2 0.56582790E-01 0.38155708E+03</pdfrwt>
<pdfrwt beam="2">  1       -2 0.15224673E-01 0.38155708E+03</pdfrwt>
<totfact> 0.32153056E+03</totfact>
</mgrwt>
<rwgt>
<wgt id='morphing_basis_vector_1'> +2.3799274e-04 </wgt>
<wgt id='morphing_basis_vector_2'> +1.6445712e-04 </wgt>
<wgt id='morphing_basis_vector_3'> +1.2478975e-04 </wgt>
<wgt id='morphing_basis_vector_4'> +3.0732788e-05 </wgt>
<wgt id='morphing_basis_vector_5'> +2.5326153e-05 </wgt>
</rwgt>
</event>
<event>
 4      1 +3.1894900e-05 3.65872800e+02 7.81860800e-03 9.76295400e-02
        2 -1    0    0  501    0 +0.0000000000e+00 +0.0000000000e+00 +1.2592979602e+02 1.2592979602e+02 0.0000000000e+00 0.0000e+00 -1.0000e+00
       -2 -1    0    0    0  501 -0.0000000000e+00 -0.0000000000e+00 -2.6574908093e+02 2.6574908093e+02 0.0000000000e+00 0.0000e+00 1.0000e+00
      -13  1    1    2    0    0 -1.1217680459e+02 +9.1634184648e+01 -1.8952830958e+02 2.3854022599e+02 0.0000000000e+00 0.0000e+00 1.0000e+00
       13  1    1    2    0    0 +1.1217680459e+02 -9.1634184648e+01 +4.9709024670e+01 1.5313865096e+02 0.0000000000e+00 0.0000e+00 -1.0000e+00
<mgrwt>
<rscale>  0 0.36587281E+03</rscale>
<asrwt>0</asrwt>
<pdfrwt beam="1">  1        2 0.19373815E-01 0.36587281E+03</pdfrwt>
<pdfrwt beam="2">  1       -2 0.40884474E-01 0.36587281E+03</pdfrwt>
<totfact> 0.20226121E+03</totfact>
</mgrwt>
<rwgt>
<wgt id='morphing_basis_vector_1'> +2.0135280e-04 </wgt>
<wgt id='morphing_basis_vector_2'> +1.0931453e-04 </wgt>
<wgt id='morphing_basis_vector_3'> +1.2359204e-04 </wgt>
<wgt id='morphing_basis_vector_4'> +2.3493087e-05 </wgt>
<wgt id='morphing_basis_vector_5'> +1.6537499e-05 </wgt>
</rwgt>
</event>
<event>
 4      1 +3.1894900e-05 4.17286800e+02 7.81860800e-03 9.60672500e-02
        2 -1    0    0  501    0 +0.0000000000e+00 +0.0000000000e+00 +2.0252854558e+02 2.0252854558e+02 0.0000000000e+00 0.0000e+00 1.0000e+00
       -2 -1    0    0    0  501 -0.0000000000e+00 -0.0000000000e+00 -2.1494289834e+02 2.1494289834e+02 0.0000000000e+00 0.0000e+00 -1.0000e+00
      -13  1    1    2    0    0 -1.2669959442e+02 +1.6554994104e+02 -1.4725776742e+01 2.0898903967e+02 0.0000000000e+00 0.0000e+00 -1.0000e+00
       13  1    1    2    0    0 +1.2669959442e+02 -1.6554994104e+02 +2.3114239769e+00 2.0848240425e+02 0.0000000000e+00 0.0000e+00 1.0000e+00
<mgrwt>
<rscale>  0 0.41728682E+03</rscale>
<asrwt>0</asrwt>
<pdfrwt beam="1">  1        2 0.31158238E-01 0.41728682E+03</pdfrwt>
<pdfrwt beam="2">  1       -2 0.33068138E-01 0.41728682E+03</pdfrwt>
<totfact> 0.17123640E+03</totfact>
</mgrwt>
<rwgt>
<wgt id='morphing_basis_vector_1'> +2.9038527e-04 </wgt>
<wgt id='morphing_basis_vector_2'> +1.7563823e-04 </wgt>
<wgt id='morphing_basis_vector_3'> +1.7846337e-04 </wgt>
<wgt id='morphing_basis_vector_4'> +4.4569115e-05 </wgt>
<wgt id='morphing_basis_vector_5'> +5.0282977e-05 </wgt>
</rwgt>
</event>
<event>
 4      1 +3.1894900e-05 4.10684500e+02 7.81860800e-03 9.62540500e-02
        2 -1    0    0  501    0 +0.0000000000e+00 +0.0000000000e+00 +3.3943347508e+02 3.3943347508e+02 0.0000000000e+00 0.0000e+00 -1.0000e+00
       -2 -1    0    0    0  501 -0.0000000000e+00 -0.0000000000e+00 -1.2422296737e+02 1.2422296737e+02 0.0000000000e+00 0.0000e+00 1.0000e+00
      -13  1    1    2    0    0 -3.2317092829e+01 -1.9460087708e+02 +4.3228005201e+01 2.0194691451e+02 0.0000000000e+00 0.0000e+00 -1.0000e+00
       13  1    1    2    0    0 +3.2317092829e+01 +1.9460087708e+02 +1.7198250251e+02 2.6170952794e+02 0.0000000000e+00 0.0000e+00 1.0000e+00
<mgrwt>
<rscale>  0 0.41068447E+03</rscale>
<asrwt>0</asrwt>
<pdfrwt beam="1">  1        2 0.52220534E-01 0.41068447E+03</pdfrwt>
<pdfrwt beam="2">  1       -2 0.19111226E-01 0.41068447E+03</pdfrwt>
<totfact> 0.24366889E+03</totfact>
</mgrwt>
<rwgt>
<wgt id='morphing_basis_vector_1'> +2.7367007e-04 </wgt>
<wgt id='morphing_basis_vector_2'> +1.5435573e-04 </wgt>
<wgt id='morphing_basis_vector_3'> +1.7325238e-04 </wgt>
<wgt id='morphing_basis_vector_4'> +4.1212085e-05 </wgt>
<wgt id='morphing_basis_vector_5'> +4.4414020e-05 </wgt>
</rwgt>
</event>
<event>
 4      1 +3.1894900e-05 4.07736200e+02 7.81860800e-03 9.63386700e-02
        2 -1    0    0  501    0 +0.0000000000e+00 +0.0000000000e+00 +1.5173584339e+02 1.5173584339e+02 0.0000000000e+00 0.0000e+00 -1.0000e+00
       -2 -1    0    0    0  501 -0.0000000000e+00 -0.0000000000e+00 -2.7391151250e+02 2.7391151250e+02 0.0000000000e+00 0.0000e+00 1.0000e+00
      -13  1    1    2    0    0 -7.1872311316e+00 +1.9954361399e+02 -1.8135741259e+01 2.0049492583e+02 0.0000000000e+00 0.0000e+00 1.0000e+00
       13  1    1    2    0    0 +7.1872311316e+00 -1.9954361399e+02 -1.0403992785e+02 2.2515243006e+02 0.0000000000e+00 0.0000e+00 -1.0000e+00
<mgrwt>
<rscale>  0 0.40773616E+03</rscale>
<asrwt>0</asrwt>
<pdfrwt beam="1">  1        2 0.23343976E-01 0.40773616E+03</pdfrwt>
<pdfrwt beam="2">  1       -2 0.42140232E-01 0.40773616E+03</pdfrwt>
<totfact> 0.15387300E+03</totfact>
</mgrwt>
<rwgt>
<wgt id='morphing_basis_vector_1'> +2.8264704e-04 </wgt>
<wgt id='morphing_basis_vector_2'> +1.9488741e-04 </wgt>
<wgt id='morphing_basis_vector_3'> +1.5647441e-04 </wgt>
<wgt id='morphing_basis_vector_4'> +4.0108058e-05 </wgt>
<wgt id='morphing_basis_vector_5'> +4.2973442e-05 </wgt>
</rwgt>
</event>
<event>
 4      1 +3.1894900e-05 3.89827500e+02 7.81860800e-03 9.68696200e-02
        2 -1    0    0  501    0 +0.0000000000e+00 +0.0000000000e+00 +1.1349510213e+03 1.1349510213e+03 0.0000000000e+00 0.0000e+00 -1.0000e+00
       -2 -1    0    0    0  501 -0.0000000000e+00 -0.0000000000e+00 -3.3474008604e+01 3.3474008604e+01 0.0000000000e+00 0.0000e+00 1.0000e+00
      -13  1    1    2    0    0 +1.7447406362e+02 +5.3423980647e+01 +3.4534140384e+02 3.9058418528e+02 0.0000000000e+00 0.0000e+00 1.0000e+00
       13  1    1    2    0    0 -1.7447406362e+02 -5.3423980647e+01 +7.5613560889e+02 7.7784084465e+02 0.0000000000e+00 0.0000e+00 -1.0000e+00
<mgrwt>
<rscale>  0 0.38982745E+03</rscale>
<asrwt>0</asrwt>
<pdfrwt beam="1">  1        2 0.17460782E+00 0.38982745E+03</pdfrwt>
<pdfrwt beam="2">  1       -2 0.51498483E-02 0.38982745E+03</pdfrwt>
<totfact> 0.43720066E+03</totfact>
</mgrwt>
<rwgt>
<wgt id='morphing_basis_vector_1'> +2.3779012e-04 </wgt>
<wgt id='morphing_basis_vector_2'> +1.3218017e-04 </wgt>
<wgt id='morphing_basis_vector_3'> +1.4772256e-04 </wgt>
<wgt id='morphing_basis_vector_4'> +3.1810730e-05 </wgt>
<wgt id='morphing_basis_vector_5'> +2.9380515e-05 </wgt>
</rwgt>
</event>
<event>
 4      1 +3.1894900e-05 3.68536100e+02 7.81860800e-03 9.75420100e-02
        2 -1    0    0  501    0 +0.0000000000e+00 +0.0000000000e+00 +3.1596641830e+02 3.1596641830e+02 0.0000000000e+00 0.0000e+00 -1.0000e+00
       -2 -1    0    0    0  501 -0.0000000000e+00 -0.0000000000e+00 -1.0746302052e+02 1.0746302052e+02 0.0000000000e+00 0.0000e+00 1.0000e+00
      -13  1    1    2    0    0 +7.0325064589e+01 +1.2705429848e+02 -2.6073333335e+01 1.4754059842e+02 0.0000000000e+00 0.0000e+00 1.0000e+00
       13  1    1    2    0    0 -7.0325064589e+01 -1.2705429848e+02 +2.3457673111e+02 2.7588884039e+02 0.0000000000e+00 0.0000e+00 -1.0000e+00
<mgrwt>
<rscale>  0 0.36853605E+03</rscale>
<asrwt>0</asrwt>
<pdfrwt beam="1">  1        2 0.48610218E-01 0.36853605E+03</pdfrwt>
<pdfrwt beam="2">  1       -2 0.16532773E-01 0.36853605E+03</pdfrwt>
<totfact> 0.33293869E+03</totfact>
</mgrwt>
<rwgt>
<wgt id='morphing_basis_vector_1'> +2.0499685e-04 </wgt>
<wgt id='morphing_basis_vector_2'> +1.1121336e-04 </wgt>
<wgt id='morphing_basis_vector_3'> +1.2620771e-04 </wgt>
<wgt id='morphing_basis_vector_4'> +2.4263889e-05 </wgt>
<wgt id='morphing_basis_vector_5'> +1.7740376e-05 </wgt>
</rwgt>
</event>
<event>
 4      1 +3.1894900e-05 3.68128900e+02 7.81860800e-03 9.75553400e-02
        2 -1    0    0  501    0 +0.0000000000e+00 +0.0000000000e+00 +1.0089279106e+02 1.0089279106e+02 0.0000000000e+00 0.0000e+00 1.0000e+00
       -2 -1    0    0    0  501 -0.0000000000e+00 -0.0000000000e+00 -3.3579930539e+02 3.3579930539e+02 0.0000000000e+00 0.0000e+00 -1.0000e+00
      -13  1    1    2    0    0 -9.0652669656e+01 -8.7260376105e+01 -2.7681471270e+02 3.0407016447e+02 0.0000000000e+00 0.0000e+00 -1.0000e+00
       13  1    1    2    0    0 +9.0652669656e+01 +8.7260376105e+01 +4.1908198361e+01 1.3262193199e+02 0.0000000000e+00 0.0000e+00 1.0000e+00
<mgrwt>
<rscale>  0 0.36812894E+03</rscale>
<asrwt>0</asrwt>
<pdfrwt beam="1">  1        2 0.15521968E-01 0.36812894E+03</pdfrwt>
<pdfrwt beam="2">  1       -2 0.51661430E-01 0.36812894E+03</pdfrwt>
<totfact> 0.16950326E+03</totfact>
</mgrwt>
<rwgt>
<wgt id='morphing_basis_vector_1'> +2.0421572e-04 </wgt>
<wgt id='morphing_basis_vector_2'> +1.1025644e-04 </wgt>
<wgt id='morphing_basis_vector_3'> +1.2605212e-04 </wgt>
<wgt id='morphing_basis_vector_4'> +2.4095060e-05 </wgt>
<wgt id='morphing_basis_vector_5'> +1.7538762e-05 </wgt>
</rwgt>
</event>
<event>
 4      1 +3.1894900e-05 3.79480400e+02 7.81860800e-03 9.71904800e-02
        2 -1    0    0  501    0 +0.0000000000e+00 +0.0000000000e+00 +1.8435428779e+03 1.8435428779e+03 0.0000000000e+00 0.0000e+00 1.0000e+00
       -2 -1    0    0    0  501 -0.0000000000e+00 -0.0000000000e+00 -1.9528341953e+01 1.9528341953e+01 0.0000000000e+00 0.0000e+00 -1.0000e+00
      -13  1    1    2    0    0 -1.6992240807e+02 -7.9115078566e+01 +7.6732047434e+02 7.8988197268e+02 0.0000000000e+00 0.0000e+00 -1.0000e+00
       13  1    1    2    0    0 +1.6992240807e+02 +7.9115078566e+01 +1.0566940616e+03 1.0731892472e+03 0.0000000000e+00 0.0000e+00 1.0000e+00
<mgrwt>
<rscale>  0 0.37948036E+03</rscale>
<asrwt>0</asrwt>
<pdfrwt beam="1">  1        2 0.28362184E+00 0.37948036E+03</pdfrwt>
<pdfrwt beam="2">  1       -2 0.30043617E-02 0.37948036E+03</pdfrwt>
<totfact> 0.40149250E+03</totfact>
</mgrwt>
<rwgt>
<wgt id='morphing_basis_vector_1'> +2.2402284e-04 </wgt>
<wgt id='morphing_basis_vector_2'> +1.2976740e-04 </wgt>
<wgt id='morphing_basis_vector_3'> +1.3392063e-04 </wgt>
<wgt id='morphing_basis_vector_4'> +2.8345111e-05 </wgt>
<wgt id='morphing_basis_vector_5'> +2.3459599e-05 </wgt>
</rwgt>
</event>
<event>
 4      1 +3.1894900e-05 4.11464100e+02 7.81860800e-03 9.62317900e-02
        2 -1    0    0  501    0 +0.0000000000e+00 +0.0000000000e+00 +4.3716128230e+02 4.3716128230e+02 0.0000000000e+00 0.0000e+00 1.0000e+00
       -2 -1    0    0    0  501 -0.0000000000e+00 -0.0000000000e+00 -9.6819360485e+01 9.6819360485e+01 0.0000000000e+00 0.0000e+00 -1.0000e+00
      -13  1    1    2    0    0 -1.8210507732e+02 +5.3278807106e+01 +2.7337969749e+02 3.3277221860e+02 0.0000000000e+00 0.0000e+00 1.0000e+00
       13  1    1    2    0    0 +1.8210507732e+02 -5.3278807106e+01 +6.6962224321e+01 2.0120842418e+02 0.0000000000e+00 0.0000e+00 -1.0000e+00
<mgrwt>
<rscale>  0 0.41146410E+03</rscale>
<asrwt>0</asrwt>
<pdfrwt beam="1">  1        2 0.67255581E-01 0.41146410E+03</pdfrwt>
<pdfrwt beam="2">  1       -2 0.14895287E-01 0.41146410E+03</pdfrwt>
<totfact> 0.27527335E+03</totfact>
</mgrwt>
<rwgt>
<wgt id='morphing_basis_vector_1'> +3.0433271e-04 </wgt>
<wgt id='morphing_basis_vector_2'> +2.4490357e-04 </wgt>
<wgt id='morphing_basis_vector_3'> +1.4852588e-04 </wgt>
<wgt id='morphing_basis_vector_4'> +4.1808898e-05 </wgt>
<wgt id='morphing_basis_vector_5'> +4.6920383e-05 </wgt>
</rwgt>
</event>
<event>
 4      1 +3.1894900e-05 4.20175300e+02 7.81860800e-03 9.59866800e-02
        2 -1    0    0  501    0 +0.0000000000e+00 +0.0000000000e+00 +5.9583380055e+02 5.9583380055e+02 0.0000000000e+00 0.0000e+00 1.0000e+00
       -2 -1    0    0    0  501 -0.0000000000e+00 -0.0000000000e+00 -7.4075714339e+01 7.4075714339e+01 0.0000000000e+00 0.0000e+00 -1.0000e+00
      -13  1    1    2    0    0 +1.8086276153e+02 -1.0315031856e+02 +3.0556338288e+02 3.6975709282e+02 0.0000000000e+00 0.0000e+00 1.0000e+00
       13  1    1    2    0    0 -1.8086276153e+02 +1.0315031856e+02 +2.1619470333e+02 3.0015242207e+02 0.0000000000e+00 0.0000e+00 -1.0000e+00
<mgrwt>
<rscale>  0 0.42017527E+03</rscale>
<asrwt>0</asrwt>
<pdfrwt beam="1">  1        2 0.91666736E-01 0.42017527E+03</pdfrwt>
<pdfrwt beam="2">  1       -2 0.11396264E-01 0.42017527E+03</pdfrwt>
<totfact> 0.29664907E+03</totfact>
</mgrwt>
<rwgt>
<wgt id='morphing_basis_vector_1'> +3.0273660e-04 </wgt>
<wgt id='morphing_basis_vector_2'> +2.0010381e-04 </wgt>
<wgt id='morphing_basis_vector_3'> +1.7691430e-04 </wgt>
<wgt id='morphing_basis_vector_4'> +4.5849642e-05 </wgt>
<wgt id='morphing_basis_vector_5'> +5.3286000e-05 </wgt>
</rwgt>
</event>
<event>
 4      1 +3.1894900e-05 4.02221700e+02 7.81860800e-03 9.64990100e-02
        2 -1    0    0  501    0 +0.0000000000e+00 +0.0000000000e+00 +1.5301628379e+02 1.5301628379e+02 0.0000000000e+00 0.0000e+00 -1.0000e+00
       -2 -1    0    0    0  501 -0.0000000000e+00 -0.0000000000e+00 -2.6432202948e+02 2.6432202948e+02 0.0000000000e+00 0.0000e+00 1.0000e+00
      -13  1    1    2    0    0 -8.1449001895e+01 +1.3899088649e+02 -1.8056494772e+02 2.4198369114e+02 0.0000000000e+00 0.0000e+00 1.0000e+00
       13  1    1    2    0    0 +8.1449001895e+01 -1.3899088649e+02 +6.9259202021e+01 1.7535462212e+02 0.0000000000e+00 0.0000e+00 -1.0000e+00
<mgrwt>
<rscale>  0 0.40222170E+03</rscale>
<asrwt>0</asrwt>
<pdfrwt beam="1">  1        2 0.23540967E-01 0.40222170E+03</pdfrwt>
<pdfrwt beam="2">  1       -2 0.40664927E-01 0.40222170E+03</pdfrwt>
<totfact> 0.16273511E+03</totfact>
</mgrwt>
<rwgt>
<wgt id='morphing_basis_vector_1'> +2.5669355e-04 </wgt>
<wgt id='morphing_basis_vector_2'> +1.3919693e-04 </wgt>
<wgt id='morphing_basis_vector_3'> +1.6415912e-04 </wgt>
<wgt id='morphing_basis_vector_4'> +3.7030089e-05 </wgt>
<wgt id='morphing_basis_vector_5'> +3.7724071e-05 </wgt>
</rwgt>
</event>
<event>
 4      1 +3.1894900e-05 3.71588300e+02 7.81860800e-03 9.74426700e-02
        2 -1    0    0  501    0 +0.0000000000e+00 +0.0000000000e+00 +1.9931975954e+02 1.9931975954e+02 0.0000000000e+00 0.0000e+00 -1.0000e+00
       -2 -1    0    0    0  501 -0.0000000000e+00 -0.0000000000e+00 -1.7318641779e+02 1.7318641779e+02 0.0000000000e+00 0.0000e+00 1.0000e+00
      -13  1    1    2    0    0 +1.0616748407e+02 -6.2922205985e-01 -1.3978139088e+02 1.7552996277e+02 0.0000000000e+00 0.0000e+00 1.0000e+00
       13  1    1    2    0    0 -1.0616748407e+02 +6.2922205985e-01 +1.6591473263e+02 1.9697621455e+02 0.0000000000e+00 0.0000e+00 -1.0000e+00
<mgrwt>
<rscale>  0 0.37158835E+03</rscale>
<asrwt>0</asrwt>
<pdfrwt beam="1">  1        2 0.30664578E-01 0.37158835E+03</pdfrwt>
<pdfrwt beam="2">  1       -2 0.26644064E-01 0.37158835E+03</pdfrwt>
<totfact> 0.25328102E+03</totfact>
</mgrwt>
<rwgt>
<wgt id='morphing_basis_vector_1'> +2.0893314e-04 </wgt>
<wgt id='morphing_basis_vector_2'> +1.1248737e-04 </wgt>
<wgt id='morphing_basis_vector_3'> +1.2962049e-04 </wgt>
<wgt id='morphing_basis_vector_4'> +2.5123104e-05 </wgt>
<wgt id='morphing_basis_vector_5'> +1.9161647e-05 </wgt>
</rwgt>
</event>
<event>
 4      1 +3.1894900e-05 4.28407000e+02 7.81860800e-03 9.57607700e-02
        2 -1    0    0  501    0 +0.0000000000e+00 +0.0000000000e+00 +8.2082586465e+02 8.2082586465e+02 0.0000000000e+00 0.0000e+00 -1.0000e+00
       -2 -1    0    0    0  501 -0.0000000000e+00 -0.0000000000e+00 -5.5898746705e+01 5.5898746705e+01 0.0000000000e+00 0.0000e+00 1.0000e+00
      -13  1    1    2    0    0 -1.5632114381e+02 -8.0693126025e+01 +1.3236228641e+02 2.2015325447e+02 0.0000000000e+00 0.0000e+00 1.0000e+00
       13  1    1    2    0    0 +1.5632114381e+02 +8.0693126025e+01 +6.3256483153e+02 6.5657135688e+02 0.0000000000e+00 0.0000e+00 -1.0000e+00
<mgrwt>
<rscale>  0 0.42840699E+03</rscale>
<asrwt>0</asrwt>
<pdfrwt beam="1">  1        2 0.12628089E+00 0.42840699E+03</pdfrwt>
<pdfrwt beam="2">  1       -2 0.85998078E-02 0.42840699E+03</pdfrwt>
<totfact> 0.31265909E+03</totfact>
</mgrwt>
<rwgt>
<wgt id='morphing_basis_vector_1'> +3.0454781e-04 </wgt>
<wgt id='morphing_basis_vector_2'> +1.6597643e-04 </wgt>
<wgt id='morphing_basis_vector_3'> +2.0084921e-04 </wgt>
<wgt id='morphing_basis_vector_4'> +5.1276255e-05 </wgt>
<wgt id='morphing_basis_vector_5'> +6.0198521e-05 </wgt>
</rwgt>
</event>
<event>
 4      1 +3.1894900e-05 3.63413000e+02 7.81860800e-03 9.77111000e-02
        2 -1    0    0  501    0 +0.0000000000e+00 +0.0000000000e+00 +1.8871946488e+02 1.8871946488e+02 0.0000000000e+00 0.0000e+00 -1.0000e+00
       -2 -1    0    0    0  501 -0.0000000000e+00 -0.0000000000e+00 -1.7495416824e+02 1.7495416824e+02 0.0000000000e+00 0.0000e+00 1.0000e+00
      -13  1    1    2    0    0 +6.0324556695e+01 +1.2781000999e+02 -1.0740435496e+02 1.7751097504e+02 0.0000000000e+00 0.0000e+00 1.0000e+00
       13  1    1    2    0    0 -6.0324556695e+01 -1.2781000999e+02 +1.2116965160e+02 1.8616265808e+02 0.0000000000e+00 0.0000e+00 -1.0000e+00
<mgrwt>
<rscale>  0 0.36341303E+03</rscale>
<asrwt>0</asrwt>
<pdfrwt beam="1">  1        2 0.29033764E-01 0.36341303E+03</pdfrwt>
<pdfrwt beam="2">  1       -2 0.26916026E-01 0.36341303E+03</pdfrwt>
<totfact> 0.26478165E+03</totfact>
</mgrwt>
<rwgt>
<wgt id='morphing_basis_vector_1'> +1.9798724e-04 </wgt>
<wgt id='morphing_basis_vector_2'> +1.0743550e-04 </wgt>
<wgt id='morphing_basis_vector_3'> +1.2128502e-04 </wgt>
<wgt id='morphing_basis_vector_4'> +2.2796741e-05 </wgt>
<wgt id='morphing_basis_vector_5'> +1.5468018e-05 </wgt>
</rwgt>
</event>
<event>
 4      1 +3.1894900e-05 3.65111500e+02 7.81860800e-03 9.76547100e-02
        2 -1    0    0  501    0 +0.0000000000e+00 +0.0000000000e+00 +3.1231976497e+02 3.1231976497e+02 0.0000000000e+00 0.0000e+00 1.0000e+00
       -2 -1    0    0    0  501 -0.0000000000e+00 -0.0000000000e+00 -1.0670665136e+02 1.0670665136e+02 0.0000000000e+00 0.0000e+00 -1.0000e+00
      -13  1    1    2    0    0 -9.9239259485e+01 +1.0671887992e+02 -2.3380711844e+01 1.4759406371e+02 0.0000000000e+00 0.0000e+00 -1.0000e+00
       13  1    1    2    0    0 +9.9239259485e+01 -1.0671887992e+02 +2.2899382545e+02 2.7143235262e+02 0.0000000000e+00 0.0000e+00 1.0000e+00
<mgrwt>
<rscale>  0 0.36511147E+03</rscale>
<asrwt>0</asrwt>
<pdfrwt beam="1">  1        2 0.48049194E-01 0.36511147E+03</pdfrwt>
<pdfrwt beam="2">  1       -2 0.16416408E-01 0.36511147E+03</pdfrwt>
<totfact> 0.34099754E+03</totfact>
</mgrwt>
<rwgt>
<wgt id='morphing_basis_vector_1'> +2.0033988e-04 </wgt>
<wgt id='morphing_basis_vector_2'> +1.0883234e-04 </wgt>
<wgt id='morphing_basis_vector_3'> +1.2283392e-04 </wgt>
<wgt id='morphing_basis_vector_4'> +2.3282886e-05 </wgt>
<wgt id='morphing_basis_vector_5'> +1.6204129e-05 </wgt>
</rwgt>
</event>
<event>
 4      1 +3.1894900e-05 3.62305500e+02 7.81860800e-03 9.77480500e-02
        2 -1    0    0  501    0 +0.0000000000e+00 +0.0000000000e+00 +6.2205438026e+02 6.2205438026e+02 0.0000000000e+00 0.0000e+00 -1.0000e+00
       -2 -1    0    0    0  501 -0.0000000000e+00 -0.0000000000e+00 -5.2754744829e+01 5.2754744829e+01 0.0000000000e+00 0.0000e+00 1.0000e+00
      -13  1    1    2    0    0 +5.0405592736e+01 +1.0509142543e+02 +2.6357592731e+01 1.1949750698e+02 0.0000000000e+00 0.0000e+00 1.0000e+00
       13  1    1    2    0    0 -5.0405592736e+01 -1.0509142543e+02 +5.4294204270e+02 5.5531161811e+02 0.0000000000e+00 0.0000e+00 -1.0000e+00
<mgrwt>
<rscale>  0 0.36230551E+03</rscale>
<asrwt>0</asrwt>
<pdfrwt beam="1">  1        2 0.95700669E-01 0.36230551E+03</pdfrwt>
<pdfrwt beam="2">  1       -2 0.81161150E-02 0.36230551E+03</pdfrwt>
<totfact> 0.47602102E+03</totfact>
</mgrwt>
<rwgt>
<wgt id='morphing_basis_vector_1'> +1.9628402e-04 </wgt>
<wgt id='morphing_basis_vector_2'> +1.0598572e-04 </wgt>
<wgt id='morphing_basis_vector_3'> +1.2049813e-04 </wgt>
<wgt id='morphing_basis_vector_4'> +2.2440358e-05 </wgt>
<wgt id='morphing_basis_vector_5'> +1.4987137e-05 </wgt>
</rwgt>
</event>
<event>
 4      1 +3.1894900e-05 3.89142200e+02 7.81860800e-03 9.68905400e-02
        2 -1    0    0  501    0 +0.0000000000e+00 +0.0000000000e+00 +1.1930935484e+03 1.1930935484e+03 0.0000000000e+00 0.0000e+00 -1.0000e+00
       -2 -1    0    0    0  501 -0.0000000000e+00 -0.0000000000e+00 -3.1730883032e+01 3.1730883032e+01 0.0000000000e+00 0.0000e+00 1.0000e+00
      -13  1    1    2    0    0 -1.7572131743e+02 +3.4773883686e+01 +3.4158107395e+02 3.8570044655e+02 0.0000000000e+00 0.0000e+00 1.0000e+00
       13  1    1    2    0    0 +1.7572131743e+02 -3.4773883686e+01 +8.1978159137e+02 8.3912398484e+02 0.0000000000e+00 0.0000e+00 -1.0000e+00
<mgrwt>
<rscale>  0 0.38914219E+03</rscale>
<asrwt>0</asrwt>
<pdfrwt beam="1">  1        2 0.18355282E+00 0.38914219E+03</pdfrwt>
<pdfrwt beam="2">  1       -2 0.48816752E-02 0.38914219E+03</pdfrwt>
<totfact> 0.43893853E+03</totfact>
</mgrwt>
<rwgt>
<wgt id='morphing_basis_vector_1'> +2.3641628e-04 </wgt>
<wgt id='morphing_basis_vector_2'> +1.3068831e-04 </wgt>
<wgt id='morphing_basis_vector_3'> +1.4722216e-04 </wgt>
<wgt id='morphing_basis_vector_4'> +3.1507212e-05 </wgt>
<wgt id='morphing_basis_vector_5'> +2.8932954e-05 </wgt>
</rwgt>
</event>
<event>
 4      1 +3.1894900e-05 3.65523400e+02 7.81860800e-03 9.76410900e-02
        2 -1    0    0  501    0 +0.0000000000e+00 +0.0000000000e+00 +1.5861732292e+02 1.5861732292e+02 0.0000000000e+00 0.0000e+00 1.0000e+00
       -2 -1    0    0    0  501 -0.0000000000e+00 -0.0000000000e+00 -2.1058131785e+02 2.1058131785e+02 0.0000000000e+00 0.0000e+00 -1.0000e+00
      -13  1    1    2    0    0 -1.0083365346e+02 -6.5809542652e+01 -1.6485449593e+02 2.0414535606e+02 0.0000000000e+00 0.0000e+00 -1.0000e+00
       13  1    1    2    0    0 +1.0083365346e+02 +6.5809542652e+01 +1.1289050100e+02 1.6505328470e+02 0.0000000000e+00 0.0000e+00 1.0000e+00
<mgrwt>
<rscale>  0 0.36552343E+03</rscale>
<asrwt>0</asrwt>
<pdfrwt beam="1">  1        2 0.24402665E-01 0.36552343E+03</pdfrwt>
<pdfrwt beam="2">  1       -2 0.32397126E-01 0.36552343E+03</pdfrwt>
<totfact> 0.23457355E+03</totfact>
</mgrwt>
<rwgt>
<wgt id='morphing_basis_vector_1'> +2.0062247e-04 </wgt>
<wgt id='morphing_basis_vector_2'> +1.0829497e-04 </wgt>
<wgt id='morphing_basis_vector_3'> +1.2354552e-04 </wgt>
<wgt id='morphing_basis_vector_4'> +2.3334038e-05 </wgt>
<wgt id='morphing_basis_vector_5'> +1.6366723e-05 </wgt>
</rwgt>
</event>
<event>
 4      1 +3.1894900e-05 3.66597100e+02 7.81860800e-03 9.76056600e-02
        2 -1    0    0  501    0 +0.0000000000e+00 +0.0000000000e+00 +3.7249102732e+02 3.7249102732e+02 0.0000000000e+00 0.0000e+00 1.0000e+00
       -2 -1    0    0    0  501 -0.0000000000e+00 -0.0000000000e+00 -9.0199085103e+01 9.0199085103e+01 0.0000000000e+00 0.0000e+00 -1.0000e+00
      -13  1    1    2    0    0 -7.5776449495e+01 -1.3223993503e+02 +1.2627024991e+01 1.5293434041e+02 0.0000000000e+00 0.0000e+00 -1.0000e+00
       13  1    1    2    0    0 +7.5776449495e+01 +1.3223993503e+02 +2.6966491722e+02 3.0975577201e+02 0.0000000000e+00 0.0000e+00 1.0000e+00
<mgrwt>
<rscale>  0 0.36659705E+03</rscale>
<asrwt>0</asrwt>
<pdfrwt beam="1">  1        2 0.57306311E-01 0.36659705E+03</pdfrwt>
<pdfrwt beam="2">  1       -2 0.13876783E-01 0.36659705E+03</pdfrwt>
<totfact> 0.36705481E+03</totfact>
</mgrwt>
<rwgt>
<wgt id='morphing_basis_vector_1'> +2.0249611e-04 </wgt>
<wgt id='morphing_basis_vector_2'> +1.1030410e-04 </wgt>
<wgt id='morphing_basis_vector_3'> +1.2411854e-04 </wgt>
<wgt id='morphing_basis_vector_4'> +2.3735845e-05 </wgt>
<wgt id='morphing_basis_vector_5'> +1.6869913e-05 </wgt>
</rwgt>
</event>
<event>
 4      1 +3.1894900e-05 3.93540500e+02 7.81860800e-03 9.67570700e-02
        2 -1    0    0  501    0 +0.0000000000e+00 +0.0000000000e+00 +1.7337493810e+02 1.7337493810e+02 0.0000000000e+00 0.0000e+00 -1.0000e+00
       -2 -1    0    0    0  501 -0.0000000000e+00 -0.0000000000e+00 -2.2332259146e+02 2.2332259146e+02 0.0000000000e+00 0.0000e+00 1.0000e+00
      -13  1    1    2    0    0 -7.4562931275e+01 +1.2338248577e+02 -1.5997229385e+02 2.1534624054e+02 0.0000000000e+00 0.0000e+00 1.0000e+00
       13  1    1    2    0    0 +7.4562931275e+01 -1.2338248577e+02 +1.1002464049e+02 1.8135128902e+02 0.0000000000e+00 0.0000e+00 -1.0000e+00
<mgrwt>
<rscale>  0 0.39354055E+03</rscale>
<asrwt>0</asrwt>
<pdfrwt beam="1">  1        2 0.26673068E-01 0.39354055E+03</pdfrwt>
<pdfrwt beam="2">  1       -2 0.34357322E-01 0.39354055E+03</pdfrwt>
<totfact> 0.19101299E+03</totfact>
</mgrwt>
<rwgt>
<wgt id='morphing_basis_vector_1'> +2.4216386e-04 </wgt>
<wgt id='morphing_basis_vector_2'> +1.3072436e-04 </wgt>
<wgt id='morphing_basis_vector_3'> +1.5363675e-04 </wgt>
<wgt id='morphing_basis_vector_4'> +3.3162079e-05 </wgt>
<wgt id='morphing_basis_vector_5'> +3.1666495e-05 </wgt>
</rwgt>
</event>
<event>
 4      1 +3.1894900e-05 4.21546600e+02 7.81860800e-03 9.59486600e-02
        2 -1    0    0  501    0 +0.0000000000e+00 +0.0000000000e+00 +7.2849703502e+02 7.2849703502e+02 0.0000000000e+00 0.0000e+00 1.0000e+00
       -2 -1    0    0    0  501 -0.0000000000e+00 -0.0000000000e+00 -6.0982233250e+01 6.0982233250e+01 0.0000000000e+00 0.0000e+00 -1.0000e+00
      -13  1    1    2    0    0 -2.0437441596e+02 +5.0493807594e+01 +3.5311634391e+02 4.1110786765e+02 0.0000000000e+00 0.0000e+00 -1.0000e+00
       13  1    1    2    0    0 +2.0437441596e+02 -5.0493807594e+01 +3.1439845787e+02 3.7837140063e+02 0.0000000000e+00 0.0000e+00 1.0000e+00
<mgrwt>
<rscale>  0 0.42154656E+03</rscale>
<asrwt>0</asrwt>
<pdfrwt beam="1">  1        2 0.11207646E+00 0.42154656E+03</pdfrwt>
<pdfrwt beam="2">  1       -2 0.93818825E-02 0.42154656E+03</pdfrwt>
<totfact> 0.31679787E+03</totfact>
</mgrwt>
<rwgt>
<wgt id='morphing_basis_vector_1'> +3.0161985e-04 </wgt>
<wgt id='morphing_basis_vector_2'> +1.9019160e-04 </wgt>
<wgt id='morphing_basis_vector_3'> +1.8207033e-04 </wgt>
<wgt id='morphing_basis_vector_4'> +4.6704238e-05 </wgt>
<wgt id='morphing_basis_vector_5'> +5.4301859e-05 </wgt>
</rwgt>
</event>
<event>
 4      1 +3.1894900e-05 4.13513000e+02 7.81860800e-03 9.61735600e-02
        2 -1    0    0  501    0 +0.0000000000e+00 +0.0000000000e+00 +1.4323787933e+02 1.4323787933e+02 0.0000000000e+00 0.0000e+00 1.0000e+00
       -2 -1    0    0    0  501 -0.0000000000e+00 -0.0000000000e+00 -2.9844242793e+02 2.9844242793e+02 0.0000000000e+00 0.0000e+00 -1.0000e+00
      -13  1    1    2    0    0 -1.6457295016e+02 +1.7853339284e+01 -2.0991633033e+02 2.6733474033e+02 0.0000000000e+00 0.0000e+00 -1.0000e+00
       13  1    1    2    0    0 +1.6457295016e+02 -1.7853339284e+01 +5.4711781729e+01 1.7434556693e+02 0.0000000000e+00 0.0000e+00 1.0000e+00
<mgrwt>
<rscale>  0 0.41351305E+03</rscale>
<asrwt>0</asrwt>
<pdfrwt beam="1">  1        2 0.22036597E-01 0.41351305E+03</pdfrwt>
<pdfrwt beam="2">  1       -2 0.45914219E-01 0.41351305E+03</pdfrwt>
<totfact> 0.14013772E+03</totfact>
</mgrwt>
<rwgt>
<wgt id='morphing_basis_vector_1'> +2.7640818e-04 </wgt>
<wgt id='morphing_basis_vector_2'> +1.5002935e-04 </wgt>
<wgt id='morphing_basis_vector_3'> +1.7918804e-04 </wgt>
<wgt id='morphing_basis_vector_4'> +4.2669827e-05 </wgt>
<wgt id='morphing_basis_vector_5'> +4.6600751e-05 </wgt>
</rwgt>
</event>
<event>
 4      1 +3.1894900e-05 3.81465500e+02 7.81860800e-03 9.71280700e-02
        2 -1    0    0  501    0 +0.0000000000e+00 +0.0000000000e+00 +6.3736076918e+01 6.3736076918e+01 0.0000000000e+00 0.0000e+00 -1.0000e+00
       -2 -1    0    0    0  501 -0.0000000000e+00 -0.0000000000e+00 -5.7077541387e+02 5.7077541387e+02 0.0000000000e+00 0.0000e+00 1.0000e+00
      -13  1    1    2    0    0 -2.0487455230e+01 -1.5249079262e+02 -4.4101279338e+02 4.6708185747e+02 0.0000000000e+00 0.0000e+00 1.0000e+00
       13  1    1    2    0    0 +2.0487455230e+01 +1.5249079262e+02 -6.6026543580e+01 1.6742963332e+02 0.0000000000e+00 0.0000e+00 -1.0000e+00
<mgrwt>
<rscale>  0 0.38146552E+03</rscale>
<asrwt>0</asrwt>
<pdfrwt beam="1">  1        2 0.98055500E-02 0.38146552E+03</pdfrwt>
<pdfrwt beam="2">  1       -2 0.87811605E-01 0.38146552E+03</pdfrwt>
<totfact> 0.98374775E+02</totfact>
</mgrwt>
<rwgt>
<wgt id='morphing_basis_vector_1'> +2.2367739e-04 </wgt>
<wgt id='morphing_basis_vector_2'> +1.2135009e-04 </wgt>
<wgt id='morphing_basis_vector_3'> +1.3957484e-04 </wgt>
<wgt id='morphing_basis_vector_4'> +2.8498939e-05 </wgt>
<wgt id='morphing_basis_vector_5'> +2.4336533e-05 </wgt>
</rwgt>
</event>
<event>
 4      1 +3.1894900e-05 3.89756600e+02 7.81860800e-03 9.68717800e-02
        2 -1    0    0  501    0 +0.0000000000e+00 +0.0000000000e+00 +7.7255803696e+02 7.7255803696e+02 0.0000000000e+00 0.0000e+00 -1.0000e+00
       -2 -1    0    0    0  501 -0.0000000000e+00 -0.0000000000e+00 -4.9158196044e+01 4.9158196044e+01 0.0000000000e+00 0.0000e+00 1.0000e+00
      -13  1    1    2    0    0 +3.6078379793e+01 -1.3688799297e+02 +7.9335248492e+01 1.6227770568e+02 0.0000000000e+00 0.0000e+00 1.0000e+00
       13  1    1    2    0    0 -3.6078379793e+01 +1.3688799297e+02 +6.4406459242e+02 6.5943852733e+02 0.0000000000e+00 0.0000e+00 -1.0000e+00
<mgrwt>
<rscale>  0 0.38975664E+03</rscale>
<asrwt>0</asrwt>
<pdfrwt beam="1">  1        2 0.11885507E+00 0.38975664E+03</pdfrwt>
<pdfrwt beam="2">  1       -2 0.75628000E-02 0.38975664E+03</pdfrwt>
<totfact> 0.41028393E+03</totfact>
</mgrwt>
<rwgt>
<wgt id='morphing_basis_vector_1'> +2.3614238e-04 </wgt>
<wgt id='morphing_basis_vector_2'> +1.2744112e-04 </wgt>
<wgt id='morphing_basis_vector_3'> +1.4918152e-04 </wgt>
<wgt id='morphing_basis_vector_4'> +3.1607128e-05 </wgt>
<wgt id='morphing_basis_vector_5'> +2.9234684e-05 </wgt>
</rwgt>
</event>
<event>
 4      1 +3.1894900e-05 3.96842900e+02 7.81860800e-03 9.66580700e-02
        2 -1    0    0  501    0 +0.0000000000e+00 +0.0000000000e+00 +2.3336242611e+02 2.3336242611e+02 0.0000000000e+00 0.0000e+00 -1.0000e+00
       -2 -1    0    0    0  501 -0.0000000000e+00 -0.0000000000e+00 -1.6871209101e+02 1.6871209101e+02 0.0000000000e+00 0.0000e+00 1.0000e+00
      -13  1    1    2    0    0 -1.8322441332e+02 -4.9953060038e+01 -2.5918055215e+01 1.9167221872e+02 0.0000000000e+00 0.0000e+00 1.0000e+00
       13  1    1    2    0    0 +1.8322441332e+02 +4.9953060038e+01 +9.0568390317e+01 2.1040229839e+02 0.0000000000e+00 0.0000e+00 -1.0000e+00
<mgrwt>
<rscale>  0 0.39684285E+03</rscale>
<asrwt>0</asrwt>
<pdfrwt beam="1">  1        2 0.35901912E-01 0.39684285E+03</pdfrwt>
<pdfrwt beam="2">  1       -2 0.25955706E-01 0.39684285E+03</pdfrwt>
<totfact> 0.22192059E+03</totfact>
</mgrwt>
<rwgt>
<wgt id='morphing_basis_vector_1'> +2.4970946e-04 </wgt>
<wgt id='morphing_basis_vector_2'> +1.4031558e-04 </wgt>
<wgt id='morphing_basis_vector_3'> +1.5552890e-04 </wgt>
<wgt id='morphing_basis_vector_4'> +3.4753726e-05 </wgt>
<wgt id='morphing_basis_vector_5'> +3.4031315e-05 </wgt>
</rwgt>
</event>
<event>
 4      1 +3.1894900e-05 3.98516400e+02 7.81860800e-03 9.66083000e-02
        2 -1    0    0  501    0 +0.0000000000e+00 +0.0000000000e+00 +2.3446164938e+02 2.3446164938e+02 0.0000000000e+00 0.0000e+00 -1.0000e+00
       -2 -1    0    0    0  501 -0.0000000000e+00 -0.0000000000e+00 -1.6934043659e+02 1.6934043659e+02 0.0000000000e+00 0.0000e+00 1.0000e+00
      -13  1    1    2    0    0 +5.9743058679e+01 +1.8713094342e+02 -1.2983875967e+00 1.9644059880e+02 0.0000000000e+00 0.0000e+00 1.0000e+00
       13  1    1    2    0    0 -5.9743058679e+01 -1.8713094342e+02 +6.6419600389e+01 2.0736148717e+02 0.0000000000e+00 0.0000e+00 -1.0000e+00
<mgrwt>
<rscale>  0 0.39851644E+03</rscale>
<asrwt>0</asrwt>
<pdfrwt beam="1">  1        2 0.36071023E-01 0.39851644E+03</pdfrwt>
<pdfrwt beam="2">  1       -2 0.26052375E-01 0.39851644E+03</pdfrwt>
<totfact> 0.21937513E+03</totfact>
</mgrwt>
<rwgt>
<wgt id='morphing_basis_vector_1'> +2.5411614e-04 </wgt>
<wgt id='morphing_basis_vector_2'> +1.4686552e-04 </wgt>
<wgt id='morphing_basis_vector_3'> +1.5603871e-04 </wgt>
<wgt id='morphing_basis_vector_4'> +3.5594001e-05 </wgt>
<wgt id='morphing_basis_vector_5'> +3.5300902e-05 </wgt>
</rwgt>
</event>
<event>
 4      1 +3.1894900e-05 3.96098100e+02 7.81860800e-03 9.66803100e-02
        2 -1    0    0  501    0 +0.0000000000e+00 +0.0000000000e+00 +4.7015306263e+02 4.7015306263e+02 0.0000000000e+00 0.0000e+00 1.0000e+00
       -2 -1    0    0    0  501 -0.0000000000e+00 -0.0000000000e+00 -8.3426925582e+01 8.3426925582e+01 0.0000000000e+00 0.0000e+00 -1.0000e+00
      -13  1    1    2    0    0 +8.0819709916e+01 +1.2643988532e+02 +3.7399523062e+02 4.0297804238e+02 0.0000000000e+00 0.0000e+00 -1.0000e+00
       13  1    1    2    0    0 -8.0819709916e+01 -1.2643988532e+02 +1.2730906426e+01 1.5060194583e+02 0.0000000000e+00 0.0000e+00 1.0000e+00
<mgrwt>
<rscale>  0 0.39609809E+03</rscale>
<asrwt>0</asrwt>
<pdfrwt beam="1">  1        2 0.72331239E-01 0.39609809E+03</pdfrwt>
<pdfrwt beam="2">  1       -2 0.12834912E-01 0.39609809E+03</pdfrwt>
<totfact> 0.32137472E+03</totfact>
</mgrwt>
<rwgt>
<wgt id='morphing_basis_vector_1'> +3.0600556e-04 </wgt>
<wgt id='morphing_basis_vector_2'> +3.1519312e-04 </wgt>
<wgt id='morphing_basis_vector_3'> +9.8949686e-05 </wgt>
<wgt id='morphing_basis_vector_4'> +3.9201502e-05 </wgt>
<wgt id='morphing_basis_vector_5'> +3.7297466e-05 </wgt>
</rwgt>
</event>
<event>
 4      1 +3.1894900e-05 4.23774200e+02 7.81860800e-03 9.58872400e-02
        2 -1    0    0  501    0 +0.0000000000e+00 +0.0000000000e+00 +3.4299813797e+02 3.4299813797e+02 0.0000000000e+00 0.0000e+00 1.0000e+00
       -2 -1    0    0    0  501 -0.0000000000e+00 -0.0000000000e+00 -1.3089324057e+02 1.3089324057e+02 0.0000000000e+00 0.0000e+00 -1.0000e+00
      -13  1    1    2    0    0 +3.1422129468e+01 +1.3871910236e+02 -6.9574804090e+01 1.5833822326e+02 0.0000000000e+00 0.0000e+00 -1.0000e+00
       13  1    1    2    0    0 -3.1422129468e+01 -1.3871910236e+02 +2.8167970148e+02 3.1555315528e+02 0.0000000000e+00 0.0000e+00 1.0000e+00
<mgrwt>
<rscale>  0 0.42377417E+03</rscale>
<asrwt>0</asrwt>
<pdfrwt beam="1">  1        2 0.52768944E-01 0.42377417E+03</pdfrwt>
<pdfrwt beam="2">  1       -2 0.20137422E-01 0.42377417E+03</pdfrwt>
<totfact> 0.22112716E+03</totfact>
</mgrwt>
<rwgt>
<wgt id='morphing_basis_vector_1'> +2.9504016e-04 </wgt>
<wgt id='morphing_basis_vector_2'> +1.5931010e-04 </wgt>
<wgt id='morphing_basis_vector_3'> +1.9427324e-04 </wgt>
<wgt id='morphing_basis_vector_4'> +4.8478578e-05 </wgt>
<wgt id='morphing_basis_vector_5'> +5.5699195e-05 </wgt>
</rwgt>
</event>
<event>
 4      1 +3.1894900e-05 4.13375600e+02 7.81860800e-03 9.61774600e-02
        2 -1    0    0  501    0 +0.0000000000e+00 +0.0000000000e+00 +1.1174551033e+03 1.1174551033e+03 0.0000000000e+00 0.0000e+00 -1.0000e+00
       -2 -1    0    0    0  501 -0.0000000000e+00 -0.0000000000e+00 -3.8229592548e+01 3.8229592548e+01 0.0000000000e+00 0.0000e+00 1.0000e+00
      -13  1    1    2    0    0 +1.6798501825e+02 +6.8083902783e+01 +2.6192715420e+02 3.1852820641e+02 0.0000000000e+00 0.0000e+00 1.0000e+00
       13  1    1    2    0    0 -1.6798501825e+02 -6.8083902783e+01 +8.1729835657e+02 8.3715648945e+02 0.0000000000e+00 0.0000e+00 -1.0000e+00
<mgrwt>
<rscale>  0 0.41337563E+03</rscale>
<asrwt>0</asrwt>
<pdfrwt beam="1">  1        2 0.17191614E+00 0.41337563E+03</pdfrwt>
<pdfrwt beam="2">  1       -2 0.58814766E-02 0.41337563E+03</pdfrwt>
<totfact> 0.36637105E+03</totfact>
</mgrwt>
<rwgt>
<wgt id='morphing_basis_vector_1'> +2.7672641e-04 </wgt>
<wgt id='morphing_basis_vector_2'> +1.5162898e-04 </wgt>
<wgt id='morphing_basis_vector_3'> +1.7850510e-04 </wgt>
<wgt id='morphing_basis_vector_4'> +4.2595288e-05 </wgt>
<wgt id='morphing_basis_vector_5'> +4.6521531e-05 </wgt>
</rwgt>
</event>
<event>
 4      1 +3.1894900e-05 3.67984900e+02 7.81860800e-03 9.75600600e-02
        2 -1    0    0  501    0 +0.0000000000e+00 +0.0000000000e+00 +3.3058239075e+02 3.3058239075e+02 0.0000000000e+00 0.0000e+00 1.0000e+00
       -2 -1    0    0    0  501 -0.0000000000e+00 -0.0000000000e+00 -1.0240477862e+02 1.0240477862e+02 0.0000000000e+00 0.0000e+00 -1.0000e+00
      -13  1    1    2    0    0 +1.3554006436e+02 -1.2320350926e+02 +1.3457061834e+02 2.2728718631e+02 0.0000000000e+00 0.0000e+00 -1.0000e+00
       13  1    1    2    0    0 -1.3554006436e+02 +1.2320350926e+02 +9.3606993785e+01 2.0569998305e+02 0.0000000000e+00 0.0000e+00 1.0000e+00
<mgrwt>
<rscale>  0 0.36798487E+03</rscale>
<asrwt>0</asrwt>
<pdfrwt beam="1">  1        2 0.50858829E-01 0.36798487E+03</pdfrwt>
<pdfrwt beam="2">  1       -2 0.15754581E-01 0.36798487E+03</pdfrwt>
<totfact> 0.34220033E+03</totfact>
</mgrwt>
<rwgt>
<wgt id='morphing_basis_vector_1'> +2.1261619e-04 </wgt>
<wgt id='morphing_basis_vector_2'> +1.3608600e-04 </wgt>
<wgt id='morphing_basis_vector_3'> +1.1622784e-04 </wgt>
<wgt id='morphing_basis_vector_4'> +2.5968233e-05 </wgt>
<wgt id='morphing_basis_vector_5'> +1.8036057e-05 </wgt>
</rwgt>
</event>
<event>
 4      1 +3.1894900e-05 3.98805700e+02 7.81860800e-03 9.65997200e-02
        2 -1    0    0  501    0 +0.0000000000e+00 +0.0000000000e+00 +3.7688978677e+02 3.7688978677e+02 0.0000000000e+00 0.0000e+00 -1.0000e+00
       -2 -1    0    0    0  501 -0.0000000000e+00 -0.0000000000e+00 -1.0549902703e+02 1.0549902703e+02 0.0000000000e+00 0.0000e+00 1.0000e+00
      -13  1    1    2    0    0 +1.5074555402e+02 +1.2770753976e+02 +1.6833324945e+02 2.5955639202e+02 0.0000000000e+00 0.0000e+00 1.0000e+00
       13  1    1    2    0    0 -1.5074555402e+02 -1.2770753976e+02 +1.0305751029e+02 2.2283242178e+02 0.0000000000e+00 0.0000e+00 -1.0000e+00
<mgrwt>
<rscale>  0 0.39880575E+03</rscale>
<asrwt>0</asrwt>
<pdfrwt beam="1">  1        2 0.57983043E-01 0.39880575E+03</pdfrwt>
<pdfrwt beam="2">  1       -2 0.16230620E-01 0.39880575E+03</pdfrwt>
<totfact> 0.28269271E+03</totfact>
</mgrwt>
<rwgt>
<wgt id='morphing_basis_vector_1'> +2.6314943e-04 </wgt>
<wgt id='morphing_basis_vector_2'> +1.7326113e-04 </wgt>
<wgt id='morphing_basis_vector_3'> +1.4825680e-04 </wgt>
<wgt id='morphing_basis_vector_4'> +3.6311926e-05 </wgt>
<wgt id='morphing_basis_vector_5'> +3.6063690e-05 </wgt>
</rwgt>
</event>
<event>
 4      1 +3.1894900e-05 4.18869700e+02 7.81860800e-03 9.60230100e-02
        2 -1    0    0  501    0 +0.0000000000e+00 +0.0000000000e+00 +5.6740915833e+02 5.6740915833e+02 0.0000000000e+00 0.0000e+00 -1.0000e+00
       -2 -1    0    0    0  501 -0.0000000000e+00 -0.0000000000e+00 -7.7303928254e+01 7.7303928254e+01 0.0000000000e+00 0.0000e+00 1.0000e+00
      -13  1    1    2    0    0 -1.6327648370e+02 +1.2693551892e+02 +2.9589476995e+02 3.6100630324e+02 0.0000000000e+00 0.0000e+00 1.0000e+00
       13  1    1    2    0    0 +1.6327648370e+02 -1.2693551892e+02 +1.9421046012e+02 2.8370678334e+02 0.0000000000e+00 0.0000e+00 -1.0000e+00
<mgrwt>
<rscale>  0 0.41886970E+03</rscale>
<asrwt>0</asrwt>
<pdfrwt beam="1">  1        2 0.87293714E-01 0.41886970E+03</pdfrwt>
<pdfrwt beam="2">  1       -2 0.11892912E-01 0.41886970E+03</pdfrwt>
<totfact> 0.29345932E+03</totfact>
</mgrwt>
<rwgt>
<wgt id='morphing_basis_vector_1'> +3.0145768e-04 </wgt>
<wgt id='morphing_basis_vector_2'> +2.0229228e-04 </wgt>
<wgt id='morphing_basis_vector_3'> +1.7395291e-04 </wgt>
<wgt id='morphing_basis_vector_4'> +4.5162133e-05 </wgt>
<wgt id='morphing_basis_vector_5'> +5.2189852e-05 </wgt>
</rwgt>
</event>
<event>
 4      1 +3.1894900e-05 3.78882100e+02 7.81860800e-03 9.72093600e-02
        2 -1    0    0  501    0 +0.0000000000e+00 +0.0000000000e+00 +1.6738716292e+03 1.6738716292e+03 0.0000000000e+00 0.0000e+00 1.0000e+00
       -2 -1    0    0    0  501 -0.0000000000e+00 -0.0000000000e+00 -2.1440063838e+01 2.1440063838e+01 0.0000000000e+00 0.0000e+00 -1.0000e+00
      -13  1    1    2    0    0 +1.8534778012e+02 +3.7766386869e+01 +7.7975515534e+02 8.0237036451e+02 0.0000000000e+00 0.0000e+00 -1.0000e+00
       13  1    1    2    0    0 -1.8534778012e+02 -3.7766386869e+01 +8.7267641001e+02 8.9294132851e+02 0.0000000000e+00 0.0000e+00 1.0000e+00
<mgrwt>
<rscale>  0 0.37888212E+03</rscale>
<asrwt>0</asrwt>
<pdfrwt beam="1">  1        2 0.25751861E+00 0.37888212E+03</pdfrwt>
<pdfrwt beam="2">  1       -2 0.32984727E-02 0.37888212E+03</pdfrwt>
<totfact> 0.43098850E+03</totfact>
</mgrwt>
<rwgt>
<wgt id='morphing_basis_vector_1'> +2.2488412e-04 </wgt>
<wgt id='morphing_basis_vector_2'> +1.3457958e-04 </wgt>
<wgt id='morphing_basis_vector_3'> +1.3140965e-04 </wgt>
<wgt id='morphing_basis_vector_4'> +2.8441816e-05 </wgt>
<wgt id='morphing_basis_vector_5'> +2.3250950e-05 </wgt>
</rwgt>
</event>
<event>
 4      1 +3.1894900e-05 3.89436200e+02 7.81860800e-03 9.68815600e-02
        2 -1    0    0  501    0 +0.0000000000e+00 +0.0000000000e+00 +9.3132747258e+02 9.3132747258e+02 0.0000000000e+00 0.0000e+00 -1.0000e+00
       -2 -1    0    0    0  501 -0.0000000000e+00 -0.0000000000e+00 -4.0710853062e+01 4.0710853062e+01 0.0000000000e+00 0.0000e+00 1.0000e+00
      -13  1    1    2    0    0 +1.2913453438e+02 -1.4089727119e+02 +3.5233832761e+02 4.0083670752e+02 0.0000000000e+00 0.0000e+00 1.0000e+00
       13  1    1    2    0    0 -1.2913453438e+02 +1.4089727119e+02 +5.3827829191e+02 5.7120161812e+02 0.0000000000e+00 0.0000e+00 -1.0000e+00
<mgrwt>
<rscale>  0 0.38943619E+03</rscale>
<asrwt>0</asrwt>
<pdfrwt beam="1">  1        2 0.14328113E+00 0.38943619E+03</pdfrwt>
<pdfrwt beam="2">  1       -2 0.62632089E-02 0.38943619E+03</pdfrwt>
<totfact> 0.43026407E+03</totfact>
</mgrwt>
<rwgt>
<wgt id='morphing_basis_vector_1'> +2.3890622e-04 </wgt>
<wgt id='morphing_basis_vector_2'> +1.3711633e-04 </wgt>
<wgt id='morphing_basis_vector_3'> +1.4552475e-04 </wgt>
<wgt id='morphing_basis_vector_4'> +3.1857871e-05 </wgt>
<wgt id='morphing_basis_vector_5'> +2.9250034e-05 </wgt>
</rwgt>
</event>
<event>
 4      1 +3.1894900e-05 4.03634900e+02 7.81860800e-03 9.64576600e-02
        2 -1    0    0  501    0 +0.0000000000e+00 +0.0000000000e+00 +1.5052448382e+03 1.5052448382e+03 0.0000000000e+00 0.0000e+00 1.0000e+00
       -2 -1    0    0    0  501 -0.0000000000e+00 -0.0000000000e+00 -2.7058910639e+01 2.7058910639e+01 0.0000000000e+00 0.0000e+00 -1.0000e+00
      -13  1    1    2    0    0 -1.4527094292e+02 -1.1119852878e+02 +4.1559609118e+02 4.5408024695e+02 0.0000000000e+00 0.0000e+00 -1.0000e+00
       13  1    1    2    0    0 +1.4527094292e+02 +1.1119852878e+02 +1.0625898364e+03 1.0782235019e+03 0.0000000000e+00 0.0000e+00 1.0000e+00
<mgrwt>
<rscale>  0 0.40363491E+03</rscale>
<asrwt>0</asrwt>
<pdfrwt beam="1">  1        2 0.23157606E+00 0.40363491E+03</pdfrwt>
<pdfrwt beam="2">  1       -2 0.41629105E-02 0.40363491E+03</pdfrwt>
<totfact> 0.37536243E+03</totfact>
</mgrwt>
<rwgt>
<wgt id='morphing_basis_vector_1'> +2.5998081e-04 </wgt>
<wgt id='morphing_basis_vector_2'> +1.4322983e-04 </wgt>
<wgt id='morphing_basis_vector_3'> +1.6515075e-04 </wgt>
<wgt id='morphing_basis_vector_4'> +3.7736226e-05 </wgt>
<wgt id='morphing_basis_vector_5'> +3.8828597e-05 </wgt>
</rwgt>
</event>
<event>
 4      1 +3.1894900e-05 3.80590400e+02 7.81860800e-03 9.71555300e-02
        2 -1    0    0  501    0 +0.0000000000e+00 +0.0000000000e+00 +1.0408985022e+03 1.0408985022e+03 0.0000000000e+00 0.0000e+00 1.0000e+00
       -2 -1    0    0    0  501 -0.0000000000e+00 -0.0000000000e+00 -3.4789424761e+01 3.4789424761e+01 0.0000000000e+00 0.0000e+00 -1.0000e+00
      -13  1    1    2    0    0 -1.3110497401e+01 -1.5133790360e+02 +1.7910294648e+02 2.3484657044e+02 0.0000000000e+00 0.0000e+00 -1.0000e+00
       13  1    1    2    0    0 +1.3110497401e+01 +1.5133790360e+02 +8.2700613100e+02 8.4084135657e+02 0.0000000000e+00 0.0000e+00 1.0000e+00
<mgrwt>
<rscale>  0 0.38059038E+03</rscale>
<asrwt>0</asrwt>
<pdfrwt beam="1">  1        2 0.16013821E+00 0.38059038E+03</pdfrwt>
<pdfrwt beam="2">  1       -2 0.53522200E-02 0.38059038E+03</pdfrwt>
<totfact> 0.46797499E+03</totfact>
</mgrwt>
<rwgt>
<wgt id='morphing_basis_vector_1'> +2.2233789e-04 </wgt>
<wgt id='morphing_basis_vector_2'> +1.2054736e-04 </wgt>
<wgt id='morphing_basis_vector_3'> +1.3865700e-04 </wgt>
<wgt id='morphing_basis_vector_4'> +2.8182609e-05 </wgt>
<wgt id='morphing_basis_vector_5'> +2.3847726e-05 </wgt>
</rwgt>
</event>
<event>
 4      1 +3.1894900e-05 3.98795300e+02 7.81860800e-03 9.66000300e-02
        2 -1    0    0  501    0 +0.0000000000e+00 +0.0000000000e+00 +9.4624093659e+02 9.4624093659e+02 0.0000000000e+00 0.0000e+00 -1.0000e+00
       -2 -1    0    0    0  501 -0.0000000000e+00 -0.0000000000e+00 -4.2018288965e+01 4.2018288965e+01 0.0000000000e+00 0.0000e+00 1.0000e+00
      -13  1    1    2    0    0 -1.2322137762e+02 -1.5676660035e+02 +4.5307178653e+02 4.9500840259e+02 0.0000000000e+00 0.0000e+00 1.0000e+00
       13  1    1    2    0    0 +1.2322137762e+02 +1.5676660035e+02 +4.5115086110e+02 4.9325082297e+02 0.0000000000e+00 0.0000e+00 -1.0000e+00
<mgrwt>
<rscale>  0 0.39879531E+03</rscale>
<asrwt>0</asrwt>
<pdfrwt beam="1">  1        2 0.14557551E+00 0.39879531E+03</pdfrwt>
<pdfrwt beam="2">  1       -2 0.64643529E-02 0.39879531E+03</pdfrwt>
<totfact> 0.40157260E+03</totfact>
</mgrwt>
<rwgt>
<wgt id='morphing_basis_vector_1'> +2.5831905e-04 </wgt>
<wgt id='morphing_basis_vector_2'> +1.5854767e-04 </wgt>
<wgt id='morphing_basis_vector_3'> +1.5282771e-04 </wgt>
<wgt id='morphing_basis_vector_4'> +3.5973580e-05 </wgt>
<wgt id='morphing_basis_vector_5'> +3.5741512e-05 </wgt>
</rwgt>
</event>
<event>
 4      1 +3.1894900e-05 4.16229100e+02 7.81860800e-03 9.60969300e-02
        2 -1    0    0  501    0 +0.0000000000e+00 +0.0000000000e+00 +2.5338901320e+02 2.5338901320e+02 0.0000000000e+00 0.0000e+00 -1.0000e+00
       -2 -1    0    0    0  501 -0.0000000000e+00 -0.0000000000e+00 -1.7092952964e+02 1.7092952964e+02 0.0000000000e+00 0.0000e+00 1.0000e+00
      -13  1    1    2    0    0 +1.3743983609e+02 +1.0226238438e+02 -7.9237817314e+01 1.8874833906e+02 0.0000000000e+00 0.0000e+00 1.0000e+00
       13  1    1    2    0    0 -1.3743983609e+02 -1.0226238438e+02 +1.6169730087e+02 2.3557020379e+02 0.0000000000e+00 0.0000e+00 -1.0000e+00
<mgrwt>
<rscale>  0 0.41622909E+03</rscale>
<asrwt>0</asrwt>
<pdfrwt beam="1">  1        2 0.38982925E-01 0.41622909E+03</pdfrwt>
<pdfrwt beam="2">  1       -2 0.26296851E-01 0.41622909E+03</pdfrwt>
<totfact> 0.19800053E+03</totfact>
</mgrwt>
<rwgt>
<wgt id='morphing_basis_vector_1'> +2.8146995e-04 </wgt>
<wgt id='morphing_basis_vector_2'> +1.5314636e-04 </wgt>
<wgt id='morphing_basis_vector_3'> +1.8287988e-04 </wgt>
<wgt id='morphing_basis_vector_4'> +4.4136499e-05 </wgt>
<wgt id='morphing_basis_vector_5'> +4.8923257e-05 </wgt>
</rwgt>
</event>
<event>
 4      1 +3.1894900e-05 3.95033500e+02 7.81860800e-03 9.67121800e-02
        2 -1    0    0  501    0 +0.0000000000e+00 +0.0000000000e+00 +1.6723551240e+02 1.6723551240e+02 0.0000000000e+00 0.0000e+00 1.0000e+00
       -2 -1    0    0    0  501 -0.0000000000e+00 -0.0000000000e+00 -2.3328103929e+02 2.3328103929e+02 0.0000000000e+00 0.0000e+00 -1.0000e+00
      -13  1    1    2    0    0 +5.3175194602e+01 +7.9044255580e+01 -2.0844823717e+02 2.2918608867e+02 0.0000000000e+00 0.0000e+00 -1.0000e+00
       13  1    1    2    0    0 -5.3175194602e+01 -7.9044255580e+01 +1.4240271028e+02 1.7133046302e+02 0.0000000000e+00 0.0000e+00 1.0000e+00
<mgrwt>
<rscale>  0 0.39503354E+03</rscale>
<asrwt>0</asrwt>
<pdfrwt beam="1">  1        2 0.25728540E-01 0.39503354E+03</pdfrwt>
<pdfrwt beam="2">  1       -2 0.35889391E-01 0.39503354E+03</pdfrwt>
<totfact> 0.18420121E+03</totfact>
</mgrwt>
<rwgt>
<wgt id='morphing_basis_vector_1'> +2.4430657e-04 </wgt>
<wgt id='morphing_basis_vector_2'> +1.3121888e-04 </wgt>
<wgt id='morphing_basis_vector_3'> +1.5569287e-04 </wgt>
<wgt id='morphing_basis_vector_4'> +3.3772607e-05 </wgt>
<wgt id='morphing_basis_vector_5'> +3.2641630e-05 </wgt>
</rwgt>
</event>
<event>
 4      1 +3.1894900e-05 4.19181600e+02 7.81860800e-03 9.60143200e-02
        2 -1    0    0  501    0 +0.0000000000e+00 +0.0000000000e+00 +9.7589669168e+02 9.7589669168e+02 0.0000000000e+00 0.0000e+00 -1.0000e+00
       -2 -1    0    0    0  501 -0.0000000000e+00 -0.0000000000e+00 -4.5013276359e+01 4.5013276359e+01 0.0000000000e+00 0.0000e+00 1.0000e+00
      -13  1    1    2    0    0 -1.4064732393e+02 -8.0591055601e+01 +1.4186390451e+02 2.1541113103e+02 0.0000000000e+00 0.0000e+00 1.0000e+00
       13  1    1    2    0    0 +1.4064732393e+02 +8.0591055601e+01 +7.8901951081e+02 8.0549883700e+02 0.0000000000e+00 0.0000e+00 -1.0000e+00
<mgrwt>
<rscale>  0 0.41918162E+03</rscale>
<asrwt>0</asrwt>
<pdfrwt beam="1">  1        2 0.15013794E+00 0.41918162E+03</pdfrwt>
<pdfrwt beam="2">  1       -2 0.69251202E-02 0.41918162E+03</pdfrwt>
<totfact> 0.34690585E+03</totfact>
</mgrwt>
<rwgt>
<wgt id='morphing_basis_vector_1'> +2.8667023e-04 </wgt>
<wgt id='morphing_basis_vector_2'> +1.5539503e-04 </wgt>
<wgt id='morphing_basis_vector_3'> +1.8730721e-04 </wgt>
<wgt id='morphing_basis_vector_4'> +4.5790009e-05 </wgt>
<wgt id='morphing_basis_vector_5'> +5.1504929e-05 </wgt>
</rwgt>
</event>
<event>
 4      1 +3.1894900e-05 3.86827900e+02 7.81860800e-03 9.69615300e-02
        2 -1    0    0  501    0 +0.0000000000e+00 +0.0000000000e+00 +7.1358019123e+01 7.1358019123e+01 0.0000000000e+00 0.0000e+00 1.0000e+00
       -2 -1    0    0    0  501 -0.0000000000e+00 -0.0000000000e+00 -5.2424322252e+02 5.2424322252e+02 0.0000000000e+00 0.0000e+00 -1.0000e+00
      -13  1    1    2    0    0 -9.8153234638e+01 -1.4437886865e+02 -9.8270585679e+01 2.0034076767e+02 0.0000000000e+00 0.0000e+00 1.0000e+00
       13  1    1    2    0    0 +9.8153234638e+01 +1.4437886865e+02 -3.5461461772e+02 3.9526047397e+02 0.0000000000e+00 0.0000e+00 -1.0000e+00
<mgrwt>
<rscale>  0 0.38682791E+03</rscale>
<asrwt>0</asrwt>
<pdfrwt beam="1">  1        2 0.10978157E-01 0.38682791E+03</pdfrwt>
<pdfrwt beam="2">  1       -2 0.80652802E-01 0.38682791E+03</pdfrwt>
<totfact> 0.10340648E+03</totfact>
</mgrwt>
<rwgt>
<wgt id='morphing_basis_vector_1'> +2.6227016e-04 </wgt>
<wgt id='morphing_basis_vector_2'> +2.1832969e-04 </wgt>
<wgt id='morphing_basis_vector_3'> +1.1450496e-04 </wgt>
<wgt id='morphing_basis_vector_4'> +3.4413855e-05 </wgt>
<wgt id='morphing_basis_vector_5'> +2.9464256e-05 </wgt>
</rwgt>
</event>
<event>
 4      1 +3.1894900e-05 3.61497400e+02 7.81860800e-03 9.77751000e-02
        2 -1    0    0  501    0 +0.0000000000e+00 +0.0000000000e+00 +4.7646504472e+02 4.7646504472e+02 0.0000000000e+00 0.0000e+00 -1.0000e+00
       -2 -1    0    0    0  501 -0.0000000000e+00 -0.0000000000e+00 -6.8567672178e+01 6.8567672178e+01 0.0000000000e+00 0.0000e+00 1.0000e+00
      -13  1    1    2    0    0 +1.6366906064e+02 -5.7524039492e+01 +1.2746279476e+02 2.1527503474e+02 0.0000000000e+00 0.0000e+00 1.0000e+00
       13  1    1    2    0    0 -1.6366906064e+02 +5.7524039492e+01 +2.8043457778e+02 3.2975768216e+02 0.0000000000e+00 0.0000e+00 -1.0000e+00
<mgrwt>
<rscale>  0 0.36149744E+03</rscale>
<asrwt>0</asrwt>
<pdfrwt beam="1">  1        2 0.73302312E-01 0.36149744E+03</pdfrwt>
<pdfrwt beam="2">  1       -2 0.10548873E-01 0.36149744E+03</pdfrwt>
<totfact> 0.42946090E+03</totfact>
</mgrwt>
<rwgt>
<wgt id='morphing_basis_vector_1'> +1.9708595e-04 </wgt>
<wgt id='morphing_basis_vector_2'> +1.1105840e-04 </wgt>
<wgt id='morphing_basis_vector_3'> +1.1756306e-04 </wgt>
<wgt id='morphing_basis_vector_4'> +2.2701699e-05 </wgt>
<wgt id='morphing_basis_vector_5'> +1.4773605e-05 </wgt>
</rwgt>
</event>
<event>
 4      1 +3.1894900e-05 3.64943000e+02 7.81860800e-03 9.76602900e-02
        2 -1    0    0  501    0 +0.0000000000e+00 +0.0000000000e+00 +6.8507660535e+02 6.8507660535e+02 0.0000000000e+00 0.0000e+00 1.0000e+00
       -2 -1    0    0    0  501 -0.0000000000e+00 -0.0000000000e+00 -4.8601641742e+01 4.8601641742e+01 0.0000000000e+00 0.0000e+00 -1.0000e+00
      -13  1    1    2    0    0 -1.5332955705e+02 +3.2120316781e+01 +5.0633728578e+02 5.3001803251e+02 0.0000000000e+00 0.0000e+00 1.0000e+00
       13  1    1    2    0    0 +1.5332955705e+02 -3.2120316781e+01 +1.3013767783e+02 2.0366021459e+02 0.0000000000e+00 0.0000e+00 -1.0000e+00
<mgrwt>
<rscale>  0 0.36494300E+03</rscale>
<asrwt>0</asrwt>
<pdfrwt beam="1">  1        2 0.10539639E+00 0.36494300E+03</pdfrwt>
<pdfrwt beam="2">  1       -2 0.74771762E-02 0.36494300E+03</pdfrwt>
<totfact> 0.48204739E+03</totfact>
</mgrwt>
<rwgt>
<wgt id='morphing_basis_vector_1'> +2.3342990e-04 </wgt>
<wgt id='morphing_basis_vector_2'> +2.0903739e-04 </wgt>
<wgt id='morphing_basis_vector_3'> +8.4591942e-05 </wgt>
<wgt id='morphing_basis_vector_4'> +3.1160454e-05 </wgt>
<wgt id='morphing_basis_vector_5'> +1.8302042e-05 </wgt>
</rwgt>
</event>
<event>
 4      1 +3.1894900e-05 3.83663100e+02 7.81860800e-03 9.70594700e-02
        2 -1    0    0  501    0 +0.0000000000e+00 +0.0000000000e+00 +5.9527300345e+02 5.9527300345e+02 0.0000000000e+00 0.0000e+00 1.0000e+00
       -2 -1    0    0    0  501 -0.0000000000e+00 -0.0000000000e+00 -6.1819256408e+01 6.1819256408e+01 0.0000000000e+00 0.0000e+00 -1.0000e+00
      -13  1    1    2    0    0 -1.8069893898e+01 +1.8895051338e+02 +2.1918596828e+02 2.8995052382e+02 0.0000000000e+00 0.0000e+00 -1.0000e+00
       13  1    1    2    0    0 +1.8069893898e+01 -1.8895051338e+02 +3.1426777876e+02 3.6714173604e+02 0.0000000000e+00 0.0000e+00 1.0000e+00
<mgrwt>
<rscale>  0 0.38366305E+03</rscale>
<asrwt>0</asrwt>
<pdfrwt beam="1">  1        2 0.91580458E-01 0.38366305E+03</pdfrwt>
<pdfrwt beam="2">  1       -2 0.95106552E-02 0.38366305E+03</pdfrwt>
<totfact> 0.39289266E+03</totfact>
</mgrwt>
<rwgt>
<wgt id='morphing_basis_vector_1'> +2.3055591e-04 </wgt>
<wgt id='morphing_basis_vector_2'> +1.3397097e-04 </wgt>
<wgt id='morphing_basis_vector_3'> +1.3829246e-04 </wgt>
<wgt id='morphing_basis_vector_4'> +2.9813119e-05 </wgt>
<wgt id='morphing_basis_vector_5'> +2.5821311e-05 </wgt>
</rwgt>
</event>
<event>
 4      1 +3.1894900e-05 3.67753800e+02 7.81860800e-03 9.75676400e-02
        2 -1    0    0  501    0 +0.0000000000e+00 +0.0000000000e+00 +1.1781230024e+03 1.1781230024e+03 0.0000000000e+00 0.0000e+00 1.0000e+00
       -2 -1    0    0    0  501 -0.0000000000e+00 -0.0000000000e+00 -2.8698796886e+01 2.8698796886e+01 0.0000000000e+00 0.0000e+00 -1.0000e+00
      -13  1    1    2    0    0 -1.7972294355e+02 +1.7199413929e+01 +6.8907755316e+02 7.1233702034e+02 0.0000000000e+00 0.0000e+00 -1.0000e+00
       13  1    1    2    0    0 +1.7972294355e+02 -1.7199413929e+01 +4.6034665233e+02 4.9448477892e+02 0.0000000000e+00 0.0000e+00 1.0000e+00
<mgrwt>
<rscale>  0 0.36775379E+03</rscale>
<asrwt>0</asrwt>
<pdfrwt beam="1">  1        2 0.18124966E+00 0.36775379E+03</pdfrwt>
<pdfrwt beam="2">  1       -2 0.44152004E-02 0.36775379E+03</pdfrwt>
<totfact> 0.51991257E+03</totfact>
</mgrwt>
<rwgt>
<wgt id='morphing_basis_vector_1'> +2.1573004e-04 </wgt>
<wgt id='morphing_basis_vector_2'> +1.4626483e-04 </wgt>
<wgt id='morphing_basis_vector_3'> +1.1212084e-04 </wgt>
<wgt id='morphing_basis_vector_4'> +2.6678614e-05 </wgt>
<wgt id='morphing_basis_vector_5'> +1.8155081e-05 </wgt>
</rwgt>
</event>
<event>
 4      1 +3.1894900e-05 3.71254500e+02 7.81860800e-03 9.74534800e-02
        2 -1    0    0  501    0 +0.0000000000e+00 +0.0000000000e+00 +3.8364299433e+02 3.8364299433e+02 0.0000000000e+00 0.0000e+00 1.0000e+00
       -2 -1    0    0    0  501 -0.0000000000e+00 -0.0000000000e+00 -8.9816524005e+01 8.9816524005e+01 0.0000000000e+00 0.0000e+00 -1.0000e+00
      -13  1    1    2    0    0 +1.1862668773e+02 +1.2494091621e+01 -3.4470874663e+01 1.2416374096e+02 0.0000000000e+00 0.0000e+00 -1.0000e+00
       13  1    1    2    0    0 -1.1862668773e+02 -1.2494091621e+01 +3.2829734499e+02 3.4929577738e+02 0.0000000000e+00 0.0000e+00 1.0000e+00
<mgrwt>
<rscale>  0 0.37125452E+03</rscale>
<asrwt>0</asrwt>
<pdfrwt beam="1">  1        2 0.59021998E-01 0.37125452E+03</pdfrwt>
<pdfrwt beam="2">  1       -2 0.13817927E-01 0.37125452E+03</pdfrwt>
<totfact> 0.35776174E+03</totfact>
</mgrwt>
<rwgt>
<wgt id='morphing_basis_vector_1'> +2.0851839e-04 </wgt>
<wgt id='morphing_basis_vector_2'> +1.1240504e-04 </wgt>
<wgt id='morphing_basis_vector_3'> +1.2922245e-04 </wgt>
<wgt id='morphing_basis_vector_4'> +2.5030612e-05 </wgt>
<wgt id='morphing_basis_vector_5'> +1.9004168e-05 </wgt>
</rwgt>
</event>
<event>
 4      1 +3.1894900e-05 3.92167400e+02 7.81860800e-03 9.67985300e-02
        2 -1    0    0  501    0 +0.0000000000e+00 +0.0000000000e+00 +2.5143875552e+02 2.5143875552e+02 0.0000000000e+00 0.0000e+00 1.0000e+00
       -2 -1    0    0    0  501 -0.0000000000e+00 -0.0000000000e+00 -1.5291527480e+02 1.5291527480e+02 0.0000000000e+00 0.0000e+00 -1.0000e+00
      -13  1    1    2    0    0 +1.1492150164e+02 +6.0771171921e+01 -1.0209479303e+02 1.6529801462e+02 0.0000000000e+00 0.0000e+00 -1.0000e+00
       13  1    1    2    0    0 -1.1492150164e+02 -6.0771171921e+01 +2.0061827375e+02 2.3905601569e+02 0.0000000000e+00 0.0000e+00 1.0000e+00
<mgrwt>
<rscale>  0 0.39216745E+03</rscale>
<asrwt>0</asrwt>
<pdfrwt beam="1">  1        2 0.38682885E-01 0.39216745E+03</pdfrwt>
<pdfrwt beam="2">  1       -2 0.23525427E-01 0.39216745E+03</pdfrwt>
<totfact> 0.24086170E+03</totfact>
</mgrwt>
<rwgt>
<wgt id='morphing_basis_vector_1'> +2.3984262e-04 </wgt>
<wgt id='morphing_basis_vector_2'> +1.2915532e-04 </wgt>
<wgt id='morphing_basis_vector_3'> +1.5212482e-04 </wgt>
<wgt id='morphing_basis_vector_4'> +3.2576769e-05 </wgt>
<wgt id='morphing_basis_vector_5'> +3.0762142e-05 </wgt>
</rwgt>
</event>
<event>
 4      1 +3.1894900e-05 3.77093100e+02 7.81860800e-03 9.72660600e-02
        2 -1    0    0  501    0 +0.0000000000e+00 +0.0000000000e+00 +1.3783165876e+03 1.3783165876e+03 0.0000000000e+00 0.0000e+00 -1.0000e+00
       -2 -1    0    0    0  501 -0.0000000000e+00 -0.0000000000e+00 -2.5792182482e+01 2.5792182482e+01 0.0000000000e+00 0.0000e+00 1.0000e+00
      -13  1    1    2    0    0 +1.7099785845e+02 +4.3182764576e+01 +4.2801916897e+02 4.6293134238e+02 0.0000000000e+00 0.0000e+00 1.0000e+00
       13  1    1    2    0    0 -1.7099785845e+02 -4.3182764576e+01 +9.2450523618e+02 9.4117742774e+02 0.0000000000e+00 0.0000e+00 -1.0000e+00
<mgrwt>
<rscale>  0 0.37709305E+03</rscale>
<asrwt>0</asrwt>
<pdfrwt beam="1">  1        2 0.21204865E+00 0.37709305E+03</pdfrwt>
<pdfrwt beam="2">  1       -2 0.39680291E-02 0.37709305E+03</pdfrwt>
<totfact> 0.47238218E+03</totfact>
</mgrwt>
<rwgt>
<wgt id='morphing_basis_vector_1'> +2.1837100e-04 </wgt>
<wgt id='morphing_basis_vector_2'> +1.2137629e-04 </wgt>
<wgt id='morphing_basis_vector_3'> +1.3363873e-04 </wgt>
<wgt id='morphing_basis_vector_4'> +2.7186920e-05 </wgt>
<wgt id='morphing_basis_vector_5'> +2.2041139e-05 </wgt>
</rwgt>
</event>
<event>
 4      1 +3.1894900e-05 3.82220400e+02 7.81860800e-03 9.71044500e-02
        2 -1    0    0  501    0 +0.0000000000e+00 +0.0000000000e+00 +5.0963314044e+02 5.0963314044e+02 0.0000000000e+00 0.0000e+00 -1.0000e+00
       -2 -1    0    0    0  501 -0.0000000000e+00 -0.0000000000e+00 -7.1665498996e+01 7.1665498996e+01 0.0000000000e+00 0.0000e+00 1.0000e+00
      -13  1    1    2    0    0 -1.8587345490e+02 -4.4351971863e+01 +2.1493863498e+02 2.8760155676e+02 0.0000000000e+00 0.0000e+00 1.0000e+00
       13  1    1    2    0    0 +1.8587345490e+02 +4.4351971863e+01 +2.2302900647e+02 2.9369708267e+02 0.0000000000e+00 0.0000e+00 -1.0000e+00
<mgrwt>
<rscale>  0 0.38222042E+03</rscale>
<asrwt>0</asrwt>
<pdfrwt beam="1">  1        2 0.78405096E-01 0.38222042E+03</pdfrwt>
<pdfrwt beam="2">  1       -2 0.11025462E-01 0.38222042E+03</pdfrwt>
<totfact> 0.37242864E+03</totfact>
</mgrwt>
<rwgt>
<wgt id='morphing_basis_vector_1'> +2.3090578e-04 </wgt>
<wgt id='morphing_basis_vector_2'> +1.4046676e-04 </wgt>
<wgt id='morphing_basis_vector_3'> +1.3402479e-04 </wgt>
<wgt id='morphing_basis_vector_4'> +2.9696485e-05 </wgt>
<wgt id='morphing_basis_vector_5'> +2.5164613e-05 </wgt>
</rwgt>
</event>
<event>
 4      1 +3.1894900e-05 4.25461300e+02 7.81860800e-03 9.58409900e-02
        2 -1    0    0  501    0 +0.0000000000e+00 +0.0000000000e+00 +4.0374343072e+02 4.0374343072e+02 0.0000000000e+00 0.0000e+00 -1.0000e+00
       -2 -1    0    0    0  501 -0.0000000000e+00 -0.0000000000e+00 -1.1208685912e+02 1.1208685912e+02 0.0000000000e+00 0.0000e+00 1.0000e+00
      -13  1    1    2    0    0 +3.0824820573e+01 -2.1038771228e+02 +1.5360790400e+02 2.6231383344e+02 0.0000000000e+00 0.0000e+00 1.0000e+00
       13  1    1    2    0    0 -3.0824820573e+01 +2.1038771228e+02 +1.3804866760e+02 2.5351645641e+02 0.0000000000e+00 0.0000e+00 -1.0000e+00
<mgrwt>
<rscale>  0 0.42546132E+03</rscale>
<asrwt>0</asrwt>
<pdfrwt beam="1">  1        2 0.62114373E-01 0.42546132E+03</pdfrwt>
<pdfrwt beam="2">  1       -2 0.17244132E-01 0.42546132E+03</pdfrwt>
<totfact> 0.23772766E+03</totfact>
</mgrwt>
<rwgt>
<wgt id='morphing_basis_vector_1'> +3.0863480e-04 </wgt>
<wgt id='morphing_basis_vector_2'> +1.9298302e-04 </wgt>
<wgt id='morphing_basis_vector_3'> +1.8848017e-04 </wgt>
<wgt id='morphing_basis_vector_4'> +4.8860875e-05 </wgt>
<wgt id='morphing_basis_vector_5'> +5.7936571e-05 </wgt>
</rwgt>
</event>
<event>
 4      1 +3.1894900e-05 3.68286800e+02 7.81860800e-03 9.75501700e-02
        2 -1    0    0  501    0 +0.0000000000e+00 +0.0000000000e+00 +1.3029337265e+02 1.3029337265e+02 0.0000000000e+00 0.0000e+00 -1.0000e+00
       -2 -1    0    0    0  501 -0.0000000000e+00 -0.0000000000e+00 -2.6024953820e+02 2.6024953820e+02 0.0000000000e+00 0.0000e+00 1.0000e+00
      -13  1    1    2    0    0 +1.3370735175e+01 -4.2904524255e+01 -2.5434518471e+02 2.5828481904e+02 0.0000000000e+00 0.0000e+00 1.0000e+00
       13  1    1    2    0    0 -1.3370735175e+01 +4.2904524255e+01 +1.2438901916e+02 1.3225809180e+02 0.0000000000e+00 0.0000e+00 -1.0000e+00
<mgrwt>
<rscale>  0 0.36828679E+03</rscale>
<asrwt>0</asrwt>
<pdfrwt beam="1">  1        2 0.20045134E-01 0.36828679E+03</pdfrwt>
<pdfrwt beam="2">  1       -2 0.40038390E-01 0.36828679E+03</pdfrwt>
<totfact> 0.20189502E+03</totfact>
</mgrwt>
<rwgt>
<wgt id='morphing_basis_vector_1'> +2.0426870e-04 </wgt>
<wgt id='morphing_basis_vector_2'> +1.0987407e-04 </wgt>
<wgt id='morphing_basis_vector_3'> +1.2639294e-04 </wgt>
<wgt id='morphing_basis_vector_4'> +2.4105278e-05 </wgt>
<wgt id='morphing_basis_vector_5'> +1.7600425e-05 </wgt>
</rwgt>
</event>
<event>
 4      1 +3.1894900e-05 3.85186200e+02 7.81860800e-03 9.70122100e-02
        2 -1    0    0  501    0 +0.0000000000e+00 +0.0000000000e+00 +7.0464044034e+02 7.0464044034e+02 0.0000000000e+00 0.0000e+00 -1.0000e+00
       -2 -1    0    0    0  501 -0.0000000000e+00 -0.0000000000e+00 -5.2639745267e+01 5.2639745267e+01 0.0000000000e+00 0.0000e+00 1.0000e+00
      -13  1    1    2    0    0 +1.8021202723e+02 -6.2652075593e+01 +2.7434115367e+02 3.3416272373e+02 0.0000000000e+00 0.0000e+00 1.0000e+00
       13  1    1    2    0    0 -1.8021202723e+02 +6.2652075593e+01 +3.7765954140e+02 4.2311746188e+02 0.0000000000e+00 0.0000e+00 -1.0000e+00
<mgrwt>
<rscale>  0 0.38518615E+03</rscale>
<asrwt>0</asrwt>
<pdfrwt beam="1">  1        2 0.10840621E+00 0.38518615E+03</pdfrwt>
<pdfrwt beam="2">  1       -2 0.80984229E-02 0.38518615E+03</pdfrwt>
<totfact> 0.41307890E+03</totfact>
</mgrwt>
<rwgt>
<wgt id='morphing_basis_vector_1'> +2.3305040e-04 </wgt>
<wgt id='morphing_basis_vector_2'> +1.3575892e-04 </wgt>
<wgt id='morphing_basis_vector_3'> +1.3984573e-04 </wgt>
<wgt id='morphing_basis_vector_4'> +3.0377029e-05 </wgt>
<wgt id='morphing_basis_vector_5'> +2.6720869e-05 </wgt>
</rwgt>
</event>
<event>
 4      1 +3.1894900e-05 3.72158900e+02 7.81860800e-03 9.74242100e-02
        2 -1    0    0  501    0 +0.0000000000e+00 +0.0000000000e+00 +1.1245435197e+03 1.1245435197e+03 0.0000000000e+00 0.0000e+00 1.0000e+00
       -2 -1    0    0    0  501 -0.0000000000e+00 -0.0000000000e+00 -3.0790773858e+01 3.0790773858e+01 0.0000000000e+00 0.0000e+00 -1.0000e+00
      -13  1    1    2    0    0 +1.7689765893e+02 -4.9329126983e+01 +4.5377401636e+02 4.8952732551e+02 0.0000000000e+00 0.0000e+00 -1.0000e+00
       13  1    1    2    0    0 -1.7689765893e+02 +4.9329126983e+01 +6.3997872945e+02 6.6580696801e+02 0.0000000000e+00 0.0000e+00 1.0000e+00
<mgrwt>
<rscale>  0 0.37215892E+03</rscale>
<asrwt>0</asrwt>
<pdfrwt beam="1">  1        2 0.17300666E+00 0.37215892E+03</pdfrwt>
<pdfrwt beam="2">  1       -2 0.47370430E-02 0.37215892E+03</pdfrwt>
<totfact> 0.50216335E+03</totfact>
</mgrwt>
<rwgt>
<wgt id='morphing_basis_vector_1'> +2.1317200e-04 </wgt>
<wgt id='morphing_basis_vector_2'> +1.2329101e-04 </wgt>
<wgt id='morphing_basis_vector_3'> +1.2641241e-04 </wgt>
<wgt id='morphing_basis_vector_4'> +2.5995584e-05 </wgt>
<wgt id='morphing_basis_vector_5'> +1.9665009e-05 </wgt>
</rwgt>
</event>
<event>
 4      1 +3.1894900e-05 3.94729700e+02 7.81860800e-03 9.67213000e-02
        2 -1    0    0  501    0 +0.0000000000e+00 +0.0000000000e+00 +1.4811687729e+02 1.4811687729e+02 0.0000000000e+00 0.0000e+00 1.0000e+00
       -2 -1    0    0    0  501 -0.0000000000e+00 -0.0000000000e+00 -2.6298754445e+02 2.6298754445e+02 0.0000000000e+00 0.0000e+00 -1.0000e+00
      -13  1    1    2    0    0 -1.6096401199e+02 -1.0805944870e+02 -1.8933735554e+01 1.9479410656e+02 0.0000000000e+00 0.0000e+00 -1.0000e+00
       13  1    1    2    0    0 +1.6096401199e+02 +1.0805944870e+02 -9.5936931603e+01 2.1631031518e+02 0.0000000000e+00 0.0000e+00 1.0000e+00
<mgrwt>
<rscale>  0 0.39472975E+03</rscale>
<asrwt>0</asrwt>
<pdfrwt beam="1">  1        2 0.22787212E-01 0.39472975E+03</pdfrwt>
<pdfrwt beam="2">  1       -2 0.40459622E-01 0.39472975E+03</pdfrwt>
<totfact> 0.17056640E+03</totfact>
</mgrwt>
<rwgt>
<wgt id='morphing_basis_vector_1'> +2.5855701e-04 </wgt>
<wgt id='morphing_basis_vector_2'> +1.7592670e-04 </wgt>
<wgt id='morphing_basis_vector_3'> +1.4094513e-04 </wgt>
<wgt id='morphing_basis_vector_4'> +3.4963804e-05 </wgt>
<wgt id='morphing_basis_vector_5'> +3.3407275e-05 </wgt>
</rwgt>
</event>
<event>
 4      1 +3.1894900e-05 3.99744500e+02 7.81860800e-03 9.65719400e-02
        2 -1    0    0  501    0 +0.0000000000e+00 +0.0000000000e+00 +1.2663114563e+03 1.2663114563e+03 0.0000000000e+00 0.0000e+00 1.0000e+00
       -2 -1    0    0    0  501 -0.0000000000e+00 -0.0000000000e+00 -3.1547468459e+01 3.1547468459e+01 0.0000000000e+00 0.0000e+00 -1.0000e+00
      -13  1    1    2    0    0 +1.0719552667e+02 -1.6650024903e+02 +5.2931820424e+02 5.6514686163e+02 0.0000000000e+00 0.0000e+00 -1.0000e+00
       13  1    1    2    0    0 -1.0719552667e+02 +1.6650024903e+02 +7.0544578362e+02 7.3271206315e+02 0.0000000000e+00 0.0000e+00 1.0000e+00
<mgrwt>
<rscale>  0 0.39974452E+03</rscale>
<asrwt>0</asrwt>
<pdfrwt beam="1">  1        2 0.19481711E+00 0.39974452E+03</pdfrwt>
<pdfrwt beam="2">  1       -2 0.48534577E-02 0.39974452E+03</pdfrwt>
<totfact> 0.40290716E+03</totfact>
</mgrwt>
<rwgt>
<wgt id='morphing_basis_vector_1'> +2.5674355e-04 </wgt>
<wgt id='morphing_basis_vector_2'> +1.4978120e-04 </wgt>
<wgt id='morphing_basis_vector_3'> +1.5703942e-04 </wgt>
<wgt id='morphing_basis_vector_4'> +3.6162578e-05 </wgt>
<wgt id='morphing_basis_vector_5'> +3.6207086e-05 </wgt>
</rwgt>
</event>
<event>
 4      1 +3.1894900e-05 4.02133900e+02 7.81860800e-03 9.65015900e-02
        2 -1    0    0  501    0 +0.0000000000e+00 +0.0000000000e+00 +2.0422925064e+03 2.0422925064e+03 0.0000000000e+00 0.0000e+00 1.0000e+00
       -2 -1    0    0    0  501 -0.0000000000e+00 -0.0000000000e+00 -1.9795364158e+01 1.9795364158e+01 0.0000000000e+00 0.0000e+00 -1.0000e+00
      -13  1    1    2    0    0 +1.8574246620e+02 -7.4814223540e+01 +1.1044702644e+03 1.1224758335e+03 0.0000000000e+00 0.0000e+00 -1.0000e+00
       13  1    1    2    0    0 -1.8574246620e+02 +7.4814223540e+01 +9.1802687786e+02 9.3961203710e+02 0.0000000000e+00 0.0000e+00 1.0000e+00
<mgrwt>
<rscale>  0 0.40213393E+03</rscale>
<asrwt>0</asrwt>
<pdfrwt beam="1">  1        2 0.31419868E+00 0.40213393E+03</pdfrwt>
<pdfrwt beam="2">  1       -2 0.30454423E-02 0.40213393E+03</pdfrwt>
<totfact> 0.30725741E+03</totfact>
</mgrwt>
<rwgt>
<wgt id='morphing_basis_vector_1'> +2.6711259e-04 </wgt>
<wgt id='morphing_basis_vector_2'> +1.7143382e-04 </wgt>
<wgt id='morphing_basis_vector_3'> +1.5418036e-04 </wgt>
<wgt id='morphing_basis_vector_4'> +3.7548258e-05 </wgt>
<wgt id='morphing_basis_vector_5'> +3.8347415e-05 </wgt>
</rwgt>
</event>
<event>
 4      1 +3.1894900e-05 4.14867400e+02 7.81860800e-03 9.61352700e-02
        2 -1    0    0  501    0 +0.0000000000e+00 +0.0000000000e+00 +7.5070525845e+01 7.5070525845e+01 0.0000000000e+00 0.0000e+00 -1.0000e+00
       -2 -1    0    0    0  501 -0.0000000000e+00 -0.0000000000e+00 -5.7317754918e+02 5.7317754918e+02 0.0000000000e+00 0.0000e+00 1.0000e+00
      -13  1    1    2    0    0 +1.6568342407e+02 -2.2475670839e+01 -4.4088762033e+02 4.7152735504e+02 0.0000000000e+00 0.0000e+00 1.0000e+00
       13  1    1    2    0    0 -1.6568342407e+02 +2.2475670839e+01 -5.7219403009e+01 1.7672071999e+02 0.0000000000e+00 0.0000e+00 -1.0000e+00
<mgrwt>
<rscale>  0 0.41486740E+03</rscale>
<asrwt>0</asrwt>
<pdfrwt beam="1">  1        2 0.11549312E-01 0.41486740E+03</pdfrwt>
<pdfrwt beam="2">  1       -2 0.88181155E-01 0.41486740E+03</pdfrwt>
<totfact> 0.79299970E+02</totfact>
</mgrwt>
<rwgt>
<wgt id='morphing_basis_vector_1'> +2.7888728e-04 </wgt>
<wgt id='morphing_basis_vector_2'> +1.5146878e-04 </wgt>
<wgt id='morphing_basis_vector_3'> +1.8104988e-04 </wgt>
<wgt id='morphing_basis_vector_4'> +4.3396381e-05 </wgt>
<wgt id='morphing_basis_vector_5'> +4.7747731e-05 </wgt>
</rwgt>
</event>
<event>
 4      1 +3.1894900e-05 4.01816800e+02 7.81860800e-03 9.65109000e-02
        2 -1    0    0  501    0 +0.0000000000e+00 +0.0000000000e+00 +1.2806686711e+03 1.2806686711e+03 0.0000000000e+00 0.0000e+00 -1.0000e+00
       -2 -1    0    0    0  501 -0.0000000000e+00 -0.0000000000e+00 -3.1518051499e+01 3.1518051499e+01 0.0000000000e+00 0.0000e+00 1.0000e+00
      -13  1    1    2    0    0 +1.6062606119e+02 -1.2030466274e+02 +6.5559672644e+02 6.8562454093e+02 0.0000000000e+00 0.0000e+00 1.0000e+00
       13  1    1    2    0    0 -1.6062606119e+02 +1.2030466274e+02 +5.9355389313e+02 6.2656218164e+02 0.0000000000e+00 0.0000e+00 -1.0000e+00
<mgrwt>
<rscale>  0 0.40181678E+03</rscale>
<asrwt>0</asrwt>
<pdfrwt beam="1">  1        2 0.19702591E+00 0.40181678E+03</pdfrwt>
<pdfrwt beam="2">  1       -2 0.48489320E-02 0.40181678E+03</pdfrwt>
<totfact> 0.39613429E+03</totfact>
</mgrwt>
<rwgt>
<wgt id='morphing_basis_vector_1'> +2.6497185e-04 </wgt>
<wgt id='morphing_basis_vector_2'> +1.6622826e-04 </wgt>
<wgt id='morphing_basis_vector_3'> +1.5525907e-04 </wgt>
<wgt id='morphing_basis_vector_4'> +3.7329683e-05 </wgt>
<wgt id='morphing_basis_vector_5'> +3.8011017e-05 </wgt>
</rwgt>
</event>
<event>
 4      1 +3.1894900e-05 4.29012700e+02 7.81860800e-03 9.57443600e-02
        2 -1    0    0  501    0 +0.0000000000e+00 +0.0000000000e+00 +6.6205698162e+02 6.6205698162e+02 0.0000000000e+00 0.0000e+00 -1.0000e+00
       -2 -1    0    0    0  501 -0.0000000000e+00 -0.0000000000e+00 -6.9500006365e+01 6.9500006365e+01 0.0000000000e+00 0.0000e+00 1.0000e+00
      -13  1    1    2    0    0 +9.6260819627e+01 +1.3952661891e+02 +5.2042869395e+02 5.4733887882e+02 0.0000000000e+00 0.0000e+00 -1.0000e+00
       13  1    1    2    0    0 -9.6260819627e+01 -1.3952661891e+02 +7.2128281307e+01 1.8421810917e+02 0.0000000000e+00 0.0000e+00 1.0000e+00
<mgrwt>
<rscale>  0 0.42901265E+03</rscale>
<asrwt>0</asrwt>
<pdfrwt beam="1">  1        2 0.10185492E+00 0.42901265E+03</pdfrwt>
<pdfrwt beam="2">  1       -2 0.10692309E-01 0.42901265E+03</pdfrwt>
<totfact> 0.28987792E+03</totfact>
</mgrwt>
<rwgt>
<wgt id='morphing_basis_vector_1'> +3.7349559e-04 </wgt>
<wgt id='morphing_basis_vector_2'> +3.7531435e-04 </wgt>
<wgt id='morphing_basis_vector_3'> +1.4869849e-04 </wgt>
<wgt id='morphing_basis_vector_4'> +4.6336947e-05 </wgt>
<wgt id='morphing_basis_vector_5'> +6.4912835e-05 </wgt>
</rwgt>
</event>
<event>
 4      1 +3.1894900e-05 3.91349400e+02 7.81860800e-03 9.68233200e-02
        2 -1    0    0  501    0 +0.0000000000e+00 +0.0000000000e+00 +1.0176832299e+03 1.0176832299e+03 0.0000000000e+00 0.0000e+00 -1.0000e+00
       -2 -1    0    0    0  501 -0.0000000000e+00 -0.0000000000e+00 -3.7623282677e+01 3.7623282677e+01 0.0000000000e+00 0.0000e+00 1.0000e+00
      -13  1    1    2    0    0 -4.9843229226e+01 +1.3541169204e+02 +1.3363264214e+02 1.9666813897e+02 0.0000000000e+00 0.0000e+00 1.0000e+00
       13  1    1    2    0    0 +4.9843229226e+01 -1.3541169204e+02 +8.4642730504e+02 8.5863837356e+02 0.0000000000e+00 0.0000e+00 -1.0000e+00
<mgrwt>
<rscale>  0 0.39134938E+03</rscale>
<asrwt>0</asrwt>
<pdfrwt beam="1">  1        2 0.15656663E+00 0.39134938E+03</pdfrwt>
<pdfrwt beam="2">  1       -2 0.57881981E-02 0.39134938E+03</pdfrwt>
<totfact> 0.42944076E+03</totfact>
</mgrwt>
<rwgt>
<wgt id='morphing_basis_vector_1'> +2.3868025e-04 </wgt>
<wgt id='morphing_basis_vector_2'> +1.2887251e-04 </wgt>
<wgt id='morphing_basis_vector_3'> +1.5102187e-04 </wgt>
<wgt id='morphing_basis_vector_4'> +3.2254579e-05 </wgt>
<wgt id='morphing_basis_vector_5'> +3.0244905e-05 </wgt>
</rwgt>
</event>
<event>
 4      1 +3.1894900e-05 4.25343100e+02 7.81860800e-03 9.58442200e-02
        2 -1    0    0  501    0 +0.0000000000e+00 +0.0000000000e+00 +1.5297244192e+02 1.5297244192e+02 0.0000000000e+00 0.0000e+00 -1.0000e+00
       -2 -1    0    0    0  501 -0.0000000000e+00 -0.0000000000e+00 -2.9566888371e+02 2.9566888371e+02 0.0000000000e+00 0.0000e+00 1.0000e+00
      -13  1    1    2    0    0 -1.6643330435e+02 -3.7586472721e+01 -2.0525233909e+02 2.6691067875e+02 0.0000000000e+00 0.0000e+00 1.0000e+00
       13  1    1    2    0    0 +1.6643330435e+02 +3.7586472721e+01 +6.2555897301e+01 1.8173064688e+02 0.0000000000e+00 0.0000e+00 -1.0000e+00
<mgrwt>
<rscale>  0 0.42534311E+03</rscale>
<asrwt>0</asrwt>
<pdfrwt beam="1">  1        2 0.23534222E-01 0.42534311E+03</pdfrwt>
<pdfrwt beam="2">  1       -2 0.45487520E-01 0.42534311E+03</pdfrwt>
<totfact> 0.13211716E+03</totfact>
</mgrwt>
<rwgt>
<wgt id='morphing_basis_vector_1'> +2.9847592e-04 </wgt>
<wgt id='morphing_basis_vector_2'> +1.6229504e-04 </wgt>
<wgt id='morphing_basis_vector_3'> +1.9627760e-04 </wgt>
<wgt id='morphing_basis_vector_4'> +4.9398626e-05 </wgt>
<wgt id='morphing_basis_vector_5'> +5.7213234e-05 </wgt>
</rwgt>
</event>
<event>
 4      1 +3.1894900e-05 4.23744300e+02 7.81860800e-03 9.58880600e-02
        2 -1    0    0  501    0 +0.0000000000e+00 +0.0000000000e+00 +8.1935259474e+01 8.1935259474e+01 0.0000000000e+00 0.0000e+00 -1.0000e+00
       -2 -1    0    0    0  501 -0.0000000000e+00 -0.0000000000e+00 -5.4786929054e+02 5.4786929054e+02 0.0000000000e+00 0.0000e+00 1.0000e+00
      -13  1    1    2    0    0 -2.0810886537e+02 +1.3371199952e+01 -1.7732112436e+02 2.7373503608e+02 0.0000000000e+00 0.0000e+00 1.0000e+00
       13  1    1    2    0    0 +2.0810886537e+02 -1.3371199952e+01 -2.8861290670e+02 3.5606951393e+02 0.0000000000e+00 0.0000e+00 -1.0000e+00
<mgrwt>
<rscale>  0 0.42374432E+03</rscale>
<asrwt>0</asrwt>
<pdfrwt beam="1">  1        2 0.12605424E-01 0.42374432E+03</pdfrwt>
<pdfrwt beam="2">  1       -2 0.84287587E-01 0.42374432E+03</pdfrwt>
<totfact> 0.78823830E+02</totfact>
</mgrwt>
<rwgt>
<wgt id='morphing_basis_vector_1'> +3.1228638e-04 </wgt>
<wgt id='morphing_basis_vector_2'> +2.1250574e-04 </wgt>
<wgt id='morphing_basis_vector_3'> +1.8016790e-04 </wgt>
<wgt id='morphing_basis_vector_4'> +4.7542782e-05 </wgt>
<wgt id='morphing_basis_vector_5'> +5.6740211e-05 </wgt>
</rwgt>
</event>
<event>
 4      1 +3.1894900e-05 3.84766500e+02 7.81860800e-03 9.70252100e-02
        2 -1    0    0  501    0 +0.0000000000e+00 +0.0000000000e+00 +1.1211606368e+03 1.1211606368e+03 0.0000000000e+00 0.0000e+00 -1.0000e+00
       -2 -1    0    0    0  501 -0.0000000000e+00 -0.0000000000e+00 -3.3011614903e+01 3.3011614903e+01 0.0000000000e+00 0.0000e+00 1.0000e+00
      -13  1    1    2    0    0 +1.3490049203e+02 +1.3262204378e+02 +6.4904466494e+02 6.7605157077e+02 0.0000000000e+00 0.0000e+00 1.0000e+00
       13  1    1    2    0    0 -1.3490049203e+02 -1.3262204378e+02 +4.3910435698e+02 4.7812068096e+02 0.0000000000e+00 0.0000e+00 -1.0000e+00
<mgrwt>
<rscale>  0 0.38476654E+03</rscale>
<asrwt>0</asrwt>
<pdfrwt beam="1">  1        2 0.17248622E+00 0.38476654E+03</pdfrwt>
<pdfrwt beam="2">  1       -2 0.50787108E-02 0.38476654E+03</pdfrwt>
<totfact> 0.45459618E+03</totfact>
</mgrwt>
<rwgt>
<wgt id='morphing_basis_vector_1'> +2.4164174e-04 </wgt>
<wgt id='morphing_basis_vector_2'> +1.6347092e-04 </wgt>
<wgt id='morphing_basis_vector_3'> +1.2984015e-04 </wgt>
<wgt id='morphing_basis_vector_4'> +3.1513083e-05 </wgt>
<wgt id='morphing_basis_vector_5'> +2.7085266e-05 </wgt>
</rwgt>
</event>
<event>
 4      1 +3.1894900e-05 3.60172900e+02 7.81860800e-03 9.78196100e-02
        2 -1    0    0  501    0 +0.0000000000e+00 +0.0000000000e+00 +6.1861558593e+02 6.1861558593e+02 0.0000000000e+00 0.0000e+00 -1.0000e+00
       -2 -1    0    0    0  501 -0.0000000000e+00 -0.0000000000e+00 -5.2425326143e+01 5.2425326143e+01 0.0000000000e+00 0.0000e+00 1.0000e+00
      -13  1    1    2    0    0 +1.7864231787e+02 -2.2582591816e+01 +2.7780158721e+02 3.3105403342e+02 0.0000000000e+00 0.0000e+00 1.0000e+00
       13  1    1    2    0    0 -1.7864231787e+02 +2.2582591816e+01 +2.8838867258e+02 3.3998687866e+02 0.0000000000e+00 0.0000e+00 -1.0000e+00
<mgrwt>
<rscale>  0 0.36017287E+03</rscale>
<asrwt>0</asrwt>
<pdfrwt beam="1">  1        2 0.95171623E-01 0.36017287E+03</pdfrwt>
<pdfrwt beam="2">  1       -2 0.80654352E-02 0.36017287E+03</pdfrwt>
<totfact> 0.48362779E+03</totfact>
</mgrwt>
<rwgt>
<wgt id='morphing_basis_vector_1'> +1.9889588e-04 </wgt>
<wgt id='morphing_basis_vector_2'> +1.2082264e-04 </wgt>
<wgt id='morphing_basis_vector_3'> +1.1216061e-04 </wgt>
<wgt id='morphing_basis_vector_4'> +2.3295034e-05 </wgt>
<wgt id='morphing_basis_vector_5'> +1.4463559e-05 </wgt>
</rwgt>
</event>
<event>
 4      1 +3.1894900e-05 4.23017600e+02 7.81860800e-03 9.59080600e-02
        2 -1    0    0  501    0 +0.0000000000e+00 +0.0000000000e+00 +5.6960265434e+02 5.6960265434e+02 0.0000000000e+00 0.0000e+00 1.0000e+00
       -2 -1    0    0    0  501 -0.0000000000e+00 -0.0000000000e+00 -7.8538907291e+01 7.8538907291e+01 0.0000000000e+00 0.0000e+00 -1.0000e+00
      -13  1    1    2    0    0 -1.2121134345e+02 +1.4564471236e+01 -1.9104861941e+01 1.2356904691e+02 0.0000000000e+00 0.0000e+00 -1.0000e+00
       13  1    1    2    0    0 +1.2121134345e+02 -1.4564471236e+01 +5.1016860899e+02 5.2457251472e+02 0.0000000000e+00 0.0000e+00 1.0000e+00
<mgrwt>
<rscale>  0 0.42301759E+03</rscale>
<asrwt>0</asrwt>
<pdfrwt beam="1">  1        2 0.87631175E-01 0.42301759E+03</pdfrwt>
<pdfrwt beam="2">  1       -2 0.12082909E-01 0.42301759E+03</pdfrwt>
<totfact> 0.28502227E+03</totfact>
</mgrwt>
<rwgt>
<wgt id='morphing_basis_vector_1'> +2.9347854e-04 </wgt>
<wgt id='morphing_basis_vector_2'> +1.5814081e-04 </wgt>
<wgt id='morphing_basis_vector_3'> +1.9324841e-04 </wgt>
<wgt id='morphing_basis_vector_4'> +4.8033935e-05 </wgt>
<wgt id='morphing_basis_vector_5'> +5.4983243e-05 </wgt>
</rwgt>
</event>
<event>
 4      1 +3.1894900e-05 3.77052900e+02 7.81860800e-03 9.72673400e-02
        2 -1    0    0  501    0 +0.0000000000e+00 +0.0000000000e+00 +1.0555999970e+03 1.0555999970e+03 0.0000000000e+00 0.0000e+00 -1.0000e+00
       -2 -1    0    0    0  501 -0.0000000000e+00 -0.0000000000e+00 -3.3670161714e+01 3.3670161714e+01 0.0000000000e+00 0.0000e+00 1.0000e+00
      -13  1    1    2    0    0 +3.8941261769e-01 -1.7157541053e+02 +2.8526116300e+02 3.3288467111e+02 0.0000000000e+00 0.0000e+00 1.0000e+00
       13  1    1    2    0    0 -3.8941261769e-01 +1.7157541053e+02 +7.3666867226e+02 7.5638548759e+02 0.0000000000e+00 0.0000e+00 -1.0000e+00
<mgrwt>
<rscale>  0 0.37705290E+03</rscale>
<asrwt>0</asrwt>
<pdfrwt beam="1">  1        2 0.16239997E+00 0.37705290E+03</pdfrwt>
<pdfrwt beam="2">  1       -2 0.51800257E-02 0.37705290E+03</pdfrwt>
<totfact> 0.48175791E+03</totfact>
</mgrwt>
<rwgt>
<wgt id='morphing_basis_vector_1'> +2.1791330e-04 </wgt>
<wgt id='morphing_basis_vector_2'> +1.2013574e-04 </wgt>
<wgt id='morphing_basis_vector_3'> +1.3402526e-04 </wgt>
<wgt id='morphing_basis_vector_4'> +2.7102725e-05 </wgt>
<wgt id='morphing_basis_vector_5'> +2.1993662e-05 </wgt>
</rwgt>
</event>
<event>
 4      1 +3.1894900e-05 4.07686200e+02 7.81860800e-03 9.63401100e-02
        2 -1    0    0  501    0 +0.0000000000e+00 +0.0000000000e+00 +5.2050196904e+02 5.2050196904e+02 0.0000000000e+00 0.0000e+00 1.0000e+00
       -2 -1    0    0    0  501 -0.0000000000e+00 -0.0000000000e+00 -7.9830659738e+01 7.9830659738e+01 0.0000000000e+00 0.0000e+00 -1.0000e+00
      -13  1    1    2    0    0 +1.0017820813e+02 +1.0783157972e+02 +4.2800338815e+02 4.5260382592e+02 0.0000000000e+00 0.0000e+00 1.0000e+00
       13  1    1    2    0    0 -1.0017820813e+02 -1.0783157972e+02 +1.2667921153e+01 1.4772880286e+02 0.0000000000e+00 0.0000e+00 -1.0000e+00
<mgrwt>
<rscale>  0 0.40768623E+03</rscale>
<asrwt>0</asrwt>
<pdfrwt beam="1">  1        2 0.80077224E-01 0.40768623E+03</pdfrwt>
<pdfrwt beam="2">  1       -2 0.12281640E-01 0.40768623E+03</pdfrwt>
<totfact> 0.30754392E+03</totfact>
</mgrwt>
<rwgt>
<wgt id='morphing_basis_vector_1'> +3.3596337e-04 </wgt>
<wgt id='morphing_basis_vector_2'> +3.5843738e-04 </wgt>
<wgt id='morphing_basis_vector_3'> +1.0821084e-04 </wgt>
<wgt id='morphing_basis_vector_4'> +4.1448174e-05 </wgt>
<wgt id='morphing_basis_vector_5'> +4.6374694e-05 </wgt>
</rwgt>
</event>
<event>
 4      1 +3.1894900e-05 3.63961200e+02 7.81860800e-03 9.76928700e-02
        2 -1    0    0  501    0 +0.0000000000e+00 +0.0000000000e+00 +5.7305405314e+02 5.7305405314e+02 0.0000000000e+00 0.0000e+00 1.0000e+00
       -2 -1    0    0    0  501 -0.0000000000e+00 -0.0000000000e+00 -5.7790268846e+01 5.7790268846e+01 0.0000000000e+00 0.0000e+00 -1.0000e+00
      -13  1    1    2    0    0 -1.1222156850e+02 +2.1705872025e+01 +1.2190827900e+01 1.1494973511e+02 0.0000000000e+00 0.0000e+00 -1.0000e+00
       13  1    1    2    0    0 +1.1222156850e+02 -2.1705872025e+01 +5.0307295639e+02 5.1589458688e+02 0.0000000000e+00 0.0000e+00 1.0000e+00
<mgrwt>
<rscale>  0 0.36396125E+03</rscale>
<asrwt>0</asrwt>
<pdfrwt beam="1">  1        2 0.88162158E-01 0.36396125E+03</pdfrwt>
<pdfrwt beam="2">  1       -2 0.88908110E-02 0.36396125E+03</pdfrwt>
<totfact> 0.45478434E+03</totfact>
</mgrwt>
<rwgt>
<wgt id='morphing_basis_vector_1'> +1.9848397e-04 </wgt>
<wgt id='morphing_basis_vector_2'> +1.0710210e-04 </wgt>
<wgt id='morphing_basis_vector_3'> +1.2208106e-04 </wgt>
<wgt id='morphing_basis_vector_4'> +2.2889266e-05 </wgt>
<wgt id='morphing_basis_vector_5'> +1.5686480e-05 </wgt>
</rwgt>
</event>
<event>
 4      1 +3.1894900e-05 4.26374900e+02 7.81860800e-03 9.58160400e-02
        2 -1    0    0  501    0 +0.0000000000e+00 +0.0000000000e+00 +2.1004122744e+02 2.1004122744e+02 0.0000000000e+00 0.0000e+00 -1.0000e+00
       -2 -1    0    0    0  501 -0.0000000000e+00 -0.0000000000e+00 -2.1638079327e+02 2.1638079327e+02 0.0000000000e+00 0.0000e+00 1.0000e+00
      -13  1    1    2    0    0 +3.9161573000e+01 -1.0131262787e+02 -1.8663217518e+02 2.1593852408e+02 0.0000000000e+00 0.0000e+00 1.0000e+00
       13  1    1    2    0    0 -3.9161573000e+01 +1.0131262787e+02 +1.8029260935e+02 2.1048349663e+02 0.0000000000e+00 0.0000e+00 -1.0000e+00
<mgrwt>
<rscale>  0 0.42637489E+03</rscale>
<asrwt>0</asrwt>
<pdfrwt beam="1">  1        2 0.32314035E-01 0.42637489E+03</pdfrwt>
<pdfrwt beam="2">  1       -2 0.33289353E-01 0.42637489E+03</pdfrwt>
<totfact> 0.16240991E+03</totfact>
</mgrwt>
<rwgt>
<wgt id='morphing_basis_vector_1'> +2.9986478e-04 </wgt>
<wgt id='morphing_basis_vector_2'> +1.6154367e-04 </wgt>
<wgt id='morphing_basis_vector_3'> +1.9832002e-04 </wgt>
<wgt id='morphing_basis_vector_4'> +5.0066952e-05 </wgt>
<wgt id='morphing_basis_vector_5'> +5.8168267e-05 </wgt>
</rwgt>
</event>
<event>
 4      1 +3.1894900e-05 3.62298400e+02 7.81860800e-03 9.77482900e-02
        2 -1    0    0  501    0 +0.0000000000e+00 +0.0000000000e+00 +1.4237356782e+03 1.4237356782e+03 0.0000000000e+00 0.0000e+00 1.0000e+00
       -2 -1    0    0    0  501 -0.0000000000e+00 -0.0000000000e+00 -2.3048537980e+01 2.3048537980e+01 0.0000000000e+00 0.0000e+00 -1.0000e+00
      -13  1    1    2    0    0 +1.2242974630e+02 +1.1767749443e+02 +4.4847773815e+02 4.7955116212e+02 0.0000000000e+00 0.0000e+00 -1.0000e+00
       13  1    1    2    0    0 -1.2242974630e+02 -1.1767749443e+02 +9.5220940209e+02 9.6723305408e+02 0.0000000000e+00 0.0000e+00 1.0000e+00
<mgrwt>
<rscale>  0 0.36229836E+03</rscale>
<asrwt>0</asrwt>
<pdfrwt beam="1">  1        2 0.21903619E+00 0.36229836E+03</pdfrwt>
<pdfrwt beam="2">  1       -2 0.35459300E-02 0.36229836E+03</pdfrwt>
<totfact> 0.52743145E+03</totfact>
</mgrwt>
<rwgt>
<wgt id='morphing_basis_vector_1'> +1.9765304e-04 </wgt>
<wgt id='morphing_basis_vector_2'> +1.1012572e-04 </wgt>
<wgt id='morphing_basis_vector_3'> +1.1889564e-04 </wgt>
<wgt id='morphing_basis_vector_4'> +2.2784346e-05 </wgt>
<wgt id='morphing_basis_vector_5'> +1.5073522e-05 </wgt>
</rwgt>
</event>
<event>
 4      1 +3.1894900e-05 4.26182300e+02 7.81860800e-03 9.58212900e-02
        2 -1    0    0  501    0 +0.0000000000e+00 +0.0000000000e+00 +7.2317098275e+02 7.2317098275e+02 0.0000000000e+00 0.0000e+00 1.0000e+00
       -2 -1    0    0    0  501 -0.0000000000e+00 -0.0000000000e+00 -6.2789911217e+01 6.2789911217e+01 0.0000000000e+00 0.0000e+00 -1.0000e+00
      -13  1    1    2    0    0 -1.4563812422e+02 -5.5641076574e+01 +6.2297358556e+01 1.6789089764e+02 0.0000000000e+00 0.0000e+00 -1.0000e+00
       13  1    1    2    0    0 +1.4563812422e+02 +5.5641076574e+01 +5.9808371298e+02 6.1806999633e+02 0.0000000000e+00 0.0000e+00 1.0000e+00
<mgrwt>
<rscale>  0 0.42618232E+03</rscale>
<asrwt>0</asrwt>
<pdfrwt beam="1">  1        2 0.11125707E+00 0.42618232E+03</pdfrwt>
<pdfrwt beam="2">  1       -2 0.96599868E-02 0.42618232E+03</pdfrwt>
<totfact> 0.30550919E+03</totfact>
</mgrwt>
<rwgt>
<wgt id='morphing_basis_vector_1'> +2.9980773e-04 </wgt>
<wgt id='morphing_basis_vector_2'> +1.6230836e-04 </wgt>
<wgt id='morphing_basis_vector_3'> +1.9777624e-04 </wgt>
<wgt id='morphing_basis_vector_4'> +4.9928068e-05 </wgt>
<wgt id='morphing_basis_vector_5'> +5.8001612e-05 </wgt>
</rwgt>
</event>
<event>
 4      1 +3.1894900e-05 3.60695300e+02 7.81860800e-03 9.78020300e-02
        2 -1    0    0  501    0 +0.0000000000e+00 +0.0000000000e+00 +1.3768393254e+02 1.3768393254e+02 0.0000000000e+00 0.0000e+00 -1.0000e+00
       -2 -1    0    0    0  501 -0.0000000000e+00 -0.0000000000e+00 -2.3623151346e+02 2.3623151346e+02 0.0000000000e+00 0.0000e+00 1.0000e+00
      -13  1    1    2    0    0 +9.1958097797e+01 -8.1124928919e+01 -1.8636186638e+02 2.2308807921e+02 0.0000000000e+00 0.0000e+00 1.0000e+00
       13  1    1    2    0    0 -9.1958097797e+01 +8.1124928919e+01 +8.7814285458e+01 1.5082736679e+02 0.0000000000e+00 0.0000e+00 -1.0000e+00
<mgrwt>
<rscale>  0 0.36069535E+03</rscale>
<asrwt>0</asrwt>
<pdfrwt beam="1">  1        2 0.21182144E-01 0.36069535E+03</pdfrwt>
<pdfrwt beam="2">  1       -2 0.36343309E-01 0.36069535E+03</pdfrwt>
<totfact> 0.22545038E+03</totfact>
</mgrwt>
<rwgt>
<wgt id='morphing_basis_vector_1'> +1.9419169e-04 </wgt>
<wgt id='morphing_basis_vector_2'> +1.0498996e-04 </wgt>
<wgt id='morphing_basis_vector_3'> +1.1894867e-04 </wgt>
<wgt id='morphing_basis_vector_4'> +2.2022147e-05 </wgt>
<wgt id='morphing_basis_vector_5'> +1.4326976e-05 </wgt>
</rwgt>
</event>
<event>
 4      1 +3.1894900e-05 4.08909300e+02 7.81860800e-03 9.63049100e-02
        2 -1    0    0  501    0 +0.0000000000e+00 +0.0000000000e+00 +4.6202953089e+02 4.6202953089e+02 0.0000000000e+00 0.0000e+00 1.0000e+00
       -2 -1    0    0    0  501 -0.0000000000e+00 -0.0000000000e+00 -9.0474104599e+01 9.0474104599e+01 0.0000000000e+00 0.0000e+00 -1.0000e+00
      -13  1    1    2    0    0 -1.8812994770e+02 -7.8648367285e+01 +2.0596689202e+02 2.8982892110e+02 0.0000000000e+00 0.0000e+00 -1.0000e+00
       13  1    1    2    0    0 +1.8812994770e+02 +7.8648367285e+01 +1.6558853426e+02 2.6267471438e+02 0.0000000000e+00 0.0000e+00 1.0000e+00
<mgrwt>
<rscale>  0 0.40890932E+03</rscale>
<asrwt>0</asrwt>
<pdfrwt beam="1">  1        2 0.71081465E-01 0.40890932E+03</pdfrwt>
<pdfrwt beam="2">  1       -2 0.13919093E-01 0.40890932E+03</pdfrwt>
<totfact> 0.28832356E+03</totfact>
</mgrwt>
<rwgt>
<wgt id='morphing_basis_vector_1'> +2.7861648e-04 </wgt>
<wgt id='morphing_basis_vector_2'> +1.7738863e-04 </wgt>
<wgt id='morphing_basis_vector_3'> +1.6359798e-04 </wgt>
<wgt id='morphing_basis_vector_4'> +4.0483258e-05 </wgt>
<wgt id='morphing_basis_vector_5'> +4.3506808e-05 </wgt>
</rwgt>
</event>
<event>
 4      1 +3.1894900e-05 3.85067700e+02 7.81860800e-03 9.70158700e-02
        2 -1    0    0  501    0 +0.0000000000e+00 +0.0000000000e+00 +4.6295416907e+02 4.6295416907e+02 0.0000000000e+00 0.0000e+00 1.0000e+00
       -2 -1    0    0    0  501 -0.0000000000e+00 -0.0000000000e+00 -8.0071185173e+01 8.0071185173e+01 0.0000000000e+00 0.0000e+00 -1.0000e+00
      -13  1    1    2    0    0 -5.9470650588e+01 +1.3162507914e+02 +1.1910575726e+01 1.4492681448e+02 0.0000000000e+00 0.0000e+00 -1.0000e+00
       13  1    1    2    0    0 +5.9470650588e+01 -1.3162507914e+02 +3.7097240817e+02 3.9809853977e+02 0.0000000000e+00 0.0000e+00 1.0000e+00
<mgrwt>
<rscale>  0 0.38506773E+03</rscale>
<asrwt>0</asrwt>
<pdfrwt beam="1">  1        2 0.71223717E-01 0.38506773E+03</pdfrwt>
<pdfrwt beam="2">  1       -2 0.12318644E-01 0.38506773E+03</pdfrwt>
<totfact> 0.34858992E+03</totfact>
</mgrwt>
<rwgt>
<wgt id='morphing_basis_vector_1'> +2.2893778e-04 </wgt>
<wgt id='morphing_basis_vector_2'> +1.2371059e-04 </wgt>
<wgt id='morphing_basis_vector_3'> +1.4375981e-04 </wgt>
<wgt id='morphing_basis_vector_4'> +2.9793181e-05 </wgt>
<wgt id='morphing_basis_vector_5'> +2.6391037e-05 </wgt>
</rwgt>
</event>
<event>
 4      1 +3.1894900e-05 3.89157800e+02 7.81860800e-03 9.68900600e-02
        2 -1    0    0  501    0 +0.0000000000e+00 +0.0000000000e+00 +5.2494809836e+02 5.2494809836e+02 0.0000000000e+00 0.0000e+00 1.0000e+00
       -2 -1    0    0    0  501 -0.0000000000e+00 -0.0000000000e+00 -7.2123240363e+01 7.2123240363e+01 0.0000000000e+00 0.0000e+00 -1.0000e+00
      -13  1    1    2    0    0 +3.8937037432e+01 -1.8076345069e+02 +3.1935192619e+02 3.6902191093e+02 0.0000000000e+00 0.0000e+00 1.0000e+00
       13  1    1    2    0    0 -3.8937037432e+01 +1.8076345069e+02 +1.3347293182e+02 2.2804942779e+02 0.0000000000e+00 0.0000e+00 -1.0000e+00
<mgrwt>
<rscale>  0 0.38915785E+03</rscale>
<asrwt>0</asrwt>
<pdfrwt beam="1">  1        2 0.80761243E-01 0.38915785E+03</pdfrwt>
<pdfrwt beam="2">  1       -2 0.11095883E-01 0.38915785E+03</pdfrwt>
<totfact> 0.35681679E+03</totfact>
</mgrwt>
<rwgt>
<wgt id='morphing_basis_vector_1'> +2.5647626e-04 </wgt>
<wgt id='morphing_basis_vector_2'> +1.9169925e-04 </wgt>
<wgt id='morphing_basis_vector_3'> +1.2706541e-04 </wgt>
<wgt id='morphing_basis_vector_4'> +3.3864891e-05 </wgt>
<wgt id='morphing_basis_vector_5'> +3.0265990e-05 </wgt>
</rwgt>
</event>
<event>
 4      1 +3.1894900e-05 4.27424700e+02 7.81860800e-03 9.57874400e-02
        2 -1    0    0  501    0 +0.0000000000e+00 +0.0000000000e+00 +3.8729134962e+02 3.8729134962e+02 0.0000000000e+00 0.0000e+00 -1.0000e+00
       -2 -1    0    0    0  501 -0.0000000000e+00 -0.0000000000e+00 -1.1792923846e+02 1.1792923846e+02 0.0000000000e+00 0.0000e+00 1.0000e+00
      -13  1    1    2    0    0 +1.9743962738e+02 +6.9213428262e+01 +8.3157471792e+01 2.2514011243e+02 0.0000000000e+00 0.0000e+00 1.0000e+00
       13  1    1    2    0    0 -1.9743962738e+02 -6.9213428262e+01 +1.8620463937e+02 2.8008047564e+02 0.0000000000e+00 0.0000e+00 -1.0000e+00
<mgrwt>
<rscale>  0 0.42742473E+03</rscale>
<asrwt>0</asrwt>
<pdfrwt beam="1">  1        2 0.59583284E-01 0.42742473E+03</pdfrwt>
<pdfrwt beam="2">  1       -2 0.18142960E-01 0.42742473E+03</pdfrwt>
<totfact> 0.22926700E+03</totfact>
</mgrwt>
<rwgt>
<wgt id='morphing_basis_vector_1'> +3.0627326e-04 </wgt>
<wgt id='morphing_basis_vector_2'> +1.7612818e-04 </wgt>
<wgt id='morphing_basis_vector_3'> +1.9645453e-04 </wgt>
<wgt id='morphing_basis_vector_4'> +5.0407122e-05 </wgt>
<wgt id='morphing_basis_vector_5'> +5.9455755e-05 </wgt>
</rwgt>
</event>
<event>
 4      1 +3.1894900e-05 3.88311700e+02 7.81860800e-03 9.69159500e-02
        2 -1    0    0  501    0 +0.0000000000e+00 +0.0000000000e+00 +1.8024198171e+02 1.8024198171e+02 0.0000000000e+00 0.0000e+00 1.0000e+00
       -2 -1    0    0    0  501 -0.0000000000e+00 -0.0000000000e+00 -2.0914376873e+02 2.0914376873e+02 0.0000000000e+00 0.0000e+00 -1.0000e+00
      -13  1    1    2    0    0 +1.0745180432e+02 +3.5110133042e+01 -1.7274149312e+02 2.0644184444e+02 0.0000000000e+00 0.0000e+00 -1.0000e+00
       13  1    1    2    0    0 -1.0745180432e+02 -3.5110133042e+01 +1.4383970609e+02 1.8294390599e+02 0.0000000000e+00 0.0000e+00 1.0000e+00
<mgrwt>
<rscale>  0 0.38831167E+03</rscale>
<asrwt>0</asrwt>
<pdfrwt beam="1">  1        2 0.27729536E-01 0.38831167E+03</pdfrwt>
<pdfrwt beam="2">  1       -2 0.32175964E-01 0.38831167E+03</pdfrwt>
<totfact> 0.20510415E+03</totfact>
</mgrwt>
<rwgt>
<wgt id='morphing_basis_vector_1'> +2.3369557e-04 </wgt>
<wgt id='morphing_basis_vector_2'> +1.2565397e-04 </wgt>
<wgt id='morphing_basis_vector_3'> +1.4769819e-04 </wgt>
<wgt id='morphing_basis_vector_4'> +3.1010829e-05 </wgt>
<wgt id='morphing_basis_vector_5'> +2.8325559e-05 </wgt>
</rwgt>
</event>
<event>
 4      1 +3.1894900e-05 3.61327500e+02 7.81860800e-03 9.77808000e-02
        2 -1    0    0  501    0 +0.0000000000e+00 +0.0000000000e+00 +1.1106011417e+02 1.1106011417e+02 0.0000000000e+00 0.0000e+00 -1.0000e+00
       -2 -1    0    0    0  501 -0.0000000000e+00 -0.0000000000e+00 -2.9388933325e+02 2.9388933325e+02 0.0000000000e+00 0.0000e+00 1.0000e+00
      -13  1    1    2    0    0 +1.0242750740e+02 +2.0218443731e+01 -2.5665707117e+02 2.7707946860e+02 0.0000000000e+00 0.0000e+00 1.0000e+00
       13  1    1    2    0    0 -1.0242750740e+02 -2.0218443731e+01 +7.3827852088e+01 1.2786997882e+02 0.0000000000e+00 0.0000e+00 -1.0000e+00
<mgrwt>
<rscale>  0 0.36132746E+03</rscale>
<asrwt>0</asrwt>
<pdfrwt beam="1">  1        2 0.17086172E-01 0.36132746E+03</pdfrwt>
<pdfrwt beam="2">  1       -2 0.45213743E-01 0.36132746E+03</pdfrwt>
<totfact> 0.19477100E+03</totfact>
</mgrwt>
<rwgt>
<wgt id='morphing_basis_vector_1'> +1.9493925e-04 </wgt>
<wgt id='morphing_basis_vector_2'> +1.0516502e-04 </wgt>
<wgt id='morphing_basis_vector_3'> +1.1963764e-04 </wgt>
<wgt id='morphing_basis_vector_4'> +2.2166669e-05 </wgt>
<wgt id='morphing_basis_vector_5'> +1.4579391e-05 </wgt>
</rwgt>
</event>
<event>
 4      1 +3.1894900e-05 3.92610700e+02 7.81860800e-03 9.67851300e-02
        2 -1    0    0  501    0 +0.0000000000e+00 +0.0000000000e+00 +4.4483727727e+02 4.4483727727e+02 0.0000000000e+00 0.0000e+00 1.0000e+00
       -2 -1    0    0    0  501 -0.0000000000e+00 -0.0000000000e+00 -8.6628956747e+01 8.6628956747e+01 0.0000000000e+00 0.0000e+00 -1.0000e+00
      -13  1    1    2    0    0 -4.6567426530e+01 -1.4782658756e+02 +1.6018584678e+01 1.5581341489e+02 0.0000000000e+00 0.0000e+00 -1.0000e+00
       13  1    1    2    0    0 +4.6567426530e+01 +1.4782658756e+02 +3.4218973585e+02 3.7565281914e+02 0.0000000000e+00 0.0000e+00 1.0000e+00
<mgrwt>
<rscale>  0 0.39261069E+03</rscale>
<asrwt>0</asrwt>
<pdfrwt beam="1">  1        2 0.68436503E-01 0.39261069E+03</pdfrwt>
<pdfrwt beam="2">  1       -2 0.13327532E-01 0.39261069E+03</pdfrwt>
<totfact> 0.32194737E+03</totfact>
</mgrwt>
<rwgt>
<wgt id='morphing_basis_vector_1'> +2.4084769e-04 </wgt>
<wgt id='morphing_basis_vector_2'> +1.3044612e-04 </wgt>
<wgt id='morphing_basis_vector_3'> +1.5235637e-04 </wgt>
<wgt id='morphing_basis_vector_4'> +3.2790620e-05 </wgt>
<wgt id='morphing_basis_vector_5'> +3.1069306e-05 </wgt>
</rwgt>
</event>
<event>
 4      1 +3.1894900e-05 4.15189300e+02 7.81860800e-03 9.61261900e-02
        2 -1    0    0  501    0 +0.0000000000e+00 +0.0000000000e+00 +5.3225684428e+02 5.3225684428e+02 0.0000000000e+00 0.0000e+00 1.0000e+00
       -2 -1    0    0    0  501 -0.0000000000e+00 -0.0000000000e+00 -8.0967543679e+01 8.0967543679e+01 0.0000000000e+00 0.0000e+00 -1.0000e+00
      -13  1    1    2    0    0 -4.5223925805e+01 -1.9276425669e+02 +1.3349904346e+02 2.3879961626e+02 0.0000000000e+00 0.0000e+00 -1.0000e+00
       13  1    1    2    0    0 +4.5223925805e+01 +1.9276425669e+02 +3.1779025715e+02 3.7442477170e+02 0.0000000000e+00 0.0000e+00 1.0000e+00
<mgrwt>
<rscale>  0 0.41518925E+03</rscale>
<asrwt>0</asrwt>
<pdfrwt beam="1">  1        2 0.81885666E-01 0.41518925E+03</pdfrwt>
<pdfrwt beam="2">  1       -2 0.12456546E-01 0.41518925E+03</pdfrwt>
<totfact> 0.29336770E+03</totfact>
</mgrwt>
<rwgt>
<wgt id='morphing_basis_vector_1'> +2.8156550e-04 </wgt>
<wgt id='morphing_basis_vector_2'> +1.5821710e-04 </wgt>
<wgt id='morphing_basis_vector_3'> +1.7970017e-04 </wgt>
<wgt id='morphing_basis_vector_4'> +4.3546883e-05 </wgt>
<wgt id='morphing_basis_vector_5'> +4.8154994e-05 </wgt>
</rwgt>
</event>
<event>
 4      1 +3.1894900e-05 3.85242800e+02 7.81860800e-03 9.70104500e-02
        2 -1    0    0  501    0 +0.0000000000e+00 +0.0000000000e+00 +1.4724910292e+03 1.4724910292e+03 0.0000000000e+00 0.0000e+00 1.0000e+00
       -2 -1    0    0    0  501 -0.0000000000e+00 -0.0000000000e+00 -2.5197440709e+01 2.5197440709e+01 0.0000000000e+00 0.0000e+00 -1.0000e+00
      -13  1    1    2    0    0 -1.3529691070e+02 -1.3453072510e+02 +8.2644810149e+02 8.4818643852e+02 0.0000000000e+00 0.0000e+00 -1.0000e+00
       13  1    1    2    0    0 +1.3529691070e+02 +1.3453072510e+02 +6.2084548701e+02 6.4950203139e+02 0.0000000000e+00 0.0000e+00 1.0000e+00
<mgrwt>
<rscale>  0 0.38524281E+03</rscale>
<asrwt>0</asrwt>
<pdfrwt beam="1">  1        2 0.22653701E+00 0.38524281E+03</pdfrwt>
<pdfrwt beam="2">  1       -2 0.38765305E-02 0.38524281E+03</pdfrwt>
<totfact> 0.43485893E+03</totfact>
</mgrwt>
<rwgt>
<wgt id='morphing_basis_vector_1'> +2.4047271e-04 </wgt>
<wgt id='morphing_basis_vector_2'> +1.5810478e-04 </wgt>
<wgt id='morphing_basis_vector_3'> +1.3236178e-04 </wgt>
<wgt id='morphing_basis_vector_4'> +3.1401348e-05 </wgt>
<wgt id='morphing_basis_vector_5'> +2.7239586e-05 </wgt>
</rwgt>
</event>
<event>
 4      1 +3.1894900e-05 3.67782400e+02 7.81860800e-03 9.75667000e-02
        2 -1    0    0  501    0 +0.0000000000e+00 +0.0000000000e+00 +6.2275610859e+02 6.2275610859e+02 0.0000000000e+00 0.0000e+00 -1.0000e+00
       -2 -1    0    0    0  501 -0.0000000000e+00 -0.0000000000e+00 -5.4300497950e+01 5.4300497950e+01 0.0000000000e+00 0.0000e+00 1.0000e+00
      -13  1    1    2    0    0 -1.5702191079e+02 -6.1285732481e+01 +1.4889671217e+02 2.2490454057e+02 0.0000000000e+00 0.0000e+00 1.0000e+00
       13  1    1    2    0    0 +1.5702191079e+02 +6.1285732481e+01 +4.1955889847e+02 4.5215206597e+02 0.0000000000e+00 0.0000e+00 -1.0000e+00
<mgrwt>
<rscale>  0 0.36778236E+03</rscale>
<asrwt>0</asrwt>
<pdfrwt beam="1">  1        2 0.95808627E-01 0.36778236E+03</pdfrwt>
<pdfrwt beam="2">  1       -2 0.83539232E-02 0.36778236E+03</pdfrwt>
<totfact> 0.45497231E+03</totfact>
</mgrwt>
<rwgt>
<wgt id='morphing_basis_vector_1'> +2.0480376e-04 </wgt>
<wgt id='morphing_basis_vector_2'> +1.1321803e-04 </wgt>
<wgt id='morphing_basis_vector_3'> +1.2451040e-04 </wgt>
<wgt id='morphing_basis_vector_4'> +2.4231392e-05 </wgt>
<wgt id='morphing_basis_vector_5'> +1.7450068e-05 </wgt>
</rwgt>
</event>
<event>
 4      1 +3.1894900e-05 3.93379100e+02 7.81860800e-03 9.67619300e-02
        2 -1    0    0  501    0 +0.0000000000e+00 +0.0000000000e+00 +1.6298070961e+03 1.6298070961e+03 0.0000000000e+00 0.0000e+00 1.0000e+00
       -2 -1    0    0    0  501 -0.0000000000e+00 -0.0000000000e+00 -2.3737031902e+01 2.3737031902e+01 0.0000000000e+00 0.0000e+00 -1.0000e+00
      -13  1    1    2    0    0 -2.7331181691e+01 +1.8923014154e+02 +6.0895899527e+02 6.3826804548e+02 0.0000000000e+00 0.0000e+00 -1.0000e+00
       13  1    1    2    0    0 +2.7331181691e+01 -1.8923014154e+02 +9.9711106894e+02 1.0152760825e+03 0.0000000000e+00 0.0000e+00 1.0000e+00
<mgrwt>
<rscale>  0 0.39337912E+03</rscale>
<asrwt>0</asrwt>
<pdfrwt beam="1">  1        2 0.25073947E+00 0.39337912E+03</pdfrwt>
<pdfrwt beam="2">  1       -2 0.36518523E-02 0.39337912E+03</pdfrwt>
<totfact> 0.39117624E+03</totfact>
</mgrwt>
<rwgt>
<wgt id='morphing_basis_vector_1'> +2.4466815e-04 </wgt>
<wgt id='morphing_basis_vector_2'> +1.3901045e-04 </wgt>
<wgt id='morphing_basis_vector_3'> +1.5072683e-04 </wgt>
<wgt id='morphing_basis_vector_4'> +3.3360535e-05 </wgt>
<wgt id='morphing_basis_vector_5'> +3.1742231e-05 </wgt>
</rwgt>
</event>
<event>
 4      1 +3.1894900e-05 3.63126600e+02 7.81860800e-03 9.77206500e-02
        2 -1    0    0  501    0 +0.0000000000e+00 +0.0000000000e+00 +6.4097795784e+02 6.4097795784e+02 0.0000000000e+00 0.0000e+00 -1.0000e+00
       -2 -1    0    0    0  501 -0.0000000000e+00 -0.0000000000e+00 -5.1429588677e+01 5.1429588677e+01 0.0000000000e+00 0.0000e+00 1.0000e+00
      -13  1    1    2    0    0 -8.1967925795e+01 +1.2493474469e+02 +9.8108013013e+01 1.7875293986e+02 0.0000000000e+00 0.0000e+00 1.0000e+00
       13  1    1    2    0    0 +8.1967925795e+01 -1.2493474469e+02 +4.9144035615e+02 5.1365460666e+02 0.0000000000e+00 0.0000e+00 -1.0000e+00
<mgrwt>
<rscale>  0 0.36312660E+03</rscale>
<asrwt>0</asrwt>
<pdfrwt beam="1">  1        2 0.98611988E-01 0.36312660E+03</pdfrwt>
<pdfrwt beam="2">  1       -2 0.79122449E-02 0.36312660E+03</pdfrwt>
<totfact> 0.47803028E+03</totfact>
</mgrwt>
<rwgt>
<wgt id='morphing_basis_vector_1'> +1.9775829e-04 </wgt>
<wgt id='morphing_basis_vector_2'> +1.0769912e-04 </wgt>
<wgt id='morphing_basis_vector_3'> +1.2083535e-04 </wgt>
<wgt id='morphing_basis_vector_4'> +2.2756747e-05 </wgt>
<wgt id='morphing_basis_vector_5'> +1.5356627e-05 </wgt>
</rwgt>
</event>
<event>
 4      1 +3.1894900e-05 4.04057200e+02 7.81860800e-03 9.64453400e-02
        2 -1    0    0  501    0 +0.0000000000e+00 +0.0000000000e+00 +2.9277183892e+02 2.9277183892e+02 0.0000000000e+00 0.0000e+00 -1.0000e+00
       -2 -1    0    0    0  501 -0.0000000000e+00 -0.0000000000e+00 -1.3941077834e+02 1.3941077834e+02 0.0000000000e+00 0.0000e+00 1.0000e+00
      -13  1    1    2    0    0 +1.5084332225e+02 +7.5410756722e+01 +1.9566715010e+02 2.5831400219e+02 0.0000000000e+00 0.0000e+00 1.0000e+00
       13  1    1    2    0    0 -1.5084332225e+02 -7.5410756722e+01 -4.2306089523e+01 1.7386861507e+02 0.0000000000e+00 0.0000e+00 -1.0000e+00
<mgrwt>
<rscale>  0 0.40405717E+03</rscale>
<asrwt>0</asrwt>
<pdfrwt beam="1">  1        2 0.45041821E-01 0.40405717E+03</pdfrwt>
<pdfrwt beam="2">  1       -2 0.21447812E-01 0.40405717E+03</pdfrwt>
<totfact> 0.23724459E+03</totfact>
</mgrwt>
<rwgt>
<wgt id='morphing_basis_vector_1'> +3.0868224e-04 </wgt>
<wgt id='morphing_basis_vector_2'> +2.9045263e-04 </wgt>
<wgt id='morphing_basis_vector_3'> +1.2141905e-04 </wgt>
<wgt id='morphing_basis_vector_4'> +4.0017787e-05 </wgt>
<wgt id='morphing_basis_vector_5'> +4.2257388e-05 </wgt>
</rwgt>
</event>
<event>
 4      1 +3.1894900e-05 4.02053100e+02 7.81860800e-03 9.65039600e-02
        2 -1    0    0  501    0 +0.0000000000e+00 +0.0000000000e+00 +6.6776959979e+02 6.6776959979e+02 0.0000000000e+00 0.0000e+00 1.0000e+00
       -2 -1    0    0    0  501 -0.0000000000e+00 -0.0000000000e+00 -6.0517391305e+01 6.0517391305e+01 0.0000000000e+00 0.0000e+00 -1.0000e+00
      -13  1    1    2    0    0 +1.4101019588e+02 -1.5401766069e+01 +4.5598355291e+01 1.4899765014e+02 0.0000000000e+00 0.0000e+00 -1.0000e+00
       13  1    1    2    0    0 -1.4101019588e+02 +1.5401766069e+01 +5.6165385319e+02 5.7928934095e+02 0.0000000000e+00 0.0000e+00 1.0000e+00
<mgrwt>
<rscale>  0 0.40205310E+03</rscale>
<asrwt>0</asrwt>
<pdfrwt beam="1">  1        2 0.10273378E+00 0.40205310E+03</pdfrwt>
<pdfrwt beam="2">  1       -2 0.93103684E-02 0.40205310E+03</pdfrwt>
<totfact> 0.35550599E+03</totfact>
</mgrwt>
<rwgt>
<wgt id='morphing_basis_vector_1'> +2.5611233e-04 </wgt>
<wgt id='morphing_basis_vector_2'> +1.3813467e-04 </wgt>
<wgt id='morphing_basis_vector_3'> +1.6422081e-04 </wgt>
<wgt id='morphing_basis_vector_4'> +3.6935616e-05 </wgt>
<wgt id='morphing_basis_vector_5'> +3.7581088e-05 </wgt>
</rwgt>
</event>
<event>
 4      1 +3.1894900e-05 4.18706500e+02 7.81860800e-03 9.60275600e-02
        2 -1    0    0  501    0 +0.0000000000e+00 +0.0000000000e+00 +1.0662164301e+02 1.0662164301e+02 0.0000000000e+00 0.0000e+00 -1.0000e+00
       -2 -1    0    0    0  501 -0.0000000000e+00 -0.0000000000e+00 -4.1106834247e+02 4.1106834247e+02 0.0000000000e+00 0.0000e+00 1.0000e+00
      -13  1    1    2    0    0 +3.9231680720e+01 +1.1357549680e+02 -3.6418720459e+02 3.8349815936e+02 0.0000000000e+00 0.0000e+00 1.0000e+00
       13  1    1    2    0    0 -3.9231680720e+01 -1.1357549680e+02 +5.9740505134e+01 1.3419182612e+02 0.0000000000e+00 0.0000e+00 -1.0000e+00
<mgrwt>
<rscale>  0 0.41870649E+03</rscale>
<asrwt>0</asrwt>
<pdfrwt beam="1">  1        2 0.16403330E-01 0.41870649E+03</pdfrwt>
<pdfrwt beam="2">  1       -2 0.63241284E-01 0.41870649E+03</pdfrwt>
<totfact> 0.10601254E+03</totfact>
</mgrwt>
<rwgt>
<wgt id='morphing_basis_vector_1'> +2.8538927e-04 </wgt>
<wgt id='morphing_basis_vector_2'> +1.5368365e-04 </wgt>
<wgt id='morphing_basis_vector_3'> +1.8695758e-04 </wgt>
<wgt id='morphing_basis_vector_4'> +4.5532325e-05 </wgt>
<wgt id='morphing_basis_vector_5'> +5.1056211e-05 </wgt>
</rwgt>
</event>
<event>
 4      1 +3.1894900e-05 3.96450900e+02 7.81860800e-03 9.66697700e-02
        2 -1    0    0  501    0 +0.0000000000e+00 +0.0000000000e+00 +4.8369104589e+02 4.8369104589e+02 0.0000000000e+00 0.0000e+00 1.0000e+00
       -2 -1    0    0    0  501 -0.0000000000e+00 -0.0000000000e+00 -8.1236422866e+01 8.1236422866e+01 0.0000000000e+00 0.0000e+00 -1.0000e+00
      -13  1    1    2    0    0 -7.6244962247e+01 -1.7445858348e+02 +1.2260557537e+02 2.2645356860e+02 0.0000000000e+00 0.0000e+00 -1.0000e+00
       13  1    1    2    0    0 +7.6244962247e+01 +1.7445858348e+02 +2.7984904766e+02 3.3847390017e+02 0.0000000000e+00 0.0000e+00 1.0000e+00
<mgrwt>
<rscale>  0 0.39645091E+03</rscale>
<asrwt>0</asrwt>
<pdfrwt beam="1">  1        2 0.74414005E-01 0.39645091E+03</pdfrwt>
<pdfrwt beam="2">  1       -2 0.12497911E-01 0.39645091E+03</pdfrwt>
<totfact> 0.32470525E+03</totfact>
</mgrwt>
<rwgt>
<wgt id='morphing_basis_vector_1'> +2.4918500e-04 </wgt>
<wgt id='morphing_basis_vector_2'> +1.4032241e-04 </wgt>
<wgt id='morphing_basis_vector_3'> +1.5493125e-04 </wgt>
<wgt id='morphing_basis_vector_4'> +3.4596025e-05 </wgt>
<wgt id='morphing_basis_vector_5'> +3.3770484e-05 </wgt>
</rwgt>
</event>
<event>
 4      1 +3.1894900e-05 3.73520000e+02 7.81860800e-03 9.73803200e-02
        2 -1    0    0  501    0 +0.0000000000e+00 +0.0000000000e+00 +1.0164252795e+03 1.0164252795e+03 0.0000000000e+00 0.0000e+00 -1.0000e+00
       -2 -1    0    0    0  501 -0.0000000000e+00 -0.0000000000e+00 -3.4315648203e+01 3.4315648203e+01 0.0000000000e+00 0.0000e+00 1.0000e+00
      -13  1    1    2    0    0 +1.7428877938e+02 +6.5748560015e+01 +4.5333012930e+02 4.9010984268e+02 0.0000000000e+00 0.0000e+00 1.0000e+00
       13  1    1    2    0    0 -1.7428877938e+02 -6.5748560015e+01 +5.2877950198e+02 5.6063108500e+02 0.0000000000e+00 0.0000e+00 -1.0000e+00
<mgrwt>
<rscale>  0 0.37351997E+03</rscale>
<asrwt>0</asrwt>
<pdfrwt beam="1">  1        2 0.15637310E+00 0.37351997E+03</pdfrwt>
<pdfrwt beam="2">  1       -2 0.52793313E-02 0.37351997E+03</pdfrwt>
<totfact> 0.49388417E+03</totfact>
</mgrwt>
<rwgt>
<wgt id='morphing_basis_vector_1'> +2.1658203e-04 </wgt>
<wgt id='morphing_basis_vector_2'> +1.2879169e-04 </wgt>
<wgt id='morphing_basis_vector_3'> +1.2620971e-04 </wgt>
<wgt id='morphing_basis_vector_4'> +2.6693441e-05 </wgt>
<wgt id='morphing_basis_vector_5'> +2.0433932e-05 </wgt>
</rwgt>
</event>
<event>
 4      1 +3.1894900e-05 4.15651000e+02 7.81860800e-03 9.61131900e-02
        2 -1    0    0  501    0 +0.0000000000e+00 +0.0000000000e+00 +2.0294806960e+02 2.0294806960e+02 0.0000000000e+00 0.0000e+00 -1.0000e+00
       -2 -1    0    0    0  501 -0.0000000000e+00 -0.0000000000e+00 -2.1282015318e+02 2.1282015318e+02 0.0000000000e+00 0.0000e+00 1.0000e+00
      -13  1    1    2    0    0 +9.6630955740e+01 +1.7945268662e+02 +3.5703373150e+01 2.0691916102e+02 0.0000000000e+00 0.0000e+00 1.0000e+00
       13  1    1    2    0    0 -9.6630955740e+01 -1.7945268662e+02 -4.5575456726e+01 2.0884906176e+02 0.0000000000e+00 0.0000e+00 -1.0000e+00
<mgrwt>
<rscale>  0 0.41565100E+03</rscale>
<asrwt>0</asrwt>
<pdfrwt beam="1">  1        2 0.31222780E-01 0.41565100E+03</pdfrwt>
<pdfrwt beam="2">  1       -2 0.32741562E-01 0.41565100E+03</pdfrwt>
<totfact> 0.17385120E+03</totfact>
</mgrwt>
<rwgt>
<wgt id='morphing_basis_vector_1'> +2.9733991e-04 </wgt>
<wgt id='morphing_basis_vector_2'> +2.0452909e-04 </wgt>
<wgt id='morphing_basis_vector_3'> +1.6754576e-04 </wgt>
<wgt id='morphing_basis_vector_4'> +4.3589724e-05 </wgt>
<wgt id='morphing_basis_vector_5'> +4.9495089e-05 </wgt>
</rwgt>
</event>
<event>
 4      1 +3.1894900e-05 3.61379400e+02 7.81860800e-03 9.77790600e-02
        2 -1    0    0  501    0 +0.0000000000e+00 +0.0000000000e+00 +8.5122104448e+01 8.5122104448e+01 0.0000000000e+00 0.0000e+00 1.0000e+00
       -2 -1    0    0    0  501 -0.0000000000e+00 -0.0000000000e+00 -3.8355226783e+02 3.8355226783e+02 0.0000000000e+00 0.0000e+00 -1.0000e+00
      -13  1    1    2    0    0 +1.2919689366e+02 +5.3942054647e+01 -1.0771383760e+00 1.4000979544e+02 0.0000000000e+00 0.0000e+00 1.0000e+00
       13  1    1    2    0    0 -1.2919689366e+02 -5.3942054647e+01 -2.9735302501e+02 3.2866457685e+02 0.0000000000e+00 0.0000e+00 -1.0000e+00
<mgrwt>
<rscale>  0 0.36137945E+03</rscale>
<asrwt>0</asrwt>
<pdfrwt beam="1">  1        2 0.13095709E-01 0.36137945E+03</pdfrwt>
<pdfrwt beam="2">  1       -2 0.59008040E-01 0.36137945E+03</pdfrwt>
<totfact> 0.16037825E+03</totfact>
</mgrwt>
<rwgt>
<wgt id='morphing_basis_vector_1'> +2.3986217e-04 </wgt>
<wgt id='morphing_basis_vector_2'> +2.3999936e-04 </wgt>
<wgt id='morphing_basis_vector_3'> +6.7535727e-05 </wgt>
<wgt id='morphing_basis_vector_4'> +3.3639140e-05 </wgt>
<wgt id='morphing_basis_vector_5'> +1.7502502e-05 </wgt>
</rwgt>
</event>
<event>
 4      1 +3.1894900e-05 4.07079000e+02 7.81860800e-03 9.63576400e-02
        2 -1    0    0  501    0 +0.0000000000e+00 +0.0000000000e+00 +1.1383620621e+03 1.1383620621e+03 0.0000000000e+00 0.0000e+00 1.0000e+00
       -2 -1    0    0    0  501 -0.0000000000e+00 -0.0000000000e+00 -3.6392923364e+01 3.6392923364e+01 0.0000000000e+00 0.0000e+00 -1.0000e+00
      -13  1    1    2    0    0 +1.0275894325e+02 -1.7227002148e+02 +6.5061681779e+02 6.8083669431e+02 0.0000000000e+00 0.0000e+00 -1.0000e+00
       13  1    1    2    0    0 -1.0275894325e+02 +1.7227002148e+02 +4.5135232095e+02 4.9391829117e+02 0.0000000000e+00 0.0000e+00 1.0000e+00
<mgrwt>
<rscale>  0 0.40707898E+03</rscale>
<asrwt>0</asrwt>
<pdfrwt beam="1">  1        2 0.17513260E+00 0.40707898E+03</pdfrwt>
<pdfrwt beam="2">  1       -2 0.55989122E-02 0.40707898E+03</pdfrwt>
<totfact> 0.38385839E+03</totfact>
</mgrwt>
<rwgt>
<wgt id='morphing_basis_vector_1'> +2.7964720e-04 </wgt>
<wgt id='morphing_basis_vector_2'> +1.8856583e-04 </wgt>
<wgt id='morphing_basis_vector_3'> +1.5722266e-04 </wgt>
<wgt id='morphing_basis_vector_4'> +3.9782249e-05 </wgt>
<wgt id='morphing_basis_vector_5'> +4.2341513e-05 </wgt>
</rwgt>
</event>
<event>
 4      1 +3.1894900e-05 3.66847900e+02 7.81860800e-03 9.75974000e-02
        2 -1    0    0  501    0 +0.0000000000e+00 +0.0000000000e+00 +5.9979714235e+01 5.9979714235e+01 0.0000000000e+00 0.0000e+00 -1.0000e+00
       -2 -1    0    0    0  501 -0.0000000000e+00 -0.0000000000e+00 -5.6092878026e+02 5.6092878026e+02 0.0000000000e+00 0.0000e+00 1.0000e+00
      -13  1    1    2    0    0 -7.3410612342e+01 -8.2451489313e+01 -4.9840269727e+02 5.1048272717e+02 0.0000000000e+00 0.0000e+00 1.0000e+00
       13  1    1    2    0    0 +7.3410612342e+01 +8.2451489313e+01 -2.5463687515e+00 1.1042576732e+02 0.0000000000e+00 0.0000e+00 -1.0000e+00
<mgrwt>
<rscale>  0 0.36684791E+03</rscale>
<asrwt>0</asrwt>
<pdfrwt beam="1">  1        2 0.92276481E-02 0.36684791E+03</pdfrwt>
<pdfrwt beam="2">  1       -2 0.86296738E-01 0.36684791E+03</pdfrwt>
<totfact> 0.11055053E+03</totfact>
</mgrwt>
<rwgt>
<wgt id='morphing_basis_vector_1'> +2.0237657e-04 </wgt>
<wgt id='morphing_basis_vector_2'> +1.0909053e-04 </wgt>
<wgt id='morphing_basis_vector_3'> +1.2488708e-04 </wgt>
<wgt id='morphing_basis_vector_4'> +2.3702224e-05 </wgt>
<wgt id='morphing_basis_vector_5'> +1.6952154e-05 </wgt>
</rwgt>
</event>
<event>
 4      1 +3.1894900e-05 3.66241800e+02 7.81860800e-03 9.76173700e-02
        2 -1    0    0  501    0 +0.0000000000e+00 +0.0000000000e+00 +8.7751492832e+01 8.7751492832e+01 0.0000000000e+00 0.0000e+00 -1.0000e+00
       -2 -1    0    0    0  501 -0.0000000000e+00 -0.0000000000e+00 -3.8213891236e+02 3.8213891236e+02 0.0000000000e+00 0.0000e+00 1.0000e+00
      -13  1    1    2    0    0 -5.8895044109e+00 +1.7476558111e+02 -2.1694447585e+02 2.7864421797e+02 0.0000000000e+00 0.0000e+00 1.0000e+00
       13  1    1    2    0    0 +5.8895044109e+00 -1.7476558111e+02 -7.7442943675e+01 1.9124618723e+02 0.0000000000e+00 0.0000e+00 -1.0000e+00
<mgrwt>
<rscale>  0 0.36624178E+03</rscale>
<asrwt>0</asrwt>
<pdfrwt beam="1">  1        2 0.13500230E-01 0.36624178E+03</pdfrwt>
<pdfrwt beam="2">  1       -2 0.58790602E-01 0.36624178E+03</pdfrwt>
<totfact> 0.15565873E+03</totfact>
</mgrwt>
<rwgt>
<wgt id='morphing_basis_vector_1'> +2.0339021e-04 </wgt>
<wgt id='morphing_basis_vector_2'> +1.1420398e-04 </wgt>
<wgt id='morphing_basis_vector_3'> +1.2220660e-04 </wgt>
<wgt id='morphing_basis_vector_4'> +2.3953437e-05 </wgt>
<wgt id='morphing_basis_vector_5'> +1.6801455e-05 </wgt>
</rwgt>
</event>
<event>
 4      1 +3.1894900e-05 4.11126900e+02 7.81860800e-03 9.62414100e-02
        2 -1    0    0  501    0 +0.0000000000e+00 +0.0000000000e+00 +7.8594016490e+02 7.8594016490e+02 0.0000000000e+00 0.0000e+00 1.0000e+00
       -2 -1    0    0    0  501 -0.0000000000e+00 -0.0000000000e+00 -5.3765321821e+01 5.3765321821e+01 0.0000000000e+00 0.0000e+00 -1.0000e+00
      -13  1    1    2    0    0 +4.8022307957e+01 -1.9953323048e+02 +3.8996518878e+02 4.4067278176e+02 0.0000000000e+00 0.0000e+00 1.0000e+00
       13  1    1    2    0    0 -4.8022307957e+01 +1.9953323048e+02 +3.4220965430e+02 3.9903270496e+02 0.0000000000e+00 0.0000e+00 -1.0000e+00
<mgrwt>
<rscale>  0 0.41112687E+03</rscale>
<asrwt>0</asrwt>
<pdfrwt beam="1">  1        2 0.12091386E+00 0.41112687E+03</pdfrwt>
<pdfrwt beam="2">  1       -2 0.82715885E-02 0.41112687E+03</pdfrwt>
<totfact> 0.35040210E+03</totfact>
</mgrwt>
<rwgt>
<wgt id='morphing_basis_vector_1'> +2.8207598e-04 </wgt>
<wgt id='morphing_basis_vector_2'> +1.7815587e-04 </wgt>
<wgt id='morphing_basis_vector_3'> +1.6713068e-04 </wgt>
<wgt id='morphing_basis_vector_4'> +4.1500945e-05 </wgt>
<wgt id='morphing_basis_vector_5'> +4.5261353e-05 </wgt>
</rwgt>
</event>
<event>
 4      1 +3.1894900e-05 3.93017300e+02 7.81860800e-03 9.67728500e-02
        2 -1    0    0  501    0 +0.0000000000e+00 +0.0000000000e+00 +1.1590693473e+03 1.1590693473e+03 0.0000000000e+00 0.0000e+00 -1.0000e+00
       -2 -1    0    0    0  501 -0.0000000000e+00 -0.0000000000e+00 -3.3316090146e+01 3.3316090146e+01 0.0000000000e+00 0.0000e+00 1.0000e+00
      -13  1    1    2    0    0 +1.1063172662e+02 +1.3774440971e+02 +3.0183984765e+02 3.4974304135e+02 0.0000000000e+00 0.0000e+00 1.0000e+00
       13  1    1    2    0    0 -1.1063172662e+02 -1.3774440971e+02 +8.2391340946e+02 8.4264239606e+02 0.0000000000e+00 0.0000e+00 -1.0000e+00
<mgrwt>
<rscale>  0 0.39301735E+03</rscale>
<asrwt>0</asrwt>
<pdfrwt beam="1">  1        2 0.17831833E+00 0.39301735E+03</pdfrwt>
<pdfrwt beam="2">  1       -2 0.51255532E-02 0.39301735E+03</pdfrwt>
<totfact> 0.42657127E+03</totfact>
</mgrwt>
<rwgt>
<wgt id='morphing_basis_vector_1'> +2.4227003e-04 </wgt>
<wgt id='morphing_basis_vector_2'> +1.3315186e-04 </wgt>
<wgt id='morphing_basis_vector_3'> +1.5208044e-04 </wgt>
<wgt id='morphing_basis_vector_4'> +3.3035521e-05 </wgt>
<wgt id='morphing_basis_vector_5'> +3.1385396e-05 </wgt>
</rwgt>
</event>
<event>
 4      1 +3.1894900e-05 4.13964900e+02 7.81860800e-03 9.61607700e-02
        2 -1    0    0  501    0 +0.0000000000e+00 +0.0000000000e+00 +5.7925115509e+02 5.7925115509e+02 0.0000000000e+00 0.0000e+00 -1.0000e+00
       -2 -1    0    0    0  501 -0.0000000000e+00 -0.0000000000e+00 -7.3960536930e+01 7.3960536930e+01 0.0000000000e+00 0.0000e+00 1.0000e+00
      -13  1    1    2    0    0 +1.0255487816e+02 +2.9547730380e+01 -2.7194033514e+01 1.1013667356e+02 0.0000000000e+00 0.0000e+00 1.0000e+00
       13  1    1    2    0    0 -1.0255487816e+02 -2.9547730380e+01 +5.3248465168e+02 5.4307501846e+02 0.0000000000e+00 0.0000e+00 -1.0000e+00
<mgrwt>
<rscale>  0 0.41396486E+03</rscale>
<asrwt>0</asrwt>
<pdfrwt beam="1">  1        2 0.89115559E-01 0.41396486E+03</pdfrwt>
<pdfrwt beam="2">  1       -2 0.11378545E-01 0.41396486E+03</pdfrwt>
<totfact> 0.30711905E+03</totfact>
</mgrwt>
<rwgt>
<wgt id='morphing_basis_vector_1'> +2.7668116e-04 </wgt>
<wgt id='morphing_basis_vector_2'> +1.4881441e-04 </wgt>
<wgt id='morphing_basis_vector_3'> +1.8028571e-04 </wgt>
<wgt id='morphing_basis_vector_4'> +4.2913989e-05 </wgt>
<wgt id='morphing_basis_vector_5'> +4.6946371e-05 </wgt>
</rwgt>
</event>
<event>
 4      1 +3.1894900e-05 3.64971500e+02 7.81860800e-03 9.76593500e-02
        2 -1    0    0  501    0 +0.0000000000e+00 +0.0000000000e+00 +1.0638900884e+03 1.0638900884e+03 0.0000000000e+00 0.0000e+00 1.0000e+00
       -2 -1    0    0    0  501 -0.0000000000e+00 -0.0000000000e+00 -3.1301207183e+01 3.1301207183e+01 0.0000000000e+00 0.0000e+00 -1.0000e+00
      -13  1    1    2    0    0 -1.5389686425e+02 +6.1397439654e+01 +2.8683638133e+02 3.3125367934e+02 0.0000000000e+00 0.0000e+00 -1.0000e+00
       13  1    1    2    0    0 +1.5389686425e+02 -6.1397439654e+01 +7.4575249985e+02 7.6393761620e+02 0.0000000000e+00 0.0000e+00 1.0000e+00
<mgrwt>
<rscale>  0 0.36497147E+03</rscale>
<asrwt>0</asrwt>
<pdfrwt beam="1">  1        2 0.16367537E+00 0.36497147E+03</pdfrwt>
<pdfrwt beam="2">  1       -2 0.48155712E-02 0.36497147E+03</pdfrwt>
<totfact> 0.53118473E+03</totfact>
</mgrwt>
<rwgt>
<wgt id='morphing_basis_vector_1'> +2.0084182e-04 </wgt>
<wgt id='morphing_basis_vector_2'> +1.1081472e-04 </wgt>
<wgt id='morphing_basis_vector_3'> +1.2190913e-04 </wgt>
<wgt id='morphing_basis_vector_4'> +2.3408002e-05 </wgt>
<wgt id='morphing_basis_vector_5'> +1.6188096e-05 </wgt>
</rwgt>
</event>
<event>
 4      1 +3.1894900e-05 4.06132800e+02 7.81860800e-03 9.63850100e-02
        2 -1    0    0  501    0 +0.0000000000e+00 +0.0000000000e+00 +1.5817757046e+02 1.5817757046e+02 0.0000000000e+00 0.0000e+00 1.0000e+00
       -2 -1    0    0    0  501 -0.0000000000e+00 -0.0000000000e+00 -2.6069407850e+02 2.6069407850e+02 0.0000000000e+00 0.0000e+00 -1.0000e+00
      -13  1    1    2    0    0 -1.4010537841e+02 +9.1755537487e+00 -2.0256446443e+02 2.4646717854e+02 0.0000000000e+00 0.0000e+00 -1.0000e+00
       13  1    1    2    0    0 +1.4010537841e+02 -9.1755537487e+00 +1.0004795639e+02 1.7240447043e+02 0.0000000000e+00 0.0000e+00 1.0000e+00
<mgrwt>
<rscale>  0 0.40613277E+03</rscale>
<asrwt>0</asrwt>
<pdfrwt beam="1">  1        2 0.24335011E-01 0.40613277E+03</pdfrwt>
<pdfrwt beam="2">  1       -2 0.40106781E-01 0.40613277E+03</pdfrwt>
<totfact> 0.16062954E+03</totfact>
</mgrwt>
<rwgt>
<wgt id='morphing_basis_vector_1'> +2.6304538e-04 </wgt>
<wgt id='morphing_basis_vector_2'> +1.4183927e-04 </wgt>
<wgt id='morphing_basis_vector_3'> +1.6952974e-04 </wgt>
<wgt id='morphing_basis_vector_4'> +3.8889068e-05 </wgt>
<wgt id='morphing_basis_vector_5'> +4.0643862e-05 </wgt>
</rwgt>
</event>
<event>
 4      1 +3.1894900e-05 3.67746900e+02 7.81860800e-03 9.75678600e-02
        2 -1    0    0  501    0 +0.0000000000e+00 +0.0000000000e+00 +3.9851858395e+02 3.9851858395e+02 0.0000000000e+00 0.0000e+00 -1.0000e+00
       -2 -1    0    0    0  501 -0.0000000000e+00 -0.0000000000e+00 -8.4837823296e+01 8.4837823296e+01 0.0000000000e+00 0.0000e+00 1.0000e+00
      -13  1    1    2    0    0 +7.5471155032e+01 +1.5327649739e+02 +6.7502985969e+01 1.8370147797e+02 0.0000000000e+00 0.0000e+00 1.0000e+00
       13  1    1    2    0    0 -7.5471155032e+01 -1.5327649739e+02 +2.4617777469e+02 2.9965492928e+02 0.0000000000e+00 0.0000e+00 -1.0000e+00
<mgrwt>
<rscale>  0 0.36774692E+03</rscale>
<asrwt>0</asrwt>
<pdfrwt beam="1">  1        2 0.61310550E-01 0.36774692E+03</pdfrwt>
<pdfrwt beam="2">  1       -2 0.13051973E-01 0.36774692E+03</pdfrwt>
<totfact> 0.37530324E+03</totfact>
</mgrwt>
<rwgt>
<wgt id='morphing_basis_vector_1'> +2.0493796e-04 </wgt>
<wgt id='morphing_basis_vector_2'> +1.1374405e-04 </wgt>
<wgt id='morphing_basis_vector_3'> +1.2426912e-04 </wgt>
<wgt id='morphing_basis_vector_4'> +2.4262146e-05 </wgt>
<wgt id='morphing_basis_vector_5'> +1.7445888e-05 </wgt>
</rwgt>
</event>
<event>
 4      1 +3.1894900e-05 4.04739800e+02 7.81860800e-03 9.64254600e-02
        2 -1    0    0  501    0 +0.0000000000e+00 +0.0000000000e+00 +7.4547388232e+01 7.4547388232e+01 0.0000000000e+00 0.0000e+00 -1.0000e+00
       -2 -1    0    0    0  501 -0.0000000000e+00 -0.0000000000e+00 -5.4936294951e+02 5.4936294951e+02 0.0000000000e+00 0.0000e+00 1.0000e+00
      -13  1    1    2    0    0 -3.2064945335e+01 -1.9781796441e+02 -2.8082982431e+02 3.4500072172e+02 0.0000000000e+00 0.0000e+00 1.0000e+00
       13  1    1    2    0    0 +3.2064945335e+01 +1.9781796441e+02 -1.9398573697e+02 2.7890961603e+02 0.0000000000e+00 0.0000e+00 -1.0000e+00
<mgrwt>
<rscale>  0 0.40473978E+03</rscale>
<asrwt>0</asrwt>
<pdfrwt beam="1">  1        2 0.11468828E-01 0.40473978E+03</pdfrwt>
<pdfrwt beam="2">  1       -2 0.84517381E-01 0.40473978E+03</pdfrwt>
<totfact> 0.88128228E+02</totfact>
</mgrwt>
<rwgt>
<wgt id='morphing_basis_vector_1'> +2.6527747e-04 </wgt>
<wgt id='morphing_basis_vector_2'> +1.5469672e-04 </wgt>
<wgt id='morphing_basis_vector_3'> +1.6345576e-04 </wgt>
<wgt id='morphing_basis_vector_4'> +3.8396101e-05 </wgt>
<wgt id='morphing_basis_vector_5'> +3.9880280e-05 </wgt>
</rwgt>
</event>
<event>
 4      1 +3.1894900e-05 3.68542300e+02 7.81860800e-03 9.75418100e-02
        2 -1    0    0  501    0 +0.0000000000e+00 +0.0000000000e+00 +9.6048887007e+02 9.6048887007e+02 0.0000000000e+00 0.0000e+00 -1.0000e+00
       -2 -1    0    0    0  501 -0.0000000000e+00 -0.0000000000e+00 -3.5352680871e+01 3.5352680871e+01 0.0000000000e+00 0.0000e+00 1.0000e+00
      -13  1    1    2    0    0 +1.4086422417e+02 +1.1307673589e+02 +3.6414383872e+02 4.0648470221e+02 0.0000000000e+00 0.0000e+00 1.0000e+00
       13  1    1    2    0    0 -1.4086422417e+02 -1.1307673589e+02 +5.6099235048e+02 5.8935684873e+02 0.0000000000e+00 0.0000e+00 -1.0000e+00
<mgrwt>
<rscale>  0 0.36854230E+03</rscale>
<asrwt>0</asrwt>
<pdfrwt beam="1">  1        2 0.14776750E+00 0.36854230E+03</pdfrwt>
<pdfrwt beam="2">  1       -2 0.54388747E-02 0.36854230E+03</pdfrwt>
<totfact> 0.51042403E+03</totfact>
</mgrwt>
<rwgt>
<wgt id='morphing_basis_vector_1'> +2.0756947e-04 </wgt>
<wgt id='morphing_basis_vector_2'> +1.1895290e-04 </wgt>
<wgt id='morphing_basis_vector_3'> +1.2333484e-04 </wgt>
<wgt id='morphing_basis_vector_4'> +2.4829845e-05 </wgt>
<wgt id='morphing_basis_vector_5'> +1.7911345e-05 </wgt>
</rwgt>
</event>
<event>
 4      1 +3.1894900e-05 3.87209000e+02 7.81860800e-03 9.69498000e-02
        2 -1    0    0  501    0 +0.0000000000e+00 +0.0000000000e+00 +6.8839869709e+01 6.8839869709e+01 0.0000000000e+00 0.0000e+00 -1.0000e+00
       -2 -1    0    0    0  501 -0.0000000000e+00 -0.0000000000e+00 -5.4449132750e+02 5.4449132750e+02 0.0000000000e+00 0.0000e+00 1.0000e+00
      -13  1    1    2    0    0 -5.3463382998e+01 -1.3183496208e+02 -4.4582775976e+02 4.6797562107e+02 0.0000000000e+00 0.0000e+00 1.0000e+00
       13  1    1    2    0    0 +5.3463382998e+01 +1.3183496208e+02 -2.9823698034e+01 1.4535557614e+02 0.0000000000e+00 0.0000e+00 -1.0000e+00
<mgrwt>
<rscale>  0 0.38720905E+03</rscale>
<asrwt>0</asrwt>
<pdfrwt beam="1">  1        2 0.10590749E-01 0.38720905E+03</pdfrwt>
<pdfrwt beam="2">  1       -2 0.83767897E-01 0.38720905E+03</pdfrwt>
<totfact> 0.99350651E+02</totfact>
</mgrwt>
<rwgt>
<wgt id='morphing_basis_vector_1'> +2.3219148e-04 </wgt>
<wgt id='morphing_basis_vector_2'> +1.2536376e-04 </wgt>
<wgt id='morphing_basis_vector_3'> +1.4622424e-04 </wgt>
<wgt id='morphing_basis_vector_4'> +3.0605753e-05 </wgt>
<wgt id='morphing_basis_vector_5'> +2.7666554e-05 </wgt>
</rwgt>
</event>
<event>
 4      1 +3.1894900e-05 3.78436000e+02 7.81860800e-03 9.72234700e-02
        2 -1    0    0  501    0 +0.0000000000e+00 +0.0000000000e+00 +3.4158375217e+02 3.4158375217e+02 0.0000000000e+00 0.0000e+00 -1.0000e+00
       -2 -1    0    0    0  501 -0.0000000000e+00 -0.0000000000e+00 -1.0481603400e+02 1.0481603400e+02 0.0000000000e+00 0.0000e+00 1.0000e+00
      -13  1    1    2    0    0 -6.6327427449e+01 -1.1360945459e+02 -4.2044958411e+01 1.3810942883e+02 0.0000000000e+00 0.0000e+00 1.0000e+00
       13  1    1    2    0    0 +6.6327427449e+01 +1.1360945459e+02 +2.7881267659e+02 3.0829035734e+02 0.0000000000e+00 0.0000e+00 -1.0000e+00
<mgrwt>
<rscale>  0 0.37843601E+03</rscale>
<asrwt>0</asrwt>
<pdfrwt beam="1">  1        2 0.52551346E-01 0.37843601E+03</pdfrwt>
<pdfrwt beam="2">  1       -2 0.16125544E-01 0.37843601E+03</pdfrwt>
<totfact> 0.31818749E+03</totfact>
</mgrwt>
<rwgt>
<wgt id='morphing_basis_vector_1'> +2.1889674e-04 </wgt>
<wgt id='morphing_basis_vector_2'> +1.1806650e-04 </wgt>
<wgt id='morphing_basis_vector_3'> +1.3661041e-04 </wgt>
<wgt id='morphing_basis_vector_4'> +2.7389157e-05 </wgt>
<wgt id='morphing_basis_vector_5'> +2.2658541e-05 </wgt>
</rwgt>
</event>
<event>
 4      1 +3.1894900e-05 3.63547400e+02 7.81860800e-03 9.77066300e-02
        2 -1    0    0  501    0 +0.0000000000e+00 +0.0000000000e+00 +9.3115434012e+02 9.3115434012e+02 0.0000000000e+00 0.0000e+00 -1.0000e+00
       -2 -1    0    0    0  501 -0.0000000000e+00 -0.0000000000e+00 -3.5484632150e+01 3.5484632150e+01 0.0000000000e+00 0.0000e+00 1.0000e+00
      -13  1    1    2    0    0 -1.4136038548e+02 -1.0269057038e+02 +3.1452946099e+02 3.5980118629e+02 0.0000000000e+00 0.0000e+00 1.0000e+00
       13  1    1    2    0    0 +1.4136038548e+02 +1.0269057038e+02 +5.8114024698e+02 6.0683778598e+02 0.0000000000e+00 0.0000e+00 -1.0000e+00
<mgrwt>
<rscale>  0 0.36354735E+03</rscale>
<asrwt>0</asrwt>
<pdfrwt beam="1">  1        2 0.14325450E+00 0.36354735E+03</pdfrwt>
<pdfrwt beam="2">  1       -2 0.54591749E-02 0.36354735E+03</pdfrwt>
<totfact> 0.52905239E+03</totfact>
</mgrwt>
<rwgt>
<wgt id='morphing_basis_vector_1'> +1.9988783e-04 </wgt>
<wgt id='morphing_basis_vector_2'> +1.1270681e-04 </wgt>
<wgt id='morphing_basis_vector_3'> +1.1943282e-04 </wgt>
<wgt id='morphing_basis_vector_4'> +2.3254619e-05 </wgt>
<wgt id='morphing_basis_vector_5'> +1.5636990e-05 </wgt>
</rwgt>
</event>
<event>
 4      1 +3.1894900e-05 4.08567000e+02 7.81860800e-03 9.63147500e-02
        2 -1    0    0  501    0 +0.0000000000e+00 +0.0000000000e+00 +3.0526478567e+02 3.0526478567e+02 0.0000000000e+00 0.0000e+00 -1.0000e+00
       -2 -1    0    0    0  501 -0.0000000000e+00 -0.0000000000e+00 -1.3670672244e+02 1.3670672244e+02 0.0000000000e+00 0.0000e+00 1.0000e+00
      -13  1    1    2    0    0 -1.3667746169e+02 +1.1342045116e+02 -2.4902787589e+01 1.7934624642e+02 0.0000000000e+00 0.0000e+00 1.0000e+00
       13  1    1    2    0    0 +1.3667746169e+02 -1.1342045116e+02 +1.9346085082e+02 2.6262526169e+02 0.0000000000e+00 0.0000e+00 -1.0000e+00
<mgrwt>
<rscale>  0 0.40856700E+03</rscale>
<asrwt>0</asrwt>
<pdfrwt beam="1">  1        2 0.46963813E-01 0.40856700E+03</pdfrwt>
<pdfrwt beam="2">  1       -2 0.21031804E-01 0.40856700E+03</pdfrwt>
<totfact> 0.23402082E+03</totfact>
</mgrwt>
<rwgt>
<wgt id='morphing_basis_vector_1'> +2.6808509e-04 </wgt>
<wgt id='morphing_basis_vector_2'> +1.4662508e-04 </wgt>
<wgt id='morphing_basis_vector_3'> +1.7203215e-04 </wgt>
<wgt id='morphing_basis_vector_4'> +4.0118159e-05 </wgt>
<wgt id='morphing_basis_vector_5'> +4.2596923e-05 </wgt>
</rwgt>
</event>
<event>
 4      1 +3.1894900e-05 3.64011700e+02 7.81860800e-03 9.76911900e-02
        2 -1    0    0  501    0 +0.0000000000e+00 +0.0000000000e+00 +5.5161740065e+01 5.5161740065e+01 0.0000000000e+00 0.0000e+00 -1.0000e+00
       -2 -1    0    0    0  501 -0.0000000000e+00 -0.0000000000e+00 -6.0052739645e+02 6.0052739645e+02 0.0000000000e+00 0.0000e+00 1.0000e+00
      -13  1    1    2    0    0 +1.5934522710e+02 -4.2081845883e+01 -1.3357093187e+02 2.1213905108e+02 0.0000000000e+00 0.0000e+00 -1.0000e+00
       13  1    1    2    0    0 -1.5934522710e+02 +4.2081845883e+01 -4.1179472452e+02 4.4355008544e+02 0.0000000000e+00 0.0000e+00 1.0000e+00
<mgrwt>
<rscale>  0 0.36401174E+03</rscale>
<asrwt>0</asrwt>
<pdfrwt beam="1">  1        2 0.84864220E-02 0.36401174E+03</pdfrwt>
<pdfrwt beam="2">  1       -2 0.92388826E-01 0.36401174E+03</pdfrwt>
<totfact> 0.10519364E+03</totfact>
</mgrwt>
<rwgt>
<wgt id='morphing_basis_vector_1'> +2.2418037e-04 </wgt>
<wgt id='morphing_basis_vector_2'> +1.8426984e-04 </wgt>
<wgt id='morphing_basis_vector_3'> +9.2705238e-05 </wgt>
<wgt id='morphing_basis_vector_4'> +2.9117163e-05 </wgt>
<wgt id='morphing_basis_vector_5'> +1.7375449e-05 </wgt>
</rwgt>
</event>
<event>
 4      1 +3.1894900e-05 3.65854000e+02 7.81860800e-03 9.76301600e-02
        2 -1    0    0  501    0 +0.0000000000e+00 +0.0000000000e+00 +3.2977293535e+02 3.2977293535e+02 0.0000000000e+00 0.0000e+00 1.0000e+00
       -2 -1    0    0    0  501 -0.0000000000e+00 -0.0000000000e+00 -1.0147070338e+02 1.0147070338e+02 0.0000000000e+00 0.0000e+00 -1.0000e+00
      -13  1    1    2    0    0 +5.1575275872e+01 -1.7354676819e+02 +8.3327753847e+01 1.9930379924e+02 0.0000000000e+00 0.0000e+00 -1.0000e+00
       13  1    1    2    0    0 -5.1575275872e+01 +1.7354676819e+02 +1.4497447812e+02 2.3193983948e+02 0.0000000000e+00 0.0000e+00 1.0000e+00
<mgrwt>
<rscale>  0 0.36585402E+03</rscale>
<asrwt>0</asrwt>
<pdfrwt beam="1">  1        2 0.50734297E-01 0.36585402E+03</pdfrwt>
<pdfrwt beam="2">  1       -2 0.15610878E-01 0.36585402E+03</pdfrwt>
<totfact> 0.34814201E+03</totfact>
</mgrwt>
<rwgt>
<wgt id='morphing_basis_vector_1'> +2.0452159e-04 </wgt>
<wgt id='morphing_basis_vector_2'> +1.1892429e-04 </wgt>
<wgt id='morphing_basis_vector_3'> +1.1993915e-04 </wgt>
<wgt id='morphing_basis_vector_4'> +2.4233121e-05 </wgt>
<wgt id='morphing_basis_vector_5'> +1.6737716e-05 </wgt>
</rwgt>
</event>
<event>
 4      1 +3.1894900e-05 4.26265700e+02 7.81860800e-03 9.58190100e-02
        2 -1    0    0  501    0 +0.0000000000e+00 +0.0000000000e+00 +2.4518829998e+02 2.4518829998e+02 0.0000000000e+00 0.0000e+00 -1.0000e+00
       -2 -1    0    0    0  501 -0.0000000000e+00 -0.0000000000e+00 -1.8526827541e+02 1.8526827541e+02 0.0000000000e+00 0.0000e+00 1.0000e+00
      -13  1    1    2    0    0 +8.1268651340e+01 -1.6211650174e+02 -8.3119752858e+01 1.9948746111e+02 0.0000000000e+00 0.0000e+00 1.0000e+00
       13  1    1    2    0    0 -8.1268651340e+01 +1.6211650174e+02 +1.4303977742e+02 2.3096911428e+02 0.0000000000e+00 0.0000e+00 -1.0000e+00
<mgrwt>
<rscale>  0 0.42626571E+03</rscale>
<asrwt>0</asrwt>
<pdfrwt beam="1">  1        2 0.37721277E-01 0.42626571E+03</pdfrwt>
<pdfrwt beam="2">  1       -2 0.28502812E-01 0.42626571E+03</pdfrwt>
<totfact> 0.17897875E+03</totfact>
</mgrwt>
<rwgt>
<wgt id='morphing_basis_vector_1'> +3.0060027e-04 </wgt>
<wgt id='morphing_basis_vector_2'> +1.6434064e-04 </wgt>
<wgt id='morphing_basis_vector_3'> +1.9739849e-04 </wgt>
<wgt id='morphing_basis_vector_4'> +4.9938001e-05 </wgt>
<wgt id='morphing_basis_vector_5'> +5.8120789e-05 </wgt>
</rwgt>
</event>
<event>
 4      1 +3.1894900e-05 3.80692200e+02 7.81860800e-03 9.71523300e-02
        2 -1    0    0  501    0 +0.0000000000e+00 +0.0000000000e+00 +1.6584786204e+02 1.6584786204e+02 0.0000000000e+00 0.0000e+00 -1.0000e+00
       -2 -1    0    0    0  501 -0.0000000000e+00 -0.0000000000e+00 -2.1846314127e+02 2.1846314127e+02 0.0000000000e+00 0.0000e+00 1.0000e+00
      -13  1    1    2    0    0 +2.4857145546e+01 -5.9858180063e+01 -2.0698030713e+02 2.1689104856e+02 0.0000000000e+00 0.0000e+00 1.0000e+00
       13  1    1    2    0    0 -2.4857145546e+01 +5.9858180063e+01 +1.5436502791e+02 1.6741995475e+02 0.0000000000e+00 0.0000e+00 -1.0000e+00
<mgrwt>
<rscale>  0 0.38069224E+03</rscale>
<asrwt>0</asrwt>
<pdfrwt beam="1">  1        2 0.25515056E-01 0.38069224E+03</pdfrwt>
<pdfrwt beam="2">  1       -2 0.33609714E-01 0.38069224E+03</pdfrwt>
<totfact> 0.20895287E+03</totfact>
</mgrwt>
<rwgt>
<wgt id='morphing_basis_vector_1'> +2.2203647e-04 </wgt>
<wgt id='morphing_basis_vector_2'> +1.1925412e-04 </wgt>
<wgt id='morphing_basis_vector_3'> +1.3924545e-04 </wgt>
<wgt id='morphing_basis_vector_4'> +2.8146336e-05 </wgt>
<wgt id='morphing_basis_vector_5'> +2.3874067e-05 </wgt>
</rwgt>
</event>
<event>
 4      1 +3.1894900e-05 4.09949000e+02 7.81860800e-03 9.62750900e-02
        2 -1    0    0  501    0 +0.0000000000e+00 +0.0000000000e+00 +6.8753509096e+01 6.8753509096e+01 0.0000000000e+00 0.0000e+00 1.0000e+00
       -2 -1    0    0    0  501 -0.0000000000e+00 -0.0000000000e+00 -6.1108937309e+02 6.1108937309e+02 0.0000000000e+00 0.0000e+00 -1.0000e+00
      -13  1    1    2    0    0 +9.6799991989e+01 -2.9730722327e+01 -5.6671158340e+02 5.7568756549e+02 0.0000000000e+00 0.0000e+00 -1.0000e+00
       13  1    1    2    0    0 -9.6799991989e+01 +2.9730722327e+01 +2.4375719409e+01 1.0415531669e+02 0.0000000000e+00 0.0000e+00 1.0000e+00
<mgrwt>
<rscale>  0 0.40994897E+03</rscale>
<asrwt>0</asrwt>
<pdfrwt beam="1">  1        2 0.10577463E-01 0.40994897E+03</pdfrwt>
<pdfrwt beam="2">  1       -2 0.94013750E-01 0.40994897E+03</pdfrwt>
<totfact> 0.76366784E+02</totfact>
</mgrwt>
<rwgt>
<wgt id='morphing_basis_vector_1'> +2.6950946e-04 </wgt>
<wgt id='morphing_basis_vector_2'> +1.4487491e-04 </wgt>
<wgt id='morphing_basis_vector_3'> +1.7478980e-04 </wgt>
<wgt id='morphing_basis_vector_4'> +4.0801724e-05 </wgt>
<wgt id='morphing_basis_vector_5'> +4.3636173e-05 </wgt>
</rwgt>
</event>
<event>
 4      1 +3.1894900e-05 3.62216100e+02 7.81860800e-03 9.77510400e-02
        2 -1    0    0  501    0 +0.0000000000e+00 +0.0000000000e+00 +1.1024142981e+03 1.1024142981e+03 0.0000000000e+00 0.0000e+00 1.0000e+00
       -2 -1    0    0    0  501 -0.0000000000e+00 -0.0000000000e+00 -2.9752992251e+01 2.9752992251e+01 0.0000000000e+00 0.0000e+00 -1.0000e+00
      -13  1    1    2    0    0 -1.4704296930e+02 +1.0440967045e+02 +4.8429884269e+02 5.1678659341e+02 0.0000000000e+00 0.0000e+00 -1.0000e+00
       13  1    1    2    0    0 +1.4704296930e+02 -1.0440967045e+02 +5.8836246312e+02 6.1538069690e+02 0.0000000000e+00 0.0000e+00 1.0000e+00
<mgrwt>
<rscale>  0 0.36221609E+03</rscale>
<asrwt>0</asrwt>
<pdfrwt beam="1">  1        2 0.16960217E+00 0.36221609E+03</pdfrwt>
<pdfrwt beam="2">  1       -2 0.45773843E-02 0.36221609E+03</pdfrwt>
<totfact> 0.54414748E+03</totfact>
</mgrwt>
<rwgt>
<wgt id='morphing_basis_vector_1'> +2.0028849e-04 </wgt>
<wgt id='morphing_basis_vector_2'> +1.1832121e-04 </wgt>
<wgt id='morphing_basis_vector_3'> +1.1563904e-04 </wgt>
<wgt id='morphing_basis_vector_4'> +2.3452629e-05 </wgt>
<wgt id='morphing_basis_vector_5'> +1.5217123e-05 </wgt>
</rwgt>
</event>
<event>
 4      1 +3.1894900e-05 3.83218700e+02 7.81860800e-03 9.70733000e-02
        2 -1    0    0  501    0 +0.0000000000e+00 +0.0000000000e+00 +1.8738502282e+02 1.8738502282e+02 0.0000000000e+00 0.0000e+00 1.0000e+00
       -2 -1    0    0    0  501 -0.0000000000e+00 -0.0000000000e+00 -1.9592890199e+02 1.9592890199e+02 0.0000000000e+00 0.0000e+00 -1.0000e+00
      -13  1    1    2    0    0 -1.3766608728e+02 +1.2740486223e+02 +3.4855440539e+01 1.9078483232e+02 0.0000000000e+00 0.0000e+00 -1.0000e+00
       13  1    1    2    0    0 +1.3766608728e+02 -1.2740486223e+02 -4.3399319704e+01 1.9252909250e+02 0.0000000000e+00 0.0000e+00 1.0000e+00
<mgrwt>
<rscale>  0 0.38321869E+03</rscale>
<asrwt>0</asrwt>
<pdfrwt beam="1">  1        2 0.28828465E-01 0.38321869E+03</pdfrwt>
<pdfrwt beam="2">  1       -2 0.30142908E-01 0.38321869E+03</pdfrwt>
<totfact> 0.21985539E+03</totfact>
</mgrwt>
<rwgt>
<wgt id='morphing_basis_vector_1'> +2.4020335e-04 </wgt>
<wgt id='morphing_basis_vector_2'> +1.6495227e-04 </wgt>
<wgt id='morphing_basis_vector_3'> +1.2705245e-04 </wgt>
<wgt id='morphing_basis_vector_4'> +3.1174476e-05 </wgt>
<wgt id='morphing_basis_vector_5'> +2.6248764e-05 </wgt>
</rwgt>
</event>
<event>
 4      1 +3.1894900e-05 3.95485000e+02 7.81860800e-03 9.66986500e-02
        2 -1    0    0  501    0 +0.0000000000e+00 +0.0000000000e+00 +9.7571874171e+02 9.7571874171e+02 0.0000000000e+00 0.0000e+00 -1.0000e+00
       -2 -1    0    0    0  501 -0.0000000000e+00 -0.0000000000e+00 -4.0075176734e+01 4.0075176734e+01 0.0000000000e+00 0.0000e+00 1.0000e+00
      -13  1    1    2    0    0 -1.2784655778e+02 +1.5028500522e+02 +4.3415848401e+02 4.7688983462e+02 0.0000000000e+00 0.0000e+00 1.0000e+00
       13  1    1    2    0    0 +1.2784655778e+02 -1.5028500522e+02 +5.0148508097e+02 5.3890408382e+02 0.0000000000e+00 0.0000e+00 -1.0000e+00
<mgrwt>
<rscale>  0 0.39548502E+03</rscale>
<asrwt>0</asrwt>
<pdfrwt beam="1">  1        2 0.15011056E+00 0.39548502E+03</pdfrwt>
<pdfrwt beam="2">  1       -2 0.61654125E-02 0.39548502E+03</pdfrwt>
<totfact> 0.41381819E+03</totfact>
</mgrwt>
<rwgt>
<wgt id='morphing_basis_vector_1'> +2.5099389e-04 </wgt>
<wgt id='morphing_basis_vector_2'> +1.4978749e-04 </wgt>
<wgt id='morphing_basis_vector_3'> +1.5045618e-04 </wgt>
<wgt id='morphing_basis_vector_4'> +3.4478738e-05 </wgt>
<wgt id='morphing_basis_vector_5'> +3.3336721e-05 </wgt>
</rwgt>
</event>
<event>
 4      1 +3.1894900e-05 3.90335100e+02 7.81860800e-03 9.68541500e-02
        2 -1    0    0  501    0 +0.0000000000e+00 +0.0000000000e+00 +3.6059240638e+02 3.6059240638e+02 0.0000000000e+00 0.0000e+00 -1.0000e+00
       -2 -1    0    0    0  501 -0.0000000000e+00 -0.0000000000e+00 -1.0563276636e+02 1.0563276636e+02 0.0000000000e+00 0.0000e+00 1.0000e+00
      -13  1    1    2    0    0 +2.7217824079e+00 -1.8945016736e+02 +7.1563485496e+01 2.0253421061e+02 0.0000000000e+00 0.0000e+00 1.0000e+00
       13  1    1    2    0    0 -2.7217824079e+00 +1.8945016736e+02 +1.8339615453e+02 2.6369096213e+02 0.0000000000e+00 0.0000e+00 -1.0000e+00
<mgrwt>
<rscale>  0 0.39033510E+03</rscale>
<asrwt>0</asrwt>
<pdfrwt beam="1">  1        2 0.55475754E-01 0.39033510E+03</pdfrwt>
<pdfrwt beam="2">  1       -2 0.16251195E-01 0.39033510E+03</pdfrwt>
<totfact> 0.29617745E+03</totfact>
</mgrwt>
<rwgt>
<wgt id='morphing_basis_vector_1'> +2.3970585e-04 </wgt>
<wgt id='morphing_basis_vector_2'> +1.3601391e-04 </wgt>
<wgt id='morphing_basis_vector_3'> +1.4720198e-04 </wgt>
<wgt id='morphing_basis_vector_4'> +3.2135661e-05 </wgt>
<wgt id='morphing_basis_vector_5'> +2.9773662e-05 </wgt>
</rwgt>
</event>
<event>
 4      1 +3.1894900e-05 3.66708800e+02 7.81860800e-03 9.76019800e-02
        2 -1    0    0  501    0 +0.0000000000e+00 +0.0000000000e+00 +6.8205868710e+02 6.8205868710e+02 0.0000000000e+00 0.0000e+00 1.0000e+00
       -2 -1    0    0    0  501 -0.0000000000e+00 -0.0000000000e+00 -4.9290248267e+01 4.9290248267e+01 0.0000000000e+00 0.0000e+00 -1.0000e+00
      -13  1    1    2    0    0 -1.6619499810e+02 +2.3151462464e+01 +1.6898945108e+02 2.3814743791e+02 0.0000000000e+00 0.0000e+00 -1.0000e+00
       13  1    1    2    0    0 +1.6619499810e+02 -2.3151462464e+01 +4.6377898775e+02 4.9320149745e+02 0.0000000000e+00 0.0000e+00 1.0000e+00
<mgrwt>
<rscale>  0 0.36670883E+03</rscale>
<asrwt>0</asrwt>
<pdfrwt beam="1">  1        2 0.10493210E+00 0.36670883E+03</pdfrwt>
<pdfrwt beam="2">  1       -2 0.75831156E-02 0.36670883E+03</pdfrwt>
<totfact> 0.47433560E+03</totfact>
</mgrwt>
<rwgt>
<wgt id='morphing_basis_vector_1'> +2.0330404e-04 </wgt>
<wgt id='morphing_basis_vector_2'> +1.1235915e-04 </wgt>
<wgt id='morphing_basis_vector_3'> +1.2348519e-04 </wgt>
<wgt id='morphing_basis_vector_4'> +2.3918007e-05 </wgt>
<wgt id='morphing_basis_vector_5'> +1.6962809e-05 </wgt>
</rwgt>
</event>
<event>
 4      1 +3.1894900e-05 4.14019200e+02 7.81860800e-03 9.61592400e-02
        2 -1    0    0  501    0 +0.0000000000e+00 +0.0000000000e+00 +1.0115824877e+03 1.0115824877e+03 0.0000000000e+00 0.0000e+00 -1.0000e+00
       -2 -1    0    0    0  501 -0.0000000000e+00 -0.0000000000e+00 -4.2362313877e+01 4.2362313877e+01 0.0000000000e+00 0.0000e+00 1.0000e+00
      -13  1    1    2    0    0 +1.4871896749e+02 -1.0704353427e+01 +1.1905495991e+02 1.9080355855e+02 0.0000000000e+00 0.0000e+00 1.0000e+00
       13  1    1    2    0    0 -1.4871896749e+02 +1.0704353427e+01 +8.5016521389e+02 8.6314124301e+02 0.0000000000e+00 0.0000e+00 -1.0000e+00
<mgrwt>
<rscale>  0 0.41401920E+03</rscale>
<asrwt>0</asrwt>
<pdfrwt beam="1">  1        2 0.15562806E+00 0.41401920E+03</pdfrwt>
<pdfrwt beam="2">  1       -2 0.65172799E-02 0.41401920E+03</pdfrwt>
<totfact> 0.36198019E+03</totfact>
</mgrwt>
<rwgt>
<wgt id='morphing_basis_vector_1'> +2.7703534e-04 </wgt>
<wgt id='morphing_basis_vector_2'> +1.4965405e-04 </wgt>
<wgt id='morphing_basis_vector_3'> +1.8013925e-04 </wgt>
<wgt id='morphing_basis_vector_4'> +4.2941787e-05 </wgt>
<wgt id='morphing_basis_vector_5'> +4.7008474e-05 </wgt>
</rwgt>
</event>
<event>
 4      1 +3.1894900e-05 3.74346400e+02 7.81860800e-03 9.73537700e-02
        2 -1    0    0  501    0 +0.0000000000e+00 +0.0000000000e+00 +6.4133141856e+02 6.4133141856e+02 0.0000000000e+00 0.0000e+00 1.0000e+00
       -2 -1    0    0    0  501 -0.0000000000e+00 -0.0000000000e+00 -5.4626673105e+01 5.4626673105e+01 0.0000000000e+00 0.0000e+00 -1.0000e+00
      -13  1    1    2    0    0 +9.7430778447e+01 +1.1757656332e+01 -2.9603344367e+00 9.8182292961e+01 0.0000000000e+00 0.0000e+00 -1.0000e+00
       13  1    1    2    0    0 -9.7430778447e+01 -1.1757656332e+01 +5.8966507990e+02 5.9777579871e+02 0.0000000000e+00 0.0000e+00 1.0000e+00
<mgrwt>
<rscale>  0 0.37434637E+03</rscale>
<asrwt>0</asrwt>
<pdfrwt beam="1">  1        2 0.98666367E-01 0.37434637E+03</pdfrwt>
<pdfrwt beam="2">  1       -2 0.84041040E-02 0.37434637E+03</pdfrwt>
<totfact> 0.43585090E+03</totfact>
</mgrwt>
<rwgt>
<wgt id='morphing_basis_vector_1'> +2.1282339e-04 </wgt>
<wgt id='morphing_basis_vector_2'> +1.1448028e-04 </wgt>
<wgt id='morphing_basis_vector_3'> +1.3246958e-04 </wgt>
<wgt id='morphing_basis_vector_4'> +2.5995836e-05 </wgt>
<wgt id='morphing_basis_vector_5'> +2.0522550e-05 </wgt>
</rwgt>
</event>
<event>
 4      1 +3.1894900e-05 3.99682600e+02 7.81860800e-03 9.65737700e-02
        2 -1    0    0  501    0 +0.0000000000e+00 +0.0000000000e+00 +1.0033876501e+02 1.0033876501e+02 0.0000000000e+00 0.0000e+00 -1.0000e+00
       -2 -1    0    0    0  501 -0.0000000000e+00 -0.0000000000e+00 -3.9801715524e+02 3.9801715524e+02 0.0000000000e+00 0.0000e+00 1.0000e+00
      -13  1    1    2    0    0 -1.3192612957e+02 -1.3027601771e+02 -2.4181496233e+02 3.0471432599e+02 0.0000000000e+00 0.0000e+00 1.0000e+00
       13  1    1    2    0    0 +1.3192612957e+02 +1.3027601771e+02 -5.5863427891e+01 1.9364159427e+02 0.0000000000e+00 0.0000e+00 -1.0000e+00
<mgrwt>
<rscale>  0 0.39968262E+03</rscale>
<asrwt>0</asrwt>
<pdfrwt beam="1">  1        2 0.15436733E-01 0.39968262E+03</pdfrwt>
<pdfrwt beam="2">  1       -2 0.61233408E-01 0.39968262E+03</pdfrwt>
<totfact> 0.12183583E+03</totfact>
</mgrwt>
<rwgt>
<wgt id='morphing_basis_vector_1'> +2.5365948e-04 </wgt>
<wgt id='morphing_basis_vector_2'> +1.4061523e-04 </wgt>
<wgt id='morphing_basis_vector_3'> +1.5978487e-04 </wgt>
<wgt id='morphing_basis_vector_4'> +3.5941893e-05 </wgt>
<wgt id='morphing_basis_vector_5'> +3.5968285e-05 </wgt>
</rwgt>
</event>
<event>
 4      1 +3.1894900e-05 3.79975100e+02 7.81860800e-03 9.71748800e-02
        2 -1    0    0  501    0 +0.0000000000e+00 +0.0000000000e+00 +3.5583985622e+02 3.5583985622e+02 0.0000000000e+00 0.0000e+00 -1.0000e+00
       -2 -1    0    0    0  501 -0.0000000000e+00 -0.0000000000e+00 -1.0143686095e+02 1.0143686095e+02 0.0000000000e+00 0.0000e+00 1.0000e+00
      -13  1    1    2    0    0 +1.2522500686e+02 -1.1192859089e+02 +2.0332593998e+01 1.6918252327e+02 0.0000000000e+00 0.0000e+00 1.0000e+00
       13  1    1    2    0    0 -1.2522500686e+02 +1.1192859089e+02 +2.3407040128e+02 2.8809419390e+02 0.0000000000e+00 0.0000e+00 -1.0000e+00
<mgrwt>
<rscale>  0 0.37997515E+03</rscale>
<asrwt>0</asrwt>
<pdfrwt beam="1">  1        2 0.54744593E-01 0.37997515E+03</pdfrwt>
<pdfrwt beam="2">  1       -2 0.15605671E-01 0.37997515E+03</pdfrwt>
<totfact> 0.32055849E+03</totfact>
</mgrwt>
<rwgt>
<wgt id='morphing_basis_vector_1'> +2.2193845e-04 </wgt>
<wgt id='morphing_basis_vector_2'> +1.2161798e-04 </wgt>
<wgt id='morphing_basis_vector_3'> +1.3744597e-04 </wgt>
<wgt id='morphing_basis_vector_4'> +2.8050095e-05 </wgt>
<wgt id='morphing_basis_vector_5'> +2.3543297e-05 </wgt>
</rwgt>
</event>
<event>
 4      1 +3.1894900e-05 3.73154800e+02 7.81860800e-03 9.73920800e-02
        2 -1    0    0  501    0 +0.0000000000e+00 +0.0000000000e+00 +1.1372109134e+03 1.1372109134e+03 0.0000000000e+00 0.0000e+00 1.0000e+00
       -2 -1    0    0    0  501 -0.0000000000e+00 -0.0000000000e+00 -3.0610966760e+01 3.0610966760e+01 0.0000000000e+00 0.0000e+00 -1.0000e+00
      -13  1    1    2    0    0 -3.1118750344e+01 +1.5908302501e+02 +8.4243319324e+02 8.5788663035e+02 0.0000000000e+00 0.0000e+00 1.0000e+00
       13  1    1    2    0    0 +3.1118750344e+01 -1.5908302501e+02 +2.6416675338e+02 3.0993524978e+02 0.0000000000e+00 0.0000e+00 -1.0000e+00
<mgrwt>
<rscale>  0 0.37315480E+03</rscale>
<asrwt>0</asrwt>
<pdfrwt beam="1">  1        2 0.17495549E+00 0.37315480E+03</pdfrwt>
<pdfrwt beam="2">  1       -2 0.47093804E-02 0.37315480E+03</pdfrwt>
<totfact> 0.49819637E+03</totfact>
</mgrwt>
<rwgt>
<wgt id='morphing_basis_vector_1'> +2.4510913e-04 </wgt>
<wgt id='morphing_basis_vector_2'> +2.1634188e-04 </wgt>
<wgt id='morphing_basis_vector_3'> +9.3958091e-05 </wgt>
<wgt id='morphing_basis_vector_4'> +3.2310412e-05 </wgt>
<wgt id='morphing_basis_vector_5'> +2.2166917e-05 </wgt>
</rwgt>
</event>
<event>
 4      1 +3.1894900e-05 4.04923700e+02 7.81860800e-03 9.64201100e-02
        2 -1    0    0  501    0 +0.0000000000e+00 +0.0000000000e+00 +8.3609982799e+02 8.3609982799e+02 0.0000000000e+00 0.0000e+00 -1.0000e+00
       -2 -1    0    0    0  501 -0.0000000000e+00 -0.0000000000e+00 -4.9026206240e+01 4.9026206240e+01 0.0000000000e+00 0.0000e+00 1.0000e+00
      -13  1    1    2    0    0 +5.8277572582e+01 +1.5814469120e+02 +6.3875618940e+02 6.6061750531e+02 0.0000000000e+00 0.0000e+00 -1.0000e+00
       13  1    1    2    0    0 -5.8277572582e+01 -1.5814469120e+02 +1.4831743235e+02 2.2450852893e+02 0.0000000000e+00 0.0000e+00 1.0000e+00
<mgrwt>
<rscale>  0 0.40492371E+03</rscale>
<asrwt>0</asrwt>
<pdfrwt beam="1">  1        2 0.12863073E+00 0.40492371E+03</pdfrwt>
<pdfrwt beam="2">  1       -2 0.75424939E-02 0.40492371E+03</pdfrwt>
<totfact> 0.37333270E+03</totfact>
</mgrwt>
<rwgt>
<wgt id='morphing_basis_vector_1'> +3.1091987e-04 </wgt>
<wgt id='morphing_basis_vector_2'> +2.9361284e-04 </wgt>
<wgt id='morphing_basis_vector_3'> +1.2209080e-04 </wgt>
<wgt id='morphing_basis_vector_4'> +4.0253851e-05 </wgt>
<wgt id='morphing_basis_vector_5'> +4.2955349e-05 </wgt>
</rwgt>
</event>
<event>
 4      1 +3.1894900e-05 3.80109700e+02 7.81860800e-03 9.71706500e-02
        2 -1    0    0  501    0 +0.0000000000e+00 +0.0000000000e+00 +1.2791998919e+03 1.2791998919e+03 0.0000000000e+00 0.0000e+00 1.0000e+00
       -2 -1    0    0    0  501 -0.0000000000e+00 -0.0000000000e+00 -2.8237058548e+01 2.8237058548e+01 0.0000000000e+00 0.0000e+00 -1.0000e+00
      -13  1    1    2    0    0 +1.6800513002e+02 +5.1608153598e+01 +3.7669082835e+02 4.1567427800e+02 0.0000000000e+00 0.0000e+00 -1.0000e+00
       13  1    1    2    0    0 -1.6800513002e+02 -5.1608153598e+01 +8.7427200503e+02 8.9176267247e+02 0.0000000000e+00 0.0000e+00 1.0000e+00
<mgrwt>
<rscale>  0 0.38010968E+03</rscale>
<asrwt>0</asrwt>
<pdfrwt beam="1">  1        2 0.19679994E+00 0.38010968E+03</pdfrwt>
<pdfrwt beam="2">  1       -2 0.43441639E-02 0.38010968E+03</pdfrwt>
<totfact> 0.46777124E+03</totfact>
</mgrwt>
<rwgt>
<wgt id='morphing_basis_vector_1'> +2.2264299e-04 </wgt>
<wgt id='morphing_basis_vector_2'> +1.2325676e-04 </wgt>
<wgt id='morphing_basis_vector_3'> +1.3705751e-04 </wgt>
<wgt id='morphing_basis_vector_4'> +2.8178959e-05 </wgt>
<wgt id='morphing_basis_vector_5'> +2.3650472e-05 </wgt>
</rwgt>
</event>
<event>
 4      1 +3.1894900e-05 3.60340300e+02 7.81860800e-03 9.78139700e-02
        2 -1    0    0  501    0 +0.0000000000e+00 +0.0000000000e+00 +1.9902589047e+02 1.9902589047e+02 0.0000000000e+00 0.0000e+00 -1.0000e+00
       -2 -1    0    0    0  501 -0.0000000000e+00 -0.0000000000e+00 -1.6310077472e+02 1.6310077472e+02 0.0000000000e+00 0.0000e+00 1.0000e+00
      -13  1    1    2    0    0 -9.3969705467e+01 -1.5120723146e+02 +4.5800870798e+01 1.8382505856e+02 0.0000000000e+00 0.0000e+00 1.0000e+00
       13  1    1    2    0    0 +9.3969705467e+01 +1.5120723146e+02 -9.8757550518e+00 1.7830160663e+02 0.0000000000e+00 0.0000e+00 -1.0000e+00
<mgrwt>
<rscale>  0 0.36034027E+03</rscale>
<asrwt>0</asrwt>
<pdfrwt beam="1">  1        2 0.30619368E-01 0.36034027E+03</pdfrwt>
<pdfrwt beam="2">  1       -2 0.25092427E-01 0.36034027E+03</pdfrwt>
<totfact> 0.28069447E+03</totfact>
</mgrwt>
<rwgt>
<wgt id='morphing_basis_vector_1'> +2.0375657e-04 </wgt>
<wgt id='morphing_basis_vector_2'> +1.3487749e-04 </wgt>
<wgt id='morphing_basis_vector_3'> +1.0689808e-04 </wgt>
<wgt id='morphing_basis_vector_4'> +2.4543523e-05 </wgt>
<wgt id='morphing_basis_vector_5'> +1.4830655e-05 </wgt>
</rwgt>
</event>
<event>
 4      1 +3.1894900e-05 3.77285600e+02 7.81860800e-03 9.72599400e-02
        2 -1    0    0  501    0 +0.0000000000e+00 +0.0000000000e+00 +4.8433679284e+02 4.8433679284e+02 0.0000000000e+00 0.0000e+00 -1.0000e+00
       -2 -1    0    0    0  501 -0.0000000000e+00 -0.0000000000e+00 -7.3473884371e+01 7.3473884371e+01 0.0000000000e+00 0.0000e+00 1.0000e+00
      -13  1    1    2    0    0 -1.2429098853e+02 +1.4455228737e+01 -3.2857662231e+00 1.2517188074e+02 0.0000000000e+00 0.0000e+00 1.0000e+00
       13  1    1    2    0    0 +1.2429098853e+02 -1.4455228737e+01 +4.1414867469e+02 4.3263879647e+02 0.0000000000e+00 0.0000e+00 -1.0000e+00
<mgrwt>
<rscale>  0 0.37728560E+03</rscale>
<asrwt>0</asrwt>
<pdfrwt beam="1">  1        2 0.74513350E-01 0.37728560E+03</pdfrwt>
<pdfrwt beam="2">  1       -2 0.11303675E-01 0.37728560E+03</pdfrwt>
<totfact> 0.37911138E+03</totfact>
</mgrwt>
<rwgt>
<wgt id='morphing_basis_vector_1'> +2.1717027e-04 </wgt>
<wgt id='morphing_basis_vector_2'> +1.1703848e-04 </wgt>
<wgt id='morphing_basis_vector_3'> +1.3543458e-04 </wgt>
<wgt id='morphing_basis_vector_4'> +2.6989100e-05 </wgt>
<wgt id='morphing_basis_vector_5'> +2.2044522e-05 </wgt>
</rwgt>
</event>
<event>
 4      1 +3.1894900e-05 3.89911300e+02 7.81860800e-03 9.68670600e-02
        2 -1    0    0  501    0 +0.0000000000e+00 +0.0000000000e+00 +9.7953121819e+02 9.7953121819e+02 0.0000000000e+00 0.0000e+00 1.0000e+00
       -2 -1    0    0    0  501 -0.0000000000e+00 -0.0000000000e+00 -3.8801926235e+01 3.8801926235e+01 0.0000000000e+00 0.0000e+00 -1.0000e+00
      -13  1    1    2    0    0 -1.7684951724e+02 -5.6871291719e+01 +3.1590703071e+02 3.6647966877e+02 0.0000000000e+00 0.0000e+00 -1.0000e+00
       13  1    1    2    0    0 +1.7684951724e+02 +5.6871291719e+01 +6.2482226124e+02 6.5185347565e+02 0.0000000000e+00 0.0000e+00 1.0000e+00
<mgrwt>
<rscale>  0 0.38991126E+03</rscale>
<asrwt>0</asrwt>
<pdfrwt beam="1">  1        2 0.15069709E+00 0.38991126E+03</pdfrwt>
<pdfrwt beam="2">  1       -2 0.59695279E-02 0.38991126E+03</pdfrwt>
<totfact> 0.43216322E+03</totfact>
</mgrwt>
<rwgt>
<wgt id='morphing_basis_vector_1'> +2.3834858e-04 </wgt>
<wgt id='morphing_basis_vector_2'> +1.3355094e-04 </wgt>
<wgt id='morphing_basis_vector_3'> +1.4739302e-04 </wgt>
<wgt id='morphing_basis_vector_4'> +3.1892205e-05 </wgt>
<wgt id='morphing_basis_vector_5'> +2.9461277e-05 </wgt>
</rwgt>
</event>
<event>
 4      1 +3.1894900e-05 3.75687800e+02 7.81860800e-03 9.73108400e-02
        2 -1    0    0  501    0 +0.0000000000e+00 +0.0000000000e+00 +1.4954824258e+02 1.4954824258e+02 0.0000000000e+00 0.0000e+00 -1.0000e+00
       -2 -1    0    0    0  501 -0.0000000000e+00 -0.0000000000e+00 -2.3594614005e+02 2.3594614005e+02 0.0000000000e+00 0.0000e+00 1.0000e+00
      -13  1    1    2    0    0 +2.5497473255e+01 +1.5210520404e+02 -1.5323248876e+02 2.1740816418e+02 0.0000000000e+00 0.0000e+00 1.0000e+00
       13  1    1    2    0    0 -2.5497473255e+01 -1.5210520404e+02 +6.6834591290e+01 1.6808621845e+02 0.0000000000e+00 0.0000e+00 -1.0000e+00
<mgrwt>
<rscale>  0 0.37568780E+03</rscale>
<asrwt>0</asrwt>
<pdfrwt beam="1">  1        2 0.23007422E-01 0.37568780E+03</pdfrwt>
<pdfrwt beam="2">  1       -2 0.36299406E-01 0.37568780E+03</pdfrwt>
<totfact> 0.20530221E+03</totfact>
</mgrwt>
<rwgt>
<wgt id='morphing_basis_vector_1'> +2.1523995e-04 </wgt>
<wgt id='morphing_basis_vector_2'> +1.1698006e-04 </wgt>
<wgt id='morphing_basis_vector_3'> +1.3333496e-04 </wgt>
<wgt id='morphing_basis_vector_4'> +2.6525937e-05 </wgt>
<wgt id='morphing_basis_vector_5'> +2.1238192e-05 </wgt>
</rwgt>
</event>
<event>
 4      1 +3.1894900e-05 4.02587800e+02 7.81860800e-03 9.64882800e-02
        2 -1    0    0  501    0 +0.0000000000e+00 +0.0000000000e+00 +3.6659784285e+02 3.6659784285e+02 0.0000000000e+00 0.0000e+00 1.0000e+00
       -2 -1    0    0    0  501 -0.0000000000e+00 -0.0000000000e+00 -1.1052773243e+02 1.1052773243e+02 0.0000000000e+00 0.0000e+00 -1.0000e+00
      -13  1    1    2    0    0 -4.3552746446e+00 +8.7151522238e+01 -8.6947005443e+01 1.2318335115e+02 0.0000000000e+00 0.0000e+00 -1.0000e+00
       13  1    1    2    0    0 +4.3552746446e+00 -8.7151522238e+01 +3.4301711586e+02 3.5394222413e+02 0.0000000000e+00 0.0000e+00 1.0000e+00
<mgrwt>
<rscale>  0 0.40258777E+03</rscale>
<asrwt>0</asrwt>
<pdfrwt beam="1">  1        2 0.56399668E-01 0.40258777E+03</pdfrwt>
<pdfrwt beam="2">  1       -2 0.17004267E-01 0.40258777E+03</pdfrwt>
<totfact> 0.27048093E+03</totfact>
</mgrwt>
<rwgt>
<wgt id='morphing_basis_vector_1'> +2.5678276e-04 </wgt>
<wgt id='morphing_basis_vector_2'> +1.3791426e-04 </wgt>
<wgt id='morphing_basis_vector_3'> +1.6512088e-04 </wgt>
<wgt id='morphing_basis_vector_4'> +3.7174587e-05 </wgt>
<wgt id='morphing_basis_vector_5'> +3.7959027e-05 </wgt>
</rwgt>
</event>
<event>
 4      1 +3.1894900e-05 3.78168800e+02 7.81860800e-03 9.72319300e-02
        2 -1    0    0  501    0 +0.0000000000e+00 +0.0000000000e+00 +3.0783568214e+02 3.0783568214e+02 0.0000000000e+00 0.0000e+00 -1.0000e+00
       -2 -1    0    0    0  501 -0.0000000000e+00 -0.0000000000e+00 -1.1614286683e+02 1.1614286683e+02 0.0000000000e+00 0.0000e+00 1.0000e+00
      -13  1    1    2    0    0 +3.2383327888e+01 +5.5801056828e+01 -1.0342099311e+02 1.2189478941e+02 0.0000000000e+00 0.0000e+00 1.0000e+00
       13  1    1    2    0    0 -3.2383327888e+01 -5.5801056828e+01 +2.9511380842e+02 3.0208375956e+02 0.0000000000e+00 0.0000e+00 -1.0000e+00
<mgrwt>
<rscale>  0 0.37816884E+03</rscale>
<asrwt>0</asrwt>
<pdfrwt beam="1">  1        2 0.47359335E-01 0.37816884E+03</pdfrwt>
<pdfrwt beam="2">  1       -2 0.17868134E-01 0.37816884E+03</pdfrwt>
<totfact> 0.30242200E+03</totfact>
</mgrwt>
<rwgt>
<wgt id='morphing_basis_vector_1'> +2.1831518e-04 </wgt>
<wgt id='morphing_basis_vector_2'> +1.1728287e-04 </wgt>
<wgt id='morphing_basis_vector_3'> +1.3652827e-04 </wgt>
<wgt id='morphing_basis_vector_4'> +2.7264812e-05 </wgt>
<wgt id='morphing_basis_vector_5'> +2.2503157e-05 </wgt>
</rwgt>
</event>
<event>
 4      1 +3.1894900e-05 3.75046100e+02 7.81860800e-03 9.73313500e-02
        2 -1    0    0  501    0 +0.0000000000e+00 +0.0000000000e+00 +1.8054929765e+02 1.8054929765e+02 0.0000000000e+00 0.0000e+00 -1.0000e+00
       -2 -1    0    0    0  501 -0.0000000000e+00 -0.0000000000e+00 -1.9476617447e+02 1.9476617447e+02 0.0000000000e+00 0.0000e+00 1.0000e+00
      -13  1    1    2    0    0 +1.3344797150e+02 +1.3166997210e+02 -2.6833447717e+00 1.8749011438e+02 0.0000000000e+00 0.0000e+00 1.0000e+00
       13  1    1    2    0    0 -1.3344797150e+02 -1.3166997210e+02 -1.1533532048e+01 1.8782535775e+02 0.0000000000e+00 0.0000e+00 -1.0000e+00
<mgrwt>
<rscale>  0 0.37504611E+03</rscale>
<asrwt>0</asrwt>
<pdfrwt beam="1">  1        2 0.27776815E-01 0.37504611E+03</pdfrwt>
<pdfrwt beam="2">  1       -2 0.29964027E-01 0.37504611E+03</pdfrwt>
<totfact> 0.23170520E+03</totfact>
</mgrwt>
<rwgt>
<wgt id='morphing_basis_vector_1'> +2.2094659e-04 </wgt>
<wgt id='morphing_basis_vector_2'> +1.3655756e-04 </wgt>
<wgt id='morphing_basis_vector_3'> +1.2545999e-04 </wgt>
<wgt id='morphing_basis_vector_4'> +2.7560445e-05 </wgt>
<wgt id='morphing_basis_vector_5'> +2.1347301e-05 </wgt>
</rwgt>
</event>
<event>
 4      1 +3.1894900e-05 3.82504900e+02 7.81860800e-03 9.70955600e-02
        2 -1    0    0  501    0 +0.0000000000e+00 +0.0000000000e+00 +3.3065934952e+02 3.3065934952e+02 0.0000000000e+00 0.0000e+00 1.0000e+00
       -2 -1    0    0    0  501 -0.0000000000e+00 -0.0000000000e+00 -1.1061988221e+02 1.1061988221e+02 0.0000000000e+00 0.0000e+00 -1.0000e+00
      -13  1    1    2    0    0 -1.0464584495e+02 -7.8788201822e+01 -5.0745362924e+01 1.4047571131e+02 0.0000000000e+00 0.0000e+00 -1.0000e+00
       13  1    1    2    0    0 +1.0464584495e+02 +7.8788201822e+01 +2.7078483023e+02 3.0080352042e+02 0.0000000000e+00 0.0000e+00 1.0000e+00
<mgrwt>
<rscale>  0 0.38250489E+03</rscale>
<asrwt>0</asrwt>
<pdfrwt beam="1">  1        2 0.50870669E-01 0.38250489E+03</pdfrwt>
<pdfrwt beam="2">  1       -2 0.17018444E-01 0.38250489E+03</pdfrwt>
<totfact> 0.30247271E+03</totfact>
</mgrwt>
<rwgt>
<wgt id='morphing_basis_vector_1'> +2.2492457e-04 </wgt>
<wgt id='morphing_basis_vector_2'> +1.2123846e-04 </wgt>
<wgt id='morphing_basis_vector_3'> +1.4104203e-04 </wgt>
<wgt id='morphing_basis_vector_4'> +2.8826102e-05 </wgt>
<wgt id='morphing_basis_vector_5'> +2.4901595e-05 </wgt>
</rwgt>
</event>
<event>
 4      1 +3.1894900e-05 3.66918100e+02 7.81860800e-03 9.75950900e-02
        2 -1    0    0  501    0 +0.0000000000e+00 +0.0000000000e+00 +5.8990520380e+02 5.8990520380e+02 0.0000000000e+00 0.0000e+00 -1.0000e+00
       -2 -1    0    0    0  501 -0.0000000000e+00 -0.0000000000e+00 -5.7055316516e+01 5.7055316516e+01 0.0000000000e+00 0.0000e+00 1.0000e+00
      -13  1    1    2    0    0 -1.4277766270e+02 -4.6198889363e+01 +8.0344342705e+01 1.7022047981e+02 0.0000000000e+00 0.0000e+00 1.0000e+00
       13  1    1    2    0    0 +1.4277766270e+02 +4.6198889363e+01 +4.5250554458e+02 4.7674004050e+02 0.0000000000e+00 0.0000e+00 -1.0000e+00
<mgrwt>
<rscale>  0 0.36691813E+03</rscale>
<asrwt>0</asrwt>
<pdfrwt beam="1">  1        2 0.90754643E-01 0.36691813E+03</pdfrwt>
<pdfrwt beam="2">  1       -2 0.87777414E-02 0.36691813E+03</pdfrwt>
<totfact> 0.44880854E+03</totfact>
</mgrwt>
<rwgt>
<wgt id='morphing_basis_vector_1'> +2.0287644e-04 </wgt>
<wgt id='morphing_basis_vector_2'> +1.1035819e-04 </wgt>
<wgt id='morphing_basis_vector_3'> +1.2449845e-04 </wgt>
<wgt id='morphing_basis_vector_4'> +2.3814687e-05 </wgt>
<wgt id='morphing_basis_vector_5'> +1.7010121e-05 </wgt>
</rwgt>
</event>
<event>
 4      1 +3.1894900e-05 3.76315100e+02 7.81860800e-03 9.72908300e-02
        2 -1    0    0  501    0 +0.0000000000e+00 +0.0000000000e+00 +8.2232665516e+02 8.2232665516e+02 0.0000000000e+00 0.0000e+00 1.0000e+00
       -2 -1    0    0    0  501 -0.0000000000e+00 -0.0000000000e+00 -4.3052548943e+01 4.3052548943e+01 0.0000000000e+00 0.0000e+00 -1.0000e+00
      -13  1    1    2    0    0 -1.3299071429e+02 -7.7665643551e+01 +6.3821639929e+02 6.5653534147e+02 0.0000000000e+00 0.0000e+00 1.0000e+00
       13  1    1    2    0    0 +1.3299071429e+02 +7.7665643551e+01 +1.4105770692e+02 2.0884386263e+02 0.0000000000e+00 0.0000e+00 -1.0000e+00
<mgrwt>
<rscale>  0 0.37631507E+03</rscale>
<asrwt>0</asrwt>
<pdfrwt beam="1">  1        2 0.12651178E+00 0.37631507E+03</pdfrwt>
<pdfrwt beam="2">  1       -2 0.66234697E-02 0.37631507E+03</pdfrwt>
<totfact> 0.46422934E+03</totfact>
</mgrwt>
<rwgt>
<wgt id='morphing_basis_vector_1'> +2.5892351e-04 </wgt>
<wgt id='morphing_basis_vector_2'> +2.4699480e-04 </wgt>
<wgt id='morphing_basis_vector_3'> +8.7822498e-05 </wgt>
<wgt id='morphing_basis_vector_4'> +3.4491145e-05 </wgt>
<wgt id='morphing_basis_vector_5'> +2.4388629e-05 </wgt>
</rwgt>
</event>
<event>
 4      1 +3.1894900e-05 3.94111000e+02 7.81860800e-03 9.67398900e-02
        2 -1    0    0  501    0 +0.0000000000e+00 +0.0000000000e+00 +5.0016357808e+02 5.0016357808e+02 0.0000000000e+00 0.0000e+00 1.0000e+00
       -2 -1    0    0    0  501 -0.0000000000e+00 -0.0000000000e+00 -7.7636357486e+01 7.7636357486e+01 0.0000000000e+00 0.0000e+00 -1.0000e+00
      -13  1    1    2    0    0 -1.9528200516e+02 +5.7666132055e+00 +1.7352616730e+02 2.6130374300e+02 0.0000000000e+00 0.0000e+00 -1.0000e+00
       13  1    1    2    0    0 +1.9528200516e+02 -5.7666132055e+00 +2.4900105329e+02 3.1649619256e+02 0.0000000000e+00 0.0000e+00 1.0000e+00
<mgrwt>
<rscale>  0 0.39411104E+03</rscale>
<asrwt>0</asrwt>
<pdfrwt beam="1">  1        2 0.76948241E-01 0.39411104E+03</pdfrwt>
<pdfrwt beam="2">  1       -2 0.11944055E-01 0.39411104E+03</pdfrwt>
<totfact> 0.33581836E+03</totfact>
</mgrwt>
<rwgt>
<wgt id='morphing_basis_vector_1'> +2.4742964e-04 </wgt>
<wgt id='morphing_basis_vector_2'> +1.4448310e-04 </wgt>
<wgt id='morphing_basis_vector_3'> +1.5006460e-04 </wgt>
<wgt id='morphing_basis_vector_4'> +3.3806056e-05 </wgt>
<wgt id='morphing_basis_vector_5'> +3.2329556e-05 </wgt>
</rwgt>
</event>
<event>
 4      1 +3.1894900e-05 3.74401500e+02 7.81860800e-03 9.73520100e-02
        2 -1    0    0  501    0 +0.0000000000e+00 +0.0000000000e+00 +1.7034029128e+02 1.7034029128e+02 0.0000000000e+00 0.0000e+00 -1.0000e+00
       -2 -1    0    0    0  501 -0.0000000000e+00 -0.0000000000e+00 -2.0573003509e+02 2.0573003509e+02 0.0000000000e+00 0.0000e+00 1.0000e+00
      -13  1    1    2    0    0 -5.8543236427e+01 +1.4302447950e+02 -1.2381047020e+02 1.9802107160e+02 0.0000000000e+00 0.0000e+00 1.0000e+00
       13  1    1    2    0    0 +5.8543236427e+01 -1.4302447950e+02 +8.8420726391e+01 1.7804925477e+02 0.0000000000e+00 0.0000e+00 -1.0000e+00
<mgrwt>
<rscale>  0 0.37440146E+03</rscale>
<asrwt>0</asrwt>
<pdfrwt beam="1">  1        2 0.26206199E-01 0.37440146E+03</pdfrwt>
<pdfrwt beam="2">  1       -2 0.31650775E-01 0.37440146E+03</pdfrwt>
<totfact> 0.22514817E+03</totfact>
</mgrwt>
<rwgt>
<wgt id='morphing_basis_vector_1'> +2.1340780e-04 </wgt>
<wgt id='morphing_basis_vector_2'> +1.1605150e-04 </wgt>
<wgt id='morphing_basis_vector_3'> +1.3197547e-04 </wgt>
<wgt id='morphing_basis_vector_4'> +2.6110239e-05 </wgt>
<wgt id='morphing_basis_vector_5'> +2.0583704e-05 </wgt>
</rwgt>
</event>
<event>
 4      1 +3.1894900e-05 3.61500000e+02 7.81860800e-03 9.77750200e-02
        2 -1    0    0  501    0 +0.0000000000e+00 +0.0000000000e+00 +7.8864335980e+02 7.8864335980e+02 0.0000000000e+00 0.0000e+00 1.0000e+00
       -2 -1    0    0    0  501 -0.0000000000e+00 -0.0000000000e+00 -4.1426271217e+01 4.1426271217e+01 0.0000000000e+00 0.0000e+00 -1.0000e+00
      -13  1    1    2    0    0 -1.4871106262e+02 +9.3256341513e+01 +2.7461065754e+02 3.2591830052e+02 0.0000000000e+00 0.0000e+00 -1.0000e+00
       13  1    1    2    0    0 +1.4871106262e+02 -9.3256341513e+01 +4.7260643105e+02 5.0415133050e+02 0.0000000000e+00 0.0000e+00 1.0000e+00
<mgrwt>
<rscale>  0 0.36149995E+03</rscale>
<asrwt>0</asrwt>
<pdfrwt beam="1">  1        2 0.12132974E+00 0.36149995E+03</pdfrwt>
<pdfrwt beam="2">  1       -2 0.63732731E-02 0.36149995E+03</pdfrwt>
<totfact> 0.51815752E+03</totfact>
</mgrwt>
<rwgt>
<wgt id='morphing_basis_vector_1'> +1.9746982e-04 </wgt>
<wgt id='morphing_basis_vector_2'> +1.1220386e-04 </wgt>
<wgt id='morphing_basis_vector_3'> +1.1712324e-04 </wgt>
<wgt id='morphing_basis_vector_4'> +2.2799335e-05 </wgt>
<wgt id='morphing_basis_vector_5'> +1.4799267e-05 </wgt>
</rwgt>
</event>
<event>
 4      1 +3.1894900e-05 3.65913300e+02 7.81860800e-03 9.76282100e-02
        2 -1    0    0  501    0 +0.0000000000e+00 +0.0000000000e+00 +8.3662702127e+01 8.3662702127e+01 0.0000000000e+00 0.0000e+00 -1.0000e+00
       -2 -1    0    0    0  501 -0.0000000000e+00 -0.0000000000e+00 -4.0009622586e+02 4.0009622586e+02 0.0000000000e+00 0.0000e+00 1.0000e+00
      -13  1    1    2    0    0 +2.2960230892e+01 +5.9537716558e+01 -3.8490735487e+02 3.9016097156e+02 0.0000000000e+00 0.0000e+00 1.0000e+00
       13  1    1    2    0    0 -2.2960230892e+01 -5.9537716558e+01 +6.8473831140e+01 9.3597956423e+01 0.0000000000e+00 0.0000e+00 -1.0000e+00
<mgrwt>
<rscale>  0 0.36591328E+03</rscale>
<asrwt>0</asrwt>
<pdfrwt beam="1">  1        2 0.12871185E-01 0.36591328E+03</pdfrwt>
<pdfrwt beam="2">  1       -2 0.61553265E-01 0.36591328E+03</pdfrwt>
<totfact> 0.15047951E+03</totfact>
</mgrwt>
<rwgt>
<wgt id='morphing_basis_vector_1'> +2.0102517e-04 </wgt>
<wgt id='morphing_basis_vector_2'> +1.0819056e-04 </wgt>
<wgt id='morphing_basis_vector_3'> +1.2406656e-04 </wgt>
<wgt id='morphing_basis_vector_4'> +2.3415402e-05 </wgt>
<wgt id='morphing_basis_vector_5'> +1.6530421e-05 </wgt>
</rwgt>
</event>
<event>
 4      1 +3.1894900e-05 3.89501000e+02 7.81860800e-03 9.68795800e-02
        2 -1    0    0  501    0 +0.0000000000e+00 +0.0000000000e+00 +2.2400559970e+02 2.2400559970e+02 0.0000000000e+00 0.0000e+00 -1.0000e+00
       -2 -1    0    0    0  501 -0.0000000000e+00 -0.0000000000e+00 -1.6931611964e+02 1.6931611964e+02 0.0000000000e+00 0.0000e+00 1.0000e+00
      -13  1    1    2    0    0 +1.0066065218e+02 -2.9260640976e+00 -1.4098361632e+02 1.7325561700e+02 0.0000000000e+00 0.0000e+00 1.0000e+00
       13  1    1    2    0    0 -1.0066065218e+02 +2.9260640976e+00 +1.9567309639e+02 2.2006610234e+02 0.0000000000e+00 0.0000e+00 -1.0000e+00
<mgrwt>
<rscale>  0 0.38950101E+03</rscale>
<asrwt>0</asrwt>
<pdfrwt beam="1">  1        2 0.34462400E-01 0.38950101E+03</pdfrwt>
<pdfrwt beam="2">  1       -2 0.26048634E-01 0.38950101E+03</pdfrwt>
<totfact> 0.23089304E+03</totfact>
</mgrwt>
<rwgt>
<wgt id='morphing_basis_vector_1'> +2.3551481e-04 </wgt>
<wgt id='morphing_basis_vector_2'> +1.2653545e-04 </wgt>
<wgt id='morphing_basis_vector_3'> +1.4911182e-04 </wgt>
<wgt id='morphing_basis_vector_4'> +3.1478685e-05 </wgt>
<wgt id='morphing_basis_vector_5'> +2.9059827e-05 </wgt>
</rwgt>
</event>
<event>
 4      1 +3.1894900e-05 3.94167900e+02 7.81860800e-03 9.67381800e-02
        2 -1    0    0  501    0 +0.0000000000e+00 +0.0000000000e+00 +2.9221947388e+02 2.9221947388e+02 0.0000000000e+00 0.0000e+00 -1.0000e+00
       -2 -1    0    0    0  501 -0.0000000000e+00 -0.0000000000e+00 -1.3292089382e+02 1.3292089382e+02 0.0000000000e+00 0.0000e+00 1.0000e+00
      -13  1    1    2    0    0 -2.9177522234e+01 +1.5259225780e+02 -5.1149454146e+01 1.6356036074e+02 0.0000000000e+00 0.0000e+00 1.0000e+00
       13  1    1    2    0    0 +2.9177522234e+01 -1.5259225780e+02 +2.1044803421e+02 2.6158000697e+02 0.0000000000e+00 0.0000e+00 -1.0000e+00
<mgrwt>
<rscale>  0 0.39416785E+03</rscale>
<asrwt>0</asrwt>
<pdfrwt beam="1">  1        2 0.44956842E-01 0.39416785E+03</pdfrwt>
<pdfrwt beam="2">  1       -2 0.20449368E-01 0.39416785E+03</pdfrwt>
<totfact> 0.25711311E+03</totfact>
</mgrwt>
<rwgt>
<wgt id='morphing_basis_vector_1'> +2.4334238e-04 </wgt>
<wgt id='morphing_basis_vector_2'> +1.3178707e-04 </wgt>
<wgt id='morphing_basis_vector_3'> +1.5422397e-04 </wgt>
<wgt id='morphing_basis_vector_4'> +3.3442622e-05 </wgt>
<wgt id='morphing_basis_vector_5'> +3.2092355e-05 </wgt>
</rwgt>
</event>
<event>
 4      1 +3.1894900e-05 3.72691700e+02 7.81860800e-03 9.74070100e-02
        2 -1    0    0  501    0 +0.0000000000e+00 +0.0000000000e+00 +6.8827352104e+02 6.8827352104e+02 0.0000000000e+00 0.0000e+00 1.0000e+00
       -2 -1    0    0    0  501 -0.0000000000e+00 -0.0000000000e+00 -5.0451987375e+01 5.0451987375e+01 0.0000000000e+00 0.0000e+00 -1.0000e+00
      -13  1    1    2    0    0 -1.8331548085e+02 -1.6537529998e+01 +2.6123396397e+02 3.1956413965e+02 0.0000000000e+00 0.0000e+00 -1.0000e+00
       13  1    1    2    0    0 +1.8331548085e+02 +1.6537529998e+01 +3.7658756969e+02 4.1916136877e+02 0.0000000000e+00 0.0000e+00 1.0000e+00
<mgrwt>
<rscale>  0 0.37269165E+03</rscale>
<asrwt>0</asrwt>
<pdfrwt beam="1">  1        2 0.10588823E+00 0.37269165E+03</pdfrwt>
<pdfrwt beam="2">  1       -2 0.77618447E-02 0.37269165E+03</pdfrwt>
<totfact> 0.45302833E+03</totfact>
</mgrwt>
<rwgt>
<wgt id='morphing_basis_vector_1'> +2.1400904e-04 </wgt>
<wgt id='morphing_basis_vector_2'> +1.2394342e-04 </wgt>
<wgt id='morphing_basis_vector_3'> +1.2687383e-04 </wgt>
<wgt id='morphing_basis_vector_4'> +2.6171227e-05 </wgt>
<wgt id='morphing_basis_vector_5'> +1.9931641e-05 </wgt>
</rwgt>
</event>
<event>
 4      1 +3.1894900e-05 4.05962500e+02 7.81860800e-03 9.63899500e-02
        2 -1    0    0  501    0 +0.0000000000e+00 +0.0000000000e+00 +4.8247461620e+02 4.8247461620e+02 0.0000000000e+00 0.0000e+00 -1.0000e+00
       -2 -1    0    0    0  501 -0.0000000000e+00 -0.0000000000e+00 -8.5395957797e+01 8.5395957797e+01 0.0000000000e+00 0.0000e+00 1.0000e+00
      -13  1    1    2    0    0 +7.5270988049e+01 +9.1503601664e+01 -3.2002829565e+01 1.2273064760e+02 0.0000000000e+00 0.0000e+00 1.0000e+00
       13  1    1    2    0    0 -7.5270988049e+01 -9.1503601664e+01 +4.2908148797e+02 4.4513992640e+02 0.0000000000e+00 0.0000e+00 -1.0000e+00
<mgrwt>
<rscale>  0 0.40596247E+03</rscale>
<asrwt>0</asrwt>
<pdfrwt beam="1">  1        2 0.74226862E-01 0.40596247E+03</pdfrwt>
<pdfrwt beam="2">  1       -2 0.13137840E-01 0.40596247E+03</pdfrwt>
<totfact> 0.30105517E+03</totfact>
</mgrwt>
<rwgt>
<wgt id='morphing_basis_vector_1'> +2.6261434e-04 </wgt>
<wgt id='morphing_basis_vector_2'> +1.4125894e-04 </wgt>
<wgt id='morphing_basis_vector_3'> +1.6943122e-04 </wgt>
<wgt id='morphing_basis_vector_4'> +3.8800898e-05 </wgt>
<wgt id='morphing_basis_vector_5'> +4.0504039e-05 </wgt>
</rwgt>
</event>
<event>
 4      1 +3.1894900e-05 3.61641400e+02 7.81860800e-03 9.77702800e-02
        2 -1    0    0  501    0 +0.0000000000e+00 +0.0000000000e+00 +2.3173296682e+02 2.3173296682e+02 0.0000000000e+00 0.0000e+00 1.0000e+00
       -2 -1    0    0    0  501 -0.0000000000e+00 -0.0000000000e+00 -1.4109394169e+02 1.4109394169e+02 0.0000000000e+00 0.0000e+00 -1.0000e+00
      -13  1    1    2    0    0 +4.6885089112e+01 +1.7433191341e+02 +3.4690924842e+01 1.8382950764e+02 0.0000000000e+00 0.0000e+00 -1.0000e+00
       13  1    1    2    0    0 -4.6885089112e+01 -1.7433191341e+02 +5.5948100287e+01 1.8899740088e+02 0.0000000000e+00 0.0000e+00 1.0000e+00
<mgrwt>
<rscale>  0 0.36164136E+03</rscale>
<asrwt>0</asrwt>
<pdfrwt beam="1">  1        2 0.35651226E-01 0.36164136E+03</pdfrwt>
<pdfrwt beam="2">  1       -2 0.21706760E-01 0.36164136E+03</pdfrwt>
<totfact> 0.30125538E+03</totfact>
</mgrwt>
<rwgt>
<wgt id='morphing_basis_vector_1'> +2.0009952e-04 </wgt>
<wgt id='morphing_basis_vector_2'> +1.1964344e-04 </wgt>
<wgt id='morphing_basis_vector_3'> +1.1442095e-04 </wgt>
<wgt id='morphing_basis_vector_4'> +2.3456220e-05 </wgt>
<wgt id='morphing_basis_vector_5'> +1.5015683e-05 </wgt>
</rwgt>
</event>
<event>
 4      1 +3.1894900e-05 3.99853900e+02 7.81860800e-03 9.65687000e-02
        2 -1    0    0  501    0 +0.0000000000e+00 +0.0000000000e+00 +1.1611546750e+03 1.1611546750e+03 0.0000000000e+00 0.0000e+00 -1.0000e+00
       -2 -1    0    0    0  501 -0.0000000000e+00 -0.0000000000e+00 -3.4423315425e+01 3.4423315425e+01 0.0000000000e+00 0.0000e+00 1.0000e+00
      -13  1    1    2    0    0 -6.6713405117e+01 +1.8837074706e+02 +5.4528229245e+02 5.8074692873e+02 0.0000000000e+00 0.0000e+00 -1.0000e+00
       13  1    1    2    0    0 +6.6713405117e+01 -1.8837074706e+02 +5.8144906715e+02 6.1483106172e+02 0.0000000000e+00 0.0000e+00 1.0000e+00
<mgrwt>
<rscale>  0 0.39985394E+03</rscale>
<asrwt>0</asrwt>
<pdfrwt beam="1">  1        2 0.17863915E+00 0.39985394E+03</pdfrwt>
<pdfrwt beam="2">  1       -2 0.52958956E-02 0.39985394E+03</pdfrwt>
<totfact> 0.40504831E+03</totfact>
</mgrwt>
<rwgt>
<wgt id='morphing_basis_vector_1'> +2.5924930e-04 </wgt>
<wgt id='morphing_basis_vector_2'> +1.5698161e-04 </wgt>
<wgt id='morphing_basis_vector_3'> +1.5498007e-04 </wgt>
<wgt id='morphing_basis_vector_4'> +3.6359105e-05 </wgt>
<wgt id='morphing_basis_vector_5'> +3.6436790e-05 </wgt>
</rwgt>
</event>
<event>
 4      1 +3.1894900e-05 4.10192000e+02 7.81860800e-03 9.62681300e-02
        2 -1    0    0  501    0 +0.0000000000e+00 +0.0000000000e+00 +1.1973756335e+03 1.1973756335e+03 0.0000000000e+00 0.0000e+00 1.0000e+00
       -2 -1    0    0    0  501 -0.0000000000e+00 -0.0000000000e+00 -3.5130471153e+01 3.5130471153e+01 0.0000000000e+00 0.0000e+00 -1.0000e+00
      -13  1    1    2    0    0 -1.3855041256e+02 -1.3686326033e+02 +3.8787070433e+02 4.3401780162e+02 0.0000000000e+00 0.0000e+00 -1.0000e+00
       13  1    1    2    0    0 +1.3855041256e+02 +1.3686326033e+02 +7.7437445805e+02 7.9848830306e+02 0.0000000000e+00 0.0000e+00 1.0000e+00
<mgrwt>
<rscale>  0 0.41019200E+03</rscale>
<asrwt>0</asrwt>
<pdfrwt beam="1">  1        2 0.18421161E+00 0.41019200E+03</pdfrwt>
<pdfrwt beam="2">  1       -2 0.54046888E-02 0.41019200E+03</pdfrwt>
<totfact> 0.37469501E+03</totfact>
</mgrwt>
<rwgt>
<wgt id='morphing_basis_vector_1'> +2.7237842e-04 </wgt>
<wgt id='morphing_basis_vector_2'> +1.5258928e-04 </wgt>
<wgt id='morphing_basis_vector_3'> +1.7295075e-04 </wgt>
<wgt id='morphing_basis_vector_4'> +4.0958908e-05 </wgt>
<wgt id='morphing_basis_vector_5'> +4.3988485e-05 </wgt>
</rwgt>
</event>
<event>
 4      1 +3.1894900e-05 3.83013100e+02 7.81860800e-03 9.70797100e-02
        2 -1    0    0  501    0 +0.0000000000e+00 +0.0000000000e+00 +2.9918904435e+02 2.9918904435e+02 0.0000000000e+00 0.0000e+00 -1.0000e+00
       -2 -1    0    0    0  501 -0.0000000000e+00 -0.0000000000e+00 -1.2258055949e+02 1.2258055949e+02 0.0000000000e+00 0.0000e+00 1.0000e+00
      -13  1    1    2    0    0 -1.8234849624e+02 -2.9399554810e+01 +3.2593983112e+01 1.8755712634e+02 0.0000000000e+00 0.0000e+00 1.0000e+00
       13  1    1    2    0    0 +1.8234849624e+02 +2.9399554810e+01 +1.4401450175e+02 2.3421247751e+02 0.0000000000e+00 0.0000e+00 -1.0000e+00
<mgrwt>
<rscale>  0 0.38301311E+03</rscale>
<asrwt>0</asrwt>
<pdfrwt beam="1">  1        2 0.46029084E-01 0.38301311E+03</pdfrwt>
<pdfrwt beam="2">  1       -2 0.18858548E-01 0.38301311E+03</pdfrwt>
<totfact> 0.28593371E+03</totfact>
</mgrwt>
<rwgt>
<wgt id='morphing_basis_vector_1'> +2.2801142e-04 </wgt>
<wgt id='morphing_basis_vector_2'> +1.2869786e-04 </wgt>
<wgt id='morphing_basis_vector_3'> +1.3918491e-04 </wgt>
<wgt id='morphing_basis_vector_4'> +2.9355252e-05 </wgt>
<wgt id='morphing_basis_vector_5'> +2.5344718e-05 </wgt>
</rwgt>
</event>
<event>
 4      1 +3.1894900e-05 3.78002900e+02 7.81860800e-03 9.72371800e-02
        2 -1    0    0  501    0 +0.0000000000e+00 +0.0000000000e+00 +1.5492775128e+02 1.5492775128e+02 0.0000000000e+00 0.0000e+00 1.0000e+00
       -2 -1    0    0    0  501 -0.0000000000e+00 -0.0000000000e+00 -2.3056909348e+02 2.3056909348e+02 0.0000000000e+00 0.0000e+00 -1.0000e+00
      -13  1    1    2    0    0 +9.6216961669e+01 +1.6611062657e+01 -2.0285571788e+02 2.2513123593e+02 0.0000000000e+00 0.0000e+00 -1.0000e+00
       13  1    1    2    0    0 -9.6216961669e+01 -1.6611062657e+01 +1.2721437568e+02 1.6036560883e+02 0.0000000000e+00 0.0000e+00 1.0000e+00
<mgrwt>
<rscale>  0 0.37800292E+03</rscale>
<asrwt>0</asrwt>
<pdfrwt beam="1">  1        2 0.23835039E-01 0.37800292E+03</pdfrwt>
<pdfrwt beam="2">  1       -2 0.35472168E-01 0.37800292E+03</pdfrwt>
<totfact> 0.20538058E+03</totfact>
</mgrwt>
<rwgt>
<wgt id='morphing_basis_vector_1'> +2.1810955e-04 </wgt>
<wgt id='morphing_basis_vector_2'> +1.1726690e-04 </wgt>
<wgt id='morphing_basis_vector_3'> +1.3631175e-04 </wgt>
<wgt id='morphing_basis_vector_4'> +2.7214355e-05 </wgt>
<wgt id='morphing_basis_vector_5'> +2.2417198e-05 </wgt>
</rwgt>
</event>
<event>
 4      1 +3.1894900e-05 3.86155200e+02 7.81860800e-03 9.69822600e-02
        2 -1    0    0  501    0 +0.0000000000e+00 +0.0000000000e+00 +1.1651076186e+02 1.1651076186e+02 0.0000000000e+00 0.0000e+00 -1.0000e+00
       -2 -1    0    0    0  501 -0.0000000000e+00 -0.0000000000e+00 -3.1996158020e+02 3.1996158020e+02 0.0000000000e+00 0.0000e+00 1.0000e+00
      -13  1    1    2    0    0 -4.8283130803e+01 -9.6487744031e+01 -2.8270739942e+02 3.0259646256e+02 0.0000000000e+00 0.0000e+00 1.0000e+00
       13  1    1    2    0    0 +4.8283130803e+01 +9.6487744031e+01 +7.9256581079e+01 1.3387587950e+02 0.0000000000e+00 0.0000e+00 -1.0000e+00
<mgrwt>
<rscale>  0 0.38615524E+03</rscale>
<asrwt>0</asrwt>
<pdfrwt beam="1">  1        2 0.17924732E-01 0.38615524E+03</pdfrwt>
<pdfrwt beam="2">  1       -2 0.49224859E-01 0.38615524E+03</pdfrwt>
<totfact> 0.15659612E+03</totfact>
</mgrwt>
<rwgt>
<wgt id='morphing_basis_vector_1'> +2.3034808e-04 </wgt>
<wgt id='morphing_basis_vector_2'> +1.2382643e-04 </wgt>
<wgt id='morphing_basis_vector_3'> +1.4524921e-04 </wgt>
<wgt id='morphing_basis_vector_4'> +3.0171483e-05 </wgt>
<wgt id='morphing_basis_vector_5'> +2.7018501e-05 </wgt>
</rwgt>
</event>
<event>
 4      1 +3.1894900e-05 4.00350800e+02 7.81860800e-03 9.65540400e-02
        2 -1    0    0  501    0 +0.0000000000e+00 +0.0000000000e+00 +1.2116216687e+02 1.2116216687e+02 0.0000000000e+00 0.0000e+00 1.0000e+00
       -2 -1    0    0    0  501 -0.0000000000e+00 -0.0000000000e+00 -3.3071535654e+02 3.3071535654e+02 0.0000000000e+00 0.0000e+00 -1.0000e+00
      -13  1    1    2    0    0 -1.9921133312e+00 +1.9933758718e+02 -8.4249474493e+01 2.1641953731e+02 0.0000000000e+00 0.0000e+00 -1.0000e+00
       13  1    1    2    0    0 +1.9921133312e+00 -1.9933758718e+02 -1.2530371518e+02 2.3545798609e+02 0.0000000000e+00 0.0000e+00 1.0000e+00
<mgrwt>
<rscale>  0 0.40035079E+03</rscale>
<asrwt>0</asrwt>
<pdfrwt beam="1">  1        2 0.18640333E-01 0.40035079E+03</pdfrwt>
<pdfrwt beam="2">  1       -2 0.50879285E-01 0.40035079E+03</pdfrwt>
<totfact> 0.14025602E+03</totfact>
</mgrwt>
<rwgt>
<wgt id='morphing_basis_vector_1'> +2.6399725e-04 </wgt>
<wgt id='morphing_basis_vector_2'> +1.6941470e-04 </wgt>
<wgt id='morphing_basis_vector_3'> +1.5192507e-04 </wgt>
<wgt id='morphing_basis_vector_4'> +3.6811160e-05 </wgt>
<wgt id='morphing_basis_vector_5'> +3.7047712e-05 </wgt>
</rwgt>
</event>
<event>
 4      1 +3.1894900e-05 4.05366300e+02 7.81860800e-03 9.64072500e-02
        2 -1    0    0  501    0 +0.0000000000e+00 +0.0000000000e+00 +5.8497251995e+02 5.8497251995e+02 0.0000000000e+00 0.0000e+00 -1.0000e+00
       -2 -1    0    0    0  501 -0.0000000000e+00 -0.0000000000e+00 -7.0226309278e+01 7.0226309278e+01 0.0000000000e+00 0.0000e+00 1.0000e+00
      -13  1    1    2    0    0 -1.4990475261e+02 -1.1555653984e+02 +1.4019640718e+02 2.3554146417e+02 0.0000000000e+00 0.0000e+00 1.0000e+00
       13  1    1    2    0    0 +1.4990475261e+02 +1.1555653984e+02 +3.7454980349e+02 4.1965736506e+02 0.0000000000e+00 0.0000e+00 -1.0000e+00
<mgrwt>
<rscale>  0 0.40536631E+03</rscale>
<asrwt>0</asrwt>
<pdfrwt beam="1">  1        2 0.89995769E-01 0.40536631E+03</pdfrwt>
<pdfrwt beam="2">  1       -2 0.10804048E-01 0.40536631E+03</pdfrwt>
<totfact> 0.32914638E+03</totfact>
</mgrwt>
<rwgt>
<wgt id='morphing_basis_vector_1'> +2.6346822e-04 </wgt>
<wgt id='morphing_basis_vector_2'> +1.4645569e-04 </wgt>
<wgt id='morphing_basis_vector_3'> +1.6692946e-04 </wgt>
<wgt id='morphing_basis_vector_4'> +3.8578913e-05 </wgt>
<wgt id='morphing_basis_vector_5'> +4.0169369e-05 </wgt>
</rwgt>
</event>
<event>
 4      1 +3.1894900e-05 3.67353200e+02 7.81860800e-03 9.75807900e-02
        2 -1    0    0  501    0 +0.0000000000e+00 +0.0000000000e+00 +6.7261631632e+01 6.7261631632e+01 0.0000000000e+00 0.0000e+00 -1.0000e+00
       -2 -1    0    0    0  501 -0.0000000000e+00 -0.0000000000e+00 -5.0158017449e+02 5.0158017449e+02 0.0000000000e+00 0.0000e+00 1.0000e+00
      -13  1    1    2    0    0 +8.2212068398e+01 -2.6237014442e+01 -4.6823345740e+02 4.7611949734e+02 0.0000000000e+00 0.0000e+00 1.0000e+00
       13  1    1    2    0    0 -8.2212068398e+01 +2.6237014442e+01 +3.3914914545e+01 9.2722308781e+01 0.0000000000e+00 0.0000e+00 -1.0000e+00
<mgrwt>
<rscale>  0 0.36735324E+03</rscale>
<asrwt>0</asrwt>
<pdfrwt beam="1">  1        2 0.10347944E-01 0.36735324E+03</pdfrwt>
<pdfrwt beam="2">  1       -2 0.77166179E-01 0.36735324E+03</pdfrwt>
<totfact> 0.12278008E+03</totfact>
</mgrwt>
<rwgt>
<wgt id='morphing_basis_vector_1'> +2.0300991e-04 </wgt>
<wgt id='morphing_basis_vector_2'> +1.0927652e-04 </wgt>
<wgt id='morphing_basis_vector_3'> +1.2544722e-04 </wgt>
<wgt id='morphing_basis_vector_4'> +2.3835973e-05 </wgt>
<wgt id='morphing_basis_vector_5'> +1.7176217e-05 </wgt>
</rwgt>
</event>
<event>
 4      1 +3.1894900e-05 3.63772500e+02 7.81860800e-03 9.76991400e-02
        2 -1    0    0  501    0 +0.0000000000e+00 +0.0000000000e+00 +4.0563453254e+01 4.0563453254e+01 0.0000000000e+00 0.0000e+00 -1.0000e+00
       -2 -1    0    0    0  501 -0.0000000000e+00 -0.0000000000e+00 -8.1557684175e+02 8.1557684175e+02 0.0000000000e+00 0.0000e+00 1.0000e+00
      -13  1    1    2    0    0 +1.1328204062e+02 -7.4532569412e+01 -6.7280239756e+02 6.8633154582e+02 0.0000000000e+00 0.0000e+00 1.0000e+00
       13  1    1    2    0    0 -1.1328204062e+02 +7.4532569412e+01 -1.0221099094e+02 1.6980874918e+02 0.0000000000e+00 0.0000e+00 -1.0000e+00
<mgrwt>
<rscale>  0 0.36377253E+03</rscale>
<asrwt>0</asrwt>
<pdfrwt beam="1">  1        2 0.62405309E-02 0.36377253E+03</pdfrwt>
<pdfrwt beam="2">  1       -2 0.12547337E+00 0.36377253E+03</pdfrwt>
<totfact> 0.74019060E+02</totfact>
</mgrwt>
<rwgt>
<wgt id='morphing_basis_vector_1'> +1.9839142e-04 </wgt>
<wgt id='morphing_basis_vector_2'> +1.0745365e-04 </wgt>
<wgt id='morphing_basis_vector_3'> +1.2171645e-04 </wgt>
<wgt id='morphing_basis_vector_4'> +2.2876300e-05 </wgt>
<wgt id='morphing_basis_vector_5'> +1.5616161e-05 </wgt>
</rwgt>
</event>
<event>
 4      1 +3.1894900e-05 4.04866300e+02 7.81860800e-03 9.64217800e-02
        2 -1    0    0  501    0 +0.0000000000e+00 +0.0000000000e+00 +4.6200042328e+02 4.6200042328e+02 0.0000000000e+00 0.0000e+00 1.0000e+00
       -2 -1    0    0    0  501 -0.0000000000e+00 -0.0000000000e+00 -8.8699426194e+01 8.8699426194e+01 0.0000000000e+00 0.0000e+00 -1.0000e+00
      -13  1    1    2    0    0 +4.5843492336e+01 +1.1299977787e+02 +4.0643402448e+02 4.2433382123e+02 0.0000000000e+00 0.0000e+00 1.0000e+00
       13  1    1    2    0    0 -4.5843492336e+01 -1.1299977787e+02 -3.3133027397e+01 1.2636602824e+02 0.0000000000e+00 0.0000e+00 -1.0000e+00
<mgrwt>
<rscale>  0 0.40486626E+03</rscale>
<asrwt>0</asrwt>
<pdfrwt beam="1">  1        2 0.71076987E-01 0.40486626E+03</pdfrwt>
<pdfrwt beam="2">  1       -2 0.13646066E-01 0.40486626E+03</pdfrwt>
<totfact> 0.29750881E+03</totfact>
</mgrwt>
<rwgt>
<wgt id='morphing_basis_vector_1'> +3.4275695e-04 </wgt>
<wgt id='morphing_basis_vector_2'> +3.9130737e-04 </wgt>
<wgt id='morphing_basis_vector_3'> +9.2673494e-05 </wgt>
<wgt id='morphing_basis_vector_4'> +4.1498512e-05 </wgt>
<wgt id='morphing_basis_vector_5'> +4.4980759e-05 </wgt>
</rwgt>
</event>
<event>
 4      1 +3.1894900e-05 3.94664300e+02 7.81860800e-03 9.67232700e-02
        2 -1    0    0  501    0 +0.0000000000e+00 +0.0000000000e+00 +3.1936800668e+02 3.1936800668e+02 0.0000000000e+00 0.0000e+00 -1.0000e+00
       -2 -1    0    0    0  501 -0.0000000000e+00 -0.0000000000e+00 -1.2192820915e+02 1.2192820915e+02 0.0000000000e+00 0.0000e+00 1.0000e+00
      -13  1    1    2    0    0 -1.9466247672e+01 -1.3312782350e+02 -6.2690161449e+01 1.4843183126e+02 0.0000000000e+00 0.0000e+00 1.0000e+00
       13  1    1    2    0    0 +1.9466247672e+01 +1.3312782350e+02 +2.6012995898e+02 2.9286438457e+02 0.0000000000e+00 0.0000e+00 -1.0000e+00
<mgrwt>
<rscale>  0 0.39466426E+03</rscale>
<asrwt>0</asrwt>
<pdfrwt beam="1">  1        2 0.49133539E-01 0.39466426E+03</pdfrwt>
<pdfrwt beam="2">  1       -2 0.18758186E-01 0.39466426E+03</pdfrwt>
<totfact> 0.26853911E+03</totfact>
</mgrwt>
<rwgt>
<wgt id='morphing_basis_vector_1'> +2.4387356e-04 </wgt>
<wgt id='morphing_basis_vector_2'> +1.3139723e-04 </wgt>
<wgt id='morphing_basis_vector_3'> +1.5508631e-04 </wgt>
<wgt id='morphing_basis_vector_4'> +3.3629018e-05 </wgt>
<wgt id='morphing_basis_vector_5'> +3.2405161e-05 </wgt>
</rwgt>
</event>
<event>
 4      1 +3.1894900e-05 4.10329300e+02 7.81860800e-03 9.62642000e-02
        2 -1    0    0  501    0 +0.0000000000e+00 +0.0000000000e+00 +1.2367347392e+03 1.2367347392e+03 0.0000000000e+00 0.0000e+00 1.0000e+00
       -2 -1    0    0    0  501 -0.0000000000e+00 -0.0000000000e+00 -3.4035213552e+01 3.4035213552e+01 0.0000000000e+00 0.0000e+00 -1.0000e+00
      -13  1    1    2    0    0 +4.8928839981e+01 +1.5647735441e+02 +9.8333507709e+02 9.9690875593e+02 0.0000000000e+00 0.0000e+00 1.0000e+00
       13  1    1    2    0    0 -4.8928839981e+01 -1.5647735441e+02 +2.1936444852e+02 2.7386119678e+02 0.0000000000e+00 0.0000e+00 -1.0000e+00
<mgrwt>
<rscale>  0 0.41032929E+03</rscale>
<asrwt>0</asrwt>
<pdfrwt beam="1">  1        2 0.19026685E+00 0.41032929E+03</pdfrwt>
<pdfrwt beam="2">  1       -2 0.52361877E-02 0.41032929E+03</pdfrwt>
<totfact> 0.37345056E+03</totfact>
</mgrwt>
<rwgt>
<wgt id='morphing_basis_vector_1'> +3.2886991e-04 </wgt>
<wgt id='morphing_basis_vector_2'> +3.2516764e-04 </wgt>
<wgt id='morphing_basis_vector_3'> +1.2321355e-04 </wgt>
<wgt id='morphing_basis_vector_4'> +4.1729550e-05 </wgt>
<wgt id='morphing_basis_vector_5'> +4.7702554e-05 </wgt>
</rwgt>
</event>
<event>
 4      1 +3.1894900e-05 3.93897200e+02 7.81860800e-03 9.67463300e-02
        2 -1    0    0  501    0 +0.0000000000e+00 +0.0000000000e+00 +2.3464448316e+02 2.3464448316e+02 0.0000000000e+00 0.0000e+00 -1.0000e+00
       -2 -1    0    0    0  501 -0.0000000000e+00 -0.0000000000e+00 -1.6530859045e+02 1.6530859045e+02 0.0000000000e+00 0.0000e+00 1.0000e+00
      -13  1    1    2    0    0 -4.5332062429e+01 -4.2324494774e+01 -1.5513478648e+02 1.6707232182e+02 0.0000000000e+00 0.0000e+00 1.0000e+00
       13  1    1    2    0    0 +4.5332062429e+01 +4.2324494774e+01 +2.2447067919e+02 2.3288075180e+02 0.0000000000e+00 0.0000e+00 -1.0000e+00
<mgrwt>
<rscale>  0 0.39389719E+03</rscale>
<asrwt>0</asrwt>
<pdfrwt beam="1">  1        2 0.36099151E-01 0.39389719E+03</pdfrwt>
<pdfrwt beam="2">  1       -2 0.25432091E-01 0.39389719E+03</pdfrwt>
<totfact> 0.22829381E+03</totfact>
</mgrwt>
<rwgt>
<wgt id='morphing_basis_vector_1'> +2.4244412e-04 </wgt>
<wgt id='morphing_basis_vector_2'> +1.3014091e-04 </wgt>
<wgt id='morphing_basis_vector_3'> +1.5435162e-04 </wgt>
<wgt id='morphing_basis_vector_4'> +3.3284937e-05 </wgt>
<wgt id='morphing_basis_vector_5'> +3.1882584e-05 </wgt>
</rwgt>
</event>
<event>
 4      1 +3.1894900e-05 4.29144500e+02 7.81860800e-03 9.57407900e-02
        2 -1    0    0  501    0 +0.0000000000e+00 +0.0000000000e+00 +5.4319030820e+02 5.4319030820e+02 0.0000000000e+00 0.0000e+00 1.0000e+00
       -2 -1    0    0    0  501 -0.0000000000e+00 -0.0000000000e+00 -8.4760829485e+01 8.4760829485e+01 0.0000000000e+00 0.0000e+00 -1.0000e+00
      -13  1    1    2    0    0 -2.0900257441e+02 +1.8048869699e+01 +1.6323111805e+02 2.6580488277e+02 0.0000000000e+00 0.0000e+00 1.0000e+00
       13  1    1    2    0    0 +2.0900257441e+02 -1.8048869699e+01 +2.9519836067e+02 3.6214625491e+02 0.0000000000e+00 0.0000e+00 -1.0000e+00
<mgrwt>
<rscale>  0 0.42914455E+03</rscale>
<asrwt>0</asrwt>
<pdfrwt beam="1">  1        2 0.83567737E-01 0.42914455E+03</pdfrwt>
<pdfrwt beam="2">  1       -2 0.13040128E-01 0.42914455E+03</pdfrwt>
<totfact> 0.26679597E+03</totfact>
</mgrwt>
<rwgt>
<wgt id='morphing_basis_vector_1'> +3.0957847e-04 </wgt>
<wgt id='morphing_basis_vector_2'> +1.7781706e-04 </wgt>
<wgt id='morphing_basis_vector_3'> +1.9918354e-04 </wgt>
<wgt id='morphing_basis_vector_4'> +5.1455597e-05 </wgt>
<wgt id='morphing_basis_vector_5'> +6.1147345e-05 </wgt>
</rwgt>
</event>
<event>
 4      1 +3.1894900e-05 3.99864400e+02 7.81860800e-03 9.65684000e-02
        2 -1    0    0  501    0 +0.0000000000e+00 +0.0000000000e+00 +1.5243643159e+03 1.5243643159e+03 0.0000000000e+00 0.0000e+00 -1.0000e+00
       -2 -1    0    0    0  501 -0.0000000000e+00 -0.0000000000e+00 -2.6222652576e+01 2.6222652576e+01 0.0000000000e+00 0.0000e+00 1.0000e+00
      -13  1    1    2    0    0 +1.7453086908e+02 -9.5173994874e+01 +8.3167417741e+02 8.5510294756e+02 0.0000000000e+00 0.0000e+00 -1.0000e+00
       13  1    1    2    0    0 -1.7453086908e+02 +9.5173994874e+01 +6.6646748591e+02 6.9548402091e+02 0.0000000000e+00 0.0000e+00 1.0000e+00
<mgrwt>
<rscale>  0 0.39986436E+03</rscale>
<asrwt>0</asrwt>
<pdfrwt beam="1">  1        2 0.23451752E+00 0.39986436E+03</pdfrwt>
<pdfrwt beam="2">  1       -2 0.40342554E-02 0.39986436E+03</pdfrwt>
<totfact> 0.38416712E+03</totfact>
</mgrwt>
<rwgt>
<wgt id='morphing_basis_vector_1'> +2.6377271e-04 </wgt>
<wgt id='morphing_basis_vector_2'> +1.7076187e-04 </wgt>
<wgt id='morphing_basis_vector_3'> +1.5072857e-04 </wgt>
<wgt id='morphing_basis_vector_4'> +3.6652582e-05 </wgt>
<wgt id='morphing_basis_vector_5'> +3.6738522e-05 </wgt>
</rwgt>
</event>
<event>
 4      1 +3.1894900e-05 3.63074700e+02 7.81860800e-03 9.77223800e-02
        2 -1    0    0  501    0 +0.0000000000e+00 +0.0000000000e+00 +4.6488592848e+02 4.6488592848e+02 0.0000000000e+00 0.0000e+00 -1.0000e+00
       -2 -1    0    0    0  501 -0.0000000000e+00 -0.0000000000e+00 -7.0890109021e+01 7.0890109021e+01 0.0000000000e+00 0.0000e+00 1.0000e+00
      -13  1    1    2    0    0 +1.5326952306e+02 +9.1047594758e+01 +2.4757255086e+02 3.0507929977e+02 0.0000000000e+00 0.0000e+00 -1.0000e+00
       13  1    1    2    0    0 -1.5326952306e+02 -9.1047594758e+01 +1.4642326860e+02 2.3069673773e+02 0.0000000000e+00 0.0000e+00 1.0000e+00
<mgrwt>
<rscale>  0 0.36307473E+03</rscale>
<asrwt>0</asrwt>
<pdfrwt beam="1">  1        2 0.71520910E-01 0.36307473E+03</pdfrwt>
<pdfrwt beam="2">  1       -2 0.10906171E-01 0.36307473E+03</pdfrwt>
<totfact> 0.41917239E+03</totfact>
</mgrwt>
<rwgt>
<wgt id='morphing_basis_vector_1'> +2.0893706e-04 </wgt>
<wgt id='morphing_basis_vector_2'> +1.4149811e-04 </wgt>
<wgt id='morphing_basis_vector_3'> +1.0781385e-04 </wgt>
<wgt id='morphing_basis_vector_4'> +2.5522015e-05 </wgt>
<wgt id='morphing_basis_vector_5'> +1.6065079e-05 </wgt>
</rwgt>
</event>
<event>
 4      1 +3.1894900e-05 3.67068700e+02 7.81860800e-03 9.75901400e-02
        2 -1    0    0  501    0 +0.0000000000e+00 +0.0000000000e+00 +1.1124529180e+03 1.1124529180e+03 0.0000000000e+00 0.0000e+00 -1.0000e+00
       -2 -1    0    0    0  501 -0.0000000000e+00 -0.0000000000e+00 -3.0279806671e+01 3.0279806671e+01 0.0000000000e+00 0.0000e+00 1.0000e+00
      -13  1    1    2    0    0 +6.4073499184e+01 +1.6970138922e+02 +4.5409227586e+02 4.8898238189e+02 0.0000000000e+00 0.0000e+00 1.0000e+00
       13  1    1    2    0    0 -6.4073499184e+01 -1.6970138922e+02 +6.2808083545e+02 6.5375034277e+02 0.0000000000e+00 0.0000e+00 -1.0000e+00
<mgrwt>
<rscale>  0 0.36706871E+03</rscale>
<asrwt>0</asrwt>
<pdfrwt beam="1">  1        2 0.17114657E+00 0.36706871E+03</pdfrwt>
<pdfrwt beam="2">  1       -2 0.46584327E-02 0.36706871E+03</pdfrwt>
<totfact> 0.52312030E+03</totfact>
</mgrwt>
<rwgt>
<wgt id='morphing_basis_vector_1'> +2.0608277e-04 </wgt>
<wgt id='morphing_basis_vector_2'> +1.1951061e-04 </wgt>
<wgt id='morphing_basis_vector_3'> +1.2125224e-04 </wgt>
<wgt id='morphing_basis_vector_4'> +2.4540140e-05 </wgt>
<wgt id='morphing_basis_vector_5'> +1.7274175e-05 </wgt>
</rwgt>
</event>
<event>
 4      1 +3.1894900e-05 3.64810300e+02 7.81860800e-03 9.76646900e-02
        2 -1    0    0  501    0 +0.0000000000e+00 +0.0000000000e+00 +1.7370791357e+02 1.7370791357e+02 0.0000000000e+00 0.0000e+00 -1.0000e+00
       -2 -1    0    0    0  501 -0.0000000000e+00 -0.0000000000e+00 -1.9153780799e+02 1.9153780799e+02 0.0000000000e+00 0.0000e+00 1.0000e+00
      -13  1    1    2    0    0 -2.5184559303e+01 -1.8034100628e+02 -1.9627832496e+01 1.8314582273e+02 0.0000000000e+00 0.0000e+00 1.0000e+00
       13  1    1    2    0    0 +2.5184559303e+01 +1.8034100628e+02 +1.7979380720e+00 1.8209989883e+02 0.0000000000e+00 0.0000e+00 -1.0000e+00
<mgrwt>
<rscale>  0 0.36481027E+03</rscale>
<asrwt>0</asrwt>
<pdfrwt beam="1">  1        2 0.26724294E-01 0.36481027E+03</pdfrwt>
<pdfrwt beam="2">  1       -2 0.29467355E-01 0.36481027E+03</pdfrwt>
<totfact> 0.24919794E+03</totfact>
</mgrwt>
<rwgt>
<wgt id='morphing_basis_vector_1'> +2.0442385e-04 </wgt>
<wgt id='morphing_basis_vector_2'> +1.2214147e-04 </wgt>
<wgt id='morphing_basis_vector_3'> +1.1740771e-04 </wgt>
<wgt id='morphing_basis_vector_4'> +2.4269812e-05 </wgt>
<wgt id='morphing_basis_vector_5'> +1.6365496e-05 </wgt>
</rwgt>
</event>
<event>
 4      1 +3.1894900e-05 3.72612600e+02 7.81860800e-03 9.74095600e-02
        2 -1    0    0  501    0 +0.0000000000e+00 +0.0000000000e+00 +1.4543482082e+02 1.4543482082e+02 0.0000000000e+00 0.0000e+00 -1.0000e+00
       -2 -1    0    0    0  501 -0.0000000000e+00 -0.0000000000e+00 -2.3866389335e+02 2.3866389335e+02 0.0000000000e+00 0.0000e+00 1.0000e+00
      -13  1    1    2    0    0 +6.2998562352e+01 +1.7368418442e+02 -2.1895646587e+01 1.8604954747e+02 0.0000000000e+00 0.0000e+00 1.0000e+00
       13  1    1    2    0    0 -6.2998562352e+01 -1.7368418442e+02 -7.1333425943e+01 1.9804916670e+02 0.0000000000e+00 0.0000e+00 -1.0000e+00
<mgrwt>
<rscale>  0 0.37261262E+03</rscale>
<asrwt>0</asrwt>
<pdfrwt beam="1">  1        2 0.22374588E-01 0.37261262E+03</pdfrwt>
<pdfrwt beam="2">  1       -2 0.36717522E-01 0.37261262E+03</pdfrwt>
<totfact> 0.20772915E+03</totfact>
</mgrwt>
<rwgt>
<wgt id='morphing_basis_vector_1'> +2.2054761e-04 </wgt>
<wgt id='morphing_basis_vector_2'> +1.4398769e-04 </wgt>
<wgt id='morphing_basis_vector_3'> +1.1947513e-04 </wgt>
<wgt id='morphing_basis_vector_4'> +2.7476287e-05 </wgt>
<wgt id='morphing_basis_vector_5'> +2.0330886e-05 </wgt>
</rwgt>
</event>
<event>
 4      1 +3.1894900e-05 4.08505300e+02 7.81860800e-03 9.63165200e-02
        2 -1    0    0  501    0 +0.0000000000e+00 +0.0000000000e+00 +1.2034428670e+03 1.2034428670e+03 0.0000000000e+00 0.0000e+00 -1.0000e+00
       -2 -1    0    0    0  501 -0.0000000000e+00 -0.0000000000e+00 -3.4666486401e+01 3.4666486401e+01 0.0000000000e+00 0.0000e+00 1.0000e+00
      -13  1    1    2    0    0 -1.0230013851e+02 -1.5017079183e+02 +3.0164989262e+02 3.5214946084e+02 0.0000000000e+00 0.0000e+00 1.0000e+00
       13  1    1    2    0    0 +1.0230013851e+02 +1.5017079183e+02 +8.6712648795e+02 8.8595989252e+02 0.0000000000e+00 0.0000e+00 -1.0000e+00
<mgrwt>
<rscale>  0 0.40850525E+03</rscale>
<asrwt>0</asrwt>
<pdfrwt beam="1">  1        2 0.18514502E+00 0.40850525E+03</pdfrwt>
<pdfrwt beam="2">  1       -2 0.53333065E-02 0.40850525E+03</pdfrwt>
<totfact> 0.37926417E+03</totfact>
</mgrwt>
<rwgt>
<wgt id='morphing_basis_vector_1'> +2.6819662e-04 </wgt>
<wgt id='morphing_basis_vector_2'> +1.4723887e-04 </wgt>
<wgt id='morphing_basis_vector_3'> +1.7175214e-04 </wgt>
<wgt id='morphing_basis_vector_4'> +4.0091946e-05 </wgt>
<wgt id='morphing_basis_vector_5'> +4.2562151e-05 </wgt>
</rwgt>
</event>
<event>
 4      1 +3.1894900e-05 4.00200800e+02 7.81860800e-03 9.65584600e-02
        2 -1    0    0  501    0 +0.0000000000e+00 +0.0000000000e+00 +5.5819655631e+02 5.5819655631e+02 0.0000000000e+00 0.0000e+00 -1.0000e+00
       -2 -1    0    0    0  501 -0.0000000000e+00 -0.0000000000e+00 -7.1731293847e+01 7.1731293847e+01 0.0000000000e+00 0.0000e+00 1.0000e+00
      -13  1    1    2    0    0 -6.3093177535e+01 -6.2519043871e+01 -3.9000939916e+01 9.7007490496e+01 0.0000000000e+00 0.0000e+00 1.0000e+00
       13  1    1    2    0    0 +6.3093177535e+01 +6.2519043871e+01 +5.2546620238e+02 5.3292035966e+02 0.0000000000e+00 0.0000e+00 -1.0000e+00
<mgrwt>
<rscale>  0 0.40020076E+03</rscale>
<asrwt>0</asrwt>
<pdfrwt beam="1">  1        2 0.85876390E-01 0.40020076E+03</pdfrwt>
<pdfrwt beam="2">  1       -2 0.11035584E-01 0.40020076E+03</pdfrwt>
<totfact> 0.33588198E+03</totfact>
</mgrwt>
<rwgt>
<wgt id='morphing_basis_vector_1'> +2.5277937e-04 </wgt>
<wgt id='morphing_basis_vector_2'> +1.3575635e-04 </wgt>
<wgt id='morphing_basis_vector_3'> +1.6208688e-04 </wgt>
<wgt id='morphing_basis_vector_4'> +3.6065167e-05 </wgt>
<wgt id='morphing_basis_vector_5'> +3.6224331e-05 </wgt>
</rwgt>
</event>
<event>
 4      1 +3.1894900e-05 3.84872500e+02 7.81860800e-03 9.70219200e-02
        2 -1    0    0  501    0 +0.0000000000e+00 +0.0000000000e+00 +4.3372193074e+02 4.3372193074e+02 0.0000000000e+00 0.0000e+00 1.0000e+00
       -2 -1    0    0    0  501 -0.0000000000e+00 -0.0000000000e+00 -8.5381248164e+01 8.5381248164e+01 0.0000000000e+00 0.0000e+00 -1.0000e+00
      -13  1    1    2    0    0 -5.4991389631e+01 -5.8062891996e+01 -6.1907587759e+01 1.0113308945e+02 0.0000000000e+00 0.0000e+00 -1.0000e+00
       13  1    1    2    0    0 +5.4991389631e+01 +5.8062891996e+01 +4.1024827033e+02 4.1797008945e+02 0.0000000000e+00 0.0000e+00 1.0000e+00
<mgrwt>
<rscale>  0 0.38487255E+03</rscale>
<asrwt>0</asrwt>
<pdfrwt beam="1">  1        2 0.66726449E-01 0.38487255E+03</pdfrwt>
<pdfrwt beam="2">  1       -2 0.13135577E-01 0.38487255E+03</pdfrwt>
<totfact> 0.33866720E+03</totfact>
</mgrwt>
<rwgt>
<wgt id='morphing_basis_vector_1'> +2.2833601e-04 </wgt>
<wgt id='morphing_basis_vector_2'> +1.2262727e-04 </wgt>
<wgt id='morphing_basis_vector_3'> +1.4385394e-04 </wgt>
<wgt id='morphing_basis_vector_4'> +2.9677690e-05 </wgt>
<wgt id='morphing_basis_vector_5'> +2.6256293e-05 </wgt>
</rwgt>
</event>
<event>
 4      1 +3.1894900e-05 4.01858000e+02 7.81860800e-03 9.65096900e-02
        2 -1    0    0  501    0 +0.0000000000e+00 +0.0000000000e+00 +3.2902568710e+02 3.2902568710e+02 0.0000000000e+00 0.0000e+00 -1.0000e+00
       -2 -1    0    0    0  501 -0.0000000000e+00 -0.0000000000e+00 -1.2270304313e+02 1.2270304313e+02 0.0000000000e+00 0.0000e+00 1.0000e+00
      -13  1    1    2    0    0 -1.9396727199e+02 -7.8140965494e+00 +1.6144233344e+02 2.5248364251e+02 0.0000000000e+00 0.0000e+00 1.0000e+00
       13  1    1    2    0    0 +1.9396727199e+02 +7.8140965494e+00 +4.4880310525e+01 1.9924508772e+02 0.0000000000e+00 0.0000e+00 -1.0000e+00
<mgrwt>
<rscale>  0 0.40185795E+03</rscale>
<asrwt>0</asrwt>
<pdfrwt beam="1">  1        2 0.50619336E-01 0.40185795E+03</pdfrwt>
<pdfrwt beam="2">  1       -2 0.18877391E-01 0.40185795E+03</pdfrwt>
<totfact> 0.25724783E+03</totfact>
</mgrwt>
<rwgt>
<wgt id='morphing_basis_vector_1'> +2.7531313e-04 </wgt>
<wgt id='morphing_basis_vector_2'> +1.9767810e-04 </wgt>
<wgt id='morphing_basis_vector_3'> +1.4570681e-04 </wgt>
<wgt id='morphing_basis_vector_4'> +3.7904541e-05 </wgt>
<wgt id='morphing_basis_vector_5'> +3.8709909e-05 </wgt>
</rwgt>
</event>
<event>
 4      1 +3.1894900e-05 3.83692400e+02 7.81860800e-03 9.70585600e-02
        2 -1    0    0  501    0 +0.0000000000e+00 +0.0000000000e+00 +8.3362986204e+02 8.3362986204e+02 0.0000000000e+00 0.0000e+00 1.0000e+00
       -2 -1    0    0    0  501 -0.0000000000e+00 -0.0000000000e+00 -4.4150257208e+01 4.4150257208e+01 0.0000000000e+00 0.0000e+00 -1.0000e+00
      -13  1    1    2    0    0 +9.4974392404e+01 -1.6532979833e+02 +3.4616171699e+02 3.9519869906e+02 0.0000000000e+00 0.0000e+00 -1.0000e+00
       13  1    1    2    0    0 -9.4974392404e+01 +1.6532979833e+02 +4.4331788784e+02 4.8258142019e+02 0.0000000000e+00 0.0000e+00 1.0000e+00
<mgrwt>
<rscale>  0 0.38369244E+03</rscale>
<asrwt>0</asrwt>
<pdfrwt beam="1">  1        2 0.12825074E+00 0.38369244E+03</pdfrwt>
<pdfrwt beam="2">  1       -2 0.67923479E-02 0.38369244E+03</pdfrwt>
<totfact> 0.43928740E+03</totfact>
</mgrwt>
<rwgt>
<wgt id='morphing_basis_vector_1'> +2.3117086e-04 </wgt>
<wgt id='morphing_basis_vector_2'> +1.3572785e-04 </wgt>
<wgt id='morphing_basis_vector_3'> +1.3773377e-04 </wgt>
<wgt id='morphing_basis_vector_4'> +2.9905906e-05 </wgt>
<wgt id='morphing_basis_vector_5'> +2.5876018e-05 </wgt>
</rwgt>
</event>
<event>
 4      1 +3.1894900e-05 3.91493100e+02 7.81860800e-03 9.68189600e-02
        2 -1    0    0  501    0 +0.0000000000e+00 +0.0000000000e+00 +4.0457128154e+02 4.0457128154e+02 0.0000000000e+00 0.0000e+00 -1.0000e+00
       -2 -1    0    0    0  501 -0.0000000000e+00 -0.0000000000e+00 -9.4709420674e+01 9.4709420674e+01 0.0000000000e+00 0.0000e+00 1.0000e+00
      -13  1    1    2    0    0 -1.5804941749e+02 -9.3736844641e+01 +6.8900895587e+01 1.9624868872e+02 0.0000000000e+00 0.0000e+00 1.0000e+00
       13  1    1    2    0    0 +1.5804941749e+02 +9.3736844641e+01 +2.4096096528e+02 3.0303201349e+02 0.0000000000e+00 0.0000e+00 -1.0000e+00
<mgrwt>
<rscale>  0 0.39149310E+03</rscale>
<asrwt>0</asrwt>
<pdfrwt beam="1">  1        2 0.62241735E-01 0.39149310E+03</pdfrwt>
<pdfrwt beam="2">  1       -2 0.14570680E-01 0.39149310E+03</pdfrwt>
<totfact> 0.31041718E+03</totfact>
</mgrwt>
<rwgt>
<wgt id='morphing_basis_vector_1'> +2.4049591e-04 </wgt>
<wgt id='morphing_basis_vector_2'> +1.3383365e-04 </wgt>
<wgt id='morphing_basis_vector_3'> +1.4961344e-04 </wgt>
<wgt id='morphing_basis_vector_4'> +3.2481294e-05 </wgt>
<wgt id='morphing_basis_vector_5'> +3.0441655e-05 </wgt>
</rwgt>
</event>
<event>
 4      1 +3.1894900e-05 3.93671900e+02 7.81860800e-03 9.67531100e-02
        2 -1    0    0  501    0 +0.0000000000e+00 +0.0000000000e+00 +3.9590526384e+02 3.9590526384e+02 0.0000000000e+00 0.0000e+00 -1.0000e+00
       -2 -1    0    0    0  501 -0.0000000000e+00 -0.0000000000e+00 -9.7862797006e+01 9.7862797006e+01 0.0000000000e+00 0.0000e+00 1.0000e+00
      -13  1    1    2    0    0 -1.4016667023e+02 -1.0412375686e+02 +3.5056120459e+01 1.7809374994e+02 0.0000000000e+00 0.0000e+00 1.0000e+00
       13  1    1    2    0    0 +1.4016667023e+02 +1.0412375686e+02 +2.6298634637e+02 3.1567431090e+02 0.0000000000e+00 0.0000e+00 -1.0000e+00
<mgrwt>
<rscale>  0 0.39367193E+03</rscale>
<asrwt>0</asrwt>
<pdfrwt beam="1">  1        2 0.60908501E-01 0.39367193E+03</pdfrwt>
<pdfrwt beam="2">  1       -2 0.15055815E-01 0.39367193E+03</pdfrwt>
<totfact> 0.30181346E+03</totfact>
</mgrwt>
<rwgt>
<wgt id='morphing_basis_vector_1'> +2.4318583e-04 </wgt>
<wgt id='morphing_basis_vector_2'> +1.3331152e-04 </wgt>
<wgt id='morphing_basis_vector_3'> +1.5299827e-04 </wgt>
<wgt id='morphing_basis_vector_4'> +3.3294342e-05 </wgt>
<wgt id='morphing_basis_vector_5'> +3.1806443e-05 </wgt>
</rwgt>
</event>
<event>
 4      1 +3.1894900e-05 3.99531000e+02 7.81860800e-03 9.65782500e-02
        2 -1    0    0  501    0 +0.0000000000e+00 +0.0000000000e+00 +2.2073524981e+03 2.2073524981e+03 0.0000000000e+00 0.0000e+00 -1.0000e+00
       -2 -1    0    0    0  501 -0.0000000000e+00 -0.0000000000e+00 -1.8078782431e+01 1.8078782431e+01 0.0000000000e+00 0.0000e+00 1.0000e+00
      -13  1    1    2    0    0 -4.1904016939e+01 +1.9496086195e+02 +1.0285984586e+03 1.0477501960e+03 0.0000000000e+00 0.0000e+00 1.0000e+00
       13  1    1    2    0    0 +4.1904016939e+01 -1.9496086195e+02 +1.1606752571e+03 1.1776810844e+03 0.0000000000e+00 0.0000e+00 -1.0000e+00
<mgrwt>
<rscale>  0 0.39953095E+03</rscale>
<asrwt>0</asrwt>
<pdfrwt beam="1">  1        2 0.33959248E+00 0.39953095E+03</pdfrwt>
<pdfrwt beam="2">  1       -2 0.27813529E-02 0.39953095E+03</pdfrwt>
<totfact> 0.28538653E+03</totfact>
</mgrwt>
<rwgt>
<wgt id='morphing_basis_vector_1'> +2.5797404e-04 </wgt>
<wgt id='morphing_basis_vector_2'> +1.5443283e-04 </wgt>
<wgt id='morphing_basis_vector_3'> +1.5526252e-04 </wgt>
<wgt id='morphing_basis_vector_4'> +3.6174730e-05 </wgt>
<wgt id='morphing_basis_vector_5'> +3.6158887e-05 </wgt>
</rwgt>
</event>
<event>
 4      1 +3.1894900e-05 3.87160200e+02 7.81860800e-03 9.69513000e-02
        2 -1    0    0  501    0 +0.0000000000e+00 +0.0000000000e+00 +3.2652710510e+02 3.2652710510e+02 0.0000000000e+00 0.0000e+00 -1.0000e+00
       -2 -1    0    0    0  501 -0.0000000000e+00 -0.0000000000e+00 -1.1476310509e+02 1.1476310509e+02 0.0000000000e+00 0.0000e+00 1.0000e+00
      -13  1    1    2    0    0 +4.4154005907e+01 +1.7078665397e+02 +1.5013773326e+01 1.7703974357e+02 0.0000000000e+00 0.0000e+00 1.0000e+00
       13  1    1    2    0    0 -4.4154005907e+01 -1.7078665397e+02 +1.9675022668e+02 2.6425046663e+02 0.0000000000e+00 0.0000e+00 -1.0000e+00
<mgrwt>
<rscale>  0 0.38716025E+03</rscale>
<asrwt>0</asrwt>
<pdfrwt beam="1">  1        2 0.50234939E-01 0.38716025E+03</pdfrwt>
<pdfrwt beam="2">  1       -2 0.17655862E-01 0.38716025E+03</pdfrwt>
<totfact> 0.28906350E+03</totfact>
</mgrwt>
<rwgt>
<wgt id='morphing_basis_vector_1'> +2.3317385e-04 </wgt>
<wgt id='morphing_basis_vector_2'> +1.2854128e-04 </wgt>
<wgt id='morphing_basis_vector_3'> +1.4509137e-04 </wgt>
<wgt id='morphing_basis_vector_4'> +3.0721539e-05 </wgt>
<wgt id='morphing_basis_vector_5'> +2.7706953e-05 </wgt>
</rwgt>
</event>
<event>
 4      1 +3.1894900e-05 4.05814600e+02 7.81860800e-03 9.63942300e-02
        2 -1    0    0  501    0 +0.0000000000e+00 +0.0000000000e+00 +1.8145111043e+02 1.8145111043e+02 0.0000000000e+00 0.0000e+00 -1.0000e+00
       -2 -1    0    0    0  501 -0.0000000000e+00 -0.0000000000e+00 -2.2690065238e+02 2.2690065238e+02 0.0000000000e+00 0.0000e+00 1.0000e+00
      -13  1    1    2    0    0 +1.7102716866e+02 +1.0218666561e+02 -6.1422562604e+01 2.0848294474e+02 0.0000000000e+00 0.0000e+00 1.0000e+00
       13  1    1    2    0    0 -1.7102716866e+02 -1.0218666561e+02 +1.5973020659e+01 1.9986881807e+02 0.0000000000e+00 0.0000e+00 -1.0000e+00
<mgrwt>
<rscale>  0 0.40581461E+03</rscale>
<asrwt>0</asrwt>
<pdfrwt beam="1">  1        2 0.27915556E-01 0.40581461E+03</pdfrwt>
<pdfrwt beam="2">  1       -2 0.34907793E-01 0.40581461E+03</pdfrwt>
<totfact> 0.17627474E+03</totfact>
</mgrwt>
<rwgt>
<wgt id='morphing_basis_vector_1'> +2.6628367e-04 </wgt>
<wgt id='morphing_basis_vector_2'> +1.5313499e-04 </wgt>
<wgt id='morphing_basis_vector_3'> +1.6565471e-04 </wgt>
<wgt id='morphing_basis_vector_4'> +3.8864667e-05 </wgt>
<wgt id='morphing_basis_vector_5'> +4.0644294e-05 </wgt>
</rwgt>
</event>
<event>
 4      1 +3.1894900e-05 4.03868500e+02 7.81860800e-03 9.64508400e-02
        2 -1    0    0  501    0 +0.0000000000e+00 +0.0000000000e+00 +4.3373582929e+02 4.3373582929e+02 0.0000000000e+00 0.0000e+00 1.0000e+00
       -2 -1    0    0    0  501 -0.0000000000e+00 -0.0000000000e+00 -9.4014460731e+01 9.4014460731e+01 0.0000000000e+00 0.0000e+00 -1.0000e+00
      -13  1    1    2    0    0 +9.3506508160e+01 -1.3718262442e+02 +1.9643209908e+01 1.6717773538e+02 0.0000000000e+00 0.0000e+00 -1.0000e+00
       13  1    1    2    0    0 -9.3506508160e+01 +1.3718262442e+02 +3.2007815865e+02 3.6057255464e+02 0.0000000000e+00 0.0000e+00 1.0000e+00
<mgrwt>
<rscale>  0 0.40386849E+03</rscale>
<asrwt>0</asrwt>
<pdfrwt beam="1">  1        2 0.66728588E-01 0.40386849E+03</pdfrwt>
<pdfrwt beam="2">  1       -2 0.14463763E-01 0.40386849E+03</pdfrwt>
<totfact> 0.29092460E+03</totfact>
</mgrwt>
<rwgt>
<wgt id='morphing_basis_vector_1'> +2.5959840e-04 </wgt>
<wgt id='morphing_basis_vector_2'> +1.4105931e-04 </wgt>
<wgt id='morphing_basis_vector_3'> +1.6617488e-04 </wgt>
<wgt id='morphing_basis_vector_4'> +3.7811706e-05 </wgt>
<wgt id='morphing_basis_vector_5'> +3.8952670e-05 </wgt>
</rwgt>
</event>
<event>
 4      1 +3.1894900e-05 3.91917700e+02 7.81860800e-03 9.68060900e-02
        2 -1    0    0  501    0 +0.0000000000e+00 +0.0000000000e+00 +5.0722920645e+02 5.0722920645e+02 0.0000000000e+00 0.0000e+00 1.0000e+00
       -2 -1    0    0    0  501 -0.0000000000e+00 -0.0000000000e+00 -7.5705182621e+01 7.5705182621e+01 0.0000000000e+00 0.0000e+00 -1.0000e+00
      -13  1    1    2    0    0 +3.5051915410e+01 +1.1009083002e+02 -1.9655880499e+01 1.1719633641e+02 0.0000000000e+00 0.0000e+00 -1.0000e+00
       13  1    1    2    0    0 -3.5051915410e+01 -1.1009083002e+02 +4.5117990433e+02 4.6573805266e+02 0.0000000000e+00 0.0000e+00 1.0000e+00
<mgrwt>
<rscale>  0 0.39191774E+03</rscale>
<asrwt>0</asrwt>
<pdfrwt beam="1">  1        2 0.78035261E-01 0.39191774E+03</pdfrwt>
<pdfrwt beam="2">  1       -2 0.11646951E-01 0.39191774E+03</pdfrwt>
<totfact> 0.34384877E+03</totfact>
</mgrwt>
<rwgt>
<wgt id='morphing_basis_vector_1'> +2.3936934e-04 </wgt>
<wgt id='morphing_basis_vector_2'> +1.2870954e-04 </wgt>
<wgt id='morphing_basis_vector_3'> +1.5190447e-04 </wgt>
<wgt id='morphing_basis_vector_4'> +3.2465723e-05 </wgt>
<wgt id='morphing_basis_vector_5'> +3.0595899e-05 </wgt>
</rwgt>
</event>
<event>
 4      1 +3.1894900e-05 3.97304500e+02 7.81860800e-03 9.66443200e-02
        2 -1    0    0  501    0 +0.0000000000e+00 +0.0000000000e+00 +7.8051198870e+01 7.8051198870e+01 0.0000000000e+00 0.0000e+00 -1.0000e+00
       -2 -1    0    0    0  501 -0.0000000000e+00 -0.0000000000e+00 -5.0560040137e+02 5.0560040137e+02 0.0000000000e+00 0.0000e+00 1.0000e+00
      -13  1    1    2    0    0 -1.3106513647e+02 +1.3834372744e+02 -2.9616680500e+02 3.5218153459e+02 0.0000000000e+00 0.0000e+00 1.0000e+00
       13  1    1    2    0    0 +1.3106513647e+02 -1.3834372744e+02 -1.3138239750e+02 2.3147006565e+02 0.0000000000e+00 0.0000e+00 -1.0000e+00
<mgrwt>
<rscale>  0 0.39730451E+03</rscale>
<asrwt>0</asrwt>
<pdfrwt beam="1">  1        2 0.12007877E-01 0.39730451E+03</pdfrwt>
<pdfrwt beam="2">  1       -2 0.77784678E-01 0.39730451E+03</pdfrwt>
<totfact> 0.10020292E+03</totfact>
</mgrwt>
<rwgt>
<wgt id='morphing_basis_vector_1'> +2.5055294e-04 </wgt>
<wgt id='morphing_basis_vector_2'> +1.4099217e-04 </wgt>
<wgt id='morphing_basis_vector_3'> +1.5601883e-04 </wgt>
<wgt id='morphing_basis_vector_4'> +3.4958333e-05 </wgt>
<wgt id='morphing_basis_vector_5'> +3.4354923e-05 </wgt>
</rwgt>
</event>
<event>
 4      1 +3.1894900e-05 4.16558100e+02 7.81860800e-03 9.60876800e-02
        2 -1    0    0  501    0 +0.0000000000e+00 +0.0000000000e+00 +6.6185319795e+02 6.6185319795e+02 0.0000000000e+00 0.0000e+00 -1.0000e+00
       -2 -1    0    0    0  501 -0.0000000000e+00 -0.0000000000e+00 -6.5543491674e+01 6.5543491674e+01 0.0000000000e+00 0.0000e+00 1.0000e+00
      -13  1    1    2    0    0 +9.3846686871e+01 -1.1508522373e+02 +4.3134739241e+01 1.5463639638e+02 0.0000000000e+00 0.0000e+00 1.0000e+00
       13  1    1    2    0    0 -9.3846686871e+01 +1.1508522373e+02 +5.5317496703e+02 5.7276029324e+02 0.0000000000e+00 0.0000e+00 -1.0000e+00
<mgrwt>
<rscale>  0 0.41655813E+03</rscale>
<asrwt>0</asrwt>
<pdfrwt beam="1">  1        2 0.10182356E+00 0.41655813E+03</pdfrwt>
<pdfrwt beam="2">  1       -2 0.10083615E-01 0.41655813E+03</pdfrwt>
<totfact> 0.31756916E+03</totfact>
</mgrwt>
<rwgt>
<wgt id='morphing_basis_vector_1'> +2.8163624e-04 </wgt>
<wgt id='morphing_basis_vector_2'> +1.5213896e-04 </wgt>
<wgt id='morphing_basis_vector_3'> +1.8371787e-04 </wgt>
<wgt id='morphing_basis_vector_4'> +4.4325156e-05 </wgt>
<wgt id='morphing_basis_vector_5'> +4.9180941e-05 </wgt>
</rwgt>
</event>
<event>
 4      1 +3.1894900e-05 3.87028700e+02 7.81860800e-03 9.69553500e-02
        2 -1    0    0  501    0 +0.0000000000e+00 +0.0000000000e+00 +2.2585510397e+02 2.2585510397e+02 0.0000000000e+00 0.0000e+00 -1.0000e+00
       -2 -1    0    0    0  501 -0.0000000000e+00 -0.0000000000e+00 -1.6580456179e+02 1.6580456179e+02 0.0000000000e+00 0.0000e+00 1.0000e+00
      -13  1    1    2    0    0 +6.7864257847e+01 -1.7580779917e+02 +7.4527210668e+01 2.0265301595e+02 0.0000000000e+00 0.0000e+00 1.0000e+00
       13  1    1    2    0    0 -6.7864257847e+01 +1.7580779917e+02 -1.4476668483e+01 1.8900664981e+02 0.0000000000e+00 0.0000e+00 -1.0000e+00
<mgrwt>
<rscale>  0 0.38702871E+03</rscale>
<asrwt>0</asrwt>
<pdfrwt beam="1">  1        2 0.34746939E-01 0.38702871E+03</pdfrwt>
<pdfrwt beam="2">  1       -2 0.25508394E-01 0.38702871E+03</pdfrwt>
<totfact> 0.23702505E+03</totfact>
</mgrwt>
<rwgt>
<wgt id='morphing_basis_vector_1'> +2.4763802e-04 </wgt>
<wgt id='morphing_basis_vector_2'> +1.7304989e-04 </wgt>
<wgt id='morphing_basis_vector_3'> +1.2999451e-04 </wgt>
<wgt id='morphing_basis_vector_4'> +3.2548433e-05 </wgt>
<wgt id='morphing_basis_vector_5'> +2.8597245e-05 </wgt>
</rwgt>
</event>
<event>
 4      1 +3.1894900e-05 3.99349100e+02 7.81860800e-03 9.65836300e-02
        2 -1    0    0  501    0 +0.0000000000e+00 +0.0000000000e+00 +4.2800307807e+02 4.2800307807e+02 0.0000000000e+00 0.0000e+00 1.0000e+00
       -2 -1    0    0    0  501 -0.0000000000e+00 -0.0000000000e+00 -9.3153351837e+01 9.3153351837e+01 0.0000000000e+00 0.0000e+00 -1.0000e+00
      -13  1    1    2    0    0 -9.9774229483e+01 +3.2927585926e+01 -5.4161868157e+01 1.1820588287e+02 0.0000000000e+00 0.0000e+00 -1.0000e+00
       13  1    1    2    0    0 +9.9774229483e+01 -3.2927585926e+01 +3.8901159439e+02 4.0295054704e+02 0.0000000000e+00 0.0000e+00 1.0000e+00
<mgrwt>
<rscale>  0 0.39934908E+03</rscale>
<asrwt>0</asrwt>
<pdfrwt beam="1">  1        2 0.65846626E-01 0.39934908E+03</pdfrwt>
<pdfrwt beam="2">  1       -2 0.14331285E-01 0.39934908E+03</pdfrwt>
<totfact> 0.29954743E+03</totfact>
</mgrwt>
<rwgt>
<wgt id='morphing_basis_vector_1'> +2.5139388e-04 </wgt>
<wgt id='morphing_basis_vector_2'> +1.3508501e-04 </wgt>
<wgt id='morphing_basis_vector_3'> +1.6098906e-04 </wgt>
<wgt id='morphing_basis_vector_4'> +3.5679036e-05 </wgt>
<wgt id='morphing_basis_vector_5'> +3.5619592e-05 </wgt>
</rwgt>
</event>
<event>
 4      1 +3.1894900e-05 3.98754000e+02 7.81860800e-03 9.66012500e-02
        2 -1    0    0  501    0 +0.0000000000e+00 +0.0000000000e+00 +1.5288211183e+03 1.5288211183e+03 0.0000000000e+00 0.0000e+00 -1.0000e+00
       -2 -1    0    0    0  501 -0.0000000000e+00 -0.0000000000e+00 -2.6001203185e+01 2.6001203185e+01 0.0000000000e+00 0.0000e+00 1.0000e+00
      -13  1    1    2    0    0 +9.5660019268e+00 -1.9893819188e+02 +7.8699237908e+02 8.1180349674e+02 0.0000000000e+00 0.0000e+00 1.0000e+00
       13  1    1    2    0    0 -9.5660019268e+00 +1.9893819188e+02 +7.1582753598e+02 7.4301882470e+02 0.0000000000e+00 0.0000e+00 -1.0000e+00
<mgrwt>
<rscale>  0 0.39875400E+03</rscale>
<asrwt>0</asrwt>
<pdfrwt beam="1">  1        2 0.23520318E+00 0.39875400E+03</pdfrwt>
<pdfrwt beam="2">  1       -2 0.40001863E-02 0.39875400E+03</pdfrwt>
<totfact> 0.38691961E+03</totfact>
</mgrwt>
<rwgt>
<wgt id='morphing_basis_vector_1'> +2.5960534e-04 </wgt>
<wgt id='morphing_basis_vector_2'> +1.6264866e-04 </wgt>
<wgt id='morphing_basis_vector_3'> +1.5148382e-04 </wgt>
<wgt id='morphing_basis_vector_4'> +3.6050956e-05 </wgt>
<wgt id='morphing_basis_vector_5'> +3.5801090e-05 </wgt>
</rwgt>
</event>
<event>
 4      1 +3.1894900e-05 3.64014500e+02 7.81860800e-03 9.76911000e-02
        2 -1    0    0  501    0 +0.0000000000e+00 +0.0000000000e+00 +1.5211271753e+02 1.5211271753e+02 0.0000000000e+00 0.0000e+00 1.0000e+00
       -2 -1    0    0    0  501 -0.0000000000e+00 -0.0000000000e+00 -2.1777686339e+02 2.1777686339e+02 0.0000000000e+00 0.0000e+00 -1.0000e+00
      -13  1    1    2    0    0 +1.3343239739e+02 -1.1441455904e+02 +1.5171629539e+01 1.7642299832e+02 0.0000000000e+00 0.0000e+00 -1.0000e+00
       13  1    1    2    0    0 -1.3343239739e+02 +1.1441455904e+02 -8.0835775396e+01 1.9346658259e+02 0.0000000000e+00 0.0000e+00 1.0000e+00
<mgrwt>
<rscale>  0 0.36401445E+03</rscale>
<asrwt>0</asrwt>
<pdfrwt beam="1">  1        2 0.23401957E-01 0.36401445E+03</pdfrwt>
<pdfrwt beam="2">  1       -2 0.33504133E-01 0.36401445E+03</pdfrwt>
<totfact> 0.23205567E+03</totfact>
</mgrwt>
<rwgt>
<wgt id='morphing_basis_vector_1'> +2.1351179e-04 </wgt>
<wgt id='morphing_basis_vector_2'> +1.5215243e-04 </wgt>
<wgt id='morphing_basis_vector_3'> +1.0496076e-04 </wgt>
<wgt id='morphing_basis_vector_4'> +2.6530118e-05 </wgt>
<wgt id='morphing_basis_vector_5'> +1.6682316e-05 </wgt>
</rwgt>
</event>
<event>
 4      1 +3.1894900e-05 3.60718500e+02 7.81860800e-03 9.78012500e-02
        2 -1    0    0  501    0 +0.0000000000e+00 +0.0000000000e+00 +7.0231649291e+02 7.0231649291e+02 0.0000000000e+00 0.0000e+00 -1.0000e+00
       -2 -1    0    0    0  501 -0.0000000000e+00 -0.0000000000e+00 -4.6317377566e+01 4.6317377566e+01 0.0000000000e+00 0.0000e+00 1.0000e+00
      -13  1    1    2    0    0 -1.5936514611e+02 +4.6975634450e+01 +1.8234430811e+02 2.4668483278e+02 0.0000000000e+00 0.0000e+00 1.0000e+00
       13  1    1    2    0    0 +1.5936514611e+02 -4.6975634450e+01 +4.7365480724e+02 5.0194903770e+02 0.0000000000e+00 0.0000e+00 -1.0000e+00
<mgrwt>
<rscale>  0 0.36071850E+03</rscale>
<asrwt>0</asrwt>
<pdfrwt beam="1">  1        2 0.10804868E+00 0.36071850E+03</pdfrwt>
<pdfrwt beam="2">  1       -2 0.71257509E-02 0.36071850E+03</pdfrwt>
<totfact> 0.50349225E+03</totfact>
</mgrwt>
<rwgt>
<wgt id='morphing_basis_vector_1'> +1.9529484e-04 </wgt>
<wgt id='morphing_basis_vector_2'> +1.0822829e-04 </wgt>
<wgt id='morphing_basis_vector_3'> +1.1771910e-04 </wgt>
<wgt id='morphing_basis_vector_4'> +2.2305743e-05 </wgt>
<wgt id='morphing_basis_vector_5'> +1.4405662e-05 </wgt>
</rwgt>
</event>
<event>
 4      1 +3.1894900e-05 3.73633000e+02 7.81860800e-03 9.73766900e-02
        2 -1    0    0  501    0 +0.0000000000e+00 +0.0000000000e+00 +6.2383897284e+02 6.2383897284e+02 0.0000000000e+00 0.0000e+00 -1.0000e+00
       -2 -1    0    0    0  501 -0.0000000000e+00 -0.0000000000e+00 -5.5944572285e+01 5.5944572285e+01 0.0000000000e+00 0.0000e+00 1.0000e+00
      -13  1    1    2    0    0 +1.4457586076e+02 -1.1735394307e+02 +3.1131536463e+02 3.6275526698e+02 0.0000000000e+00 0.0000e+00 1.0000e+00
       13  1    1    2    0    0 -1.4457586076e+02 +1.1735394307e+02 +2.5657903592e+02 3.1702827814e+02 0.0000000000e+00 0.0000e+00 -1.0000e+00
<mgrwt>
<rscale>  0 0.37363300E+03</rscale>
<asrwt>0</asrwt>
<pdfrwt beam="1">  1        2 0.95975222E-01 0.37363300E+03</pdfrwt>
<pdfrwt beam="2">  1       -2 0.86068577E-02 0.37363300E+03</pdfrwt>
<totfact> 0.43388846E+03</totfact>
</mgrwt>
<rwgt>
<wgt id='morphing_basis_vector_1'> +2.2045905e-04 </wgt>
<wgt id='morphing_basis_vector_2'> +1.4011607e-04 </wgt>
<wgt id='morphing_basis_vector_3'> +1.2226221e-04 </wgt>
<wgt id='morphing_basis_vector_4'> +2.7450511e-05 </wgt>
<wgt id='morphing_basis_vector_5'> +2.0735346e-05 </wgt>
</rwgt>
</event>
<event>
 4      1 +3.1894900e-05 4.03375000e+02 7.81860800e-03 9.64652500e-02
        2 -1    0    0  501    0 +0.0000000000e+00 +0.0000000000e+00 +6.8820645100e+02 6.8820645100e+02 0.0000000000e+00 0.0000e+00 -1.0000e+00
       -2 -1    0    0    0  501 -0.0000000000e+00 -0.0000000000e+00 -5.9107053657e+01 5.9107053657e+01 0.0000000000e+00 0.0000e+00 1.0000e+00
      -13  1    1    2    0    0 -1.0000623399e+02 -1.7269377916e+02 +2.6042602267e+02 3.2809465323e+02 0.0000000000e+00 0.0000e+00 1.0000e+00
       13  1    1    2    0    0 +1.0000623399e+02 +1.7269377916e+02 +3.6867337467e+02 4.1921885142e+02 0.0000000000e+00 0.0000e+00 -1.0000e+00
<mgrwt>
<rscale>  0 0.40337504E+03</rscale>
<asrwt>0</asrwt>
<pdfrwt beam="1">  1        2 0.10587791E+00 0.40337504E+03</pdfrwt>
<pdfrwt beam="2">  1       -2 0.90933934E-02 0.40337504E+03</pdfrwt>
<totfact> 0.35578061E+03</totfact>
</mgrwt>
<rwgt>
<wgt id='morphing_basis_vector_1'> +2.6279970e-04 </wgt>
<wgt id='morphing_basis_vector_2'> +1.5296535e-04 </wgt>
<wgt id='morphing_basis_vector_3'> +1.6179214e-04 </wgt>
<wgt id='morphing_basis_vector_4'> +3.7766648e-05 </wgt>
<wgt id='morphing_basis_vector_5'> +3.8846596e-05 </wgt>
</rwgt>
</event>
<event>
 4      1 +3.1894900e-05 4.29853100e+02 7.81860800e-03 9.57216400e-02
        2 -1    0    0  501    0 +0.0000000000e+00 +0.0000000000e+00 +1.1288457425e+03 1.1288457425e+03 0.0000000000e+00 0.0000e+00 -1.0000e+00
       -2 -1    0    0    0  501 -0.0000000000e+00 -0.0000000000e+00 -4.0920928650e+01 4.0920928650e+01 0.0000000000e+00 0.0000e+00 1.0000e+00
      -13  1    1    2    0    0 -1.9096219785e+02 -5.4087834894e+01 +3.1953436147e+02 3.7615723182e+02 0.0000000000e+00 0.0000e+00 1.0000e+00
       13  1    1    2    0    0 +1.9096219785e+02 +5.4087834894e+01 +7.6839045242e+02 7.9360943937e+02 0.0000000000e+00 0.0000e+00 -1.0000e+00
<mgrwt>
<rscale>  0 0.42985307E+03</rscale>
<asrwt>0</asrwt>
<pdfrwt beam="1">  1        2 0.17366855E+00 0.42985307E+03</pdfrwt>
<pdfrwt beam="2">  1       -2 0.62955283E-02 0.42985307E+03</pdfrwt>
<totfact> 0.32552593E+03</totfact>
</mgrwt>
<rwgt>
<wgt id='morphing_basis_vector_1'> +3.0868968e-04 </wgt>
<wgt id='morphing_basis_vector_2'> +1.7155796e-04 </wgt>
<wgt id='morphing_basis_vector_3'> +2.0207654e-04 </wgt>
<wgt id='morphing_basis_vector_4'> +5.2080019e-05 </wgt>
<wgt id='morphing_basis_vector_5'> +6.1716408e-05 </wgt>
</rwgt>
</event>
<event>
 4      1 +3.1894900e-05 3.83781600e+02 7.81860800e-03 9.70557800e-02
        2 -1    0    0  501    0 +0.0000000000e+00 +0.0000000000e+00 +4.9480024100e+02 4.9480024100e+02 0.0000000000e+00 0.0000e+00 1.0000e+00
       -2 -1    0    0    0  501 -0.0000000000e+00 -0.0000000000e+00 -7.4418085104e+01 7.4418085104e+01 0.0000000000e+00 0.0000e+00 -1.0000e+00
      -13  1    1    2    0    0 +1.7221586785e+02 +6.4938271885e+01 +1.2967730646e+02 2.2514770286e+02 0.0000000000e+00 0.0000e+00 -1.0000e+00
       13  1    1    2    0    0 -1.7221586785e+02 -6.4938271885e+01 +2.9070484944e+02 3.4407062324e+02 0.0000000000e+00 0.0000e+00 1.0000e+00
<mgrwt>
<rscale>  0 0.38378164E+03</rscale>
<asrwt>0</asrwt>
<pdfrwt beam="1">  1        2 0.76123112E-01 0.38378164E+03</pdfrwt>
<pdfrwt beam="2">  1       -2 0.11448937E-01 0.38378164E+03</pdfrwt>
<totfact> 0.36299160E+03</totfact>
</mgrwt>
<rwgt>
<wgt id='morphing_basis_vector_1'> +2.2899582e-04 </wgt>
<wgt id='morphing_basis_vector_2'> +1.2878238e-04 </wgt>
<wgt id='morphing_basis_vector_3'> +1.4023157e-04 </wgt>
<wgt id='morphing_basis_vector_4'> +2.9603913e-05 </wgt>
<wgt id='morphing_basis_vector_5'> +2.5774633e-05 </wgt>
</rwgt>
</event>
<event>
 4      1 +3.1894900e-05 4.02300300e+02 7.81860800e-03 9.64967100e-02
        2 -1    0    0  501    0 +0.0000000000e+00 +0.0000000000e+00 +6.3371381072e+02 6.3371381072e+02 0.0000000000e+00 0.0000e+00 1.0000e+00
       -2 -1    0    0    0  501 -0.0000000000e+00 -0.0000000000e+00 -6.3848050218e+01 6.3848050218e+01 0.0000000000e+00 0.0000e+00 -1.0000e+00
      -13  1    1    2    0    0 +1.9935710736e+02 -1.0567476836e+01 +3.2763354339e+02 3.8366478413e+02 0.0000000000e+00 0.0000e+00 -1.0000e+00
       13  1    1    2    0    0 -1.9935710736e+02 +1.0567476836e+01 +2.4223221711e+02 3.1389707681e+02 0.0000000000e+00 0.0000e+00 1.0000e+00
<mgrwt>
<rscale>  0 0.40230034E+03</rscale>
<asrwt>0</asrwt>
<pdfrwt beam="1">  1        2 0.97494428E-01 0.40230034E+03</pdfrwt>
<pdfrwt beam="2">  1       -2 0.98227774E-02 0.40230034E+03</pdfrwt>
<totfact> 0.34790219E+03</totfact>
</mgrwt>
<rwgt>
<wgt id='morphing_basis_vector_1'> +2.6873592e-04 </wgt>
<wgt id='morphing_basis_vector_2'> +1.7569403e-04 </wgt>
<wgt id='morphing_basis_vector_3'> +1.5315097e-04 </wgt>
<wgt id='morphing_basis_vector_4'> +3.7687184e-05 </wgt>
<wgt id='morphing_basis_vector_5'> +3.8556754e-05 </wgt>
</rwgt>
</event>
<event>
 4      1 +3.1894900e-05 3.95621100e+02 7.81860800e-03 9.66945800e-02
        2 -1    0    0  501    0 +0.0000000000e+00 +0.0000000000e+00 +7.9881062638e+02 7.9881062638e+02 0.0000000000e+00 0.0000e+00 1.0000e+00
       -2 -1    0    0    0  501 -0.0000000000e+00 -0.0000000000e+00 -4.8984096974e+01 4.8984096974e+01 0.0000000000e+00 0.0000e+00 -1.0000e+00
      -13  1    1    2    0    0 +1.5766012654e+02 -1.7472592471e+01 +1.2165538373e+02 1.9990507592e+02 0.0000000000e+00 0.0000e+00 -1.0000e+00
       13  1    1    2    0    0 -1.5766012654e+02 +1.7472592471e+01 +6.2817114568e+02 6.4788964744e+02 0.0000000000e+00 0.0000e+00 1.0000e+00
<mgrwt>
<rscale>  0 0.39562112E+03</rscale>
<asrwt>0</asrwt>
<pdfrwt beam="1">  1        2 0.12289393E+00 0.39562112E+03</pdfrwt>
<pdfrwt beam="2">  1       -2 0.75360155E-02 0.39562112E+03</pdfrwt>
<totfact> 0.39585836E+03</totfact>
</mgrwt>
<rwgt>
<wgt id='morphing_basis_vector_1'> +2.4575207e-04 </wgt>
<wgt id='morphing_basis_vector_2'> +1.3323703e-04 </wgt>
<wgt id='morphing_basis_vector_3'> +1.5592752e-04 </wgt>
<wgt id='morphing_basis_vector_4'> +3.4068077e-05 </wgt>
<wgt id='morphing_basis_vector_5'> +3.3069833e-05 </wgt>
</rwgt>
</event>
<event>
 4      1 +3.1894900e-05 3.74169800e+02 7.81860800e-03 9.73594400e-02
        2 -1    0    0  501    0 +0.0000000000e+00 +0.0000000000e+00 +9.3270998550e+02 9.3270998550e+02 0.0000000000e+00 0.0000e+00 -1.0000e+00
       -2 -1    0    0    0  501 -0.0000000000e+00 -0.0000000000e+00 -3.7525870904e+01 3.7525870904e+01 0.0000000000e+00 0.0000e+00 1.0000e+00
      -13  1    1    2    0    0 +1.2233216099e+02 +6.9790300799e+01 +1.2827026971e+02 1.9049699680e+02 0.0000000000e+00 0.0000e+00 1.0000e+00
       13  1    1    2    0    0 -1.2233216099e+02 -6.9790300799e+01 +7.6691384489e+02 7.7973885961e+02 0.0000000000e+00 0.0000e+00 -1.0000e+00
<mgrwt>
<rscale>  0 0.37416977E+03</rscale>
<asrwt>0</asrwt>
<pdfrwt beam="1">  1        2 0.14349383E+00 0.37416977E+03</pdfrwt>
<pdfrwt beam="2">  1       -2 0.57732116E-02 0.37416977E+03</pdfrwt>
<totfact> 0.48544237E+03</totfact>
</mgrwt>
<rwgt>
<wgt id='morphing_basis_vector_1'> +2.1282748e-04 </wgt>
<wgt id='morphing_basis_vector_2'> +1.1512334e-04 </wgt>
<wgt id='morphing_basis_vector_3'> +1.3200686e-04 </wgt>
<wgt id='morphing_basis_vector_4'> +2.5987859e-05 </wgt>
<wgt id='morphing_basis_vector_5'> +2.0450534e-05 </wgt>
</rwgt>
</event>
<event>
 4      1 +3.1894900e-05 4.04061300e+02 7.81860800e-03 9.64452200e-02
        2 -1    0    0  501    0 +0.0000000000e+00 +0.0000000000e+00 +1.0989377742e+03 1.0989377742e+03 0.0000000000e+00 0.0000e+00 -1.0000e+00
       -2 -1    0    0    0  501 -0.0000000000e+00 -0.0000000000e+00 -3.7141677627e+01 3.7141677627e+01 0.0000000000e+00 0.0000e+00 1.0000e+00
      -13  1    1    2    0    0 -1.8030720830e+02 +4.5325365401e+01 +3.0859415332e+02 3.6027132772e+02 0.0000000000e+00 0.0000e+00 1.0000e+00
       13  1    1    2    0    0 +1.8030720830e+02 -4.5325365401e+01 +7.5320194330e+02 7.7580812415e+02 0.0000000000e+00 0.0000e+00 -1.0000e+00
<mgrwt>
<rscale>  0 0.40406134E+03</rscale>
<asrwt>0</asrwt>
<pdfrwt beam="1">  1        2 0.16906733E+00 0.40406134E+03</pdfrwt>
<pdfrwt beam="2">  1       -2 0.57141051E-02 0.40406134E+03</pdfrwt>
<totfact> 0.39225229E+03</totfact>
</mgrwt>
<rwgt>
<wgt id='morphing_basis_vector_1'> +2.6093857e-04 </wgt>
<wgt id='morphing_basis_vector_2'> +1.4433328e-04 </wgt>
<wgt id='morphing_basis_vector_3'> +1.6549153e-04 </wgt>
<wgt id='morphing_basis_vector_4'> +3.7947428e-05 </wgt>
<wgt id='morphing_basis_vector_5'> +3.9162903e-05 </wgt>
</rwgt>
</event>
<event>
 4      1 +3.1894900e-05 4.13535500e+02 7.81860800e-03 9.61729300e-02
        2 -1    0    0  501    0 +0.0000000000e+00 +0.0000000000e+00 +4.3069867501e+02 4.3069867501e+02 0.0000000000e+00 0.0000e+00 1.0000e+00
       -2 -1    0    0    0  501 -0.0000000000e+00 -0.0000000000e+00 -9.9264070543e+01 9.9264070543e+01 0.0000000000e+00 0.0000e+00 -1.0000e+00
      -13  1    1    2    0    0 -1.0829807573e+02 -2.9438130945e+01 -5.6835240023e+01 1.2579873318e+02 0.0000000000e+00 0.0000e+00 -1.0000e+00
       13  1    1    2    0    0 +1.0829807573e+02 +2.9438130945e+01 +3.8826984449e+02 4.0416401238e+02 0.0000000000e+00 0.0000e+00 1.0000e+00
<mgrwt>
<rscale>  0 0.41353551E+03</rscale>
<asrwt>0</asrwt>
<pdfrwt beam="1">  1        2 0.66261333E-01 0.41353551E+03</pdfrwt>
<pdfrwt beam="2">  1       -2 0.15271396E-01 0.41353551E+03</pdfrwt>
<totfact> 0.26895339E+03</totfact>
</mgrwt>
<rwgt>
<wgt id='morphing_basis_vector_1'> +2.7592320e-04 </wgt>
<wgt id='morphing_basis_vector_2'> +1.4843933e-04 </wgt>
<wgt id='morphing_basis_vector_3'> +1.7967610e-04 </wgt>
<wgt id='morphing_basis_vector_4'> +4.2683509e-05 </wgt>
<wgt id='morphing_basis_vector_5'> +4.6586189e-05 </wgt>
</rwgt>
</event>
<event>
 4      1 +3.1894900e-05 3.77824300e+02 7.81860800e-03 9.72428500e-02
        2 -1    0    0  501    0 +0.0000000000e+00 +0.0000000000e+00 +1.7034955844e+03 1.7034955844e+03 0.0000000000e+00 0.0000e+00 1.0000e+00
       -2 -1    0    0    0  501 -0.0000000000e+00 -0.0000000000e+00 -2.0949742796e+01 2.0949742796e+01 0.0000000000e+00 0.0000e+00 -1.0000e+00
      -13  1    1    2    0    0 +1.3641639849e+02 -1.2824519575e+02 +7.2657469763e+02 7.5031130556e+02 0.0000000000e+00 0.0000e+00 -1.0000e+00
       13  1    1    2    0    0 -1.3641639849e+02 +1.2824519575e+02 +9.5597114397e+02 9.7413402164e+02 0.0000000000e+00 0.0000e+00 1.0000e+00
<mgrwt>
<rscale>  0 0.37782427E+03</rscale>
<asrwt>0</asrwt>
<pdfrwt beam="1">  1        2 0.26207613E+00 0.37782427E+03</pdfrwt>
<pdfrwt beam="2">  1       -2 0.32230387E-02 0.37782427E+03</pdfrwt>
<totfact> 0.43003508E+03</totfact>
</mgrwt>
<rwgt>
<wgt id='morphing_basis_vector_1'> +2.2188297e-04 </wgt>
<wgt id='morphing_basis_vector_2'> +1.2935417e-04 </wgt>
<wgt id='morphing_basis_vector_3'> +1.3180116e-04 </wgt>
<wgt id='morphing_basis_vector_4'> +2.7854680e-05 </wgt>
<wgt id='morphing_basis_vector_5'> +2.2589004e-05 </wgt>
</rwgt>
</event>
<event>
 4      1 +3.1894900e-05 4.15960900e+02 7.81860800e-03 9.61044700e-02
        2 -1    0    0  501    0 +0.0000000000e+00 +0.0000000000e+00 +2.1461761392e+03 2.1461761392e+03 0.0000000000e+00 0.0000e+00 -1.0000e+00
       -2 -1    0    0    0  501 -0.0000000000e+00 -0.0000000000e+00 -2.0154853995e+01 2.0154853995e+01 0.0000000000e+00 0.0000e+00 1.0000e+00
      -13  1    1    2    0    0 +1.4303631825e+02 -1.4883255042e+02 +9.3070752558e+02 9.5332419175e+02 0.0000000000e+00 0.0000e+00 1.0000e+00
       13  1    1    2    0    0 -1.4303631825e+02 +1.4883255042e+02 +1.1953137596e+03 1.2130068014e+03 0.0000000000e+00 0.0000e+00 -1.0000e+00
<mgrwt>
<rscale>  0 0.41596090E+03</rscale>
<asrwt>0</asrwt>
<pdfrwt beam="1">  1        2 0.33018077E+00 0.41596090E+03</pdfrwt>
<pdfrwt beam="2">  1       -2 0.31007485E-02 0.41596090E+03</pdfrwt>
<totfact> 0.26239520E+03</totfact>
</mgrwt>
<rwgt>
<wgt id='morphing_basis_vector_1'> +2.8587047e-04 </wgt>
<wgt id='morphing_basis_vector_2'> +1.6789277e-04 </wgt>
<wgt id='morphing_basis_vector_3'> +1.7831425e-04 </wgt>
<wgt id='morphing_basis_vector_4'> +4.3915543e-05 </wgt>
<wgt id='morphing_basis_vector_5'> +4.9000602e-05 </wgt>
</rwgt>
</event>
<event>
 4      1 +3.1894900e-05 3.65166800e+02 7.81860800e-03 9.76528800e-02
        2 -1    0    0  501    0 +0.0000000000e+00 +0.0000000000e+00 +1.6289537374e+02 1.6289537374e+02 0.0000000000e+00 0.0000e+00 -1.0000e+00
       -2 -1    0    0    0  501 -0.0000000000e+00 -0.0000000000e+00 -2.0465093311e+02 2.0465093311e+02 0.0000000000e+00 0.0000e+00 1.0000e+00
      -13  1    1    2    0    0 +1.2992333460e+01 -3.7155738919e+01 -2.0032962365e+02 2.0416000532e+02 0.0000000000e+00 0.0000e+00 1.0000e+00
       13  1    1    2    0    0 -1.2992333460e+01 +3.7155738919e+01 +1.5857406428e+02 1.6338630153e+02 0.0000000000e+00 0.0000e+00 -1.0000e+00
<mgrwt>
<rscale>  0 0.36516676E+03</rscale>
<asrwt>0</asrwt>
<pdfrwt beam="1">  1        2 0.25060827E-01 0.36516676E+03</pdfrwt>
<pdfrwt beam="2">  1       -2 0.31484759E-01 0.36516676E+03</pdfrwt>
<totfact> 0.23914534E+03</totfact>
</mgrwt>
<rwgt>
<wgt id='morphing_basis_vector_1'> +2.0000688e-04 </wgt>
<wgt id='morphing_basis_vector_2'> +1.0764342e-04 </wgt>
<wgt id='morphing_basis_vector_3'> +1.2335280e-04 </wgt>
<wgt id='morphing_basis_vector_4'> +2.3201848e-05 </wgt>
<wgt id='morphing_basis_vector_5'> +1.6201703e-05 </wgt>
</rwgt>
</event>
<event>
 4      1 +3.1894900e-05 4.16695400e+02 7.81860800e-03 9.60838300e-02
        2 -1    0    0  501    0 +0.0000000000e+00 +0.0000000000e+00 +6.9200518650e+02 6.9200518650e+02 0.0000000000e+00 0.0000e+00 1.0000e+00
       -2 -1    0    0    0  501 -0.0000000000e+00 -0.0000000000e+00 -6.2728947368e+01 6.2728947368e+01 0.0000000000e+00 0.0000e+00 -1.0000e+00
      -13  1    1    2    0    0 -1.3495370777e+02 -3.0129189503e+00 +2.7186301290e+01 1.3769777013e+02 0.0000000000e+00 0.0000e+00 -1.0000e+00
       13  1    1    2    0    0 +1.3495370777e+02 +3.0129189503e+00 +6.0208993784e+02 6.1703636374e+02 0.0000000000e+00 0.0000e+00 1.0000e+00
<mgrwt>
<rscale>  0 0.41669537E+03</rscale>
<asrwt>0</asrwt>
<pdfrwt beam="1">  1        2 0.10646233E+00 0.41669537E+03</pdfrwt>
<pdfrwt beam="2">  1       -2 0.96506077E-02 0.41669537E+03</pdfrwt>
<totfact> 0.32252302E+03</totfact>
</mgrwt>
<rwgt>
<wgt id='morphing_basis_vector_1'> +2.8176534e-04 </wgt>
<wgt id='morphing_basis_vector_2'> +1.5190141e-04 </wgt>
<wgt id='morphing_basis_vector_3'> +1.8401661e-04 </wgt>
<wgt id='morphing_basis_vector_4'> +4.4403336e-05 </wgt>
<wgt id='morphing_basis_vector_5'> +4.9292487e-05 </wgt>
</rwgt>
</event>
<event>
 4      1 +3.1894900e-05 3.74640200e+02 7.81860800e-03 9.73443500e-02
        2 -1    0    0  501    0 +0.0000000000e+00 +0.0000000000e+00 +5.0535272528e+02 5.0535272528e+02 0.0000000000e+00 0.0000e+00 -1.0000e+00
       -2 -1    0    0    0  501 -0.0000000000e+00 -0.0000000000e+00 -6.9434321336e+01 6.9434321336e+01 0.0000000000e+00 0.0000e+00 1.0000e+00
      -13  1    1    2    0    0 -7.3089452842e+01 -1.7233881324e+02 +2.0754345304e+02 2.7949422099e+02 0.0000000000e+00 0.0000e+00 1.0000e+00
       13  1    1    2    0    0 +7.3089452842e+01 +1.7233881324e+02 +2.2837495090e+02 2.9529282563e+02 0.0000000000e+00 0.0000e+00 -1.0000e+00
<mgrwt>
<rscale>  0 0.37464022E+03</rscale>
<asrwt>0</asrwt>
<pdfrwt beam="1">  1        2 0.77746571E-01 0.37464022E+03</pdfrwt>
<pdfrwt beam="2">  1       -2 0.10682204E-01 0.37464022E+03</pdfrwt>
<totfact> 0.39473651E+03</totfact>
</mgrwt>
<rwgt>
<wgt id='morphing_basis_vector_1'> +2.1893666e-04 </wgt>
<wgt id='morphing_basis_vector_2'> +1.3192669e-04 </wgt>
<wgt id='morphing_basis_vector_3'> +1.2657626e-04 </wgt>
<wgt id='morphing_basis_vector_4'> +2.7171307e-05 </wgt>
<wgt id='morphing_basis_vector_5'> +2.1046736e-05 </wgt>
</rwgt>
</event>
<event>
 4      1 +3.1894900e-05 3.85280900e+02 7.81860800e-03 9.70092800e-02
        2 -1    0    0  501    0 +0.0000000000e+00 +0.0000000000e+00 +1.1507466403e+02 1.1507466403e+02 0.0000000000e+00 0.0000e+00 -1.0000e+00
       -2 -1    0    0    0  501 -0.0000000000e+00 -0.0000000000e+00 -3.2248927037e+02 3.2248927037e+02 0.0000000000e+00 0.0000e+00 1.0000e+00
      -13  1    1    2    0    0 +5.3807469394e+01 +4.5444287450e+01 -3.0734302351e+02 3.1530962739e+02 0.0000000000e+00 0.0000e+00 1.0000e+00
       13  1    1    2    0    0 -5.3807469394e+01 -4.5444287450e+01 +9.9928417169e+01 1.2225430701e+02 0.0000000000e+00 0.0000e+00 -1.0000e+00
<mgrwt>
<rscale>  0 0.38528091E+03</rscale>
<asrwt>0</asrwt>
<pdfrwt beam="1">  1        2 0.17703795E-01 0.38528091E+03</pdfrwt>
<pdfrwt beam="2">  1       -2 0.49613733E-01 0.38528091E+03</pdfrwt>
<totfact> 0.15654538E+03</totfact>
</mgrwt>
<rwgt>
<wgt id='morphing_basis_vector_1'> +2.2895141e-04 </wgt>
<wgt id='morphing_basis_vector_2'> +1.2293645e-04 </wgt>
<wgt id='morphing_basis_vector_3'> +1.4432075e-04 </wgt>
<wgt id='morphing_basis_vector_4'> +2.9830836e-05 </wgt>
<wgt id='morphing_basis_vector_5'> +2.6495947e-05 </wgt>
</rwgt>
</event>
<event>
 4      1 +3.1894900e-05 3.64492700e+02 7.81860800e-03 9.76752200e-02
        2 -1    0    0  501    0 +0.0000000000e+00 +0.0000000000e+00 +1.6505341992e+03 1.6505341992e+03 0.0000000000e+00 0.0000e+00 -1.0000e+00
       -2 -1    0    0    0  501 -0.0000000000e+00 -0.0000000000e+00 -2.0123022997e+01 2.0123022997e+01 0.0000000000e+00 0.0000e+00 1.0000e+00
      -13  1    1    2    0    0 +1.5093874659e+01 +1.8021088041e+02 +7.1170024218e+02 7.3431670360e+02 0.0000000000e+00 0.0000e+00 1.0000e+00
       13  1    1    2    0    0 -1.5093874659e+01 -1.8021088041e+02 +9.1871093399e+02 9.3634051857e+02 0.0000000000e+00 0.0000e+00 -1.0000e+00
<mgrwt>
<rscale>  0 0.36449273E+03</rscale>
<asrwt>0</asrwt>
<pdfrwt beam="1">  1        2 0.25392823E+00 0.36449273E+03</pdfrwt>
<pdfrwt beam="2">  1       -2 0.30958510E-02 0.36449273E+03</pdfrwt>
<totfact> 0.48716843E+03</totfact>
</mgrwt>
<rwgt>
<wgt id='morphing_basis_vector_1'> +2.0291336e-04 </wgt>
<wgt id='morphing_basis_vector_2'> +1.1865736e-04 </wgt>
<wgt id='morphing_basis_vector_3'> +1.1833437e-04 </wgt>
<wgt id='morphing_basis_vector_4'> +2.3928702e-05 </wgt>
<wgt id='morphing_basis_vector_5'> +1.6157176e-05 </wgt>
</rwgt>
</event>
<event>
 4      1 +3.1894900e-05 3.60708000e+02 7.81860800e-03 9.78016000e-02
        2 -1    0    0  501    0 +0.0000000000e+00 +0.0000000000e+00 +4.2546568666e+02 4.2546568666e+02 0.0000000000e+00 0.0000e+00 -1.0000e+00
       -2 -1    0    0    0  501 -0.0000000000e+00 -0.0000000000e+00 -7.6451697415e+01 7.6451697415e+01 0.0000000000e+00 0.0000e+00 1.0000e+00
      -13  1    1    2    0    0 -1.7705738888e+01 -8.2381917073e+01 -4.7377284860e+01 9.6668922467e+01 0.0000000000e+00 0.0000e+00 1.0000e+00
       13  1    1    2    0    0 +1.7705738888e+01 +8.2381917073e+01 +3.9639127410e+02 4.0524846160e+02 0.0000000000e+00 0.0000e+00 -1.0000e+00
<mgrwt>
<rscale>  0 0.36070805E+03</rscale>
<asrwt>0</asrwt>
<pdfrwt beam="1">  1        2 0.65456258E-01 0.36070805E+03</pdfrwt>
<pdfrwt beam="2">  1       -2 0.11761800E-01 0.36070805E+03</pdfrwt>
<totfact> 0.41093655E+03</totfact>
</mgrwt>
<rwgt>
<wgt id='morphing_basis_vector_1'> +1.9408040e-04 </wgt>
<wgt id='morphing_basis_vector_2'> +1.0461410e-04 </wgt>
<wgt id='morphing_basis_vector_3'> +1.1910978e-04 </wgt>
<wgt id='morphing_basis_vector_4'> +2.1992349e-05 </wgt>
<wgt id='morphing_basis_vector_5'> +1.4323863e-05 </wgt>
</rwgt>
</event>
<event>
 4      1 +3.1894900e-05 3.86458000e+02 7.81860800e-03 9.69729200e-02
        2 -1    0    0  501    0 +0.0000000000e+00 +0.0000000000e+00 +1.9151549382e+02 1.9151549382e+02 0.0000000000e+00 0.0000e+00 1.0000e+00
       -2 -1    0    0    0  501 -0.0000000000e+00 -0.0000000000e+00 -1.9495787342e+02 1.9495787342e+02 0.0000000000e+00 0.0000e+00 -1.0000e+00
      -13  1    1    2    0    0 -5.9950488853e+01 +1.8362914587e+02 +3.1502533902e+00 1.9319329290e+02 0.0000000000e+00 0.0000e+00 -1.0000e+00
       13  1    1    2    0    0 +5.9950488853e+01 -1.8362914587e+02 -6.5926329847e+00 1.9328007434e+02 0.0000000000e+00 0.0000e+00 1.0000e+00
<mgrwt>
<rscale>  0 0.38645804E+03</rscale>
<asrwt>0</asrwt>
<pdfrwt beam="1">  1        2 0.29463922E-01 0.38645804E+03</pdfrwt>
<pdfrwt beam="2">  1       -2 0.29993519E-01 0.38645804E+03</pdfrwt>
<totfact> 0.21634121E+03</totfact>
</mgrwt>
<rwgt>
<wgt id='morphing_basis_vector_1'> +2.3859489e-04 </wgt>
<wgt id='morphing_basis_vector_2'> +1.4774061e-04 </wgt>
<wgt id='morphing_basis_vector_3'> +1.3763853e-04 </wgt>
<wgt id='morphing_basis_vector_4'> +3.1305597e-05 </wgt>
<wgt id='morphing_basis_vector_5'> +2.7714224e-05 </wgt>
</rwgt>
</event>
<event>
 4      1 +3.1894900e-05 3.60708700e+02 7.81860800e-03 9.78015800e-02
        2 -1    0    0  501    0 +0.0000000000e+00 +0.0000000000e+00 +2.0498009926e+02 2.0498009926e+02 0.0000000000e+00 0.0000e+00 -1.0000e+00
       -2 -1    0    0    0  501 -0.0000000000e+00 -0.0000000000e+00 -1.5868709428e+02 1.5868709428e+02 0.0000000000e+00 0.0000e+00 1.0000e+00
      -13  1    1    2    0    0 +9.7645038850e+01 -3.8152511199e+01 -1.2481386784e+02 1.6299898567e+02 0.0000000000e+00 0.0000e+00 1.0000e+00
       13  1    1    2    0    0 -9.7645038850e+01 +3.8152511199e+01 +1.7110687283e+02 2.0066820788e+02 0.0000000000e+00 0.0000e+00 -1.0000e+00
<mgrwt>
<rscale>  0 0.36070873E+03</rscale>
<asrwt>0</asrwt>
<pdfrwt beam="1">  1        2 0.31535400E-01 0.36070873E+03</pdfrwt>
<pdfrwt beam="2">  1       -2 0.24413399E-01 0.36070873E+03</pdfrwt>
<totfact> 0.28432618E+03</totfact>
</mgrwt>
<rwgt>
<wgt id='morphing_basis_vector_1'> +1.9412488e-04 </wgt>
<wgt id='morphing_basis_vector_2'> +1.0474552e-04 </wgt>
<wgt id='morphing_basis_vector_3'> +1.1905957e-04 </wgt>
<wgt id='morphing_basis_vector_4'> +2.2003808e-05 </wgt>
<wgt id='morphing_basis_vector_5'> +1.4326954e-05 </wgt>
</rwgt>
</event>
<event>
 4      1 +3.1894900e-05 3.82419700e+02 7.81860800e-03 9.70982200e-02
        2 -1    0    0  501    0 +0.0000000000e+00 +0.0000000000e+00 +7.5402156888e+01 7.5402156888e+01 0.0000000000e+00 0.0000e+00 1.0000e+00
       -2 -1    0    0    0  501 -0.0000000000e+00 -0.0000000000e+00 -4.8488282182e+02 4.8488282182e+02 0.0000000000e+00 0.0000e+00 -1.0000e+00
      -13  1    1    2    0    0 -1.3336089945e+02 -8.5561291245e+01 -3.6154999335e+02 3.9474581917e+02 0.0000000000e+00 0.0000e+00 -1.0000e+00
       13  1    1    2    0    0 +1.3336089945e+02 +8.5561291245e+01 -4.7930671582e+01 1.6553915954e+02 0.0000000000e+00 0.0000e+00 1.0000e+00
<mgrwt>
<rscale>  0 0.38241972E+03</rscale>
<asrwt>0</asrwt>
<pdfrwt beam="1">  1        2 0.11600332E-01 0.38241972E+03</pdfrwt>
<pdfrwt beam="2">  1       -2 0.74597359E-01 0.38241972E+03</pdfrwt>
<totfact> 0.11460122E+03</totfact>
</mgrwt>
<rwgt>
<wgt id='morphing_basis_vector_1'> +2.2521131e-04 </wgt>
<wgt id='morphing_basis_vector_2'> +1.2242947e-04 </wgt>
<wgt id='morphing_basis_vector_3'> +1.4051477e-04 </wgt>
<wgt id='morphing_basis_vector_4'> +2.8857733e-05 </wgt>
<wgt id='morphing_basis_vector_5'> +2.4880735e-05 </wgt>
</rwgt>
</event>
<event>
 4      1 +3.1894900e-05 4.09625900e+02 7.81860800e-03 9.62843400e-02
        2 -1    0    0  501    0 +0.0000000000e+00 +0.0000000000e+00 +6.8127742045e+02 6.8127742045e+02 0.0000000000e+00 0.0000e+00 1.0000e+00
       -2 -1    0    0    0  501 -0.0000000000e+00 -0.0000000000e+00 -6.1573062363e+01 6.1573062363e+01 0.0000000000e+00 0.0000e+00 -1.0000e+00
      -13  1    1    2    0    0 -1.9742482372e+02 -3.4193305147e+01 +3.8684726273e+02 4.3565645619e+02 0.0000000000e+00 0.0000e+00 1.0000e+00
       13  1    1    2    0    0 +1.9742482372e+02 +3.4193305147e+01 +2.3285709536e+02 3.0719402662e+02 0.0000000000e+00 0.0000e+00 -1.0000e+00
<mgrwt>
<rscale>  0 0.40962586E+03</rscale>
<asrwt>0</asrwt>
<pdfrwt beam="1">  1        2 0.10481191E+00 0.40962586E+03</pdfrwt>
<pdfrwt beam="2">  1       -2 0.94727793E-02 0.40962586E+03</pdfrwt>
<totfact> 0.33810846E+03</totfact>
</mgrwt>
<rwgt>
<wgt id='morphing_basis_vector_1'> +2.8651184e-04 </wgt>
<wgt id='morphing_basis_vector_2'> +1.9842414e-04 </wgt>
<wgt id='morphing_basis_vector_3'> +1.5868839e-04 </wgt>
<wgt id='morphing_basis_vector_4'> +4.0915879e-05 </wgt>
<wgt id='morphing_basis_vector_5'> +4.4503865e-05 </wgt>
</rwgt>
</event>
<event>
 4      1 +3.1894900e-05 3.76876100e+02 7.81860800e-03 9.72729600e-02
        2 -1    0    0  501    0 +0.0000000000e+00 +0.0000000000e+00 +1.3216374848e+03 1.3216374848e+03 0.0000000000e+00 0.0000e+00 1.0000e+00
       -2 -1    0    0    0  501 -0.0000000000e+00 -0.0000000000e+00 -2.6867356399e+01 2.6867356399e+01 0.0000000000e+00 0.0000e+00 -1.0000e+00
      -13  1    1    2    0    0 -7.3948133846e+01 -1.7058225532e+02 +5.3754968680e+02 5.6879372193e+02 0.0000000000e+00 0.0000e+00 -1.0000e+00
       13  1    1    2    0    0 +7.3948133846e+01 +1.7058225532e+02 +7.5722044160e+02 7.7971111927e+02 0.0000000000e+00 0.0000e+00 1.0000e+00
<mgrwt>
<rscale>  0 0.37687614E+03</rscale>
<asrwt>0</asrwt>
<pdfrwt beam="1">  1        2 0.20332879E+00 0.37687614E+03</pdfrwt>
<pdfrwt beam="2">  1       -2 0.41334405E-02 0.37687614E+03</pdfrwt>
<totfact> 0.47735880E+03</totfact>
</mgrwt>
<rwgt>
<wgt id='morphing_basis_vector_1'> +2.2002914e-04 </wgt>
<wgt id='morphing_basis_vector_2'> +1.2718640e-04 </wgt>
<wgt id='morphing_basis_vector_3'> +1.3128380e-04 </wgt>
<wgt id='morphing_basis_vector_4'> +2.7467864e-05 </wgt>
<wgt id='morphing_basis_vector_5'> +2.2057802e-05 </wgt>
</rwgt>
</event>
<event>
 4      1 +3.1894900e-05 3.88151300e+02 7.81860800e-03 9.69208700e-02
        2 -1    0    0  501    0 +0.0000000000e+00 +0.0000000000e+00 +2.0653559540e+02 2.0653559540e+02 0.0000000000e+00 0.0000e+00 1.0000e+00
       -2 -1    0    0    0  501 -0.0000000000e+00 -0.0000000000e+00 -1.8236736998e+02 1.8236736998e+02 0.0000000000e+00 0.0000e+00 -1.0000e+00
      -13  1    1    2    0    0 +1.1154967588e+02 -6.4604477023e+01 -1.3327711781e+02 1.8541806485e+02 0.0000000000e+00 0.0000e+00 -1.0000e+00
       13  1    1    2    0    0 -1.1154967588e+02 +6.4604477023e+01 +1.5744534323e+02 2.0348490053e+02 0.0000000000e+00 0.0000e+00 1.0000e+00
<mgrwt>
<rscale>  0 0.38815128E+03</rscale>
<asrwt>0</asrwt>
<pdfrwt beam="1">  1        2 0.31774707E-01 0.38815128E+03</pdfrwt>
<pdfrwt beam="2">  1       -2 0.28056519E-01 0.38815128E+03</pdfrwt>
<totfact> 0.22286968E+03</totfact>
</mgrwt>
<rwgt>
<wgt id='morphing_basis_vector_1'> +2.3352733e-04 </wgt>
<wgt id='morphing_basis_vector_2'> +1.2576732e-04 </wgt>
<wgt id='morphing_basis_vector_3'> +1.4743140e-04 </wgt>
<wgt id='morphing_basis_vector_4'> +3.0957646e-05 </wgt>
<wgt id='morphing_basis_vector_5'> +2.8232463e-05 </wgt>
</rwgt>
</event>
<event>
 4      1 +3.1894900e-05 3.81408100e+02 7.81860800e-03 9.71298700e-02
        2 -1    0    0  501    0 +0.0000000000e+00 +0.0000000000e+00 +6.4463936421e+02 6.4463936421e+02 0.0000000000e+00 0.0000e+00 -1.0000e+00
       -2 -1    0    0    0  501 -0.0000000000e+00 -0.0000000000e+00 -5.6416097972e+01 5.6416097972e+01 0.0000000000e+00 0.0000e+00 1.0000e+00
      -13  1    1    2    0    0 +6.5319673133e+01 +1.0639477236e+02 +2.9138884823e+01 1.2820133343e+02 0.0000000000e+00 0.0000e+00 1.0000e+00
       13  1    1    2    0    0 -6.5319673133e+01 -1.0639477236e+02 +5.5908438141e+02 5.7285412875e+02 0.0000000000e+00 0.0000e+00 -1.0000e+00
<mgrwt>
<rscale>  0 0.38140811E+03</rscale>
<asrwt>0</asrwt>
<pdfrwt beam="1">  1        2 0.99175281E-01 0.38140811E+03</pdfrwt>
<pdfrwt beam="2">  1       -2 0.86794002E-02 0.38140811E+03</pdfrwt>
<totfact> 0.41247172E+03</totfact>
</mgrwt>
<rwgt>
<wgt id='morphing_basis_vector_1'> +2.2324100e-04 </wgt>
<wgt id='morphing_basis_vector_2'> +1.2024018e-04 </wgt>
<wgt id='morphing_basis_vector_3'> +1.3988040e-04 </wgt>
<wgt id='morphing_basis_vector_4'> +2.8423751e-05 </wgt>
<wgt id='morphing_basis_vector_5'> +2.4281233e-05 </wgt>
</rwgt>
</event>
<event>
 4      1 +3.1894900e-05 4.29326600e+02 7.81860800e-03 9.57358700e-02
        2 -1    0    0  501    0 +0.0000000000e+00 +0.0000000000e+00 +1.0202048492e+03 1.0202048492e+03 0.0000000000e+00 0.0000e+00 -1.0000e+00
       -2 -1    0    0    0  501 -0.0000000000e+00 -0.0000000000e+00 -4.5167723701e+01 4.5167723701e+01 0.0000000000e+00 0.0000e+00 1.0000e+00
      -13  1    1    2    0    0 -1.9687308509e+02 -8.5457034190e+01 +4.9816716843e+02 5.4243197180e+02 0.0000000000e+00 0.0000e+00 1.0000e+00
       13  1    1    2    0    0 +1.9687308509e+02 +8.5457034190e+01 +4.7686995702e+02 5.2294060106e+02 0.0000000000e+00 0.0000e+00 -1.0000e+00
<mgrwt>
<rscale>  0 0.42932659E+03</rscale>
<asrwt>0</asrwt>
<pdfrwt beam="1">  1        2 0.15695458E+00 0.42932659E+03</pdfrwt>
<pdfrwt beam="2">  1       -2 0.69488813E-02 0.42932659E+03</pdfrwt>
<totfact> 0.32447094E+03</totfact>
</mgrwt>
<rwgt>
<wgt id='morphing_basis_vector_1'> +3.1605061e-04 </wgt>
<wgt id='morphing_basis_vector_2'> +1.9684702e-04 </wgt>
<wgt id='morphing_basis_vector_3'> +1.9468981e-04 </wgt>
<wgt id='morphing_basis_vector_4'> +5.1078070e-05 </wgt>
<wgt id='morphing_basis_vector_5'> +6.1699409e-05 </wgt>
</rwgt>
</event>
<event>
 4      1 +3.1894900e-05 4.11164500e+02 7.81860800e-03 9.62403400e-02
        2 -1    0    0  501    0 +0.0000000000e+00 +0.0000000000e+00 +9.9952838044e+02 9.9952838044e+02 0.0000000000e+00 0.0000e+00 1.0000e+00
       -2 -1    0    0    0  501 -0.0000000000e+00 -0.0000000000e+00 -4.2284009484e+01 4.2284009484e+01 0.0000000000e+00 0.0000e+00 -1.0000e+00
      -13  1    1    2    0    0 -1.7753215050e+02 -1.0192812121e+02 +5.2650119794e+02 5.6489867923e+02 0.0000000000e+00 0.0000e+00 -1.0000e+00
       13  1    1    2    0    0 +1.7753215050e+02 +1.0192812121e+02 +4.3074317301e+02 4.7691371070e+02 0.0000000000e+00 0.0000e+00 1.0000e+00
<mgrwt>
<rscale>  0 0.41116453E+03</rscale>
<asrwt>0</asrwt>
<pdfrwt beam="1">  1        2 0.15377358E+00 0.41116453E+03</pdfrwt>
<pdfrwt beam="2">  1       -2 0.65052330E-02 0.41116453E+03</pdfrwt>
<totfact> 0.36910572E+03</totfact>
</mgrwt>
<rwgt>
<wgt id='morphing_basis_vector_1'> +2.8354340e-04 </wgt>
<wgt id='morphing_basis_vector_2'> +1.8248749e-04 </wgt>
<wgt id='morphing_basis_vector_3'> +1.6594767e-04 </wgt>
<wgt id='morphing_basis_vector_4'> +4.1530346e-05 </wgt>
<wgt id='morphing_basis_vector_5'> +4.5381588e-05 </wgt>
</rwgt>
</event>
<event>
 4      1 +3.1894900e-05 3.94470800e+02 7.81860800e-03 9.67290700e-02
        2 -1    0    0  501    0 +0.0000000000e+00 +0.0000000000e+00 +4.7308695482e+02 4.7308695482e+02 0.0000000000e+00 0.0000e+00 -1.0000e+00
       -2 -1    0    0    0  501 -0.0000000000e+00 -0.0000000000e+00 -8.2229728453e+01 8.2229728453e+01 0.0000000000e+00 0.0000e+00 1.0000e+00
      -13  1    1    2    0    0 -1.8426167355e+01 -7.5304102376e+01 -5.9881595946e+01 9.7959364081e+01 0.0000000000e+00 0.0000e+00 1.0000e+00
       13  1    1    2    0    0 +1.8426167355e+01 +7.5304102376e+01 +4.5073882231e+02 4.5735731919e+02 0.0000000000e+00 0.0000e+00 -1.0000e+00
<mgrwt>
<rscale>  0 0.39447084E+03</rscale>
<asrwt>0</asrwt>
<pdfrwt beam="1">  1        2 0.72782607E-01 0.39447084E+03</pdfrwt>
<pdfrwt beam="2">  1       -2 0.12650728E-01 0.39447084E+03</pdfrwt>
<totfact> 0.32649316E+03</totfact>
</mgrwt>
<rwgt>
<wgt id='morphing_basis_vector_1'> +2.4337621e-04 </wgt>
<wgt id='morphing_basis_vector_2'> +1.3066402e-04 </wgt>
<wgt id='morphing_basis_vector_3'> +1.5503366e-04 </wgt>
<wgt id='morphing_basis_vector_4'> +3.3529698e-05 </wgt>
<wgt id='morphing_basis_vector_5'> +3.2263953e-05 </wgt>
</rwgt>
</event>
<event>
 4      1 +3.1894900e-05 3.93552900e+02 7.81860800e-03 9.67567000e-02
        2 -1    0    0  501    0 +0.0000000000e+00 +0.0000000000e+00 +1.5089052441e+03 1.5089052441e+03 0.0000000000e+00 0.0000e+00 -1.0000e+00
       -2 -1    0    0    0  501 -0.0000000000e+00 -0.0000000000e+00 -2.5661626190e+01 2.5661626190e+01 0.0000000000e+00 0.0000e+00 1.0000e+00
      -13  1    1    2    0    0 +1.1509446676e+02 +1.3900950307e+02 +4.3581937897e+02 4.7170850035e+02 0.0000000000e+00 0.0000e+00 1.0000e+00
       13  1    1    2    0    0 -1.1509446676e+02 -1.3900950307e+02 +1.0474242389e+03 1.0628583699e+03 0.0000000000e+00 0.0000e+00 -1.0000e+00
<mgrwt>
<rscale>  0 0.39355285E+03</rscale>
<asrwt>0</asrwt>
<pdfrwt beam="1">  1        2 0.23213920E+00 0.39355285E+03</pdfrwt>
<pdfrwt beam="2">  1       -2 0.39479437E-02 0.39355285E+03</pdfrwt>
<totfact> 0.40447150E+03</totfact>
</mgrwt>
<rwgt>
<wgt id='morphing_basis_vector_1'> +2.4338914e-04 </wgt>
<wgt id='morphing_basis_vector_2'> +1.3441122e-04 </wgt>
<wgt id='morphing_basis_vector_3'> +1.5246751e-04 </wgt>
<wgt id='morphing_basis_vector_4'> +3.3282378e-05 </wgt>
<wgt id='morphing_basis_vector_5'> +3.1753946e-05 </wgt>
</rwgt>
</event>
<event>
 4      1 +3.1894900e-05 3.72899900e+02 7.81860800e-03 9.74002900e-02
        2 -1    0    0  501    0 +0.0000000000e+00 +0.0000000000e+00 +3.7041731218e+02 3.7041731218e+02 0.0000000000e+00 0.0000e+00 1.0000e+00
       -2 -1    0    0    0  501 -0.0000000000e+00 -0.0000000000e+00 -9.3849767627e+01 9.3849767627e+01 0.0000000000e+00 0.0000e+00 -1.0000e+00
      -13  1    1    2    0    0 -1.2339194683e+02 -1.0234949336e+02 +2.5680653274e+02 3.0273847887e+02 0.0000000000e+00 0.0000e+00 1.0000e+00
       13  1    1    2    0    0 +1.2339194683e+02 +1.0234949336e+02 +1.9761011812e+01 1.6152860093e+02 0.0000000000e+00 0.0000e+00 -1.0000e+00
<mgrwt>
<rscale>  0 0.37289987E+03</rscale>
<asrwt>0</asrwt>
<pdfrwt beam="1">  1        2 0.56987278E-01 0.37289987E+03</pdfrwt>
<pdfrwt beam="2">  1       -2 0.14438426E-01 0.37289987E+03</pdfrwt>
<totfact> 0.34693694E+03</totfact>
</mgrwt>
<rwgt>
<wgt id='morphing_basis_vector_1'> +2.4622238e-04 </wgt>
<wgt id='morphing_basis_vector_2'> +2.2059822e-04 </wgt>
<wgt id='morphing_basis_vector_3'> +9.2028027e-05 </wgt>
<wgt id='morphing_basis_vector_4'> +3.2564932e-05 </wgt>
<wgt id='morphing_basis_vector_5'> +2.2137549e-05 </wgt>
</rwgt>
</event>
<event>
 4      1 +3.1894900e-05 4.03138100e+02 7.81860800e-03 9.64721800e-02
        2 -1    0    0  501    0 +0.0000000000e+00 +0.0000000000e+00 +7.4207565153e+02 7.4207565153e+02 0.0000000000e+00 0.0000e+00 1.0000e+00
       -2 -1    0    0    0  501 -0.0000000000e+00 -0.0000000000e+00 -5.4751942460e+01 5.4751942460e+01 0.0000000000e+00 0.0000e+00 -1.0000e+00
      -13  1    1    2    0    0 -1.8593004083e+02 -6.8553345326e+01 +4.1656839833e+02 4.6130117248e+02 0.0000000000e+00 0.0000e+00 -1.0000e+00
       13  1    1    2    0    0 +1.8593004083e+02 +6.8553345326e+01 +2.7075531074e+02 3.3552642151e+02 0.0000000000e+00 0.0000e+00 1.0000e+00
<mgrwt>
<rscale>  0 0.40313811E+03</rscale>
<asrwt>0</asrwt>
<pdfrwt beam="1">  1        2 0.11416548E+00 0.40313811E+03</pdfrwt>
<pdfrwt beam="2">  1       -2 0.84233763E-02 0.40313811E+03</pdfrwt>
<totfact> 0.36557254E+03</totfact>
</mgrwt>
<rwgt>
<wgt id='morphing_basis_vector_1'> +2.7316359e-04 </wgt>
<wgt id='morphing_basis_vector_2'> +1.8568199e-04 </wgt>
<wgt id='morphing_basis_vector_3'> +1.5148981e-04 </wgt>
<wgt id='morphing_basis_vector_4'> +3.8175661e-05 </wgt>
<wgt id='morphing_basis_vector_5'> +3.9370068e-05 </wgt>
</rwgt>
</event>
<event>
 4      1 +3.1894900e-05 4.14304900e+02 7.81860800e-03 9.61511600e-02
        2 -1    0    0  501    0 +0.0000000000e+00 +0.0000000000e+00 +2.0467460751e+02 2.0467460751e+02 0.0000000000e+00 0.0000e+00 1.0000e+00
       -2 -1    0    0    0  501 -0.0000000000e+00 -0.0000000000e+00 -2.0966024323e+02 2.0966024323e+02 0.0000000000e+00 0.0000e+00 -1.0000e+00
      -13  1    1    2    0    0 -1.2739776836e+02 +1.5580945849e+02 +4.6555093142e+01 2.0657723843e+02 0.0000000000e+00 0.0000e+00 -1.0000e+00
       13  1    1    2    0    0 +1.2739776836e+02 -1.5580945849e+02 -5.1540728864e+01 2.0775761231e+02 0.0000000000e+00 0.0000e+00 1.0000e+00
<mgrwt>
<rscale>  0 0.41430485E+03</rscale>
<asrwt>0</asrwt>
<pdfrwt beam="1">  1        2 0.31488401E-01 0.41430485E+03</pdfrwt>
<pdfrwt beam="2">  1       -2 0.32255422E-01 0.41430485E+03</pdfrwt>
<totfact> 0.17678532E+03</totfact>
</mgrwt>
<rwgt>
<wgt id='morphing_basis_vector_1'> +2.9736409e-04 </wgt>
<wgt id='morphing_basis_vector_2'> +2.1074331e-04 </wgt>
<wgt id='morphing_basis_vector_3'> +1.6339378e-04 </wgt>
<wgt id='morphing_basis_vector_4'> +4.2955886e-05 </wgt>
<wgt id='morphing_basis_vector_5'> +4.8507138e-05 </wgt>
</rwgt>
</event>
<event>
 4      1 +3.1894900e-05 3.95712900e+02 7.81860800e-03 9.66918300e-02
        2 -1    0    0  501    0 +0.0000000000e+00 +0.0000000000e+00 +2.9290843301e+02 2.9290843301e+02 0.0000000000e+00 0.0000e+00 -1.0000e+00
       -2 -1    0    0    0  501 -0.0000000000e+00 -0.0000000000e+00 -1.3364987748e+02 1.3364987748e+02 0.0000000000e+00 0.0000e+00 1.0000e+00
      -13  1    1    2    0    0 -1.8843441195e+02 +2.6754313370e+01 +2.1341683735e+01 1.9151707067e+02 0.0000000000e+00 0.0000e+00 1.0000e+00
       13  1    1    2    0    0 +1.8843441195e+02 -2.6754313370e+01 +1.3791687179e+02 2.3504123982e+02 0.0000000000e+00 0.0000e+00 -1.0000e+00
<mgrwt>
<rscale>  0 0.39571291E+03</rscale>
<asrwt>0</asrwt>
<pdfrwt beam="1">  1        2 0.45062836E-01 0.39571291E+03</pdfrwt>
<pdfrwt beam="2">  1       -2 0.20561520E-01 0.39571291E+03</pdfrwt>
<totfact> 0.25415887E+03</totfact>
</mgrwt>
<rwgt>
<wgt id='morphing_basis_vector_1'> +2.4802576e-04 </wgt>
<wgt id='morphing_basis_vector_2'> +1.3980129e-04 </wgt>
<wgt id='morphing_basis_vector_3'> +1.5397874e-04 </wgt>
<wgt id='morphing_basis_vector_4'> +3.4287693e-05 </wgt>
<wgt id='morphing_basis_vector_5'> +3.3271454e-05 </wgt>
</rwgt>
</event>
<event>
 4      1 +3.1894900e-05 4.25803600e+02 7.81860800e-03 9.58316300e-02
        2 -1    0    0  501    0 +0.0000000000e+00 +0.0000000000e+00 +1.7682453277e+03 1.7682453277e+03 0.0000000000e+00 0.0000e+00 -1.0000e+00
       -2 -1    0    0    0  501 -0.0000000000e+00 -0.0000000000e+00 -2.5633987800e+01 2.5633987800e+01 0.0000000000e+00 0.0000e+00 1.0000e+00
      -13  1    1    2    0    0 +5.6649414296e+01 -1.9657862272e+02 +1.1196493102e+03 1.1381857884e+03 0.0000000000e+00 0.0000e+00 1.0000e+00
       13  1    1    2    0    0 -5.6649414296e+01 +1.9657862272e+02 +6.2296202964e+02 6.5569352705e+02 0.0000000000e+00 0.0000e+00 -1.0000e+00
<mgrwt>
<rscale>  0 0.42580361E+03</rscale>
<asrwt>0</asrwt>
<pdfrwt beam="1">  1        2 0.27203765E+00 0.42580361E+03</pdfrwt>
<pdfrwt beam="2">  1       -2 0.39436918E-02 0.42580361E+03</pdfrwt>
<totfact> 0.29379761E+03</totfact>
</mgrwt>
<rwgt>
<wgt id='morphing_basis_vector_1'> +3.2365498e-04 </wgt>
<wgt id='morphing_basis_vector_2'> +2.3754566e-04 </wgt>
<wgt id='morphing_basis_vector_3'> +1.7751082e-04 </wgt>
<wgt id='morphing_basis_vector_4'> +4.8147527e-05 </wgt>
<wgt id='morphing_basis_vector_5'> +5.9145593e-05 </wgt>
</rwgt>
</event>
<event>
 4      1 +3.1894900e-05 3.64446800e+02 7.81860800e-03 9.76767400e-02
        2 -1    0    0  501    0 +0.0000000000e+00 +0.0000000000e+00 +6.5878191297e+02 6.5878191297e+02 0.0000000000e+00 0.0000e+00 1.0000e+00
       -2 -1    0    0    0  501 -0.0000000000e+00 -0.0000000000e+00 -5.0404184453e+01 5.0404184453e+01 0.0000000000e+00 0.0000e+00 -1.0000e+00
      -13  1    1    2    0    0 -6.0826485917e+01 -1.2196913389e+02 +6.8828182525e+01 1.5268807982e+02 0.0000000000e+00 0.0000e+00 -1.0000e+00
       13  1    1    2    0    0 +6.0826485917e+01 +1.2196913389e+02 +5.3954954600e+02 5.5649801760e+02 0.0000000000e+00 0.0000e+00 1.0000e+00
<mgrwt>
<rscale>  0 0.36444679E+03</rscale>
<asrwt>0</asrwt>
<pdfrwt beam="1">  1        2 0.10135106E+00 0.36444679E+03</pdfrwt>
<pdfrwt beam="2">  1       -2 0.77544904E-02 0.36444679E+03</pdfrwt>
<totfact> 0.47748093E+03</totfact>
</mgrwt>
<rwgt>
<wgt id='morphing_basis_vector_1'> +1.9930423e-04 </wgt>
<wgt id='morphing_basis_vector_2'> +1.0794642e-04 </wgt>
<wgt id='morphing_basis_vector_3'> +1.2235342e-04 </wgt>
<wgt id='morphing_basis_vector_4'> +2.3064302e-05 </wgt>
<wgt id='morphing_basis_vector_5'> +1.5906329e-05 </wgt>
</rwgt>
</event>
<event>
 4      1 +3.1894900e-05 3.95017700e+02 7.81860800e-03 9.67126600e-02
        2 -1    0    0  501    0 +0.0000000000e+00 +0.0000000000e+00 +3.2316725223e+02 3.2316725223e+02 0.0000000000e+00 0.0000e+00 1.0000e+00
       -2 -1    0    0    0  501 -0.0000000000e+00 -0.0000000000e+00 -1.2071071783e+02 1.2071071783e+02 0.0000000000e+00 0.0000e+00 -1.0000e+00
      -13  1    1    2    0    0 -1.6803321488e+01 +5.3406255487e+01 -1.1160719848e+02 1.2486291078e+02 0.0000000000e+00 0.0000e+00 -1.0000e+00
       13  1    1    2    0    0 +1.6803321488e+01 -5.3406255487e+01 +3.1406373287e+02 3.1901505927e+02 0.0000000000e+00 0.0000e+00 1.0000e+00
<mgrwt>
<rscale>  0 0.39501773E+03</rscale>
<asrwt>0</asrwt>
<pdfrwt beam="1">  1        2 0.49718039E-01 0.39501773E+03</pdfrwt>
<pdfrwt beam="2">  1       -2 0.18570880E-01 0.39501773E+03</pdfrwt>
<totfact> 0.26943424E+03</totfact>
</mgrwt>
<rwgt>
<wgt id='morphing_basis_vector_1'> +2.4424814e-04 </wgt>
<wgt id='morphing_basis_vector_2'> +1.3110487e-04 </wgt>
<wgt id='morphing_basis_vector_3'> +1.5570571e-04 </wgt>
<wgt id='morphing_basis_vector_4'> +3.3762914e-05 </wgt>
<wgt id='morphing_basis_vector_5'> +3.2628861e-05 </wgt>
</rwgt>
</event>
<event>
 4      1 +3.1894900e-05 4.13299900e+02 7.81860800e-03 9.61796100e-02
        2 -1    0    0  501    0 +0.0000000000e+00 +0.0000000000e+00 +3.0718742777e+02 3.0718742777e+02 0.0000000000e+00 0.0000e+00 -1.0000e+00
       -2 -1    0    0    0  501 -0.0000000000e+00 -0.0000000000e+00 -1.3901674023e+02 1.3901674023e+02 0.0000000000e+00 0.0000e+00 1.0000e+00
      -13  1    1    2    0    0 +2.0653426646e+02 -5.8237320562e+00 +8.0063762302e+01 2.2158638296e+02 0.0000000000e+00 0.0000e+00 1.0000e+00
       13  1    1    2    0    0 -2.0653426646e+02 +5.8237320562e+00 +8.8106925235e+01 2.2461778503e+02 0.0000000000e+00 0.0000e+00 -1.0000e+00
<mgrwt>
<rscale>  0 0.41329987E+03</rscale>
<asrwt>0</asrwt>
<pdfrwt beam="1">  1        2 0.47259604E-01 0.41329987E+03</pdfrwt>
<pdfrwt beam="2">  1       -2 0.21387191E-01 0.41329987E+03</pdfrwt>
<totfact> 0.22608425E+03</totfact>
</mgrwt>
<rwgt>
<wgt id='morphing_basis_vector_1'> +2.8358072e-04 </wgt>
<wgt id='morphing_basis_vector_2'> +1.7300304e-04 </wgt>
<wgt id='morphing_basis_vector_3'> +1.7231171e-04 </wgt>
<wgt id='morphing_basis_vector_4'> +4.2540420e-05 </wgt>
<wgt id='morphing_basis_vector_5'> +4.6902805e-05 </wgt>
</rwgt>
</event>
<event>
 4      1 +3.1894900e-05 3.87786400e+02 7.81860800e-03 9.69320600e-02
        2 -1    0    0  501    0 +0.0000000000e+00 +0.0000000000e+00 +2.9901628169e+02 2.9901628169e+02 0.0000000000e+00 0.0000e+00 -1.0000e+00
       -2 -1    0    0    0  501 -0.0000000000e+00 -0.0000000000e+00 -1.2572750587e+02 1.2572750587e+02 0.0000000000e+00 0.0000e+00 1.0000e+00
      -13  1    1    2    0    0 -1.4079121562e+02 -6.1651386538e+01 -4.2821742279e+01 1.5955175169e+02 0.0000000000e+00 0.0000e+00 1.0000e+00
       13  1    1    2    0    0 +1.4079121562e+02 +6.1651386538e+01 +2.1611051809e+02 2.6519203587e+02 0.0000000000e+00 0.0000e+00 -1.0000e+00
<mgrwt>
<rscale>  0 0.38778639E+03</rscale>
<asrwt>0</asrwt>
<pdfrwt beam="1">  1        2 0.46002505E-01 0.38778639E+03</pdfrwt>
<pdfrwt beam="2">  1       -2 0.19342693E-01 0.38778639E+03</pdfrwt>
<totfact> 0.27456482E+03</totfact>
</mgrwt>
<rwgt>
<wgt id='morphing_basis_vector_1'> +2.3325928e-04 </wgt>
<wgt id='morphing_basis_vector_2'> +1.2637189e-04 </wgt>
<wgt id='morphing_basis_vector_3'> +1.4670924e-04 </wgt>
<wgt id='morphing_basis_vector_4'> +3.0851769e-05 </wgt>
<wgt id='morphing_basis_vector_5'> +2.8028984e-05 </wgt>
</rwgt>
</event>
<event>
 4      1 +3.1894900e-05 3.64362700e+02 7.81860800e-03 9.76795300e-02
        2 -1    0    0  501    0 +0.0000000000e+00 +0.0000000000e+00 +3.0948892174e+02 3.0948892174e+02 0.0000000000e+00 0.0000e+00 1.0000e+00
       -2 -1    0    0    0  501 -0.0000000000e+00 -0.0000000000e+00 -1.0724146161e+02 1.0724146161e+02 0.0000000000e+00 0.0000e+00 -1.0000e+00
      -13  1    1    2    0    0 +1.1999683903e+02 -1.1134581409e+02 +9.6764825310e+00 1.6398404193e+02 0.0000000000e+00 0.0000e+00 -1.0000e+00
       13  1    1    2    0    0 -1.1999683903e+02 +1.1134581409e+02 +1.9257097759e+02 2.5274634142e+02 0.0000000000e+00 0.0000e+00 1.0000e+00
<mgrwt>
<rscale>  0 0.36436270E+03</rscale>
<asrwt>0</asrwt>
<pdfrwt beam="1">  1        2 0.47613680E-01 0.36436270E+03</pdfrwt>
<pdfrwt beam="2">  1       -2 0.16498687E-01 0.36436270E+03</pdfrwt>
<totfact> 0.34166113E+03</totfact>
</mgrwt>
<rwgt>
<wgt id='morphing_basis_vector_1'> +1.9991557e-04 </wgt>
<wgt id='morphing_basis_vector_2'> +1.1006836e-04 </wgt>
<wgt id='morphing_basis_vector_3'> +1.2144240e-04 </wgt>
<wgt id='morphing_basis_vector_4'> +2.3215364e-05 </wgt>
<wgt id='morphing_basis_vector_5'> +1.5917190e-05 </wgt>
</rwgt>
</event>
<event>
 4      1 +3.1894900e-05 3.87014300e+02 7.81860800e-03 9.69557900e-02
        2 -1    0    0  501    0 +0.0000000000e+00 +0.0000000000e+00 +2.5932700158e+02 2.5932700158e+02 0.0000000000e+00 0.0000e+00 -1.0000e+00
       -2 -1    0    0    0  501 -0.0000000000e+00 -0.0000000000e+00 -1.4439307749e+02 1.4439307749e+02 0.0000000000e+00 0.0000e+00 1.0000e+00
      -13  1    1    2    0    0 +4.7744960633e+01 -1.7890325753e+02 -1.1647691591e+00 1.8516833830e+02 0.0000000000e+00 0.0000e+00 1.0000e+00
       13  1    1    2    0    0 -4.7744960633e+01 +1.7890325753e+02 +1.1609869325e+02 2.1855174078e+02 0.0000000000e+00 0.0000e+00 -1.0000e+00
<mgrwt>
<rscale>  0 0.38701433E+03</rscale>
<asrwt>0</asrwt>
<pdfrwt beam="1">  1        2 0.39896462E-01 0.38701433E+03</pdfrwt>
<pdfrwt beam="2">  1       -2 0.22214320E-01 0.38701433E+03</pdfrwt>
<totfact> 0.25596150E+03</totfact>
</mgrwt>
<rwgt>
<wgt id='morphing_basis_vector_1'> +2.3391721e-04 </wgt>
<wgt id='morphing_basis_vector_2'> +1.3136721e-04 </wgt>
<wgt id='morphing_basis_vector_3'> +1.4393664e-04 </wgt>
<wgt id='morphing_basis_vector_4'> +3.0789942e-05 </wgt>
<wgt id='morphing_basis_vector_5'> +2.7682808e-05 </wgt>
</rwgt>
</event>
<event>
 4      1 +3.1894900e-05 3.67460500e+02 7.81860800e-03 9.75772600e-02
        2 -1    0    0  501    0 +0.0000000000e+00 +0.0000000000e+00 +1.8318392819e+02 1.8318392819e+02 0.0000000000e+00 0.0000e+00 1.0000e+00
       -2 -1    0    0    0  501 -0.0000000000e+00 -0.0000000000e+00 -1.8427823812e+02 1.8427823812e+02 0.0000000000e+00 0.0000e+00 -1.0000e+00
      -13  1    1    2    0    0 +1.4689368887e+02 -1.0768506153e+02 -2.4692307685e+01 1.8380298792e+02 0.0000000000e+00 0.0000e+00 -1.0000e+00
       13  1    1    2    0    0 -1.4689368887e+02 +1.0768506153e+02 +2.3597997755e+01 1.8365917839e+02 0.0000000000e+00 0.0000e+00 1.0000e+00
<mgrwt>
<rscale>  0 0.36746054E+03</rscale>
<asrwt>0</asrwt>
<pdfrwt beam="1">  1        2 0.28182143E-01 0.36746054E+03</pdfrwt>
<pdfrwt beam="2">  1       -2 0.28350498E-01 0.36746054E+03</pdfrwt>
<totfact> 0.25068475E+03</totfact>
</mgrwt>
<rwgt>
<wgt id='morphing_basis_vector_1'> +2.0692456e-04 </wgt>
<wgt id='morphing_basis_vector_2'> +1.2071301e-04 </wgt>
<wgt id='morphing_basis_vector_3'> +1.2129917e-04 </wgt>
<wgt id='morphing_basis_vector_4'> +2.4716468e-05 </wgt>
<wgt id='morphing_basis_vector_5'> +1.7471429e-05 </wgt>
</rwgt>
</event>
<event>
 4      1 +3.1894900e-05 3.91077200e+02 7.81860800e-03 9.68315900e-02
        2 -1    0    0  501    0 +0.0000000000e+00 +0.0000000000e+00 +3.5741186573e+02 3.5741186573e+02 0.0000000000e+00 0.0000e+00 -1.0000e+00
       -2 -1    0    0    0  501 -0.0000000000e+00 -0.0000000000e+00 -1.0697840859e+02 1.0697840859e+02 0.0000000000e+00 0.0000e+00 1.0000e+00
      -13  1    1    2    0    0 +1.1918456009e+02 +1.4060780415e+02 +4.7713972756e+01 1.9039993999e+02 0.0000000000e+00 0.0000e+00 1.0000e+00
       13  1    1    2    0    0 -1.1918456009e+02 -1.4060780415e+02 +2.0271948439e+02 2.7399033433e+02 0.0000000000e+00 0.0000e+00 -1.0000e+00
<mgrwt>
<rscale>  0 0.39107724E+03</rscale>
<asrwt>0</asrwt>
<pdfrwt beam="1">  1        2 0.54986440E-01 0.39107724E+03</pdfrwt>
<pdfrwt beam="2">  1       -2 0.16458217E-01 0.39107724E+03</pdfrwt>
<totfact> 0.29307999E+03</totfact>
</mgrwt>
<rwgt>
<wgt id='morphing_basis_vector_1'> +2.3992464e-04 </wgt>
<wgt id='morphing_basis_vector_2'> +1.3374437e-04 </wgt>
<wgt id='morphing_basis_vector_3'> +1.4903265e-04 </wgt>
<wgt id='morphing_basis_vector_4'> +3.2324133e-05 </wgt>
<wgt id='morphing_basis_vector_5'> +3.0181591e-05 </wgt>
</rwgt>
</event>
<event>
 4      1 +3.1894900e-05 3.96450800e+02 7.81860800e-03 9.66697700e-02
        2 -1    0    0  501    0 +0.0000000000e+00 +0.0000000000e+00 +1.2252240636e+02 1.2252240636e+02 0.0000000000e+00 0.0000e+00 1.0000e+00
       -2 -1    0    0    0  501 -0.0000000000e+00 -0.0000000000e+00 -3.2070305512e+02 3.2070305512e+02 0.0000000000e+00 0.0000e+00 -1.0000e+00
      -13  1    1    2    0    0 +3.8340654001e+00 +1.6603968018e+02 -2.2006747744e+02 2.7570558587e+02 0.0000000000e+00 0.0000e+00 -1.0000e+00
       13  1    1    2    0    0 -3.8340654001e+00 -1.6603968018e+02 +2.1886828679e+01 1.6751987561e+02 0.0000000000e+00 0.0000e+00 1.0000e+00
<mgrwt>
<rscale>  0 0.39645080E+03</rscale>
<asrwt>0</asrwt>
<pdfrwt beam="1">  1        2 0.18849601E-01 0.39645080E+03</pdfrwt>
<pdfrwt beam="2">  1       -2 0.49338931E-01 0.39645080E+03</pdfrwt>
<totfact> 0.14685593E+03</totfact>
</mgrwt>
<rwgt>
<wgt id='morphing_basis_vector_1'> +2.4729479e-04 </wgt>
<wgt id='morphing_basis_vector_2'> +1.3455287e-04 </wgt>
<wgt id='morphing_basis_vector_3'> +1.5675647e-04 </wgt>
<wgt id='morphing_basis_vector_4'> +3.4442711e-05 </wgt>
<wgt id='morphing_basis_vector_5'> +3.3646404e-05 </wgt>
</rwgt>
</event>
<event>
 4      1 +3.1894900e-05 3.82448300e+02 7.81860800e-03 9.70973300e-02
        2 -1    0    0  501    0 +0.0000000000e+00 +0.0000000000e+00 +1.2205914774e+03 1.2205914774e+03 0.0000000000e+00 0.0000e+00 -1.0000e+00
       -2 -1    0    0    0  501 -0.0000000000e+00 -0.0000000000e+00 -2.9958155372e+01 2.9958155372e+01 0.0000000000e+00 0.0000e+00 1.0000e+00
      -13  1    1    2    0    0 +1.2219431217e+02 +1.4662757246e+02 +5.5724369132e+02 5.8902599811e+02 0.0000000000e+00 0.0000e+00 1.0000e+00
       13  1    1    2    0    0 -1.2219431217e+02 -1.4662757246e+02 +6.3338963070e+02 6.6152363466e+02 0.0000000000e+00 0.0000e+00 -1.0000e+00
<mgrwt>
<rscale>  0 0.38244827E+03</rscale>
<asrwt>0</asrwt>
<pdfrwt beam="1">  1        2 0.18778327E+00 0.38244827E+03</pdfrwt>
<pdfrwt beam="2">  1       -2 0.46089479E-02 0.38244827E+03</pdfrwt>
<totfact> 0.46159386E+03</totfact>
</mgrwt>
<rwgt>
<wgt id='morphing_basis_vector_1'> +2.3020430e-04 </wgt>
<wgt id='morphing_basis_vector_2'> +1.3748236e-04 </wgt>
<wgt id='morphing_basis_vector_3'> +1.3537426e-04 </wgt>
<wgt id='morphing_basis_vector_4'> +2.9614535e-05 </wgt>
<wgt id='morphing_basis_vector_5'> +2.5224542e-05 </wgt>
</rwgt>
</event>
<event>
 4      1 +3.1894900e-05 3.83676900e+02 7.81860800e-03 9.70590400e-02
        2 -1    0    0  501    0 +0.0000000000e+00 +0.0000000000e+00 +2.1578869546e+02 2.1578869546e+02 0.0000000000e+00 0.0000e+00 -1.0000e+00
       -2 -1    0    0    0  501 -0.0000000000e+00 -0.0000000000e+00 -1.7054645962e+02 1.7054645962e+02 0.0000000000e+00 0.0000e+00 1.0000e+00
      -13  1    1    2    0    0 +1.8049410030e+01 -1.0425275960e+02 -1.3851125202e+02 1.7429798054e+02 0.0000000000e+00 0.0000e+00 1.0000e+00
       13  1    1    2    0    0 -1.8049410030e+01 +1.0425275960e+02 +1.8375348786e+02 2.1203717454e+02 0.0000000000e+00 0.0000e+00 -1.0000e+00
<mgrwt>
<rscale>  0 0.38367694E+03</rscale>
<asrwt>0</asrwt>
<pdfrwt beam="1">  1        2 0.33198261E-01 0.38367694E+03</pdfrwt>
<pdfrwt beam="2">  1       -2 0.26237917E-01 0.38367694E+03</pdfrwt>
<totfact> 0.23781424E+03</totfact>
</mgrwt>
<rwgt>
<wgt id='morphing_basis_vector_1'> +2.2656660e-04 </wgt>
<wgt id='morphing_basis_vector_2'> +1.2179945e-04 </wgt>
<wgt id='morphing_basis_vector_3'> +1.4247054e-04 </wgt>
<wgt id='morphing_basis_vector_4'> +2.9237776e-05 </wgt>
<wgt id='morphing_basis_vector_5'> +2.5563917e-05 </wgt>
</rwgt>
</event>
<event>
 4      1 +3.1894900e-05 3.72345000e+02 7.81860800e-03 9.74182000e-02
        2 -1    0    0  501    0 +0.0000000000e+00 +0.0000000000e+00 +5.1052828355e+02 5.1052828355e+02 0.0000000000e+00 0.0000e+00 -1.0000e+00
       -2 -1    0    0    0  501 -0.0000000000e+00 -0.0000000000e+00 -6.7890855760e+01 6.7890855760e+01 0.0000000000e+00 0.0000e+00 1.0000e+00
      -13  1    1    2    0    0 +1.8534038671e+02 -1.5257494154e+00 +1.9410827469e+02 2.6838667843e+02 0.0000000000e+00 0.0000e+00 1.0000e+00
       13  1    1    2    0    0 -1.8534038671e+02 +1.5257494154e+00 +2.4852915310e+02 3.1003246088e+02 0.0000000000e+00 0.0000e+00 -1.0000e+00
<mgrwt>
<rscale>  0 0.37234501E+03</rscale>
<asrwt>0</asrwt>
<pdfrwt beam="1">  1        2 0.78542810E-01 0.37234501E+03</pdfrwt>
<pdfrwt beam="2">  1       -2 0.10444747E-01 0.37234501E+03</pdfrwt>
<totfact> 0.40405261E+03</totfact>
</mgrwt>
<rwgt>
<wgt id='morphing_basis_vector_1'> +2.1447343e-04 </wgt>
<wgt id='morphing_basis_vector_2'> +1.2656935e-04 </wgt>
<wgt id='morphing_basis_vector_3'> +1.2546140e-04 </wgt>
<wgt id='morphing_basis_vector_4'> +2.6259830e-05 </wgt>
<wgt id='morphing_basis_vector_5'> +1.9824382e-05 </wgt>
</rwgt>
</event>
<event>
 4      1 +3.1894900e-05 3.79504200e+02 7.81860800e-03 9.71897200e-02
        2 -1    0    0  501    0 +0.0000000000e+00 +0.0000000000e+00 +5.9989520244e+01 5.9989520244e+01 0.0000000000e+00 0.0000e+00 1.0000e+00
       -2 -1    0    0    0  501 -0.0000000000e+00 -0.0000000000e+00 -6.0020264123e+02 6.0020264123e+02 0.0000000000e+00 0.0000e+00 -1.0000e+00
      -13  1    1    2    0    0 +1.3113109875e+02 -1.2736563266e+02 -3.5861358242e+02 4.0251841068e+02 0.0000000000e+00 0.0000e+00 -1.0000e+00
       13  1    1    2    0    0 -1.3113109875e+02 +1.2736563266e+02 -1.8159953857e+02 2.5767375079e+02 0.0000000000e+00 0.0000e+00 1.0000e+00
<mgrwt>
<rscale>  0 0.37950425E+03</rscale>
<asrwt>0</asrwt>
<pdfrwt beam="1">  1        2 0.92291563E-02 0.37950425E+03</pdfrwt>
<pdfrwt beam="2">  1       -2 0.92338874E-01 0.37950425E+03</pdfrwt>
<totfact> 0.94644888E+02</totfact>
</mgrwt>
<rwgt>
<wgt id='morphing_basis_vector_1'> +2.2267483e-04 </wgt>
<wgt id='morphing_basis_vector_2'> +1.2559153e-04 </wgt>
<wgt id='morphing_basis_vector_3'> +1.3541508e-04 </wgt>
<wgt id='morphing_basis_vector_4'> +2.8124120e-05 </wgt>
<wgt id='morphing_basis_vector_5'> +2.3381076e-05 </wgt>
</rwgt>
</event>
<event>
 4      1 +3.1894900e-05 4.16828500e+02 7.81860800e-03 9.60801000e-02
        2 -1    0    0  501    0 +0.0000000000e+00 +0.0000000000e+00 +1.8336947426e+02 1.8336947426e+02 0.0000000000e+00 0.0000e+00 1.0000e+00
       -2 -1    0    0    0  501 -0.0000000000e+00 -0.0000000000e+00 -2.3687967193e+02 2.3687967193e+02 0.0000000000e+00 0.0000e+00 -1.0000e+00
      -13  1    1    2    0    0 +2.3477939288e+01 +7.5075040222e+01 -2.2133899096e+02 2.3490088168e+02 0.0000000000e+00 0.0000e+00 -1.0000e+00
       13  1    1    2    0    0 -2.3477939288e+01 -7.5075040222e+01 +1.6782879329e+02 1.8534826451e+02 0.0000000000e+00 0.0000e+00 1.0000e+00
<mgrwt>
<rscale>  0 0.41682851E+03</rscale>
<asrwt>0</asrwt>
<pdfrwt beam="1">  1        2 0.28210689E-01 0.41682851E+03</pdfrwt>
<pdfrwt beam="2">  1       -2 0.36443026E-01 0.41682851E+03</pdfrwt>
<totfact> 0.16126063E+03</totfact>
</mgrwt>
<rwgt>
<wgt id='morphing_basis_vector_1'> +2.8184490e-04 </wgt>
<wgt id='morphing_basis_vector_2'> +1.5153012e-04 </wgt>
<wgt id='morphing_basis_vector_3'> +1.8434549e-04 </wgt>
<wgt id='morphing_basis_vector_4'> +4.4480342e-05 </wgt>
<wgt id='morphing_basis_vector_5'> +4.9397996e-05 </wgt>
</rwgt>
</event>
<event>
 4      1 +3.1894900e-05 3.64325700e+02 7.81860800e-03 9.76807600e-02
        2 -1    0    0  501    0 +0.0000000000e+00 +0.0000000000e+00 +2.1230797866e+02 2.1230797866e+02 0.0000000000e+00 0.0000e+00 -1.0000e+00
       -2 -1    0    0    0  501 -0.0000000000e+00 -0.0000000000e+00 -1.5629793889e+02 1.5629793889e+02 0.0000000000e+00 0.0000e+00 1.0000e+00
      -13  1    1    2    0    0 +1.0714131359e+02 +2.5334718518e+01 -1.1882818959e+02 1.6199150496e+02 0.0000000000e+00 0.0000e+00 1.0000e+00
       13  1    1    2    0    0 -1.0714131359e+02 -2.5334718518e+01 +1.7483822937e+02 2.0661441258e+02 0.0000000000e+00 0.0000e+00 -1.0000e+00
<mgrwt>
<rscale>  0 0.36432568E+03</rscale>
<asrwt>0</asrwt>
<pdfrwt beam="1">  1        2 0.32662766E-01 0.36432568E+03</pdfrwt>
<pdfrwt beam="2">  1       -2 0.24045837E-01 0.36432568E+03</pdfrwt>
<totfact> 0.28038516E+03</totfact>
</mgrwt>
<rwgt>
<wgt id='morphing_basis_vector_1'> +1.9895588e-04 </wgt>
<wgt id='morphing_basis_vector_2'> +1.0730354e-04 </wgt>
<wgt id='morphing_basis_vector_3'> +1.2244980e-04 </wgt>
<wgt id='morphing_basis_vector_4'> +2.2986033e-05 </wgt>
<wgt id='morphing_basis_vector_5'> +1.5841988e-05 </wgt>
</rwgt>
</event>
<event>
 4      1 +3.1894900e-05 3.63056100e+02 7.81860800e-03 9.77230000e-02
        2 -1    0    0  501    0 +0.0000000000e+00 +0.0000000000e+00 +4.7952159802e+02 4.7952159802e+02 0.0000000000e+00 0.0000e+00 -1.0000e+00
       -2 -1    0    0    0  501 -0.0000000000e+00 -0.0000000000e+00 -6.8719398144e+01 6.8719398144e+01 0.0000000000e+00 0.0000e+00 1.0000e+00
      -13  1    1    2    0    0 +8.6414431982e+01 +9.7962015796e+01 +1.5057544789e+01 1.3149425938e+02 0.0000000000e+00 0.0000e+00 1.0000e+00
       13  1    1    2    0    0 -8.6414431982e+01 -9.7962015796e+01 +3.9574465509e+02 4.1674673679e+02 0.0000000000e+00 0.0000e+00 -1.0000e+00
<mgrwt>
<rscale>  0 0.36305611E+03</rscale>
<asrwt>0</asrwt>
<pdfrwt beam="1">  1        2 0.73772551E-01 0.36305611E+03</pdfrwt>
<pdfrwt beam="2">  1       -2 0.10572215E-01 0.36305611E+03</pdfrwt>
<totfact> 0.42500375E+03</totfact>
</mgrwt>
<rwgt>
<wgt id='morphing_basis_vector_1'> +1.9738210e-04 </wgt>
<wgt id='morphing_basis_vector_2'> +1.0680162e-04 </wgt>
<wgt id='morphing_basis_vector_3'> +1.2109372e-04 </wgt>
<wgt id='morphing_basis_vector_4'> +2.2667940e-05 </wgt>
<wgt id='morphing_basis_vector_5'> +1.5308524e-05 </wgt>
</rwgt>
</event>
<event>
 4      1 +3.1894900e-05 3.64364300e+02 7.81860800e-03 9.76794800e-02
        2 -1    0    0  501    0 +0.0000000000e+00 +0.0000000000e+00 +6.0066354863e+02 6.0066354863e+02 0.0000000000e+00 0.0000e+00 1.0000e+00
       -2 -1    0    0    0  501 -0.0000000000e+00 -0.0000000000e+00 -5.5256107360e+01 5.5256107360e+01 0.0000000000e+00 0.0000e+00 -1.0000e+00
      -13  1    1    2    0    0 -1.1440042978e+02 -1.0089133536e+02 +4.5203418804e+02 4.7707591329e+02 0.0000000000e+00 0.0000e+00 1.0000e+00
       13  1    1    2    0    0 +1.1440042978e+02 +1.0089133536e+02 +9.3373253227e+01 1.7884374270e+02 0.0000000000e+00 0.0000e+00 -1.0000e+00
<mgrwt>
<rscale>  0 0.36436427E+03</rscale>
<asrwt>0</asrwt>
<pdfrwt beam="1">  1        2 0.92409772E-01 0.36436427E+03</pdfrwt>
<pdfrwt beam="2">  1       -2 0.85009400E-02 0.36436427E+03</pdfrwt>
<totfact> 0.46169307E+03</totfact>
</mgrwt>
<rwgt>
<wgt id='morphing_basis_vector_1'> +2.3585460e-04 </wgt>
<wgt id='morphing_basis_vector_2'> +2.1824663e-04 </wgt>
<wgt id='morphing_basis_vector_3'> +8.0255293e-05 </wgt>
<wgt id='morphing_basis_vector_4'> +3.1866414e-05 </wgt>
<wgt id='morphing_basis_vector_5'> +1.8257414e-05 </wgt>
</rwgt>
</event>
<event>
 4      1 +3.1894900e-05 3.77630800e+02 7.81860800e-03 9.72489800e-02
        2 -1    0    0  501    0 +0.0000000000e+00 +0.0000000000e+00 +3.1627389001e+02 3.1627389001e+02 0.0000000000e+00 0.0000e+00 1.0000e+00
       -2 -1    0    0    0  501 -0.0000000000e+00 -0.0000000000e+00 -1.1272275637e+02 1.1272275637e+02 0.0000000000e+00 0.0000e+00 -1.0000e+00
      -13  1    1    2    0    0 +8.2736527398e+01 -1.4922380763e+02 +9.9179660853e+00 1.7091355645e+02 0.0000000000e+00 0.0000e+00 -1.0000e+00
       13  1    1    2    0    0 -8.2736527398e+01 +1.4922380763e+02 +1.9363316755e+02 2.5808308992e+02 0.0000000000e+00 0.0000e+00 1.0000e+00
<mgrwt>
<rscale>  0 0.37763085E+03</rscale>
<asrwt>0</asrwt>
<pdfrwt beam="1">  1        2 0.48657521E-01 0.37763085E+03</pdfrwt>
<pdfrwt beam="2">  1       -2 0.17341963E-01 0.37763085E+03</pdfrwt>
<totfact> 0.30808556E+03</totfact>
</mgrwt>
<rwgt>
<wgt id='morphing_basis_vector_1'> +2.1868103e-04 </wgt>
<wgt id='morphing_basis_vector_2'> +1.2035756e-04 </wgt>
<wgt id='morphing_basis_vector_3'> +1.3472088e-04 </wgt>
<wgt id='morphing_basis_vector_4'> +2.7282275e-05 </wgt>
<wgt id='morphing_basis_vector_5'> +2.2293431e-05 </wgt>
</rwgt>
</event>
<event>
 4      1 +3.1894900e-05 4.00821700e+02 7.81860800e-03 9.65401600e-02
        2 -1    0    0  501    0 +0.0000000000e+00 +0.0000000000e+00 +4.4306377545e+01 4.4306377545e+01 0.0000000000e+00 0.0000e+00 -1.0000e+00
       -2 -1    0    0    0  501 -0.0000000000e+00 -0.0000000000e+00 -9.0651743274e+02 9.0651743274e+02 0.0000000000e+00 0.0000e+00 1.0000e+00
      -13  1    1    2    0    0 +1.7174298887e+02 -8.6275289979e+01 -5.6582868109e+02 5.9757943090e+02 0.0000000000e+00 0.0000e+00 1.0000e+00
       13  1    1    2    0    0 -1.7174298887e+02 +8.6275289979e+01 -2.9638237410e+02 3.5324437938e+02 0.0000000000e+00 0.0000e+00 -1.0000e+00
<mgrwt>
<rscale>  0 0.40082167E+03</rscale>
<asrwt>0</asrwt>
<pdfrwt beam="1">  1        2 0.68163665E-02 0.40082167E+03</pdfrwt>
<pdfrwt beam="2">  1       -2 0.13946421E+00 0.40082167E+03</pdfrwt>
<totfact> 0.49762994E+02</totfact>
</mgrwt>
<rwgt>
<wgt id='morphing_basis_vector_1'> +2.5643172e-04 </wgt>
<wgt id='morphing_basis_vector_2'> +1.4431238e-04 </wgt>
<wgt id='morphing_basis_vector_3'> +1.6040883e-04 </wgt>
<wgt id='morphing_basis_vector_4'> +3.6506106e-05 </wgt>
<wgt id='morphing_basis_vector_5'> +3.6841312e-05 </wgt>
</rwgt>
</event>
<event>
 4      1 +3.1894900e-05 3.64603600e+02 7.81860800e-03 9.76715400e-02
        2 -1    0    0  501    0 +0.0000000000e+00 +0.0000000000e+00 +2.8153745163e+02 2.8153745163e+02 0.0000000000e+00 0.0000e+00 -1.0000e+00
       -2 -1    0    0    0  501 -0.0000000000e+00 -0.0000000000e+00 -1.1804449379e+02 1.1804449379e+02 0.0000000000e+00 0.0000e+00 1.0000e+00
      -13  1    1    2    0    0 -6.7906689271e+01 -1.2769220516e+02 -3.9884209364e+01 1.5002455754e+02 0.0000000000e+00 0.0000e+00 1.0000e+00
       13  1    1    2    0    0 +6.7906689271e+01 +1.2769220516e+02 +2.0337716721e+02 2.4955738789e+02 0.0000000000e+00 0.0000e+00 -1.0000e+00
<mgrwt>
<rscale>  0 0.36460360E+03</rscale>
<asrwt>0</asrwt>
<pdfrwt beam="1">  1        2 0.43313454E-01 0.36460360E+03</pdfrwt>
<pdfrwt beam="2">  1       -2 0.18160691E-01 0.36460360E+03</pdfrwt>
<totfact> 0.32484484E+03</totfact>
</mgrwt>
<rwgt>
<wgt id='morphing_basis_vector_1'> +1.9963625e-04 </wgt>
<wgt id='morphing_basis_vector_2'> +1.0842020e-04 </wgt>
<wgt id='morphing_basis_vector_3'> +1.2236561e-04 </wgt>
<wgt id='morphing_basis_vector_4'> +2.3136859e-05 </wgt>
<wgt id='morphing_basis_vector_5'> +1.5982035e-05 </wgt>
</rwgt>
</event>
<event>
 4      1 +3.1894900e-05 4.02663400e+02 7.81860800e-03 9.64860700e-02
        2 -1    0    0  501    0 +0.0000000000e+00 +0.0000000000e+00 +8.6401495948e+01 8.6401495948e+01 0.0000000000e+00 0.0000e+00 1.0000e+00
       -2 -1    0    0    0  501 -0.0000000000e+00 -0.0000000000e+00 -4.6914056592e+02 4.6914056592e+02 0.0000000000e+00 0.0000e+00 -1.0000e+00
      -13  1    1    2    0    0 -1.8618719990e+02 +7.0202888341e+01 -1.4906231810e+02 2.4862359826e+02 0.0000000000e+00 0.0000e+00 -1.0000e+00
       13  1    1    2    0    0 +1.8618719990e+02 -7.0202888341e+01 -2.3367675188e+02 3.0691846361e+02 0.0000000000e+00 0.0000e+00 1.0000e+00
<mgrwt>
<rscale>  0 0.40266337E+03</rscale>
<asrwt>0</asrwt>
<pdfrwt beam="1">  1        2 0.13292537E-01 0.40266337E+03</pdfrwt>
<pdfrwt beam="2">  1       -2 0.72175474E-01 0.40266337E+03</pdfrwt>
<totfact> 0.10392760E+03</totfact>
</mgrwt>
<rwgt>
<wgt id='morphing_basis_vector_1'> +2.7075511e-04 </wgt>
<wgt id='morphing_basis_vector_2'> +1.8033116e-04 </wgt>
<wgt id='morphing_basis_vector_3'> +1.5233247e-04 </wgt>
<wgt id='morphing_basis_vector_4'> +3.7906527e-05 </wgt>
<wgt id='morphing_basis_vector_5'> +3.8915076e-05 </wgt>
</rwgt>
</event>
<event>
 4      1 +3.1894900e-05 3.71109500e+02 7.81860800e-03 9.74581800e-02
        2 -1    0    0  501    0 +0.0000000000e+00 +0.0000000000e+00 +1.2149121431e+02 1.2149121431e+02 0.0000000000e+00 0.0000e+00 -1.0000e+00
       -2 -1    0    0    0  501 -0.0000000000e+00 -0.0000000000e+00 -2.8339965962e+02 2.8339965962e+02 0.0000000000e+00 0.0000e+00 1.0000e+00
      -13  1    1    2    0    0 +6.3937361901e+01 -1.1817332201e+02 -2.2057873419e+02 2.5827872205e+02 0.0000000000e+00 0.0000e+00 1.0000e+00
       13  1    1    2    0    0 -6.3937361901e+01 +1.1817332201e+02 +5.8670288876e+01 1.4661215188e+02 0.0000000000e+00 0.0000e+00 -1.0000e+00
<mgrwt>
<rscale>  0 0.37110952E+03</rscale>
<asrwt>0</asrwt>
<pdfrwt beam="1">  1        2 0.18690956E-01 0.37110952E+03</pdfrwt>
<pdfrwt beam="2">  1       -2 0.43599947E-01 0.37110952E+03</pdfrwt>
<totfact> 0.18738959E+03</totfact>
</mgrwt>
<rwgt>
<wgt id='morphing_basis_vector_1'> +2.0842746e-04 </wgt>
<wgt id='morphing_basis_vector_2'> +1.1263807e-04 </wgt>
<wgt id='morphing_basis_vector_3'> +1.2895119e-04 </wgt>
<wgt id='morphing_basis_vector_4'> +2.5009085e-05 </wgt>
<wgt id='morphing_basis_vector_5'> +1.8941868e-05 </wgt>
</rwgt>
</event>
<event>
 4      1 +3.1894900e-05 4.29906600e+02 7.81860800e-03 9.57201900e-02
        2 -1    0    0  501    0 +0.0000000000e+00 +0.0000000000e+00 +1.3980389162e+02 1.3980389162e+02 0.0000000000e+00 0.0000e+00 -1.0000e+00
       -2 -1    0    0    0  501 -0.0000000000e+00 -0.0000000000e+00 -3.3049808784e+02 3.3049808784e+02 0.0000000000e+00 0.0000e+00 1.0000e+00
      -13  1    1    2    0    0 +1.5669593037e+02 +9.0751379358e+01 -2.2205567047e+02 2.8652774427e+02 0.0000000000e+00 0.0000e+00 1.0000e+00
       13  1    1    2    0    0 -1.5669593037e+02 -9.0751379358e+01 +3.1361474257e+01 1.8377423518e+02 0.0000000000e+00 0.0000e+00 -1.0000e+00
<mgrwt>
<rscale>  0 0.42990659E+03</rscale>
<asrwt>0</asrwt>
<pdfrwt beam="1">  1        2 0.21508291E-01 0.42990659E+03</pdfrwt>
<pdfrwt beam="2">  1       -2 0.50845859E-01 0.42990659E+03</pdfrwt>
<totfact> 0.11858599E+03</totfact>
</mgrwt>
<rwgt>
<wgt id='morphing_basis_vector_1'> +3.0766035e-04 </wgt>
<wgt id='morphing_basis_vector_2'> +1.6812078e-04 </wgt>
<wgt id='morphing_basis_vector_3'> +2.0304380e-04 </wgt>
<wgt id='morphing_basis_vector_4'> +5.2207639e-05 </wgt>
<wgt id='morphing_basis_vector_5'> +6.1701380e-05 </wgt>
</rwgt>
</event>
<event>
 4      1 +3.1894900e-05 3.92016500e+02 7.81860800e-03 9.68031000e-02
        2 -1    0    0  501    0 +0.0000000000e+00 +0.0000000000e+00 +2.6114424678e+02 2.6114424678e+02 0.0000000000e+00 0.0000e+00 1.0000e+00
       -2 -1    0    0    0  501 -0.0000000000e+00 -0.0000000000e+00 -1.4711879773e+02 1.4711879773e+02 0.0000000000e+00 0.0000e+00 -1.0000e+00
      -13  1    1    2    0    0 +4.3763400328e+01 +1.6530284959e+02 -4.2764749684e+01 1.7626426497e+02 0.0000000000e+00 0.0000e+00 -1.0000e+00
       13  1    1    2    0    0 -4.3763400328e+01 -1.6530284959e+02 +1.5679019873e+02 2.3199877954e+02 0.0000000000e+00 0.0000e+00 1.0000e+00
<mgrwt>
<rscale>  0 0.39201647E+03</rscale>
<asrwt>0</asrwt>
<pdfrwt beam="1">  1        2 0.40176038E-01 0.39201647E+03</pdfrwt>
<pdfrwt beam="2">  1       -2 0.22633661E-01 0.39201647E+03</pdfrwt>
<totfact> 0.24624868E+03</totfact>
</mgrwt>
<rwgt>
<wgt id='morphing_basis_vector_1'> +2.4038731e-04 </wgt>
<wgt id='morphing_basis_vector_2'> +1.3141819e-04 </wgt>
<wgt id='morphing_basis_vector_3'> +1.5116820e-04 </wgt>
<wgt id='morphing_basis_vector_4'> +3.2595310e-05 </wgt>
<wgt id='morphing_basis_vector_5'> +3.0716330e-05 </wgt>
</rwgt>
</event>
<event>
 4      1 +3.1894900e-05 3.68898600e+02 7.81860800e-03 9.75301600e-02
        2 -1    0    0  501    0 +0.0000000000e+00 +0.0000000000e+00 +9.0849722350e+02 9.0849722350e+02 0.0000000000e+00 0.0000e+00 1.0000e+00
       -2 -1    0    0    0  501 -0.0000000000e+00 -0.0000000000e+00 -3.7448155310e+01 3.7448155310e+01 0.0000000000e+00 0.0000e+00 -1.0000e+00
      -13  1    1    2    0    0 -1.2651974707e+02 +6.2355917794e+01 +1.3075662451e+02 1.9233512871e+02 0.0000000000e+00 0.0000e+00 -1.0000e+00
       13  1    1    2    0    0 +1.2651974707e+02 -6.2355917794e+01 +7.4029244368e+02 7.5361025010e+02 0.0000000000e+00 0.0000e+00 1.0000e+00
<mgrwt>
<rscale>  0 0.36889860E+03</rscale>
<asrwt>0</asrwt>
<pdfrwt beam="1">  1        2 0.13976879E+00 0.36889860E+03</pdfrwt>
<pdfrwt beam="2">  1       -2 0.57612554E-02 0.36889860E+03</pdfrwt>
<totfact> 0.50413212E+03</totfact>
</mgrwt>
<rwgt>
<wgt id='morphing_basis_vector_1'> +2.0543212e-04 </wgt>
<wgt id='morphing_basis_vector_2'> +1.1127733e-04 </wgt>
<wgt id='morphing_basis_vector_3'> +1.2664137e-04 </wgt>
<wgt id='morphing_basis_vector_4'> +2.4357049e-05 </wgt>
<wgt id='morphing_basis_vector_5'> +1.7903792e-05 </wgt>
</rwgt>
</event>
<event>
 4      1 +3.1894900e-05 4.25755900e+02 7.81860800e-03 9.58329300e-02
        2 -1    0    0  501    0 +0.0000000000e+00 +0.0000000000e+00 +6.9518961086e+02 6.9518961086e+02 0.0000000000e+00 0.0000e+00 1.0000e+00
       -2 -1    0    0    0  501 -0.0000000000e+00 -0.0000000000e+00 -6.5186575669e+01 6.5186575669e+01 0.0000000000e+00 0.0000e+00 -1.0000e+00
      -13  1    1    2    0    0 +2.0818534093e+02 +1.8188203610e+01 +2.4256430496e+02 3.2017087464e+02 0.0000000000e+00 0.0000e+00 -1.0000e+00
       13  1    1    2    0    0 -2.0818534093e+02 -1.8188203610e+01 +3.8743873023e+02 4.4020531189e+02 0.0000000000e+00 0.0000e+00 1.0000e+00
<mgrwt>
<rscale>  0 0.42575594E+03</rscale>
<asrwt>0</asrwt>
<pdfrwt beam="1">  1        2 0.10695224E+00 0.42575594E+03</pdfrwt>
<pdfrwt beam="2">  1       -2 0.10028704E-01 0.42575594E+03</pdfrwt>
<totfact> 0.30222218E+03</totfact>
</mgrwt>
<rwgt>
<wgt id='morphing_basis_vector_1'> +3.0323147e-04 </wgt>
<wgt id='morphing_basis_vector_2'> +1.7492303e-04 </wgt>
<wgt id='morphing_basis_vector_3'> +1.9372718e-04 </wgt>
<wgt id='morphing_basis_vector_4'> +4.9400696e-05 </wgt>
<wgt id='morphing_basis_vector_5'> +5.7851917e-05 </wgt>
</rwgt>
</event>
<event>
 4      1 +3.1894900e-05 3.74229900e+02 7.81860800e-03 9.73575100e-02
        2 -1    0    0  501    0 +0.0000000000e+00 +0.0000000000e+00 +2.0869890470e+03 2.0869890470e+03 0.0000000000e+00 0.0000e+00 1.0000e+00
       -2 -1    0    0    0  501 -0.0000000000e+00 -0.0000000000e+00 -1.6776322925e+01 1.6776322925e+01 0.0000000000e+00 0.0000e+00 -1.0000e+00
      -13  1    1    2    0    0 -1.1992696725e+02 +1.4302708720e+02 +9.6121360760e+02 9.7916843524e+02 0.0000000000e+00 0.0000e+00 1.0000e+00
       13  1    1    2    0    0 +1.1992696725e+02 -1.4302708720e+02 +1.1089991165e+03 1.1245969347e+03 0.0000000000e+00 0.0000e+00 -1.0000e+00
<mgrwt>
<rscale>  0 0.37422989E+03</rscale>
<asrwt>0</asrwt>
<pdfrwt beam="1">  1        2 0.32107503E+00 0.37422989E+03</pdfrwt>
<pdfrwt beam="2">  1       -2 0.25809744E-02 0.37422989E+03</pdfrwt>
<totfact> 0.37115222E+03</totfact>
</mgrwt>
<rwgt>
<wgt id='morphing_basis_vector_1'> +2.1765076e-04 </wgt>
<wgt id='morphing_basis_vector_2'> +1.2950017e-04 </wgt>
<wgt id='morphing_basis_vector_3'> +1.2690034e-04 </wgt>
<wgt id='morphing_basis_vector_4'> +2.6915608e-05 </wgt>
<wgt id='morphing_basis_vector_5'> +2.0793320e-05 </wgt>
</rwgt>
</event>
<event>
 4      1 +3.1894900e-05 3.80110700e+02 7.81860800e-03 9.71706200e-02
        2 -1    0    0  501    0 +0.0000000000e+00 +0.0000000000e+00 +1.7858932798e+02 1.7858932798e+02 0.0000000000e+00 0.0000e+00 -1.0000e+00
       -2 -1    0    0    0  501 -0.0000000000e+00 -0.0000000000e+00 -2.0225755932e+02 2.0225755932e+02 0.0000000000e+00 0.0000e+00 1.0000e+00
      -13  1    1    2    0    0 +4.2886075569e+01 -3.0892921154e+01 -1.9474575748e+02 2.0179072850e+02 0.0000000000e+00 0.0000e+00 1.0000e+00
       13  1    1    2    0    0 -4.2886075569e+01 +3.0892921154e+01 +1.7107752613e+02 1.7905615880e+02 0.0000000000e+00 0.0000e+00 -1.0000e+00
<mgrwt>
<rscale>  0 0.38011073E+03</rscale>
<asrwt>0</asrwt>
<pdfrwt beam="1">  1        2 0.27475281E-01 0.38011073E+03</pdfrwt>
<pdfrwt beam="2">  1       -2 0.31116548E-01 0.38011073E+03</pdfrwt>
<totfact> 0.21973859E+03</totfact>
</mgrwt>
<rwgt>
<wgt id='morphing_basis_vector_1'> +2.2116984e-04 </wgt>
<wgt id='morphing_basis_vector_2'> +1.1878441e-04 </wgt>
<wgt id='morphing_basis_vector_3'> +1.3861890e-04 </wgt>
<wgt id='morphing_basis_vector_4'> +2.7939753e-05 </wgt>
<wgt id='morphing_basis_vector_5'> +2.3553468e-05 </wgt>
</rwgt>
</event>
<event>
 4      1 +3.1894900e-05 3.76994600e+02 7.81860800e-03 9.72691900e-02
        2 -1    0    0  501    0 +0.0000000000e+00 +0.0000000000e+00 +6.3787161898e+01 6.3787161898e+01 0.0000000000e+00 0.0000e+00 1.0000e+00
       -2 -1    0    0    0  501 -0.0000000000e+00 -0.0000000000e+00 -5.5702783027e+02 5.5702783027e+02 0.0000000000e+00 0.0000e+00 -1.0000e+00
      -13  1    1    2    0    0 +1.4576794368e+01 -1.5500687615e+02 -7.1633632620e+01 1.7137967181e+02 0.0000000000e+00 0.0000e+00 1.0000e+00
       13  1    1    2    0    0 -1.4576794368e+01 +1.5500687615e+02 -4.2160703576e+02 4.4943532036e+02 0.0000000000e+00 0.0000e+00 -1.0000e+00
<mgrwt>
<rscale>  0 0.37699456E+03</rscale>
<asrwt>0</asrwt>
<pdfrwt beam="1">  1        2 0.98134094E-02 0.37699456E+03</pdfrwt>
<pdfrwt beam="2">  1       -2 0.85696590E-01 0.37699456E+03</pdfrwt>
<totfact> 0.10388791E+03</totfact>
</mgrwt>
<rwgt>
<wgt id='morphing_basis_vector_1'> +2.5890808e-04 </wgt>
<wgt id='morphing_basis_vector_2'> +2.4452414e-04 </wgt>
<wgt id='morphing_basis_vector_3'> +8.9780509e-05 </wgt>
<wgt id='morphing_basis_vector_4'> +3.4394637e-05 </wgt>
<wgt id='morphing_basis_vector_5'> +2.4678129e-05 </wgt>
</rwgt>
</event>
<event>
 4      1 +3.1894900e-05 4.11482200e+02 7.81860800e-03 9.62312800e-02
        2 -1    0    0  501    0 +0.0000000000e+00 +0.0000000000e+00 +1.1377524993e+03 1.1377524993e+03 0.0000000000e+00 0.0000e+00 -1.0000e+00
       -2 -1    0    0    0  501 -0.0000000000e+00 -0.0000000000e+00 -3.7204399209e+01 3.7204399209e+01 0.0000000000e+00 0.0000e+00 1.0000e+00
      -13  1    1    2    0    0 +1.1914342755e+02 +1.4346731428e+02 +3.0214145721e+02 3.5505983546e+02 0.0000000000e+00 0.0000e+00 1.0000e+00
       13  1    1    2    0    0 -1.1914342755e+02 -1.4346731428e+02 +7.9840664287e+02 8.1989706303e+02 0.0000000000e+00 0.0000e+00 -1.0000e+00
<mgrwt>
<rscale>  0 0.41148219E+03</rscale>
<asrwt>0</asrwt>
<pdfrwt beam="1">  1        2 0.17503882E+00 0.41148219E+03</pdfrwt>
<pdfrwt beam="2">  1       -2 0.57237546E-02 0.41148219E+03</pdfrwt>
<totfact> 0.37159751E+03</totfact>
</mgrwt>
<rwgt>
<wgt id='morphing_basis_vector_1'> +2.7370945e-04 </wgt>
<wgt id='morphing_basis_vector_2'> +1.5090943e-04 </wgt>
<wgt id='morphing_basis_vector_3'> +1.7556431e-04 </wgt>
<wgt id='morphing_basis_vector_4'> +4.1606927e-05 </wgt>
<wgt id='morphing_basis_vector_5'> +4.4976549e-05 </wgt>
</rwgt>
</event>
<event>
 4      1 +3.1894900e-05 4.02183100e+02 7.81860800e-03 9.65001500e-02
        2 -1    0    0  501    0 +0.0000000000e+00 +0.0000000000e+00 +1.8549489456e+02 1.8549489456e+02 0.0000000000e+00 0.0000e+00 -1.0000e+00
       -2 -1    0    0    0  501 -0.0000000000e+00 -0.0000000000e+00 -2.1799955326e+02 2.1799955326e+02 0.0000000000e+00 0.0000e+00 1.0000e+00
      -13  1    1    2    0    0 -1.1503011539e+01 +5.4661092529e+01 -2.1005998480e+02 2.1735995843e+02 0.0000000000e+00 0.0000e+00 1.0000e+00
       13  1    1    2    0    0 +1.1503011539e+01 -5.4661092529e+01 +1.7755532611e+02 1.8613448939e+02 0.0000000000e+00 0.0000e+00 -1.0000e+00
<mgrwt>
<rscale>  0 0.40218306E+03</rscale>
<asrwt>0</asrwt>
<pdfrwt beam="1">  1        2 0.28537676E-01 0.40218306E+03</pdfrwt>
<pdfrwt beam="2">  1       -2 0.33538393E-01 0.40218306E+03</pdfrwt>
<totfact> 0.18454031E+03</totfact>
</mgrwt>
<rwgt>
<wgt id='morphing_basis_vector_1'> +2.5607939e-04 </wgt>
<wgt id='morphing_basis_vector_2'> +1.3748262e-04 </wgt>
<wgt id='morphing_basis_vector_3'> +1.6462209e-04 </wgt>
<wgt id='morphing_basis_vector_4'> +3.6983137e-05 </wgt>
<wgt id='morphing_basis_vector_5'> +3.7659983e-05 </wgt>
</rwgt>
</event>
<event>
 4      1 +3.1894900e-05 3.70243600e+02 7.81860800e-03 9.74863100e-02
        2 -1    0    0  501    0 +0.0000000000e+00 +0.0000000000e+00 +9.0919976516e+02 9.0919976516e+02 0.0000000000e+00 0.0000e+00 1.0000e+00
       -2 -1    0    0    0  501 -0.0000000000e+00 -0.0000000000e+00 -3.7692573176e+01 3.7692573176e+01 0.0000000000e+00 0.0000e+00 -1.0000e+00
      -13  1    1    2    0    0 -1.6860487709e+02 -7.6340410461e+01 +4.4553102821e+02 4.8244518855e+02 0.0000000000e+00 0.0000e+00 -1.0000e+00
       13  1    1    2    0    0 +1.6860487709e+02 +7.6340410461e+01 +4.2597616377e+02 4.6444714979e+02 0.0000000000e+00 0.0000e+00 1.0000e+00
<mgrwt>
<rscale>  0 0.37024359E+03</rscale>
<asrwt>0</asrwt>
<pdfrwt beam="1">  1        2 0.13987687E+00 0.37024359E+03</pdfrwt>
<pdfrwt beam="2">  1       -2 0.57988581E-02 0.37024359E+03</pdfrwt>
<totfact> 0.49873039E+03</totfact>
</mgrwt>
<rwgt>
<wgt id='morphing_basis_vector_1'> +2.1381928e-04 </wgt>
<wgt id='morphing_basis_vector_2'> +1.3193919e-04 </wgt>
<wgt id='morphing_basis_vector_3'> +1.2072732e-04 </wgt>
<wgt id='morphing_basis_vector_4'> +2.6140756e-05 </wgt>
<wgt id='morphing_basis_vector_5'> +1.8962710e-05 </wgt>
</rwgt>
</event>
<event>
 4      1 +3.1894900e-05 3.99028100e+02 7.81860800e-03 9.65931300e-02
        2 -1    0    0  501    0 +0.0000000000e+00 +0.0000000000e+00 +1.2650882512e+03 1.2650882512e+03 0.0000000000e+00 0.0000e+00 -1.0000e+00
       -2 -1    0    0    0  501 -0.0000000000e+00 -0.0000000000e+00 -3.1464881480e+01 3.1464881480e+01 0.0000000000e+00 0.0000e+00 1.0000e+00
      -13  1    1    2    0    0 +1.2552763539e+02 +1.0819234879e+02 +2.5581880249e+02 3.0480490693e+02 0.0000000000e+00 0.0000e+00 1.0000e+00
       13  1    1    2    0    0 -1.2552763539e+02 -1.0819234879e+02 +9.7780456726e+02 9.9174822577e+02 0.0000000000e+00 0.0000e+00 -1.0000e+00
<mgrwt>
<rscale>  0 0.39902808E+03</rscale>
<asrwt>0</asrwt>
<pdfrwt beam="1">  1        2 0.19462892E+00 0.39902808E+03</pdfrwt>
<pdfrwt beam="2">  1       -2 0.48407520E-02 0.39902808E+03</pdfrwt>
<totfact> 0.40512563E+03</totfact>
</mgrwt>
<rwgt>
<wgt id='morphing_basis_vector_1'> +2.5149815e-04 </wgt>
<wgt id='morphing_basis_vector_2'> +1.3674154e-04 </wgt>
<wgt id='morphing_basis_vector_3'> +1.5998277e-04 </wgt>
<wgt id='morphing_basis_vector_4'> +3.5577281e-05 </wgt>
<wgt id='morphing_basis_vector_5'> +3.5434177e-05 </wgt>
</rwgt>
</event>
<event>
 4      1 +3.1894900e-05 4.22849800e+02 7.81860800e-03 9.59126800e-02
        2 -1    0    0  501    0 +0.0000000000e+00 +0.0000000000e+00 +2.1669359035e+03 2.1669359035e+03 0.0000000000e+00 0.0000e+00 1.0000e+00
       -2 -1    0    0    0  501 -0.0000000000e+00 -0.0000000000e+00 -2.0628431855e+01 2.0628431855e+01 0.0000000000e+00 0.0000e+00 -1.0000e+00
      -13  1    1    2    0    0 +1.5563228243e+02 -1.4263891180e+02 +1.1328661337e+03 1.1523684061e+03 0.0000000000e+00 0.0000e+00 -1.0000e+00
       13  1    1    2    0    0 -1.5563228243e+02 +1.4263891180e+02 +1.0134413379e+03 1.0351959293e+03 0.0000000000e+00 0.0000e+00 1.0000e+00
<mgrwt>
<rscale>  0 0.42284981E+03</rscale>
<asrwt>0</asrwt>
<pdfrwt beam="1">  1        2 0.33337457E+00 0.42284981E+03</pdfrwt>
<pdfrwt beam="2">  1       -2 0.31736066E-02 0.42284981E+03</pdfrwt>
<totfact> 0.24685638E+03</totfact>
</mgrwt>
<rwgt>
<wgt id='morphing_basis_vector_1'> +3.0440704e-04 </wgt>
<wgt id='morphing_basis_vector_2'> +1.9255543e-04 </wgt>
<wgt id='morphing_basis_vector_3'> +1.8380459e-04 </wgt>
<wgt id='morphing_basis_vector_4'> +4.7386517e-05 </wgt>
<wgt id='morphing_basis_vector_5'> +5.5523759e-05 </wgt>
</rwgt>
</event>
<event>
 4      1 +3.1894900e-05 4.29753000e+02 7.81860800e-03 9.57243400e-02
        2 -1    0    0  501    0 +0.0000000000e+00 +0.0000000000e+00 +1.1063958186e+03 1.1063958186e+03 0.0000000000e+00 0.0000e+00 1.0000e+00
       -2 -1    0    0    0  501 -0.0000000000e+00 -0.0000000000e+00 -4.1731816257e+01 4.1731816257e+01 0.0000000000e+00 0.0000e+00 -1.0000e+00
      -13  1    1    2    0    0 +3.4513901250e+01 -2.1141712012e+02 +5.7731485401e+02 6.1577662242e+02 0.0000000000e+00 0.0000e+00 -1.0000e+00
       13  1    1    2    0    0 -3.4513901250e+01 +2.1141712012e+02 +4.8734914831e+02 5.3235101242e+02 0.0000000000e+00 0.0000e+00 1.0000e+00
<mgrwt>
<rscale>  0 0.42975298E+03</rscale>
<asrwt>0</asrwt>
<pdfrwt beam="1">  1        2 0.17021472E+00 0.42975298E+03</pdfrwt>
<pdfrwt beam="2">  1       -2 0.64202803E-02 0.42975298E+03</pdfrwt>
<totfact> 0.32556099E+03</totfact>
</mgrwt>
<rwgt>
<wgt id='morphing_basis_vector_1'> +3.1936705e-04 </wgt>
<wgt id='morphing_basis_vector_2'> +2.0494412e-04 </wgt>
<wgt id='morphing_basis_vector_3'> +1.9344478e-04 </wgt>
<wgt id='morphing_basis_vector_4'> +5.1124728e-05 </wgt>
<wgt id='morphing_basis_vector_5'> +6.2274694e-05 </wgt>
</rwgt>
</event>
<event>
 4      1 +3.1894900e-05 4.05575900e+02 7.81860800e-03 9.64011600e-02
        2 -1    0    0  501    0 +0.0000000000e+00 +0.0000000000e+00 +5.3203640464e+02 5.3203640464e+02 0.0000000000e+00 0.0000e+00 1.0000e+00
       -2 -1    0    0    0  501 -0.0000000000e+00 -0.0000000000e+00 -7.7293479174e+01 7.7293479174e+01 0.0000000000e+00 0.0000e+00 -1.0000e+00
      -13  1    1    2    0    0 +5.2103599845e+01 -1.5024653496e+02 +4.1642186125e+02 4.4575326462e+02 0.0000000000e+00 0.0000e+00 1.0000e+00
       13  1    1    2    0    0 -5.2103599845e+01 +1.5024653496e+02 +3.8321064211e+01 1.6357661920e+02 0.0000000000e+00 0.0000e+00 -1.0000e+00
<mgrwt>
<rscale>  0 0.40557586E+03</rscale>
<asrwt>0</asrwt>
<pdfrwt beam="1">  1        2 0.81851752E-01 0.40557586E+03</pdfrwt>
<pdfrwt beam="2">  1       -2 0.11891305E-01 0.40557586E+03</pdfrwt>
<totfact> 0.31562020E+03</totfact>
</mgrwt>
<rwgt>
<wgt id='morphing_basis_vector_1'> +3.2139829e-04 </wgt>
<wgt id='morphing_basis_vector_2'> +3.2290407e-04 </wgt>
<wgt id='morphing_basis_vector_3'> +1.1456959e-04 </wgt>
<wgt id='morphing_basis_vector_4'> +4.0745675e-05 </wgt>
<wgt id='morphing_basis_vector_5'> +4.4053518e-05 </wgt>
</rwgt>
</event>
<event>
 4      1 +3.1894900e-05 3.95809300e+02 7.81860800e-03 9.66889500e-02
        2 -1    0    0  501    0 +0.0000000000e+00 +0.0000000000e+00 +1.2958518579e+03 1.2958518579e+03 0.0000000000e+00 0.0000e+00 1.0000e+00
       -2 -1    0    0    0  501 -0.0000000000e+00 -0.0000000000e+00 -3.0224327785e+01 3.0224327785e+01 0.0000000000e+00 0.0000e+00 -1.0000e+00
      -13  1    1    2    0    0 -1.9766134546e+02 +9.8048589862e+00 +6.3170987360e+02 6.6198452184e+02 0.0000000000e+00 0.0000e+00 -1.0000e+00
       13  1    1    2    0    0 +1.9766134546e+02 -9.8048589862e+00 +6.3391765649e+02 6.6409166382e+02 0.0000000000e+00 0.0000e+00 1.0000e+00
<mgrwt>
<rscale>  0 0.39580930E+03</rscale>
<asrwt>0</asrwt>
<pdfrwt beam="1">  1        2 0.19936178E+00 0.39580930E+03</pdfrwt>
<pdfrwt beam="2">  1       -2 0.46498976E-02 0.39580930E+03</pdfrwt>
<totfact> 0.41370623E+03</totfact>
</mgrwt>
<rwgt>
<wgt id='morphing_basis_vector_1'> +2.5315427e-04 </wgt>
<wgt id='morphing_basis_vector_2'> +1.5505955e-04 </wgt>
<wgt id='morphing_basis_vector_3'> +1.4927786e-04 </wgt>
<wgt id='morphing_basis_vector_4'> +3.4747276e-05 </wgt>
<wgt id='morphing_basis_vector_5'> +3.3663197e-05 </wgt>
</rwgt>
</event>
<event>
 4      1 +3.1894900e-05 3.99955900e+02 7.81860800e-03 9.65656900e-02
        2 -1    0    0  501    0 +0.0000000000e+00 +0.0000000000e+00 +7.8692616032e+02 7.8692616032e+02 0.0000000000e+00 0.0000e+00 -1.0000e+00
       -2 -1    0    0    0  501 -0.0000000000e+00 -0.0000000000e+00 -5.0819480019e+01 5.0819480019e+01 0.0000000000e+00 0.0000e+00 1.0000e+00
      -13  1    1    2    0    0 -1.2018979512e+02 -1.3134210068e+02 +1.7728592616e+02 2.5125014204e+02 0.0000000000e+00 0.0000e+00 1.0000e+00
       13  1    1    2    0    0 +1.2018979512e+02 +1.3134210068e+02 +5.5882075414e+02 5.8649549830e+02 0.0000000000e+00 0.0000e+00 -1.0000e+00
<mgrwt>
<rscale>  0 0.39995589E+03</rscale>
<asrwt>0</asrwt>
<pdfrwt beam="1">  1        2 0.12106555E+00 0.39995589E+03</pdfrwt>
<pdfrwt beam="2">  1       -2 0.78183821E-02 0.39995589E+03</pdfrwt>
<totfact> 0.38131329E+03</totfact>
</mgrwt>
<rwgt>
<wgt id='morphing_basis_vector_1'> +2.5354350e-04 </wgt>
<wgt id='morphing_basis_vector_2'> +1.3911778e-04 </wgt>
<wgt id='morphing_basis_vector_3'> +1.6067023e-04 </wgt>
<wgt id='morphing_basis_vector_4'> +3.6027808e-05 </wgt>
<wgt id='morphing_basis_vector_5'> +3.6125768e-05 </wgt>
</rwgt>
</event>
<event>
 4      1 +3.1894900e-05 4.04124600e+02 7.81860800e-03 9.64433800e-02
        2 -1    0    0  501    0 +0.0000000000e+00 +0.0000000000e+00 +1.2410713064e+03 1.2410713064e+03 0.0000000000e+00 0.0000e+00 -1.0000e+00
       -2 -1    0    0    0  501 -0.0000000000e+00 -0.0000000000e+00 -3.2898326263e+01 3.2898326263e+01 0.0000000000e+00 0.0000e+00 1.0000e+00
      -13  1    1    2    0    0 +1.6852301202e+02 -4.8131659542e+01 +2.8707630290e+02 3.3634724010e+02 0.0000000000e+00 0.0000e+00 1.0000e+00
       13  1    1    2    0    0 -1.6852301202e+02 +4.8131659542e+01 +9.2109667727e+02 9.3762239260e+02 0.0000000000e+00 0.0000e+00 -1.0000e+00
<mgrwt>
<rscale>  0 0.40412458E+03</rscale>
<asrwt>0</asrwt>
<pdfrwt beam="1">  1        2 0.19093401E+00 0.40412458E+03</pdfrwt>
<pdfrwt beam="2">  1       -2 0.50612819E-02 0.40412458E+03</pdfrwt>
<totfact> 0.39081179E+03</totfact>
</mgrwt>
<rwgt>
<wgt id='morphing_basis_vector_1'> +2.6036220e-04 </wgt>
<wgt id='morphing_basis_vector_2'> +1.4229815e-04 </wgt>
<wgt id='morphing_basis_vector_3'> +1.6620514e-04 </wgt>
<wgt id='morphing_basis_vector_4'> +3.7947807e-05 </wgt>
<wgt id='morphing_basis_vector_5'> +3.9166008e-05 </wgt>
</rwgt>
</event>
<event>
 4      1 +3.1894900e-05 4.12784300e+02 7.81860800e-03 9.61942300e-02
        2 -1    0    0  501    0 +0.0000000000e+00 +0.0000000000e+00 +8.9489062521e+01 8.9489062521e+01 0.0000000000e+00 0.0000e+00 -1.0000e+00
       -2 -1    0    0    0  501 -0.0000000000e+00 -0.0000000000e+00 -4.7601029245e+02 4.7601029245e+02 0.0000000000e+00 0.0000e+00 1.0000e+00
      -13  1    1    2    0    0 +1.4958842890e+02 -1.3871212941e+02 -2.3614641996e+02 3.1206230879e+02 0.0000000000e+00 0.0000e+00 1.0000e+00
       13  1    1    2    0    0 -1.4958842890e+02 +1.3871212941e+02 -1.5037480997e+02 2.5343704618e+02 0.0000000000e+00 0.0000e+00 -1.0000e+00
<mgrwt>
<rscale>  0 0.41278428E+03</rscale>
<asrwt>0</asrwt>
<pdfrwt beam="1">  1        2 0.13767548E-01 0.41278428E+03</pdfrwt>
<pdfrwt beam="2">  1       -2 0.73232352E-01 0.41278428E+03</pdfrwt>
<totfact> 0.96480696E+02</totfact>
</mgrwt>
<rwgt>
<wgt id='morphing_basis_vector_1'> +2.7940940e-04 </wgt>
<wgt id='morphing_basis_vector_2'> +1.6253554e-04 </wgt>
<wgt id='morphing_basis_vector_3'> +1.7441257e-04 </wgt>
<wgt id='morphing_basis_vector_4'> +4.2285052e-05 </wgt>
<wgt id='morphing_basis_vector_5'> +4.6266472e-05 </wgt>
</rwgt>
</event>
<event>
 4      1 +3.1894900e-05 3.82978500e+02 7.81860800e-03 9.70807900e-02
        2 -1    0    0  501    0 +0.0000000000e+00 +0.0000000000e+00 +8.7973181058e+02 8.7973181058e+02 0.0000000000e+00 0.0000e+00 1.0000e+00
       -2 -1    0    0    0  501 -0.0000000000e+00 -0.0000000000e+00 -4.1681032312e+01 4.1681032312e+01 0.0000000000e+00 0.0000e+00 -1.0000e+00
      -13  1    1    2    0    0 -1.3400356775e+02 -9.1748721180e+01 +1.7493078999e+02 2.3869554938e+02 0.0000000000e+00 0.0000e+00 -1.0000e+00
       13  1    1    2    0    0 +1.3400356775e+02 +9.1748721180e+01 +6.6311998828e+02 6.8271729351e+02 0.0000000000e+00 0.0000e+00 1.0000e+00
<mgrwt>
<rscale>  0 0.38297849E+03</rscale>
<asrwt>0</asrwt>
<pdfrwt beam="1">  1        2 0.13534334E+00 0.38297849E+03</pdfrwt>
<pdfrwt beam="2">  1       -2 0.64124672E-02 0.38297849E+03</pdfrwt>
<totfact> 0.44743741E+03</totfact>
</mgrwt>
<rwgt>
<wgt id='morphing_basis_vector_1'> +2.2616527e-04 </wgt>
<wgt id='morphing_basis_vector_2'> +1.2322172e-04 </wgt>
<wgt id='morphing_basis_vector_3'> +1.4101516e-04 </wgt>
<wgt id='morphing_basis_vector_4'> +2.9077179e-05 </wgt>
<wgt id='morphing_basis_vector_5'> +2.5206202e-05 </wgt>
</rwgt>
</event>
<event>
 4      1 +3.1894900e-05 3.66013800e+02 7.81860800e-03 9.76248900e-02
        2 -1    0    0  501    0 +0.0000000000e+00 +0.0000000000e+00 +8.2633279897e+02 8.2633279897e+02 0.0000000000e+00 0.0000e+00 1.0000e+00
       -2 -1    0    0    0  501 -0.0000000000e+00 -0.0000000000e+00 -4.0530317723e+01 4.0530317723e+01 0.0000000000e+00 0.0000e+00 -1.0000e+00
      -13  1    1    2    0    0 -1.4325085931e+02 +5.8228541900e+01 +1.6108738500e+02 2.2329468734e+02 0.0000000000e+00 0.0000e+00 -1.0000e+00
       13  1    1    2    0    0 +1.4325085931e+02 -5.8228541900e+01 +6.2471509624e+02 6.4356842935e+02 0.0000000000e+00 0.0000e+00 1.0000e+00
<mgrwt>
<rscale>  0 0.36601383E+03</rscale>
<asrwt>0</asrwt>
<pdfrwt beam="1">  1        2 0.12712811E+00 0.36601383E+03</pdfrwt>
<pdfrwt beam="2">  1       -2 0.62354341E-02 0.36601383E+03</pdfrwt>
<totfact> 0.50534718E+03</totfact>
</mgrwt>
<rwgt>
<wgt id='morphing_basis_vector_1'> +2.0176667e-04 </wgt>
<wgt id='morphing_basis_vector_2'> +1.1008419e-04 </wgt>
<wgt id='morphing_basis_vector_3'> +1.2347631e-04 </wgt>
<wgt id='morphing_basis_vector_4'> +2.3584812e-05 </wgt>
<wgt id='morphing_basis_vector_5'> +1.6614441e-05 </wgt>
</rwgt>
</event>
<event>
 4      1 +3.1894900e-05 3.60826500e+02 7.81860800e-03 9.77976200e-02
        2 -1    0    0  501    0 +0.0000000000e+00 +0.0000000000e+00 +1.1886913170e+03 1.1886913170e+03 0.0000000000e+00 0.0000e+00 -1.0000e+00
       -2 -1    0    0    0  501 -0.0000000000e+00 -0.0000000000e+00 -2.7382159639e+01 2.7382159639e+01 0.0000000000e+00 0.0000e+00 1.0000e+00
      -13  1    1    2    0    0 +1.0144443302e+01 -1.7533793388e+02 +7.1972096075e+02 7.4084044309e+02 0.0000000000e+00 0.0000e+00 1.0000e+00
       13  1    1    2    0    0 -1.0144443302e+01 +1.7533793388e+02 +4.4158819666e+02 4.7523303359e+02 0.0000000000e+00 0.0000e+00 -1.0000e+00
<mgrwt>
<rscale>  0 0.36082647E+03</rscale>
<asrwt>0</asrwt>
<pdfrwt beam="1">  1        2 0.18287555E+00 0.36082647E+03</pdfrwt>
<pdfrwt beam="2">  1       -2 0.42126409E-02 0.36082647E+03</pdfrwt>
<totfact> 0.54993740E+03</totfact>
</mgrwt>
<rwgt>
<wgt id='morphing_basis_vector_1'> +2.0745243e-04 </wgt>
<wgt id='morphing_basis_vector_2'> +1.4440064e-04 </wgt>
<wgt id='morphing_basis_vector_3'> +1.0381353e-04 </wgt>
<wgt id='morphing_basis_vector_4'> +2.5435795e-05 </wgt>
<wgt id='morphing_basis_vector_5'> +1.5225885e-05 </wgt>
</rwgt>
</event>
<event>
 4      1 +3.1894900e-05 4.19753000e+02 7.81860800e-03 9.59984100e-02
        2 -1    0    0  501    0 +0.0000000000e+00 +0.0000000000e+00 +6.5996278084e+01 6.5996278084e+01 0.0000000000e+00 0.0000e+00 1.0000e+00
       -2 -1    0    0    0  501 -0.0000000000e+00 -0.0000000000e+00 -6.6743379524e+02 6.6743379524e+02 0.0000000000e+00 0.0000e+00 -1.0000e+00
      -13  1    1    2    0    0 +1.4942107366e+02 +1.0374079280e+02 -1.1780050744e+02 2.1671587136e+02 0.0000000000e+00 0.0000e+00 1.0000e+00
       13  1    1    2    0    0 -1.4942107366e+02 -1.0374079280e+02 -4.8363700972e+02 5.1671420197e+02 0.0000000000e+00 0.0000e+00 -1.0000e+00
<mgrwt>
<rscale>  0 0.41975301E+03</rscale>
<asrwt>0</asrwt>
<pdfrwt beam="1">  1        2 0.10153274E-01 0.41975301E+03</pdfrwt>
<pdfrwt beam="2">  1       -2 0.10268212E+00 0.41975301E+03</pdfrwt>
<totfact> 0.65260440E+02</totfact>
</mgrwt>
<rwgt>
<wgt id='morphing_basis_vector_1'> +3.3499128e-04 </wgt>
<wgt id='morphing_basis_vector_2'> +3.0121567e-04 </wgt>
<wgt id='morphing_basis_vector_3'> +1.4868231e-04 </wgt>
<wgt id='morphing_basis_vector_4'> +4.4524888e-05 </wgt>
<wgt id='morphing_basis_vector_5'> +5.4972500e-05 </wgt>
</rwgt>
</event>
<event>
 4      1 +3.1894900e-05 3.86151500e+02 7.81860800e-03 9.69823700e-02
        2 -1    0    0  501    0 +0.0000000000e+00 +0.0000000000e+00 +3.3087212995e+02 3.3087212995e+02 0.0000000000e+00 0.0000e+00 -1.0000e+00
       -2 -1    0    0    0  501 -0.0000000000e+00 -0.0000000000e+00 -1.1266662328e+02 1.1266662328e+02 0.0000000000e+00 0.0000e+00 1.0000e+00
      -13  1    1    2    0    0 -1.3145371083e+02 -1.4128304783e+02 +1.1611474571e+02 2.2521903087e+02 0.0000000000e+00 0.0000e+00 1.0000e+00
       13  1    1    2    0    0 +1.3145371083e+02 +1.4128304783e+02 +1.0209076097e+02 2.1831972236e+02 0.0000000000e+00 0.0000e+00 -1.0000e+00
<mgrwt>
<rscale>  0 0.38615150E+03</rscale>
<asrwt>0</asrwt>
<pdfrwt beam="1">  1        2 0.50903404E-01 0.38615150E+03</pdfrwt>
<pdfrwt beam="2">  1       -2 0.17333327E-01 0.38615150E+03</pdfrwt>
<totfact> 0.29349165E+03</totfact>
</mgrwt>
<rwgt>
<wgt id='morphing_basis_vector_1'> +2.3828978e-04 </wgt>
<wgt id='morphing_basis_vector_2'> +1.4799085e-04 </wgt>
<wgt id='morphing_basis_vector_3'> +1.3710726e-04 </wgt>
<wgt id='morphing_basis_vector_4'> +3.1221864e-05 </wgt>
<wgt id='morphing_basis_vector_5'> +2.7541931e-05 </wgt>
</rwgt>
</event>
<event>
 4      1 +3.1894900e-05 4.14288800e+02 7.81860800e-03 9.61516100e-02
        2 -1    0    0  501    0 +0.0000000000e+00 +0.0000000000e+00 +1.8264215667e+02 1.8264215667e+02 0.0000000000e+00 0.0000e+00 1.0000e+00
       -2 -1    0    0    0  501 -0.0000000000e+00 -0.0000000000e+00 -2.3493368236e+02 2.3493368236e+02 0.0000000000e+00 0.0000e+00 -1.0000e+00
      -13  1    1    2    0    0 +1.1987930241e+02 -3.8789078133e+01 -1.9186791905e+02 2.2954071117e+02 0.0000000000e+00 0.0000e+00 -1.0000e+00
       13  1    1    2    0    0 -1.1987930241e+02 +3.8789078133e+01 +1.3957639335e+02 1.8803512786e+02 0.0000000000e+00 0.0000e+00 1.0000e+00
<mgrwt>
<rscale>  0 0.41428876E+03</rscale>
<asrwt>0</asrwt>
<pdfrwt beam="1">  1        2 0.28098794E-01 0.41428876E+03</pdfrwt>
<pdfrwt beam="2">  1       -2 0.36143643E-01 0.41428876E+03</pdfrwt>
<totfact> 0.16441316E+03</totfact>
</mgrwt>
<rwgt>
<wgt id='morphing_basis_vector_1'> +2.7733586e-04 </wgt>
<wgt id='morphing_basis_vector_2'> +1.4934872e-04 </wgt>
<wgt id='morphing_basis_vector_3'> +1.8067610e-04 </wgt>
<wgt id='morphing_basis_vector_4'> +4.3088072e-05 </wgt>
<wgt id='morphing_basis_vector_5'> +4.7224443e-05 </wgt>
</rwgt>
</event>
<event>
 4      1 +3.1894900e-05 3.90953500e+02 7.81860800e-03 9.68353500e-02
        2 -1    0    0  501    0 +0.0000000000e+00 +0.0000000000e+00 +1.5339292381e+02 1.5339292381e+02 0.0000000000e+00 0.0000e+00 -1.0000e+00
       -2 -1    0    0    0  501 -0.0000000000e+00 -0.0000000000e+00 -2.4910634724e+02 2.4910634724e+02 0.0000000000e+00 0.0000e+00 1.0000e+00
      -13  1    1    2    0    0 +1.5595434259e+02 +1.0930530724e+02 -9.3223287860e+01 2.1203770552e+02 0.0000000000e+00 0.0000e+00 1.0000e+00
       13  1    1    2    0    0 -1.5595434259e+02 -1.0930530724e+02 -2.4901355700e+00 1.9046156552e+02 0.0000000000e+00 0.0000e+00 -1.0000e+00
<mgrwt>
<rscale>  0 0.39095345E+03</rscale>
<asrwt>0</asrwt>
<pdfrwt beam="1">  1        2 0.23598912E-01 0.39095345E+03</pdfrwt>
<pdfrwt beam="2">  1       -2 0.38324053E-01 0.39095345E+03</pdfrwt>
<totfact> 0.18080650E+03</totfact>
</mgrwt>
<rwgt>
<wgt id='morphing_basis_vector_1'> +2.4087248e-04 </wgt>
<wgt id='morphing_basis_vector_2'> +1.3712271e-04 </wgt>
<wgt id='morphing_basis_vector_3'> +1.4774596e-04 </wgt>
<wgt id='morphing_basis_vector_4'> +3.2398774e-05 </wgt>
<wgt id='morphing_basis_vector_5'> +3.0178180e-05 </wgt>
</rwgt>
</event>
<event>
 4      1 +3.1894900e-05 3.83262100e+02 7.81860800e-03 9.70719500e-02
        2 -1    0    0  501    0 +0.0000000000e+00 +0.0000000000e+00 +5.6932889498e+02 5.6932889498e+02 0.0000000000e+00 0.0000e+00 -1.0000e+00
       -2 -1    0    0    0  501 -0.0000000000e+00 -0.0000000000e+00 -6.4501322020e+01 6.4501322020e+01 0.0000000000e+00 0.0000e+00 1.0000e+00
      -13  1    1    2    0    0 -1.0710560389e+02 +9.3250706979e+01 +3.9627450718e+01 1.4743690036e+02 0.0000000000e+00 0.0000e+00 1.0000e+00
       13  1    1    2    0    0 +1.0710560389e+02 -9.3250706979e+01 +4.6520012224e+02 4.8639331664e+02 0.0000000000e+00 0.0000e+00 -1.0000e+00
<mgrwt>
<rscale>  0 0.38326214E+03</rscale>
<asrwt>0</asrwt>
<pdfrwt beam="1">  1        2 0.87589058E-01 0.38326214E+03</pdfrwt>
<pdfrwt beam="2">  1       -2 0.99232807E-02 0.38326214E+03</pdfrwt>
<totfact> 0.38709029E+03</totfact>
</mgrwt>
<rwgt>
<wgt id='morphing_basis_vector_1'> +2.2617218e-04 </wgt>
<wgt id='morphing_basis_vector_2'> +1.2217148e-04 </wgt>
<wgt id='morphing_basis_vector_3'> +1.4176814e-04 </wgt>
<wgt id='morphing_basis_vector_4'> +2.9118730e-05 </wgt>
<wgt id='morphing_basis_vector_5'> +2.5340710e-05 </wgt>
</rwgt>
</event>
<event>
 4      1 +3.1894900e-05 3.99417200e+02 7.81860800e-03 9.65816100e-02
        2 -1    0    0  501    0 +0.0000000000e+00 +0.0000000000e+00 +8.1099833561e+02 8.1099833561e+02 0.0000000000e+00 0.0000e+00 1.0000e+00
       -2 -1    0    0    0  501 -0.0000000000e+00 -0.0000000000e+00 -4.9178314835e+01 4.9178314835e+01 0.0000000000e+00 0.0000e+00 -1.0000e+00
      -13  1    1    2    0    0 -2.0016038545e+01 +1.7771373631e+02 +1.8948700944e+02 2.6055352736e+02 0.0000000000e+00 0.0000e+00 -1.0000e+00
       13  1    1    2    0    0 +2.0016038545e+01 -1.7771373631e+02 +5.7233301134e+02 5.9962312308e+02 0.0000000000e+00 0.0000e+00 1.0000e+00
<mgrwt>
<rscale>  0 0.39941723E+03</rscale>
<asrwt>0</asrwt>
<pdfrwt beam="1">  1        2 0.12476897E+00 0.39941723E+03</pdfrwt>
<pdfrwt beam="2">  1       -2 0.75658952E-02 0.39941723E+03</pdfrwt>
<totfact> 0.38612648E+03</totfact>
</mgrwt>
<rwgt>
<wgt id='morphing_basis_vector_1'> +2.5270649e-04 </wgt>
<wgt id='morphing_basis_vector_2'> +1.3881142e-04 </wgt>
<wgt id='morphing_basis_vector_3'> +1.5993596e-04 </wgt>
<wgt id='morphing_basis_vector_4'> +3.5789558e-05 </wgt>
<wgt id='morphing_basis_vector_5'> +3.5746310e-05 </wgt>
</rwgt>
</event>
<event>
 4      1 +3.1894900e-05 4.27248000e+02 7.81860800e-03 9.57922500e-02
        2 -1    0    0  501    0 +0.0000000000e+00 +0.0000000000e+00 +1.5084681640e+03 1.5084681640e+03 0.0000000000e+00 0.0000e+00 1.0000e+00
       -2 -1    0    0    0  501 -0.0000000000e+00 -0.0000000000e+00 -3.0252678808e+01 3.0252678808e+01 0.0000000000e+00 0.0000e+00 -1.0000e+00
      -13  1    1    2    0    0 -1.2787338702e+02 +1.5122012732e+02 +4.5062855177e+02 4.9222476744e+02 0.0000000000e+00 0.0000e+00 -1.0000e+00
       13  1    1    2    0    0 +1.2787338702e+02 -1.5122012732e+02 +1.0275869334e+03 1.0464960753e+03 0.0000000000e+00 0.0000e+00 1.0000e+00
<mgrwt>
<rscale>  0 0.42724795E+03</rscale>
<asrwt>0</asrwt>
<pdfrwt beam="1">  1        2 0.23207197E+00 0.42724795E+03</pdfrwt>
<pdfrwt beam="2">  1       -2 0.46542595E-02 0.42724795E+03</pdfrwt>
<totfact> 0.31622060E+03</totfact>
</mgrwt>
<rwgt>
<wgt id='morphing_basis_vector_1'> +3.0363677e-04 </wgt>
<wgt id='morphing_basis_vector_2'> +1.6887950e-04 </wgt>
<wgt id='morphing_basis_vector_3'> +1.9799895e-04 </wgt>
<wgt id='morphing_basis_vector_4'> +5.0461395e-05 </wgt>
<wgt id='morphing_basis_vector_5'> +5.9143215e-05 </wgt>
</rwgt>
</event>
<event>
 4      1 +3.1894900e-05 3.87542800e+02 7.81860800e-03 9.69395400e-02
        2 -1    0    0  501    0 +0.0000000000e+00 +0.0000000000e+00 +4.5291460335e+02 4.5291460335e+02 0.0000000000e+00 0.0000e+00 1.0000e+00
       -2 -1    0    0    0  501 -0.0000000000e+00 -0.0000000000e+00 -8.2901623561e+01 8.2901623561e+01 0.0000000000e+00 0.0000e+00 -1.0000e+00
      -13  1    1    2    0    0 -1.1311241084e+02 -1.2093361126e+02 +4.5864555921e+01 1.7182233065e+02 0.0000000000e+00 0.0000e+00 -1.0000e+00
       13  1    1    2    0    0 +1.1311241084e+02 +1.2093361126e+02 +3.2414842386e+02 3.6399389626e+02 0.0000000000e+00 0.0000e+00 1.0000e+00
<mgrwt>
<rscale>  0 0.38754280E+03</rscale>
<asrwt>0</asrwt>
<pdfrwt beam="1">  1        2 0.69679168E-01 0.38754280E+03</pdfrwt>
<pdfrwt beam="2">  1       -2 0.12754096E-01 0.38754280E+03</pdfrwt>
<totfact> 0.33821114E+03</totfact>
</mgrwt>
<rwgt>
<wgt id='morphing_basis_vector_1'> +2.3320263e-04 </wgt>
<wgt id='morphing_basis_vector_2'> +1.2714579e-04 </wgt>
<wgt id='morphing_basis_vector_3'> +1.4610354e-04 </wgt>
<wgt id='morphing_basis_vector_4'> +3.0797327e-05 </wgt>
<wgt id='morphing_basis_vector_5'> +2.7901798e-05 </wgt>
</rwgt>
</event>
<event>
 4      1 +3.1894900e-05 3.71836000e+02 7.81860800e-03 9.74346500e-02
        2 -1    0    0  501    0 +0.0000000000e+00 +0.0000000000e+00 +6.3152414270e+02 6.3152414270e+02 0.0000000000e+00 0.0000e+00 -1.0000e+00
       -2 -1    0    0    0  501 -0.0000000000e+00 -0.0000000000e+00 -5.4733448327e+01 5.4733448327e+01 0.0000000000e+00 0.0000e+00 1.0000e+00
      -13  1    1    2    0    0 -1.4894765378e+02 +4.2072510321e+01 +4.7850026758e+02 5.0290954034e+02 0.0000000000e+00 0.0000e+00 1.0000e+00
       13  1    1    2    0    0 +1.4894765378e+02 -4.2072510321e+01 +9.8290426795e+01 1.8334805069e+02 0.0000000000e+00 0.0000e+00 -1.0000e+00
<mgrwt>
<rscale>  0 0.37183595E+03</rscale>
<asrwt>0</asrwt>
<pdfrwt beam="1">  1        2 0.97157555E-01 0.37183595E+03</pdfrwt>
<pdfrwt beam="2">  1       -2 0.84205310E-02 0.37183595E+03</pdfrwt>
<totfact> 0.44234394E+03</totfact>
</mgrwt>
<rwgt>
<wgt id='morphing_basis_vector_1'> +2.4895518e-04 </wgt>
<wgt id='morphing_basis_vector_2'> +2.3255365e-04 </wgt>
<wgt id='morphing_basis_vector_3'> +8.6053081e-05 </wgt>
<wgt id='morphing_basis_vector_4'> +3.3279914e-05 </wgt>
<wgt id='morphing_basis_vector_5'> +2.1893168e-05 </wgt>
</rwgt>
</event>
<event>
 4      1 +3.1894900e-05 3.78951700e+02 7.81860800e-03 9.72071600e-02
        2 -1    0    0  501    0 +0.0000000000e+00 +0.0000000000e+00 +1.1174124743e+02 1.1174124743e+02 0.0000000000e+00 0.0000e+00 -1.0000e+00
       -2 -1    0    0    0  501 -0.0000000000e+00 -0.0000000000e+00 -3.2128783771e+02 3.2128783771e+02 0.0000000000e+00 0.0000e+00 1.0000e+00
      -13  1    1    2    0    0 -1.1162468215e+02 +1.0532907113e+02 -2.3174610929e+02 2.7795780626e+02 0.0000000000e+00 0.0000e+00 1.0000e+00
       13  1    1    2    0    0 +1.1162468215e+02 -1.0532907113e+02 +2.2199519009e+01 1.5507127888e+02 0.0000000000e+00 0.0000e+00 -1.0000e+00
<mgrwt>
<rscale>  0 0.37895173E+03</rscale>
<asrwt>0</asrwt>
<pdfrwt beam="1">  1        2 0.17190961E-01 0.37895173E+03</pdfrwt>
<pdfrwt beam="2">  1       -2 0.49428898E-01 0.37895173E+03</pdfrwt>
<totfact> 0.16329596E+03</totfact>
</mgrwt>
<rwgt>
<wgt id='morphing_basis_vector_1'> +2.1995738e-04 </wgt>
<wgt id='morphing_basis_vector_2'> +1.1938743e-04 </wgt>
<wgt id='morphing_basis_vector_3'> +1.3684010e-04 </wgt>
<wgt id='morphing_basis_vector_4'> +2.7618013e-05 </wgt>
<wgt id='morphing_basis_vector_5'> +2.2955835e-05 </wgt>
</rwgt>
</event>
<event>
 4      1 +3.1894900e-05 3.97614100e+02 7.81860800e-03 9.66351000e-02
        2 -1    0    0  501    0 +0.0000000000e+00 +0.0000000000e+00 +7.2406590017e+01 7.2406590017e+01 0.0000000000e+00 0.0000e+00 1.0000e+00
       -2 -1    0    0    0  501 -0.0000000000e+00 -0.0000000000e+00 -5.4586517942e+02 5.4586517942e+02 0.0000000000e+00 0.0000e+00 -1.0000e+00
      -13  1    1    2    0    0 +7.0847505468e+01 -9.7807674302e+01 -4.8228671876e+02 4.9717822687e+02 0.0000000000e+00 0.0000e+00 -1.0000e+00
       13  1    1    2    0    0 -7.0847505468e+01 +9.7807674302e+01 +8.8281293548e+00 1.2109354257e+02 0.0000000000e+00 0.0000e+00 1.0000e+00
<mgrwt>
<rscale>  0 0.39761407E+03</rscale>
<asrwt>0</asrwt>
<pdfrwt beam="1">  1        2 0.11139475E-01 0.39761407E+03</pdfrwt>
<pdfrwt beam="2">  1       -2 0.83979261E-01 0.39761407E+03</pdfrwt>
<totfact> 0.92730990E+02</totfact>
</mgrwt>
<rwgt>
<wgt id='morphing_basis_vector_1'> +2.4858658e-04 </wgt>
<wgt id='morphing_basis_vector_2'> +1.3371110e-04 </wgt>
<wgt id='morphing_basis_vector_3'> +1.5877845e-04 </wgt>
<wgt id='morphing_basis_vector_4'> +3.4905175e-05 </wgt>
<wgt id='morphing_basis_vector_5'> +3.4406990e-05 </wgt>
</rwgt>
</event>
<event>
 4      1 +3.1894900e-05 3.88408500e+02 7.81860800e-03 9.69129900e-02
        2 -1    0    0  501    0 +0.0000000000e+00 +0.0000000000e+00 +2.6013191112e+02 2.6013191112e+02 0.0000000000e+00 0.0000e+00 -1.0000e+00
       -2 -1    0    0    0  501 -0.0000000000e+00 -0.0000000000e+00 -1.4498525624e+02 1.4498525624e+02 0.0000000000e+00 0.0000e+00 1.0000e+00
      -13  1    1    2    0    0 -6.6706950834e+01 -9.6684194472e+01 -1.0373288264e+02 1.5671043900e+02 0.0000000000e+00 0.0000e+00 1.0000e+00
       13  1    1    2    0    0 +6.6706950834e+01 +9.6684194472e+01 +2.1887953752e+02 2.4840672837e+02 0.0000000000e+00 0.0000e+00 -1.0000e+00
<mgrwt>
<rscale>  0 0.38840851E+03</rscale>
<asrwt>0</asrwt>
<pdfrwt beam="1">  1        2 0.40020294E-01 0.38840851E+03</pdfrwt>
<pdfrwt beam="2">  1       -2 0.22305424E-01 0.38840851E+03</pdfrwt>
<totfact> 0.25336399E+03</totfact>
</mgrwt>
<rwgt>
<wgt id='morphing_basis_vector_1'> +2.3386384e-04 </wgt>
<wgt id='morphing_basis_vector_2'> +1.2578824e-04 </wgt>
<wgt id='morphing_basis_vector_3'> +1.4779199e-04 </wgt>
<wgt id='morphing_basis_vector_4'> +3.1051130e-05 </wgt>
<wgt id='morphing_basis_vector_5'> +2.8386271e-05 </wgt>
</rwgt>
</event>
<event>
 4      1 +3.1894900e-05 3.93331700e+02 7.81860800e-03 9.67633600e-02
        2 -1    0    0  501    0 +0.0000000000e+00 +0.0000000000e+00 +1.6247046304e+03 1.6247046304e+03 0.0000000000e+00 0.0000e+00 -1.0000e+00
       -2 -1    0    0    0  501 -0.0000000000e+00 -0.0000000000e+00 -2.3805833012e+01 2.3805833012e+01 0.0000000000e+00 0.0000e+00 1.0000e+00
      -13  1    1    2    0    0 -1.3189131878e+02 -1.4204631264e+02 +6.6113099428e+02 6.8896056962e+02 0.0000000000e+00 0.0000e+00 -1.0000e+00
       13  1    1    2    0    0 +1.3189131878e+02 +1.4204631264e+02 +9.3976780314e+02 9.5954989381e+02 0.0000000000e+00 0.0000e+00 1.0000e+00
<mgrwt>
<rscale>  0 0.39333165E+03</rscale>
<asrwt>0</asrwt>
<pdfrwt beam="1">  1        2 0.24995447E+00 0.39333165E+03</pdfrwt>
<pdfrwt beam="2">  1       -2 0.36624371E-02 0.39333165E+03</pdfrwt>
<totfact> 0.39195541E+03</totfact>
</mgrwt>
<rwgt>
<wgt id='morphing_basis_vector_1'> +2.4551143e-04 </wgt>
<wgt id='morphing_basis_vector_2'> +1.4177260e-04 </wgt>
<wgt id='morphing_basis_vector_3'> +1.4976518e-04 </wgt>
<wgt id='morphing_basis_vector_4'> +3.3430081e-05 </wgt>
<wgt id='morphing_basis_vector_5'> +3.1771588e-05 </wgt>
</rwgt>
</event>
<event>
 4      1 +3.1894900e-05 3.60658000e+02 7.81860800e-03 9.78032800e-02
        2 -1    0    0  501    0 +0.0000000000e+00 +0.0000000000e+00 +2.5014989951e+02 2.5014989951e+02 0.0000000000e+00 0.0000e+00 -1.0000e+00
       -2 -1    0    0    0  501 -0.0000000000e+00 -0.0000000000e+00 -1.2999626565e+02 1.2999626565e+02 0.0000000000e+00 0.0000e+00 1.0000e+00
      -13  1    1    2    0    0 +1.3095833286e+02 -5.1333162423e+01 -5.8862863070e+01 1.5247955653e+02 0.0000000000e+00 0.0000e+00 1.0000e+00
       13  1    1    2    0    0 -1.3095833286e+02 +5.1333162423e+01 +1.7901649693e+02 2.2766660863e+02 0.0000000000e+00 0.0000e+00 -1.0000e+00
<mgrwt>
<rscale>  0 0.36065803E+03</rscale>
<asrwt>0</asrwt>
<pdfrwt beam="1">  1        2 0.38484600E-01 0.36065803E+03</pdfrwt>
<pdfrwt beam="2">  1       -2 0.19999426E-01 0.36065803E+03</pdfrwt>
<totfact> 0.31646230E+03</totfact>
</mgrwt>
<rwgt>
<wgt id='morphing_basis_vector_1'> +1.9433010e-04 </wgt>
<wgt id='morphing_basis_vector_2'> +1.0552775e-04 </wgt>
<wgt id='morphing_basis_vector_3'> +1.1869522e-04 </wgt>
<wgt id='morphing_basis_vector_4'> +2.2060941e-05 </wgt>
<wgt id='morphing_basis_vector_5'> +1.4323940e-05 </wgt>
</rwgt>
</event>
<event>
 4      1 +3.1894900e-05 4.16390000e+02 7.81860800e-03 9.60924100e-02
        2 -1    0    0  501    0 +0.0000000000e+00 +0.0000000000e+00 +1.1741417539e+03 1.1741417539e+03 0.0000000000e+00 0.0000e+00 -1.0000e+00
       -2 -1    0    0    0  501 -0.0000000000e+00 -0.0000000000e+00 -3.6916456840e+01 3.6916456840e+01 0.0000000000e+00 0.0000e+00 1.0000e+00
      -13  1    1    2    0    0 -1.9707320333e+02 +2.1468943554e+01 +3.8360118432e+02 4.3179697963e+02 0.0000000000e+00 0.0000e+00 1.0000e+00
       13  1    1    2    0    0 +1.9707320333e+02 -2.1468943554e+01 +7.5362411274e+02 7.7926123111e+02 0.0000000000e+00 0.0000e+00 -1.0000e+00
<mgrwt>
<rscale>  0 0.41638998E+03</rscale>
<asrwt>0</asrwt>
<pdfrwt beam="1">  1        2 0.18063716E+00 0.41638998E+03</pdfrwt>
<pdfrwt beam="2">  1       -2 0.56794558E-02 0.41638998E+03</pdfrwt>
<totfact> 0.35840310E+03</totfact>
</mgrwt>
<rwgt>
<wgt id='morphing_basis_vector_1'> +2.8371856e-04 </wgt>
<wgt id='morphing_basis_vector_2'> +1.5930937e-04 </wgt>
<wgt id='morphing_basis_vector_3'> +1.8143953e-04 </wgt>
<wgt id='morphing_basis_vector_4'> +4.4191101e-05 </wgt>
<wgt id='morphing_basis_vector_5'> +4.9185914e-05 </wgt>
</rwgt>
</event>
<event>
 4      1 +3.1894900e-05 4.22251500e+02 7.81860800e-03 9.59291800e-02
        2 -1    0    0  501    0 +0.0000000000e+00 +0.0000000000e+00 +1.6796074808e+02 1.6796074808e+02 0.0000000000e+00 0.0000e+00 -1.0000e+00
       -2 -1    0    0    0  501 -0.0000000000e+00 -0.0000000000e+00 -2.6538395900e+02 2.6538395900e+02 0.0000000000e+00 0.0000e+00 1.0000e+00
      -13  1    1    2    0    0 -1.9563884906e+00 +1.4649003741e+02 -2.0472826505e+02 2.5174753431e+02 0.0000000000e+00 0.0000e+00 1.0000e+00
       13  1    1    2    0    0 +1.9563884906e+00 -1.4649003741e+02 +1.0730505414e+02 1.8159717278e+02 0.0000000000e+00 0.0000e+00 -1.0000e+00
<mgrwt>
<rscale>  0 0.42225153E+03</rscale>
<asrwt>0</asrwt>
<pdfrwt beam="1">  1        2 0.25840115E-01 0.42225153E+03</pdfrwt>
<pdfrwt beam="2">  1       -2 0.40828301E-01 0.42225153E+03</pdfrwt>
<totfact> 0.14504429E+03</totfact>
</mgrwt>
<rwgt>
<wgt id='morphing_basis_vector_1'> +2.9219275e-04 </wgt>
<wgt id='morphing_basis_vector_2'> +1.5785016e-04 </wgt>
<wgt id='morphing_basis_vector_3'> +1.9198042e-04 </wgt>
<wgt id='morphing_basis_vector_4'> +4.7573269e-05 </wgt>
<wgt id='morphing_basis_vector_5'> +5.4282135e-05 </wgt>
</rwgt>
</event>
<event>
 4      1 +3.1894900e-05 4.03517700e+02 7.81860800e-03 9.64610800e-02
        2 -1    0    0  501    0 +0.0000000000e+00 +0.0000000000e+00 +1.8389555771e+02 1.8389555771e+02 0.0000000000e+00 0.0000e+00 -1.0000e+00
       -2 -1    0    0    0  501 -0.0000000000e+00 -0.0000000000e+00 -2.2135737339e+02 2.2135737339e+02 0.0000000000e+00 0.0000e+00 1.0000e+00
      -13  1    1    2    0    0 -1.0497926398e+02 +1.2745245560e+02 -1.3516852014e+02 2.1339002587e+02 0.0000000000e+00 0.0000e+00 1.0000e+00
       13  1    1    2    0    0 +1.0497926398e+02 -1.2745245560e+02 +9.7706704467e+01 1.9186290522e+02 0.0000000000e+00 0.0000e+00 -1.0000e+00
<mgrwt>
<rscale>  0 0.40351772E+03</rscale>
<asrwt>0</asrwt>
<pdfrwt beam="1">  1        2 0.28291624E-01 0.40351772E+03</pdfrwt>
<pdfrwt beam="2">  1       -2 0.34054980E-01 0.40351772E+03</pdfrwt>
<totfact> 0.18139898E+03</totfact>
</mgrwt>
<rwgt>
<wgt id='morphing_basis_vector_1'> +2.5897945e-04 </wgt>
<wgt id='morphing_basis_vector_2'> +1.4066737e-04 </wgt>
<wgt id='morphing_basis_vector_3'> +1.6574134e-04 </wgt>
<wgt id='morphing_basis_vector_4'> +3.7644176e-05 </wgt>
<wgt id='morphing_basis_vector_5'> +3.8689057e-05 </wgt>
</rwgt>
</event>
<event>
 4      1 +3.1894900e-05 3.66947300e+02 7.81860800e-03 9.75941300e-02
        2 -1    0    0  501    0 +0.0000000000e+00 +0.0000000000e+00 +1.1735955704e+02 1.1735955704e+02 0.0000000000e+00 0.0000e+00 -1.0000e+00
       -2 -1    0    0    0  501 -0.0000000000e+00 -0.0000000000e+00 -2.8683286701e+02 2.8683286701e+02 0.0000000000e+00 0.0000e+00 1.0000e+00
      -13  1    1    2    0    0 -9.9300844782e+01 -1.1289702420e+02 -2.0055759423e+02 2.5065862133e+02 0.0000000000e+00 0.0000e+00 1.0000e+00
       13  1    1    2    0    0 +9.9300844782e+01 +1.1289702420e+02 +3.1084284254e+01 1.5353380271e+02 0.0000000000e+00 0.0000e+00 -1.0000e+00
<mgrwt>
<rscale>  0 0.36694729E+03</rscale>
<asrwt>0</asrwt>
<pdfrwt beam="1">  1        2 0.18055317E-01 0.36694729E+03</pdfrwt>
<pdfrwt beam="2">  1       -2 0.44128133E-01 0.36694729E+03</pdfrwt>
<totfact> 0.19089361E+03</totfact>
</mgrwt>
<rwgt>
<wgt id='morphing_basis_vector_1'> +2.0292269e-04 </wgt>
<wgt id='morphing_basis_vector_2'> +1.1039827e-04 </wgt>
<wgt id='morphing_basis_vector_3'> +1.2451979e-04 </wgt>
<wgt id='morphing_basis_vector_4'> +2.3824537e-05 </wgt>
<wgt id='morphing_basis_vector_5'> +1.7023654e-05 </wgt>
</rwgt>
</event>
<event>
 4      1 +3.1894900e-05 3.67324000e+02 7.81860800e-03 9.75817500e-02
        2 -1    0    0  501    0 +0.0000000000e+00 +0.0000000000e+00 +2.9640683464e+02 2.9640683464e+02 0.0000000000e+00 0.0000e+00 -1.0000e+00
       -2 -1    0    0    0  501 -0.0000000000e+00 -0.0000000000e+00 -1.1380215951e+02 1.1380215951e+02 0.0000000000e+00 0.0000e+00 1.0000e+00
      -13  1    1    2    0    0 -1.3620761588e+02 -8.6289411487e+01 -6.9041002351e+00 1.6138786744e+02 0.0000000000e+00 0.0000e+00 1.0000e+00
       13  1    1    2    0    0 +1.3620761588e+02 +8.6289411487e+01 +1.8950877536e+02 2.4882112671e+02 0.0000000000e+00 0.0000e+00 -1.0000e+00
<mgrwt>
<rscale>  0 0.36732404E+03</rscale>
<asrwt>0</asrwt>
<pdfrwt beam="1">  1        2 0.45601051E-01 0.36732404E+03</pdfrwt>
<pdfrwt beam="2">  1       -2 0.17508025E-01 0.36732404E+03</pdfrwt>
<totfact> 0.32567239E+03</totfact>
</mgrwt>
<rwgt>
<wgt id='morphing_basis_vector_1'> +2.0377685e-04 </wgt>
<wgt id='morphing_basis_vector_2'> +1.1168850e-04 </wgt>
<wgt id='morphing_basis_vector_3'> +1.2450701e-04 </wgt>
<wgt id='morphing_basis_vector_4'> +2.4009862e-05 </wgt>
<wgt id='morphing_basis_vector_5'> +1.7215805e-05 </wgt>
</rwgt>
</event>
<event>
 4      1 +3.1894900e-05 3.69756100e+02 7.81860800e-03 9.75021800e-02
        2 -1    0    0  501    0 +0.0000000000e+00 +0.0000000000e+00 +1.1100256860e+02 1.1100256860e+02 0.0000000000e+00 0.0000e+00 -1.0000e+00
       -2 -1    0    0    0  501 -0.0000000000e+00 -0.0000000000e+00 -3.0791985239e+02 3.0791985239e+02 0.0000000000e+00 0.0000e+00 1.0000e+00
      -13  1    1    2    0    0 -3.0714497507e+01 -1.8216345779e+02 -1.0670591559e+02 2.1333789662e+02 0.0000000000e+00 0.0000e+00 1.0000e+00
       13  1    1    2    0    0 +3.0714497507e+01 +1.8216345779e+02 -9.0211368192e+01 2.0558452437e+02 0.0000000000e+00 0.0000e+00 -1.0000e+00
<mgrwt>
<rscale>  0 0.36975611E+03</rscale>
<asrwt>0</asrwt>
<pdfrwt beam="1">  1        2 0.17077319E-01 0.36975611E+03</pdfrwt>
<pdfrwt beam="2">  1       -2 0.47372284E-01 0.36975611E+03</pdfrwt>
<totfact> 0.17848568E+03</totfact>
</mgrwt>
<rwgt>
<wgt id='morphing_basis_vector_1'> +2.1176859e-04 </wgt>
<wgt id='morphing_basis_vector_2'> +1.2743760e-04 </wgt>
<wgt id='morphing_basis_vector_3'> +1.2175185e-04 </wgt>
<wgt id='morphing_basis_vector_4'> +2.5715411e-05 </wgt>
<wgt id='morphing_basis_vector_5'> +1.8642287e-05 </wgt>
</rwgt>
</event>
<event>
 4      1 +3.1894900e-05 3.70350400e+02 7.81860800e-03 9.74828400e-02
        2 -1    0    0  501    0 +0.0000000000e+00 +0.0000000000e+00 +8.5414529350e+02 8.5414529350e+02 0.0000000000e+00 0.0000e+00 -1.0000e+00
       -2 -1    0    0    0  501 -0.0000000000e+00 -0.0000000000e+00 -4.0145218426e+01 4.0145218426e+01 0.0000000000e+00 0.0000e+00 1.0000e+00
      -13  1    1    2    0    0 -3.6133555858e+01 +1.6618260900e+02 +2.3008932565e+02 2.8611779247e+02 0.0000000000e+00 0.0000e+00 1.0000e+00
       13  1    1    2    0    0 +3.6133555858e+01 -1.6618260900e+02 +5.8391074943e+02 6.0817271945e+02 0.0000000000e+00 0.0000e+00 -1.0000e+00
<mgrwt>
<rscale>  0 0.37035037E+03</rscale>
<asrwt>0</asrwt>
<pdfrwt beam="1">  1        2 0.13140695E+00 0.37035037E+03</pdfrwt>
<pdfrwt beam="2">  1       -2 0.61761881E-02 0.37035037E+03</pdfrwt>
<totfact> 0.49167193E+03</totfact>
</mgrwt>
<rwgt>
<wgt id='morphing_basis_vector_1'> +2.0841013e-04 </wgt>
<wgt id='morphing_basis_vector_2'> +1.1523536e-04 </wgt>
<wgt id='morphing_basis_vector_3'> +1.2702356e-04 </wgt>
<wgt id='morphing_basis_vector_4'> +2.4996816e-05 </wgt>
<wgt id='morphing_basis_vector_5'> +1.8648149e-05 </wgt>
</rwgt>
</event>
<event>
 4      1 +3.1894900e-05 3.91690200e+02 7.81860800e-03 9.68129900e-02
        2 -1    0    0  501    0 +0.0000000000e+00 +0.0000000000e+00 +8.7603573336e+02 8.7603573336e+02 0.0000000000e+00 0.0000e+00 -1.0000e+00
       -2 -1    0    0    0  501 -0.0000000000e+00 -0.0000000000e+00 -4.3782812631e+01 4.3782812631e+01 0.0000000000e+00 0.0000e+00 1.0000e+00
      -13  1    1    2    0    0 +1.6707531867e+02 +7.8104905916e+01 +2.6140775914e+02 3.1991960705e+02 0.0000000000e+00 0.0000e+00 1.0000e+00
       13  1    1    2    0    0 -1.6707531867e+02 -7.8104905916e+01 +5.7084516159e+02 5.9989893894e+02 0.0000000000e+00 0.0000e+00 -1.0000e+00
<mgrwt>
<rscale>  0 0.39169023E+03</rscale>
<asrwt>0</asrwt>
<pdfrwt beam="1">  1        2 0.13477472E+00 0.39169023E+03</pdfrwt>
<pdfrwt beam="2">  1       -2 0.67358179E-02 0.39169023E+03</pdfrwt>
<totfact> 0.41762203E+03</totfact>
</mgrwt>
<rwgt>
<wgt id='morphing_basis_vector_1'> +2.4088112e-04 </wgt>
<wgt id='morphing_basis_vector_2'> +1.3422326e-04 </wgt>
<wgt id='morphing_basis_vector_3'> +1.4977613e-04 </wgt>
<wgt id='morphing_basis_vector_4'> +3.2568166e-05 </wgt>
<wgt id='morphing_basis_vector_5'> +3.0572948e-05 </wgt>
</rwgt>
</event>
<event>
 4      1 +3.1894900e-05 4.21970000e+02 7.81860800e-03 9.59369600e-02
        2 -1    0    0  501    0 +0.0000000000e+00 +0.0000000000e+00 +7.4492250797e+02 7.4492250797e+02 0.0000000000e+00 0.0000e+00 -1.0000e+00
       -2 -1    0    0    0  501 -0.0000000000e+00 -0.0000000000e+00 -5.9757440288e+01 5.9757440288e+01 0.0000000000e+00 0.0000e+00 1.0000e+00
      -13  1    1    2    0    0 +3.6832442705e+01 +1.8029874344e+02 +1.4578278870e+02 2.3476986009e+02 0.0000000000e+00 0.0000e+00 1.0000e+00
       13  1    1    2    0    0 -3.6832442705e+01 -1.8029874344e+02 +5.3938227897e+02 5.6991008817e+02 0.0000000000e+00 0.0000e+00 -1.0000e+00
<mgrwt>
<rscale>  0 0.42196996E+03</rscale>
<asrwt>0</asrwt>
<pdfrwt beam="1">  1        2 0.11460346E+00 0.42196996E+03</pdfrwt>
<pdfrwt beam="2">  1       -2 0.91934529E-02 0.42196996E+03</pdfrwt>
<totfact> 0.31815320E+03</totfact>
</mgrwt>
<rwgt>
<wgt id='morphing_basis_vector_1'> +2.9257520e-04 </wgt>
<wgt id='morphing_basis_vector_2'> +1.6036863e-04 </wgt>
<wgt id='morphing_basis_vector_3'> +1.9081355e-04 </wgt>
<wgt id='morphing_basis_vector_4'> +4.7367265e-05 </wgt>
<wgt id='morphing_basis_vector_5'> +5.4078962e-05 </wgt>
</rwgt>
</event>
<event>
 4      1 +3.1894900e-05 4.14446700e+02 7.81860800e-03 9.61471500e-02
        2 -1    0    0  501    0 +0.0000000000e+00 +0.0000000000e+00 +2.3952055625e+02 2.3952055625e+02 0.0000000000e+00 0.0000e+00 -1.0000e+00
       -2 -1    0    0    0  501 -0.0000000000e+00 -0.0000000000e+00 -1.7928109275e+02 1.7928109275e+02 0.0000000000e+00 0.0000e+00 1.0000e+00
      -13  1    1    2    0    0 +1.2252315689e+02 +1.2929289434e+02 -7.6884095750e+01 1.9400964068e+02 0.0000000000e+00 0.0000e+00 1.0000e+00
       13  1    1    2    0    0 -1.2252315689e+02 -1.2929289434e+02 +1.3712355925e+02 2.2479200831e+02 0.0000000000e+00 0.0000e+00 -1.0000e+00
<mgrwt>
<rscale>  0 0.41444665E+03</rscale>
<asrwt>0</asrwt>
<pdfrwt beam="1">  1        2 0.36849317E-01 0.41444665E+03</pdfrwt>
<pdfrwt beam="2">  1       -2 0.27581706E-01 0.41444665E+03</pdfrwt>
<totfact> 0.19438569E+03</totfact>
</mgrwt>
<rwgt>
<wgt id='morphing_basis_vector_1'> +2.7849324e-04 </wgt>
<wgt id='morphing_basis_vector_2'> +1.5218093e-04 </wgt>
<wgt id='morphing_basis_vector_3'> +1.8014258e-04 </wgt>
<wgt id='morphing_basis_vector_4'> +4.3166598e-05 </wgt>
<wgt id='morphing_basis_vector_5'> +4.7413505e-05 </wgt>
</rwgt>
</event>
<event>
 4      1 +3.1894900e-05 3.62426400e+02 7.81860800e-03 9.77440200e-02
        2 -1    0    0  501    0 +0.0000000000e+00 +0.0000000000e+00 +2.8985221118e+02 2.8985221118e+02 0.0000000000e+00 0.0000e+00 1.0000e+00
       -2 -1    0    0    0  501 -0.0000000000e+00 -0.0000000000e+00 -1.1329296233e+02 1.1329296233e+02 0.0000000000e+00 0.0000e+00 -1.0000e+00
      -13  1    1    2    0    0 -8.4289771188e+01 +1.3210949874e+02 +1.8950065934e+02 2.4590279599e+02 0.0000000000e+00 0.0000e+00 -1.0000e+00
       13  1    1    2    0    0 +8.4289771188e+01 -1.3210949874e+02 -1.2941410491e+01 1.5724237753e+02 0.0000000000e+00 0.0000e+00 1.0000e+00
<mgrwt>
<rscale>  0 0.36242635E+03</rscale>
<asrwt>0</asrwt>
<pdfrwt beam="1">  1        2 0.44592648E-01 0.36242635E+03</pdfrwt>
<pdfrwt beam="2">  1       -2 0.17429687E-01 0.36242635E+03</pdfrwt>
<totfact> 0.33614387E+03</totfact>
</mgrwt>
<rwgt>
<wgt id='morphing_basis_vector_1'> +2.2845183e-04 </wgt>
<wgt id='morphing_basis_vector_2'> +2.0231522e-04 </wgt>
<wgt id='morphing_basis_vector_3'> +8.3583654e-05 </wgt>
<wgt id='morphing_basis_vector_4'> +3.0484206e-05 </wgt>
<wgt id='morphing_basis_vector_5'> +1.7113078e-05 </wgt>
</rwgt>
</event>
<event>
 4      1 +3.1894900e-05 4.20449900e+02 7.81860800e-03 9.59790500e-02
        2 -1    0    0  501    0 +0.0000000000e+00 +0.0000000000e+00 +1.1456422453e+03 1.1456422453e+03 0.0000000000e+00 0.0000e+00 -1.0000e+00
       -2 -1    0    0    0  501 -0.0000000000e+00 -0.0000000000e+00 -3.8576199622e+01 3.8576199622e+01 0.0000000000e+00 0.0000e+00 1.0000e+00
      -13  1    1    2    0    0 -1.2980500625e+02 -1.4566514592e+02 +3.3306977349e+02 3.8600925947e+02 0.0000000000e+00 0.0000e+00 1.0000e+00
       13  1    1    2    0    0 +1.2980500625e+02 +1.4566514592e+02 +7.7399627219e+02 7.9820918546e+02 0.0000000000e+00 0.0000e+00 -1.0000e+00
<mgrwt>
<rscale>  0 0.42044987E+03</rscale>
<asrwt>0</asrwt>
<pdfrwt beam="1">  1        2 0.17625263E+00 0.42044987E+03</pdfrwt>
<pdfrwt beam="2">  1       -2 0.59348008E-02 0.42044987E+03</pdfrwt>
<totfact> 0.34815912E+03</totfact>
</mgrwt>
<rwgt>
<wgt id='morphing_basis_vector_1'> +2.9059854e-04 </wgt>
<wgt id='morphing_basis_vector_2'> +1.6150084e-04 </wgt>
<wgt id='morphing_basis_vector_3'> +1.8784872e-04 </wgt>
<wgt id='morphing_basis_vector_4'> +4.6457253e-05 </wgt>
<wgt id='morphing_basis_vector_5'> +5.2744356e-05 </wgt>
</rwgt>
</event>
<event>
 4      1 +3.1894900e-05 4.06948000e+02 7.81860800e-03 9.63614200e-02
        2 -1    0    0  501    0 +0.0000000000e+00 +0.0000000000e+00 +6.0500809892e+02 6.0500809892e+02 0.0000000000e+00 0.0000e+00 -1.0000e+00
       -2 -1    0    0    0  501 -0.0000000000e+00 -0.0000000000e+00 -6.8431585023e+01 6.8431585023e+01 0.0000000000e+00 0.0000e+00 1.0000e+00
      -13  1    1    2    0    0 +1.4825372002e+02 -6.7399205748e+01 +6.6424191858e+01 1.7588061775e+02 0.0000000000e+00 0.0000e+00 1.0000e+00
       13  1    1    2    0    0 -1.4825372002e+02 +6.7399205748e+01 +4.7015232204e+02 4.9755906620e+02 0.0000000000e+00 0.0000e+00 -1.0000e+00
<mgrwt>
<rscale>  0 0.40694797E+03</rscale>
<asrwt>0</asrwt>
<pdfrwt beam="1">  1        2 0.93078166E-01 0.40694797E+03</pdfrwt>
<pdfrwt beam="2">  1       -2 0.10527937E-01 0.40694797E+03</pdfrwt>
<totfact> 0.32964997E+03</totfact>
</mgrwt>
<rwgt>
<wgt id='morphing_basis_vector_1'> +2.6478831e-04 </wgt>
<wgt id='morphing_basis_vector_2'> +1.4362659e-04 </wgt>
<wgt id='morphing_basis_vector_3'> +1.7030303e-04 </wgt>
<wgt id='morphing_basis_vector_4'> +3.9300811e-05 </wgt>
<wgt id='morphing_basis_vector_5'> +4.1295872e-05 </wgt>
</rwgt>
</event>
<event>
 4      1 +3.1894900e-05 3.98261500e+02 7.81860800e-03 9.66158600e-02
        2 -1    0    0  501    0 +0.0000000000e+00 +0.0000000000e+00 +1.5322281402e+02 1.5322281402e+02 0.0000000000e+00 0.0000e+00 1.0000e+00
       -2 -1    0    0    0  501 -0.0000000000e+00 -0.0000000000e+00 -2.5879340505e+02 2.5879340505e+02 0.0000000000e+00 0.0000e+00 -1.0000e+00
      -13  1    1    2    0    0 +3.1127430328e+01 +3.9839504578e+01 -2.5204299133e+02 2.5706375186e+02 0.0000000000e+00 0.0000e+00 -1.0000e+00
       13  1    1    2    0    0 -3.1127430328e+01 -3.9839504578e+01 +1.4647240030e+02 1.5495246721e+02 0.0000000000e+00 0.0000e+00 1.0000e+00
<mgrwt>
<rscale>  0 0.39826149E+03</rscale>
<asrwt>0</asrwt>
<pdfrwt beam="1">  1        2 0.23572741E-01 0.39826149E+03</pdfrwt>
<pdfrwt beam="2">  1       -2 0.39814370E-01 0.39826149E+03</pdfrwt>
<totfact> 0.16889672E+03</totfact>
</mgrwt>
<rwgt>
<wgt id='morphing_basis_vector_1'> +2.4954196e-04 </wgt>
<wgt id='morphing_basis_vector_2'> +1.3395049e-04 </wgt>
<wgt id='morphing_basis_vector_3'> +1.5968510e-04 </wgt>
<wgt id='morphing_basis_vector_4'> +3.5185486e-05 </wgt>
<wgt id='morphing_basis_vector_5'> +3.4850575e-05 </wgt>
</rwgt>
</event>
<event>
 4      1 +3.1894900e-05 3.74792100e+02 7.81860800e-03 9.73394800e-02
        2 -1    0    0  501    0 +0.0000000000e+00 +0.0000000000e+00 +2.7587437363e+01 2.7587437363e+01 0.0000000000e+00 0.0000e+00 1.0000e+00
       -2 -1    0    0    0  501 -0.0000000000e+00 -0.0000000000e+00 -1.2729448931e+03 1.2729448931e+03 0.0000000000e+00 0.0000e+00 -1.0000e+00
      -13  1    1    2    0    0 -1.6110666842e+02 -9.0758604500e+01 -5.1715365339e+02 5.4921797505e+02 0.0000000000e+00 0.0000e+00 -1.0000e+00
       13  1    1    2    0    0 +1.6110666842e+02 +9.0758604500e+01 -7.2820380230e+02 7.5131435537e+02 0.0000000000e+00 0.0000e+00 1.0000e+00
<mgrwt>
<rscale>  0 0.37479214E+03</rscale>
<asrwt>0</asrwt>
<pdfrwt beam="1">  1        2 0.42442206E-02 0.37479214E+03</pdfrwt>
<pdfrwt beam="2">  1       -2 0.19583770E+00 0.37479214E+03</pdfrwt>
<totfact> 0.34122504E+02</totfact>
</mgrwt>
<rwgt>
<wgt id='morphing_basis_vector_1'> +2.2511597e-04 </wgt>
<wgt id='morphing_basis_vector_2'> +1.5008237e-04 </wgt>
<wgt id='morphing_basis_vector_3'> +1.2025326e-04 </wgt>
<wgt id='morphing_basis_vector_4'> +2.8342976e-05 </wgt>
<wgt id='morphing_basis_vector_5'> +2.1517284e-05 </wgt>
</rwgt>
</event>
<event>
 4      1 +3.1894900e-05 4.04902900e+02 7.81860800e-03 9.64207100e-02
        2 -1    0    0  501    0 +0.0000000000e+00 +0.0000000000e+00 +1.7305338940e+02 1.7305338940e+02 0.0000000000e+00 0.0000e+00 -1.0000e+00
       -2 -1    0    0    0  501 -0.0000000000e+00 -0.0000000000e+00 -2.3684366893e+02 2.3684366893e+02 0.0000000000e+00 0.0000e+00 1.0000e+00
      -13  1    1    2    0    0 -9.3309231357e+01 +1.7322949393e+02 -8.0143554227e+01 2.1245719453e+02 0.0000000000e+00 0.0000e+00 1.0000e+00
       13  1    1    2    0    0 +9.3309231357e+01 -1.7322949393e+02 +1.6353274694e+01 1.9743986380e+02 0.0000000000e+00 0.0000e+00 -1.0000e+00
<mgrwt>
<rscale>  0 0.40490295E+03</rscale>
<asrwt>0</asrwt>
<pdfrwt beam="1">  1        2 0.26623599E-01 0.40490295E+03</pdfrwt>
<pdfrwt beam="2">  1       -2 0.36437487E-01 0.40490295E+03</pdfrwt>
<totfact> 0.17236151E+03</totfact>
</mgrwt>
<rwgt>
<wgt id='morphing_basis_vector_1'> +2.6401817e-04 </wgt>
<wgt id='morphing_basis_vector_2'> +1.5013940e-04 </wgt>
<wgt id='morphing_basis_vector_3'> +1.6508523e-04 </wgt>
<wgt id='morphing_basis_vector_4'> +3.8410880e-05 </wgt>
<wgt id='morphing_basis_vector_5'> +3.9904159e-05 </wgt>
</rwgt>
</event>
<event>
 4      1 +3.1894900e-05 3.89955400e+02 7.81860800e-03 9.68657200e-02
        2 -1    0    0  501    0 +0.0000000000e+00 +0.0000000000e+00 +1.0377745327e+03 1.0377745327e+03 0.0000000000e+00 0.0000e+00 1.0000e+00
       -2 -1    0    0    0  501 -0.0000000000e+00 -0.0000000000e+00 -3.6632533067e+01 3.6632533067e+01 0.0000000000e+00 0.0000e+00 -1.0000e+00
      -13  1    1    2    0    0 -5.2486509112e+01 +1.6327860913e+02 +2.4504046952e+02 2.9909792634e+02 0.0000000000e+00 0.0000e+00 -1.0000e+00
       13  1    1    2    0    0 +5.2486509112e+01 -1.6327860913e+02 +7.5610153007e+02 7.7530913939e+02 0.0000000000e+00 0.0000e+00 1.0000e+00
<mgrwt>
<rscale>  0 0.38995543E+03</rscale>
<asrwt>0</asrwt>
<pdfrwt beam="1">  1        2 0.15965760E+00 0.38995543E+03</pdfrwt>
<pdfrwt beam="2">  1       -2 0.56357751E-02 0.38995543E+03</pdfrwt>
<totfact> 0.43492515E+03</totfact>
</mgrwt>
<rwgt>
<wgt id='morphing_basis_vector_1'> +2.3718358e-04 </wgt>
<wgt id='morphing_basis_vector_2'> +1.2982909e-04 </wgt>
<wgt id='morphing_basis_vector_3'> +1.4868247e-04 </wgt>
<wgt id='morphing_basis_vector_4'> +3.1769529e-05 </wgt>
<wgt id='morphing_basis_vector_5'> +2.9407524e-05 </wgt>
</rwgt>
</event>
<event>
 4      1 +3.1894900e-05 4.20979800e+02 7.81860800e-03 9.59643600e-02
        2 -1    0    0  501    0 +0.0000000000e+00 +0.0000000000e+00 +3.8169933646e+01 3.8169933646e+01 0.0000000000e+00 0.0000e+00 -1.0000e+00
       -2 -1    0    0    0  501 -0.0000000000e+00 -0.0000000000e+00 -1.1607567101e+03 1.1607567101e+03 0.0000000000e+00 0.0000e+00 1.0000e+00
      -13  1    1    2    0    0 +2.0463629653e+02 +2.8975590461e+01 -4.4771764824e+02 4.9311934787e+02 0.0000000000e+00 0.0000e+00 1.0000e+00
       13  1    1    2    0    0 -2.0463629653e+02 -2.8975590461e+01 -6.7486912824e+02 7.0580729590e+02 0.0000000000e+00 0.0000e+00 -1.0000e+00
<mgrwt>
<rscale>  0 0.42097984E+03</rscale>
<asrwt>0</asrwt>
<pdfrwt beam="1">  1        2 0.58722975E-02 0.42097984E+03</pdfrwt>
<pdfrwt beam="2">  1       -2 0.17857796E+00 0.42097984E+03</pdfrwt>
<totfact> 0.29599701E+02</totfact>
</mgrwt>
<rwgt>
<wgt id='morphing_basis_vector_1'> +3.0749164e-04 </wgt>
<wgt id='morphing_basis_vector_2'> +2.1092702e-04 </wgt>
<wgt id='morphing_basis_vector_3'> +1.7546233e-04 </wgt>
<wgt id='morphing_basis_vector_4'> +4.6129144e-05 </wgt>
<wgt id='morphing_basis_vector_5'> +5.4216791e-05 </wgt>
</rwgt>
</event>
<event>
 4      1 +3.1894900e-05 3.76388600e+02 7.81860800e-03 9.72884800e-02
        2 -1    0    0  501    0 +0.0000000000e+00 +0.0000000000e+00 +2.5048666231e+02 2.5048666231e+02 0.0000000000e+00 0.0000e+00 -1.0000e+00
       -2 -1    0    0    0  501 -0.0000000000e+00 -0.0000000000e+00 -1.4139313709e+02 1.4139313709e+02 0.0000000000e+00 0.0000e+00 1.0000e+00
      -13  1    1    2    0    0 -1.1502022806e+02 -1.1173394295e+02 +1.5710456717e+02 2.2449047173e+02 0.0000000000e+00 0.0000e+00 -1.0000e+00
       13  1    1    2    0    0 +1.1502022806e+02 +1.1173394295e+02 -4.8011041952e+01 1.6738932768e+02 0.0000000000e+00 0.0000e+00 1.0000e+00
<mgrwt>
<rscale>  0 0.37638860E+03</rscale>
<asrwt>0</asrwt>
<pdfrwt beam="1">  1        2 0.38536410E-01 0.37638860E+03</pdfrwt>
<pdfrwt beam="2">  1       -2 0.21752790E-01 0.37638860E+03</pdfrwt>
<totfact> 0.27537225E+03</totfact>
</mgrwt>
<rwgt>
<wgt id='morphing_basis_vector_1'> +2.5346655e-04 </wgt>
<wgt id='morphing_basis_vector_2'> +2.3020806e-04 </wgt>
<wgt id='morphing_basis_vector_3'> +9.3920312e-05 </wgt>
<wgt id='morphing_basis_vector_4'> +3.3492919e-05 </wgt>
<wgt id='morphing_basis_vector_5'> +2.4059370e-05 </wgt>
</rwgt>
</event>
<event>
 4      1 +3.1894900e-05 3.80875800e+02 7.81860800e-03 9.71465700e-02
        2 -1    0    0  501    0 +0.0000000000e+00 +0.0000000000e+00 +6.6760855821e+02 6.6760855821e+02 0.0000000000e+00 0.0000e+00 1.0000e+00
       -2 -1    0    0    0  501 -0.0000000000e+00 -0.0000000000e+00 -5.4323132318e+01 5.4323132318e+01 0.0000000000e+00 0.0000e+00 -1.0000e+00
      -13  1    1    2    0    0 -1.3730055964e+02 -1.3151944826e+02 +2.8607211724e+02 3.4349099728e+02 0.0000000000e+00 0.0000e+00 -1.0000e+00
       13  1    1    2    0    0 +1.3730055964e+02 +1.3151944826e+02 +3.2721330865e+02 3.7844069325e+02 0.0000000000e+00 0.0000e+00 1.0000e+00
<mgrwt>
<rscale>  0 0.38087577E+03</rscale>
<asrwt>0</asrwt>
<pdfrwt beam="1">  1        2 0.10270900E+00 0.38087577E+03</pdfrwt>
<pdfrwt beam="2">  1       -2 0.83574055E-02 0.38087577E+03</pdfrwt>
<totfact> 0.41953749E+03</totfact>
</mgrwt>
<rwgt>
<wgt id='morphing_basis_vector_1'> +2.2786989e-04 </wgt>
<wgt id='morphing_basis_vector_2'> +1.3627111e-04 </wgt>
<wgt id='morphing_basis_vector_3'> +1.3358601e-04 </wgt>
<wgt id='morphing_basis_vector_4'> +2.9093799e-05 </wgt>
<wgt id='morphing_basis_vector_5'> +2.4343704e-05 </wgt>
</rwgt>
</event>
<event>
 4      1 +3.1894900e-05 3.83652600e+02 7.81860800e-03 9.70598000e-02
        2 -1    0    0  501    0 +0.0000000000e+00 +0.0000000000e+00 +1.8362058976e+02 1.8362058976e+02 0.0000000000e+00 0.0000e+00 1.0000e+00
       -2 -1    0    0    0  501 -0.0000000000e+00 -0.0000000000e+00 -2.0039870975e+02 2.0039870975e+02 0.0000000000e+00 0.0000e+00 -1.0000e+00
      -13  1    1    2    0    0 +1.0709651014e+02 -2.8890315855e+00 -1.6766160776e+02 1.9896839876e+02 0.0000000000e+00 0.0000e+00 -1.0000e+00
       13  1    1    2    0    0 -1.0709651014e+02 +2.8890315855e+00 +1.5088348777e+02 1.8505090075e+02 0.0000000000e+00 0.0000e+00 1.0000e+00
<mgrwt>
<rscale>  0 0.38365260E+03</rscale>
<asrwt>0</asrwt>
<pdfrwt beam="1">  1        2 0.28249322E-01 0.38365260E+03</pdfrwt>
<pdfrwt beam="2">  1       -2 0.30830571E-01 0.38365260E+03</pdfrwt>
<totfact> 0.21634682E+03</totfact>
</mgrwt>
<rwgt>
<wgt id='morphing_basis_vector_1'> +2.2653369e-04 </wgt>
<wgt id='morphing_basis_vector_2'> +1.2179172e-04 </wgt>
<wgt id='morphing_basis_vector_3'> +1.4243941e-04 </wgt>
<wgt id='morphing_basis_vector_4'> +2.9229333e-05 </wgt>
<wgt id='morphing_basis_vector_5'> +2.5550139e-05 </wgt>
</rwgt>
</event>
<event>
 4      1 +3.1894900e-05 3.83546900e+02 7.81860800e-03 9.70630800e-02
        2 -1    0    0  501    0 +0.0000000000e+00 +0.0000000000e+00 +3.4918426600e+02 3.4918426600e+02 0.0000000000e+00 0.0000e+00 -1.0000e+00
       -2 -1    0    0    0  501 -0.0000000000e+00 -0.0000000000e+00 -1.0532277239e+02 1.0532277239e+02 0.0000000000e+00 0.0000e+00 1.0000e+00
      -13  1    1    2    0    0 -7.2520009108e+01 -1.4508759164e+02 +2.4317006997e+02 2.9230334227e+02 0.0000000000e+00 0.0000e+00 1.0000e+00
       13  1    1    2    0    0 +7.2520009108e+01 +1.4508759164e+02 +6.9142364067e-01 1.6220369612e+02 0.0000000000e+00 0.0000e+00 -1.0000e+00
<mgrwt>
<rscale>  0 0.38354689E+03</rscale>
<asrwt>0</asrwt>
<pdfrwt beam="1">  1        2 0.53720656E-01 0.38354689E+03</pdfrwt>
<pdfrwt beam="2">  1       -2 0.16203504E-01 0.38354689E+03</pdfrwt>
<totfact> 0.30824164E+03</totfact>
</mgrwt>
<rwgt>
<wgt id='morphing_basis_vector_1'> +2.6716415e-04 </wgt>
<wgt id='morphing_basis_vector_2'> +2.4561509e-04 </wgt>
<wgt id='morphing_basis_vector_3'> +9.9955574e-05 </wgt>
<wgt id='morphing_basis_vector_4'> +3.5118147e-05 </wgt>
<wgt id='morphing_basis_vector_5'> +2.8188768e-05 </wgt>
</rwgt>
</event>
<event>
 4      1 +3.1894900e-05 3.83587500e+02 7.81860800e-03 9.70618200e-02
        2 -1    0    0  501    0 +0.0000000000e+00 +0.0000000000e+00 +9.3689492067e+02 9.3689492067e+02 0.0000000000e+00 0.0000e+00 1.0000e+00
       -2 -1    0    0    0  501 -0.0000000000e+00 -0.0000000000e+00 -3.9262508451e+01 3.9262508451e+01 0.0000000000e+00 0.0000e+00 -1.0000e+00
      -13  1    1    2    0    0 -3.2413534240e+01 +1.6660562096e+02 +2.2153210101e+02 2.7907802120e+02 0.0000000000e+00 0.0000e+00 -1.0000e+00
       13  1    1    2    0    0 +3.2413534240e+01 -1.6660562096e+02 +6.7610031121e+02 6.9707940793e+02 0.0000000000e+00 0.0000e+00 1.0000e+00
<mgrwt>
<rscale>  0 0.38358751E+03</rscale>
<asrwt>0</asrwt>
<pdfrwt beam="1">  1        2 0.14413766E+00 0.38358751E+03</pdfrwt>
<pdfrwt beam="2">  1       -2 0.60403866E-02 0.38358751E+03</pdfrwt>
<totfact> 0.45082491E+03</totfact>
</mgrwt>
<rwgt>
<wgt id='morphing_basis_vector_1'> +2.2737653e-04 </wgt>
<wgt id='morphing_basis_vector_2'> +1.2459866e-04 </wgt>
<wgt id='morphing_basis_vector_3'> +1.4138961e-04 </wgt>
<wgt id='morphing_basis_vector_4'> +2.9341856e-05 </wgt>
<wgt id='morphing_basis_vector_5'> +2.5574917e-05 </wgt>
</rwgt>
</event>
<event>
 4      1 +3.1894900e-05 3.83638400e+02 7.81860800e-03 9.70602400e-02
        2 -1    0    0  501    0 +0.0000000000e+00 +0.0000000000e+00 +3.6476159534e+01 3.6476159534e+01 0.0000000000e+00 0.0000e+00 -1.0000e+00
       -2 -1    0    0    0  501 -0.0000000000e+00 -0.0000000000e+00 -1.0087300905e+03 1.0087300905e+03 0.0000000000e+00 0.0000e+00 1.0000e+00
      -13  1    1    2    0    0 -1.3569466570e+02 +1.0110987624e+02 -7.3220969564e+02 7.5151000510e+02 0.0000000000e+00 0.0000e+00 1.0000e+00
       13  1    1    2    0    0 +1.3569466570e+02 -1.0110987624e+02 -2.4004423533e+02 2.9369624493e+02 0.0000000000e+00 0.0000e+00 -1.0000e+00
<mgrwt>
<rscale>  0 0.38363837E+03</rscale>
<asrwt>0</asrwt>
<pdfrwt beam="1">  1        2 0.56117168E-02 0.38363837E+03</pdfrwt>
<pdfrwt beam="2">  1       -2 0.15518925E+00 0.38363837E+03</pdfrwt>
<totfact> 0.47731044E+02</totfact>
</mgrwt>
<rwgt>
<wgt id='morphing_basis_vector_1'> +2.2742759e-04 </wgt>
<wgt id='morphing_basis_vector_2'> +1.2456112e-04 </wgt>
<wgt id='morphing_basis_vector_3'> +1.4147327e-04 </wgt>
<wgt id='morphing_basis_vector_4'> +2.9356684e-05 </wgt>
<wgt id='morphing_basis_vector_5'> +2.5602517e-05 </wgt>
</rwgt>
</event>
<event>
 4      1 +3.1894900e-05 3.75206400e+02 7.81860800e-03 9.73262200e-02
        2 -1    0    0  501    0 +0.0000000000e+00 +0.0000000000e+00 +9.7848115566e+02 9.7848115566e+02 0.0000000000e+00 0.0000e+00 -1.0000e+00
       -2 -1    0    0    0  501 -0.0000000000e+00 -0.0000000000e+00 -3.5968967033e+01 3.5968967033e+01 0.0000000000e+00 0.0000e+00 1.0000e+00
      -13  1    1    2    0    0 +1.0459081144e+01 +1.4294516206e+02 +1.4398129228e+02 2.0315837236e+02 0.0000000000e+00 0.0000e+00 1.0000e+00
       13  1    1    2    0    0 -1.0459081144e+01 -1.4294516206e+02 +7.9853089635e+02 8.1129175033e+02 0.0000000000e+00 0.0000e+00 -1.0000e+00
<mgrwt>
<rscale>  0 0.37520638E+03</rscale>
<asrwt>0</asrwt>
<pdfrwt beam="1">  1        2 0.15053554E+00 0.37520638E+03</pdfrwt>
<pdfrwt beam="2">  1       -2 0.55336880E-02 0.37520638E+03</pdfrwt>
<totfact> 0.48503465E+03</totfact>
</mgrwt>
<rwgt>
<wgt id='morphing_basis_vector_1'> +2.1434437e-04 </wgt>
<wgt id='morphing_basis_vector_2'> +1.1600136e-04 </wgt>
<wgt id='morphing_basis_vector_3'> +1.3305063e-04 </wgt>
<wgt id='morphing_basis_vector_4'> +2.6330500e-05 </wgt>
<wgt id='morphing_basis_vector_5'> +2.0978032e-05 </wgt>
</rwgt>
</event>
<event>
 4      1 +3.1894900e-05 4.16362500e+02 7.81860800e-03 9.60931800e-02
        2 -1    0    0  501    0 +0.0000000000e+00 +0.0000000000e+00 +2.4576722228e+02 2.4576722228e+02 0.0000000000e+00 0.0000e+00 1.0000e+00
       -2 -1    0    0    0  501 -0.0000000000e+00 -0.0000000000e+00 -1.7634338700e+02 1.7634338700e+02 0.0000000000e+00 0.0000e+00 -1.0000e+00
      -13  1    1    2    0    0 -5.3132545838e+01 -1.1107892912e+02 -1.3546806036e+02 1.8306608451e+02 0.0000000000e+00 0.0000e+00 -1.0000e+00
       13  1    1    2    0    0 +5.3132545838e+01 +1.1107892912e+02 +2.0489189565e+02 2.3904452477e+02 0.0000000000e+00 0.0000e+00 1.0000e+00
<mgrwt>
<rscale>  0 0.41636246E+03</rscale>
<asrwt>0</asrwt>
<pdfrwt beam="1">  1        2 0.37810342E-01 0.41636246E+03</pdfrwt>
<pdfrwt beam="2">  1       -2 0.27129752E-01 0.41636246E+03</pdfrwt>
<totfact> 0.19427855E+03</totfact>
</mgrwt>
<rwgt>
<wgt id='morphing_basis_vector_1'> +2.8108957e-04 </wgt>
<wgt id='morphing_basis_vector_2'> +1.5136340e-04 </wgt>
<wgt id='morphing_basis_vector_3'> +1.8360178e-04 </wgt>
<wgt id='morphing_basis_vector_4'> +4.4220377e-05 </wgt>
<wgt id='morphing_basis_vector_5'> +4.8999312e-05 </wgt>
</rwgt>
</event>
<event>
 4      1 +3.1894900e-05 4.10368100e+02 7.81860800e-03 9.62630900e-02
        2 -1    0    0  501    0 +0.0000000000e+00 +0.0000000000e+00 +1.7912054736e+02 1.7912054736e+02 0.0000000000e+00 0.0000e+00 1.0000e+00
       -2 -1    0    0    0  501 -0.0000000000e+00 -0.0000000000e+00 -2.3504000581e+02 2.3504000581e+02 0.0000000000e+00 0.0000e+00 -1.0000e+00
      -13  1    1    2    0    0 +8.2392856669e+01 -1.0814816669e+01 -2.1729665569e+02 2.3264432008e+02 0.0000000000e+00 0.0000e+00 -1.0000e+00
       13  1    1    2    0    0 -8.2392856669e+01 +1.0814816669e+01 +1.6137719723e+02 1.8151623309e+02 0.0000000000e+00 0.0000e+00 1.0000e+00
<mgrwt>
<rscale>  0 0.41036810E+03</rscale>
<asrwt>0</asrwt>
<pdfrwt beam="1">  1        2 0.27557007E-01 0.41036810E+03</pdfrwt>
<pdfrwt beam="2">  1       -2 0.36160001E-01 0.41036810E+03</pdfrwt>
<totfact> 0.16797836E+03</totfact>
</mgrwt>
<rwgt>
<wgt id='morphing_basis_vector_1'> +2.7022239e-04 </wgt>
<wgt id='morphing_basis_vector_2'> +1.4519564e-04 </wgt>
<wgt id='morphing_basis_vector_3'> +1.7538082e-04 </wgt>
<wgt id='morphing_basis_vector_4'> +4.1017364e-05 </wgt>
<wgt id='morphing_basis_vector_5'> +4.3972729e-05 </wgt>
</rwgt>
</event>
<event>
 4      1 +3.1894900e-05 3.63815500e+02 7.81860800e-03 9.76977100e-02
        2 -1    0    0  501    0 +0.0000000000e+00 +0.0000000000e+00 +1.3498421466e+03 1.3498421466e+03 0.0000000000e+00 0.0000e+00 -1.0000e+00
       -2 -1    0    0    0  501 -0.0000000000e+00 -0.0000000000e+00 -2.4514301323e+01 2.4514301323e+01 0.0000000000e+00 0.0000e+00 1.0000e+00
      -13  1    1    2    0    0 +3.5130582401e+01 -1.7566965560e+02 +5.4341726979e+02 5.7218555978e+02 0.0000000000e+00 0.0000e+00 1.0000e+00
       13  1    1    2    0    0 -3.5130582401e+01 +1.7566965560e+02 +7.8191057546e+02 8.0217088812e+02 0.0000000000e+00 0.0000e+00 -1.0000e+00
<mgrwt>
<rscale>  0 0.36381554E+03</rscale>
<asrwt>0</asrwt>
<pdfrwt beam="1">  1        2 0.20766796E+00 0.36381554E+03</pdfrwt>
<pdfrwt beam="2">  1       -2 0.37714320E-02 0.36381554E+03</pdfrwt>
<totfact> 0.52793338E+03</totfact>
</mgrwt>
<rwgt>
<wgt id='morphing_basis_vector_1'> +2.0131640e-04 </wgt>
<wgt id='morphing_basis_vector_2'> +1.1611225e-04 </wgt>
<wgt id='morphing_basis_vector_3'> +1.1846244e-04 </wgt>
<wgt id='morphing_basis_vector_4'> +2.3586116e-05 </wgt>
<wgt id='morphing_basis_vector_5'> +1.5821013e-05 </wgt>
</rwgt>
</event>
<event>
 4      1 +3.1894900e-05 3.64919600e+02 7.81860800e-03 9.76610700e-02
        2 -1    0    0  501    0 +0.0000000000e+00 +0.0000000000e+00 +9.5036080813e+02 9.5036080813e+02 0.0000000000e+00 0.0000e+00 -1.0000e+00
       -2 -1    0    0    0  501 -0.0000000000e+00 -0.0000000000e+00 -3.5030464300e+01 3.5030464300e+01 0.0000000000e+00 0.0000e+00 1.0000e+00
      -13  1    1    2    0    0 -1.3345899809e+02 +4.9477273984e+01 +1.4940200423e+02 2.0634985747e+02 0.0000000000e+00 0.0000e+00 1.0000e+00
       13  1    1    2    0    0 +1.3345899809e+02 -4.9477273984e+01 +7.6592833961e+02 7.7904141496e+02 0.0000000000e+00 0.0000e+00 -1.0000e+00
<mgrwt>
<rscale>  0 0.36491961E+03</rscale>
<asrwt>0</asrwt>
<pdfrwt beam="1">  1        2 0.14620934E+00 0.36491961E+03</pdfrwt>
<pdfrwt beam="2">  1       -2 0.53893029E-02 0.36491961E+03</pdfrwt>
<totfact> 0.52487846E+03</totfact>
</mgrwt>
<rwgt>
<wgt id='morphing_basis_vector_1'> +2.0002336e-04 </wgt>
<wgt id='morphing_basis_vector_2'> +1.0852455e-04 </wgt>
<wgt id='morphing_basis_vector_3'> +1.2271444e-04 </wgt>
<wgt id='morphing_basis_vector_4'> +2.3215589e-05 </wgt>
<wgt id='morphing_basis_vector_5'> +1.6116725e-05 </wgt>
</rwgt>
</event>
<event>
 4      1 +3.1894900e-05 3.69470100e+02 7.81860800e-03 9.75115000e-02
        2 -1    0    0  501    0 +0.0000000000e+00 +0.0000000000e+00 +2.6673014183e+02 2.6673014183e+02 0.0000000000e+00 0.0000e+00 1.0000e+00
       -2 -1    0    0    0  501 -0.0000000000e+00 -0.0000000000e+00 -1.2794592004e+02 1.2794592004e+02 0.0000000000e+00 0.0000e+00 -1.0000e+00
      -13  1    1    2    0    0 +5.4562462129e+01 +1.4953742788e+02 -3.0750661760e+01 1.6212374227e+02 0.0000000000e+00 0.0000e+00 -1.0000e+00
       13  1    1    2    0    0 -5.4562462129e+01 -1.4953742788e+02 +1.6953488355e+02 2.3255231960e+02 0.0000000000e+00 0.0000e+00 1.0000e+00
<mgrwt>
<rscale>  0 0.36947007E+03</rscale>
<asrwt>0</asrwt>
<pdfrwt beam="1">  1        2 0.41035406E-01 0.36947007E+03</pdfrwt>
<pdfrwt beam="2">  1       -2 0.19683988E-01 0.36947007E+03</pdfrwt>
<totfact> 0.30253877E+03</totfact>
</mgrwt>
<rwgt>
<wgt id='morphing_basis_vector_1'> +2.0663366e-04 </wgt>
<wgt id='morphing_basis_vector_2'> +1.1292837e-04 </wgt>
<wgt id='morphing_basis_vector_3'> +1.2675286e-04 </wgt>
<wgt id='morphing_basis_vector_4'> +2.4616146e-05 </wgt>
<wgt id='morphing_basis_vector_5'> +1.8196995e-05 </wgt>
</rwgt>
</event>
<event>
 4      1 +3.1894900e-05 3.84651200e+02 7.81860800e-03 9.70287800e-02
        2 -1    0    0  501    0 +0.0000000000e+00 +0.0000000000e+00 +8.8626255019e+02 8.8626255019e+02 0.0000000000e+00 0.0000e+00 1.0000e+00
       -2 -1    0    0    0  501 -0.0000000000e+00 -0.0000000000e+00 -4.1736091388e+01 4.1736091388e+01 0.0000000000e+00 0.0000e+00 -1.0000e+00
      -13  1    1    2    0    0 +8.6559344262e+01 +1.6853031202e+02 +3.4246037589e+02 3.9137462258e+02 0.0000000000e+00 0.0000e+00 -1.0000e+00
       13  1    1    2    0    0 -8.6559344262e+01 -1.6853031202e+02 +5.0206608291e+02 5.3662401899e+02 0.0000000000e+00 0.0000e+00 1.0000e+00
<mgrwt>
<rscale>  0 0.38465119E+03</rscale>
<asrwt>0</asrwt>
<pdfrwt beam="1">  1        2 0.13634807E+00 0.38465119E+03</pdfrwt>
<pdfrwt beam="2">  1       -2 0.64209378E-02 0.38465119E+03</pdfrwt>
<totfact> 0.44230790E+03</totfact>
</mgrwt>
<rwgt>
<wgt id='morphing_basis_vector_1'> +2.3167003e-04 </wgt>
<wgt id='morphing_basis_vector_2'> +1.3360427e-04 </wgt>
<wgt id='morphing_basis_vector_3'> +1.3981567e-04 </wgt>
<wgt id='morphing_basis_vector_4'> +3.0107769e-05 </wgt>
<wgt id='morphing_basis_vector_5'> +2.6369589e-05 </wgt>
</rwgt>
</event>
<event>
 4      1 +3.1894900e-05 3.98269600e+02 7.81860800e-03 9.66156200e-02
        2 -1    0    0  501    0 +0.0000000000e+00 +0.0000000000e+00 +1.8527915899e+02 1.8527915899e+02 0.0000000000e+00 0.0000e+00 -1.0000e+00
       -2 -1    0    0    0  501 -0.0000000000e+00 -0.0000000000e+00 -2.1402660243e+02 2.1402660243e+02 0.0000000000e+00 0.0000e+00 1.0000e+00
      -13  1    1    2    0    0 +7.0385581106e+01 +1.7840557730e+02 -6.8104086913e+01 2.0352112100e+02 0.0000000000e+00 0.0000e+00 1.0000e+00
       13  1    1    2    0    0 -7.0385581106e+01 -1.7840557730e+02 +3.9356643477e+01 1.9578464042e+02 0.0000000000e+00 0.0000e+00 -1.0000e+00
<mgrwt>
<rscale>  0 0.39826960E+03</rscale>
<asrwt>0</asrwt>
<pdfrwt beam="1">  1        2 0.28504486E-01 0.39826960E+03</pdfrwt>
<pdfrwt beam="2">  1       -2 0.32927170E-01 0.39826960E+03</pdfrwt>
<totfact> 0.19087475E+03</totfact>
</mgrwt>
<rwgt>
<wgt id='morphing_basis_vector_1'> +2.5230589e-04 </wgt>
<wgt id='morphing_basis_vector_2'> +1.4235912e-04 </wgt>
<wgt id='morphing_basis_vector_3'> +1.5706701e-04 </wgt>
<wgt id='morphing_basis_vector_4'> +3.5387333e-05 </wgt>
<wgt id='morphing_basis_vector_5'> +3.5036299e-05 </wgt>
</rwgt>
</event>
<event>
 4      1 +3.1894900e-05 4.10681300e+02 7.81860800e-03 9.62541400e-02
        2 -1    0    0  501    0 +0.0000000000e+00 +0.0000000000e+00 +1.3912147291e+03 1.3912147291e+03 0.0000000000e+00 0.0000e+00 1.0000e+00
       -2 -1    0    0    0  501 -0.0000000000e+00 -0.0000000000e+00 -3.0307894702e+01 3.0307894702e+01 0.0000000000e+00 0.0000e+00 -1.0000e+00
      -13  1    1    2    0    0 +5.6109678030e+01 -1.8486977127e+02 +4.3965352240e+02 4.8022947437e+02 0.0000000000e+00 0.0000e+00 -1.0000e+00
       13  1    1    2    0    0 -5.6109678030e+01 +1.8486977127e+02 +9.2125331203e+02 9.4129314946e+02 0.0000000000e+00 0.0000e+00 1.0000e+00
<mgrwt>
<rscale>  0 0.41068133E+03</rscale>
<asrwt>0</asrwt>
<pdfrwt beam="1">  1        2 0.21403299E+00 0.41068133E+03</pdfrwt>
<pdfrwt beam="2">  1       -2 0.46627541E-02 0.41068133E+03</pdfrwt>
<totfact> 0.36520741E+03</totfact>
</mgrwt>
<rwgt>
<wgt id='morphing_basis_vector_1'> +2.7299217e-04 </wgt>
<wgt id='morphing_basis_vector_2'> +1.5229124e-04 </wgt>
<wgt id='morphing_basis_vector_3'> +1.7384350e-04 </wgt>
<wgt id='morphing_basis_vector_4'> +4.1203283e-05 </wgt>
<wgt id='morphing_basis_vector_5'> +4.4368439e-05 </wgt>
</rwgt>
</event>
<event>
 4      1 +3.1894900e-05 3.67495700e+02 7.81860800e-03 9.75761100e-02
        2 -1    0    0  501    0 +0.0000000000e+00 +0.0000000000e+00 +7.7669618257e+02 7.7669618257e+02 0.0000000000e+00 0.0000e+00 -1.0000e+00
       -2 -1    0    0    0  501 -0.0000000000e+00 -0.0000000000e+00 -4.3470369429e+01 4.3470369429e+01 0.0000000000e+00 0.0000e+00 1.0000e+00
      -13  1    1    2    0    0 +1.8159846714e+02 -1.4220819203e+01 +4.2050153491e+02 4.5825950708e+02 0.0000000000e+00 0.0000e+00 1.0000e+00
       13  1    1    2    0    0 -1.8159846714e+02 +1.4220819203e+01 +3.1272427823e+02 3.6190704492e+02 0.0000000000e+00 0.0000e+00 -1.0000e+00
<mgrwt>
<rscale>  0 0.36749569E+03</rscale>
<asrwt>0</asrwt>
<pdfrwt beam="1">  1        2 0.11949171E+00 0.36749569E+03</pdfrwt>
<pdfrwt beam="2">  1       -2 0.66877497E-02 0.36749569E+03</pdfrwt>
<totfact> 0.49099235E+03</totfact>
</mgrwt>
<rwgt>
<wgt id='morphing_basis_vector_1'> +2.1312267e-04 </wgt>
<wgt id='morphing_basis_vector_2'> +1.3928141e-04 </wgt>
<wgt id='morphing_basis_vector_3'> +1.1439287e-04 </wgt>
<wgt id='morphing_basis_vector_4'> +2.6111085e-05 </wgt>
<wgt id='morphing_basis_vector_5'> +1.7889932e-05 </wgt>
</rwgt>
</event>
<event>
 4      1 +3.1894900e-05 4.27868100e+02 7.81860800e-03 9.57753900e-02
        2 -1    0    0  501    0 +0.0000000000e+00 +0.0000000000e+00 +6.5151803157e+02 6.5151803157e+02 0.0000000000e+00 0.0000e+00 1.0000e+00
       -2 -1    0    0    0  501 -0.0000000000e+00 -0.0000000000e+00 -7.0247921244e+01 7.0247921244e+01 0.0000000000e+00 0.0000e+00 -1.0000e+00
      -13  1    1    2    0    0 +9.7437827130e+01 -4.8641609441e+01 -1.9989146539e+01 1.1072353997e+02 0.0000000000e+00 0.0000e+00 -1.0000e+00
       13  1    1    2    0    0 -9.7437827130e+01 +4.8641609441e+01 +6.0125925687e+02 6.1104241284e+02 0.0000000000e+00 0.0000e+00 1.0000e+00
<mgrwt>
<rscale>  0 0.42786814E+03</rscale>
<asrwt>0</asrwt>
<pdfrwt beam="1">  1        2 0.10023354E+00 0.42786814E+03</pdfrwt>
<pdfrwt beam="2">  1       -2 0.10807373E-01 0.42786814E+03</pdfrwt>
<totfact> 0.29051965E+03</totfact>
</mgrwt>
<rwgt>
<wgt id='morphing_basis_vector_1'> +3.0276470e-04 </wgt>
<wgt id='morphing_basis_vector_2'> +1.6314480e-04 </wgt>
<wgt id='morphing_basis_vector_3'> +2.0059680e-04 </wgt>
<wgt id='morphing_basis_vector_4'> +5.0993552e-05 </wgt>
<wgt id='morphing_basis_vector_5'> +5.9623324e-05 </wgt>
</rwgt>
</event>
<event>
 4      1 +3.1894900e-05 3.89688300e+02 7.81860800e-03 9.68738600e-02
        2 -1    0    0  501    0 +0.0000000000e+00 +0.0000000000e+00 +2.5405653001e+02 2.5405653001e+02 0.0000000000e+00 0.0000e+00 1.0000e+00
       -2 -1    0    0    0  501 -0.0000000000e+00 -0.0000000000e+00 -1.4943226118e+02 1.4943226118e+02 0.0000000000e+00 0.0000e+00 -1.0000e+00
      -13  1    1    2    0    0 +9.1584857837e+01 +7.3590397490e+01 -1.0863036749e+02 1.6001215432e+02 0.0000000000e+00 0.0000e+00 -1.0000e+00
       13  1    1    2    0    0 -9.1584857837e+01 -7.3590397490e+01 +2.1325463632e+02 2.4347663687e+02 0.0000000000e+00 0.0000e+00 1.0000e+00
<mgrwt>
<rscale>  0 0.38968829E+03</rscale>
<asrwt>0</asrwt>
<pdfrwt beam="1">  1        2 0.39085620E-01 0.38968829E+03</pdfrwt>
<pdfrwt beam="2">  1       -2 0.22989579E-01 0.38968829E+03</pdfrwt>
<totfact> 0.24740150E+03</totfact>
</mgrwt>
<rwgt>
<wgt id='morphing_basis_vector_1'> +2.3586145e-04 </wgt>
<wgt id='morphing_basis_vector_2'> +1.2685455e-04 </wgt>
<wgt id='morphing_basis_vector_3'> +1.4927631e-04 </wgt>
<wgt id='morphing_basis_vector_4'> +3.1559836e-05 </wgt>
<wgt id='morphing_basis_vector_5'> +2.9180415e-05 </wgt>
</rwgt>
</event>
<event>
 4      1 +3.1894900e-05 4.07346500e+02 7.81860800e-03 9.63499100e-02
        2 -1    0    0  501    0 +0.0000000000e+00 +0.0000000000e+00 +7.1216064087e+02 7.1216064087e+02 0.0000000000e+00 0.0000e+00 1.0000e+00
       -2 -1    0    0    0  501 -0.0000000000e+00 -0.0000000000e+00 -5.8249220490e+01 5.8249220490e+01 0.0000000000e+00 0.0000e+00 -1.0000e+00
      -13  1    1    2    0    0 -9.4391746103e+01 +9.3006187649e+01 +3.4429860868e+01 1.3691372463e+02 0.0000000000e+00 0.0000e+00 -1.0000e+00
       13  1    1    2    0    0 +9.4391746103e+01 -9.3006187649e+01 +6.1948155951e+02 6.3349613673e+02 0.0000000000e+00 0.0000e+00 1.0000e+00
<mgrwt>
<rscale>  0 0.40734655E+03</rscale>
<asrwt>0</asrwt>
<pdfrwt beam="1">  1        2 0.10956317E+00 0.40734655E+03</pdfrwt>
<pdfrwt beam="2">  1       -2 0.89614190E-02 0.40734655E+03</pdfrwt>
<totfact> 0.34935724E+03</totfact>
</mgrwt>
<rwgt>
<wgt id='morphing_basis_vector_1'> +2.6508174e-04 </wgt>
<wgt id='morphing_basis_vector_2'> +1.4278332e-04 </wgt>
<wgt id='morphing_basis_vector_3'> +1.7119198e-04 </wgt>
<wgt id='morphing_basis_vector_4'> +3.9487309e-05 </wgt>
<wgt id='morphing_basis_vector_5'> +4.1580685e-05 </wgt>
</rwgt>
</event>
<event>
 4      1 +3.1894900e-05 4.24567700e+02 7.81860800e-03 9.58654600e-02
        2 -1    0    0  501    0 +0.0000000000e+00 +0.0000000000e+00 +2.8020868775e+02 2.8020868775e+02 0.0000000000e+00 0.0000e+00 -1.0000e+00
       -2 -1    0    0    0  501 -0.0000000000e+00 -0.0000000000e+00 -1.6082455722e+02 1.6082455722e+02 0.0000000000e+00 0.0000e+00 1.0000e+00
      -13  1    1    2    0    0 -1.0654359050e+02 +8.1058537213e+01 -1.1144677908e+02 1.7419072219e+02 0.0000000000e+00 0.0000e+00 1.0000e+00
       13  1    1    2    0    0 +1.0654359050e+02 -8.1058537213e+01 +2.3083090961e+02 2.6684252278e+02 0.0000000000e+00 0.0000e+00 -1.0000e+00
<mgrwt>
<rscale>  0 0.42456772E+03</rscale>
<asrwt>0</asrwt>
<pdfrwt beam="1">  1        2 0.43109029E-01 0.42456772E+03</pdfrwt>
<pdfrwt beam="2">  1       -2 0.24742240E-01 0.42456772E+03</pdfrwt>
<totfact> 0.19628378E+03</totfact>
</mgrwt>
<rwgt>
<wgt id='morphing_basis_vector_1'> +2.9649324e-04 </wgt>
<wgt id='morphing_basis_vector_2'> +1.5995190e-04 </wgt>
<wgt id='morphing_basis_vector_3'> +1.9551027e-04 </wgt>
<wgt id='morphing_basis_vector_4'> +4.8958824e-05 </wgt>
<wgt id='morphing_basis_vector_5'> +5.6444533e-05 </wgt>
</rwgt>
</event>
<event>
 4      1 +3.1894900e-05 4.09668200e+02 7.81860800e-03 9.62831300e-02
        2 -1    0    0  501    0 +0.0000000000e+00 +0.0000000000e+00 +7.6090894509e+02 7.6090894509e+02 0.0000000000e+00 0.0000e+00 1.0000e+00
       -2 -1    0    0    0  501 -0.0000000000e+00 -0.0000000000e+00 -5.5140631554e+01 5.5140631554e+01 0.0000000000e+00 0.0000e+00 -1.0000e+00
      -13  1    1    2    0    0 -1.6875339126e+02 +1.0784756377e+02 +2.6724777398e+02 3.3396134023e+02 0.0000000000e+00 0.0000e+00 1.0000e+00
       13  1    1    2    0    0 +1.6875339126e+02 -1.0784756377e+02 +4.3852053956e+02 4.8208823641e+02 0.0000000000e+00 0.0000e+00 -1.0000e+00
<mgrwt>
<rscale>  0 0.40966816E+03</rscale>
<asrwt>0</asrwt>
<pdfrwt beam="1">  1        2 0.11706291E+00 0.40966816E+03</pdfrwt>
<pdfrwt beam="2">  1       -2 0.84831746E-02 0.40966816E+03</pdfrwt>
<totfact> 0.35078166E+03</totfact>
</mgrwt>
<rwgt>
<wgt id='morphing_basis_vector_1'> +2.7278189e-04 </wgt>
<wgt id='morphing_basis_vector_2'> +1.5615228e-04 </wgt>
<wgt id='morphing_basis_vector_3'> +1.7105322e-04 </wgt>
<wgt id='morphing_basis_vector_4'> +4.0716840e-05 </wgt>
<wgt id='morphing_basis_vector_5'> +4.3652122e-05 </wgt>
</rwgt>
</event>
<event>
 4      1 +3.1894900e-05 4.23799500e+02 7.81860800e-03 9.58865500e-02
        2 -1    0    0  501    0 +0.0000000000e+00 +0.0000000000e+00 +9.0469397315e+02 9.0469397315e+02 0.0000000000e+00 0.0000e+00 1.0000e+00
       -2 -1    0    0    0  501 -0.0000000000e+00 -0.0000000000e+00 -4.9631711671e+01 4.9631711671e+01 0.0000000000e+00 0.0000e+00 -1.0000e+00
      -13  1    1    2    0    0 -1.2901564863e+02 +1.3087968511e+02 +1.8999766122e+02 2.6433622687e+02 0.0000000000e+00 0.0000e+00 -1.0000e+00
       13  1    1    2    0    0 +1.2901564863e+02 -1.3087968511e+02 +6.6506460026e+02 6.8998945795e+02 0.0000000000e+00 0.0000e+00 1.0000e+00
<mgrwt>
<rscale>  0 0.42379953E+03</rscale>
<asrwt>0</asrwt>
<pdfrwt beam="1">  1        2 0.13918368E+00 0.42379953E+03</pdfrwt>
<pdfrwt beam="2">  1       -2 0.76356486E-02 0.42379953E+03</pdfrwt>
<totfact> 0.33096261E+03</totfact>
</mgrwt>
<rwgt>
<wgt id='morphing_basis_vector_1'> +2.9600714e-04 </wgt>
<wgt id='morphing_basis_vector_2'> +1.6216264e-04 </wgt>
<wgt id='morphing_basis_vector_3'> +1.9356482e-04 </wgt>
<wgt id='morphing_basis_vector_4'> +4.8444765e-05 </wgt>
<wgt id='morphing_basis_vector_5'> +5.5779783e-05 </wgt>
</rwgt>
</event>
<event>
 4      1 +3.1894900e-05 4.16706800e+02 7.81860800e-03 9.60835100e-02
        2 -1    0    0  501    0 +0.0000000000e+00 +0.0000000000e+00 +1.8941109533e+02 1.8941109533e+02 0.0000000000e+00 0.0000e+00 -1.0000e+00
       -2 -1    0    0    0  501 -0.0000000000e+00 -0.0000000000e+00 -2.2919001573e+02 2.2919001573e+02 0.0000000000e+00 0.0000e+00 1.0000e+00
      -13  1    1    2    0    0 -8.8652005593e+01 +1.6913092111e+02 -1.0361513182e+02 2.1725685746e+02 0.0000000000e+00 0.0000e+00 1.0000e+00
       13  1    1    2    0    0 +8.8652005593e+01 -1.6913092111e+02 +6.3836211420e+01 2.0134425360e+02 0.0000000000e+00 0.0000e+00 -1.0000e+00
<mgrwt>
<rscale>  0 0.41670676E+03</rscale>
<asrwt>0</asrwt>
<pdfrwt beam="1">  1        2 0.29140169E-01 0.41670676E+03</pdfrwt>
<pdfrwt beam="2">  1       -2 0.35260002E-01 0.41670676E+03</pdfrwt>
<totfact> 0.16487159E+03</totfact>
</mgrwt>
<rwgt>
<wgt id='morphing_basis_vector_1'> +2.8337452e-04 </wgt>
<wgt id='morphing_basis_vector_2'> +1.5679046e-04 </wgt>
<wgt id='morphing_basis_vector_3'> +1.8267980e-04 </wgt>
<wgt id='morphing_basis_vector_4'> +4.4379798e-05 </wgt>
<wgt id='morphing_basis_vector_5'> +4.9402564e-05 </wgt>
</rwgt>
</event>
<event>
 4      1 +3.1894900e-05 3.62359900e+02 7.81860800e-03 9.77462300e-02
        2 -1    0    0  501    0 +0.0000000000e+00 +0.0000000000e+00 +1.1819452511e+03 1.1819452511e+03 0.0000000000e+00 0.0000e+00 1.0000e+00
       -2 -1    0    0    0  501 -0.0000000000e+00 -0.0000000000e+00 -2.7773013141e+01 2.7773013141e+01 0.0000000000e+00 0.0000e+00 -1.0000e+00
      -13  1    1    2    0    0 -1.6120346543e+02 -4.4204862513e+01 +8.1043244344e+02 8.2749101054e+02 0.0000000000e+00 0.0000e+00 1.0000e+00
       13  1    1    2    0    0 +1.6120346543e+02 +4.4204862513e+01 +3.4373979449e+02 3.8222725367e+02 0.0000000000e+00 0.0000e+00 -1.0000e+00
<mgrwt>
<rscale>  0 0.36235994E+03</rscale>
<asrwt>0</asrwt>
<pdfrwt beam="1">  1        2 0.18183769E+00 0.36235994E+03</pdfrwt>
<pdfrwt beam="2">  1       -2 0.42727722E-02 0.36235994E+03</pdfrwt>
<totfact> 0.54320101E+03</totfact>
</mgrwt>
<rwgt>
<wgt id='morphing_basis_vector_1'> +2.1876100e-04 </wgt>
<wgt id='morphing_basis_vector_2'> +1.7339192e-04 </wgt>
<wgt id='morphing_basis_vector_3'> +9.4621753e-05 </wgt>
<wgt id='morphing_basis_vector_4'> +2.8070174e-05 </wgt>
<wgt id='morphing_basis_vector_5'> +1.6462458e-05 </wgt>
</rwgt>
</event>
<event>
 4      1 +3.1894900e-05 3.99327200e+02 7.81860800e-03 9.65842800e-02
        2 -1    0    0  501    0 +0.0000000000e+00 +0.0000000000e+00 +4.0193121602e+02 4.0193121602e+02 0.0000000000e+00 0.0000e+00 -1.0000e+00
       -2 -1    0    0    0  501 -0.0000000000e+00 -0.0000000000e+00 -9.9185028861e+01 9.9185028861e+01 0.0000000000e+00 0.0000e+00 1.0000e+00
      -13  1    1    2    0    0 +1.0133595004e+02 +2.6805507722e+01 -6.1879087555e+01 1.2172317566e+02 0.0000000000e+00 0.0000e+00 1.0000e+00
       13  1    1    2    0    0 -1.0133595004e+02 -2.6805507722e+01 +3.6462527471e+02 3.7939306922e+02 0.0000000000e+00 0.0000e+00 -1.0000e+00
<mgrwt>
<rscale>  0 0.39932723E+03</rscale>
<asrwt>0</asrwt>
<pdfrwt beam="1">  1        2 0.61835571E-01 0.39932723E+03</pdfrwt>
<pdfrwt beam="2">  1       -2 0.15259235E-01 0.39932723E+03</pdfrwt>
<totfact> 0.29058330E+03</totfact>
</mgrwt>
<rwgt>
<wgt id='morphing_basis_vector_1'> +2.5135704e-04 </wgt>
<wgt id='morphing_basis_vector_2'> +1.3506360e-04 </wgt>
<wgt id='morphing_basis_vector_3'> +1.6096231e-04 </wgt>
<wgt id='morphing_basis_vector_4'> +3.5669095e-05 </wgt>
<wgt id='morphing_basis_vector_5'> +3.5604074e-05 </wgt>
</rwgt>
</event>
<event>
 4      1 +3.1894900e-05 3.74058700e+02 7.81860800e-03 9.73630100e-02
        2 -1    0    0  501    0 +0.0000000000e+00 +0.0000000000e+00 +1.7942491182e+02 1.7942491182e+02 0.0000000000e+00 0.0000e+00 -1.0000e+00
       -2 -1    0    0    0  501 -0.0000000000e+00 -0.0000000000e+00 -1.9495612427e+02 1.9495612427e+02 0.0000000000e+00 0.0000e+00 1.0000e+00
      -13  1    1    2    0    0 -4.1304828021e+01 +1.7732725828e+02 -5.0568562969e+01 1.8896620044e+02 0.0000000000e+00 0.0000e+00 1.0000e+00
       13  1    1    2    0    0 +4.1304828021e+01 -1.7732725828e+02 +3.5037350520e+01 1.8541483565e+02 0.0000000000e+00 0.0000e+00 -1.0000e+00
<mgrwt>
<rscale>  0 0.37405874E+03</rscale>
<asrwt>0</asrwt>
<pdfrwt beam="1">  1        2 0.27603833E-01 0.37405874E+03</pdfrwt>
<pdfrwt beam="2">  1       -2 0.29993250E-01 0.37405874E+03</pdfrwt>
<totfact> 0.23296392E+03</totfact>
</mgrwt>
<rwgt>
<wgt id='morphing_basis_vector_1'> +2.1508139e-04 </wgt>
<wgt id='morphing_basis_vector_2'> +1.2233743e-04 </wgt>
<wgt id='morphing_basis_vector_3'> +1.2925746e-04 </wgt>
<wgt id='morphing_basis_vector_4'> +2.6416718e-05 </wgt>
<wgt id='morphing_basis_vector_5'> +2.0553870e-05 </wgt>
</rwgt>
</event>
<event>
 4      1 +3.1894900e-05 3.83723400e+02 7.81860800e-03 9.70575900e-02
        2 -1    0    0  501    0 +0.0000000000e+00 +0.0000000000e+00 +3.3836700046e+02 3.3836700046e+02 0.0000000000e+00 0.0000e+00 -1.0000e+00
       -2 -1    0    0    0  501 -0.0000000000e+00 -0.0000000000e+00 -1.0878992236e+02 1.0878992236e+02 0.0000000000e+00 0.0000e+00 1.0000e+00
      -13  1    1    2    0    0 +7.0581148448e+01 +6.4713659183e+01 -7.8952382062e+01 1.2410896355e+02 0.0000000000e+00 0.0000e+00 1.0000e+00
       13  1    1    2    0    0 -7.0581148448e+01 -6.4713659183e+01 +3.0852946016e+02 3.2304795927e+02 0.0000000000e+00 0.0000e+00 -1.0000e+00
<mgrwt>
<rscale>  0 0.38372344E+03</rscale>
<asrwt>0</asrwt>
<pdfrwt beam="1">  1        2 0.52056461E-01 0.38372344E+03</pdfrwt>
<pdfrwt beam="2">  1       -2 0.16736911E-01 0.38372344E+03</pdfrwt>
<totfact> 0.30293909E+03</totfact>
</mgrwt>
<rwgt>
<wgt id='morphing_basis_vector_1'> +2.2661345e-04 </wgt>
<wgt id='morphing_basis_vector_2'> +1.2176548e-04 </wgt>
<wgt id='morphing_basis_vector_3'> +1.4254668e-04 </wgt>
<wgt id='morphing_basis_vector_4'> +2.9251602e-05 </wgt>
<wgt id='morphing_basis_vector_5'> +2.5589194e-05 </wgt>
</rwgt>
</event>
<event>
 4      1 +3.1894900e-05 3.86346400e+02 7.81860800e-03 9.69763600e-02
        2 -1    0    0  501    0 +0.0000000000e+00 +0.0000000000e+00 +2.9364020934e+02 2.9364020934e+02 0.0000000000e+00 0.0000e+00 1.0000e+00
       -2 -1    0    0    0  501 -0.0000000000e+00 -0.0000000000e+00 -1.2708027051e+02 1.2708027051e+02 0.0000000000e+00 0.0000e+00 -1.0000e+00
      -13  1    1    2    0    0 -6.2657222711e+01 -6.3840638492e+00 -1.1558555365e+02 1.3163093877e+02 0.0000000000e+00 0.0000e+00 -1.0000e+00
       13  1    1    2    0    0 +6.2657222711e+01 +6.3840638492e+00 +2.8214549249e+02 2.8908954108e+02 0.0000000000e+00 0.0000e+00 1.0000e+00
<mgrwt>
<rscale>  0 0.38634636E+03</rscale>
<asrwt>0</asrwt>
<pdfrwt beam="1">  1        2 0.45175417E-01 0.38634636E+03</pdfrwt>
<pdfrwt beam="2">  1       -2 0.19550811E-01 0.38634636E+03</pdfrwt>
<totfact> 0.27524179E+03</totfact>
</mgrwt>
<rwgt>
<wgt id='morphing_basis_vector_1'> +2.3057965e-04 </wgt>
<wgt id='morphing_basis_vector_2'> +1.2379456e-04 </wgt>
<wgt id='morphing_basis_vector_3'> +1.4552945e-04 </wgt>
<wgt id='morphing_basis_vector_4'> +3.0236591e-05 </wgt>
<wgt id='morphing_basis_vector_5'> +2.7128615e-05 </wgt>
</rwgt>
</event>
<event>
 4      1 +3.1894900e-05 3.84460600e+02 7.81860800e-03 9.70346900e-02
        2 -1    0    0  501    0 +0.0000000000e+00 +0.0000000000e+00 +4.6031162261e+02 4.6031162261e+02 0.0000000000e+00 0.0000e+00 -1.0000e+00
       -2 -1    0    0    0  501 -0.0000000000e+00 -0.0000000000e+00 -8.0277118950e+01 8.0277118950e+01 0.0000000000e+00 0.0000e+00 1.0000e+00
      -13  1    1    2    0    0 +8.5538750671e+01 -5.3684861126e-01 -5.2041053032e+01 1.0012710559e+02 0.0000000000e+00 0.0000e+00 1.0000e+00
       13  1    1    2    0    0 -8.5538750671e+01 +5.3684861126e-01 +4.3207555669e+02 4.4046163597e+02 0.0000000000e+00 0.0000e+00 -1.0000e+00
<mgrwt>
<rscale>  0 0.38446061E+03</rscale>
<asrwt>0</asrwt>
<pdfrwt beam="1">  1        2 0.70817171E-01 0.38446061E+03</pdfrwt>
<pdfrwt beam="2">  1       -2 0.12350326E-01 0.38446061E+03</pdfrwt>
<totfact> 0.34938828E+03</totfact>
</mgrwt>
<rwgt>
<wgt id='morphing_basis_vector_1'> +2.2771537e-04 </wgt>
<wgt id='morphing_basis_vector_2'> +1.2231213e-04 </wgt>
<wgt id='morphing_basis_vector_3'> +1.4338587e-04 </wgt>
<wgt id='morphing_basis_vector_4'> +2.9523899e-05 </wgt>
<wgt id='morphing_basis_vector_5'> +2.6015812e-05 </wgt>
</rwgt>
</event>
<event>
 4      1 +3.1894900e-05 3.90524900e+02 7.81860800e-03 9.68483800e-02
        2 -1    0    0  501    0 +0.0000000000e+00 +0.0000000000e+00 +1.5104475012e+02 1.5104475012e+02 0.0000000000e+00 0.0000e+00 1.0000e+00
       -2 -1    0    0    0  501 -0.0000000000e+00 -0.0000000000e+00 -2.5242464118e+02 2.5242464118e+02 0.0000000000e+00 0.0000e+00 -1.0000e+00
      -13  1    1    2    0    0 +1.2302734195e+02 +4.5275606596e-01 -2.0734536273e+02 2.4109755557e+02 0.0000000000e+00 0.0000e+00 -1.0000e+00
       13  1    1    2    0    0 -1.2302734195e+02 -4.5275606596e-01 +1.0596547167e+02 1.6237183574e+02 0.0000000000e+00 0.0000e+00 1.0000e+00
<mgrwt>
<rscale>  0 0.39052486E+03</rscale>
<asrwt>0</asrwt>
<pdfrwt beam="1">  1        2 0.23237654E-01 0.39052486E+03</pdfrwt>
<pdfrwt beam="2">  1       -2 0.38834560E-01 0.39052486E+03</pdfrwt>
<totfact> 0.17969384E+03</totfact>
</mgrwt>
<rwgt>
<wgt id='morphing_basis_vector_1'> +2.3720196e-04 </wgt>
<wgt id='morphing_basis_vector_2'> +1.2763753e-04 </wgt>
<wgt id='morphing_basis_vector_3'> +1.5022777e-04 </wgt>
<wgt id='morphing_basis_vector_4'> +3.1899938e-05 </wgt>
<wgt id='morphing_basis_vector_5'> +2.9708633e-05 </wgt>
</rwgt>
</event>
<event>
 4      1 +3.1894900e-05 3.95691000e+02 7.81860800e-03 9.66924900e-02
        2 -1    0    0  501    0 +0.0000000000e+00 +0.0000000000e+00 +1.2712584820e+03 1.2712584820e+03 0.0000000000e+00 0.0000e+00 -1.0000e+00
       -2 -1    0    0    0  501 -0.0000000000e+00 -0.0000000000e+00 -3.0790617815e+01 3.0790617815e+01 0.0000000000e+00 0.0000e+00 1.0000e+00
      -13  1    1    2    0    0 -6.3041036905e+01 -1.8730507899e+02 +6.5065509663e+02 6.8000692623e+02 0.0000000000e+00 0.0000e+00 1.0000e+00
       13  1    1    2    0    0 +6.3041036905e+01 +1.8730507899e+02 +5.8981276760e+02 6.2204217363e+02 0.0000000000e+00 0.0000e+00 -1.0000e+00
<mgrwt>
<rscale>  0 0.39569096E+03</rscale>
<asrwt>0</asrwt>
<pdfrwt beam="1">  1        2 0.19557819E+00 0.39569096E+03</pdfrwt>
<pdfrwt beam="2">  1       -2 0.47370191E-02 0.39569096E+03</pdfrwt>
<totfact> 0.41519115E+03</totfact>
</mgrwt>
<rwgt>
<wgt id='morphing_basis_vector_1'> +2.5441487e-04 </wgt>
<wgt id='morphing_basis_vector_2'> +1.5938879e-04 </wgt>
<wgt id='morphing_basis_vector_3'> +1.4771930e-04 </wgt>
<wgt id='morphing_basis_vector_4'> +3.4823724e-05 </wgt>
<wgt id='morphing_basis_vector_5'> +3.3678526e-05 </wgt>
</rwgt>
</event>
<event>
 4      1 +3.1894900e-05 3.60258700e+02 7.81860800e-03 9.78167200e-02
        2 -1    0    0  501    0 +0.0000000000e+00 +0.0000000000e+00 +3.9175290301e+02 3.9175290301e+02 0.0000000000e+00 0.0000e+00 -1.0000e+00
       -2 -1    0    0    0  501 -0.0000000000e+00 -0.0000000000e+00 -8.2824082056e+01 8.2824082056e+01 0.0000000000e+00 0.0000e+00 1.0000e+00
      -13  1    1    2    0    0 -1.1000969336e+02 -1.3480707063e+02 +9.3078071555e+01 1.9732867589e+02 0.0000000000e+00 0.0000e+00 1.0000e+00
       13  1    1    2    0    0 +1.1000969336e+02 +1.3480707063e+02 +2.1585074940e+02 2.7724830917e+02 0.0000000000e+00 0.0000e+00 -1.0000e+00
<mgrwt>
<rscale>  0 0.36025865E+03</rscale>
<asrwt>0</asrwt>
<pdfrwt beam="1">  1        2 0.60269676E-01 0.36025865E+03</pdfrwt>
<pdfrwt beam="2">  1       -2 0.12742167E-01 0.36025865E+03</pdfrwt>
<totfact> 0.39703892E+03</totfact>
</mgrwt>
<rwgt>
<wgt id='morphing_basis_vector_1'> +1.9562435e-04 </wgt>
<wgt id='morphing_basis_vector_2'> +1.1071826e-04 </wgt>
<wgt id='morphing_basis_vector_3'> +1.1619809e-04 </wgt>
<wgt id='morphing_basis_vector_4'> +2.2431835e-05 </wgt>
<wgt id='morphing_basis_vector_5'> +1.4279827e-05 </wgt>
</rwgt>
</event>
<event>
 4      1 +3.1894900e-05 3.69630100e+02 7.81860800e-03 9.75062900e-02
        2 -1    0    0  501    0 +0.0000000000e+00 +0.0000000000e+00 +6.2537476593e+02 6.2537476593e+02 0.0000000000e+00 0.0000e+00 -1.0000e+00
       -2 -1    0    0    0  501 -0.0000000000e+00 -0.0000000000e+00 -5.4617800673e+01 5.4617800673e+01 0.0000000000e+00 0.0000e+00 1.0000e+00
      -13  1    1    2    0    0 -9.5431597415e+01 +1.2520885139e+02 +1.0728154196e+02 1.9050925305e+02 0.0000000000e+00 0.0000e+00 1.0000e+00
       13  1    1    2    0    0 +9.5431597415e+01 -1.2520885139e+02 +4.6347542329e+02 4.8948331356e+02 0.0000000000e+00 0.0000e+00 -1.0000e+00
<mgrwt>
<rscale>  0 0.36963005E+03</rscale>
<asrwt>0</asrwt>
<pdfrwt beam="1">  1        2 0.96211497E-01 0.36963005E+03</pdfrwt>
<pdfrwt beam="2">  1       -2 0.84027390E-02 0.36963005E+03</pdfrwt>
<totfact> 0.44878851E+03</totfact>
</mgrwt>
<rwgt>
<wgt id='morphing_basis_vector_1'> +2.0679516e-04 </wgt>
<wgt id='morphing_basis_vector_2'> +1.1286167e-04 </wgt>
<wgt id='morphing_basis_vector_3'> +1.2698085e-04 </wgt>
<wgt id='morphing_basis_vector_4'> +2.4650897e-05 </wgt>
<wgt id='morphing_basis_vector_5'> +1.8267998e-05 </wgt>
</rwgt>
</event>
<event>
 4      1 +3.1894900e-05 3.93485000e+02 7.81860800e-03 9.67587400e-02
        2 -1    0    0  501    0 +0.0000000000e+00 +0.0000000000e+00 +1.0140600608e+03 1.0140600608e+03 0.0000000000e+00 0.0000e+00 1.0000e+00
       -2 -1    0    0    0  501 -0.0000000000e+00 -0.0000000000e+00 -3.8170932691e+01 3.8170932691e+01 0.0000000000e+00 0.0000e+00 -1.0000e+00
      -13  1    1    2    0    0 -1.3801411278e+02 -1.2191036190e+02 +3.0272183307e+02 3.5433111617e+02 0.0000000000e+00 0.0000e+00 -1.0000e+00
       13  1    1    2    0    0 +1.3801411278e+02 +1.2191036190e+02 +6.7316729507e+02 6.9789987736e+02 0.0000000000e+00 0.0000e+00 1.0000e+00
<mgrwt>
<rscale>  0 0.39348504E+03</rscale>
<asrwt>0</asrwt>
<pdfrwt beam="1">  1        2 0.15600922E+00 0.39348504E+03</pdfrwt>
<pdfrwt beam="2">  1       -2 0.58724519E-02 0.39348504E+03</pdfrwt>
<totfact> 0.42229136E+03</totfact>
</mgrwt>
<rwgt>
<wgt id='morphing_basis_vector_1'> +2.4363512e-04 </wgt>
<wgt id='morphing_basis_vector_2'> +1.3543432e-04 </wgt>
<wgt id='morphing_basis_vector_3'> +1.5203719e-04 </wgt>
<wgt id='morphing_basis_vector_4'> +3.3288276e-05 </wgt>
<wgt id='morphing_basis_vector_5'> +3.1732668e-05 </wgt>
</rwgt>
</event>
<event>
 4      1 +3.1894900e-05 3.64935900e+02 7.81860800e-03 9.76605300e-02
        2 -1    0    0  501    0 +0.0000000000e+00 +0.0000000000e+00 +9.5697881780e+02 9.5697881780e+02 0.0000000000e+00 0.0000e+00 -1.0000e+00
       -2 -1    0    0    0  501 -0.0000000000e+00 -0.0000000000e+00 -3.4791314068e+01 3.4791314068e+01 0.0000000000e+00 0.0000e+00 1.0000e+00
      -13  1    1    2    0    0 -1.3467138244e+02 +5.1207350947e+01 +1.5681366159e+02 2.1295327774e+02 0.0000000000e+00 0.0000e+00 1.0000e+00
       13  1    1    2    0    0 +1.3467138244e+02 -5.1207350947e+01 +7.6537384214e+02 7.7881685412e+02 0.0000000000e+00 0.0000e+00 -1.0000e+00
<mgrwt>
<rscale>  0 0.36493589E+03</rscale>
<asrwt>0</asrwt>
<pdfrwt beam="1">  1        2 0.14722749E+00 0.36493589E+03</pdfrwt>
<pdfrwt beam="2">  1       -2 0.53525106E-02 0.36493589E+03</pdfrwt>
<totfact> 0.52536792E+03</totfact>
</mgrwt>
<rwgt>
<wgt id='morphing_basis_vector_1'> +2.0007387e-04 </wgt>
<wgt id='morphing_basis_vector_2'> +1.0862192e-04 </wgt>
<wgt id='morphing_basis_vector_3'> +1.2269751e-04 </wgt>
<wgt id='morphing_basis_vector_4'> +2.3226926e-05 </wgt>
<wgt id='morphing_basis_vector_5'> +1.6125673e-05 </wgt>
</rwgt>
</event>
<event>
 4      1 +3.1894900e-05 3.76946600e+02 7.81860800e-03 9.72707200e-02
        2 -1    0    0  501    0 +0.0000000000e+00 +0.0000000000e+00 +1.5467280872e+03 1.5467280872e+03 0.0000000000e+00 0.0000e+00 -1.0000e+00
       -2 -1    0    0    0  501 -0.0000000000e+00 -0.0000000000e+00 -2.2966017404e+01 2.2966017404e+01 0.0000000000e+00 0.0000e+00 1.0000e+00
      -13  1    1    2    0    0 -1.7991918436e+02 +9.0822463868e+00 +5.3119656063e+02 5.6091281509e+02 0.0000000000e+00 0.0000e+00 1.0000e+00
       13  1    1    2    0    0 +1.7991918436e+02 -9.0822463868e+00 +9.9256550916e+02 1.0087812895e+03 0.0000000000e+00 0.0000e+00 -1.0000e+00
<mgrwt>
<rscale>  0 0.37694660E+03</rscale>
<asrwt>0</asrwt>
<pdfrwt beam="1">  1        2 0.23795809E+00 0.37694660E+03</pdfrwt>
<pdfrwt beam="2">  1       -2 0.35332347E-02 0.37694660E+03</pdfrwt>
<totfact> 0.45527542E+03</totfact>
</mgrwt>
<rwgt>
<wgt id='morphing_basis_vector_1'> +2.1864113e-04 </wgt>
<wgt id='morphing_basis_vector_2'> +1.2272650e-04 </wgt>
<wgt id='morphing_basis_vector_3'> +1.3296298e-04 </wgt>
<wgt id='morphing_basis_vector_4'> +2.7224743e-05 </wgt>
<wgt id='morphing_basis_vector_5'> +2.1996218e-05 </wgt>
</rwgt>
</event>
<event>
 4      1 +3.1894900e-05 3.90457500e+02 7.81860800e-03 9.68504300e-02
        2 -1    0    0  501    0 +0.0000000000e+00 +0.0000000000e+00 +3.5499884879e+02 3.5499884879e+02 0.0000000000e+00 0.0000e+00 -1.0000e+00
       -2 -1    0    0    0  501 -0.0000000000e+00 -0.0000000000e+00 -1.0736448185e+02 1.0736448185e+02 0.0000000000e+00 0.0000e+00 1.0000e+00
      -13  1    1    2    0    0 +1.3257893075e+02 -1.3641879392e+02 +7.1835388413e+01 2.0334105155e+02 0.0000000000e+00 0.0000e+00 1.0000e+00
       13  1    1    2    0    0 -1.3257893075e+02 +1.3641879392e+02 +1.7579897853e+02 2.5902227910e+02 0.0000000000e+00 0.0000e+00 -1.0000e+00
<mgrwt>
<rscale>  0 0.39045751E+03</rscale>
<asrwt>0</asrwt>
<pdfrwt beam="1">  1        2 0.54615207E-01 0.39045751E+03</pdfrwt>
<pdfrwt beam="2">  1       -2 0.16517613E-01 0.39045751E+03</pdfrwt>
<totfact> 0.29356867E+03</totfact>
</mgrwt>
<rwgt>
<wgt id='morphing_basis_vector_1'> +2.4008632e-04 </wgt>
<wgt id='morphing_basis_vector_2'> +1.3668950e-04 </wgt>
<wgt id='morphing_basis_vector_3'> +1.4715955e-04 </wgt>
<wgt id='morphing_basis_vector_4'> +3.2204294e-05 </wgt>
<wgt id='morphing_basis_vector_5'> +2.9863374e-05 </wgt>
</rwgt>
</event>
<event>
 4      1 +3.1894900e-05 3.60657300e+02 7.81860800e-03 9.78033100e-02
        2 -1    0    0  501    0 +0.0000000000e+00 +0.0000000000e+00 +4.3599185104e+01 4.3599185104e+01 0.0000000000e+00 0.0000e+00 1.0000e+00
       -2 -1    0    0    0  501 -0.0000000000e+00 -0.0000000000e+00 -7.4584910243e+02 7.4584910243e+02 0.0000000000e+00 0.0000e+00 -1.0000e+00
      -13  1    1    2    0    0 +9.0936373704e+01 -6.7153781085e+01 -4.3589257688e+01 1.2115724395e+02 0.0000000000e+00 0.0000e+00 1.0000e+00
       13  1    1    2    0    0 -9.0936373704e+01 +6.7153781085e+01 -6.5866065964e+02 6.6829104358e+02 0.0000000000e+00 0.0000e+00 -1.0000e+00
<mgrwt>
<rscale>  0 0.36065725E+03</rscale>
<asrwt>0</asrwt>
<pdfrwt beam="1">  1        2 0.67075674E-02 0.36065725E+03</pdfrwt>
<pdfrwt beam="2">  1       -2 0.11474601E+00 0.36065725E+03</pdfrwt>
<totfact> 0.84637418E+02</totfact>
</mgrwt>
<rwgt>
<wgt id='morphing_basis_vector_1'> +2.5320249e-04 </wgt>
<wgt id='morphing_basis_vector_2'> +2.8238518e-04 </wgt>
<wgt id='morphing_basis_vector_3'> +5.0009598e-05 </wgt>
<wgt id='morphing_basis_vector_4'> +3.7310537e-05 </wgt>
<wgt id='morphing_basis_vector_5'> +1.8125903e-05 </wgt>
</rwgt>
</event>
<event>
 4      1 +3.1894900e-05 4.13583200e+02 7.81860800e-03 9.61715800e-02
        2 -1    0    0  501    0 +0.0000000000e+00 +0.0000000000e+00 +4.1006656152e+02 4.1006656152e+02 0.0000000000e+00 0.0000e+00 -1.0000e+00
       -2 -1    0    0    0  501 -0.0000000000e+00 -0.0000000000e+00 -1.0428248598e+02 1.0428248598e+02 0.0000000000e+00 0.0000e+00 1.0000e+00
      -13  1    1    2    0    0 -7.8733363747e+01 +2.8065629169e+01 -8.2337474842e+01 1.1732894728e+02 0.0000000000e+00 0.0000e+00 1.0000e+00
       13  1    1    2    0    0 +7.8733363747e+01 -2.8065629169e+01 +3.8812155038e+02 3.9702010022e+02 0.0000000000e+00 0.0000e+00 -1.0000e+00
<mgrwt>
<rscale>  0 0.41358317E+03</rscale>
<asrwt>0</asrwt>
<pdfrwt beam="1">  1        2 0.63087162E-01 0.41358317E+03</pdfrwt>
<pdfrwt beam="2">  1       -2 0.16043460E-01 0.41358317E+03</pdfrwt>
<totfact> 0.26242041E+03</totfact>
</mgrwt>
<rwgt>
<wgt id='morphing_basis_vector_1'> +2.7595553e-04 </wgt>
<wgt id='morphing_basis_vector_2'> +1.4832219e-04 </wgt>
<wgt id='morphing_basis_vector_3'> +1.7978866e-04 </wgt>
<wgt id='morphing_basis_vector_4'> +4.2709221e-05 </wgt>
<wgt id='morphing_basis_vector_5'> +4.6622801e-05 </wgt>
</rwgt>
</event>
<event>
 4      1 +3.1894900e-05 3.66309900e+02 7.81860800e-03 9.76151200e-02
        2 -1    0    0  501    0 +0.0000000000e+00 +0.0000000000e+00 +4.3852966763e+02 4.3852966763e+02 0.0000000000e+00 0.0000e+00 -1.0000e+00
       -2 -1    0    0    0  501 -0.0000000000e+00 -0.0000000000e+00 -7.6495914655e+01 7.6495914655e+01 0.0000000000e+00 0.0000e+00 1.0000e+00
      -13  1    1    2    0    0 +1.1233653955e+02 -3.8848984548e+01 -1.4899665875e+01 1.1979458152e+02 0.0000000000e+00 0.0000e+00 1.0000e+00
       13  1    1    2    0    0 -1.1233653955e+02 +3.8848984548e+01 +3.7693341885e+02 3.9523100077e+02 0.0000000000e+00 0.0000e+00 -1.0000e+00
<mgrwt>
<rscale>  0 0.36630986E+03</rscale>
<asrwt>0</asrwt>
<pdfrwt beam="1">  1        2 0.67466101E-01 0.36630986E+03</pdfrwt>
<pdfrwt beam="2">  1       -2 0.11768603E-01 0.36630986E+03</pdfrwt>
<totfact> 0.39721132E+03</totfact>
</mgrwt>
<rwgt>
<wgt id='morphing_basis_vector_1'> +2.0168176e-04 </wgt>
<wgt id='morphing_basis_vector_2'> +1.0882516e-04 </wgt>
<wgt id='morphing_basis_vector_3'> +1.2431836e-04 </wgt>
<wgt id='morphing_basis_vector_4'> +2.3556138e-05 </wgt>
<wgt id='morphing_basis_vector_5'> +1.6714097e-05 </wgt>
</rwgt>
</event>
<event>
 4      1 +3.1894900e-05 4.07426400e+02 7.81860800e-03 9.63476000e-02
        2 -1    0    0  501    0 +0.0000000000e+00 +0.0000000000e+00 +7.7127282236e+02 7.7127282236e+02 0.0000000000e+00 0.0000e+00 -1.0000e+00
       -2 -1    0    0    0  501 -0.0000000000e+00 -0.0000000000e+00 -5.3805959232e+01 5.3805959232e+01 0.0000000000e+00 0.0000e+00 1.0000e+00
      -13  1    1    2    0    0 +1.9471380546e+02 +3.7268480568e+01 +2.6381982709e+02 3.3000501034e+02 0.0000000000e+00 0.0000e+00 1.0000e+00
       13  1    1    2    0    0 -1.9471380546e+02 -3.7268480568e+01 +4.5364703604e+02 4.9507377126e+02 0.0000000000e+00 0.0000e+00 -1.0000e+00
<mgrwt>
<rscale>  0 0.40742643E+03</rscale>
<asrwt>0</asrwt>
<pdfrwt beam="1">  1        2 0.11865735E+00 0.40742643E+03</pdfrwt>
<pdfrwt beam="2">  1       -2 0.82778404E-02 0.40742643E+03</pdfrwt>
<totfact> 0.35821202E+03</totfact>
</mgrwt>
<rwgt>
<wgt id='morphing_basis_vector_1'> +2.6850670e-04 </wgt>
<wgt id='morphing_basis_vector_2'> +1.5292505e-04 </wgt>
<wgt id='morphing_basis_vector_3'> +1.6832767e-04 </wgt>
<wgt id='morphing_basis_vector_4'> +3.9615077e-05 </wgt>
<wgt id='morphing_basis_vector_5'> +4.1854904e-05 </wgt>
</rwgt>
</event>
<event>
 4      1 +3.1894900e-05 3.91554500e+02 7.81860800e-03 9.68171000e-02
        2 -1    0    0  501    0 +0.0000000000e+00 +0.0000000000e+00 +6.9378471614e+02 6.9378471614e+02 0.0000000000e+00 0.0000e+00 1.0000e+00
       -2 -1    0    0    0  501 -0.0000000000e+00 -0.0000000000e+00 -5.5245865432e+01 5.5245865432e+01 0.0000000000e+00 0.0000e+00 -1.0000e+00
      -13  1    1    2    0    0 +6.1985384350e+01 -1.2349324572e+02 +5.3952890902e+01 1.4833638815e+02 0.0000000000e+00 0.0000e+00 -1.0000e+00
       13  1    1    2    0    0 -6.1985384350e+01 +1.2349324572e+02 +5.8458595980e+02 6.0069419342e+02 0.0000000000e+00 0.0000e+00 1.0000e+00
<mgrwt>
<rscale>  0 0.39155453E+03</rscale>
<asrwt>0</asrwt>
<pdfrwt beam="1">  1        2 0.10673610E+00 0.39155453E+03</pdfrwt>
<pdfrwt beam="2">  1       -2 0.84993644E-02 0.39155453E+03</pdfrwt>
<totfact> 0.39082548E+03</totfact>
</mgrwt>
<rwgt>
<wgt id='morphing_basis_vector_1'> +2.3893756e-04 </wgt>
<wgt id='morphing_basis_vector_2'> +1.2884073e-04 </wgt>
<wgt id='morphing_basis_vector_3'> +1.5133140e-04 </wgt>
<wgt id='morphing_basis_vector_4'> +3.2331397e-05 </wgt>
<wgt id='morphing_basis_vector_5'> +3.0371869e-05 </wgt>
</rwgt>
</event>
<event>
 4      1 +3.1894900e-05 3.86056200e+02 7.81860800e-03 9.69853200e-02
        2 -1    0    0  501    0 +0.0000000000e+00 +0.0000000000e+00 +7.4686520570e+02 7.4686520570e+02 0.0000000000e+00 0.0000e+00 -1.0000e+00
       -2 -1    0    0    0  501 -0.0000000000e+00 -0.0000000000e+00 -4.9888320431e+01 4.9888320431e+01 0.0000000000e+00 0.0000e+00 1.0000e+00
      -13  1    1    2    0    0 -8.8984613575e+01 -7.7818568903e+01 +3.3554419985e+01 1.2288161058e+02 0.0000000000e+00 0.0000e+00 1.0000e+00
       13  1    1    2    0    0 +8.8984613575e+01 +7.7818568903e+01 +6.6342246529e+02 6.7387191555e+02 0.0000000000e+00 0.0000e+00 -1.0000e+00
<mgrwt>
<rscale>  0 0.38605622E+03</rscale>
<asrwt>0</asrwt>
<pdfrwt beam="1">  1        2 0.11490233E+00 0.38605622E+03</pdfrwt>
<pdfrwt beam="2">  1       -2 0.76751268E-02 0.38605622E+03</pdfrwt>
<totfact> 0.41804243E+03</totfact>
</mgrwt>
<rwgt>
<wgt id='morphing_basis_vector_1'> +2.3023493e-04 </wgt>
<wgt id='morphing_basis_vector_2'> +1.2386340e-04 </wgt>
<wgt id='morphing_basis_vector_3'> +1.4509720e-04 </wgt>
<wgt id='morphing_basis_vector_4'> +3.0138759e-05 </wgt>
<wgt id='morphing_basis_vector_5'> +2.6962009e-05 </wgt>
</rwgt>
</event>
<event>
 4      1 +3.1894900e-05 4.21730200e+02 7.81860800e-03 9.59435800e-02
        2 -1    0    0  501    0 +0.0000000000e+00 +0.0000000000e+00 +3.6724233917e+02 3.6724233917e+02 0.0000000000e+00 0.0000e+00 -1.0000e+00
       -2 -1    0    0    0  501 -0.0000000000e+00 -0.0000000000e+00 -1.2107563683e+02 1.2107563683e+02 0.0000000000e+00 0.0000e+00 1.0000e+00
      -13  1    1    2    0    0 +1.4216154550e+02 -1.2729952626e+02 +1.9201514566e+01 1.9179096060e+02 0.0000000000e+00 0.0000e+00 1.0000e+00
       13  1    1    2    0    0 -1.4216154550e+02 +1.2729952626e+02 +2.2696518777e+02 2.9652701541e+02 0.0000000000e+00 0.0000e+00 -1.0000e+00
<mgrwt>
<rscale>  0 0.42173025E+03</rscale>
<asrwt>0</asrwt>
<pdfrwt beam="1">  1        2 0.56498821E-01 0.42173025E+03</pdfrwt>
<pdfrwt beam="2">  1       -2 0.18627021E-01 0.42173025E+03</pdfrwt>
<totfact> 0.23296667E+03</totfact>
</mgrwt>
<rwgt>
<wgt id='morphing_basis_vector_1'> +2.9256345e-04 </wgt>
<wgt id='morphing_basis_vector_2'> +1.6147358e-04 </wgt>
<wgt id='morphing_basis_vector_3'> +1.9009697e-04 </wgt>
<wgt id='morphing_basis_vector_4'> +4.7208874e-05 </wgt>
<wgt id='morphing_basis_vector_5'> +5.3885676e-05 </wgt>
</rwgt>
</event>
<event>
 4      1 +3.1894900e-05 3.68966200e+02 7.81860800e-03 9.75279500e-02
        2 -1    0    0  501    0 +0.0000000000e+00 +0.0000000000e+00 +9.7899570957e+02 9.7899570957e+02 0.0000000000e+00 0.0000e+00 1.0000e+00
       -2 -1    0    0    0  501 -0.0000000000e+00 -0.0000000000e+00 -3.4764204715e+01 3.4764204715e+01 0.0000000000e+00 0.0000e+00 -1.0000e+00
      -13  1    1    2    0    0 -1.0889237200e+02 +1.4875866232e+02 +4.9101594390e+02 5.2448388484e+02 0.0000000000e+00 0.0000e+00 -1.0000e+00
       13  1    1    2    0    0 +1.0889237200e+02 -1.4875866232e+02 +4.5321556096e+02 4.8927602944e+02 0.0000000000e+00 0.0000e+00 1.0000e+00
<mgrwt>
<rscale>  0 0.36896616E+03</rscale>
<asrwt>0</asrwt>
<pdfrwt beam="1">  1        2 0.15061470E+00 0.36896616E+03</pdfrwt>
<pdfrwt beam="2">  1       -2 0.53483399E-02 0.36896616E+03</pdfrwt>
<totfact> 0.51005142E+03</totfact>
</mgrwt>
<rwgt>
<wgt id='morphing_basis_vector_1'> +2.1239835e-04 </wgt>
<wgt id='morphing_basis_vector_2'> +1.3206441e-04 </wgt>
<wgt id='morphing_basis_vector_3'> +1.1900747e-04 </wgt>
<wgt id='morphing_basis_vector_4'> +2.5874802e-05 </wgt>
<wgt id='morphing_basis_vector_5'> +1.8385978e-05 </wgt>
</rwgt>
</event>
<event>
 4      1 +3.1894900e-05 3.75572200e+02 7.81860800e-03 9.73145300e-02
        2 -1    0    0  501    0 +0.0000000000e+00 +0.0000000000e+00 +3.6336368769e+02 3.6336368769e+02 0.0000000000e+00 0.0000e+00 -1.0000e+00
       -2 -1    0    0    0  501 -0.0000000000e+00 -0.0000000000e+00 -9.7047747117e+01 9.7047747117e+01 0.0000000000e+00 0.0000e+00 1.0000e+00
      -13  1    1    2    0    0 +1.5707883715e+01 +9.5217365410e+01 -6.4323266774e+01 1.1597657925e+02 0.0000000000e+00 0.0000e+00 1.0000e+00
       13  1    1    2    0    0 -1.5707883715e+01 -9.5217365410e+01 +3.3063920734e+02 3.4443485555e+02 0.0000000000e+00 0.0000e+00 -1.0000e+00
<mgrwt>
<rscale>  0 0.37557224E+03</rscale>
<asrwt>0</asrwt>
<pdfrwt beam="1">  1        2 0.55902105E-01 0.37557224E+03</pdfrwt>
<pdfrwt beam="2">  1       -2 0.14930423E-01 0.37557224E+03</pdfrwt>
<totfact> 0.33605595E+03</totfact>
</mgrwt>
<rwgt>
<wgt id='morphing_basis_vector_1'> +2.1457955e-04 </wgt>
<wgt id='morphing_basis_vector_2'> +1.1539718e-04 </wgt>
<wgt id='morphing_basis_vector_3'> +1.3374888e-04 </wgt>
<wgt id='morphing_basis_vector_4'> +2.6396615e-05 </wgt>
<wgt id='morphing_basis_vector_5'> +2.1146180e-05 </wgt>
</rwgt>
</event>
<event>
 4      1 +3.1894900e-05 3.60138700e+02 7.81860800e-03 9.78207600e-02
        2 -1    0    0  501    0 +0.0000000000e+00 +0.0000000000e+00 +8.6279486837e+02 8.6279486837e+02 0.0000000000e+00 0.0000e+00 -1.0000e+00
       -2 -1    0    0    0  501 -0.0000000000e+00 -0.0000000000e+00 -3.7581325423e+01 3.7581325423e+01 0.0000000000e+00 0.0000e+00 1.0000e+00
      -13  1    1    2    0    0 +2.8378789067e+01 +1.4984809367e+02 +6.5195179219e+02 6.6955279567e+02 0.0000000000e+00 0.0000e+00 1.0000e+00
       13  1    1    2    0    0 -2.8378789067e+01 -1.4984809367e+02 +1.7326175075e+02 2.3082339812e+02 0.0000000000e+00 0.0000e+00 -1.0000e+00
<mgrwt>
<rscale>  0 0.36013872E+03</rscale>
<asrwt>0</asrwt>
<pdfrwt beam="1">  1        2 0.13273766E+00 0.36013872E+03</pdfrwt>
<pdfrwt beam="2">  1       -2 0.57817430E-02 0.36013872E+03</pdfrwt>
<totfact> 0.53596637E+03</totfact>
</mgrwt>
<rwgt>
<wgt id='morphing_basis_vector_1'> +2.2765922e-04 </wgt>
<wgt id='morphing_basis_vector_2'> +2.0731428e-04 </wgt>
<wgt id='morphing_basis_vector_3'> +7.8436466e-05 </wgt>
<wgt id='morphing_basis_vector_4'> +3.0822783e-05 </wgt>
<wgt id='morphing_basis_vector_5'> +1.6307999e-05 </wgt>
</rwgt>
</event>
<event>
 4      1 +3.1894900e-05 4.27541400e+02 7.81860800e-03 9.57842700e-02
        2 -1    0    0  501    0 +0.0000000000e+00 +0.0000000000e+00 +6.0411806351e+02 6.0411806351e+02 0.0000000000e+00 0.0000e+00 1.0000e+00
       -2 -1    0    0    0  501 -0.0000000000e+00 -0.0000000000e+00 -7.5644020704e+01 7.5644020704e+01 0.0000000000e+00 0.0000e+00 -1.0000e+00
      -13  1    1    2    0    0 +8.5990279928e+01 -6.3619496071e+01 +5.5850838976e+02 5.6865929163e+02 0.0000000000e+00 0.0000e+00 1.0000e+00
       13  1    1    2    0    0 -8.5990279928e+01 +6.3619496071e+01 -3.0034346957e+01 1.1110279258e+02 0.0000000000e+00 0.0000e+00 -1.0000e+00
<mgrwt>
<rscale>  0 0.42754143E+03</rscale>
<asrwt>0</asrwt>
<pdfrwt beam="1">  1        2 0.92941237E-01 0.42754143E+03</pdfrwt>
<pdfrwt beam="2">  1       -2 0.11637542E-01 0.42754143E+03</pdfrwt>
<totfact> 0.28259047E+03</totfact>
</mgrwt>
<rwgt>
<wgt id='morphing_basis_vector_1'> +4.0438044e-04 </wgt>
<wgt id='morphing_basis_vector_2'> +4.7759876e-04 </wgt>
<wgt id='morphing_basis_vector_3'> +1.1915663e-04 </wgt>
<wgt id='morphing_basis_vector_4'> +4.3487622e-05 </wgt>
<wgt id='morphing_basis_vector_5'> +6.5542881e-05 </wgt>
</rwgt>
</event>
<event>
 4      1 +3.1894900e-05 3.99195600e+02 7.81860800e-03 9.65881700e-02
        2 -1    0    0  501    0 +0.0000000000e+00 +0.0000000000e+00 +5.7061449364e+01 5.7061449364e+01 0.0000000000e+00 0.0000e+00 -1.0000e+00
       -2 -1    0    0    0  501 -0.0000000000e+00 -0.0000000000e+00 -6.9818206407e+02 6.9818206407e+02 0.0000000000e+00 0.0000e+00 1.0000e+00
      -13  1    1    2    0    0 +1.6258827880e+02 +4.2738493046e+01 -5.2413013590e+02 5.5043067369e+02 0.0000000000e+00 0.0000e+00 1.0000e+00
       13  1    1    2    0    0 -1.6258827880e+02 -4.2738493046e+01 -1.1699047881e+02 2.0481283974e+02 0.0000000000e+00 0.0000e+00 -1.0000e+00
<mgrwt>
<rscale>  0 0.39919559E+03</rscale>
<asrwt>0</asrwt>
<pdfrwt beam="1">  1        2 0.87786840E-02 0.39919559E+03</pdfrwt>
<pdfrwt beam="2">  1       -2 0.10741263E+00 0.39919559E+03</pdfrwt>
<totfact> 0.70413297E+02</totfact>
</mgrwt>
<rwgt>
<wgt id='morphing_basis_vector_1'> +2.5184990e-04 </wgt>
<wgt id='morphing_basis_vector_2'> +1.3711841e-04 </wgt>
<wgt id='morphing_basis_vector_3'> +1.6012199e-04 </wgt>
<wgt id='morphing_basis_vector_4'> +3.5657471e-05 </wgt>
<wgt id='morphing_basis_vector_5'> +3.5557381e-05 </wgt>
</rwgt>
</event>
<event>
 4      1 +3.1894900e-05 3.72971300e+02 7.81860800e-03 9.73979900e-02
        2 -1    0    0  501    0 +0.0000000000e+00 +0.0000000000e+00 +7.2534830869e+02 7.2534830869e+02 0.0000000000e+00 0.0000e+00 1.0000e+00
       -2 -1    0    0    0  501 -0.0000000000e+00 -0.0000000000e+00 -4.7945110364e+01 4.7945110364e+01 0.0000000000e+00 0.0000e+00 -1.0000e+00
      -13  1    1    2    0    0 +3.7085853646e+01 +1.8059518274e+02 +2.8054014046e+02 3.3569740985e+02 0.0000000000e+00 0.0000e+00 1.0000e+00
       13  1    1    2    0    0 -3.7085853646e+01 -1.8059518274e+02 +3.9686305787e+02 4.3759600920e+02 0.0000000000e+00 0.0000e+00 -1.0000e+00
<mgrwt>
<rscale>  0 0.37297134E+03</rscale>
<asrwt>0</asrwt>
<pdfrwt beam="1">  1        2 0.11159204E+00 0.37297134E+03</pdfrwt>
<pdfrwt beam="2">  1       -2 0.73761714E-02 0.37297134E+03</pdfrwt>
<totfact> 0.45989644E+03</totfact>
</mgrwt>
<rwgt>
<wgt id='morphing_basis_vector_1'> +2.1449419e-04 </wgt>
<wgt id='morphing_basis_vector_2'> +1.2442181e-04 </wgt>
<wgt id='morphing_basis_vector_3'> +1.2706807e-04 </wgt>
<wgt id='morphing_basis_vector_4'> +2.6272651e-05 </wgt>
<wgt id='morphing_basis_vector_5'> +2.0075416e-05 </wgt>
</rwgt>
</event>
<event>
 4      1 +3.1894900e-05 3.84653300e+02 7.81860800e-03 9.70287200e-02
        2 -1    0    0  501    0 +0.0000000000e+00 +0.0000000000e+00 +2.9026924322e+02 2.9026924322e+02 0.0000000000e+00 0.0000e+00 -1.0000e+00
       -2 -1    0    0    0  501 -0.0000000000e+00 -0.0000000000e+00 -1.2743179801e+02 1.2743179801e+02 0.0000000000e+00 0.0000e+00 1.0000e+00
      -13  1    1    2    0    0 -3.5097483756e+01 -1.2832067597e+02 -6.9408304612e+01 1.5005179771e+02 0.0000000000e+00 0.0000e+00 1.0000e+00
       13  1    1    2    0    0 +3.5097483756e+01 +1.2832067597e+02 +2.3224574982e+02 2.6764924352e+02 0.0000000000e+00 0.0000e+00 -1.0000e+00
<mgrwt>
<rscale>  0 0.38465325E+03</rscale>
<asrwt>0</asrwt>
<pdfrwt beam="1">  1        2 0.44656807E-01 0.38465325E+03</pdfrwt>
<pdfrwt beam="2">  1       -2 0.19604892E-01 0.38465325E+03</pdfrwt>
<totfact> 0.27749989E+03</totfact>
</mgrwt>
<rwgt>
<wgt id='morphing_basis_vector_1'> +2.2818576e-04 </wgt>
<wgt id='morphing_basis_vector_2'> +1.2300747e-04 </wgt>
<wgt id='morphing_basis_vector_3'> +1.4341840e-04 </wgt>
<wgt id='morphing_basis_vector_4'> +2.9620923e-05 </wgt>
<wgt id='morphing_basis_vector_5'> +2.6140035e-05 </wgt>
</rwgt>
</event>
<event>
 4      1 +3.1894900e-05 3.77631700e+02 7.81860800e-03 9.72489600e-02
        2 -1    0    0  501    0 +0.0000000000e+00 +0.0000000000e+00 +1.0606717907e+02 1.0606717907e+02 0.0000000000e+00 0.0000e+00 1.0000e+00
       -2 -1    0    0    0  501 -0.0000000000e+00 -0.0000000000e+00 -3.3612109311e+02 3.3612109311e+02 0.0000000000e+00 0.0000e+00 -1.0000e+00
      -13  1    1    2    0    0 -8.0041540634e+00 +1.0661413681e+02 -2.9726240287e+02 3.1590437922e+02 0.0000000000e+00 0.0000e+00 -1.0000e+00
       13  1    1    2    0    0 +8.0041540634e+00 -1.0661413681e+02 +6.7208488832e+01 1.2628389296e+02 0.0000000000e+00 0.0000e+00 1.0000e+00
<mgrwt>
<rscale>  0 0.37763165E+03</rscale>
<asrwt>0</asrwt>
<pdfrwt beam="1">  1        2 0.16318028E-01 0.37763165E+03</pdfrwt>
<pdfrwt beam="2">  1       -2 0.51710937E-01 0.37763165E+03</pdfrwt>
<totfact> 0.15932434E+03</totfact>
</mgrwt>
<rwgt>
<wgt id='morphing_basis_vector_1'> +2.1759126e-04 </wgt>
<wgt id='morphing_basis_vector_2'> +1.1705267e-04 </wgt>
<wgt id='morphing_basis_vector_3'> +1.3589118e-04 </wgt>
<wgt id='morphing_basis_vector_4'> +2.7091842e-05 </wgt>
<wgt id='morphing_basis_vector_5'> +2.2221729e-05 </wgt>
</rwgt>
</event>
<event>
 4      1 +3.1894900e-05 4.16227400e+02 7.81860800e-03 9.60969700e-02
        2 -1    0    0  501    0 +0.0000000000e+00 +0.0000000000e+00 +1.8124949936e+02 1.8124949936e+02 0.0000000000e+00 0.0000e+00 -1.0000e+00
       -2 -1    0    0    0  501 -0.0000000000e+00 -0.0000000000e+00 -2.3895967243e+02 2.3895967243e+02 0.0000000000e+00 0.0000e+00 1.0000e+00
      -13  1    1    2    0    0 +1.2315388859e+02 -5.8045286348e+01 -1.8776217622e+02 2.3192837334e+02 0.0000000000e+00 0.0000e+00 1.0000e+00
       13  1    1    2    0    0 -1.2315388859e+02 +5.8045286348e+01 +1.3005200315e+02 1.8828079845e+02 0.0000000000e+00 0.0000e+00 -1.0000e+00
<mgrwt>
<rscale>  0 0.41622744E+03</rscale>
<asrwt>0</asrwt>
<pdfrwt beam="1">  1        2 0.27884538E-01 0.41622744E+03</pdfrwt>
<pdfrwt beam="2">  1       -2 0.36763026E-01 0.41622744E+03</pdfrwt>
<totfact> 0.16086792E+03</totfact>
</mgrwt>
<rwgt>
<wgt id='morphing_basis_vector_1'> +2.8091819e-04 </wgt>
<wgt id='morphing_basis_vector_2'> +1.5145977e-04 </wgt>
<wgt id='morphing_basis_vector_3'> +1.8334644e-04 </wgt>
<wgt id='morphing_basis_vector_4'> +4.4144622e-05 </wgt>
<wgt id='morphing_basis_vector_5'> +4.8887179e-05 </wgt>
</rwgt>
</event>
<event>
 4      1 +3.1894900e-05 4.03272200e+02 7.81860800e-03 9.64682600e-02
        2 -1    0    0  501    0 +0.0000000000e+00 +0.0000000000e+00 +1.1865888998e+02 1.1865888998e+02 0.0000000000e+00 0.0000e+00 -1.0000e+00
       -2 -1    0    0    0  501 -0.0000000000e+00 -0.0000000000e+00 -3.4263856777e+02 3.4263856777e+02 0.0000000000e+00 0.0000e+00 1.0000e+00
      -13  1    1    2    0    0 -6.5853994423e+01 +1.5107197210e+02 -2.4488569682e+02 2.9517536118e+02 0.0000000000e+00 0.0000e+00 1.0000e+00
       13  1    1    2    0    0 +6.5853994423e+01 -1.5107197210e+02 +2.0906019038e+01 1.6612209657e+02 0.0000000000e+00 0.0000e+00 -1.0000e+00
<mgrwt>
<rscale>  0 0.40327218E+03</rscale>
<asrwt>0</asrwt>
<pdfrwt beam="1">  1        2 0.18255214E-01 0.40327218E+03</pdfrwt>
<pdfrwt beam="2">  1       -2 0.52713625E-01 0.40327218E+03</pdfrwt>
<totfact> 0.13421565E+03</totfact>
</mgrwt>
<rwgt>
<wgt id='morphing_basis_vector_1'> +2.5855560e-04 </wgt>
<wgt id='morphing_basis_vector_2'> +1.4042010e-04 </wgt>
<wgt id='morphing_basis_vector_3'> +1.6543052e-04 </wgt>
<wgt id='morphing_basis_vector_4'> +3.7527686e-05 </wgt>
<wgt id='morphing_basis_vector_5'> +3.8505753e-05 </wgt>
</rwgt>
</event>
<event>
 4      1 +3.1894900e-05 4.13317200e+02 7.81860800e-03 9.61791200e-02
        2 -1    0    0  501    0 +0.0000000000e+00 +0.0000000000e+00 +1.6653041044e+03 1.6653041044e+03 0.0000000000e+00 0.0000e+00 -1.0000e+00
       -2 -1    0    0    0  501 -0.0000000000e+00 -0.0000000000e+00 -2.5645629263e+01 2.5645629263e+01 0.0000000000e+00 0.0000e+00 1.0000e+00
      -13  1    1    2    0    0 +3.2988201642e+00 -2.0159614344e+02 +1.0053303815e+03 1.0253492397e+03 0.0000000000e+00 0.0000e+00 1.0000e+00
       13  1    1    2    0    0 -3.2988201642e+00 +2.0159614344e+02 +6.3432809365e+02 6.6560049403e+02 0.0000000000e+00 0.0000e+00 -1.0000e+00
<mgrwt>
<rscale>  0 0.41331717E+03</rscale>
<asrwt>0</asrwt>
<pdfrwt beam="1">  1        2 0.25620055E+00 0.41331717E+03</pdfrwt>
<pdfrwt beam="2">  1       -2 0.39454827E-02 0.41331717E+03</pdfrwt>
<totfact> 0.33353076E+03</totfact>
</mgrwt>
<rwgt>
<wgt id='morphing_basis_vector_1'> +2.9430431e-04 </wgt>
<wgt id='morphing_basis_vector_2'> +2.0582750e-04 </wgt>
<wgt id='morphing_basis_vector_3'> +1.6302534e-04 </wgt>
<wgt id='morphing_basis_vector_4'> +4.2525423e-05 </wgt>
<wgt id='morphing_basis_vector_5'> +4.7597437e-05 </wgt>
</rwgt>
</event>
<event>
 4      1 +3.1894900e-05 3.69428900e+02 7.81860800e-03 9.75128400e-02
        2 -1    0    0  501    0 +0.0000000000e+00 +0.0000000000e+00 +1.3916876834e+03 1.3916876834e+03 0.0000000000e+00 0.0000e+00 1.0000e+00
       -2 -1    0    0    0  501 -0.0000000000e+00 -0.0000000000e+00 -2.4516582432e+01 2.4516582432e+01 0.0000000000e+00 0.0000e+00 -1.0000e+00
      -13  1    1    2    0    0 -5.0213082194e+01 -1.7374588468e+02 +5.3961544793e+02 5.6911669955e+02 0.0000000000e+00 0.0000e+00 -1.0000e+00
       13  1    1    2    0    0 +5.0213082194e+01 +1.7374588468e+02 +8.2755565300e+02 8.4708756624e+02 0.0000000000e+00 0.0000e+00 1.0000e+00
<mgrwt>
<rscale>  0 0.36942889E+03</rscale>
<asrwt>0</asrwt>
<pdfrwt beam="1">  1        2 0.21410574E+00 0.36942889E+03</pdfrwt>
<pdfrwt beam="2">  1       -2 0.37717830E-02 0.36942889E+03</pdfrwt>
<totfact> 0.50092246E+03</totfact>
</mgrwt>
<rwgt>
<wgt id='morphing_basis_vector_1'> +2.0875076e-04 </wgt>
<wgt id='morphing_basis_vector_2'> +1.1946065e-04 </wgt>
<wgt id='morphing_basis_vector_3'> +1.2428095e-04 </wgt>
<wgt id='morphing_basis_vector_4'> +2.5072662e-05 </wgt>
<wgt id='morphing_basis_vector_5'> +1.8320434e-05 </wgt>
</rwgt>
</event>
<event>
 4      1 +3.1894900e-05 3.68815200e+02 7.81860800e-03 9.75328800e-02
        2 -1    0    0  501    0 +0.0000000000e+00 +0.0000000000e+00 +4.3809725080e+02 4.3809725080e+02 0.0000000000e+00 0.0000e+00 1.0000e+00
       -2 -1    0    0    0  501 -0.0000000000e+00 -0.0000000000e+00 -7.7622404830e+01 7.7622404830e+01 0.0000000000e+00 0.0000e+00 -1.0000e+00
      -13  1    1    2    0    0 +1.2867681120e+02 -1.3170096407e+02 +1.9444917560e+02 2.6779347932e+02 0.0000000000e+00 0.0000e+00 1.0000e+00
       13  1    1    2    0    0 -1.2867681120e+02 +1.3170096407e+02 +1.6602567037e+02 2.4792617631e+02 0.0000000000e+00 0.0000e+00 -1.0000e+00
<mgrwt>
<rscale>  0 0.36881520E+03</rscale>
<asrwt>0</asrwt>
<pdfrwt beam="1">  1        2 0.67399575E-01 0.36881520E+03</pdfrwt>
<pdfrwt beam="2">  1       -2 0.11941909E-01 0.36881520E+03</pdfrwt>
<totfact> 0.38871669E+03</totfact>
</mgrwt>
<rwgt>
<wgt id='morphing_basis_vector_1'> +2.1265749e-04 </wgt>
<wgt id='morphing_basis_vector_2'> +1.3336544e-04 </wgt>
<wgt id='morphing_basis_vector_3'> +1.1832687e-04 </wgt>
<wgt id='morphing_basis_vector_4'> +2.5937342e-05 </wgt>
<wgt id='morphing_basis_vector_5'> +1.8346543e-05 </wgt>
</rwgt>
</event>
<event>
 4      1 +3.1894900e-05 4.10557700e+02 7.81860800e-03 9.62576700e-02
        2 -1    0    0  501    0 +0.0000000000e+00 +0.0000000000e+00 +1.3099861040e+03 1.3099861040e+03 0.0000000000e+00 0.0000e+00 1.0000e+00
       -2 -1    0    0    0  501 -0.0000000000e+00 -0.0000000000e+00 -3.2167823173e+01 3.2167823173e+01 0.0000000000e+00 0.0000e+00 -1.0000e+00
      -13  1    1    2    0    0 -1.8139569682e+02 -5.3206614654e+01 +9.0052002034e+02 9.2014762386e+02 0.0000000000e+00 0.0000e+00 1.0000e+00
       13  1    1    2    0    0 +1.8139569682e+02 +5.3206614654e+01 +3.7729826046e+02 4.2200630329e+02 0.0000000000e+00 0.0000e+00 -1.0000e+00
<mgrwt>
<rscale>  0 0.41055768E+03</rscale>
<asrwt>0</asrwt>
<pdfrwt beam="1">  1        2 0.20153628E+00 0.41055768E+03</pdfrwt>
<pdfrwt beam="2">  1       -2 0.49488969E-02 0.41055768E+03</pdfrwt>
<totfact> 0.37010144E+03</totfact>
</mgrwt>
<rwgt>
<wgt id='morphing_basis_vector_1'> +3.0285142e-04 </wgt>
<wgt id='morphing_basis_vector_2'> +2.4438973e-04 </wgt>
<wgt id='morphing_basis_vector_3'> +1.4701624e-04 </wgt>
<wgt id='morphing_basis_vector_4'> +4.1481875e-05 </wgt>
<wgt id='morphing_basis_vector_5'> +4.6193887e-05 </wgt>
</rwgt>
</event>
<event>
 4      1 +3.1894900e-05 3.63491600e+02 7.81860800e-03 9.77084900e-02
        2 -1    0    0  501    0 +0.0000000000e+00 +0.0000000000e+00 +1.3251943760e+02 1.3251943760e+02 0.0000000000e+00 0.0000e+00 -1.0000e+00
       -2 -1    0    0    0  501 -0.0000000000e+00 -0.0000000000e+00 -2.4925801918e+02 2.4925801918e+02 0.0000000000e+00 0.0000e+00 1.0000e+00
      -13  1    1    2    0    0 +1.4077829391e+02 -1.0136775385e+02 -1.1529533339e+02 2.0829537551e+02 0.0000000000e+00 0.0000e+00 1.0000e+00
       13  1    1    2    0    0 -1.4077829391e+02 +1.0136775385e+02 -1.4432481874e+00 1.7348208127e+02 0.0000000000e+00 0.0000e+00 -1.0000e+00
<mgrwt>
<rscale>  0 0.36349158E+03</rscale>
<asrwt>0</asrwt>
<pdfrwt beam="1">  1        2 0.20387606E-01 0.36349158E+03</pdfrwt>
<pdfrwt beam="2">  1       -2 0.38347387E-01 0.36349158E+03</pdfrwt>
<totfact> 0.21405506E+03</totfact>
</mgrwt>
<rwgt>
<wgt id='morphing_basis_vector_1'> +1.9962561e-04 </wgt>
<wgt id='morphing_basis_vector_2'> +1.1210344e-04 </wgt>
<wgt id='morphing_basis_vector_3'> +1.1959506e-04 </wgt>
<wgt id='morphing_basis_vector_4'> +2.3193890e-05 </wgt>
<wgt id='morphing_basis_vector_5'> +1.5601055e-05 </wgt>
</rwgt>
</event>
<event>
 4      1 +3.1894900e-05 3.93164200e+02 7.81860800e-03 9.67684100e-02
        2 -1    0    0  501    0 +0.0000000000e+00 +0.0000000000e+00 +6.1782198717e+01 6.1782198717e+01 0.0000000000e+00 0.0000e+00 -1.0000e+00
       -2 -1    0    0    0  501 -0.0000000000e+00 -0.0000000000e+00 -6.2549618691e+02 6.2549618691e+02 0.0000000000e+00 0.0000e+00 1.0000e+00
      -13  1    1    2    0    0 +7.1028124150e+01 +1.2007829413e+02 -5.2395507121e+02 5.4221094400e+02 0.0000000000e+00 0.0000e+00 1.0000e+00
       13  1    1    2    0    0 -7.1028124150e+01 -1.2007829413e+02 -3.9758916979e+01 1.4506744163e+02 0.0000000000e+00 0.0000e+00 -1.0000e+00
<mgrwt>
<rscale>  0 0.39316424E+03</rscale>
<asrwt>0</asrwt>
<pdfrwt beam="1">  1        2 0.95049526E-02 0.39316424E+03</pdfrwt>
<pdfrwt beam="2">  1       -2 0.96230193E-01 0.39316424E+03</pdfrwt>
<totfact> 0.82821397E+02</totfact>
</mgrwt>
<rwgt>
<wgt id='morphing_basis_vector_1'> +2.4151073e-04 </wgt>
<wgt id='morphing_basis_vector_2'> +1.3024682e-04 </wgt>
<wgt id='morphing_basis_vector_3'> +1.5323551e-04 </wgt>
<wgt id='morphing_basis_vector_4'> +3.2999361e-05 </wgt>
<wgt id='morphing_basis_vector_5'> +3.1416060e-05 </wgt>
</rwgt>
</event>
<event>
 4      1 +3.1894900e-05 3.74577100e+02 7.81860800e-03 9.73463800e-02
        2 -1    0    0  501    0 +0.0000000000e+00 +0.0000000000e+00 +4.5859771704e+02 4.5859771704e+02 0.0000000000e+00 0.0000e+00 -1.0000e+00
       -2 -1    0    0    0  501 -0.0000000000e+00 -0.0000000000e+00 -7.6487513862e+01 7.6487513862e+01 0.0000000000e+00 0.0000e+00 1.0000e+00
      -13  1    1    2    0    0 +4.3048426145e+01 +1.1301171019e+02 -1.3237017978e+01 1.2165538327e+02 0.0000000000e+00 0.0000e+00 1.0000e+00
       13  1    1    2    0    0 -4.3048426145e+01 -1.1301171019e+02 +3.9534722115e+02 4.1342984762e+02 0.0000000000e+00 0.0000e+00 -1.0000e+00
<mgrwt>
<rscale>  0 0.37457709E+03</rscale>
<asrwt>0</asrwt>
<pdfrwt beam="1">  1        2 0.70553493E-01 0.37457709E+03</pdfrwt>
<pdfrwt beam="2">  1       -2 0.11767310E-01 0.37457709E+03</pdfrwt>
<totfact> 0.37826190E+03</totfact>
</mgrwt>
<rwgt>
<wgt id='morphing_basis_vector_1'> +2.1323630e-04 </wgt>
<wgt id='morphing_basis_vector_2'> +1.1490451e-04 </wgt>
<wgt id='morphing_basis_vector_3'> +1.3261862e-04 </wgt>
<wgt id='morphing_basis_vector_4'> +2.6086558e-05 </wgt>
<wgt id='morphing_basis_vector_5'> +2.0644556e-05 </wgt>
</rwgt>
</event>
<event>
 4      1 +3.1894900e-05 3.97364800e+02 7.81860800e-03 9.66425200e-02
        2 -1    0    0  501    0 +0.0000000000e+00 +0.0000000000e+00 +1.5508443329e+02 1.5508443329e+02 0.0000000000e+00 0.0000e+00 1.0000e+00
       -2 -1    0    0    0  501 -0.0000000000e+00 -0.0000000000e+00 -2.5453685902e+02 2.5453685902e+02 0.0000000000e+00 0.0000e+00 -1.0000e+00
      -13  1    1    2    0    0 +1.4939435631e+02 -1.2978943248e+02 -3.1554849814e+01 2.0039879997e+02 0.0000000000e+00 0.0000e+00 -1.0000e+00
       13  1    1    2    0    0 -1.4939435631e+02 +1.2978943248e+02 -6.7897575914e+01 2.0922249233e+02 0.0000000000e+00 0.0000e+00 1.0000e+00
<mgrwt>
<rscale>  0 0.39736484E+03</rscale>
<asrwt>0</asrwt>
<pdfrwt beam="1">  1        2 0.23859144E-01 0.39736484E+03</pdfrwt>
<pdfrwt beam="2">  1       -2 0.39159516E-01 0.39736484E+03</pdfrwt>
<totfact> 0.17167091E+03</totfact>
</mgrwt>
<rwgt>
<wgt id='morphing_basis_vector_1'> +2.5874275e-04 </wgt>
<wgt id='morphing_basis_vector_2'> +1.6575125e-04 </wgt>
<wgt id='morphing_basis_vector_3'> +1.4832190e-04 </wgt>
<wgt id='morphing_basis_vector_4'> +3.5603651e-05 </wgt>
<wgt id='morphing_basis_vector_5'> +3.4926868e-05 </wgt>
</rwgt>
</event>
<event>
 4      1 +3.1894900e-05 4.22086800e+02 7.81860800e-03 9.59337300e-02
        2 -1    0    0  501    0 +0.0000000000e+00 +0.0000000000e+00 +2.6704106750e+02 2.6704106750e+02 0.0000000000e+00 0.0000e+00 -1.0000e+00
       -2 -1    0    0    0  501 -0.0000000000e+00 -0.0000000000e+00 -1.6678828103e+02 1.6678828103e+02 0.0000000000e+00 0.0000e+00 1.0000e+00
      -13  1    1    2    0    0 +1.6415181604e+02 -1.2914105888e+02 +8.1235384499e+01 2.2410359099e+02 0.0000000000e+00 0.0000e+00 1.0000e+00
       13  1    1    2    0    0 -1.6415181604e+02 +1.2914105888e+02 +1.9017401962e+01 2.0972575754e+02 0.0000000000e+00 0.0000e+00 -1.0000e+00
<mgrwt>
<rscale>  0 0.42208682E+03</rscale>
<asrwt>0</asrwt>
<pdfrwt beam="1">  1        2 0.41083241E-01 0.42208682E+03</pdfrwt>
<pdfrwt beam="2">  1       -2 0.25659735E-01 0.42208682E+03</pdfrwt>
<totfact> 0.19469218E+03</totfact>
</mgrwt>
<rwgt>
<wgt id='morphing_basis_vector_1'> +3.0705498e-04 </wgt>
<wgt id='morphing_basis_vector_2'> +2.0433683e-04 </wgt>
<wgt id='morphing_basis_vector_3'> +1.7926759e-04 </wgt>
<wgt id='morphing_basis_vector_4'> +4.6793534e-05 </wgt>
<wgt id='morphing_basis_vector_5'> +5.5072263e-05 </wgt>
</rwgt>
</event>
<event>
 4      1 +3.1894900e-05 3.92884100e+02 7.81860800e-03 9.67768700e-02
        2 -1    0    0  501    0 +0.0000000000e+00 +0.0000000000e+00 +4.4845358868e+01 4.4845358868e+01 0.0000000000e+00 0.0000e+00 -1.0000e+00
       -2 -1    0    0    0  501 -0.0000000000e+00 -0.0000000000e+00 -8.6050105033e+02 8.6050105033e+02 0.0000000000e+00 0.0000e+00 1.0000e+00
      -13  1    1    2    0    0 +7.0663722580e+01 +1.0545472629e+02 -7.5329297485e+02 7.6391384786e+02 0.0000000000e+00 0.0000e+00 1.0000e+00
       13  1    1    2    0    0 -7.0663722580e+01 -1.0545472629e+02 -6.2362716614e+01 1.4143256134e+02 0.0000000000e+00 0.0000e+00 -1.0000e+00
<mgrwt>
<rscale>  0 0.39288410E+03</rscale>
<asrwt>0</asrwt>
<pdfrwt beam="1">  1        2 0.68992858E-02 0.39288410E+03</pdfrwt>
<pdfrwt beam="2">  1       -2 0.13238478E+00 0.39288410E+03</pdfrwt>
<totfact> 0.56390867E+02</totfact>
</mgrwt>
<rwgt>
<wgt id='morphing_basis_vector_1'> +2.4096407e-04 </wgt>
<wgt id='morphing_basis_vector_2'> +1.2970499e-04 </wgt>
<wgt id='morphing_basis_vector_3'> +1.5299820e-04 </wgt>
<wgt id='morphing_basis_vector_4'> +3.2872537e-05 </wgt>
<wgt id='morphing_basis_vector_5'> +3.1226365e-05 </wgt>
</rwgt>
</event>
<event>
 4      1 +3.1894900e-05 3.93400000e+02 7.81860800e-03 9.67613000e-02
        2 -1    0    0  501    0 +0.0000000000e+00 +0.0000000000e+00 +1.0257515048e+02 1.0257515048e+02 0.0000000000e+00 0.0000e+00 1.0000e+00
       -2 -1    0    0    0  501 -0.0000000000e+00 -0.0000000000e+00 -3.7719549219e+02 3.7719549219e+02 0.0000000000e+00 0.0000e+00 -1.0000e+00
      -13  1    1    2    0    0 -1.7745585351e+02 -7.5315464291e+01 -1.8498012310e+02 2.6717156482e+02 0.0000000000e+00 0.0000e+00 -1.0000e+00
       13  1    1    2    0    0 +1.7745585351e+02 +7.5315464291e+01 -8.9640218607e+01 2.1259907784e+02 0.0000000000e+00 0.0000e+00 1.0000e+00
<mgrwt>
<rscale>  0 0.39339997E+03</rscale>
<asrwt>0</asrwt>
<pdfrwt beam="1">  1        2 0.15780792E-01 0.39339997E+03</pdfrwt>
<pdfrwt beam="2">  1       -2 0.58030076E-01 0.39339997E+03</pdfrwt>
<totfact> 0.13218350E+03</totfact>
</mgrwt>
<rwgt>
<wgt id='morphing_basis_vector_1'> +2.4518112e-04 </wgt>
<wgt id='morphing_basis_vector_2'> +1.4049079e-04 </wgt>
<wgt id='morphing_basis_vector_3'> +1.5028073e-04 </wgt>
<wgt id='morphing_basis_vector_4'> +3.3415157e-05 </wgt>
<wgt id='morphing_basis_vector_5'> +3.1787497e-05 </wgt>
</rwgt>
</event>
<event>
 4      1 +3.1894900e-05 3.77509500e+02 7.81860800e-03 9.72528400e-02
        2 -1    0    0  501    0 +0.0000000000e+00 +0.0000000000e+00 +5.2201276192e+02 5.2201276192e+02 0.0000000000e+00 0.0000e+00 1.0000e+00
       -2 -1    0    0    0  501 -0.0000000000e+00 -0.0000000000e+00 -6.8251875951e+01 6.8251875951e+01 0.0000000000e+00 0.0000e+00 -1.0000e+00
      -13  1    1    2    0    0 +8.7732334189e+00 +9.5042649429e+01 +4.8149987918e+02 4.9086883022e+02 0.0000000000e+00 0.0000e+00 1.0000e+00
       13  1    1    2    0    0 -8.7732334189e+00 -9.5042649429e+01 -2.7738993204e+01 9.9395807654e+01 0.0000000000e+00 0.0000e+00 -1.0000e+00
<mgrwt>
<rscale>  0 0.37750947E+03</rscale>
<asrwt>0</asrwt>
<pdfrwt beam="1">  1        2 0.80309653E-01 0.37750947E+03</pdfrwt>
<pdfrwt beam="2">  1       -2 0.10500289E-01 0.37750947E+03</pdfrwt>
<totfact> 0.39098188E+03</totfact>
</mgrwt>
<rwgt>
<wgt id='morphing_basis_vector_1'> +2.9046136e-04 </wgt>
<wgt id='morphing_basis_vector_2'> +3.3827893e-04 </wgt>
<wgt id='morphing_basis_vector_3'> +5.7406685e-05 </wgt>
<wgt id='morphing_basis_vector_4'> +3.9863917e-05 </wgt>
<wgt id='morphing_basis_vector_5'> +2.6986335e-05 </wgt>
</rwgt>
</event>
<event>
 4      1 +3.1894900e-05 4.05618900e+02 7.81860800e-03 9.63999100e-02
        2 -1    0    0  501    0 +0.0000000000e+00 +0.0000000000e+00 +3.4318799304e+01 3.4318799304e+01 0.0000000000e+00 0.0000e+00 -1.0000e+00
       -2 -1    0    0    0  501 -0.0000000000e+00 -0.0000000000e+00 -1.1985175417e+03 1.1985175417e+03 0.0000000000e+00 0.0000e+00 1.0000e+00
      -13  1    1    2    0    0 +1.2651425275e+02 +1.3574747057e+02 -8.3085584191e+02 8.5132523864e+02 0.0000000000e+00 0.0000e+00 1.0000e+00
       13  1    1    2    0    0 -1.2651425275e+02 -1.3574747057e+02 -3.3334290046e+02 3.8151110233e+02 0.0000000000e+00 0.0000e+00 -1.0000e+00
<mgrwt>
<rscale>  0 0.40561895E+03</rscale>
<asrwt>0</asrwt>
<pdfrwt beam="1">  1        2 0.52798145E-02 0.40561895E+03</pdfrwt>
<pdfrwt beam="2">  1       -2 0.18438734E+00 0.40561895E+03</pdfrwt>
<totfact> 0.30869819E+02</totfact>
</mgrwt>
<rwgt>
<wgt id='morphing_basis_vector_1'> +2.6352999e-04 </wgt>
<wgt id='morphing_basis_vector_2'> +1.4555170e-04 </wgt>
<wgt id='morphing_basis_vector_3'> +1.6760316e-04 </wgt>
<wgt id='morphing_basis_vector_4'> +3.8686516e-05 </wgt>
<wgt id='morphing_basis_vector_5'> +4.0338194e-05 </wgt>
</rwgt>
</event>
<event>
 4      1 +3.1894900e-05 3.72867500e+02 7.81860800e-03 9.74013300e-02
        2 -1    0    0  501    0 +0.0000000000e+00 +0.0000000000e+00 +6.4210955416e+01 6.4210955416e+01 0.0000000000e+00 0.0000e+00 1.0000e+00
       -2 -1    0    0    0  501 -0.0000000000e+00 -0.0000000000e+00 -5.4130246061e+02 5.4130246061e+02 0.0000000000e+00 0.0000e+00 -1.0000e+00
      -13  1    1    2    0    0 -3.0950719869e+01 -1.6020094166e+02 -3.8501785331e+02 4.1816388670e+02 0.0000000000e+00 0.0000e+00 -1.0000e+00
       13  1    1    2    0    0 +3.0950719869e+01 +1.6020094166e+02 -9.2073651878e+01 1.8734952933e+02 0.0000000000e+00 0.0000e+00 1.0000e+00
<mgrwt>
<rscale>  0 0.37286753E+03</rscale>
<asrwt>0</asrwt>
<pdfrwt beam="1">  1        2 0.98786087E-02 0.37286753E+03</pdfrwt>
<pdfrwt beam="2">  1       -2 0.83277300E-01 0.37286753E+03</pdfrwt>
<totfact> 0.10990612E+03</totfact>
</mgrwt>
<rwgt>
<wgt id='morphing_basis_vector_1'> +2.1151890e-04 </wgt>
<wgt id='morphing_basis_vector_2'> +1.1579377e-04 </wgt>
<wgt id='morphing_basis_vector_3'> +1.3006690e-04 </wgt>
<wgt id='morphing_basis_vector_4'> +2.5680096e-05 </wgt>
<wgt id='morphing_basis_vector_5'> +1.9837800e-05 </wgt>
</rwgt>
</event>
<event>
 4      1 +3.1894900e-05 4.04298800e+02 7.81860800e-03 9.64383000e-02
        2 -1    0    0  501    0 +0.0000000000e+00 +0.0000000000e+00 +1.2959321507e+03 1.2959321507e+03 0.0000000000e+00 0.0000e+00 -1.0000e+00
       -2 -1    0    0    0  501 -0.0000000000e+00 -0.0000000000e+00 -3.1532803259e+01 3.1532803259e+01 0.0000000000e+00 0.0000e+00 1.0000e+00
      -13  1    1    2    0    0 +1.9081176674e+02 +5.4195998773e+00 +4.1376577913e+02 4.5567600592e+02 0.0000000000e+00 0.0000e+00 1.0000e+00
       13  1    1    2    0    0 -1.9081176674e+02 -5.4195998773e+00 +8.5063356830e+02 8.7178894803e+02 0.0000000000e+00 0.0000e+00 -1.0000e+00
<mgrwt>
<rscale>  0 0.40429877E+03</rscale>
<asrwt>0</asrwt>
<pdfrwt beam="1">  1        2 0.19937414E+00 0.40429877E+03</pdfrwt>
<pdfrwt beam="2">  1       -2 0.48512015E-02 0.40429877E+03</pdfrwt>
<totfact> 0.38822325E+03</totfact>
</mgrwt>
<rwgt>
<wgt id='morphing_basis_vector_1'> +2.6189056e-04 </wgt>
<wgt id='morphing_basis_vector_2'> +1.4622736e-04 </wgt>
<wgt id='morphing_basis_vector_3'> +1.6529733e-04 </wgt>
<wgt id='morphing_basis_vector_4'> +3.8082686e-05 </wgt>
<wgt id='morphing_basis_vector_5'> +3.9376841e-05 </wgt>
</rwgt>
</event>
<event>
 4      1 +3.1894900e-05 3.65970300e+02 7.81860800e-03 9.76263200e-02
        2 -1    0    0  501    0 +0.0000000000e+00 +0.0000000000e+00 +4.5640822313e+02 4.5640822313e+02 0.0000000000e+00 0.0000e+00 -1.0000e+00
       -2 -1    0    0    0  501 -0.0000000000e+00 -0.0000000000e+00 -7.3363211225e+01 7.3363211225e+01 0.0000000000e+00 0.0000e+00 1.0000e+00
      -13  1    1    2    0    0 +1.1492249499e+02 -1.3007992933e+02 +1.0766768003e+02 2.0425547041e+02 0.0000000000e+00 0.0000e+00 1.0000e+00
       13  1    1    2    0    0 -1.1492249499e+02 +1.3007992933e+02 +2.7537733188e+02 3.2551596394e+02 0.0000000000e+00 0.0000e+00 -1.0000e+00
<mgrwt>
<rscale>  0 0.36597034E+03</rscale>
<asrwt>0</asrwt>
<pdfrwt beam="1">  1        2 0.70216648E-01 0.36597034E+03</pdfrwt>
<pdfrwt beam="2">  1       -2 0.11286648E-01 0.36597034E+03</pdfrwt>
<totfact> 0.40564936E+03</totfact>
</mgrwt>
<rwgt>
<wgt id='morphing_basis_vector_1'> +2.0286087e-04 </wgt>
<wgt id='morphing_basis_vector_2'> +1.1352798e-04 </wgt>
<wgt id='morphing_basis_vector_3'> +1.2212244e-04 </wgt>
<wgt id='morphing_basis_vector_4'> +2.3840954e-05 </wgt>
<wgt id='morphing_basis_vector_5'> +1.6670476e-05 </wgt>
</rwgt>
</event>
<event>
 4      1 +3.1894900e-05 3.60349100e+02 7.81860800e-03 9.78136700e-02
        2 -1    0    0  501    0 +0.0000000000e+00 +0.0000000000e+00 +4.6438875264e+01 4.6438875264e+01 0.0000000000e+00 0.0000e+00 -1.0000e+00
       -2 -1    0    0    0  501 -0.0000000000e+00 -0.0000000000e+00 -6.9904504815e+02 6.9904504815e+02 0.0000000000e+00 0.0000e+00 1.0000e+00
      -13  1    1    2    0    0 -1.3595327133e+02 -1.1794158837e+02 -3.4353190296e+02 3.8782428831e+02 0.0000000000e+00 0.0000e+00 1.0000e+00
       13  1    1    2    0    0 +1.3595327133e+02 +1.1794158837e+02 -3.0907426993e+02 3.5765963511e+02 0.0000000000e+00 0.0000e+00 -1.0000e+00
<mgrwt>
<rscale>  0 0.36034909E+03</rscale>
<asrwt>0</asrwt>
<pdfrwt beam="1">  1        2 0.71444430E-02 0.36034909E+03</pdfrwt>
<pdfrwt beam="2">  1       -2 0.10754538E+00 0.36034909E+03</pdfrwt>
<totfact> 0.91546646E+02</totfact>
</mgrwt>
<rwgt>
<wgt id='morphing_basis_vector_1'> +1.9854356e-04 </wgt>
<wgt id='morphing_basis_vector_2'> +1.1919155e-04 </wgt>
<wgt id='morphing_basis_vector_3'> +1.1301091e-04 </wgt>
<wgt id='morphing_basis_vector_4'> +2.3184140e-05 </wgt>
<wgt id='morphing_basis_vector_5'> +1.4497054e-05 </wgt>
</rwgt>
</event>
<event>
 4      1 +3.1894900e-05 3.78837800e+02 7.81860800e-03 9.72107600e-02
        2 -1    0    0  501    0 +0.0000000000e+00 +0.0000000000e+00 +4.8813684820e+02 4.8813684820e+02 0.0000000000e+00 0.0000e+00 1.0000e+00
       -2 -1    0    0    0  501 -0.0000000000e+00 -0.0000000000e+00 -7.3502975893e+01 7.3502975893e+01 0.0000000000e+00 0.0000e+00 -1.0000e+00
      -13  1    1    2    0    0 +4.0697104052e+01 +9.1118641028e+01 -3.1369414811e+01 1.0460832284e+02 0.0000000000e+00 0.0000e+00 -1.0000e+00
       13  1    1    2    0    0 -4.0697104052e+01 -9.1118641028e+01 +4.4600328712e+02 4.5703150126e+02 0.0000000000e+00 0.0000e+00 1.0000e+00
<mgrwt>
<rscale>  0 0.37883775E+03</rscale>
<asrwt>0</asrwt>
<pdfrwt beam="1">  1        2 0.75097975E-01 0.37883775E+03</pdfrwt>
<pdfrwt beam="2">  1       -2 0.11308150E-01 0.37883775E+03</pdfrwt>
<totfact> 0.37562020E+03</totfact>
</mgrwt>
<rwgt>
<wgt id='morphing_basis_vector_1'> +2.1933780e-04 </wgt>
<wgt id='morphing_basis_vector_2'> +1.1792828e-04 </wgt>
<wgt id='morphing_basis_vector_3'> +1.3719905e-04 </wgt>
<wgt id='morphing_basis_vector_4'> +2.7502476e-05 </wgt>
<wgt id='morphing_basis_vector_5'> +2.2864489e-05 </wgt>
</rwgt>
</event>
<event>
 4      1 +3.1894900e-05 3.65497300e+02 7.81860800e-03 9.76419500e-02
        2 -1    0    0  501    0 +0.0000000000e+00 +0.0000000000e+00 +7.4624947289e+02 7.4624947289e+02 0.0000000000e+00 0.0000e+00 -1.0000e+00
       -2 -1    0    0    0  501 -0.0000000000e+00 -0.0000000000e+00 -4.4753230775e+01 4.4753230775e+01 0.0000000000e+00 0.0000e+00 1.0000e+00
      -13  1    1    2    0    0 -1.3174855428e+02 +1.0430965184e+02 +1.9530486499e+02 2.5764738561e+02 0.0000000000e+00 0.0000e+00 1.0000e+00
       13  1    1    2    0    0 +1.3174855428e+02 -1.0430965184e+02 +5.0619137713e+02 5.3335531806e+02 0.0000000000e+00 0.0000e+00 -1.0000e+00
<mgrwt>
<rscale>  0 0.36549733E+03</rscale>
<asrwt>0</asrwt>
<pdfrwt beam="1">  1        2 0.11480760E+00 0.36549733E+03</pdfrwt>
<pdfrwt beam="2">  1       -2 0.68851130E-02 0.36549733E+03</pdfrwt>
<totfact> 0.49326046E+03</totfact>
</mgrwt>
<rwgt>
<wgt id='morphing_basis_vector_1'> +2.0170185e-04 </wgt>
<wgt id='morphing_basis_vector_2'> +1.1163418e-04 </wgt>
<wgt id='morphing_basis_vector_3'> +1.2224966e-04 </wgt>
<wgt id='morphing_basis_vector_4'> +2.3588732e-05 </wgt>
<wgt id='morphing_basis_vector_5'> +1.6427975e-05 </wgt>
</rwgt>
</event>
<event>
 4      1 +3.1894900e-05 4.00427200e+02 7.81860800e-03 9.65517800e-02
        2 -1    0    0  501    0 +0.0000000000e+00 +0.0000000000e+00 +2.0251318780e+02 2.0251318780e+02 0.0000000000e+00 0.0000e+00 -1.0000e+00
       -2 -1    0    0    0  501 -0.0000000000e+00 -0.0000000000e+00 -1.9794011390e+02 1.9794011390e+02 0.0000000000e+00 0.0000e+00 1.0000e+00
      -13  1    1    2    0    0 +6.2917541533e+01 -1.7706860971e+02 +7.1382097512e+01 2.0101570442e+02 0.0000000000e+00 0.0000e+00 1.0000e+00
       13  1    1    2    0    0 -6.2917541533e+01 +1.7706860971e+02 -6.6809023606e+01 1.9943759729e+02 0.0000000000e+00 0.0000e+00 -1.0000e+00
<mgrwt>
<rscale>  0 0.40042719E+03</rscale>
<asrwt>0</asrwt>
<pdfrwt beam="1">  1        2 0.31155875E-01 0.40042719E+03</pdfrwt>
<pdfrwt beam="2">  1       -2 0.30452325E-01 0.40042719E+03</pdfrwt>
<totfact> 0.19782859E+03</totfact>
</mgrwt>
<rwgt>
<wgt id='morphing_basis_vector_1'> +2.7921509e-04 </wgt>
<wgt id='morphing_basis_vector_2'> +2.1560985e-04 </wgt>
<wgt id='morphing_basis_vector_3'> +1.3779102e-04 </wgt>
<wgt id='morphing_basis_vector_4'> +3.7768120e-05 </wgt>
<wgt id='morphing_basis_vector_5'> +3.8087261e-05 </wgt>
</rwgt>
</event>
<event>
 4      1 +3.1894900e-05 4.23699400e+02 7.81860800e-03 9.58893000e-02
        2 -1    0    0  501    0 +0.0000000000e+00 +0.0000000000e+00 +1.4727692645e+02 1.4727692645e+02 0.0000000000e+00 0.0000e+00 -1.0000e+00
       -2 -1    0    0    0  501 -0.0000000000e+00 -0.0000000000e+00 -3.0473402084e+02 3.0473402084e+02 0.0000000000e+00 0.0000e+00 1.0000e+00
      -13  1    1    2    0    0 +5.3410768186e+01 +2.0498849238e+02 -8.1610503560e+01 2.2700939729e+02 0.0000000000e+00 0.0000e+00 1.0000e+00
       13  1    1    2    0    0 -5.3410768186e+01 -2.0498849238e+02 -7.5846590833e+01 2.2500155001e+02 0.0000000000e+00 0.0000e+00 -1.0000e+00
<mgrwt>
<rscale>  0 0.42369937E+03</rscale>
<asrwt>0</asrwt>
<pdfrwt beam="1">  1        2 0.22657989E-01 0.42369937E+03</pdfrwt>
<pdfrwt beam="2">  1       -2 0.46882157E-01 0.42369937E+03</pdfrwt>
<totfact> 0.13039902E+03</totfact>
</mgrwt>
<rwgt>
<wgt id='morphing_basis_vector_1'> +3.0362130e-04 </wgt>
<wgt id='morphing_basis_vector_2'> +1.8606669e-04 </wgt>
<wgt id='morphing_basis_vector_3'> +1.8707055e-04 </wgt>
<wgt id='morphing_basis_vector_4'> +4.7972958e-05 </wgt>
<wgt id='morphing_basis_vector_5'> +5.6167975e-05 </wgt>
</rwgt>
</event>
<event>
 4      1 +3.1894900e-05 4.06971800e+02 7.81860800e-03 9.63607400e-02
        2 -1    0    0  501    0 +0.0000000000e+00 +0.0000000000e+00 +7.8209806382e+02 7.8209806382e+02 0.0000000000e+00 0.0000e+00 -1.0000e+00
       -2 -1    0    0    0  501 -0.0000000000e+00 -0.0000000000e+00 -5.2942854025e+01 5.2942854025e+01 0.0000000000e+00 0.0000e+00 1.0000e+00
      -13  1    1    2    0    0 +1.4315383513e+02 -1.4094933379e+02 +4.3096242558e+02 4.7548748403e+02 0.0000000000e+00 0.0000e+00 1.0000e+00
       13  1    1    2    0    0 -1.4315383513e+02 +1.4094933379e+02 +2.9819278421e+02 3.5955343381e+02 0.0000000000e+00 0.0000e+00 -1.0000e+00
<mgrwt>
<rscale>  0 0.40697176E+03</rscale>
<asrwt>0</asrwt>
<pdfrwt beam="1">  1        2 0.12032277E+00 0.40697176E+03</pdfrwt>
<pdfrwt beam="2">  1       -2 0.81450550E-02 0.40697176E+03</pdfrwt>
<totfact> 0.36094479E+03</totfact>
</mgrwt>
<rwgt>
<wgt id='morphing_basis_vector_1'> +2.7890155e-04 </wgt>
<wgt id='morphing_basis_vector_2'> +1.8674885e-04 </wgt>
<wgt id='morphing_basis_vector_3'> +1.5757907e-04 </wgt>
<wgt id='morphing_basis_vector_4'> +3.9720748e-05 </wgt>
<wgt id='morphing_basis_vector_5'> +4.2222206e-05 </wgt>
</rwgt>
</event>
<event>
 4      1 +3.1894900e-05 4.09990500e+02 7.81860800e-03 9.62739000e-02
        2 -1    0    0  501    0 +0.0000000000e+00 +0.0000000000e+00 +1.0675396365e+02 1.0675396365e+02 0.0000000000e+00 0.0000e+00 -1.0000e+00
       -2 -1    0    0    0  501 -0.0000000000e+00 -0.0000000000e+00 -3.9364396752e+02 3.9364396752e+02 0.0000000000e+00 0.0000e+00 1.0000e+00
      -13  1    1    2    0    0 +3.5546606376e-01 +6.6523030431e+01 -3.8010335989e+02 3.8588081597e+02 0.0000000000e+00 0.0000e+00 1.0000e+00
       13  1    1    2    0    0 -3.5546606376e-01 -6.6523030431e+01 +9.3213356024e+01 1.1451711521e+02 0.0000000000e+00 0.0000e+00 -1.0000e+00
<mgrwt>
<rscale>  0 0.40999051E+03</rscale>
<asrwt>0</asrwt>
<pdfrwt beam="1">  1        2 0.16423687E-01 0.40999051E+03</pdfrwt>
<pdfrwt beam="2">  1       -2 0.60560610E-01 0.40999051E+03</pdfrwt>
<totfact> 0.11560836E+03</totfact>
</mgrwt>
<rwgt>
<wgt id='morphing_basis_vector_1'> +2.6954443e-04 </wgt>
<wgt id='morphing_basis_vector_2'> +1.4479750e-04 </wgt>
<wgt id='morphing_basis_vector_3'> +1.7487997e-04 </wgt>
<wgt id='morphing_basis_vector_4'> +4.0822541e-05 </wgt>
<wgt id='morphing_basis_vector_5'> +4.3667172e-05 </wgt>
</rwgt>
</event>
<event>
 4      1 +3.1894900e-05 4.21886600e+02 7.81860800e-03 9.59392600e-02
        2 -1    0    0  501    0 +0.0000000000e+00 +0.0000000000e+00 +1.4920151818e+03 1.4920151818e+03 0.0000000000e+00 0.0000e+00 1.0000e+00
       -2 -1    0    0    0  501 -0.0000000000e+00 -0.0000000000e+00 -2.9823476760e+01 2.9823476760e+01 0.0000000000e+00 0.0000e+00 -1.0000e+00
      -13  1    1    2    0    0 -2.0320627675e+02 -4.2076677248e+00 +5.2746874403e+02 5.6527318290e+02 0.0000000000e+00 0.0000e+00 -1.0000e+00
       13  1    1    2    0    0 +2.0320627675e+02 +4.2076677248e+00 +9.3472296104e+02 9.5656547569e+02 0.0000000000e+00 0.0000e+00 1.0000e+00
<mgrwt>
<rscale>  0 0.42188662E+03</rscale>
<asrwt>0</asrwt>
<pdfrwt beam="1">  1        2 0.22954074E+00 0.42188662E+03</pdfrwt>
<pdfrwt beam="2">  1       -2 0.45882283E-02 0.42188662E+03</pdfrwt>
<totfact> 0.32978789E+03</totfact>
</mgrwt>
<rwgt>
<wgt id='morphing_basis_vector_1'> +2.9452044e-04 </wgt>
<wgt id='morphing_basis_vector_2'> +1.6674684e-04 </wgt>
<wgt id='morphing_basis_vector_3'> +1.8896024e-04 </wgt>
<wgt id='morphing_basis_vector_4'> +4.7226196e-05 </wgt>
<wgt id='morphing_basis_vector_5'> +5.4132827e-05 </wgt>
</rwgt>
</event>
<event>
 4      1 +3.1894900e-05 4.06547900e+02 7.81860800e-03 9.63729900e-02
        2 -1    0    0  501    0 +0.0000000000e+00 +0.0000000000e+00 +1.9232149831e+02 1.9232149831e+02 0.0000000000e+00 0.0000e+00 1.0000e+00
       -2 -1    0    0    0  501 -0.0000000000e+00 -0.0000000000e+00 -2.1485013669e+02 2.1485013669e+02 0.0000000000e+00 0.0000e+00 -1.0000e+00
      -13  1    1    2    0    0 +9.3894237914e+01 +1.6624551768e+02 -8.1132368521e+01 2.0745158781e+02 0.0000000000e+00 0.0000e+00 -1.0000e+00
       13  1    1    2    0    0 -9.3894237914e+01 -1.6624551768e+02 +5.8603730138e+01 1.9972004719e+02 0.0000000000e+00 0.0000e+00 1.0000e+00
<mgrwt>
<rscale>  0 0.40654791E+03</rscale>
<asrwt>0</asrwt>
<pdfrwt beam="1">  1        2 0.29587923E-01 0.40654791E+03</pdfrwt>
<pdfrwt beam="2">  1       -2 0.33053867E-01 0.40654791E+03</pdfrwt>
<totfact> 0.18171360E+03</totfact>
</mgrwt>
<rwgt>
<wgt id='morphing_basis_vector_1'> +2.6565407e-04 </wgt>
<wgt id='morphing_basis_vector_2'> +1.4802217e-04 </wgt>
<wgt id='morphing_basis_vector_3'> +1.6835742e-04 </wgt>
<wgt id='morphing_basis_vector_4'> +3.9152149e-05 </wgt>
<wgt id='morphing_basis_vector_5'> +4.1086322e-05 </wgt>
</rwgt>
</event>
<event>
 4      1 +3.1894900e-05 3.66577200e+02 7.81860800e-03 9.76063200e-02
        2 -1    0    0  501    0 +0.0000000000e+00 +0.0000000000e+00 +4.9686316562e+02 4.9686316562e+02 0.0000000000e+00 0.0000e+00 -1.0000e+00
       -2 -1    0    0    0  501 -0.0000000000e+00 -0.0000000000e+00 -6.7613596324e+01 6.7613596324e+01 0.0000000000e+00 0.0000e+00 1.0000e+00
      -13  1    1    2    0    0 +4.4805647158e+01 +6.9994407377e+01 -3.6933253452e+01 9.0944094321e+01 0.0000000000e+00 0.0000e+00 1.0000e+00
       13  1    1    2    0    0 -4.4805647158e+01 -6.9994407377e+01 +4.6618282275e+02 4.7353266763e+02 0.0000000000e+00 0.0000e+00 -1.0000e+00
<mgrwt>
<rscale>  0 0.36657717E+03</rscale>
<asrwt>0</asrwt>
<pdfrwt beam="1">  1        2 0.76440485E-01 0.36657717E+03</pdfrwt>
<pdfrwt beam="2">  1       -2 0.10402092E-01 0.36657717E+03</pdfrwt>
<totfact> 0.41900060E+03</totfact>
</mgrwt>
<rwgt>
<wgt id='morphing_basis_vector_1'> +2.0194443e-04 </wgt>
<wgt id='morphing_basis_vector_2'> +1.0870905e-04 </wgt>
<wgt id='morphing_basis_vector_3'> +1.2469387e-04 </wgt>
<wgt id='morphing_basis_vector_4'> +2.3609637e-05 </wgt>
<wgt id='morphing_basis_vector_5'> +1.6826734e-05 </wgt>
</rwgt>
</event>
<event>
 4      1 +3.1894900e-05 3.64935800e+02 7.81860800e-03 9.76605300e-02
        2 -1    0    0  501    0 +0.0000000000e+00 +0.0000000000e+00 +3.2480293618e+02 3.2480293618e+02 0.0000000000e+00 0.0000e+00 1.0000e+00
       -2 -1    0    0    0  501 -0.0000000000e+00 -0.0000000000e+00 -1.0250688212e+02 1.0250688212e+02 0.0000000000e+00 0.0000e+00 -1.0000e+00
      -13  1    1    2    0    0 -4.9005849609e+01 +1.4044995575e+02 -1.2586309293e+01 1.4928556041e+02 0.0000000000e+00 0.0000e+00 -1.0000e+00
       13  1    1    2    0    0 +4.9005849609e+01 -1.4044995575e+02 +2.3488236335e+02 2.7802425790e+02 0.0000000000e+00 0.0000e+00 1.0000e+00
<mgrwt>
<rscale>  0 0.36493581E+03</rscale>
<asrwt>0</asrwt>
<pdfrwt beam="1">  1        2 0.49969682E-01 0.36493581E+03</pdfrwt>
<pdfrwt beam="2">  1       -2 0.15770290E-01 0.36493581E+03</pdfrwt>
<totfact> 0.34829350E+03</totfact>
</mgrwt>
<rwgt>
<wgt id='morphing_basis_vector_1'> +2.0016391e-04 </wgt>
<wgt id='morphing_basis_vector_2'> +1.0889331e-04 </wgt>
<wgt id='morphing_basis_vector_3'> +1.2259440e-04 </wgt>
<wgt id='morphing_basis_vector_4'> +2.3248349e-05 </wgt>
<wgt id='morphing_basis_vector_5'> +1.6131514e-05 </wgt>
</rwgt>
</event>
<event>
 4      1 +3.1894900e-05 3.68659900e+02 7.81860800e-03 9.75379600e-02
        2 -1    0    0  501    0 +0.0000000000e+00 +0.0000000000e+00 +5.7802332850e+02 5.7802332850e+02 0.0000000000e+00 0.0000e+00 -1.0000e+00
       -2 -1    0    0    0  501 -0.0000000000e+00 -0.0000000000e+00 -5.8782276335e+01 5.8782276335e+01 0.0000000000e+00 0.0000e+00 1.0000e+00
      -13  1    1    2    0    0 +6.8983327539e+01 +1.5365235580e+02 +1.3024445573e+02 2.1291163465e+02 0.0000000000e+00 0.0000e+00 1.0000e+00
       13  1    1    2    0    0 -6.8983327539e+01 -1.5365235580e+02 +3.8899659644e+02 4.2389397019e+02 0.0000000000e+00 0.0000e+00 -1.0000e+00
<mgrwt>
<rscale>  0 0.36865988E+03</rscale>
<asrwt>0</asrwt>
<pdfrwt beam="1">  1        2 0.88926662E-01 0.36865988E+03</pdfrwt>
<pdfrwt beam="2">  1       -2 0.90434275E-02 0.36865988E+03</pdfrwt>
<totfact> 0.43882456E+03</totfact>
</mgrwt>
<rwgt>
<wgt id='morphing_basis_vector_1'> +2.0598385e-04 </wgt>
<wgt id='morphing_basis_vector_2'> +1.1376475e-04 </wgt>
<wgt id='morphing_basis_vector_3'> +1.2541480e-04 </wgt>
<wgt id='morphing_basis_vector_4'> +2.4479595e-05 </wgt>
<wgt id='morphing_basis_vector_5'> +1.7851059e-05 </wgt>
</rwgt>
</event>
<event>
 4      1 +3.1894900e-05 3.77935000e+02 7.81860800e-03 9.72393400e-02
        2 -1    0    0  501    0 +0.0000000000e+00 +0.0000000000e+00 +4.0070551856e+02 4.0070551856e+02 0.0000000000e+00 0.0000e+00 1.0000e+00
       -2 -1    0    0    0  501 -0.0000000000e+00 -0.0000000000e+00 -8.9114616671e+01 8.9114616671e+01 0.0000000000e+00 0.0000e+00 -1.0000e+00
      -13  1    1    2    0    0 -8.4117296436e+01 -5.2965274544e+00 -6.3404307018e+01 1.0546980094e+02 0.0000000000e+00 0.0000e+00 -1.0000e+00
       13  1    1    2    0    0 +8.4117296436e+01 +5.2965274544e+00 +3.7499520891e+02 3.8435033429e+02 0.0000000000e+00 0.0000e+00 1.0000e+00
<mgrwt>
<rscale>  0 0.37793501E+03</rscale>
<asrwt>0</asrwt>
<pdfrwt beam="1">  1        2 0.61647002E-01 0.37793501E+03</pdfrwt>
<pdfrwt beam="2">  1       -2 0.13709941E-01 0.37793501E+03</pdfrwt>
<totfact> 0.34533469E+03</totfact>
</mgrwt>
<rwgt>
<wgt id='morphing_basis_vector_1'> +2.1798871e-04 </wgt>
<wgt id='morphing_basis_vector_2'> +1.1714901e-04 </wgt>
<wgt id='morphing_basis_vector_3'> +1.3626253e-04 </wgt>
<wgt id='morphing_basis_vector_4'> +2.7187394e-05 </wgt>
<wgt id='morphing_basis_vector_5'> +2.2379652e-05 </wgt>
</rwgt>
</event>
<event>
 4      1 +3.1894900e-05 3.98209700e+02 7.81860800e-03 9.66174000e-02
        2 -1    0    0  501    0 +0.0000000000e+00 +0.0000000000e+00 +1.8942819454e+02 1.8942819454e+02 0.0000000000e+00 0.0000e+00 -1.0000e+00
       -2 -1    0    0    0  501 -0.0000000000e+00 -0.0000000000e+00 -2.0927579176e+02 2.0927579176e+02 0.0000000000e+00 0.0000e+00 1.0000e+00
      -13  1    1    2    0    0 -9.2412190821e+01 +1.2476330934e+02 +1.1487778850e+02 1.9313933484e+02 0.0000000000e+00 0.0000e+00 -1.0000e+00
       13  1    1    2    0    0 +9.2412190821e+01 -1.2476330934e+02 -1.3472538572e+02 2.0556465146e+02 0.0000000000e+00 0.0000e+00 1.0000e+00
<mgrwt>
<rscale>  0 0.39820967E+03</rscale>
<asrwt>0</asrwt>
<pdfrwt beam="1">  1        2 0.29142799E-01 0.39820967E+03</pdfrwt>
<pdfrwt beam="2">  1       -2 0.32196276E-01 0.39820967E+03</pdfrwt>
<totfact> 0.19361147E+03</totfact>
</mgrwt>
<rwgt>
<wgt id='morphing_basis_vector_1'> +3.0679305e-04 </wgt>
<wgt id='morphing_basis_vector_2'> +3.0903176e-04 </wgt>
<wgt id='morphing_basis_vector_3'> +1.0481647e-04 </wgt>
<wgt id='morphing_basis_vector_4'> +3.9311281e-05 </wgt>
<wgt id='morphing_basis_vector_5'> +3.8567963e-05 </wgt>
</rwgt>
</event>
<event>
 4      1 +3.1894900e-05 4.01276500e+02 7.81860800e-03 9.65267700e-02
        2 -1    0    0  501    0 +0.0000000000e+00 +0.0000000000e+00 +7.0842427264e+02 7.0842427264e+02 0.0000000000e+00 0.0000e+00 1.0000e+00
       -2 -1    0    0    0  501 -0.0000000000e+00 -0.0000000000e+00 -5.6824302198e+01 5.6824302198e+01 0.0000000000e+00 0.0000e+00 -1.0000e+00
      -13  1    1    2    0    0 +5.8240834017e+01 -1.9162591119e+02 +3.4862317360e+02 4.0205795821e+02 0.0000000000e+00 0.0000e+00 -1.0000e+00
       13  1    1    2    0    0 -5.8240834017e+01 +1.9162591119e+02 +3.0297679684e+02 3.6319061663e+02 0.0000000000e+00 0.0000e+00 1.0000e+00
<mgrwt>
<rscale>  0 0.40127654E+03</rscale>
<asrwt>0</asrwt>
<pdfrwt beam="1">  1        2 0.10898834E+00 0.40127654E+03</pdfrwt>
<pdfrwt beam="2">  1       -2 0.87422008E-02 0.40127654E+03</pdfrwt>
<totfact> 0.36516933E+03</totfact>
</mgrwt>
<rwgt>
<wgt id='morphing_basis_vector_1'> +2.6445654e-04 </wgt>
<wgt id='morphing_basis_vector_2'> +1.6693152e-04 </wgt>
<wgt id='morphing_basis_vector_3'> +1.5417524e-04 </wgt>
<wgt id='morphing_basis_vector_4'> +3.7125897e-05 </wgt>
<wgt id='morphing_basis_vector_5'> +3.7643735e-05 </wgt>
</rwgt>
</event>
<event>
 4      1 +3.1894900e-05 3.91747300e+02 7.81860800e-03 9.68112600e-02
        2 -1    0    0  501    0 +0.0000000000e+00 +0.0000000000e+00 +1.8891799816e+03 1.8891799816e+03 0.0000000000e+00 0.0000e+00 1.0000e+00
       -2 -1    0    0    0  501 -0.0000000000e+00 -0.0000000000e+00 -2.0308539840e+01 2.0308539840e+01 0.0000000000e+00 0.0000e+00 -1.0000e+00
      -13  1    1    2    0    0 -1.9140727074e+02 -2.7683081059e+01 +7.8314501351e+02 8.0667168566e+02 0.0000000000e+00 0.0000e+00 -1.0000e+00
       13  1    1    2    0    0 +1.9140727074e+02 +2.7683081059e+01 +1.0857264282e+03 1.1028168357e+03 0.0000000000e+00 0.0000e+00 1.0000e+00
<mgrwt>
<rscale>  0 0.39174730E+03</rscale>
<asrwt>0</asrwt>
<pdfrwt beam="1">  1        2 0.29064294E+00 0.39174730E+03</pdfrwt>
<pdfrwt beam="2">  1       -2 0.31243922E-02 0.39174730E+03</pdfrwt>
<totfact> 0.35802604E+03</totfact>
</mgrwt>
<rwgt>
<wgt id='morphing_basis_vector_1'> +2.4310620e-04 </wgt>
<wgt id='morphing_basis_vector_2'> +1.4077683e-04 </wgt>
<wgt id='morphing_basis_vector_3'> +1.4772604e-04 </wgt>
<wgt id='morphing_basis_vector_4'> +3.2814142e-05 </wgt>
<wgt id='morphing_basis_vector_5'> +3.0750356e-05 </wgt>
</rwgt>
</event>
<event>
 4      1 +3.1894900e-05 3.92480900e+02 7.81860800e-03 9.67890500e-02
        2 -1    0    0  501    0 +0.0000000000e+00 +0.0000000000e+00 +4.6762544053e+02 4.6762544053e+02 0.0000000000e+00 0.0000e+00 1.0000e+00
       -2 -1    0    0    0  501 -0.0000000000e+00 -0.0000000000e+00 -8.2352911951e+01 8.2352911951e+01 0.0000000000e+00 0.0000e+00 -1.0000e+00
      -13  1    1    2    0    0 +9.4528547641e+01 +4.7189482766e+01 -3.9097030240e+01 1.1265465537e+02 0.0000000000e+00 0.0000e+00 -1.0000e+00
       13  1    1    2    0    0 -9.4528547641e+01 -4.7189482766e+01 +4.2436955882e+02 4.3732369711e+02 0.0000000000e+00 0.0000e+00 1.0000e+00
<mgrwt>
<rscale>  0 0.39248091E+03</rscale>
<asrwt>0</asrwt>
<pdfrwt beam="1">  1        2 0.71942374E-01 0.39248091E+03</pdfrwt>
<pdfrwt beam="2">  1       -2 0.12669679E-01 0.39248091E+03</pdfrwt>
<totfact> 0.32993000E+03</totfact>
</mgrwt>
<rwgt>
<wgt id='morphing_basis_vector_1'> +2.4023246e-04 </wgt>
<wgt id='morphing_basis_vector_2'> +1.2909029e-04 </wgt>
<wgt id='morphing_basis_vector_3'> +1.5260521e-04 </wgt>
<wgt id='morphing_basis_vector_4'> +3.2695693e-05 </wgt>
<wgt id='morphing_basis_vector_5'> +3.0958066e-05 </wgt>
</rwgt>
</event>
<event>
 4      1 +3.1894900e-05 3.61443600e+02 7.81860800e-03 9.77769100e-02
        2 -1    0    0  501    0 +0.0000000000e+00 +0.0000000000e+00 +7.8719708922e+02 7.8719708922e+02 0.0000000000e+00 0.0000e+00 -1.0000e+00
       -2 -1    0    0    0  501 -0.0000000000e+00 -0.0000000000e+00 -4.1489442846e+01 4.1489442846e+01 0.0000000000e+00 0.0000e+00 1.0000e+00
      -13  1    1    2    0    0 +6.4297898943e+01 +1.6578627974e+02 +4.4682921362e+02 4.8091127716e+02 0.0000000000e+00 0.0000e+00 1.0000e+00
       13  1    1    2    0    0 -6.4297898943e+01 -1.6578627974e+02 +2.9887843275e+02 3.4777525490e+02 0.0000000000e+00 0.0000e+00 -1.0000e+00
<mgrwt>
<rscale>  0 0.36144360E+03</rscale>
<asrwt>0</asrwt>
<pdfrwt beam="1">  1        2 0.12110723E+00 0.36144360E+03</pdfrwt>
<pdfrwt beam="2">  1       -2 0.63829918E-02 0.36144360E+03</pdfrwt>
<totfact> 0.51813693E+03</totfact>
</mgrwt>
<rwgt>
<wgt id='morphing_basis_vector_1'> +2.0622092e-04 </wgt>
<wgt id='morphing_basis_vector_2'> +1.3868912e-04 </wgt>
<wgt id='morphing_basis_vector_3'> +1.0681173e-04 </wgt>
<wgt id='morphing_basis_vector_4'> +2.5036836e-05 </wgt>
<wgt id='morphing_basis_vector_5'> +1.5347114e-05 </wgt>
</rwgt>
</event>
<event>
 4      1 +3.1894900e-05 3.67228100e+02 7.81860800e-03 9.75849000e-02
        2 -1    0    0  501    0 +0.0000000000e+00 +0.0000000000e+00 +3.5308218206e+02 3.5308218206e+02 0.0000000000e+00 0.0000e+00 1.0000e+00
       -2 -1    0    0    0  501 -0.0000000000e+00 -0.0000000000e+00 -9.5485188049e+01 9.5485188049e+01 0.0000000000e+00 0.0000e+00 -1.0000e+00
      -13  1    1    2    0    0 +7.2202171036e+01 +1.1743062802e+02 +2.7695238828e+02 3.0936342912e+02 0.0000000000e+00 0.0000e+00 -1.0000e+00
       13  1    1    2    0    0 -7.2202171036e+01 -1.1743062802e+02 -1.9355394275e+01 1.3920394099e+02 0.0000000000e+00 0.0000e+00 1.0000e+00
<mgrwt>
<rscale>  0 0.36722810E+03</rscale>
<asrwt>0</asrwt>
<pdfrwt beam="1">  1        2 0.54320335E-01 0.36722810E+03</pdfrwt>
<pdfrwt beam="2">  1       -2 0.14690029E-01 0.36722810E+03</pdfrwt>
<totfact> 0.35578232E+03</totfact>
</mgrwt>
<rwgt>
<wgt id='morphing_basis_vector_1'> +2.5274487e-04 </wgt>
<wgt id='morphing_basis_vector_2'> +2.5964252e-04 </wgt>
<wgt id='morphing_basis_vector_3'> +6.8919759e-05 </wgt>
<wgt id='morphing_basis_vector_4'> +3.5104830e-05 </wgt>
<wgt id='morphing_basis_vector_5'> +2.0384896e-05 </wgt>
</rwgt>
</event>
<event>
 4      1 +3.1894900e-05 3.92643700e+02 7.81860800e-03 9.67841300e-02
        2 -1    0    0  501    0 +0.0000000000e+00 +0.0000000000e+00 +1.2579468182e+03 1.2579468182e+03 0.0000000000e+00 0.0000e+00 1.0000e+00
       -2 -1    0    0    0  501 -0.0000000000e+00 -0.0000000000e+00 -3.0639027645e+01 3.0639027645e+01 0.0000000000e+00 0.0000e+00 -1.0000e+00
      -13  1    1    2    0    0 -3.7926983867e+01 +1.8898384410e+02 +7.3596137558e+02 7.6078413219e+02 0.0000000000e+00 0.0000e+00 -1.0000e+00
       13  1    1    2    0    0 +3.7926983867e+01 -1.8898384410e+02 +4.9134641502e+02 5.2780171371e+02 0.0000000000e+00 0.0000e+00 1.0000e+00
<mgrwt>
<rscale>  0 0.39264369E+03</rscale>
<asrwt>0</asrwt>
<pdfrwt beam="1">  1        2 0.19353024E+00 0.39264369E+03</pdfrwt>
<pdfrwt beam="2">  1       -2 0.47136975E-02 0.39264369E+03</pdfrwt>
<totfact> 0.42544798E+03</totfact>
</mgrwt>
<rwgt>
<wgt id='morphing_basis_vector_1'> +2.5511402e-04 </wgt>
<wgt id='morphing_basis_vector_2'> +1.7380407e-04 </wgt>
<wgt id='morphing_basis_vector_3'> +1.3836294e-04 </wgt>
<wgt id='morphing_basis_vector_4'> +3.4225931e-05 </wgt>
<wgt id='morphing_basis_vector_5'> +3.2027109e-05 </wgt>
</rwgt>
</event>
<event>
 4      1 +3.1894900e-05 3.65863100e+02 7.81860800e-03 9.76298600e-02
        2 -1    0    0  501    0 +0.0000000000e+00 +0.0000000000e+00 +9.7233208552e+01 9.7233208552e+01 0.0000000000e+00 0.0000e+00 1.0000e+00
       -2 -1    0    0    0  501 -0.0000000000e+00 -0.0000000000e+00 -3.4416178476e+02 3.4416178476e+02 0.0000000000e+00 0.0000e+00 -1.0000e+00
      -13  1    1    2    0    0 +1.2463406207e+01 -5.8678216526e+01 +8.5029712094e+01 1.0406018224e+02 0.0000000000e+00 0.0000e+00 1.0000e+00
       13  1    1    2    0    0 -1.2463406207e+01 +5.8678216526e+01 -3.3195828830e+02 3.3733481107e+02 0.0000000000e+00 0.0000e+00 -1.0000e+00
<mgrwt>
<rscale>  0 0.36586311E+03</rscale>
<asrwt>0</asrwt>
<pdfrwt beam="1">  1        2 0.14958955E-01 0.36586311E+03</pdfrwt>
<pdfrwt beam="2">  1       -2 0.52947966E-01 0.36586311E+03</pdfrwt>
<totfact> 0.16895487E+03</totfact>
</mgrwt>
<rwgt>
<wgt id='morphing_basis_vector_1'> +2.7179633e-04 </wgt>
<wgt id='morphing_basis_vector_2'> +3.2156566e-04 </wgt>
<wgt id='morphing_basis_vector_3'> +4.3416326e-05 </wgt>
<wgt id='morphing_basis_vector_4'> +3.9927636e-05 </wgt>
<wgt id='morphing_basis_vector_5'> +2.1132643e-05 </wgt>
</rwgt>
</event>
<event>
 4      1 +3.1894900e-05 3.96609300e+02 7.81860800e-03 9.66650400e-02
        2 -1    0    0  501    0 +0.0000000000e+00 +0.0000000000e+00 +4.5137068475e+02 4.5137068475e+02 0.0000000000e+00 0.0000e+00 -1.0000e+00
       -2 -1    0    0    0  501 -0.0000000000e+00 -0.0000000000e+00 -8.7122922335e+01 8.7122922335e+01 0.0000000000e+00 0.0000e+00 1.0000e+00
      -13  1    1    2    0    0 +1.4226905272e+02 +5.5444948263e+01 +1.0327192927e+01 1.5304011423e+02 0.0000000000e+00 0.0000e+00 1.0000e+00
       13  1    1    2    0    0 -1.4226905272e+02 -5.5444948263e+01 +3.5392056949e+02 3.8545349285e+02 0.0000000000e+00 0.0000e+00 -1.0000e+00
<mgrwt>
<rscale>  0 0.39660929E+03</rscale>
<asrwt>0</asrwt>
<pdfrwt beam="1">  1        2 0.69441642E-01 0.39660929E+03</pdfrwt>
<pdfrwt beam="2">  1       -2 0.13403527E-01 0.39660929E+03</pdfrwt>
<totfact> 0.31399800E+03</totfact>
</mgrwt>
<rwgt>
<wgt id='morphing_basis_vector_1'> +2.4724122e-04 </wgt>
<wgt id='morphing_basis_vector_2'> +1.3373929e-04 </wgt>
<wgt id='morphing_basis_vector_3'> +1.5725248e-04 </wgt>
<wgt id='morphing_basis_vector_4'> +3.4486493e-05 </wgt>
<wgt id='morphing_basis_vector_5'> +3.3734322e-05 </wgt>
</rwgt>
</event>
<event>
 4      1 +3.1894900e-05 4.13043600e+02 7.81860800e-03 9.61868700e-02
        2 -1    0    0  501    0 +0.0000000000e+00 +0.0000000000e+00 +8.2196841745e+02 8.2196841745e+02 0.0000000000e+00 0.0000e+00 1.0000e+00
       -2 -1    0    0    0  501 -0.0000000000e+00 -0.0000000000e+00 -5.1889174884e+01 5.1889174884e+01 0.0000000000e+00 0.0000e+00 -1.0000e+00
      -13  1    1    2    0    0 +7.3470404649e+01 +1.7806350778e+02 +2.2747307763e+02 2.9807467891e+02 0.0000000000e+00 0.0000e+00 -1.0000e+00
       13  1    1    2    0    0 -7.3470404649e+01 -1.7806350778e+02 +5.4260616493e+02 5.7578291342e+02 0.0000000000e+00 0.0000e+00 1.0000e+00
<mgrwt>
<rscale>  0 0.41304364E+03</rscale>
<asrwt>0</asrwt>
<pdfrwt beam="1">  1        2 0.12645667E+00 0.41304364E+03</pdfrwt>
<pdfrwt beam="2">  1       -2 0.79829505E-02 0.41304364E+03</pdfrwt>
<totfact> 0.34983388E+03</totfact>
</mgrwt>
<rwgt>
<wgt id='morphing_basis_vector_1'> +2.7702938e-04 </wgt>
<wgt id='morphing_basis_vector_2'> +1.5406179e-04 </wgt>
<wgt id='morphing_basis_vector_3'> +1.7725946e-04 </wgt>
<wgt id='morphing_basis_vector_4'> +4.2419223e-05 </wgt>
<wgt id='morphing_basis_vector_5'> +4.6301280e-05 </wgt>
</rwgt>
</event>
<event>
 4      1 +3.1894900e-05 4.09348800e+02 7.81860800e-03 9.62922900e-02
        2 -1    0    0  501    0 +0.0000000000e+00 +0.0000000000e+00 +2.8911637241e+02 2.8911637241e+02 0.0000000000e+00 0.0000e+00 -1.0000e+00
       -2 -1    0    0    0  501 -0.0000000000e+00 -0.0000000000e+00 -1.4489534160e+02 1.4489534160e+02 0.0000000000e+00 0.0000e+00 1.0000e+00
      -13  1    1    2    0    0 +6.2635504592e+01 +1.6395299168e+02 -3.9532380912e+01 1.7990719568e+02 0.0000000000e+00 0.0000e+00 1.0000e+00
       13  1    1    2    0    0 -6.2635504592e+01 -1.6395299168e+02 +1.8375341172e+02 2.5410451833e+02 0.0000000000e+00 0.0000e+00 -1.0000e+00
<mgrwt>
<rscale>  0 0.40934883E+03</rscale>
<asrwt>0</asrwt>
<pdfrwt beam="1">  1        2 0.44479442E-01 0.40934883E+03</pdfrwt>
<pdfrwt beam="2">  1       -2 0.22291591E-01 0.40934883E+03</pdfrwt>
<totfact> 0.22569149E+03</totfact>
</mgrwt>
<rwgt>
<wgt id='morphing_basis_vector_1'> +2.6935320e-04 </wgt>
<wgt id='morphing_basis_vector_2'> +1.4705789e-04 </wgt>
<wgt id='morphing_basis_vector_3'> +1.7317693e-04 </wgt>
<wgt id='morphing_basis_vector_4'> +4.0509855e-05 </wgt>
<wgt id='morphing_basis_vector_5'> +4.3212451e-05 </wgt>
</rwgt>
</event>
<event>
 4      1 +3.1894900e-05 4.09650000e+02 7.81860800e-03 9.62836500e-02
        2 -1    0    0  501    0 +0.0000000000e+00 +0.0000000000e+00 +8.7779927598e+02 8.7779927598e+02 0.0000000000e+00 0.0000e+00 -1.0000e+00
       -2 -1    0    0    0  501 -0.0000000000e+00 -0.0000000000e+00 -4.7793698294e+01 4.7793698294e+01 0.0000000000e+00 0.0000e+00 1.0000e+00
      -13  1    1    2    0    0 -5.4163975719e+01 -1.7858574840e+02 +2.2425900731e+02 2.9175110652e+02 0.0000000000e+00 0.0000e+00 1.0000e+00
       13  1    1    2    0    0 +5.4163975719e+01 +1.7858574840e+02 +6.0574657037e+02 6.3384186775e+02 0.0000000000e+00 0.0000e+00 -1.0000e+00
<mgrwt>
<rscale>  0 0.40964997E+03</rscale>
<asrwt>0</asrwt>
<pdfrwt beam="1">  1        2 0.13504603E+00 0.40964997E+03</pdfrwt>
<pdfrwt beam="2">  1       -2 0.73528773E-02 0.40964997E+03</pdfrwt>
<totfact> 0.36465474E+03</totfact>
</mgrwt>
<rwgt>
<wgt id='morphing_basis_vector_1'> +2.7052375e-04 </wgt>
<wgt id='morphing_basis_vector_2'> +1.4931132e-04 </wgt>
<wgt id='morphing_basis_vector_3'> +1.7301264e-04 </wgt>
<wgt id='morphing_basis_vector_4'> +4.0672656e-05 </wgt>
<wgt id='morphing_basis_vector_5'> +4.3494720e-05 </wgt>
</rwgt>
</event>
<event>
 4      1 +3.1894900e-05 4.18427300e+02 7.81860800e-03 9.60353500e-02
        2 -1    0    0  501    0 +0.0000000000e+00 +0.0000000000e+00 +8.8539845638e+02 8.8539845638e+02 0.0000000000e+00 0.0000e+00 1.0000e+00
       -2 -1    0    0    0  501 -0.0000000000e+00 -0.0000000000e+00 -4.9435762218e+01 4.9435762218e+01 0.0000000000e+00 0.0000e+00 -1.0000e+00
      -13  1    1    2    0    0 +1.6510796242e+02 -8.8776517614e+01 +2.1045143377e+02 2.8183632717e+02 0.0000000000e+00 0.0000e+00 -1.0000e+00
       13  1    1    2    0    0 -1.6510796242e+02 +8.8776517614e+01 +6.2551126039e+02 6.5299789143e+02 0.0000000000e+00 0.0000e+00 1.0000e+00
<mgrwt>
<rscale>  0 0.41842728E+03</rscale>
<asrwt>0</asrwt>
<pdfrwt beam="1">  1        2 0.13621514E+00 0.41842728E+03</pdfrwt>
<pdfrwt beam="2">  1       -2 0.76055025E-02 0.41842728E+03</pdfrwt>
<totfact> 0.34251677E+03</totfact>
</mgrwt>
<rwgt>
<wgt id='morphing_basis_vector_1'> +2.8622326e-04 </wgt>
<wgt id='morphing_basis_vector_2'> +1.5755040e-04 </wgt>
<wgt id='morphing_basis_vector_3'> +1.8541867e-04 </wgt>
<wgt id='morphing_basis_vector_4'> +4.5337561e-05 </wgt>
<wgt id='morphing_basis_vector_5'> +5.0893053e-05 </wgt>
</rwgt>
</event>
<event>
 4      1 +3.1894900e-05 4.07213900e+02 7.81860800e-03 9.63537400e-02
        2 -1    0    0  501    0 +0.0000000000e+00 +0.0000000000e+00 +7.7666959924e+02 7.7666959924e+02 0.0000000000e+00 0.0000e+00 -1.0000e+00
       -2 -1    0    0    0  501 -0.0000000000e+00 -0.0000000000e+00 -5.3376347773e+01 5.3376347773e+01 0.0000000000e+00 0.0000e+00 1.0000e+00
      -13  1    1    2    0    0 -1.3692841556e+02 +9.3103883713e+01 +1.2013772398e+02 2.0457467310e+02 0.0000000000e+00 0.0000e+00 1.0000e+00
       13  1    1    2    0    0 +1.3692841556e+02 -9.3103883713e+01 +6.0315552749e+02 6.2547127391e+02 0.0000000000e+00 0.0000e+00 -1.0000e+00
<mgrwt>
<rscale>  0 0.40721388E+03</rscale>
<asrwt>0</asrwt>
<pdfrwt beam="1">  1        2 0.11948762E+00 0.40721388E+03</pdfrwt>
<pdfrwt beam="2">  1       -2 0.82117464E-02 0.40721388E+03</pdfrwt>
<totfact> 0.35954116E+03</totfact>
</mgrwt>
<rwgt>
<wgt id='morphing_basis_vector_1'> +2.6531507e-04 </wgt>
<wgt id='morphing_basis_vector_2'> +1.4407830e-04 </wgt>
<wgt id='morphing_basis_vector_3'> +1.7059639e-04 </wgt>
<wgt id='morphing_basis_vector_4'> +3.9434169e-05 </wgt>
<wgt id='morphing_basis_vector_5'> +4.1507073e-05 </wgt>
</rwgt>
</event>
<event>
 4      1 +3.1894900e-05 4.17391100e+02 7.81860800e-03 9.60643300e-02
        2 -1    0    0  501    0 +0.0000000000e+00 +0.0000000000e+00 +1.3451261412e+03 1.3451261412e+03 0.0000000000e+00 0.0000e+00 -1.0000e+00
       -2 -1    0    0    0  501 -0.0000000000e+00 -0.0000000000e+00 -3.2378988147e+01 3.2378988147e+01 0.0000000000e+00 0.0000e+00 1.0000e+00
      -13  1    1    2    0    0 +9.9529661926e+01 +1.5106914537e+02 +3.1298982038e+02 3.6151164289e+02 0.0000000000e+00 0.0000e+00 1.0000e+00
       13  1    1    2    0    0 -9.9529661926e+01 -1.5106914537e+02 +9.9975733268e+02 1.0159934865e+03 0.0000000000e+00 0.0000e+00 -1.0000e+00
<mgrwt>
<rscale>  0 0.41739106E+03</rscale>
<asrwt>0</asrwt>
<pdfrwt beam="1">  1        2 0.20694244E+00 0.41739106E+03</pdfrwt>
<pdfrwt beam="2">  1       -2 0.49813838E-02 0.41739106E+03</pdfrwt>
<totfact> 0.35049726E+03</totfact>
</mgrwt>
<rwgt>
<wgt id='morphing_basis_vector_1'> +2.8395333e-04 </wgt>
<wgt id='morphing_basis_vector_2'> +1.5539959e-04 </wgt>
<wgt id='morphing_basis_vector_3'> +1.8423314e-04 </wgt>
<wgt id='morphing_basis_vector_4'> +4.4770081e-05 </wgt>
<wgt id='morphing_basis_vector_5'> +4.9957219e-05 </wgt>
</rwgt>
</event>
<event>
 4      1 +3.1894900e-05 3.92804600e+02 7.81860800e-03 9.67792700e-02
        2 -1    0    0  501    0 +0.0000000000e+00 +0.0000000000e+00 +9.3817461809e+01 9.3817461809e+01 0.0000000000e+00 0.0000e+00 -1.0000e+00
       -2 -1    0    0    0  501 -0.0000000000e+00 -0.0000000000e+00 -4.1115870919e+02 4.1115870919e+02 0.0000000000e+00 0.0000e+00 1.0000e+00
      -13  1    1    2    0    0 +6.5541666243e+01 +1.7067483220e+02 -2.5091172086e+02 3.1045498872e+02 0.0000000000e+00 0.0000e+00 1.0000e+00
       13  1    1    2    0    0 -6.5541666243e+01 -1.7067483220e+02 -6.6429526521e+01 1.9452118227e+02 0.0000000000e+00 0.0000e+00 -1.0000e+00
<mgrwt>
<rscale>  0 0.39280462E+03</rscale>
<asrwt>0</asrwt>
<pdfrwt beam="1">  1        2 0.14433456E-01 0.39280462E+03</pdfrwt>
<pdfrwt beam="2">  1       -2 0.63255185E-01 0.39280462E+03</pdfrwt>
<totfact> 0.12373898E+03</totfact>
</mgrwt>
<rwgt>
<wgt id='morphing_basis_vector_1'> +2.4243048e-04 </wgt>
<wgt id='morphing_basis_vector_2'> +1.3449433e-04 </wgt>
<wgt id='morphing_basis_vector_3'> +1.5133179e-04 </wgt>
<wgt id='morphing_basis_vector_4'> +3.2997450e-05 </wgt>
<wgt id='morphing_basis_vector_5'> +3.1279460e-05 </wgt>
</rwgt>
</event>
<event>
 4      1 +3.1894900e-05 4.18592700e+02 7.81860800e-03 9.60307400e-02
        2 -1    0    0  501    0 +0.0000000000e+00 +0.0000000000e+00 +6.5123351696e+02 6.5123351696e+02 0.0000000000e+00 0.0000e+00 -1.0000e+00
       -2 -1    0    0    0  501 -0.0000000000e+00 -0.0000000000e+00 -6.7264586988e+01 6.7264586988e+01 0.0000000000e+00 0.0000e+00 1.0000e+00
      -13  1    1    2    0    0 +3.5767043210e+01 -2.0025289239e+02 +2.0746811217e+02 2.9055725746e+02 0.0000000000e+00 0.0000e+00 1.0000e+00
       13  1    1    2    0    0 -3.5767043210e+01 +2.0025289239e+02 +3.7650081780e+02 4.2794084649e+02 0.0000000000e+00 0.0000e+00 -1.0000e+00
<mgrwt>
<rscale>  0 0.41859266E+03</rscale>
<asrwt>0</asrwt>
<pdfrwt beam="1">  1        2 0.10018977E+00 0.41859266E+03</pdfrwt>
<pdfrwt beam="2">  1       -2 0.10348398E-01 0.41859266E+03</pdfrwt>
<totfact> 0.31089189E+03</totfact>
</mgrwt>
<rwgt>
<wgt id='morphing_basis_vector_1'> +2.8874788e-04 </wgt>
<wgt id='morphing_basis_vector_2'> +1.6453479e-04 </wgt>
<wgt id='morphing_basis_vector_3'> +1.8379095e-04 </wgt>
<wgt id='morphing_basis_vector_4'> +4.5367885e-05 </wgt>
<wgt id='morphing_basis_vector_5'> +5.1178969e-05 </wgt>
</rwgt>
</event>
<event>
 4      1 +3.1894900e-05 4.27842200e+02 7.81860800e-03 9.57761000e-02
        2 -1    0    0  501    0 +0.0000000000e+00 +0.0000000000e+00 +1.1776473780e+02 1.1776473780e+02 0.0000000000e+00 0.0000e+00 -1.0000e+00
       -2 -1    0    0    0  501 -0.0000000000e+00 -0.0000000000e+00 -3.8859039445e+02 3.8859039445e+02 0.0000000000e+00 0.0000e+00 1.0000e+00
      -13  1    1    2    0    0 +1.0422883949e+02 -9.4141468872e+01 -3.2637990926e+02 3.5531691813e+02 0.0000000000e+00 0.0000e+00 1.0000e+00
       13  1    1    2    0    0 -1.0422883949e+02 +9.4141468872e+01 +5.5554252601e+01 1.5103821412e+02 0.0000000000e+00 0.0000e+00 -1.0000e+00
<mgrwt>
<rscale>  0 0.42784224E+03</rscale>
<asrwt>0</asrwt>
<pdfrwt beam="1">  1        2 0.18117652E-01 0.42784224E+03</pdfrwt>
<pdfrwt beam="2">  1       -2 0.59783138E-01 0.42784224E+03</pdfrwt>
<totfact> 0.10546966E+03</totfact>
</mgrwt>
<rwgt>
<wgt id='morphing_basis_vector_1'> +3.0286246e-04 </wgt>
<wgt id='morphing_basis_vector_2'> +1.6357338e-04 </wgt>
<wgt id='morphing_basis_vector_3'> +2.0043999e-04 </wgt>
<wgt id='morphing_basis_vector_4'> +5.0966552e-05 </wgt>
<wgt id='morphing_basis_vector_5'> +5.9606925e-05 </wgt>
</rwgt>
</event>
<event>
 4      1 +3.1894900e-05 3.88130600e+02 7.81860800e-03 9.69215000e-02
        2 -1    0    0  501    0 +0.0000000000e+00 +0.0000000000e+00 +1.0779862235e+02 1.0779862235e+02 0.0000000000e+00 0.0000e+00 1.0000e+00
       -2 -1    0    0    0  501 -0.0000000000e+00 -0.0000000000e+00 -3.4936748283e+02 3.4936748283e+02 0.0000000000e+00 0.0000e+00 -1.0000e+00
      -13  1    1    2    0    0 +3.8233958028e+01 -1.8630527928e+02 -1.6624826878e+02 2.5260637265e+02 0.0000000000e+00 0.0000e+00 -1.0000e+00
       13  1    1    2    0    0 -3.8233958028e+01 +1.8630527928e+02 -7.5320591700e+01 2.0455973252e+02 0.0000000000e+00 0.0000e+00 1.0000e+00
<mgrwt>
<rscale>  0 0.38813056E+03</rscale>
<asrwt>0</asrwt>
<pdfrwt beam="1">  1        2 0.16584403E-01 0.38813056E+03</pdfrwt>
<pdfrwt beam="2">  1       -2 0.53748844E-01 0.38813056E+03</pdfrwt>
<totfact> 0.14491713E+03</totfact>
</mgrwt>
<rwgt>
<wgt id='morphing_basis_vector_1'> +2.3673199e-04 </wgt>
<wgt id='morphing_basis_vector_2'> +1.3560069e-04 </wgt>
<wgt id='morphing_basis_vector_3'> +1.4412940e-04 </wgt>
<wgt id='morphing_basis_vector_4'> +3.1345981e-05 </wgt>
<wgt id='morphing_basis_vector_5'> +2.8433673e-05 </wgt>
</rwgt>
</event>
<event>
 4      1 +3.1894900e-05 3.62503600e+02 7.81860800e-03 9.77414400e-02
        2 -1    0    0  501    0 +0.0000000000e+00 +0.0000000000e+00 +6.7944098771e+02 6.7944098771e+02 0.0000000000e+00 0.0000e+00 1.0000e+00
       -2 -1    0    0    0  501 -0.0000000000e+00 -0.0000000000e+00 -4.8351822783e+01 4.8351822783e+01 0.0000000000e+00 0.0000e+00 -1.0000e+00
      -13  1    1    2    0    0 -1.6651433486e+02 +6.9045087933e+01 +3.5352975839e+02 3.9683439613e+02 0.0000000000e+00 0.0000e+00 -1.0000e+00
       13  1    1    2    0    0 +1.6651433486e+02 -6.9045087933e+01 +2.7755940654e+02 3.3095841436e+02 0.0000000000e+00 0.0000e+00 1.0000e+00
<mgrwt>
<rscale>  0 0.36250357E+03</rscale>
<asrwt>0</asrwt>
<pdfrwt beam="1">  1        2 0.10452938E+00 0.36250357E+03</pdfrwt>
<pdfrwt beam="2">  1       -2 0.74387424E-02 0.36250357E+03</pdfrwt>
<totfact> 0.49053950E+03</totfact>
</mgrwt>
<rwgt>
<wgt id='morphing_basis_vector_1'> +2.0513649e-04 </wgt>
<wgt id='morphing_basis_vector_2'> +1.3195135e-04 </wgt>
<wgt id='morphing_basis_vector_3'> +1.1075194e-04 </wgt>
<wgt id='morphing_basis_vector_4'> +2.4640306e-05 </wgt>
<wgt id='morphing_basis_vector_5'> +1.5626927e-05 </wgt>
</rwgt>
</event>
<event>
 4      1 +3.1894900e-05 3.62476200e+02 7.81860800e-03 9.77423500e-02
        2 -1    0    0  501    0 +0.0000000000e+00 +0.0000000000e+00 +9.6857237744e+02 9.6857237744e+02 0.0000000000e+00 0.0000e+00 -1.0000e+00
       -2 -1    0    0    0  501 -0.0000000000e+00 -0.0000000000e+00 -3.3913051286e+01 3.3913051286e+01 0.0000000000e+00 0.0000e+00 1.0000e+00
      -13  1    1    2    0    0 -5.0715021351e+00 -1.7860976018e+02 +3.8343951563e+02 4.2302840178e+02 0.0000000000e+00 0.0000e+00 1.0000e+00
       13  1    1    2    0    0 +5.0715021351e+00 +1.7860976018e+02 +5.5121981052e+02 5.7945702694e+02 0.0000000000e+00 0.0000e+00 -1.0000e+00
<mgrwt>
<rscale>  0 0.36247618E+03</rscale>
<asrwt>0</asrwt>
<pdfrwt beam="1">  1        2 0.14901111E+00 0.36247618E+03</pdfrwt>
<pdfrwt beam="2">  1       -2 0.52173932E-02 0.36247618E+03</pdfrwt>
<totfact> 0.53702502E+03</totfact>
</mgrwt>
<rwgt>
<wgt id='morphing_basis_vector_1'> +1.9957085e-04 </wgt>
<wgt id='morphing_basis_vector_2'> +1.1530520e-04 </wgt>
<wgt id='morphing_basis_vector_3'> +1.1711986e-04 </wgt>
<wgt id='morphing_basis_vector_4'> +2.3251495e-05 </wgt>
<wgt id='morphing_basis_vector_5'> +1.5256857e-05 </wgt>
</rwgt>
</event>
<event>
 4      1 +3.1894900e-05 3.67726100e+02 7.81860800e-03 9.75685500e-02
        2 -1    0    0  501    0 +0.0000000000e+00 +0.0000000000e+00 +3.6827748198e+02 3.6827748198e+02 0.0000000000e+00 0.0000e+00 -1.0000e+00
       -2 -1    0    0    0  501 -0.0000000000e+00 -0.0000000000e+00 -9.1793883222e+01 9.1793883222e+01 0.0000000000e+00 0.0000e+00 1.0000e+00
      -13  1    1    2    0    0 +1.4151364462e+02 +2.2220557053e+01 -5.9677037566e+00 1.4337181821e+02 0.0000000000e+00 0.0000e+00 1.0000e+00
       13  1    1    2    0    0 -1.4151364462e+02 -2.2220557053e+01 +2.8245130252e+02 3.1669954699e+02 0.0000000000e+00 0.0000e+00 -1.0000e+00
<mgrwt>
<rscale>  0 0.36772609E+03</rscale>
<asrwt>0</asrwt>
<pdfrwt beam="1">  1        2 0.56658073E-01 0.36772609E+03</pdfrwt>
<pdfrwt beam="2">  1       -2 0.14122136E-01 0.36772609E+03</pdfrwt>
<totfact> 0.36154795E+03</totfact>
</mgrwt>
<rwgt>
<wgt id='morphing_basis_vector_1'> +2.0385162e-04 </wgt>
<wgt id='morphing_basis_vector_2'> +1.1053944e-04 </wgt>
<wgt id='morphing_basis_vector_3'> +1.2544101e-04 </wgt>
<wgt id='morphing_basis_vector_4'> +2.4019173e-05 </wgt>
<wgt id='morphing_basis_vector_5'> +1.7367141e-05 </wgt>
</rwgt>
</event>
<event>
 4      1 +3.1894900e-05 3.68932600e+02 7.81860800e-03 9.75290500e-02
        2 -1    0    0  501    0 +0.0000000000e+00 +0.0000000000e+00 +1.2006454944e+02 1.2006454944e+02 0.0000000000e+00 0.0000e+00 -1.0000e+00
       -2 -1    0    0    0  501 -0.0000000000e+00 -0.0000000000e+00 -2.8341272920e+02 2.8341272920e+02 0.0000000000e+00 0.0000e+00 1.0000e+00
      -13  1    1    2    0    0 -5.0505072440e+01 -1.4584114900e+02 -1.9216587116e+02 2.4647134747e+02 0.0000000000e+00 0.0000e+00 1.0000e+00
       13  1    1    2    0    0 +5.0505072440e+01 +1.4584114900e+02 +2.8817691405e+01 1.5700593117e+02 0.0000000000e+00 0.0000e+00 -1.0000e+00
<mgrwt>
<rscale>  0 0.36893263E+03</rscale>
<asrwt>0</asrwt>
<pdfrwt beam="1">  1        2 0.18471469E-01 0.36893263E+03</pdfrwt>
<pdfrwt beam="2">  1       -2 0.43601958E-01 0.36893263E+03</pdfrwt>
<totfact> 0.19000969E+03</totfact>
</mgrwt>
<rwgt>
<wgt id='morphing_basis_vector_1'> +2.0574147e-04 </wgt>
<wgt id='morphing_basis_vector_2'> +1.1209336e-04 </wgt>
<wgt id='morphing_basis_vector_3'> +1.2638127e-04 </wgt>
<wgt id='morphing_basis_vector_4'> +2.4424376e-05 </wgt>
<wgt id='morphing_basis_vector_5'> +1.7936786e-05 </wgt>
</rwgt>
</event>
<event>
 4      1 +3.1894900e-05 4.03687600e+02 7.81860800e-03 9.64561200e-02
        2 -1    0    0  501    0 +0.0000000000e+00 +0.0000000000e+00 +1.0542237045e+03 1.0542237045e+03 0.0000000000e+00 0.0000e+00 1.0000e+00
       -2 -1    0    0    0  501 -0.0000000000e+00 -0.0000000000e+00 -3.8645429757e+01 3.8645429757e+01 0.0000000000e+00 0.0000e+00 -1.0000e+00
      -13  1    1    2    0    0 -1.8856466642e+02 +6.0109764088e+01 +6.1509566326e+02 6.4615206579e+02 0.0000000000e+00 0.0000e+00 -1.0000e+00
       13  1    1    2    0    0 +1.8856466642e+02 -6.0109764088e+01 +4.0048261148e+02 4.4671706847e+02 0.0000000000e+00 0.0000e+00 1.0000e+00
<mgrwt>
<rscale>  0 0.40368764E+03</rscale>
<asrwt>0</asrwt>
<pdfrwt beam="1">  1        2 0.16218824E+00 0.40368764E+03</pdfrwt>
<pdfrwt beam="2">  1       -2 0.59454515E-02 0.40368764E+03</pdfrwt>
<totfact> 0.39237379E+03</totfact>
</mgrwt>
<rwgt>
<wgt id='morphing_basis_vector_1'> +2.7488827e-04 </wgt>
<wgt id='morphing_basis_vector_2'> +1.8861756e-04 </wgt>
<wgt id='morphing_basis_vector_3'> +1.5151373e-04 </wgt>
<wgt id='morphing_basis_vector_4'> +3.8431188e-05 </wgt>
<wgt id='morphing_basis_vector_5'> +3.9829852e-05 </wgt>
</rwgt>
</event>
<event>
 4      1 +3.1894900e-05 4.08484800e+02 7.81860800e-03 9.63171100e-02
        2 -1    0    0  501    0 +0.0000000000e+00 +0.0000000000e+00 +5.0962972117e+02 5.0962972117e+02 0.0000000000e+00 0.0000e+00 -1.0000e+00
       -2 -1    0    0    0  501 -0.0000000000e+00 -0.0000000000e+00 -8.1853483289e+01 8.1853483289e+01 0.0000000000e+00 0.0000e+00 1.0000e+00
      -13  1    1    2    0    0 +2.2747704509e+01 +8.2626606507e+01 -5.4558825756e+01 1.0159369878e+02 0.0000000000e+00 0.0000e+00 1.0000e+00
       13  1    1    2    0    0 -2.2747704509e+01 -8.2626606507e+01 +4.8233506364e+02 4.8988950568e+02 0.0000000000e+00 0.0000e+00 -1.0000e+00
<mgrwt>
<rscale>  0 0.40848485E+03</rscale>
<asrwt>0</asrwt>
<pdfrwt beam="1">  1        2 0.78404571E-01 0.40848485E+03</pdfrwt>
<pdfrwt beam="2">  1       -2 0.12592844E-01 0.40848485E+03</pdfrwt>
<totfact> 0.30277190E+03</totfact>
</mgrwt>
<rwgt>
<wgt id='morphing_basis_vector_1'> +2.6691567e-04 </wgt>
<wgt id='morphing_basis_vector_2'> +1.4340372e-04 </wgt>
<wgt id='morphing_basis_vector_3'> +1.7284289e-04 </wgt>
<wgt id='morphing_basis_vector_4'> +4.0054919e-05 </wgt>
<wgt id='morphing_basis_vector_5'> +4.2465913e-05 </wgt>
</rwgt>
</event>
<event>
 4      1 +3.1894900e-05 3.96053500e+02 7.81860800e-03 9.66816400e-02
        2 -1    0    0  501    0 +0.0000000000e+00 +0.0000000000e+00 +5.3432416535e+02 5.3432416535e+02 0.0000000000e+00 0.0000e+00 1.0000e+00
       -2 -1    0    0    0  501 -0.0000000000e+00 -0.0000000000e+00 -7.3391032463e+01 7.3391032463e+01 0.0000000000e+00 0.0000e+00 -1.0000e+00
      -13  1    1    2    0    0 -1.7161996665e+02 +4.8976298666e+01 +9.8804949444e+01 2.0399634511e+02 0.0000000000e+00 0.0000e+00 -1.0000e+00
       13  1    1    2    0    0 +1.7161996665e+02 -4.8976298666e+01 +3.6212818344e+02 4.0371885270e+02 0.0000000000e+00 0.0000e+00 1.0000e+00
<mgrwt>
<rscale>  0 0.39605354E+03</rscale>
<asrwt>0</asrwt>
<pdfrwt beam="1">  1        2 0.82203715E-01 0.39605354E+03</pdfrwt>
<pdfrwt beam="2">  1       -2 0.11290928E-01 0.39605354E+03</pdfrwt>
<totfact> 0.34048773E+03</totfact>
</mgrwt>
<rwgt>
<wgt id='morphing_basis_vector_1'> +2.4722233e-04 </wgt>
<wgt id='morphing_basis_vector_2'> +1.3595813e-04 </wgt>
<wgt id='morphing_basis_vector_3'> +1.5571287e-04 </wgt>
<wgt id='morphing_basis_vector_4'> +3.4318471e-05 </wgt>
<wgt id='morphing_basis_vector_5'> +3.3413383e-05 </wgt>
</rwgt>
</event>
<event>
 4      1 +3.1894900e-05 3.71946300e+02 7.81860800e-03 9.74310800e-02
        2 -1    0    0  501    0 +0.0000000000e+00 +0.0000000000e+00 +1.1195590117e+02 1.1195590117e+02 0.0000000000e+00 0.0000e+00 1.0000e+00
       -2 -1    0    0    0  501 -0.0000000000e+00 -0.0000000000e+00 -3.0892528702e+02 3.0892528702e+02 0.0000000000e+00 0.0000e+00 -1.0000e+00
      -13  1    1    2    0    0 +9.6974308163e+01 -3.6473787970e+01 -2.7324329274e+02 2.9222636890e+02 0.0000000000e+00 0.0000e+00 -1.0000e+00
       13  1    1    2    0    0 -9.6974308163e+01 +3.6473787970e+01 +7.6273906895e+01 1.2865481929e+02 0.0000000000e+00 0.0000e+00 1.0000e+00
<mgrwt>
<rscale>  0 0.37194628E+03</rscale>
<asrwt>0</asrwt>
<pdfrwt beam="1">  1        2 0.17223985E-01 0.37194628E+03</pdfrwt>
<pdfrwt beam="2">  1       -2 0.47526967E-01 0.37194628E+03</pdfrwt>
<totfact> 0.17558527E+03</totfact>
</mgrwt>
<rwgt>
<wgt id='morphing_basis_vector_1'> +2.0942949e-04 </wgt>
<wgt id='morphing_basis_vector_2'> +1.1272911e-04 </wgt>
<wgt id='morphing_basis_vector_3'> +1.2999218e-04 </wgt>
<wgt id='morphing_basis_vector_4'> +2.5233329e-05 </wgt>
<wgt id='morphing_basis_vector_5'> +1.9334742e-05 </wgt>
</rwgt>
</event>
<event>
 4      1 +3.1894900e-05 3.79601500e+02 7.81860800e-03 9.71866600e-02
        2 -1    0    0  501    0 +0.0000000000e+00 +0.0000000000e+00 +5.7213608941e+02 5.7213608941e+02 0.0000000000e+00 0.0000e+00 -1.0000e+00
       -2 -1    0    0    0  501 -0.0000000000e+00 -0.0000000000e+00 -6.2964594901e+01 6.2964594901e+01 0.0000000000e+00 0.0000e+00 1.0000e+00
      -13  1    1    2    0    0 +1.1594088576e+02 -6.0081582402e+01 +2.4137231666e+01 1.3279567571e+02 0.0000000000e+00 0.0000e+00 1.0000e+00
       13  1    1    2    0    0 -1.1594088576e+02 +6.0081582402e+01 +4.8503426285e+02 5.0230500860e+02 0.0000000000e+00 0.0000e+00 -1.0000e+00
<mgrwt>
<rscale>  0 0.37960146E+03</rscale>
<asrwt>0</asrwt>
<pdfrwt beam="1">  1        2 0.88020933E-01 0.37960146E+03</pdfrwt>
<pdfrwt beam="2">  1       -2 0.96868611E-02 0.37960146E+03</pdfrwt>
<totfact> 0.39952331E+03</totfact>
</mgrwt>
<rwgt>
<wgt id='morphing_basis_vector_1'> +2.2060172e-04 </wgt>
<wgt id='morphing_basis_vector_2'> +1.1894588e-04 </wgt>
<wgt id='morphing_basis_vector_3'> +1.3787267e-04 </wgt>
<wgt id='morphing_basis_vector_4'> +2.7791265e-05 </wgt>
<wgt id='morphing_basis_vector_5'> +2.3287335e-05 </wgt>
</rwgt>
</event>
<event>
 4      1 +3.1894900e-05 3.80541900e+02 7.81860800e-03 9.71570600e-02
        2 -1    0    0  501    0 +0.0000000000e+00 +0.0000000000e+00 +1.1805263685e+03 1.1805263685e+03 0.0000000000e+00 0.0000e+00 1.0000e+00
       -2 -1    0    0    0  501 -0.0000000000e+00 -0.0000000000e+00 -3.0666850250e+01 3.0666850250e+01 0.0000000000e+00 0.0000e+00 -1.0000e+00
      -13  1    1    2    0    0 -1.7514031297e-01 +1.8951737300e+02 +6.2877105174e+02 6.5671142891e+02 0.0000000000e+00 0.0000e+00 1.0000e+00
       13  1    1    2    0    0 +1.7514031297e-01 -1.8951737300e+02 +5.2108846653e+02 5.5448178987e+02 0.0000000000e+00 0.0000e+00 -1.0000e+00
<mgrwt>
<rscale>  0 0.38054185E+03</rscale>
<asrwt>0</asrwt>
<pdfrwt beam="1">  1        2 0.18161941E+00 0.38054185E+03</pdfrwt>
<pdfrwt beam="2">  1       -2 0.47179779E-02 0.38054185E+03</pdfrwt>
<totfact> 0.46949149E+03</totfact>
</mgrwt>
<rwgt>
<wgt id='morphing_basis_vector_1'> +2.3124470e-04 </wgt>
<wgt id='morphing_basis_vector_2'> +1.4774957e-04 </wgt>
<wgt id='morphing_basis_vector_3'> +1.2912627e-04 </wgt>
<wgt id='morphing_basis_vector_4'> +2.9604839e-05 </wgt>
<wgt id='morphing_basis_vector_5'> +2.4415100e-05 </wgt>
</rwgt>
</event>
<event>
 4      1 +3.1894900e-05 3.69302200e+02 7.81860800e-03 9.75169800e-02
        2 -1    0    0  501    0 +0.0000000000e+00 +0.0000000000e+00 +9.5394155159e+01 9.5394155159e+01 0.0000000000e+00 0.0000e+00 -1.0000e+00
       -2 -1    0    0    0  501 -0.0000000000e+00 -0.0000000000e+00 -3.5742269542e+02 3.5742269542e+02 0.0000000000e+00 0.0000e+00 1.0000e+00
      -13  1    1    2    0    0 +8.6851710686e+01 +2.2133176668e+00 -3.3079604591e+02 3.4201482777e+02 0.0000000000e+00 0.0000e+00 1.0000e+00
       13  1    1    2    0    0 -8.6851710686e+01 -2.2133176668e+00 +6.8767505653e+01 1.1080202281e+02 0.0000000000e+00 0.0000e+00 -1.0000e+00
<mgrwt>
<rscale>  0 0.36930224E+03</rscale>
<asrwt>0</asrwt>
<pdfrwt beam="1">  1        2 0.14676024E-01 0.36930224E+03</pdfrwt>
<pdfrwt beam="2">  1       -2 0.54988108E-01 0.36930224E+03</pdfrwt>
<totfact> 0.16056498E+03</totfact>
</mgrwt>
<rwgt>
<wgt id='morphing_basis_vector_1'> +2.0569838e-04 </wgt>
<wgt id='morphing_basis_vector_2'> +1.1068643e-04 </wgt>
<wgt id='morphing_basis_vector_3'> +1.2737076e-04 </wgt>
<wgt id='morphing_basis_vector_4'> +2.4414261e-05 </wgt>
<wgt id='morphing_basis_vector_5'> +1.8072432e-05 </wgt>
</rwgt>
</event>
<event>
 4      1 +3.1894900e-05 4.13181100e+02 7.81860800e-03 9.61829800e-02
        2 -1    0    0  501    0 +0.0000000000e+00 +0.0000000000e+00 +7.3051398015e+02 7.3051398015e+02 0.0000000000e+00 0.0000e+00 -1.0000e+00
       -2 -1    0    0    0  501 -0.0000000000e+00 -0.0000000000e+00 -5.8424134068e+01 5.8424134068e+01 0.0000000000e+00 0.0000e+00 1.0000e+00
      -13  1    1    2    0    0 -1.8748065689e+01 +2.0266552787e+02 +4.0368386544e+02 4.5209011200e+02 0.0000000000e+00 0.0000e+00 1.0000e+00
       13  1    1    2    0    0 +1.8748065689e+01 -2.0266552787e+02 +2.6840598064e+02 3.3684800221e+02 0.0000000000e+00 0.0000e+00 -1.0000e+00
<mgrwt>
<rscale>  0 0.41318106E+03</rscale>
<asrwt>0</asrwt>
<pdfrwt beam="1">  1        2 0.11238676E+00 0.41318106E+03</pdfrwt>
<pdfrwt beam="2">  1       -2 0.89883288E-02 0.41318106E+03</pdfrwt>
<totfact> 0.33727765E+03</totfact>
</mgrwt>
<rwgt>
<wgt id='morphing_basis_vector_1'> +2.9119267e-04 </wgt>
<wgt id='morphing_basis_vector_2'> +1.9689508e-04 </wgt>
<wgt id='morphing_basis_vector_3'> +1.6532159e-04 </wgt>
<wgt id='morphing_basis_vector_4'> +4.2469727e-05 </wgt>
<wgt id='morphing_basis_vector_5'> +4.7301545e-05 </wgt>
</rwgt>
</event>
<event>
 4      1 +3.1894900e-05 3.91475800e+02 7.81860800e-03 9.68194900e-02
        2 -1    0    0  501    0 +0.0000000000e+00 +0.0000000000e+00 +8.3903805604e+01 8.3903805604e+01 0.0000000000e+00 0.0000e+00 -1.0000e+00
       -2 -1    0    0    0  501 -0.0000000000e+00 -0.0000000000e+00 -4.5663383728e+02 4.5663383728e+02 0.0000000000e+00 0.0000e+00 1.0000e+00
      -13  1    1    2    0    0 -1.5263055957e+02 +9.8822165192e+01 -2.8642466627e+02 3.3926537916e+02 0.0000000000e+00 0.0000e+00 1.0000e+00
       13  1    1    2    0    0 +1.5263055957e+02 -9.8822165192e+01 -8.6305365408e+01 2.0127226373e+02 0.0000000000e+00 0.0000e+00 -1.0000e+00
<mgrwt>
<rscale>  0 0.39147576E+03</rscale>
<asrwt>0</asrwt>
<pdfrwt beam="1">  1        2 0.12908278E-01 0.39147576E+03</pdfrwt>
<pdfrwt beam="2">  1       -2 0.70251359E-01 0.39147576E+03</pdfrwt>
<totfact> 0.11411832E+03</totfact>
</mgrwt>
<rwgt>
<wgt id='morphing_basis_vector_1'> +2.4026269e-04 </wgt>
<wgt id='morphing_basis_vector_2'> +1.3319197e-04 </wgt>
<wgt id='morphing_basis_vector_3'> +1.4979727e-04 </wgt>
<wgt id='morphing_basis_vector_4'> +3.2452558e-05 </wgt>
<wgt id='morphing_basis_vector_5'> +3.0416975e-05 </wgt>
</rwgt>
</event>
<event>
 4      1 +3.1894900e-05 3.64101500e+02 7.81860800e-03 9.76882000e-02
        2 -1    0    0  501    0 +0.0000000000e+00 +0.0000000000e+00 +1.1219295539e+02 1.1219295539e+02 0.0000000000e+00 0.0000e+00 1.0000e+00
       -2 -1    0    0    0  501 -0.0000000000e+00 -0.0000000000e+00 -2.9540610986e+02 2.9540610986e+02 0.0000000000e+00 0.0000e+00 -1.0000e+00
      -13  1    1    2    0    0 +9.2501526891e+01 -6.3505741974e+01 -2.5209657689e+02 2.7593875374e+02 0.0000000000e+00 0.0000e+00 -1.0000e+00
       13  1    1    2    0    0 -9.2501526891e+01 +6.3505741974e+01 +6.8883422423e+01 1.3166031150e+02 0.0000000000e+00 0.0000e+00 1.0000e+00
<mgrwt>
<rscale>  0 0.36410155E+03</rscale>
<asrwt>0</asrwt>
<pdfrwt beam="1">  1        2 0.17260454E-01 0.36410155E+03</pdfrwt>
<pdfrwt beam="2">  1       -2 0.45447095E-01 0.36410155E+03</pdfrwt>
<totfact> 0.19058243E+03</totfact>
</mgrwt>
<rwgt>
<wgt id='morphing_basis_vector_1'> +1.9866309e-04 </wgt>
<wgt id='morphing_basis_vector_2'> +1.0717226e-04 </wgt>
<wgt id='morphing_basis_vector_3'> +1.2222570e-04 </wgt>
<wgt id='morphing_basis_vector_4'> +2.2925855e-05 </wgt>
<wgt id='morphing_basis_vector_5'> +1.5746080e-05 </wgt>
</rwgt>
</event>
<event>
 4      1 +3.1894900e-05 3.77337200e+02 7.81860800e-03 9.72583100e-02
        2 -1    0    0  501    0 +0.0000000000e+00 +0.0000000000e+00 +2.6583343657e+02 2.6583343657e+02 0.0000000000e+00 0.0000e+00 1.0000e+00
       -2 -1    0    0    0  501 -0.0000000000e+00 -0.0000000000e+00 -1.3390279656e+02 1.3390279656e+02 0.0000000000e+00 0.0000e+00 -1.0000e+00
      -13  1    1    2    0    0 -1.3205701190e+02 -4.6803177429e+01 -6.7892990505e+01 1.5568895262e+02 0.0000000000e+00 0.0000e+00 -1.0000e+00
       13  1    1    2    0    0 +1.3205701190e+02 +4.6803177429e+01 +1.9982363052e+02 2.4404728051e+02 0.0000000000e+00 0.0000e+00 1.0000e+00
<mgrwt>
<rscale>  0 0.37733720E+03</rscale>
<asrwt>0</asrwt>
<pdfrwt beam="1">  1        2 0.40897452E-01 0.37733720E+03</pdfrwt>
<pdfrwt beam="2">  1       -2 0.20600430E-01 0.37733720E+03</pdfrwt>
<totfact> 0.28191921E+03</totfact>
</mgrwt>
<rwgt>
<wgt id='morphing_basis_vector_1'> +2.1737954e-04 </wgt>
<wgt id='morphing_basis_vector_2'> +1.1748456e-04 </wgt>
<wgt id='morphing_basis_vector_3'> +1.3534528e-04 </wgt>
<wgt id='morphing_basis_vector_4'> +2.7030200e-05 </wgt>
<wgt id='morphing_basis_vector_5'> +2.2080576e-05 </wgt>
</rwgt>
</event>
<event>
 4      1 +3.1894900e-05 3.65923000e+02 7.81860800e-03 9.76278900e-02
        2 -1    0    0  501    0 +0.0000000000e+00 +0.0000000000e+00 +2.7360671576e+02 2.7360671576e+02 0.0000000000e+00 0.0000e+00 -1.0000e+00
       -2 -1    0    0    0  501 -0.0000000000e+00 -0.0000000000e+00 -1.2234682886e+02 1.2234682886e+02 0.0000000000e+00 0.0000e+00 1.0000e+00
      -13  1    1    2    0    0 +7.3265568878e+01 +1.6560413497e+02 +1.0389534854e+02 2.0877455916e+02 0.0000000000e+00 0.0000e+00 1.0000e+00
       13  1    1    2    0    0 -7.3265568878e+01 -1.6560413497e+02 +4.7364538357e+01 1.8717898546e+02 0.0000000000e+00 0.0000e+00 -1.0000e+00
<mgrwt>
<rscale>  0 0.36592302E+03</rscale>
<asrwt>0</asrwt>
<pdfrwt beam="1">  1        2 0.42093341E-01 0.36592302E+03</pdfrwt>
<pdfrwt beam="2">  1       -2 0.18822589E-01 0.36592302E+03</pdfrwt>
<totfact> 0.31635626E+03</totfact>
</mgrwt>
<rwgt>
<wgt id='morphing_basis_vector_1'> +2.1125664e-04 </wgt>
<wgt id='morphing_basis_vector_2'> +1.3898191e-04 </wgt>
<wgt id='morphing_basis_vector_3'> +1.1245300e-04 </wgt>
<wgt id='morphing_basis_vector_4'> +2.5799032e-05 </wgt>
<wgt id='morphing_basis_vector_5'> +1.7201850e-05 </wgt>
</rwgt>
</event>
<event>
 4      1 +3.1894900e-05 3.66888600e+02 7.81860800e-03 9.75960700e-02
        2 -1    0    0  501    0 +0.0000000000e+00 +0.0000000000e+00 +9.0287301161e+02 9.0287301161e+02 0.0000000000e+00 0.0000e+00 -1.0000e+00
       -2 -1    0    0    0  501 -0.0000000000e+00 -0.0000000000e+00 -3.7271911898e+01 3.7271911898e+01 0.0000000000e+00 0.0000e+00 1.0000e+00
      -13  1    1    2    0    0 +1.6051466527e+02 -2.8652436670e+01 +2.1740145534e+02 2.7175230022e+02 0.0000000000e+00 0.0000e+00 1.0000e+00
       13  1    1    2    0    0 -1.6051466527e+02 +2.8652436670e+01 +6.4819964438e+02 6.6839262329e+02 0.0000000000e+00 0.0000e+00 -1.0000e+00
<mgrwt>
<rscale>  0 0.36688856E+03</rscale>
<asrwt>0</asrwt>
<pdfrwt beam="1">  1        2 0.13890352E+00 0.36688856E+03</pdfrwt>
<pdfrwt beam="2">  1       -2 0.57341410E-02 0.36688856E+03</pdfrwt>
<totfact> 0.51185138E+03</totfact>
</mgrwt>
<rwgt>
<wgt id='morphing_basis_vector_1'> +2.0326917e-04 </wgt>
<wgt id='morphing_basis_vector_2'> +1.1164264e-04 </wgt>
<wgt id='morphing_basis_vector_3'> +1.2397913e-04 </wgt>
<wgt id='morphing_basis_vector_4'> +2.3905027e-05 </wgt>
<wgt id='morphing_basis_vector_5'> +1.7025151e-05 </wgt>
</rwgt>
</event>
<event>
 4      1 +3.1894900e-05 4.11721200e+02 7.81860800e-03 9.62244700e-02
        2 -1    0    0  501    0 +0.0000000000e+00 +0.0000000000e+00 +6.8771917150e+02 6.8771917150e+02 0.0000000000e+00 0.0000e+00 1.0000e+00
       -2 -1    0    0    0  501 -0.0000000000e+00 -0.0000000000e+00 -6.1621939120e+01 6.1621939120e+01 0.0000000000e+00 0.0000e+00 -1.0000e+00
      -13  1    1    2    0    0 -8.8957328784e+01 -1.8510378834e+02 +3.3890124679e+02 3.9627121253e+02 0.0000000000e+00 0.0000e+00 -1.0000e+00
       13  1    1    2    0    0 +8.8957328784e+01 +1.8510378834e+02 +2.8719598559e+02 3.5306989809e+02 0.0000000000e+00 0.0000e+00 1.0000e+00
<mgrwt>
<rscale>  0 0.41172121E+03</rscale>
<asrwt>0</asrwt>
<pdfrwt beam="1">  1        2 0.10580294E+00 0.41172121E+03</pdfrwt>
<pdfrwt beam="2">  1       -2 0.94802988E-02 0.41172121E+03</pdfrwt>
<totfact> 0.33396173E+03</totfact>
</mgrwt>
<rwgt>
<wgt id='morphing_basis_vector_1'> +2.8364511e-04 </wgt>
<wgt id='morphing_basis_vector_2'> +1.8030926e-04 </wgt>
<wgt id='morphing_basis_vector_3'> +1.6752636e-04 </wgt>
<wgt id='morphing_basis_vector_4'> +4.1783936e-05 </wgt>
<wgt id='morphing_basis_vector_5'> +4.5779937e-05 </wgt>
</rwgt>
</event>
<event>
 4      1 +3.1894900e-05 3.93849100e+02 7.81860800e-03 9.67477700e-02
        2 -1    0    0  501    0 +0.0000000000e+00 +0.0000000000e+00 +1.7054848928e+02 1.7054848928e+02 0.0000000000e+00 0.0000e+00 -1.0000e+00
       -2 -1    0    0    0  501 -0.0000000000e+00 -0.0000000000e+00 -2.2737981919e+02 2.2737981919e+02 0.0000000000e+00 0.0000e+00 1.0000e+00
      -13  1    1    2    0    0 +1.1864293377e+02 +1.2744140861e+02 -1.2135659119e+02 2.1223779255e+02 0.0000000000e+00 0.0000e+00 1.0000e+00
       13  1    1    2    0    0 -1.1864293377e+02 -1.2744140861e+02 +6.4525261280e+01 1.8569051593e+02 0.0000000000e+00 0.0000e+00 -1.0000e+00
<mgrwt>
<rscale>  0 0.39384913E+03</rscale>
<asrwt>0</asrwt>
<pdfrwt beam="1">  1        2 0.26238229E-01 0.39384913E+03</pdfrwt>
<pdfrwt beam="2">  1       -2 0.34981511E-01 0.39384913E+03</pdfrwt>
<totfact> 0.18852051E+03</totfact>
</mgrwt>
<rwgt>
<wgt id='morphing_basis_vector_1'> +2.4344135e-04 </wgt>
<wgt id='morphing_basis_vector_2'> +1.3337619e-04 </wgt>
<wgt id='morphing_basis_vector_3'> +1.5324046e-04 </wgt>
<wgt id='morphing_basis_vector_4'> +3.3365601e-05 </wgt>
<wgt id='morphing_basis_vector_5'> +3.1921510e-05 </wgt>
</rwgt>
</event>
<event>
 4      1 +3.1894900e-05 3.77615200e+02 7.81860800e-03 9.72494800e-02
        2 -1    0    0  501    0 +0.0000000000e+00 +0.0000000000e+00 +1.5108822108e+02 1.5108822108e+02 0.0000000000e+00 0.0000e+00 -1.0000e+00
       -2 -1    0    0    0  501 -0.0000000000e+00 -0.0000000000e+00 -2.3594363174e+02 2.3594363174e+02 0.0000000000e+00 0.0000e+00 1.0000e+00
      -13  1    1    2    0    0 +1.1483749963e+02 +8.6177959484e+01 -1.6809860367e+02 2.2106884127e+02 0.0000000000e+00 0.0000e+00 1.0000e+00
       13  1    1    2    0    0 -1.1483749963e+02 -8.6177959484e+01 +8.3243193008e+01 1.6596301156e+02 0.0000000000e+00 0.0000e+00 -1.0000e+00
<mgrwt>
<rscale>  0 0.37761517E+03</rscale>
<asrwt>0</asrwt>
<pdfrwt beam="1">  1        2 0.23244342E-01 0.37761517E+03</pdfrwt>
<pdfrwt beam="2">  1       -2 0.36299020E-01 0.37761517E+03</pdfrwt>
<totfact> 0.20289149E+03</totfact>
</mgrwt>
<rwgt>
<wgt id='morphing_basis_vector_1'> +2.1782939e-04 </wgt>
<wgt id='morphing_basis_vector_2'> +1.1783433e-04 </wgt>
<wgt id='morphing_basis_vector_3'> +1.3559260e-04 </wgt>
<wgt id='morphing_basis_vector_4'> +2.7132085e-05 </wgt>
<wgt id='morphing_basis_vector_5'> +2.2230338e-05 </wgt>
</rwgt>
</event>
<event>
 4      1 +3.1894900e-05 4.13837500e+02 7.81860800e-03 9.61643800e-02
        2 -1    0    0  501    0 +0.0000000000e+00 +0.0000000000e+00 +4.8620110423e+02 4.8620110423e+02 0.0000000000e+00 0.0000e+00 -1.0000e+00
       -2 -1    0    0    0  501 -0.0000000000e+00 -0.0000000000e+00 -8.8061009929e+01 8.8061009929e+01 0.0000000000e+00 0.0000e+00 1.0000e+00
      -13  1    1    2    0    0 +9.4819784940e+01 +2.7619144530e+01 -5.3245084893e+01 1.1219914361e+02 0.0000000000e+00 0.0000e+00 1.0000e+00
       13  1    1    2    0    0 -9.4819784940e+01 -2.7619144530e+01 +4.5138517919e+02 4.6206297055e+02 0.0000000000e+00 0.0000e+00 -1.0000e+00
<mgrwt>
<rscale>  0 0.41383746E+03</rscale>
<asrwt>0</asrwt>
<pdfrwt beam="1">  1        2 0.74800168E-01 0.41383746E+03</pdfrwt>
<pdfrwt beam="2">  1       -2 0.13547848E-01 0.41383746E+03</pdfrwt>
<totfact> 0.28437138E+03</totfact>
</mgrwt>
<rwgt>
<wgt id='morphing_basis_vector_1'> +2.7643436e-04 </wgt>
<wgt id='morphing_basis_vector_2'> +1.4863643e-04 </wgt>
<wgt id='morphing_basis_vector_3'> +1.8012346e-04 </wgt>
<wgt id='morphing_basis_vector_4'> +4.2845578e-05 </wgt>
<wgt id='morphing_basis_vector_5'> +4.6837930e-05 </wgt>
</rwgt>
</event>
<event>
 4      1 +3.1894900e-05 4.15144100e+02 7.81860800e-03 9.61274700e-02
        2 -1    0    0  501    0 +0.0000000000e+00 +0.0000000000e+00 +8.4759253828e+02 8.4759253828e+02 0.0000000000e+00 0.0000e+00 -1.0000e+00
       -2 -1    0    0    0  501 -0.0000000000e+00 -0.0000000000e+00 -5.0833571913e+01 5.0833571913e+01 0.0000000000e+00 0.0000e+00 1.0000e+00
      -13  1    1    2    0    0 -1.6342087550e+02 -1.8453329751e+01 +1.2430064866e+02 2.0614936135e+02 0.0000000000e+00 0.0000e+00 1.0000e+00
       13  1    1    2    0    0 +1.6342087550e+02 +1.8453329751e+01 +6.7245831771e+02 6.9227674885e+02 0.0000000000e+00 0.0000e+00 -1.0000e+00
<mgrwt>
<rscale>  0 0.41514410E+03</rscale>
<asrwt>0</asrwt>
<pdfrwt beam="1">  1        2 0.13039884E+00 0.41514410E+03</pdfrwt>
<pdfrwt beam="2">  1       -2 0.78205501E-02 0.41514410E+03</pdfrwt>
<totfact> 0.34719724E+03</totfact>
</mgrwt>
<rwgt>
<wgt id='morphing_basis_vector_1'> +2.7932245e-04 </wgt>
<wgt id='morphing_basis_vector_2'> +1.5153828e-04 </wgt>
<wgt id='morphing_basis_vector_3'> +1.8149593e-04 </wgt>
<wgt id='morphing_basis_vector_4'> +4.3546955e-05 </wgt>
<wgt id='morphing_basis_vector_5'> +4.7979574e-05 </wgt>
</rwgt>
</event>
<event>
 4      1 +3.1894900e-05 4.05685200e+02 7.81860800e-03 9.63979900e-02
        2 -1    0    0  501    0 +0.0000000000e+00 +0.0000000000e+00 +1.0294680990e+03 1.0294680990e+03 0.0000000000e+00 0.0000e+00 -1.0000e+00
       -2 -1    0    0    0  501 -0.0000000000e+00 -0.0000000000e+00 -3.9967364838e+01 3.9967364838e+01 0.0000000000e+00 0.0000e+00 1.0000e+00
      -13  1    1    2    0    0 +2.0019271608e+01 -1.5502773299e+02 +1.5397871854e+02 2.1941698885e+02 0.0000000000e+00 0.0000e+00 1.0000e+00
       13  1    1    2    0    0 -2.0019271608e+01 +1.5502773299e+02 +8.3552201560e+02 8.5001847497e+02 0.0000000000e+00 0.0000e+00 -1.0000e+00
<mgrwt>
<rscale>  0 0.40568523E+03</rscale>
<asrwt>0</asrwt>
<pdfrwt beam="1">  1        2 0.15837969E+00 0.40568523E+03</pdfrwt>
<pdfrwt beam="2">  1       -2 0.61488261E-02 0.40568523E+03</pdfrwt>
<totfact> 0.38572967E+03</totfact>
</mgrwt>
<rwgt>
<wgt id='morphing_basis_vector_1'> +2.6248132e-04 </wgt>
<wgt id='morphing_basis_vector_2'> +1.4205397e-04 </wgt>
<wgt id='morphing_basis_vector_3'> +1.6875290e-04 </wgt>
<wgt id='morphing_basis_vector_4'> +3.8677309e-05 </wgt>
<wgt id='morphing_basis_vector_5'> +4.0313709e-05 </wgt>
</rwgt>
</event>
<event>
 4      1 +3.1894900e-05 3.92762100e+02 7.81860800e-03 9.67805500e-02
        2 -1    0    0  501    0 +0.0000000000e+00 +0.0000000000e+00 +4.6845013209e+02 4.6845013209e+02 0.0000000000e+00 0.0000e+00 -1.0000e+00
       -2 -1    0    0    0  501 -0.0000000000e+00 -0.0000000000e+00 -8.2325774599e+01 8.2325774599e+01 0.0000000000e+00 0.0000e+00 1.0000e+00
      -13  1    1    2    0    0 +3.5285509337e+01 +1.4215397973e+02 +9.6177204043e+00 1.4678324723e+02 0.0000000000e+00 0.0000e+00 1.0000e+00
       13  1    1    2    0    0 -3.5285509337e+01 -1.4215397973e+02 +3.7650663709e+02 4.0399265946e+02 0.0000000000e+00 0.0000e+00 -1.0000e+00
<mgrwt>
<rscale>  0 0.39276212E+03</rscale>
<asrwt>0</asrwt>
<pdfrwt beam="1">  1        2 0.72069249E-01 0.39276212E+03</pdfrwt>
<pdfrwt beam="2">  1       -2 0.12665504E-01 0.39276212E+03</pdfrwt>
<totfact> 0.32945946E+03</totfact>
</mgrwt>
<rwgt>
<wgt id='morphing_basis_vector_1'> +2.4095005e-04 </wgt>
<wgt id='morphing_basis_vector_2'> +1.3015145e-04 </wgt>
<wgt id='morphing_basis_vector_3'> +1.5267440e-04 </wgt>
<wgt id='morphing_basis_vector_4'> +3.2839610e-05 </wgt>
<wgt id='morphing_basis_vector_5'> +3.1158715e-05 </wgt>
</rwgt>
</event>
<event>
 4      1 +3.1894900e-05 3.88623700e+02 7.81860800e-03 9.69063900e-02
        2 -1    0    0  501    0 +0.0000000000e+00 +0.0000000000e+00 +1.3664839899e+02 1.3664839899e+02 0.0000000000e+00 0.0000e+00 -1.0000e+00
       -2 -1    0    0    0  501 -0.0000000000e+00 -0.0000000000e+00 -2.7630842588e+02 2.7630842588e+02 0.0000000000e+00 0.0000e+00 1.0000e+00
      -13  1    1    2    0    0 +8.1851254811e+01 +5.4521965849e+01 -2.4790840497e+02 2.6670367438e+02 0.0000000000e+00 0.0000e+00 1.0000e+00
       13  1    1    2    0    0 -8.1851254811e+01 -5.4521965849e+01 +1.0824837807e+02 1.4625315049e+02 0.0000000000e+00 0.0000e+00 -1.0000e+00
<mgrwt>
<rscale>  0 0.38862375E+03</rscale>
<asrwt>0</asrwt>
<pdfrwt beam="1">  1        2 0.21022831E-01 0.38862375E+03</pdfrwt>
<pdfrwt beam="2">  1       -2 0.42508988E-01 0.38862375E+03</pdfrwt>
<totfact> 0.17104335E+03</totfact>
</mgrwt>
<rwgt>
<wgt id='morphing_basis_vector_1'> +2.3414011e-04 </wgt>
<wgt id='morphing_basis_vector_2'> +1.2578843e-04 </wgt>
<wgt id='morphing_basis_vector_3'> +1.4809986e-04 </wgt>
<wgt id='morphing_basis_vector_4'> +3.1129050e-05 </wgt>
<wgt id='morphing_basis_vector_5'> +2.8515012e-05 </wgt>
</rwgt>
</event>
<event>
 4      1 +3.1894900e-05 3.70472800e+02 7.81860800e-03 9.74788600e-02
        2 -1    0    0  501    0 +0.0000000000e+00 +0.0000000000e+00 +1.1848038781e+03 1.1848038781e+03 0.0000000000e+00 0.0000e+00 1.0000e+00
       -2 -1    0    0    0  501 -0.0000000000e+00 -0.0000000000e+00 -2.8960509138e+01 2.8960509138e+01 0.0000000000e+00 0.0000e+00 -1.0000e+00
      -13  1    1    2    0    0 -7.9884001574e+01 -1.5277581525e+02 +7.9990163106e+02 8.1826922392e+02 0.0000000000e+00 0.0000e+00 -1.0000e+00
       13  1    1    2    0    0 +7.9884001574e+01 +1.5277581525e+02 +3.5594173791e+02 3.9549516333e+02 0.0000000000e+00 0.0000e+00 1.0000e+00
<mgrwt>
<rscale>  0 0.37047280E+03</rscale>
<asrwt>0</asrwt>
<pdfrwt beam="1">  1        2 0.18227748E+00 0.37047280E+03</pdfrwt>
<pdfrwt beam="2">  1       -2 0.44554638E-02 0.37047280E+03</pdfrwt>
<totfact> 0.50850228E+03</totfact>
</mgrwt>
<rwgt>
<wgt id='morphing_basis_vector_1'> +2.2973267e-04 </wgt>
<wgt id='morphing_basis_vector_2'> +1.7919711e-04 </wgt>
<wgt id='morphing_basis_vector_3'> +1.0362454e-04 </wgt>
<wgt id='morphing_basis_vector_4'> +2.9484380e-05 </wgt>
<wgt id='morphing_basis_vector_5'> +2.0096480e-05 </wgt>
</rwgt>
</event>
<event>
 4      1 +3.1894900e-05 3.61356800e+02 7.81860800e-03 9.77798200e-02
        2 -1    0    0  501    0 +0.0000000000e+00 +0.0000000000e+00 +4.0850014448e+02 4.0850014448e+02 0.0000000000e+00 0.0000e+00 -1.0000e+00
       -2 -1    0    0    0  501 -0.0000000000e+00 -0.0000000000e+00 -7.9913529828e+01 7.9913529828e+01 0.0000000000e+00 0.0000e+00 1.0000e+00
      -13  1    1    2    0    0 +5.3606519010e+01 -1.6693175500e+02 +1.0530330872e+02 2.0452055284e+02 0.0000000000e+00 0.0000e+00 1.0000e+00
       13  1    1    2    0    0 -5.3606519010e+01 +1.6693175500e+02 +2.2328330593e+02 2.8389312146e+02 0.0000000000e+00 0.0000e+00 -1.0000e+00
<mgrwt>
<rscale>  0 0.36135682E+03</rscale>
<asrwt>0</asrwt>
<pdfrwt beam="1">  1        2 0.62846175E-01 0.36135682E+03</pdfrwt>
<pdfrwt beam="2">  1       -2 0.12294389E-01 0.36135682E+03</pdfrwt>
<totfact> 0.40104773E+03</totfact>
</mgrwt>
<rwgt>
<wgt id='morphing_basis_vector_1'> +1.9724877e-04 </wgt>
<wgt id='morphing_basis_vector_2'> +1.1200924e-04 </wgt>
<wgt id='morphing_basis_vector_3'> +1.1702468e-04 </wgt>
<wgt id='morphing_basis_vector_4'> +2.2754804e-05 </wgt>
<wgt id='morphing_basis_vector_5'> +1.4738336e-05 </wgt>
</rwgt>
</event>
<event>
 4      1 +3.1894900e-05 3.81059600e+02 7.81860800e-03 9.71408000e-02
        2 -1    0    0  501    0 +0.0000000000e+00 +0.0000000000e+00 +1.5544239224e+02 1.5544239224e+02 0.0000000000e+00 0.0000e+00 -1.0000e+00
       -2 -1    0    0    0  501 -0.0000000000e+00 -0.0000000000e+00 -2.3353737173e+02 2.3353737173e+02 0.0000000000e+00 0.0000e+00 1.0000e+00
      -13  1    1    2    0    0 -1.0310993900e+02 -1.1633895537e+02 -1.5149697581e+02 2.1706622431e+02 0.0000000000e+00 0.0000e+00 1.0000e+00
       13  1    1    2    0    0 +1.0310993900e+02 +1.1633895537e+02 +7.3401996311e+01 1.7191353966e+02 0.0000000000e+00 0.0000e+00 -1.0000e+00
<mgrwt>
<rscale>  0 0.38105962E+03</rscale>
<asrwt>0</asrwt>
<pdfrwt beam="1">  1        2 0.23914214E-01 0.38105962E+03</pdfrwt>
<pdfrwt beam="2">  1       -2 0.35928826E-01 0.38105962E+03</pdfrwt>
<totfact> 0.19998262E+03</totfact>
</mgrwt>
<rwgt>
<wgt id='morphing_basis_vector_1'> +2.2311050e-04 </wgt>
<wgt id='morphing_basis_vector_2'> +1.2114486e-04 </wgt>
<wgt id='morphing_basis_vector_3'> +1.3909014e-04 </wgt>
<wgt id='morphing_basis_vector_4'> +2.8360499e-05 </wgt>
<wgt id='morphing_basis_vector_5'> +2.4112722e-05 </wgt>
</rwgt>
</event>
<event>
 4      1 +3.1894900e-05 3.64494700e+02 7.81860800e-03 9.76751500e-02
        2 -1    0    0  501    0 +0.0000000000e+00 +0.0000000000e+00 +1.5611353898e+02 1.5611353898e+02 0.0000000000e+00 0.0000e+00 -1.0000e+00
       -2 -1    0    0    0  501 -0.0000000000e+00 -0.0000000000e+00 -2.1275600284e+02 2.1275600284e+02 0.0000000000e+00 0.0000e+00 1.0000e+00
      -13  1    1    2    0    0 +1.7085779571e+02 +4.2955629959e+01 -7.5534377933e+01 1.9168467532e+02 0.0000000000e+00 0.0000e+00 1.0000e+00
       13  1    1    2    0    0 -1.7085779571e+02 -4.2955629959e+01 +1.8891914083e+01 1.7718486651e+02 0.0000000000e+00 0.0000e+00 -1.0000e+00
<mgrwt>
<rscale>  0 0.36449468E+03</rscale>
<asrwt>0</asrwt>
<pdfrwt beam="1">  1        2 0.24017468E-01 0.36449468E+03</pdfrwt>
<pdfrwt beam="2">  1       -2 0.32731693E-01 0.36449468E+03</pdfrwt>
<totfact> 0.23464158E+03</totfact>
</mgrwt>
<rwgt>
<wgt id='morphing_basis_vector_1'> +2.0135459e-04 </wgt>
<wgt id='morphing_basis_vector_2'> +1.1395831e-04 </wgt>
<wgt id='morphing_basis_vector_3'> +1.2012472e-04 </wgt>
<wgt id='morphing_basis_vector_4'> +2.3554363e-05 </wgt>
<wgt id='morphing_basis_vector_5'> +1.6056344e-05 </wgt>
</rwgt>
</event>
<event>
 4      1 +3.1894900e-05 4.07488500e+02 7.81860800e-03 9.63458100e-02
        2 -1    0    0  501    0 +0.0000000000e+00 +0.0000000000e+00 +1.0278917962e+02 1.0278917962e+02 0.0000000000e+00 0.0000e+00 1.0000e+00
       -2 -1    0    0    0  501 -0.0000000000e+00 -0.0000000000e+00 -4.0385301200e+02 4.0385301200e+02 0.0000000000e+00 0.0000e+00 -1.0000e+00
      -13  1    1    2    0    0 -9.3404928994e+01 +4.4591724357e+00 -3.7559625493e+02 3.8706189646e+02 0.0000000000e+00 0.0000e+00 -1.0000e+00
       13  1    1    2    0    0 +9.3404928994e+01 -4.4591724357e+00 +7.4532422544e+01 1.1958029516e+02 0.0000000000e+00 0.0000e+00 1.0000e+00
<mgrwt>
<rscale>  0 0.40748850E+03</rscale>
<asrwt>0</asrwt>
<pdfrwt beam="1">  1        2 0.15813720E-01 0.40748850E+03</pdfrwt>
<pdfrwt beam="2">  1       -2 0.62131232E-01 0.40748850E+03</pdfrwt>
<totfact> 0.11488441E+03</totfact>
</mgrwt>
<rwgt>
<wgt id='morphing_basis_vector_1'> +2.6518944e-04 </wgt>
<wgt id='morphing_basis_vector_2'> +1.4249175e-04 </wgt>
<wgt id='morphing_basis_vector_3'> +1.7150598e-04 </wgt>
<wgt id='morphing_basis_vector_4'> +3.9554408e-05 </wgt>
<wgt id='morphing_basis_vector_5'> +4.1682669e-05 </wgt>
</rwgt>
</event>
<event>
 4      1 +3.1894900e-05 4.10987800e+02 7.81860800e-03 9.62453800e-02
        2 -1    0    0  501    0 +0.0000000000e+00 +0.0000000000e+00 +9.6354052405e+02 9.6354052405e+02 0.0000000000e+00 0.0000e+00 -1.0000e+00
       -2 -1    0    0    0  501 -0.0000000000e+00 -0.0000000000e+00 -4.3825600820e+01 4.3825600820e+01 0.0000000000e+00 0.0000e+00 1.0000e+00
      -13  1    1    2    0    0 -1.4078809086e+02 +8.4944496217e+01 +1.5775796470e+02 2.2786932525e+02 0.0000000000e+00 0.0000e+00 1.0000e+00
       13  1    1    2    0    0 +1.4078809086e+02 -8.4944496217e+01 +7.6195695853e+02 7.7949679961e+02 0.0000000000e+00 0.0000e+00 -1.0000e+00
<mgrwt>
<rscale>  0 0.41098780E+03</rscale>
<asrwt>0</asrwt>
<pdfrwt beam="1">  1        2 0.14823699E+00 0.41098780E+03</pdfrwt>
<pdfrwt beam="2">  1       -2 0.67424009E-02 0.41098780E+03</pdfrwt>
<totfact> 0.36762888E+03</totfact>
</mgrwt>
<rwgt>
<wgt id='morphing_basis_vector_1'> +2.7188519e-04 </wgt>
<wgt id='morphing_basis_vector_2'> +1.4752843e-04 </wgt>
<wgt id='morphing_basis_vector_3'> +1.7572237e-04 </wgt>
<wgt id='morphing_basis_vector_4'> +4.1343892e-05 </wgt>
<wgt id='morphing_basis_vector_5'> +4.4512097e-05 </wgt>
</rwgt>
</event>
<event>
 4      1 +3.1894900e-05 3.72564000e+02 7.81860800e-03 9.74111300e-02
        2 -1    0    0  501    0 +0.0000000000e+00 +0.0000000000e+00 +6.4174571763e+02 6.4174571763e+02 0.0000000000e+00 0.0000e+00 -1.0000e+00
       -2 -1    0    0    0  501 -0.0000000000e+00 -0.0000000000e+00 -5.4072782032e+01 5.4072782032e+01 0.0000000000e+00 0.0000e+00 1.0000e+00
      -13  1    1    2    0    0 +3.9269673669e+01 -1.6672962363e+02 +1.5710085505e+02 2.3242537152e+02 0.0000000000e+00 0.0000e+00 1.0000e+00
       13  1    1    2    0    0 -3.9269673669e+01 +1.6672962363e+02 +4.3057208055e+02 4.6339312815e+02 0.0000000000e+00 0.0000e+00 -1.0000e+00
<mgrwt>
<rscale>  0 0.37256396E+03</rscale>
<asrwt>0</asrwt>
<pdfrwt beam="1">  1        2 0.98730105E-01 0.37256396E+03</pdfrwt>
<pdfrwt beam="2">  1       -2 0.83188900E-02 0.37256396E+03</pdfrwt>
<totfact> 0.44234263E+03</totfact>
</mgrwt>
<rwgt>
<wgt id='morphing_basis_vector_1'> +2.1155929e-04 </wgt>
<wgt id='morphing_basis_vector_2'> +1.1698889e-04 </wgt>
<wgt id='morphing_basis_vector_3'> +1.2923768e-04 </wgt>
<wgt id='morphing_basis_vector_4'> +2.5679196e-05 </wgt>
<wgt id='morphing_basis_vector_5'> +1.9719394e-05 </wgt>
</rwgt>
</event>
<event>
 4      1 +3.1894900e-05 3.71295500e+02 7.81860800e-03 9.74521500e-02
        2 -1    0    0  501    0 +0.0000000000e+00 +0.0000000000e+00 +4.5392396092e+02 4.5392396092e+02 0.0000000000e+00 0.0000e+00 -1.0000e+00
       -2 -1    0    0    0  501 -0.0000000000e+00 -0.0000000000e+00 -7.5926994400e+01 7.5926994400e+01 0.0000000000e+00 0.0000e+00 1.0000e+00
      -13  1    1    2    0    0 +1.3555381060e+02 -9.3561774587e+01 +6.6768774580e+01 1.7772650475e+02 0.0000000000e+00 0.0000e+00 1.0000e+00
       13  1    1    2    0    0 -1.3555381060e+02 +9.3561774587e+01 +3.1122819194e+02 3.5212445057e+02 0.0000000000e+00 0.0000e+00 -1.0000e+00
<mgrwt>
<rscale>  0 0.37129547E+03</rscale>
<asrwt>0</asrwt>
<pdfrwt beam="1">  1        2 0.69834454E-01 0.37129547E+03</pdfrwt>
<pdfrwt beam="2">  1       -2 0.11681076E-01 0.37129547E+03</pdfrwt>
<totfact> 0.38693055E+03</totfact>
</mgrwt>
<rwgt>
<wgt id='morphing_basis_vector_1'> +2.0939199e-04 </wgt>
<wgt id='morphing_basis_vector_2'> +1.1490066e-04 </wgt>
<wgt id='morphing_basis_vector_3'> +1.2836001e-04 </wgt>
<wgt id='morphing_basis_vector_4'> +2.5211689e-05 </wgt>
<wgt id='morphing_basis_vector_5'> +1.9077569e-05 </wgt>
</rwgt>
</event>
<event>
 4      1 +3.1894900e-05 4.05211700e+02 7.81860800e-03 9.64117400e-02
        2 -1    0    0  501    0 +0.0000000000e+00 +0.0000000000e+00 +5.7200092817e+01 5.7200092817e+01 0.0000000000e+00 0.0000e+00 -1.0000e+00
       -2 -1    0    0    0  501 -0.0000000000e+00 -0.0000000000e+00 -7.1764106430e+02 7.1764106430e+02 0.0000000000e+00 0.0000e+00 1.0000e+00
      -13  1    1    2    0    0 +1.7208528662e+02 +1.0026736968e+02 -4.0131286758e+02 4.4801663918e+02 0.0000000000e+00 0.0000e+00 1.0000e+00
       13  1    1    2    0    0 -1.7208528662e+02 -1.0026736968e+02 -2.5912810390e+02 3.2682451794e+02 0.0000000000e+00 0.0000e+00 -1.0000e+00
<mgrwt>
<rscale>  0 0.40521172E+03</rscale>
<asrwt>0</asrwt>
<pdfrwt beam="1">  1        2 0.88000144E-02 0.40521172E+03</pdfrwt>
<pdfrwt beam="2">  1       -2 0.11040632E+00 0.40521172E+03</pdfrwt>
<totfact> 0.65593910E+02</totfact>
</mgrwt>
<rwgt>
<wgt id='morphing_basis_vector_1'> +2.6532695e-04 </wgt>
<wgt id='morphing_basis_vector_2'> +1.5281364e-04 </wgt>
<wgt id='morphing_basis_vector_3'> +1.6477941e-04 </wgt>
<wgt id='morphing_basis_vector_4'> +3.8585189e-05 </wgt>
<wgt id='morphing_basis_vector_5'> +4.0189117e-05 </wgt>
</rwgt>
</event>
<event>
 4      1 +3.1894900e-05 4.04773500e+02 7.81860800e-03 9.64244800e-02
        2 -1    0    0  501    0 +0.0000000000e+00 +0.0000000000e+00 +4.3959281233e+02 4.3959281233e+02 0.0000000000e+00 0.0000e+00 1.0000e+00
       -2 -1    0    0    0  501 -0.0000000000e+00 -0.0000000000e+00 -9.3178043177e+01 9.3178043177e+01 0.0000000000e+00 0.0000e+00 -1.0000e+00
      -13  1    1    2    0    0 -9.9485068432e+01 -1.1889949584e+02 +1.9671078436e+00 1.5504269885e+02 0.0000000000e+00 0.0000e+00 -1.0000e+00
       13  1    1    2    0    0 +9.9485068432e+01 +1.1889949584e+02 +3.4444766131e+02 3.7772815666e+02 0.0000000000e+00 0.0000e+00 1.0000e+00
<mgrwt>
<rscale>  0 0.40477351E+03</rscale>
<asrwt>0</asrwt>
<pdfrwt beam="1">  1        2 0.67629662E-01 0.40477351E+03</pdfrwt>
<pdfrwt beam="2">  1       -2 0.14335084E-01 0.40477351E+03</pdfrwt>
<totfact> 0.29073976E+03</totfact>
</mgrwt>
<rwgt>
<wgt id='morphing_basis_vector_1'> +2.6089816e-04 </wgt>
<wgt id='morphing_basis_vector_2'> +1.4114739e-04 </wgt>
<wgt id='morphing_basis_vector_3'> +1.6757738e-04 </wgt>
<wgt id='morphing_basis_vector_4'> +3.8234761e-05 </wgt>
<wgt id='morphing_basis_vector_5'> +3.9618334e-05 </wgt>
</rwgt>
</event>
<event>
 4      1 +3.1894900e-05 4.17714000e+02 7.81860800e-03 9.60552900e-02
        2 -1    0    0  501    0 +0.0000000000e+00 +0.0000000000e+00 +9.7321326263e+02 9.7321326263e+02 0.0000000000e+00 0.0000e+00 -1.0000e+00
       -2 -1    0    0    0  501 -0.0000000000e+00 -0.0000000000e+00 -4.4821871708e+01 4.4821871708e+01 0.0000000000e+00 0.0000e+00 1.0000e+00
      -13  1    1    2    0    0 +6.7183888617e+01 -1.4407847787e+02 +1.3406229689e+02 2.0795427892e+02 0.0000000000e+00 0.0000e+00 1.0000e+00
       13  1    1    2    0    0 -6.7183888617e+01 +1.4407847787e+02 +7.9432909404e+02 8.1008085541e+02 0.0000000000e+00 0.0000e+00 -1.0000e+00
<mgrwt>
<rscale>  0 0.41771397E+03</rscale>
<asrwt>0</asrwt>
<pdfrwt beam="1">  1        2 0.14972510E+00 0.41771397E+03</pdfrwt>
<pdfrwt beam="2">  1       -2 0.68956733E-02 0.41771397E+03</pdfrwt>
<totfact> 0.35047968E+03</totfact>
</mgrwt>
<rwgt>
<wgt id='morphing_basis_vector_1'> +2.8390379e-04 </wgt>
<wgt id='morphing_basis_vector_2'> +1.5374766e-04 </wgt>
<wgt id='morphing_basis_vector_3'> +1.8524047e-04 </wgt>
<wgt id='morphing_basis_vector_4'> +4.4964521e-05 </wgt>
<wgt id='morphing_basis_vector_5'> +5.0200203e-05 </wgt>
</rwgt>
</event>
<event>
 4      1 +3.1894900e-05 4.15773000e+02 7.81860800e-03 9.61097500e-02
        2 -1    0    0  501    0 +0.0000000000e+00 +0.0000000000e+00 +8.2870412211e+02 8.2870412211e+02 0.0000000000e+00 0.0000e+00 1.0000e+00
       -2 -1    0    0    0  501 -0.0000000000e+00 -0.0000000000e+00 -5.2149844608e+01 5.2149844608e+01 0.0000000000e+00 0.0000e+00 -1.0000e+00
      -13  1    1    2    0    0 -1.1769902605e+02 -1.6843793407e+02 +3.2153663685e+02 3.8158905540e+02 0.0000000000e+00 0.0000e+00 -1.0000e+00
       13  1    1    2    0    0 +1.1769902605e+02 +1.6843793407e+02 +4.5501764065e+02 4.9926491132e+02 0.0000000000e+00 0.0000e+00 1.0000e+00
<mgrwt>
<rscale>  0 0.41577297E+03</rscale>
<asrwt>0</asrwt>
<pdfrwt beam="1">  1        2 0.12749293E+00 0.41577297E+03</pdfrwt>
<pdfrwt beam="2">  1       -2 0.80230536E-02 0.41577297E+03</pdfrwt>
<totfact> 0.34360094E+03</totfact>
</mgrwt>
<rwgt>
<wgt id='morphing_basis_vector_1'> +2.8491780e-04 </wgt>
<wgt id='morphing_basis_vector_2'> +1.6583143e-04 </wgt>
<wgt id='morphing_basis_vector_3'> +1.7856637e-04 </wgt>
<wgt id='morphing_basis_vector_4'> +4.3826071e-05 </wgt>
<wgt id='morphing_basis_vector_5'> +4.8800291e-05 </wgt>
</rwgt>
</event>
<event>
 4      1 +3.1894900e-05 4.14773100e+02 7.81860800e-03 9.61379300e-02
        2 -1    0    0  501    0 +0.0000000000e+00 +0.0000000000e+00 +9.4078064764e+02 9.4078064764e+02 0.0000000000e+00 0.0000e+00 -1.0000e+00
       -2 -1    0    0    0  501 -0.0000000000e+00 -0.0000000000e+00 -4.5716489026e+01 4.5716489026e+01 0.0000000000e+00 0.0000e+00 1.0000e+00
      -13  1    1    2    0    0 -1.6130295157e+02 +2.8798418175e+01 +1.4517372414e+02 2.1891414129e+02 0.0000000000e+00 0.0000e+00 1.0000e+00
       13  1    1    2    0    0 +1.6130295157e+02 -2.8798418175e+01 +7.4989043447e+02 7.6758299537e+02 0.0000000000e+00 0.0000e+00 -1.0000e+00
<mgrwt>
<rscale>  0 0.41477313E+03</rscale>
<asrwt>0</asrwt>
<pdfrwt beam="1">  1        2 0.14473547E+00 0.41477313E+03</pdfrwt>
<pdfrwt beam="2">  1       -2 0.70333067E-02 0.41477313E+03</pdfrwt>
<totfact> 0.35608833E+03</totfact>
</mgrwt>
<rwgt>
<wgt id='morphing_basis_vector_1'> +2.7863802e-04 </wgt>
<wgt id='morphing_basis_vector_2'> +1.5113464e-04 </wgt>
<wgt id='morphing_basis_vector_3'> +1.8098533e-04 </wgt>
<wgt id='morphing_basis_vector_4'> +4.3346175e-05 </wgt>
<wgt id='morphing_basis_vector_5'> +4.7662504e-05 </wgt>
</rwgt>
</event>
<event>
 4      1 +3.1894900e-05 3.95582300e+02 7.81860800e-03 9.66957400e-02
        2 -1    0    0  501    0 +0.0000000000e+00 +0.0000000000e+00 +6.0601011448e+02 6.0601011448e+02 0.0000000000e+00 0.0000e+00 1.0000e+00
       -2 -1    0    0    0  501 -0.0000000000e+00 -0.0000000000e+00 -6.4555590143e+01 6.4555590143e+01 0.0000000000e+00 0.0000e+00 -1.0000e+00
      -13  1    1    2    0    0 -9.6092311762e+01 -1.4694299846e+02 +1.1633618889e+02 2.1061834208e+02 0.0000000000e+00 0.0000e+00 -1.0000e+00
       13  1    1    2    0    0 +9.6092311762e+01 +1.4694299846e+02 +4.2511833545e+02 4.5994736254e+02 0.0000000000e+00 0.0000e+00 1.0000e+00
<mgrwt>
<rscale>  0 0.39558231E+03</rscale>
<asrwt>0</asrwt>
<pdfrwt beam="1">  1        2 0.93232321E-01 0.39558231E+03</pdfrwt>
<pdfrwt beam="2">  1       -2 0.99316297E-02 0.39558231E+03</pdfrwt>
<totfact> 0.36008647E+03</totfact>
</mgrwt>
<rwgt>
<wgt id='morphing_basis_vector_1'> +2.4629008e-04 </wgt>
<wgt id='morphing_basis_vector_2'> +1.3503713e-04 </wgt>
<wgt id='morphing_basis_vector_3'> +1.5529682e-04 </wgt>
<wgt id='morphing_basis_vector_4'> +3.4102705e-05 </wgt>
<wgt id='morphing_basis_vector_5'> +3.3083073e-05 </wgt>
</rwgt>
</event>
<event>
 4      1 +3.1894900e-05 3.66590200e+02 7.81860800e-03 9.76058900e-02
        2 -1    0    0  501    0 +0.0000000000e+00 +0.0000000000e+00 +1.3972838661e+03 1.3972838661e+03 0.0000000000e+00 0.0000e+00 -1.0000e+00
       -2 -1    0    0    0  501 -0.0000000000e+00 -0.0000000000e+00 -2.4044575126e+01 2.4044575126e+01 0.0000000000e+00 0.0000e+00 1.0000e+00
      -13  1    1    2    0    0 -1.0895266331e+02 +1.3510735981e+02 +4.5814952535e+02 4.8992414627e+02 0.0000000000e+00 0.0000e+00 1.0000e+00
       13  1    1    2    0    0 +1.0895266331e+02 -1.3510735981e+02 +9.1508976564e+02 9.3140429498e+02 0.0000000000e+00 0.0000e+00 -1.0000e+00
<mgrwt>
<rscale>  0 0.36659022E+03</rscale>
<asrwt>0</asrwt>
<pdfrwt beam="1">  1        2 0.21496668E+00 0.36659022E+03</pdfrwt>
<pdfrwt beam="2">  1       -2 0.36991665E-02 0.36659022E+03</pdfrwt>
<totfact> 0.51199130E+03</totfact>
</mgrwt>
<rwgt>
<wgt id='morphing_basis_vector_1'> +2.0367607e-04 </wgt>
<wgt id='morphing_basis_vector_2'> +1.1388345e-04 </wgt>
<wgt id='morphing_basis_vector_3'> +1.2276349e-04 </wgt>
<wgt id='morphing_basis_vector_4'> +2.4007062e-05 </wgt>
<wgt id='morphing_basis_vector_5'> +1.6944587e-05 </wgt>
</rwgt>
</event>
<event>
 4      1 +3.1894900e-05 3.88429000e+02 7.81860800e-03 9.69123600e-02
        2 -1    0    0  501    0 +0.0000000000e+00 +0.0000000000e+00 +1.7209904929e+02 1.7209904929e+02 0.0000000000e+00 0.0000e+00 1.0000e+00
       -2 -1    0    0    0  501 -0.0000000000e+00 -0.0000000000e+00 -2.1917186882e+02 2.1917186882e+02 0.0000000000e+00 0.0000e+00 -1.0000e+00
      -13  1    1    2    0    0 +3.4202663267e+01 -1.8510781749e+02 +2.4610198100e+01 1.8984306182e+02 0.0000000000e+00 0.0000e+00 -1.0000e+00
       13  1    1    2    0    0 -3.4202663267e+01 +1.8510781749e+02 -7.1683017630e+01 2.0142785629e+02 0.0000000000e+00 0.0000e+00 1.0000e+00
<mgrwt>
<rscale>  0 0.38842899E+03</rscale>
<asrwt>0</asrwt>
<pdfrwt beam="1">  1        2 0.26476777E-01 0.38842899E+03</pdfrwt>
<pdfrwt beam="2">  1       -2 0.33718749E-01 0.38842899E+03</pdfrwt>
<totfact> 0.19913579E+03</totfact>
</mgrwt>
<rwgt>
<wgt id='morphing_basis_vector_1'> +2.5103912e-04 </wgt>
<wgt id='morphing_basis_vector_2'> +1.7798350e-04 </wgt>
<wgt id='morphing_basis_vector_3'> +1.3048227e-04 </wgt>
<wgt id='morphing_basis_vector_4'> +3.3133551e-05 </wgt>
<wgt id='morphing_basis_vector_5'> +2.9531640e-05 </wgt>
</rwgt>
</event>
<event>
 4      1 +3.1894900e-05 4.28880100e+02 7.81860800e-03 9.57479500e-02
        2 -1    0    0  501    0 +0.0000000000e+00 +0.0000000000e+00 +9.0311075220e+02 9.0311075220e+02 0.0000000000e+00 0.0000e+00 -1.0000e+00
       -2 -1    0    0    0  501 -0.0000000000e+00 -0.0000000000e+00 -5.0917938257e+01 5.0917938257e+01 0.0000000000e+00 0.0000e+00 1.0000e+00
      -13  1    1    2    0    0 -5.7629309490e+01 -1.8792478431e+02 +2.3541843828e+02 3.0668991335e+02 0.0000000000e+00 0.0000e+00 1.0000e+00
       13  1    1    2    0    0 +5.7629309490e+01 +1.8792478431e+02 +6.1677437566e+02 6.4733877710e+02 0.0000000000e+00 0.0000e+00 -1.0000e+00
<mgrwt>
<rscale>  0 0.42888011E+03</rscale>
<asrwt>0</asrwt>
<pdfrwt beam="1">  1        2 0.13894010E+00 0.42888011E+03</pdfrwt>
<pdfrwt beam="2">  1       -2 0.78335296E-02 0.42888011E+03</pdfrwt>
<totfact> 0.31900461E+03</totfact>
</mgrwt>
<rwgt>
<wgt id='morphing_basis_vector_1'> +3.0661360e-04 </wgt>
<wgt id='morphing_basis_vector_2'> +1.6999704e-04 </wgt>
<wgt id='morphing_basis_vector_3'> +2.0068678e-04 </wgt>
<wgt id='morphing_basis_vector_4'> +5.1484177e-05 </wgt>
<wgt id='morphing_basis_vector_5'> +6.0736142e-05 </wgt>
</rwgt>
</event>
<event>
 4      1 +3.1894900e-05 3.97713600e+02 7.81860800e-03 9.66321400e-02
        2 -1    0    0  501    0 +0.0000000000e+00 +0.0000000000e+00 +8.5792312006e+02 8.5792312006e+02 0.0000000000e+00 0.0000e+00 -1.0000e+00
       -2 -1    0    0    0  501 -0.0000000000e+00 -0.0000000000e+00 -4.6092739713e+01 4.6092739713e+01 0.0000000000e+00 0.0000e+00 1.0000e+00
      -13  1    1    2    0    0 -8.1724155933e+01 +1.1139566699e+02 +8.0814394963e+01 1.6005873522e+02 0.0000000000e+00 0.0000e+00 1.0000e+00
       13  1    1    2    0    0 +8.1724155933e+01 -1.1139566699e+02 +7.3101598538e+02 7.4395712455e+02 0.0000000000e+00 0.0000e+00 -1.0000e+00
<mgrwt>
<rscale>  0 0.39771360E+03</rscale>
<asrwt>0</asrwt>
<pdfrwt beam="1">  1        2 0.13198816E+00 0.39771360E+03</pdfrwt>
<pdfrwt beam="2">  1       -2 0.70911914E-02 0.39771360E+03</pdfrwt>
<totfact> 0.39679749E+03</totfact>
</mgrwt>
<rwgt>
<wgt id='morphing_basis_vector_1'> +2.4886511e-04 </wgt>
<wgt id='morphing_basis_vector_2'> +1.3415059e-04 </wgt>
<wgt id='morphing_basis_vector_3'> +1.5879119e-04 </wgt>
<wgt id='morphing_basis_vector_4'> +3.4957944e-05 </wgt>
<wgt id='morphing_basis_vector_5'> +3.4483589e-05 </wgt>
</rwgt>
</event>
<event>
 4      1 +3.1894900e-05 3.88741700e+02 7.81860800e-03 9.69027800e-02
        2 -1    0    0  501    0 +0.0000000000e+00 +0.0000000000e+00 +7.4484310321e+02 7.4484310321e+02 0.0000000000e+00 0.0000e+00 1.0000e+00
       -2 -1    0    0    0  501 -0.0000000000e+00 -0.0000000000e+00 -5.0722131008e+01 5.0722131008e+01 0.0000000000e+00 0.0000e+00 -1.0000e+00
      -13  1    1    2    0    0 +1.7013074441e+02 -2.0078632734e+01 +1.5913293493e+02 2.3381811877e+02 0.0000000000e+00 0.0000e+00 -1.0000e+00
       13  1    1    2    0    0 -1.7013074441e+02 +2.0078632734e+01 +5.3498803727e+02 5.6174711544e+02 0.0000000000e+00 0.0000e+00 1.0000e+00
<mgrwt>
<rscale>  0 0.38874171E+03</rscale>
<asrwt>0</asrwt>
<pdfrwt beam="1">  1        2 0.11459124E+00 0.38874171E+03</pdfrwt>
<pdfrwt beam="2">  1       -2 0.78034053E-02 0.38874171E+03</pdfrwt>
<totfact> 0.40897542E+03</totfact>
</mgrwt>
<rwgt>
<wgt id='morphing_basis_vector_1'> +2.3529266e-04 </wgt>
<wgt id='morphing_basis_vector_2'> +1.2883555e-04 </wgt>
<wgt id='morphing_basis_vector_3'> +1.4725842e-04 </wgt>
<wgt id='morphing_basis_vector_4'> +3.1291467e-05 </wgt>
<wgt id='morphing_basis_vector_5'> +2.8651859e-05 </wgt>
</rwgt>
</event>
<event>
 4      1 +3.1894900e-05 4.15508000e+02 7.81860800e-03 9.61172100e-02
        2 -1    0    0  501    0 +0.0000000000e+00 +0.0000000000e+00 +1.4283400475e+03 1.4283400475e+03 0.0000000000e+00 0.0000e+00 -1.0000e+00
       -2 -1    0    0    0  501 -0.0000000000e+00 -0.0000000000e+00 -3.0218107056e+01 3.0218107056e+01 0.0000000000e+00 0.0000e+00 1.0000e+00
      -13  1    1    2    0    0 -2.9360860090e+00 +2.0747741202e+02 +7.3524182989e+02 7.6396076177e+02 0.0000000000e+00 0.0000e+00 1.0000e+00
       13  1    1    2    0    0 +2.9360860090e+00 -2.0747741202e+02 +6.6288011056e+02 6.9459739279e+02 0.0000000000e+00 0.0000e+00 -1.0000e+00
<mgrwt>
<rscale>  0 0.41550804E+03</rscale>
<asrwt>0</asrwt>
<pdfrwt beam="1">  1        2 0.21974457E+00 0.41550804E+03</pdfrwt>
<pdfrwt beam="2">  1       -2 0.46489407E-02 0.41550804E+03</pdfrwt>
<totfact> 0.35012801E+03</totfact>
</mgrwt>
<rwgt>
<wgt id='morphing_basis_vector_1'> +2.9000411e-04 </wgt>
<wgt id='morphing_basis_vector_2'> +1.8266251e-04 </wgt>
<wgt id='morphing_basis_vector_3'> +1.7340524e-04 </wgt>
<wgt id='morphing_basis_vector_4'> +4.3615242e-05 </wgt>
<wgt id='morphing_basis_vector_5'> +4.8925105e-05 </wgt>
</rwgt>
</event>
<event>
 4      1 +3.1894900e-05 3.79283500e+02 7.81860800e-03 9.71966900e-02
        2 -1    0    0  501    0 +0.0000000000e+00 +0.0000000000e+00 +1.9982329687e+02 1.9982329687e+02 0.0000000000e+00 0.0000e+00 -1.0000e+00
       -2 -1    0    0    0  501 -0.0000000000e+00 -0.0000000000e+00 -1.7997899539e+02 1.7997899539e+02 0.0000000000e+00 0.0000e+00 1.0000e+00
      -13  1    1    2    0    0 +1.3438795141e+02 +8.0135566444e+01 -9.7379281713e+01 1.8429475033e+02 0.0000000000e+00 0.0000e+00 1.0000e+00
       13  1    1    2    0    0 -1.3438795141e+02 -8.0135566444e+01 +1.1722358320e+02 1.9550754193e+02 0.0000000000e+00 0.0000e+00 -1.0000e+00
<mgrwt>
<rscale>  0 0.37928352E+03</rscale>
<asrwt>0</asrwt>
<pdfrwt beam="1">  1        2 0.30742046E-01 0.37928352E+03</pdfrwt>
<pdfrwt beam="2">  1       -2 0.27689076E-01 0.37928352E+03</pdfrwt>
<totfact> 0.23657560E+03</totfact>
</mgrwt>
<rwgt>
<wgt id='morphing_basis_vector_1'> +2.2051508e-04 </wgt>
<wgt id='morphing_basis_vector_2'> +1.1985652e-04 </wgt>
<wgt id='morphing_basis_vector_3'> +1.3712373e-04 </wgt>
<wgt id='morphing_basis_vector_4'> +2.7744141e-05 </wgt>
<wgt id='morphing_basis_vector_5'> +2.3139864e-05 </wgt>
</rwgt>
</event>
<event>
 4      1 +3.1894900e-05 3.63841400e+02 7.81860800e-03 9.76968500e-02
        2 -1    0    0  501    0 +0.0000000000e+00 +0.0000000000e+00 +1.6544091111e+02 1.6544091111e+02 0.0000000000e+00 0.0000e+00 1.0000e+00
       -2 -1    0    0    0  501 -0.0000000000e+00 -0.0000000000e+00 -2.0004210507e+02 2.0004210507e+02 0.0000000000e+00 0.0000e+00 -1.0000e+00
      -13  1    1    2    0    0 +3.6987987644e+01 +1.1848680322e+02 -1.5089656570e+02 1.9538937358e+02 0.0000000000e+00 0.0000e+00 -1.0000e+00
       13  1    1    2    0    0 -3.6987987644e+01 -1.1848680322e+02 +1.1629537174e+02 1.7009364261e+02 0.0000000000e+00 0.0000e+00 1.0000e+00
<mgrwt>
<rscale>  0 0.36384144E+03</rscale>
<asrwt>0</asrwt>
<pdfrwt beam="1">  1        2 0.25452448E-01 0.36384144E+03</pdfrwt>
<pdfrwt beam="2">  1       -2 0.30775708E-01 0.36384144E+03</pdfrwt>
<totfact> 0.24441660E+03</totfact>
</mgrwt>
<rwgt>
<wgt id='morphing_basis_vector_1'> +1.9837945e-04 </wgt>
<wgt id='morphing_basis_vector_2'> +1.0718764e-04 </wgt>
<wgt id='morphing_basis_vector_3'> +1.2190214e-04 </wgt>
<wgt id='morphing_basis_vector_4'> +2.2869854e-05 </wgt>
<wgt id='morphing_basis_vector_5'> +1.5638836e-05 </wgt>
</rwgt>
</event>
<event>
 4      1 +3.1894900e-05 3.71848400e+02 7.81860800e-03 9.74342500e-02
        2 -1    0    0  501    0 +0.0000000000e+00 +0.0000000000e+00 +4.0912682765e+02 4.0912682765e+02 0.0000000000e+00 0.0000e+00 -1.0000e+00
       -2 -1    0    0    0  501 -0.0000000000e+00 -0.0000000000e+00 -8.4491666346e+01 8.4491666346e+01 0.0000000000e+00 0.0000e+00 1.0000e+00
      -13  1    1    2    0    0 +1.1394913166e+02 +1.4483130133e+02 +1.2960415193e+02 2.2529479942e+02 0.0000000000e+00 0.0000e+00 1.0000e+00
       13  1    1    2    0    0 -1.1394913166e+02 -1.4483130133e+02 +1.9503100938e+02 2.6832369458e+02 0.0000000000e+00 0.0000e+00 -1.0000e+00
<mgrwt>
<rscale>  0 0.37184840E+03</rscale>
<asrwt>0</asrwt>
<pdfrwt beam="1">  1        2 0.62942588E-01 0.37184840E+03</pdfrwt>
<pdfrwt beam="2">  1       -2 0.12998718E-01 0.37184840E+03</pdfrwt>
<totfact> 0.36701564E+03</totfact>
</mgrwt>
<rwgt>
<wgt id='morphing_basis_vector_1'> +2.1313693e-04 </wgt>
<wgt id='morphing_basis_vector_2'> +1.2427643e-04 </wgt>
<wgt id='morphing_basis_vector_3'> +1.2564587e-04 </wgt>
<wgt id='morphing_basis_vector_4'> +2.5985576e-05 </wgt>
<wgt id='morphing_basis_vector_5'> +1.9540301e-05 </wgt>
</rwgt>
</event>
<event>
 4      1 +3.1894900e-05 4.22805800e+02 7.81860800e-03 9.59138900e-02
        2 -1    0    0  501    0 +0.0000000000e+00 +0.0000000000e+00 +1.0864641081e+03 1.0864641081e+03 0.0000000000e+00 0.0000e+00 -1.0000e+00
       -2 -1    0    0    0  501 -0.0000000000e+00 -0.0000000000e+00 -4.1134531249e+01 4.1134531249e+01 0.0000000000e+00 0.0000e+00 1.0000e+00
      -13  1    1    2    0    0 -1.7023302327e+02 +1.1440495874e+02 +3.8606592724e+02 4.3716664668e+02 0.0000000000e+00 0.0000e+00 1.0000e+00
       13  1    1    2    0    0 +1.7023302327e+02 -1.1440495874e+02 +6.5926364958e+02 6.9043199263e+02 0.0000000000e+00 0.0000e+00 -1.0000e+00
<mgrwt>
<rscale>  0 0.42280583E+03</rscale>
<asrwt>0</asrwt>
<pdfrwt beam="1">  1        2 0.16714830E+00 0.42280583E+03</pdfrwt>
<pdfrwt beam="2">  1       -2 0.63283902E-02 0.42280583E+03</pdfrwt>
<totfact> 0.34178361E+03</totfact>
</mgrwt>
<rwgt>
<wgt id='morphing_basis_vector_1'> +2.9664503e-04 </wgt>
<wgt id='morphing_basis_vector_2'> +1.6889365e-04 </wgt>
<wgt id='morphing_basis_vector_3'> +1.9001658e-04 </wgt>
<wgt id='morphing_basis_vector_4'> +4.7735257e-05 </wgt>
<wgt id='morphing_basis_vector_5'> +5.5007117e-05 </wgt>
</rwgt>
</event>
<event>
 4      1 +3.1894900e-05 4.25623000e+02 7.81860800e-03 9.58365700e-02
        2 -1    0    0  501    0 +0.0000000000e+00 +0.0000000000e+00 +3.7551942037e+01 3.7551942037e+01 0.0000000000e+00 0.0000e+00 -1.0000e+00
       -2 -1    0    0    0  501 -0.0000000000e+00 -0.0000000000e+00 -1.2060291302e+03 1.2060291302e+03 0.0000000000e+00 0.0000e+00 1.0000e+00
      -13  1    1    2    0    0 +2.0063810348e+02 -1.8291615650e+01 -3.8396263581e+02 4.3360989088e+02 0.0000000000e+00 0.0000e+00 1.0000e+00
       13  1    1    2    0    0 -2.0063810348e+02 +1.8291615650e+01 -7.8451455235e+02 8.0997118136e+02 0.0000000000e+00 0.0000e+00 -1.0000e+00
<mgrwt>
<rscale>  0 0.42562301E+03</rscale>
<asrwt>0</asrwt>
<pdfrwt beam="1">  1        2 0.57772219E-02 0.42562301E+03</pdfrwt>
<pdfrwt beam="2">  1       -2 0.18554294E+00 0.42562301E+03</pdfrwt>
<totfact> 0.26839206E+02</totfact>
</mgrwt>
<rwgt>
<wgt id='morphing_basis_vector_1'> +3.2726554e-04 </wgt>
<wgt id='morphing_basis_vector_2'> +2.4953291e-04 </wgt>
<wgt id='morphing_basis_vector_3'> +1.7403766e-04 </wgt>
<wgt id='morphing_basis_vector_4'> +4.7812834e-05 </wgt>
<wgt id='morphing_basis_vector_5'> +5.9216243e-05 </wgt>
</rwgt>
</event>
<event>
 4      1 +3.1894900e-05 3.89392600e+02 7.81860800e-03 9.68828900e-02
        2 -1    0    0  501    0 +0.0000000000e+00 +0.0000000000e+00 +8.1565382891e+02 8.1565382891e+02 0.0000000000e+00 0.0000e+00 -1.0000e+00
       -2 -1    0    0    0  501 -0.0000000000e+00 -0.0000000000e+00 -4.6473952985e+01 4.6473952985e+01 0.0000000000e+00 0.0000e+00 1.0000e+00
      -13  1    1    2    0    0 -1.5778606140e+02 +9.6845839755e+01 +2.5117545004e+02 3.1203311451e+02 0.0000000000e+00 0.0000e+00 1.0000e+00
       13  1    1    2    0    0 +1.5778606140e+02 -9.6845839755e+01 +5.1800442589e+02 5.5009466739e+02 0.0000000000e+00 0.0000e+00 -1.0000e+00
<mgrwt>
<rscale>  0 0.38939264E+03</rscale>
<asrwt>0</asrwt>
<pdfrwt beam="1">  1        2 0.12548519E+00 0.38939264E+03</pdfrwt>
<pdfrwt beam="2">  1       -2 0.71498395E-02 0.38939264E+03</pdfrwt>
<totfact> 0.41775548E+03</totfact>
</mgrwt>
<rwgt>
<wgt id='morphing_basis_vector_1'> +2.3746918e-04 </wgt>
<wgt id='morphing_basis_vector_2'> +1.3291172e-04 </wgt>
<wgt id='morphing_basis_vector_3'> +1.4684991e-04 </wgt>
<wgt id='morphing_basis_vector_4'> +3.1682155e-05 </wgt>
<wgt id='morphing_basis_vector_5'> +2.9132486e-05 </wgt>
</rwgt>
</event>
<event>
 4      1 +3.1894900e-05 3.60589500e+02 7.81860800e-03 9.78055900e-02
        2 -1    0    0  501    0 +0.0000000000e+00 +0.0000000000e+00 +1.0078534783e+02 1.0078534783e+02 0.0000000000e+00 0.0000e+00 -1.0000e+00
       -2 -1    0    0    0  501 -0.0000000000e+00 -0.0000000000e+00 -3.2252904071e+02 3.2252904071e+02 0.0000000000e+00 0.0000e+00 1.0000e+00
      -13  1    1    2    0    0 -5.6255034375e+01 +5.8160664340e+00 -3.1184642777e+02 3.1693319491e+02 0.0000000000e+00 0.0000e+00 1.0000e+00
       13  1    1    2    0    0 +5.6255034375e+01 -5.8160664340e+00 +9.0102734896e+01 1.0638119363e+02 0.0000000000e+00 0.0000e+00 -1.0000e+00
<mgrwt>
<rscale>  0 0.36058953E+03</rscale>
<asrwt>0</asrwt>
<pdfrwt beam="1">  1        2 0.15505438E-01 0.36058953E+03</pdfrwt>
<pdfrwt beam="2">  1       -2 0.49619852E-01 0.36058953E+03</pdfrwt>
<totfact> 0.18342040E+03</totfact>
</mgrwt>
<rwgt>
<wgt id='morphing_basis_vector_1'> +1.9390439e-04 </wgt>
<wgt id='morphing_basis_vector_2'> +1.0447281e-04 </wgt>
<wgt id='morphing_basis_vector_3'> +1.1902316e-04 </wgt>
<wgt id='morphing_basis_vector_4'> +2.1956037e-05 </wgt>
<wgt id='morphing_basis_vector_5'> +1.4274494e-05 </wgt>
</rwgt>
</event>
<event>
 4      1 +3.1894900e-05 3.87847100e+02 7.81860800e-03 9.69302000e-02
        2 -1    0    0  501    0 +0.0000000000e+00 +0.0000000000e+00 +1.6301565185e+02 1.6301565185e+02 0.0000000000e+00 0.0000e+00 1.0000e+00
       -2 -1    0    0    0  501 -0.0000000000e+00 -0.0000000000e+00 -2.3069165834e+02 2.3069165834e+02 0.0000000000e+00 0.0000e+00 -1.0000e+00
      -13  1    1    2    0    0 +1.1209441965e+02 +9.4992251071e+01 -1.6231118497e+02 2.1893745099e+02 0.0000000000e+00 0.0000e+00 -1.0000e+00
       13  1    1    2    0    0 -1.1209441965e+02 -9.4992251071e+01 +9.4635178480e+01 1.7476985920e+02 0.0000000000e+00 0.0000e+00 1.0000e+00
<mgrwt>
<rscale>  0 0.38784714E+03</rscale>
<asrwt>0</asrwt>
<pdfrwt beam="1">  1        2 0.25079331E-01 0.38784714E+03</pdfrwt>
<pdfrwt beam="2">  1       -2 0.35491024E-01 0.38784714E+03</pdfrwt>
<totfact> 0.19351306E+03</totfact>
</mgrwt>
<rwgt>
<wgt id='morphing_basis_vector_1'> +2.3323871e-04 </wgt>
<wgt id='morphing_basis_vector_2'> +1.2607305e-04 </wgt>
<wgt id='morphing_basis_vector_3'> +1.4689553e-04 </wgt>
<wgt id='morphing_basis_vector_4'> +3.0861205e-05 </wgt>
<wgt id='morphing_basis_vector_5'> +2.8058480e-05 </wgt>
</rwgt>
</event>
<event>
 4      1 +3.1894900e-05 3.84099300e+02 7.81860800e-03 9.70459100e-02
        2 -1    0    0  501    0 +0.0000000000e+00 +0.0000000000e+00 +1.3699251148e+03 1.3699251148e+03 0.0000000000e+00 0.0000e+00 -1.0000e+00
       -2 -1    0    0    0  501 -0.0000000000e+00 -0.0000000000e+00 -2.6923414742e+01 2.6923414742e+01 0.0000000000e+00 0.0000e+00 1.0000e+00
      -13  1    1    2    0    0 +1.5125363206e+02 +8.5852338730e+01 +3.7527770269e+02 4.1362016321e+02 0.0000000000e+00 0.0000e+00 1.0000e+00
       13  1    1    2    0    0 -1.5125363206e+02 -8.5852338730e+01 +9.6772399741e+02 9.8322836637e+02 0.0000000000e+00 0.0000e+00 -1.0000e+00
<mgrwt>
<rscale>  0 0.38409927E+03</rscale>
<asrwt>0</asrwt>
<pdfrwt beam="1">  1        2 0.21075766E+00 0.38409927E+03</pdfrwt>
<pdfrwt beam="2">  1       -2 0.41420649E-02 0.38409927E+03</pdfrwt>
<totfact> 0.44780749E+03</totfact>
</mgrwt>
<rwgt>
<wgt id='morphing_basis_vector_1'> +2.2838463e-04 </wgt>
<wgt id='morphing_basis_vector_2'> +1.2572026e-04 </wgt>
<wgt id='morphing_basis_vector_3'> +1.4172098e-04 </wgt>
<wgt id='morphing_basis_vector_4'> +2.9562582e-05 </wgt>
<wgt id='morphing_basis_vector_5'> +2.5886222e-05 </wgt>
</rwgt>
</event>
<event>
 4      1 +3.1894900e-05 4.16982500e+02 7.81860800e-03 9.60757800e-02
        2 -1    0    0  501    0 +0.0000000000e+00 +0.0000000000e+00 +5.7569948221e+02 5.7569948221e+02 0.0000000000e+00 0.0000e+00 1.0000e+00
       -2 -1    0    0    0  501 -0.0000000000e+00 -0.0000000000e+00 -7.5505699255e+01 7.5505699255e+01 0.0000000000e+00 0.0000e+00 -1.0000e+00
      -13  1    1    2    0    0 -3.5785921738e+01 -1.6166075350e+02 +4.4797076518e+02 4.7759044994e+02 0.0000000000e+00 0.0000e+00 1.0000e+00
       13  1    1    2    0    0 +3.5785921738e+01 +1.6166075350e+02 +5.2223017768e+01 1.7361473152e+02 0.0000000000e+00 0.0000e+00 -1.0000e+00
<mgrwt>
<rscale>  0 0.41698246E+03</rscale>
<asrwt>0</asrwt>
<pdfrwt beam="1">  1        2 0.88569149E-01 0.41698246E+03</pdfrwt>
<pdfrwt beam="2">  1       -2 0.11616262E-01 0.41698246E+03</pdfrwt>
<totfact> 0.29946826E+03</totfact>
</mgrwt>
<rwgt>
<wgt id='morphing_basis_vector_1'> +3.4455395e-04 </wgt>
<wgt id='morphing_basis_vector_2'> +3.4340862e-04 </wgt>
<wgt id='morphing_basis_vector_3'> +1.3148290e-04 </wgt>
<wgt id='morphing_basis_vector_4'> +4.3308470e-05 </wgt>
<wgt id='morphing_basis_vector_5'> +5.3466082e-05 </wgt>
</rwgt>
</event>
<event>
 4      1 +3.1894900e-05 3.71978200e+02 7.81860800e-03 9.74300500e-02
        2 -1    0    0  501    0 +0.0000000000e+00 +0.0000000000e+00 +5.4936159618e+02 5.4936159618e+02 0.0000000000e+00 0.0000e+00 1.0000e+00
       -2 -1    0    0    0  501 -0.0000000000e+00 -0.0000000000e+00 -6.2967519456e+01 6.2967519456e+01 0.0000000000e+00 0.0000e+00 -1.0000e+00
      -13  1    1    2    0    0 +9.9002658266e+01 +1.5161347737e+02 +3.1310994319e+02 3.6169878268e+02 0.0000000000e+00 0.0000e+00 -1.0000e+00
       13  1    1    2    0    0 -9.9002658266e+01 -1.5161347737e+02 +1.7328413353e+02 2.5063033295e+02 0.0000000000e+00 0.0000e+00 1.0000e+00
<mgrwt>
<rscale>  0 0.37197816E+03</rscale>
<asrwt>0</asrwt>
<pdfrwt beam="1">  1        2 0.84517165E-01 0.37197816E+03</pdfrwt>
<pdfrwt beam="2">  1       -2 0.96873111E-02 0.37197816E+03</pdfrwt>
<totfact> 0.41815599E+03</totfact>
</mgrwt>
<rwgt>
<wgt id='morphing_basis_vector_1'> +2.2379496e-04 </wgt>
<wgt id='morphing_basis_vector_2'> +1.5602870e-04 </wgt>
<wgt id='morphing_basis_vector_3'> +1.1421924e-04 </wgt>
<wgt id='morphing_basis_vector_4'> +2.8149580e-05 </wgt>
<wgt id='morphing_basis_vector_5'> +2.0293047e-05 </wgt>
</rwgt>
</event>
<event>
 4      1 +3.1894900e-05 4.19795800e+02 7.81860800e-03 9.59972200e-02
        2 -1    0    0  501    0 +0.0000000000e+00 +0.0000000000e+00 +1.4931603329e+03 1.4931603329e+03 0.0000000000e+00 0.0000e+00 -1.0000e+00
       -2 -1    0    0    0  501 -0.0000000000e+00 -0.0000000000e+00 -2.9505959937e+01 2.9505959937e+01 0.0000000000e+00 0.0000e+00 1.0000e+00
      -13  1    1    2    0    0 +1.0563026022e+01 +1.8532815578e+02 +3.7645762308e+02 4.1973616096e+02 0.0000000000e+00 0.0000e+00 1.0000e+00
       13  1    1    2    0    0 -1.0563026022e+01 -1.8532815578e+02 +1.0871967499e+03 1.1029301319e+03 0.0000000000e+00 0.0000e+00 -1.0000e+00
<mgrwt>
<rscale>  0 0.41979580E+03</rscale>
<asrwt>0</asrwt>
<pdfrwt beam="1">  1        2 0.22971692E+00 0.41979580E+03</pdfrwt>
<pdfrwt beam="2">  1       -2 0.45393796E-02 0.41979580E+03</pdfrwt>
<totfact> 0.33465710E+03</totfact>
</mgrwt>
<rwgt>
<wgt id='morphing_basis_vector_1'> +2.8862141e-04 </wgt>
<wgt id='morphing_basis_vector_2'> +1.5850668e-04 </wgt>
<wgt id='morphing_basis_vector_3'> +1.8752217e-04 </wgt>
<wgt id='morphing_basis_vector_4'> +4.6112571e-05 </wgt>
<wgt id='morphing_basis_vector_5'> +5.2106431e-05 </wgt>
</rwgt>
</event>
<event>
 4      1 +3.1894900e-05 3.85764300e+02 7.81860800e-03 9.69943300e-02
        2 -1    0    0  501    0 +0.0000000000e+00 +0.0000000000e+00 +7.7223182709e+02 7.7223182709e+02 0.0000000000e+00 0.0000e+00 -1.0000e+00
       -2 -1    0    0    0  501 -0.0000000000e+00 -0.0000000000e+00 -4.8176623745e+01 4.8176623745e+01 0.0000000000e+00 0.0000e+00 1.0000e+00
      -13  1    1    2    0    0 +1.3430991470e+02 +1.9663666014e+01 +7.0600856705e+01 1.5300422843e+02 0.0000000000e+00 0.0000e+00 1.0000e+00
       13  1    1    2    0    0 -1.3430991470e+02 -1.9663666014e+01 +6.5345434664e+02 6.6740422241e+02 0.0000000000e+00 0.0000e+00 -1.0000e+00
<mgrwt>
<rscale>  0 0.38576429E+03</rscale>
<asrwt>0</asrwt>
<pdfrwt beam="1">  1        2 0.11880489E+00 0.38576429E+03</pdfrwt>
<pdfrwt beam="2">  1       -2 0.74117888E-02 0.38576429E+03</pdfrwt>
<totfact> 0.42326144E+03</totfact>
</mgrwt>
<rwgt>
<wgt id='morphing_basis_vector_1'> +2.2990369e-04 </wgt>
<wgt id='morphing_basis_vector_2'> +1.2397818e-04 </wgt>
<wgt id='morphing_basis_vector_3'> +1.4464747e-04 </wgt>
<wgt id='morphing_basis_vector_4'> +3.0043046e-05 </wgt>
<wgt id='morphing_basis_vector_5'> +2.6796052e-05 </wgt>
</rwgt>
</event>
<event>
 4      1 +3.1894900e-05 3.64243800e+02 7.81860800e-03 9.76834800e-02
        2 -1    0    0  501    0 +0.0000000000e+00 +0.0000000000e+00 +7.9237487163e+02 7.9237487163e+02 0.0000000000e+00 0.0000e+00 1.0000e+00
       -2 -1    0    0    0  501 -0.0000000000e+00 -0.0000000000e+00 -4.1859469594e+01 4.1859469594e+01 0.0000000000e+00 0.0000e+00 -1.0000e+00
      -13  1    1    2    0    0 +9.6624046866e+01 -8.2604262537e+01 +7.6560129489e+01 1.4839516181e+02 0.0000000000e+00 0.0000e+00 -1.0000e+00
       13  1    1    2    0    0 -9.6624046866e+01 +8.2604262537e+01 +6.7395527254e+02 6.8583917941e+02 0.0000000000e+00 0.0000e+00 1.0000e+00
<mgrwt>
<rscale>  0 0.36424383E+03</rscale>
<asrwt>0</asrwt>
<pdfrwt beam="1">  1        2 0.12190382E+00 0.36424383E+03</pdfrwt>
<pdfrwt beam="2">  1       -2 0.64399190E-02 0.36424383E+03</pdfrwt>
<totfact> 0.50716010E+03</totfact>
</mgrwt>
<rwgt>
<wgt id='morphing_basis_vector_1'> +1.9894187e-04 </wgt>
<wgt id='morphing_basis_vector_2'> +1.0753537e-04 </wgt>
<wgt id='morphing_basis_vector_3'> +1.2226132e-04 </wgt>
<wgt id='morphing_basis_vector_4'> +2.2986461e-05 </wgt>
<wgt id='morphing_basis_vector_5'> +1.5812974e-05 </wgt>
</rwgt>
</event>
<event>
 4      1 +3.1894900e-05 3.91401800e+02 7.81860800e-03 9.68217400e-02
        2 -1    0    0  501    0 +0.0000000000e+00 +0.0000000000e+00 +2.6823817605e+01 2.6823817605e+01 0.0000000000e+00 0.0000e+00 1.0000e+00
       -2 -1    0    0    0  501 -0.0000000000e+00 -0.0000000000e+00 -1.4277921224e+03 1.4277921224e+03 0.0000000000e+00 0.0000e+00 -1.0000e+00
      -13  1    1    2    0    0 -8.8963932778e+01 -1.7144410366e+02 -5.8348023746e+02 6.1461927201e+02 0.0000000000e+00 0.0000e+00 -1.0000e+00
       13  1    1    2    0    0 +8.8963932778e+01 +1.7144410366e+02 -8.1748806735e+02 8.3999666802e+02 0.0000000000e+00 0.0000e+00 1.0000e+00
<mgrwt>
<rscale>  0 0.39140177E+03</rscale>
<asrwt>0</asrwt>
<pdfrwt beam="1">  1        2 0.41267409E-02 0.39140177E+03</pdfrwt>
<pdfrwt beam="2">  1       -2 0.21966034E+00 0.39140177E+03</pdfrwt>
<totfact> 0.24015685E+02</totfact>
</mgrwt>
<rwgt>
<wgt id='morphing_basis_vector_1'> +2.5162348e-04 </wgt>
<wgt id='morphing_basis_vector_2'> +1.6810304e-04 </wgt>
<wgt id='morphing_basis_vector_3'> +1.3829688e-04 </wgt>
<wgt id='morphing_basis_vector_4'> +3.3641731e-05 </wgt>
<wgt id='morphing_basis_vector_5'> +3.1126501e-05 </wgt>
</rwgt>
</event>
<event>
 4      1 +3.1894900e-05 3.76184000e+02 7.81860800e-03 9.72950000e-02
        2 -1    0    0  501    0 +0.0000000000e+00 +0.0000000000e+00 +1.7542117125e+03 1.7542117125e+03 0.0000000000e+00 0.0000e+00 -1.0000e+00
       -2 -1    0    0    0  501 -0.0000000000e+00 -0.0000000000e+00 -2.0167810626e+01 2.0167810626e+01 0.0000000000e+00 0.0000e+00 1.0000e+00
      -13  1    1    2    0    0 +4.4693158953e+00 +1.8524242361e+02 +7.1462675061e+02 7.3825884551e+02 0.0000000000e+00 0.0000e+00 1.0000e+00
       13  1    1    2    0    0 -4.4693158953e+00 -1.8524242361e+02 +1.0194171512e+03 1.0361206776e+03 0.0000000000e+00 0.0000e+00 -1.0000e+00
<mgrwt>
<rscale>  0 0.37618405E+03</rscale>
<asrwt>0</asrwt>
<pdfrwt beam="1">  1        2 0.26987860E+00 0.37618405E+03</pdfrwt>
<pdfrwt beam="2">  1       -2 0.31027415E-02 0.37618405E+03</pdfrwt>
<totfact> 0.42740512E+03</totfact>
</mgrwt>
<rwgt>
<wgt id='morphing_basis_vector_1'> +2.1888454e-04 </wgt>
<wgt id='morphing_basis_vector_2'> +1.2622445e-04 </wgt>
<wgt id='morphing_basis_vector_3'> +1.3069405e-04 </wgt>
<wgt id='morphing_basis_vector_4'> +2.7222494e-05 </wgt>
<wgt id='morphing_basis_vector_5'> +2.1687865e-05 </wgt>
</rwgt>
</event>
<event>
 4      1 +3.1894900e-05 3.90408500e+02 7.81860800e-03 9.68519200e-02
        2 -1    0    0  501    0 +0.0000000000e+00 +0.0000000000e+00 +6.6472043935e+01 6.6472043935e+01 0.0000000000e+00 0.0000e+00 -1.0000e+00
       -2 -1    0    0    0  501 -0.0000000000e+00 -0.0000000000e+00 -5.7324388740e+02 5.7324388740e+02 0.0000000000e+00 0.0000e+00 1.0000e+00
      -13  1    1    2    0    0 -1.2990406190e+02 -6.3756789618e+00 -4.9190490312e+02 5.0880855761e+02 0.0000000000e+00 0.0000e+00 1.0000e+00
       13  1    1    2    0    0 +1.2990406190e+02 +6.3756789618e+00 -1.4866940342e+01 1.3090737372e+02 0.0000000000e+00 0.0000e+00 -1.0000e+00
<mgrwt>
<rscale>  0 0.39040847E+03</rscale>
<asrwt>0</asrwt>
<pdfrwt beam="1">  1        2 0.10226468E-01 0.39040847E+03</pdfrwt>
<pdfrwt beam="2">  1       -2 0.88191369E-01 0.39040847E+03</pdfrwt>
<totfact> 0.92358253E+02</totfact>
</mgrwt>
<rwgt>
<wgt id='morphing_basis_vector_1'> +2.3706207e-04 </wgt>
<wgt id='morphing_basis_vector_2'> +1.2767153e-04 </wgt>
<wgt id='morphing_basis_vector_3'> +1.5004801e-04 </wgt>
<wgt id='morphing_basis_vector_4'> +3.1857635e-05 </wgt>
<wgt id='morphing_basis_vector_5'> +2.9637894e-05 </wgt>
</rwgt>
</event>
<event>
 4      1 +3.1894900e-05 4.23274800e+02 7.81860800e-03 9.59009800e-02
        2 -1    0    0  501    0 +0.0000000000e+00 +0.0000000000e+00 +1.7377278431e+03 1.7377278431e+03 0.0000000000e+00 0.0000e+00 -1.0000e+00
       -2 -1    0    0    0  501 -0.0000000000e+00 -0.0000000000e+00 -2.5775260681e+01 2.5775260681e+01 0.0000000000e+00 0.0000e+00 1.0000e+00
      -13  1    1    2    0    0 -2.0322823763e+02 +5.6406126874e+01 +9.2897874481e+02 9.5262000610e+02 0.0000000000e+00 0.0000e+00 1.0000e+00
       13  1    1    2    0    0 +2.0322823763e+02 -5.6406126874e+01 +7.8297383761e+02 8.1088309768e+02 0.0000000000e+00 0.0000e+00 -1.0000e+00
<mgrwt>
<rscale>  0 0.42327480E+03</rscale>
<asrwt>0</asrwt>
<pdfrwt beam="1">  1        2 0.26734265E+00 0.42327480E+03</pdfrwt>
<pdfrwt beam="2">  1       -2 0.39654261E-02 0.42327480E+03</pdfrwt>
<totfact> 0.30261771E+03</totfact>
</mgrwt>
<rwgt>
<wgt id='morphing_basis_vector_1'> +3.0645005e-04 </wgt>
<wgt id='morphing_basis_vector_2'> +1.9680513e-04 </wgt>
<wgt id='morphing_basis_vector_3'> +1.8345353e-04 </wgt>
<wgt id='morphing_basis_vector_4'> +4.7553088e-05 </wgt>
<wgt id='morphing_basis_vector_5'> +5.5995808e-05 </wgt>
</rwgt>
</event>
<event>
 4      1 +3.1894900e-05 3.92442700e+02 7.81860800e-03 9.67902100e-02
        2 -1    0    0  501    0 +0.0000000000e+00 +0.0000000000e+00 +6.8108237760e+02 6.8108237760e+02 0.0000000000e+00 0.0000e+00 1.0000e+00
       -2 -1    0    0    0  501 -0.0000000000e+00 -0.0000000000e+00 -5.6531797566e+01 5.6531797566e+01 0.0000000000e+00 0.0000e+00 -1.0000e+00
      -13  1    1    2    0    0 -1.4396958454e+02 +7.4397350161e+01 +5.2022315480e+02 5.4488011321e+02 0.0000000000e+00 0.0000e+00 1.0000e+00
       13  1    1    2    0    0 +1.4396958454e+02 -7.4397350161e+01 +1.0432742524e+02 1.9273406196e+02 0.0000000000e+00 0.0000e+00 -1.0000e+00
<mgrwt>
<rscale>  0 0.39244266E+03</rscale>
<asrwt>0</asrwt>
<pdfrwt beam="1">  1        2 0.10478190E+00 0.39244266E+03</pdfrwt>
<pdfrwt beam="2">  1       -2 0.86972001E-02 0.39244266E+03</pdfrwt>
<totfact> 0.38562336E+03</totfact>
</mgrwt>
<rwgt>
<wgt id='morphing_basis_vector_1'> +2.8731597e-04 </wgt>
<wgt id='morphing_basis_vector_2'> +2.7276433e-04 </wgt>
<wgt id='morphing_basis_vector_3'> +1.0596178e-04 </wgt>
<wgt id='morphing_basis_vector_4'> +3.7442240e-05 </wgt>
<wgt id='morphing_basis_vector_5'> +3.4039461e-05 </wgt>
</rwgt>
</event>
<event>
 4      1 +3.1894900e-05 3.67848000e+02 7.81860800e-03 9.75645500e-02
        2 -1    0    0  501    0 +0.0000000000e+00 +0.0000000000e+00 +9.4926738267e+01 9.4926738267e+01 0.0000000000e+00 0.0000e+00 1.0000e+00
       -2 -1    0    0    0  501 -0.0000000000e+00 -0.0000000000e+00 -3.5635935114e+02 3.5635935114e+02 0.0000000000e+00 0.0000e+00 -1.0000e+00
      -13  1    1    2    0    0 -7.7277035995e+01 +9.9909184411e+00 -3.3510916854e+02 3.4404899881e+02 0.0000000000e+00 0.0000e+00 -1.0000e+00
       13  1    1    2    0    0 +7.7277035995e+01 -9.9909184411e+00 +7.3676555670e+01 1.0723709059e+02 0.0000000000e+00 0.0000e+00 1.0000e+00
<mgrwt>
<rscale>  0 0.36784796E+03</rscale>
<asrwt>0</asrwt>
<pdfrwt beam="1">  1        2 0.14604114E-01 0.36784796E+03</pdfrwt>
<pdfrwt beam="2">  1       -2 0.54824515E-01 0.36784796E+03</pdfrwt>
<totfact> 0.16247230E+03</totfact>
</mgrwt>
<rwgt>
<wgt id='morphing_basis_vector_1'> +2.0367949e-04 </wgt>
<wgt id='morphing_basis_vector_2'> +1.0960293e-04 </wgt>
<wgt id='morphing_basis_vector_3'> +1.2594373e-04 </wgt>
<wgt id='morphing_basis_vector_4'> +2.3978927e-05 </wgt>
<wgt id='morphing_basis_vector_5'> +1.7400460e-05 </wgt>
</rwgt>
</event>
<event>
 4      1 +3.1894900e-05 3.99076300e+02 7.81860800e-03 9.65917000e-02
        2 -1    0    0  501    0 +0.0000000000e+00 +0.0000000000e+00 +1.4254244342e+03 1.4254244342e+03 0.0000000000e+00 0.0000e+00 1.0000e+00
       -2 -1    0    0    0  501 -0.0000000000e+00 -0.0000000000e+00 -2.7932357618e+01 2.7932357618e+01 0.0000000000e+00 0.0000e+00 -1.0000e+00
      -13  1    1    2    0    0 +1.8984434823e-01 +1.8362040387e+02 +9.8315601389e+02 1.0001561060e+03 0.0000000000e+00 0.0000e+00 1.0000e+00
       13  1    1    2    0    0 -1.8984434823e-01 -1.8362040387e+02 +4.1433606267e+02 4.5320068577e+02 0.0000000000e+00 0.0000e+00 -1.0000e+00
<mgrwt>
<rscale>  0 0.39907626E+03</rscale>
<asrwt>0</asrwt>
<pdfrwt beam="1">  1        2 0.21929601E+00 0.39907626E+03</pdfrwt>
<pdfrwt beam="2">  1       -2 0.42972869E-02 0.39907626E+03</pdfrwt>
<totfact> 0.39538502E+03</totfact>
</mgrwt>
<rwgt>
<wgt id='morphing_basis_vector_1'> +2.8082352e-04 </wgt>
<wgt id='morphing_basis_vector_2'> +2.2613758e-04 </wgt>
<wgt id='morphing_basis_vector_3'> +1.3223212e-04 </wgt>
<wgt id='morphing_basis_vector_4'> +3.7589430e-05 </wgt>
<wgt id='morphing_basis_vector_5'> +3.7380511e-05 </wgt>
</rwgt>
</event>
<event>
 4      1 +3.1894900e-05 4.05830700e+02 7.81860800e-03 9.63937700e-02
        2 -1    0    0  501    0 +0.0000000000e+00 +0.0000000000e+00 +1.4482210071e+03 1.4482210071e+03 0.0000000000e+00 0.0000e+00 -1.0000e+00
       -2 -1    0    0    0  501 -0.0000000000e+00 -0.0000000000e+00 -2.8431188873e+01 2.8431188873e+01 0.0000000000e+00 0.0000e+00 1.0000e+00
      -13  1    1    2    0    0 -9.1706050751e+01 -1.6984538445e+02 +9.3762511622e+02 9.5728695433e+02 0.0000000000e+00 0.0000e+00 1.0000e+00
       13  1    1    2    0    0 +9.1706050751e+01 +1.6984538445e+02 +4.8216470198e+02 5.1936524162e+02 0.0000000000e+00 0.0000e+00 -1.0000e+00
<mgrwt>
<rscale>  0 0.40583073E+03</rscale>
<asrwt>0</asrwt>
<pdfrwt beam="1">  1        2 0.22280317E+00 0.40583073E+03</pdfrwt>
<pdfrwt beam="2">  1       -2 0.43740302E-02 0.40583073E+03</pdfrwt>
<totfact> 0.37422213E+03</totfact>
</mgrwt>
<rwgt>
<wgt id='morphing_basis_vector_1'> +2.8635045e-04 </wgt>
<wgt id='morphing_basis_vector_2'> +2.1450501e-04 </wgt>
<wgt id='morphing_basis_vector_3'> +1.4738325e-04 </wgt>
<wgt id='morphing_basis_vector_4'> +3.9566345e-05 </wgt>
<wgt id='morphing_basis_vector_5'> +4.1952331e-05 </wgt>
</rwgt>
</event>
<event>
 4      1 +3.1894900e-05 3.97592800e+02 7.81860800e-03 9.66357400e-02
        2 -1    0    0  501    0 +0.0000000000e+00 +0.0000000000e+00 +9.5874718159e+02 9.5874718159e+02 0.0000000000e+00 0.0000e+00 1.0000e+00
       -2 -1    0    0    0  501 -0.0000000000e+00 -0.0000000000e+00 -4.1220464286e+01 4.1220464286e+01 0.0000000000e+00 0.0000e+00 -1.0000e+00
      -13  1    1    2    0    0 -8.1157649909e+01 -1.3618810688e+02 +1.5710101265e+02 2.2319160551e+02 0.0000000000e+00 0.0000e+00 -1.0000e+00
       13  1    1    2    0    0 +8.1157649909e+01 +1.3618810688e+02 +7.6042570465e+02 7.7677604036e+02 0.0000000000e+00 0.0000e+00 1.0000e+00
<mgrwt>
<rscale>  0 0.39759278E+03</rscale>
<asrwt>0</asrwt>
<pdfrwt beam="1">  1        2 0.14749955E+00 0.39759278E+03</pdfrwt>
<pdfrwt beam="2">  1       -2 0.63416106E-02 0.39759278E+03</pdfrwt>
<totfact> 0.40613620E+03</totfact>
</mgrwt>
<rwgt>
<wgt id='morphing_basis_vector_1'> +2.4895838e-04 </wgt>
<wgt id='morphing_basis_vector_2'> +1.3493439e-04 </wgt>
<wgt id='morphing_basis_vector_3'> +1.5836194e-04 </wgt>
<wgt id='morphing_basis_vector_4'> +3.4926416e-05 </wgt>
<wgt id='morphing_basis_vector_5'> +3.4418881e-05 </wgt>
</rwgt>
</event>
<event>
 4      1 +3.1894900e-05 3.89982800e+02 7.81860800e-03 9.68648800e-02
        2 -1    0    0  501    0 +0.0000000000e+00 +0.0000000000e+00 +1.3966589843e+02 1.3966589843e+02 0.0000000000e+00 0.0000e+00 -1.0000e+00
       -2 -1    0    0    0  501 -0.0000000000e+00 -0.0000000000e+00 -2.7223287635e+02 2.7223287635e+02 0.0000000000e+00 0.0000e+00 1.0000e+00
      -13  1    1    2    0    0 -1.7579069738e+02 +3.4295564439e-01 -1.5540026720e+02 2.3463105069e+02 0.0000000000e+00 0.0000e+00 1.0000e+00
       13  1    1    2    0    0 +1.7579069738e+02 -3.4295564439e-01 +2.2833289285e+01 1.7726772408e+02 0.0000000000e+00 0.0000e+00 -1.0000e+00
<mgrwt>
<rscale>  0 0.38998282E+03</rscale>
<asrwt>0</asrwt>
<pdfrwt beam="1">  1        2 0.21487061E-01 0.38998282E+03</pdfrwt>
<pdfrwt beam="2">  1       -2 0.41881981E-01 0.38998282E+03</pdfrwt>
<totfact> 0.17138289E+03</totfact>
</mgrwt>
<rwgt>
<wgt id='morphing_basis_vector_1'> +2.3746618e-04 </wgt>
<wgt id='morphing_basis_vector_2'> +1.3058184e-04 </wgt>
<wgt id='morphing_basis_vector_3'> +1.4847441e-04 </wgt>
<wgt id='morphing_basis_vector_4'> +3.1807563e-05 </wgt>
<wgt id='morphing_basis_vector_5'> +2.9440543e-05 </wgt>
</rwgt>
</event>
<event>
 4      1 +3.1894900e-05 3.65011600e+02 7.81860800e-03 9.76580200e-02
        2 -1    0    0  501    0 +0.0000000000e+00 +0.0000000000e+00 +6.7024544941e+01 6.7024544941e+01 0.0000000000e+00 0.0000e+00 1.0000e+00
       -2 -1    0    0    0  501 -0.0000000000e+00 -0.0000000000e+00 -4.9695777982e+02 4.9695777982e+02 0.0000000000e+00 0.0000e+00 -1.0000e+00
      -13  1    1    2    0    0 +1.1459213450e+02 -1.4169328059e+02 -1.9951353044e+02 2.7021101363e+02 0.0000000000e+00 0.0000e+00 1.0000e+00
       13  1    1    2    0    0 -1.1459213450e+02 +1.4169328059e+02 -2.3041970444e+02 2.9377131114e+02 0.0000000000e+00 0.0000e+00 -1.0000e+00
<mgrwt>
<rscale>  0 0.36501161E+03</rscale>
<asrwt>0</asrwt>
<pdfrwt beam="1">  1        2 0.10311468E-01 0.36501161E+03</pdfrwt>
<pdfrwt beam="2">  1       -2 0.76455044E-01 0.36501161E+03</pdfrwt>
<totfact> 0.12584707E+03</totfact>
</mgrwt>
<rwgt>
<wgt id='morphing_basis_vector_1'> +2.0723027e-04 </wgt>
<wgt id='morphing_basis_vector_2'> +1.2991695e-04 </wgt>
<wgt id='morphing_basis_vector_3'> +1.1471085e-04 </wgt>
<wgt id='morphing_basis_vector_4'> +2.4923549e-05 </wgt>
<wgt id='morphing_basis_vector_5'> +1.6618466e-05 </wgt>
</rwgt>
</event>
<event>
 4      1 +3.1894900e-05 3.80902100e+02 7.81860800e-03 9.71457400e-02
        2 -1    0    0  501    0 +0.0000000000e+00 +0.0000000000e+00 +7.8579465744e+01 7.8579465744e+01 0.0000000000e+00 0.0000e+00 1.0000e+00
       -2 -1    0    0    0  501 -0.0000000000e+00 -0.0000000000e+00 -4.6159137438e+02 4.6159137438e+02 0.0000000000e+00 0.0000e+00 -1.0000e+00
      -13  1    1    2    0    0 -5.7292042774e+00 +1.8789931682e+02 -2.3481430542e+02 3.0079350902e+02 0.0000000000e+00 0.0000e+00 -1.0000e+00
       13  1    1    2    0    0 +5.7292042774e+00 -1.8789931682e+02 -1.4819760322e+02 2.3937733110e+02 0.0000000000e+00 0.0000e+00 1.0000e+00
<mgrwt>
<rscale>  0 0.38090211E+03</rscale>
<asrwt>0</asrwt>
<pdfrwt beam="1">  1        2 0.12089149E-01 0.38090211E+03</pdfrwt>
<pdfrwt beam="2">  1       -2 0.71014058E-01 0.38090211E+03</pdfrwt>
<totfact> 0.12095970E+03</totfact>
</mgrwt>
<rwgt>
<wgt id='morphing_basis_vector_1'> +2.2609520e-04 </wgt>
<wgt id='morphing_basis_vector_2'> +1.3078828e-04 </wgt>
<wgt id='morphing_basis_vector_3'> +1.3552650e-04 </wgt>
<wgt id='morphing_basis_vector_4'> +2.8814947e-05 </wgt>
<wgt id='morphing_basis_vector_5'> +2.4238276e-05 </wgt>
</rwgt>
</event>
<event>
 4      1 +3.1894900e-05 3.69142800e+02 7.81860800e-03 9.75221800e-02
        2 -1    0    0  501    0 +0.0000000000e+00 +0.0000000000e+00 +1.4716016943e+03 1.4716016943e+03 0.0000000000e+00 0.0000e+00 -1.0000e+00
       -2 -1    0    0    0  501 -0.0000000000e+00 -0.0000000000e+00 -2.3149339372e+01 2.3149339372e+01 0.0000000000e+00 0.0000e+00 1.0000e+00
      -13  1    1    2    0    0 +3.3090595474e+01 -1.6814531700e+02 +4.4665995946e+02 4.7840668319e+02 0.0000000000e+00 0.0000e+00 1.0000e+00
       13  1    1    2    0    0 -3.3090595474e+01 +1.6814531700e+02 +1.0017923955e+03 1.0163443505e+03 0.0000000000e+00 0.0000e+00 -1.0000e+00
<mgrwt>
<rscale>  0 0.36914283E+03</rscale>
<asrwt>0</asrwt>
<pdfrwt beam="1">  1        2 0.22640019E+00 0.36914283E+03</pdfrwt>
<pdfrwt beam="2">  1       -2 0.35614380E-02 0.36914283E+03</pdfrwt>
<totfact> 0.49378972E+03</totfact>
</mgrwt>
<rwgt>
<wgt id='morphing_basis_vector_1'> +2.0686843e-04 </wgt>
<wgt id='morphing_basis_vector_2'> +1.1476844e-04 </wgt>
<wgt id='morphing_basis_vector_3'> +1.2565488e-04 </wgt>
<wgt id='morphing_basis_vector_4'> +2.4668232e-05 </wgt>
<wgt id='morphing_basis_vector_5'> +1.8089370e-05 </wgt>
</rwgt>
</event>
<event>
 4      1 +3.1894900e-05 3.66118700e+02 7.81860800e-03 9.76214300e-02
        2 -1    0    0  501    0 +0.0000000000e+00 +0.0000000000e+00 +1.0455989664e+03 1.0455989664e+03 0.0000000000e+00 0.0000e+00 1.0000e+00
       -2 -1    0    0    0  501 -0.0000000000e+00 -0.0000000000e+00 -3.2049312921e+01 3.2049312921e+01 0.0000000000e+00 0.0000e+00 -1.0000e+00
      -13  1    1    2    0    0 -1.6419511221e+02 -7.6728115519e+01 +4.3095683766e+02 4.6751581204e+02 0.0000000000e+00 0.0000e+00 -1.0000e+00
       13  1    1    2    0    0 +1.6419511221e+02 +7.6728115519e+01 +5.8259281582e+02 6.1013246728e+02 0.0000000000e+00 0.0000e+00 1.0000e+00
<mgrwt>
<rscale>  0 0.36611872E+03</rscale>
<asrwt>0</asrwt>
<pdfrwt beam="1">  1        2 0.16086135E+00 0.36611872E+03</pdfrwt>
<pdfrwt beam="2">  1       -2 0.49306643E-02 0.36611872E+03</pdfrwt>
<totfact> 0.52562176E+03</totfact>
</mgrwt>
<rwgt>
<wgt id='morphing_basis_vector_1'> +2.0492006e-04 </wgt>
<wgt id='morphing_basis_vector_2'> +1.1923018e-04 </wgt>
<wgt id='morphing_basis_vector_3'> +1.2015701e-04 </wgt>
<wgt id='morphing_basis_vector_4'> +2.4313125e-05 </wgt>
<wgt id='morphing_basis_vector_5'> +1.6857597e-05 </wgt>
</rwgt>
</event>
<event>
 4      1 +3.1894900e-05 3.71299100e+02 7.81860800e-03 9.74520400e-02
        2 -1    0    0  501    0 +0.0000000000e+00 +0.0000000000e+00 +2.4286156854e+02 2.4286156854e+02 0.0000000000e+00 0.0000e+00 -1.0000e+00
       -2 -1    0    0    0  501 -0.0000000000e+00 -0.0000000000e+00 -1.4191520525e+02 1.4191520525e+02 0.0000000000e+00 0.0000e+00 1.0000e+00
      -13  1    1    2    0    0 -1.3514015354e+01 +1.3653930448e+02 -7.9126906164e+01 1.5838774435e+02 0.0000000000e+00 0.0000e+00 1.0000e+00
       13  1    1    2    0    0 +1.3514015354e+01 -1.3653930448e+02 +1.8007326945e+02 2.2638902944e+02 0.0000000000e+00 0.0000e+00 -1.0000e+00
<mgrwt>
<rscale>  0 0.37129907E+03</rscale>
<asrwt>0</asrwt>
<pdfrwt beam="1">  1        2 0.37363318E-01 0.37129907E+03</pdfrwt>
<pdfrwt beam="2">  1       -2 0.21833109E-01 0.37129907E+03</pdfrwt>
<totfact> 0.28326224E+03</totfact>
</mgrwt>
<rwgt>
<wgt id='morphing_basis_vector_1'> +2.0872369e-04 </wgt>
<wgt id='morphing_basis_vector_2'> +1.1286917e-04 </wgt>
<wgt id='morphing_basis_vector_3'> +1.2910939e-04 </wgt>
<wgt id='morphing_basis_vector_4'> +2.5073864e-05 </wgt>
<wgt id='morphing_basis_vector_5'> +1.9035003e-05 </wgt>
</rwgt>
</event>
<event>
 4      1 +3.1894900e-05 4.27904200e+02 7.81860800e-03 9.57744200e-02
        2 -1    0    0  501    0 +0.0000000000e+00 +0.0000000000e+00 +3.3268226847e+02 3.3268226847e+02 0.0000000000e+00 0.0000e+00 1.0000e+00
       -2 -1    0    0    0  501 -0.0000000000e+00 -0.0000000000e+00 -1.3759522800e+02 1.3759522800e+02 0.0000000000e+00 0.0000e+00 -1.0000e+00
      -13  1    1    2    0    0 -1.4291131522e+02 -1.5857492491e+02 +8.1775599492e+01 2.2859768043e+02 0.0000000000e+00 0.0000e+00 -1.0000e+00
       13  1    1    2    0    0 +1.4291131522e+02 +1.5857492491e+02 +1.1331144098e+02 2.4167981604e+02 0.0000000000e+00 0.0000e+00 1.0000e+00
<mgrwt>
<rscale>  0 0.42790416E+03</rscale>
<asrwt>0</asrwt>
<pdfrwt beam="1">  1        2 0.51181887E-01 0.42790416E+03</pdfrwt>
<pdfrwt beam="2">  1       -2 0.21168497E-01 0.42790416E+03</pdfrwt>
<totfact> 0.21064431E+03</totfact>
</mgrwt>
<rwgt>
<wgt id='morphing_basis_vector_1'> +3.1031817e-04 </wgt>
<wgt id='morphing_basis_vector_2'> +1.8622409e-04 </wgt>
<wgt id='morphing_basis_vector_3'> +1.9474350e-04 </wgt>
<wgt id='morphing_basis_vector_4'> +5.0468604e-05 </wgt>
<wgt id='morphing_basis_vector_5'> +6.0114801e-05 </wgt>
</rwgt>
</event>
<event>
 4      1 +3.1894900e-05 4.07666800e+02 7.81860800e-03 9.63406700e-02
        2 -1    0    0  501    0 +0.0000000000e+00 +0.0000000000e+00 +3.5363467620e+02 3.5363467620e+02 0.0000000000e+00 0.0000e+00 1.0000e+00
       -2 -1    0    0    0  501 -0.0000000000e+00 -0.0000000000e+00 -1.1748863979e+02 1.1748863979e+02 0.0000000000e+00 0.0000e+00 -1.0000e+00
      -13  1    1    2    0    0 +4.2324599406e+01 +1.9469896392e+02 +1.6776628639e+02 2.6046993131e+02 0.0000000000e+00 0.0000e+00 1.0000e+00
       13  1    1    2    0    0 -4.2324599406e+01 -1.9469896392e+02 +6.8379750014e+01 2.1065338468e+02 0.0000000000e+00 0.0000e+00 -1.0000e+00
<mgrwt>
<rscale>  0 0.40766681E+03</rscale>
<asrwt>0</asrwt>
<pdfrwt beam="1">  1        2 0.54405334E-01 0.40766681E+03</pdfrwt>
<pdfrwt beam="2">  1       -2 0.18075175E-01 0.40766681E+03</pdfrwt>
<totfact> 0.25501067E+03</totfact>
</mgrwt>
<rwgt>
<wgt id='morphing_basis_vector_1'> +2.8305789e-04 </wgt>
<wgt id='morphing_basis_vector_2'> +1.9644908e-04 </wgt>
<wgt id='morphing_basis_vector_3'> +1.5589583e-04 </wgt>
<wgt id='morphing_basis_vector_4'> +4.0092737e-05 </wgt>
<wgt id='morphing_basis_vector_5'> +4.2953460e-05 </wgt>
</rwgt>
</event>
<event>
 4      1 +3.1894900e-05 4.19874400e+02 7.81860800e-03 9.59950400e-02
        2 -1    0    0  501    0 +0.0000000000e+00 +0.0000000000e+00 +1.5172105413e+02 1.5172105413e+02 0.0000000000e+00 0.0000e+00 1.0000e+00
       -2 -1    0    0    0  501 -0.0000000000e+00 -0.0000000000e+00 -2.9049122371e+02 2.9049122371e+02 0.0000000000e+00 0.0000e+00 -1.0000e+00
      -13  1    1    2    0    0 +1.5387478510e+02 -3.2085829620e+01 -2.1595303303e+02 2.6710047253e+02 0.0000000000e+00 0.0000e+00 -1.0000e+00
       13  1    1    2    0    0 -1.5387478510e+02 +3.2085829620e+01 +7.7182863448e+01 1.7511180532e+02 0.0000000000e+00 0.0000e+00 1.0000e+00
<mgrwt>
<rscale>  0 0.41987443E+03</rscale>
<asrwt>0</asrwt>
<pdfrwt beam="1">  1        2 0.23341700E-01 0.41987443E+03</pdfrwt>
<pdfrwt beam="2">  1       -2 0.44690958E-01 0.41987443E+03</pdfrwt>
<totfact> 0.13790120E+03</totfact>
</mgrwt>
<rwgt>
<wgt id='morphing_basis_vector_1'> +2.8787159e-04 </wgt>
<wgt id='morphing_basis_vector_2'> +1.5583219e-04 </wgt>
<wgt id='morphing_basis_vector_3'> +1.8838444e-04 </wgt>
<wgt id='morphing_basis_vector_4'> +4.6187933e-05 </wgt>
<wgt id='morphing_basis_vector_5'> +5.2121190e-05 </wgt>
</rwgt>
</event>
<event>
 4      1 +3.1894900e-05 3.66985100e+02 7.81860800e-03 9.75928900e-02
        2 -1    0    0  501    0 +0.0000000000e+00 +0.0000000000e+00 +3.8416904315e+02 3.8416904315e+02 0.0000000000e+00 0.0000e+00 -1.0000e+00
       -2 -1    0    0    0  501 -0.0000000000e+00 -0.0000000000e+00 -8.7642464760e+01 8.7642464760e+01 0.0000000000e+00 0.0000e+00 1.0000e+00
      -13  1    1    2    0    0 -3.2363919238e+01 -1.5110341686e+02 +2.7546946914e+02 3.1585296308e+02 0.0000000000e+00 0.0000e+00 1.0000e+00
       13  1    1    2    0    0 +3.2363919238e+01 +1.5110341686e+02 +2.1057109252e+01 1.5595854483e+02 0.0000000000e+00 0.0000e+00 -1.0000e+00
<mgrwt>
<rscale>  0 0.36698513E+03</rscale>
<asrwt>0</asrwt>
<pdfrwt beam="1">  1        2 0.59102929E-01 0.36698513E+03</pdfrwt>
<pdfrwt beam="2">  1       -2 0.13483456E-01 0.36698513E+03</pdfrwt>
<totfact> 0.37124937E+03</totfact>
</mgrwt>
<rwgt>
<wgt id='morphing_basis_vector_1'> +2.3934301e-04 </wgt>
<wgt id='morphing_basis_vector_2'> +2.2005383e-04 </wgt>
<wgt id='morphing_basis_vector_3'> +8.3403422e-05 </wgt>
<wgt id='morphing_basis_vector_4'> +3.2117878e-05 </wgt>
<wgt id='morphing_basis_vector_5'> +1.9419291e-05 </wgt>
</rwgt>
</event>
<event>
 4      1 +3.1894900e-05 3.64373600e+02 7.81860800e-03 9.76791700e-02
        2 -1    0    0  501    0 +0.0000000000e+00 +0.0000000000e+00 +1.4249430030e+02 1.4249430030e+02 0.0000000000e+00 0.0000e+00 -1.0000e+00
       -2 -1    0    0    0  501 -0.0000000000e+00 -0.0000000000e+00 -2.3293582128e+02 2.3293582128e+02 0.0000000000e+00 0.0000e+00 1.0000e+00
      -13  1    1    2    0    0 +7.9671431089e+01 -1.6379618714e+02 -4.1190677971e+01 1.8674420956e+02 0.0000000000e+00 0.0000e+00 1.0000e+00
       13  1    1    2    0    0 -7.9671431089e+01 +1.6379618714e+02 -4.9250843013e+01 1.8868591201e+02 0.0000000000e+00 0.0000e+00 -1.0000e+00
<mgrwt>
<rscale>  0 0.36437358E+03</rscale>
<asrwt>0</asrwt>
<pdfrwt beam="1">  1        2 0.21922200E-01 0.36437358E+03</pdfrwt>
<pdfrwt beam="2">  1       -2 0.35836280E-01 0.36437358E+03</pdfrwt>
<totfact> 0.22214146E+03</totfact>
</mgrwt>
<rwgt>
<wgt id='morphing_basis_vector_1'> +2.0549462e-04 </wgt>
<wgt id='morphing_basis_vector_2'> +1.2682604e-04 </wgt>
<wgt id='morphing_basis_vector_3'> +1.1507560e-04 </wgt>
<wgt id='morphing_basis_vector_4'> +2.4557534e-05 </wgt>
<wgt id='morphing_basis_vector_5'> +1.6284145e-05 </wgt>
</rwgt>
</event>
<event>
 4      1 +3.1894900e-05 3.94736600e+02 7.81860800e-03 9.67210900e-02
        2 -1    0    0  501    0 +0.0000000000e+00 +0.0000000000e+00 +3.7603264152e+02 3.7603264152e+02 0.0000000000e+00 0.0000e+00 1.0000e+00
       -2 -1    0    0    0  501 -0.0000000000e+00 -0.0000000000e+00 -1.0359270099e+02 1.0359270099e+02 0.0000000000e+00 0.0000e+00 -1.0000e+00
      -13  1    1    2    0    0 -9.6435550876e+00 -1.7083475036e+02 +1.6694897134e+01 1.7191925336e+02 0.0000000000e+00 0.0000e+00 -1.0000e+00
       13  1    1    2    0    0 +9.6435550876e+00 +1.7083475036e+02 +2.5574504339e+02 3.0770608916e+02 0.0000000000e+00 0.0000e+00 1.0000e+00
<mgrwt>
<rscale>  0 0.39473656E+03</rscale>
<asrwt>0</asrwt>
<pdfrwt beam="1">  1        2 0.57851175E-01 0.39473656E+03</pdfrwt>
<pdfrwt beam="2">  1       -2 0.15937339E-01 0.39473656E+03</pdfrwt>
<totfact> 0.29177488E+03</totfact>
</mgrwt>
<rwgt>
<wgt id='morphing_basis_vector_1'> +2.4471539e-04 </wgt>
<wgt id='morphing_basis_vector_2'> +1.3367214e-04 </wgt>
<wgt id='morphing_basis_vector_3'> +1.5446645e-04 </wgt>
<wgt id='morphing_basis_vector_4'> +3.3724874e-05 </wgt>
<wgt id='morphing_basis_vector_5'> +3.2501139e-05 </wgt>
</rwgt>
</event>
<event>
 4      1 +3.1894900e-05 4.06240500e+02 7.81860800e-03 9.63818900e-02
        2 -1    0    0  501    0 +0.0000000000e+00 +0.0000000000e+00 +4.0044727738e+02 4.0044727738e+02 0.0000000000e+00 0.0000e+00 -1.0000e+00
       -2 -1    0    0    0  501 -0.0000000000e+00 -0.0000000000e+00 -1.0302939662e+02 1.0302939662e+02 0.0000000000e+00 0.0000e+00 1.0000e+00
      -13  1    1    2    0    0 +1.5046767399e+02 +1.3535842335e+02 +1.7001064449e+02 2.6432185480e+02 0.0000000000e+00 0.0000e+00 1.0000e+00
       13  1    1    2    0    0 -1.5046767399e+02 -1.3535842335e+02 +1.2740723628e+02 2.3915481919e+02 0.0000000000e+00 0.0000e+00 -1.0000e+00
<mgrwt>
<rscale>  0 0.40624053E+03</rscale>
<asrwt>0</asrwt>
<pdfrwt beam="1">  1        2 0.61607273E-01 0.40624053E+03</pdfrwt>
<pdfrwt beam="2">  1       -2 0.15850677E-01 0.40624053E+03</pdfrwt>
<totfact> 0.27462354E+03</totfact>
</mgrwt>
<rwgt>
<wgt id='morphing_basis_vector_1'> +2.7421763e-04 </wgt>
<wgt id='morphing_basis_vector_2'> +1.7558196e-04 </wgt>
<wgt id='morphing_basis_vector_3'> +1.5966788e-04 </wgt>
<wgt id='morphing_basis_vector_4'> +3.9300306e-05 </wgt>
<wgt id='morphing_basis_vector_5'> +4.1436650e-05 </wgt>
</rwgt>
</event>
<event>
 4      1 +3.1894900e-05 3.81261300e+02 7.81860800e-03 9.71344800e-02
        2 -1    0    0  501    0 +0.0000000000e+00 +0.0000000000e+00 +2.9649776679e+02 2.9649776679e+02 0.0000000000e+00 0.0000e+00 -1.0000e+00
       -2 -1    0    0    0  501 -0.0000000000e+00 -0.0000000000e+00 -1.2256428190e+02 1.2256428190e+02 0.0000000000e+00 0.0000e+00 1.0000e+00
      -13  1    1    2    0    0 +4.6255700175e+01 +1.2453111794e+02 -6.3308949453e+01 1.4715845955e+02 0.0000000000e+00 0.0000e+00 1.0000e+00
       13  1    1    2    0    0 -4.6255700175e+01 -1.2453111794e+02 +2.3724243434e+02 2.7190358914e+02 0.0000000000e+00 0.0000e+00 -1.0000e+00
<mgrwt>
<rscale>  0 0.38126125E+03</rscale>
<asrwt>0</asrwt>
<pdfrwt beam="1">  1        2 0.45615041E-01 0.38126125E+03</pdfrwt>
<pdfrwt beam="2">  1       -2 0.18856044E-01 0.38126125E+03</pdfrwt>
<totfact> 0.28883990E+03</totfact>
</mgrwt>
<rwgt>
<wgt id='morphing_basis_vector_1'> +2.2308040e-04 </wgt>
<wgt id='morphing_basis_vector_2'> +1.2030129e-04 </wgt>
<wgt id='morphing_basis_vector_3'> +1.3965834e-04 </wgt>
<wgt id='morphing_basis_vector_4'> +2.8380328e-05 </wgt>
<wgt id='morphing_basis_vector_5'> +2.4203123e-05 </wgt>
</rwgt>
</event>
<event>
 4      1 +3.1894900e-05 4.12151100e+02 7.81860800e-03 9.62122300e-02
        2 -1    0    0  501    0 +0.0000000000e+00 +0.0000000000e+00 +5.0966927942e+02 5.0966927942e+02 0.0000000000e+00 0.0000e+00 -1.0000e+00
       -2 -1    0    0    0  501 -0.0000000000e+00 -0.0000000000e+00 -8.3322916322e+01 8.3322916322e+01 0.0000000000e+00 0.0000e+00 1.0000e+00
      -13  1    1    2    0    0 +1.5953356303e+02 -3.1315011534e+00 +2.5544903842e+01 1.6159612045e+02 0.0000000000e+00 0.0000e+00 1.0000e+00
       13  1    1    2    0    0 -1.5953356303e+02 +3.1315011534e+00 +4.0080145925e+02 4.3139607529e+02 0.0000000000e+00 0.0000e+00 -1.0000e+00
<mgrwt>
<rscale>  0 0.41215109E+03</rscale>
<asrwt>0</asrwt>
<pdfrwt beam="1">  1        2 0.78410656E-01 0.41215109E+03</pdfrwt>
<pdfrwt beam="2">  1       -2 0.12818911E-01 0.41215109E+03</pdfrwt>
<totfact> 0.29440082E+03</totfact>
</mgrwt>
<rwgt>
<wgt id='morphing_basis_vector_1'> +2.7384695e-04 </wgt>
<wgt id='morphing_basis_vector_2'> +1.4832653e-04 </wgt>
<wgt id='morphing_basis_vector_3'> +1.7741089e-04 </wgt>
<wgt id='morphing_basis_vector_4'> +4.1949599e-05 </wgt>
<wgt id='morphing_basis_vector_5'> +4.5459479e-05 </wgt>
</rwgt>
</event>
<event>
 4      1 +3.1894900e-05 4.28912200e+02 7.81860800e-03 9.57470800e-02
        2 -1    0    0  501    0 +0.0000000000e+00 +0.0000000000e+00 +1.3573810116e+02 1.3573810116e+02 0.0000000000e+00 0.0000e+00 1.0000e+00
       -2 -1    0    0    0  501 -0.0000000000e+00 -0.0000000000e+00 -3.3882471170e+02 3.3882471170e+02 0.0000000000e+00 0.0000e+00 -1.0000e+00
      -13  1    1    2    0    0 -1.6996290058e+02 +9.1552362055e+01 +1.7895227408e+00 1.9306067689e+02 0.0000000000e+00 0.0000e+00 1.0000e+00
       13  1    1    2    0    0 +1.6996290058e+02 -9.1552362055e+01 -2.0487613328e+02 2.8150213597e+02 0.0000000000e+00 0.0000e+00 -1.0000e+00
<mgrwt>
<rscale>  0 0.42891222E+03</rscale>
<asrwt>0</asrwt>
<pdfrwt beam="1">  1        2 0.20882785E-01 0.42891222E+03</pdfrwt>
<pdfrwt beam="2">  1       -2 0.52126878E-01 0.42891222E+03</pdfrwt>
<totfact> 0.11696848E+03</totfact>
</mgrwt>
<rwgt>
<wgt id='morphing_basis_vector_1'> +3.4698113e-04 </wgt>
<wgt id='morphing_basis_vector_2'> +2.9415388e-04 </wgt>
<wgt id='morphing_basis_vector_3'> +1.6913811e-04 </wgt>
<wgt id='morphing_basis_vector_4'> +4.8359740e-05 </wgt>
<wgt id='morphing_basis_vector_5'> +6.3216031e-05 </wgt>
</rwgt>
</event>
<event>
 4      1 +3.1894900e-05 3.72210600e+02 7.81860800e-03 9.74225400e-02
        2 -1    0    0  501    0 +0.0000000000e+00 +0.0000000000e+00 +7.7269875766e+01 7.7269875766e+01 0.0000000000e+00 0.0000e+00 -1.0000e+00
       -2 -1    0    0    0  501 -0.0000000000e+00 -0.0000000000e+00 -4.4823650746e+02 4.4823650746e+02 0.0000000000e+00 0.0000e+00 1.0000e+00
      -13  1    1    2    0    0 -5.2845297287e+01 +1.6471873203e+02 -2.8238096642e+02 3.3115539604e+02 0.0000000000e+00 0.0000e+00 1.0000e+00
       13  1    1    2    0    0 +5.2845297287e+01 -1.6471873203e+02 -8.8585665268e+01 1.9435098718e+02 0.0000000000e+00 0.0000e+00 -1.0000e+00
<mgrwt>
<rscale>  0 0.37221058E+03</rscale>
<asrwt>0</asrwt>
<pdfrwt beam="1">  1        2 0.11887673E-01 0.37221058E+03</pdfrwt>
<pdfrwt beam="2">  1       -2 0.68959464E-01 0.37221058E+03</pdfrwt>
<totfact> 0.13138186E+03</totfact>
</mgrwt>
<rwgt>
<wgt id='morphing_basis_vector_1'> +2.1121099e-04 </wgt>
<wgt id='morphing_basis_vector_2'> +1.1718246e-04 </wgt>
<wgt id='morphing_basis_vector_3'> +1.2870819e-04 </wgt>
<wgt id='morphing_basis_vector_4'> +2.5600512e-05 </wgt>
<wgt id='morphing_basis_vector_5'> +1.9556301e-05 </wgt>
</rwgt>
</event>
<event>
 4      1 +3.1894900e-05 3.70717300e+02 7.81860800e-03 9.74709100e-02
        2 -1    0    0  501    0 +0.0000000000e+00 +0.0000000000e+00 +3.4730009077e+02 3.4730009077e+02 0.0000000000e+00 0.0000e+00 1.0000e+00
       -2 -1    0    0    0  501 -0.0000000000e+00 -0.0000000000e+00 -9.8928351597e+01 9.8928351597e+01 0.0000000000e+00 0.0000e+00 -1.0000e+00
      -13  1    1    2    0    0 -7.6231259974e+01 -1.6646489024e+02 +8.9381533707e+01 2.0374205076e+02 0.0000000000e+00 0.0000e+00 -1.0000e+00
       13  1    1    2    0    0 +7.6231259974e+01 +1.6646489024e+02 +1.5899020546e+02 2.4248639160e+02 0.0000000000e+00 0.0000e+00 1.0000e+00
<mgrwt>
<rscale>  0 0.37071728E+03</rscale>
<asrwt>0</asrwt>
<pdfrwt beam="1">  1        2 0.53430783E-01 0.37071728E+03</pdfrwt>
<pdfrwt beam="2">  1       -2 0.15219747E-01 0.37071728E+03</pdfrwt>
<totfact> 0.34252258E+03</totfact>
</mgrwt>
<rwgt>
<wgt id='morphing_basis_vector_1'> +2.1117854e-04 </wgt>
<wgt id='morphing_basis_vector_2'> +1.2231735e-04 </wgt>
<wgt id='morphing_basis_vector_3'> +1.2488940e-04 </wgt>
<wgt id='morphing_basis_vector_4'> +2.5578986e-05 </wgt>
<wgt id='morphing_basis_vector_5'> +1.8971088e-05 </wgt>
</rwgt>
</event>
<event>
 4      1 +3.1894900e-05 4.01796500e+02 7.81860800e-03 9.65114900e-02
        2 -1    0    0  501    0 +0.0000000000e+00 +0.0000000000e+00 +7.2225513525e+02 7.2225513525e+02 0.0000000000e+00 0.0000e+00 -1.0000e+00
       -2 -1    0    0    0  501 -0.0000000000e+00 -0.0000000000e+00 -5.5880688481e+01 5.5880688481e+01 0.0000000000e+00 0.0000e+00 1.0000e+00
      -13  1    1    2    0    0 -1.9222439437e+02 +2.3958882508e+01 +2.3005550465e+02 3.0074870085e+02 0.0000000000e+00 0.0000e+00 1.0000e+00
       13  1    1    2    0    0 +1.9222439437e+02 -2.3958882508e+01 +4.3631894212e+02 4.7738712288e+02 0.0000000000e+00 0.0000e+00 -1.0000e+00
<mgrwt>
<rscale>  0 0.40179654E+03</rscale>
<asrwt>0</asrwt>
<pdfrwt beam="1">  1        2 0.11111617E+00 0.40179654E+03</pdfrwt>
<pdfrwt beam="2">  1       -2 0.85970295E-02 0.40179654E+03</pdfrwt>
<totfact> 0.36608488E+03</totfact>
</mgrwt>
<rwgt>
<wgt id='morphing_basis_vector_1'> +2.5829803e-04 </wgt>
<wgt id='morphing_basis_vector_2'> +1.4590553e-04 </wgt>
<wgt id='morphing_basis_vector_3'> +1.6144435e-04 </wgt>
<wgt id='morphing_basis_vector_4'> +3.6958760e-05 </wgt>
<wgt id='morphing_basis_vector_5'> +3.7563869e-05 </wgt>
</rwgt>
</event>
<event>
 4      1 +3.1894900e-05 3.62053300e+02 7.81860800e-03 9.77564900e-02
        2 -1    0    0  501    0 +0.0000000000e+00 +0.0000000000e+00 +1.0866994762e+02 1.0866994762e+02 0.0000000000e+00 0.0000e+00 1.0000e+00
       -2 -1    0    0    0  501 -0.0000000000e+00 -0.0000000000e+00 -3.0156129775e+02 3.0156129775e+02 0.0000000000e+00 0.0000e+00 -1.0000e+00
      -13  1    1    2    0    0 -5.9676125504e+01 +1.3935245408e+02 -2.0855824247e+02 2.5783112092e+02 0.0000000000e+00 0.0000e+00 -1.0000e+00
       13  1    1    2    0    0 +5.9676125504e+01 -1.3935245408e+02 +1.5666892341e+01 1.5240012444e+02 0.0000000000e+00 0.0000e+00 1.0000e+00
<mgrwt>
<rscale>  0 0.36205331E+03</rscale>
<asrwt>0</asrwt>
<pdfrwt beam="1">  1        2 0.16718453E-01 0.36205331E+03</pdfrwt>
<pdfrwt beam="2">  1       -2 0.46394046E-01 0.36205331E+03</pdfrwt>
<totfact> 0.19043576E+03</totfact>
</mgrwt>
<rwgt>
<wgt id='morphing_basis_vector_1'> +1.9638970e-04 </wgt>
<wgt id='morphing_basis_vector_2'> +1.0713607e-04 </wgt>
<wgt id='morphing_basis_vector_3'> +1.1975029e-04 </wgt>
<wgt id='morphing_basis_vector_4'> +2.2483697e-05 </wgt>
<wgt id='morphing_basis_vector_5'> +1.4910725e-05 </wgt>
</rwgt>
</event>
<event>
 4      1 +3.1894900e-05 4.12450700e+02 7.81860800e-03 9.62037100e-02
        2 -1    0    0  501    0 +0.0000000000e+00 +0.0000000000e+00 +7.4879037644e+02 7.4879037644e+02 0.0000000000e+00 0.0000e+00 -1.0000e+00
       -2 -1    0    0    0  501 -0.0000000000e+00 -0.0000000000e+00 -5.6796806663e+01 5.6796806663e+01 0.0000000000e+00 0.0000e+00 1.0000e+00
      -13  1    1    2    0    0 -4.6279962671e+01 -1.8356597715e+02 +5.0575859676e+02 5.4002783364e+02 0.0000000000e+00 0.0000e+00 1.0000e+00
       13  1    1    2    0    0 +4.6279962671e+01 +1.8356597715e+02 +1.8623497302e+02 2.6555934946e+02 0.0000000000e+00 0.0000e+00 -1.0000e+00
<mgrwt>
<rscale>  0 0.41245074E+03</rscale>
<asrwt>0</asrwt>
<pdfrwt beam="1">  1        2 0.11519851E+00 0.41245074E+03</pdfrwt>
<pdfrwt beam="2">  1       -2 0.87379708E-02 0.41245074E+03</pdfrwt>
<totfact> 0.34184407E+03</totfact>
</mgrwt>
<rwgt>
<wgt id='morphing_basis_vector_1'> +3.0735323e-04 </wgt>
<wgt id='morphing_basis_vector_2'> +2.4975869e-04 </wgt>
<wgt id='morphing_basis_vector_3'> +1.4895188e-04 </wgt>
<wgt id='morphing_basis_vector_4'> +4.2174710e-05 </wgt>
<wgt id='morphing_basis_vector_5'> +4.7809092e-05 </wgt>
</rwgt>
</event>
<event>
 4      1 +3.1894900e-05 3.72922000e+02 7.81860800e-03 9.73995800e-02
        2 -1    0    0  501    0 +0.0000000000e+00 +0.0000000000e+00 +2.7480065274e+02 2.7480065274e+02 0.0000000000e+00 0.0000e+00 -1.0000e+00
       -2 -1    0    0    0  501 -0.0000000000e+00 -0.0000000000e+00 -1.2651971833e+02 1.2651971833e+02 0.0000000000e+00 0.0000e+00 1.0000e+00
      -13  1    1    2    0    0 +1.0269313225e+02 -9.3152034862e+01 -6.0031529137e+01 1.5108595401e+02 0.0000000000e+00 0.0000e+00 1.0000e+00
       13  1    1    2    0    0 -1.0269313225e+02 +9.3152034862e+01 +2.0831246355e+02 2.5023441706e+02 0.0000000000e+00 0.0000e+00 -1.0000e+00
<mgrwt>
<rscale>  0 0.37292198E+03</rscale>
<asrwt>0</asrwt>
<pdfrwt beam="1">  1        2 0.42277023E-01 0.37292198E+03</pdfrwt>
<pdfrwt beam="2">  1       -2 0.19464572E-01 0.37292198E+03</pdfrwt>
<totfact> 0.29816783E+03</totfact>
</mgrwt>
<rwgt>
<wgt id='morphing_basis_vector_1'> +2.1102705e-04 </wgt>
<wgt id='morphing_basis_vector_2'> +1.1411401e-04 </wgt>
<wgt id='morphing_basis_vector_3'> +1.3074794e-04 </wgt>
<wgt id='morphing_basis_vector_4'> +2.5584364e-05 </wgt>
<wgt id='morphing_basis_vector_5'> +1.9827171e-05 </wgt>
</rwgt>
</event>
<event>
 4      1 +3.1894900e-05 4.07666600e+02 7.81860800e-03 9.63406800e-02
        2 -1    0    0  501    0 +0.0000000000e+00 +0.0000000000e+00 +1.5598188015e+03 1.5598188015e+03 0.0000000000e+00 0.0000e+00 -1.0000e+00
       -2 -1    0    0    0  501 -0.0000000000e+00 -0.0000000000e+00 -2.6636432261e+01 2.6636432261e+01 0.0000000000e+00 0.0000e+00 1.0000e+00
      -13  1    1    2    0    0 +1.9545778610e+02 -1.9933154003e+01 +5.5533583643e+02 5.8906618304e+02 0.0000000000e+00 0.0000e+00 1.0000e+00
       13  1    1    2    0    0 -1.9545778610e+02 +1.9933154003e+01 +9.7784653279e+02 9.9738905070e+02 0.0000000000e+00 0.0000e+00 -1.0000e+00
<mgrwt>
<rscale>  0 0.40766657E+03</rscale>
<asrwt>0</asrwt>
<pdfrwt beam="1">  1        2 0.23997205E+00 0.40766657E+03</pdfrwt>
<pdfrwt beam="2">  1       -2 0.40979139E-02 0.40766657E+03</pdfrwt>
<totfact> 0.35911588E+03</totfact>
</mgrwt>
<rwgt>
<wgt id='morphing_basis_vector_1'> +2.6844995e-04 </wgt>
<wgt id='morphing_basis_vector_2'> +1.5169975e-04 </wgt>
<wgt id='morphing_basis_vector_3'> +1.6907929e-04 </wgt>
<wgt id='morphing_basis_vector_4'> +3.9718960e-05 </wgt>
<wgt id='morphing_basis_vector_5'> +4.2012200e-05 </wgt>
</rwgt>
</event>
<event>
 4      1 +3.1894900e-05 4.21949000e+02 7.81860800e-03 9.59375400e-02
        2 -1    0    0  501    0 +0.0000000000e+00 +0.0000000000e+00 +1.1546590576e+03 1.1546590576e+03 0.0000000000e+00 0.0000e+00 -1.0000e+00
       -2 -1    0    0    0  501 -0.0000000000e+00 -0.0000000000e+00 -3.8548379886e+01 3.8548379886e+01 0.0000000000e+00 0.0000e+00 1.0000e+00
      -13  1    1    2    0    0 +1.8598299580e+01 +2.0520486328e+02 +6.8625709389e+02 7.1652196866e+02 0.0000000000e+00 0.0000e+00 1.0000e+00
       13  1    1    2    0    0 -1.8598299580e+01 -2.0520486328e+02 +4.2985358383e+02 4.7668546883e+02 0.0000000000e+00 0.0000e+00 -1.0000e+00
<mgrwt>
<rscale>  0 0.42194898E+03</rscale>
<asrwt>0</asrwt>
<pdfrwt beam="1">  1        2 0.17763983E+00 0.42194898E+03</pdfrwt>
<pdfrwt beam="2">  1       -2 0.59305209E-02 0.42194898E+03</pdfrwt>
<totfact> 0.34441789E+03</totfact>
</mgrwt>
<rwgt>
<wgt id='morphing_basis_vector_1'> +3.1107650e-04 </wgt>
<wgt id='morphing_basis_vector_2'> +2.1735789e-04 </wgt>
<wgt id='morphing_basis_vector_3'> +1.7553083e-04 </wgt>
<wgt id='morphing_basis_vector_4'> +4.6532971e-05 </wgt>
<wgt id='morphing_basis_vector_5'> +5.5211535e-05 </wgt>
</rwgt>
</event>
<event>
 4      1 +3.1894900e-05 3.65610100e+02 7.81860800e-03 9.76382200e-02
        2 -1    0    0  501    0 +0.0000000000e+00 +0.0000000000e+00 +1.5028688833e+02 1.5028688833e+02 0.0000000000e+00 0.0000e+00 -1.0000e+00
       -2 -1    0    0    0  501 -0.0000000000e+00 -0.0000000000e+00 -2.2235930838e+02 2.2235930838e+02 0.0000000000e+00 0.0000e+00 1.0000e+00
      -13  1    1    2    0    0 -1.3314434299e+02 +1.5559627147e+01 -1.6271882535e+02 2.1082441555e+02 0.0000000000e+00 0.0000e+00 1.0000e+00
       13  1    1    2    0    0 +1.3314434299e+02 -1.5559627147e+01 +9.0646405296e+01 1.6182178117e+02 0.0000000000e+00 0.0000e+00 -1.0000e+00
<mgrwt>
<rscale>  0 0.36561011E+03</rscale>
<asrwt>0</asrwt>
<pdfrwt beam="1">  1        2 0.23121060E-01 0.36561011E+03</pdfrwt>
<pdfrwt beam="2">  1       -2 0.34209124E-01 0.36561011E+03</pdfrwt>
<totfact> 0.22682847E+03</totfact>
</mgrwt>
<rwgt>
<wgt id='morphing_basis_vector_1'> +2.0084886e-04 </wgt>
<wgt id='morphing_basis_vector_2'> +1.0868425e-04 </wgt>
<wgt id='morphing_basis_vector_3'> +1.2350529e-04 </wgt>
<wgt id='morphing_basis_vector_4'> +2.3384152e-05 </wgt>
<wgt id='morphing_basis_vector_5'> +1.6411965e-05 </wgt>
</rwgt>
</event>
<event>
 4      1 +3.1894900e-05 3.90517700e+02 7.81860800e-03 9.68486000e-02
        2 -1    0    0  501    0 +0.0000000000e+00 +0.0000000000e+00 +1.2980570059e+03 1.2980570059e+03 0.0000000000e+00 0.0000e+00 -1.0000e+00
       -2 -1    0    0    0  501 -0.0000000000e+00 -0.0000000000e+00 -2.9371603947e+01 2.9371603947e+01 0.0000000000e+00 0.0000e+00 1.0000e+00
      -13  1    1    2    0    0 -1.8690481361e+02 -5.4544763125e+01 +5.8421522076e+02 6.1580513533e+02 0.0000000000e+00 0.0000e+00 1.0000e+00
       13  1    1    2    0    0 +1.8690481361e+02 +5.4544763125e+01 +6.8447018123e+02 7.1162347455e+02 0.0000000000e+00 0.0000e+00 -1.0000e+00
<mgrwt>
<rscale>  0 0.39051769E+03</rscale>
<asrwt>0</asrwt>
<pdfrwt beam="1">  1        2 0.19970103E+00 0.39051769E+03</pdfrwt>
<pdfrwt beam="2">  1       -2 0.45187093E-02 0.39051769E+03</pdfrwt>
<totfact> 0.43059153E+03</totfact>
</mgrwt>
<rwgt>
<wgt id='morphing_basis_vector_1'> +2.4264350e-04 </wgt>
<wgt id='morphing_basis_vector_2'> +1.4424111e-04 </wgt>
<wgt id='morphing_basis_vector_3'> +1.4477044e-04 </wgt>
<wgt id='morphing_basis_vector_4'> +3.2500107e-05 </wgt>
<wgt id='morphing_basis_vector_5'> +3.0063921e-05 </wgt>
</rwgt>
</event>
<event>
 4      1 +3.1894900e-05 3.74938500e+02 7.81860800e-03 9.73348000e-02
        2 -1    0    0  501    0 +0.0000000000e+00 +0.0000000000e+00 +2.2898752186e+02 2.2898752186e+02 0.0000000000e+00 0.0000e+00 1.0000e+00
       -2 -1    0    0    0  501 -0.0000000000e+00 -0.0000000000e+00 -1.5347871630e+02 1.5347871630e+02 0.0000000000e+00 0.0000e+00 -1.0000e+00
      -13  1    1    2    0    0 +1.3703517004e+02 -7.4038862507e+01 -6.8668173975e+01 1.7022252820e+02 0.0000000000e+00 0.0000e+00 -1.0000e+00
       13  1    1    2    0    0 -1.3703517004e+02 +7.4038862507e+01 +1.4417697954e+02 2.1224370996e+02 0.0000000000e+00 0.0000e+00 1.0000e+00
<mgrwt>
<rscale>  0 0.37493845E+03</rscale>
<asrwt>0</asrwt>
<pdfrwt beam="1">  1        2 0.35228850E-01 0.37493845E+03</pdfrwt>
<pdfrwt beam="2">  1       -2 0.23612110E-01 0.37493845E+03</pdfrwt>
<totfact> 0.26564596E+03</totfact>
</mgrwt>
<rwgt>
<wgt id='morphing_basis_vector_1'> +2.1420532e-04 </wgt>
<wgt id='morphing_basis_vector_2'> +1.1654221e-04 </wgt>
<wgt id='morphing_basis_vector_3'> +1.3250398e-04 </wgt>
<wgt id='morphing_basis_vector_4'> +2.6289268e-05 </wgt>
<wgt id='morphing_basis_vector_5'> +2.0857673e-05 </wgt>
</rwgt>
</event>
<event>
 4      1 +3.1894900e-05 3.99205700e+02 7.81860800e-03 9.65878700e-02
        2 -1    0    0  501    0 +0.0000000000e+00 +0.0000000000e+00 +5.0869813710e+02 5.0869813710e+02 0.0000000000e+00 0.0000e+00 -1.0000e+00
       -2 -1    0    0    0  501 -0.0000000000e+00 -0.0000000000e+00 -7.8320110524e+01 7.8320110524e+01 0.0000000000e+00 0.0000e+00 1.0000e+00
      -13  1    1    2    0    0 +5.2579709300e+01 -1.1247534044e+02 -1.4627252235e+01 1.2501713701e+02 0.0000000000e+00 0.0000e+00 1.0000e+00
       13  1    1    2    0    0 -5.2579709300e+01 +1.1247534044e+02 +4.4500527881e+02 4.6200111061e+02 0.0000000000e+00 0.0000e+00 -1.0000e+00
<mgrwt>
<rscale>  0 0.39920568E+03</rscale>
<asrwt>0</asrwt>
<pdfrwt beam="1">  1        2 0.78261250E-01 0.39920568E+03</pdfrwt>
<pdfrwt beam="2">  1       -2 0.12049248E-01 0.39920568E+03</pdfrwt>
<totfact> 0.32508122E+03</totfact>
</mgrwt>
<rwgt>
<wgt id='morphing_basis_vector_1'> +2.5122734e-04 </wgt>
<wgt id='morphing_basis_vector_2'> +1.3517419e-04 </wgt>
<wgt id='morphing_basis_vector_3'> +1.6074210e-04 </wgt>
<wgt id='morphing_basis_vector_4'> +3.5618899e-05 </wgt>
<wgt id='morphing_basis_vector_5'> +3.5522723e-05 </wgt>
</rwgt>
</event>
<event>
 4      1 +3.1894900e-05 3.64205800e+02 7.81860800e-03 9.76847400e-02
        2 -1    0    0  501    0 +0.0000000000e+00 +0.0000000000e+00 +5.6029911991e+02 5.6029911991e+02 0.0000000000e+00 0.0000e+00 -1.0000e+00
       -2 -1    0    0    0  501 -0.0000000000e+00 -0.0000000000e+00 -5.9185292875e+01 5.9185292875e+01 0.0000000000e+00 0.0000e+00 1.0000e+00
      -13  1    1    2    0    0 -9.6820905089e+01 -9.6567024527e+01 +4.6007829171e+01 1.4427819736e+02 0.0000000000e+00 0.0000e+00 1.0000e+00
       13  1    1    2    0    0 +9.6820905089e+01 +9.6567024527e+01 +4.5510599787e+02 4.7520621543e+02 0.0000000000e+00 0.0000e+00 -1.0000e+00
<mgrwt>
<rscale>  0 0.36420581E+03</rscale>
<asrwt>0</asrwt>
<pdfrwt beam="1">  1        2 0.86199861E-01 0.36420581E+03</pdfrwt>
<pdfrwt beam="2">  1       -2 0.91054301E-02 0.36420581E+03</pdfrwt>
<totfact> 0.44975177E+03</totfact>
</mgrwt>
<rwgt>
<wgt id='morphing_basis_vector_1'> +1.9898592e-04 </wgt>
<wgt id='morphing_basis_vector_2'> +1.0779520e-04 </wgt>
<wgt id='morphing_basis_vector_3'> +1.2211577e-04 </wgt>
<wgt id='morphing_basis_vector_4'> +2.2998902e-05 </wgt>
<wgt id='morphing_basis_vector_5'> +1.5802800e-05 </wgt>
</rwgt>
</event>
<event>
 4      1 +3.1894900e-05 4.04163500e+02 7.81860800e-03 9.64422400e-02
        2 -1    0    0  501    0 +0.0000000000e+00 +0.0000000000e+00 +9.4294795957e+01 9.4294795957e+01 0.0000000000e+00 0.0000e+00 -1.0000e+00
       -2 -1    0    0    0  501 -0.0000000000e+00 -0.0000000000e+00 -4.3307825615e+02 4.3307825615e+02 0.0000000000e+00 0.0000e+00 1.0000e+00
      -13  1    1    2    0    0 -1.6443241673e+02 -2.8777546882e+01 -2.0782681340e+01 1.6822035168e+02 0.0000000000e+00 0.0000e+00 -1.0000e+00
       13  1    1    2    0    0 +1.6443241673e+02 +2.8777546882e+01 -3.1800077886e+02 3.5915270043e+02 0.0000000000e+00 0.0000e+00 1.0000e+00
<mgrwt>
<rscale>  0 0.40416346E+03</rscale>
<asrwt>0</asrwt>
<pdfrwt beam="1">  1        2 0.14506892E-01 0.40416346E+03</pdfrwt>
<pdfrwt beam="2">  1       -2 0.66627425E-01 0.40416346E+03</pdfrwt>
<totfact> 0.11049425E+03</totfact>
</mgrwt>
<rwgt>
<wgt id='morphing_basis_vector_1'> +3.1062046e-04 </wgt>
<wgt id='morphing_basis_vector_2'> +2.9593265e-04 </wgt>
<wgt id='morphing_basis_vector_3'> +1.1996590e-04 </wgt>
<wgt id='morphing_basis_vector_4'> +4.0118200e-05 </wgt>
<wgt id='morphing_basis_vector_5'> +4.2450582e-05 </wgt>
</rwgt>
</event>
<event>
 4      1 +3.1894900e-05 4.10400300e+02 7.81860800e-03 9.62621700e-02
        2 -1    0    0  501    0 +0.0000000000e+00 +0.0000000000e+00 +9.2330110775e+02 9.2330110775e+02 0.0000000000e+00 0.0000e+00 1.0000e+00
       -2 -1    0    0    0  501 -0.0000000000e+00 -0.0000000000e+00 -4.5604946318e+01 4.5604946318e+01 0.0000000000e+00 0.0000e+00 -1.0000e+00
      -13  1    1    2    0    0 +4.3398914694e+01 -1.9081848249e+02 +2.9308519489e+02 3.5241181950e+02 0.0000000000e+00 0.0000e+00 -1.0000e+00
       13  1    1    2    0    0 -4.3398914694e+01 +1.9081848249e+02 +5.8461096654e+02 6.1649423457e+02 0.0000000000e+00 0.0000e+00 1.0000e+00
<mgrwt>
<rscale>  0 0.41040028E+03</rscale>
<asrwt>0</asrwt>
<pdfrwt beam="1">  1        2 0.14204631E+00 0.41040028E+03</pdfrwt>
<pdfrwt beam="2">  1       -2 0.70161463E-02 0.41040028E+03</pdfrwt>
<totfact> 0.36648016E+03</totfact>
</mgrwt>
<rwgt>
<wgt id='morphing_basis_vector_1'> +2.7288983e-04 </wgt>
<wgt id='morphing_basis_vector_2'> +1.5323019e-04 </wgt>
<wgt id='morphing_basis_vector_3'> +1.7310840e-04 </wgt>
<wgt id='morphing_basis_vector_4'> +4.1065637e-05 </wgt>
<wgt id='morphing_basis_vector_5'> +4.4165970e-05 </wgt>
</rwgt>
</event>
<event>
 4      1 +3.1894900e-05 3.86962900e+02 7.81860800e-03 9.69573700e-02
        2 -1    0    0  501    0 +0.0000000000e+00 +0.0000000000e+00 +8.6802628808e+01 8.6802628808e+01 0.0000000000e+00 0.0000e+00 1.0000e+00
       -2 -1    0    0    0  501 -0.0000000000e+00 -0.0000000000e+00 -4.3126655854e+02 4.3126655854e+02 0.0000000000e+00 0.0000e+00 -1.0000e+00
      -13  1    1    2    0    0 +8.3642339914e+01 +1.7444977743e+02 -1.7559371434e+02 2.6126981913e+02 0.0000000000e+00 0.0000e+00 1.0000e+00
       13  1    1    2    0    0 -8.3642339914e+01 -1.7444977743e+02 -1.6887021539e+02 2.5679936822e+02 0.0000000000e+00 0.0000e+00 -1.0000e+00
<mgrwt>
<rscale>  0 0.38696290E+03</rscale>
<asrwt>0</asrwt>
<pdfrwt beam="1">  1        2 0.13354250E-01 0.38696290E+03</pdfrwt>
<pdfrwt beam="2">  1       -2 0.66348702E-01 0.38696290E+03</pdfrwt>
<totfact> 0.12334873E+03</totfact>
</mgrwt>
<rwgt>
<wgt id='morphing_basis_vector_1'> +2.3837837e-04 </wgt>
<wgt id='morphing_basis_vector_2'> +1.4513645e-04 </wgt>
<wgt id='morphing_basis_vector_3'> +1.3924888e-04 </wgt>
<wgt id='morphing_basis_vector_4'> +3.1353170e-05 </wgt>
<wgt id='morphing_basis_vector_5'> +2.7951989e-05 </wgt>
</rwgt>
</event>
<event>
 4      1 +3.1894900e-05 3.81807000e+02 7.81860800e-03 9.71173800e-02
        2 -1    0    0  501    0 +0.0000000000e+00 +0.0000000000e+00 +4.3504992983e+02 4.3504992983e+02 0.0000000000e+00 0.0000e+00 -1.0000e+00
       -2 -1    0    0    0  501 -0.0000000000e+00 -0.0000000000e+00 -8.3770036220e+01 8.3770036220e+01 0.0000000000e+00 0.0000e+00 1.0000e+00
      -13  1    1    2    0    0 -1.4553980384e+02 +9.7592110819e+01 +7.2706479249e+01 1.8971633224e+02 0.0000000000e+00 0.0000e+00 1.0000e+00
       13  1    1    2    0    0 +1.4553980384e+02 -9.7592110819e+01 +2.7857341436e+02 3.2910363380e+02 0.0000000000e+00 0.0000e+00 -1.0000e+00
<mgrwt>
<rscale>  0 0.38180701E+03</rscale>
<asrwt>0</asrwt>
<pdfrwt beam="1">  1        2 0.66930757E-01 0.38180701E+03</pdfrwt>
<pdfrwt beam="2">  1       -2 0.12887698E-01 0.38180701E+03</pdfrwt>
<totfact> 0.34777487E+03</totfact>
</mgrwt>
<rwgt>
<wgt id='morphing_basis_vector_1'> +2.2507976e-04 </wgt>
<wgt id='morphing_basis_vector_2'> +1.2432910e-04 </wgt>
<wgt id='morphing_basis_vector_3'> +1.3901448e-04 </wgt>
<wgt id='morphing_basis_vector_4'> +2.8758505e-05 </wgt>
<wgt id='morphing_basis_vector_5'> +2.4587008e-05 </wgt>
</rwgt>
</event>
<event>
 4      1 +3.1894900e-05 4.22622400e+02 7.81860800e-03 9.59189500e-02
        2 -1    0    0  501    0 +0.0000000000e+00 +0.0000000000e+00 +7.2997859237e+02 7.2997859237e+02 0.0000000000e+00 0.0000e+00 1.0000e+00
       -2 -1    0    0    0  501 -0.0000000000e+00 -0.0000000000e+00 -6.1169500492e+01 6.1169500492e+01 0.0000000000e+00 0.0000e+00 -1.0000e+00
      -13  1    1    2    0    0 +1.1424850104e+02 +1.4273833540e+02 +5.3274330649e+02 5.6324273896e+02 0.0000000000e+00 0.0000e+00 1.0000e+00
       13  1    1    2    0    0 -1.1424850104e+02 -1.4273833540e+02 +1.3606578539e+02 2.2790535390e+02 0.0000000000e+00 0.0000e+00 -1.0000e+00
<mgrwt>
<rscale>  0 0.42262241E+03</rscale>
<asrwt>0</asrwt>
<pdfrwt beam="1">  1        2 0.11230439E+00 0.42262241E+03</pdfrwt>
<pdfrwt beam="2">  1       -2 0.94106929E-02 0.42262241E+03</pdfrwt>
<totfact> 0.31452952E+03</totfact>
</mgrwt>
<rwgt>
<wgt id='morphing_basis_vector_1'> +3.4168962e-04 </wgt>
<wgt id='morphing_basis_vector_2'> +3.0829918e-04 </wgt>
<wgt id='morphing_basis_vector_3'> +1.5257213e-04 </wgt>
<wgt id='morphing_basis_vector_4'> +4.5468782e-05 </wgt>
<wgt id='morphing_basis_vector_5'> +5.7651122e-05 </wgt>
</rwgt>
</event>
<event>
 4      1 +3.1894900e-05 4.10815700e+02 7.81860800e-03 9.62503000e-02
        2 -1    0    0  501    0 +0.0000000000e+00 +0.0000000000e+00 +5.2950693792e+02 5.2950693792e+02 0.0000000000e+00 0.0000e+00 -1.0000e+00
       -2 -1    0    0    0  501 -0.0000000000e+00 -0.0000000000e+00 -7.9682387122e+01 7.9682387122e+01 0.0000000000e+00 0.0000e+00 1.0000e+00
      -13  1    1    2    0    0 +1.9719667382e+02 +2.9345380402e+01 +1.5159305485e+02 2.5045585199e+02 0.0000000000e+00 0.0000e+00 -1.0000e+00
       13  1    1    2    0    0 -1.9719667382e+02 -2.9345380402e+01 +2.9823149595e+02 3.5873347306e+02 0.0000000000e+00 0.0000e+00 1.0000e+00
<mgrwt>
<rscale>  0 0.41081566E+03</rscale>
<asrwt>0</asrwt>
<pdfrwt beam="1">  1        2 0.81462604E-01 0.41081566E+03</pdfrwt>
<pdfrwt beam="2">  1       -2 0.12258829E-01 0.41081566E+03</pdfrwt>
<totfact> 0.30257079E+03</totfact>
</mgrwt>
<rwgt>
<wgt id='morphing_basis_vector_1'> +2.7438767e-04 </wgt>
<wgt id='morphing_basis_vector_2'> +1.5597060e-04 </wgt>
<wgt id='morphing_basis_vector_3'> +1.7300339e-04 </wgt>
<wgt id='morphing_basis_vector_4'> +4.1283191e-05 </wgt>
<wgt id='morphing_basis_vector_5'> +4.4551629e-05 </wgt>
</rwgt>
</event>
<event>
 4      1 +3.1894900e-05 3.68234400e+02 7.81860800e-03 9.75518900e-02
        2 -1    0    0  501    0 +0.0000000000e+00 +0.0000000000e+00 +1.0399114408e+03 1.0399114408e+03 0.0000000000e+00 0.0000e+00 -1.0000e+00
       -2 -1    0    0    0  501 -0.0000000000e+00 -0.0000000000e+00 -3.2598106399e+01 3.2598106399e+01 0.0000000000e+00 0.0000e+00 1.0000e+00
      -13  1    1    2    0    0 -5.2299080389e+01 +1.7557999832e+02 +4.5029898538e+02 4.8614062354e+02 0.0000000000e+00 0.0000e+00 1.0000e+00
       13  1    1    2    0    0 +5.2299080389e+01 -1.7557999832e+02 +5.5701434897e+02 5.8636892361e+02 0.0000000000e+00 0.0000e+00 -1.0000e+00
<mgrwt>
<rscale>  0 0.36823440E+03</rscale>
<asrwt>0</asrwt>
<pdfrwt beam="1">  1        2 0.15998635E+00 0.36823440E+03</pdfrwt>
<pdfrwt beam="2">  1       -2 0.50150941E-02 0.36823440E+03</pdfrwt>
<totfact> 0.51644818E+03</totfact>
</mgrwt>
<rwgt>
<wgt id='morphing_basis_vector_1'> +2.0850706e-04 </wgt>
<wgt id='morphing_basis_vector_2'> +1.2283830e-04 </wgt>
<wgt id='morphing_basis_vector_3'> +1.2149357e-04 </wgt>
<wgt id='morphing_basis_vector_4'> +2.5044712e-05 </wgt>
<wgt id='morphing_basis_vector_5'> +1.7858826e-05 </wgt>
</rwgt>
</event>
<event>
 4      1 +3.1894900e-05 3.60048800e+02 7.81860800e-03 9.78237900e-02
        2 -1    0    0  501    0 +0.0000000000e+00 +0.0000000000e+00 +1.8884649465e+02 1.8884649465e+02 0.0000000000e+00 0.0000e+00 -1.0000e+00
       -2 -1    0    0    0  501 -0.0000000000e+00 -0.0000000000e+00 -1.7161446077e+02 1.7161446077e+02 0.0000000000e+00 0.0000e+00 1.0000e+00
      -13  1    1    2    0    0 -1.1164658797e+02 +9.0694553394e+01 -9.9759113001e+01 1.7504954512e+02 0.0000000000e+00 0.0000e+00 1.0000e+00
       13  1    1    2    0    0 +1.1164658797e+02 -9.0694553394e+01 +1.1699114688e+02 1.8541141030e+02 0.0000000000e+00 0.0000e+00 -1.0000e+00
<mgrwt>
<rscale>  0 0.36004883E+03</rscale>
<asrwt>0</asrwt>
<pdfrwt beam="1">  1        2 0.29053307E-01 0.36004883E+03</pdfrwt>
<pdfrwt beam="2">  1       -2 0.26402225E-01 0.36004883E+03</pdfrwt>
<totfact> 0.27335128E+03</totfact>
</mgrwt>
<rwgt>
<wgt id='morphing_basis_vector_1'> +1.9358550e-04 </wgt>
<wgt id='morphing_basis_vector_2'> +1.0527841e-04 </wgt>
<wgt id='morphing_basis_vector_3'> +1.1806506e-04 </wgt>
<wgt id='morphing_basis_vector_4'> +2.1917304e-05 </wgt>
<wgt id='morphing_basis_vector_5'> +1.4081628e-05 </wgt>
</rwgt>
</event>
<event>
 4      1 +3.1894900e-05 3.75123100e+02 7.81860800e-03 9.73288900e-02
        2 -1    0    0  501    0 +0.0000000000e+00 +0.0000000000e+00 +4.3883931073e+02 4.3883931073e+02 0.0000000000e+00 0.0000e+00 -1.0000e+00
       -2 -1    0    0    0  501 -0.0000000000e+00 -0.0000000000e+00 -8.0164496921e+01 8.0164496921e+01 0.0000000000e+00 0.0000e+00 1.0000e+00
      -13  1    1    2    0    0 +1.5274417365e+02 -4.9536806971e+01 +4.5234817845e+01 1.6682585704e+02 0.0000000000e+00 0.0000e+00 1.0000e+00
       13  1    1    2    0    0 -1.5274417365e+02 +4.9536806971e+01 +3.1343999596e+02 3.5217795061e+02 0.0000000000e+00 0.0000e+00 -1.0000e+00
<mgrwt>
<rscale>  0 0.37512309E+03</rscale>
<asrwt>0</asrwt>
<pdfrwt beam="1">  1        2 0.67513739E-01 0.37512309E+03</pdfrwt>
<pdfrwt beam="2">  1       -2 0.12333000E-01 0.37512309E+03</pdfrwt>
<totfact> 0.36901378E+03</totfact>
</mgrwt>
<rwgt>
<wgt id='morphing_basis_vector_1'> +2.1461517e-04 </wgt>
<wgt id='morphing_basis_vector_2'> +1.1712008e-04 </wgt>
<wgt id='morphing_basis_vector_3'> +1.3253959e-04 </wgt>
<wgt id='morphing_basis_vector_4'> +2.6376404e-05 </wgt>
<wgt id='morphing_basis_vector_5'> +2.0961293e-05 </wgt>
</rwgt>
</event>
<event>
 4      1 +3.1894900e-05 3.67917400e+02 7.81860800e-03 9.75622700e-02
        2 -1    0    0  501    0 +0.0000000000e+00 +0.0000000000e+00 +1.4298587463e+02 1.4298587463e+02 0.0000000000e+00 0.0000e+00 1.0000e+00
       -2 -1    0    0    0  501 -0.0000000000e+00 -0.0000000000e+00 -2.3667238956e+02 2.3667238956e+02 0.0000000000e+00 0.0000e+00 -1.0000e+00
      -13  1    1    2    0    0 -4.5660575640e+01 -2.9064863194e+01 -2.2826950031e+02 2.3459884742e+02 0.0000000000e+00 0.0000e+00 -1.0000e+00
       13  1    1    2    0    0 +4.5660575640e+01 +2.9064863194e+01 +1.3458298537e+02 1.4505941677e+02 0.0000000000e+00 0.0000e+00 1.0000e+00
<mgrwt>
<rscale>  0 0.36791743E+03</rscale>
<asrwt>0</asrwt>
<pdfrwt beam="1">  1        2 0.21997827E-01 0.36791743E+03</pdfrwt>
<pdfrwt beam="2">  1       -2 0.36411137E-01 0.36791743E+03</pdfrwt>
<totfact> 0.21505961E+03</totfact>
</mgrwt>
<rwgt>
<wgt id='morphing_basis_vector_1'> +2.0376189e-04 </wgt>
<wgt id='morphing_basis_vector_2'> +1.0961332e-04 </wgt>
<wgt id='morphing_basis_vector_3'> +1.2602687e-04 </wgt>
<wgt id='morphing_basis_vector_4'> +2.3996464e-05 </wgt>
<wgt id='morphing_basis_vector_5'> +1.7431317e-05 </wgt>
</rwgt>
</event>
<event>
 4      1 +3.1894900e-05 4.24092100e+02 7.81860800e-03 9.58785100e-02
        2 -1    0    0  501    0 +0.0000000000e+00 +0.0000000000e+00 +7.2949436612e+02 7.2949436612e+02 0.0000000000e+00 0.0000e+00 -1.0000e+00
       -2 -1    0    0    0  501 -0.0000000000e+00 -0.0000000000e+00 -6.1636573517e+01 6.1636573517e+01 0.0000000000e+00 0.0000e+00 1.0000e+00
      -13  1    1    2    0    0 -2.9982668947e+01 +1.7383551596e+02 +1.1442260736e+02 2.1026240777e+02 0.0000000000e+00 0.0000e+00 1.0000e+00
       13  1    1    2    0    0 +2.9982668947e+01 -1.7383551596e+02 +5.5343518524e+02 5.8086853186e+02 0.0000000000e+00 0.0000e+00 -1.0000e+00
<mgrwt>
<rscale>  0 0.42409213E+03</rscale>
<asrwt>0</asrwt>
<pdfrwt beam="1">  1        2 0.11222990E+00 0.42409213E+03</pdfrwt>
<pdfrwt beam="2">  1       -2 0.94825503E-02 0.42409213E+03</pdfrwt>
<totfact> 0.31110617E+03</totfact>
</mgrwt>
<rwgt>
<wgt id='morphing_basis_vector_1'> +2.9625886e-04 </wgt>
<wgt id='morphing_basis_vector_2'> +1.6152731e-04 </wgt>
<wgt id='morphing_basis_vector_3'> +1.9425152e-04 </wgt>
<wgt id='morphing_basis_vector_4'> +4.8635574e-05 </wgt>
<wgt id='morphing_basis_vector_5'> +5.6036391e-05 </wgt>
</rwgt>
</event>
<event>
 4      1 +3.1894900e-05 4.21316300e+02 7.81860800e-03 9.59550400e-02
        2 -1    0    0  501    0 +0.0000000000e+00 +0.0000000000e+00 +1.5682439004e+03 1.5682439004e+03 0.0000000000e+00 0.0000e+00 1.0000e+00
       -2 -1    0    0    0  501 -0.0000000000e+00 -0.0000000000e+00 -2.8297169619e+01 2.8297169619e+01 0.0000000000e+00 0.0000e+00 -1.0000e+00
      -13  1    1    2    0    0 +1.3061988208e+01 +1.9178613792e+02 +4.4346050127e+02 4.8333192986e+02 0.0000000000e+00 0.0000e+00 -1.0000e+00
       13  1    1    2    0    0 -1.3061988208e+01 -1.9178613792e+02 +1.0964862296e+03 1.1132091402e+03 0.0000000000e+00 0.0000e+00 1.0000e+00
<mgrwt>
<rscale>  0 0.42131634E+03</rscale>
<asrwt>0</asrwt>
<pdfrwt beam="1">  1        2 0.24126822E+00 0.42131634E+03</pdfrwt>
<pdfrwt beam="2">  1       -2 0.43534119E-02 0.42131634E+03</pdfrwt>
<totfact> 0.32456306E+03</totfact>
</mgrwt>
<rwgt>
<wgt id='morphing_basis_vector_1'> +2.9191162e-04 </wgt>
<wgt id='morphing_basis_vector_2'> +1.6143601e-04 </wgt>
<wgt id='morphing_basis_vector_3'> +1.8938120e-04 </wgt>
<wgt id='morphing_basis_vector_4'> +4.6964774e-05 </wgt>
<wgt id='morphing_basis_vector_5'> +5.3513985e-05 </wgt>
</rwgt>
</event>
<event>
 4      1 +3.1894900e-05 3.78616800e+02 7.81860800e-03 9.72177500e-02
        2 -1    0    0  501    0 +0.0000000000e+00 +0.0000000000e+00 +1.3043342847e+02 1.3043342847e+02 0.0000000000e+00 0.0000e+00 -1.0000e+00
       -2 -1    0    0    0  501 -0.0000000000e+00 -0.0000000000e+00 -2.7475830881e+02 2.7475830881e+02 0.0000000000e+00 0.0000e+00 1.0000e+00
      -13  1    1    2    0    0 +3.0471254069e+01 +4.2966139537e+01 -2.6675775426e+02 2.7190859848e+02 0.0000000000e+00 0.0000e+00 1.0000e+00
       13  1    1    2    0    0 -3.0471254069e+01 -4.2966139537e+01 +1.2243287392e+02 1.3328313879e+02 0.0000000000e+00 0.0000e+00 -1.0000e+00
<mgrwt>
<rscale>  0 0.37861679E+03</rscale>
<asrwt>0</asrwt>
<pdfrwt beam="1">  1        2 0.20066681E-01 0.37861679E+03</pdfrwt>
<pdfrwt beam="2">  1       -2 0.42270509E-01 0.37861679E+03</pdfrwt>
<totfact> 0.18252557E+03</totfact>
</mgrwt>
<rwgt>
<wgt id='morphing_basis_vector_1'> +2.1896761e-04 </wgt>
<wgt id='morphing_basis_vector_2'> +1.1761796e-04 </wgt>
<wgt id='morphing_basis_vector_3'> +1.3701109e-04 </wgt>
<wgt id='morphing_basis_vector_4'> +2.7418328e-05 </wgt>
<wgt id='morphing_basis_vector_5'> +2.2742631e-05 </wgt>
</rwgt>
</event>
<event>
 4      1 +3.1894900e-05 4.22105400e+02 7.81860800e-03 9.59332200e-02
        2 -1    0    0  501    0 +0.0000000000e+00 +0.0000000000e+00 +5.7245284329e+01 5.7245284329e+01 0.0000000000e+00 0.0000e+00 -1.0000e+00
       -2 -1    0    0    0  501 -0.0000000000e+00 -0.0000000000e+00 -7.7811212957e+02 7.7811212957e+02 0.0000000000e+00 0.0000e+00 1.0000e+00
      -13  1    1    2    0    0 +1.7331900107e+02 -6.6496541947e+01 -5.5914555503e+02 5.8915619146e+02 0.0000000000e+00 0.0000e+00 1.0000e+00
       13  1    1    2    0    0 -1.7331900107e+02 +6.6496541947e+01 -1.6172129021e+02 2.4620122244e+02 0.0000000000e+00 0.0000e+00 -1.0000e+00
<mgrwt>
<rscale>  0 0.42210544E+03</rscale>
<asrwt>0</asrwt>
<pdfrwt beam="1">  1        2 0.88069671E-02 0.42210544E+03</pdfrwt>
<pdfrwt beam="2">  1       -2 0.11970955E+00 0.42210544E+03</pdfrwt>
<totfact> 0.53428018E+02</totfact>
</mgrwt>
<rwgt>
<wgt id='morphing_basis_vector_1'> +2.9291660e-04 </wgt>
<wgt id='morphing_basis_vector_2'> +1.6077282e-04 </wgt>
<wgt id='morphing_basis_vector_3'> +1.9094341e-04 </wgt>
<wgt id='morphing_basis_vector_4'> +4.7442308e-05 </wgt>
<wgt id='morphing_basis_vector_5'> +5.4209241e-05 </wgt>
</rwgt>
</event>
<event>
 4      1 +3.1894900e-05 3.96456900e+02 7.81860800e-03 9.66695900e-02
        2 -1    0    0  501    0 +0.0000000000e+00 +0.0000000000e+00 +6.9227039907e+02 6.9227039907e+02 0.0000000000e+00 0.0000e+00 1.0000e+00
       -2 -1    0    0    0  501 -0.0000000000e+00 -0.0000000000e+00 -5.6761814037e+01 5.6761814037e+01 0.0000000000e+00 0.0000e+00 -1.0000e+00
      -13  1    1    2    0    0 -3.8653164447e+01 -1.4868052297e+02 +8.1064767064e+01 1.7369934223e+02 0.0000000000e+00 0.0000e+00 -1.0000e+00
       13  1    1    2    0    0 +3.8653164447e+01 +1.4868052297e+02 +5.5444381797e+02 5.7533287088e+02 0.0000000000e+00 0.0000e+00 1.0000e+00
<mgrwt>
<rscale>  0 0.39645693E+03</rscale>
<asrwt>0</asrwt>
<pdfrwt beam="1">  1        2 0.10650313E+00 0.39645693E+03</pdfrwt>
<pdfrwt beam="2">  1       -2 0.87325873E-02 0.39645693E+03</pdfrwt>
<totfact> 0.37594199E+03</totfact>
</mgrwt>
<rwgt>
<wgt id='morphing_basis_vector_1'> +2.4700918e-04 </wgt>
<wgt id='morphing_basis_vector_2'> +1.3365593e-04 </wgt>
<wgt id='morphing_basis_vector_3'> +1.5704945e-04 </wgt>
<wgt id='morphing_basis_vector_4'> +3.4421406e-05 </wgt>
<wgt id='morphing_basis_vector_5'> +3.3631192e-05 </wgt>
</rwgt>
</event>
<event>
 4      1 +3.1894900e-05 4.29699200e+02 7.81860800e-03 9.57258000e-02
        2 -1    0    0  501    0 +0.0000000000e+00 +0.0000000000e+00 +1.9289256665e+02 1.9289256665e+02 0.0000000000e+00 0.0000e+00 1.0000e+00
       -2 -1    0    0    0  501 -0.0000000000e+00 -0.0000000000e+00 -2.3930600088e+02 2.3930600088e+02 0.0000000000e+00 0.0000e+00 -1.0000e+00
      -13  1    1    2    0    0 -1.6490755131e+02 -5.3464849812e+01 -1.5085969300e+02 2.2980782758e+02 0.0000000000e+00 0.0000e+00 -1.0000e+00
       13  1    1    2    0    0 +1.6490755131e+02 +5.3464849812e+01 +1.0444625877e+02 2.0239073995e+02 0.0000000000e+00 0.0000e+00 1.0000e+00
<mgrwt>
<rscale>  0 0.42969919E+03</rscale>
<asrwt>0</asrwt>
<pdfrwt beam="1">  1        2 0.29675780E-01 0.42969919E+03</pdfrwt>
<pdfrwt beam="2">  1       -2 0.36816308E-01 0.42969919E+03</pdfrwt>
<totfact> 0.14943808E+03</totfact>
</mgrwt>
<rwgt>
<wgt id='morphing_basis_vector_1'> +3.0700041e-04 </wgt>
<wgt id='morphing_basis_vector_2'> +1.6712100e-04 </wgt>
<wgt id='morphing_basis_vector_3'> +2.0291646e-04 </wgt>
<wgt id='morphing_basis_vector_4'> +5.2096739e-05 </wgt>
<wgt id='morphing_basis_vector_5'> +6.1478325e-05 </wgt>
</rwgt>
</event>
<event>
 4      1 +3.1894900e-05 3.71555600e+02 7.81860800e-03 9.74437300e-02
        2 -1    0    0  501    0 +0.0000000000e+00 +0.0000000000e+00 +3.8824628484e+02 3.8824628484e+02 0.0000000000e+00 0.0000e+00 -1.0000e+00
       -2 -1    0    0    0  501 -0.0000000000e+00 -0.0000000000e+00 -8.8895613092e+01 8.8895613092e+01 0.0000000000e+00 0.0000e+00 1.0000e+00
      -13  1    1    2    0    0 -5.3137187187e+01 +7.4957016426e+01 -5.7675068751e+01 1.0848284901e+02 0.0000000000e+00 0.0000e+00 1.0000e+00
       13  1    1    2    0    0 +5.3137187187e+01 -7.4957016426e+01 +3.5702574050e+02 3.6865904893e+02 0.0000000000e+00 0.0000e+00 -1.0000e+00
<mgrwt>
<rscale>  0 0.37155560E+03</rscale>
<asrwt>0</asrwt>
<pdfrwt beam="1">  1        2 0.59730197E-01 0.37155560E+03</pdfrwt>
<pdfrwt beam="2">  1       -2 0.13676248E-01 0.37155560E+03</pdfrwt>
<totfact> 0.35888406E+03</totfact>
</mgrwt>
<rwgt>
<wgt id='morphing_basis_vector_1'> +2.0885344e-04 </wgt>
<wgt id='morphing_basis_vector_2'> +1.1236152e-04 </wgt>
<wgt id='morphing_basis_vector_3'> +1.2962452e-04 </wgt>
<wgt id='morphing_basis_vector_4'> +2.5106010e-05 </wgt>
<wgt id='morphing_basis_vector_5'> +1.9143598e-05 </wgt>
</rwgt>
</event>
<event>
 4      1 +3.1894900e-05 3.87439500e+02 7.81860800e-03 9.69427100e-02
        2 -1    0    0  501    0 +0.0000000000e+00 +0.0000000000e+00 +1.1303538018e+02 1.1303538018e+02 0.0000000000e+00 0.0000e+00 1.0000e+00
       -2 -1    0    0    0  501 -0.0000000000e+00 -0.0000000000e+00 -3.3199649905e+02 3.3199649905e+02 0.0000000000e+00 0.0000e+00 -1.0000e+00
      -13  1    1    2    0    0 -6.8542894972e+01 -1.6813650664e+02 -1.8704060042e+02 2.6067642686e+02 0.0000000000e+00 0.0000e+00 -1.0000e+00
       13  1    1    2    0    0 +6.8542894972e+01 +1.6813650664e+02 -3.1920518451e+01 1.8435545236e+02 0.0000000000e+00 0.0000e+00 1.0000e+00
<mgrwt>
<rscale>  0 0.38743955E+03</rscale>
<asrwt>0</asrwt>
<pdfrwt beam="1">  1        2 0.17390059E-01 0.38743955E+03</pdfrwt>
<pdfrwt beam="2">  1       -2 0.51076384E-01 0.38743955E+03</pdfrwt>
<totfact> 0.15121275E+03</totfact>
</mgrwt>
<rwgt>
<wgt id='morphing_basis_vector_1'> +2.3406306e-04 </wgt>
<wgt id='morphing_basis_vector_2'> +1.3016427e-04 </wgt>
<wgt id='morphing_basis_vector_3'> +1.4494766e-04 </wgt>
<wgt id='morphing_basis_vector_4'> +3.0885932e-05 </wgt>
<wgt id='morphing_basis_vector_5'> +2.7906491e-05 </wgt>
</rwgt>
</event>
<event>
 4      1 +3.1894900e-05 3.86808400e+02 7.81860800e-03 9.69621300e-02
        2 -1    0    0  501    0 +0.0000000000e+00 +0.0000000000e+00 +1.5065223814e+03 1.5065223814e+03 0.0000000000e+00 0.0000e+00 -1.0000e+00
       -2 -1    0    0    0  501 -0.0000000000e+00 -0.0000000000e+00 -2.4828830364e+01 2.4828830364e+01 0.0000000000e+00 0.0000e+00 1.0000e+00
      -13  1    1    2    0    0 -1.8750759790e+02 +4.5940535799e+01 +6.9475333379e+02 7.2107685229e+02 0.0000000000e+00 0.0000e+00 1.0000e+00
       13  1    1    2    0    0 +1.8750759790e+02 -4.5940535799e+01 +7.8694021725e+02 8.1027435948e+02 0.0000000000e+00 0.0000e+00 -1.0000e+00
<mgrwt>
<rscale>  0 0.38680842E+03</rscale>
<asrwt>0</asrwt>
<pdfrwt beam="1">  1        2 0.23177260E+00 0.38680842E+03</pdfrwt>
<pdfrwt beam="2">  1       -2 0.38198212E-02 0.38680842E+03</pdfrwt>
<totfact> 0.42612430E+03</totfact>
</mgrwt>
<rwgt>
<wgt id='morphing_basis_vector_1'> +2.3703457e-04 </wgt>
<wgt id='morphing_basis_vector_2'> +1.4164505e-04 </wgt>
<wgt id='morphing_basis_vector_3'> +1.4019484e-04 </wgt>
<wgt id='morphing_basis_vector_4'> +3.1155977e-05 </wgt>
<wgt id='morphing_basis_vector_5'> +2.7785791e-05 </wgt>
</rwgt>
</event>
<event>
 4      1 +3.1894900e-05 3.66222500e+02 7.81860800e-03 9.76180100e-02
        2 -1    0    0  501    0 +0.0000000000e+00 +0.0000000000e+00 +1.5235897195e+02 1.5235897195e+02 0.0000000000e+00 0.0000e+00 1.0000e+00
       -2 -1    0    0    0  501 -0.0000000000e+00 -0.0000000000e+00 -2.2007057279e+02 2.2007057279e+02 0.0000000000e+00 0.0000e+00 -1.0000e+00
      -13  1    1    2    0    0 +9.5206568066e+01 +4.0043846452e+01 -1.8762010697e+02 2.1417073745e+02 0.0000000000e+00 0.0000e+00 -1.0000e+00
       13  1    1    2    0    0 -9.5206568066e+01 -4.0043846452e+01 +1.1990850613e+02 1.5825880729e+02 0.0000000000e+00 0.0000e+00 1.0000e+00
<mgrwt>
<rscale>  0 0.36622248E+03</rscale>
<asrwt>0</asrwt>
<pdfrwt beam="1">  1        2 0.23439842E-01 0.36622248E+03</pdfrwt>
<pdfrwt beam="2">  1       -2 0.33857011E-01 0.36622248E+03</pdfrwt>
<totfact> 0.22739116E+03</totfact>
</mgrwt>
<rwgt>
<wgt id='morphing_basis_vector_1'> +2.0149996e-04 </wgt>
<wgt id='morphing_basis_vector_2'> +1.0857371e-04 </wgt>
<wgt id='morphing_basis_vector_3'> +1.2430478e-04 </wgt>
<wgt id='morphing_basis_vector_4'> +2.3516538e-05 </wgt>
<wgt id='morphing_basis_vector_5'> +1.6671112e-05 </wgt>
</rwgt>
</event>
<event>
 4      1 +3.1894900e-05 3.77477700e+02 7.81860800e-03 9.72538400e-02
        2 -1    0    0  501    0 +0.0000000000e+00 +0.0000000000e+00 +1.1113350000e+03 1.1113350000e+03 0.0000000000e+00 0.0000e+00 1.0000e+00
       -2 -1    0    0    0  501 -0.0000000000e+00 -0.0000000000e+00 -3.2053665156e+01 3.2053665156e+01 0.0000000000e+00 0.0000e+00 -1.0000e+00
      -13  1    1    2    0    0 -1.8511573732e+02 -2.1204549042e+01 +4.4852340890e+02 4.8568582173e+02 0.0000000000e+00 0.0000e+00 -1.0000e+00
       13  1    1    2    0    0 +1.8511573732e+02 +2.1204549042e+01 +6.3075792594e+02 6.5770284342e+02 0.0000000000e+00 0.0000e+00 1.0000e+00
<mgrwt>
<rscale>  0 0.37747773E+03</rscale>
<asrwt>0</asrwt>
<pdfrwt beam="1">  1        2 0.17097459E+00 0.37747773E+03</pdfrwt>
<pdfrwt beam="2">  1       -2 0.49313339E-02 0.37747773E+03</pdfrwt>
<totfact> 0.48126273E+03</totfact>
</mgrwt>
<rwgt>
<wgt id='morphing_basis_vector_1'> +2.2097101e-04 </wgt>
<wgt id='morphing_basis_vector_2'> +1.2785376e-04 </wgt>
<wgt id='morphing_basis_vector_3'> +1.3186112e-04 </wgt>
<wgt id='morphing_basis_vector_4'> +2.7672322e-05 </wgt>
<wgt id='morphing_basis_vector_5'> +2.2378617e-05 </wgt>
</rwgt>
</event>
<event>
 4      1 +3.1894900e-05 3.97334200e+02 7.81860800e-03 9.66434300e-02
        2 -1    0    0  501    0 +0.0000000000e+00 +0.0000000000e+00 +1.3787444246e+02 1.3787444246e+02 0.0000000000e+00 0.0000e+00 -1.0000e+00
       -2 -1    0    0    0  501 -0.0000000000e+00 -0.0000000000e+00 -2.8626493572e+02 2.8626493572e+02 0.0000000000e+00 0.0000e+00 1.0000e+00
      -13  1    1    2    0    0 +1.1495570180e+02 -1.5468819805e+02 -2.2720011939e+01 1.9406043114e+02 0.0000000000e+00 0.0000e+00 1.0000e+00
       13  1    1    2    0    0 -1.1495570180e+02 +1.5468819805e+02 -1.2567048133e+02 2.3007894704e+02 0.0000000000e+00 0.0000e+00 -1.0000e+00
<mgrwt>
<rscale>  0 0.39733421E+03</rscale>
<asrwt>0</asrwt>
<pdfrwt beam="1">  1        2 0.21211453E-01 0.39733421E+03</pdfrwt>
<pdfrwt beam="2">  1       -2 0.44040759E-01 0.39733421E+03</pdfrwt>
<totfact> 0.15847125E+03</totfact>
</mgrwt>
<rwgt>
<wgt id='morphing_basis_vector_1'> +2.6620527e-04 </wgt>
<wgt id='morphing_basis_vector_2'> +1.8866383e-04 </wgt>
<wgt id='morphing_basis_vector_3'> +1.4106420e-04 </wgt>
<wgt id='morphing_basis_vector_4'> +3.6167999e-05 </wgt>
<wgt id='morphing_basis_vector_5'> +3.5398118e-05 </wgt>
</rwgt>
</event>
<event>
 4      1 +3.1894900e-05 3.96670500e+02 7.81860800e-03 9.66632100e-02
        2 -1    0    0  501    0 +0.0000000000e+00 +0.0000000000e+00 +4.3150174919e+02 4.3150174919e+02 0.0000000000e+00 0.0000e+00 -1.0000e+00
       -2 -1    0    0    0  501 -0.0000000000e+00 -0.0000000000e+00 -9.1162723788e+01 9.1162723788e+01 0.0000000000e+00 0.0000e+00 1.0000e+00
      -13  1    1    2    0    0 +1.2633411311e+02 -9.5921809403e+01 +1.3291033055e+01 1.5917899740e+02 0.0000000000e+00 0.0000e+00 1.0000e+00
       13  1    1    2    0    0 -1.2633411311e+02 +9.5921809403e+01 +3.2704799235e+02 3.6348547558e+02 0.0000000000e+00 0.0000e+00 -1.0000e+00
<mgrwt>
<rscale>  0 0.39667052E+03</rscale>
<asrwt>0</asrwt>
<pdfrwt beam="1">  1        2 0.66384883E-01 0.39667052E+03</pdfrwt>
<pdfrwt beam="2">  1       -2 0.14025035E-01 0.39667052E+03</pdfrwt>
<totfact> 0.30718700E+03</totfact>
</mgrwt>
<rwgt>
<wgt id='morphing_basis_vector_1'> +2.4745493e-04 </wgt>
<wgt id='morphing_basis_vector_2'> +1.3414042e-04 </wgt>
<wgt id='morphing_basis_vector_3'> +1.5721797e-04 </wgt>
<wgt id='morphing_basis_vector_4'> +3.4522322e-05 </wgt>
<wgt id='morphing_basis_vector_5'> +3.3783716e-05 </wgt>
</rwgt>
</event>
<event>
 4      1 +3.1894900e-05 4.24582400e+02 7.81860800e-03 9.58650600e-02
        2 -1    0    0  501    0 +0.0000000000e+00 +0.0000000000e+00 +5.5157632028e+02 5.5157632028e+02 0.0000000000e+00 0.0000e+00 -1.0000e+00
       -2 -1    0    0    0  501 -0.0000000000e+00 -0.0000000000e+00 -8.1706825765e+01 8.1706825765e+01 0.0000000000e+00 0.0000e+00 1.0000e+00
      -13  1    1    2    0    0 -7.4311931448e+01 -5.5365209338e+01 -4.9946104062e+01 1.0527194722e+02 0.0000000000e+00 0.0000e+00 1.0000e+00
       13  1    1    2    0    0 +7.4311931448e+01 +5.5365209338e+01 +5.1981559858e+02 5.2801119882e+02 0.0000000000e+00 0.0000e+00 -1.0000e+00
<mgrwt>
<rscale>  0 0.42458238E+03</rscale>
<asrwt>0</asrwt>
<pdfrwt beam="1">  1        2 0.84857893E-01 0.42458238E+03</pdfrwt>
<pdfrwt beam="2">  1       -2 0.12570281E-01 0.42458238E+03</pdfrwt>
<totfact> 0.27782009E+03</totfact>
</mgrwt>
<rwgt>
<wgt id='morphing_basis_vector_1'> +2.9638577e-04 </wgt>
<wgt id='morphing_basis_vector_2'> +1.5955033e-04 </wgt>
<wgt id='morphing_basis_vector_3'> +1.9564175e-04 </wgt>
<wgt id='morphing_basis_vector_4'> +4.8975413e-05 </wgt>
<wgt id='morphing_basis_vector_5'> +5.6450082e-05 </wgt>
</rwgt>
</event>
<event>
 4      1 +3.1894900e-05 4.02585900e+02 7.81860800e-03 9.64883400e-02
        2 -1    0    0  501    0 +0.0000000000e+00 +0.0000000000e+00 +4.7010315088e+02 4.7010315088e+02 0.0000000000e+00 0.0000e+00 -1.0000e+00
       -2 -1    0    0    0  501 -0.0000000000e+00 -0.0000000000e+00 -8.6191395462e+01 8.6191395462e+01 0.0000000000e+00 0.0000e+00 1.0000e+00
      -13  1    1    2    0    0 +1.9788096459e+02 +1.4294298190e+01 +1.4494117607e+02 2.4570133827e+02 0.0000000000e+00 0.0000e+00 1.0000e+00
       13  1    1    2    0    0 -1.9788096459e+02 -1.4294298190e+01 +2.3897057935e+02 3.1059320807e+02 0.0000000000e+00 0.0000e+00 -1.0000e+00
<mgrwt>
<rscale>  0 0.40258587E+03</rscale>
<asrwt>0</asrwt>
<pdfrwt beam="1">  1        2 0.72323560E-01 0.40258587E+03</pdfrwt>
<pdfrwt beam="2">  1       -2 0.13260215E-01 0.40258587E+03</pdfrwt>
<totfact> 0.30535151E+03</totfact>
</mgrwt>
<rwgt>
<wgt id='morphing_basis_vector_1'> +2.6101498e-04 </wgt>
<wgt id='morphing_basis_vector_2'> +1.5086751e-04 </wgt>
<wgt id='morphing_basis_vector_3'> +1.6117465e-04 </wgt>
<wgt id='morphing_basis_vector_4'> +3.7388326e-05 </wgt>
<wgt id='morphing_basis_vector_5'> +3.8233082e-05 </wgt>
</rwgt>
</event>
<event>
 4      1 +3.1894900e-05 4.06279200e+02 7.81860800e-03 9.63807700e-02
        2 -1    0    0  501    0 +0.0000000000e+00 +0.0000000000e+00 +2.0917452406e+02 2.0917452406e+02 0.0000000000e+00 0.0000e+00 -1.0000e+00
       -2 -1    0    0    0  501 -0.0000000000e+00 -0.0000000000e+00 -1.9727881499e+02 1.9727881499e+02 0.0000000000e+00 0.0000e+00 1.0000e+00
      -13  1    1    2    0    0 +1.0684289492e+02 +8.4541045754e+01 -1.4479222950e+02 1.9881494495e+02 0.0000000000e+00 0.0000e+00 1.0000e+00
       13  1    1    2    0    0 -1.0684289492e+02 -8.4541045754e+01 +1.5668793857e+02 2.0763839410e+02 0.0000000000e+00 0.0000e+00 -1.0000e+00
<mgrwt>
<rscale>  0 0.40627923E+03</rscale>
<asrwt>0</asrwt>
<pdfrwt beam="1">  1        2 0.32180696E-01 0.40627923E+03</pdfrwt>
<pdfrwt beam="2">  1       -2 0.30350587E-01 0.40627923E+03</pdfrwt>
<totfact> 0.19185768E+03</totfact>
</mgrwt>
<rwgt>
<wgt id='morphing_basis_vector_1'> +2.6326234e-04 </wgt>
<wgt id='morphing_basis_vector_2'> +1.4186702e-04 </wgt>
<wgt id='morphing_basis_vector_3'> +1.6975509e-04 </wgt>
<wgt id='morphing_basis_vector_4'> +3.8959853e-05 </wgt>
<wgt id='morphing_basis_vector_5'> +4.0754374e-05 </wgt>
</rwgt>
</event>
<event>
 4      1 +3.1894900e-05 3.74883000e+02 7.81860800e-03 9.73365800e-02
        2 -1    0    0  501    0 +0.0000000000e+00 +0.0000000000e+00 +1.2501911827e+03 1.2501911827e+03 0.0000000000e+00 0.0000e+00 -1.0000e+00
       -2 -1    0    0    0  501 -0.0000000000e+00 -0.0000000000e+00 -2.8103149060e+01 2.8103149060e+01 0.0000000000e+00 0.0000e+00 1.0000e+00
      -13  1    1    2    0    0 -4.2552832421e+01 +1.6910152340e+02 +8.4551274771e+02 8.6330636237e+02 0.0000000000e+00 0.0000e+00 -1.0000e+00
       13  1    1    2    0    0 +4.2552832421e+01 -1.6910152340e+02 +3.7657528591e+02 4.1498796937e+02 0.0000000000e+00 0.0000e+00 1.0000e+00
<mgrwt>
<rscale>  0 0.37488296E+03</rscale>
<asrwt>0</asrwt>
<pdfrwt beam="1">  1        2 0.19233706E+00 0.37488296E+03</pdfrwt>
<pdfrwt beam="2">  1       -2 0.43235624E-02 0.37488296E+03</pdfrwt>
<totfact> 0.48885189E+03</totfact>
</mgrwt>
<rwgt>
<wgt id='morphing_basis_vector_1'> +2.3679780e-04 </wgt>
<wgt id='morphing_basis_vector_2'> +1.8510910e-04 </wgt>
<wgt id='morphing_basis_vector_3'> +1.0779246e-04 </wgt>
<wgt id='morphing_basis_vector_4'> +3.0544773e-05 </wgt>
<wgt id='morphing_basis_vector_5'> +2.2325939e-05 </wgt>
</rwgt>
</event>
<event>
 4      1 +3.1894900e-05 3.96921800e+02 7.81860800e-03 9.66557200e-02
        2 -1    0    0  501    0 +0.0000000000e+00 +0.0000000000e+00 +2.3796128669e+02 2.3796128669e+02 0.0000000000e+00 0.0000e+00 -1.0000e+00
       -2 -1    0    0    0  501 -0.0000000000e+00 -0.0000000000e+00 -1.6551736441e+02 1.6551736441e+02 0.0000000000e+00 0.0000e+00 1.0000e+00
      -13  1    1    2    0    0 +1.1837596566e+02 +3.5808438669e+01 -1.2155680466e+02 1.7341040996e+02 0.0000000000e+00 0.0000e+00 1.0000e+00
       13  1    1    2    0    0 -1.1837596566e+02 -3.5808438669e+01 +1.9400072694e+02 2.3006824114e+02 0.0000000000e+00 0.0000e+00 -1.0000e+00
<mgrwt>
<rscale>  0 0.39692178E+03</rscale>
<asrwt>0</asrwt>
<pdfrwt beam="1">  1        2 0.36609429E-01 0.39692178E+03</pdfrwt>
<pdfrwt beam="2">  1       -2 0.25464210E-01 0.39692178E+03</pdfrwt>
<totfact> 0.22427032E+03</totfact>
</mgrwt>
<rwgt>
<wgt id='morphing_basis_vector_1'> +2.4746714e-04 </wgt>
<wgt id='morphing_basis_vector_2'> +1.3314542e-04 </wgt>
<wgt id='morphing_basis_vector_3'> +1.5791084e-04 </wgt>
<wgt id='morphing_basis_vector_4'> +3.4600714e-05 </wgt>
<wgt id='morphing_basis_vector_5'> +3.3930023e-05 </wgt>
</rwgt>
</event>
<event>
 4      1 +3.1894900e-05 3.84115600e+02 7.81860800e-03 9.70454000e-02
        2 -1    0    0  501    0 +0.0000000000e+00 +0.0000000000e+00 +1.1087031297e+02 1.1087031297e+02 0.0000000000e+00 0.0000e+00 -1.0000e+00
       -2 -1    0    0    0  501 -0.0000000000e+00 -0.0000000000e+00 -3.3269671957e+02 3.3269671957e+02 0.0000000000e+00 0.0000e+00 1.0000e+00
      -13  1    1    2    0    0 -6.3352747212e+00 +8.7599728876e+01 -3.0814776121e+02 3.2041986665e+02 0.0000000000e+00 0.0000e+00 1.0000e+00
       13  1    1    2    0    0 +6.3352747212e+00 -8.7599728876e+01 +8.6321354610e+01 1.2314716589e+02 0.0000000000e+00 0.0000e+00 -1.0000e+00
<mgrwt>
<rscale>  0 0.38411555E+03</rscale>
<asrwt>0</asrwt>
<pdfrwt beam="1">  1        2 0.17056971E-01 0.38411555E+03</pdfrwt>
<pdfrwt beam="2">  1       -2 0.51184110E-01 0.38411555E+03</pdfrwt>
<totfact> 0.15411868E+03</totfact>
</mgrwt>
<rwgt>
<wgt id='morphing_basis_vector_1'> +2.2719455e-04 </wgt>
<wgt id='morphing_basis_vector_2'> +1.2204246e-04 </wgt>
<wgt id='morphing_basis_vector_3'> +1.4299707e-04 </wgt>
<wgt id='morphing_basis_vector_4'> +2.9395454e-05 </wgt>
<wgt id='morphing_basis_vector_5'> +2.5815282e-05 </wgt>
</rwgt>
</event>
<event>
 4      1 +3.1894900e-05 4.11562100e+02 7.81860800e-03 9.62290000e-02
        2 -1    0    0  501    0 +0.0000000000e+00 +0.0000000000e+00 +8.2445311265e+01 8.2445311265e+01 0.0000000000e+00 0.0000e+00 1.0000e+00
       -2 -1    0    0    0  501 -0.0000000000e+00 -0.0000000000e+00 -5.1362345647e+02 5.1362345647e+02 0.0000000000e+00 0.0000e+00 -1.0000e+00
      -13  1    1    2    0    0 -1.3487541492e+02 -1.5312968946e+02 -1.7711293633e+02 2.7020190888e+02 0.0000000000e+00 0.0000e+00 -1.0000e+00
       13  1    1    2    0    0 +1.3487541492e+02 +1.5312968946e+02 -2.5406520887e+02 3.2586685886e+02 0.0000000000e+00 0.0000e+00 1.0000e+00
<mgrwt>
<rscale>  0 0.41156213E+03</rscale>
<asrwt>0</asrwt>
<pdfrwt beam="1">  1        2 0.12683894E-01 0.41156213E+03</pdfrwt>
<pdfrwt beam="2">  1       -2 0.79018993E-01 0.41156213E+03</pdfrwt>
<totfact> 0.90411502E+02</totfact>
</mgrwt>
<rwgt>
<wgt id='morphing_basis_vector_1'> +2.8595492e-04 </wgt>
<wgt id='morphing_basis_vector_2'> +1.8810550e-04 </wgt>
<wgt id='morphing_basis_vector_3'> +1.6501546e-04 </wgt>
<wgt id='morphing_basis_vector_4'> +4.1725778e-05 </wgt>
<wgt id='morphing_basis_vector_5'> +4.5815210e-05 </wgt>
</rwgt>
</event>
<event>
 4      1 +3.1894900e-05 4.13097600e+02 7.81860800e-03 9.61853400e-02
        2 -1    0    0  501    0 +0.0000000000e+00 +0.0000000000e+00 +1.5203771958e+03 1.5203771958e+03 0.0000000000e+00 0.0000e+00 1.0000e+00
       -2 -1    0    0    0  501 -0.0000000000e+00 -0.0000000000e+00 -2.8060402935e+01 2.8060402935e+01 0.0000000000e+00 0.0000e+00 -1.0000e+00
      -13  1    1    2    0    0 +1.0963670540e+02 -1.7366749754e+02 +8.2843377943e+02 8.5351223411e+02 0.0000000000e+00 0.0000e+00 -1.0000e+00
       13  1    1    2    0    0 -1.0963670540e+02 +1.7366749754e+02 +6.6388301343e+02 6.9492536462e+02 0.0000000000e+00 0.0000e+00 1.0000e+00
<mgrwt>
<rscale>  0 0.41309755E+03</rscale>
<asrwt>0</asrwt>
<pdfrwt beam="1">  1        2 0.23390412E+00 0.41309755E+03</pdfrwt>
<pdfrwt beam="2">  1       -2 0.43169863E-02 0.41309755E+03</pdfrwt>
<totfact> 0.34883950E+03</totfact>
</mgrwt>
<rwgt>
<wgt id='morphing_basis_vector_1'> +2.8778749e-04 </wgt>
<wgt id='morphing_basis_vector_2'> +1.8682468e-04 </wgt>
<wgt id='morphing_basis_vector_3'> +1.6803742e-04 </wgt>
<wgt id='morphing_basis_vector_4'> +4.2435403e-05 </wgt>
<wgt id='morphing_basis_vector_5'> +4.7024810e-05 </wgt>
</rwgt>
</event>
<event>
 4      1 +3.1894900e-05 3.91295600e+02 7.81860800e-03 9.68249600e-02
        2 -1    0    0  501    0 +0.0000000000e+00 +0.0000000000e+00 +1.1318055958e+02 1.1318055958e+02 0.0000000000e+00 0.0000e+00 -1.0000e+00
       -2 -1    0    0    0  501 -0.0000000000e+00 -0.0000000000e+00 -3.3820343491e+02 3.3820343491e+02 0.0000000000e+00 0.0000e+00 1.0000e+00
      -13  1    1    2    0    0 -1.1467969071e+01 -9.7589113559e+01 -3.0767470757e+02 3.2298432637e+02 0.0000000000e+00 0.0000e+00 1.0000e+00
       13  1    1    2    0    0 +1.1467969071e+01 +9.7589113559e+01 +8.2651832248e+01 1.2839966812e+02 0.0000000000e+00 0.0000e+00 -1.0000e+00
<mgrwt>
<rscale>  0 0.39129556E+03</rscale>
<asrwt>0</asrwt>
<pdfrwt beam="1">  1        2 0.17412394E-01 0.39129556E+03</pdfrwt>
<pdfrwt beam="2">  1       -2 0.52031297E-01 0.39129556E+03</pdfrwt>
<totfact> 0.14565326E+03</totfact>
</mgrwt>
<rwgt>
<wgt id='morphing_basis_vector_1'> +2.3833356e-04 </wgt>
<wgt id='morphing_basis_vector_2'> +1.2803002e-04 </wgt>
<wgt id='morphing_basis_vector_3'> +1.5121854e-04 </wgt>
<wgt id='morphing_basis_vector_4'> +3.2204684e-05 </wgt>
<wgt id='morphing_basis_vector_5'> +3.0193241e-05 </wgt>
</rwgt>
</event>
<event>
 4      1 +3.1894900e-05 3.77642000e+02 7.81860800e-03 9.72486300e-02
        2 -1    0    0  501    0 +0.0000000000e+00 +0.0000000000e+00 +2.4276835272e+02 2.4276835272e+02 0.0000000000e+00 0.0000e+00 -1.0000e+00
       -2 -1    0    0    0  501 -0.0000000000e+00 -0.0000000000e+00 -1.4686166363e+02 1.4686166363e+02 0.0000000000e+00 0.0000e+00 1.0000e+00
      -13  1    1    2    0    0 +1.3643058365e+02 -6.5667577288e+00 -8.6557560480e+01 1.6170540417e+02 0.0000000000e+00 0.0000e+00 1.0000e+00
       13  1    1    2    0    0 -1.3643058365e+02 +6.5667577288e+00 +1.8246424957e+02 2.2792461217e+02 0.0000000000e+00 0.0000e+00 -1.0000e+00
<mgrwt>
<rscale>  0 0.37764197E+03</rscale>
<asrwt>0</asrwt>
<pdfrwt beam="1">  1        2 0.37348977E-01 0.37764197E+03</pdfrwt>
<pdfrwt beam="2">  1       -2 0.22594102E-01 0.37764197E+03</pdfrwt>
<totfact> 0.26780990E+03</totfact>
</mgrwt>
<rwgt>
<wgt id='morphing_basis_vector_1'> +2.1778365e-04 </wgt>
<wgt id='morphing_basis_vector_2'> +1.1759796e-04 </wgt>
<wgt id='morphing_basis_vector_3'> +1.3571205e-04 </wgt>
<wgt id='morphing_basis_vector_4'> +2.7126343e-05 </wgt>
<wgt id='morphing_basis_vector_5'> +2.2238915e-05 </wgt>
</rwgt>
</event>
<event>
 4      1 +3.1894900e-05 3.70475900e+02 7.81860800e-03 9.74787500e-02
        2 -1    0    0  501    0 +0.0000000000e+00 +0.0000000000e+00 +7.9325490140e+02 7.9325490140e+02 0.0000000000e+00 0.0000e+00 1.0000e+00
       -2 -1    0    0    0  501 -0.0000000000e+00 -0.0000000000e+00 -4.3256083902e+01 4.3256083902e+01 0.0000000000e+00 0.0000e+00 -1.0000e+00
      -13  1    1    2    0    0 -9.7831656965e+00 +1.3975317799e+02 +1.0136548920e+02 1.7292085904e+02 0.0000000000e+00 0.0000e+00 -1.0000e+00
       13  1    1    2    0    0 +9.7831656965e+00 -1.3975317799e+02 +6.4863332831e+02 6.6359012627e+02 0.0000000000e+00 0.0000e+00 1.0000e+00
<mgrwt>
<rscale>  0 0.37047591E+03</rscale>
<asrwt>0</asrwt>
<pdfrwt beam="1">  1        2 0.12203920E+00 0.37047591E+03</pdfrwt>
<pdfrwt beam="2">  1       -2 0.66547827E-02 0.37047591E+03</pdfrwt>
<totfact> 0.48202845E+03</totfact>
</mgrwt>
<rwgt>
<wgt id='morphing_basis_vector_1'> +2.0760810e-04 </wgt>
<wgt id='morphing_basis_vector_2'> +1.1237627e-04 </wgt>
<wgt id='morphing_basis_vector_3'> +1.2823737e-04 </wgt>
<wgt id='morphing_basis_vector_4'> +2.4828831e-05 </wgt>
<wgt id='morphing_basis_vector_5'> +1.8643560e-05 </wgt>
</rwgt>
</event>
<event>
 4      1 +3.1894900e-05 3.84075500e+02 7.81860800e-03 9.70466500e-02
        2 -1    0    0  501    0 +0.0000000000e+00 +0.0000000000e+00 +3.2149391251e+02 3.2149391251e+02 0.0000000000e+00 0.0000e+00 -1.0000e+00
       -2 -1    0    0    0  501 -0.0000000000e+00 -0.0000000000e+00 -1.1470978197e+02 1.1470978197e+02 0.0000000000e+00 0.0000e+00 1.0000e+00
      -13  1    1    2    0    0 -4.1612317763e+01 +1.1437887487e+02 -6.5309320216e+01 1.3812827123e+02 0.0000000000e+00 0.0000e+00 1.0000e+00
       13  1    1    2    0    0 +4.1612317763e+01 -1.1437887487e+02 +2.7209345075e+02 2.9807542325e+02 0.0000000000e+00 0.0000e+00 -1.0000e+00
<mgrwt>
<rscale>  0 0.38407550E+03</rscale>
<asrwt>0</asrwt>
<pdfrwt beam="1">  1        2 0.49460601E-01 0.38407550E+03</pdfrwt>
<pdfrwt beam="2">  1       -2 0.17647659E-01 0.38407550E+03</pdfrwt>
<totfact> 0.29423899E+03</totfact>
</mgrwt>
<rwgt>
<wgt id='morphing_basis_vector_1'> +2.2723289e-04 </wgt>
<wgt id='morphing_basis_vector_2'> +1.2231118e-04 </wgt>
<wgt id='morphing_basis_vector_3'> +1.4284975e-04 </wgt>
<wgt id='morphing_basis_vector_4'> +2.9394671e-05 </wgt>
<wgt id='morphing_basis_vector_5'> +2.5798599e-05 </wgt>
</rwgt>
</event>
<event>
 4      1 +3.1894900e-05 3.90246700e+02 7.81860800e-03 9.68568400e-02
        2 -1    0    0  501    0 +0.0000000000e+00 +0.0000000000e+00 +1.2098933445e+03 1.2098933445e+03 0.0000000000e+00 0.0000e+00 1.0000e+00
       -2 -1    0    0    0  501 -0.0000000000e+00 -0.0000000000e+00 -3.1468169350e+01 3.1468169350e+01 0.0000000000e+00 0.0000e+00 -1.0000e+00
      -13  1    1    2    0    0 -1.5256217987e+02 -1.0682322856e+02 +7.7433025117e+02 7.9641305788e+02 0.0000000000e+00 0.0000e+00 1.0000e+00
       13  1    1    2    0    0 +1.5256217987e+02 +1.0682322856e+02 +4.0409492399e+02 4.4494845598e+02 0.0000000000e+00 0.0000e+00 -1.0000e+00
<mgrwt>
<rscale>  0 0.39024674E+03</rscale>
<asrwt>0</asrwt>
<pdfrwt beam="1">  1        2 0.18613740E+00 0.39024674E+03</pdfrwt>
<pdfrwt beam="2">  1       -2 0.48412578E-02 0.39024674E+03</pdfrwt>
<totfact> 0.43485811E+03</totfact>
</mgrwt>
<rwgt>
<wgt id='morphing_basis_vector_1'> +2.5743812e-04 </wgt>
<wgt id='morphing_basis_vector_2'> +1.9037049e-04 </wgt>
<wgt id='morphing_basis_vector_3'> +1.2921138e-04 </wgt>
<wgt id='morphing_basis_vector_4'> +3.4101840e-05 </wgt>
<wgt id='morphing_basis_vector_5'> +3.0897452e-05 </wgt>
</rwgt>
</event>
<event>
 4      1 +3.1894900e-05 3.91220300e+02 7.81860800e-03 9.68272400e-02
        2 -1    0    0  501    0 +0.0000000000e+00 +0.0000000000e+00 +1.2548546781e+03 1.2548546781e+03 0.0000000000e+00 0.0000e+00 1.0000e+00
       -2 -1    0    0    0  501 -0.0000000000e+00 -0.0000000000e+00 -3.0492234217e+01 3.0492234217e+01 0.0000000000e+00 0.0000e+00 -1.0000e+00
      -13  1    1    2    0    0 -1.8843621764e+02 -5.2468750501e+01 +6.0736952742e+02 6.3809005692e+02 0.0000000000e+00 0.0000e+00 -1.0000e+00
       13  1    1    2    0    0 +1.8843621764e+02 +5.2468750501e+01 +6.1699291642e+02 6.4725685536e+02 0.0000000000e+00 0.0000e+00 1.0000e+00
<mgrwt>
<rscale>  0 0.39122026E+03</rscale>
<asrwt>0</asrwt>
<pdfrwt beam="1">  1        2 0.19305453E+00 0.39122026E+03</pdfrwt>
<pdfrwt beam="2">  1       -2 0.46911139E-02 0.39122026E+03</pdfrwt>
<totfact> 0.43021395E+03</totfact>
</mgrwt>
<rwgt>
<wgt id='morphing_basis_vector_1'> +2.4539038e-04 </wgt>
<wgt id='morphing_basis_vector_2'> +1.4983024e-04 </wgt>
<wgt id='morphing_basis_vector_3'> +1.4398749e-04 </wgt>
<wgt id='morphing_basis_vector_4'> +3.2942403e-05 </wgt>
<wgt id='morphing_basis_vector_5'> +3.0618407e-05 </wgt>
</rwgt>
</event>
<event>
 4      1 +3.1894900e-05 3.75966700e+02 7.81860800e-03 9.73019300e-02
        2 -1    0    0  501    0 +0.0000000000e+00 +0.0000000000e+00 +4.6144080957e+02 4.6144080957e+02 0.0000000000e+00 0.0000e+00 1.0000e+00
       -2 -1    0    0    0  501 -0.0000000000e+00 -0.0000000000e+00 -7.6581314878e+01 7.6581314878e+01 0.0000000000e+00 0.0000e+00 -1.0000e+00
      -13  1    1    2    0    0 +8.0759867803e+01 +6.7428683241e+01 +4.1536375114e+02 4.2848083894e+02 0.0000000000e+00 0.0000e+00 1.0000e+00
       13  1    1    2    0    0 -8.0759867803e+01 -6.7428683241e+01 -3.0504256447e+01 1.0954128552e+02 0.0000000000e+00 0.0000e+00 -1.0000e+00
<mgrwt>
<rscale>  0 0.37596672E+03</rscale>
<asrwt>0</asrwt>
<pdfrwt beam="1">  1        2 0.70990892E-01 0.37596672E+03</pdfrwt>
<pdfrwt beam="2">  1       -2 0.11781741E-01 0.37596672E+03</pdfrwt>
<totfact> 0.37498862E+03</totfact>
</mgrwt>
<rwgt>
<wgt id='morphing_basis_vector_1'> +2.8512646e-04 </wgt>
<wgt id='morphing_basis_vector_2'> +3.2756638e-04 </wgt>
<wgt id='morphing_basis_vector_3'> +5.8493834e-05 </wgt>
<wgt id='morphing_basis_vector_4'> +3.9340035e-05 </wgt>
<wgt id='morphing_basis_vector_5'> +2.5971698e-05 </wgt>
</rwgt>
</event>
<event>
 4      1 +3.1894900e-05 3.67221700e+02 7.81860800e-03 9.75851100e-02
        2 -1    0    0  501    0 +0.0000000000e+00 +0.0000000000e+00 +6.8742474702e+02 6.8742474702e+02 0.0000000000e+00 0.0000e+00 -1.0000e+00
       -2 -1    0    0    0  501 -0.0000000000e+00 -0.0000000000e+00 -4.9042372882e+01 4.9042372882e+01 0.0000000000e+00 0.0000e+00 1.0000e+00
      -13  1    1    2    0    0 -8.7299813141e+01 -8.2199642594e+01 +4.0324885400e+01 1.2650745037e+02 0.0000000000e+00 0.0000e+00 1.0000e+00
       13  1    1    2    0    0 +8.7299813141e+01 +8.2199642594e+01 +5.9805748874e+02 6.0995966953e+02 0.0000000000e+00 0.0000e+00 -1.0000e+00
<mgrwt>
<rscale>  0 0.36722168E+03</rscale>
<asrwt>0</asrwt>
<pdfrwt beam="1">  1        2 0.10575765E+00 0.36722168E+03</pdfrwt>
<pdfrwt beam="2">  1       -2 0.75449809E-02 0.36722168E+03</pdfrwt>
<totfact> 0.47360033E+03</totfact>
</mgrwt>
<rwgt>
<wgt id='morphing_basis_vector_1'> +2.0293241e-04 </wgt>
<wgt id='morphing_basis_vector_2'> +1.0949207e-04 </wgt>
<wgt id='morphing_basis_vector_3'> +1.2520222e-04 </wgt>
<wgt id='morphing_basis_vector_4'> +2.3820859e-05 </wgt>
<wgt id='morphing_basis_vector_5'> +1.7123438e-05 </wgt>
</rwgt>
</event>
<event>
 4      1 +3.1894900e-05 3.76110900e+02 7.81860800e-03 9.72973300e-02
        2 -1    0    0  501    0 +0.0000000000e+00 +0.0000000000e+00 +3.5287995788e+02 3.5287995788e+02 0.0000000000e+00 0.0000e+00 1.0000e+00
       -2 -1    0    0    0  501 -0.0000000000e+00 -0.0000000000e+00 -1.0021779512e+02 1.0021779512e+02 0.0000000000e+00 0.0000e+00 -1.0000e+00
      -13  1    1    2    0    0 +1.7375256389e+02 -6.4994809274e+01 +8.9188793875e+01 2.0583711921e+02 0.0000000000e+00 0.0000e+00 -1.0000e+00
       13  1    1    2    0    0 -1.7375256389e+02 +6.4994809274e+01 +1.6347336888e+02 2.4726063379e+02 0.0000000000e+00 0.0000e+00 1.0000e+00
<mgrwt>
<rscale>  0 0.37611089E+03</rscale>
<asrwt>0</asrwt>
<pdfrwt beam="1">  1        2 0.54289224E-01 0.37611089E+03</pdfrwt>
<pdfrwt beam="2">  1       -2 0.15418122E-01 0.37611089E+03</pdfrwt>
<totfact> 0.32977079E+03</totfact>
</mgrwt>
<rwgt>
<wgt id='morphing_basis_vector_1'> +2.1888488e-04 </wgt>
<wgt id='morphing_basis_vector_2'> +1.2648957e-04 </wgt>
<wgt id='morphing_basis_vector_3'> +1.3050117e-04 </wgt>
<wgt id='morphing_basis_vector_4'> +2.7218720e-05 </wgt>
<wgt id='morphing_basis_vector_5'> +2.1656976e-05 </wgt>
</rwgt>
</event>
<event>
 4      1 +3.1894900e-05 4.23886000e+02 7.81860800e-03 9.58841700e-02
        2 -1    0    0  501    0 +0.0000000000e+00 +0.0000000000e+00 +2.0920781104e+02 2.0920781104e+02 0.0000000000e+00 0.0000e+00 1.0000e+00
       -2 -1    0    0    0  501 -0.0000000000e+00 -0.0000000000e+00 -2.1471392577e+02 2.1471392577e+02 0.0000000000e+00 0.0000e+00 -1.0000e+00
      -13  1    1    2    0    0 -9.6509866625e+01 -3.9579630345e+01 -1.8726558360e+02 2.1435741251e+02 0.0000000000e+00 0.0000e+00 -1.0000e+00
       13  1    1    2    0    0 +9.6509866625e+01 +3.9579630345e+01 +1.8175946888e+02 2.0956432430e+02 0.0000000000e+00 0.0000e+00 1.0000e+00
<mgrwt>
<rscale>  0 0.42388598E+03</rscale>
<asrwt>0</asrwt>
<pdfrwt beam="1">  1        2 0.32185817E-01 0.42388598E+03</pdfrwt>
<pdfrwt beam="2">  1       -2 0.33032912E-01 0.42388598E+03</pdfrwt>
<totfact> 0.16538429E+03</totfact>
</mgrwt>
<rwgt>
<wgt id='morphing_basis_vector_1'> +2.9507563e-04 </wgt>
<wgt id='morphing_basis_vector_2'> +1.5888084e-04 </wgt>
<wgt id='morphing_basis_vector_3'> +1.9458425e-04 </wgt>
<wgt id='morphing_basis_vector_4'> +4.8555040e-05 </wgt>
<wgt id='morphing_basis_vector_5'> +5.5793388e-05 </wgt>
</rwgt>
</event>
<event>
 4      1 +3.1894900e-05 3.86695800e+02 7.81860800e-03 9.69656000e-02
        2 -1    0    0  501    0 +0.0000000000e+00 +0.0000000000e+00 +4.9430922122e+02 4.9430922122e+02 0.0000000000e+00 0.0000e+00 1.0000e+00
       -2 -1    0    0    0  501 -0.0000000000e+00 -0.0000000000e+00 -7.5627572480e+01 7.5627572480e+01 0.0000000000e+00 0.0000e+00 -1.0000e+00
      -13  1    1    2    0    0 +1.0029213684e+02 +5.3180575761e+01 -2.1339860897e+01 1.1550790455e+02 0.0000000000e+00 0.0000e+00 -1.0000e+00
       13  1    1    2    0    0 -1.0029213684e+02 -5.3180575761e+01 +4.4002150964e+02 4.5442888915e+02 0.0000000000e+00 0.0000e+00 1.0000e+00
<mgrwt>
<rscale>  0 0.38669578E+03</rscale>
<asrwt>0</asrwt>
<pdfrwt beam="1">  1        2 0.76047571E-01 0.38669578E+03</pdfrwt>
<pdfrwt beam="2">  1       -2 0.11635011E-01 0.38669578E+03</pdfrwt>
<totfact> 0.35440405E+03</totfact>
</mgrwt>
<rwgt>
<wgt id='morphing_basis_vector_1'> +2.3119799e-04 </wgt>
<wgt id='morphing_basis_vector_2'> +1.2432709e-04 </wgt>
<wgt id='morphing_basis_vector_3'> +1.4584415e-04 </wgt>
<wgt id='morphing_basis_vector_4'> +3.0381579e-05 </wgt>
<wgt id='morphing_basis_vector_5'> +2.7343541e-05 </wgt>
</rwgt>
</event>
<event>
 4      1 +3.1894900e-05 4.17178100e+02 7.81860800e-03 9.60702900e-02
        2 -1    0    0  501    0 +0.0000000000e+00 +0.0000000000e+00 +7.6177268479e+02 7.6177268479e+02 0.0000000000e+00 0.0000e+00 1.0000e+00
       -2 -1    0    0    0  501 -0.0000000000e+00 -0.0000000000e+00 -5.7115989859e+01 5.7115989859e+01 0.0000000000e+00 0.0000e+00 -1.0000e+00
      -13  1    1    2    0    0 +2.3196128163e-01 -1.4992144868e+02 +6.7650966660e+01 1.6447841156e+02 0.0000000000e+00 0.0000e+00 -1.0000e+00
       13  1    1    2    0    0 -2.3196128163e-01 +1.4992144868e+02 +6.3700572827e+02 6.5441026309e+02 0.0000000000e+00 0.0000e+00 1.0000e+00
<mgrwt>
<rscale>  0 0.41717814E+03</rscale>
<asrwt>0</asrwt>
<pdfrwt beam="1">  1        2 0.11719579E+00 0.41717814E+03</pdfrwt>
<pdfrwt beam="2">  1       -2 0.87870759E-02 0.41717814E+03</pdfrwt>
<totfact> 0.33188635E+03</totfact>
</mgrwt>
<rwgt>
<wgt id='morphing_basis_vector_1'> +2.8278845e-04 </wgt>
<wgt id='morphing_basis_vector_2'> +1.5280909e-04 </wgt>
<wgt id='morphing_basis_vector_3'> +1.8458573e-04 </wgt>
<wgt id='morphing_basis_vector_4'> +4.4668621e-05 </wgt>
<wgt id='morphing_basis_vector_5'> +4.9722143e-05 </wgt>
</rwgt>
</event>
<event>
 4      1 +3.1894900e-05 3.91942800e+02 7.81860800e-03 9.68053400e-02
        2 -1    0    0  501    0 +0.0000000000e+00 +0.0000000000e+00 +8.3698700740e+02 8.3698700740e+02 0.0000000000e+00 0.0000e+00 -1.0000e+00
       -2 -1    0    0    0  501 -0.0000000000e+00 -0.0000000000e+00 -4.5884559600e+01 4.5884559600e+01 0.0000000000e+00 0.0000e+00 1.0000e+00
      -13  1    1    2    0    0 -7.6205552718e+00 -1.7585987616e+02 +2.0151751879e+02 2.6757069960e+02 0.0000000000e+00 0.0000e+00 1.0000e+00
       13  1    1    2    0    0 +7.6205552718e+00 +1.7585987616e+02 +5.8958492901e+02 6.1530086740e+02 0.0000000000e+00 0.0000e+00 -1.0000e+00
<mgrwt>
<rscale>  0 0.39194275E+03</rscale>
<asrwt>0</asrwt>
<pdfrwt beam="1">  1        2 0.12876722E+00 0.39194275E+03</pdfrwt>
<pdfrwt beam="2">  1       -2 0.70591636E-02 0.39194275E+03</pdfrwt>
<totfact> 0.41229067E+03</totfact>
</mgrwt>
<rwgt>
<wgt id='morphing_basis_vector_1'> +2.4053792e-04 </wgt>
<wgt id='morphing_basis_vector_2'> +1.3217123e-04 </wgt>
<wgt id='morphing_basis_vector_3'> +1.5081513e-04 </wgt>
<wgt id='morphing_basis_vector_4'> +3.2592889e-05 </wgt>
<wgt id='morphing_basis_vector_5'> +3.0686429e-05 </wgt>
</rwgt>
</event>
<event>
 4      1 +3.1894900e-05 3.66807800e+02 7.81860800e-03 9.75987200e-02
        2 -1    0    0  501    0 +0.0000000000e+00 +0.0000000000e+00 +6.0015956495e+02 6.0015956495e+02 0.0000000000e+00 0.0000e+00 1.0000e+00
       -2 -1    0    0    0  501 -0.0000000000e+00 -0.0000000000e+00 -5.6046737319e+01 5.6046737319e+01 0.0000000000e+00 0.0000e+00 -1.0000e+00
      -13  1    1    2    0    0 +1.0291817558e+02 -1.2769412292e+02 +1.2519724537e+02 2.0633053613e+02 0.0000000000e+00 0.0000e+00 -1.0000e+00
       13  1    1    2    0    0 -1.0291817558e+02 +1.2769412292e+02 +4.1891558226e+02 4.4987576614e+02 0.0000000000e+00 0.0000e+00 1.0000e+00
<mgrwt>
<rscale>  0 0.36680777E+03</rscale>
<asrwt>0</asrwt>
<pdfrwt beam="1">  1        2 0.92332236E-01 0.36680777E+03</pdfrwt>
<pdfrwt beam="2">  1       -2 0.86225754E-02 0.36680777E+03</pdfrwt>
<totfact> 0.45223975E+03</totfact>
</mgrwt>
<rwgt>
<wgt id='morphing_basis_vector_1'> +2.0320810e-04 </wgt>
<wgt id='morphing_basis_vector_2'> +1.1173348e-04 </wgt>
<wgt id='morphing_basis_vector_3'> +1.2384403e-04 </wgt>
<wgt id='morphing_basis_vector_4'> +2.3893243e-05 </wgt>
<wgt id='morphing_basis_vector_5'> +1.6992086e-05 </wgt>
</rwgt>
</event>
<event>
 4      1 +3.1894900e-05 4.27717300e+02 7.81860800e-03 9.57794900e-02
        2 -1    0    0  501    0 +0.0000000000e+00 +0.0000000000e+00 +2.8442634454e+02 2.8442634454e+02 0.0000000000e+00 0.0000e+00 -1.0000e+00
       -2 -1    0    0    0  501 -0.0000000000e+00 -0.0000000000e+00 -1.6079915681e+02 1.6079915681e+02 0.0000000000e+00 0.0000e+00 1.0000e+00
      -13  1    1    2    0    0 -3.8583195258e+00 +1.5755661814e+02 -8.8660055159e+01 1.8083025170e+02 0.0000000000e+00 0.0000e+00 1.0000e+00
       13  1    1    2    0    0 +3.8583195258e+00 -1.5755661814e+02 +2.1228724288e+02 2.6439524965e+02 0.0000000000e+00 0.0000e+00 -1.0000e+00
<mgrwt>
<rscale>  0 0.42771727E+03</rscale>
<asrwt>0</asrwt>
<pdfrwt beam="1">  1        2 0.43757899E-01 0.42771727E+03</pdfrwt>
<pdfrwt beam="2">  1       -2 0.24738332E-01 0.42771727E+03</pdfrwt>
<totfact> 0.19311711E+03</totfact>
</mgrwt>
<rwgt>
<wgt id='morphing_basis_vector_1'> +3.0280591e-04 </wgt>
<wgt id='morphing_basis_vector_2'> +1.6401468e-04 </wgt>
<wgt id='morphing_basis_vector_3'> +2.0010061e-04 </wgt>
<wgt id='morphing_basis_vector_4'> +5.0875044e-05 </wgt>
<wgt id='morphing_basis_vector_5'> +5.9495713e-05 </wgt>
</rwgt>
</event>
<event>
 4      1 +3.1894900e-05 3.66246600e+02 7.81860800e-03 9.76172100e-02
        2 -1    0    0  501    0 +0.0000000000e+00 +0.0000000000e+00 +8.9206891128e+02 8.9206891128e+02 0.0000000000e+00 0.0000e+00 -1.0000e+00
       -2 -1    0    0    0  501 -0.0000000000e+00 -0.0000000000e+00 -3.7591419246e+01 3.7591419246e+01 0.0000000000e+00 0.0000e+00 1.0000e+00
      -13  1    1    2    0    0 +1.2263514057e+02 -6.2842237087e+01 +1.2110109932e+02 1.8345026771e+02 0.0000000000e+00 0.0000e+00 1.0000e+00
       13  1    1    2    0    0 -1.2263514057e+02 +6.2842237087e+01 +7.3337639272e+02 7.4621006282e+02 0.0000000000e+00 0.0000e+00 -1.0000e+00
<mgrwt>
<rscale>  0 0.36624656E+03</rscale>
<asrwt>0</asrwt>
<pdfrwt beam="1">  1        2 0.13724136E+00 0.36624656E+03</pdfrwt>
<pdfrwt beam="2">  1       -2 0.57832959E-02 0.36624656E+03</pdfrwt>
<totfact> 0.51332637E+03</totfact>
</mgrwt>
<rwgt>
<wgt id='morphing_basis_vector_1'> +2.0175554e-04 </wgt>
<wgt id='morphing_basis_vector_2'> +1.0926216e-04 </wgt>
<wgt id='morphing_basis_vector_3'> +1.2407515e-04 </wgt>
<wgt id='morphing_basis_vector_4'> +2.3575002e-05 </wgt>
<wgt id='morphing_basis_vector_5'> +1.6696377e-05 </wgt>
</rwgt>
</event>
<event>
 4      1 +3.1894900e-05 3.70776700e+02 7.81860800e-03 9.74689800e-02
        2 -1    0    0  501    0 +0.0000000000e+00 +0.0000000000e+00 +4.4185757251e+02 4.4185757251e+02 0.0000000000e+00 0.0000e+00 1.0000e+00
       -2 -1    0    0    0  501 -0.0000000000e+00 -0.0000000000e+00 -7.7782623031e+01 7.7782623031e+01 0.0000000000e+00 0.0000e+00 -1.0000e+00
      -13  1    1    2    0    0 -7.3653294055e+01 -6.0325204577e+01 +4.0497985652e+02 4.1601997815e+02 0.0000000000e+00 0.0000e+00 1.0000e+00
       13  1    1    2    0    0 +7.3653294055e+01 +6.0325204577e+01 -4.0904907041e+01 1.0362021739e+02 0.0000000000e+00 0.0000e+00 -1.0000e+00
<mgrwt>
<rscale>  0 0.37077670E+03</rscale>
<asrwt>0</asrwt>
<pdfrwt beam="1">  1        2 0.67978087E-01 0.37077670E+03</pdfrwt>
<pdfrwt beam="2">  1       -2 0.11966558E-01 0.37077670E+03</pdfrwt>
<totfact> 0.38386063E+03</totfact>
</mgrwt>
<rwgt>
<wgt id='morphing_basis_vector_1'> +2.7729310e-04 </wgt>
<wgt id='morphing_basis_vector_2'> +3.2178760e-04 </wgt>
<wgt id='morphing_basis_vector_3'> +5.1628698e-05 </wgt>
<wgt id='morphing_basis_vector_4'> +3.9391251e-05 </wgt>
<wgt id='morphing_basis_vector_5'> +2.3340898e-05 </wgt>
</rwgt>
</event>
<event>
 4      1 +3.1894900e-05 3.78068800e+02 7.81860800e-03 9.72351000e-02
        2 -1    0    0  501    0 +0.0000000000e+00 +0.0000000000e+00 +9.0262951098e+01 9.0262951098e+01 0.0000000000e+00 0.0000e+00 1.0000e+00
       -2 -1    0    0    0  501 -0.0000000000e+00 -0.0000000000e+00 -3.9588783209e+02 3.9588783209e+02 0.0000000000e+00 0.0000e+00 -1.0000e+00
      -13  1    1    2    0    0 -1.7355903649e+02 +5.4329093132e+01 -2.1912709338e+02 2.8476494265e+02 0.0000000000e+00 0.0000e+00 1.0000e+00
       13  1    1    2    0    0 +1.7355903649e+02 -5.4329093132e+01 -8.6497787613e+01 2.0138584054e+02 0.0000000000e+00 0.0000e+00 -1.0000e+00
<mgrwt>
<rscale>  0 0.37806880E+03</rscale>
<asrwt>0</asrwt>
<pdfrwt beam="1">  1        2 0.13886608E-01 0.37806880E+03</pdfrwt>
<pdfrwt beam="2">  1       -2 0.60905821E-01 0.37806880E+03</pdfrwt>
<totfact> 0.14007086E+03</totfact>
</mgrwt>
<rwgt>
<wgt id='morphing_basis_vector_1'> +2.2049403e-04 </wgt>
<wgt id='morphing_basis_vector_2'> +1.2425217e-04 </wgt>
<wgt id='morphing_basis_vector_3'> +1.3393479e-04 </wgt>
<wgt id='morphing_basis_vector_4'> +2.7631902e-05 </wgt>
<wgt id='morphing_basis_vector_5'> +2.2603583e-05 </wgt>
</rwgt>
</event>
<event>
 4      1 +3.1894900e-05 3.78946000e+02 7.81860800e-03 9.72073400e-02
        2 -1    0    0  501    0 +0.0000000000e+00 +0.0000000000e+00 +9.0996706477e+01 9.0996706477e+01 0.0000000000e+00 0.0000e+00 1.0000e+00
       -2 -1    0    0    0  501 -0.0000000000e+00 -0.0000000000e+00 -3.9452002243e+02 3.9452002243e+02 0.0000000000e+00 0.0000e+00 -1.0000e+00
      -13  1    1    2    0    0 +1.0145021728e+02 -4.4626544248e+01 -3.4865598711e+02 3.6584788148e+02 0.0000000000e+00 0.0000e+00 -1.0000e+00
       13  1    1    2    0    0 -1.0145021728e+02 +4.4626544248e+01 +4.5132671161e+01 1.1966884742e+02 0.0000000000e+00 0.0000e+00 1.0000e+00
<mgrwt>
<rscale>  0 0.37894603E+03</rscale>
<asrwt>0</asrwt>
<pdfrwt beam="1">  1        2 0.13999493E-01 0.37894603E+03</pdfrwt>
<pdfrwt beam="2">  1       -2 0.60695388E-01 0.37894603E+03</pdfrwt>
<totfact> 0.13966616E+03</totfact>
</mgrwt>
<rwgt>
<wgt id='morphing_basis_vector_1'> +2.1952886e-04 </wgt>
<wgt id='morphing_basis_vector_2'> +1.1810928e-04 </wgt>
<wgt id='morphing_basis_vector_3'> +1.3728121e-04 </wgt>
<wgt id='morphing_basis_vector_4'> +2.7545359e-05 </wgt>
<wgt id='morphing_basis_vector_5'> +2.2924967e-05 </wgt>
</rwgt>
</event>
<event>
 4      1 +3.1894900e-05 3.67363200e+02 7.81860800e-03 9.75804600e-02
        2 -1    0    0  501    0 +0.0000000000e+00 +0.0000000000e+00 +7.5461274654e+02 7.5461274654e+02 0.0000000000e+00 0.0000e+00 1.0000e+00
       -2 -1    0    0    0  501 -0.0000000000e+00 -0.0000000000e+00 -4.4710246028e+01 4.4710246028e+01 0.0000000000e+00 0.0000e+00 -1.0000e+00
      -13  1    1    2    0    0 +1.2764563809e+02 +9.8691279334e+01 +5.4594905007e+02 5.6929231754e+02 0.0000000000e+00 0.0000e+00 1.0000e+00
       13  1    1    2    0    0 -1.2764563809e+02 -9.8691279334e+01 +1.6395345044e+02 2.3003067503e+02 0.0000000000e+00 0.0000e+00 -1.0000e+00
<mgrwt>
<rscale>  0 0.36736315E+03</rscale>
<asrwt>0</asrwt>
<pdfrwt beam="1">  1        2 0.11609426E+00 0.36736315E+03</pdfrwt>
<pdfrwt beam="2">  1       -2 0.68785000E-02 0.36736315E+03</pdfrwt>
<totfact> 0.48737828E+03</totfact>
</mgrwt>
<rwgt>
<wgt id='morphing_basis_vector_1'> +2.3401813e-04 </wgt>
<wgt id='morphing_basis_vector_2'> +2.0273138e-04 </wgt>
<wgt id='morphing_basis_vector_3'> +9.0449723e-05 </wgt>
<wgt id='morphing_basis_vector_4'> +3.0839374e-05 </wgt>
<wgt id='morphing_basis_vector_5'> +1.9209054e-05 </wgt>
</rwgt>
</event>
<event>
 4      1 +3.1894900e-05 3.94949000e+02 7.81860800e-03 9.67147200e-02
        2 -1    0    0  501    0 +0.0000000000e+00 +0.0000000000e+00 +1.1865039765e+02 1.1865039765e+02 0.0000000000e+00 0.0000e+00 -1.0000e+00
       -2 -1    0    0    0  501 -0.0000000000e+00 -0.0000000000e+00 -3.2866450822e+02 3.2866450822e+02 0.0000000000e+00 0.0000e+00 1.0000e+00
      -13  1    1    2    0    0 +2.0576891879e+01 -5.6518495873e+01 -3.1803747528e+02 3.2367512190e+02 0.0000000000e+00 0.0000e+00 1.0000e+00
       13  1    1    2    0    0 -2.0576891879e+01 +5.6518495873e+01 +1.0802336471e+02 1.2363978396e+02 0.0000000000e+00 0.0000e+00 -1.0000e+00
<mgrwt>
<rscale>  0 0.39494898E+03</rscale>
<asrwt>0</asrwt>
<pdfrwt beam="1">  1        2 0.18253908E-01 0.39494898E+03</pdfrwt>
<pdfrwt beam="2">  1       -2 0.50563770E-01 0.39494898E+03</pdfrwt>
<totfact> 0.14553272E+03</totfact>
</mgrwt>
<rwgt>
<wgt id='morphing_basis_vector_1'> +2.4413828e-04 </wgt>
<wgt id='morphing_basis_vector_2'> +1.3104907e-04 </wgt>
<wgt id='morphing_basis_vector_3'> +1.5562118e-04 </wgt>
<wgt id='morphing_basis_vector_4'> +3.3733498e-05 </wgt>
<wgt id='morphing_basis_vector_5'> +3.2582843e-05 </wgt>
</rwgt>
</event>
<event>
 4      1 +3.1894900e-05 4.07808500e+02 7.81860800e-03 9.63365800e-02
        2 -1    0    0  501    0 +0.0000000000e+00 +0.0000000000e+00 +1.2119411340e+03 1.2119411340e+03 0.0000000000e+00 0.0000e+00 1.0000e+00
       -2 -1    0    0    0  501 -0.0000000000e+00 -0.0000000000e+00 -3.4306080322e+01 3.4306080322e+01 0.0000000000e+00 0.0000e+00 -1.0000e+00
      -13  1    1    2    0    0 +1.2349758597e+02 +1.5752003648e+02 +4.6995930939e+02 5.1080913081e+02 0.0000000000e+00 0.0000e+00 -1.0000e+00
       13  1    1    2    0    0 -1.2349758597e+02 -1.5752003648e+02 +7.0767574432e+02 7.3543808355e+02 0.0000000000e+00 0.0000e+00 1.0000e+00
<mgrwt>
<rscale>  0 0.40780853E+03</rscale>
<asrwt>0</asrwt>
<pdfrwt beam="1">  1        2 0.18645245E+00 0.40780853E+03</pdfrwt>
<pdfrwt beam="2">  1       -2 0.52778594E-02 0.40780853E+03</pdfrwt>
<totfact> 0.38104611E+03</totfact>
</mgrwt>
<rwgt>
<wgt id='morphing_basis_vector_1'> +2.6977457e-04 </wgt>
<wgt id='morphing_basis_vector_2'> +1.5513547e-04 </wgt>
<wgt id='morphing_basis_vector_3'> +1.6829881e-04 </wgt>
<wgt id='morphing_basis_vector_4'> +3.9814846e-05 </wgt>
<wgt id='morphing_basis_vector_5'> +4.2192911e-05 </wgt>
</rwgt>
</event>
<event>
 4      1 +3.1894900e-05 4.10991800e+02 7.81860800e-03 9.62452700e-02
        2 -1    0    0  501    0 +0.0000000000e+00 +0.0000000000e+00 +7.1739551544e+02 7.1739551544e+02 0.0000000000e+00 0.0000e+00 -1.0000e+00
       -2 -1    0    0    0  501 -0.0000000000e+00 -0.0000000000e+00 -5.8863706147e+01 5.8863706147e+01 0.0000000000e+00 0.0000e+00 1.0000e+00
      -13  1    1    2    0    0 -1.2116431590e+01 +1.4354117212e+02 +5.2465093251e+01 1.5330838861e+02 0.0000000000e+00 0.0000e+00 1.0000e+00
       13  1    1    2    0    0 +1.2116431590e+01 -1.4354117212e+02 +6.0606671604e+02 6.2295083297e+02 0.0000000000e+00 0.0000e+00 -1.0000e+00
<mgrwt>
<rscale>  0 0.41099177E+03</rscale>
<asrwt>0</asrwt>
<pdfrwt beam="1">  1        2 0.11036853E+00 0.41099177E+03</pdfrwt>
<pdfrwt beam="2">  1       -2 0.90559553E-02 0.41099177E+03</pdfrwt>
<totfact> 0.34076741E+03</totfact>
</mgrwt>
<rwgt>
<wgt id='morphing_basis_vector_1'> +2.7157031e-04 </wgt>
<wgt id='morphing_basis_vector_2'> +1.4654515e-04 </wgt>
<wgt id='morphing_basis_vector_3'> +1.7601233e-04 </wgt>
<wgt id='morphing_basis_vector_4'> +4.1342982e-05 </wgt>
<wgt id='morphing_basis_vector_5'> +4.4494743e-05 </wgt>
</rwgt>
</event>
<event>
 4      1 +3.1894900e-05 3.61632600e+02 7.81860800e-03 9.77705700e-02
        2 -1    0    0  501    0 +0.0000000000e+00 +0.0000000000e+00 +5.1339779634e+01 5.1339779634e+01 0.0000000000e+00 0.0000e+00 -1.0000e+00
       -2 -1    0    0    0  501 -0.0000000000e+00 -0.0000000000e+00 -6.3682663472e+02 6.3682663472e+02 0.0000000000e+00 0.0000e+00 1.0000e+00
      -13  1    1    2    0    0 +4.6837898477e+00 +1.3295540152e+02 -5.2577018885e+02 5.4234063849e+02 0.0000000000e+00 0.0000e+00 1.0000e+00
       13  1    1    2    0    0 -4.6837898477e+00 -1.3295540152e+02 -5.9716666244e+01 1.4582577587e+02 0.0000000000e+00 0.0000e+00 -1.0000e+00
<mgrwt>
<rscale>  0 0.36163263E+03</rscale>
<asrwt>0</asrwt>
<pdfrwt beam="1">  1        2 0.78984278E-02 0.36163263E+03</pdfrwt>
<pdfrwt beam="2">  1       -2 0.97973327E-01 0.36163263E+03</pdfrwt>
<totfact> 0.10060793E+03</totfact>
</mgrwt>
<rwgt>
<wgt id='morphing_basis_vector_1'> +1.9551616e-04 </wgt>
<wgt id='morphing_basis_vector_2'> +1.0589595e-04 </wgt>
<wgt id='morphing_basis_vector_3'> +1.1972163e-04 </wgt>
<wgt id='morphing_basis_vector_4'> +2.2291875e-05 </wgt>
<wgt id='morphing_basis_vector_5'> +1.4716140e-05 </wgt>
</rwgt>
</event>
<event>
 4      1 +3.1894900e-05 3.80464500e+02 7.81860800e-03 9.71594900e-02
        2 -1    0    0  501    0 +0.0000000000e+00 +0.0000000000e+00 +5.2704508949e+01 5.2704508949e+01 0.0000000000e+00 0.0000e+00 -1.0000e+00
       -2 -1    0    0    0  501 -0.0000000000e+00 -0.0000000000e+00 -6.8662635236e+02 6.8662635236e+02 0.0000000000e+00 0.0000e+00 1.0000e+00
      -13  1    1    2    0    0 +1.4345531255e+02 -7.2657111057e+01 -1.1945908256e+02 2.0032212781e+02 0.0000000000e+00 0.0000e+00 1.0000e+00
       13  1    1    2    0    0 -1.4345531255e+02 +7.2657111057e+01 -5.1446276085e+02 5.3900873350e+02 0.0000000000e+00 0.0000e+00 -1.0000e+00
<mgrwt>
<rscale>  0 0.38046448E+03</rscale>
<asrwt>0</asrwt>
<pdfrwt beam="1">  1        2 0.81083861E-02 0.38046448E+03</pdfrwt>
<pdfrwt beam="2">  1       -2 0.10563482E+00 0.38046448E+03</pdfrwt>
<totfact> 0.81220648E+02</totfact>
</mgrwt>
<rwgt>
<wgt id='morphing_basis_vector_1'> +2.6174682e-04 </wgt>
<wgt id='morphing_basis_vector_2'> +2.4057149e-04 </wgt>
<wgt id='morphing_basis_vector_3'> +9.6706279e-05 </wgt>
<wgt id='morphing_basis_vector_4'> +3.4500849e-05 </wgt>
<wgt id='morphing_basis_vector_5'> +2.6398437e-05 </wgt>
</rwgt>
</event>
<event>
 4      1 +3.1894900e-05 4.25577400e+02 7.81860800e-03 9.58378100e-02
        2 -1    0    0  501    0 +0.0000000000e+00 +0.0000000000e+00 +7.8836067548e+02 7.8836067548e+02 0.0000000000e+00 0.0000e+00 -1.0000e+00
       -2 -1    0    0    0  501 -0.0000000000e+00 -0.0000000000e+00 -5.7434401278e+01 5.7434401278e+01 0.0000000000e+00 0.0000e+00 1.0000e+00
      -13  1    1    2    0    0 +1.1343505674e+02 +1.0911799026e+02 +8.0876737750e+01 1.7696127996e+02 0.0000000000e+00 0.0000e+00 1.0000e+00
       13  1    1    2    0    0 -1.1343505674e+02 -1.0911799026e+02 +6.5004953645e+02 6.6883379680e+02 0.0000000000e+00 0.0000e+00 -1.0000e+00
<mgrwt>
<rscale>  0 0.42557736E+03</rscale>
<asrwt>0</asrwt>
<pdfrwt beam="1">  1        2 0.12128625E+00 0.42557736E+03</pdfrwt>
<pdfrwt beam="2">  1       -2 0.88360623E-02 0.42557736E+03</pdfrwt>
<totfact> 0.31544606E+03</totfact>
</mgrwt>
<rwgt>
<wgt id='morphing_basis_vector_1'> +2.9866436e-04 </wgt>
<wgt id='morphing_basis_vector_2'> +1.6173653e-04 </wgt>
<wgt id='morphing_basis_vector_3'> +1.9684194e-04 </wgt>
<wgt id='morphing_basis_vector_4'> +4.9557026e-05 </wgt>
<wgt id='morphing_basis_vector_5'> +5.7421348e-05 </wgt>
</rwgt>
</event>
<event>
 4      1 +3.1894900e-05 3.81642600e+02 7.81860800e-03 9.71225300e-02
        2 -1    0    0  501    0 +0.0000000000e+00 +0.0000000000e+00 +3.9227918216e+02 3.9227918216e+02 0.0000000000e+00 0.0000e+00 -1.0000e+00
       -2 -1    0    0    0  501 -0.0000000000e+00 -0.0000000000e+00 -9.2823624992e+01 9.2823624992e+01 0.0000000000e+00 0.0000e+00 1.0000e+00
      -13  1    1    2    0    0 +1.1974715658e+02 -1.4294795533e+02 +2.0119171161e+02 2.7432025857e+02 0.0000000000e+00 0.0000e+00 1.0000e+00
       13  1    1    2    0    0 -1.1974715658e+02 +1.4294795533e+02 +9.8263845557e+01 2.1078254858e+02 0.0000000000e+00 0.0000e+00 -1.0000e+00
<mgrwt>
<rscale>  0 0.38164264E+03</rscale>
<asrwt>0</asrwt>
<pdfrwt beam="1">  1        2 0.60350643E-01 0.38164264E+03</pdfrwt>
<pdfrwt beam="2">  1       -2 0.14280558E-01 0.38164264E+03</pdfrwt>
<totfact> 0.33147830E+03</totfact>
</mgrwt>
<rwgt>
<wgt id='morphing_basis_vector_1'> +2.3806681e-04 </wgt>
<wgt id='morphing_basis_vector_2'> +1.6436345e-04 </wgt>
<wgt id='morphing_basis_vector_3'> +1.2494690e-04 </wgt>
<wgt id='morphing_basis_vector_4'> +3.0749018e-05 </wgt>
<wgt id='morphing_basis_vector_5'> +2.5370538e-05 </wgt>
</rwgt>
</event>
<event>
 4      1 +3.1894900e-05 3.81165300e+02 7.81860800e-03 9.71374900e-02
        2 -1    0    0  501    0 +0.0000000000e+00 +0.0000000000e+00 +2.2237424407e+02 2.2237424407e+02 0.0000000000e+00 0.0000e+00 -1.0000e+00
       -2 -1    0    0    0  501 -0.0000000000e+00 -0.0000000000e+00 -1.6333610193e+02 1.6333610193e+02 0.0000000000e+00 0.0000e+00 1.0000e+00
      -13  1    1    2    0    0 -1.6726159769e+02 +5.8257808678e+01 -4.1685651592e+01 1.8195633510e+02 0.0000000000e+00 0.0000e+00 1.0000e+00
       13  1    1    2    0    0 +1.6726159769e+02 -5.8257808678e+01 +1.0072379373e+02 2.0375401090e+02 0.0000000000e+00 0.0000e+00 -1.0000e+00
<mgrwt>
<rscale>  0 0.38116528E+03</rscale>
<asrwt>0</asrwt>
<pdfrwt beam="1">  1        2 0.34211422E-01 0.38116528E+03</pdfrwt>
<pdfrwt beam="2">  1       -2 0.25128631E-01 0.38116528E+03</pdfrwt>
<totfact> 0.24733632E+03</totfact>
</mgrwt>
<rwgt>
<wgt id='morphing_basis_vector_1'> +2.2430203e-04 </wgt>
<wgt id='morphing_basis_vector_2'> +1.2436669e-04 </wgt>
<wgt id='morphing_basis_vector_3'> +1.3811773e-04 </wgt>
<wgt id='morphing_basis_vector_4'> +2.8560572e-05 </wgt>
<wgt id='morphing_basis_vector_5'> +2.4239956e-05 </wgt>
</rwgt>
</event>
<event>
 4      1 +3.1894900e-05 3.82603600e+02 7.81860800e-03 9.70924800e-02
        2 -1    0    0  501    0 +0.0000000000e+00 +0.0000000000e+00 +3.7748455104e+02 3.7748455104e+02 0.0000000000e+00 0.0000e+00 -1.0000e+00
       -2 -1    0    0    0  501 -0.0000000000e+00 -0.0000000000e+00 -9.6948036486e+01 9.6948036486e+01 0.0000000000e+00 0.0000e+00 1.0000e+00
      -13  1    1    2    0    0 -1.2877936120e+02 -2.5923699377e+01 -3.2178950110e+01 1.3524661508e+02 0.0000000000e+00 0.0000e+00 1.0000e+00
       13  1    1    2    0    0 +1.2877936120e+02 +2.5923699377e+01 +3.1271546467e+02 3.3918597244e+02 0.0000000000e+00 0.0000e+00 -1.0000e+00
<mgrwt>
<rscale>  0 0.38260364E+03</rscale>
<asrwt>0</asrwt>
<pdfrwt beam="1">  1        2 0.58074546E-01 0.38260364E+03</pdfrwt>
<pdfrwt beam="2">  1       -2 0.14915083E-01 0.38260364E+03</pdfrwt>
<totfact> 0.32281192E+03</totfact>
</mgrwt>
<rwgt>
<wgt id='morphing_basis_vector_1'> +2.2507574e-04 </wgt>
<wgt id='morphing_basis_vector_2'> +1.2132585e-04 </wgt>
<wgt id='morphing_basis_vector_3'> +1.4114811e-04 </wgt>
<wgt id='morphing_basis_vector_4'> +2.8862459e-05 </wgt>
<wgt id='morphing_basis_vector_5'> +2.4957854e-05 </wgt>
</rwgt>
</event>
<event>
 4      1 +3.1894900e-05 3.60114000e+02 7.81860800e-03 9.78215900e-02
        2 -1    0    0  501    0 +0.0000000000e+00 +0.0000000000e+00 +5.2088210688e+02 5.2088210688e+02 0.0000000000e+00 0.0000e+00 -1.0000e+00
       -2 -1    0    0    0  501 -0.0000000000e+00 -0.0000000000e+00 -6.2241563837e+01 6.2241563837e+01 0.0000000000e+00 0.0000e+00 1.0000e+00
      -13  1    1    2    0    0 +1.0976930575e+02 -4.2841894380e+01 +8.8620798595e+00 1.1816625939e+02 0.0000000000e+00 0.0000e+00 1.0000e+00
       13  1    1    2    0    0 -1.0976930575e+02 +4.2841894380e+01 +4.4977846318e+02 4.6495741132e+02 0.0000000000e+00 0.0000e+00 -1.0000e+00
<mgrwt>
<rscale>  0 0.36011396E+03</rscale>
<asrwt>0</asrwt>
<pdfrwt beam="1">  1        2 0.80135706E-01 0.36011396E+03</pdfrwt>
<pdfrwt beam="2">  1       -2 0.95756255E-02 0.36011396E+03</pdfrwt>
<totfact> 0.45168807E+03</totfact>
</mgrwt>
<rwgt>
<wgt id='morphing_basis_vector_1'> +1.9339906e-04 </wgt>
<wgt id='morphing_basis_vector_2'> +1.0450642e-04 </wgt>
<wgt id='morphing_basis_vector_3'> +1.1844335e-04 </wgt>
<wgt id='morphing_basis_vector_4'> +2.1862979e-05 </wgt>
<wgt id='morphing_basis_vector_5'> +1.4090265e-05 </wgt>
</rwgt>
</event>
<event>
 4      1 +3.1894900e-05 3.94296800e+02 7.81860800e-03 9.67343000e-02
        2 -1    0    0  501    0 +0.0000000000e+00 +0.0000000000e+00 +9.7981231594e+02 9.7981231594e+02 0.0000000000e+00 0.0000e+00 -1.0000e+00
       -2 -1    0    0    0  501 -0.0000000000e+00 -0.0000000000e+00 -3.9668304006e+01 3.9668304006e+01 0.0000000000e+00 0.0000e+00 1.0000e+00
      -13  1    1    2    0    0 -1.6930197942e+02 +6.4730263231e+01 +2.6955593630e+02 3.2482852400e+02 0.0000000000e+00 0.0000e+00 1.0000e+00
       13  1    1    2    0    0 +1.6930197942e+02 -6.4730263231e+01 +6.7058807564e+02 6.9465209594e+02 0.0000000000e+00 0.0000e+00 -1.0000e+00
<mgrwt>
<rscale>  0 0.39429681E+03</rscale>
<asrwt>0</asrwt>
<pdfrwt beam="1">  1        2 0.15074034E+00 0.39429681E+03</pdfrwt>
<pdfrwt beam="2">  1       -2 0.61028167E-02 0.39429681E+03</pdfrwt>
<totfact> 0.41784544E+03</totfact>
</mgrwt>
<rwgt>
<wgt id='morphing_basis_vector_1'> +2.4462970e-04 </wgt>
<wgt id='morphing_basis_vector_2'> +1.3519214e-04 </wgt>
<wgt id='morphing_basis_vector_3'> +1.5332373e-04 </wgt>
<wgt id='morphing_basis_vector_4'> +3.3596314e-05 </wgt>
<wgt id='morphing_basis_vector_5'> +3.2249018e-05 </wgt>
</rwgt>
</event>
<event>
 4      1 +3.1894900e-05 3.65568600e+02 7.81860800e-03 9.76395900e-02
        2 -1    0    0  501    0 +0.0000000000e+00 +0.0000000000e+00 +5.8038400752e+02 5.8038400752e+02 0.0000000000e+00 0.0000e+00 -1.0000e+00
       -2 -1    0    0    0  501 -0.0000000000e+00 -0.0000000000e+00 -5.7565502726e+01 5.7565502726e+01 0.0000000000e+00 0.0000e+00 1.0000e+00
      -13  1    1    2    0    0 +3.8822171139e+01 -1.1430951547e+02 +2.1904074535e+01 1.2269317332e+02 0.0000000000e+00 0.0000e+00 1.0000e+00
       13  1    1    2    0    0 -3.8822171139e+01 +1.1430951547e+02 +5.0091443026e+02 5.1525633692e+02 0.0000000000e+00 0.0000e+00 -1.0000e+00
<mgrwt>
<rscale>  0 0.36556858E+03</rscale>
<asrwt>0</asrwt>
<pdfrwt beam="1">  1        2 0.89289844E-01 0.36556858E+03</pdfrwt>
<pdfrwt beam="2">  1       -2 0.88562316E-02 0.36556858E+03</pdfrwt>
<totfact> 0.45098551E+03</totfact>
</mgrwt>
<rwgt>
<wgt id='morphing_basis_vector_1'> +2.0068550e-04 </wgt>
<wgt id='morphing_basis_vector_2'> +1.0833243e-04 </wgt>
<wgt id='morphing_basis_vector_3'> +1.2358708e-04 </wgt>
<wgt id='morphing_basis_vector_4'> +2.3347265e-05 </wgt>
<wgt id='morphing_basis_vector_5'> +1.6386701e-05 </wgt>
</rwgt>
</event>
<event>
 4      1 +3.1894900e-05 4.02547600e+02 7.81860800e-03 9.64894600e-02
        2 -1    0    0  501    0 +0.0000000000e+00 +0.0000000000e+00 +7.2558443393e+01 7.2558443393e+01 0.0000000000e+00 0.0000e+00 1.0000e+00
       -2 -1    0    0    0  501 -0.0000000000e+00 -0.0000000000e+00 -5.5832426199e+02 5.5832426199e+02 0.0000000000e+00 0.0000e+00 -1.0000e+00
      -13  1    1    2    0    0 +1.4674624814e+02 -6.9403228044e+01 -5.6390555709e+01 1.7184633886e+02 0.0000000000e+00 0.0000e+00 -1.0000e+00
       13  1    1    2    0    0 -1.4674624814e+02 +6.9403228044e+01 -4.2937526288e+02 4.5903636652e+02 0.0000000000e+00 0.0000e+00 1.0000e+00
<mgrwt>
<rscale>  0 0.40254758E+03</rscale>
<asrwt>0</asrwt>
<pdfrwt beam="1">  1        2 0.11162837E-01 0.40254758E+03</pdfrwt>
<pdfrwt beam="2">  1       -2 0.85896042E-01 0.40254758E+03</pdfrwt>
<totfact> 0.87872111E+02</totfact>
</mgrwt>
<rwgt>
<wgt id='morphing_basis_vector_1'> +3.1101079e-04 </wgt>
<wgt id='morphing_basis_vector_2'> +3.0395170e-04 </wgt>
<wgt id='morphing_basis_vector_3'> +1.1450018e-04 </wgt>
<wgt id='morphing_basis_vector_4'> +3.9917415e-05 </wgt>
<wgt id='morphing_basis_vector_5'> +4.1460793e-05 </wgt>
</rwgt>
</event>
<event>
 4      1 +3.1894900e-05 3.75986900e+02 7.81860800e-03 9.73012900e-02
        2 -1    0    0  501    0 +0.0000000000e+00 +0.0000000000e+00 +2.5319711716e+02 2.5319711716e+02 0.0000000000e+00 0.0000e+00 1.0000e+00
       -2 -1    0    0    0  501 -0.0000000000e+00 -0.0000000000e+00 -1.3958109546e+02 1.3958109546e+02 0.0000000000e+00 0.0000e+00 -1.0000e+00
      -13  1    1    2    0    0 +5.1912483179e+01 -1.1545932595e+02 -8.8379987273e+01 1.5439165783e+02 0.0000000000e+00 0.0000e+00 -1.0000e+00
       13  1    1    2    0    0 -5.1912483179e+01 +1.1545932595e+02 +2.0199600897e+02 2.3838655478e+02 0.0000000000e+00 0.0000e+00 1.0000e+00
<mgrwt>
<rscale>  0 0.37598687E+03</rscale>
<asrwt>0</asrwt>
<pdfrwt beam="1">  1        2 0.38953403E-01 0.37598687E+03</pdfrwt>
<pdfrwt beam="2">  1       -2 0.21474015E-01 0.37598687E+03</pdfrwt>
<totfact> 0.27793751E+03</totfact>
</mgrwt>
<rwgt>
<wgt id='morphing_basis_vector_1'> +2.1529803e-04 </wgt>
<wgt id='morphing_basis_vector_2'> +1.1607711e-04 </wgt>
<wgt id='morphing_basis_vector_3'> +1.3405292e-04 </wgt>
<wgt id='morphing_basis_vector_4'> +2.6556048e-05 </wgt>
<wgt id='morphing_basis_vector_5'> +2.1367719e-05 </wgt>
</rwgt>
</event>
<event>
 4      1 +3.1894900e-05 4.15985900e+02 7.81860800e-03 9.61037600e-02
        2 -1    0    0  501    0 +0.0000000000e+00 +0.0000000000e+00 +1.6891200758e+02 1.6891200758e+02 0.0000000000e+00 0.0000e+00 -1.0000e+00
       -2 -1    0    0    0  501 -0.0000000000e+00 -0.0000000000e+00 -2.5611598272e+02 2.5611598272e+02 0.0000000000e+00 0.0000e+00 1.0000e+00
      -13  1    1    2    0    0 -4.8391999947e+01 -1.3557294676e+02 -1.9699610836e+02 2.4398622145e+02 0.0000000000e+00 0.0000e+00 1.0000e+00
       13  1    1    2    0    0 +4.8391999947e+01 +1.3557294676e+02 +1.0979213322e+02 1.8104176885e+02 0.0000000000e+00 0.0000e+00 -1.0000e+00
<mgrwt>
<rscale>  0 0.41598589E+03</rscale>
<asrwt>0</asrwt>
<pdfrwt beam="1">  1        2 0.25986463E-01 0.41598589E+03</pdfrwt>
<pdfrwt beam="2">  1       -2 0.39402459E-01 0.41598589E+03</pdfrwt>
<totfact> 0.15381163E+03</totfact>
</mgrwt>
<rwgt>
<wgt id='morphing_basis_vector_1'> +2.8054344e-04 </wgt>
<wgt id='morphing_basis_vector_2'> +1.5142173e-04 </wgt>
<wgt id='morphing_basis_vector_3'> +1.8294853e-04 </wgt>
<wgt id='morphing_basis_vector_4'> +4.4010665e-05 </wgt>
<wgt id='morphing_basis_vector_5'> +4.8682680e-05 </wgt>
</rwgt>
</event>
<event>
 4      1 +3.1894900e-05 3.78466700e+02 7.81860800e-03 9.72225000e-02
        2 -1    0    0  501    0 +0.0000000000e+00 +0.0000000000e+00 +1.1589403769e+02 1.1589403769e+02 0.0000000000e+00 0.0000e+00 1.0000e+00
       -2 -1    0    0    0  501 -0.0000000000e+00 -0.0000000000e+00 -3.0898279588e+02 3.0898279588e+02 0.0000000000e+00 0.0000e+00 -1.0000e+00
      -13  1    1    2    0    0 +2.8801072467e+00 -7.0153475128e+01 -2.9381853752e+02 3.0209127442e+02 0.0000000000e+00 0.0000e+00 -1.0000e+00
       13  1    1    2    0    0 -2.8801072467e+00 +7.0153475128e+01 +1.0072977933e+02 1.2278555914e+02 0.0000000000e+00 0.0000e+00 1.0000e+00
<mgrwt>
<rscale>  0 0.37846672E+03</rscale>
<asrwt>0</asrwt>
<pdfrwt beam="1">  1        2 0.17829852E-01 0.37846672E+03</pdfrwt>
<pdfrwt beam="2">  1       -2 0.47535814E-01 0.37846672E+03</pdfrwt>
<totfact> 0.16844465E+03</totfact>
</mgrwt>
<rwgt>
<wgt id='morphing_basis_vector_1'> +2.1875459e-04 </wgt>
<wgt id='morphing_basis_vector_2'> +1.1752304e-04 </wgt>
<wgt id='morphing_basis_vector_3'> +1.3684300e-04 </wgt>
<wgt id='morphing_basis_vector_4'> +2.7367768e-05 </wgt>
<wgt id='morphing_basis_vector_5'> +2.2662609e-05 </wgt>
</rwgt>
</event>
<event>
 4      1 +3.1894900e-05 3.67053500e+02 7.81860800e-03 9.75906400e-02
        2 -1    0    0  501    0 +0.0000000000e+00 +0.0000000000e+00 +3.4772894195e+02 3.4772894195e+02 0.0000000000e+00 0.0000e+00 1.0000e+00
       -2 -1    0    0    0  501 -0.0000000000e+00 -0.0000000000e+00 -9.6863007671e+01 9.6863007671e+01 0.0000000000e+00 0.0000e+00 -1.0000e+00
      -13  1    1    2    0    0 +1.5557137135e+02 +8.4403313898e+01 +6.6644489666e+01 1.8912392494e+02 0.0000000000e+00 0.0000e+00 -1.0000e+00
       13  1    1    2    0    0 -1.5557137135e+02 -8.4403313898e+01 +1.8422144462e+02 2.5546802469e+02 0.0000000000e+00 0.0000e+00 1.0000e+00
<mgrwt>
<rscale>  0 0.36705352E+03</rscale>
<asrwt>0</asrwt>
<pdfrwt beam="1">  1        2 0.53496760E-01 0.36705352E+03</pdfrwt>
<pdfrwt beam="2">  1       -2 0.14902001E-01 0.36705352E+03</pdfrwt>
<totfact> 0.35367101E+03</totfact>
</mgrwt>
<rwgt>
<wgt id='morphing_basis_vector_1'> +2.0479416e-04 </wgt>
<wgt id='morphing_basis_vector_2'> +1.1567784e-04 </wgt>
<wgt id='morphing_basis_vector_3'> +1.2267124e-04 </wgt>
<wgt id='morphing_basis_vector_4'> +2.4247684e-05 </wgt>
<wgt id='morphing_basis_vector_5'> +1.7184395e-05 </wgt>
</rwgt>
</event>
<event>
 4      1 +3.1894900e-05 3.63677300e+02 7.81860800e-03 9.77023100e-02
        2 -1    0    0  501    0 +0.0000000000e+00 +0.0000000000e+00 +1.0549115719e+02 1.0549115719e+02 0.0000000000e+00 0.0000e+00 -1.0000e+00
       -2 -1    0    0    0  501 -0.0000000000e+00 -0.0000000000e+00 -3.1344138263e+02 3.1344138263e+02 0.0000000000e+00 0.0000e+00 1.0000e+00
      -13  1    1    2    0    0 -5.1456508337e+01 +1.2539432652e+01 -3.0435974290e+02 3.0893342765e+02 0.0000000000e+00 0.0000e+00 1.0000e+00
       13  1    1    2    0    0 +5.1456508337e+01 -1.2539432652e+01 +9.6409517457e+01 1.0999911217e+02 0.0000000000e+00 0.0000e+00 -1.0000e+00
<mgrwt>
<rscale>  0 0.36367730E+03</rscale>
<asrwt>0</asrwt>
<pdfrwt beam="1">  1        2 0.16229409E-01 0.36367730E+03</pdfrwt>
<pdfrwt beam="2">  1       -2 0.48221751E-01 0.36367730E+03</pdfrwt>
<totfact> 0.18338880E+03</totfact>
</mgrwt>
<rwgt>
<wgt id='morphing_basis_vector_1'> +1.9800344e-04 </wgt>
<wgt id='morphing_basis_vector_2'> +1.0660379e-04 </wgt>
<wgt id='morphing_basis_vector_3'> +1.2192502e-04 </wgt>
<wgt id='morphing_basis_vector_4'> +2.2786592e-05 </wgt>
<wgt id='morphing_basis_vector_5'> +1.5558574e-05 </wgt>
</rwgt>
</event>
<event>
 4      1 +3.1894900e-05 3.73196400e+02 7.81860800e-03 9.73907400e-02
        2 -1    0    0  501    0 +0.0000000000e+00 +0.0000000000e+00 +3.8682056437e+02 3.8682056437e+02 0.0000000000e+00 0.0000e+00 1.0000e+00
       -2 -1    0    0    0  501 -0.0000000000e+00 -0.0000000000e+00 -9.0013039356e+01 9.0013039356e+01 0.0000000000e+00 0.0000e+00 -1.0000e+00
      -13  1    1    2    0    0 +3.3391127778e+01 -9.7394427214e+01 -5.0434872021e+01 1.1464867283e+02 0.0000000000e+00 0.0000e+00 -1.0000e+00
       13  1    1    2    0    0 -3.3391127778e+01 +9.7394427214e+01 +3.4724239704e+02 3.6218493089e+02 0.0000000000e+00 0.0000e+00 1.0000e+00
<mgrwt>
<rscale>  0 0.37319643E+03</rscale>
<asrwt>0</asrwt>
<pdfrwt beam="1">  1        2 0.59510855E-01 0.37319643E+03</pdfrwt>
<pdfrwt beam="2">  1       -2 0.13848160E-01 0.37319643E+03</pdfrwt>
<totfact> 0.35332369E+03</totfact>
</mgrwt>
<rwgt>
<wgt id='morphing_basis_vector_1'> +2.1119639e-04 </wgt>
<wgt id='morphing_basis_vector_2'> +1.1365339e-04 </wgt>
<wgt id='morphing_basis_vector_3'> +1.3127110e-04 </wgt>
<wgt id='morphing_basis_vector_4'> +2.5628106e-05 </wgt>
<wgt id='morphing_basis_vector_5'> +1.9948415e-05 </wgt>
</rwgt>
</event>
<event>
 4      1 +3.1894900e-05 4.29163500e+02 7.81860800e-03 9.57402800e-02
        2 -1    0    0  501    0 +0.0000000000e+00 +0.0000000000e+00 +6.7604847779e+02 6.7604847779e+02 0.0000000000e+00 0.0000e+00 -1.0000e+00
       -2 -1    0    0    0  501 -0.0000000000e+00 -0.0000000000e+00 -6.8109489958e+01 6.8109489958e+01 0.0000000000e+00 0.0000e+00 1.0000e+00
      -13  1    1    2    0    0 -4.9953752534e+01 -9.7725754171e+01 -1.5757582568e+01 1.1087831992e+02 0.0000000000e+00 0.0000e+00 1.0000e+00
       13  1    1    2    0    0 +4.9953752534e+01 +9.7725754171e+01 +6.2369657040e+02 6.3327964782e+02 0.0000000000e+00 0.0000e+00 -1.0000e+00
<mgrwt>
<rscale>  0 0.42916345E+03</rscale>
<asrwt>0</asrwt>
<pdfrwt beam="1">  1        2 0.10400745E+00 0.42916345E+03</pdfrwt>
<pdfrwt beam="2">  1       -2 0.10478384E-01 0.42916345E+03</pdfrwt>
<totfact> 0.29183005E+03</totfact>
</mgrwt>
<rwgt>
<wgt id='morphing_basis_vector_1'> +3.0530132e-04 </wgt>
<wgt id='morphing_basis_vector_2'> +1.6455071e-04 </wgt>
<wgt id='morphing_basis_vector_3'> +2.0258960e-04 </wgt>
<wgt id='morphing_basis_vector_4'> +5.1808989e-05 </wgt>
<wgt id='morphing_basis_vector_5'> +6.0904334e-05 </wgt>
</rwgt>
</event>
<event>
 4      1 +3.1894900e-05 3.96671100e+02 7.81860800e-03 9.66632000e-02
        2 -1    0    0  501    0 +0.0000000000e+00 +0.0000000000e+00 +7.4546401570e+02 7.4546401570e+02 0.0000000000e+00 0.0000e+00 1.0000e+00
       -2 -1    0    0    0  501 -0.0000000000e+00 -0.0000000000e+00 -5.2768472008e+01 5.2768472008e+01 0.0000000000e+00 0.0000e+00 -1.0000e+00
      -13  1    1    2    0    0 +1.8173909376e+02 +3.8573689966e+01 +2.0663988053e+02 2.7787959260e+02 0.0000000000e+00 0.0000e+00 -1.0000e+00
       13  1    1    2    0    0 -1.8173909376e+02 -3.8573689966e+01 +4.8605566316e+02 5.2035289510e+02 0.0000000000e+00 0.0000e+00 1.0000e+00
<mgrwt>
<rscale>  0 0.39667113E+03</rscale>
<asrwt>0</asrwt>
<pdfrwt beam="1">  1        2 0.11468676E+00 0.39667113E+03</pdfrwt>
<pdfrwt beam="2">  1       -2 0.81182270E-02 0.39667113E+03</pdfrwt>
<totfact> 0.38466168E+03</totfact>
</mgrwt>
<rwgt>
<wgt id='morphing_basis_vector_1'> +2.4885031e-04 </wgt>
<wgt id='morphing_basis_vector_2'> +1.3839769e-04 </wgt>
<wgt id='morphing_basis_vector_3'> +1.5587382e-04 </wgt>
<wgt id='morphing_basis_vector_4'> +3.4634140e-05 </wgt>
<wgt id='morphing_basis_vector_5'> +3.3875603e-05 </wgt>
</rwgt>
</event>
<event>
 4      1 +3.1894900e-05 4.05152000e+02 7.81860800e-03 9.64134700e-02
        2 -1    0    0  501    0 +0.0000000000e+00 +0.0000000000e+00 +4.6831767533e+02 4.6831767533e+02 0.0000000000e+00 0.0000e+00 -1.0000e+00
       -2 -1    0    0    0  501 -0.0000000000e+00 -0.0000000000e+00 -8.7626486017e+01 8.7626486017e+01 0.0000000000e+00 0.0000e+00 1.0000e+00
      -13  1    1    2    0    0 -1.8544550609e+02 -7.7337095597e+00 +7.8976887955e+01 2.0171067107e+02 0.0000000000e+00 0.0000e+00 1.0000e+00
       13  1    1    2    0    0 +1.8544550609e+02 +7.7337095597e+00 +3.0171430136e+02 3.5423349028e+02 0.0000000000e+00 0.0000e+00 -1.0000e+00
<mgrwt>
<rscale>  0 0.40515198E+03</rscale>
<asrwt>0</asrwt>
<pdfrwt beam="1">  1        2 0.72048872E-01 0.40515198E+03</pdfrwt>
<pdfrwt beam="2">  1       -2 0.13480998E-01 0.40515198E+03</pdfrwt>
<totfact> 0.29876057E+03</totfact>
</mgrwt>
<rwgt>
<wgt id='morphing_basis_vector_1'> +2.6274463e-04 </wgt>
<wgt id='morphing_basis_vector_2'> +1.4516667e-04 </wgt>
<wgt id='morphing_basis_vector_3'> +1.6697329e-04 </wgt>
<wgt id='morphing_basis_vector_4'> +3.8463129e-05 </wgt>
<wgt id='morphing_basis_vector_5'> +3.9983136e-05 </wgt>
</rwgt>
</event>
<event>
 4      1 +3.1894900e-05 4.01809800e+02 7.81860800e-03 9.65111000e-02
        2 -1    0    0  501    0 +0.0000000000e+00 +0.0000000000e+00 +1.1792673256e+02 1.1792673256e+02 0.0000000000e+00 0.0000e+00 -1.0000e+00
       -2 -1    0    0    0  501 -0.0000000000e+00 -0.0000000000e+00 -3.4226994453e+02 3.4226994453e+02 0.0000000000e+00 0.0000e+00 1.0000e+00
      -13  1    1    2    0    0 +1.9159973142e+02 -5.9785235720e+01 -1.0205360474e+02 2.2516587160e+02 0.0000000000e+00 0.0000e+00 1.0000e+00
       13  1    1    2    0    0 -1.9159973142e+02 +5.9785235720e+01 -1.2228960723e+02 2.3503080549e+02 0.0000000000e+00 0.0000e+00 -1.0000e+00
<mgrwt>
<rscale>  0 0.40180979E+03</rscale>
<asrwt>0</asrwt>
<pdfrwt beam="1">  1        2 0.18142575E-01 0.40180979E+03</pdfrwt>
<pdfrwt beam="2">  1       -2 0.52656913E-01 0.40180979E+03</pdfrwt>
<totfact> 0.13549357E+03</totfact>
</mgrwt>
<rwgt>
<wgt id='morphing_basis_vector_1'> +2.6484721e-04 </wgt>
<wgt id='morphing_basis_vector_2'> +1.6587666e-04 </wgt>
<wgt id='morphing_basis_vector_3'> +1.5535538e-04 </wgt>
<wgt id='morphing_basis_vector_4'> +3.7320591e-05 </wgt>
<wgt id='morphing_basis_vector_5'> +3.7998565e-05 </wgt>
</rwgt>
</event>
<event>
 4      1 +3.1894900e-05 3.76138300e+02 7.81860800e-03 9.72964600e-02
        2 -1    0    0  501    0 +0.0000000000e+00 +0.0000000000e+00 +2.8956874034e+02 2.8956874034e+02 0.0000000000e+00 0.0000e+00 -1.0000e+00
       -2 -1    0    0    0  501 -0.0000000000e+00 -0.0000000000e+00 -1.2214719118e+02 1.2214719118e+02 0.0000000000e+00 0.0000e+00 1.0000e+00
      -13  1    1    2    0    0 -6.6869535090e+01 -1.0764801884e+02 -6.8394921954e+01 1.4400519446e+02 0.0000000000e+00 0.0000e+00 1.0000e+00
       13  1    1    2    0    0 +6.6869535090e+01 +1.0764801884e+02 +2.3581647112e+02 2.6771073705e+02 0.0000000000e+00 0.0000e+00 -1.0000e+00
<mgrwt>
<rscale>  0 0.37613832E+03</rscale>
<asrwt>0</asrwt>
<pdfrwt beam="1">  1        2 0.44549037E-01 0.37613832E+03</pdfrwt>
<pdfrwt beam="2">  1       -2 0.18791876E-01 0.37613832E+03</pdfrwt>
<totfact> 0.29806757E+03</totfact>
</mgrwt>
<rwgt>
<wgt id='morphing_basis_vector_1'> +2.1551766e-04 </wgt>
<wgt id='morphing_basis_vector_2'> +1.1619501e-04 </wgt>
<wgt id='morphing_basis_vector_3'> +1.3421111e-04 </wgt>
<wgt id='morphing_basis_vector_4'> +2.6606498e-05 </wgt>
<wgt id='morphing_basis_vector_5'> +2.1446116e-05 </wgt>
</rwgt>
</event>
<event>
 4      1 +3.1894900e-05 3.88344900e+02 7.81860800e-03 9.69149300e-02
        2 -1    0    0  501    0 +0.0000000000e+00 +0.0000000000e+00 +5.4437845445e+02 5.4437845445e+02 0.0000000000e+00 0.0000e+00 -1.0000e+00
       -2 -1    0    0    0  501 -0.0000000000e+00 -0.0000000000e+00 -6.9258703094e+01 6.9258703094e+01 0.0000000000e+00 0.0000e+00 1.0000e+00
      -13  1    1    2    0    0 +1.2302617586e+02 -7.4518037696e+01 +3.1447307860e+01 1.4723216721e+02 0.0000000000e+00 0.0000e+00 1.0000e+00
       13  1    1    2    0    0 -1.2302617586e+02 +7.4518037696e+01 +4.4367244350e+02 4.6640499034e+02 0.0000000000e+00 0.0000e+00 -1.0000e+00
<mgrwt>
<rscale>  0 0.38834493E+03</rscale>
<asrwt>0</asrwt>
<pdfrwt beam="1">  1        2 0.83750529E-01 0.38834493E+03</pdfrwt>
<pdfrwt beam="2">  1       -2 0.10655185E-01 0.38834493E+03</pdfrwt>
<totfact> 0.36474383E+03</totfact>
</mgrwt>
<rwgt>
<wgt id='morphing_basis_vector_1'> +2.3396840e-04 </wgt>
<wgt id='morphing_basis_vector_2'> +1.2635457e-04 </wgt>
<wgt id='morphing_basis_vector_3'> +1.4751287e-04 </wgt>
<wgt id='morphing_basis_vector_4'> +3.1050778e-05 </wgt>
<wgt id='morphing_basis_vector_5'> +2.8360613e-05 </wgt>
</rwgt>
</event>
<event>
 4      1 +3.1894900e-05 4.28428300e+02 7.81860800e-03 9.57601900e-02
        2 -1    0    0  501    0 +0.0000000000e+00 +0.0000000000e+00 +1.2885106950e+02 1.2885106950e+02 0.0000000000e+00 0.0000e+00 -1.0000e+00
       -2 -1    0    0    0  501 -0.0000000000e+00 -0.0000000000e+00 -3.5612969134e+02 3.5612969134e+02 0.0000000000e+00 0.0000e+00 1.0000e+00
      -13  1    1    2    0    0 -7.0992254981e+01 -1.1425182972e+02 +7.5083485766e+01 1.5404840374e+02 0.0000000000e+00 0.0000e+00 1.0000e+00
       13  1    1    2    0    0 +7.0992254981e+01 +1.1425182972e+02 -3.0236210760e+02 3.3093235710e+02 0.0000000000e+00 0.0000e+00 -1.0000e+00
<mgrwt>
<rscale>  0 0.42842825E+03</rscale>
<asrwt>0</asrwt>
<pdfrwt beam="1">  1        2 0.19823241E-01 0.42842825E+03</pdfrwt>
<pdfrwt beam="2">  1       -2 0.54789183E-01 0.42842825E+03</pdfrwt>
<totfact> 0.11279534E+03</totfact>
</mgrwt>
<rwgt>
<wgt id='morphing_basis_vector_1'> +3.9732757e-04 </wgt>
<wgt id='morphing_basis_vector_2'> +4.5156723e-04 </wgt>
<wgt id='morphing_basis_vector_3'> +1.2792780e-04 </wgt>
<wgt id='morphing_basis_vector_4'> +4.4270555e-05 </wgt>
<wgt id='morphing_basis_vector_5'> +6.5861701e-05 </wgt>
</rwgt>
</event>
<event>
 4      1 +3.1894900e-05 4.03773300e+02 7.81860800e-03 9.64536200e-02
        2 -1    0    0  501    0 +0.0000000000e+00 +0.0000000000e+00 +1.4341088867e+02 1.4341088867e+02 0.0000000000e+00 0.0000e+00 -1.0000e+00
       -2 -1    0    0    0  501 -0.0000000000e+00 -0.0000000000e+00 -2.8420582926e+02 2.8420582926e+02 0.0000000000e+00 0.0000e+00 1.0000e+00
      -13  1    1    2    0    0 -7.3952349152e+01 +5.6613619456e+01 -2.6009534002e+02 2.7626733023e+02 0.0000000000e+00 0.0000e+00 1.0000e+00
       13  1    1    2    0    0 +7.3952349152e+01 -5.6613619456e+01 +1.1930039943e+02 1.5134938770e+02 0.0000000000e+00 0.0000e+00 -1.0000e+00
<mgrwt>
<rscale>  0 0.40377326E+03</rscale>
<asrwt>0</asrwt>
<pdfrwt beam="1">  1        2 0.22063214E-01 0.40377326E+03</pdfrwt>
<pdfrwt beam="2">  1       -2 0.43723974E-01 0.40377326E+03</pdfrwt>
<totfact> 0.15340803E+03</totfact>
</mgrwt>
<rwgt>
<wgt id='morphing_basis_vector_1'> +2.5880065e-04 </wgt>
<wgt id='morphing_basis_vector_2'> +1.3902639e-04 </wgt>
<wgt id='morphing_basis_vector_3'> +1.6663907e-04 </wgt>
<wgt id='morphing_basis_vector_4'> +3.7737952e-05 </wgt>
<wgt id='morphing_basis_vector_5'> +3.8840125e-05 </wgt>
</rwgt>
</event>
<event>
 4      1 +3.1894900e-05 3.73036400e+02 7.81860800e-03 9.73958900e-02
        2 -1    0    0  501    0 +0.0000000000e+00 +0.0000000000e+00 +1.7864444979e+03 1.7864444979e+03 0.0000000000e+00 0.0000e+00 -1.0000e+00
       -2 -1    0    0    0  501 -0.0000000000e+00 -0.0000000000e+00 -1.9473900510e+01 1.9473900510e+01 0.0000000000e+00 0.0000e+00 1.0000e+00
      -13  1    1    2    0    0 -1.0950793031e+02 -1.4658712827e+02 +7.0831462277e+02 7.3156638646e+02 0.0000000000e+00 0.0000e+00 1.0000e+00
       13  1    1    2    0    0 +1.0950793031e+02 +1.4658712827e+02 +1.0586559746e+03 1.0743520120e+03 0.0000000000e+00 0.0000e+00 -1.0000e+00
<mgrwt>
<rscale>  0 0.37303642E+03</rscale>
<asrwt>0</asrwt>
<pdfrwt beam="1">  1        2 0.27483749E+00 0.37303642E+03</pdfrwt>
<pdfrwt beam="2">  1       -2 0.29959861E-02 0.37303642E+03</pdfrwt>
<totfact> 0.43259716E+03</totfact>
</mgrwt>
<rwgt>
<wgt id='morphing_basis_vector_1'> +2.1400866e-04 </wgt>
<wgt id='morphing_basis_vector_2'> +1.2272356e-04 </wgt>
<wgt id='morphing_basis_vector_3'> +1.2777043e-04 </wgt>
<wgt id='morphing_basis_vector_4'> +2.6177952e-05 </wgt>
<wgt id='morphing_basis_vector_5'> +2.0069510e-05 </wgt>
</rwgt>
</event>
<event>
 4      1 +3.1894900e-05 3.88362700e+02 7.81860800e-03 9.69143900e-02
        2 -1    0    0  501    0 +0.0000000000e+00 +0.0000000000e+00 +3.5226870965e+02 3.5226870965e+02 0.0000000000e+00 0.0000e+00 1.0000e+00
       -2 -1    0    0    0  501 -0.0000000000e+00 -0.0000000000e+00 -1.0703871004e+02 1.0703871004e+02 0.0000000000e+00 0.0000e+00 -1.0000e+00
      -13  1    1    2    0    0 +1.8301276242e+02 -1.8905206874e+01 +1.9604874230e+02 2.6886090718e+02 0.0000000000e+00 0.0000e+00 1.0000e+00
       13  1    1    2    0    0 -1.8301276242e+02 +1.8905206874e+01 +4.9181257308e+01 1.9044651251e+02 0.0000000000e+00 0.0000e+00 -1.0000e+00
<mgrwt>
<rscale>  0 0.38836266E+03</rscale>
<asrwt>0</asrwt>
<pdfrwt beam="1">  1        2 0.54195185E-01 0.38836266E+03</pdfrwt>
<pdfrwt beam="2">  1       -2 0.16467494E-01 0.38836266E+03</pdfrwt>
<totfact> 0.29750665E+03</totfact>
</mgrwt>
<rwgt>
<wgt id='morphing_basis_vector_1'> +2.5571442e-04 </wgt>
<wgt id='morphing_basis_vector_2'> +1.9247061e-04 </wgt>
<wgt id='morphing_basis_vector_3'> +1.2556610e-04 </wgt>
<wgt id='morphing_basis_vector_4'> +3.3692842e-05 </wgt>
<wgt id='morphing_basis_vector_5'> +2.9806626e-05 </wgt>
</rwgt>
</event>
<event>
 4      1 +3.1894900e-05 3.62609600e+02 7.81860800e-03 9.77378900e-02
        2 -1    0    0  501    0 +0.0000000000e+00 +0.0000000000e+00 +9.5715911237e+02 9.5715911237e+02 0.0000000000e+00 0.0000e+00 -1.0000e+00
       -2 -1    0    0    0  501 -0.0000000000e+00 -0.0000000000e+00 -3.4342702835e+01 3.4342702835e+01 0.0000000000e+00 0.0000e+00 1.0000e+00
      -13  1    1    2    0    0 -7.7844514231e-01 +1.7713448100e+02 +5.6710423343e+02 5.9412493797e+02 0.0000000000e+00 0.0000e+00 1.0000e+00
       13  1    1    2    0    0 +7.7844514231e-01 -1.7713448100e+02 +3.5571217610e+02 3.9737687724e+02 0.0000000000e+00 0.0000e+00 -1.0000e+00
<mgrwt>
<rscale>  0 0.36260960E+03</rscale>
<asrwt>0</asrwt>
<pdfrwt beam="1">  1        2 0.14725523E+00 0.36260960E+03</pdfrwt>
<pdfrwt beam="2">  1       -2 0.52834935E-02 0.36260960E+03</pdfrwt>
<totfact> 0.53551381E+03</totfact>
</mgrwt>
<rwgt>
<wgt id='morphing_basis_vector_1'> +2.0930081e-04 </wgt>
<wgt id='morphing_basis_vector_2'> +1.4412532e-04 </wgt>
<wgt id='morphing_basis_vector_3'> +1.0620676e-04 </wgt>
<wgt id='morphing_basis_vector_4'> +2.5667818e-05 </wgt>
<wgt id='morphing_basis_vector_5'> +1.5932444e-05 </wgt>
</rwgt>
</event>
<event>
 4      1 +3.1894900e-05 4.11429000e+02 7.81860800e-03 9.62327900e-02
        2 -1    0    0  501    0 +0.0000000000e+00 +0.0000000000e+00 +3.3006364350e+02 3.3006364350e+02 0.0000000000e+00 0.0000e+00 -1.0000e+00
       -2 -1    0    0    0  501 -0.0000000000e+00 -0.0000000000e+00 -1.2821303748e+02 1.2821303748e+02 0.0000000000e+00 0.0000e+00 1.0000e+00
      -13  1    1    2    0    0 +9.7898662673e+01 -8.0336691947e+01 -7.9645792085e+01 1.4960476070e+02 0.0000000000e+00 0.0000e+00 1.0000e+00
       13  1    1    2    0    0 -9.7898662673e+01 +8.0336691947e+01 +2.8149639811e+02 3.0867192029e+02 0.0000000000e+00 0.0000e+00 -1.0000e+00
<mgrwt>
<rscale>  0 0.41142903E+03</rscale>
<asrwt>0</asrwt>
<pdfrwt beam="1">  1        2 0.50779022E-01 0.41142903E+03</pdfrwt>
<pdfrwt beam="2">  1       -2 0.19725083E-01 0.41142903E+03</pdfrwt>
<totfact> 0.23863196E+03</totfact>
</mgrwt>
<rwgt>
<wgt id='morphing_basis_vector_1'> +2.7221615e-04 </wgt>
<wgt id='morphing_basis_vector_2'> +1.4656816e-04 </wgt>
<wgt id='morphing_basis_vector_3'> +1.7672415e-04 </wgt>
<wgt id='morphing_basis_vector_4'> +4.1569633e-05 </wgt>
<wgt id='morphing_basis_vector_5'> +4.4843629e-05 </wgt>
</rwgt>
</event>
<event>
 4      1 +3.1894900e-05 3.90885000e+02 7.81860800e-03 9.68374300e-02
        2 -1    0    0  501    0 +0.0000000000e+00 +0.0000000000e+00 +5.5547897239e+01 5.5547897239e+01 0.0000000000e+00 0.0000e+00 -1.0000e+00
       -2 -1    0    0    0  501 -0.0000000000e+00 -0.0000000000e+00 -6.8765469954e+02 6.8765469954e+02 0.0000000000e+00 0.0000e+00 1.0000e+00
      -13  1    1    2    0    0 +1.0731247937e+02 -1.3079553565e+02 -5.0209602231e+02 5.2983380035e+02 0.0000000000e+00 0.0000e+00 1.0000e+00
       13  1    1    2    0    0 -1.0731247937e+02 +1.3079553565e+02 -1.3001077999e+02 2.1336879642e+02 0.0000000000e+00 0.0000e+00 -1.0000e+00
<mgrwt>
<rscale>  0 0.39088501E+03</rscale>
<asrwt>0</asrwt>
<pdfrwt beam="1">  1        2 0.85458300E-02 0.39088501E+03</pdfrwt>
<pdfrwt beam="2">  1       -2 0.10579303E+00 0.39088501E+03</pdfrwt>
<totfact> 0.75640994E+02</totfact>
</mgrwt>
<rwgt>
<wgt id='morphing_basis_vector_1'> +2.3853061e-04 </wgt>
<wgt id='morphing_basis_vector_2'> +1.3025936e-04 </wgt>
<wgt id='morphing_basis_vector_3'> +1.4989189e-04 </wgt>
<wgt id='morphing_basis_vector_4'> +3.2128949e-05 </wgt>
<wgt id='morphing_basis_vector_5'> +2.9987283e-05 </wgt>
</rwgt>
</event>
<event>
 4      1 +3.1894900e-05 4.22284700e+02 7.81860800e-03 9.59282700e-02
        2 -1    0    0  501    0 +0.0000000000e+00 +0.0000000000e+00 +1.6490498013e+03 1.6490498013e+03 0.0000000000e+00 0.0000e+00 -1.0000e+00
       -2 -1    0    0    0  501 -0.0000000000e+00 -0.0000000000e+00 -2.7034413147e+01 2.7034413147e+01 0.0000000000e+00 0.0000e+00 1.0000e+00
      -13  1    1    2    0    0 -5.1001035287e+01 -2.0327856214e+02 +9.1280636426e+02 9.3655685255e+02 0.0000000000e+00 0.0000e+00 1.0000e+00
       13  1    1    2    0    0 +5.1001035287e+01 +2.0327856214e+02 +7.0920902391e+02 7.3952736191e+02 0.0000000000e+00 0.0000e+00 -1.0000e+00
<mgrwt>
<rscale>  0 0.42228471E+03</rscale>
<asrwt>0</asrwt>
<pdfrwt beam="1">  1        2 0.25369989E+00 0.42228471E+03</pdfrwt>
<pdfrwt beam="2">  1       -2 0.41591418E-02 0.42228471E+03</pdfrwt>
<totfact> 0.31443719E+03</totfact>
</mgrwt>
<rwgt>
<wgt id='morphing_basis_vector_1'> +3.0631050e-04 </wgt>
<wgt id='morphing_basis_vector_2'> +2.0110564e-04 </wgt>
<wgt id='morphing_basis_vector_3'> +1.8049395e-04 </wgt>
<wgt id='morphing_basis_vector_4'> +4.6946686e-05 </wgt>
<wgt id='morphing_basis_vector_5'> +5.5185144e-05 </wgt>
</rwgt>
</event>
<event>
 4      1 +3.1894900e-05 3.91720500e+02 7.81860800e-03 9.68120700e-02
        2 -1    0    0  501    0 +0.0000000000e+00 +0.0000000000e+00 +3.8102684776e+02 3.8102684776e+02 0.0000000000e+00 0.0000e+00 -1.0000e+00
       -2 -1    0    0    0  501 -0.0000000000e+00 -0.0000000000e+00 -1.0067858043e+02 1.0067858043e+02 0.0000000000e+00 0.0000e+00 1.0000e+00
      -13  1    1    2    0    0 -7.7875167988e+00 +1.9460790132e+02 +1.1472280788e+02 2.2604026925e+02 0.0000000000e+00 0.0000e+00 1.0000e+00
       13  1    1    2    0    0 +7.7875167988e+00 -1.9460790132e+02 +1.6562545946e+02 2.5566515894e+02 0.0000000000e+00 0.0000e+00 -1.0000e+00
<mgrwt>
<rscale>  0 0.39172052E+03</rscale>
<asrwt>0</asrwt>
<pdfrwt beam="1">  1        2 0.58619514E-01 0.39172052E+03</pdfrwt>
<pdfrwt beam="2">  1       -2 0.15489013E-01 0.39172052E+03</pdfrwt>
<totfact> 0.30093466E+03</totfact>
</mgrwt>
<rwgt>
<wgt id='morphing_basis_vector_1'> +2.4398783e-04 </wgt>
<wgt id='morphing_basis_vector_2'> +1.4357009e-04 </wgt>
<wgt id='morphing_basis_vector_3'> +1.4677659e-04 </wgt>
<wgt id='morphing_basis_vector_4'> +3.2900324e-05 </wgt>
<wgt id='morphing_basis_vector_5'> +3.0794069e-05 </wgt>
</rwgt>
</event>
<event>
 4      1 +3.1894900e-05 4.27532300e+02 7.81860800e-03 9.57845200e-02
        2 -1    0    0  501    0 +0.0000000000e+00 +0.0000000000e+00 +4.2023053721e+02 4.2023053721e+02 0.0000000000e+00 0.0000e+00 1.0000e+00
       -2 -1    0    0    0  501 -0.0000000000e+00 -0.0000000000e+00 -1.0874024991e+02 1.0874024991e+02 0.0000000000e+00 0.0000e+00 -1.0000e+00
      -13  1    1    2    0    0 -1.2824159840e+02 +7.0184124984e+01 -3.7221612423e+01 1.5085478909e+02 0.0000000000e+00 0.0000e+00 -1.0000e+00
       13  1    1    2    0    0 +1.2824159840e+02 -7.0184124984e+01 +3.4871189972e+02 3.7811599803e+02 0.0000000000e+00 0.0000e+00 1.0000e+00
<mgrwt>
<rscale>  0 0.42753233E+03</rscale>
<asrwt>0</asrwt>
<pdfrwt beam="1">  1        2 0.64650851E-01 0.42753233E+03</pdfrwt>
<pdfrwt beam="2">  1       -2 0.16729269E-01 0.42753233E+03</pdfrwt>
<totfact> 0.23883940E+03</totfact>
</mgrwt>
<rwgt>
<wgt id='morphing_basis_vector_1'> +3.0230915e-04 </wgt>
<wgt id='morphing_basis_vector_2'> +1.6339515e-04 </wgt>
<wgt id='morphing_basis_vector_3'> +1.9992544e-04 </wgt>
<wgt id='morphing_basis_vector_4'> +5.0769725e-05 </wgt>
<wgt id='morphing_basis_vector_5'> +5.9306216e-05 </wgt>
</rwgt>
</event>
<event>
 4      1 +3.1894900e-05 3.89434600e+02 7.81860800e-03 9.68816100e-02
        2 -1    0    0  501    0 +0.0000000000e+00 +0.0000000000e+00 +1.9673983522e+03 1.9673983522e+03 0.0000000000e+00 0.0000e+00 -1.0000e+00
       -2 -1    0    0    0  501 -0.0000000000e+00 -0.0000000000e+00 -1.9271550786e+01 1.9271550786e+01 0.0000000000e+00 0.0000e+00 1.0000e+00
      -13  1    1    2    0    0 +1.3879713283e+02 -1.3593878497e+02 +1.0407380119e+03 1.0587160180e+03 0.0000000000e+00 0.0000e+00 1.0000e+00
       13  1    1    2    0    0 -1.3879713283e+02 +1.3593878497e+02 +9.0738878951e+02 9.2795388499e+02 0.0000000000e+00 0.0000e+00 -1.0000e+00
<mgrwt>
<rscale>  0 0.38943455E+03</rscale>
<asrwt>0</asrwt>
<pdfrwt beam="1">  1        2 0.30267651E+00 0.38943455E+03</pdfrwt>
<pdfrwt beam="2">  1       -2 0.29648555E-02 0.38943455E+03</pdfrwt>
<totfact> 0.35111901E+03</totfact>
</mgrwt>
<rwgt>
<wgt id='morphing_basis_vector_1'> +2.4469158e-04 </wgt>
<wgt id='morphing_basis_vector_2'> +1.5473803e-04 </wgt>
<wgt id='morphing_basis_vector_3'> +1.3970364e-04 </wgt>
<wgt id='morphing_basis_vector_4'> +3.2528593e-05 </wgt>
<wgt id='morphing_basis_vector_5'> +2.9631230e-05 </wgt>
</rwgt>
</event>
<event>
 4      1 +3.1894900e-05 3.69111900e+02 7.81860800e-03 9.75231900e-02
        2 -1    0    0  501    0 +0.0000000000e+00 +0.0000000000e+00 +4.4693347212e+02 4.4693347212e+02 0.0000000000e+00 0.0000e+00 1.0000e+00
       -2 -1    0    0    0  501 -0.0000000000e+00 -0.0000000000e+00 -7.6210206548e+01 7.6210206548e+01 0.0000000000e+00 0.0000e+00 -1.0000e+00
      -13  1    1    2    0    0 +1.6896706058e+02 +4.7652726959e+01 +1.0468426539e+02 2.0440020883e+02 0.0000000000e+00 0.0000e+00 -1.0000e+00
       13  1    1    2    0    0 -1.6896706058e+02 -4.7652726959e+01 +2.6603900018e+02 3.1874346984e+02 0.0000000000e+00 0.0000e+00 1.0000e+00
<mgrwt>
<rscale>  0 0.36911187E+03</rscale>
<asrwt>0</asrwt>
<pdfrwt beam="1">  1        2 0.68758994E-01 0.36911187E+03</pdfrwt>
<pdfrwt beam="2">  1       -2 0.11724647E-01 0.36911187E+03</pdfrwt>
<totfact> 0.39130210E+03</totfact>
</mgrwt>
<rwgt>
<wgt id='morphing_basis_vector_1'> +2.0728046e-04 </wgt>
<wgt id='morphing_basis_vector_2'> +1.1611873e-04 </wgt>
<wgt id='morphing_basis_vector_3'> +1.2511448e-04 </wgt>
<wgt id='morphing_basis_vector_4'> +2.4757953e-05 </wgt>
<wgt id='morphing_basis_vector_5'> +1.8104798e-05 </wgt>
</rwgt>
</event>
<event>
 4      1 +3.1894900e-05 3.91053400e+02 7.81860800e-03 9.68323100e-02
        2 -1    0    0  501    0 +0.0000000000e+00 +0.0000000000e+00 +1.8709870245e+03 1.8709870245e+03 0.0000000000e+00 0.0000e+00 -1.0000e+00
       -2 -1    0    0    0  501 -0.0000000000e+00 -0.0000000000e+00 -2.0433432917e+01 2.0433432917e+01 0.0000000000e+00 0.0000e+00 1.0000e+00
      -13  1    1    2    0    0 -8.5043094802e+00 +1.9466542604e+02 +1.0038251576e+03 1.0225614399e+03 0.0000000000e+00 0.0000e+00 1.0000e+00
       13  1    1    2    0    0 +8.5043094802e+00 -1.9466542604e+02 +8.4672843404e+02 8.6885901756e+02 0.0000000000e+00 0.0000e+00 -1.0000e+00
<mgrwt>
<rscale>  0 0.39105339E+03</rscale>
<asrwt>0</asrwt>
<pdfrwt beam="1">  1        2 0.28784402E+00 0.39105339E+03</pdfrwt>
<pdfrwt beam="2">  1       -2 0.31436065E-02 0.39105339E+03</pdfrwt>
<totfact> 0.36287405E+03</totfact>
</mgrwt>
<rwgt>
<wgt id='morphing_basis_vector_1'> +2.4790009e-04 </wgt>
<wgt id='morphing_basis_vector_2'> +1.5813746e-04 </wgt>
<wgt id='morphing_basis_vector_3'> +1.4102117e-04 </wgt>
<wgt id='morphing_basis_vector_4'> +3.3179492e-05 </wgt>
<wgt id='morphing_basis_vector_5'> +3.0694955e-05 </wgt>
</rwgt>
</event>
<event>
 4      1 +3.1894900e-05 4.04310800e+02 7.81860800e-03 9.64379500e-02
        2 -1    0    0  501    0 +0.0000000000e+00 +0.0000000000e+00 +4.9372818331e+02 4.9372818331e+02 0.0000000000e+00 0.0000e+00 1.0000e+00
       -2 -1    0    0    0  501 -0.0000000000e+00 -0.0000000000e+00 -8.2771866806e+01 8.2771866806e+01 0.0000000000e+00 0.0000e+00 -1.0000e+00
      -13  1    1    2    0    0 +1.2612962207e+02 +1.7450248943e+00 -1.9771154327e+01 1.2768173409e+02 0.0000000000e+00 0.0000e+00 -1.0000e+00
       13  1    1    2    0    0 -1.2612962207e+02 -1.7450248943e+00 +4.3072747084e+02 4.4881831603e+02 0.0000000000e+00 0.0000e+00 1.0000e+00
<mgrwt>
<rscale>  0 0.40431079E+03</rscale>
<asrwt>0</asrwt>
<pdfrwt beam="1">  1        2 0.75958180E-01 0.40431079E+03</pdfrwt>
<pdfrwt beam="2">  1       -2 0.12734134E-01 0.40431079E+03</pdfrwt>
<totfact> 0.30820374E+03</totfact>
</mgrwt>
<rwgt>
<wgt id='morphing_basis_vector_1'> +2.5981931e-04 </wgt>
<wgt id='morphing_basis_vector_2'> +1.3983693e-04 </wgt>
<wgt id='morphing_basis_vector_3'> +1.6724048e-04 </wgt>
<wgt id='morphing_basis_vector_4'> +3.8000182e-05 </wgt>
<wgt id='morphing_basis_vector_5'> +3.9250256e-05 </wgt>
</rwgt>
</event>
<event>
 4      1 +3.1894900e-05 3.68315700e+02 7.81860800e-03 9.75492200e-02
        2 -1    0    0  501    0 +0.0000000000e+00 +0.0000000000e+00 +2.4925280407e+02 2.4925280407e+02 0.0000000000e+00 0.0000e+00 1.0000e+00
       -2 -1    0    0    0  501 -0.0000000000e+00 -0.0000000000e+00 -1.3606314008e+02 1.3606314008e+02 0.0000000000e+00 0.0000e+00 -1.0000e+00
      -13  1    1    2    0    0 +1.6099777568e+02 -8.6079901438e+01 +8.1878210584e+01 2.0008516830e+02 0.0000000000e+00 0.0000e+00 -1.0000e+00
       13  1    1    2    0    0 -1.6099777568e+02 +8.6079901438e+01 +3.1311453415e+01 1.8523077585e+02 0.0000000000e+00 0.0000e+00 1.0000e+00
<mgrwt>
<rscale>  0 0.36831573E+03</rscale>
<asrwt>0</asrwt>
<pdfrwt beam="1">  1        2 0.38346585E-01 0.36831573E+03</pdfrwt>
<pdfrwt beam="2">  1       -2 0.20932791E-01 0.36831573E+03</pdfrwt>
<totfact> 0.29491189E+03</totfact>
</mgrwt>
<rwgt>
<wgt id='morphing_basis_vector_1'> +2.1430638e-04 </wgt>
<wgt id='morphing_basis_vector_2'> +1.4005268e-04 </wgt>
<wgt id='morphing_basis_vector_3'> +1.1518250e-04 </wgt>
<wgt id='morphing_basis_vector_4'> +2.6324735e-05 </wgt>
<wgt id='morphing_basis_vector_5'> +1.8268938e-05 </wgt>
</rwgt>
</event>
<event>
 4      1 +3.1894900e-05 4.25975500e+02 7.81860800e-03 9.58269400e-02
        2 -1    0    0  501    0 +0.0000000000e+00 +0.0000000000e+00 +6.7440066840e+01 6.7440066840e+01 0.0000000000e+00 0.0000e+00 -1.0000e+00
       -2 -1    0    0    0  501 -0.0000000000e+00 -0.0000000000e+00 -6.7265312194e+02 6.7265312194e+02 0.0000000000e+00 0.0000e+00 1.0000e+00
      -13  1    1    2    0    0 -5.4549121596e+01 -1.3116923669e+02 -5.7831734749e+02 5.9550980658e+02 0.0000000000e+00 0.0000e+00 1.0000e+00
       13  1    1    2    0    0 +5.4549121596e+01 +1.3116923669e+02 -2.6895707604e+01 1.4458338220e+02 0.0000000000e+00 0.0000e+00 -1.0000e+00
<mgrwt>
<rscale>  0 0.42597545E+03</rscale>
<asrwt>0</asrwt>
<pdfrwt beam="1">  1        2 0.10375395E-01 0.42597545E+03</pdfrwt>
<pdfrwt beam="2">  1       -2 0.10348509E+00 0.42597545E+03</pdfrwt>
<totfact> 0.62308005E+02</totfact>
</mgrwt>
<rwgt>
<wgt id='morphing_basis_vector_1'> +2.9925711e-04 </wgt>
<wgt id='morphing_basis_vector_2'> +1.6162257e-04 </wgt>
<wgt id='morphing_basis_vector_3'> +1.9758374e-04 </wgt>
<wgt id='morphing_basis_vector_4'> +4.9811073e-05 </wgt>
<wgt id='morphing_basis_vector_5'> +5.7793000e-05 </wgt>
</rwgt>
</event>
<event>
 4      1 +3.1894900e-05 4.15546200e+02 7.81860800e-03 9.61161400e-02
        2 -1    0    0  501    0 +0.0000000000e+00 +0.0000000000e+00 +5.6926997675e+02 5.6926997675e+02 0.0000000000e+00 0.0000e+00 1.0000e+00
       -2 -1    0    0    0  501 -0.0000000000e+00 -0.0000000000e+00 -7.5833363182e+01 7.5833363182e+01 0.0000000000e+00 0.0000e+00 -1.0000e+00
      -13  1    1    2    0    0 +4.8668391993e+01 -1.0726126491e+02 -1.8995820778e+01 1.1930814111e+02 0.0000000000e+00 0.0000e+00 -1.0000e+00
       13  1    1    2    0    0 -4.8668391993e+01 +1.0726126491e+02 +5.1243243435e+02 5.2579519882e+02 0.0000000000e+00 0.0000e+00 1.0000e+00
<mgrwt>
<rscale>  0 0.41554618E+03</rscale>
<asrwt>0</asrwt>
<pdfrwt beam="1">  1        2 0.87579993E-01 0.41554618E+03</pdfrwt>
<pdfrwt beam="2">  1       -2 0.11666672E-01 0.41554618E+03</pdfrwt>
<totfact> 0.30127190E+03</totfact>
</mgrwt>
<rwgt>
<wgt id='morphing_basis_vector_1'> +2.7957922e-04 </wgt>
<wgt id='morphing_basis_vector_2'> +1.5048271e-04 </wgt>
<wgt id='morphing_basis_vector_3'> +1.8246865e-04 </wgt>
<wgt id='morphing_basis_vector_4'> +4.3771858e-05 </wgt>
<wgt id='morphing_basis_vector_5'> +4.8293953e-05 </wgt>
</rwgt>
</event>
<event>
 4      1 +3.1894900e-05 4.00997800e+02 7.81860800e-03 9.65349700e-02
        2 -1    0    0  501    0 +0.0000000000e+00 +0.0000000000e+00 +4.7696754856e+02 4.7696754856e+02 0.0000000000e+00 0.0000e+00 -1.0000e+00
       -2 -1    0    0    0  501 -0.0000000000e+00 -0.0000000000e+00 -8.4282060360e+01 8.4282060360e+01 0.0000000000e+00 0.0000e+00 1.0000e+00
      -13  1    1    2    0    0 +5.1905310791e+00 +1.9937541540e+02 +1.6758004302e+02 2.6050061170e+02 0.0000000000e+00 0.0000e+00 1.0000e+00
       13  1    1    2    0    0 -5.1905310791e+00 -1.9937541540e+02 +2.2510544517e+02 3.0074899721e+02 0.0000000000e+00 0.0000e+00 -1.0000e+00
<mgrwt>
<rscale>  0 0.40099779E+03</rscale>
<asrwt>0</asrwt>
<pdfrwt beam="1">  1        2 0.73379621E-01 0.40099779E+03</pdfrwt>
<pdfrwt beam="2">  1       -2 0.12966471E-01 0.40099779E+03</pdfrwt>
<totfact> 0.31127502E+03</totfact>
</mgrwt>
<rwgt>
<wgt id='morphing_basis_vector_1'> +2.5952780e-04 </wgt>
<wgt id='morphing_basis_vector_2'> +1.5303632e-04 </wgt>
<wgt id='morphing_basis_vector_3'> +1.5800077e-04 </wgt>
<wgt id='morphing_basis_vector_4'> +3.6749196e-05 </wgt>
<wgt id='morphing_basis_vector_5'> +3.7151159e-05 </wgt>
</rwgt>
</event>
<event>
 4      1 +3.1894900e-05 3.73654500e+02 7.81860800e-03 9.73760000e-02
        2 -1    0    0  501    0 +0.0000000000e+00 +0.0000000000e+00 +1.2220529877e+02 1.2220529877e+02 0.0000000000e+00 0.0000e+00 -1.0000e+00
       -2 -1    0    0    0  501 -0.0000000000e+00 -0.0000000000e+00 -2.8562110480e+02 2.8562110480e+02 0.0000000000e+00 0.0000e+00 1.0000e+00
      -13  1    1    2    0    0 -2.4517848790e+01 +1.2665172821e+02 -2.2920613201e+02 2.6301565756e+02 0.0000000000e+00 0.0000e+00 1.0000e+00
       13  1    1    2    0    0 +2.4517848790e+01 -1.2665172821e+02 +6.5790325977e+01 1.4481074601e+02 0.0000000000e+00 0.0000e+00 -1.0000e+00
<mgrwt>
<rscale>  0 0.37365445E+03</rscale>
<asrwt>0</asrwt>
<pdfrwt beam="1">  1        2 0.18800815E-01 0.37365445E+03</pdfrwt>
<pdfrwt beam="2">  1       -2 0.43941708E-01 0.37365445E+03</pdfrwt>
<totfact> 0.18340899E+03</totfact>
</mgrwt>
<rwgt>
<wgt id='morphing_basis_vector_1'> +2.1197291e-04 </wgt>
<wgt id='morphing_basis_vector_2'> +1.1437463e-04 </wgt>
<wgt id='morphing_basis_vector_3'> +1.3160509e-04 </wgt>
<wgt id='morphing_basis_vector_4'> +2.5799076e-05 </wgt>
<wgt id='morphing_basis_vector_5'> +2.0184465e-05 </wgt>
</rwgt>
</event>
<event>
 4      1 +3.1894900e-05 4.24879100e+02 7.81860800e-03 9.58569200e-02
        2 -1    0    0  501    0 +0.0000000000e+00 +0.0000000000e+00 +2.1914923825e+02 2.1914923825e+02 0.0000000000e+00 0.0000e+00 1.0000e+00
       -2 -1    0    0    0  501 -0.0000000000e+00 -0.0000000000e+00 -2.0593534052e+02 2.0593534052e+02 0.0000000000e+00 0.0000e+00 -1.0000e+00
      -13  1    1    2    0    0 +3.2697882727e+01 -1.4444495877e+02 -1.4577255214e+02 2.0780552112e+02 0.0000000000e+00 0.0000e+00 -1.0000e+00
       13  1    1    2    0    0 -3.2697882727e+01 +1.4444495877e+02 +1.5898644987e+02 2.1727905765e+02 0.0000000000e+00 0.0000e+00 1.0000e+00
<mgrwt>
<rscale>  0 0.42487915E+03</rscale>
<asrwt>0</asrwt>
<pdfrwt beam="1">  1        2 0.33715268E-01 0.42487915E+03</pdfrwt>
<pdfrwt beam="2">  1       -2 0.31682360E-01 0.42487915E+03</pdfrwt>
<totfact> 0.16891219E+03</totfact>
</mgrwt>
<rwgt>
<wgt id='morphing_basis_vector_1'> +2.9720698e-04 </wgt>
<wgt id='morphing_basis_vector_2'> +1.6064073e-04 </wgt>
<wgt id='morphing_basis_vector_3'> +1.9588316e-04 </wgt>
<wgt id='morphing_basis_vector_4'> +4.9140237e-05 </wgt>
<wgt id='morphing_basis_vector_5'> +5.6747516e-05 </wgt>
</rwgt>
</event>
<event>
 4      1 +3.1894900e-05 3.82336800e+02 7.81860800e-03 9.71008100e-02
        2 -1    0    0  501    0 +0.0000000000e+00 +0.0000000000e+00 +1.7271248618e+02 1.7271248618e+02 0.0000000000e+00 0.0000e+00 -1.0000e+00
       -2 -1    0    0    0  501 -0.0000000000e+00 -0.0000000000e+00 -2.1159654980e+02 2.1159654980e+02 0.0000000000e+00 0.0000e+00 1.0000e+00
      -13  1    1    2    0    0 -4.6892486148e+01 +1.6838926616e+02 -9.7246188839e+01 2.0002667687e+02 0.0000000000e+00 0.0000e+00 1.0000e+00
       13  1    1    2    0    0 +4.6892486148e+01 -1.6838926616e+02 +5.8362125218e+01 1.8428235910e+02 0.0000000000e+00 0.0000e+00 -1.0000e+00
<mgrwt>
<rscale>  0 0.38233685E+03</rscale>
<asrwt>0</asrwt>
<pdfrwt beam="1">  1        2 0.26571152E-01 0.38233685E+03</pdfrwt>
<pdfrwt beam="2">  1       -2 0.32553315E-01 0.38233685E+03</pdfrwt>
<totfact> 0.21098651E+03</totfact>
</mgrwt>
<rwgt>
<wgt id='morphing_basis_vector_1'> +2.2582712e-04 </wgt>
<wgt id='morphing_basis_vector_2'> +1.2461066e-04 </wgt>
<wgt id='morphing_basis_vector_3'> +1.3964937e-04 </wgt>
<wgt id='morphing_basis_vector_4'> +2.8939850e-05 </wgt>
<wgt id='morphing_basis_vector_5'> +2.4882780e-05 </wgt>
</rwgt>
</event>
<event>
 4      1 +3.1894900e-05 3.67867300e+02 7.81860800e-03 9.75639200e-02
        2 -1    0    0  501    0 +0.0000000000e+00 +0.0000000000e+00 +1.1551569207e+03 1.1551569207e+03 0.0000000000e+00 0.0000e+00 -1.0000e+00
       -2 -1    0    0    0  501 -0.0000000000e+00 -0.0000000000e+00 -2.9287437077e+01 2.9287437077e+01 0.0000000000e+00 0.0000e+00 1.0000e+00
      -13  1    1    2    0    0 -9.3823227747e+01 -1.4015854786e+02 +3.2667436080e+02 3.6764569167e+02 0.0000000000e+00 0.0000e+00 1.0000e+00
       13  1    1    2    0    0 +9.3823227747e+01 +1.4015854786e+02 +7.9919512280e+02 8.1679866608e+02 0.0000000000e+00 0.0000e+00 -1.0000e+00
<mgrwt>
<rscale>  0 0.36786729E+03</rscale>
<asrwt>0</asrwt>
<pdfrwt beam="1">  1        2 0.17771641E+00 0.36786729E+03</pdfrwt>
<pdfrwt beam="2">  1       -2 0.45057604E-02 0.36786729E+03</pdfrwt>
<totfact> 0.51974927E+03</totfact>
</mgrwt>
<rwgt>
<wgt id='morphing_basis_vector_1'> +2.0492608e-04 </wgt>
<wgt id='morphing_basis_vector_2'> +1.1329610e-04 </wgt>
<wgt id='morphing_basis_vector_3'> +1.2458821e-04 </wgt>
<wgt id='morphing_basis_vector_4'> +2.4257124e-05 </wgt>
<wgt id='morphing_basis_vector_5'> +1.7489183e-05 </wgt>
</rwgt>
</event>
<event>
 4      1 +3.1894900e-05 3.98647700e+02 7.81860800e-03 9.66044000e-02
        2 -1    0    0  501    0 +0.0000000000e+00 +0.0000000000e+00 +8.9807790058e+02 8.9807790058e+02 0.0000000000e+00 0.0000e+00 -1.0000e+00
       -2 -1    0    0    0  501 -0.0000000000e+00 -0.0000000000e+00 -4.4238920941e+01 4.4238920941e+01 0.0000000000e+00 0.0000e+00 1.0000e+00
      -13  1    1    2    0    0 +1.8558414533e+02 +1.3687425196e+01 +2.5809211720e+02 3.1818290584e+02 0.0000000000e+00 0.0000e+00 1.0000e+00
       13  1    1    2    0    0 -1.8558414533e+02 -1.3687425196e+01 +5.9574686244e+02 6.2413391569e+02 0.0000000000e+00 0.0000e+00 -1.0000e+00
<mgrwt>
<rscale>  0 0.39864770E+03</rscale>
<asrwt>0</asrwt>
<pdfrwt beam="1">  1        2 0.13816582E+00 0.39864770E+03</pdfrwt>
<pdfrwt beam="2">  1       -2 0.68059885E-02 0.39864770E+03</pdfrwt>
<totfact> 0.39807412E+03</totfact>
</mgrwt>
<rwgt>
<wgt id='morphing_basis_vector_1'> +2.5205329e-04 </wgt>
<wgt id='morphing_basis_vector_2'> +1.4001924e-04 </wgt>
<wgt id='morphing_basis_vector_3'> +1.5837834e-04 </wgt>
<wgt id='morphing_basis_vector_4'> +3.5490266e-05 </wgt>
<wgt id='morphing_basis_vector_5'> +3.5243837e-05 </wgt>
</rwgt>
</event>
<event>
 4      1 +3.1894900e-05 3.77783300e+02 7.81860800e-03 9.72441500e-02
        2 -1    0    0  501    0 +0.0000000000e+00 +0.0000000000e+00 +2.3974034475e+02 2.3974034475e+02 0.0000000000e+00 0.0000e+00 -1.0000e+00
       -2 -1    0    0    0  501 -0.0000000000e+00 -0.0000000000e+00 -1.4882791869e+02 1.4882791869e+02 0.0000000000e+00 0.0000e+00 1.0000e+00
      -13  1    1    2    0    0 -1.4856790684e+02 -4.6045760999e+01 -6.4782933402e+01 1.6849173128e+02 0.0000000000e+00 0.0000e+00 1.0000e+00
       13  1    1    2    0    0 +1.4856790684e+02 +4.6045760999e+01 +1.5569535947e+02 2.2007653216e+02 0.0000000000e+00 0.0000e+00 -1.0000e+00
<mgrwt>
<rscale>  0 0.37778331E+03</rscale>
<asrwt>0</asrwt>
<pdfrwt beam="1">  1        2 0.36883130E-01 0.37778331E+03</pdfrwt>
<pdfrwt beam="2">  1       -2 0.22896603E-01 0.37778331E+03</pdfrwt>
<totfact> 0.26565860E+03</totfact>
</mgrwt>
<rwgt>
<wgt id='morphing_basis_vector_1'> +2.1830040e-04 </wgt>
<wgt id='morphing_basis_vector_2'> +1.1864784e-04 </wgt>
<wgt id='morphing_basis_vector_3'> +1.3552989e-04 </wgt>
<wgt id='morphing_basis_vector_4'> +2.7228398e-05 </wgt>
<wgt id='morphing_basis_vector_5'> +2.2334345e-05 </wgt>
</rwgt>
</event>
<event>
 4      1 +3.1894900e-05 4.29576300e+02 7.81860800e-03 9.57291200e-02
        2 -1    0    0  501    0 +0.0000000000e+00 +0.0000000000e+00 +7.5689786047e+02 7.5689786047e+02 0.0000000000e+00 0.0000e+00 -1.0000e+00
       -2 -1    0    0    0  501 -0.0000000000e+00 -0.0000000000e+00 -6.0951366990e+01 6.0951366990e+01 0.0000000000e+00 0.0000e+00 1.0000e+00
      -13  1    1    2    0    0 +1.4604535378e+02 +1.1630422253e+02 +1.4578787226e+02 2.3687553955e+02 0.0000000000e+00 0.0000e+00 1.0000e+00
       13  1    1    2    0    0 -1.4604535378e+02 -1.1630422253e+02 +5.5015862122e+02 5.8097368791e+02 0.0000000000e+00 0.0000e+00 -1.0000e+00
<mgrwt>
<rscale>  0 0.42957635E+03</rscale>
<asrwt>0</asrwt>
<pdfrwt beam="1">  1        2 0.11644582E+00 0.42957635E+03</pdfrwt>
<pdfrwt beam="2">  1       -2 0.93771339E-02 0.42957635E+03</pdfrwt>
<totfact> 0.30264931E+03</totfact>
</mgrwt>
<rwgt>
<wgt id='morphing_basis_vector_1'> +3.0726672e-04 </wgt>
<wgt id='morphing_basis_vector_2'> +1.6855249e-04 </wgt>
<wgt id='morphing_basis_vector_3'> +2.0232886e-04 </wgt>
<wgt id='morphing_basis_vector_4'> +5.1977594e-05 </wgt>
<wgt id='morphing_basis_vector_5'> +6.1386220e-05 </wgt>
</rwgt>
</event>
<event>
 4      1 +3.1894900e-05 3.65902800e+02 7.81860800e-03 9.76285500e-02
        2 -1    0    0  501    0 +0.0000000000e+00 +0.0000000000e+00 +4.4754435569e+02 4.4754435569e+02 0.0000000000e+00 0.0000e+00 -1.0000e+00
       -2 -1    0    0    0  501 -0.0000000000e+00 -0.0000000000e+00 -7.4788590637e+01 7.4788590637e+01 0.0000000000e+00 0.0000e+00 1.0000e+00
      -13  1    1    2    0    0 +9.7208003885e+01 +8.9482834759e+01 +5.7269245445e+00 1.3224738712e+02 0.0000000000e+00 0.0000e+00 1.0000e+00
       13  1    1    2    0    0 -9.7208003885e+01 -8.9482834759e+01 +3.6702884050e+02 3.9008555920e+02 0.0000000000e+00 0.0000e+00 -1.0000e+00
<mgrwt>
<rscale>  0 0.36590278E+03</rscale>
<asrwt>0</asrwt>
<pdfrwt beam="1">  1        2 0.68852976E-01 0.36590278E+03</pdfrwt>
<pdfrwt beam="2">  1       -2 0.11505937E-01 0.36590278E+03</pdfrwt>
<totfact> 0.40229203E+03</totfact>
</mgrwt>
<rwgt>
<wgt id='morphing_basis_vector_1'> +2.0122610e-04 </wgt>
<wgt id='morphing_basis_vector_2'> +1.0883142e-04 </wgt>
<wgt id='morphing_basis_vector_3'> +1.2381159e-04 </wgt>
<wgt id='morphing_basis_vector_4'> +2.3462566e-05 </wgt>
<wgt id='morphing_basis_vector_5'> +1.6539828e-05 </wgt>
</rwgt>
</event>
<event>
 4      1 +3.1894900e-05 3.75065700e+02 7.81860800e-03 9.73307200e-02
        2 -1    0    0  501    0 +0.0000000000e+00 +0.0000000000e+00 +1.2743995913e+02 1.2743995913e+02 0.0000000000e+00 0.0000e+00 -1.0000e+00
       -2 -1    0    0    0  501 -0.0000000000e+00 -0.0000000000e+00 -2.7596192778e+02 2.7596192778e+02 0.0000000000e+00 0.0000e+00 1.0000e+00
      -13  1    1    2    0    0 -1.0819206418e+02 -1.0747719147e+01 -2.3860394335e+02 2.6220770012e+02 0.0000000000e+00 0.0000e+00 1.0000e+00
       13  1    1    2    0    0 +1.0819206418e+02 +1.0747719147e+01 +9.0081974696e+01 1.4119418679e+02 0.0000000000e+00 0.0000e+00 -1.0000e+00
<mgrwt>
<rscale>  0 0.37506574E+03</rscale>
<asrwt>0</asrwt>
<pdfrwt beam="1">  1        2 0.19606148E-01 0.37506574E+03</pdfrwt>
<pdfrwt beam="2">  1       -2 0.42455681E-01 0.37506574E+03</pdfrwt>
<totfact> 0.18606896E+03</totfact>
</mgrwt>
<rwgt>
<wgt id='morphing_basis_vector_1'> +2.1388346e-04 </wgt>
<wgt id='morphing_basis_vector_2'> +1.1511147e-04 </wgt>
<wgt id='morphing_basis_vector_3'> +1.3318505e-04 </wgt>
<wgt id='morphing_basis_vector_4'> +2.6235979e-05 </wgt>
<wgt id='morphing_basis_vector_5'> +2.0889182e-05 </wgt>
</rwgt>
</event>
<event>
 4      1 +3.1894900e-05 3.81975000e+02 7.81860800e-03 9.71121300e-02
        2 -1    0    0  501    0 +0.0000000000e+00 +0.0000000000e+00 +3.0341753226e+02 3.0341753226e+02 0.0000000000e+00 0.0000e+00 -1.0000e+00
       -2 -1    0    0    0  501 -0.0000000000e+00 -0.0000000000e+00 -1.2021789754e+02 1.2021789754e+02 0.0000000000e+00 0.0000e+00 1.0000e+00
      -13  1    1    2    0    0 +1.0518155632e+02 +5.4083431892e+01 -7.4715858466e+01 1.3989509249e+02 0.0000000000e+00 0.0000e+00 1.0000e+00
       13  1    1    2    0    0 -1.0518155632e+02 -5.4083431892e+01 +2.5791549318e+02 2.8374033732e+02 0.0000000000e+00 0.0000e+00 -1.0000e+00
<mgrwt>
<rscale>  0 0.38197496E+03</rscale>
<asrwt>0</asrwt>
<pdfrwt beam="1">  1        2 0.46679620E-01 0.38197496E+03</pdfrwt>
<pdfrwt beam="2">  1       -2 0.18495061E-01 0.38197496E+03</pdfrwt>
<totfact> 0.29059832E+03</totfact>
</mgrwt>
<rwgt>
<wgt id='morphing_basis_vector_1'> +2.2405229e-04 </wgt>
<wgt id='morphing_basis_vector_2'> +1.2058078e-04 </wgt>
<wgt id='morphing_basis_vector_3'> +1.4053965e-04 </wgt>
<wgt id='morphing_basis_vector_4'> +2.8622201e-05 </wgt>
<wgt id='morphing_basis_vector_5'> +2.4596860e-05 </wgt>
</rwgt>
</event>
<event>
 4      1 +3.1894900e-05 4.17104300e+02 7.81860800e-03 9.60723600e-02
        2 -1    0    0  501    0 +0.0000000000e+00 +0.0000000000e+00 +1.0990069534e+03 1.0990069534e+03 0.0000000000e+00 0.0000e+00 -1.0000e+00
       -2 -1    0    0    0  501 -0.0000000000e+00 -0.0000000000e+00 -3.9575732356e+01 3.9575732356e+01 0.0000000000e+00 0.0000e+00 1.0000e+00
      -13  1    1    2    0    0 -1.5072576123e+02 -3.7835364405e+01 +1.5005489600e+02 2.1602370636e+02 0.0000000000e+00 0.0000e+00 1.0000e+00
       13  1    1    2    0    0 +1.5072576123e+02 +3.7835364405e+01 +9.0937632505e+02 9.2255897940e+02 0.0000000000e+00 0.0000e+00 -1.0000e+00
<mgrwt>
<rscale>  0 0.41710433E+03</rscale>
<asrwt>0</asrwt>
<pdfrwt beam="1">  1        2 0.16907797E+00 0.41710433E+03</pdfrwt>
<pdfrwt beam="2">  1       -2 0.60885750E-02 0.41710433E+03</pdfrwt>
<totfact> 0.35634651E+03</totfact>
</mgrwt>
<rwgt>
<wgt id='morphing_basis_vector_1'> +2.8272711e-04 </wgt>
<wgt id='morphing_basis_vector_2'> +1.5296272e-04 </wgt>
<wgt id='morphing_basis_vector_3'> +1.8441759e-04 </wgt>
<wgt id='morphing_basis_vector_4'> +4.4626033e-05 </wgt>
<wgt id='morphing_basis_vector_5'> +4.9662303e-05 </wgt>
</rwgt>
</event>
<event>
 4      1 +3.1894900e-05 3.69414500e+02 7.81860800e-03 9.75133100e-02
        2 -1    0    0  501    0 +0.0000000000e+00 +0.0000000000e+00 +8.1357290779e+02 8.1357290779e+02 0.0000000000e+00 0.0000e+00 -1.0000e+00
       -2 -1    0    0    0  501 -0.0000000000e+00 -0.0000000000e+00 -4.1934494976e+01 4.1934494976e+01 0.0000000000e+00 0.0000e+00 1.0000e+00
      -13  1    1    2    0    0 -1.4582451307e+02 -7.7879400318e+01 +1.9503531825e+02 2.5567316044e+02 0.0000000000e+00 0.0000e+00 1.0000e+00
       13  1    1    2    0    0 +1.4582451307e+02 +7.7879400318e+01 +5.7660309456e+02 5.9983424233e+02 0.0000000000e+00 0.0000e+00 -1.0000e+00
<mgrwt>
<rscale>  0 0.36941450E+03</rscale>
<asrwt>0</asrwt>
<pdfrwt beam="1">  1        2 0.12516505E+00 0.36941450E+03</pdfrwt>
<pdfrwt beam="2">  1       -2 0.64514614E-02 0.36941450E+03</pdfrwt>
<totfact> 0.48952713E+03</totfact>
</mgrwt>
<rwgt>
<wgt id='morphing_basis_vector_1'> +2.0682576e-04 </wgt>
<wgt id='morphing_basis_vector_2'> +1.1370047e-04 </wgt>
<wgt id='morphing_basis_vector_3'> +1.2639627e-04 </wgt>
<wgt id='morphing_basis_vector_4'> +2.4657645e-05 </wgt>
<wgt id='morphing_basis_vector_5'> +1.8188664e-05 </wgt>
</rwgt>
</event>
<event>
 4      1 +3.1894900e-05 3.70299500e+02 7.81860800e-03 9.74844900e-02
        2 -1    0    0  501    0 +0.0000000000e+00 +0.0000000000e+00 +9.1723624555e+02 9.1723624555e+02 0.0000000000e+00 0.0000e+00 1.0000e+00
       -2 -1    0    0    0  501 -0.0000000000e+00 -0.0000000000e+00 -3.7373607888e+01 3.7373607888e+01 0.0000000000e+00 0.0000e+00 -1.0000e+00
      -13  1    1    2    0    0 +7.5686458488e+01 -1.2687188004e+02 +1.5222220124e+02 2.1212381407e+02 0.0000000000e+00 0.0000e+00 -1.0000e+00
       13  1    1    2    0    0 -7.5686458488e+01 +1.2687188004e+02 +7.2764043642e+02 7.4248603937e+02 0.0000000000e+00 0.0000e+00 1.0000e+00
<mgrwt>
<rscale>  0 0.37029949E+03</rscale>
<asrwt>0</asrwt>
<pdfrwt beam="1">  1        2 0.14111325E+00 0.37029949E+03</pdfrwt>
<pdfrwt beam="2">  1       -2 0.57497865E-02 0.37029949E+03</pdfrwt>
<totfact> 0.49933040E+03</totfact>
</mgrwt>
<rwgt>
<wgt id='morphing_basis_vector_1'> +2.0748322e-04 </wgt>
<wgt id='morphing_basis_vector_2'> +1.1261369e-04 </wgt>
<wgt id='morphing_basis_vector_3'> +1.2792482e-04 </wgt>
<wgt id='morphing_basis_vector_4'> +2.4800737e-05 </wgt>
<wgt id='morphing_basis_vector_5'> +1.8567767e-05 </wgt>
</rwgt>
</event>
<event>
 4      1 +3.1894900e-05 4.25578500e+02 7.81860800e-03 9.58377800e-02
        2 -1    0    0  501    0 +0.0000000000e+00 +0.0000000000e+00 +3.5405937803e+02 3.5405937803e+02 0.0000000000e+00 0.0000e+00 -1.0000e+00
       -2 -1    0    0    0  501 -0.0000000000e+00 -0.0000000000e+00 -1.2788609690e+02 1.2788609690e+02 0.0000000000e+00 0.0000e+00 1.0000e+00
      -13  1    1    2    0    0 -1.9424228133e+02 -8.6748719399e+01 +1.1861917278e+02 2.4356911201e+02 0.0000000000e+00 0.0000e+00 1.0000e+00
       13  1    1    2    0    0 +1.9424228133e+02 +8.6748719399e+01 +1.0755410834e+02 2.3837636291e+02 0.0000000000e+00 0.0000e+00 -1.0000e+00
<mgrwt>
<rscale>  0 0.42557853E+03</rscale>
<asrwt>0</asrwt>
<pdfrwt beam="1">  1        2 0.54470673E-01 0.42557853E+03</pdfrwt>
<pdfrwt beam="2">  1       -2 0.19674784E-01 0.42557853E+03</pdfrwt>
<totfact> 0.22182513E+03</totfact>
</mgrwt>
<rwgt>
<wgt id='morphing_basis_vector_1'> +3.0859708e-04 </wgt>
<wgt id='morphing_basis_vector_2'> +1.9229788e-04 </wgt>
<wgt id='morphing_basis_vector_3'> +1.8887508e-04 </wgt>
<wgt id='morphing_basis_vector_4'> +4.8942733e-05 </wgt>
<wgt id='morphing_basis_vector_5'> +5.8032434e-05 </wgt>
</rwgt>
</event>
<event>
 4      1 +3.1894900e-05 4.29923300e+02 7.81860800e-03 9.57197400e-02
        2 -1    0    0  501    0 +0.0000000000e+00 +0.0000000000e+00 +5.0112585910e+01 5.0112585910e+01 0.0000000000e+00 0.0000e+00 1.0000e+00
       -2 -1    0    0    0  501 -0.0000000000e+00 -0.0000000000e+00 -9.2209393707e+02 9.2209393707e+02 0.0000000000e+00 0.0000e+00 -1.0000e+00
      -13  1    1    2    0    0 +5.7077612246e+01 -1.8716013652e+02 -6.3726012916e+02 6.6662376401e+02 0.0000000000e+00 0.0000e+00 -1.0000e+00
       13  1    1    2    0    0 -5.7077612246e+01 +1.8716013652e+02 -2.3472122200e+02 3.0558275897e+02 0.0000000000e+00 0.0000e+00 1.0000e+00
<mgrwt>
<rscale>  0 0.42992330E+03</rscale>
<asrwt>0</asrwt>
<pdfrwt beam="1">  1        2 0.77096281E-02 0.42992330E+03</pdfrwt>
<pdfrwt beam="2">  1       -2 0.14186061E+00 0.42992330E+03</pdfrwt>
<totfact> 0.40436733E+02</totfact>
</mgrwt>
<rwgt>
<wgt id='morphing_basis_vector_1'> +3.0855251e-04 </wgt>
<wgt id='morphing_basis_vector_2'> +1.7078557e-04 </wgt>
<wgt id='morphing_basis_vector_3'> +2.0240105e-04 </wgt>
<wgt id='morphing_basis_vector_4'> +5.2147032e-05 </wgt>
<wgt id='morphing_basis_vector_5'> +6.1770151e-05 </wgt>
</rwgt>
</event>
<event>
 4      1 +3.1894900e-05 4.01310600e+02 7.81860800e-03 9.65257700e-02
        2 -1    0    0  501    0 +0.0000000000e+00 +0.0000000000e+00 +9.8929046358e+01 9.8929046358e+01 0.0000000000e+00 0.0000e+00 1.0000e+00
       -2 -1    0    0    0  501 -0.0000000000e+00 -0.0000000000e+00 -4.0698413176e+02 4.0698413176e+02 0.0000000000e+00 0.0000e+00 -1.0000e+00
      -13  1    1    2    0    0 -6.1672405855e+00 -9.7857120366e+01 -3.7472634042e+02 3.8734207242e+02 0.0000000000e+00 0.0000e+00 -1.0000e+00
       13  1    1    2    0    0 +6.1672405855e+00 +9.7857120366e+01 +6.6671255012e+01 1.1857110570e+02 0.0000000000e+00 0.0000e+00 1.0000e+00
<mgrwt>
<rscale>  0 0.40131061E+03</rscale>
<asrwt>0</asrwt>
<pdfrwt beam="1">  1        2 0.15219854E-01 0.40131061E+03</pdfrwt>
<pdfrwt beam="2">  1       -2 0.62612942E-01 0.40131061E+03</pdfrwt>
<totfact> 0.11845441E+03</totfact>
</mgrwt>
<rwgt>
<wgt id='morphing_basis_vector_1'> +2.5464943e-04 </wgt>
<wgt id='morphing_basis_vector_2'> +1.3680293e-04 </wgt>
<wgt id='morphing_basis_vector_3'> +1.6347640e-04 </wgt>
<wgt id='morphing_basis_vector_4'> +3.6577895e-05 </wgt>
<wgt id='morphing_basis_vector_5'> +3.7025575e-05 </wgt>
</rwgt>
</event>
<event>
 4      1 +3.1894900e-05 3.83741700e+02 7.81860800e-03 9.70570200e-02
        2 -1    0    0  501    0 +0.0000000000e+00 +0.0000000000e+00 +6.3203310331e+02 6.3203310331e+02 0.0000000000e+00 0.0000e+00 -1.0000e+00
       -2 -1    0    0    0  501 -0.0000000000e+00 -0.0000000000e+00 -5.8247606348e+01 5.8247606348e+01 0.0000000000e+00 0.0000e+00 1.0000e+00
      -13  1    1    2    0    0 -1.4036998742e+01 +1.1279843888e+02 +8.8380619722e+00 1.1401156295e+02 0.0000000000e+00 0.0000e+00 1.0000e+00
       13  1    1    2    0    0 +1.4036998742e+01 -1.1279843888e+02 +5.6494743499e+02 5.7626914671e+02 0.0000000000e+00 0.0000e+00 -1.0000e+00
<mgrwt>
<rscale>  0 0.38374166E+03</rscale>
<asrwt>0</asrwt>
<pdfrwt beam="1">  1        2 0.97235857E-01 0.38374166E+03</pdfrwt>
<pdfrwt beam="2">  1       -2 0.89611706E-02 0.38374166E+03</pdfrwt>
<totfact> 0.40187496E+03</totfact>
</mgrwt>
<rwgt>
<wgt id='morphing_basis_vector_1'> +2.2669074e-04 </wgt>
<wgt id='morphing_basis_vector_2'> +1.2193119e-04 </wgt>
<wgt id='morphing_basis_vector_3'> +1.4251538e-04 </wgt>
<wgt id='morphing_basis_vector_4'> +2.9265531e-05 </wgt>
<wgt id='morphing_basis_vector_5'> +2.5603001e-05 </wgt>
</rwgt>
</event>
<event>
 4      1 +3.1894900e-05 4.14892700e+02 7.81860800e-03 9.61345600e-02
        2 -1    0    0  501    0 +0.0000000000e+00 +0.0000000000e+00 +7.8175553501e+02 7.8175553501e+02 0.0000000000e+00 0.0000e+00 1.0000e+00
       -2 -1    0    0    0  501 -0.0000000000e+00 -0.0000000000e+00 -5.5047887889e+01 5.5047887889e+01 0.0000000000e+00 0.0000e+00 -1.0000e+00
      -13  1    1    2    0    0 -1.8483352366e+02 -9.3446055779e+01 +3.8708103198e+02 4.3900720055e+02 0.0000000000e+00 0.0000e+00 -1.0000e+00
       13  1    1    2    0    0 +1.8483352366e+02 +9.3446055779e+01 +3.3962661513e+02 3.9779622235e+02 0.0000000000e+00 0.0000e+00 1.0000e+00
<mgrwt>
<rscale>  0 0.41489271E+03</rscale>
<asrwt>0</asrwt>
<pdfrwt beam="1">  1        2 0.12027007E+00 0.41489271E+03</pdfrwt>
<pdfrwt beam="2">  1       -2 0.84689064E-02 0.41489271E+03</pdfrwt>
<totfact> 0.34020801E+03</totfact>
</mgrwt>
<rwgt>
<wgt id='morphing_basis_vector_1'> +2.8911149e-04 </wgt>
<wgt id='morphing_basis_vector_2'> +1.8273663e-04 </wgt>
<wgt id='morphing_basis_vector_3'> +1.7231185e-04 </wgt>
<wgt id='morphing_basis_vector_4'> +4.3309069e-05 </wgt>
<wgt id='morphing_basis_vector_5'> +4.8414217e-05 </wgt>
</rwgt>
</event>
<event>
 4      1 +3.1894900e-05 3.86488800e+02 7.81860800e-03 9.69719700e-02
        2 -1    0    0  501    0 +0.0000000000e+00 +0.0000000000e+00 +9.8877397611e+02 9.8877397611e+02 0.0000000000e+00 0.0000e+00 -1.0000e+00
       -2 -1    0    0    0  501 -0.0000000000e+00 -0.0000000000e+00 -3.7767369948e+01 3.7767369948e+01 0.0000000000e+00 0.0000e+00 1.0000e+00
      -13  1    1    2    0    0 +1.6476224501e+02 +6.0938124284e+00 +2.0778432050e+02 2.6525092983e+02 0.0000000000e+00 0.0000e+00 1.0000e+00
       13  1    1    2    0    0 -1.6476224501e+02 -6.0938124284e+00 +7.4322228566e+02 7.6129041623e+02 0.0000000000e+00 0.0000e+00 -1.0000e+00
<mgrwt>
<rscale>  0 0.38648877E+03</rscale>
<asrwt>0</asrwt>
<pdfrwt beam="1">  1        2 0.15211905E+00 0.38648877E+03</pdfrwt>
<pdfrwt beam="2">  1       -2 0.58103654E-02 0.38648877E+03</pdfrwt>
<totfact> 0.44435991E+03</totfact>
</mgrwt>
<rwgt>
<wgt id='morphing_basis_vector_1'> +2.3156102e-04 </wgt>
<wgt id='morphing_basis_vector_2'> +1.2623012e-04 </wgt>
<wgt id='morphing_basis_vector_3'> +1.4491199e-04 </wgt>
<wgt id='morphing_basis_vector_4'> +3.0390960e-05 </wgt>
<wgt id='morphing_basis_vector_5'> +2.7264336e-05 </wgt>
</rwgt>
</event>
<event>
 4      1 +3.1894900e-05 3.72813600e+02 7.81860800e-03 9.74030700e-02
        2 -1    0    0  501    0 +0.0000000000e+00 +0.0000000000e+00 +7.0583487652e+02 7.0583487652e+02 0.0000000000e+00 0.0000e+00 -1.0000e+00
       -2 -1    0    0    0  501 -0.0000000000e+00 -0.0000000000e+00 -4.9228939601e+01 4.9228939601e+01 0.0000000000e+00 0.0000e+00 1.0000e+00
      -13  1    1    2    0    0 +1.6068105936e+00 +1.8413386055e+02 +2.6961636712e+02 3.2649784970e+02 0.0000000000e+00 0.0000e+00 1.0000e+00
       13  1    1    2    0    0 -1.6068105936e+00 -1.8413386055e+02 +3.8698956979e+02 4.2856596642e+02 0.0000000000e+00 0.0000e+00 -1.0000e+00
<mgrwt>
<rscale>  0 0.37281364E+03</rscale>
<asrwt>0</asrwt>
<pdfrwt beam="1">  1        2 0.10858997E+00 0.37281364E+03</pdfrwt>
<pdfrwt beam="2">  1       -2 0.75736835E-02 0.37281364E+03</pdfrwt>
<totfact> 0.45643494E+03</totfact>
</mgrwt>
<rwgt>
<wgt id='morphing_basis_vector_1'> +2.1419505e-04 </wgt>
<wgt id='morphing_basis_vector_2'> +1.2407489e-04 </wgt>
<wgt id='morphing_basis_vector_3'> +1.2698647e-04 </wgt>
<wgt id='morphing_basis_vector_4'> +2.6210378e-05 </wgt>
<wgt id='morphing_basis_vector_5'> +1.9992597e-05 </wgt>
</rwgt>
</event>
<event>
 4      1 +3.1894900e-05 4.04436800e+02 7.81860800e-03 9.64342800e-02
        2 -1    0    0  501    0 +0.0000000000e+00 +0.0000000000e+00 +1.7570860906e+03 1.7570860906e+03 0.0000000000e+00 0.0000e+00 -1.0000e+00
       -2 -1    0    0    0  501 -0.0000000000e+00 -0.0000000000e+00 -2.3272783053e+01 2.3272783053e+01 0.0000000000e+00 0.0000e+00 1.0000e+00
      -13  1    1    2    0    0 -8.9828892339e+01 +1.7437298913e+02 +1.0833306729e+03 1.1009452829e+03 0.0000000000e+00 0.0000e+00 1.0000e+00
       13  1    1    2    0    0 +8.9828892339e+01 -1.7437298913e+02 +6.5048263466e+02 6.7941359070e+02 0.0000000000e+00 0.0000e+00 -1.0000e+00
<mgrwt>
<rscale>  0 0.40443681E+03</rscale>
<asrwt>0</asrwt>
<pdfrwt beam="1">  1        2 0.27032083E+00 0.40443681E+03</pdfrwt>
<pdfrwt beam="2">  1       -2 0.35804295E-02 0.40443681E+03</pdfrwt>
<totfact> 0.34424463E+03</totfact>
</mgrwt>
<rwgt>
<wgt id='morphing_basis_vector_1'> +2.7906836e-04 </wgt>
<wgt id='morphing_basis_vector_2'> +1.9820638e-04 </wgt>
<wgt id='morphing_basis_vector_3'> +1.4987931e-04 </wgt>
<wgt id='morphing_basis_vector_4'> +3.8851154e-05 </wgt>
<wgt id='morphing_basis_vector_5'> +4.0579122e-05 </wgt>
</rwgt>
</event>
<event>
 4      1 +3.1894900e-05 3.69128400e+02 7.81860800e-03 9.75226500e-02
        2 -1    0    0  501    0 +0.0000000000e+00 +0.0000000000e+00 +9.7943985020e+01 9.7943985020e+01 0.0000000000e+00 0.0000e+00 1.0000e+00
       -2 -1    0    0    0  501 -0.0000000000e+00 -0.0000000000e+00 -3.4778998438e+02 3.4778998438e+02 0.0000000000e+00 0.0000e+00 -1.0000e+00
      -13  1    1    2    0    0 +1.1874118082e+02 +1.1295584351e+02 -2.2742415561e+02 2.8032166731e+02 0.0000000000e+00 0.0000e+00 -1.0000e+00
       13  1    1    2    0    0 -1.1874118082e+02 -1.1295584351e+02 -2.2421843746e+01 1.6541230209e+02 0.0000000000e+00 0.0000e+00 1.0000e+00
<mgrwt>
<rscale>  0 0.36912836E+03</rscale>
<asrwt>0</asrwt>
<pdfrwt beam="1">  1        2 0.15068305E-01 0.36912836E+03</pdfrwt>
<pdfrwt beam="2">  1       -2 0.53506152E-01 0.36912836E+03</pdfrwt>
<totfact> 0.16408351E+03</totfact>
</mgrwt>
<rwgt>
<wgt id='morphing_basis_vector_1'> +2.0636019e-04 </wgt>
<wgt id='morphing_basis_vector_2'> +1.1328468e-04 </wgt>
<wgt id='morphing_basis_vector_3'> +1.2618699e-04 </wgt>
<wgt id='morphing_basis_vector_4'> +2.4557998e-05 </wgt>
<wgt id='morphing_basis_vector_5'> +1.8050601e-05 </wgt>
</rwgt>
</event>
<event>
 4      1 +3.1894900e-05 4.08431400e+02 7.81860800e-03 9.63186500e-02
        2 -1    0    0  501    0 +0.0000000000e+00 +0.0000000000e+00 +1.4175886515e+03 1.4175886515e+03 0.0000000000e+00 0.0000e+00 -1.0000e+00
       -2 -1    0    0    0  501 -0.0000000000e+00 -0.0000000000e+00 -2.9419007029e+01 2.9419007029e+01 0.0000000000e+00 0.0000e+00 1.0000e+00
      -13  1    1    2    0    0 +1.6129950029e+00 -1.8295386573e+02 +3.7269360782e+02 4.1518097746e+02 0.0000000000e+00 0.0000e+00 1.0000e+00
       13  1    1    2    0    0 -1.6129950029e+00 +1.8295386573e+02 +1.0154760366e+03 1.0318266810e+03 0.0000000000e+00 0.0000e+00 -1.0000e+00
<mgrwt>
<rscale>  0 0.40843139E+03</rscale>
<asrwt>0</asrwt>
<pdfrwt beam="1">  1        2 0.21809051E+00 0.40843139E+03</pdfrwt>
<pdfrwt beam="2">  1       -2 0.45260022E-02 0.40843139E+03</pdfrwt>
<totfact> 0.36944327E+03</totfact>
</mgrwt>
<rwgt>
<wgt id='morphing_basis_vector_1'> +2.6814773e-04 </wgt>
<wgt id='morphing_basis_vector_2'> +1.4741437e-04 </wgt>
<wgt id='morphing_basis_vector_3'> +1.7158082e-04 </wgt>
<wgt id='morphing_basis_vector_4'> +4.0056815e-05 </wgt>
<wgt id='morphing_basis_vector_5'> +4.2508878e-05 </wgt>
</rwgt>
</event>
<event>
 4      1 +3.1894900e-05 3.86456100e+02 7.81860800e-03 9.69729800e-02
        2 -1    0    0  501    0 +0.0000000000e+00 +0.0000000000e+00 +1.4715769877e+02 1.4715769877e+02 0.0000000000e+00 0.0000e+00 -1.0000e+00
       -2 -1    0    0    0  501 -0.0000000000e+00 -0.0000000000e+00 -2.5372154600e+02 2.5372154600e+02 0.0000000000e+00 0.0000e+00 1.0000e+00
      -13  1    1    2    0    0 -3.0026207493e+01 +8.7016037373e+01 -2.2951585152e+02 2.4728705990e+02 0.0000000000e+00 0.0000e+00 1.0000e+00
       13  1    1    2    0    0 +3.0026207493e+01 -8.7016037373e+01 +1.2295200429e+02 1.5359218487e+02 0.0000000000e+00 0.0000e+00 -1.0000e+00
<mgrwt>
<rscale>  0 0.38645610E+03</rscale>
<asrwt>0</asrwt>
<pdfrwt beam="1">  1        2 0.22639646E-01 0.38645610E+03</pdfrwt>
<pdfrwt beam="2">  1       -2 0.39034084E-01 0.38645610E+03</pdfrwt>
<totfact> 0.18348560E+03</totfact>
</mgrwt>
<rwgt>
<wgt id='morphing_basis_vector_1'> +2.3077454e-04 </wgt>
<wgt id='morphing_basis_vector_2'> +1.2396420e-04 </wgt>
<wgt id='morphing_basis_vector_3'> +1.4562731e-04 </wgt>
<wgt id='morphing_basis_vector_4'> +3.0282195e-05 </wgt>
<wgt id='morphing_basis_vector_5'> +2.7196061e-05 </wgt>
</rwgt>
</event>
<event>
 4      1 +3.1894900e-05 3.79980400e+02 7.81860800e-03 9.71747200e-02
        2 -1    0    0  501    0 +0.0000000000e+00 +0.0000000000e+00 +4.1741246389e+02 4.1741246389e+02 0.0000000000e+00 0.0000e+00 -1.0000e+00
       -2 -1    0    0    0  501 -0.0000000000e+00 -0.0000000000e+00 -8.6476291567e+01 8.6476291567e+01 0.0000000000e+00 0.0000e+00 1.0000e+00
      -13  1    1    2    0    0 -1.7831452523e+02 +5.6344042068e+00 +2.5210626698e+02 3.0884524648e+02 0.0000000000e+00 0.0000e+00 1.0000e+00
       13  1    1    2    0    0 +1.7831452523e+02 -5.6344042068e+00 +7.8829905344e+01 1.9504350898e+02 0.0000000000e+00 0.0000e+00 -1.0000e+00
<mgrwt>
<rscale>  0 0.37998043E+03</rscale>
<asrwt>0</asrwt>
<pdfrwt beam="1">  1        2 0.64217301E-01 0.37998043E+03</pdfrwt>
<pdfrwt beam="2">  1       -2 0.13304045E-01 0.37998043E+03</pdfrwt>
<totfact> 0.34620437E+03</totfact>
</mgrwt>
<rwgt>
<wgt id='morphing_basis_vector_1'> +2.4338741e-04 </wgt>
<wgt id='morphing_basis_vector_2'> +1.8665525e-04 </wgt>
<wgt id='morphing_basis_vector_3'> +1.1475115e-04 </wgt>
<wgt id='morphing_basis_vector_4'> +3.1549010e-05 </wgt>
<wgt id='morphing_basis_vector_5'> +2.4964884e-05 </wgt>
</rwgt>
</event>
<event>
 4      1 +3.1894900e-05 3.97989200e+02 7.81860800e-03 9.66239500e-02
        2 -1    0    0  501    0 +0.0000000000e+00 +0.0000000000e+00 +2.2344682281e+02 2.2344682281e+02 0.0000000000e+00 0.0000e+00 1.0000e+00
       -2 -1    0    0    0  501 -0.0000000000e+00 -0.0000000000e+00 -1.7721827105e+02 1.7721827105e+02 0.0000000000e+00 0.0000e+00 -1.0000e+00
      -13  1    1    2    0    0 -9.7849930819e+01 +1.6545498954e+02 -2.8699198577e+01 1.9435433240e+02 0.0000000000e+00 0.0000e+00 -1.0000e+00
       13  1    1    2    0    0 +9.7849930819e+01 -1.6545498954e+02 +7.4927750340e+01 2.0631076146e+02 0.0000000000e+00 0.0000e+00 1.0000e+00
<mgrwt>
<rscale>  0 0.39798924E+03</rscale>
<asrwt>0</asrwt>
<pdfrwt beam="1">  1        2 0.34376435E-01 0.39798924E+03</pdfrwt>
<pdfrwt beam="2">  1       -2 0.27264349E-01 0.39798924E+03</pdfrwt>
<totfact> 0.21427963E+03</totfact>
</mgrwt>
<rwgt>
<wgt id='morphing_basis_vector_1'> +2.5196113e-04 </wgt>
<wgt id='morphing_basis_vector_2'> +1.4246654e-04 </wgt>
<wgt id='morphing_basis_vector_3'> +1.5660316e-04 </wgt>
<wgt id='morphing_basis_vector_4'> +3.5274494e-05 </wgt>
<wgt id='morphing_basis_vector_5'> +3.4848357e-05 </wgt>
</rwgt>
</event>
<event>
 4      1 +3.1894900e-05 3.86093800e+02 7.81860800e-03 9.69841500e-02
        2 -1    0    0  501    0 +0.0000000000e+00 +0.0000000000e+00 +8.9151233235e+02 8.9151233235e+02 0.0000000000e+00 0.0000e+00 1.0000e+00
       -2 -1    0    0    0  501 -0.0000000000e+00 -0.0000000000e+00 -4.1802124761e+01 4.1802124761e+01 0.0000000000e+00 0.0000e+00 -1.0000e+00
      -13  1    1    2    0    0 +8.7874724009e+00 -1.9283570635e+02 +4.1985385138e+02 4.6210397730e+02 0.0000000000e+00 0.0000e+00 -1.0000e+00
       13  1    1    2    0    0 -8.7874724009e+00 +1.9283570635e+02 +4.2985635621e+02 4.7121047982e+02 0.0000000000e+00 0.0000e+00 1.0000e+00
<mgrwt>
<rscale>  0 0.38609382E+03</rscale>
<asrwt>0</asrwt>
<pdfrwt beam="1">  1        2 0.13715573E+00 0.38609382E+03</pdfrwt>
<pdfrwt beam="2">  1       -2 0.64310968E-02 0.38609382E+03</pdfrwt>
<totfact> 0.43788373E+03</totfact>
</mgrwt>
<rwgt>
<wgt id='morphing_basis_vector_1'> +2.3705412e-04 </wgt>
<wgt id='morphing_basis_vector_2'> +1.4445483e-04 </wgt>
<wgt id='morphing_basis_vector_3'> +1.3821426e-04 </wgt>
<wgt id='morphing_basis_vector_4'> +3.1049931e-05 </wgt>
<wgt id='morphing_basis_vector_5'> +2.7431656e-05 </wgt>
</rwgt>
</event>
<event>
 4      1 +3.1894900e-05 3.69900900e+02 7.81860800e-03 9.74974600e-02
        2 -1    0    0  501    0 +0.0000000000e+00 +0.0000000000e+00 +3.7301733945e+02 3.7301733945e+02 0.0000000000e+00 0.0000e+00 -1.0000e+00
       -2 -1    0    0    0  501 -0.0000000000e+00 -0.0000000000e+00 -9.1702618125e+01 9.1702618125e+01 0.0000000000e+00 0.0000e+00 1.0000e+00
      -13  1    1    2    0    0 -1.5334437498e+02 +1.0047356139e+02 +1.0995457644e+02 2.1377427992e+02 0.0000000000e+00 0.0000e+00 1.0000e+00
       13  1    1    2    0    0 +1.5334437498e+02 -1.0047356139e+02 +1.7136014488e+02 2.5094567765e+02 0.0000000000e+00 0.0000e+00 -1.0000e+00
<mgrwt>
<rscale>  0 0.36990089E+03</rscale>
<asrwt>0</asrwt>
<pdfrwt beam="1">  1        2 0.57387282E-01 0.36990089E+03</pdfrwt>
<pdfrwt beam="2">  1       -2 0.14108095E-01 0.36990089E+03</pdfrwt>
<totfact> 0.35707733E+03</totfact>
</mgrwt>
<rwgt>
<wgt id='morphing_basis_vector_1'> +2.1035790e-04 </wgt>
<wgt id='morphing_basis_vector_2'> +1.2267757e-04 </wgt>
<wgt id='morphing_basis_vector_3'> +1.2369897e-04 </wgt>
<wgt id='morphing_basis_vector_4'> +2.5411619e-05 </wgt>
<wgt id='morphing_basis_vector_5'> +1.8604623e-05 </wgt>
</rwgt>
</event>
<event>
 4      1 +3.1894900e-05 3.72838000e+02 7.81860800e-03 9.74022900e-02
        2 -1    0    0  501    0 +0.0000000000e+00 +0.0000000000e+00 +1.0260719763e+02 1.0260719763e+02 0.0000000000e+00 0.0000e+00 1.0000e+00
       -2 -1    0    0    0  501 -0.0000000000e+00 -0.0000000000e+00 -3.3869010020e+02 3.3869010020e+02 0.0000000000e+00 0.0000e+00 -1.0000e+00
      -13  1    1    2    0    0 -1.6879678311e+02 +4.5240756127e+01 -1.9486686033e+02 2.6174830134e+02 0.0000000000e+00 0.0000e+00 -1.0000e+00
       13  1    1    2    0    0 +1.6879678311e+02 -4.5240756127e+01 -4.1216042245e+01 1.7954899649e+02 0.0000000000e+00 0.0000e+00 1.0000e+00
<mgrwt>
<rscale>  0 0.37283799E+03</rscale>
<asrwt>0</asrwt>
<pdfrwt beam="1">  1        2 0.15785723E-01 0.37283799E+03</pdfrwt>
<pdfrwt beam="2">  1       -2 0.52106170E-01 0.37283799E+03</pdfrwt>
<totfact> 0.16336548E+03</totfact>
</mgrwt>
<rwgt>
<wgt id='morphing_basis_vector_1'> +2.1224880e-04 </wgt>
<wgt id='morphing_basis_vector_2'> +1.1810492e-04 </wgt>
<wgt id='morphing_basis_vector_3'> +1.2918847e-04 </wgt>
<wgt id='morphing_basis_vector_4'> +2.5824162e-05 </wgt>
<wgt id='morphing_basis_vector_5'> +1.9874089e-05 </wgt>
</rwgt>
</event>
<event>
 4      1 +3.1894900e-05 4.23006600e+02 7.81860800e-03 9.59083600e-02
        2 -1    0    0  501    0 +0.0000000000e+00 +0.0000000000e+00 +5.7565950692e+02 5.7565950692e+02 0.0000000000e+00 0.0000e+00 -1.0000e+00
       -2 -1    0    0    0  501 -0.0000000000e+00 -0.0000000000e+00 -7.7708527912e+01 7.7708527912e+01 0.0000000000e+00 0.0000e+00 1.0000e+00
      -13  1    1    2    0    0 +6.7768324130e+01 -1.9348302400e+02 +3.2931488846e+02 3.8791303419e+02 0.0000000000e+00 0.0000e+00 -1.0000e+00
       13  1    1    2    0    0 -6.7768324130e+01 +1.9348302400e+02 +1.6863609056e+02 2.6545500065e+02 0.0000000000e+00 0.0000e+00 1.0000e+00
<mgrwt>
<rscale>  0 0.42300663E+03</rscale>
<asrwt>0</asrwt>
<pdfrwt beam="1">  1        2 0.88562998E-01 0.42300663E+03</pdfrwt>
<pdfrwt beam="2">  1       -2 0.11955158E-01 0.42300663E+03</pdfrwt>
<totfact> 0.28633713E+03</totfact>
</mgrwt>
<rwgt>
<wgt id='morphing_basis_vector_1'> +3.1542100e-04 </wgt>
<wgt id='morphing_basis_vector_2'> +2.2568029e-04 </wgt>
<wgt id='morphing_basis_vector_3'> +1.7529439e-04 </wgt>
<wgt id='morphing_basis_vector_4'> +4.6940830e-05 </wgt>
<wgt id='morphing_basis_vector_5'> +5.6333156e-05 </wgt>
</rwgt>
</event>
<event>
 4      1 +3.1894900e-05 3.71744300e+02 7.81860800e-03 9.74376200e-02
        2 -1    0    0  501    0 +0.0000000000e+00 +0.0000000000e+00 +9.5496174042e+02 9.5496174042e+02 0.0000000000e+00 0.0000e+00 -1.0000e+00
       -2 -1    0    0    0  501 -0.0000000000e+00 -0.0000000000e+00 -3.6177846849e+01 3.6177846849e+01 0.0000000000e+00 0.0000e+00 1.0000e+00
      -13  1    1    2    0    0 -1.0138629237e+02 +1.0282648715e+02 +1.4736849051e+02 2.0632483790e+02 0.0000000000e+00 0.0000e+00 1.0000e+00
       13  1    1    2    0    0 +1.0138629237e+02 -1.0282648715e+02 +7.7141540307e+02 7.8481474937e+02 0.0000000000e+00 0.0000e+00 -1.0000e+00
<mgrwt>
<rscale>  0 0.37174432E+03</rscale>
<asrwt>0</asrwt>
<pdfrwt beam="1">  1        2 0.14691717E+00 0.37174432E+03</pdfrwt>
<pdfrwt beam="2">  1       -2 0.55658233E-02 0.37174432E+03</pdfrwt>
<totfact> 0.49693031E+03</totfact>
</mgrwt>
<rwgt>
<wgt id='morphing_basis_vector_1'> +2.0944555e-04 </wgt>
<wgt id='morphing_basis_vector_2'> +1.1348781e-04 </wgt>
<wgt id='morphing_basis_vector_3'> +1.2945497e-04 </wgt>
<wgt id='morphing_basis_vector_4'> +2.5231527e-05 </wgt>
<wgt id='morphing_basis_vector_5'> +1.9256457e-05 </wgt>
</rwgt>
</event>
<event>
 4      1 +3.1894900e-05 3.71383600e+02 7.81860800e-03 9.74493000e-02
        2 -1    0    0  501    0 +0.0000000000e+00 +0.0000000000e+00 +3.3122222316e+02 3.3122222316e+02 0.0000000000e+00 0.0000e+00 -1.0000e+00
       -2 -1    0    0    0  501 -0.0000000000e+00 -0.0000000000e+00 -1.0410368192e+02 1.0410368192e+02 0.0000000000e+00 0.0000e+00 1.0000e+00
      -13  1    1    2    0    0 -3.9112835322e+01 -1.6291825225e+02 +1.9717448292e+01 1.6870373016e+02 0.0000000000e+00 0.0000e+00 1.0000e+00
       13  1    1    2    0    0 +3.9112835322e+01 +1.6291825225e+02 +2.0740109295e+02 2.6662217492e+02 0.0000000000e+00 0.0000e+00 -1.0000e+00
<mgrwt>
<rscale>  0 0.37138365E+03</rscale>
<asrwt>0</asrwt>
<pdfrwt beam="1">  1        2 0.50957264E-01 0.37138365E+03</pdfrwt>
<pdfrwt beam="2">  1       -2 0.16015951E-01 0.37138365E+03</pdfrwt>
<totfact> 0.33266452E+03</totfact>
</mgrwt>
<rwgt>
<wgt id='morphing_basis_vector_1'> +2.0966736e-04 </wgt>
<wgt id='morphing_basis_vector_2'> +1.1542363e-04 </wgt>
<wgt id='morphing_basis_vector_3'> +1.2828187e-04 </wgt>
<wgt id='morphing_basis_vector_4'> +2.5269869e-05 </wgt>
<wgt id='morphing_basis_vector_5'> +1.9130030e-05 </wgt>
</rwgt>
</event>
<event>
 4      1 +3.1894900e-05 4.20007300e+02 7.81860800e-03 9.59913400e-02
        2 -1    0    0  501    0 +0.0000000000e+00 +0.0000000000e+00 +5.1274382705e+02 5.1274382705e+02 0.0000000000e+00 0.0000e+00 1.0000e+00
       -2 -1    0    0    0  501 -0.0000000000e+00 -0.0000000000e+00 -8.6010868724e+01 8.6010868724e+01 0.0000000000e+00 0.0000e+00 -1.0000e+00
      -13  1    1    2    0    0 +9.7028281504e+01 -1.4383300201e+02 +4.4694690484e+01 1.7916482700e+02 0.0000000000e+00 0.0000e+00 -1.0000e+00
       13  1    1    2    0    0 -9.7028281504e+01 +1.4383300201e+02 +3.8203826784e+02 4.1958986877e+02 0.0000000000e+00 0.0000e+00 1.0000e+00
<mgrwt>
<rscale>  0 0.42000734E+03</rscale>
<asrwt>0</asrwt>
<pdfrwt beam="1">  1        2 0.78883664E-01 0.42000734E+03</pdfrwt>
<pdfrwt beam="2">  1       -2 0.13232442E-01 0.42000734E+03</pdfrwt>
<totfact> 0.27816248E+03</totfact>
</mgrwt>
<rwgt>
<wgt id='morphing_basis_vector_1'> +2.8848555e-04 </wgt>
<wgt id='morphing_basis_vector_2'> +1.5709329e-04 </wgt>
<wgt id='morphing_basis_vector_3'> +1.8827245e-04 </wgt>
<wgt id='morphing_basis_vector_4'> +4.6251320e-05 </wgt>
<wgt id='morphing_basis_vector_5'> +5.2263889e-05 </wgt>
</rwgt>
</event>
<event>
 4      1 +3.1894900e-05 4.26533300e+02 7.81860800e-03 9.58117200e-02
        2 -1    0    0  501    0 +0.0000000000e+00 +0.0000000000e+00 +2.8740781393e+02 2.8740781393e+02 0.0000000000e+00 0.0000e+00 1.0000e+00
       -2 -1    0    0    0  501 -0.0000000000e+00 -0.0000000000e+00 -1.5825131530e+02 1.5825131530e+02 0.0000000000e+00 0.0000e+00 -1.0000e+00
      -13  1    1    2    0    0 -1.0424990127e+02 +1.3712398519e+02 -6.6804473154e+01 1.8475353004e+02 0.0000000000e+00 0.0000e+00 -1.0000e+00
       13  1    1    2    0    0 +1.0424990127e+02 -1.3712398519e+02 +1.9596097178e+02 2.6090559919e+02 0.0000000000e+00 0.0000e+00 1.0000e+00
<mgrwt>
<rscale>  0 0.42653330E+03</rscale>
<asrwt>0</asrwt>
<pdfrwt beam="1">  1        2 0.44216587E-01 0.42653330E+03</pdfrwt>
<pdfrwt beam="2">  1       -2 0.24346356E-01 0.42653330E+03</pdfrwt>
<totfact> 0.19610299E+03</totfact>
</mgrwt>
<rwgt>
<wgt id='morphing_basis_vector_1'> +3.0080792e-04 </wgt>
<wgt id='morphing_basis_vector_2'> +1.6367244e-04 </wgt>
<wgt id='morphing_basis_vector_3'> +1.9805294e-04 </wgt>
<wgt id='morphing_basis_vector_4'> +5.0122196e-05 </wgt>
<wgt id='morphing_basis_vector_5'> +5.8360515e-05 </wgt>
</rwgt>
</event>
<event>
 4      1 +3.1894900e-05 4.25402600e+02 7.81860800e-03 9.58425900e-02
        2 -1    0    0  501    0 +0.0000000000e+00 +0.0000000000e+00 +1.3457614756e+03 1.3457614756e+03 0.0000000000e+00 0.0000e+00 -1.0000e+00
       -2 -1    0    0    0  501 -0.0000000000e+00 -0.0000000000e+00 -3.3618025902e+01 3.3618025902e+01 0.0000000000e+00 0.0000e+00 1.0000e+00
      -13  1    1    2    0    0 +1.7801473533e+02 -1.1366422962e+02 +5.7448874557e+02 6.1208342722e+02 0.0000000000e+00 0.0000e+00 1.0000e+00
       13  1    1    2    0    0 -1.7801473533e+02 +1.1366422962e+02 +7.3765470412e+02 7.6729607427e+02 0.0000000000e+00 0.0000e+00 -1.0000e+00
<mgrwt>
<rscale>  0 0.42540261E+03</rscale>
<asrwt>0</asrwt>
<pdfrwt beam="1">  1        2 0.20704019E+00 0.42540261E+03</pdfrwt>
<pdfrwt beam="2">  1       -2 0.51720050E-02 0.42540261E+03</pdfrwt>
<totfact> 0.33097665E+03</totfact>
</mgrwt>
<rwgt>
<wgt id='morphing_basis_vector_1'> +3.0403705e-04 </wgt>
<wgt id='morphing_basis_vector_2'> +1.7911929e-04 </wgt>
<wgt id='morphing_basis_vector_3'> +1.9199143e-04 </wgt>
<wgt id='morphing_basis_vector_4'> +4.9102009e-05 </wgt>
<wgt id='morphing_basis_vector_5'> +5.7604875e-05 </wgt>
</rwgt>
</event>
<event>
 4      1 +3.1894900e-05 3.68619900e+02 7.81860800e-03 9.75392700e-02
        2 -1    0    0  501    0 +0.0000000000e+00 +0.0000000000e+00 +6.4620040475e+02 6.4620040475e+02 0.0000000000e+00 0.0000e+00 -1.0000e+00
       -2 -1    0    0    0  501 -0.0000000000e+00 -0.0000000000e+00 -5.2569079146e+01 5.2569079146e+01 0.0000000000e+00 0.0000e+00 1.0000e+00
      -13  1    1    2    0    0 -7.8374303556e+01 -1.5388375583e+02 +1.7473579081e+02 2.4567323492e+02 0.0000000000e+00 0.0000e+00 1.0000e+00
       13  1    1    2    0    0 +7.8374303556e+01 +1.5388375583e+02 +4.1889553479e+02 4.5309624897e+02 0.0000000000e+00 0.0000e+00 -1.0000e+00
<mgrwt>
<rscale>  0 0.36861991E+03</rscale>
<asrwt>0</asrwt>
<pdfrwt beam="1">  1        2 0.99415441E-01 0.36861991E+03</pdfrwt>
<pdfrwt beam="2">  1       -2 0.80875511E-02 0.36861991E+03</pdfrwt>
<totfact> 0.45807010E+03</totfact>
</mgrwt>
<rwgt>
<wgt id='morphing_basis_vector_1'> +2.0628609e-04 </wgt>
<wgt id='morphing_basis_vector_2'> +1.1481418e-04 </wgt>
<wgt id='morphing_basis_vector_3'> +1.2497374e-04 </wgt>
<wgt id='morphing_basis_vector_4'> +2.4546425e-05 </wgt>
<wgt id='morphing_basis_vector_5'> +1.7856024e-05 </wgt>
</rwgt>
</event>
<event>
 4      1 +3.1894900e-05 3.67995500e+02 7.81860800e-03 9.75597100e-02
        2 -1    0    0  501    0 +0.0000000000e+00 +0.0000000000e+00 +2.2942475495e+02 2.2942475495e+02 0.0000000000e+00 0.0000e+00 1.0000e+00
       -2 -1    0    0    0  501 -0.0000000000e+00 -0.0000000000e+00 -1.4756545176e+02 1.4756545176e+02 0.0000000000e+00 0.0000e+00 -1.0000e+00
      -13  1    1    2    0    0 +1.7120276532e+02 -3.0411401410e+01 -2.0706784609e+01 1.7511142487e+02 0.0000000000e+00 0.0000e+00 -1.0000e+00
       13  1    1    2    0    0 -1.7120276532e+02 +3.0411401410e+01 +1.0256608781e+02 2.0187878184e+02 0.0000000000e+00 0.0000e+00 1.0000e+00
<mgrwt>
<rscale>  0 0.36799548E+03</rscale>
<asrwt>0</asrwt>
<pdfrwt beam="1">  1        2 0.35296116E-01 0.36799548E+03</pdfrwt>
<pdfrwt beam="2">  1       -2 0.22702377E-01 0.36799548E+03</pdfrwt>
<totfact> 0.28292450E+03</totfact>
</mgrwt>
<rwgt>
<wgt id='morphing_basis_vector_1'> +2.0557908e-04 </wgt>
<wgt id='morphing_basis_vector_2'> +1.1482621e-04 </wgt>
<wgt id='morphing_basis_vector_3'> +1.2417857e-04 </wgt>
<wgt id='morphing_basis_vector_4'> +2.4400307e-05 </wgt>
<wgt id='morphing_basis_vector_5'> +1.7578994e-05 </wgt>
</rwgt>
</event>
<event>
 4      1 +3.1894900e-05 3.97507000e+02 7.81860800e-03 9.66382900e-02
        2 -1    0    0  501    0 +0.0000000000e+00 +0.0000000000e+00 +1.1040916558e+03 1.1040916558e+03 0.0000000000e+00 0.0000e+00 -1.0000e+00
       -2 -1    0    0    0  501 -0.0000000000e+00 -0.0000000000e+00 -3.5778698607e+01 3.5778698607e+01 0.0000000000e+00 0.0000e+00 1.0000e+00
      -13  1    1    2    0    0 -1.8653033140e+02 +6.3376031092e+01 +4.5867530911e+02 4.9919247294e+02 0.0000000000e+00 0.0000e+00 1.0000e+00
       13  1    1    2    0    0 +1.8653033140e+02 -6.3376031092e+01 +6.0963764807e+02 6.4067788146e+02 0.0000000000e+00 0.0000e+00 -1.0000e+00
<mgrwt>
<rscale>  0 0.39750704E+03</rscale>
<asrwt>0</asrwt>
<pdfrwt beam="1">  1        2 0.16986023E+00 0.39750704E+03</pdfrwt>
<pdfrwt beam="2">  1       -2 0.55044160E-02 0.39750704E+03</pdfrwt>
<totfact> 0.41213017E+03</totfact>
</mgrwt>
<rwgt>
<wgt id='morphing_basis_vector_1'> +2.5303076e-04 </wgt>
<wgt id='morphing_basis_vector_2'> +1.4772384e-04 </wgt>
<wgt id='morphing_basis_vector_3'> +1.5421211e-04 </wgt>
<wgt id='morphing_basis_vector_4'> +3.5208165e-05 </wgt>
<wgt id='morphing_basis_vector_5'> +3.4635554e-05 </wgt>
</rwgt>
</event>
<event>
 4      1 +3.1894900e-05 4.04552400e+02 7.81860800e-03 9.64309100e-02
        2 -1    0    0  501    0 +0.0000000000e+00 +0.0000000000e+00 +3.8293904905e+02 3.8293904905e+02 0.0000000000e+00 0.0000e+00 -1.0000e+00
       -2 -1    0    0    0  501 -0.0000000000e+00 -0.0000000000e+00 -1.0684639252e+02 1.0684639252e+02 0.0000000000e+00 0.0000e+00 1.0000e+00
      -13  1    1    2    0    0 +3.4574132453e+01 -5.1083441392e+01 -9.5181884557e+01 1.1342169002e+02 0.0000000000e+00 0.0000e+00 1.0000e+00
       13  1    1    2    0    0 -3.4574132453e+01 +5.1083441392e+01 +3.7127454109e+02 3.7636375155e+02 0.0000000000e+00 0.0000e+00 -1.0000e+00
<mgrwt>
<rscale>  0 0.40455237E+03</rscale>
<asrwt>0</asrwt>
<pdfrwt beam="1">  1        2 0.58913699E-01 0.40455237E+03</pdfrwt>
<pdfrwt beam="2">  1       -2 0.16437907E-01 0.40455237E+03</pdfrwt>
<totfact> 0.27219019E+03</totfact>
</mgrwt>
<rwgt>
<wgt id='morphing_basis_vector_1'> +2.6010263e-04 </wgt>
<wgt id='morphing_basis_vector_2'> +1.3966492e-04 </wgt>
<wgt id='morphing_basis_vector_3'> +1.6767327e-04 </wgt>
<wgt id='morphing_basis_vector_4'> +3.8111214e-05 </wgt>
<wgt id='morphing_basis_vector_5'> +3.9424064e-05 </wgt>
</rwgt>
</event>
<event>
 4      1 +3.1894900e-05 3.87289000e+02 7.81860800e-03 9.69473400e-02
        2 -1    0    0  501    0 +0.0000000000e+00 +0.0000000000e+00 +3.6599115176e+02 3.6599115176e+02 0.0000000000e+00 0.0000e+00 -1.0000e+00
       -2 -1    0    0    0  501 -0.0000000000e+00 -0.0000000000e+00 -1.0245654086e+02 1.0245654086e+02 0.0000000000e+00 0.0000e+00 1.0000e+00
      -13  1    1    2    0    0 +1.8971921720e+02 +3.8749048056e+01 +1.3397032214e+02 2.3546319737e+02 0.0000000000e+00 0.0000e+00 1.0000e+00
       13  1    1    2    0    0 -1.8971921720e+02 -3.8749048056e+01 +1.2956428877e+02 2.3298449525e+02 0.0000000000e+00 0.0000e+00 -1.0000e+00
<mgrwt>
<rscale>  0 0.38728897E+03</rscale>
<asrwt>0</asrwt>
<pdfrwt beam="1">  1        2 0.56306330E-01 0.38728897E+03</pdfrwt>
<pdfrwt beam="2">  1       -2 0.15762545E-01 0.38728897E+03</pdfrwt>
<totfact> 0.30591793E+03</totfact>
</mgrwt>
<rwgt>
<wgt id='morphing_basis_vector_1'> +2.3948391e-04 </wgt>
<wgt id='morphing_basis_vector_2'> +1.4723964e-04 </wgt>
<wgt id='morphing_basis_vector_3'> +1.3902119e-04 </wgt>
<wgt id='morphing_basis_vector_4'> +3.1544858e-05 </wgt>
<wgt id='morphing_basis_vector_5'> +2.8188926e-05 </wgt>
</rwgt>
</event>
<event>
 4      1 +3.1894900e-05 3.73308100e+02 7.81860800e-03 9.73871400e-02
        2 -1    0    0  501    0 +0.0000000000e+00 +0.0000000000e+00 +4.4752181759e+02 4.4752181759e+02 0.0000000000e+00 0.0000e+00 -1.0000e+00
       -2 -1    0    0    0  501 -0.0000000000e+00 -0.0000000000e+00 -7.7850375101e+01 7.7850375101e+01 0.0000000000e+00 0.0000e+00 1.0000e+00
      -13  1    1    2    0    0 +1.2882214496e+02 -1.3205867260e+02 +1.4490331917e+02 2.3458817095e+02 0.0000000000e+00 0.0000e+00 1.0000e+00
       13  1    1    2    0    0 -1.2882214496e+02 +1.3205867260e+02 +2.2476812332e+02 2.9078402174e+02 0.0000000000e+00 0.0000e+00 -1.0000e+00
<mgrwt>
<rscale>  0 0.37330814E+03</rscale>
<asrwt>0</asrwt>
<pdfrwt beam="1">  1        2 0.68849509E-01 0.37330814E+03</pdfrwt>
<pdfrwt beam="2">  1       -2 0.11976981E-01 0.37330814E+03</pdfrwt>
<totfact> 0.37802537E+03</totfact>
</mgrwt>
<rwgt>
<wgt id='morphing_basis_vector_1'> +2.1495908e-04 </wgt>
<wgt id='morphing_basis_vector_2'> +1.2463499e-04 </wgt>
<wgt id='morphing_basis_vector_3'> +1.2743497e-04 </wgt>
<wgt id='morphing_basis_vector_4'> +2.6371344e-05 </wgt>
<wgt id='morphing_basis_vector_5'> +2.0241404e-05 </wgt>
</rwgt>
</event>
<event>
 4      1 +3.1894900e-05 4.12961400e+02 7.81860800e-03 9.61892100e-02
        2 -1    0    0  501    0 +0.0000000000e+00 +0.0000000000e+00 +3.0680764194e+02 3.0680764194e+02 0.0000000000e+00 0.0000e+00 1.0000e+00
       -2 -1    0    0    0  501 -0.0000000000e+00 -0.0000000000e+00 -1.3896092016e+02 1.3896092016e+02 0.0000000000e+00 0.0000e+00 -1.0000e+00
      -13  1    1    2    0    0 +1.9752075525e+02 +5.7564241051e+01 +6.5035203923e+01 2.1577226038e+02 0.0000000000e+00 0.0000e+00 -1.0000e+00
       13  1    1    2    0    0 -1.9752075525e+02 -5.7564241051e+01 +1.0281151786e+02 2.2999630172e+02 0.0000000000e+00 0.0000e+00 1.0000e+00
<mgrwt>
<rscale>  0 0.41296136E+03</rscale>
<asrwt>0</asrwt>
<pdfrwt beam="1">  1        2 0.47201176E-01 0.41296136E+03</pdfrwt>
<pdfrwt beam="2">  1       -2 0.21378603E-01 0.41296136E+03</pdfrwt>
<totfact> 0.22654172E+03</totfact>
</mgrwt>
<rwgt>
<wgt id='morphing_basis_vector_1'> +2.8116705e-04 </wgt>
<wgt id='morphing_basis_vector_2'> +1.6712813e-04 </wgt>
<wgt id='morphing_basis_vector_3'> +1.7340471e-04 </wgt>
<wgt id='morphing_basis_vector_4'> +4.2374284e-05 </wgt>
<wgt id='morphing_basis_vector_5'> +4.6505511e-05 </wgt>
</rwgt>
</event>
<event>
 4      1 +3.1894900e-05 3.72812100e+02 7.81860800e-03 9.74031200e-02
        2 -1    0    0  501    0 +0.0000000000e+00 +0.0000000000e+00 +8.2545382486e+01 8.2545382486e+01 0.0000000000e+00 0.0000e+00 -1.0000e+00
       -2 -1    0    0    0  501 -0.0000000000e+00 -0.0000000000e+00 -4.2094677136e+02 4.2094677136e+02 0.0000000000e+00 0.0000e+00 1.0000e+00
      -13  1    1    2    0    0 -7.9160888052e+01 +4.2191554034e+01 -3.8988098848e+02 4.0006719262e+02 0.0000000000e+00 0.0000e+00 1.0000e+00
       13  1    1    2    0    0 +7.9160888052e+01 -4.2191554034e+01 +5.1479599609e+01 1.0342496123e+02 0.0000000000e+00 0.0000e+00 -1.0000e+00
<mgrwt>
<rscale>  0 0.37281208E+03</rscale>
<asrwt>0</asrwt>
<pdfrwt beam="1">  1        2 0.12699290E-01 0.37281208E+03</pdfrwt>
<pdfrwt beam="2">  1       -2 0.64761041E-01 0.37281208E+03</pdfrwt>
<totfact> 0.13794667E+03</totfact>
</mgrwt>
<rwgt>
<wgt id='morphing_basis_vector_1'> +2.1062355e-04 </wgt>
<wgt id='morphing_basis_vector_2'> +1.1328313e-04 </wgt>
<wgt id='morphing_basis_vector_3'> +1.3090755e-04 </wgt>
<wgt id='morphing_basis_vector_4'> +2.5500346e-05 </wgt>
<wgt id='morphing_basis_vector_5'> +1.9756647e-05 </wgt>
</rwgt>
</event>
<event>
 4      1 +3.1894900e-05 4.09031000e+02 7.81860800e-03 9.63014100e-02
        2 -1    0    0  501    0 +0.0000000000e+00 +0.0000000000e+00 +5.3574374355e+02 5.3574374355e+02 0.0000000000e+00 0.0000e+00 -1.0000e+00
       -2 -1    0    0    0  501 -0.0000000000e+00 -0.0000000000e+00 -7.8072025616e+01 7.8072025616e+01 0.0000000000e+00 0.0000e+00 1.0000e+00
      -13  1    1    2    0    0 +1.6178753101e+02 -4.4633982277e+01 +5.3450059332e+01 1.7613718065e+02 0.0000000000e+00 0.0000e+00 1.0000e+00
       13  1    1    2    0    0 -1.6178753101e+02 +4.4633982277e+01 +4.0422165860e+02 4.3767858851e+02 0.0000000000e+00 0.0000e+00 -1.0000e+00
<mgrwt>
<rscale>  0 0.40903105E+03</rscale>
<asrwt>0</asrwt>
<pdfrwt beam="1">  1        2 0.82422112E-01 0.40903105E+03</pdfrwt>
<pdfrwt beam="2">  1       -2 0.12011081E-01 0.40903105E+03</pdfrwt>
<totfact> 0.30830706E+03</totfact>
</mgrwt>
<rwgt>
<wgt id='morphing_basis_vector_1'> +2.6853448e-04 </wgt>
<wgt id='morphing_basis_vector_2'> +1.4595433e-04 </wgt>
<wgt id='morphing_basis_vector_3'> +1.7298176e-04 </wgt>
<wgt id='morphing_basis_vector_4'> +4.0344413e-05 </wgt>
<wgt id='morphing_basis_vector_5'> +4.2942138e-05 </wgt>
</rwgt>
</event>
<event>
 4      1 +3.1894900e-05 3.96354000e+02 7.81860800e-03 9.66726600e-02
        2 -1    0    0  501    0 +0.0000000000e+00 +0.0000000000e+00 +1.2732316455e+03 1.2732316455e+03 0.0000000000e+00 0.0000e+00 1.0000e+00
       -2 -1    0    0    0  501 -0.0000000000e+00 -0.0000000000e+00 -3.0846020494e+01 3.0846020494e+01 0.0000000000e+00 0.0000e+00 -1.0000e+00
      -13  1    1    2    0    0 +2.4222687051e+01 -1.6837431647e+02 +2.8666862245e+02 3.3333998876e+02 0.0000000000e+00 0.0000e+00 -1.0000e+00
       13  1    1    2    0    0 -2.4222687051e+01 +1.6837431647e+02 +9.5571700260e+02 9.7073767727e+02 0.0000000000e+00 0.0000e+00 1.0000e+00
<mgrwt>
<rscale>  0 0.39635403E+03</rscale>
<asrwt>0</asrwt>
<pdfrwt beam="1">  1        2 0.19588175E+00 0.39635403E+03</pdfrwt>
<pdfrwt beam="2">  1       -2 0.47455426E-02 0.39635403E+03</pdfrwt>
<totfact> 0.41303315E+03</totfact>
</mgrwt>
<rwgt>
<wgt id='morphing_basis_vector_1'> +2.4727993e-04 </wgt>
<wgt id='morphing_basis_vector_2'> +1.3490409e-04 </wgt>
<wgt id='morphing_basis_vector_3'> +1.5649952e-04 </wgt>
<wgt id='morphing_basis_vector_4'> +3.4412397e-05 </wgt>
<wgt id='morphing_basis_vector_5'> +3.3589703e-05 </wgt>
</rwgt>
</event>
<event>
 4      1 +3.1894900e-05 3.60486400e+02 7.81860800e-03 9.78090600e-02
        2 -1    0    0  501    0 +0.0000000000e+00 +0.0000000000e+00 +6.5707874689e+02 6.5707874689e+02 0.0000000000e+00 0.0000e+00 1.0000e+00
       -2 -1    0    0    0  501 -0.0000000000e+00 -0.0000000000e+00 -4.9442482948e+01 4.9442482948e+01 0.0000000000e+00 0.0000e+00 -1.0000e+00
      -13  1    1    2    0    0 +1.6830755239e+02 -3.9316888649e+01 +2.0360638376e+02 2.6707453909e+02 0.0000000000e+00 0.0000e+00 1.0000e+00
       13  1    1    2    0    0 -1.6830755239e+02 +3.9316888649e+01 +4.0402988018e+02 4.3944669074e+02 0.0000000000e+00 0.0000e+00 -1.0000e+00
<mgrwt>
<rscale>  0 0.36048636E+03</rscale>
<asrwt>0</asrwt>
<pdfrwt beam="1">  1        2 0.10108903E+00 0.36048636E+03</pdfrwt>
<pdfrwt beam="2">  1       -2 0.76065363E-02 0.36048636E+03</pdfrwt>
<totfact> 0.49309649E+03</totfact>
</mgrwt>
<rwgt>
<wgt id='morphing_basis_vector_1'> +1.9571239e-04 </wgt>
<wgt id='morphing_basis_vector_2'> +1.1024052e-04 </wgt>
<wgt id='morphing_basis_vector_3'> +1.1665811e-04 </wgt>
<wgt id='morphing_basis_vector_4'> +2.2434090e-05 </wgt>
<wgt id='morphing_basis_vector_5'> +1.4358206e-05 </wgt>
</rwgt>
</event>
<event>
 4      1 +3.1894900e-05 3.90487600e+02 7.81860800e-03 9.68495100e-02
        2 -1    0    0  501    0 +0.0000000000e+00 +0.0000000000e+00 +7.2029017096e+01 7.2029017096e+01 0.0000000000e+00 0.0000e+00 -1.0000e+00
       -2 -1    0    0    0  501 -0.0000000000e+00 -0.0000000000e+00 -5.2923321372e+02 5.2923321372e+02 0.0000000000e+00 0.0000e+00 1.0000e+00
      -13  1    1    2    0    0 -1.8834073201e+02 +2.5264744806e+01 -1.5957613453e+02 2.4814326784e+02 0.0000000000e+00 0.0000e+00 1.0000e+00
       13  1    1    2    0    0 +1.8834073201e+02 -2.5264744806e+01 -2.9762806209e+02 3.5311896297e+02 0.0000000000e+00 0.0000e+00 -1.0000e+00
<mgrwt>
<rscale>  0 0.39048763E+03</rscale>
<asrwt>0</asrwt>
<pdfrwt beam="1">  1        2 0.11081387E-01 0.39048763E+03</pdfrwt>
<pdfrwt beam="2">  1       -2 0.81420493E-01 0.39048763E+03</pdfrwt>
<totfact> 0.10006301E+03</totfact>
</mgrwt>
<rwgt>
<wgt id='morphing_basis_vector_1'> +2.5357140e-04 </wgt>
<wgt id='morphing_basis_vector_2'> +1.7764635e-04 </wgt>
<wgt id='morphing_basis_vector_3'> +1.3376506e-04 </wgt>
<wgt id='morphing_basis_vector_4'> +3.3704235e-05 </wgt>
<wgt id='morphing_basis_vector_5'> +3.0769173e-05 </wgt>
</rwgt>
</event>
<event>
 4      1 +3.1894900e-05 4.29583400e+02 7.81860800e-03 9.57289300e-02
        2 -1    0    0  501    0 +0.0000000000e+00 +0.0000000000e+00 +3.6986440587e+02 3.6986440587e+02 0.0000000000e+00 0.0000e+00 -1.0000e+00
       -2 -1    0    0    0  501 -0.0000000000e+00 -0.0000000000e+00 -1.2473615909e+02 1.2473615909e+02 0.0000000000e+00 0.0000e+00 1.0000e+00
      -13  1    1    2    0    0 +1.5062139062e+02 +8.5492898377e+01 -2.3705417460e+01 1.7480785395e+02 0.0000000000e+00 0.0000e+00 1.0000e+00
       13  1    1    2    0    0 -1.5062139062e+02 -8.5492898377e+01 +2.6883366424e+02 3.1979271101e+02 0.0000000000e+00 0.0000e+00 -1.0000e+00
<mgrwt>
<rscale>  0 0.42958336E+03</rscale>
<asrwt>0</asrwt>
<pdfrwt beam="1">  1        2 0.56902216E-01 0.42958336E+03</pdfrwt>
<pdfrwt beam="2">  1       -2 0.19190179E-01 0.42958336E+03</pdfrwt>
<totfact> 0.22018312E+03</totfact>
</mgrwt>
<rwgt>
<wgt id='morphing_basis_vector_1'> +3.0676852e-04 </wgt>
<wgt id='morphing_basis_vector_2'> +1.6698313e-04 </wgt>
<wgt id='morphing_basis_vector_3'> +2.0273929e-04 </wgt>
<wgt id='morphing_basis_vector_4'> +5.2023618e-05 </wgt>
<wgt id='morphing_basis_vector_5'> +6.1362204e-05 </wgt>
</rwgt>
</event>
<event>
 4      1 +3.1894900e-05 3.96382300e+02 7.81860800e-03 9.66718200e-02
        2 -1    0    0  501    0 +0.0000000000e+00 +0.0000000000e+00 +1.9876687431e+02 1.9876687431e+02 0.0000000000e+00 0.0000e+00 -1.0000e+00
       -2 -1    0    0    0  501 -0.0000000000e+00 -0.0000000000e+00 -1.9761708680e+02 1.9761708680e+02 0.0000000000e+00 0.0000e+00 1.0000e+00
      -13  1    1    2    0    0 +6.5385122667e+01 -1.1819757711e+01 -1.8614710031e+02 1.9765035769e+02 0.0000000000e+00 0.0000e+00 1.0000e+00
       13  1    1    2    0    0 -6.5385122667e+01 +1.1819757711e+01 +1.8729688783e+02 1.9873360342e+02 0.0000000000e+00 0.0000e+00 -1.0000e+00
<mgrwt>
<rscale>  0 0.39638229E+03</rscale>
<asrwt>0</asrwt>
<pdfrwt beam="1">  1        2 0.30579519E-01 0.39638229E+03</pdfrwt>
<pdfrwt beam="2">  1       -2 0.30402628E-01 0.39638229E+03</pdfrwt>
<totfact> 0.20261729E+03</totfact>
</mgrwt>
<rwgt>
<wgt id='morphing_basis_vector_1'> +2.4646730e-04 </wgt>
<wgt id='morphing_basis_vector_2'> +1.3230776e-04 </wgt>
<wgt id='morphing_basis_vector_3'> +1.5736388e-04 </wgt>
<wgt id='morphing_basis_vector_4'> +3.4354702e-05 </wgt>
<wgt id='morphing_basis_vector_5'> +3.3552646e-05 </wgt>
</rwgt>
</event>
<event>
 4      1 +3.1894900e-05 3.90595400e+02 7.81860800e-03 9.68462300e-02
        2 -1    0    0  501    0 +0.0000000000e+00 +0.0000000000e+00 +3.3159397440e+02 3.3159397440e+02 0.0000000000e+00 0.0000e+00 -1.0000e+00
       -2 -1    0    0    0  501 -0.0000000000e+00 -0.0000000000e+00 -1.1502374922e+02 1.1502374922e+02 0.0000000000e+00 0.0000e+00 1.0000e+00
      -13  1    1    2    0    0 -1.2485856790e+02 -7.6973289787e+01 -3.9153432426e+01 1.5181416466e+02 0.0000000000e+00 0.0000e+00 1.0000e+00
       13  1    1    2    0    0 +1.2485856790e+02 +7.6973289787e+01 +2.5572365761e+02 2.9480355897e+02 0.0000000000e+00 0.0000e+00 -1.0000e+00
<mgrwt>
<rscale>  0 0.39059535E+03</rscale>
<asrwt>0</asrwt>
<pdfrwt beam="1">  1        2 0.51014457E-01 0.39059535E+03</pdfrwt>
<pdfrwt beam="2">  1       -2 0.17695962E-01 0.39059535E+03</pdfrwt>
<totfact> 0.28319509E+03</totfact>
</mgrwt>
<rwgt>
<wgt id='morphing_basis_vector_1'> +2.3752279e-04 </wgt>
<wgt id='morphing_basis_vector_2'> +1.2833601e-04 </wgt>
<wgt id='morphing_basis_vector_3'> +1.5010090e-04 </wgt>
<wgt id='morphing_basis_vector_4'> +3.1951631e-05 </wgt>
<wgt id='morphing_basis_vector_5'> +2.9767106e-05 </wgt>
</rwgt>
</event>
<event>
 4      1 +3.1894900e-05 3.71537800e+02 7.81860800e-03 9.74443000e-02
        2 -1    0    0  501    0 +0.0000000000e+00 +0.0000000000e+00 +3.6950544422e+02 3.6950544422e+02 0.0000000000e+00 0.0000e+00 1.0000e+00
       -2 -1    0    0    0  501 -0.0000000000e+00 -0.0000000000e+00 -9.3395308785e+01 9.3395308785e+01 0.0000000000e+00 0.0000e+00 -1.0000e+00
      -13  1    1    2    0    0 +1.4854684069e+02 -1.0300780337e+02 +8.4709033600e+01 1.9963063845e+02 0.0000000000e+00 0.0000e+00 -1.0000e+00
       13  1    1    2    0    0 -1.4854684069e+02 +1.0300780337e+02 +1.9140110183e+02 2.6327011455e+02 0.0000000000e+00 0.0000e+00 1.0000e+00
<mgrwt>
<rscale>  0 0.37153775E+03</rscale>
<asrwt>0</asrwt>
<pdfrwt beam="1">  1        2 0.56846990E-01 0.37153775E+03</pdfrwt>
<pdfrwt beam="2">  1       -2 0.14368509E-01 0.37153775E+03</pdfrwt>
<totfact> 0.35054888E+03</totfact>
</mgrwt>
<rwgt>
<wgt id='morphing_basis_vector_1'> +2.1143783e-04 </wgt>
<wgt id='morphing_basis_vector_2'> +1.2023238e-04 </wgt>
<wgt id='morphing_basis_vector_3'> +1.2671996e-04 </wgt>
<wgt id='morphing_basis_vector_4'> +2.5635743e-05 </wgt>
<wgt id='morphing_basis_vector_5'> +1.9306685e-05 </wgt>
</rwgt>
</event>
<event>
 4      1 +3.1894900e-05 3.98839700e+02 7.81860800e-03 9.65987100e-02
        2 -1    0    0  501    0 +0.0000000000e+00 +0.0000000000e+00 +5.3080273367e+02 5.3080273367e+02 0.0000000000e+00 0.0000e+00 -1.0000e+00
       -2 -1    0    0    0  501 -0.0000000000e+00 -0.0000000000e+00 -7.4921026556e+01 7.4921026556e+01 0.0000000000e+00 0.0000e+00 1.0000e+00
      -13  1    1    2    0    0 +9.2207545648e+01 +4.4487688901e+01 -3.1963096107e+01 1.0725215826e+02 0.0000000000e+00 0.0000e+00 1.0000e+00
       13  1    1    2    0    0 -9.2207545648e+01 -4.4487688901e+01 +4.8784480322e+02 4.9847160197e+02 0.0000000000e+00 0.0000e+00 -1.0000e+00
<mgrwt>
<rscale>  0 0.39883975E+03</rscale>
<asrwt>0</asrwt>
<pdfrwt beam="1">  1        2 0.81661957E-01 0.39883975E+03</pdfrwt>
<pdfrwt beam="2">  1       -2 0.11526312E-01 0.39883975E+03</pdfrwt>
<totfact> 0.33219162E+03</totfact>
</mgrwt>
<rwgt>
<wgt id='morphing_basis_vector_1'> +2.5054417e-04 </wgt>
<wgt id='morphing_basis_vector_2'> +1.3461079e-04 </wgt>
<wgt id='morphing_basis_vector_3'> +1.6035889e-04 </wgt>
<wgt id='morphing_basis_vector_4'> +3.5448471e-05 </wgt>
<wgt id='morphing_basis_vector_5'> +3.5259399e-05 </wgt>
</rwgt>
</event>
<event>
 4      1 +3.1894900e-05 4.21365100e+02 7.81860800e-03 9.59536900e-02
        2 -1    0    0  501    0 +0.0000000000e+00 +0.0000000000e+00 +3.2250803423e+02 3.2250803423e+02 0.0000000000e+00 0.0000e+00 1.0000e+00
       -2 -1    0    0    0  501 -0.0000000000e+00 -0.0000000000e+00 -1.3763111909e+02 1.3763111909e+02 0.0000000000e+00 0.0000e+00 -1.0000e+00
      -13  1    1    2    0    0 +2.0891943766e+02 +2.4356926276e+01 +1.0565823287e+02 2.3538108136e+02 0.0000000000e+00 0.0000e+00 1.0000e+00
       13  1    1    2    0    0 -2.0891943766e+02 -2.4356926276e+01 +7.9218682275e+01 2.2475807196e+02 0.0000000000e+00 0.0000e+00 -1.0000e+00
<mgrwt>
<rscale>  0 0.42136512E+03</rscale>
<asrwt>0</asrwt>
<pdfrwt beam="1">  1        2 0.49616620E-01 0.42136512E+03</pdfrwt>
<pdfrwt beam="2">  1       -2 0.21174018E-01 0.42136512E+03</pdfrwt>
<totfact> 0.21787848E+03</totfact>
</mgrwt>
<rwgt>
<wgt id='morphing_basis_vector_1'> +3.0160107e-04 </wgt>
<wgt id='morphing_basis_vector_2'> +1.9099431e-04 </wgt>
<wgt id='morphing_basis_vector_3'> +1.8152685e-04 </wgt>
<wgt id='morphing_basis_vector_4'> +4.6594518e-05 </wgt>
<wgt id='morphing_basis_vector_5'> +5.4155972e-05 </wgt>
</rwgt>
</event>
<event>
 4      1 +3.1894900e-05 3.67329600e+02 7.81860800e-03 9.75815600e-02
        2 -1    0    0  501    0 +0.0000000000e+00 +0.0000000000e+00 +2.2646508488e+02 2.2646508488e+02 0.0000000000e+00 0.0000e+00 -1.0000e+00
       -2 -1    0    0    0  501 -0.0000000000e+00 -0.0000000000e+00 -1.4895346776e+02 1.4895346776e+02 0.0000000000e+00 0.0000e+00 1.0000e+00
      -13  1    1    2    0    0 +1.5028232503e+02 +7.8903452724e+01 -3.2947739620e+01 1.7290484555e+02 0.0000000000e+00 0.0000e+00 1.0000e+00
       13  1    1    2    0    0 -1.5028232503e+02 -7.8903452724e+01 +1.1045935674e+02 2.0251370709e+02 0.0000000000e+00 0.0000e+00 -1.0000e+00
<mgrwt>
<rscale>  0 0.36732961E+03</rscale>
<asrwt>0</asrwt>
<pdfrwt beam="1">  1        2 0.34840783E-01 0.36732961E+03</pdfrwt>
<pdfrwt beam="2">  1       -2 0.22915918E-01 0.36732961E+03</pdfrwt>
<totfact> 0.28262745E+03</totfact>
</mgrwt>
<rwgt>
<wgt id='morphing_basis_vector_1'> +2.0428341e-04 </wgt>
<wgt id='morphing_basis_vector_2'> +1.1319674e-04 </wgt>
<wgt id='morphing_basis_vector_3'> +1.2394886e-04 </wgt>
<wgt id='morphing_basis_vector_4'> +2.4124239e-05 </wgt>
<wgt id='morphing_basis_vector_5'> +1.7250974e-05 </wgt>
</rwgt>
</event>
<event>
 4      1 +3.1894900e-05 4.03567900e+02 7.81860800e-03 9.64596200e-02
        2 -1    0    0  501    0 +0.0000000000e+00 +0.0000000000e+00 +1.5082714689e+02 1.5082714689e+02 0.0000000000e+00 0.0000e+00 1.0000e+00
       -2 -1    0    0    0  501 -0.0000000000e+00 -0.0000000000e+00 -2.6995648095e+02 2.6995648095e+02 0.0000000000e+00 0.0000e+00 -1.0000e+00
      -13  1    1    2    0    0 -3.6357901499e+01 -2.8992525702e+01 -2.6429331807e+02 2.6835316566e+02 0.0000000000e+00 0.0000e+00 -1.0000e+00
       13  1    1    2    0    0 +3.6357901499e+01 +2.8992525702e+01 +1.4516398400e+02 1.5243046218e+02 0.0000000000e+00 0.0000e+00 1.0000e+00
<mgrwt>
<rscale>  0 0.40356792E+03</rscale>
<asrwt>0</asrwt>
<pdfrwt beam="1">  1        2 0.23204176E-01 0.40356792E+03</pdfrwt>
<pdfrwt beam="2">  1       -2 0.41531766E-01 0.40356792E+03</pdfrwt>
<totfact> 0.15917257E+03</totfact>
</mgrwt>
<rwgt>
<wgt id='morphing_basis_vector_1'> +2.5842134e-04 </wgt>
<wgt id='morphing_basis_vector_2'> +1.3874502e-04 </wgt>
<wgt id='morphing_basis_vector_3'> +1.6640181e-04 </wgt>
<wgt id='morphing_basis_vector_4'> +3.7638486e-05 </wgt>
<wgt id='morphing_basis_vector_5'> +3.8684731e-05 </wgt>
</rwgt>
</event>
<event>
 4      1 +3.1894900e-05 3.86279400e+02 7.81860800e-03 9.69784300e-02
        2 -1    0    0  501    0 +0.0000000000e+00 +0.0000000000e+00 +5.9844850037e+02 5.9844850037e+02 0.0000000000e+00 0.0000e+00 -1.0000e+00
       -2 -1    0    0    0  501 -0.0000000000e+00 -0.0000000000e+00 -6.2332760057e+01 6.2332760057e+01 0.0000000000e+00 0.0000e+00 1.0000e+00
      -13  1    1    2    0    0 -1.0496577441e+02 -1.2190049500e+02 +8.5209159402e+01 1.8203885664e+02 0.0000000000e+00 0.0000e+00 1.0000e+00
       13  1    1    2    0    0 +1.0496577441e+02 +1.2190049500e+02 +4.5090658091e+02 4.7874240379e+02 0.0000000000e+00 0.0000e+00 -1.0000e+00
<mgrwt>
<rscale>  0 0.38627942E+03</rscale>
<asrwt>0</asrwt>
<pdfrwt beam="1">  1        2 0.92068996E-01 0.38627942E+03</pdfrwt>
<pdfrwt beam="2">  1       -2 0.95896558E-02 0.38627942E+03</pdfrwt>
<totfact> 0.38557937E+03</totfact>
</mgrwt>
<rwgt>
<wgt id='morphing_basis_vector_1'> +2.3111316e-04 </wgt>
<wgt id='morphing_basis_vector_2'> +1.2567492e-04 </wgt>
<wgt id='morphing_basis_vector_3'> +1.4480234e-04 </wgt>
<wgt id='morphing_basis_vector_4'> +3.0294706e-05 </wgt>
<wgt id='morphing_basis_vector_5'> +2.7130664e-05 </wgt>
</rwgt>
</event>
<event>
 4      1 +3.1894900e-05 3.66382300e+02 7.81860800e-03 9.76127400e-02
        2 -1    0    0  501    0 +0.0000000000e+00 +0.0000000000e+00 +1.3451074587e+03 1.3451074587e+03 0.0000000000e+00 0.0000e+00 -1.0000e+00
       -2 -1    0    0    0  501 -0.0000000000e+00 -0.0000000000e+00 -2.4948933386e+01 2.4948933386e+01 0.0000000000e+00 0.0000e+00 1.0000e+00
      -13  1    1    2    0    0 +1.5710494878e+02 +4.7632231419e+01 +3.5609883621e+02 3.9211882836e+02 0.0000000000e+00 0.0000e+00 1.0000e+00
       13  1    1    2    0    0 -1.5710494878e+02 -4.7632231419e+01 +9.6405968905e+02 9.7793756368e+02 0.0000000000e+00 0.0000e+00 -1.0000e+00
<mgrwt>
<rscale>  0 0.36638229E+03</rscale>
<asrwt>0</asrwt>
<pdfrwt beam="1">  1        2 0.20693955E+00 0.36638229E+03</pdfrwt>
<pdfrwt beam="2">  1       -2 0.38382985E-02 0.36638229E+03</pdfrwt>
<totfact> 0.51741374E+03</totfact>
</mgrwt>
<rwgt>
<wgt id='morphing_basis_vector_1'> +2.0264284e-04 </wgt>
<wgt id='morphing_basis_vector_2'> +1.1147549e-04 </wgt>
<wgt id='morphing_basis_vector_3'> +1.2341006e-04 </wgt>
<wgt id='morphing_basis_vector_4'> +2.3775911e-05 </wgt>
<wgt id='morphing_basis_vector_5'> +1.6802717e-05 </wgt>
</rwgt>
</event>
<event>
 4      1 +3.1894900e-05 4.14513300e+02 7.81860800e-03 9.61452700e-02
        2 -1    0    0  501    0 +0.0000000000e+00 +0.0000000000e+00 +1.8395695976e+03 1.8395695976e+03 0.0000000000e+00 0.0000e+00 1.0000e+00
       -2 -1    0    0    0  501 -0.0000000000e+00 -0.0000000000e+00 -2.3350741519e+01 2.3350741519e+01 0.0000000000e+00 0.0000e+00 -1.0000e+00
      -13  1    1    2    0    0 +1.9043778749e+02 -8.1731252205e+01 +9.2141546965e+02 9.4443264249e+02 0.0000000000e+00 0.0000e+00 -1.0000e+00
       13  1    1    2    0    0 -1.9043778749e+02 +8.1731252205e+01 +8.9480338647e+02 9.1848769666e+02 0.0000000000e+00 0.0000e+00 1.0000e+00
<mgrwt>
<rscale>  0 0.41451328E+03</rscale>
<asrwt>0</asrwt>
<pdfrwt beam="1">  1        2 0.28301059E+00 0.41451328E+03</pdfrwt>
<pdfrwt beam="2">  1       -2 0.35924232E-02 0.41451328E+03</pdfrwt>
<totfact> 0.30925006E+03</totfact>
</mgrwt>
<rwgt>
<wgt id='morphing_basis_vector_1'> +2.8686799e-04 </wgt>
<wgt id='morphing_basis_vector_2'> +1.7758103e-04 </wgt>
<wgt id='morphing_basis_vector_3'> +1.7310337e-04 </wgt>
<wgt id='morphing_basis_vector_4'> +4.3135772e-05 </wgt>
<wgt id='morphing_basis_vector_5'> +4.7993515e-05 </wgt>
</rwgt>
</event>
<event>
 4      1 +3.1894900e-05 3.83871600e+02 7.81860800e-03 9.70529900e-02
        2 -1    0    0  501    0 +0.0000000000e+00 +0.0000000000e+00 +4.0517661641e+02 4.0517661641e+02 0.0000000000e+00 0.0000e+00 -1.0000e+00
       -2 -1    0    0    0  501 -0.0000000000e+00 -0.0000000000e+00 -9.0921688908e+01 9.0921688908e+01 0.0000000000e+00 0.0000e+00 1.0000e+00
      -13  1    1    2    0    0 +1.8107237119e+02 -6.3051663861e+01 +1.6844028358e+02 2.5521529158e+02 0.0000000000e+00 0.0000e+00 1.0000e+00
       13  1    1    2    0    0 -1.8107237119e+02 +6.3051663861e+01 +1.4581464393e+02 2.4088301374e+02 0.0000000000e+00 0.0000e+00 -1.0000e+00
<mgrwt>
<rscale>  0 0.38387155E+03</rscale>
<asrwt>0</asrwt>
<pdfrwt beam="1">  1        2 0.62334863E-01 0.38387155E+03</pdfrwt>
<pdfrwt beam="2">  1       -2 0.13987952E-01 0.38387155E+03</pdfrwt>
<totfact> 0.33054165E+03</totfact>
</mgrwt>
<rwgt>
<wgt id='morphing_basis_vector_1'> +2.3508702e-04 </wgt>
<wgt id='morphing_basis_vector_2'> +1.4694722e-04 </wgt>
<wgt id='morphing_basis_vector_3'> +1.3415862e-04 </wgt>
<wgt id='morphing_basis_vector_4'> +3.0492044e-05 </wgt>
<wgt id='morphing_basis_vector_5'> +2.6220700e-05 </wgt>
</rwgt>
</event>
<event>
 4      1 +3.1894900e-05 3.71616100e+02 7.81860800e-03 9.74417700e-02
        2 -1    0    0  501    0 +0.0000000000e+00 +0.0000000000e+00 +1.4325797647e+03 1.4325797647e+03 0.0000000000e+00 0.0000e+00 -1.0000e+00
       -2 -1    0    0    0  501 -0.0000000000e+00 -0.0000000000e+00 -2.4099628206e+01 2.4099628206e+01 0.0000000000e+00 0.0000e+00 1.0000e+00
      -13  1    1    2    0    0 +2.4833103081e+01 +1.7825028192e+02 +5.2312801308e+02 5.5322035762e+02 0.0000000000e+00 0.0000e+00 1.0000e+00
       13  1    1    2    0    0 -2.4833103081e+01 -1.7825028192e+02 +8.8535212343e+02 9.0345903530e+02 0.0000000000e+00 0.0000e+00 -1.0000e+00
<mgrwt>
<rscale>  0 0.37161614E+03</rscale>
<asrwt>0</asrwt>
<pdfrwt beam="1">  1        2 0.22039682E+00 0.37161614E+03</pdfrwt>
<pdfrwt beam="2">  1       -2 0.37076362E-02 0.37161614E+03</pdfrwt>
<totfact> 0.48828582E+03</totfact>
</mgrwt>
<rwgt>
<wgt id='morphing_basis_vector_1'> +2.1135976e-04 </wgt>
<wgt id='morphing_basis_vector_2'> +1.1972160e-04 </wgt>
<wgt id='morphing_basis_vector_3'> +1.2700876e-04 </wgt>
<wgt id='morphing_basis_vector_4'> +2.5620593e-05 </wgt>
<wgt id='morphing_basis_vector_5'> +1.9332217e-05 </wgt>
</rwgt>
</event>
<event>
 4      1 +3.1894900e-05 3.69379400e+02 7.81860800e-03 9.75144600e-02
        2 -1    0    0  501    0 +0.0000000000e+00 +0.0000000000e+00 +1.2193226942e+03 1.2193226942e+03 0.0000000000e+00 0.0000e+00 -1.0000e+00
       -2 -1    0    0    0  501 -0.0000000000e+00 -0.0000000000e+00 -2.7974787367e+01 2.7974787367e+01 0.0000000000e+00 0.0000e+00 1.0000e+00
      -13  1    1    2    0    0 -1.0731232144e+02 -1.2751510917e+02 +3.2692602843e+02 3.6695594485e+02 0.0000000000e+00 0.0000e+00 1.0000e+00
       13  1    1    2    0    0 +1.0731232144e+02 +1.2751510917e+02 +8.6442187841e+02 8.8034153672e+02 0.0000000000e+00 0.0000e+00 -1.0000e+00
<mgrwt>
<rscale>  0 0.36937944E+03</rscale>
<asrwt>0</asrwt>
<pdfrwt beam="1">  1        2 0.18758807E+00 0.36937944E+03</pdfrwt>
<pdfrwt beam="2">  1       -2 0.43038144E-02 0.36937944E+03</pdfrwt>
<totfact> 0.51206437E+03</totfact>
</mgrwt>
<rwgt>
<wgt id='morphing_basis_vector_1'> +2.0685311e-04 </wgt>
<wgt id='morphing_basis_vector_2'> +1.1390434e-04 </wgt>
<wgt id='morphing_basis_vector_3'> +1.2627616e-04 </wgt>
<wgt id='morphing_basis_vector_4'> +2.4663651e-05 </wgt>
<wgt id='morphing_basis_vector_5'> +1.8177256e-05 </wgt>
</rwgt>
</event>
<event>
 4      1 +3.1894900e-05 4.15922900e+02 7.81860800e-03 9.61055400e-02
        2 -1    0    0  501    0 +0.0000000000e+00 +0.0000000000e+00 +8.1851833326e+02 8.1851833326e+02 0.0000000000e+00 0.0000e+00 1.0000e+00
       -2 -1    0    0    0  501 -0.0000000000e+00 -0.0000000000e+00 -5.2836880089e+01 5.2836880089e+01 0.0000000000e+00 0.0000e+00 -1.0000e+00
      -13  1    1    2    0    0 +1.4371600261e+02 -1.4707241047e+02 +4.4786558142e+02 4.9281656055e+02 0.0000000000e+00 0.0000e+00 1.0000e+00
       13  1    1    2    0    0 -1.4371600261e+02 +1.4707241047e+02 +3.1781587176e+02 3.7853865281e+02 0.0000000000e+00 0.0000e+00 -1.0000e+00
<mgrwt>
<rscale>  0 0.41592285E+03</rscale>
<asrwt>0</asrwt>
<pdfrwt beam="1">  1        2 0.12592589E+00 0.41592285E+03</pdfrwt>
<pdfrwt beam="2">  1       -2 0.81287514E-02 0.41592285E+03</pdfrwt>
<totfact> 0.34208994E+03</totfact>
</mgrwt>
<rwgt>
<wgt id='morphing_basis_vector_1'> +2.9526190e-04 </wgt>
<wgt id='morphing_basis_vector_2'> +1.9690271e-04 </wgt>
<wgt id='morphing_basis_vector_3'> +1.7015888e-04 </wgt>
<wgt id='morphing_basis_vector_4'> +4.3754084e-05 </wgt>
<wgt id='morphing_basis_vector_5'> +4.9565695e-05 </wgt>
</rwgt>
</event>
<event>
 4      1 +3.1894900e-05 4.11362300e+02 7.81860800e-03 9.62347000e-02
        2 -1    0    0  501    0 +0.0000000000e+00 +0.0000000000e+00 +9.5701287257e+02 9.5701287257e+02 0.0000000000e+00 0.0000e+00 -1.0000e+00
       -2 -1    0    0    0  501 -0.0000000000e+00 -0.0000000000e+00 -4.4204973392e+01 4.4204973392e+01 0.0000000000e+00 0.0000e+00 1.0000e+00
      -13  1    1    2    0    0 +4.6020752444e+01 +1.5103897317e+02 +1.3558897459e+02 2.0812268281e+02 0.0000000000e+00 0.0000e+00 1.0000e+00
       13  1    1    2    0    0 -4.6020752444e+01 -1.5103897317e+02 +7.7721892459e+02 7.9309516315e+02 0.0000000000e+00 0.0000e+00 -1.0000e+00
<mgrwt>
<rscale>  0 0.41136227E+03</rscale>
<asrwt>0</asrwt>
<pdfrwt beam="1">  1        2 0.14723273E+00 0.41136227E+03</pdfrwt>
<pdfrwt beam="2">  1       -2 0.68007658E-02 0.41136227E+03</pdfrwt>
<totfact> 0.36620961E+03</totfact>
</mgrwt>
<rwgt>
<wgt id='morphing_basis_vector_1'> +2.7241460e-04 </wgt>
<wgt id='morphing_basis_vector_2'> +1.4747596e-04 </wgt>
<wgt id='morphing_basis_vector_3'> +1.7635332e-04 </wgt>
<wgt id='morphing_basis_vector_4'> +4.1537112e-05 </wgt>
<wgt id='morphing_basis_vector_5'> +4.4809232e-05 </wgt>
</rwgt>
</event>
<event>
 4      1 +3.1894900e-05 3.94131900e+02 7.81860800e-03 9.67392600e-02
        2 -1    0    0  501    0 +0.0000000000e+00 +0.0000000000e+00 +9.1938179061e+02 9.1938179061e+02 0.0000000000e+00 0.0000e+00 1.0000e+00
       -2 -1    0    0    0  501 -0.0000000000e+00 -0.0000000000e+00 -4.2240327467e+01 4.2240327467e+01 0.0000000000e+00 0.0000e+00 -1.0000e+00
      -13  1    1    2    0    0 -1.4630307617e+02 +1.0398407096e+02 +2.4009073079e+02 2.9976797048e+02 0.0000000000e+00 0.0000e+00 -1.0000e+00
       13  1    1    2    0    0 +1.4630307617e+02 -1.0398407096e+02 +6.3705073235e+02 6.6185414760e+02 0.0000000000e+00 0.0000e+00 1.0000e+00
<mgrwt>
<rscale>  0 0.39413190E+03</rscale>
<asrwt>0</asrwt>
<pdfrwt beam="1">  1        2 0.14144334E+00 0.39413190E+03</pdfrwt>
<pdfrwt beam="2">  1       -2 0.64985126E-02 0.39413190E+03</pdfrwt>
<totfact> 0.41397014E+03</totfact>
</mgrwt>
<rwgt>
<wgt id='morphing_basis_vector_1'> +2.4422755e-04 </wgt>
<wgt id='morphing_basis_vector_2'> +1.3463226e-04 </wgt>
<wgt id='morphing_basis_vector_3'> +1.5325751e-04 </wgt>
<wgt id='morphing_basis_vector_4'> +3.3514761e-05 </wgt>
<wgt id='morphing_basis_vector_5'> +3.2130534e-05 </wgt>
</rwgt>
</event>
<event>
 4      1 +3.1894900e-05 4.29918700e+02 7.81860800e-03 9.57198700e-02
        2 -1    0    0  501    0 +0.0000000000e+00 +0.0000000000e+00 +7.8995876854e+01 7.8995876854e+01 0.0000000000e+00 0.0000e+00 -1.0000e+00
       -2 -1    0    0    0  501 -0.0000000000e+00 -0.0000000000e+00 -5.8493580694e+02 5.8493580694e+02 0.0000000000e+00 0.0000e+00 1.0000e+00
      -13  1    1    2    0    0 -1.2733052368e+02 -1.7318903983e+02 -2.5313336242e+02 3.3209035660e+02 0.0000000000e+00 0.0000e+00 1.0000e+00
       13  1    1    2    0    0 +1.2733052368e+02 +1.7318903983e+02 -2.5280656766e+02 3.3184132719e+02 0.0000000000e+00 0.0000e+00 -1.0000e+00
<mgrwt>
<rscale>  0 0.42991868E+03</rscale>
<asrwt>0</asrwt>
<pdfrwt beam="1">  1        2 0.12153212E-01 0.42991868E+03</pdfrwt>
<pdfrwt beam="2">  1       -2 0.89990124E-01 0.42991868E+03</pdfrwt>
<totfact> 0.71009786E+02</totfact>
</mgrwt>
<rwgt>
<wgt id='morphing_basis_vector_1'> +3.1650533e-04 </wgt>
<wgt id='morphing_basis_vector_2'> +1.9530521e-04 </wgt>
<wgt id='morphing_basis_vector_3'> +1.9619593e-04 </wgt>
<wgt id='morphing_basis_vector_4'> +5.1484393e-05 </wgt>
<wgt id='morphing_basis_vector_5'> +6.2247398e-05 </wgt>
</rwgt>
</event>
<event>
 4      1 +3.1894900e-05 4.23535000e+02 7.81860800e-03 9.58938200e-02
        2 -1    0    0  501    0 +0.0000000000e+00 +0.0000000000e+00 +6.4949241465e+02 6.4949241465e+02 0.0000000000e+00 0.0000e+00 -1.0000e+00
       -2 -1    0    0    0  501 -0.0000000000e+00 -0.0000000000e+00 -6.9046968423e+01 6.9046968423e+01 0.0000000000e+00 0.0000e+00 1.0000e+00
      -13  1    1    2    0    0 +1.0384850405e+02 -6.2925801328e+01 -4.1204441145e+00 1.2149545804e+02 0.0000000000e+00 0.0000e+00 1.0000e+00
       13  1    1    2    0    0 -1.0384850405e+02 +6.2925801328e+01 +5.8456589034e+02 5.9704392503e+02 0.0000000000e+00 0.0000e+00 -1.0000e+00
<mgrwt>
<rscale>  0 0.42353504E+03</rscale>
<asrwt>0</asrwt>
<pdfrwt beam="1">  1        2 0.99921906E-01 0.42353504E+03</pdfrwt>
<pdfrwt beam="2">  1       -2 0.10622611E-01 0.42353504E+03</pdfrwt>
<totfact> 0.29948224E+03</totfact>
</mgrwt>
<rwgt>
<wgt id='morphing_basis_vector_1'> +2.9445903e-04 </wgt>
<wgt id='morphing_basis_vector_2'> +1.5867280e-04 </wgt>
<wgt id='morphing_basis_vector_3'> +1.9401929e-04 </wgt>
<wgt id='morphing_basis_vector_4'> +4.8342263e-05 </wgt>
<wgt id='morphing_basis_vector_5'> +5.5466907e-05 </wgt>
</rwgt>
</event>
<event>
 4      1 +3.1894900e-05 3.67726600e+02 7.81860800e-03 9.75685300e-02
        2 -1    0    0  501    0 +0.0000000000e+00 +0.0000000000e+00 +1.1057239279e+03 1.1057239279e+03 0.0000000000e+00 0.0000e+00 1.0000e+00
       -2 -1    0    0    0  501 -0.0000000000e+00 -0.0000000000e+00 -3.0573371995e+01 3.0573371995e+01 0.0000000000e+00 0.0000e+00 -1.0000e+00
      -13  1    1    2    0    0 -1.1008103249e+02 -1.3814318308e+02 +3.7988116490e+02 4.1894041604e+02 0.0000000000e+00 0.0000e+00 -1.0000e+00
       13  1    1    2    0    0 +1.1008103249e+02 +1.3814318308e+02 +6.9526939102e+02 7.1735688387e+02 0.0000000000e+00 0.0000e+00 1.0000e+00
<mgrwt>
<rscale>  0 0.36772658E+03</rscale>
<asrwt>0</asrwt>
<pdfrwt beam="1">  1        2 0.17011134E+00 0.36772658E+03</pdfrwt>
<pdfrwt beam="2">  1       -2 0.47035965E-02 0.36772658E+03</pdfrwt>
<totfact> 0.52026890E+03</totfact>
</mgrwt>
<rwgt>
<wgt id='morphing_basis_vector_1'> +2.0560943e-04 </wgt>
<wgt id='morphing_basis_vector_2'> +1.1583852e-04 </wgt>
<wgt id='morphing_basis_vector_3'> +1.2346041e-04 </wgt>
<wgt id='morphing_basis_vector_4'> +2.4413020e-05 </wgt>
<wgt id='morphing_basis_vector_5'> +1.7482416e-05 </wgt>
</rwgt>
</event>
<event>
 4      1 +3.1894900e-05 4.26372600e+02 7.81860800e-03 9.58161000e-02
        2 -1    0    0  501    0 +0.0000000000e+00 +0.0000000000e+00 +1.2980046036e+03 1.2980046036e+03 0.0000000000e+00 0.0000e+00 1.0000e+00
       -2 -1    0    0    0  501 -0.0000000000e+00 -0.0000000000e+00 -3.5014046133e+01 3.5014046133e+01 0.0000000000e+00 0.0000e+00 -1.0000e+00
      -13  1    1    2    0    0 -1.5091772428e+02 -1.4676131055e+02 +7.3674700712e+02 7.6623181497e+02 0.0000000000e+00 0.0000e+00 -1.0000e+00
       13  1    1    2    0    0 +1.5091772428e+02 +1.4676131055e+02 +5.2624355031e+02 5.6678683472e+02 0.0000000000e+00 0.0000e+00 1.0000e+00
<mgrwt>
<rscale>  0 0.42637257E+03</rscale>
<asrwt>0</asrwt>
<pdfrwt beam="1">  1        2 0.19969298E+00 0.42637257E+03</pdfrwt>
<pdfrwt beam="2">  1       -2 0.53867773E-02 0.42637257E+03</pdfrwt>
<totfact> 0.33078700E+03</totfact>
</mgrwt>
<rwgt>
<wgt id='morphing_basis_vector_1'> +3.1653625e-04 </wgt>
<wgt id='morphing_basis_vector_2'> +2.1286879e-04 </wgt>
<wgt id='morphing_basis_vector_3'> +1.8500840e-04 </wgt>
<wgt id='morphing_basis_vector_4'> +4.8968766e-05 </wgt>
<wgt id='morphing_basis_vector_5'> +5.9187655e-05 </wgt>
</rwgt>
</event>
<event>
 4      1 +3.1894900e-05 3.73673500e+02 7.81860800e-03 9.73753800e-02
        2 -1    0    0  501    0 +0.0000000000e+00 +0.0000000000e+00 +4.4793050742e+02 4.4793050742e+02 0.0000000000e+00 0.0000e+00 -1.0000e+00
       -2 -1    0    0    0  501 -0.0000000000e+00 -0.0000000000e+00 -7.7931681762e+01 7.7931681762e+01 0.0000000000e+00 0.0000e+00 1.0000e+00
      -13  1    1    2    0    0 +6.6409770986e+01 -1.6487672560e+02 +2.6600511354e+02 3.1992704287e+02 0.0000000000e+00 0.0000e+00 -1.0000e+00
       13  1    1    2    0    0 -6.6409770986e+01 +1.6487672560e+02 +1.0399371212e+02 2.0593514632e+02 0.0000000000e+00 0.0000e+00 1.0000e+00
<mgrwt>
<rscale>  0 0.37367354E+03</rscale>
<asrwt>0</asrwt>
<pdfrwt beam="1">  1        2 0.68912384E-01 0.37367354E+03</pdfrwt>
<pdfrwt beam="2">  1       -2 0.11989490E-01 0.37367354E+03</pdfrwt>
<totfact> 0.37703458E+03</totfact>
</mgrwt>
<rwgt>
<wgt id='morphing_basis_vector_1'> +2.3084849e-04 </wgt>
<wgt id='morphing_basis_vector_2'> +1.7139432e-04 </wgt>
<wgt id='morphing_basis_vector_3'> +1.1100113e-04 </wgt>
<wgt id='morphing_basis_vector_4'> +2.9471421e-05 </wgt>
<wgt id='morphing_basis_vector_5'> +2.1436888e-05 </wgt>
</rwgt>
</event>
<event>
 4      1 +3.1894900e-05 3.62865800e+02 7.81860800e-03 9.77293400e-02
        2 -1    0    0  501    0 +0.0000000000e+00 +0.0000000000e+00 +1.4083727765e+02 1.4083727765e+02 0.0000000000e+00 0.0000e+00 1.0000e+00
       -2 -1    0    0    0  501 -0.0000000000e+00 -0.0000000000e+00 -2.3373004745e+02 2.3373004745e+02 0.0000000000e+00 0.0000e+00 -1.0000e+00
      -13  1    1    2    0    0 +5.6224336260e+01 -6.9486395344e+01 -2.0942504278e+02 2.2770240155e+02 0.0000000000e+00 0.0000e+00 -1.0000e+00
       13  1    1    2    0    0 -5.6224336260e+01 +6.9486395344e+01 +1.1653227298e+02 1.4686492355e+02 0.0000000000e+00 0.0000e+00 1.0000e+00
<mgrwt>
<rscale>  0 0.36286584E+03</rscale>
<asrwt>0</asrwt>
<pdfrwt beam="1">  1        2 0.21667274E-01 0.36286584E+03</pdfrwt>
<pdfrwt beam="2">  1       -2 0.35958469E-01 0.36286584E+03</pdfrwt>
<totfact> 0.22381206E+03</totfact>
</mgrwt>
<rwgt>
<wgt id='morphing_basis_vector_1'> +1.9694671e-04 </wgt>
<wgt id='morphing_basis_vector_2'> +1.0612350e-04 </wgt>
<wgt id='morphing_basis_vector_3'> +1.2112304e-04 </wgt>
<wgt id='morphing_basis_vector_4'> +2.2571227e-05 </wgt>
<wgt id='morphing_basis_vector_5'> +1.5216515e-05 </wgt>
</rwgt>
</event>
<event>
 4      1 +3.1894900e-05 3.73497900e+02 7.81860800e-03 9.73810300e-02
        2 -1    0    0  501    0 +0.0000000000e+00 +0.0000000000e+00 +6.0602892097e+02 6.0602892097e+02 0.0000000000e+00 0.0000e+00 -1.0000e+00
       -2 -1    0    0    0  501 -0.0000000000e+00 -0.0000000000e+00 -5.7547047522e+01 5.7547047522e+01 0.0000000000e+00 0.0000e+00 1.0000e+00
      -13  1    1    2    0    0 -6.7347262102e+00 -9.6939922131e+01 -9.0917804416e+00 9.7597979034e+01 0.0000000000e+00 0.0000e+00 1.0000e+00
       13  1    1    2    0    0 +6.7347262102e+00 +9.6939922131e+01 +5.5757365389e+02 5.6597798946e+02 0.0000000000e+00 0.0000e+00 -1.0000e+00
<mgrwt>
<rscale>  0 0.37349793E+03</rscale>
<asrwt>0</asrwt>
<pdfrwt beam="1">  1        2 0.93235214E-01 0.37349793E+03</pdfrwt>
<pdfrwt beam="2">  1       -2 0.88533923E-02 0.37349793E+03</pdfrwt>
<totfact> 0.42958616E+03</totfact>
</mgrwt>
<rwgt>
<wgt id='morphing_basis_vector_1'> +2.1161103e-04 </wgt>
<wgt id='morphing_basis_vector_2'> +1.1383679e-04 </wgt>
<wgt id='morphing_basis_vector_3'> +1.3159615e-04 </wgt>
<wgt id='morphing_basis_vector_4'> +2.5721786e-05 </wgt>
<wgt id='morphing_basis_vector_5'> +2.0097268e-05 </wgt>
</rwgt>
</event>
<event>
 4      1 +3.1894900e-05 3.65590700e+02 7.81860800e-03 9.76388600e-02
        2 -1    0    0  501    0 +0.0000000000e+00 +0.0000000000e+00 +1.4864419893e+02 1.4864419893e+02 0.0000000000e+00 0.0000e+00 1.0000e+00
       -2 -1    0    0    0  501 -0.0000000000e+00 -0.0000000000e+00 -2.2479274551e+02 2.2479274551e+02 0.0000000000e+00 0.0000e+00 -1.0000e+00
      -13  1    1    2    0    0 +3.3847390933e+01 -1.6006120004e+02 -1.2136510264e+02 2.0370253256e+02 0.0000000000e+00 0.0000e+00 -1.0000e+00
       13  1    1    2    0    0 -3.3847390933e+01 +1.6006120004e+02 +4.5216556063e+01 1.6973441187e+02 0.0000000000e+00 0.0000e+00 1.0000e+00
<mgrwt>
<rscale>  0 0.36559069E+03</rscale>
<asrwt>0</asrwt>
<pdfrwt beam="1">  1        2 0.22868338E-01 0.36559069E+03</pdfrwt>
<pdfrwt beam="2">  1       -2 0.34583499E-01 0.36559069E+03</pdfrwt>
<totfact> 0.22534462E+03</totfact>
</mgrwt>
<rwgt>
<wgt id='morphing_basis_vector_1'> +2.0154944e-04 </wgt>
<wgt id='morphing_basis_vector_2'> +1.1086013e-04 </wgt>
<wgt id='morphing_basis_vector_3'> +1.2265829e-04 </wgt>
<wgt id='morphing_basis_vector_4'> +2.3549222e-05 </wgt>
<wgt id='morphing_basis_vector_5'> +1.6450845e-05 </wgt>
</rwgt>
</event>
<event>
 4      1 +3.1894900e-05 3.83905200e+02 7.81860800e-03 9.70519400e-02
        2 -1    0    0  501    0 +0.0000000000e+00 +0.0000000000e+00 +3.1841021733e+02 3.1841021733e+02 0.0000000000e+00 0.0000e+00 1.0000e+00
       -2 -1    0    0    0  501 -0.0000000000e+00 -0.0000000000e+00 -1.1571802493e+02 1.1571802493e+02 0.0000000000e+00 0.0000e+00 -1.0000e+00
      -13  1    1    2    0    0 -2.1533871587e+01 +1.1030666761e+02 -7.4621251647e+01 1.3490589217e+02 0.0000000000e+00 0.0000e+00 -1.0000e+00
       13  1    1    2    0    0 +2.1533871587e+01 -1.1030666761e+02 +2.7731344405e+02 2.9922235009e+02 0.0000000000e+00 0.0000e+00 1.0000e+00
<mgrwt>
<rscale>  0 0.38390520E+03</rscale>
<asrwt>0</asrwt>
<pdfrwt beam="1">  1        2 0.48986187E-01 0.38390520E+03</pdfrwt>
<pdfrwt beam="2">  1       -2 0.17802773E-01 0.38390520E+03</pdfrwt>
<totfact> 0.29319377E+03</totfact>
</mgrwt>
<rwgt>
<wgt id='morphing_basis_vector_1'> +2.2693339e-04 </wgt>
<wgt id='morphing_basis_vector_2'> +1.2204794e-04 </wgt>
<wgt id='morphing_basis_vector_3'> +1.4270270e-04 </wgt>
<wgt id='morphing_basis_vector_4'> +2.9325466e-05 </wgt>
<wgt id='morphing_basis_vector_5'> +2.5697202e-05 </wgt>
</rwgt>
</event>
<event>
 4      1 +3.1894900e-05 3.63267600e+02 7.81860800e-03 9.77159500e-02
        2 -1    0    0  501    0 +0.0000000000e+00 +0.0000000000e+00 +9.4084812576e+02 9.4084812576e+02 0.0000000000e+00 0.0000e+00 -1.0000e+00
       -2 -1    0    0    0  501 -0.0000000000e+00 -0.0000000000e+00 -3.5064994843e+01 3.5064994843e+01 0.0000000000e+00 0.0000e+00 1.0000e+00
      -13  1    1    2    0    0 +3.2774087402e+01 +1.7626439773e+02 +5.3110272093e+02 5.6054739219e+02 0.0000000000e+00 0.0000e+00 1.0000e+00
       13  1    1    2    0    0 -3.2774087402e+01 -1.7626439773e+02 +3.7468041000e+02 4.1536572842e+02 0.0000000000e+00 0.0000e+00 -1.0000e+00
<mgrwt>
<rscale>  0 0.36326759E+03</rscale>
<asrwt>0</asrwt>
<pdfrwt beam="1">  1        2 0.14474585E+00 0.36326759E+03</pdfrwt>
<pdfrwt beam="2">  1       -2 0.53946153E-02 0.36326759E+03</pdfrwt>
<totfact> 0.53119122E+03</totfact>
</mgrwt>
<rwgt>
<wgt id='morphing_basis_vector_1'> +2.0810496e-04 </wgt>
<wgt id='morphing_basis_vector_2'> +1.3835750e-04 </wgt>
<wgt id='morphing_basis_vector_3'> +1.0926480e-04 </wgt>
<wgt id='morphing_basis_vector_4'> +2.5295345e-05 </wgt>
<wgt id='morphing_basis_vector_5'> +1.6076186e-05 </wgt>
</rwgt>
</event>
<event>
 4      1 +3.1894900e-05 4.15987400e+02 7.81860800e-03 9.61037200e-02
        2 -1    0    0  501    0 +0.0000000000e+00 +0.0000000000e+00 +2.5496825023e+02 2.5496825023e+02 0.0000000000e+00 0.0000e+00 -1.0000e+00
       -2 -1    0    0    0  501 -0.0000000000e+00 -0.0000000000e+00 -1.6967360985e+02 1.6967360985e+02 0.0000000000e+00 0.0000e+00 1.0000e+00
      -13  1    1    2    0    0 -1.4148768990e+02 -7.5669554655e+01 -9.2456986330e+01 1.8518353657e+02 0.0000000000e+00 0.0000e+00 1.0000e+00
       13  1    1    2    0    0 +1.4148768990e+02 +7.5669554655e+01 +1.7775162672e+02 2.3945832351e+02 0.0000000000e+00 0.0000e+00 -1.0000e+00
<mgrwt>
<rscale>  0 0.41598742E+03</rscale>
<asrwt>0</asrwt>
<pdfrwt beam="1">  1        2 0.39225884E-01 0.41598742E+03</pdfrwt>
<pdfrwt beam="2">  1       -2 0.26103632E-01 0.41598742E+03</pdfrwt>
<totfact> 0.19911005E+03</totfact>
</mgrwt>
<rwgt>
<wgt id='morphing_basis_vector_1'> +2.8077154e-04 </wgt>
<wgt id='morphing_basis_vector_2'> +1.5211503e-04 </wgt>
<wgt id='morphing_basis_vector_3'> +1.8275786e-04 </wgt>
<wgt id='morphing_basis_vector_4'> +4.4008064e-05 </wgt>
<wgt id='morphing_basis_vector_5'> +4.8698236e-05 </wgt>
</rwgt>
</event>
<event>
 4      1 +3.1894900e-05 3.97206600e+02 7.81860800e-03 9.66472300e-02
        2 -1    0    0  501    0 +0.0000000000e+00 +0.0000000000e+00 +4.7539123096e+02 4.7539123096e+02 0.0000000000e+00 0.0000e+00 -1.0000e+00
       -2 -1    0    0    0  501 -0.0000000000e+00 -0.0000000000e+00 -8.2970126717e+01 8.2970126717e+01 0.0000000000e+00 0.0000e+00 1.0000e+00
      -13  1    1    2    0    0 +1.8480893071e+02 +6.8734845854e+01 +2.2960789636e+02 3.0265261601e+02 0.0000000000e+00 0.0000e+00 1.0000e+00
       13  1    1    2    0    0 -1.8480893071e+02 -6.8734845854e+01 +1.6281320789e+02 2.5570874167e+02 0.0000000000e+00 0.0000e+00 -1.0000e+00
<mgrwt>
<rscale>  0 0.39720660E+03</rscale>
<asrwt>0</asrwt>
<pdfrwt beam="1">  1        2 0.73137111E-01 0.39720660E+03</pdfrwt>
<pdfrwt beam="2">  1       -2 0.12764635E-01 0.39720660E+03</pdfrwt>
<totfact> 0.32021112E+03</totfact>
</mgrwt>
<rwgt>
<wgt id='morphing_basis_vector_1'> +2.5969946e-04 </wgt>
<wgt id='morphing_basis_vector_2'> +1.6932274e-04 </wgt>
<wgt id='morphing_basis_vector_3'> +1.4694819e-04 </wgt>
<wgt id='morphing_basis_vector_4'> +3.5636121e-05 </wgt>
<wgt id='morphing_basis_vector_5'> +3.4897446e-05 </wgt>
</rwgt>
</event>
<event>
 4      1 +3.1894900e-05 4.02544300e+02 7.81860800e-03 9.64895600e-02
        2 -1    0    0  501    0 +0.0000000000e+00 +0.0000000000e+00 +9.2536712030e+02 9.2536712030e+02 0.0000000000e+00 0.0000e+00 -1.0000e+00
       -2 -1    0    0    0  501 -0.0000000000e+00 -0.0000000000e+00 -4.3777733960e+01 4.3777733960e+01 0.0000000000e+00 0.0000e+00 1.0000e+00
      -13  1    1    2    0    0 +8.6744714260e+01 -1.7362025748e+02 +3.1245099180e+02 3.6782368267e+02 0.0000000000e+00 0.0000e+00 1.0000e+00
       13  1    1    2    0    0 -8.6744714260e+01 +1.7362025748e+02 +5.6913839454e+02 6.0132117159e+02 0.0000000000e+00 0.0000e+00 -1.0000e+00
<mgrwt>
<rscale>  0 0.40254429E+03</rscale>
<asrwt>0</asrwt>
<pdfrwt beam="1">  1        2 0.14236416E+00 0.40254429E+03</pdfrwt>
<pdfrwt beam="2">  1       -2 0.67350367E-02 0.40254429E+03</pdfrwt>
<totfact> 0.38879365E+03</totfact>
</mgrwt>
<rwgt>
<wgt id='morphing_basis_vector_1'> +2.5957675e-04 </wgt>
<wgt id='morphing_basis_vector_2'> +1.4664516e-04 </wgt>
<wgt id='morphing_basis_vector_3'> +1.6239448e-04 </wgt>
<wgt id='morphing_basis_vector_4'> +3.7299988e-05 </wgt>
<wgt id='morphing_basis_vector_5'> +3.8113467e-05 </wgt>
</rwgt>
</event>
<event>
 4      1 +3.1894900e-05 3.87111900e+02 7.81860800e-03 9.69527900e-02
        2 -1    0    0  501    0 +0.0000000000e+00 +0.0000000000e+00 +7.9095917636e+01 7.9095917636e+01 0.0000000000e+00 0.0000e+00 -1.0000e+00
       -2 -1    0    0    0  501 -0.0000000000e+00 -0.0000000000e+00 -4.7365166765e+02 4.7365166765e+02 0.0000000000e+00 0.0000e+00 1.0000e+00
      -13  1    1    2    0    0 +6.0379972157e+01 -1.3726274299e+02 -2.2533050432e+01 1.5163950677e+02 0.0000000000e+00 0.0000e+00 -1.0000e+00
       13  1    1    2    0    0 -6.0379972157e+01 +1.3726274299e+02 -3.7202269958e+02 4.0110807852e+02 0.0000000000e+00 0.0000e+00 1.0000e+00
<mgrwt>
<rscale>  0 0.38711194E+03</rscale>
<asrwt>0</asrwt>
<pdfrwt beam="1">  1        2 0.12168603E-01 0.38711194E+03</pdfrwt>
<pdfrwt beam="2">  1       -2 0.72869486E-01 0.38711194E+03</pdfrwt>
<totfact> 0.11357409E+03</totfact>
</mgrwt>
<rwgt>
<wgt id='morphing_basis_vector_1'> +2.8561788e-04 </wgt>
<wgt id='morphing_basis_vector_2'> +2.8826669e-04 </wgt>
<wgt id='morphing_basis_vector_3'> +9.1544710e-05 </wgt>
<wgt id='morphing_basis_vector_4'> +3.7402415e-05 </wgt>
<wgt id='morphing_basis_vector_5'> +3.1150151e-05 </wgt>
</rwgt>
</event>
<event>
 4      1 +3.1894900e-05 3.93959000e+02 7.81860800e-03 9.67444600e-02
        2 -1    0    0  501    0 +0.0000000000e+00 +0.0000000000e+00 +7.3241053336e+02 7.3241053336e+02 0.0000000000e+00 0.0000e+00 -1.0000e+00
       -2 -1    0    0    0  501 -0.0000000000e+00 -0.0000000000e+00 -5.2977025886e+01 5.2977025886e+01 0.0000000000e+00 0.0000e+00 1.0000e+00
      -13  1    1    2    0    0 +1.6747629363e+02 +1.0018814615e+02 +2.8641109940e+02 3.4657941574e+02 0.0000000000e+00 0.0000e+00 1.0000e+00
       13  1    1    2    0    0 -1.6747629363e+02 -1.0018814615e+02 +3.9302240807e+02 4.3880814350e+02 0.0000000000e+00 0.0000e+00 -1.0000e+00
<mgrwt>
<rscale>  0 0.39395904E+03</rscale>
<asrwt>0</asrwt>
<pdfrwt beam="1">  1        2 0.11267854E+00 0.39395904E+03</pdfrwt>
<pdfrwt beam="2">  1       -2 0.81503122E-02 0.39395904E+03</pdfrwt>
<totfact> 0.39059362E+03</totfact>
</mgrwt>
<rwgt>
<wgt id='morphing_basis_vector_1'> +2.4708935e-04 </wgt>
<wgt id='morphing_basis_vector_2'> +1.4405858e-04 </wgt>
<wgt id='morphing_basis_vector_3'> +1.4997176e-04 </wgt>
<wgt id='morphing_basis_vector_4'> +3.3736083e-05 </wgt>
<wgt id='morphing_basis_vector_5'> +3.2222592e-05 </wgt>
</rwgt>
</event>
<event>
 4      1 +3.1894900e-05 4.15050600e+02 7.81860800e-03 9.61301000e-02
        2 -1    0    0  501    0 +0.0000000000e+00 +0.0000000000e+00 +4.8921924161e+02 4.8921924161e+02 0.0000000000e+00 0.0000e+00 1.0000e+00
       -2 -1    0    0    0  501 -0.0000000000e+00 -0.0000000000e+00 -8.8031599072e+01 8.8031599072e+01 0.0000000000e+00 0.0000e+00 -1.0000e+00
      -13  1    1    2    0    0 +2.0174338920e+02 +4.8582565706e+01 +1.9716124162e+02 2.8623978754e+02 0.0000000000e+00 0.0000e+00 -1.0000e+00
       13  1    1    2    0    0 -2.0174338920e+02 -4.8582565706e+01 +2.0402640092e+02 2.9101105314e+02 0.0000000000e+00 0.0000e+00 1.0000e+00
<mgrwt>
<rscale>  0 0.41505061E+03</rscale>
<asrwt>0</asrwt>
<pdfrwt beam="1">  1        2 0.75264497E-01 0.41505061E+03</pdfrwt>
<pdfrwt beam="2">  1       -2 0.13543323E-01 0.41505061E+03</pdfrwt>
<totfact> 0.28256970E+03</totfact>
</mgrwt>
<rwgt>
<wgt id='morphing_basis_vector_1'> +2.8703212e-04 </wgt>
<wgt id='morphing_basis_vector_2'> +1.7563247e-04 </wgt>
<wgt id='morphing_basis_vector_3'> +1.7457967e-04 </wgt>
<wgt id='morphing_basis_vector_4'> +4.3411971e-05 </wgt>
<wgt id='morphing_basis_vector_5'> +4.8398778e-05 </wgt>
</rwgt>
</event>
<event>
 4      1 +3.1894900e-05 3.62299800e+02 7.81860800e-03 9.77482400e-02
        2 -1    0    0  501    0 +0.0000000000e+00 +0.0000000000e+00 +2.4138564017e+02 2.4138564017e+02 0.0000000000e+00 0.0000e+00 -1.0000e+00
       -2 -1    0    0    0  501 -0.0000000000e+00 -0.0000000000e+00 -1.3594549529e+02 1.3594549529e+02 0.0000000000e+00 0.0000e+00 1.0000e+00
      -13  1    1    2    0    0 +2.0053305205e+01 -8.9998220607e+01 -1.0967694319e+02 1.4328589124e+02 0.0000000000e+00 0.0000e+00 1.0000e+00
       13  1    1    2    0    0 -2.0053305205e+01 +8.9998220607e+01 +2.1511708806e+02 2.3404524421e+02 0.0000000000e+00 0.0000e+00 -1.0000e+00
<mgrwt>
<rscale>  0 0.36229982E+03</rscale>
<asrwt>0</asrwt>
<pdfrwt beam="1">  1        2 0.37136252E-01 0.36229982E+03</pdfrwt>
<pdfrwt beam="2">  1       -2 0.20914692E-01 0.36229982E+03</pdfrwt>
<totfact> 0.30601800E+03</totfact>
</mgrwt>
<rwgt>
<wgt id='morphing_basis_vector_1'> +1.9619803e-04 </wgt>
<wgt id='morphing_basis_vector_2'> +1.0574595e-04 </wgt>
<wgt id='morphing_basis_vector_3'> +1.2058357e-04 </wgt>
<wgt id='morphing_basis_vector_4'> +2.2419147e-05 </wgt>
<wgt id='morphing_basis_vector_5'> +1.4979682e-05 </wgt>
</rwgt>
</event>
<event>
 4      1 +3.1894900e-05 4.18373000e+02 7.81860800e-03 9.60368700e-02
        2 -1    0    0  501    0 +0.0000000000e+00 +0.0000000000e+00 +4.2375494364e+02 4.2375494364e+02 0.0000000000e+00 0.0000e+00 -1.0000e+00
       -2 -1    0    0    0  501 -0.0000000000e+00 -0.0000000000e+00 -1.0326484986e+02 1.0326484986e+02 0.0000000000e+00 0.0000e+00 1.0000e+00
      -13  1    1    2    0    0 +3.8521577864e+01 -6.5646853586e+01 -8.5202242973e+01 1.1424904181e+02 0.0000000000e+00 0.0000e+00 1.0000e+00
       13  1    1    2    0    0 -3.8521577864e+01 +6.5646853586e+01 +4.0569233675e+02 4.1277075168e+02 0.0000000000e+00 0.0000e+00 -1.0000e+00
<mgrwt>
<rscale>  0 0.41837299E+03</rscale>
<asrwt>0</asrwt>
<pdfrwt beam="1">  1        2 0.65193067E-01 0.41837299E+03</pdfrwt>
<pdfrwt beam="2">  1       -2 0.15886900E-01 0.41837299E+03</pdfrwt>
<totfact> 0.25709265E+03</totfact>
</mgrwt>
<rwgt>
<wgt id='morphing_basis_vector_1'> +2.8468614e-04 </wgt>
<wgt id='morphing_basis_vector_2'> +1.5308130e-04 </wgt>
<wgt id='morphing_basis_vector_3'> +1.8655084e-04 </wgt>
<wgt id='morphing_basis_vector_4'> +4.5345943e-05 </wgt>
<wgt id='morphing_basis_vector_5'> +5.0754753e-05 </wgt>
</rwgt>
</event>
<event>
 4      1 +3.1894900e-05 3.66206400e+02 7.81860800e-03 9.76185400e-02
        2 -1    0    0  501    0 +0.0000000000e+00 +0.0000000000e+00 +2.5038114228e+02 2.5038114228e+02 0.0000000000e+00 0.0000e+00 1.0000e+00
       -2 -1    0    0    0  501 -0.0000000000e+00 -0.0000000000e+00 -1.3390299794e+02 1.3390299794e+02 0.0000000000e+00 0.0000e+00 -1.0000e+00
      -13  1    1    2    0    0 +2.1447440205e+01 +6.6483539811e+01 -1.1936955123e+02 1.3830814696e+02 0.0000000000e+00 0.0000e+00 -1.0000e+00
       13  1    1    2    0    0 -2.1447440205e+01 -6.6483539811e+01 +2.3584769557e+02 2.4597599326e+02 0.0000000000e+00 0.0000e+00 1.0000e+00
<mgrwt>
<rscale>  0 0.36620642E+03</rscale>
<asrwt>0</asrwt>
<pdfrwt beam="1">  1        2 0.38520176E-01 0.36620642E+03</pdfrwt>
<pdfrwt beam="2">  1       -2 0.20600461E-01 0.36620642E+03</pdfrwt>
<totfact> 0.30122429E+03</totfact>
</mgrwt>
<rwgt>
<wgt id='morphing_basis_vector_1'> +2.0142723e-04 </wgt>
<wgt id='morphing_basis_vector_2'> +1.0840902e-04 </wgt>
<wgt id='morphing_basis_vector_3'> +1.2434696e-04 </wgt>
<wgt id='morphing_basis_vector_4'> +2.3500151e-05 </wgt>
<wgt id='morphing_basis_vector_5'> +1.6660650e-05 </wgt>
</rwgt>
</event>
<event>
 4      1 +3.1894900e-05 3.60594200e+02 7.81860800e-03 9.78054300e-02
        2 -1    0    0  501    0 +0.0000000000e+00 +0.0000000000e+00 +9.5435938676e+02 9.5435938676e+02 0.0000000000e+00 0.0000e+00 -1.0000e+00
       -2 -1    0    0    0  501 -0.0000000000e+00 -0.0000000000e+00 -3.4061639149e+01 3.4061639149e+01 0.0000000000e+00 0.0000e+00 1.0000e+00
      -13  1    1    2    0    0 -2.4838900881e+01 -1.5030438299e+02 +1.9582671716e+02 2.4810578730e+02 0.0000000000e+00 0.0000e+00 1.0000e+00
       13  1    1    2    0    0 +2.4838900881e+01 +1.5030438299e+02 +7.2447103046e+02 7.4031523861e+02 0.0000000000e+00 0.0000e+00 -1.0000e+00
<mgrwt>
<rscale>  0 0.36059420E+03</rscale>
<asrwt>0</asrwt>
<pdfrwt beam="1">  1        2 0.14682450E+00 0.36059420E+03</pdfrwt>
<pdfrwt beam="2">  1       -2 0.52402529E-02 0.36059420E+03</pdfrwt>
<totfact> 0.54425502E+03</totfact>
</mgrwt>
<rwgt>
<wgt id='morphing_basis_vector_1'> +1.9449300e-04 </wgt>
<wgt id='morphing_basis_vector_2'> +1.0622564e-04 </wgt>
<wgt id='morphing_basis_vector_3'> +1.1834778e-04 </wgt>
<wgt id='morphing_basis_vector_4'> +2.2108315e-05 </wgt>
<wgt id='morphing_basis_vector_5'> +1.4314001e-05 </wgt>
</rwgt>
</event>
<event>
 4      1 +3.1894900e-05 3.71953300e+02 7.81860800e-03 9.74308600e-02
        2 -1    0    0  501    0 +0.0000000000e+00 +0.0000000000e+00 +1.6276655693e+03 1.6276655693e+03 0.0000000000e+00 0.0000e+00 -1.0000e+00
       -2 -1    0    0    0  501 -0.0000000000e+00 -0.0000000000e+00 -2.1249644216e+01 2.1249644216e+01 0.0000000000e+00 0.0000e+00 1.0000e+00
      -13  1    1    2    0    0 +1.4494419166e+01 -1.8515205801e+02 +8.4663029144e+02 8.6676076466e+02 0.0000000000e+00 0.0000e+00 1.0000e+00
       13  1    1    2    0    0 -1.4494419166e+01 +1.8515205801e+02 +7.5978563361e+02 7.8215444882e+02 0.0000000000e+00 0.0000e+00 -1.0000e+00
<mgrwt>
<rscale>  0 0.37195330E+03</rscale>
<asrwt>0</asrwt>
<pdfrwt beam="1">  1        2 0.25040999E+00 0.37195330E+03</pdfrwt>
<pdfrwt beam="2">  1       -2 0.32691773E-02 0.37195330E+03</pdfrwt>
<totfact> 0.46229744E+03</totfact>
</mgrwt>
<rwgt>
<wgt id='morphing_basis_vector_1'> +2.1715508e-04 </wgt>
<wgt id='morphing_basis_vector_2'> +1.3605049e-04 </wgt>
<wgt id='morphing_basis_vector_3'> +1.2148255e-04 </wgt>
<wgt id='morphing_basis_vector_4'> +2.6802336e-05 </wgt>
<wgt id='morphing_basis_vector_5'> +1.9846109e-05 </wgt>
</rwgt>
</event>
<event>
 4      1 +3.1894900e-05 4.04334200e+02 7.81860800e-03 9.64372700e-02
        2 -1    0    0  501    0 +0.0000000000e+00 +0.0000000000e+00 +9.5770935740e+02 9.5770935740e+02 0.0000000000e+00 0.0000e+00 -1.0000e+00
       -2 -1    0    0    0  501 -0.0000000000e+00 -0.0000000000e+00 -4.2676338934e+01 4.2676338934e+01 0.0000000000e+00 0.0000e+00 1.0000e+00
      -13  1    1    2    0    0 +1.8891148274e+02 +5.8249428947e+01 +3.5281016640e+02 4.0442002646e+02 0.0000000000e+00 0.0000e+00 1.0000e+00
       13  1    1    2    0    0 -1.8891148274e+02 -5.8249428947e+01 +5.6222285207e+02 5.9596566988e+02 0.0000000000e+00 0.0000e+00 -1.0000e+00
<mgrwt>
<rscale>  0 0.40433416E+03</rscale>
<asrwt>0</asrwt>
<pdfrwt beam="1">  1        2 0.14733989E+00 0.40433416E+03</pdfrwt>
<pdfrwt beam="2">  1       -2 0.65655913E-02 0.40433416E+03</pdfrwt>
<totfact> 0.38591387E+03</totfact>
</mgrwt>
<rwgt>
<wgt id='morphing_basis_vector_1'> +2.6340059e-04 </wgt>
<wgt id='morphing_basis_vector_2'> +1.5069654e-04 </wgt>
<wgt id='morphing_basis_vector_3'> +1.6400817e-04 </wgt>
<wgt id='morphing_basis_vector_4'> +3.8160267e-05 </wgt>
<wgt id='morphing_basis_vector_5'> +3.9497479e-05 </wgt>
</rwgt>
</event>
<event>
 4      1 +3.1894900e-05 3.60588900e+02 7.81860800e-03 9.78056100e-02
        2 -1    0    0  501    0 +0.0000000000e+00 +0.0000000000e+00 +1.1316758799e+03 1.1316758799e+03 0.0000000000e+00 0.0000e+00 -1.0000e+00
       -2 -1    0    0    0  501 -0.0000000000e+00 -0.0000000000e+00 -2.8723846518e+01 2.8723846518e+01 0.0000000000e+00 0.0000e+00 1.0000e+00
      -13  1    1    2    0    0 -8.4258046586e+01 -1.5534070129e+02 +4.3652597717e+02 4.7094063388e+02 0.0000000000e+00 0.0000e+00 1.0000e+00
       13  1    1    2    0    0 +8.4258046586e+01 +1.5534070129e+02 +6.6642605619e+02 6.8945909252e+02 0.0000000000e+00 0.0000e+00 -1.0000e+00
<mgrwt>
<rscale>  0 0.36058888E+03</rscale>
<asrwt>0</asrwt>
<pdfrwt beam="1">  1        2 0.17410395E+00 0.36058888E+03</pdfrwt>
<pdfrwt beam="2">  1       -2 0.44190542E-02 0.36058888E+03</pdfrwt>
<totfact> 0.55170136E+03</totfact>
</mgrwt>
<rwgt>
<wgt id='morphing_basis_vector_1'> +1.9666923e-04 </wgt>
<wgt id='morphing_basis_vector_2'> +1.1278028e-04 </wgt>
<wgt id='morphing_basis_vector_3'> +1.1579491e-04 </wgt>
<wgt id='morphing_basis_vector_4'> +2.2673187e-05 </wgt>
<wgt id='morphing_basis_vector_5'> +1.4452821e-05 </wgt>
</rwgt>
</event>
<event>
 4      1 +3.1894900e-05 3.94291400e+02 7.81860800e-03 9.67344700e-02
        2 -1    0    0  501    0 +0.0000000000e+00 +0.0000000000e+00 +2.6072708372e+02 2.6072708372e+02 0.0000000000e+00 0.0000e+00 -1.0000e+00
       -2 -1    0    0    0  501 -0.0000000000e+00 -0.0000000000e+00 -1.4906939911e+02 1.4906939911e+02 0.0000000000e+00 0.0000e+00 1.0000e+00
      -13  1    1    2    0    0 +1.5910041865e+02 +4.1525610413e+01 -5.7209803300e+01 1.7409848112e+02 0.0000000000e+00 0.0000e+00 1.0000e+00
       13  1    1    2    0    0 -1.5910041865e+02 -4.1525610413e+01 +1.6886748791e+02 2.3569800171e+02 0.0000000000e+00 0.0000e+00 -1.0000e+00
<mgrwt>
<rscale>  0 0.39429141E+03</rscale>
<asrwt>0</asrwt>
<pdfrwt beam="1">  1        2 0.40111859E-01 0.39429141E+03</pdfrwt>
<pdfrwt beam="2">  1       -2 0.22933754E-01 0.39429141E+03</pdfrwt>
<totfact> 0.24135533E+03</totfact>
</mgrwt>
<rwgt>
<wgt id='morphing_basis_vector_1'> +2.4376135e-04 </wgt>
<wgt id='morphing_basis_vector_2'> +1.3256526e-04 </wgt>
<wgt id='morphing_basis_vector_3'> +1.5415791e-04 </wgt>
<wgt id='morphing_basis_vector_4'> +3.3515121e-05 </wgt>
<wgt id='morphing_basis_vector_5'> +3.2188892e-05 </wgt>
</rwgt>
</event>
<event>
 4      1 +3.1894900e-05 4.17957100e+02 7.81860800e-03 9.60484900e-02
        2 -1    0    0  501    0 +0.0000000000e+00 +0.0000000000e+00 +2.5167317386e+02 2.5167317386e+02 0.0000000000e+00 0.0000e+00 -1.0000e+00
       -2 -1    0    0    0  501 -0.0000000000e+00 -0.0000000000e+00 -1.7352679625e+02 1.7352679625e+02 0.0000000000e+00 0.0000e+00 1.0000e+00
      -13  1    1    2    0    0 -1.0703046866e+02 +1.7516414600e+02 +7.8918743408e+01 2.1992309412e+02 0.0000000000e+00 0.0000e+00 1.0000e+00
       13  1    1    2    0    0 +1.0703046866e+02 -1.7516414600e+02 -7.7236579553e-01 2.0527687599e+02 0.0000000000e+00 0.0000e+00 -1.0000e+00
<mgrwt>
<rscale>  0 0.41795712E+03</rscale>
<asrwt>0</asrwt>
<pdfrwt beam="1">  1        2 0.38718950E-01 0.41795712E+03</pdfrwt>
<pdfrwt beam="2">  1       -2 0.26696430E-01 0.41795712E+03</pdfrwt>
<totfact> 0.19445596E+03</totfact>
</mgrwt>
<rwgt>
<wgt id='morphing_basis_vector_1'> +3.0136696e-04 </wgt>
<wgt id='morphing_basis_vector_2'> +2.0626209e-04 </wgt>
<wgt id='morphing_basis_vector_3'> +1.7121346e-04 </wgt>
<wgt id='morphing_basis_vector_4'> +4.4676913e-05 </wgt>
<wgt id='morphing_basis_vector_5'> +5.1483736e-05 </wgt>
</rwgt>
</event>
<event>
 4      1 +3.1894900e-05 4.12398000e+02 7.81860800e-03 9.62052100e-02
        2 -1    0    0  501    0 +0.0000000000e+00 +0.0000000000e+00 +1.9118619988e+03 1.9118619988e+03 0.0000000000e+00 0.0000e+00 -1.0000e+00
       -2 -1    0    0    0  501 -0.0000000000e+00 -0.0000000000e+00 -2.2239069113e+01 2.2239069113e+01 0.0000000000e+00 0.0000e+00 1.0000e+00
      -13  1    1    2    0    0 +1.8164669257e+02 +8.5994255970e+01 +7.2849120732e+02 7.5570495044e+02 0.0000000000e+00 0.0000e+00 1.0000e+00
       13  1    1    2    0    0 -1.8164669257e+02 -8.5994255970e+01 +1.1611317223e+03 1.1783961174e+03 0.0000000000e+00 0.0000e+00 -1.0000e+00
<mgrwt>
<rscale>  0 0.41239802E+03</rscale>
<asrwt>0</asrwt>
<pdfrwt beam="1">  1        2 0.29413248E+00 0.41239802E+03</pdfrwt>
<pdfrwt beam="2">  1       -2 0.34213968E-02 0.41239802E+03</pdfrwt>
<totfact> 0.30404687E+03</totfact>
</mgrwt>
<rwgt>
<wgt id='morphing_basis_vector_1'> +2.7748853e-04 </wgt>
<wgt id='morphing_basis_vector_2'> +1.5838481e-04 </wgt>
<wgt id='morphing_basis_vector_3'> +1.7494725e-04 </wgt>
<wgt id='morphing_basis_vector_4'> +4.2086803e-05 </wgt>
<wgt id='morphing_basis_vector_5'> +4.5867731e-05 </wgt>
</rwgt>
</event>
<event>
 4      1 +3.1894900e-05 3.69323200e+02 7.81860800e-03 9.75162900e-02
        2 -1    0    0  501    0 +0.0000000000e+00 +0.0000000000e+00 +9.9446468732e+01 9.9446468732e+01 0.0000000000e+00 0.0000e+00 1.0000e+00
       -2 -1    0    0    0  501 -0.0000000000e+00 -0.0000000000e+00 -3.4289708328e+02 3.4289708328e+02 0.0000000000e+00 0.0000e+00 -1.0000e+00
      -13  1    1    2    0    0 -8.9658547854e+01 +1.5202575664e+02 -1.8677141342e+02 2.5697090644e+02 0.0000000000e+00 0.0000e+00 -1.0000e+00
       13  1    1    2    0    0 +8.9658547854e+01 -1.5202575664e+02 -5.6679201128e+01 1.8537264557e+02 0.0000000000e+00 0.0000e+00 1.0000e+00
<mgrwt>
<rscale>  0 0.36932319E+03</rscale>
<asrwt>0</asrwt>
<pdfrwt beam="1">  1        2 0.15299457E-01 0.36932319E+03</pdfrwt>
<pdfrwt beam="2">  1       -2 0.52753398E-01 0.36932319E+03</pdfrwt>
<totfact> 0.16561188E+03</totfact>
</mgrwt>
<rwgt>
<wgt id='morphing_basis_vector_1'> +2.0769530e-04 </wgt>
<wgt id='morphing_basis_vector_2'> +1.1664062e-04 </wgt>
<wgt id='morphing_basis_vector_3'> +1.2519051e-04 </wgt>
<wgt id='morphing_basis_vector_4'> +2.4845893e-05 </wgt>
<wgt id='morphing_basis_vector_5'> +1.8211360e-05 </wgt>
</rwgt>
</event>
<event>
 4      1 +3.1894900e-05 3.75232500e+02 7.81860800e-03 9.73253900e-02
        2 -1    0    0  501    0 +0.0000000000e+00 +0.0000000000e+00 +1.7868656477e+03 1.7868656477e+03 0.0000000000e+00 0.0000e+00 1.0000e+00
       -2 -1    0    0    0  501 -0.0000000000e+00 -0.0000000000e+00 -1.9699215215e+01 1.9699215215e+01 0.0000000000e+00 0.0000e+00 -1.0000e+00
      -13  1    1    2    0    0 -2.3798336830e+01 -1.8180442350e+02 +1.0749955291e+03 1.0905203331e+03 0.0000000000e+00 0.0000e+00 1.0000e+00
       13  1    1    2    0    0 +2.3798336830e+01 +1.8180442350e+02 +6.9217090336e+02 7.1604452983e+02 0.0000000000e+00 0.0000e+00 -1.0000e+00
<mgrwt>
<rscale>  0 0.37523247E+03</rscale>
<asrwt>0</asrwt>
<pdfrwt beam="1">  1        2 0.27490228E+00 0.37523247E+03</pdfrwt>
<pdfrwt beam="2">  1       -2 0.30306499E-02 0.37523247E+03</pdfrwt>
<totfact> 0.42508038E+03</totfact>
</mgrwt>
<rwgt>
<wgt id='morphing_basis_vector_1'> +2.2797795e-04 </wgt>
<wgt id='morphing_basis_vector_2'> +1.5717142e-04 </wgt>
<wgt id='morphing_basis_vector_3'> +1.1832019e-04 </wgt>
<wgt id='morphing_basis_vector_4'> +2.8878137e-05 </wgt>
<wgt id='morphing_basis_vector_5'> +2.1889002e-05 </wgt>
</rwgt>
</event>
<event>
 4      1 +3.1894900e-05 3.60425200e+02 7.81860800e-03 9.78111100e-02
        2 -1    0    0  501    0 +0.0000000000e+00 +0.0000000000e+00 +1.4067205503e+03 1.4067205503e+03 0.0000000000e+00 0.0000e+00 -1.0000e+00
       -2 -1    0    0    0  501 -0.0000000000e+00 -0.0000000000e+00 -2.3086738676e+01 2.3086738676e+01 0.0000000000e+00 0.0000e+00 1.0000e+00
      -13  1    1    2    0    0 -1.7852100387e+02 +5.8971812353e+00 +5.9693472143e+02 6.2308553764e+02 0.0000000000e+00 0.0000e+00 1.0000e+00
       13  1    1    2    0    0 +1.7852100387e+02 -5.8971812353e+00 +7.8669909020e+02 8.0672175134e+02 0.0000000000e+00 0.0000e+00 -1.0000e+00
<mgrwt>
<rscale>  0 0.36042525E+03</rscale>
<asrwt>0</asrwt>
<pdfrwt beam="1">  1        2 0.21641848E+00 0.36042525E+03</pdfrwt>
<pdfrwt beam="2">  1       -2 0.35518071E-02 0.36042525E+03</pdfrwt>
<totfact> 0.53740921E+03</totfact>
</mgrwt>
<rwgt>
<wgt id='morphing_basis_vector_1'> +1.9726043e-04 </wgt>
<wgt id='morphing_basis_vector_2'> +1.1508961e-04 </wgt>
<wgt id='morphing_basis_vector_3'> +1.1469899e-04 </wgt>
<wgt id='morphing_basis_vector_4'> +2.2842330e-05 </wgt>
<wgt id='morphing_basis_vector_5'> +1.4438587e-05 </wgt>
</rwgt>
</event>
<event>
 4      1 +3.1894900e-05 3.74091700e+02 7.81860800e-03 9.73619500e-02
        2 -1    0    0  501    0 +0.0000000000e+00 +0.0000000000e+00 +4.9640316452e+02 4.9640316452e+02 0.0000000000e+00 0.0000e+00 -1.0000e+00
       -2 -1    0    0    0  501 -0.0000000000e+00 -0.0000000000e+00 -7.0479321008e+01 7.0479321008e+01 0.0000000000e+00 0.0000e+00 1.0000e+00
      -13  1    1    2    0    0 -1.2230566919e+02 +1.3702959871e+00 -1.4790290602e+00 1.2232228723e+02 0.0000000000e+00 0.0000e+00 1.0000e+00
       13  1    1    2    0    0 +1.2230566919e+02 -1.3702959871e+00 +4.2740287257e+02 4.4456019829e+02 0.0000000000e+00 0.0000e+00 -1.0000e+00
<mgrwt>
<rscale>  0 0.37409174E+03</rscale>
<asrwt>0</asrwt>
<pdfrwt beam="1">  1        2 0.76369715E-01 0.37409174E+03</pdfrwt>
<pdfrwt beam="2">  1       -2 0.10842973E-01 0.37409174E+03</pdfrwt>
<totfact> 0.39345818E+03</totfact>
</mgrwt>
<rwgt>
<wgt id='morphing_basis_vector_1'> +2.1255047e-04 </wgt>
<wgt id='morphing_basis_vector_2'> +1.1456379e-04 </wgt>
<wgt id='morphing_basis_vector_3'> +1.3210685e-04 </wgt>
<wgt id='morphing_basis_vector_4'> +2.5930856e-05 </wgt>
<wgt id='morphing_basis_vector_5'> +2.0400390e-05 </wgt>
</rwgt>
</event>
<event>
 4      1 +3.1894900e-05 3.88220700e+02 7.81860800e-03 9.69187400e-02
        2 -1    0    0  501    0 +0.0000000000e+00 +0.0000000000e+00 +3.3812549556e+02 3.3812549556e+02 0.0000000000e+00 0.0000e+00 -1.0000e+00
       -2 -1    0    0    0  501 -0.0000000000e+00 -0.0000000000e+00 -1.1143444386e+02 1.1143444386e+02 0.0000000000e+00 0.0000e+00 1.0000e+00
      -13  1    1    2    0    0 -1.3286089833e+02 -1.4146734416e+02 +1.0904393226e+02 2.2261088682e+02 0.0000000000e+00 0.0000e+00 1.0000e+00
       13  1    1    2    0    0 +1.3286089833e+02 +1.4146734416e+02 +1.1764711944e+02 2.2694905261e+02 0.0000000000e+00 0.0000e+00 -1.0000e+00
<mgrwt>
<rscale>  0 0.38822069E+03</rscale>
<asrwt>0</asrwt>
<pdfrwt beam="1">  1        2 0.52019307E-01 0.38822069E+03</pdfrwt>
<pdfrwt beam="2">  1       -2 0.17143761E-01 0.38822069E+03</pdfrwt>
<totfact> 0.29171905E+03</totfact>
</mgrwt>
<rwgt>
<wgt id='morphing_basis_vector_1'> +2.4023488e-04 </wgt>
<wgt id='morphing_basis_vector_2'> +1.4591040e-04 </wgt>
<wgt id='morphing_basis_vector_3'> +1.4083077e-04 </wgt>
<wgt id='morphing_basis_vector_4'> +3.1790318e-05 </wgt>
<wgt id='morphing_basis_vector_5'> +2.8711174e-05 </wgt>
</rwgt>
</event>
<event>
 4      1 +3.1894900e-05 4.23126500e+02 7.81860800e-03 9.59050600e-02
        2 -1    0    0  501    0 +0.0000000000e+00 +0.0000000000e+00 +7.6667701591e+02 7.6667701591e+02 0.0000000000e+00 0.0000e+00 1.0000e+00
       -2 -1    0    0    0  501 -0.0000000000e+00 -0.0000000000e+00 -5.8380519115e+01 5.8380519115e+01 0.0000000000e+00 0.0000e+00 -1.0000e+00
      -13  1    1    2    0    0 +3.3169879083e+01 +1.9858106354e+02 +4.8088208278e+02 5.2132739925e+02 0.0000000000e+00 0.0000e+00 -1.0000e+00
       13  1    1    2    0    0 -3.3169879083e+01 -1.9858106354e+02 +2.2741441402e+02 3.0373013577e+02 0.0000000000e+00 0.0000e+00 1.0000e+00
<mgrwt>
<rscale>  0 0.42312647E+03</rscale>
<asrwt>0</asrwt>
<pdfrwt beam="1">  1        2 0.11795030E+00 0.42312647E+03</pdfrwt>
<pdfrwt beam="2">  1       -2 0.89816189E-02 0.42312647E+03</pdfrwt>
<totfact> 0.31838776E+03</totfact>
</mgrwt>
<rwgt>
<wgt id='morphing_basis_vector_1'> +3.2064750e-04 </wgt>
<wgt id='morphing_basis_vector_2'> +2.4118283e-04 </wgt>
<wgt id='morphing_basis_vector_3'> +1.7140727e-04 </wgt>
<wgt id='morphing_basis_vector_4'> +4.6749047e-05 </wgt>
<wgt id='morphing_basis_vector_5'> +5.6753912e-05 </wgt>
</rwgt>
</event>
<event>
 4      1 +3.1894900e-05 4.16005200e+02 7.81860800e-03 9.61032200e-02
        2 -1    0    0  501    0 +0.0000000000e+00 +0.0000000000e+00 +5.9996589847e+02 5.9996589847e+02 0.0000000000e+00 0.0000e+00 -1.0000e+00
       -2 -1    0    0    0  501 -0.0000000000e+00 -0.0000000000e+00 -7.2112566657e+01 7.2112566657e+01 0.0000000000e+00 0.0000e+00 1.0000e+00
      -13  1    1    2    0    0 +1.5075638898e+02 -1.1273798207e+02 +1.2099139652e+02 2.2377725409e+02 0.0000000000e+00 0.0000e+00 1.0000e+00
       13  1    1    2    0    0 -1.5075638898e+02 +1.1273798207e+02 +4.0686193529e+02 4.4830121103e+02 0.0000000000e+00 0.0000e+00 -1.0000e+00
<mgrwt>
<rscale>  0 0.41600520E+03</rscale>
<asrwt>0</asrwt>
<pdfrwt beam="1">  1        2 0.92302443E-01 0.41600520E+03</pdfrwt>
<pdfrwt beam="2">  1       -2 0.11094241E-01 0.41600520E+03</pdfrwt>
<totfact> 0.30687684E+03</totfact>
</mgrwt>
<rwgt>
<wgt id='morphing_basis_vector_1'> +2.8188424e-04 </wgt>
<wgt id='morphing_basis_vector_2'> +1.5544966e-04 </wgt>
<wgt id='morphing_basis_vector_3'> +1.8185854e-04 </wgt>
<wgt id='morphing_basis_vector_4'> +4.4001210e-05 </wgt>
<wgt id='morphing_basis_vector_5'> +4.8781825e-05 </wgt>
</rwgt>
</event>
<event>
 4      1 +3.1894900e-05 3.71922000e+02 7.81860800e-03 9.74318700e-02
        2 -1    0    0  501    0 +0.0000000000e+00 +0.0000000000e+00 +6.2901733250e+02 6.2901733250e+02 0.0000000000e+00 0.0000e+00 -1.0000e+00
       -2 -1    0    0    0  501 -0.0000000000e+00 -0.0000000000e+00 -5.4976998778e+01 5.4976998778e+01 0.0000000000e+00 0.0000e+00 1.0000e+00
      -13  1    1    2    0    0 -5.6508071049e+01 -1.6800903093e+02 +1.8361725807e+02 2.5521656300e+02 0.0000000000e+00 0.0000e+00 1.0000e+00
       13  1    1    2    0    0 +5.6508071049e+01 +1.6800903093e+02 +3.9042307565e+02 4.2877776828e+02 0.0000000000e+00 0.0000e+00 -1.0000e+00
<mgrwt>
<rscale>  0 0.37192195E+03</rscale>
<asrwt>0</asrwt>
<pdfrwt beam="1">  1        2 0.96771892E-01 0.37192195E+03</pdfrwt>
<pdfrwt beam="2">  1       -2 0.84580002E-02 0.37192195E+03</pdfrwt>
<totfact> 0.44137498E+03</totfact>
</mgrwt>
<rwgt>
<wgt id='morphing_basis_vector_1'> +2.1129909e-04 </wgt>
<wgt id='morphing_basis_vector_2'> +1.1846440e-04 </wgt>
<wgt id='morphing_basis_vector_3'> +1.2786557e-04 </wgt>
<wgt id='morphing_basis_vector_4'> +2.5612628e-05 </wgt>
<wgt id='morphing_basis_vector_5'> +1.9448250e-05 </wgt>
</rwgt>
</event>
<event>
 4      1 +3.1894900e-05 4.21162400e+02 7.81860800e-03 9.59593000e-02
        2 -1    0    0  501    0 +0.0000000000e+00 +0.0000000000e+00 +3.9129994993e+02 3.9129994993e+02 0.0000000000e+00 0.0000e+00 -1.0000e+00
       -2 -1    0    0    0  501 -0.0000000000e+00 -0.0000000000e+00 -1.1332594485e+02 1.1332594485e+02 0.0000000000e+00 0.0000e+00 1.0000e+00
      -13  1    1    2    0    0 -1.9359627391e+02 -8.1857263566e+01 +1.2362849948e+02 2.4385269069e+02 0.0000000000e+00 0.0000e+00 1.0000e+00
       13  1    1    2    0    0 +1.9359627391e+02 +8.1857263566e+01 +1.5434550561e+02 2.6077320409e+02 0.0000000000e+00 0.0000e+00 -1.0000e+00
<mgrwt>
<rscale>  0 0.42116238E+03</rscale>
<asrwt>0</asrwt>
<pdfrwt beam="1">  1        2 0.60199992E-01 0.42116238E+03</pdfrwt>
<pdfrwt beam="2">  1       -2 0.17434761E-01 0.42116238E+03</pdfrwt>
<totfact> 0.24176129E+03</totfact>
</mgrwt>
<rwgt>
<wgt id='morphing_basis_vector_1'> +2.9723157e-04 </wgt>
<wgt id='morphing_basis_vector_2'> +1.7852147e-04 </wgt>
<wgt id='morphing_basis_vector_3'> +1.8451565e-04 </wgt>
<wgt id='morphing_basis_vector_4'> +4.6649036e-05 </wgt>
<wgt id='morphing_basis_vector_5'> +5.3722539e-05 </wgt>
</rwgt>
</event>
<event>
 4      1 +3.1894900e-05 3.69433500e+02 7.81860800e-03 9.75126900e-02
        2 -1    0    0  501    0 +0.0000000000e+00 +0.0000000000e+00 +4.5200543823e+02 4.5200543823e+02 0.0000000000e+00 0.0000e+00 -1.0000e+00
       -2 -1    0    0    0  501 -0.0000000000e+00 -0.0000000000e+00 -7.5486449131e+01 7.5486449131e+01 0.0000000000e+00 0.0000e+00 1.0000e+00
      -13  1    1    2    0    0 +9.2047858181e+00 +1.8441244553e+02 +1.9576175248e+02 2.6910098826e+02 0.0000000000e+00 0.0000e+00 1.0000e+00
       13  1    1    2    0    0 -9.2047858181e+00 -1.8441244553e+02 +1.8075723662e+02 2.5839089910e+02 0.0000000000e+00 0.0000e+00 -1.0000e+00
<mgrwt>
<rscale>  0 0.36943354E+03</rscale>
<asrwt>0</asrwt>
<pdfrwt beam="1">  1        2 0.69539296E-01 0.36943354E+03</pdfrwt>
<pdfrwt beam="2">  1       -2 0.11613300E-01 0.36943354E+03</pdfrwt>
<totfact> 0.39225644E+03</totfact>
</mgrwt>
<rwgt>
<wgt id='morphing_basis_vector_1'> +2.1284475e-04 </wgt>
<wgt id='morphing_basis_vector_2'> +1.3180083e-04 </wgt>
<wgt id='morphing_basis_vector_3'> +1.1971617e-04 </wgt>
<wgt id='morphing_basis_vector_4'> +2.5955220e-05 </wgt>
<wgt id='morphing_basis_vector_5'> +1.8590908e-05 </wgt>
</rwgt>
</event>
<event>
 4      1 +3.1894900e-05 3.72340500e+02 7.81860800e-03 9.74183400e-02
        2 -1    0    0  501    0 +0.0000000000e+00 +0.0000000000e+00 +3.9265044115e+02 3.9265044115e+02 0.0000000000e+00 0.0000e+00 -1.0000e+00
       -2 -1    0    0    0  501 -0.0000000000e+00 -0.0000000000e+00 -8.8270295055e+01 8.8270295055e+01 0.0000000000e+00 0.0000e+00 1.0000e+00
      -13  1    1    2    0    0 +7.6429911406e+01 -1.3396683938e+02 +1.7522688360e+01 1.5522786482e+02 0.0000000000e+00 0.0000e+00 1.0000e+00
       13  1    1    2    0    0 -7.6429911406e+01 +1.3396683938e+02 +2.8685745774e+02 3.2569287138e+02 0.0000000000e+00 0.0000e+00 -1.0000e+00
<mgrwt>
<rscale>  0 0.37234054E+03</rscale>
<asrwt>0</asrwt>
<pdfrwt beam="1">  1        2 0.60407759E-01 0.37234054E+03</pdfrwt>
<pdfrwt beam="2">  1       -2 0.13580046E-01 0.37234054E+03</pdfrwt>
<totfact> 0.35843058E+03</totfact>
</mgrwt>
<rwgt>
<wgt id='morphing_basis_vector_1'> +2.1048243e-04 </wgt>
<wgt id='morphing_basis_vector_2'> +1.1452236e-04 </wgt>
<wgt id='morphing_basis_vector_3'> +1.2984647e-04 </wgt>
<wgt id='morphing_basis_vector_4'> +2.5457035e-05 </wgt>
<wgt id='morphing_basis_vector_5'> +1.9559764e-05 </wgt>
</rwgt>
</event>
<event>
 4      1 +3.1894900e-05 3.89190400e+02 7.81860800e-03 9.68890700e-02
        2 -1    0    0  501    0 +0.0000000000e+00 +0.0000000000e+00 +5.6243852334e+02 5.6243852334e+02 0.0000000000e+00 0.0000e+00 1.0000e+00
       -2 -1    0    0    0  501 -0.0000000000e+00 -0.0000000000e+00 -6.7326983887e+01 6.7326983887e+01 0.0000000000e+00 0.0000e+00 -1.0000e+00
      -13  1    1    2    0    0 -4.1530011459e+01 -1.7540753684e+02 +1.2892546676e+02 2.2161751242e+02 0.0000000000e+00 0.0000e+00 -1.0000e+00
       13  1    1    2    0    0 +4.1530011459e+01 +1.7540753684e+02 +3.6618607269e+02 4.0814799481e+02 0.0000000000e+00 0.0000e+00 1.0000e+00
<mgrwt>
<rscale>  0 0.38919039E+03</rscale>
<asrwt>0</asrwt>
<pdfrwt beam="1">  1        2 0.86529001E-01 0.38919039E+03</pdfrwt>
<pdfrwt beam="2">  1       -2 0.10357998E-01 0.38919039E+03</pdfrwt>
<totfact> 0.36729216E+03</totfact>
</mgrwt>
<rwgt>
<wgt id='morphing_basis_vector_1'> +2.3659035e-04 </wgt>
<wgt id='morphing_basis_vector_2'> +1.3102935e-04 </wgt>
<wgt id='morphing_basis_vector_3'> +1.4717903e-04 </wgt>
<wgt id='morphing_basis_vector_4'> +3.1537639e-05 </wgt>
<wgt id='morphing_basis_vector_5'> +2.8969428e-05 </wgt>
</rwgt>
</event>
<event>
 4      1 +3.1894900e-05 3.63662700e+02 7.81860800e-03 9.77027900e-02
        2 -1    0    0  501    0 +0.0000000000e+00 +0.0000000000e+00 +7.7755891168e+02 7.7755891168e+02 0.0000000000e+00 0.0000e+00 1.0000e+00
       -2 -1    0    0    0  501 -0.0000000000e+00 -0.0000000000e+00 -4.2521084637e+01 4.2521084637e+01 0.0000000000e+00 0.0000e+00 -1.0000e+00
      -13  1    1    2    0    0 +1.4479150816e+02 +5.5572020365e+01 +1.5346882408e+02 2.1818687002e+02 0.0000000000e+00 0.0000e+00 -1.0000e+00
       13  1    1    2    0    0 -1.4479150816e+02 -5.5572020365e+01 +5.8156900296e+02 6.0189312630e+02 0.0000000000e+00 0.0000e+00 1.0000e+00
<mgrwt>
<rscale>  0 0.36366275E+03</rscale>
<asrwt>0</asrwt>
<pdfrwt beam="1">  1        2 0.11962444E+00 0.36366275E+03</pdfrwt>
<pdfrwt beam="2">  1       -2 0.65417059E-02 0.36366275E+03</pdfrwt>
<totfact> 0.50691809E+03</totfact>
</mgrwt>
<rwgt>
<wgt id='morphing_basis_vector_1'> +1.9862544e-04 </wgt>
<wgt id='morphing_basis_vector_2'> +1.0852396e-04 </wgt>
<wgt id='morphing_basis_vector_3'> +1.2117342e-04 </wgt>
<wgt id='morphing_basis_vector_4'> +2.2939227e-05 </wgt>
<wgt id='morphing_basis_vector_5'> +1.5594073e-05 </wgt>
</rwgt>
</event>
<event>
 4      1 +3.1894900e-05 3.92700000e+02 7.81860800e-03 9.67824300e-02
        2 -1    0    0  501    0 +0.0000000000e+00 +0.0000000000e+00 +1.3541358485e+03 1.3541358485e+03 0.0000000000e+00 0.0000e+00 -1.0000e+00
       -2 -1    0    0    0  501 -0.0000000000e+00 -0.0000000000e+00 -2.8470799358e+01 2.8470799358e+01 0.0000000000e+00 0.0000e+00 1.0000e+00
      -13  1    1    2    0    0 +1.6655118311e+02 +3.1439486004e+01 +3.1383924503e+02 3.5668306604e+02 0.0000000000e+00 0.0000e+00 1.0000e+00
       13  1    1    2    0    0 -1.6655118311e+02 -3.1439486004e+01 +1.0118258041e+03 1.0259235818e+03 0.0000000000e+00 0.0000e+00 -1.0000e+00
<mgrwt>
<rscale>  0 0.39270004E+03</rscale>
<asrwt>0</asrwt>
<pdfrwt beam="1">  1        2 0.20832854E+00 0.39270004E+03</pdfrwt>
<pdfrwt beam="2">  1       -2 0.43801240E-02 0.39270004E+03</pdfrwt>
<totfact> 0.42021854E+03</totfact>
</mgrwt>
<rwgt>
<wgt id='morphing_basis_vector_1'> +2.4140295e-04 </wgt>
<wgt id='morphing_basis_vector_2'> +1.3178091e-04 </wgt>
<wgt id='morphing_basis_vector_3'> +1.5205559e-04 </wgt>
<wgt id='morphing_basis_vector_4'> +3.2868845e-05 </wgt>
<wgt id='morphing_basis_vector_5'> +3.1154636e-05 </wgt>
</rwgt>
</event>
<event>
 4      1 +3.1894900e-05 4.05721400e+02 7.81860800e-03 9.63969400e-02
        2 -1    0    0  501    0 +0.0000000000e+00 +0.0000000000e+00 +1.3976417005e+02 1.3976417005e+02 0.0000000000e+00 0.0000e+00 -1.0000e+00
       -2 -1    0    0    0  501 -0.0000000000e+00 -0.0000000000e+00 -2.9444213160e+02 2.9444213160e+02 0.0000000000e+00 0.0000e+00 1.0000e+00
      -13  1    1    2    0    0 -1.4439230589e+02 -6.5353232764e+01 -2.1284726002e+02 2.6537546822e+02 0.0000000000e+00 0.0000e+00 1.0000e+00
       13  1    1    2    0    0 +1.4439230589e+02 +6.5353232764e+01 +5.8169298462e+01 1.6883083343e+02 0.0000000000e+00 0.0000e+00 -1.0000e+00
<mgrwt>
<rscale>  0 0.40572138E+03</rscale>
<asrwt>0</asrwt>
<pdfrwt beam="1">  1        2 0.21502180E-01 0.40572138E+03</pdfrwt>
<pdfrwt beam="2">  1       -2 0.45298789E-01 0.40572138E+03</pdfrwt>
<totfact> 0.14793676E+03</totfact>
</mgrwt>
<rwgt>
<wgt id='morphing_basis_vector_1'> +2.6258368e-04 </wgt>
<wgt id='morphing_basis_vector_2'> +1.4221070e-04 </wgt>
<wgt id='morphing_basis_vector_3'> +1.6876367e-04 </wgt>
<wgt id='morphing_basis_vector_4'> +3.8696338e-05 </wgt>
<wgt id='morphing_basis_vector_5'> +4.0343986e-05 </wgt>
</rwgt>
</event>
<event>
 4      1 +3.1894900e-05 3.71524600e+02 7.81860800e-03 9.74447300e-02
        2 -1    0    0  501    0 +0.0000000000e+00 +0.0000000000e+00 +8.3226165103e+02 8.3226165103e+02 0.0000000000e+00 0.0000e+00 1.0000e+00
       -2 -1    0    0    0  501 -0.0000000000e+00 -0.0000000000e+00 -4.1462486558e+01 4.1462486558e+01 0.0000000000e+00 0.0000e+00 -1.0000e+00
      -13  1    1    2    0    0 -1.3079989601e+02 -1.0893804698e+02 +2.2049176155e+02 2.7855471237e+02 0.0000000000e+00 0.0000e+00 -1.0000e+00
       13  1    1    2    0    0 +1.3079989601e+02 +1.0893804698e+02 +5.7030740293e+02 5.9516942521e+02 0.0000000000e+00 0.0000e+00 1.0000e+00
<mgrwt>
<rscale>  0 0.37152463E+03</rscale>
<asrwt>0</asrwt>
<pdfrwt beam="1">  1        2 0.12804024E+00 0.37152463E+03</pdfrwt>
<pdfrwt beam="2">  1       -2 0.63788447E-02 0.37152463E+03</pdfrwt>
<totfact> 0.48397840E+03</totfact>
</mgrwt>
<rwgt>
<wgt id='morphing_basis_vector_1'> +2.1003876e-04 </wgt>
<wgt id='morphing_basis_vector_2'> +1.1605139e-04 </wgt>
<wgt id='morphing_basis_vector_3'> +1.2823375e-04 </wgt>
<wgt id='morphing_basis_vector_4'> +2.5348526e-05 </wgt>
<wgt id='morphing_basis_vector_5'> +1.9209492e-05 </wgt>
</rwgt>
</event>
<event>
 4      1 +3.1894900e-05 3.65050700e+02 7.81860800e-03 9.76567300e-02
        2 -1    0    0  501    0 +0.0000000000e+00 +0.0000000000e+00 +7.0406106795e+02 7.0406106795e+02 0.0000000000e+00 0.0000e+00 1.0000e+00
       -2 -1    0    0    0  501 -0.0000000000e+00 -0.0000000000e+00 -4.7319054670e+01 4.7319054670e+01 0.0000000000e+00 0.0000e+00 -1.0000e+00
      -13  1    1    2    0    0 -8.4568330482e+01 -1.2850091584e+02 +5.3057863485e+02 5.5242915894e+02 0.0000000000e+00 0.0000e+00 1.0000e+00
       13  1    1    2    0    0 +8.4568330482e+01 +1.2850091584e+02 +1.2616337843e+02 1.9895096368e+02 0.0000000000e+00 0.0000e+00 -1.0000e+00
<mgrwt>
<rscale>  0 0.36505070E+03</rscale>
<asrwt>0</asrwt>
<pdfrwt beam="1">  1        2 0.10831708E+00 0.36505070E+03</pdfrwt>
<pdfrwt beam="2">  1       -2 0.72798551E-02 0.36505070E+03</pdfrwt>
<totfact> 0.48605358E+03</totfact>
</mgrwt>
<rwgt>
<wgt id='morphing_basis_vector_1'> +2.3610141e-04 </wgt>
<wgt id='morphing_basis_vector_2'> +2.1672565e-04 </wgt>
<wgt id='morphing_basis_vector_3'> +8.1830186e-05 </wgt>
<wgt id='morphing_basis_vector_4'> +3.1772276e-05 </wgt>
<wgt id='morphing_basis_vector_5'> +1.8514089e-05 </wgt>
</rwgt>
</event>
<event>
 4      1 +3.1894900e-05 3.65398500e+02 7.81860800e-03 9.76452200e-02
        2 -1    0    0  501    0 +0.0000000000e+00 +0.0000000000e+00 +1.2420268861e+03 1.2420268861e+03 0.0000000000e+00 0.0000e+00 -1.0000e+00
       -2 -1    0    0    0  501 -0.0000000000e+00 -0.0000000000e+00 -2.6874625461e+01 2.6874625461e+01 0.0000000000e+00 0.0000e+00 1.0000e+00
      -13  1    1    2    0    0 +1.7239529663e+02 -2.9533993917e+01 +4.2426050536e+02 4.5890017597e+02 0.0000000000e+00 0.0000e+00 1.0000e+00
       13  1    1    2    0    0 -1.7239529663e+02 +2.9533993917e+01 +7.9089175529e+02 8.1000133560e+02 0.0000000000e+00 0.0000e+00 -1.0000e+00
<mgrwt>
<rscale>  0 0.36539845E+03</rscale>
<asrwt>0</asrwt>
<pdfrwt beam="1">  1        2 0.19108102E+00 0.36539845E+03</pdfrwt>
<pdfrwt beam="2">  1       -2 0.41345587E-02 0.36539845E+03</pdfrwt>
<totfact> 0.52795585E+03</totfact>
</mgrwt>
<rwgt>
<wgt id='morphing_basis_vector_1'> +2.0229817e-04 </wgt>
<wgt id='morphing_basis_vector_2'> +1.1376360e-04 </wgt>
<wgt id='morphing_basis_vector_3'> +1.2132074e-04 </wgt>
<wgt id='morphing_basis_vector_4'> +2.3733347e-05 </wgt>
<wgt id='morphing_basis_vector_5'> +1.6432174e-05 </wgt>
</rwgt>
</event>
<event>
 4      1 +3.1894900e-05 3.79492300e+02 7.81860800e-03 9.71901000e-02
        2 -1    0    0  501    0 +0.0000000000e+00 +0.0000000000e+00 +6.1050891518e+02 6.1050891518e+02 0.0000000000e+00 0.0000e+00 -1.0000e+00
       -2 -1    0    0    0  501 -0.0000000000e+00 -0.0000000000e+00 -5.8973089136e+01 5.8973089136e+01 0.0000000000e+00 0.0000e+00 1.0000e+00
      -13  1    1    2    0    0 +1.5712685044e+02 +7.5827274285e+01 +1.4416438301e+02 2.2632276065e+02 0.0000000000e+00 0.0000e+00 1.0000e+00
       13  1    1    2    0    0 -1.5712685044e+02 -7.5827274285e+01 +4.0737144303e+02 4.4315924367e+02 0.0000000000e+00 0.0000e+00 -1.0000e+00
<mgrwt>
<rscale>  0 0.37949227E+03</rscale>
<asrwt>0</asrwt>
<pdfrwt beam="1">  1        2 0.93924444E-01 0.37949227E+03</pdfrwt>
<pdfrwt beam="2">  1       -2 0.90727834E-02 0.37949227E+03</pdfrwt>
<totfact> 0.41033783E+03</totfact>
</mgrwt>
<rwgt>
<wgt id='morphing_basis_vector_1'> +2.2164066e-04 </wgt>
<wgt id='morphing_basis_vector_2'> +1.2249965e-04 </wgt>
<wgt id='morphing_basis_vector_3'> +1.3648102e-04 </wgt>
<wgt id='morphing_basis_vector_4'> +2.7951812e-05 </wgt>
<wgt id='morphing_basis_vector_5'> +2.3307314e-05 </wgt>
</rwgt>
</event>
<event>
 4      1 +3.1894900e-05 4.07906300e+02 7.81860800e-03 9.63337700e-02
        2 -1    0    0  501    0 +0.0000000000e+00 +0.0000000000e+00 +5.2991764657e+02 5.2991764657e+02 0.0000000000e+00 0.0000e+00 -1.0000e+00
       -2 -1    0    0    0  501 -0.0000000000e+00 -0.0000000000e+00 -7.8496874190e+01 7.8496874190e+01 0.0000000000e+00 0.0000e+00 1.0000e+00
      -13  1    1    2    0    0 -2.0277926971e+02 -1.3014845961e+01 +2.5188963223e+02 3.2363127980e+02 0.0000000000e+00 0.0000e+00 1.0000e+00
       13  1    1    2    0    0 +2.0277926971e+02 +1.3014845961e+01 +1.9953114016e+02 2.8478324096e+02 0.0000000000e+00 0.0000e+00 -1.0000e+00
<mgrwt>
<rscale>  0 0.40790626E+03</rscale>
<asrwt>0</asrwt>
<pdfrwt beam="1">  1        2 0.81525790E-01 0.40790626E+03</pdfrwt>
<pdfrwt beam="2">  1       -2 0.12076442E-01 0.40790626E+03</pdfrwt>
<totfact> 0.30947907E+03</totfact>
</mgrwt>
<rwgt>
<wgt id='morphing_basis_vector_1'> +2.7729914e-04 </wgt>
<wgt id='morphing_basis_vector_2'> +1.7775944e-04 </wgt>
<wgt id='morphing_basis_vector_3'> +1.6180346e-04 </wgt>
<wgt id='morphing_basis_vector_4'> +4.0041390e-05 </wgt>
<wgt id='morphing_basis_vector_5'> +4.2743192e-05 </wgt>
</rwgt>
</event>
<event>
 4      1 +3.1894900e-05 4.07638400e+02 7.81860800e-03 9.63414900e-02
        2 -1    0    0  501    0 +0.0000000000e+00 +0.0000000000e+00 +5.0878423027e+02 5.0878423027e+02 0.0000000000e+00 0.0000e+00 1.0000e+00
       -2 -1    0    0    0  501 -0.0000000000e+00 -0.0000000000e+00 -8.1650061057e+01 8.1650061057e+01 0.0000000000e+00 0.0000e+00 -1.0000e+00
      -13  1    1    2    0    0 +1.6604099300e+02 +1.1758543722e+02 +1.9604668581e+02 2.8254247366e+02 0.0000000000e+00 0.0000e+00 -1.0000e+00
       13  1    1    2    0    0 -1.6604099300e+02 -1.1758543722e+02 +2.3108748340e+02 3.0789181767e+02 0.0000000000e+00 0.0000e+00 1.0000e+00
<mgrwt>
<rscale>  0 0.40763839E+03</rscale>
<asrwt>0</asrwt>
<pdfrwt beam="1">  1        2 0.78274495E-01 0.40763839E+03</pdfrwt>
<pdfrwt beam="2">  1       -2 0.12561548E-01 0.40763839E+03</pdfrwt>
<totfact> 0.30451975E+03</totfact>
</mgrwt>
<rwgt>
<wgt id='morphing_basis_vector_1'> +2.7213703e-04 </wgt>
<wgt id='morphing_basis_vector_2'> +1.6311826e-04 </wgt>
<wgt id='morphing_basis_vector_3'> +1.6566879e-04 </wgt>
<wgt id='morphing_basis_vector_4'> +3.9801354e-05 </wgt>
<wgt id='morphing_basis_vector_5'> +4.2230833e-05 </wgt>
</rwgt>
</event>
<event>
 4      1 +3.1894900e-05 3.92236000e+02 7.81860800e-03 9.67964600e-02
        2 -1    0    0  501    0 +0.0000000000e+00 +0.0000000000e+00 +5.2859287817e+02 5.2859287817e+02 0.0000000000e+00 0.0000e+00 -1.0000e+00
       -2 -1    0    0    0  501 -0.0000000000e+00 -0.0000000000e+00 -7.2763504881e+01 7.2763504881e+01 0.0000000000e+00 0.0000e+00 1.0000e+00
      -13  1    1    2    0    0 -1.2647356841e+02 -6.5090917796e+01 +2.0911815934e+01 1.4376959043e+02 0.0000000000e+00 0.0000e+00 1.0000e+00
       13  1    1    2    0    0 +1.2647356841e+02 +6.5090917796e+01 +4.3491755735e+02 4.5758679262e+02 0.0000000000e+00 0.0000e+00 -1.0000e+00
<mgrwt>
<rscale>  0 0.39223600E+03</rscale>
<asrwt>0</asrwt>
<pdfrwt beam="1">  1        2 0.81321979E-01 0.39223600E+03</pdfrwt>
<pdfrwt beam="2">  1       -2 0.11194386E-01 0.39223600E+03</pdfrwt>
<totfact> 0.34924871E+03</totfact>
</mgrwt>
<rwgt>
<wgt id='morphing_basis_vector_1'> +2.4006080e-04 </wgt>
<wgt id='morphing_basis_vector_2'> +1.2954645e-04 </wgt>
<wgt id='morphing_basis_vector_3'> +1.5209822e-04 </wgt>
<wgt id='morphing_basis_vector_4'> +3.2616277e-05 </wgt>
<wgt id='morphing_basis_vector_5'> +3.0813685e-05 </wgt>
</rwgt>
</event>
<event>
 4      1 +3.1894900e-05 3.93080900e+02 7.81860800e-03 9.67709300e-02
        2 -1    0    0  501    0 +0.0000000000e+00 +0.0000000000e+00 +4.0963847043e+01 4.0963847043e+01 0.0000000000e+00 0.0000e+00 1.0000e+00
       -2 -1    0    0    0  501 -0.0000000000e+00 -0.0000000000e+00 -9.4298158803e+02 9.4298158803e+02 0.0000000000e+00 0.0000e+00 -1.0000e+00
      -13  1    1    2    0    0 +1.5732797153e+02 +9.0195315217e+01 -2.6134796199e+02 3.1810382385e+02 0.0000000000e+00 0.0000e+00 -1.0000e+00
       13  1    1    2    0    0 -1.5732797153e+02 -9.0195315217e+01 -6.4066977900e+02 6.6584161122e+02 0.0000000000e+00 0.0000e+00 1.0000e+00
<mgrwt>
<rscale>  0 0.39308093E+03</rscale>
<asrwt>0</asrwt>
<pdfrwt beam="1">  1        2 0.63021301E-02 0.39308093E+03</pdfrwt>
<pdfrwt beam="2">  1       -2 0.14507410E+00 0.39308093E+03</pdfrwt>
<totfact> 0.49500430E+02</totfact>
</mgrwt>
<rwgt>
<wgt id='morphing_basis_vector_1'> +2.6928775e-04 </wgt>
<wgt id='morphing_basis_vector_2'> +2.1527169e-04 </wgt>
<wgt id='morphing_basis_vector_3'> +1.2564977e-04 </wgt>
<wgt id='morphing_basis_vector_4'> +3.5695336e-05 </wgt>
<wgt id='morphing_basis_vector_5'> +3.3199384e-05 </wgt>
</rwgt>
</event>
<event>
 4      1 +3.1894900e-05 4.15173900e+02 7.81860800e-03 9.61266300e-02
        2 -1    0    0  501    0 +0.0000000000e+00 +0.0000000000e+00 +1.4562232467e+03 1.4562232467e+03 0.0000000000e+00 0.0000e+00 -1.0000e+00
       -2 -1    0    0    0  501 -0.0000000000e+00 -0.0000000000e+00 -2.9591850982e+01 2.9591850982e+01 0.0000000000e+00 0.0000e+00 1.0000e+00
      -13  1    1    2    0    0 +1.7300346432e+02 -9.7306154853e+01 +9.3081751146e+02 9.5174572554e+02 0.0000000000e+00 0.0000e+00 1.0000e+00
       13  1    1    2    0    0 -1.7300346432e+02 +9.7306154853e+01 +4.9581388429e+02 5.3406937217e+02 0.0000000000e+00 0.0000e+00 -1.0000e+00
<mgrwt>
<rscale>  0 0.41517390E+03</rscale>
<asrwt>0</asrwt>
<pdfrwt beam="1">  1        2 0.22403429E+00 0.41517390E+03</pdfrwt>
<pdfrwt beam="2">  1       -2 0.45525936E-02 0.41517390E+03</pdfrwt>
<totfact> 0.34891701E+03</totfact>
</mgrwt>
<rwgt>
<wgt id='morphing_basis_vector_1'> +3.0322536e-04 </wgt>
<wgt id='morphing_basis_vector_2'> +2.2477805e-04 </wgt>
<wgt id='morphing_basis_vector_3'> +1.6101806e-04 </wgt>
<wgt id='morphing_basis_vector_4'> +4.3293649e-05 </wgt>
<wgt id='morphing_basis_vector_5'> +4.9515063e-05 </wgt>
</rwgt>
</event>
<event>
 4      1 +3.1894900e-05 3.62765600e+02 7.81860800e-03 9.77326900e-02
        2 -1    0    0  501    0 +0.0000000000e+00 +0.0000000000e+00 +1.8908380520e+02 1.8908380520e+02 0.0000000000e+00 0.0000e+00 1.0000e+00
       -2 -1    0    0    0  501 -0.0000000000e+00 -0.0000000000e+00 -1.7399546040e+02 1.7399546040e+02 0.0000000000e+00 0.0000e+00 -1.0000e+00
      -13  1    1    2    0    0 +4.3833132951e+01 -1.1844136900e+02 -1.2276064262e+02 1.7612460593e+02 0.0000000000e+00 0.0000e+00 -1.0000e+00
       13  1    1    2    0    0 -4.3833132951e+01 +1.1844136900e+02 +1.3784898743e+02 1.8695465966e+02 0.0000000000e+00 0.0000e+00 1.0000e+00
<mgrwt>
<rscale>  0 0.36276562E+03</rscale>
<asrwt>0</asrwt>
<pdfrwt beam="1">  1        2 0.29089816E-01 0.36276562E+03</pdfrwt>
<pdfrwt beam="2">  1       -2 0.26768532E-01 0.36276562E+03</pdfrwt>
<totfact> 0.26667640E+03</totfact>
</mgrwt>
<rwgt>
<wgt id='morphing_basis_vector_1'> +1.9695794e-04 </wgt>
<wgt id='morphing_basis_vector_2'> +1.0648958e-04 </wgt>
<wgt id='morphing_basis_vector_3'> +1.2086105e-04 </wgt>
<wgt id='morphing_basis_vector_4'> +2.2579993e-05 </wgt>
<wgt id='morphing_basis_vector_5'> +1.5183763e-05 </wgt>
</rwgt>
</event>
<event>
 4      1 +3.1894900e-05 3.82461500e+02 7.81860800e-03 9.70969200e-02
        2 -1    0    0  501    0 +0.0000000000e+00 +0.0000000000e+00 +1.7314465277e+02 1.7314465277e+02 0.0000000000e+00 0.0000e+00 -1.0000e+00
       -2 -1    0    0    0  501 -0.0000000000e+00 -0.0000000000e+00 -2.1120608775e+02 2.1120608775e+02 0.0000000000e+00 0.0000e+00 1.0000e+00
      -13  1    1    2    0    0 +6.6326592879e+01 -8.4912240430e+01 -1.7779813564e+02 2.0789776943e+02 0.0000000000e+00 0.0000e+00 1.0000e+00
       13  1    1    2    0    0 -6.6326592879e+01 +8.4912240430e+01 +1.3973670066e+02 1.7645297109e+02 0.0000000000e+00 0.0000e+00 -1.0000e+00
<mgrwt>
<rscale>  0 0.38246153E+03</rscale>
<asrwt>0</asrwt>
<pdfrwt beam="1">  1        2 0.26637639E-01 0.38246153E+03</pdfrwt>
<pdfrwt beam="2">  1       -2 0.32493244E-01 0.38246153E+03</pdfrwt>
<totfact> 0.21106681E+03</totfact>
</mgrwt>
<rwgt>
<wgt id='morphing_basis_vector_1'> +2.2474110e-04 </wgt>
<wgt id='morphing_basis_vector_2'> +1.2084454e-04 </wgt>
<wgt id='morphing_basis_vector_3'> +1.4111782e-04 </wgt>
<wgt id='morphing_basis_vector_4'> +2.8792497e-05 </wgt>
<wgt id='morphing_basis_vector_5'> +2.4869161e-05 </wgt>
</rwgt>
</event>
<event>
 4      1 +3.1894900e-05 3.72606400e+02 7.81860800e-03 9.74097600e-02
        2 -1    0    0  501    0 +0.0000000000e+00 +0.0000000000e+00 +5.9834930558e+02 5.9834930558e+02 0.0000000000e+00 0.0000e+00 1.0000e+00
       -2 -1    0    0    0  501 -0.0000000000e+00 -0.0000000000e+00 -5.8007721333e+01 5.8007721333e+01 0.0000000000e+00 0.0000e+00 -1.0000e+00
      -13  1    1    2    0    0 -1.0646855293e+02 -9.2461288936e+00 +1.3552263249e+00 1.0687787564e+02 0.0000000000e+00 0.0000e+00 -1.0000e+00
       13  1    1    2    0    0 +1.0646855293e+02 +9.2461288936e+00 +5.3898635792e+02 5.4947915128e+02 0.0000000000e+00 0.0000e+00 1.0000e+00
<mgrwt>
<rscale>  0 0.37260639E+03</rscale>
<asrwt>0</asrwt>
<pdfrwt beam="1">  1        2 0.92053735E-01 0.37260639E+03</pdfrwt>
<pdfrwt beam="2">  1       -2 0.89242652E-02 0.37260639E+03</pdfrwt>
<totfact> 0.43059807E+03</totfact>
</mgrwt>
<rwgt>
<wgt id='morphing_basis_vector_1'> +2.1037145e-04 </wgt>
<wgt id='morphing_basis_vector_2'> +1.1324838e-04 </wgt>
<wgt id='morphing_basis_vector_3'> +1.3065418e-04 </wgt>
<wgt id='morphing_basis_vector_4'> +2.5442994e-05 </wgt>
<wgt id='morphing_basis_vector_5'> +1.9658025e-05 </wgt>
</rwgt>
</event>
<event>
 4      1 +3.1894900e-05 3.61369900e+02 7.81860800e-03 9.77793800e-02
        2 -1    0    0  501    0 +0.0000000000e+00 +0.0000000000e+00 +1.2581649645e+02 1.2581649645e+02 0.0000000000e+00 0.0000e+00 -1.0000e+00
       -2 -1    0    0    0  501 -0.0000000000e+00 -0.0000000000e+00 -2.5948152789e+02 2.5948152789e+02 0.0000000000e+00 0.0000e+00 1.0000e+00
      -13  1    1    2    0    0 +1.5058296786e+02 -3.4349984981e+01 +3.3141299086e+01 1.5796676037e+02 0.0000000000e+00 0.0000e+00 1.0000e+00
       13  1    1    2    0    0 -1.5058296786e+02 +3.4349984981e+01 -1.6680633052e+02 2.2733126397e+02 0.0000000000e+00 0.0000e+00 -1.0000e+00
<mgrwt>
<rscale>  0 0.36136993E+03</rscale>
<asrwt>0</asrwt>
<pdfrwt beam="1">  1        2 0.19356384E-01 0.36136993E+03</pdfrwt>
<pdfrwt beam="2">  1       -2 0.39920235E-01 0.36136993E+03</pdfrwt>
<totfact> 0.21149589E+03</totfact>
</mgrwt>
<rwgt>
<wgt id='morphing_basis_vector_1'> +2.2837260e-04 </wgt>
<wgt id='morphing_basis_vector_2'> +2.0550093e-04 </wgt>
<wgt id='morphing_basis_vector_3'> +8.0868993e-05 </wgt>
<wgt id='morphing_basis_vector_4'> +3.0706213e-05 </wgt>
<wgt id='morphing_basis_vector_5'> +1.6756062e-05 </wgt>
</rwgt>
</event>
<event>
 4      1 +3.1894900e-05 4.07187500e+02 7.81860800e-03 9.63545000e-02
        2 -1    0    0  501    0 +0.0000000000e+00 +0.0000000000e+00 +2.4272797751e+02 2.4272797751e+02 0.0000000000e+00 0.0000e+00 -1.0000e+00
       -2 -1    0    0    0  501 -0.0000000000e+00 -0.0000000000e+00 -1.7076902855e+02 1.7076902855e+02 0.0000000000e+00 0.0000e+00 1.0000e+00
      -13  1    1    2    0    0 -6.0856382800e+01 +1.2245657081e+02 -1.1719313242e+02 1.8009259104e+02 0.0000000000e+00 0.0000e+00 1.0000e+00
       13  1    1    2    0    0 +6.0856382800e+01 -1.2245657081e+02 +1.8915208138e+02 2.3340441502e+02 0.0000000000e+00 0.0000e+00 -1.0000e+00
<mgrwt>
<rscale>  0 0.40718753E+03</rscale>
<asrwt>0</asrwt>
<pdfrwt beam="1">  1        2 0.37342766E-01 0.40718753E+03</pdfrwt>
<pdfrwt beam="2">  1       -2 0.26272158E-01 0.40718753E+03</pdfrwt>
<totfact> 0.20806811E+03</totfact>
</mgrwt>
<rwgt>
<wgt id='morphing_basis_vector_1'> +2.6483701e-04 </wgt>
<wgt id='morphing_basis_vector_2'> +1.4272923e-04 </wgt>
<wgt id='morphing_basis_vector_3'> +1.7095274e-04 </wgt>
<wgt id='morphing_basis_vector_4'> +3.9409042e-05 </wgt>
<wgt id='morphing_basis_vector_5'> +4.1458653e-05 </wgt>
</rwgt>
</event>
<event>
 4      1 +3.1894900e-05 4.25027900e+02 7.81860800e-03 9.58528500e-02
        2 -1    0    0  501    0 +0.0000000000e+00 +0.0000000000e+00 +5.4894123878e+02 5.4894123878e+02 0.0000000000e+00 0.0000e+00 -1.0000e+00
       -2 -1    0    0    0  501 -0.0000000000e+00 -0.0000000000e+00 -8.2271427681e+01 8.2271427681e+01 0.0000000000e+00 0.0000e+00 1.0000e+00
      -13  1    1    2    0    0 +4.4225982298e+01 -1.9163165881e+02 +1.1375321991e+02 2.2719688644e+02 0.0000000000e+00 0.0000e+00 1.0000e+00
       13  1    1    2    0    0 -4.4225982298e+01 +1.9163165881e+02 +3.5291659119e+02 4.0401578002e+02 0.0000000000e+00 0.0000e+00 -1.0000e+00
<mgrwt>
<rscale>  0 0.42502790E+03</rscale>
<asrwt>0</asrwt>
<pdfrwt beam="1">  1        2 0.84452496E-01 0.42502790E+03</pdfrwt>
<pdfrwt beam="2">  1       -2 0.12657143E-01 0.42502790E+03</pdfrwt>
<totfact> 0.27631905E+03</totfact>
</mgrwt>
<rwgt>
<wgt id='morphing_basis_vector_1'> +2.9927864e-04 </wgt>
<wgt id='morphing_basis_vector_2'> +1.6629445e-04 </wgt>
<wgt id='morphing_basis_vector_3'> +1.9466795e-04 </wgt>
<wgt id='morphing_basis_vector_4'> +4.9124429e-05 </wgt>
<wgt id='morphing_basis_vector_5'> +5.6999057e-05 </wgt>
</rwgt>
</event>
<event>
 4      1 +3.1894900e-05 3.77085900e+02 7.81860800e-03 9.72662900e-02
        2 -1    0    0  501    0 +0.0000000000e+00 +0.0000000000e+00 +6.2325349205e+02 6.2325349205e+02 0.0000000000e+00 0.0000e+00 1.0000e+00
       -2 -1    0    0    0  501 -0.0000000000e+00 -0.0000000000e+00 -5.7036890268e+01 5.7036890268e+01 0.0000000000e+00 0.0000e+00 -1.0000e+00
      -13  1    1    2    0    0 -1.7014476146e+02 -8.1103273371e+01 +2.9146570233e+02 3.4710119048e+02 0.0000000000e+00 0.0000e+00 -1.0000e+00
       13  1    1    2    0    0 +1.7014476146e+02 +8.1103273371e+01 +2.7475089945e+02 3.3318919183e+02 0.0000000000e+00 0.0000e+00 1.0000e+00
<mgrwt>
<rscale>  0 0.37708588E+03</rscale>
<asrwt>0</asrwt>
<pdfrwt beam="1">  1        2 0.95885148E-01 0.37708588E+03</pdfrwt>
<pdfrwt beam="2">  1       -2 0.87749066E-02 0.37708588E+03</pdfrwt>
<totfact> 0.42172355E+03</totfact>
</mgrwt>
<rwgt>
<wgt id='morphing_basis_vector_1'> +2.2403133e-04 </wgt>
<wgt id='morphing_basis_vector_2'> +1.3854862e-04 </wgt>
<wgt id='morphing_basis_vector_3'> +1.2753488e-04 </wgt>
<wgt id='morphing_basis_vector_4'> +2.8191242e-05 </wgt>
<wgt id='morphing_basis_vector_5'> +2.2412188e-05 </wgt>
</rwgt>
</event>
<event>
 4      1 +3.1894900e-05 3.88019000e+02 7.81860800e-03 9.69249300e-02
        2 -1    0    0  501    0 +0.0000000000e+00 +0.0000000000e+00 +3.9628561556e+01 3.9628561556e+01 0.0000000000e+00 0.0000e+00 1.0000e+00
       -2 -1    0    0    0  501 -0.0000000000e+00 -0.0000000000e+00 -9.4981197797e+02 9.4981197797e+02 0.0000000000e+00 0.0000e+00 -1.0000e+00
      -13  1    1    2    0    0 -7.0861232848e+01 +1.2440691281e+02 -7.8894714827e+02 8.0183289845e+02 0.0000000000e+00 0.0000e+00 -1.0000e+00
       13  1    1    2    0    0 +7.0861232848e+01 -1.2440691281e+02 -1.2123626815e+02 1.8760764108e+02 0.0000000000e+00 0.0000e+00 1.0000e+00
<mgrwt>
<rscale>  0 0.38801898E+03</rscale>
<asrwt>0</asrwt>
<pdfrwt beam="1">  1        2 0.60967013E-02 0.38801898E+03</pdfrwt>
<pdfrwt beam="2">  1       -2 0.14612493E+00 0.38801898E+03</pdfrwt>
<totfact> 0.50686410E+02</totfact>
</mgrwt>
<rwgt>
<wgt id='morphing_basis_vector_1'> +2.3345460e-04 </wgt>
<wgt id='morphing_basis_vector_2'> +1.2606129e-04 </wgt>
<wgt id='morphing_basis_vector_3'> +1.4714466e-04 </wgt>
<wgt id='morphing_basis_vector_4'> +3.0922079e-05 </wgt>
<wgt id='morphing_basis_vector_5'> +2.8160186e-05 </wgt>
</rwgt>
</event>
<event>
 4      1 +3.1894900e-05 4.10954700e+02 7.81860800e-03 9.62463300e-02
        2 -1    0    0  501    0 +0.0000000000e+00 +0.0000000000e+00 +2.8001588540e+02 2.8001588540e+02 0.0000000000e+00 0.0000e+00 1.0000e+00
       -2 -1    0    0    0  501 -0.0000000000e+00 -0.0000000000e+00 -1.5078048786e+02 1.5078048786e+02 0.0000000000e+00 0.0000e+00 -1.0000e+00
      -13  1    1    2    0    0 -1.6691104277e+02 -4.7450037441e+00 -6.0909949878e+01 1.7774091609e+02 0.0000000000e+00 0.0000e+00 -1.0000e+00
       13  1    1    2    0    0 +1.6691104277e+02 +4.7450037441e+00 +1.9014534741e+02 2.5305545717e+02 0.0000000000e+00 0.0000e+00 1.0000e+00
<mgrwt>
<rscale>  0 0.41095465E+03</rscale>
<asrwt>0</asrwt>
<pdfrwt beam="1">  1        2 0.43079367E-01 0.41095465E+03</pdfrwt>
<pdfrwt beam="2">  1       -2 0.23196998E-01 0.41095465E+03</pdfrwt>
<totfact> 0.21883544E+03</totfact>
</mgrwt>
<rwgt>
<wgt id='morphing_basis_vector_1'> +2.7189033e-04 </wgt>
<wgt id='morphing_basis_vector_2'> +1.4769235e-04 </wgt>
<wgt id='morphing_basis_vector_3'> +1.7562066e-04 </wgt>
<wgt id='morphing_basis_vector_4'> +4.1327342e-05 </wgt>
<wgt id='morphing_basis_vector_5'> +4.4489184e-05 </wgt>
</rwgt>
</event>
<event>
 4      1 +3.1894900e-05 3.77041600e+02 7.81860800e-03 9.72677000e-02
        2 -1    0    0  501    0 +0.0000000000e+00 +0.0000000000e+00 +2.2678993588e+02 2.2678993588e+02 0.0000000000e+00 0.0000e+00 1.0000e+00
       -2 -1    0    0    0  501 -0.0000000000e+00 -0.0000000000e+00 -1.5670927720e+02 1.5670927720e+02 0.0000000000e+00 0.0000e+00 -1.0000e+00
      -13  1    1    2    0    0 -4.4553266595e+00 -1.5829942241e+02 +1.3907374031e+02 2.1076067544e+02 0.0000000000e+00 0.0000e+00 1.0000e+00
       13  1    1    2    0    0 +4.4553266595e+00 +1.5829942241e+02 -6.8993081636e+01 1.7273853763e+02 0.0000000000e+00 0.0000e+00 -1.0000e+00
<mgrwt>
<rscale>  0 0.37704157E+03</rscale>
<asrwt>0</asrwt>
<pdfrwt beam="1">  1        2 0.34890759E-01 0.37704157E+03</pdfrwt>
<pdfrwt beam="2">  1       -2 0.24109120E-01 0.37704157E+03</pdfrwt>
<totfact> 0.25935538E+03</totfact>
</mgrwt>
<rwgt>
<wgt id='morphing_basis_vector_1'> +2.5664989e-04 </wgt>
<wgt id='morphing_basis_vector_2'> +2.3751560e-04 </wgt>
<wgt id='morphing_basis_vector_3'> +9.2343032e-05 </wgt>
<wgt id='morphing_basis_vector_4'> +3.3987076e-05 </wgt>
<wgt id='morphing_basis_vector_5'> +2.4549090e-05 </wgt>
</rwgt>
</event>
<event>
 4      1 +3.1894900e-05 3.72780100e+02 7.81860800e-03 9.74041500e-02
        2 -1    0    0  501    0 +0.0000000000e+00 +0.0000000000e+00 +6.2551502216e+02 6.2551502216e+02 0.0000000000e+00 0.0000e+00 -1.0000e+00
       -2 -1    0    0    0  501 -0.0000000000e+00 -0.0000000000e+00 -5.5540227173e+01 5.5540227173e+01 0.0000000000e+00 0.0000e+00 1.0000e+00
      -13  1    1    2    0    0 -1.0880192653e+02 -1.1051226070e+01 +9.2355069067e+00 1.0975100638e+02 0.0000000000e+00 0.0000e+00 1.0000e+00
       13  1    1    2    0    0 +1.0880192653e+02 +1.1051226070e+01 +5.6073928808e+02 5.7130424295e+02 0.0000000000e+00 0.0000e+00 -1.0000e+00
<mgrwt>
<rscale>  0 0.37278008E+03</rscale>
<asrwt>0</asrwt>
<pdfrwt beam="1">  1        2 0.96233075E-01 0.37278008E+03</pdfrwt>
<pdfrwt beam="2">  1       -2 0.85446508E-02 0.37278008E+03</pdfrwt>
<totfact> 0.43736607E+03</totfact>
</mgrwt>
<rwgt>
<wgt id='morphing_basis_vector_1'> +2.1062570e-04 </wgt>
<wgt id='morphing_basis_vector_2'> +1.1340287e-04 </wgt>
<wgt id='morphing_basis_vector_3'> +1.3082261e-04 </wgt>
<wgt id='morphing_basis_vector_4'> +2.5499641e-05 </wgt>
<wgt id='morphing_basis_vector_5'> +1.9744009e-05 </wgt>
</rwgt>
</event>
<event>
 4      1 +3.1894900e-05 3.92983200e+02 7.81860800e-03 9.67738800e-02
        2 -1    0    0  501    0 +0.0000000000e+00 +0.0000000000e+00 +9.8199091131e+01 9.8199091131e+01 0.0000000000e+00 0.0000e+00 -1.0000e+00
       -2 -1    0    0    0  501 -0.0000000000e+00 -0.0000000000e+00 -3.9317015405e+02 3.9317015405e+02 0.0000000000e+00 0.0000e+00 1.0000e+00
      -13  1    1    2    0    0 -1.2053163080e+02 +4.7665551459e+01 -3.3213691759e+02 3.5653164073e+02 0.0000000000e+00 0.0000e+00 1.0000e+00
       13  1    1    2    0    0 +1.2053163080e+02 -4.7665551459e+01 +3.7165854666e+01 1.3483760445e+02 0.0000000000e+00 0.0000e+00 -1.0000e+00
<mgrwt>
<rscale>  0 0.39298321E+03</rscale>
<asrwt>0</asrwt>
<pdfrwt beam="1">  1        2 0.15107552E-01 0.39298321E+03</pdfrwt>
<pdfrwt beam="2">  1       -2 0.60487716E-01 0.39298321E+03</pdfrwt>
<totfact> 0.12819670E+03</totfact>
</mgrwt>
<rwgt>
<wgt id='morphing_basis_vector_1'> +2.4113952e-04 </wgt>
<wgt id='morphing_basis_vector_2'> +1.2984212e-04 </wgt>
<wgt id='morphing_basis_vector_3'> +1.5309967e-04 </wgt>
<wgt id='morphing_basis_vector_4'> +3.2915634e-05 </wgt>
<wgt id='morphing_basis_vector_5'> +3.1292228e-05 </wgt>
</rwgt>
</event>
<event>
 4      1 +3.1894900e-05 3.63152600e+02 7.81860800e-03 9.77197800e-02
        2 -1    0    0  501    0 +0.0000000000e+00 +0.0000000000e+00 +8.2026070841e+02 8.2026070841e+02 0.0000000000e+00 0.0000e+00 -1.0000e+00
       -2 -1    0    0    0  501 -0.0000000000e+00 -0.0000000000e+00 -4.0194486996e+01 4.0194486996e+01 0.0000000000e+00 0.0000e+00 1.0000e+00
      -13  1    1    2    0    0 +5.3492128014e+01 +1.6431641504e+02 +2.5792602155e+02 3.1046275880e+02 0.0000000000e+00 0.0000e+00 1.0000e+00
       13  1    1    2    0    0 -5.3492128014e+01 -1.6431641504e+02 +5.2214019986e+02 5.4999243660e+02 0.0000000000e+00 0.0000e+00 -1.0000e+00
<mgrwt>
<rscale>  0 0.36315263E+03</rscale>
<asrwt>0</asrwt>
<pdfrwt beam="1">  1        2 0.12619394E+00 0.36315263E+03</pdfrwt>
<pdfrwt beam="2">  1       -2 0.61837679E-02 0.36315263E+03</pdfrwt>
<totfact> 0.51645310E+03</totfact>
</mgrwt>
<rwgt>
<wgt id='morphing_basis_vector_1'> +1.9909776e-04 </wgt>
<wgt id='morphing_basis_vector_2'> +1.1164205e-04 </wgt>
<wgt id='morphing_basis_vector_3'> +1.1935595e-04 </wgt>
<wgt id='morphing_basis_vector_4'> +2.3085679e-05 </wgt>
<wgt id='morphing_basis_vector_5'> +1.5452367e-05 </wgt>
</rwgt>
</event>
<event>
 4      1 +3.1894900e-05 3.95450500e+02 7.81860800e-03 9.66996900e-02
        2 -1    0    0  501    0 +0.0000000000e+00 +0.0000000000e+00 +1.1235013136e+03 1.1235013136e+03 0.0000000000e+00 0.0000e+00 1.0000e+00
       -2 -1    0    0    0  501 -0.0000000000e+00 -0.0000000000e+00 -3.4797704442e+01 3.4797704442e+01 0.0000000000e+00 0.0000e+00 -1.0000e+00
      -13  1    1    2    0    0 +1.9220935961e+02 +1.6177332012e+01 +4.1704292938e+02 4.5948987904e+02 0.0000000000e+00 0.0000e+00 -1.0000e+00
       13  1    1    2    0    0 -1.9220935961e+02 -1.6177332012e+01 +6.7166067977e+02 6.9880913899e+02 0.0000000000e+00 0.0000e+00 1.0000e+00
<mgrwt>
<rscale>  0 0.39545046E+03</rscale>
<asrwt>0</asrwt>
<pdfrwt beam="1">  1        2 0.17284633E+00 0.39545046E+03</pdfrwt>
<pdfrwt beam="2">  1       -2 0.53534938E-02 0.39545046E+03</pdfrwt>
<totfact> 0.41878349E+03</totfact>
</mgrwt>
<rwgt>
<wgt id='morphing_basis_vector_1'> +2.4824709e-04 </wgt>
<wgt id='morphing_basis_vector_2'> +1.4154628e-04 </wgt>
<wgt id='morphing_basis_vector_3'> +1.5302685e-04 </wgt>
<wgt id='morphing_basis_vector_4'> +3.4233254e-05 </wgt>
<wgt id='morphing_basis_vector_5'> +3.3136659e-05 </wgt>
</rwgt>
</event>
<event>
 4      1 +3.1894900e-05 3.92640800e+02 7.81860800e-03 9.67842200e-02
        2 -1    0    0  501    0 +0.0000000000e+00 +0.0000000000e+00 +6.0657448335e+02 6.0657448335e+02 0.0000000000e+00 0.0000e+00 -1.0000e+00
       -2 -1    0    0    0  501 -0.0000000000e+00 -0.0000000000e+00 -6.3539922752e+01 6.3539922752e+01 0.0000000000e+00 0.0000e+00 1.0000e+00
      -13  1    1    2    0    0 +1.7240281277e+02 +9.3795581754e+01 +2.6363047020e+02 3.2866603997e+02 0.0000000000e+00 0.0000e+00 1.0000e+00
       13  1    1    2    0    0 -1.7240281277e+02 -9.3795581754e+01 +2.7940409039e+02 3.4144836613e+02 0.0000000000e+00 0.0000e+00 -1.0000e+00
<mgrwt>
<rscale>  0 0.39264078E+03</rscale>
<asrwt>0</asrwt>
<pdfrwt beam="1">  1        2 0.93319147E-01 0.39264078E+03</pdfrwt>
<pdfrwt beam="2">  1       -2 0.97753732E-02 0.39264078E+03</pdfrwt>
<totfact> 0.36862285E+03</totfact>
</mgrwt>
<rwgt>
<wgt id='morphing_basis_vector_1'> +2.4730486e-04 </wgt>
<wgt id='morphing_basis_vector_2'> +1.5000991e-04 </wgt>
<wgt id='morphing_basis_vector_3'> +1.4606454e-04 </wgt>
<wgt id='morphing_basis_vector_4'> +3.3444222e-05 </wgt>
<wgt id='morphing_basis_vector_5'> +3.1511088e-05 </wgt>
</rwgt>
</event>
<event>
 4      1 +3.1894900e-05 3.81898800e+02 7.81860800e-03 9.71145100e-02
        2 -1    0    0  501    0 +0.0000000000e+00 +0.0000000000e+00 +8.9385270825e+01 8.9385270825e+01 0.0000000000e+00 0.0000e+00 -1.0000e+00
       -2 -1    0    0    0  501 -0.0000000000e+00 -0.0000000000e+00 -4.0791597383e+02 4.0791597383e+02 0.0000000000e+00 0.0000e+00 1.0000e+00
      -13  1    1    2    0    0 -1.5667112633e+02 +1.0915900801e+02 -1.5976789986e+02 2.4897251390e+02 0.0000000000e+00 0.0000e+00 1.0000e+00
       13  1    1    2    0    0 +1.5667112633e+02 -1.0915900801e+02 -1.5876280314e+02 2.4832873075e+02 0.0000000000e+00 0.0000e+00 -1.0000e+00
<mgrwt>
<rscale>  0 0.38189883E+03</rscale>
<asrwt>0</asrwt>
<pdfrwt beam="1">  1        2 0.13751580E-01 0.38189883E+03</pdfrwt>
<pdfrwt beam="2">  1       -2 0.62756303E-01 0.38189883E+03</pdfrwt>
<totfact> 0.13340605E+03</totfact>
</mgrwt>
<rwgt>
<wgt id='morphing_basis_vector_1'> +2.3070123e-04 </wgt>
<wgt id='morphing_basis_vector_2'> +1.4104971e-04 </wgt>
<wgt id='morphing_basis_vector_3'> +1.3336899e-04 </wgt>
<wgt id='morphing_basis_vector_4'> +2.9633080e-05 </wgt>
<wgt id='morphing_basis_vector_5'> +2.5001601e-05 </wgt>
</rwgt>
</event>
<event>
 4      1 +3.1894900e-05 3.96994100e+02 7.81860800e-03 9.66535600e-02
        2 -1    0    0  501    0 +0.0000000000e+00 +0.0000000000e+00 +4.3935266733e+02 4.3935266733e+02 0.0000000000e+00 0.0000e+00 1.0000e+00
       -2 -1    0    0    0  501 -0.0000000000e+00 -0.0000000000e+00 -8.9679864207e+01 8.9679864207e+01 0.0000000000e+00 0.0000e+00 -1.0000e+00
      -13  1    1    2    0    0 +6.7674931029e+01 -1.7537939208e+02 +8.9891837940e+01 2.0837075127e+02 0.0000000000e+00 0.0000e+00 -1.0000e+00
       13  1    1    2    0    0 -6.7674931029e+01 +1.7537939208e+02 +2.5978096519e+02 3.2066178027e+02 0.0000000000e+00 0.0000e+00 1.0000e+00
<mgrwt>
<rscale>  0 0.39699414E+03</rscale>
<asrwt>0</asrwt>
<pdfrwt beam="1">  1        2 0.67592717E-01 0.39699414E+03</pdfrwt>
<pdfrwt beam="2">  1       -2 0.13796902E-01 0.39699414E+03</pdfrwt>
<totfact> 0.30904860E+03</totfact>
</mgrwt>
<rwgt>
<wgt id='morphing_basis_vector_1'> +2.4964393e-04 </wgt>
<wgt id='morphing_basis_vector_2'> +1.3949384e-04 </wgt>
<wgt id='morphing_basis_vector_3'> +1.5601817e-04 </wgt>
<wgt id='morphing_basis_vector_4'> +3.4793905e-05 </wgt>
<wgt id='morphing_basis_vector_5'> +3.4114756e-05 </wgt>
</rwgt>
</event>
<event>
 4      1 +3.1894900e-05 3.81478900e+02 7.81860800e-03 9.71276500e-02
        2 -1    0    0  501    0 +0.0000000000e+00 +0.0000000000e+00 +1.2463965429e+03 1.2463965429e+03 0.0000000000e+00 0.0000e+00 1.0000e+00
       -2 -1    0    0    0  501 -0.0000000000e+00 -0.0000000000e+00 -2.9189383320e+01 2.9189383320e+01 0.0000000000e+00 0.0000e+00 -1.0000e+00
      -13  1    1    2    0    0 +1.8014103857e+02 +5.9060628727e+01 +5.3825711008e+02 5.7066598654e+02 0.0000000000e+00 0.0000e+00 1.0000e+00
       13  1    1    2    0    0 -1.8014103857e+02 -5.9060628727e+01 +6.7895004954e+02 7.0491993972e+02 0.0000000000e+00 0.0000e+00 -1.0000e+00
<mgrwt>
<rscale>  0 0.38147895E+03</rscale>
<asrwt>0</asrwt>
<pdfrwt beam="1">  1        2 0.19175327E+00 0.38147895E+03</pdfrwt>
<pdfrwt beam="2">  1       -2 0.44906753E-02 0.38147895E+03</pdfrwt>
<totfact> 0.46421746E+03</totfact>
</mgrwt>
<rwgt>
<wgt id='morphing_basis_vector_1'> +2.2777513e-04 </wgt>
<wgt id='morphing_basis_vector_2'> +1.3373677e-04 </wgt>
<wgt id='morphing_basis_vector_3'> +1.3530678e-04 </wgt>
<wgt id='morphing_basis_vector_4'> +2.9138357e-05 </wgt>
<wgt id='morphing_basis_vector_5'> +2.4613913e-05 </wgt>
</rwgt>
</event>
<event>
 4      1 +3.1894900e-05 3.87506800e+02 7.81860800e-03 9.69406500e-02
        2 -1    0    0  501    0 +0.0000000000e+00 +0.0000000000e+00 +1.0694053597e+03 1.0694053597e+03 0.0000000000e+00 0.0000e+00 -1.0000e+00
       -2 -1    0    0    0  501 -0.0000000000e+00 -0.0000000000e+00 -3.5103983584e+01 3.5103983584e+01 0.0000000000e+00 0.0000e+00 1.0000e+00
      -13  1    1    2    0    0 -1.7539313786e+02 -7.4165102671e+01 +4.1528806138e+02 4.5686692723e+02 0.0000000000e+00 0.0000e+00 1.0000e+00
       13  1    1    2    0    0 +1.7539313786e+02 +7.4165102671e+01 +6.1901331477e+02 6.4764241609e+02 0.0000000000e+00 0.0000e+00 -1.0000e+00
<mgrwt>
<rscale>  0 0.38750684E+03</rscale>
<asrwt>0</asrwt>
<pdfrwt beam="1">  1        2 0.16452388E+00 0.38750684E+03</pdfrwt>
<pdfrwt beam="2">  1       -2 0.54006137E-02 0.38750684E+03</pdfrwt>
<totfact> 0.44424715E+03</totfact>
</mgrwt>
<rwgt>
<wgt id='morphing_basis_vector_1'> +2.3594971e-04 </wgt>
<wgt id='morphing_basis_vector_2'> +1.3564348e-04 </wgt>
<wgt id='morphing_basis_vector_3'> +1.4321381e-04 </wgt>
<wgt id='morphing_basis_vector_4'> +3.1135441e-05 </wgt>
<wgt id='morphing_basis_vector_5'> +2.8065213e-05 </wgt>
</rwgt>
</event>
<event>
 4      1 +3.1894900e-05 4.23252500e+02 7.81860800e-03 9.59015900e-02
        2 -1    0    0  501    0 +0.0000000000e+00 +0.0000000000e+00 +6.3388283301e+02 6.3388283301e+02 0.0000000000e+00 0.0000e+00 -1.0000e+00
       -2 -1    0    0    0  501 -0.0000000000e+00 -0.0000000000e+00 -7.0652914981e+01 7.0652914981e+01 0.0000000000e+00 0.0000e+00 1.0000e+00
      -13  1    1    2    0    0 -2.0118288332e+02 -3.6374317646e+01 +3.7260538846e+02 4.2500872819e+02 0.0000000000e+00 0.0000e+00 1.0000e+00
       13  1    1    2    0    0 +2.0118288332e+02 +3.6374317646e+01 +1.9062452957e+02 2.7952701981e+02 0.0000000000e+00 0.0000e+00 -1.0000e+00
<mgrwt>
<rscale>  0 0.42325250E+03</rscale>
<asrwt>0</asrwt>
<pdfrwt beam="1">  1        2 0.97520432E-01 0.42325250E+03</pdfrwt>
<pdfrwt beam="2">  1       -2 0.10869680E-01 0.42325250E+03</pdfrwt>
<totfact> 0.29730042E+03</totfact>
</mgrwt>
<rwgt>
<wgt id='morphing_basis_vector_1'> +3.1686183e-04 </wgt>
<wgt id='morphing_basis_vector_2'> +2.2893657e-04 </wgt>
<wgt id='morphing_basis_vector_3'> +1.7489507e-04 </wgt>
<wgt id='morphing_basis_vector_4'> +4.7011490e-05 </wgt>
<wgt id='morphing_basis_vector_5'> +5.6621923e-05 </wgt>
</rwgt>
</event>
<event>
 4      1 +3.1894900e-05 3.88440000e+02 7.81860800e-03 9.69120200e-02
        2 -1    0    0  501    0 +0.0000000000e+00 +0.0000000000e+00 +6.6138964143e+02 6.6138964143e+02 0.0000000000e+00 0.0000e+00 1.0000e+00
       -2 -1    0    0    0  501 -0.0000000000e+00 -0.0000000000e+00 -5.7033574156e+01 5.7033574156e+01 0.0000000000e+00 0.0000e+00 -1.0000e+00
      -13  1    1    2    0    0 -1.2688117755e+02 +3.2427671498e+01 +3.6910333595e+01 1.3606160304e+02 0.0000000000e+00 0.0000e+00 -1.0000e+00
       13  1    1    2    0    0 +1.2688117755e+02 -3.2427671498e+01 +5.6744573368e+02 5.8236161255e+02 0.0000000000e+00 0.0000e+00 1.0000e+00
<mgrwt>
<rscale>  0 0.38844003E+03</rscale>
<asrwt>0</asrwt>
<pdfrwt beam="1">  1        2 0.10175225E+00 0.38844003E+03</pdfrwt>
<pdfrwt beam="2">  1       -2 0.87743965E-02 0.38844003E+03</pdfrwt>
<totfact> 0.39374506E+03</totfact>
</mgrwt>
<rwgt>
<wgt id='morphing_basis_vector_1'> +2.3399052e-04 </wgt>
<wgt id='morphing_basis_vector_2'> +1.2605072e-04 </wgt>
<wgt id='morphing_basis_vector_3'> +1.4774989e-04 </wgt>
<wgt id='morphing_basis_vector_4'> +3.1072951e-05 </wgt>
<wgt id='morphing_basis_vector_5'> +2.8410804e-05 </wgt>
</rwgt>
</event>
<event>
 4      1 +3.1894900e-05 3.94675800e+02 7.81860800e-03 9.67229200e-02
        2 -1    0    0  501    0 +0.0000000000e+00 +0.0000000000e+00 +1.4388070782e+02 1.4388070782e+02 0.0000000000e+00 0.0000e+00 1.0000e+00
       -2 -1    0    0    0  501 -0.0000000000e+00 -0.0000000000e+00 -2.7065648347e+02 2.7065648347e+02 0.0000000000e+00 0.0000e+00 -1.0000e+00
      -13  1    1    2    0    0 -7.7838635455e+01 -1.3192920582e+02 +6.7283805389e+01 1.6730594426e+02 0.0000000000e+00 0.0000e+00 1.0000e+00
       13  1    1    2    0    0 +7.7838635455e+01 +1.3192920582e+02 -1.9405958104e+02 2.4723124703e+02 0.0000000000e+00 0.0000e+00 -1.0000e+00
<mgrwt>
<rscale>  0 0.39467580E+03</rscale>
<asrwt>0</asrwt>
<pdfrwt beam="1">  1        2 0.22135494E-01 0.39467580E+03</pdfrwt>
<pdfrwt beam="2">  1       -2 0.41639459E-01 0.39467580E+03</pdfrwt>
<totfact> 0.16733288E+03</totfact>
</mgrwt>
<rwgt>
<wgt id='morphing_basis_vector_1'> +3.0022283e-04 </wgt>
<wgt id='morphing_basis_vector_2'> +3.0325324e-04 </wgt>
<wgt id='morphing_basis_vector_3'> +1.0013320e-04 </wgt>
<wgt id='morphing_basis_vector_4'> +3.8698798e-05 </wgt>
<wgt id='morphing_basis_vector_5'> +3.6116314e-05 </wgt>
</rwgt>
</event>
<event>
 4      1 +3.1894900e-05 3.81288300e+02 7.81860800e-03 9.71336300e-02
        2 -1    0    0  501    0 +0.0000000000e+00 +0.0000000000e+00 +1.1374761800e+03 1.1374761800e+03 0.0000000000e+00 0.0000e+00 -1.0000e+00
       -2 -1    0    0    0  501 -0.0000000000e+00 -0.0000000000e+00 -3.1952491926e+01 3.1952491926e+01 0.0000000000e+00 0.0000e+00 1.0000e+00
      -13  1    1    2    0    0 +2.4364888545e+01 -1.8414297187e+02 +4.2109602109e+02 4.6024356689e+02 0.0000000000e+00 0.0000e+00 1.0000e+00
       13  1    1    2    0    0 -2.4364888545e+01 +1.8414297187e+02 +6.8442766702e+02 7.0918510507e+02 0.0000000000e+00 0.0000e+00 -1.0000e+00
<mgrwt>
<rscale>  0 0.38128833E+03</rscale>
<asrwt>0</asrwt>
<pdfrwt beam="1">  1        2 0.17499630E+00 0.38128833E+03</pdfrwt>
<pdfrwt beam="2">  1       -2 0.49157689E-02 0.38128833E+03</pdfrwt>
<totfact> 0.46714649E+03</totfact>
</mgrwt>
<rwgt>
<wgt id='morphing_basis_vector_1'> +2.2582477e-04 </wgt>
<wgt id='morphing_basis_vector_2'> +1.2852883e-04 </wgt>
<wgt id='morphing_basis_vector_3'> +1.3684505e-04 </wgt>
<wgt id='morphing_basis_vector_4'> +2.8813408e-05 </wgt>
<wgt id='morphing_basis_vector_5'> +2.4397180e-05 </wgt>
</rwgt>
</event>
<event>
 4      1 +3.1894900e-05 4.20101800e+02 7.81860800e-03 9.59887200e-02
        2 -1    0    0  501    0 +0.0000000000e+00 +0.0000000000e+00 +3.2766474169e+02 3.2766474169e+02 0.0000000000e+00 0.0000e+00 -1.0000e+00
       -2 -1    0    0    0  501 -0.0000000000e+00 -0.0000000000e+00 -1.3465404277e+02 1.3465404277e+02 0.0000000000e+00 0.0000e+00 1.0000e+00
      -13  1    1    2    0    0 -1.0061478821e+02 -1.8423069974e+02 +8.8189835327e+01 2.2768779807e+02 0.0000000000e+00 0.0000e+00 1.0000e+00
       13  1    1    2    0    0 +1.0061478821e+02 +1.8423069974e+02 +1.0482086359e+02 2.3463098639e+02 0.0000000000e+00 0.0000e+00 -1.0000e+00
<mgrwt>
<rscale>  0 0.42010181E+03</rscale>
<asrwt>0</asrwt>
<pdfrwt beam="1">  1        2 0.50409960E-01 0.42010181E+03</pdfrwt>
<pdfrwt beam="2">  1       -2 0.20716007E-01 0.42010181E+03</pdfrwt>
<totfact> 0.22196114E+03</totfact>
</mgrwt>
<rwgt>
<wgt id='morphing_basis_vector_1'> +2.9589737e-04 </wgt>
<wgt id='morphing_basis_vector_2'> +1.7942872e-04 </wgt>
<wgt id='morphing_basis_vector_3'> +1.8238362e-04 </wgt>
<wgt id='morphing_basis_vector_4'> +4.6049529e-05 </wgt>
<wgt id='morphing_basis_vector_5'> +5.2801147e-05 </wgt>
</rwgt>
</event>
<event>
 4      1 +3.1894900e-05 3.72358600e+02 7.81860800e-03 9.74177600e-02
        2 -1    0    0  501    0 +0.0000000000e+00 +0.0000000000e+00 +2.1043335942e+02 2.1043335942e+02 0.0000000000e+00 0.0000e+00 1.0000e+00
       -2 -1    0    0    0  501 -0.0000000000e+00 -0.0000000000e+00 -1.6472067021e+02 1.6472067021e+02 0.0000000000e+00 0.0000e+00 -1.0000e+00
      -13  1    1    2    0    0 +1.3654874281e+02 -3.9897270279e+01 -9.8151018193e+01 1.7283221260e+02 0.0000000000e+00 0.0000e+00 -1.0000e+00
       13  1    1    2    0    0 -1.3654874281e+02 +3.9897270279e+01 +1.4386370740e+02 2.0232181703e+02 0.0000000000e+00 0.0000e+00 1.0000e+00
<mgrwt>
<rscale>  0 0.37235856E+03</rscale>
<asrwt>0</asrwt>
<pdfrwt beam="1">  1        2 0.32374363E-01 0.37235856E+03</pdfrwt>
<pdfrwt beam="2">  1       -2 0.25341642E-01 0.37235856E+03</pdfrwt>
<totfact> 0.25936445E+03</totfact>
</mgrwt>
<rwgt>
<wgt id='morphing_basis_vector_1'> +2.1027796e-04 </wgt>
<wgt id='morphing_basis_vector_2'> +1.1384080e-04 </wgt>
<wgt id='morphing_basis_vector_3'> +1.3011817e-04 </wgt>
<wgt id='morphing_basis_vector_4'> +2.5416439e-05 </wgt>
<wgt id='morphing_basis_vector_5'> +1.9553436e-05 </wgt>
</rwgt>
</event>
<event>
 4      1 +3.1894900e-05 3.68466700e+02 7.81860800e-03 9.75442800e-02
        2 -1    0    0  501    0 +0.0000000000e+00 +0.0000000000e+00 +1.9998767971e+02 1.9998767971e+02 0.0000000000e+00 0.0000e+00 -1.0000e+00
       -2 -1    0    0    0  501 -0.0000000000e+00 -0.0000000000e+00 -1.6972012202e+02 1.6972012202e+02 0.0000000000e+00 0.0000e+00 1.0000e+00
      -13  1    1    2    0    0 -4.8068537727e+01 +6.3614608338e+01 -1.5151154472e+02 1.7121083756e+02 0.0000000000e+00 0.0000e+00 1.0000e+00
       13  1    1    2    0    0 +4.8068537727e+01 -6.3614608338e+01 +1.8177910242e+02 1.9849696418e+02 0.0000000000e+00 0.0000e+00 -1.0000e+00
<mgrwt>
<rscale>  0 0.36846673E+03</rscale>
<asrwt>0</asrwt>
<pdfrwt beam="1">  1        2 0.30767335E-01 0.36846673E+03</pdfrwt>
<pdfrwt beam="2">  1       -2 0.26110788E-01 0.36846673E+03</pdfrwt>
<totfact> 0.26110628E+03</totfact>
</mgrwt>
<rwgt>
<wgt id='morphing_basis_vector_1'> +2.0453369e-04 </wgt>
<wgt id='morphing_basis_vector_2'> +1.1005468e-04 </wgt>
<wgt id='morphing_basis_vector_3'> +1.2655181e-04 </wgt>
<wgt id='morphing_basis_vector_4'> +2.4162412e-05 </wgt>
<wgt id='morphing_basis_vector_5'> +1.7684325e-05 </wgt>
</rwgt>
</event>
<event>
 4      1 +3.1894900e-05 3.83108800e+02 7.81860800e-03 9.70767300e-02
        2 -1    0    0  501    0 +0.0000000000e+00 +0.0000000000e+00 +1.6032142220e+03 1.6032142220e+03 0.0000000000e+00 0.0000e+00 1.0000e+00
       -2 -1    0    0    0  501 -0.0000000000e+00 -0.0000000000e+00 -2.2887202176e+01 2.2887202176e+01 0.0000000000e+00 0.0000e+00 -1.0000e+00
      -13  1    1    2    0    0 -8.2702214648e+01 -1.7278012529e+02 +7.9304235068e+02 8.1584851411e+02 0.0000000000e+00 0.0000e+00 -1.0000e+00
       13  1    1    2    0    0 +8.2702214648e+01 +1.7278012529e+02 +7.8728466913e+02 8.1025291005e+02 0.0000000000e+00 0.0000e+00 1.0000e+00
<mgrwt>
<rscale>  0 0.38310880E+03</rscale>
<asrwt>0</asrwt>
<pdfrwt beam="1">  1        2 0.24664825E+00 0.38310880E+03</pdfrwt>
<pdfrwt beam="2">  1       -2 0.35211093E-02 0.38310880E+03</pdfrwt>
<totfact> 0.42676951E+03</totfact>
</mgrwt>
<rwgt>
<wgt id='morphing_basis_vector_1'> +2.3272311e-04 </wgt>
<wgt id='morphing_basis_vector_2'> +1.4264693e-04 </wgt>
<wgt id='morphing_basis_vector_3'> +1.3453696e-04 </wgt>
<wgt id='morphing_basis_vector_4'> +3.0062962e-05 </wgt>
<wgt id='morphing_basis_vector_5'> +2.5701734e-05 </wgt>
</rwgt>
</event>
<event>
 4      1 +3.1894900e-05 3.95979900e+02 7.81860800e-03 9.66838400e-02
        2 -1    0    0  501    0 +0.0000000000e+00 +0.0000000000e+00 +2.6083052205e+02 2.6083052205e+02 0.0000000000e+00 0.0000e+00 -1.0000e+00
       -2 -1    0    0    0  501 -0.0000000000e+00 -0.0000000000e+00 -1.5028924724e+02 1.5028924724e+02 0.0000000000e+00 0.0000e+00 1.0000e+00
      -13  1    1    2    0    0 -1.4541268380e+02 -7.8849496228e+01 -5.7691554378e+01 1.7518677779e+02 0.0000000000e+00 0.0000e+00 1.0000e+00
       13  1    1    2    0    0 +1.4541268380e+02 +7.8849496228e+01 +1.6823282918e+02 2.3593299150e+02 0.0000000000e+00 0.0000e+00 -1.0000e+00
<mgrwt>
<rscale>  0 0.39597991E+03</rscale>
<asrwt>0</asrwt>
<pdfrwt beam="1">  1        2 0.40127773E-01 0.39597991E+03</pdfrwt>
<pdfrwt beam="2">  1       -2 0.23121423E-01 0.39597991E+03</pdfrwt>
<totfact> 0.23800525E+03</totfact>
</mgrwt>
<rwgt>
<wgt id='morphing_basis_vector_1'> +2.4651079e-04 </wgt>
<wgt id='morphing_basis_vector_2'> +1.3408745e-04 </wgt>
<wgt id='morphing_basis_vector_3'> +1.5619555e-04 </wgt>
<wgt id='morphing_basis_vector_4'> +3.4237528e-05 </wgt>
<wgt id='morphing_basis_vector_5'> +3.3324506e-05 </wgt>
</rwgt>
</event>
<event>
 4      1 +3.1894900e-05 3.94594900e+02 7.81860800e-03 9.67253500e-02
        2 -1    0    0  501    0 +0.0000000000e+00 +0.0000000000e+00 +2.0231903722e+02 2.0231903722e+02 0.0000000000e+00 0.0000e+00 -1.0000e+00
       -2 -1    0    0    0  501 -0.0000000000e+00 -0.0000000000e+00 -1.9240047341e+02 1.9240047341e+02 0.0000000000e+00 0.0000e+00 1.0000e+00
      -13  1    1    2    0    0 +8.1924619783e+01 +1.4230233363e+02 +1.1437701633e+02 2.0010921855e+02 0.0000000000e+00 0.0000e+00 1.0000e+00
       13  1    1    2    0    0 -8.1924619783e+01 -1.4230233363e+02 -1.0445845252e+02 1.9461029209e+02 0.0000000000e+00 0.0000e+00 -1.0000e+00
<mgrwt>
<rscale>  0 0.39459487E+03</rscale>
<asrwt>0</asrwt>
<pdfrwt beam="1">  1        2 0.31126006E-01 0.39459487E+03</pdfrwt>
<pdfrwt beam="2">  1       -2 0.29600073E-01 0.39459487E+03</pdfrwt>
<totfact> 0.20802926E+03</totfact>
</mgrwt>
<rwgt>
<wgt id='morphing_basis_vector_1'> +2.9030335e-04 </wgt>
<wgt id='morphing_basis_vector_2'> +2.7331631e-04 </wgt>
<wgt id='morphing_basis_vector_3'> +1.0956602e-04 </wgt>
<wgt id='morphing_basis_vector_4'> +3.7802839e-05 </wgt>
<wgt id='morphing_basis_vector_5'> +3.5418979e-05 </wgt>
</rwgt>
</event>
<event>
 4      1 +3.1894900e-05 3.92395200e+02 7.81860800e-03 9.67916400e-02
        2 -1    0    0  501    0 +0.0000000000e+00 +0.0000000000e+00 +3.8204535170e+02 3.8204535170e+02 0.0000000000e+00 0.0000e+00 1.0000e+00
       -2 -1    0    0    0  501 -0.0000000000e+00 -0.0000000000e+00 -1.0075635077e+02 1.0075635077e+02 0.0000000000e+00 0.0000e+00 -1.0000e+00
      -13  1    1    2    0    0 +1.3919102636e+02 -1.3742721882e+02 +1.2185875073e+02 2.3045593379e+02 0.0000000000e+00 0.0000e+00 1.0000e+00
       13  1    1    2    0    0 -1.3919102636e+02 +1.3742721882e+02 +1.5943025020e+02 2.5234576868e+02 0.0000000000e+00 0.0000e+00 -1.0000e+00
<mgrwt>
<rscale>  0 0.39239519E+03</rscale>
<asrwt>0</asrwt>
<pdfrwt beam="1">  1        2 0.58776207E-01 0.39239519E+03</pdfrwt>
<pdfrwt beam="2">  1       -2 0.15500977E-01 0.39239519E+03</pdfrwt>
<totfact> 0.29968378E+03</totfact>
</mgrwt>
<rwgt>
<wgt id='morphing_basis_vector_1'> +2.4564608e-04 </wgt>
<wgt id='morphing_basis_vector_2'> +1.4593491e-04 </wgt>
<wgt id='morphing_basis_vector_3'> +1.4701597e-04 </wgt>
<wgt id='morphing_basis_vector_4'> +3.3222041e-05 </wgt>
<wgt id='morphing_basis_vector_5'> +3.1268137e-05 </wgt>
</rwgt>
</event>
<event>
 4      1 +3.1894900e-05 4.06700100e+02 7.81860800e-03 9.63685900e-02
        2 -1    0    0  501    0 +0.0000000000e+00 +0.0000000000e+00 +1.3907632160e+03 1.3907632160e+03 0.0000000000e+00 0.0000e+00 -1.0000e+00
       -2 -1    0    0    0  501 -0.0000000000e+00 -0.0000000000e+00 -2.9732772590e+01 2.9732772590e+01 0.0000000000e+00 0.0000e+00 1.0000e+00
      -13  1    1    2    0    0 -9.4135459411e+01 +1.6278754691e+02 +4.1019516809e+02 4.5124421998e+02 0.0000000000e+00 0.0000e+00 1.0000e+00
       13  1    1    2    0    0 +9.4135459411e+01 -1.6278754691e+02 +9.5083527530e+02 9.6925176858e+02 0.0000000000e+00 0.0000e+00 -1.0000e+00
<mgrwt>
<rscale>  0 0.40670012E+03</rscale>
<asrwt>0</asrwt>
<pdfrwt beam="1">  1        2 0.21396352E+00 0.40670012E+03</pdfrwt>
<pdfrwt beam="2">  1       -2 0.45742738E-02 0.40670012E+03</pdfrwt>
<totfact> 0.37606580E+03</totfact>
</mgrwt>
<rwgt>
<wgt id='morphing_basis_vector_1'> +2.6558921e-04 </wgt>
<wgt id='morphing_basis_vector_2'> +1.4716053e-04 </wgt>
<wgt id='morphing_basis_vector_3'> +1.6885795e-04 </wgt>
<wgt id='morphing_basis_vector_4'> +3.9215908e-05 </wgt>
<wgt id='morphing_basis_vector_5'> +4.1182943e-05 </wgt>
</rwgt>
</event>
<event>
 4      1 +3.1894900e-05 4.16920100e+02 7.81860800e-03 9.60775300e-02
        2 -1    0    0  501    0 +0.0000000000e+00 +0.0000000000e+00 +6.2380390563e+02 6.2380390563e+02 0.0000000000e+00 0.0000e+00 -1.0000e+00
       -2 -1    0    0    0  501 -0.0000000000e+00 -0.0000000000e+00 -6.9662272188e+01 6.9662272188e+01 0.0000000000e+00 0.0000e+00 1.0000e+00
      -13  1    1    2    0    0 +1.2773506572e+02 +1.5226666026e+02 +1.7247783477e+02 2.6315392137e+02 0.0000000000e+00 0.0000e+00 1.0000e+00
       13  1    1    2    0    0 -1.2773506572e+02 -1.5226666026e+02 +3.8166379867e+02 4.3031225646e+02 0.0000000000e+00 0.0000e+00 -1.0000e+00
<mgrwt>
<rscale>  0 0.41692012E+03</rscale>
<asrwt>0</asrwt>
<pdfrwt beam="1">  1        2 0.95969828E-01 0.41692012E+03</pdfrwt>
<pdfrwt beam="2">  1       -2 0.10717273E-01 0.41692012E+03</pdfrwt>
<totfact> 0.30957828E+03</totfact>
</mgrwt>
<rwgt>
<wgt id='morphing_basis_vector_1'> +2.8474488e-04 </wgt>
<wgt id='morphing_basis_vector_2'> +1.6001246e-04 </wgt>
<wgt id='morphing_basis_vector_3'> +1.8215156e-04 </wgt>
<wgt id='morphing_basis_vector_4'> +4.4477075e-05 </wgt>
<wgt id='morphing_basis_vector_5'> +4.9650023e-05 </wgt>
</rwgt>
</event>
<event>
 4      1 +3.1894900e-05 3.99425100e+02 7.81860800e-03 9.65813800e-02
        2 -1    0    0  501    0 +0.0000000000e+00 +0.0000000000e+00 +4.3102581442e+02 4.3102581442e+02 0.0000000000e+00 0.0000e+00 -1.0000e+00
       -2 -1    0    0    0  501 -0.0000000000e+00 -0.0000000000e+00 -9.2535296325e+01 9.2535296325e+01 0.0000000000e+00 0.0000e+00 1.0000e+00
      -13  1    1    2    0    0 +1.2311680304e+02 -1.5724843656e+02 +1.6994314682e+02 2.6223175083e+02 0.0000000000e+00 0.0000e+00 -1.0000e+00
       13  1    1    2    0    0 -1.2311680304e+02 +1.5724843656e+02 +1.6854737128e+02 2.6132935992e+02 0.0000000000e+00 0.0000e+00 1.0000e+00
<mgrwt>
<rscale>  0 0.39942509E+03</rscale>
<asrwt>0</asrwt>
<pdfrwt beam="1">  1        2 0.66311663E-01 0.39942509E+03</pdfrwt>
<pdfrwt beam="2">  1       -2 0.14236200E-01 0.39942509E+03</pdfrwt>
<totfact> 0.30038281E+03</totfact>
</mgrwt>
<rwgt>
<wgt id='morphing_basis_vector_1'> +2.5941923e-04 </wgt>
<wgt id='morphing_basis_vector_2'> +1.5929015e-04 </wgt>
<wgt id='morphing_basis_vector_3'> +1.5358800e-04 </wgt>
<wgt id='morphing_basis_vector_4'> +3.6237489e-05 </wgt>
<wgt id='morphing_basis_vector_5'> +3.6189749e-05 </wgt>
</rwgt>
</event>
<event>
 4      1 +3.1894900e-05 4.26590200e+02 7.81860800e-03 9.58101700e-02
        2 -1    0    0  501    0 +0.0000000000e+00 +0.0000000000e+00 +2.4011402512e+02 2.4011402512e+02 0.0000000000e+00 0.0000e+00 1.0000e+00
       -2 -1    0    0    0  501 -0.0000000000e+00 -0.0000000000e+00 -1.8947162218e+02 1.8947162218e+02 0.0000000000e+00 0.0000e+00 -1.0000e+00
      -13  1    1    2    0    0 +5.6830137799e+01 +1.2065050931e+02 -1.4230661268e+02 1.9503174606e+02 0.0000000000e+00 0.0000e+00 -1.0000e+00
       13  1    1    2    0    0 -5.6830137799e+01 -1.2065050931e+02 +1.9294901562e+02 2.3455390124e+02 0.0000000000e+00 0.0000e+00 1.0000e+00
<mgrwt>
<rscale>  0 0.42659017E+03</rscale>
<asrwt>0</asrwt>
<pdfrwt beam="1">  1        2 0.36940619E-01 0.42659017E+03</pdfrwt>
<pdfrwt beam="2">  1       -2 0.29149480E-01 0.42659017E+03</pdfrwt>
<totfact> 0.17626006E+03</totfact>
</mgrwt>
<rwgt>
<wgt id='morphing_basis_vector_1'> +3.0038196e-04 </wgt>
<wgt id='morphing_basis_vector_2'> +1.6208318e-04 </wgt>
<wgt id='morphing_basis_vector_3'> +1.9856667e-04 </wgt>
<wgt id='morphing_basis_vector_4'> +5.0192923e-05 </wgt>
<wgt id='morphing_basis_vector_5'> +5.8382777e-05 </wgt>
</rwgt>
</event>
<event>
 4      1 +3.1894900e-05 3.80421700e+02 7.81860800e-03 9.71608300e-02
        2 -1    0    0  501    0 +0.0000000000e+00 +0.0000000000e+00 +4.2964006036e+02 4.2964006036e+02 0.0000000000e+00 0.0000e+00 1.0000e+00
       -2 -1    0    0    0  501 -0.0000000000e+00 -0.0000000000e+00 -8.4210419141e+01 8.4210419141e+01 0.0000000000e+00 0.0000e+00 -1.0000e+00
      -13  1    1    2    0    0 +1.0332721180e+02 +2.6820626078e+01 -3.9932490506e+01 1.1397571004e+02 0.0000000000e+00 0.0000e+00 -1.0000e+00
       13  1    1    2    0    0 -1.0332721180e+02 -2.6820626078e+01 +3.8536213172e+02 3.9987476946e+02 0.0000000000e+00 0.0000e+00 1.0000e+00
<mgrwt>
<rscale>  0 0.38042171E+03</rscale>
<asrwt>0</asrwt>
<pdfrwt beam="1">  1        2 0.66098470E-01 0.38042171E+03</pdfrwt>
<pdfrwt beam="2">  1       -2 0.12955449E-01 0.38042171E+03</pdfrwt>
<totfact> 0.34969556E+03</totfact>
</mgrwt>
<rwgt>
<wgt id='morphing_basis_vector_1'> +2.2169433e-04 </wgt>
<wgt id='morphing_basis_vector_2'> +1.1922164e-04 </wgt>
<wgt id='morphing_basis_vector_3'> +1.3888876e-04 </wgt>
<wgt id='morphing_basis_vector_4'> +2.8059905e-05 </wgt>
<wgt id='morphing_basis_vector_5'> +2.3728652e-05 </wgt>
</rwgt>
</event>
<event>
 4      1 +3.1894900e-05 3.95867800e+02 7.81860800e-03 9.66871900e-02
        2 -1    0    0  501    0 +0.0000000000e+00 +0.0000000000e+00 +1.7063583577e+03 1.7063583577e+03 0.0000000000e+00 0.0000e+00 1.0000e+00
       -2 -1    0    0    0  501 -0.0000000000e+00 -0.0000000000e+00 -2.2959910272e+01 2.2959910272e+01 0.0000000000e+00 0.0000e+00 -1.0000e+00
      -13  1    1    2    0    0 +4.8692826010e+01 +1.8599945618e+02 +6.3628827617e+02 6.6470260974e+02 0.0000000000e+00 0.0000e+00 -1.0000e+00
       13  1    1    2    0    0 -4.8692826010e+01 -1.8599945618e+02 +1.0471101712e+03 1.0646156582e+03 0.0000000000e+00 0.0000e+00 1.0000e+00
<mgrwt>
<rscale>  0 0.39586783E+03</rscale>
<asrwt>0</asrwt>
<pdfrwt beam="1">  1        2 0.26251657E+00 0.39586783E+03</pdfrwt>
<pdfrwt beam="2">  1       -2 0.35322952E-02 0.39586783E+03</pdfrwt>
<totfact> 0.37398330E+03</totfact>
</mgrwt>
<rwgt>
<wgt id='morphing_basis_vector_1'> +2.4870411e-04 </wgt>
<wgt id='morphing_basis_vector_2'> +1.4123933e-04 </wgt>
<wgt id='morphing_basis_vector_3'> +1.5375635e-04 </wgt>
<wgt id='morphing_basis_vector_4'> +3.4388719e-05 </wgt>
<wgt id='morphing_basis_vector_5'> +3.3404411e-05 </wgt>
</rwgt>
</event>
<event>
 4      1 +3.1894900e-05 4.22061100e+02 7.81860800e-03 9.59344400e-02
        2 -1    0    0  501    0 +0.0000000000e+00 +0.0000000000e+00 +7.7403303396e+01 7.7403303396e+01 0.0000000000e+00 0.0000e+00 1.0000e+00
       -2 -1    0    0    0  501 -0.0000000000e+00 -0.0000000000e+00 -5.7534882111e+02 5.7534882111e+02 0.0000000000e+00 0.0000e+00 -1.0000e+00
      -13  1    1    2    0    0 -5.2866886387e+01 -2.0349055437e+02 -2.2085277011e+02 3.0492500629e+02 0.0000000000e+00 0.0000e+00 -1.0000e+00
       13  1    1    2    0    0 +5.2866886387e+01 +2.0349055437e+02 -2.7709274760e+02 3.4782711822e+02 0.0000000000e+00 0.0000e+00 1.0000e+00
<mgrwt>
<rscale>  0 0.42206113E+03</rscale>
<asrwt>0</asrwt>
<pdfrwt beam="1">  1        2 0.11908200E-01 0.42206113E+03</pdfrwt>
<pdfrwt beam="2">  1       -2 0.88515204E-01 0.42206113E+03</pdfrwt>
<totfact> 0.75664502E+02</totfact>
</mgrwt>
<rwgt>
<wgt id='morphing_basis_vector_1'> +3.0419369e-04 </wgt>
<wgt id='morphing_basis_vector_2'> +1.9566066e-04 </wgt>
<wgt id='morphing_basis_vector_3'> +1.8153961e-04 </wgt>
<wgt id='morphing_basis_vector_4'> +4.6906594e-05 </wgt>
<wgt id='morphing_basis_vector_5'> +5.4873934e-05 </wgt>
</rwgt>
</event>
<event>
 4      1 +3.1894900e-05 4.00698100e+02 7.81860800e-03 9.65438000e-02
        2 -1    0    0  501    0 +0.0000000000e+00 +0.0000000000e+00 +2.0655130258e+03 2.0655130258e+03 0.0000000000e+00 0.0000e+00 -1.0000e+00
       -2 -1    0    0    0  501 -0.0000000000e+00 -0.0000000000e+00 -1.9433305660e+01 1.9433305660e+01 0.0000000000e+00 0.0000e+00 1.0000e+00
      -13  1    1    2    0    0 +4.1705182067e+01 -1.9591836598e+02 +1.0441228832e+03 1.0631631688e+03 0.0000000000e+00 0.0000e+00 1.0000e+00
       13  1    1    2    0    0 -4.1705182067e+01 +1.9591836598e+02 +1.0019568370e+03 1.0217831627e+03 0.0000000000e+00 0.0000e+00 -1.0000e+00
<mgrwt>
<rscale>  0 0.40069812E+03</rscale>
<asrwt>0</asrwt>
<pdfrwt beam="1">  1        2 0.31777106E+00 0.40069812E+03</pdfrwt>
<pdfrwt beam="2">  1       -2 0.29897410E-02 0.40069812E+03</pdfrwt>
<totfact> 0.30673382E+03</totfact>
</mgrwt>
<rwgt>
<wgt id='morphing_basis_vector_1'> +2.6214205e-04 </wgt>
<wgt id='morphing_basis_vector_2'> +1.6228778e-04 </wgt>
<wgt id='morphing_basis_vector_3'> +1.5467830e-04 </wgt>
<wgt id='morphing_basis_vector_4'> +3.6805869e-05 </wgt>
<wgt id='morphing_basis_vector_5'> +3.7138223e-05 </wgt>
</rwgt>
</event>
<event>
 4      1 +3.1894900e-05 3.81661100e+02 7.81860800e-03 9.71219500e-02
        2 -1    0    0  501    0 +0.0000000000e+00 +0.0000000000e+00 +3.6743623525e+02 3.6743623525e+02 0.0000000000e+00 0.0000e+00 -1.0000e+00
       -2 -1    0    0    0  501 -0.0000000000e+00 -0.0000000000e+00 -9.9109151153e+01 9.9109151153e+01 0.0000000000e+00 0.0000e+00 1.0000e+00
      -13  1    1    2    0    0 +1.3957040667e+02 -1.7464311313e-01 -2.4920321301e+01 1.4177782384e+02 0.0000000000e+00 0.0000e+00 1.0000e+00
       13  1    1    2    0    0 -1.3957040667e+02 +1.7464311313e-01 +2.9324740539e+02 3.2476756256e+02 0.0000000000e+00 0.0000e+00 -1.0000e+00
<mgrwt>
<rscale>  0 0.38166107E+03</rscale>
<asrwt>0</asrwt>
<pdfrwt beam="1">  1        2 0.56528651E-01 0.38166107E+03</pdfrwt>
<pdfrwt beam="2">  1       -2 0.15247562E-01 0.38166107E+03</pdfrwt>
<totfact> 0.32110266E+03</totfact>
</mgrwt>
<rwgt>
<wgt id='morphing_basis_vector_1'> +2.2374276e-04 </wgt>
<wgt id='morphing_basis_vector_2'> +1.2081712e-04 </wgt>
<wgt id='morphing_basis_vector_3'> +1.4002731e-04 </wgt>
<wgt id='morphing_basis_vector_4'> +2.8533759e-05 </wgt>
<wgt id='morphing_basis_vector_5'> +2.4431039e-05 </wgt>
</rwgt>
</event>
<event>
 4      1 +3.1894900e-05 3.71690500e+02 7.81860800e-03 9.74393600e-02
        2 -1    0    0  501    0 +0.0000000000e+00 +0.0000000000e+00 +7.5350188723e+01 7.5350188723e+01 0.0000000000e+00 0.0000e+00 1.0000e+00
       -2 -1    0    0    0  501 -0.0000000000e+00 -0.0000000000e+00 -4.5837254722e+02 4.5837254722e+02 0.0000000000e+00 0.0000e+00 -1.0000e+00
      -13  1    1    2    0    0 -8.4910976876e+01 +1.4476493219e+02 -7.6890800305e+01 1.8460486114e+02 0.0000000000e+00 0.0000e+00 1.0000e+00
       13  1    1    2    0    0 +8.4910976876e+01 -1.4476493219e+02 -3.0613155819e+02 3.4911787480e+02 0.0000000000e+00 0.0000e+00 -1.0000e+00
<mgrwt>
<rscale>  0 0.37169051E+03</rscale>
<asrwt>0</asrwt>
<pdfrwt beam="1">  1        2 0.11592337E-01 0.37169051E+03</pdfrwt>
<pdfrwt beam="2">  1       -2 0.70518854E-01 0.37169051E+03</pdfrwt>
<totfact> 0.12931890E+03</totfact>
</mgrwt>
<rwgt>
<wgt id='morphing_basis_vector_1'> +2.3667301e-04 </wgt>
<wgt id='morphing_basis_vector_2'> +1.9594540e-04 </wgt>
<wgt id='morphing_basis_vector_3'> +9.9222221e-05 </wgt>
<wgt id='morphing_basis_vector_4'> +3.0794881e-05 </wgt>
<wgt id='morphing_basis_vector_5'> +2.1027347e-05 </wgt>
</rwgt>
</event>
<event>
 4      1 +3.1894900e-05 3.85416900e+02 7.81860800e-03 9.70050700e-02
        2 -1    0    0  501    0 +0.0000000000e+00 +0.0000000000e+00 +1.6401426039e+02 1.6401426039e+02 0.0000000000e+00 0.0000e+00 1.0000e+00
       -2 -1    0    0    0  501 -0.0000000000e+00 -0.0000000000e+00 -2.2642268273e+02 2.2642268273e+02 0.0000000000e+00 0.0000e+00 -1.0000e+00
      -13  1    1    2    0    0 +7.9664408730e+01 -9.4877464826e+01 -1.8073574296e+02 2.1911996745e+02 0.0000000000e+00 0.0000e+00 -1.0000e+00
       13  1    1    2    0    0 -7.9664408730e+01 +9.4877464826e+01 +1.1832732061e+02 1.7131697567e+02 0.0000000000e+00 0.0000e+00 1.0000e+00
<mgrwt>
<rscale>  0 0.38541691E+03</rscale>
<asrwt>0</asrwt>
<pdfrwt beam="1">  1        2 0.25232963E-01 0.38541691E+03</pdfrwt>
<pdfrwt beam="2">  1       -2 0.34834259E-01 0.38541691E+03</pdfrwt>
<totfact> 0.19865300E+03</totfact>
</mgrwt>
<rwgt>
<wgt id='morphing_basis_vector_1'> +2.2928568e-04 </wgt>
<wgt id='morphing_basis_vector_2'> +1.2343172e-04 </wgt>
<wgt id='morphing_basis_vector_3'> +1.4434393e-04 </wgt>
<wgt id='morphing_basis_vector_4'> +2.9899578e-05 </wgt>
<wgt id='morphing_basis_vector_5'> +2.6584596e-05 </wgt>
</rwgt>
</event>
<event>
 4      1 +3.1894900e-05 3.72851700e+02 7.81860800e-03 9.74018500e-02
        2 -1    0    0  501    0 +0.0000000000e+00 +0.0000000000e+00 +1.6258977523e+02 1.6258977523e+02 0.0000000000e+00 0.0000e+00 1.0000e+00
       -2 -1    0    0    0  501 -0.0000000000e+00 -0.0000000000e+00 -2.1375630046e+02 2.1375630046e+02 0.0000000000e+00 0.0000e+00 -1.0000e+00
      -13  1    1    2    0    0 -5.0892466615e+01 +1.2677459755e+02 -1.5362937927e+02 2.0558168186e+02 0.0000000000e+00 0.0000e+00 -1.0000e+00
       13  1    1    2    0    0 +5.0892466615e+01 -1.2677459755e+02 +1.0246285404e+02 1.7076439383e+02 0.0000000000e+00 0.0000e+00 1.0000e+00
<mgrwt>
<rscale>  0 0.37285165E+03</rscale>
<asrwt>0</asrwt>
<pdfrwt beam="1">  1        2 0.25013812E-01 0.37285165E+03</pdfrwt>
<pdfrwt beam="2">  1       -2 0.32885584E-01 0.37285165E+03</pdfrwt>
<totfact> 0.22211072E+03</totfact>
</mgrwt>
<rwgt>
<wgt id='morphing_basis_vector_1'> +2.1090415e-04 </wgt>
<wgt id='morphing_basis_vector_2'> +1.1399142e-04 </wgt>
<wgt id='morphing_basis_vector_3'> +1.3070133e-04 </wgt>
<wgt id='morphing_basis_vector_4'> +2.5557500e-05 </wgt>
<wgt id='morphing_basis_vector_5'> +1.9790947e-05 </wgt>
</rwgt>
</event>
<event>
 4      1 +3.1894900e-05 3.91870800e+02 7.81860800e-03 9.68075200e-02
        2 -1    0    0  501    0 +0.0000000000e+00 +0.0000000000e+00 +1.2680713055e+03 1.2680713055e+03 0.0000000000e+00 0.0000e+00 -1.0000e+00
       -2 -1    0    0    0  501 -0.0000000000e+00 -0.0000000000e+00 -3.0274859205e+01 3.0274859205e+01 0.0000000000e+00 0.0000e+00 1.0000e+00
      -13  1    1    2    0    0 -9.3840169577e+01 -1.3407609823e+02 +2.6192802355e+02 3.0885055781e+02 0.0000000000e+00 0.0000e+00 1.0000e+00
       13  1    1    2    0    0 +9.3840169577e+01 +1.3407609823e+02 +9.7586842275e+02 9.8949560689e+02 0.0000000000e+00 0.0000e+00 -1.0000e+00
<mgrwt>
<rscale>  0 0.39187080E+03</rscale>
<asrwt>0</asrwt>
<pdfrwt beam="1">  1        2 0.19508785E+00 0.39187080E+03</pdfrwt>
<pdfrwt beam="2">  1       -2 0.46576716E-02 0.39187080E+03</pdfrwt>
<totfact> 0.42755442E+03</totfact>
</mgrwt>
<rwgt>
<wgt id='morphing_basis_vector_1'> +2.3988597e-04 </wgt>
<wgt id='morphing_basis_vector_2'> +1.3047124e-04 </wgt>
<wgt id='morphing_basis_vector_3'> +1.5126264e-04 </wgt>
<wgt id='morphing_basis_vector_4'> +3.2507755e-05 </wgt>
<wgt id='morphing_basis_vector_5'> +3.0604618e-05 </wgt>
</rwgt>
</event>
<event>
 4      1 +3.1894900e-05 3.78089600e+02 7.81860800e-03 9.72344400e-02
        2 -1    0    0  501    0 +0.0000000000e+00 +0.0000000000e+00 +6.2034611500e+02 6.2034611500e+02 0.0000000000e+00 0.0000e+00 -1.0000e+00
       -2 -1    0    0    0  501 -0.0000000000e+00 -0.0000000000e+00 -5.7609661396e+01 5.7609661396e+01 0.0000000000e+00 0.0000e+00 1.0000e+00
      -13  1    1    2    0    0 +3.7088700831e+01 +1.5443581065e+02 +4.6521164086e+02 4.9157691375e+02 0.0000000000e+00 0.0000e+00 1.0000e+00
       13  1    1    2    0    0 -3.7088700831e+01 -1.5443581065e+02 +9.7524812745e+01 1.8637886265e+02 0.0000000000e+00 0.0000e+00 -1.0000e+00
<mgrwt>
<rscale>  0 0.37808956E+03</rscale>
<asrwt>0</asrwt>
<pdfrwt beam="1">  1        2 0.95437859E-01 0.37808956E+03</pdfrwt>
<pdfrwt beam="2">  1       -2 0.88630253E-02 0.37808956E+03</pdfrwt>
<totfact> 0.41756874E+03</totfact>
</mgrwt>
<rwgt>
<wgt id='morphing_basis_vector_1'> +2.5845627e-04 </wgt>
<wgt id='morphing_basis_vector_2'> +2.3922354e-04 </wgt>
<wgt id='morphing_basis_vector_3'> +9.3393575e-05 </wgt>
<wgt id='morphing_basis_vector_4'> +3.4182899e-05 </wgt>
<wgt id='morphing_basis_vector_5'> +2.5122965e-05 </wgt>
</rwgt>
</event>
<event>
 4      1 +3.1894900e-05 3.61663400e+02 7.81860800e-03 9.77695400e-02
        2 -1    0    0  501    0 +0.0000000000e+00 +0.0000000000e+00 +3.3919001773e+02 3.3919001773e+02 0.0000000000e+00 0.0000e+00 1.0000e+00
       -2 -1    0    0    0  501 -0.0000000000e+00 -0.0000000000e+00 -9.6406436358e+01 9.6406436358e+01 0.0000000000e+00 0.0000e+00 -1.0000e+00
      -13  1    1    2    0    0 -1.4451465914e+02 +1.2670717782e+00 -9.5199015502e+00 1.4483342399e+02 0.0000000000e+00 0.0000e+00 -1.0000e+00
       13  1    1    2    0    0 +1.4451465914e+02 -1.2670717782e+00 +2.5230348292e+02 2.9076303010e+02 0.0000000000e+00 0.0000e+00 1.0000e+00
<mgrwt>
<rscale>  0 0.36166338E+03</rscale>
<asrwt>0</asrwt>
<pdfrwt beam="1">  1        2 0.52183079E-01 0.36166338E+03</pdfrwt>
<pdfrwt beam="2">  1       -2 0.14831760E-01 0.36166338E+03</pdfrwt>
<totfact> 0.36611019E+03</totfact>
</mgrwt>
<rwgt>
<wgt id='morphing_basis_vector_1'> +1.9571820e-04 </wgt>
<wgt id='morphing_basis_vector_2'> +1.0640202e-04 </wgt>
<wgt id='morphing_basis_vector_3'> +1.1956314e-04 </wgt>
<wgt id='morphing_basis_vector_4'> +2.2341033e-05 </wgt>
<wgt id='morphing_basis_vector_5'> +1.4739272e-05 </wgt>
</rwgt>
</event>
<event>
 4      1 +3.1894900e-05 4.21472500e+02 7.81860800e-03 9.59507100e-02
        2 -1    0    0  501    0 +0.0000000000e+00 +0.0000000000e+00 +2.4571070802e+02 2.4571070802e+02 0.0000000000e+00 0.0000e+00 -1.0000e+00
       -2 -1    0    0    0  501 -0.0000000000e+00 -0.0000000000e+00 -1.8074003562e+02 1.8074003562e+02 0.0000000000e+00 0.0000e+00 1.0000e+00
      -13  1    1    2    0    0 +1.8322847618e+02 -3.0027746887e+01 -6.8368591720e+01 1.9786006267e+02 0.0000000000e+00 0.0000e+00 1.0000e+00
       13  1    1    2    0    0 -1.8322847618e+02 +3.0027746887e+01 +1.3333926412e+02 2.2859068096e+02 0.0000000000e+00 0.0000e+00 -1.0000e+00
<mgrwt>
<rscale>  0 0.42147248E+03</rscale>
<asrwt>0</asrwt>
<pdfrwt beam="1">  1        2 0.37801648E-01 0.42147248E+03</pdfrwt>
<pdfrwt beam="2">  1       -2 0.27806159E-01 0.42147248E+03</pdfrwt>
<totfact> 0.18631144E+03</totfact>
</mgrwt>
<rwgt>
<wgt id='morphing_basis_vector_1'> +2.9173582e-04 </wgt>
<wgt id='morphing_basis_vector_2'> +1.6015420e-04 </wgt>
<wgt id='morphing_basis_vector_3'> +1.8999890e-04 </wgt>
<wgt id='morphing_basis_vector_4'> +4.7074382e-05 </wgt>
<wgt id='morphing_basis_vector_5'> +5.3627772e-05 </wgt>
</rwgt>
</event>
<event>
 4      1 +3.1894900e-05 4.10730500e+02 7.81860800e-03 9.62527300e-02
        2 -1    0    0  501    0 +0.0000000000e+00 +0.0000000000e+00 +7.7551485535e+02 7.7551485535e+02 0.0000000000e+00 0.0000e+00 1.0000e+00
       -2 -1    0    0    0  501 -0.0000000000e+00 -0.0000000000e+00 -5.4383079906e+01 5.4383079906e+01 0.0000000000e+00 0.0000e+00 -1.0000e+00
      -13  1    1    2    0    0 +7.0958494360e+01 -1.1755962680e+02 +5.2014529701e+01 1.4683625259e+02 0.0000000000e+00 0.0000e+00 -1.0000e+00
       13  1    1    2    0    0 -7.0958494360e+01 +1.1755962680e+02 +6.6911724574e+02 6.8306168266e+02 0.0000000000e+00 0.0000e+00 1.0000e+00
<mgrwt>
<rscale>  0 0.41073050E+03</rscale>
<asrwt>0</asrwt>
<pdfrwt beam="1">  1        2 0.11930997E+00 0.41073050E+03</pdfrwt>
<pdfrwt beam="2">  1       -2 0.83666282E-02 0.41073050E+03</pdfrwt>
<totfact> 0.35004163E+03</totfact>
</mgrwt>
<rwgt>
<wgt id='morphing_basis_vector_1'> +2.7104708e-04 </wgt>
<wgt id='morphing_basis_vector_2'> +1.4610803e-04 </wgt>
<wgt id='morphing_basis_vector_3'> +1.7570999e-04 </wgt>
<wgt id='morphing_basis_vector_4'> +4.1206915e-05 </wgt>
<wgt id='morphing_basis_vector_5'> +4.4278303e-05 </wgt>
</rwgt>
</event>
<event>
 4      1 +3.1894900e-05 3.93660100e+02 7.81860800e-03 9.67534700e-02
        2 -1    0    0  501    0 +0.0000000000e+00 +0.0000000000e+00 +5.5914907706e+02 5.5914907706e+02 0.0000000000e+00 0.0000e+00 -1.0000e+00
       -2 -1    0    0    0  501 -0.0000000000e+00 -0.0000000000e+00 -6.9287537235e+01 6.9287537235e+01 0.0000000000e+00 0.0000e+00 1.0000e+00
      -13  1    1    2    0    0 +1.9066306206e+02 +9.4806552202e-01 +1.6690709271e+02 2.5339944684e+02 0.0000000000e+00 0.0000e+00 1.0000e+00
       13  1    1    2    0    0 -1.9066306206e+02 -9.4806552202e-01 +3.2295444711e+02 3.7503716745e+02 0.0000000000e+00 0.0000e+00 -1.0000e+00
<mgrwt>
<rscale>  0 0.39366007E+03</rscale>
<asrwt>0</asrwt>
<pdfrwt beam="1">  1        2 0.86022932E-01 0.39366007E+03</pdfrwt>
<pdfrwt beam="2">  1       -2 0.10659621E-01 0.39366007E+03</pdfrwt>
<totfact> 0.35370350E+03</totfact>
</mgrwt>
<rwgt>
<wgt id='morphing_basis_vector_1'> +2.4495882e-04 </wgt>
<wgt id='morphing_basis_vector_2'> +1.3876616e-04 </wgt>
<wgt id='morphing_basis_vector_3'> +1.5122505e-04 </wgt>
<wgt id='morphing_basis_vector_4'> +3.3459572e-05 </wgt>
<wgt id='morphing_basis_vector_5'> +3.1916563e-05 </wgt>
</rwgt>
</event>
<event>
 4      1 +3.1894900e-05 3.72164400e+02 7.81860800e-03 9.74240300e-02
        2 -1    0    0  501    0 +0.0000000000e+00 +0.0000000000e+00 +1.0459628021e+02 1.0459628021e+02 0.0000000000e+00 0.0000e+00 1.0000e+00
       -2 -1    0    0    0  501 -0.0000000000e+00 -0.0000000000e+00 -3.3104978915e+02 3.3104978915e+02 0.0000000000e+00 0.0000e+00 -1.0000e+00
      -13  1    1    2    0    0 +7.0939006053e-02 -1.3385182602e+02 -2.6454476828e+02 2.9647976454e+02 0.0000000000e+00 0.0000e+00 -1.0000e+00
       13  1    1    2    0    0 -7.0939006053e-02 +1.3385182602e+02 +3.8091259340e+01 1.3916630482e+02 0.0000000000e+00 0.0000e+00 1.0000e+00
<mgrwt>
<rscale>  0 0.37216435E+03</rscale>
<asrwt>0</asrwt>
<pdfrwt beam="1">  1        2 0.16091736E-01 0.37216435E+03</pdfrwt>
<pdfrwt beam="2">  1       -2 0.50930735E-01 0.37216435E+03</pdfrwt>
<totfact> 0.16685087E+03</totfact>
</mgrwt>
<rwgt>
<wgt id='morphing_basis_vector_1'> +2.0990474e-04 </wgt>
<wgt id='morphing_basis_vector_2'> +1.1339750e-04 </wgt>
<wgt id='morphing_basis_vector_3'> +1.3002912e-04 </wgt>
<wgt id='morphing_basis_vector_4'> +2.5335604e-05 </wgt>
<wgt id='morphing_basis_vector_5'> +1.9452014e-05 </wgt>
</rwgt>
</event>
<event>
 4      1 +3.1894900e-05 3.69999400e+02 7.81860800e-03 9.74942500e-02
        2 -1    0    0  501    0 +0.0000000000e+00 +0.0000000000e+00 +2.3771976669e+02 2.3771976669e+02 0.0000000000e+00 0.0000e+00 -1.0000e+00
       -2 -1    0    0    0  501 -0.0000000000e+00 -0.0000000000e+00 -1.4397160641e+02 1.4397160641e+02 0.0000000000e+00 0.0000e+00 1.0000e+00
      -13  1    1    2    0    0 +6.1246178120e+01 +8.2359529952e+01 -1.1190757165e+02 1.5184693313e+02 0.0000000000e+00 0.0000e+00 1.0000e+00
       13  1    1    2    0    0 -6.1246178120e+01 -8.2359529952e+01 +2.0565573193e+02 2.2984443997e+02 0.0000000000e+00 0.0000e+00 -1.0000e+00
<mgrwt>
<rscale>  0 0.36999944E+03</rscale>
<asrwt>0</asrwt>
<pdfrwt beam="1">  1        2 0.36572272E-01 0.36999944E+03</pdfrwt>
<pdfrwt beam="2">  1       -2 0.22149478E-01 0.36999944E+03</pdfrwt>
<totfact> 0.28327943E+03</totfact>
</mgrwt>
<rwgt>
<wgt id='morphing_basis_vector_1'> +2.0669900e-04 </wgt>
<wgt id='morphing_basis_vector_2'> +1.1128952e-04 </wgt>
<wgt id='morphing_basis_vector_3'> +1.2803141e-04 </wgt>
<wgt id='morphing_basis_vector_4'> +2.4631976e-05 </wgt>
<wgt id='morphing_basis_vector_5'> +1.8401781e-05 </wgt>
</rwgt>
</event>
<event>
 4      1 +3.1894900e-05 4.04379300e+02 7.81860800e-03 9.64359500e-02
        2 -1    0    0  501    0 +0.0000000000e+00 +0.0000000000e+00 +2.7716229062e+02 2.7716229062e+02 0.0000000000e+00 0.0000e+00 1.0000e+00
       -2 -1    0    0    0  501 -0.0000000000e+00 -0.0000000000e+00 -1.4749720651e+02 1.4749720651e+02 0.0000000000e+00 0.0000e+00 -1.0000e+00
      -13  1    1    2    0    0 -7.0633040841e+00 -2.0158188975e+02 +5.0148622316e+01 2.0784617596e+02 0.0000000000e+00 0.0000e+00 -1.0000e+00
       13  1    1    2    0    0 +7.0633040841e+00 +2.0158188975e+02 +7.9516461794e+01 2.1681332117e+02 0.0000000000e+00 0.0000e+00 1.0000e+00
<mgrwt>
<rscale>  0 0.40437934E+03</rscale>
<asrwt>0</asrwt>
<pdfrwt beam="1">  1        2 0.42640352E-01 0.40437934E+03</pdfrwt>
<pdfrwt beam="2">  1       -2 0.22691878E-01 0.40437934E+03</pdfrwt>
<totfact> 0.22957596E+03</totfact>
</mgrwt>
<rwgt>
<wgt id='morphing_basis_vector_1'> +2.6612789e-04 </wgt>
<wgt id='morphing_basis_vector_2'> +1.5884915e-04 </wgt>
<wgt id='morphing_basis_vector_3'> +1.6162682e-04 </wgt>
<wgt id='morphing_basis_vector_4'> +3.8292005e-05 </wgt>
<wgt id='morphing_basis_vector_5'> +3.9703320e-05 </wgt>
</rwgt>
</event>
<event>
 4      1 +3.1894900e-05 4.19103000e+02 7.81860800e-03 9.60165100e-02
        2 -1    0    0  501    0 +0.0000000000e+00 +0.0000000000e+00 +1.9642733916e+02 1.9642733916e+02 0.0000000000e+00 0.0000e+00 -1.0000e+00
       -2 -1    0    0    0  501 -0.0000000000e+00 -0.0000000000e+00 -2.2355257195e+02 2.2355257195e+02 0.0000000000e+00 0.0000e+00 1.0000e+00
      -13  1    1    2    0    0 +1.4788796413e+02 -9.0375169740e+01 -1.3159409643e+02 2.1761325202e+02 0.0000000000e+00 0.0000e+00 1.0000e+00
       13  1    1    2    0    0 -1.4788796413e+02 +9.0375169740e+01 +1.0446886365e+02 2.0236665909e+02 0.0000000000e+00 0.0000e+00 -1.0000e+00
<mgrwt>
<rscale>  0 0.41910303E+03</rscale>
<asrwt>0</asrwt>
<pdfrwt beam="1">  1        2 0.30219591E-01 0.41910303E+03</pdfrwt>
<pdfrwt beam="2">  1       -2 0.34392703E-01 0.41910303E+03</pdfrwt>
<totfact> 0.16536633E+03</totfact>
</mgrwt>
<rwgt>
<wgt id='morphing_basis_vector_1'> +2.8680335e-04 </wgt>
<wgt id='morphing_basis_vector_2'> +1.5617245e-04 </wgt>
<wgt id='morphing_basis_vector_3'> +1.8695967e-04 </wgt>
<wgt id='morphing_basis_vector_4'> +4.5736891e-05 </wgt>
<wgt id='morphing_basis_vector_5'> +5.1452180e-05 </wgt>
</rwgt>
</event>
<event>
 4      1 +3.1894900e-05 3.89733000e+02 7.81860800e-03 9.68725000e-02
        2 -1    0    0  501    0 +0.0000000000e+00 +0.0000000000e+00 +1.6505460143e+02 1.6505460143e+02 0.0000000000e+00 0.0000e+00 -1.0000e+00
       -2 -1    0    0    0  501 -0.0000000000e+00 -0.0000000000e+00 -2.3006302100e+02 2.3006302100e+02 0.0000000000e+00 0.0000e+00 1.0000e+00
      -13  1    1    2    0    0 +1.3029689476e+02 -8.0380965979e+01 -1.5472931411e+02 2.1766842013e+02 0.0000000000e+00 0.0000e+00 1.0000e+00
       13  1    1    2    0    0 -1.3029689476e+02 +8.0380965979e+01 +8.9720894548e+01 1.7744920229e+02 0.0000000000e+00 0.0000e+00 -1.0000e+00
<mgrwt>
<rscale>  0 0.38973304E+03</rscale>
<asrwt>0</asrwt>
<pdfrwt beam="1">  1        2 0.25393016E-01 0.38973304E+03</pdfrwt>
<pdfrwt beam="2">  1       -2 0.35394311E-01 0.38973304E+03</pdfrwt>
<totfact> 0.19169708E+03</totfact>
</mgrwt>
<rwgt>
<wgt id='morphing_basis_vector_1'> +2.3627387e-04 </wgt>
<wgt id='morphing_basis_vector_2'> +1.2793438e-04 </wgt>
<wgt id='morphing_basis_vector_3'> +1.4898488e-04 </wgt>
<wgt id='morphing_basis_vector_4'> +3.1616972e-05 </wgt>
<wgt id='morphing_basis_vector_5'> +2.9231026e-05 </wgt>
</rwgt>
</event>
<event>
 4      1 +3.1894900e-05 4.22695000e+02 7.81860800e-03 9.59169500e-02
        2 -1    0    0  501    0 +0.0000000000e+00 +0.0000000000e+00 +5.9710811706e+01 5.9710811706e+01 0.0000000000e+00 0.0000e+00 -1.0000e+00
       -2 -1    0    0    0  501 -0.0000000000e+00 -0.0000000000e+00 -7.4806834270e+02 7.4806834270e+02 0.0000000000e+00 0.0000e+00 1.0000e+00
      -13  1    1    2    0    0 +1.9114694699e+02 +3.3501021990e+01 -5.0416097133e+02 5.4022010221e+02 0.0000000000e+00 0.0000e+00 1.0000e+00
       13  1    1    2    0    0 -1.9114694699e+02 -3.3501021990e+01 -1.8419655966e+02 2.6755905219e+02 0.0000000000e+00 0.0000e+00 -1.0000e+00
<mgrwt>
<rscale>  0 0.42269501E+03</rscale>
<asrwt>0</asrwt>
<pdfrwt beam="1">  1        2 0.91862780E-02 0.42269501E+03</pdfrwt>
<pdfrwt beam="2">  1       -2 0.11508745E+00 0.42269501E+03</pdfrwt>
<totfact> 0.55954979E+02</totfact>
</mgrwt>
<rwgt>
<wgt id='morphing_basis_vector_1'> +2.9464099e-04 </wgt>
<wgt id='morphing_basis_vector_2'> +1.6326042e-04 </wgt>
<wgt id='morphing_basis_vector_3'> +1.9131875e-04 </wgt>
<wgt id='morphing_basis_vector_4'> +4.7757594e-05 </wgt>
<wgt id='morphing_basis_vector_5'> +5.4792953e-05 </wgt>
</rwgt>
</event>
<event>
 4      1 +3.1894900e-05 4.06123800e+02 7.81860800e-03 9.63852700e-02
        2 -1    0    0  501    0 +0.0000000000e+00 +0.0000000000e+00 +4.8631545718e+02 4.8631545718e+02 0.0000000000e+00 0.0000e+00 -1.0000e+00
       -2 -1    0    0    0  501 -0.0000000000e+00 -0.0000000000e+00 -8.4788877278e+01 8.4788877278e+01 0.0000000000e+00 0.0000e+00 1.0000e+00
      -13  1    1    2    0    0 -1.9773957815e+02 -1.8190477661e+01 +1.4106369136e+02 2.4357914374e+02 0.0000000000e+00 0.0000e+00 1.0000e+00
       13  1    1    2    0    0 +1.9773957815e+02 +1.8190477661e+01 +2.6046288854e+02 3.2752519072e+02 0.0000000000e+00 0.0000e+00 -1.0000e+00
<mgrwt>
<rscale>  0 0.40612383E+03</rscale>
<asrwt>0</asrwt>
<pdfrwt beam="1">  1        2 0.74817761E-01 0.40612383E+03</pdfrwt>
<pdfrwt beam="2">  1       -2 0.13044443E-01 0.40612383E+03</pdfrwt>
<totfact> 0.30178670E+03</totfact>
</mgrwt>
<rwgt>
<wgt id='morphing_basis_vector_1'> +2.6652300e-04 </wgt>
<wgt id='morphing_basis_vector_2'> +1.5252668e-04 </wgt>
<wgt id='morphing_basis_vector_3'> +1.6633509e-04 </wgt>
<wgt id='morphing_basis_vector_4'> +3.9000618e-05 </wgt>
<wgt id='morphing_basis_vector_5'> +4.0862711e-05 </wgt>
</rwgt>
</event>
<event>
 4      1 +3.1894900e-05 3.63663800e+02 7.81860800e-03 9.77027600e-02
        2 -1    0    0  501    0 +0.0000000000e+00 +0.0000000000e+00 +4.6331197737e+02 4.6331197737e+02 0.0000000000e+00 0.0000e+00 1.0000e+00
       -2 -1    0    0    0  501 -0.0000000000e+00 -0.0000000000e+00 -7.1361941740e+01 7.1361941740e+01 0.0000000000e+00 0.0000e+00 -1.0000e+00
      -13  1    1    2    0    0 -3.1212882880e+01 +1.5373880039e+02 +6.0800814033e+01 1.6824565905e+02 0.0000000000e+00 0.0000e+00 -1.0000e+00
       13  1    1    2    0    0 +3.1212882880e+01 -1.5373880039e+02 +3.3114922160e+02 3.6642826006e+02 0.0000000000e+00 0.0000e+00 1.0000e+00
<mgrwt>
<rscale>  0 0.36366381E+03</rscale>
<asrwt>0</asrwt>
<pdfrwt beam="1">  1        2 0.71278764E-01 0.36366381E+03</pdfrwt>
<pdfrwt beam="2">  1       -2 0.10978761E-01 0.36366381E+03</pdfrwt>
<totfact> 0.41645342E+03</totfact>
</mgrwt>
<rwgt>
<wgt id='morphing_basis_vector_1'> +1.9868635e-04 </wgt>
<wgt id='morphing_basis_vector_2'> +1.0870368e-04 </wgt>
<wgt id='morphing_basis_vector_3'> +1.2110604e-04 </wgt>
<wgt id='morphing_basis_vector_4'> +2.2954041e-05 </wgt>
<wgt id='morphing_basis_vector_5'> +1.5598395e-05 </wgt>
</rwgt>
</event>
<event>
 4      1 +3.1894900e-05 3.61400500e+02 7.81860800e-03 9.77783500e-02
        2 -1    0    0  501    0 +0.0000000000e+00 +0.0000000000e+00 +5.7591526705e+02 5.7591526705e+02 0.0000000000e+00 0.0000e+00 -1.0000e+00
       -2 -1    0    0    0  501 -0.0000000000e+00 -0.0000000000e+00 -5.6696860195e+01 5.6696860195e+01 0.0000000000e+00 0.0000e+00 1.0000e+00
      -13  1    1    2    0    0 +1.0492822406e+01 -1.5968624953e+02 +1.1270944567e+02 1.9573762223e+02 0.0000000000e+00 0.0000e+00 1.0000e+00
       13  1    1    2    0    0 -1.0492822406e+01 +1.5968624953e+02 +4.0650896118e+02 4.3687450501e+02 0.0000000000e+00 0.0000e+00 -1.0000e+00
<mgrwt>
<rscale>  0 0.36140054E+03</rscale>
<asrwt>0</asrwt>
<pdfrwt beam="1">  1        2 0.88602345E-01 0.36140054E+03</pdfrwt>
<pdfrwt beam="2">  1       -2 0.87225943E-02 0.36140054E+03</pdfrwt>
<totfact> 0.46560451E+03</totfact>
</mgrwt>
<rwgt>
<wgt id='morphing_basis_vector_1'> +1.9582595e-04 </wgt>
<wgt id='morphing_basis_vector_2'> +1.0758980e-04 </wgt>
<wgt id='morphing_basis_vector_3'> +1.1878734e-04 </wgt>
<wgt id='morphing_basis_vector_4'> +2.2387830e-05 </wgt>
<wgt id='morphing_basis_vector_5'> +1.4660512e-05 </wgt>
</rwgt>
</event>
<event>
 4      1 +3.1894900e-05 4.07898600e+02 7.81860800e-03 9.63339900e-02
        2 -1    0    0  501    0 +0.0000000000e+00 +0.0000000000e+00 +1.0271140328e+02 1.0271140328e+02 0.0000000000e+00 0.0000e+00 1.0000e+00
       -2 -1    0    0    0  501 -0.0000000000e+00 -0.0000000000e+00 -4.0497282446e+02 4.0497282446e+02 0.0000000000e+00 0.0000e+00 -1.0000e+00
      -13  1    1    2    0    0 +1.6227587861e+02 +1.2305814666e+02 -1.6468286689e+02 2.6191070021e+02 0.0000000000e+00 0.0000e+00 -1.0000e+00
       13  1    1    2    0    0 -1.6227587861e+02 -1.2305814666e+02 -1.3757855429e+02 2.4577352754e+02 0.0000000000e+00 0.0000e+00 1.0000e+00
<mgrwt>
<rscale>  0 0.40789865E+03</rscale>
<asrwt>0</asrwt>
<pdfrwt beam="1">  1        2 0.15801754E-01 0.40789865E+03</pdfrwt>
<pdfrwt beam="2">  1       -2 0.62303512E-01 0.40789865E+03</pdfrwt>
<totfact> 0.11434294E+03</totfact>
</mgrwt>
<rwgt>
<wgt id='morphing_basis_vector_1'> +2.7275381e-04 </wgt>
<wgt id='morphing_basis_vector_2'> +1.6386753e-04 </wgt>
<wgt id='morphing_basis_vector_3'> +1.6587729e-04 </wgt>
<wgt id='morphing_basis_vector_4'> +3.9927246e-05 </wgt>
<wgt id='morphing_basis_vector_5'> +4.2445389e-05 </wgt>
</rwgt>
</event>
<event>
 4      1 +3.1894900e-05 4.25117700e+02 7.81860800e-03 9.58503900e-02
        2 -1    0    0  501    0 +0.0000000000e+00 +0.0000000000e+00 +5.1696313004e+02 5.1696313004e+02 0.0000000000e+00 0.0000e+00 -1.0000e+00
       -2 -1    0    0    0  501 -0.0000000000e+00 -0.0000000000e+00 -8.7397459240e+01 8.7397459240e+01 0.0000000000e+00 0.0000e+00 1.0000e+00
      -13  1    1    2    0    0 +7.4041402092e+01 -6.5915527788e+01 -5.2522691348e+01 1.1218564584e+02 0.0000000000e+00 0.0000e+00 1.0000e+00
       13  1    1    2    0    0 -7.4041402092e+01 +6.5915527788e+01 +4.8208836215e+02 4.9217494344e+02 0.0000000000e+00 0.0000e+00 -1.0000e+00
<mgrwt>
<rscale>  0 0.42511770E+03</rscale>
<asrwt>0</asrwt>
<pdfrwt beam="1">  1        2 0.79532787E-01 0.42511770E+03</pdfrwt>
<pdfrwt beam="2">  1       -2 0.13445763E-01 0.42511770E+03</pdfrwt>
<totfact> 0.26874783E+03</totfact>
</mgrwt>
<rwgt>
<wgt id='morphing_basis_vector_1'> +2.9742225e-04 </wgt>
<wgt id='morphing_basis_vector_2'> +1.6014680e-04 </wgt>
<wgt id='morphing_basis_vector_3'> +1.9643712e-04 </wgt>
<wgt id='morphing_basis_vector_4'> +4.9299208e-05 </wgt>
<wgt id='morphing_basis_vector_5'> +5.6959825e-05 </wgt>
</rwgt>
</event>
<event>
 4      1 +3.1894900e-05 4.22032900e+02 7.81860800e-03 9.59352200e-02
        2 -1    0    0  501    0 +0.0000000000e+00 +0.0000000000e+00 +8.1288726588e+01 8.1288726588e+01 0.0000000000e+00 0.0000e+00 1.0000e+00
       -2 -1    0    0    0  501 -0.0000000000e+00 -0.0000000000e+00 -5.4777511363e+02 5.4777511363e+02 0.0000000000e+00 0.0000e+00 -1.0000e+00
      -13  1    1    2    0    0 +1.2345171889e+01 +1.7964865860e+02 -6.9269131685e+01 1.9293588679e+02 0.0000000000e+00 0.0000e+00 1.0000e+00
       13  1    1    2    0    0 -1.2345171889e+01 -1.7964865860e+02 -3.9721725536e+02 4.3612795343e+02 0.0000000000e+00 0.0000e+00 -1.0000e+00
<mgrwt>
<rscale>  0 0.42203290E+03</rscale>
<asrwt>0</asrwt>
<pdfrwt beam="1">  1        2 0.12505958E-01 0.42203290E+03</pdfrwt>
<pdfrwt beam="2">  1       -2 0.84273093E-01 0.42203290E+03</pdfrwt>
<totfact> 0.79635085E+02</totfact>
</mgrwt>
<rwgt>
<wgt id='morphing_basis_vector_1'> +3.4317836e-04 </wgt>
<wgt id='morphing_basis_vector_2'> +3.1567060e-04 </wgt>
<wgt id='morphing_basis_vector_3'> +1.4940169e-04 </wgt>
<wgt id='morphing_basis_vector_4'> +4.5144900e-05 </wgt>
<wgt id='morphing_basis_vector_5'> +5.7272684e-05 </wgt>
</rwgt>
</event>
<event>
 4      1 +3.1894900e-05 3.88518700e+02 7.81860800e-03 9.69096100e-02
        2 -1    0    0  501    0 +0.0000000000e+00 +0.0000000000e+00 +3.9385981669e+02 3.9385981669e+02 0.0000000000e+00 0.0000e+00 -1.0000e+00
       -2 -1    0    0    0  501 -0.0000000000e+00 -0.0000000000e+00 -9.5812494028e+01 9.5812494028e+01 0.0000000000e+00 0.0000e+00 1.0000e+00
      -13  1    1    2    0    0 +1.8669689572e+02 -1.7432292992e+00 +8.1410207366e+01 2.0368208459e+02 0.0000000000e+00 0.0000e+00 1.0000e+00
       13  1    1    2    0    0 -1.8669689572e+02 +1.7432292992e+00 +2.1663711530e+02 2.8599022613e+02 0.0000000000e+00 0.0000e+00 -1.0000e+00
<mgrwt>
<rscale>  0 0.38851868E+03</rscale>
<asrwt>0</asrwt>
<pdfrwt beam="1">  1        2 0.60593817E-01 0.38851868E+03</pdfrwt>
<pdfrwt beam="2">  1       -2 0.14740384E-01 0.38851868E+03</pdfrwt>
<totfact> 0.31389498E+03</totfact>
</mgrwt>
<rwgt>
<wgt id='morphing_basis_vector_1'> +2.3642017e-04 </wgt>
<wgt id='morphing_basis_vector_2'> +1.3313883e-04 </wgt>
<wgt id='morphing_basis_vector_3'> +1.4550905e-04 </wgt>
<wgt id='morphing_basis_vector_4'> +3.1382100e-05 </wgt>
<wgt id='morphing_basis_vector_5'> +2.8611684e-05 </wgt>
</rwgt>
</event>
<event>
 4      1 +3.1894900e-05 3.91310500e+02 7.81860800e-03 9.68245100e-02
        2 -1    0    0  501    0 +0.0000000000e+00 +0.0000000000e+00 +8.4904749775e+02 8.4904749775e+02 0.0000000000e+00 0.0000e+00 -1.0000e+00
       -2 -1    0    0    0  501 -0.0000000000e+00 -0.0000000000e+00 -4.5086956917e+01 4.5086956917e+01 0.0000000000e+00 0.0000e+00 1.0000e+00
      -13  1    1    2    0    0 -6.9459895318e+01 -1.7460122054e+02 +2.7743962282e+02 3.3508656729e+02 0.0000000000e+00 0.0000e+00 1.0000e+00
       13  1    1    2    0    0 +6.9459895318e+01 +1.7460122054e+02 +5.2652091802e+02 5.5904788738e+02 0.0000000000e+00 0.0000e+00 -1.0000e+00
<mgrwt>
<rscale>  0 0.39131045E+03</rscale>
<asrwt>0</asrwt>
<pdfrwt beam="1">  1        2 0.13062268E+00 0.39131045E+03</pdfrwt>
<pdfrwt beam="2">  1       -2 0.69364555E-02 0.39131045E+03</pdfrwt>
<totfact> 0.41577418E+03</totfact>
</mgrwt>
<rwgt>
<wgt id='morphing_basis_vector_1'> +2.4082790e-04 </wgt>
<wgt id='morphing_basis_vector_2'> +1.3557097e-04 </wgt>
<wgt id='morphing_basis_vector_3'> +1.4877816e-04 </wgt>
<wgt id='morphing_basis_vector_4'> +3.2474299e-05 </wgt>
<wgt id='morphing_basis_vector_5'> +3.0365710e-05 </wgt>
</rwgt>
</event>
<event>
 4      1 +3.1894900e-05 3.60742800e+02 7.81860800e-03 9.78004300e-02
        2 -1    0    0  501    0 +0.0000000000e+00 +0.0000000000e+00 +4.3627622874e+01 4.3627622874e+01 0.0000000000e+00 0.0000e+00 -1.0000e+00
       -2 -1    0    0    0  501 -0.0000000000e+00 -0.0000000000e+00 -7.4571641020e+02 7.4571641020e+02 0.0000000000e+00 0.0000e+00 1.0000e+00
      -13  1    1    2    0    0 -3.2727629252e+01 +1.1154770665e+02 -6.5281171269e+02 6.6308153405e+02 0.0000000000e+00 0.0000e+00 1.0000e+00
       13  1    1    2    0    0 +3.2727629252e+01 -1.1154770665e+02 -4.9277074635e+01 1.2626249902e+02 0.0000000000e+00 0.0000e+00 -1.0000e+00
<mgrwt>
<rscale>  0 0.36074276E+03</rscale>
<asrwt>0</asrwt>
<pdfrwt beam="1">  1        2 0.67119422E-02 0.36074276E+03</pdfrwt>
<pdfrwt beam="2">  1       -2 0.11472560E+00 0.36074276E+03</pdfrwt>
<totfact> 0.84603292E+02</totfact>
</mgrwt>
<rwgt>
<wgt id='morphing_basis_vector_1'> +1.9421631e-04 </wgt>
<wgt id='morphing_basis_vector_2'> +1.0490891e-04 </wgt>
<wgt id='morphing_basis_vector_3'> +1.1903680e-04 </wgt>
<wgt id='morphing_basis_vector_4'> +2.2024805e-05 </wgt>
<wgt id='morphing_basis_vector_5'> +1.4343788e-05 </wgt>
</rwgt>
</event>
<event>
 4      1 +3.1894900e-05 4.17059200e+02 7.81860800e-03 9.60736300e-02
        2 -1    0    0  501    0 +0.0000000000e+00 +0.0000000000e+00 +8.1001502713e+02 8.1001502713e+02 0.0000000000e+00 0.0000e+00 -1.0000e+00
       -2 -1    0    0    0  501 -0.0000000000e+00 -0.0000000000e+00 -5.3683678980e+01 5.3683678980e+01 0.0000000000e+00 0.0000e+00 1.0000e+00
      -13  1    1    2    0    0 +6.0106964930e+01 -1.2040479388e+02 +4.8280570037e+01 1.4297263747e+02 0.0000000000e+00 0.0000e+00 1.0000e+00
       13  1    1    2    0    0 -6.0106964930e+01 +1.2040479388e+02 +7.0805077811e+02 7.2072606863e+02 0.0000000000e+00 0.0000e+00 -1.0000e+00
<mgrwt>
<rscale>  0 0.41705916E+03</rscale>
<asrwt>0</asrwt>
<pdfrwt beam="1">  1        2 0.12461769E+00 0.41705916E+03</pdfrwt>
<pdfrwt beam="2">  1       -2 0.82590281E-02 0.41705916E+03</pdfrwt>
<totfact> 0.33827046E+03</totfact>
</mgrwt>
<rwgt>
<wgt id='morphing_basis_vector_1'> +2.8242912e-04 </wgt>
<wgt id='morphing_basis_vector_2'> +1.5225674e-04 </wgt>
<wgt id='morphing_basis_vector_3'> +1.8453608e-04 </wgt>
<wgt id='morphing_basis_vector_4'> +4.4605364e-05 </wgt>
<wgt id='morphing_basis_vector_5'> +4.9609307e-05 </wgt>
</rwgt>
</event>
<event>
 4      1 +3.1894900e-05 3.95397500e+02 7.81860800e-03 9.67012700e-02
        2 -1    0    0  501    0 +0.0000000000e+00 +0.0000000000e+00 +4.5258511672e+02 4.5258511672e+02 0.0000000000e+00 0.0000e+00 -1.0000e+00
       -2 -1    0    0    0  501 -0.0000000000e+00 -0.0000000000e+00 -8.6358991869e+01 8.6358991869e+01 0.0000000000e+00 0.0000e+00 1.0000e+00
      -13  1    1    2    0    0 +6.7721316748e+01 +1.5501833929e+02 +4.3656078993e+01 1.7470751413e+02 0.0000000000e+00 0.0000e+00 1.0000e+00
       13  1    1    2    0    0 -6.7721316748e+01 -1.5501833929e+02 +3.2257004586e+02 3.6423659446e+02 0.0000000000e+00 0.0000e+00 -1.0000e+00
<mgrwt>
<rscale>  0 0.39539749E+03</rscale>
<asrwt>0</asrwt>
<pdfrwt beam="1">  1        2 0.69628478E-01 0.39539749E+03</pdfrwt>
<pdfrwt beam="2">  1       -2 0.13285999E-01 0.39539749E+03</pdfrwt>
<totfact> 0.31744195E+03</totfact>
</mgrwt>
<rwgt>
<wgt id='morphing_basis_vector_1'> +2.4569883e-04 </wgt>
<wgt id='morphing_basis_vector_2'> +1.3398605e-04 </wgt>
<wgt id='morphing_basis_vector_3'> +1.5535425e-04 </wgt>
<wgt id='morphing_basis_vector_4'> +3.3998672e-05 </wgt>
<wgt id='morphing_basis_vector_5'> +3.2939187e-05 </wgt>
</rwgt>
</event>
<event>
 4      1 +3.1894900e-05 3.66895600e+02 7.81860800e-03 9.75958300e-02
        2 -1    0    0  501    0 +0.0000000000e+00 +0.0000000000e+00 +1.7165791607e+02 1.7165791607e+02 0.0000000000e+00 0.0000e+00 -1.0000e+00
       -2 -1    0    0    0  501 -0.0000000000e+00 -0.0000000000e+00 -1.9604745457e+02 1.9604745457e+02 0.0000000000e+00 0.0000e+00 1.0000e+00
      -13  1    1    2    0    0 +1.7403278743e+02 +5.0996576385e+01 -3.9915091649e+01 1.8569134726e+02 0.0000000000e+00 0.0000e+00 1.0000e+00
       13  1    1    2    0    0 -1.7403278743e+02 -5.0996576385e+01 +1.5525553149e+01 1.8201402337e+02 0.0000000000e+00 0.0000e+00 -1.0000e+00
<mgrwt>
<rscale>  0 0.36689561E+03</rscale>
<asrwt>0</asrwt>
<pdfrwt beam="1">  1        2 0.26408910E-01 0.36689561E+03</pdfrwt>
<pdfrwt beam="2">  1       -2 0.30161147E-01 0.36689561E+03</pdfrwt>
<totfact> 0.24265487E+03</totfact>
</mgrwt>
<rwgt>
<wgt id='morphing_basis_vector_1'> +2.0586156e-04 </wgt>
<wgt id='morphing_basis_vector_2'> +1.1943269e-04 </wgt>
<wgt id='morphing_basis_vector_3'> +1.2106222e-04 </wgt>
<wgt id='morphing_basis_vector_4'> +2.4496372e-05 </wgt>
<wgt id='morphing_basis_vector_5'> +1.7197217e-05 </wgt>
</rwgt>
</event>
<event>
 4      1 +3.1894900e-05 4.18405900e+02 7.81860800e-03 9.60359500e-02
        2 -1    0    0  501    0 +0.0000000000e+00 +0.0000000000e+00 +7.5533175125e+02 7.5533175125e+02 0.0000000000e+00 0.0000e+00 1.0000e+00
       -2 -1    0    0    0  501 -0.0000000000e+00 -0.0000000000e+00 -5.7942589196e+01 5.7942589196e+01 0.0000000000e+00 0.0000e+00 -1.0000e+00
      -13  1    1    2    0    0 -2.9531544706e+01 +2.0405503214e+02 +2.7982703747e+02 3.4758270839e+02 0.0000000000e+00 0.0000e+00 -1.0000e+00
       13  1    1    2    0    0 +2.9531544706e+01 -2.0405503214e+02 +4.1756212459e+02 4.6569163205e+02 0.0000000000e+00 0.0000e+00 1.0000e+00
<mgrwt>
<rscale>  0 0.41840591E+03</rscale>
<asrwt>0</asrwt>
<pdfrwt beam="1">  1        2 0.11620488E+00 0.41840591E+03</pdfrwt>
<pdfrwt beam="2">  1       -2 0.89142450E-02 0.41840591E+03</pdfrwt>
<totfact> 0.32802561E+03</totfact>
</mgrwt>
<rwgt>
<wgt id='morphing_basis_vector_1'> +2.8950228e-04 </wgt>
<wgt id='morphing_basis_vector_2'> +1.6772416e-04 </wgt>
<wgt id='morphing_basis_vector_3'> +1.8259249e-04 </wgt>
<wgt id='morphing_basis_vector_4'> +4.5235722e-05 </wgt>
<wgt id='morphing_basis_vector_5'> +5.1082422e-05 </wgt>
</rwgt>
</event>
<event>
 4      1 +3.1894900e-05 3.65776900e+02 7.81860800e-03 9.76327100e-02
        2 -1    0    0  501    0 +0.0000000000e+00 +0.0000000000e+00 +1.5081567023e+03 1.5081567023e+03 0.0000000000e+00 0.0000e+00 -1.0000e+00
       -2 -1    0    0    0  501 -0.0000000000e+00 -0.0000000000e+00 -2.2178195388e+01 2.2178195388e+01 0.0000000000e+00 0.0000e+00 1.0000e+00
      -13  1    1    2    0    0 +4.4212302441e+01 -1.7743158588e+02 +7.2880214550e+02 7.5139155082e+02 0.0000000000e+00 0.0000e+00 1.0000e+00
       13  1    1    2    0    0 -4.4212302441e+01 +1.7743158588e+02 +7.5717636141e+02 7.7894334687e+02 0.0000000000e+00 0.0000e+00 -1.0000e+00
<mgrwt>
<rscale>  0 0.36577695E+03</rscale>
<asrwt>0</asrwt>
<pdfrwt beam="1">  1        2 0.23202403E+00 0.36577695E+03</pdfrwt>
<pdfrwt beam="2">  1       -2 0.34120312E-02 0.36577695E+03</pdfrwt>
<totfact> 0.50287424E+03</totfact>
</mgrwt>
<rwgt>
<wgt id='morphing_basis_vector_1'> +2.0656062e-04 </wgt>
<wgt id='morphing_basis_vector_2'> +1.2532702e-04 </wgt>
<wgt id='morphing_basis_vector_3'> +1.1742288e-04 </wgt>
<wgt id='morphing_basis_vector_4'> +2.4713528e-05 </wgt>
<wgt id='morphing_basis_vector_5'> +1.6843557e-05 </wgt>
</rwgt>
</event>
<event>
 4      1 +3.1894900e-05 3.73125800e+02 7.81860800e-03 9.73930100e-02
        2 -1    0    0  501    0 +0.0000000000e+00 +0.0000000000e+00 +2.1443869187e+02 2.1443869187e+02 0.0000000000e+00 0.0000e+00 1.0000e+00
       -2 -1    0    0    0  501 -0.0000000000e+00 -0.0000000000e+00 -1.6231081481e+02 1.6231081481e+02 0.0000000000e+00 0.0000e+00 -1.0000e+00
      -13  1    1    2    0    0 -2.3989003472e+01 -3.6358470225e+01 -1.5710430077e+02 1.6303119936e+02 0.0000000000e+00 0.0000e+00 -1.0000e+00
       13  1    1    2    0    0 +2.3989003472e+01 +3.6358470225e+01 +2.0923217783e+02 2.1371830732e+02 0.0000000000e+00 0.0000e+00 1.0000e+00
<mgrwt>
<rscale>  0 0.37312582E+03</rscale>
<asrwt>0</asrwt>
<pdfrwt beam="1">  1        2 0.32990568E-01 0.37312582E+03</pdfrwt>
<pdfrwt beam="2">  1       -2 0.24970894E-01 0.37312582E+03</pdfrwt>
<totfact> 0.26031924E+03</totfact>
</mgrwt>
<rwgt>
<wgt id='morphing_basis_vector_1'> +2.1103937e-04 </wgt>
<wgt id='morphing_basis_vector_2'> +1.1342908e-04 </wgt>
<wgt id='morphing_basis_vector_3'> +1.3126090e-04 </wgt>
<wgt id='morphing_basis_vector_4'> +2.5594398e-05 </wgt>
<wgt id='morphing_basis_vector_5'> +1.9909693e-05 </wgt>
</rwgt>
</event>
<event>
 4      1 +3.1894900e-05 3.84818800e+02 7.81860800e-03 9.70235800e-02
        2 -1    0    0  501    0 +0.0000000000e+00 +0.0000000000e+00 +5.3004407117e+02 5.3004407117e+02 0.0000000000e+00 0.0000e+00 1.0000e+00
       -2 -1    0    0    0  501 -0.0000000000e+00 -0.0000000000e+00 -6.9845865101e+01 6.9845865101e+01 0.0000000000e+00 0.0000e+00 -1.0000e+00
      -13  1    1    2    0    0 -7.5300098929e+01 +8.2735239096e+01 -1.3936330530e+01 1.1273617873e+02 0.0000000000e+00 0.0000e+00 -1.0000e+00
       13  1    1    2    0    0 +7.5300098929e+01 -8.2735239096e+01 +4.7413453660e+02 4.8715375754e+02 0.0000000000e+00 0.0000e+00 1.0000e+00
<mgrwt>
<rscale>  0 0.38481885E+03</rscale>
<asrwt>0</asrwt>
<pdfrwt beam="1">  1        2 0.81545239E-01 0.38481885E+03</pdfrwt>
<pdfrwt beam="2">  1       -2 0.10745518E-01 0.38481885E+03</pdfrwt>
<totfact> 0.37094028E+03</totfact>
</mgrwt>
<rwgt>
<wgt id='morphing_basis_vector_1'> +2.2831863e-04 </wgt>
<wgt id='morphing_basis_vector_2'> +1.2277947e-04 </wgt>
<wgt id='morphing_basis_vector_3'> +1.4372723e-04 </wgt>
<wgt id='morphing_basis_vector_4'> +2.9666433e-05 </wgt>
<wgt id='morphing_basis_vector_5'> +2.6229075e-05 </wgt>
</rwgt>
</event>
<event>
 4      1 +3.1894900e-05 4.13903300e+02 7.81860800e-03 9.61625100e-02
        2 -1    0    0  501    0 +0.0000000000e+00 +0.0000000000e+00 +1.0208218735e+02 1.0208218735e+02 0.0000000000e+00 0.0000e+00 -1.0000e+00
       -2 -1    0    0    0  501 -0.0000000000e+00 -0.0000000000e+00 -4.1955400795e+02 4.1955400795e+02 0.0000000000e+00 0.0000e+00 1.0000e+00
      -13  1    1    2    0    0 +8.9344449121e+01 -1.8102894081e+02 -2.1614577481e+02 2.9575818496e+02 0.0000000000e+00 0.0000e+00 1.0000e+00
       13  1    1    2    0    0 -8.9344449121e+01 +1.8102894081e+02 -1.0132604578e+02 2.2587801034e+02 0.0000000000e+00 0.0000e+00 -1.0000e+00
<mgrwt>
<rscale>  0 0.41390333E+03</rscale>
<asrwt>0</asrwt>
<pdfrwt beam="1">  1        2 0.15704952E-01 0.41390333E+03</pdfrwt>
<pdfrwt beam="2">  1       -2 0.64546771E-01 0.41390333E+03</pdfrwt>
<totfact> 0.10714551E+03</totfact>
</mgrwt>
<rwgt>
<wgt id='morphing_basis_vector_1'> +2.8028487e-04 </wgt>
<wgt id='morphing_basis_vector_2'> +1.6015313e-04 </wgt>
<wgt id='morphing_basis_vector_3'> +1.7697760e-04 </wgt>
<wgt id='morphing_basis_vector_4'> +4.2862039e-05 </wgt>
<wgt id='morphing_basis_vector_5'> +4.7130456e-05 </wgt>
</rwgt>
</event>
<event>
 4      1 +3.1894900e-05 3.74578800e+02 7.81860800e-03 9.73463200e-02
        2 -1    0    0  501    0 +0.0000000000e+00 +0.0000000000e+00 +5.2254322913e+02 5.2254322913e+02 0.0000000000e+00 0.0000e+00 -1.0000e+00
       -2 -1    0    0    0  501 -0.0000000000e+00 -0.0000000000e+00 -6.7128060482e+01 6.7128060482e+01 0.0000000000e+00 0.0000e+00 1.0000e+00
      -13  1    1    2    0    0 -1.1101350257e+02 +1.0797107562e+02 +6.1885836424e+01 1.6676812547e+02 0.0000000000e+00 0.0000e+00 1.0000e+00
       13  1    1    2    0    0 +1.1101350257e+02 -1.0797107562e+02 +3.9352933223e+02 4.2290316415e+02 0.0000000000e+00 0.0000e+00 -1.0000e+00
<mgrwt>
<rscale>  0 0.37457877E+03</rscale>
<asrwt>0</asrwt>
<pdfrwt beam="1">  1        2 0.80391263E-01 0.37457877E+03</pdfrwt>
<pdfrwt beam="2">  1       -2 0.10327394E-01 0.37457877E+03</pdfrwt>
<totfact> 0.40065906E+03</totfact>
</mgrwt>
<rwgt>
<wgt id='morphing_basis_vector_1'> +2.1366857e-04 </wgt>
<wgt id='morphing_basis_vector_2'> +1.1620644e-04 </wgt>
<wgt id='morphing_basis_vector_3'> +1.3215219e-04 </wgt>
<wgt id='morphing_basis_vector_4'> +2.6168782e-05 </wgt>
<wgt id='morphing_basis_vector_5'> +2.0673772e-05 </wgt>
</rwgt>
</event>
<event>
 4      1 +3.1894900e-05 3.67459400e+02 7.81860800e-03 9.75773000e-02
        2 -1    0    0  501    0 +0.0000000000e+00 +0.0000000000e+00 +5.3782305163e+02 5.3782305163e+02 0.0000000000e+00 0.0000e+00 1.0000e+00
       -2 -1    0    0    0  501 -0.0000000000e+00 -0.0000000000e+00 -6.2765259889e+01 6.2765259889e+01 0.0000000000e+00 0.0000e+00 -1.0000e+00
      -13  1    1    2    0    0 -9.5755577078e+01 -1.4770411892e+02 +1.5149231718e+02 2.3224030539e+02 0.0000000000e+00 0.0000e+00 -1.0000e+00
       13  1    1    2    0    0 +9.5755577078e+01 +1.4770411892e+02 +3.2356547457e+02 3.6834800613e+02 0.0000000000e+00 0.0000e+00 1.0000e+00
<mgrwt>
<rscale>  0 0.36745941E+03</rscale>
<asrwt>0</asrwt>
<pdfrwt beam="1">  1        2 0.82742005E-01 0.36745941E+03</pdfrwt>
<pdfrwt beam="2">  1       -2 0.96561942E-02 0.36745941E+03</pdfrwt>
<totfact> 0.43031779E+03</totfact>
</mgrwt>
<rwgt>
<wgt id='morphing_basis_vector_1'> +2.0516010e-04 </wgt>
<wgt id='morphing_basis_vector_2'> +1.1539683e-04 </wgt>
<wgt id='morphing_basis_vector_3'> +1.2328822e-04 </wgt>
<wgt id='morphing_basis_vector_4'> +2.4318827e-05 </wgt>
<wgt id='morphing_basis_vector_5'> +1.7355530e-05 </wgt>
</rwgt>
</event>
</LesHouchesEvents>
