<LesHouchesEvents version="3.0">
<header>
<!--
#*********************************************************************
#                                                                    *
#                        MadGraph5_aMC@NLO                           *
#                                                                    *
#                           Going Beyond                             *
#                                                                    *
#                   http://madgraph.hep.uiuc.edu                     *
#                   http://madgraph.phys.ucl.ac.be                   *
#                   http://amcatnlo.cern.ch                          *
#                                                                    *
#                     The MadGraph5_aMC@NLO team                     *
#                                                                    *
#....................................................................*
#                                                                    *
# This file contains all the information necessary to reproduce      *
# the events generated:                                              *
#                                                                    *
# 1. software version                                                *
# 2. proc_card          : code generation info including model       *
# 3. param_card         : model primary parameters in the LH format  *
# 4. run_card           : running parameters (collider and cuts)     *
# 5. pythia_card        : present only if pythia has been run        *
# 6. pgs_card           : present only if pgs has been run           *
# 7. delphes_cards      : present only if delphes has been run       *
#                                                                    *
#                                                                    *
#*********************************************************************
-->
<MGVersion>
2.6.4
</MGVersion>
<MG5ProcCard>
<![CDATA[
#************************************************************
#*                     MadGraph5_aMC@NLO                    *
#*                                                          *
#*                *                       *                 *
#*                  *        * *        *                   *
#*                    * * * * 5 * * * *                     *
#*                  *        * *        *                   *
#*                *                       *                 *
#*                                                          *
#*                                                          *
#*         VERSION 2.6.4                 2018-11-09         *
#*                                                          *
#*    The MadGraph5_aMC@NLO Development Team - Find us at   *
#*    https://server06.fynu.ucl.ac.be/projects/madgraph     *
#*                                                          *
#************************************************************
#*                                                          *
#*               Command File for MadGraph5_aMC@NLO         *
#*                                                          *
#*     run as ./bin/mg5_aMC  filename                       *
#*                                                          *
#************************************************************
set default_unset_couplings 99
set group_subprocesses Auto
set ignore_six_quark_processes False
set loop_optimized_output True
set loop_color_flows False
set gauge unitary
set complex_mass_scheme False
set max_npoint_for_channel 0
import model SM4fLL_UFO
define p = g u c d s u~ c~ d~ s~
define j = g u c d s u~ c~ d~ s~
define l+ = e+ mu+
define l- = e- mu-
define vl = ve vm vt
define vl~ = ve~ vm~ vt~
generate u u~ > mu+ mu- NP=2 QED=99 QCD=0
output /Users/dpappadopulo/Projects/~Physics/madminer/examples/example\
4_systematics_DY/data/mg_processes/DY_sys/
]]>
</MG5ProcCard>
<MGProcCard>
#*********************************************************************
#                        MadGraph/MadEvent                           *
#                   http://madgraph.hep.uiuc.edu                     *
#                                                                    *
#                          proc_card.dat                             *
#*********************************************************************
#                                                                    *
#            This Files is generated by MADGRAPH 5                   *
#                                                                    *
# WARNING: This Files is generated for MADEVENT (compatibility issue)*
#          This files is NOT a valid MG4 proc_card.dat               *
#          Running this in MG4 will NEVER reproduce the result of MG5*
#                                                                    *
#*********************************************************************
#*********************************************************************
# Process(es) requested : mg2 input                                  *
#*********************************************************************
# Begin PROCESS # This is TAG. Do not modify this line
u u~ > mu+ mu-           #Process
# Be carefull the coupling are here in MG5 convention
NP=2
QED=99
QCD=0
          
end_coup           # End the couplings input

done               # this tells MG there are no more procs
# End PROCESS  # This is TAG. Do not modify this line
#*********************************************************************
# Model information                                                  *
#*********************************************************************
# Begin MODEL  # This is TAG. Do not modify this line
SM4fLL_UFO
# End   MODEL  # This is TAG. Do not modify this line
#*********************************************************************
# Start multiparticle definitions                                    *
#*********************************************************************
# Begin MULTIPARTICLES # This is TAG. Do not modify this line

# End  MULTIPARTICLES # This is TAG. Do not modify this line
</MGProcCard>
<MGRunCard>
<![CDATA[
#*********************************************************************
#                       MadGraph5_aMC@NLO                            *
#                                                                    *
#                     run_card.dat MadEvent                          *
#                                                                    *
#  This file is used to set the parameters of the run.               *
#                                                                    *
#  Some notation/conventions:                                        *
#                                                                    *
#   Lines starting with a '# ' are info or comments                  *
#                                                                    *
#   mind the format:   value    = variable     ! comment             *
#*********************************************************************
#
#*******************                                                 
# Running parameters
#*******************                                                 
#                                                                    
#*********************************************************************
# Tag name for the run (one word)                                    *
#*********************************************************************
  tag_1     = run_tag ! name of the run 
#*********************************************************************
# Run to generate the grid pack                                      *
#*********************************************************************
  False     = gridpack  !True = setting up the grid pack
#*********************************************************************
# Number of events and rnd seed                                      *
# Warning: Do not generate more than 1M events in a single run       *
# If you want to run Pythia, avoid more than 50k events in a run.    *
#*********************************************************************
  1000 = nevents ! Number of unweighted events requested
 102 = iseed   ! rnd seed (0=assigned automatically=default))
#*********************************************************************
# Collider type and energy                                           *
# lpp: 0=No PDF, 1=proton, -1=antiproton, 2=photon from proton,      *
#                                         3=photon from electron     *
#*********************************************************************
     1        = lpp1    ! beam 1 type 
     1        = lpp2    ! beam 2 type
     6500.0     = ebeam1  ! beam 1 total energy in GeV
     6500.0     = ebeam2  ! beam 2 total energy in GeV
#*********************************************************************
# Beam polarization from -100 (left-handed) to 100 (right-handed)    *
#*********************************************************************
     0.0     = polbeam1 ! beam polarization for beam 1
     0.0     = polbeam2 ! beam polarization for beam 2
#*********************************************************************
# PDF CHOICE: this automatically fixes also alpha_s and its evol.    *
#*********************************************************************
     lhapdf    = pdlabel     ! PDF set
     90900   = lhaid     ! if pdlabel=lhapdf, this is the lhapdf number
#*********************************************************************
# Renormalization and factorization scales                           *
#*********************************************************************
 False = fixed_ren_scale  ! if .true. use fixed ren scale
 False        = fixed_fac_scale  ! if .true. use fixed fac scale
 91.188  = scale            ! fixed ren scale
 91.188  = dsqrt_q2fact1    ! fixed fact scale for pdf1
 91.188  = dsqrt_q2fact2    ! fixed fact scale for pdf2
 -1 = dynamical_scale_choice ! Choose one of the preselected dynamical choices
 1.0  = scalefact        ! scale factor for event-by-event scales
#*********************************************************************
# Type and output format
#*********************************************************************
  False     = gridpack  !True = setting up the grid pack
  -1.0 = time_of_flight ! threshold (in mm) below which the invariant livetime is not written (-1 means not written)
  3.0 = lhe_version       ! Change the way clustering information pass to shower.        
  True = clusinfo         ! include clustering tag in output
  sum =  event_norm       ! average/sum. Normalization of the weight in the LHEF
#*********************************************************************
# Matching - Warning! ickkw > 1 is still beta
#*********************************************************************
 0 = ickkw            ! 0 no matching, 1 MLM, 2 CKKW matching
 1 = highestmult      ! for ickkw=2, highest mult group
 1 = ktscheme         ! for ickkw=1, 1 Durham kT, 2 Pythia pTE
 1.0 = alpsfact         ! scale factor for QCD emission vx
 False = chcluster        ! cluster only according to channel diag
 True = pdfwgt           ! for ickkw=1, perform pdf reweighting
 4 = asrwgtflavor     ! highest quark flavor for a_s reweight    
#*********************************************************************
#**********************************************************
#
#**********************************************************
# Automatic ptj and mjj cuts if xqcut > 0
# (turn off for VBF and single top processes)
#**********************************************************
   False  = auto_ptj_mjj  ! Automatic setting of ptj and mjj
#**********************************************************
#                                                                    
#**********************************
# BW cutoff (M+/-bwcutoff*Gamma)
#**********************************
  15.0  = bwcutoff      ! (M+/-bwcutoff*Gamma)
#**********************************************************
# Apply pt/E/eta/dr/mij/kt_durham cuts on decay products or not
# (note that etmiss/ptll/ptheavy/ht/sorted cuts always apply)
#*************************************************************
   False  = cut_decays    ! Cut decay products 
#*************************************************************
# Number of helicities to sum per event (0 = all helicities)
# 0 gives more stable result, but longer run time (needed for
# long decay chains e.g.).
# Use >=2 if most helicities contribute, e.g. pure QCD.
#*************************************************************
   0  = nhel          ! Number of helicities used per event
#*******************                                                 
# Standard Cuts
#*******************                                                 
#                                                                    
#*********************************************************************
# Minimum and maximum pt's (for max, -1 means no cut)                *
#*********************************************************************
 15.0  = ptj       ! minimum pt for the jets
 0.0  = ptb       ! minimum pt for the b 
 0.0 = pta       ! minimum pt for the photons
 25.0  = ptl       ! minimum pt for the charged leptons
 0.0  = misset    ! minimum missing Et (sum of neutrino's momenta)
 0.0  = ptheavy   ! minimum pt for one heavy final state
 -1.0  = ptjmax    ! maximum pt for the jets
 -1.0  = ptbmax    ! maximum pt for the b
 -1.0 = ptamax       ! maximum pt for the photons
 -1.0  = ptlmax    ! maximum pt for the charged leptons
 -1.0  = missetmax ! maximum missing Et (sum of neutrino's momenta)
#*********************************************************************
# Minimum and maximum E's (in the center of mass frame)              *
#*********************************************************************
  0.0  = ej     ! minimum E for the jets 
  0.0  = eb     ! minimum E for the b 
  0.0  = ea     ! minimum E for the photons 
  0.0  = el     ! minimum E for the charged leptons 
  -1.0   = ejmax ! maximum E for the jets
 -1.0   = ebmax ! maximum E for the b
 -1.0   = eamax ! maximum E for the photons
 -1.0   = elmax ! maximum E for the charged leptons
#*********************************************************************
# Maximum and minimum absolute rapidity (for max, -1 means no cut)   *
#*********************************************************************
 2.5 = etaj    ! max rap for the jets
  -1.0  = etab    ! max rap for the b
 3.0  = etaa    ! max rap for the photons
 2.5  = etal    ! max rap for the charged leptons
 0.0  = etajmin ! min rap for the jets
 0.0  = etabmin ! min rap for the b
 0.0  = etaamin ! min rap for the photons
 0.0  = etalmin ! main rap for the charged leptons
#*********************************************************************
# Minimum and maximum DeltaR distance                                *
#*********************************************************************
 0.0 = drjj    ! min distance between jets
 0.0 = drbb    ! min distance between b's
 0.0 = drll    ! min distance between leptons
 0.0 = draa    ! min distance between gammas
 0.0 = drbj    ! min distance between b and jet
 0.0 = draj    ! min distance between gamma and jet
 0.0 = drjl    ! min distance between jet and lepton
 0.0 = drab    ! min distance between gamma and b
 0.0 = drbl    ! min distance between b and lepton
 0.0 = dral    ! min distance between gamma and lepton
 -1.0  = drjjmax ! max distance between jets
 -1.0  = drbbmax ! max distance between b's
 -1.0  = drllmax ! max distance between leptons
 -1.0  = draamax ! max distance between gammas
 -1.0  = drbjmax ! max distance between b and jet
 -1.0  = drajmax ! max distance between gamma and jet
 -1.0  = drjlmax ! max distance between jet and lepton
 -1.0  = drabmax ! max distance between gamma and b
 -1.0  = drblmax ! max distance between b and lepton
 -1.0  = dralmax ! maxdistance between gamma and lepton
#*********************************************************************
# Minimum and maximum invariant mass for pairs                       *
# WARNING: for four lepton final state mmll cut require to have      *
#          different lepton masses for each flavor!                  *           
#*********************************************************************
 0.0   = mmjj    ! min invariant mass of a jet pair 
 0.0   = mmbb    ! min invariant mass of a b pair 
 0.0   = mmaa    ! min invariant mass of gamma gamma pair
 1550   = mmll    ! min invariant mass of l+l- (same flavour) lepton pair
 -1.0  = mmjjmax ! max invariant mass of a jet pair
 -1.0  = mmbbmax ! max invariant mass of a b pair
 -1.0  = mmaamax ! max invariant mass of gamma gamma pair
 1860  = mmllmax ! max invariant mass of l+l- (same flavour) lepton pair
#*********************************************************************
# Minimum and maximum invariant mass for all letpons                 *
#*********************************************************************
 0.0   = mmnl    ! min invariant mass for all letpons (l+- and vl) 
 -1.0  = mmnlmax ! max invariant mass for all letpons (l+- and vl) 
#*********************************************************************
# Minimum and maximum pt for 4-momenta sum of leptons                *
#*********************************************************************
 0.0   = ptllmin  ! Minimum pt for 4-momenta sum of leptons(l and vl)
 -1.0  = ptllmax  ! Maximum pt for 4-momenta sum of leptons(l and vl)
#*********************************************************************
# Inclusive cuts                                                     *
#*********************************************************************
 0.0  = xptj ! minimum pt for at least one jet  
 0.0  = xptb ! minimum pt for at least one b 
 0.0  = xpta ! minimum pt for at least one photon 
 0.0  = xptl ! minimum pt for at least one charged lepton 
#*********************************************************************
# Control the pt's of the jets sorted by pt                          *
#*********************************************************************
 0.0   = ptj1min ! minimum pt for the leading jet in pt
 0.0   = ptj2min ! minimum pt for the second jet in pt
 0.0   = ptj3min ! minimum pt for the third jet in pt
 0.0   = ptj4min ! minimum pt for the fourth jet in pt
 -1.0  = ptj1max ! maximum pt for the leading jet in pt 
 -1.0  = ptj2max ! maximum pt for the second jet in pt
 -1.0  = ptj3max ! maximum pt for the third jet in pt
 -1.0  = ptj4max ! maximum pt for the fourth jet in pt
 0   = cutuse  ! reject event if fails any (0) / all (1) jet pt cuts
#*********************************************************************
# Control the pt's of leptons sorted by pt                           *
#*********************************************************************
 0.0   = ptl1min ! minimum pt for the leading lepton in pt
 0.0   = ptl2min ! minimum pt for the second lepton in pt
 0.0   = ptl3min ! minimum pt for the third lepton in pt
 0.0   = ptl4min ! minimum pt for the fourth lepton in pt
 -1.0  = ptl1max ! maximum pt for the leading lepton in pt 
 -1.0  = ptl2max ! maximum pt for the second lepton in pt
 -1.0  = ptl3max ! maximum pt for the third lepton in pt
 -1.0  = ptl4max ! maximum pt for the fourth lepton in pt
#*********************************************************************
# Control the Ht(k)=Sum of k leading jets                            *
#*********************************************************************
 0.0   = htjmin ! minimum jet HT=Sum(jet pt)
 -1.0  = htjmax ! maximum jet HT=Sum(jet pt)
 0.0   = ihtmin  !inclusive Ht for all partons (including b)
 -1.0  = ihtmax  !inclusive Ht for all partons (including b)
 0.0   = ht2min ! minimum Ht for the two leading jets
 0.0   = ht3min ! minimum Ht for the three leading jets
 0.0   = ht4min ! minimum Ht for the four leading jets
 -1.0  = ht2max ! maximum Ht for the two leading jets
 -1.0  = ht3max ! maximum Ht for the three leading jets
 -1.0  = ht4max ! maximum Ht for the four leading jets
#***********************************************************************
# Photon-isolation cuts, according to hep-ph/9801442                   *
# When ptgmin=0, all the other parameters are ignored                  *
# When ptgmin>0, pta and draj are not going to be used                 *
#***********************************************************************
 0.0 = ptgmin ! Min photon transverse momentum
 0.4 = R0gamma ! Radius of isolation code
 1.0 = xn ! n parameter of eq.(3.4) in hep-ph/9801442
 1.0 = epsgamma ! epsilon_gamma parameter of eq.(3.4) in hep-ph/9801442
 True = isoEM ! isolate photons from EM energy (photons and leptons)
#*********************************************************************
# WBF cuts                                                           *
#*********************************************************************
 0.0   = xetamin ! minimum rapidity for two jets in the WBF case  
 0.0   = deltaeta ! minimum rapidity for two jets in the WBF case 
#*********************************************************************
# KT DURHAM CUT                                                      *
#*********************************************************************
 -1.0    =  ktdurham        
 0.4  =  dparameter 
#*********************************************************************
# maximal pdg code for quark to be considered as a light jet         *
# (otherwise b cuts are applied)                                     *
#*********************************************************************
 4 = maxjetflavor    ! Maximum jet pdg code
#*********************************************************************
# Jet measure cuts                                                   *
#*********************************************************************
 0.0   = xqcut   ! minimum kt jet measure between partons
#*********************************************************************
#
#*********************************************************************
# Store info for systematics studies                                 *
# WARNING: If use_syst is T, matched Pythia output is                *
#          meaningful ONLY if plotted taking matchscale              *
#          reweighting into account!                                 *
#*********************************************************************
#    False  = use_syst      ! Enable systematics studies # Commented out by MadMiner
#
#**************************************
# Parameter of the systematics study
#  will be used by SysCalc (if installed)
#**************************************                                  
#
0.5 1 2 = sys_scalefact  # factorization/renormalization scale factor
None = sys_alpsfact  # \alpha_s emission scale factors
30 50 = sys_matchscale # variation of merging scale
# PDF sets and number of members (0 or none for all members).
NNPDF23_lo_as_0130_qed = sys_pdf # matching scales
# MSTW2008nlo68cl.LHgrid 1  = sys_pdf


#*********************************************************************
# MadMiner systematics setup                                         *
#*********************************************************************
True = use_syst
systematics = systematics_program
['--pdf=90900'] = systematics_arguments
]]>
</MGRunCard>
<slha>
######################################################################
## PARAM_CARD AUTOMATICALY GENERATED BY MG5 FOLLOWING UFO MODEL   ####
######################################################################
##                                                                  ##
##  Width set on Auto will be computed following the information    ##
##        present in the decay.py files of the model.               ##
##        See  arXiv:1402.1178 for more details.                    ##
##                                                                  ##
######################################################################

###################################
## INFORMATION FOR CKMBLOCK
###################################
Block ckmblock 
    1 2.277360e-01 # cabi 

###################################
## INFORMATION FOR MASS
###################################
Block mass 
    5 4.700000e+00 # MB 
    6 1.720000e+02 # MT 
   15 1.777000e+00 # MTA 
   23 9.118760e+01 # MZ 
   25 1.250000e+02 # MH 
## Dependent parameters, given by model restrictions.
## Those values should be edited following the 
## analytical expression. MG5 ignores those values 
## but they are important for interfacing the output of MG5
## to external program such as Pythia.
  1 0.000000 # d : 0.0 
  2 0.000000 # u : 0.0 
  3 0.000000 # s : 0.0 
  4 0.000000 # c : 0.0 
  11 0.000000 # e- : 0.0 
  12 0.000000 # ve : 0.0 
  13 0.000000 # mu- : 0.0 
  14 0.000000 # vm : 0.0 
  16 0.000000 # vt : 0.0 
  21 0.000000 # g : 0.0 
  22 0.000000 # a : 0.0 
  24 79.824360 # w+ : cmath.sqrt(MZ__exp__2/2. + cmath.sqrt(MZ__exp__4/4. - (aEW*cmath.pi*MZ__exp__2)/(Gf*sqrt__2))) 

###################################
## INFORMATION FOR OBLIQUE
###################################
Block oblique 
    1    0.0    # MadMiner
    2    0.0    # MadMiner

###################################
## INFORMATION FOR SMINPUTS
###################################
Block sminputs 
    1 1.279000e+02 # aEWM1 
    2 1.166370e-05 # Gf 
    3 1.184000e-01 # aS 

###################################
## INFORMATION FOR YUKAWA
###################################
Block yukawa 
    5 4.700000e+00 # ymb 
    6 1.720000e+02 # ymt 
   15 1.777000e+00 # ymtau 

###################################
## INFORMATION FOR DECAY
###################################
DECAY   6 1.508336e+00 # WT 
DECAY  23 2.495200e+00 # WZ 
DECAY  24 2.085000e+00 # WW 
DECAY  25 4.070000e-03 # WH 
## Dependent parameters, given by model restrictions.
## Those values should be edited following the 
## analytical expression. MG5 ignores those values 
## but they are important for interfacing the output of MG5
## to external program such as Pythia.
DECAY  1 0.000000 # d : 0.0 
DECAY  2 0.000000 # u : 0.0 
DECAY  3 0.000000 # s : 0.0 
DECAY  4 0.000000 # c : 0.0 
DECAY  5 0.000000 # b : 0.0 
DECAY  11 0.000000 # e- : 0.0 
DECAY  12 0.000000 # ve : 0.0 
DECAY  13 0.000000 # mu- : 0.0 
DECAY  14 0.000000 # vm : 0.0 
DECAY  15 0.000000 # ta- : 0.0 
DECAY  16 0.000000 # vt : 0.0 
DECAY  21 0.000000 # g : 0.0 
DECAY  22 0.000000 # a : 0.0
</slha>
<initrwgt>
<weightgroup name='mg_reweighting' weight_name_strategy='includeIdInWeightName'>
<weight id='morphing_basis_vector_1'>set param_card oblique 1 -0.06391685 # orig: 0.0
set param_card oblique 2 -0.08653588 # orig: 0.0
</weight>
<weight id='morphing_basis_vector_2'>set param_card oblique 1 0.0342439 # orig: 0.0
set param_card oblique 2 -0.09831893 # orig: 0.0
</weight>
<weight id='morphing_basis_vector_3'>set param_card oblique 1 -0.08145691 # orig: 0.0
set param_card oblique 2 0.09700122 # orig: 0.0
</weight>
<weight id='morphing_basis_vector_4'>set param_card oblique 1 0.09132942 # orig: 0.0
set param_card oblique 2 -0.005442744 # orig: 0.0
</weight>
<weight id='morphing_basis_vector_5'>set param_card oblique 1 0.08535809 # orig: 0.0
set param_card oblique 2 0.08156918 # orig: 0.0
</weight>
</weightgroup>
</initrwgt>
<MGGenerationInfo>
#  Number of Events        :       1000
#  Integrated weight (pb)  :       0.000151303
</MGGenerationInfo>
</header>
<init>
2212 2212 6.500000e+03 6.500000e+03 0 0 90900 90900 -3 1
1.513030e-04 5.887748e-07 1.513030e-07 1
<generator name='MadGraph5_aMC@NLO' version='2.6.4'>please cite 1405.0301 </generator>
</init>
<event>
 4      1 +1.5130300e-07 1.71683200e+03 7.81860800e-03 8.19895300e-02
        2 -1    0    0  501    0 +0.0000000000e+00 +0.0000000000e+00 +1.5322084371e+03 1.5322084371e+03 0.0000000000e+00 0.0000e+00 1.0000e+00
       -2 -1    0    0    0  501 -0.0000000000e+00 -0.0000000000e+00 -4.8092534843e+02 4.8092534843e+02 0.0000000000e+00 0.0000e+00 -1.0000e+00
      -13  1    1    2    0    0 +3.0396287783e+02 -5.2590054186e+02 -1.8560060939e+02 6.3514753974e+02 0.0000000000e+00 0.0000e+00 -1.0000e+00
       13  1    1    2    0    0 -3.0396287783e+02 +5.2590054186e+02 +1.2368836981e+03 1.3779862458e+03 0.0000000000e+00 0.0000e+00 1.0000e+00
<mgrwt>
<rscale>  0 0.17168318E+04</rscale>
<asrwt>0</asrwt>
<pdfrwt beam="1">  1        2 0.23572437E+00 0.17168318E+04</pdfrwt>
<pdfrwt beam="2">  1       -2 0.73988516E-01 0.17168318E+04</pdfrwt>
<totfact> 0.24488664E+01</totfact>
</mgrwt>
<rwgt>
<wgt id='morphing_basis_vector_1'> +1.8706415e-04 </wgt>
<wgt id='morphing_basis_vector_2'> +1.2396493e-04 </wgt>
<wgt id='morphing_basis_vector_3'> +1.9711970e-04 </wgt>
<wgt id='morphing_basis_vector_4'> +1.3485776e-04 </wgt>
<wgt id='morphing_basis_vector_5'> +2.1535080e-04 </wgt>
</rwgt>
</event>
<event>
 4      1 +1.5130300e-07 1.55685100e+03 7.81860800e-03 8.28268100e-02
        2 -1    0    0  501    0 +0.0000000000e+00 +0.0000000000e+00 +7.8433413805e+02 7.8433413805e+02 0.0000000000e+00 0.0000e+00 1.0000e+00
       -2 -1    0    0    0  501 -0.0000000000e+00 -0.0000000000e+00 -7.7256186766e+02 7.7256186766e+02 0.0000000000e+00 0.0000e+00 -1.0000e+00
      -13  1    1    2    0    0 -2.9241121825e+02 -1.9453856827e+02 -6.8882579446e+02 7.7319502729e+02 0.0000000000e+00 0.0000e+00 -1.0000e+00
       13  1    1    2    0    0 +2.9241121825e+02 +1.9453856827e+02 +7.0059806486e+02 7.8370097842e+02 0.0000000000e+00 0.0000e+00 1.0000e+00
<mgrwt>
<rscale>  0 0.15568515E+04</rscale>
<asrwt>0</asrwt>
<pdfrwt beam="1">  1        2 0.12066679E+00 0.15568515E+04</pdfrwt>
<pdfrwt beam="2">  1       -2 0.11885567E+00 0.15568515E+04</pdfrwt>
<totfact> 0.22750964E+01</totfact>
</mgrwt>
<rwgt>
<wgt id='morphing_basis_vector_1'> +1.2784998e-04 </wgt>
<wgt id='morphing_basis_vector_2'> +8.3856894e-05 </wgt>
<wgt id='morphing_basis_vector_3'> +1.3325761e-04 </wgt>
<wgt id='morphing_basis_vector_4'> +9.0407336e-05 </wgt>
<wgt id='morphing_basis_vector_5'> +1.4391174e-04 </wgt>
</rwgt>
</event>
<event>
 4      1 +1.5130300e-07 1.56275300e+03 7.81860800e-03 8.27941100e-02
        2 -1    0    0  501    0 +0.0000000000e+00 +0.0000000000e+00 +1.7660233037e+03 1.7660233037e+03 0.0000000000e+00 0.0000e+00 1.0000e+00
       -2 -1    0    0    0  501 -0.0000000000e+00 -0.0000000000e+00 -3.4571988392e+02 3.4571988392e+02 0.0000000000e+00 0.0000e+00 -1.0000e+00
      -13  1    1    2    0    0 +6.1239805503e+02 -3.2552763259e+02 +2.2377921321e+02 7.2875013114e+02 0.0000000000e+00 0.0000e+00 -1.0000e+00
       13  1    1    2    0    0 -6.1239805503e+02 +3.2552763259e+02 +1.1965242066e+03 1.3829930565e+03 0.0000000000e+00 0.0000e+00 1.0000e+00
<mgrwt>
<rscale>  0 0.15627532E+04</rscale>
<asrwt>0</asrwt>
<pdfrwt beam="1">  1        2 0.27169589E+00 0.15627532E+04</pdfrwt>
<pdfrwt beam="2">  1       -2 0.53187675E-01 0.15627532E+04</pdfrwt>
<totfact> 0.36538376E+01</totfact>
</mgrwt>
<rwgt>
<wgt id='morphing_basis_vector_1'> +1.3042187e-04 </wgt>
<wgt id='morphing_basis_vector_2'> +8.7161352e-05 </wgt>
<wgt id='morphing_basis_vector_3'> +1.3619971e-04 </wgt>
<wgt id='morphing_basis_vector_4'> +9.0534581e-05 </wgt>
<wgt id='morphing_basis_vector_5'> +1.4608334e-04 </wgt>
</rwgt>
</event>
<event>
 4      1 +1.5130300e-07 1.59623500e+03 7.81860800e-03 8.26113900e-02
        2 -1    0    0  501    0 +0.0000000000e+00 +0.0000000000e+00 +2.6080960326e+03 2.6080960326e+03 0.0000000000e+00 0.0000e+00 -1.0000e+00
       -2 -1    0    0    0  501 -0.0000000000e+00 -0.0000000000e+00 -2.4423622386e+02 2.4423622386e+02 0.0000000000e+00 0.0000e+00 1.0000e+00
      -13  1    1    2    0    0 -3.5328928299e+02 -6.4670264756e+02 +6.3420727577e+02 9.7224302542e+02 0.0000000000e+00 0.0000e+00 1.0000e+00
       13  1    1    2    0    0 +3.5328928299e+02 +6.4670264756e+02 +1.7296525330e+03 1.8800892310e+03 0.0000000000e+00 0.0000e+00 -1.0000e+00
<mgrwt>
<rscale>  0 0.15962350E+04</rscale>
<asrwt>0</asrwt>
<pdfrwt beam="1">  1        2 0.40124553E+00 0.15962350E+04</pdfrwt>
<pdfrwt beam="2">  1       -2 0.37574805E-01 0.15962350E+04</pdfrwt>
<totfact> 0.23313517E+01</totfact>
</mgrwt>
<rwgt>
<wgt id='morphing_basis_vector_1'> +1.4191742e-04 </wgt>
<wgt id='morphing_basis_vector_2'> +9.5764578e-05 </wgt>
<wgt id='morphing_basis_vector_3'> +1.4867636e-04 </wgt>
<wgt id='morphing_basis_vector_4'> +9.8165349e-05 </wgt>
<wgt id='morphing_basis_vector_5'> +1.5940346e-04 </wgt>
</rwgt>
</event>
<event>
 4      1 +1.5130300e-07 1.67998700e+03 7.81860800e-03 8.21738200e-02
        2 -1    0    0  501    0 +0.0000000000e+00 +0.0000000000e+00 +1.5653956114e+03 1.5653956114e+03 0.0000000000e+00 0.0000e+00 -1.0000e+00
       -2 -1    0    0    0  501 -0.0000000000e+00 -0.0000000000e+00 -4.5074179504e+02 4.5074179504e+02 0.0000000000e+00 0.0000e+00 1.0000e+00
      -13  1    1    2    0    0 +4.3851792571e+02 -6.2687107838e+02 +9.7361129723e+02 1.2382181868e+03 0.0000000000e+00 0.0000e+00 -1.0000e+00
       13  1    1    2    0    0 -4.3851792571e+02 +6.2687107838e+02 +1.4104251916e+02 7.7791921964e+02 0.0000000000e+00 0.0000e+00 1.0000e+00
<mgrwt>
<rscale>  0 0.16799872E+04</rscale>
<asrwt>0</asrwt>
<pdfrwt beam="1">  1        2 0.24083009E+00 0.16799872E+04</pdfrwt>
<pdfrwt beam="2">  1       -2 0.69344892E-01 0.16799872E+04</pdfrwt>
<totfact> 0.27078485E+01</totfact>
</mgrwt>
<rwgt>
<wgt id='morphing_basis_vector_1'> +1.9634515e-04 </wgt>
<wgt id='morphing_basis_vector_2'> +1.8633979e-04 </wgt>
<wgt id='morphing_basis_vector_3'> +2.1437566e-04 </wgt>
<wgt id='morphing_basis_vector_4'> +7.6418934e-05 </wgt>
<wgt id='morphing_basis_vector_5'> +1.9338307e-04 </wgt>
</rwgt>
</event>
<event>
 4      1 +1.5130300e-07 1.57039700e+03 7.81860800e-03 8.27519800e-02
        2 -1    0    0  501    0 +0.0000000000e+00 +0.0000000000e+00 +2.3742398654e+03 2.3742398654e+03 0.0000000000e+00 0.0000e+00 -1.0000e+00
       -2 -1    0    0    0  501 -0.0000000000e+00 -0.0000000000e+00 -2.5967737162e+02 2.5967737162e+02 0.0000000000e+00 0.0000e+00 1.0000e+00
      -13  1    1    2    0    0 +3.9088930340e+02 -2.5702759699e+02 -4.1012876290e-01 4.6782240363e+02 0.0000000000e+00 0.0000e+00 1.0000e+00
       13  1    1    2    0    0 -3.9088930340e+02 +2.5702759699e+02 +2.1149726226e+03 2.1660948334e+03 0.0000000000e+00 0.0000e+00 -1.0000e+00
<mgrwt>
<rscale>  0 0.15703966E+04</rscale>
<asrwt>0</asrwt>
<pdfrwt beam="1">  1        2 0.36526766E+00 0.15703966E+04</pdfrwt>
<pdfrwt beam="2">  1       -2 0.39950366E-01 0.15703966E+04</pdfrwt>
<totfact> 0.28702048E+01</totfact>
</mgrwt>
<rwgt>
<wgt id='morphing_basis_vector_1'> +1.3225446e-04 </wgt>
<wgt id='morphing_basis_vector_2'> +8.6907952e-05 </wgt>
<wgt id='morphing_basis_vector_3'> +1.3800246e-04 </wgt>
<wgt id='morphing_basis_vector_4'> +9.3611350e-05 </wgt>
<wgt id='morphing_basis_vector_5'> +1.4915180e-04 </wgt>
</rwgt>
</event>
<event>
 4      1 +1.5130300e-07 1.55475200e+03 7.81860800e-03 8.28384700e-02
        2 -1    0    0  501    0 +0.0000000000e+00 +0.0000000000e+00 +1.9811414839e+03 1.9811414839e+03 0.0000000000e+00 0.0000e+00 1.0000e+00
       -2 -1    0    0    0  501 -0.0000000000e+00 -0.0000000000e+00 -3.0503310912e+02 3.0503310912e+02 0.0000000000e+00 0.0000e+00 -1.0000e+00
      -13  1    1    2    0    0 +3.1449277703e+02 +1.3792717927e+02 -1.8745099870e+02 3.9123840621e+02 0.0000000000e+00 0.0000e+00 -1.0000e+00
       13  1    1    2    0    0 -3.1449277703e+02 -1.3792717927e+02 +1.8635593735e+03 1.8949361868e+03 0.0000000000e+00 0.0000e+00 1.0000e+00
<mgrwt>
<rscale>  0 0.15547524E+04</rscale>
<asrwt>0</asrwt>
<pdfrwt beam="1">  1        2 0.30479099E+00 0.15547524E+04</pdfrwt>
<pdfrwt beam="2">  1       -2 0.46928172E-01 0.15547524E+04</pdfrwt>
<totfact> 0.35465347E+01</totfact>
</mgrwt>
<rwgt>
<wgt id='morphing_basis_vector_1'> +1.2718297e-04 </wgt>
<wgt id='morphing_basis_vector_2'> +8.3407672e-05 </wgt>
<wgt id='morphing_basis_vector_3'> +1.3254073e-04 </wgt>
<wgt id='morphing_basis_vector_4'> +8.9907848e-05 </wgt>
<wgt id='morphing_basis_vector_5'> +1.4311130e-04 </wgt>
</rwgt>
</event>
<event>
 4      1 +1.5130300e-07 1.63868600e+03 7.81860800e-03 8.23862400e-02
        2 -1    0    0  501    0 +0.0000000000e+00 +0.0000000000e+00 +1.5905088985e+03 1.5905088985e+03 0.0000000000e+00 0.0000e+00 -1.0000e+00
       -2 -1    0    0    0  501 -0.0000000000e+00 -0.0000000000e+00 -4.2208042568e+02 4.2208042568e+02 0.0000000000e+00 0.0000e+00 1.0000e+00
      -13  1    1    2    0    0 -2.9074161985e+02 -3.6616518115e+02 -2.4215087736e+02 5.2654028982e+02 0.0000000000e+00 0.0000e+00 1.0000e+00
       13  1    1    2    0    0 +2.9074161985e+02 +3.6616518115e+02 +1.4105793502e+03 1.4860490343e+03 0.0000000000e+00 0.0000e+00 -1.0000e+00
<mgrwt>
<rscale>  0 0.16386857E+04</rscale>
<asrwt>0</asrwt>
<pdfrwt beam="1">  1        2 0.24469367E+00 0.16386857E+04</pdfrwt>
<pdfrwt beam="2">  1       -2 0.64935451E-01 0.16386857E+04</pdfrwt>
<totfact> 0.30235771E+01</totfact>
</mgrwt>
<rwgt>
<wgt id='morphing_basis_vector_1'> +1.5596213e-04 </wgt>
<wgt id='morphing_basis_vector_2'> +1.0275730e-04 </wgt>
<wgt id='morphing_basis_vector_3'> +1.6351552e-04 </wgt>
<wgt id='morphing_basis_vector_4'> +1.1159109e-04 </wgt>
<wgt id='morphing_basis_vector_5'> +1.7779628e-04 </wgt>
</rwgt>
</event>
<event>
 4      1 +1.5130300e-07 1.65467300e+03 7.81860800e-03 8.23032600e-02
        2 -1    0    0  501    0 +0.0000000000e+00 +0.0000000000e+00 +1.0759738633e+03 1.0759738633e+03 0.0000000000e+00 0.0000e+00 -1.0000e+00
       -2 -1    0    0    0  501 -0.0000000000e+00 -0.0000000000e+00 -6.3615453972e+02 6.3615453972e+02 0.0000000000e+00 0.0000e+00 1.0000e+00
      -13  1    1    2    0    0 -7.8739635216e+02 +2.3955553371e+02 +1.3268680600e+02 8.3365799799e+02 0.0000000000e+00 0.0000e+00 1.0000e+00
       13  1    1    2    0    0 +7.8739635216e+02 -2.3955553371e+02 +3.0713251756e+02 8.7847040501e+02 0.0000000000e+00 0.0000e+00 -1.0000e+00
<mgrwt>
<rscale>  0 0.16546730E+04</rscale>
<asrwt>0</asrwt>
<pdfrwt beam="1">  1        2 0.16553444E+00 0.16546730E+04</pdfrwt>
<pdfrwt beam="2">  1       -2 0.97869929E-01 0.16546730E+04</pdfrwt>
<totfact> 0.23692589E+01</totfact>
</mgrwt>
<rwgt>
<wgt id='morphing_basis_vector_1'> +1.6594247e-04 </wgt>
<wgt id='morphing_basis_vector_2'> +1.1863510e-04 </wgt>
<wgt id='morphing_basis_vector_3'> +1.7543063e-04 </wgt>
<wgt id='morphing_basis_vector_4'> +1.0849678e-04 </wgt>
<wgt id='morphing_basis_vector_5'> +1.8447073e-04 </wgt>
</rwgt>
</event>
<event>
 4      1 +1.5130300e-07 1.83874400e+03 7.81860800e-03 8.14119200e-02
        2 -1    0    0  501    0 +0.0000000000e+00 +0.0000000000e+00 +1.1029250888e+03 1.1029250888e+03 0.0000000000e+00 0.0000e+00 -1.0000e+00
       -2 -1    0    0    0  501 -0.0000000000e+00 -0.0000000000e+00 -7.6636684479e+02 7.6636684479e+02 0.0000000000e+00 0.0000e+00 1.0000e+00
      -13  1    1    2    0    0 -2.1576644314e+02 -1.6764481483e+02 -7.2413437158e+02 7.7397062607e+02 0.0000000000e+00 0.0000e+00 1.0000e+00
       13  1    1    2    0    0 +2.1576644314e+02 +1.6764481483e+02 +1.0606926156e+03 1.0953213076e+03 0.0000000000e+00 0.0000e+00 -1.0000e+00
<mgrwt>
<rscale>  0 0.18387444E+04</rscale>
<asrwt>0</asrwt>
<pdfrwt beam="1">  1        2 0.16968078E+00 0.18387444E+04</pdfrwt>
<pdfrwt beam="2">  1       -2 0.11790259E+00 0.18387444E+04</pdfrwt>
<totfact> 0.14143666E+01</totfact>
</mgrwt>
<rwgt>
<wgt id='morphing_basis_vector_1'> +2.4412992e-04 </wgt>
<wgt id='morphing_basis_vector_2'> +1.6176570e-04 </wgt>
<wgt id='morphing_basis_vector_3'> +2.5879603e-04 </wgt>
<wgt id='morphing_basis_vector_4'> +1.7920925e-04 </wgt>
<wgt id='morphing_basis_vector_5'> +2.8539713e-04 </wgt>
</rwgt>
</event>
<event>
 4      1 +1.5130300e-07 1.58595300e+03 7.81860800e-03 8.26670100e-02
        2 -1    0    0  501    0 +0.0000000000e+00 +0.0000000000e+00 +7.3586218880e+02 7.3586218880e+02 0.0000000000e+00 0.0000e+00 -1.0000e+00
       -2 -1    0    0    0  501 -0.0000000000e+00 -0.0000000000e+00 -8.5452334492e+02 8.5452334492e+02 0.0000000000e+00 0.0000e+00 1.0000e+00
      -13  1    1    2    0    0 -2.9447352691e+02 +2.8150963525e+02 -7.4156231164e+02 8.4609514526e+02 0.0000000000e+00 0.0000e+00 1.0000e+00
       13  1    1    2    0    0 +2.9447352691e+02 -2.8150963525e+02 +6.2290115553e+02 7.4429038846e+02 0.0000000000e+00 0.0000e+00 -1.0000e+00
<mgrwt>
<rscale>  0 0.15859526E+04</rscale>
<asrwt>0</asrwt>
<pdfrwt beam="1">  1        2 0.11320957E+00 0.15859526E+04</pdfrwt>
<pdfrwt beam="2">  1       -2 0.13146513E+00 0.15859526E+04</pdfrwt>
<totfact> 0.18857283E+01</totfact>
</mgrwt>
<rwgt>
<wgt id='morphing_basis_vector_1'> +1.3736582e-04 </wgt>
<wgt id='morphing_basis_vector_2'> +9.0252440e-05 </wgt>
<wgt id='morphing_basis_vector_3'> +1.4348947e-04 </wgt>
<wgt id='morphing_basis_vector_4'> +9.7560470e-05 </wgt>
<wgt id='morphing_basis_vector_5'> +1.5535549e-04 </wgt>
</rwgt>
</event>
<event>
 4      1 +1.5130300e-07 1.57991900e+03 7.81860800e-03 8.26998500e-02
        2 -1    0    0  501    0 +0.0000000000e+00 +0.0000000000e+00 +2.9671432568e+03 2.9671432568e+03 0.0000000000e+00 0.0000e+00 -1.0000e+00
       -2 -1    0    0    0  501 -0.0000000000e+00 -0.0000000000e+00 -2.1031536925e+02 2.1031536925e+02 0.0000000000e+00 0.0000e+00 1.0000e+00
      -13  1    1    2    0    0 +8.1517825673e+00 -7.6954865792e+02 +1.0199756607e+03 1.2777409506e+03 0.0000000000e+00 0.0000e+00 1.0000e+00
       13  1    1    2    0    0 -8.1517825673e+00 +7.6954865792e+02 +1.7368522269e+03 1.8997176755e+03 0.0000000000e+00 0.0000e+00 -1.0000e+00
<mgrwt>
<rscale>  0 0.15799188E+04</rscale>
<asrwt>0</asrwt>
<pdfrwt beam="1">  1        2 0.45648355E+00 0.15799188E+04</pdfrwt>
<pdfrwt beam="2">  1       -2 0.32356213E-01 0.15799188E+04</pdfrwt>
<totfact> 0.18319869E+01</totfact>
</mgrwt>
<rwgt>
<wgt id='morphing_basis_vector_1'> +1.3741121e-04 </wgt>
<wgt id='morphing_basis_vector_2'> +9.5032202e-05 </wgt>
<wgt id='morphing_basis_vector_3'> +1.4408629e-04 </wgt>
<wgt id='morphing_basis_vector_4'> +9.2141710e-05 </wgt>
<wgt id='morphing_basis_vector_5'> +1.5263547e-04 </wgt>
</rwgt>
</event>
<event>
 4      1 +1.5130300e-07 1.61618900e+03 7.81860800e-03 8.25046700e-02
        2 -1    0    0  501    0 +0.0000000000e+00 +0.0000000000e+00 +8.5361818968e+02 8.5361818968e+02 0.0000000000e+00 0.0000e+00 -1.0000e+00
       -2 -1    0    0    0  501 -0.0000000000e+00 -0.0000000000e+00 -7.6499838635e+02 7.6499838635e+02 0.0000000000e+00 0.0000e+00 1.0000e+00
      -13  1    1    2    0    0 +2.4424345544e+02 +5.9051611606e+02 -4.5105659259e+02 7.8218680542e+02 0.0000000000e+00 0.0000e+00 1.0000e+00
       13  1    1    2    0    0 -2.4424345544e+02 -5.9051611606e+02 +5.3967639591e+02 8.3642977061e+02 0.0000000000e+00 0.0000e+00 -1.0000e+00
<mgrwt>
<rscale>  0 0.16161888E+04</rscale>
<asrwt>0</asrwt>
<pdfrwt beam="1">  1        2 0.13132587E+00 0.16161888E+04</pdfrwt>
<pdfrwt beam="2">  1       -2 0.11769206E+00 0.16161888E+04</pdfrwt>
<totfact> 0.20803902E+01</totfact>
</mgrwt>
<rwgt>
<wgt id='morphing_basis_vector_1'> +1.4810492e-04 </wgt>
<wgt id='morphing_basis_vector_2'> +9.8151661e-05 </wgt>
<wgt id='morphing_basis_vector_3'> +1.5513158e-04 </wgt>
<wgt id='morphing_basis_vector_4'> +1.0487115e-04 </wgt>
<wgt id='morphing_basis_vector_5'> +1.6790477e-04 </wgt>
</rwgt>
</event>
<event>
 4      1 +1.5130300e-07 1.75357200e+03 7.81860800e-03 8.18104200e-02
        2 -1    0    0  501    0 +0.0000000000e+00 +0.0000000000e+00 +1.9584688455e+03 1.9584688455e+03 0.0000000000e+00 0.0000e+00 1.0000e+00
       -2 -1    0    0    0  501 -0.0000000000e+00 -0.0000000000e+00 -3.9252785819e+02 3.9252785819e+02 0.0000000000e+00 0.0000e+00 -1.0000e+00
      -13  1    1    2    0    0 +3.3750282552e+02 -5.0347242524e+02 -6.6397715258e+01 6.0975511216e+02 0.0000000000e+00 0.0000e+00 -1.0000e+00
       13  1    1    2    0    0 -3.3750282552e+02 +5.0347242524e+02 +1.6323387026e+03 1.7412415916e+03 0.0000000000e+00 0.0000e+00 1.0000e+00
<mgrwt>
<rscale>  0 0.17535719E+04</rscale>
<asrwt>0</asrwt>
<pdfrwt beam="1">  1        2 0.30130289E+00 0.17535719E+04</pdfrwt>
<pdfrwt beam="2">  1       -2 0.60388903E-01 0.17535719E+04</pdfrwt>
<totfact> 0.21708478E+01</totfact>
</mgrwt>
<rwgt>
<wgt id='morphing_basis_vector_1'> +2.0310950e-04 </wgt>
<wgt id='morphing_basis_vector_2'> +1.3470173e-04 </wgt>
<wgt id='morphing_basis_vector_3'> +2.1445825e-04 </wgt>
<wgt id='morphing_basis_vector_4'> +1.4715750e-04 </wgt>
<wgt id='morphing_basis_vector_5'> +2.3492514e-04 </wgt>
</rwgt>
</event>
<event>
 4      1 +1.5130300e-07 1.58272400e+03 7.81860800e-03 8.26845600e-02
        2 -1    0    0  501    0 +0.0000000000e+00 +0.0000000000e+00 +3.3478802254e+03 3.3478802254e+03 0.0000000000e+00 0.0000e+00 -1.0000e+00
       -2 -1    0    0    0  501 -0.0000000000e+00 -0.0000000000e+00 -1.8705984876e+02 1.8705984876e+02 0.0000000000e+00 0.0000e+00 1.0000e+00
      -13  1    1    2    0    0 -1.5349381552e+02 +5.0792767384e+02 +2.6911820442e+02 5.9495838611e+02 0.0000000000e+00 0.0000e+00 1.0000e+00
       13  1    1    2    0    0 +1.5349381552e+02 -5.0792767384e+02 +2.8917021722e+03 2.9399816880e+03 0.0000000000e+00 0.0000e+00 -1.0000e+00
<mgrwt>
<rscale>  0 0.15827242E+04</rscale>
<asrwt>0</asrwt>
<pdfrwt beam="1">  1        2 0.51505845E+00 0.15827242E+04</pdfrwt>
<pdfrwt beam="2">  1       -2 0.28778441E-01 0.15827242E+04</pdfrwt>
<totfact> 0.12549298E+01</totfact>
</mgrwt>
<rwgt>
<wgt id='morphing_basis_vector_1'> +1.3637442e-04 </wgt>
<wgt id='morphing_basis_vector_2'> +8.9793034e-05 </wgt>
<wgt id='morphing_basis_vector_3'> +1.4244693e-04 </wgt>
<wgt id='morphing_basis_vector_4'> +9.6576540e-05 </wgt>
<wgt id='morphing_basis_vector_5'> +1.5404093e-04 </wgt>
</rwgt>
</event>
<event>
 4      1 +1.5130300e-07 1.63309200e+03 7.81860800e-03 8.24155100e-02
        2 -1    0    0  501    0 +0.0000000000e+00 +0.0000000000e+00 +1.6811372178e+03 1.6811372178e+03 0.0000000000e+00 0.0000e+00 -1.0000e+00
       -2 -1    0    0    0  501 -0.0000000000e+00 -0.0000000000e+00 -3.9660488839e+02 3.9660488839e+02 0.0000000000e+00 0.0000e+00 1.0000e+00
      -13  1    1    2    0    0 +5.2910823557e+02 +6.2037199509e+02 +6.9816382047e+02 1.0734289252e+03 0.0000000000e+00 0.0000e+00 1.0000e+00
       13  1    1    2    0    0 -5.2910823557e+02 -6.2037199509e+02 +5.8636850891e+02 1.0043131810e+03 0.0000000000e+00 0.0000e+00 -1.0000e+00
<mgrwt>
<rscale>  0 0.16330918E+04</rscale>
<asrwt>0</asrwt>
<pdfrwt beam="1">  1        2 0.25863649E+00 0.16330918E+04</pdfrwt>
<pdfrwt beam="2">  1       -2 0.61016137E-01 0.16330918E+04</pdfrwt>
<totfact> 0.30649726E+01</totfact>
</mgrwt>
<rwgt>
<wgt id='morphing_basis_vector_1'> +1.6063698e-04 </wgt>
<wgt id='morphing_basis_vector_2'> +1.2139613e-04 </wgt>
<wgt id='morphing_basis_vector_3'> +1.7045914e-04 </wgt>
<wgt id='morphing_basis_vector_4'> +9.7179425e-05 </wgt>
<wgt id='morphing_basis_vector_5'> +1.7433269e-04 </wgt>
</rwgt>
</event>
<event>
 4      1 +1.5130300e-07 1.65708100e+03 7.81860800e-03 8.22908500e-02
        2 -1    0    0  501    0 +0.0000000000e+00 +0.0000000000e+00 +1.2593491590e+03 1.2593491590e+03 0.0000000000e+00 0.0000e+00 -1.0000e+00
       -2 -1    0    0    0  501 -0.0000000000e+00 -0.0000000000e+00 -5.4510661006e+02 5.4510661006e+02 0.0000000000e+00 0.0000e+00 1.0000e+00
      -13  1    1    2    0    0 -6.1838040318e+02 -5.1637428890e+02 +1.4641050762e+02 8.1882401407e+02 0.0000000000e+00 0.0000e+00 1.0000e+00
       13  1    1    2    0    0 +6.1838040318e+02 +5.1637428890e+02 +5.6783204132e+02 9.8563175498e+02 0.0000000000e+00 0.0000e+00 -1.0000e+00
<mgrwt>
<rscale>  0 0.16570812E+04</rscale>
<asrwt>0</asrwt>
<pdfrwt beam="1">  1        2 0.19374602E+00 0.16570812E+04</pdfrwt>
<pdfrwt beam="2">  1       -2 0.83862556E-01 0.16570812E+04</pdfrwt>
<totfact> 0.26502332E+01</totfact>
</mgrwt>
<rwgt>
<wgt id='morphing_basis_vector_1'> +1.6524429e-04 </wgt>
<wgt id='morphing_basis_vector_2'> +1.1444726e-04 </wgt>
<wgt id='morphing_basis_vector_3'> +1.7421155e-04 </wgt>
<wgt id='morphing_basis_vector_4'> +1.1228666e-04 </wgt>
<wgt id='morphing_basis_vector_5'> +1.8581788e-04 </wgt>
</rwgt>
</event>
<event>
 4      1 +1.5130300e-07 1.72851100e+03 7.81860800e-03 8.19321000e-02
        2 -1    0    0  501    0 +0.0000000000e+00 +0.0000000000e+00 +7.6374950131e+02 7.6374950131e+02 0.0000000000e+00 0.0000e+00 1.0000e+00
       -2 -1    0    0    0  501 -0.0000000000e+00 -0.0000000000e+00 -9.7798803640e+02 9.7798803640e+02 0.0000000000e+00 0.0000e+00 -1.0000e+00
      -13  1    1    2    0    0 -6.1343288965e+02 +6.0772779721e+02 -1.4351892889e+02 8.7534602789e+02 0.0000000000e+00 0.0000e+00 -1.0000e+00
       13  1    1    2    0    0 +6.1343288965e+02 -6.0772779721e+02 -7.0719606201e+01 8.6639150983e+02 0.0000000000e+00 0.0000e+00 1.0000e+00
<mgrwt>
<rscale>  0 0.17285114E+04</rscale>
<asrwt>0</asrwt>
<pdfrwt beam="1">  1        2 0.11749992E+00 0.17285114E+04</pdfrwt>
<pdfrwt beam="2">  1       -2 0.15045970E+00 0.17285114E+04</pdfrwt>
<totfact> 0.12223293E+01</totfact>
</mgrwt>
<rwgt>
<wgt id='morphing_basis_vector_1'> +1.9784747e-04 </wgt>
<wgt id='morphing_basis_vector_2'> +1.4450247e-04 </wgt>
<wgt id='morphing_basis_vector_3'> +2.1056777e-04 </wgt>
<wgt id='morphing_basis_vector_4'> +1.2747649e-04 </wgt>
<wgt id='morphing_basis_vector_5'> +2.2057520e-04 </wgt>
</rwgt>
</event>
<event>
 4      1 +1.5130300e-07 1.67070200e+03 7.81860800e-03 8.22210300e-02
        2 -1    0    0  501    0 +0.0000000000e+00 +0.0000000000e+00 +6.3969501145e+02 6.3969501145e+02 0.0000000000e+00 0.0000e+00 -1.0000e+00
       -2 -1    0    0    0  501 -0.0000000000e+00 -0.0000000000e+00 -1.0908500605e+03 1.0908500605e+03 0.0000000000e+00 0.0000e+00 1.0000e+00
      -13  1    1    2    0    0 -6.0197601907e+02 -5.5078058676e+02 -4.1109315485e+02 9.1363666972e+02 0.0000000000e+00 0.0000e+00 1.0000e+00
       13  1    1    2    0    0 +6.0197601907e+02 +5.5078058676e+02 -4.0061894208e+01 8.1690840225e+02 0.0000000000e+00 0.0000e+00 -1.0000e+00
<mgrwt>
<rscale>  0 0.16707021E+04</rscale>
<asrwt>0</asrwt>
<pdfrwt beam="1">  1        2 0.98414619E-01 0.16707021E+04</pdfrwt>
<pdfrwt beam="2">  1       -2 0.16782308E+00 0.16707021E+04</pdfrwt>
<totfact> 0.11068363E+01</totfact>
</mgrwt>
<rwgt>
<wgt id='morphing_basis_vector_1'> +1.7078564e-04 </wgt>
<wgt id='morphing_basis_vector_2'> +1.1880459e-04 </wgt>
<wgt id='morphing_basis_vector_3'> +1.8028059e-04 </wgt>
<wgt id='morphing_basis_vector_4'> +1.1574237e-04 </wgt>
<wgt id='morphing_basis_vector_5'> +1.9215764e-04 </wgt>
</rwgt>
</event>
<event>
 4      1 +1.5130300e-07 1.77201400e+03 7.81860800e-03 8.17222000e-02
        2 -1    0    0  501    0 +0.0000000000e+00 +0.0000000000e+00 +1.7689746058e+03 1.7689746058e+03 0.0000000000e+00 0.0000e+00 -1.0000e+00
       -2 -1    0    0    0  501 -0.0000000000e+00 -0.0000000000e+00 -4.4376449814e+02 4.4376449814e+02 0.0000000000e+00 0.0000e+00 1.0000e+00
      -13  1    1    2    0    0 +5.2712795048e+01 +8.5883332382e+02 +3.9878974715e+02 9.4837048631e+02 0.0000000000e+00 0.0000e+00 1.0000e+00
       13  1    1    2    0    0 -5.2712795048e+01 -8.5883332382e+02 +9.2642036046e+02 1.2643686176e+03 0.0000000000e+00 0.0000e+00 -1.0000e+00
<mgrwt>
<rscale>  0 0.17720137E+04</rscale>
<asrwt>0</asrwt>
<pdfrwt beam="1">  1        2 0.27214994E+00 0.17720137E+04</pdfrwt>
<pdfrwt beam="2">  1       -2 0.68271462E-01 0.17720137E+04</pdfrwt>
<totfact> 0.21398926E+01</totfact>
</mgrwt>
<rwgt>
<wgt id='morphing_basis_vector_1'> +2.1444592e-04 </wgt>
<wgt id='morphing_basis_vector_2'> +1.4895674e-04 </wgt>
<wgt id='morphing_basis_vector_3'> +2.2765099e-04 </wgt>
<wgt id='morphing_basis_vector_4'> +1.4799435e-04 </wgt>
<wgt id='morphing_basis_vector_5'> +2.4479864e-04 </wgt>
</rwgt>
</event>
<event>
 4      1 +1.5130300e-07 1.76818100e+03 7.81860800e-03 8.17404500e-02
        2 -1    0    0  501    0 +0.0000000000e+00 +0.0000000000e+00 +2.3193795667e+03 2.3193795667e+03 0.0000000000e+00 0.0000e+00 -1.0000e+00
       -2 -1    0    0    0  501 -0.0000000000e+00 -0.0000000000e+00 -3.3699345195e+02 3.3699345195e+02 0.0000000000e+00 0.0000e+00 1.0000e+00
      -13  1    1    2    0    0 +4.1832832723e+02 -7.4480295483e+01 -1.7353592516e+02 4.5897780023e+02 0.0000000000e+00 0.0000e+00 1.0000e+00
       13  1    1    2    0    0 -4.1832832723e+02 +7.4480295483e+01 +2.1559220399e+03 2.1973952184e+03 0.0000000000e+00 0.0000e+00 -1.0000e+00
<mgrwt>
<rscale>  0 0.17681807E+04</rscale>
<asrwt>0</asrwt>
<pdfrwt beam="1">  1        2 0.35682762E+00 0.17681807E+04</pdfrwt>
<pdfrwt beam="2">  1       -2 0.51845148E-01 0.17681807E+04</pdfrwt>
<totfact> 0.18388637E+01</totfact>
</mgrwt>
<rwgt>
<wgt id='morphing_basis_vector_1'> +2.0959947e-04 </wgt>
<wgt id='morphing_basis_vector_2'> +1.3865179e-04 </wgt>
<wgt id='morphing_basis_vector_3'> +2.2142110e-04 </wgt>
<wgt id='morphing_basis_vector_4'> +1.5260595e-04 </wgt>
<wgt id='morphing_basis_vector_5'> +2.4309039e-04 </wgt>
</rwgt>
</event>
<event>
 4      1 +1.5130300e-07 1.61341000e+03 7.81860800e-03 8.25194400e-02
        2 -1    0    0  501    0 +0.0000000000e+00 +0.0000000000e+00 +2.5197419701e+03 2.5197419701e+03 0.0000000000e+00 0.0000e+00 1.0000e+00
       -2 -1    0    0    0  501 -0.0000000000e+00 -0.0000000000e+00 -2.5826966087e+02 2.5826966087e+02 0.0000000000e+00 0.0000e+00 -1.0000e+00
      -13  1    1    2    0    0 +5.8573958551e+02 +4.1125101577e+02 +4.8982198020e+02 8.6726226269e+02 0.0000000000e+00 0.0000e+00 -1.0000e+00
       13  1    1    2    0    0 -5.8573958551e+02 -4.1125101577e+02 +1.7716503291e+03 1.9107493683e+03 0.0000000000e+00 0.0000e+00 1.0000e+00
<mgrwt>
<rscale>  0 0.16134099E+04</rscale>
<asrwt>0</asrwt>
<pdfrwt beam="1">  1        2 0.38765259E+00 0.16134099E+04</pdfrwt>
<pdfrwt beam="2">  1       -2 0.39733796E-01 0.16134099E+04</pdfrwt>
<totfact> 0.23707339E+01</totfact>
</mgrwt>
<rwgt>
<wgt id='morphing_basis_vector_1'> +1.4757238e-04 </wgt>
<wgt id='morphing_basis_vector_2'> +9.8833342e-05 </wgt>
<wgt id='morphing_basis_vector_3'> +1.5468279e-04 </wgt>
<wgt id='morphing_basis_vector_4'> +1.0326908e-04 </wgt>
<wgt id='morphing_basis_vector_5'> +1.6665196e-04 </wgt>
</rwgt>
</event>
<event>
 4      1 +1.5130300e-07 1.67790400e+03 7.81860800e-03 8.21843800e-02
        2 -1    0    0  501    0 +0.0000000000e+00 +0.0000000000e+00 +2.4246433666e+03 2.4246433666e+03 0.0000000000e+00 0.0000e+00 -1.0000e+00
       -2 -1    0    0    0  501 -0.0000000000e+00 -0.0000000000e+00 -2.9028616354e+02 2.9028616354e+02 0.0000000000e+00 0.0000e+00 1.0000e+00
      -13  1    1    2    0    0 -5.9289273473e+01 -7.3437115340e+02 +4.1789108247e+02 8.4702371024e+02 0.0000000000e+00 0.0000e+00 1.0000e+00
       13  1    1    2    0    0 +5.9289273473e+01 +7.3437115340e+02 +1.7164661206e+03 1.8679058199e+03 0.0000000000e+00 0.0000e+00 -1.0000e+00
<mgrwt>
<rscale>  0 0.16779040E+04</rscale>
<asrwt>0</asrwt>
<pdfrwt beam="1">  1        2 0.37302204E+00 0.16779040E+04</pdfrwt>
<pdfrwt beam="2">  1       -2 0.44659411E-01 0.16779040E+04</pdfrwt>
<totfact> 0.21514202E+01</totfact>
</mgrwt>
<rwgt>
<wgt id='morphing_basis_vector_1'> +1.7174807e-04 </wgt>
<wgt id='morphing_basis_vector_2'> +1.1514293e-04 </wgt>
<wgt id='morphing_basis_vector_3'> +1.8076972e-04 </wgt>
<wgt id='morphing_basis_vector_4'> +1.2148998e-04 </wgt>
<wgt id='morphing_basis_vector_5'> +1.9587093e-04 </wgt>
</rwgt>
</event>
<event>
 4      1 +1.5130300e-07 1.79823300e+03 7.81860800e-03 8.15986400e-02
        2 -1    0    0  501    0 +0.0000000000e+00 +0.0000000000e+00 +8.8690448281e+02 8.8690448281e+02 0.0000000000e+00 0.0000e+00 -1.0000e+00
       -2 -1    0    0    0  501 -0.0000000000e+00 -0.0000000000e+00 -9.1149622965e+02 9.1149622965e+02 0.0000000000e+00 0.0000e+00 1.0000e+00
      -13  1    1    2    0    0 -3.4193903539e+02 +7.6752483824e+02 -3.3231549858e+02 9.0357637852e+02 0.0000000000e+00 0.0000e+00 1.0000e+00
       13  1    1    2    0    0 +3.4193903539e+02 -7.6752483824e+02 +3.0772375174e+02 8.9482433394e+02 0.0000000000e+00 0.0000e+00 -1.0000e+00
<mgrwt>
<rscale>  0 0.17982326E+04</rscale>
<asrwt>0</asrwt>
<pdfrwt beam="1">  1        2 0.13644684E+00 0.17982326E+04</pdfrwt>
<pdfrwt beam="2">  1       -2 0.14023019E+00 0.17982326E+04</pdfrwt>
<totfact> 0.12194322E+01</totfact>
</mgrwt>
<rwgt>
<wgt id='morphing_basis_vector_1'> +2.2579152e-04 </wgt>
<wgt id='morphing_basis_vector_2'> +1.5401908e-04 </wgt>
<wgt id='morphing_basis_vector_3'> +2.3958572e-04 </wgt>
<wgt id='morphing_basis_vector_4'> +1.5969994e-04 </wgt>
<wgt id='morphing_basis_vector_5'> +2.6019410e-04 </wgt>
</rwgt>
</event>
<event>
 4      1 +1.5130300e-07 1.57518500e+03 7.81860800e-03 8.27257200e-02
        2 -1    0    0  501    0 +0.0000000000e+00 +0.0000000000e+00 +4.5552018310e+02 4.5552018310e+02 0.0000000000e+00 0.0000e+00 1.0000e+00
       -2 -1    0    0    0  501 -0.0000000000e+00 -0.0000000000e+00 -1.3617448760e+03 1.3617448760e+03 0.0000000000e+00 0.0000e+00 -1.0000e+00
      -13  1    1    2    0    0 +1.3981774802e+01 +7.8032222529e+02 -3.3099613102e+02 8.4773622316e+02 0.0000000000e+00 0.0000e+00 -1.0000e+00
       13  1    1    2    0    0 -1.3981774802e+01 -7.8032222529e+02 -5.7522856190e+02 9.6952883595e+02 0.0000000000e+00 0.0000e+00 1.0000e+00
<mgrwt>
<rscale>  0 0.15751854E+04</rscale>
<asrwt>0</asrwt>
<pdfrwt beam="1">  1        2 0.70080029E-01 0.15751854E+04</pdfrwt>
<pdfrwt beam="2">  1       -2 0.20949921E+00 0.15751854E+04</pdfrwt>
<totfact> 0.80629430E+00</totfact>
</mgrwt>
<rwgt>
<wgt id='morphing_basis_vector_1'> +1.4156710e-04 </wgt>
<wgt id='morphing_basis_vector_2'> +1.1101180e-04 </wgt>
<wgt id='morphing_basis_vector_3'> +1.5006453e-04 </wgt>
<wgt id='morphing_basis_vector_4'> +8.0143939e-05 </wgt>
<wgt id='morphing_basis_vector_5'> +1.4993840e-04 </wgt>
</rwgt>
</event>
<event>
 4      1 +1.5130300e-07 1.83738500e+03 7.81860800e-03 8.14181100e-02
        2 -1    0    0  501    0 +0.0000000000e+00 +0.0000000000e+00 +2.1442087391e+03 2.1442087391e+03 0.0000000000e+00 0.0000e+00 -1.0000e+00
       -2 -1    0    0    0  501 -0.0000000000e+00 -0.0000000000e+00 -3.9361633964e+02 3.9361633964e+02 0.0000000000e+00 0.0000e+00 1.0000e+00
      -13  1    1    2    0    0 +4.6867888740e+02 -6.6010328489e+02 +2.7546135051e+02 8.5514630435e+02 0.0000000000e+00 0.0000e+00 1.0000e+00
       13  1    1    2    0    0 -4.6867888740e+02 +6.6010328489e+02 +1.4751310489e+03 1.6826787744e+03 0.0000000000e+00 0.0000e+00 -1.0000e+00
<mgrwt>
<rscale>  0 0.18373847E+04</rscale>
<asrwt>0</asrwt>
<pdfrwt beam="1">  1        2 0.32987826E+00 0.18373847E+04</pdfrwt>
<pdfrwt beam="2">  1       -2 0.60556361E-01 0.18373847E+04</pdfrwt>
<totfact> 0.16834018E+01</totfact>
</mgrwt>
<rwgt>
<wgt id='morphing_basis_vector_1'> +2.4466727e-04 </wgt>
<wgt id='morphing_basis_vector_2'> +1.6497459e-04 </wgt>
<wgt id='morphing_basis_vector_3'> +2.5979627e-04 </wgt>
<wgt id='morphing_basis_vector_4'> +1.7623454e-04 </wgt>
<wgt id='morphing_basis_vector_5'> +2.8434442e-04 </wgt>
</rwgt>
</event>
<event>
 4      1 +1.5130300e-07 1.72287100e+03 7.81860800e-03 8.19597800e-02
        2 -1    0    0  501    0 +0.0000000000e+00 +0.0000000000e+00 +2.0417187909e+03 2.0417187909e+03 0.0000000000e+00 0.0000e+00 -1.0000e+00
       -2 -1    0    0    0  501 -0.0000000000e+00 -0.0000000000e+00 -3.6345416147e+02 3.6345416147e+02 0.0000000000e+00 0.0000e+00 1.0000e+00
      -13  1    1    2    0    0 +2.0749820074e+02 -8.3257741588e+02 +7.3253464535e+02 1.1282055058e+03 0.0000000000e+00 0.0000e+00 1.0000e+00
       13  1    1    2    0    0 -2.0749820074e+02 +8.3257741588e+02 +9.4572998406e+02 1.2769674465e+03 0.0000000000e+00 0.0000e+00 -1.0000e+00
<mgrwt>
<rscale>  0 0.17228711E+04</rscale>
<asrwt>0</asrwt>
<pdfrwt beam="1">  1        2 0.31411058E+00 0.17228711E+04</pdfrwt>
<pdfrwt beam="2">  1       -2 0.55916026E-01 0.17228711E+04</pdfrwt>
<totfact> 0.22862434E+01</totfact>
</mgrwt>
<rwgt>
<wgt id='morphing_basis_vector_1'> +1.9440064e-04 </wgt>
<wgt id='morphing_basis_vector_2'> +1.3984291e-04 </wgt>
<wgt id='morphing_basis_vector_3'> +2.0651825e-04 </wgt>
<wgt id='morphing_basis_vector_4'> +1.2760688e-04 </wgt>
<wgt id='morphing_basis_vector_5'> +2.1777377e-04 </wgt>
</rwgt>
</event>
<event>
 4      1 +1.5130300e-07 1.59222700e+03 7.81860800e-03 8.26330200e-02
        2 -1    0    0  501    0 +0.0000000000e+00 +0.0000000000e+00 +7.4531470839e+02 7.4531470839e+02 0.0000000000e+00 0.0000e+00 -1.0000e+00
       -2 -1    0    0    0  501 -0.0000000000e+00 -0.0000000000e+00 -8.5037420427e+02 8.5037420427e+02 0.0000000000e+00 0.0000e+00 1.0000e+00
      -13  1    1    2    0    0 -3.7625443440e+02 -5.4445640214e+02 -4.9598061503e+02 8.2704107741e+02 0.0000000000e+00 0.0000e+00 1.0000e+00
       13  1    1    2    0    0 +3.7625443440e+02 +5.4445640214e+02 +3.9092111915e+02 7.6864783525e+02 0.0000000000e+00 0.0000e+00 -1.0000e+00
<mgrwt>
<rscale>  0 0.15922266E+04</rscale>
<asrwt>0</asrwt>
<pdfrwt beam="1">  1        2 0.11466380E+00 0.15922266E+04</pdfrwt>
<pdfrwt beam="2">  1       -2 0.13082680E+00 0.15922266E+04</pdfrwt>
<totfact> 0.18793312E+01</totfact>
</mgrwt>
<rwgt>
<wgt id='morphing_basis_vector_1'> +1.3990486e-04 </wgt>
<wgt id='morphing_basis_vector_2'> +9.2925083e-05 </wgt>
<wgt id='morphing_basis_vector_3'> +1.4633468e-04 </wgt>
<wgt id='morphing_basis_vector_4'> +9.8361166e-05 </wgt>
<wgt id='morphing_basis_vector_5'> +1.5784863e-04 </wgt>
</rwgt>
</event>
<event>
 4      1 +1.5130300e-07 1.59366600e+03 7.81860800e-03 8.26252400e-02
        2 -1    0    0  501    0 +0.0000000000e+00 +0.0000000000e+00 +2.6062223475e+03 2.6062223475e+03 0.0000000000e+00 0.0000e+00 -1.0000e+00
       -2 -1    0    0    0  501 -0.0000000000e+00 -0.0000000000e+00 -2.4362583767e+02 2.4362583767e+02 0.0000000000e+00 0.0000e+00 1.0000e+00
      -13  1    1    2    0    0 -9.5036412907e+01 +7.2598927641e+02 +1.7435286445e+03 1.8910273619e+03 0.0000000000e+00 0.0000e+00 -1.0000e+00
       13  1    1    2    0    0 +9.5036412907e+01 -7.2598927641e+02 +6.1906786529e+02 9.5882082324e+02 0.0000000000e+00 0.0000e+00 1.0000e+00
<mgrwt>
<rscale>  0 0.15936663E+04</rscale>
<asrwt>0</asrwt>
<pdfrwt beam="1">  1        2 0.40095727E+00 0.15936663E+04</pdfrwt>
<pdfrwt beam="2">  1       -2 0.37480900E-01 0.15936663E+04</pdfrwt>
<totfact> 0.23488115E+01</totfact>
</mgrwt>
<rwgt>
<wgt id='morphing_basis_vector_1'> +1.5891546e-04 </wgt>
<wgt id='morphing_basis_vector_2'> +1.4836940e-04 </wgt>
<wgt id='morphing_basis_vector_3'> +1.7180439e-04 </wgt>
<wgt id='morphing_basis_vector_4'> +6.3585095e-05 </wgt>
<wgt id='morphing_basis_vector_5'> +1.5578790e-04 </wgt>
</rwgt>
</event>
<event>
 4      1 +1.5130300e-07 1.58743500e+03 7.81860800e-03 8.26589600e-02
        2 -1    0    0  501    0 +0.0000000000e+00 +0.0000000000e+00 +1.7873527318e+03 1.7873527318e+03 0.0000000000e+00 0.0000e+00 -1.0000e+00
       -2 -1    0    0    0  501 -0.0000000000e+00 -0.0000000000e+00 -3.5246947074e+02 3.5246947074e+02 0.0000000000e+00 0.0000e+00 1.0000e+00
      -13  1    1    2    0    0 +1.3977928116e+02 -4.4480556736e+02 -1.4841274444e+02 4.8930213867e+02 0.0000000000e+00 0.0000e+00 1.0000e+00
       13  1    1    2    0    0 -1.3977928116e+02 +4.4480556736e+02 +1.5832960055e+03 1.6505200638e+03 0.0000000000e+00 0.0000e+00 -1.0000e+00
<mgrwt>
<rscale>  0 0.15874348E+04</rscale>
<asrwt>0</asrwt>
<pdfrwt beam="1">  1        2 0.27497734E+00 0.15874348E+04</pdfrwt>
<pdfrwt beam="2">  1       -2 0.54226073E-01 0.15874348E+04</pdfrwt>
<totfact> 0.34135448E+01</totfact>
</mgrwt>
<rwgt>
<wgt id='morphing_basis_vector_1'> +1.3789296e-04 </wgt>
<wgt id='morphing_basis_vector_2'> +9.0672636e-05 </wgt>
<wgt id='morphing_basis_vector_3'> +1.4406428e-04 </wgt>
<wgt id='morphing_basis_vector_4'> +9.7881592e-05 </wgt>
<wgt id='morphing_basis_vector_5'> +1.5595176e-04 </wgt>
</rwgt>
</event>
<event>
 4      1 +1.5130300e-07 1.62253200e+03 7.81860800e-03 8.24710800e-02
        2 -1    0    0  501    0 +0.0000000000e+00 +0.0000000000e+00 +1.2234539939e+03 1.2234539939e+03 0.0000000000e+00 0.0000e+00 -1.0000e+00
       -2 -1    0    0    0  501 -0.0000000000e+00 -0.0000000000e+00 -5.3794646846e+02 5.3794646846e+02 0.0000000000e+00 0.0000e+00 1.0000e+00
      -13  1    1    2    0    0 +2.9553550765e+02 -3.8901892148e+02 -3.6034804218e+02 6.0706479807e+02 0.0000000000e+00 0.0000e+00 1.0000e+00
       13  1    1    2    0    0 -2.9553550765e+02 +3.8901892148e+02 +1.0458555677e+03 1.1543356643e+03 0.0000000000e+00 0.0000e+00 -1.0000e+00
<mgrwt>
<rscale>  0 0.16225323E+04</rscale>
<asrwt>0</asrwt>
<pdfrwt beam="1">  1        2 0.18822369E+00 0.16225323E+04</pdfrwt>
<pdfrwt beam="2">  1       -2 0.82760996E-01 0.16225323E+04</pdfrwt>
<totfact> 0.28739588E+01</totfact>
</mgrwt>
<rwgt>
<wgt id='morphing_basis_vector_1'> +1.5009940e-04 </wgt>
<wgt id='morphing_basis_vector_2'> +9.8869534e-05 </wgt>
<wgt id='morphing_basis_vector_3'> +1.5720477e-04 </wgt>
<wgt id='morphing_basis_vector_4'> +1.0709687e-04 </wgt>
<wgt id='morphing_basis_vector_5'> +1.7067883e-04 </wgt>
</rwgt>
</event>
<event>
 4      1 +1.5130300e-07 1.83887200e+03 7.81860800e-03 8.14113400e-02
        2 -1    0    0  501    0 +0.0000000000e+00 +0.0000000000e+00 +8.1834333013e+02 8.1834333013e+02 0.0000000000e+00 0.0000e+00 -1.0000e+00
       -2 -1    0    0    0  501 -0.0000000000e+00 -0.0000000000e+00 -1.0330168303e+03 1.0330168303e+03 0.0000000000e+00 0.0000e+00 1.0000e+00
      -13  1    1    2    0    0 -1.9013806544e+02 -8.0051389769e+02 -5.2047395258e+02 9.7358518869e+02 0.0000000000e+00 0.0000e+00 1.0000e+00
       13  1    1    2    0    0 +1.9013806544e+02 +8.0051389769e+02 +3.0580045241e+02 8.7777497174e+02 0.0000000000e+00 0.0000e+00 -1.0000e+00
<mgrwt>
<rscale>  0 0.18388719E+04</rscale>
<asrwt>0</asrwt>
<pdfrwt beam="1">  1        2 0.12589897E+00 0.18388719E+04</pdfrwt>
<pdfrwt beam="2">  1       -2 0.15892567E+00 0.18388719E+04</pdfrwt>
<totfact> 0.94551531E+00</totfact>
</mgrwt>
<rwgt>
<wgt id='morphing_basis_vector_1'> +2.4561789e-04 </wgt>
<wgt id='morphing_basis_vector_2'> +1.6602694e-04 </wgt>
<wgt id='morphing_basis_vector_3'> +2.6088760e-04 </wgt>
<wgt id='morphing_basis_vector_4'> +1.7647321e-04 </wgt>
<wgt id='morphing_basis_vector_5'> +2.8526133e-04 </wgt>
</rwgt>
</event>
<event>
 4      1 +1.5130300e-07 1.71986600e+03 7.81860800e-03 8.19745700e-02
        2 -1    0    0  501    0 +0.0000000000e+00 +0.0000000000e+00 +1.8453423123e+03 1.8453423123e+03 0.0000000000e+00 0.0000e+00 1.0000e+00
       -2 -1    0    0    0  501 -0.0000000000e+00 -0.0000000000e+00 -4.0073042761e+02 4.0073042761e+02 0.0000000000e+00 0.0000e+00 -1.0000e+00
      -13  1    1    2    0    0 +5.6594113893e+02 +3.2877844177e+02 -6.1097961335e+00 6.5453950692e+02 0.0000000000e+00 0.0000e+00 -1.0000e+00
       13  1    1    2    0    0 -5.6594113893e+02 -3.2877844177e+02 +1.4507216808e+03 1.5915332330e+03 0.0000000000e+00 0.0000e+00 1.0000e+00
<mgrwt>
<rscale>  0 0.17198661E+04</rscale>
<asrwt>0</asrwt>
<pdfrwt beam="1">  1        2 0.28389881E+00 0.17198661E+04</pdfrwt>
<pdfrwt beam="2">  1       -2 0.61650836E-01 0.17198661E+04</pdfrwt>
<totfact> 0.24132518E+01</totfact>
</mgrwt>
<rwgt>
<wgt id='morphing_basis_vector_1'> +1.8847379e-04 </wgt>
<wgt id='morphing_basis_vector_2'> +1.2518911e-04 </wgt>
<wgt id='morphing_basis_vector_3'> +1.9867991e-04 </wgt>
<wgt id='morphing_basis_vector_4'> +1.3560739e-04 </wgt>
<wgt id='morphing_basis_vector_5'> +2.1690158e-04 </wgt>
</rwgt>
</event>
<event>
 4      1 +1.5130300e-07 1.62393600e+03 7.81860800e-03 8.24636700e-02
        2 -1    0    0  501    0 +0.0000000000e+00 +0.0000000000e+00 +2.6410731215e+03 2.6410731215e+03 0.0000000000e+00 0.0000e+00 -1.0000e+00
       -2 -1    0    0    0  501 -0.0000000000e+00 -0.0000000000e+00 -2.4963025053e+02 2.4963025053e+02 0.0000000000e+00 0.0000e+00 1.0000e+00
      -13  1    1    2    0    0 -3.5210653941e+02 +6.2369885410e+02 +1.8766089717e+03 2.0086414583e+03 0.0000000000e+00 0.0000e+00 1.0000e+00
       13  1    1    2    0    0 +3.5210653941e+02 -6.2369885410e+02 +5.1483389937e+02 8.8206191372e+02 0.0000000000e+00 0.0000e+00 -1.0000e+00
<mgrwt>
<rscale>  0 0.16239356E+04</rscale>
<asrwt>0</asrwt>
<pdfrwt beam="1">  1        2 0.40631892E+00 0.16239356E+04</pdfrwt>
<pdfrwt beam="2">  1       -2 0.38404656E-01 0.16239356E+04</pdfrwt>
<totfact> 0.21329177E+01</totfact>
</mgrwt>
<rwgt>
<wgt id='morphing_basis_vector_1'> +1.7601259e-04 </wgt>
<wgt id='morphing_basis_vector_2'> +1.7478371e-04 </wgt>
<wgt id='morphing_basis_vector_3'> +1.9224231e-04 </wgt>
<wgt id='morphing_basis_vector_4'> +5.9029935e-05 </wgt>
<wgt id='morphing_basis_vector_5'> +1.6761670e-04 </wgt>
</rwgt>
</event>
<event>
 4      1 +1.5130300e-07 1.64276200e+03 7.81860800e-03 8.23649900e-02
        2 -1    0    0  501    0 +0.0000000000e+00 +0.0000000000e+00 +6.4266451858e+02 6.4266451858e+02 0.0000000000e+00 0.0000e+00 -1.0000e+00
       -2 -1    0    0    0  501 -0.0000000000e+00 -0.0000000000e+00 -1.0497961995e+03 1.0497961995e+03 0.0000000000e+00 0.0000e+00 1.0000e+00
      -13  1    1    2    0    0 +3.9238862515e+02 +7.1081186376e+02 -3.3160118943e+02 8.7703003805e+02 0.0000000000e+00 0.0000e+00 1.0000e+00
       13  1    1    2    0    0 -3.9238862515e+02 -7.1081186376e+02 -7.5530491491e+01 8.1543068004e+02 0.0000000000e+00 0.0000e+00 -1.0000e+00
<mgrwt>
<rscale>  0 0.16427620E+04</rscale>
<asrwt>0</asrwt>
<pdfrwt beam="1">  1        2 0.98871464E-01 0.16427620E+04</pdfrwt>
<pdfrwt beam="2">  1       -2 0.16150711E+00 0.16427620E+04</pdfrwt>
<totfact> 0.12375688E+01</totfact>
</mgrwt>
<rwgt>
<wgt id='morphing_basis_vector_1'> +1.6067538e-04 </wgt>
<wgt id='morphing_basis_vector_2'> +1.1329160e-04 </wgt>
<wgt id='morphing_basis_vector_3'> +1.6951176e-04 </wgt>
<wgt id='morphing_basis_vector_4'> +1.0661504e-04 </wgt>
<wgt id='morphing_basis_vector_5'> +1.7916068e-04 </wgt>
</rwgt>
</event>
<event>
 4      1 +1.5130300e-07 1.71777700e+03 7.81860800e-03 8.19848700e-02
        2 -1    0    0  501    0 +0.0000000000e+00 +0.0000000000e+00 +1.4977266959e+03 1.4977266959e+03 0.0000000000e+00 0.0000e+00 -1.0000e+00
       -2 -1    0    0    0  501 -0.0000000000e+00 -0.0000000000e+00 -4.9253925782e+02 4.9253925782e+02 0.0000000000e+00 0.0000e+00 1.0000e+00
      -13  1    1    2    0    0 -4.8435255297e+02 -6.9593093234e+02 +3.4384912235e+02 9.1495872972e+02 0.0000000000e+00 0.0000e+00 1.0000e+00
       13  1    1    2    0    0 +4.8435255297e+02 +6.9593093234e+02 +6.6133831573e+02 1.0753072240e+03 0.0000000000e+00 0.0000e+00 -1.0000e+00
<mgrwt>
<rscale>  0 0.17177767E+04</rscale>
<asrwt>0</asrwt>
<pdfrwt beam="1">  1        2 0.23041949E+00 0.17177767E+04</pdfrwt>
<pdfrwt beam="2">  1       -2 0.75775271E-01 0.17177767E+04</pdfrwt>
<totfact> 0.24288608E+01</totfact>
</mgrwt>
<rwgt>
<wgt id='morphing_basis_vector_1'> +1.9100579e-04 </wgt>
<wgt id='morphing_basis_vector_2'> +1.3475158e-04 </wgt>
<wgt id='morphing_basis_vector_3'> +2.0246690e-04 </wgt>
<wgt id='morphing_basis_vector_4'> +1.2832092e-04 </wgt>
<wgt id='morphing_basis_vector_5'> +2.1531312e-04 </wgt>
</rwgt>
</event>
<event>
 4      1 +1.5130300e-07 1.78822100e+03 7.81860800e-03 8.16455700e-02
        2 -1    0    0  501    0 +0.0000000000e+00 +0.0000000000e+00 +1.1506729535e+03 1.1506729535e+03 0.0000000000e+00 0.0000e+00 -1.0000e+00
       -2 -1    0    0    0  501 -0.0000000000e+00 -0.0000000000e+00 -6.9475287341e+02 6.9475287341e+02 0.0000000000e+00 0.0000e+00 1.0000e+00
      -13  1    1    2    0    0 -5.8202214335e+02 -5.2998125161e+02 -2.0963709147e+02 8.1460273295e+02 0.0000000000e+00 0.0000e+00 1.0000e+00
       13  1    1    2    0    0 +5.8202214335e+02 +5.2998125161e+02 +6.6555717151e+02 1.0308230939e+03 0.0000000000e+00 0.0000e+00 -1.0000e+00
<mgrwt>
<rscale>  0 0.17882207E+04</rscale>
<asrwt>0</asrwt>
<pdfrwt beam="1">  1        2 0.17702661E+00 0.17882207E+04</pdfrwt>
<pdfrwt beam="2">  1       -2 0.10688506E+00 0.17882207E+04</pdfrwt>
<totfact> 0.17050045E+01</totfact>
</mgrwt>
<rwgt>
<wgt id='morphing_basis_vector_1'> +2.2008746e-04 </wgt>
<wgt id='morphing_basis_vector_2'> +1.4816126e-04 </wgt>
<wgt id='morphing_basis_vector_3'> +2.3311907e-04 </wgt>
<wgt id='morphing_basis_vector_4'> +1.5772712e-04 </wgt>
<wgt id='morphing_basis_vector_5'> +2.5443168e-04 </wgt>
</rwgt>
</event>
<event>
 4      1 +1.5130300e-07 1.58139300e+03 7.81860800e-03 8.26918100e-02
        2 -1    0    0  501    0 +0.0000000000e+00 +0.0000000000e+00 +6.3546965038e+02 6.3546965038e+02 0.0000000000e+00 0.0000e+00 1.0000e+00
       -2 -1    0    0    0  501 -0.0000000000e+00 -0.0000000000e+00 -9.8384031089e+02 9.8384031089e+02 0.0000000000e+00 0.0000e+00 -1.0000e+00
      -13  1    1    2    0    0 -5.0502496440e+01 -7.1992214110e+02 -5.0498268705e+02 8.8082115416e+02 0.0000000000e+00 0.0000e+00 -1.0000e+00
       13  1    1    2    0    0 +5.0502496440e+01 +7.1992214110e+02 +1.5661202654e+02 7.3848880712e+02 0.0000000000e+00 0.0000e+00 1.0000e+00
<mgrwt>
<rscale>  0 0.15813926E+04</rscale>
<asrwt>0</asrwt>
<pdfrwt beam="1">  1        2 0.97764563E-01 0.15813926E+04</pdfrwt>
<pdfrwt beam="2">  1       -2 0.15136005E+00 0.15813926E+04</pdfrwt>
<totfact> 0.15240386E+01</totfact>
</mgrwt>
<rwgt>
<wgt id='morphing_basis_vector_1'> +1.3675911e-04 </wgt>
<wgt id='morphing_basis_vector_2'> +9.1961362e-05 </wgt>
<wgt id='morphing_basis_vector_3'> +1.4308154e-04 </wgt>
<wgt id='morphing_basis_vector_4'> +9.4672941e-05 </wgt>
<wgt id='morphing_basis_vector_5'> +1.5338824e-04 </wgt>
</rwgt>
</event>
<event>
 4      1 +1.5130300e-07 1.70806000e+03 7.81860800e-03 8.20329700e-02
        2 -1    0    0  501    0 +0.0000000000e+00 +0.0000000000e+00 +3.8285948176e+03 3.8285948176e+03 0.0000000000e+00 0.0000e+00 -1.0000e+00
       -2 -1    0    0    0  501 -0.0000000000e+00 -0.0000000000e+00 -1.9050531032e+02 1.9050531032e+02 0.0000000000e+00 0.0000e+00 1.0000e+00
      -13  1    1    2    0    0 -2.2016105439e+02 -5.7518536446e+02 +4.2686302817e+02 7.4934714130e+02 0.0000000000e+00 0.0000e+00 1.0000e+00
       13  1    1    2    0    0 +2.2016105439e+02 +5.7518536446e+02 +3.2112264791e+03 3.2697529866e+03 0.0000000000e+00 0.0000e+00 -1.0000e+00
<mgrwt>
<rscale>  0 0.17080605E+04</rscale>
<asrwt>0</asrwt>
<pdfrwt beam="1">  1        2 0.58901453E+00 0.17080605E+04</pdfrwt>
<pdfrwt beam="2">  1       -2 0.29308512E-01 0.17080605E+04</pdfrwt>
<totfact> 0.52585264E+00</totfact>
</mgrwt>
<rwgt>
<wgt id='morphing_basis_vector_1'> +1.8339807e-04 </wgt>
<wgt id='morphing_basis_vector_2'> +1.2155452e-04 </wgt>
<wgt id='morphing_basis_vector_3'> +1.9316625e-04 </wgt>
<wgt id='morphing_basis_vector_4'> +1.3200274e-04 </wgt>
<wgt id='morphing_basis_vector_5'> +2.1086012e-04 </wgt>
</rwgt>
</event>
<event>
 4      1 +1.5130300e-07 1.85321800e+03 7.81860800e-03 8.13464300e-02
        2 -1    0    0  501    0 +0.0000000000e+00 +0.0000000000e+00 +8.1933235745e+02 8.1933235745e+02 0.0000000000e+00 0.0000e+00 -1.0000e+00
       -2 -1    0    0    0  501 -0.0000000000e+00 -0.0000000000e+00 -1.0479319162e+03 1.0479319162e+03 0.0000000000e+00 0.0000e+00 1.0000e+00
      -13  1    1    2    0    0 -5.4310421004e+02 +1.9102323738e+02 -8.4585535880e+02 1.0231927229e+03 0.0000000000e+00 0.0000e+00 1.0000e+00
       13  1    1    2    0    0 +5.4310421004e+02 -1.9102323738e+02 +6.1725580002e+02 8.4407155078e+02 0.0000000000e+00 0.0000e+00 -1.0000e+00
<mgrwt>
<rscale>  0 0.18532183E+04</rscale>
<asrwt>0</asrwt>
<pdfrwt beam="1">  1        2 0.12605113E+00 0.18532183E+04</pdfrwt>
<pdfrwt beam="2">  1       -2 0.16122029E+00 0.18532183E+04</pdfrwt>
<totfact> 0.90377678E+00</totfact>
</mgrwt>
<rwgt>
<wgt id='morphing_basis_vector_1'> +2.5186590e-04 </wgt>
<wgt id='morphing_basis_vector_2'> +1.6729538e-04 </wgt>
<wgt id='morphing_basis_vector_3'> +2.6722949e-04 </wgt>
<wgt id='morphing_basis_vector_4'> +1.8476813e-04 </wgt>
<wgt id='morphing_basis_vector_5'> +2.9468728e-04 </wgt>
</rwgt>
</event>
<event>
 4      1 +1.5130300e-07 1.66458500e+03 7.81860800e-03 8.22522900e-02
        2 -1    0    0  501    0 +0.0000000000e+00 +0.0000000000e+00 +1.8847167705e+03 1.8847167705e+03 0.0000000000e+00 0.0000e+00 -1.0000e+00
       -2 -1    0    0    0  501 -0.0000000000e+00 -0.0000000000e+00 -3.6754127581e+02 3.6754127581e+02 0.0000000000e+00 0.0000e+00 1.0000e+00
      -13  1    1    2    0    0 -3.3598068246e+02 -4.2788941943e+02 -9.3657131045e+01 5.5203626008e+02 0.0000000000e+00 0.0000e+00 1.0000e+00
       13  1    1    2    0    0 +3.3598068246e+02 +4.2788941943e+02 +1.6108326257e+03 1.7002217862e+03 0.0000000000e+00 0.0000e+00 -1.0000e+00
<mgrwt>
<rscale>  0 0.16645855E+04</rscale>
<asrwt>0</asrwt>
<pdfrwt beam="1">  1        2 0.28995642E+00 0.16645855E+04</pdfrwt>
<pdfrwt beam="2">  1       -2 0.56544813E-01 0.16645855E+04</pdfrwt>
<totfact> 0.27510079E+01</totfact>
</mgrwt>
<rwgt>
<wgt id='morphing_basis_vector_1'> +1.6581668e-04 </wgt>
<wgt id='morphing_basis_vector_2'> +1.0951039e-04 </wgt>
<wgt id='morphing_basis_vector_3'> +1.7415771e-04 </wgt>
<wgt id='morphing_basis_vector_4'> +1.1890686e-04 </wgt>
<wgt id='morphing_basis_vector_5'> +1.8965143e-04 </wgt>
</rwgt>
</event>
<event>
 4      1 +1.5130300e-07 1.65922800e+03 7.81860800e-03 8.22798000e-02
        2 -1    0    0  501    0 +0.0000000000e+00 +0.0000000000e+00 +1.0617509828e+03 1.0617509828e+03 0.0000000000e+00 0.0000e+00 -1.0000e+00
       -2 -1    0    0    0  501 -0.0000000000e+00 -0.0000000000e+00 -6.4823049892e+02 6.4823049892e+02 0.0000000000e+00 0.0000e+00 1.0000e+00
      -13  1    1    2    0    0 -1.7610839349e+01 +3.4637227085e+02 -5.6993409420e+02 6.6716471985e+02 0.0000000000e+00 0.0000e+00 1.0000e+00
       13  1    1    2    0    0 +1.7610839349e+01 -3.4637227085e+02 +9.8345457805e+02 1.0428167618e+03 0.0000000000e+00 0.0000e+00 -1.0000e+00
<mgrwt>
<rscale>  0 0.16592280E+04</rscale>
<asrwt>0</asrwt>
<pdfrwt beam="1">  1        2 0.16334630E+00 0.16592280E+04</pdfrwt>
<pdfrwt beam="2">  1       -2 0.99727769E-01 0.16592280E+04</pdfrwt>
<totfact> 0.23093326E+01</totfact>
</mgrwt>
<rwgt>
<wgt id='morphing_basis_vector_1'> +1.6364213e-04 </wgt>
<wgt id='morphing_basis_vector_2'> +1.0779420e-04 </wgt>
<wgt id='morphing_basis_vector_3'> +1.7177995e-04 </wgt>
<wgt id='morphing_basis_vector_4'> +1.1755390e-04 </wgt>
<wgt id='morphing_basis_vector_5'> +1.8716675e-04 </wgt>
</rwgt>
</event>
<event>
 4      1 +1.5130300e-07 1.66667300e+03 7.81860800e-03 8.22416100e-02
        2 -1    0    0  501    0 +0.0000000000e+00 +0.0000000000e+00 +7.7667977372e+02 7.7667977372e+02 0.0000000000e+00 0.0000e+00 -1.0000e+00
       -2 -1    0    0    0  501 -0.0000000000e+00 -0.0000000000e+00 -8.9412576041e+02 8.9412576041e+02 0.0000000000e+00 0.0000e+00 1.0000e+00
      -13  1    1    2    0    0 +3.1474963391e+02 -7.1520382088e+02 -3.4903662116e+02 8.5580979216e+02 0.0000000000e+00 0.0000e+00 1.0000e+00
       13  1    1    2    0    0 -3.1474963391e+02 +7.1520382088e+02 +2.3159063447e+02 8.1499574197e+02 0.0000000000e+00 0.0000e+00 -1.0000e+00
<mgrwt>
<rscale>  0 0.16666726E+04</rscale>
<asrwt>0</asrwt>
<pdfrwt beam="1">  1        2 0.11948920E+00 0.16666726E+04</pdfrwt>
<pdfrwt beam="2">  1       -2 0.13755781E+00 0.16666726E+04</pdfrwt>
<totfact> 0.15463094E+01</totfact>
</mgrwt>
<rwgt>
<wgt id='morphing_basis_vector_1'> +1.6803592e-04 </wgt>
<wgt id='morphing_basis_vector_2'> +1.1424526e-04 </wgt>
<wgt id='morphing_basis_vector_3'> +1.7696513e-04 </wgt>
<wgt id='morphing_basis_vector_4'> +1.1681527e-04 </wgt>
<wgt id='morphing_basis_vector_5'> +1.9042606e-04 </wgt>
</rwgt>
</event>
<event>
 4      1 +1.5130300e-07 1.58736600e+03 7.81860800e-03 8.26593400e-02
        2 -1    0    0  501    0 +0.0000000000e+00 +0.0000000000e+00 +2.0067821872e+03 2.0067821872e+03 0.0000000000e+00 0.0000e+00 -1.0000e+00
       -2 -1    0    0    0  501 -0.0000000000e+00 -0.0000000000e+00 -3.1390174755e+02 3.1390174755e+02 0.0000000000e+00 0.0000e+00 1.0000e+00
      -13  1    1    2    0    0 +1.2869169945e+02 -4.5937838538e+02 -8.0895322633e+01 4.8387406180e+02 0.0000000000e+00 0.0000e+00 1.0000e+00
       13  1    1    2    0    0 -1.2869169945e+02 +4.5937838538e+02 +1.7737757623e+03 1.8368098729e+03 0.0000000000e+00 0.0000e+00 -1.0000e+00
<mgrwt>
<rscale>  0 0.15873657E+04</rscale>
<asrwt>0</asrwt>
<pdfrwt beam="1">  1        2 0.30873571E+00 0.15873657E+04</pdfrwt>
<pdfrwt beam="2">  1       -2 0.48292578E-01 0.15873657E+04</pdfrwt>
<totfact> 0.32362614E+01</totfact>
</mgrwt>
<rwgt>
<wgt id='morphing_basis_vector_1'> +1.3787718e-04 </wgt>
<wgt id='morphing_basis_vector_2'> +9.0679289e-05 </wgt>
<wgt id='morphing_basis_vector_3'> +1.4404931e-04 </wgt>
<wgt id='morphing_basis_vector_4'> +9.7849874e-05 </wgt>
<wgt id='morphing_basis_vector_5'> +1.5592266e-04 </wgt>
</rwgt>
</event>
<event>
 4      1 +1.5130300e-07 1.74472800e+03 7.81860800e-03 8.18531300e-02
        2 -1    0    0  501    0 +0.0000000000e+00 +0.0000000000e+00 +4.0875990731e+02 4.0875990731e+02 0.0000000000e+00 0.0000e+00 -1.0000e+00
       -2 -1    0    0    0  501 -0.0000000000e+00 -0.0000000000e+00 -1.8617751661e+03 1.8617751661e+03 0.0000000000e+00 0.0000e+00 1.0000e+00
      -13  1    1    2    0    0 +5.8163813298e+02 +5.4701252816e+02 -2.6918534216e+02 8.4260689063e+02 0.0000000000e+00 0.0000e+00 1.0000e+00
       13  1    1    2    0    0 -5.8163813298e+02 -5.4701252816e+02 -1.1838299167e+03 1.4279281828e+03 0.0000000000e+00 0.0000e+00 -1.0000e+00
<mgrwt>
<rscale>  0 0.17447281E+04</rscale>
<asrwt>0</asrwt>
<pdfrwt beam="1">  1        2 0.62886141E-01 0.17447281E+04</pdfrwt>
<pdfrwt beam="2">  1       -2 0.28642694E+00 0.17447281E+04</pdfrwt>
<totfact> 0.26224897E+00</totfact>
</mgrwt>
<rwgt>
<wgt id='morphing_basis_vector_1'> +2.2663739e-04 </wgt>
<wgt id='morphing_basis_vector_2'> +2.1365356e-04 </wgt>
<wgt id='morphing_basis_vector_3'> +2.4854045e-04 </wgt>
<wgt id='morphing_basis_vector_4'> +9.0837044e-05 </wgt>
<wgt id='morphing_basis_vector_5'> +2.2599314e-04 </wgt>
</rwgt>
</event>
<event>
 4      1 +1.5130300e-07 1.68548200e+03 7.81860800e-03 8.21460300e-02
        2 -1    0    0  501    0 +0.0000000000e+00 +0.0000000000e+00 +8.2901620130e+02 8.2901620130e+02 0.0000000000e+00 0.0000e+00 -1.0000e+00
       -2 -1    0    0    0  501 -0.0000000000e+00 -0.0000000000e+00 -8.5669259851e+02 8.5669259851e+02 0.0000000000e+00 0.0000e+00 1.0000e+00
      -13  1    1    2    0    0 +5.4133214480e+02 -4.0644136609e+02 -5.1587894360e+02 8.5109703296e+02 0.0000000000e+00 0.0000e+00 1.0000e+00
       13  1    1    2    0    0 -5.4133214480e+02 +4.0644136609e+02 +4.8820254639e+02 8.3461176685e+02 0.0000000000e+00 0.0000e+00 -1.0000e+00
<mgrwt>
<rscale>  0 0.16854816E+04</rscale>
<asrwt>0</asrwt>
<pdfrwt beam="1">  1        2 0.12754095E+00 0.16854816E+04</pdfrwt>
<pdfrwt beam="2">  1       -2 0.13179886E+00 0.16854816E+04</pdfrwt>
<totfact> 0.15956253E+01</totfact>
</mgrwt>
<rwgt>
<wgt id='morphing_basis_vector_1'> +1.7436687e-04 </wgt>
<wgt id='morphing_basis_vector_2'> +1.1597517e-04 </wgt>
<wgt id='morphing_basis_vector_3'> +1.8347742e-04 </wgt>
<wgt id='morphing_basis_vector_4'> +1.2456066e-04 </wgt>
<wgt id='morphing_basis_vector_5'> +1.9959766e-04 </wgt>
</rwgt>
</event>
<event>
 4      1 +1.5130300e-07 1.67895900e+03 7.81860800e-03 8.21790300e-02
        2 -1    0    0  501    0 +0.0000000000e+00 +0.0000000000e+00 +2.2751690121e+03 2.2751690121e+03 0.0000000000e+00 0.0000e+00 -1.0000e+00
       -2 -1    0    0    0  501 -0.0000000000e+00 -0.0000000000e+00 -3.0974645460e+02 3.0974645460e+02 0.0000000000e+00 0.0000e+00 1.0000e+00
      -13  1    1    2    0    0 -3.5183588846e+02 -3.5707251426e+02 -5.4015865710e+01 5.0418943523e+02 0.0000000000e+00 0.0000e+00 1.0000e+00
       13  1    1    2    0    0 +3.5183588846e+02 +3.5707251426e+02 +2.0194384232e+03 2.0807260314e+03 0.0000000000e+00 0.0000e+00 -1.0000e+00
<mgrwt>
<rscale>  0 0.16789586E+04</rscale>
<asrwt>0</asrwt>
<pdfrwt beam="1">  1        2 0.35002599E+00 0.16789586E+04</pdfrwt>
<pdfrwt beam="2">  1       -2 0.47653302E-01 0.16789586E+04</pdfrwt>
<totfact> 0.23191650E+01</totfact>
</mgrwt>
<rwgt>
<wgt id='morphing_basis_vector_1'> +1.7140024e-04 </wgt>
<wgt id='morphing_basis_vector_2'> +1.1314728e-04 </wgt>
<wgt id='morphing_basis_vector_3'> +1.8016728e-04 </wgt>
<wgt id='morphing_basis_vector_4'> +1.2328005e-04 </wgt>
<wgt id='morphing_basis_vector_5'> +1.9649083e-04 </wgt>
</rwgt>
</event>
<event>
 4      1 +1.5130300e-07 1.70032500e+03 7.81860800e-03 8.20715100e-02
        2 -1    0    0  501    0 +0.0000000000e+00 +0.0000000000e+00 +3.2358363406e+03 3.2358363406e+03 0.0000000000e+00 0.0000e+00 1.0000e+00
       -2 -1    0    0    0  501 -0.0000000000e+00 -0.0000000000e+00 -2.2336605308e+02 2.2336605308e+02 0.0000000000e+00 0.0000e+00 -1.0000e+00
      -13  1    1    2    0    0 +7.9535004109e+00 -7.3519302280e+02 +6.3782874410e+02 9.7334348806e+02 0.0000000000e+00 0.0000e+00 -1.0000e+00
       13  1    1    2    0    0 -7.9535004109e+00 +7.3519302280e+02 +2.3746415435e+03 2.4858589057e+03 0.0000000000e+00 0.0000e+00 1.0000e+00
<mgrwt>
<rscale>  0 0.17003247E+04</rscale>
<asrwt>0</asrwt>
<pdfrwt beam="1">  1        2 0.49782094E+00 0.17003247E+04</pdfrwt>
<pdfrwt beam="2">  1       -2 0.34364010E-01 0.17003247E+04</pdfrwt>
<totfact> 0.10791089E+01</totfact>
</mgrwt>
<rwgt>
<wgt id='morphing_basis_vector_1'> +1.8073985e-04 </wgt>
<wgt id='morphing_basis_vector_2'> +1.2103180e-04 </wgt>
<wgt id='morphing_basis_vector_3'> +1.9046144e-04 </wgt>
<wgt id='morphing_basis_vector_4'> +1.2850119e-04 </wgt>
<wgt id='morphing_basis_vector_5'> +2.0687949e-04 </wgt>
</rwgt>
</event>
<event>
 4      1 +1.5130300e-07 1.61129200e+03 7.81860800e-03 8.25307100e-02
        2 -1    0    0  501    0 +0.0000000000e+00 +0.0000000000e+00 +2.3131531245e+03 2.3131531245e+03 0.0000000000e+00 0.0000e+00 1.0000e+00
       -2 -1    0    0    0  501 -0.0000000000e+00 -0.0000000000e+00 -2.8059781975e+02 2.8059781975e+02 0.0000000000e+00 0.0000e+00 -1.0000e+00
      -13  1    1    2    0    0 -1.9366568488e+02 +5.4100513922e+02 +1.0728022730e+02 5.8455282510e+02 0.0000000000e+00 0.0000e+00 -1.0000e+00
       13  1    1    2    0    0 +1.9366568488e+02 -5.4100513922e+02 +1.9252750774e+03 2.0091981191e+03 0.0000000000e+00 0.0000e+00 1.0000e+00
<mgrwt>
<rscale>  0 0.16112923E+04</rscale>
<asrwt>0</asrwt>
<pdfrwt beam="1">  1        2 0.35586970E+00 0.16112923E+04</pdfrwt>
<pdfrwt beam="2">  1       -2 0.43168897E-01 0.16112923E+04</pdfrwt>
<totfact> 0.26819049E+01</totfact>
</mgrwt>
<rwgt>
<wgt id='morphing_basis_vector_1'> +1.4621509e-04 </wgt>
<wgt id='morphing_basis_vector_2'> +9.6514646e-05 </wgt>
<wgt id='morphing_basis_vector_3'> +1.5305191e-04 </wgt>
<wgt id='morphing_basis_vector_4'> +1.0386832e-04 </wgt>
<wgt id='morphing_basis_vector_5'> +1.6583895e-04 </wgt>
</rwgt>
</event>
<event>
 4      1 +1.5130300e-07 1.65099700e+03 7.81860800e-03 8.23222600e-02
        2 -1    0    0  501    0 +0.0000000000e+00 +0.0000000000e+00 +1.9345587393e+03 1.9345587393e+03 0.0000000000e+00 0.0000e+00 1.0000e+00
       -2 -1    0    0    0  501 -0.0000000000e+00 -0.0000000000e+00 -3.5224978629e+02 3.5224978629e+02 0.0000000000e+00 0.0000e+00 -1.0000e+00
      -13  1    1    2    0    0 -3.7134759364e+02 -7.3577131182e+02 +7.2634322834e+02 1.0985594859e+03 0.0000000000e+00 0.0000e+00 -1.0000e+00
       13  1    1    2    0    0 +3.7134759364e+02 +7.3577131182e+02 +8.5596572462e+02 1.1882490397e+03 0.0000000000e+00 0.0000e+00 1.0000e+00
<mgrwt>
<rscale>  0 0.16509972E+04</rscale>
<asrwt>0</asrwt>
<pdfrwt beam="1">  1        2 0.29762442E+00 0.16509972E+04</pdfrwt>
<pdfrwt beam="2">  1       -2 0.54192276E-01 0.16509972E+04</pdfrwt>
<totfact> 0.28139634E+01</totfact>
</mgrwt>
<rwgt>
<wgt id='morphing_basis_vector_1'> +1.6525321e-04 </wgt>
<wgt id='morphing_basis_vector_2'> +1.1979294e-04 </wgt>
<wgt id='morphing_basis_vector_3'> +1.7488573e-04 </wgt>
<wgt id='morphing_basis_vector_4'> +1.0609669e-04 </wgt>
<wgt id='morphing_basis_vector_5'> +1.8268142e-04 </wgt>
</rwgt>
</event>
<event>
 4      1 +1.5130300e-07 1.55874500e+03 7.81860800e-03 8.28163000e-02
        2 -1    0    0  501    0 +0.0000000000e+00 +0.0000000000e+00 +2.8674314385e+03 2.8674314385e+03 0.0000000000e+00 0.0000e+00 -1.0000e+00
       -2 -1    0    0    0  501 -0.0000000000e+00 -0.0000000000e+00 -2.1183468818e+02 2.1183468818e+02 0.0000000000e+00 0.0000e+00 1.0000e+00
      -13  1    1    2    0    0 +3.4643009437e+02 +5.8239694869e+02 +5.6724855840e+02 8.8372560398e+02 0.0000000000e+00 0.0000e+00 1.0000e+00
       13  1    1    2    0    0 -3.4643009437e+02 -5.8239694869e+02 +2.0883481919e+03 2.1955405227e+03 0.0000000000e+00 0.0000e+00 -1.0000e+00
<mgrwt>
<rscale>  0 0.15587449E+04</rscale>
<asrwt>0</asrwt>
<pdfrwt beam="1">  1        2 0.44114327E+00 0.15587449E+04</pdfrwt>
<pdfrwt beam="2">  1       -2 0.32589954E-01 0.15587449E+04</pdfrwt>
<totfact> 0.20973538E+01</totfact>
</mgrwt>
<rwgt>
<wgt id='morphing_basis_vector_1'> +1.2902318e-04 </wgt>
<wgt id='morphing_basis_vector_2'> +8.5958768e-05 </wgt>
<wgt id='morphing_basis_vector_3'> +1.3466585e-04 </wgt>
<wgt id='morphing_basis_vector_4'> +8.9785763e-05 </wgt>
<wgt id='morphing_basis_vector_5'> +1.4455607e-04 </wgt>
</rwgt>
</event>
<event>
 4      1 +1.5130300e-07 1.67140300e+03 7.81860800e-03 8.22174500e-02
        2 -1    0    0  501    0 +0.0000000000e+00 +0.0000000000e+00 +1.4722411403e+03 1.4722411403e+03 0.0000000000e+00 0.0000e+00 -1.0000e+00
       -2 -1    0    0    0  501 -0.0000000000e+00 -0.0000000000e+00 -4.7437697719e+02 4.7437697719e+02 0.0000000000e+00 0.0000e+00 1.0000e+00
      -13  1    1    2    0    0 +4.0522481060e+01 -7.1996441078e+02 +7.0003939977e+00 7.2113787155e+02 0.0000000000e+00 0.0000e+00 1.0000e+00
       13  1    1    2    0    0 -4.0522481060e+01 +7.1996441078e+02 +9.9086376914e+02 1.2254802460e+03 0.0000000000e+00 0.0000e+00 -1.0000e+00
<mgrwt>
<rscale>  0 0.16714034E+04</rscale>
<asrwt>0</asrwt>
<pdfrwt beam="1">  1        2 0.22649863E+00 0.16714034E+04</pdfrwt>
<pdfrwt beam="2">  1       -2 0.72981074E-01 0.16714034E+04</pdfrwt>
<totfact> 0.27365150E+01</totfact>
</mgrwt>
<rwgt>
<wgt id='morphing_basis_vector_1'> +1.6906668e-04 </wgt>
<wgt id='morphing_basis_vector_2'> +1.1306389e-04 </wgt>
<wgt id='morphing_basis_vector_3'> +1.7783935e-04 </wgt>
<wgt id='morphing_basis_vector_4'> +1.1977819e-04 </wgt>
<wgt id='morphing_basis_vector_5'> +1.9278256e-04 </wgt>
</rwgt>
</event>
<event>
 4      1 +1.5130300e-07 1.77852700e+03 7.81860800e-03 8.16913000e-02
        2 -1    0    0  501    0 +0.0000000000e+00 +0.0000000000e+00 +1.8237825443e+03 1.8237825443e+03 0.0000000000e+00 0.0000e+00 1.0000e+00
       -2 -1    0    0    0  501 -0.0000000000e+00 -0.0000000000e+00 -4.3359863361e+02 4.3359863361e+02 0.0000000000e+00 0.0000e+00 -1.0000e+00
      -13  1    1    2    0    0 -4.2007897537e+02 -7.1803928199e+02 +1.0939306462e+03 1.3743111055e+03 0.0000000000e+00 0.0000e+00 -1.0000e+00
       13  1    1    2    0    0 +4.2007897537e+02 +7.1803928199e+02 +2.9625326450e+02 8.8307007240e+02 0.0000000000e+00 0.0000e+00 1.0000e+00
<mgrwt>
<rscale>  0 0.17785271E+04</rscale>
<asrwt>0</asrwt>
<pdfrwt beam="1">  1        2 0.28058193E+00 0.17785271E+04</pdfrwt>
<pdfrwt beam="2">  1       -2 0.66707483E-01 0.17785271E+04</pdfrwt>
<totfact> 0.20940095E+01</totfact>
</mgrwt>
<rwgt>
<wgt id='morphing_basis_vector_1'> +2.4007855e-04 </wgt>
<wgt id='morphing_basis_vector_2'> +2.1803837e-04 </wgt>
<wgt id='morphing_basis_vector_3'> +2.6268845e-04 </wgt>
<wgt id='morphing_basis_vector_4'> +1.0634659e-04 </wgt>
<wgt id='morphing_basis_vector_5'> +2.4511765e-04 </wgt>
</rwgt>
</event>
<event>
 4      1 +1.5130300e-07 1.75341800e+03 7.81860800e-03 8.18111700e-02
        2 -1    0    0  501    0 +0.0000000000e+00 +0.0000000000e+00 +1.2184645650e+03 1.2184645650e+03 0.0000000000e+00 0.0000e+00 1.0000e+00
       -2 -1    0    0    0  501 -0.0000000000e+00 -0.0000000000e+00 -6.3080893285e+02 6.3080893285e+02 0.0000000000e+00 0.0000e+00 -1.0000e+00
      -13  1    1    2    0    0 -2.1334571211e+02 +8.2011942769e+02 +5.3084920605e+02 9.9995657311e+02 0.0000000000e+00 0.0000e+00 -1.0000e+00
       13  1    1    2    0    0 +2.1334571211e+02 -8.2011942769e+02 +5.6806426068e+01 8.4931692471e+02 0.0000000000e+00 0.0000e+00 1.0000e+00
<mgrwt>
<rscale>  0 0.17534176E+04</rscale>
<asrwt>0</asrwt>
<pdfrwt beam="1">  1        2 0.18745609E+00 0.17534176E+04</pdfrwt>
<pdfrwt beam="2">  1       -2 0.97047528E-01 0.17534176E+04</pdfrwt>
<totfact> 0.19734469E+01</totfact>
</mgrwt>
<rwgt>
<wgt id='morphing_basis_vector_1'> +2.2067994e-04 </wgt>
<wgt id='morphing_basis_vector_2'> +1.8702494e-04 </wgt>
<wgt id='morphing_basis_vector_3'> +2.3904658e-04 </wgt>
<wgt id='morphing_basis_vector_4'> +1.1286422e-04 </wgt>
<wgt id='morphing_basis_vector_5'> +2.3220044e-04 </wgt>
</rwgt>
</event>
<event>
 4      1 +1.5130300e-07 1.62606100e+03 7.81860800e-03 8.24524600e-02
        2 -1    0    0  501    0 +0.0000000000e+00 +0.0000000000e+00 +1.4578421212e+03 1.4578421212e+03 0.0000000000e+00 0.0000e+00 -1.0000e+00
       -2 -1    0    0    0  501 -0.0000000000e+00 -0.0000000000e+00 -4.5342288215e+02 4.5342288215e+02 0.0000000000e+00 0.0000e+00 1.0000e+00
      -13  1    1    2    0    0 +4.8343134391e+02 +3.2825847367e+02 -1.6223655545e+02 6.0644883522e+02 0.0000000000e+00 0.0000e+00 1.0000e+00
       13  1    1    2    0    0 -4.8343134391e+02 -3.2825847367e+02 +1.1666557945e+03 1.3048161682e+03 0.0000000000e+00 0.0000e+00 -1.0000e+00
<mgrwt>
<rscale>  0 0.16260615E+04</rscale>
<asrwt>0</asrwt>
<pdfrwt beam="1">  1        2 0.22428340E+00 0.16260615E+04</pdfrwt>
<pdfrwt beam="2">  1       -2 0.69757368E-01 0.16260615E+04</pdfrwt>
<totfact> 0.30850382E+01</totfact>
</mgrwt>
<rwgt>
<wgt id='morphing_basis_vector_1'> +1.5148975e-04 </wgt>
<wgt id='morphing_basis_vector_2'> +1.0007803e-04 </wgt>
<wgt id='morphing_basis_vector_3'> +1.5873605e-04 </wgt>
<wgt id='morphing_basis_vector_4'> +1.0783059e-04 </wgt>
<wgt id='morphing_basis_vector_5'> +1.7219752e-04 </wgt>
</rwgt>
</event>
<event>
 4      1 +1.5130300e-07 1.59498900e+03 7.81860800e-03 8.26181000e-02
        2 -1    0    0  501    0 +0.0000000000e+00 +0.0000000000e+00 +3.0268977631e+03 3.0268977631e+03 0.0000000000e+00 0.0000e+00 -1.0000e+00
       -2 -1    0    0    0  501 -0.0000000000e+00 -0.0000000000e+00 -2.1011534996e+02 2.1011534996e+02 0.0000000000e+00 0.0000e+00 1.0000e+00
      -13  1    1    2    0    0 +6.7105679995e+02 +4.2758489530e+02 +1.5167668937e+03 1.7128128565e+03 0.0000000000e+00 0.0000e+00 1.0000e+00
       13  1    1    2    0    0 -6.7105679995e+02 -4.2758489530e+02 +1.3000155194e+03 1.5242002566e+03 0.0000000000e+00 0.0000e+00 -1.0000e+00
<mgrwt>
<rscale>  0 0.15949893E+04</rscale>
<asrwt>0</asrwt>
<pdfrwt beam="1">  1        2 0.46567655E+00 0.15949893E+04</pdfrwt>
<pdfrwt beam="2">  1       -2 0.32325441E-01 0.15949893E+04</pdfrwt>
<totfact> 0.16764746E+01</totfact>
</mgrwt>
<rwgt>
<wgt id='morphing_basis_vector_1'> +1.4687655e-04 </wgt>
<wgt id='morphing_basis_vector_2'> +1.1150324e-04 </wgt>
<wgt id='morphing_basis_vector_3'> +1.5547231e-04 </wgt>
<wgt id='morphing_basis_vector_4'> +8.7623850e-05 </wgt>
<wgt id='morphing_basis_vector_5'> +1.5811907e-04 </wgt>
</rwgt>
</event>
<event>
 4      1 +1.5130300e-07 1.85393000e+03 7.81860800e-03 8.13432200e-02
        2 -1    0    0  501    0 +0.0000000000e+00 +0.0000000000e+00 +2.9001251437e+02 2.9001251437e+02 0.0000000000e+00 0.0000e+00 1.0000e+00
       -2 -1    0    0    0  501 -0.0000000000e+00 -0.0000000000e+00 -2.9628525311e+03 2.9628525311e+03 0.0000000000e+00 0.0000e+00 -1.0000e+00
      -13  1    1    2    0    0 +7.7057310433e+02 +1.1938908819e+02 -2.2158603417e+03 2.3490580490e+03 0.0000000000e+00 0.0000e+00 -1.0000e+00
       13  1    1    2    0    0 -7.7057310433e+02 -1.1938908819e+02 -4.5697967499e+02 9.0380699646e+02 0.0000000000e+00 0.0000e+00 1.0000e+00
<mgrwt>
<rscale>  0 0.18539302E+04</rscale>
<asrwt>0</asrwt>
<pdfrwt beam="1">  1        2 0.44617308E-01 0.18539302E+04</pdfrwt>
<pdfrwt beam="2">  1       -2 0.45582348E+00 0.18539302E+04</pdfrwt>
<totfact> 0.28992186E-01</totfact>
</mgrwt>
<rwgt>
<wgt id='morphing_basis_vector_1'> +2.5299289e-04 </wgt>
<wgt id='morphing_basis_vector_2'> +1.6977045e-04 </wgt>
<wgt id='morphing_basis_vector_3'> +2.6870607e-04 </wgt>
<wgt id='morphing_basis_vector_4'> +1.8358862e-04 </wgt>
<wgt id='morphing_basis_vector_5'> +2.9503647e-04 </wgt>
</rwgt>
</event>
<event>
 4      1 +1.5130300e-07 1.57822900e+03 7.81860800e-03 8.27090700e-02
        2 -1    0    0  501    0 +0.0000000000e+00 +0.0000000000e+00 +2.2853847303e+03 2.2853847303e+03 0.0000000000e+00 0.0000e+00 1.0000e+00
       -2 -1    0    0    0  501 -0.0000000000e+00 -0.0000000000e+00 -2.7247142886e+02 2.7247142886e+02 0.0000000000e+00 0.0000e+00 -1.0000e+00
      -13  1    1    2    0    0 -2.5526746623e+02 +6.3080965332e+02 +3.5894247063e+02 7.6936466988e+02 0.0000000000e+00 0.0000e+00 -1.0000e+00
       13  1    1    2    0    0 +2.5526746623e+02 -6.3080965332e+02 +1.6539708308e+03 1.7884914893e+03 0.0000000000e+00 0.0000e+00 1.0000e+00
<mgrwt>
<rscale>  0 0.15782294E+04</rscale>
<asrwt>0</asrwt>
<pdfrwt beam="1">  1        2 0.35159764E+00 0.15782294E+04</pdfrwt>
<pdfrwt beam="2">  1       -2 0.41918683E-01 0.15782294E+04</pdfrwt>
<totfact> 0.29507117E+01</totfact>
</mgrwt>
<rwgt>
<wgt id='morphing_basis_vector_1'> +1.3533947e-04 </wgt>
<wgt id='morphing_basis_vector_2'> +9.0156734e-05 </wgt>
<wgt id='morphing_basis_vector_3'> +1.4145555e-04 </wgt>
<wgt id='morphing_basis_vector_4'> +9.4582124e-05 </wgt>
<wgt id='morphing_basis_vector_5'> +1.5217663e-04 </wgt>
</rwgt>
</event>
<event>
 4      1 +1.5130300e-07 1.76820400e+03 7.81860800e-03 8.17403300e-02
        2 -1    0    0  501    0 +0.0000000000e+00 +0.0000000000e+00 +1.7834798807e+03 1.7834798807e+03 0.0000000000e+00 0.0000e+00 -1.0000e+00
       -2 -1    0    0    0  501 -0.0000000000e+00 -0.0000000000e+00 -4.3826493899e+02 4.3826493899e+02 0.0000000000e+00 0.0000e+00 1.0000e+00
      -13  1    1    2    0    0 +5.1571415068e+01 -8.2630924733e+02 +2.8291058271e+02 8.7491998542e+02 0.0000000000e+00 0.0000e+00 1.0000e+00
       13  1    1    2    0    0 -5.1571415068e+01 +8.2630924733e+02 +1.0623043590e+03 1.3468248342e+03 0.0000000000e+00 0.0000e+00 -1.0000e+00
<mgrwt>
<rscale>  0 0.17682044E+04</rscale>
<asrwt>0</asrwt>
<pdfrwt beam="1">  1        2 0.27438152E+00 0.17682044E+04</pdfrwt>
<pdfrwt beam="2">  1       -2 0.67425376E-01 0.17682044E+04</pdfrwt>
<totfact> 0.21575995E+01</totfact>
</mgrwt>
<rwgt>
<wgt id='morphing_basis_vector_1'> +2.1148540e-04 </wgt>
<wgt id='morphing_basis_vector_2'> +1.4422450e-04 </wgt>
<wgt id='morphing_basis_vector_3'> +2.2406216e-04 </wgt>
<wgt id='morphing_basis_vector_4'> +1.4896845e-04 </wgt>
<wgt id='morphing_basis_vector_5'> +2.4282221e-04 </wgt>
</rwgt>
</event>
<event>
 4      1 +1.5130300e-07 1.63401600e+03 7.81860800e-03 8.24106700e-02
        2 -1    0    0  501    0 +0.0000000000e+00 +0.0000000000e+00 +1.0595609933e+03 1.0595609933e+03 0.0000000000e+00 0.0000e+00 -1.0000e+00
       -2 -1    0    0    0  501 -0.0000000000e+00 -0.0000000000e+00 -6.2997971063e+02 6.2997971063e+02 0.0000000000e+00 0.0000e+00 1.0000e+00
      -13  1    1    2    0    0 +1.2284082815e+02 +1.2655864312e+02 -6.1006086154e+02 6.3504426144e+02 0.0000000000e+00 0.0000e+00 1.0000e+00
       13  1    1    2    0    0 -1.2284082815e+02 -1.2655864312e+02 +1.0396421442e+03 1.0544964425e+03 0.0000000000e+00 0.0000e+00 -1.0000e+00
<mgrwt>
<rscale>  0 0.16340158E+04</rscale>
<asrwt>0</asrwt>
<pdfrwt beam="1">  1        2 0.16300938E+00 0.16340158E+04</pdfrwt>
<pdfrwt beam="2">  1       -2 0.96919955E-01 0.16340158E+04</pdfrwt>
<totfact> 0.24856504E+01</totfact>
</mgrwt>
<rwgt>
<wgt id='morphing_basis_vector_1'> +1.5418538e-04 </wgt>
<wgt id='morphing_basis_vector_2'> +1.0143036e-04 </wgt>
<wgt id='morphing_basis_vector_3'> +1.6158435e-04 </wgt>
<wgt id='morphing_basis_vector_4'> +1.1040059e-04 </wgt>
<wgt id='morphing_basis_vector_5'> +1.7572578e-04 </wgt>
</rwgt>
</event>
<event>
 4      1 +1.5130300e-07 1.72097600e+03 7.81860800e-03 8.19691000e-02
        2 -1    0    0  501    0 +0.0000000000e+00 +0.0000000000e+00 +3.3909691970e+03 3.3909691970e+03 0.0000000000e+00 0.0000e+00 -1.0000e+00
       -2 -1    0    0    0  501 -0.0000000000e+00 -0.0000000000e+00 -2.1835642240e+02 2.1835642240e+02 0.0000000000e+00 0.0000e+00 1.0000e+00
      -13  1    1    2    0    0 -2.6129791373e+02 -4.3093425316e+02 +1.2354236511e+02 5.1888693012e+02 0.0000000000e+00 0.0000e+00 1.0000e+00
       13  1    1    2    0    0 +2.6129791373e+02 +4.3093425316e+02 +3.0490704095e+03 3.0904386893e+03 0.0000000000e+00 0.0000e+00 -1.0000e+00
<mgrwt>
<rscale>  0 0.17209764E+04</rscale>
<asrwt>0</asrwt>
<pdfrwt beam="1">  1        2 0.52168753E+00 0.17209764E+04</pdfrwt>
<pdfrwt beam="2">  1       -2 0.33593298E-01 0.17209764E+04</pdfrwt>
<totfact> 0.87591499E+00</totfact>
</mgrwt>
<rwgt>
<wgt id='morphing_basis_vector_1'> +1.8868623e-04 </wgt>
<wgt id='morphing_basis_vector_2'> +1.2473215e-04 </wgt>
<wgt id='morphing_basis_vector_3'> +1.9882906e-04 </wgt>
<wgt id='morphing_basis_vector_4'> +1.3647270e-04 </wgt>
<wgt id='morphing_basis_vector_5'> +2.1751644e-04 </wgt>
</rwgt>
</event>
<event>
 4      1 +1.5130300e-07 1.61641500e+03 7.81860800e-03 8.25034800e-02
        2 -1    0    0  501    0 +0.0000000000e+00 +0.0000000000e+00 +3.3073724636e+03 3.3073724636e+03 0.0000000000e+00 0.0000e+00 -1.0000e+00
       -2 -1    0    0    0  501 -0.0000000000e+00 -0.0000000000e+00 -1.9749789215e+02 1.9749789215e+02 0.0000000000e+00 0.0000e+00 1.0000e+00
      -13  1    1    2    0    0 +4.1219634820e+02 +4.1889546824e+02 +3.5193213673e+02 6.8500764349e+02 0.0000000000e+00 0.0000e+00 1.0000e+00
       13  1    1    2    0    0 -4.1219634820e+02 -4.1889546824e+02 +2.7579424347e+03 2.8198627123e+03 0.0000000000e+00 0.0000e+00 -1.0000e+00
<mgrwt>
<rscale>  0 0.16164147E+04</rscale>
<asrwt>0</asrwt>
<pdfrwt beam="1">  1        2 0.50882649E+00 0.16164147E+04</pdfrwt>
<pdfrwt beam="2">  1       -2 0.30384294E-01 0.16164147E+04</pdfrwt>
<totfact> 0.12120875E+01</totfact>
</mgrwt>
<rwgt>
<wgt id='morphing_basis_vector_1'> +1.4804718e-04 </wgt>
<wgt id='morphing_basis_vector_2'> +9.7795216e-05 </wgt>
<wgt id='morphing_basis_vector_3'> +1.5503108e-04 </wgt>
<wgt id='morphing_basis_vector_4'> +1.0519441e-04 </wgt>
<wgt id='morphing_basis_vector_5'> +1.6802148e-04 </wgt>
</rwgt>
</event>
<event>
 4      1 +1.5130300e-07 1.77972700e+03 7.81860800e-03 8.16856200e-02
        2 -1    0    0  501    0 +0.0000000000e+00 +0.0000000000e+00 +5.2714472485e+02 5.2714472485e+02 0.0000000000e+00 0.0000e+00 -1.0000e+00
       -2 -1    0    0    0  501 -0.0000000000e+00 -0.0000000000e+00 -1.5021629533e+03 1.5021629533e+03 0.0000000000e+00 0.0000e+00 1.0000e+00
      -13  1    1    2    0    0 +4.9865295584e+02 -2.4500830331e+02 -1.2800943397e+03 1.3954660002e+03 0.0000000000e+00 0.0000e+00 1.0000e+00
       13  1    1    2    0    0 -4.9865295584e+02 +2.4500830331e+02 +3.0507611127e+02 6.3384167797e+02 0.0000000000e+00 0.0000e+00 -1.0000e+00
<mgrwt>
<rscale>  0 0.17797273E+04</rscale>
<asrwt>0</asrwt>
<pdfrwt beam="1">  1        2 0.81099190E-01 0.17797273E+04</pdfrwt>
<pdfrwt beam="2">  1       -2 0.23110199E+00 0.17797273E+04</pdfrwt>
<totfact> 0.47108912E+00</totfact>
</mgrwt>
<rwgt>
<wgt id='morphing_basis_vector_1'> +2.1507907e-04 </wgt>
<wgt id='morphing_basis_vector_2'> +1.4254677e-04 </wgt>
<wgt id='morphing_basis_vector_3'> +2.2737977e-04 </wgt>
<wgt id='morphing_basis_vector_4'> +1.5654999e-04 </wgt>
<wgt id='morphing_basis_vector_5'> +2.4965588e-04 </wgt>
</rwgt>
</event>
<event>
 4      1 +1.5130300e-07 1.63871200e+03 7.81860800e-03 8.23861000e-02
        2 -1    0    0  501    0 +0.0000000000e+00 +0.0000000000e+00 +3.6771172739e+02 3.6771172739e+02 0.0000000000e+00 0.0000e+00 -1.0000e+00
       -2 -1    0    0    0  501 -0.0000000000e+00 -0.0000000000e+00 -1.8257362594e+03 1.8257362594e+03 0.0000000000e+00 0.0000e+00 1.0000e+00
      -13  1    1    2    0    0 +2.5833547422e+02 -7.0070069914e+02 -1.1802062924e+03 1.3966408199e+03 0.0000000000e+00 0.0000e+00 1.0000e+00
       13  1    1    2    0    0 -2.5833547422e+02 +7.0070069914e+02 -2.7781823955e+02 7.9680716691e+02 0.0000000000e+00 0.0000e+00 -1.0000e+00
<mgrwt>
<rscale>  0 0.16387125E+04</rscale>
<asrwt>0</asrwt>
<pdfrwt beam="1">  1        2 0.56571035E-01 0.16387125E+04</pdfrwt>
<pdfrwt beam="2">  1       -2 0.28088250E+00 0.16387125E+04</pdfrwt>
<totfact> 0.32534953E+00</totfact>
</mgrwt>
<rwgt>
<wgt id='morphing_basis_vector_1'> +1.5698678e-04 </wgt>
<wgt id='morphing_basis_vector_2'> +1.0578150e-04 </wgt>
<wgt id='morphing_basis_vector_3'> +1.6490895e-04 </wgt>
<wgt id='morphing_basis_vector_4'> +1.0965934e-04 </wgt>
<wgt id='morphing_basis_vector_5'> +1.7766098e-04 </wgt>
</rwgt>
</event>
<event>
 4      1 +1.5130300e-07 1.57372800e+03 7.81860800e-03 8.27337000e-02
        2 -1    0    0  501    0 +0.0000000000e+00 +0.0000000000e+00 +1.6528312389e+03 1.6528312389e+03 0.0000000000e+00 0.0000e+00 -1.0000e+00
       -2 -1    0    0    0  501 -0.0000000000e+00 -0.0000000000e+00 -3.7460267651e+02 3.7460267651e+02 0.0000000000e+00 0.0000e+00 1.0000e+00
      -13  1    1    2    0    0 -4.9079768183e+02 -1.1986041048e+02 -1.3804797246e+02 5.2374242256e+02 0.0000000000e+00 0.0000e+00 1.0000e+00
       13  1    1    2    0    0 +4.9079768183e+02 +1.1986041048e+02 +1.4162765349e+03 1.5036914929e+03 0.0000000000e+00 0.0000e+00 -1.0000e+00
<mgrwt>
<rscale>  0 0.15737281E+04</rscale>
<asrwt>0</asrwt>
<pdfrwt beam="1">  1        2 0.25428173E+00 0.15737281E+04</pdfrwt>
<pdfrwt beam="2">  1       -2 0.57631182E-01 0.15737281E+04</pdfrwt>
<totfact> 0.35898126E+01</totfact>
</mgrwt>
<rwgt>
<wgt id='morphing_basis_vector_1'> +1.3337345e-04 </wgt>
<wgt id='morphing_basis_vector_2'> +8.7725406e-05 </wgt>
<wgt id='morphing_basis_vector_3'> +1.3921322e-04 </wgt>
<wgt id='morphing_basis_vector_4'> +9.4377520e-05 </wgt>
<wgt id='morphing_basis_vector_5'> +1.5045941e-04 </wgt>
</rwgt>
</event>
<event>
 4      1 +1.5130300e-07 1.67357400e+03 7.81860800e-03 8.22063900e-02
        2 -1    0    0  501    0 +0.0000000000e+00 +0.0000000000e+00 +1.0028147575e+03 1.0028147575e+03 0.0000000000e+00 0.0000e+00 -1.0000e+00
       -2 -1    0    0    0  501 -0.0000000000e+00 -0.0000000000e+00 -6.9824748265e+02 6.9824748265e+02 0.0000000000e+00 0.0000e+00 1.0000e+00
      -13  1    1    2    0    0 +4.0778589429e+02 -7.1736055076e+02 +2.9355343549e+02 8.7582481973e+02 0.0000000000e+00 0.0000e+00 1.0000e+00
       13  1    1    2    0    0 -4.0778589429e+02 +7.1736055076e+02 +1.1013839327e+01 8.2523742040e+02 0.0000000000e+00 0.0000e+00 -1.0000e+00
<mgrwt>
<rscale>  0 0.16735745E+04</rscale>
<asrwt>0</asrwt>
<pdfrwt beam="1">  1        2 0.15427919E+00 0.16735745E+04</pdfrwt>
<pdfrwt beam="2">  1       -2 0.10742269E+00 0.16735745E+04</pdfrwt>
<totfact> 0.20899388E+01</totfact>
</mgrwt>
<rwgt>
<wgt id='morphing_basis_vector_1'> +1.8021143e-04 </wgt>
<wgt id='morphing_basis_vector_2'> +1.4422757e-04 </wgt>
<wgt id='morphing_basis_vector_3'> +1.9290312e-04 </wgt>
<wgt id='morphing_basis_vector_4'> +1.0065456e-04 </wgt>
<wgt id='morphing_basis_vector_5'> +1.9230686e-04 </wgt>
</rwgt>
</event>
<event>
 4      1 +1.5130300e-07 1.79596200e+03 7.81860800e-03 8.16092500e-02
        2 -1    0    0  501    0 +0.0000000000e+00 +0.0000000000e+00 +1.3175919438e+03 1.3175919438e+03 0.0000000000e+00 0.0000e+00 -1.0000e+00
       -2 -1    0    0    0  501 -0.0000000000e+00 -0.0000000000e+00 -6.1200297280e+02 6.1200297280e+02 0.0000000000e+00 0.0000e+00 1.0000e+00
      -13  1    1    2    0    0 +4.7421857241e+01 -8.9672798583e+02 +3.5335625714e+02 9.6500287957e+02 0.0000000000e+00 0.0000e+00 1.0000e+00
       13  1    1    2    0    0 -4.7421857241e+01 +8.9672798583e+02 +3.5223271381e+02 9.6459203698e+02 0.0000000000e+00 0.0000e+00 -1.0000e+00
<mgrwt>
<rscale>  0 0.17959623E+04</rscale>
<asrwt>0</asrwt>
<pdfrwt beam="1">  1        2 0.20270645E+00 0.17959623E+04</pdfrwt>
<pdfrwt beam="2">  1       -2 0.94154304E-01 0.17959623E+04</pdfrwt>
<totfact> 0.18520244E+01</totfact>
</mgrwt>
<rwgt>
<wgt id='morphing_basis_vector_1'> +2.3084101e-04 </wgt>
<wgt id='morphing_basis_vector_2'> +1.7152759e-04 </wgt>
<wgt id='morphing_basis_vector_3'> +2.4706290e-04 </wgt>
<wgt id='morphing_basis_vector_4'> +1.4685996e-04 </wgt>
<wgt id='morphing_basis_vector_5'> +2.5791907e-04 </wgt>
</rwgt>
</event>
<event>
 4      1 +1.5130300e-07 1.73227600e+03 7.81860800e-03 8.19136900e-02
        2 -1    0    0  501    0 +0.0000000000e+00 +0.0000000000e+00 +2.2100342371e+03 2.2100342371e+03 0.0000000000e+00 0.0000e+00 -1.0000e+00
       -2 -1    0    0    0  501 -0.0000000000e+00 -0.0000000000e+00 -3.3944950732e+02 3.3944950732e+02 0.0000000000e+00 0.0000e+00 1.0000e+00
      -13  1    1    2    0    0 -6.3048035424e+02 -1.9651171436e+02 +1.1048932143e+02 6.6957465687e+02 0.0000000000e+00 0.0000e+00 1.0000e+00
       13  1    1    2    0    0 +6.3048035424e+02 +1.9651171436e+02 +1.7600954083e+03 1.8799090875e+03 0.0000000000e+00 0.0000e+00 -1.0000e+00
<mgrwt>
<rscale>  0 0.17322760E+04</rscale>
<asrwt>0</asrwt>
<pdfrwt beam="1">  1        2 0.34000526E+00 0.17322760E+04</pdfrwt>
<pdfrwt beam="2">  1       -2 0.52223002E-01 0.17322760E+04</pdfrwt>
<totfact> 0.21021011E+01</totfact>
</mgrwt>
<rwgt>
<wgt id='morphing_basis_vector_1'> +1.9382650e-04 </wgt>
<wgt id='morphing_basis_vector_2'> +1.2880951e-04 </wgt>
<wgt id='morphing_basis_vector_3'> +2.0446830e-04 </wgt>
<wgt id='morphing_basis_vector_4'> +1.3966168e-04 </wgt>
<wgt id='morphing_basis_vector_5'> +2.2340438e-04 </wgt>
</rwgt>
</event>
<event>
 4      1 +1.5130300e-07 1.60076800e+03 7.81860800e-03 8.25870100e-02
        2 -1    0    0  501    0 +0.0000000000e+00 +0.0000000000e+00 +1.6634474137e+03 1.6634474137e+03 0.0000000000e+00 0.0000e+00 -1.0000e+00
       -2 -1    0    0    0  501 -0.0000000000e+00 -0.0000000000e+00 -3.8511260772e+02 3.8511260772e+02 0.0000000000e+00 0.0000e+00 1.0000e+00
      -13  1    1    2    0    0 +1.9167084096e+02 -5.0549087343e+02 -1.1615407944e+02 5.5294710829e+02 0.0000000000e+00 0.0000e+00 1.0000e+00
       13  1    1    2    0    0 -1.9167084096e+02 +5.0549087343e+02 +1.3944888854e+03 1.4956129132e+03 0.0000000000e+00 0.0000e+00 -1.0000e+00
<mgrwt>
<rscale>  0 0.16007680E+04</rscale>
<asrwt>0</asrwt>
<pdfrwt beam="1">  1        2 0.25591498E+00 0.16007680E+04</pdfrwt>
<pdfrwt beam="2">  1       -2 0.59248095E-01 0.16007680E+04</pdfrwt>
<totfact> 0.33393905E+01</totfact>
</mgrwt>
<rwgt>
<wgt id='morphing_basis_vector_1'> +1.4250180e-04 </wgt>
<wgt id='morphing_basis_vector_2'> +9.3914044e-05 </wgt>
<wgt id='morphing_basis_vector_3'> +1.4904124e-04 </wgt>
<wgt id='morphing_basis_vector_4'> +1.0118846e-04 </wgt>
<wgt id='morphing_basis_vector_5'> +1.6142131e-04 </wgt>
</rwgt>
</event>
<event>
 4      1 +1.5130300e-07 1.63181600e+03 7.81860800e-03 8.24222000e-02
        2 -1    0    0  501    0 +0.0000000000e+00 +0.0000000000e+00 +2.8488924374e+03 2.8488924374e+03 0.0000000000e+00 0.0000e+00 -1.0000e+00
       -2 -1    0    0    0  501 -0.0000000000e+00 -0.0000000000e+00 -2.3367174314e+02 2.3367174314e+02 0.0000000000e+00 0.0000e+00 1.0000e+00
      -13  1    1    2    0    0 +4.5378953147e+02 +6.6373611516e+02 +1.5696024165e+03 1.7635538878e+03 0.0000000000e+00 0.0000e+00 1.0000e+00
       13  1    1    2    0    0 -4.5378953147e+02 -6.6373611516e+02 +1.0456182777e+03 1.3190102927e+03 0.0000000000e+00 0.0000e+00 -1.0000e+00
<mgrwt>
<rscale>  0 0.16318158E+04</rscale>
<asrwt>0</asrwt>
<pdfrwt beam="1">  1        2 0.43829112E+00 0.16318158E+04</pdfrwt>
<pdfrwt beam="2">  1       -2 0.35949501E-01 0.16318158E+04</pdfrwt>
<totfact> 0.17910918E+01</totfact>
</mgrwt>
<rwgt>
<wgt id='morphing_basis_vector_1'> +1.6349733e-04 </wgt>
<wgt id='morphing_basis_vector_2'> +1.3097706e-04 </wgt>
<wgt id='morphing_basis_vector_3'> +1.7447901e-04 </wgt>
<wgt id='morphing_basis_vector_4'> +9.0477948e-05 </wgt>
<wgt id='morphing_basis_vector_5'> +1.7328723e-04 </wgt>
</rwgt>
</event>
<event>
 4      1 +1.5130300e-07 1.74385200e+03 7.81860800e-03 8.18573700e-02
        2 -1    0    0  501    0 +0.0000000000e+00 +0.0000000000e+00 +1.7426861337e+03 1.7426861337e+03 0.0000000000e+00 0.0000e+00 -1.0000e+00
       -2 -1    0    0    0  501 -0.0000000000e+00 -0.0000000000e+00 -4.3625469668e+02 4.3625469668e+02 0.0000000000e+00 0.0000e+00 1.0000e+00
      -13  1    1    2    0    0 +6.5669291964e+02 +5.3539873422e+02 +3.9605682590e+02 9.3528519963e+02 0.0000000000e+00 0.0000e+00 1.0000e+00
       13  1    1    2    0    0 -6.5669291964e+02 -5.3539873422e+02 +9.1037461112e+02 1.2436556307e+03 0.0000000000e+00 0.0000e+00 -1.0000e+00
<mgrwt>
<rscale>  0 0.17438521E+04</rscale>
<asrwt>0</asrwt>
<pdfrwt beam="1">  1        2 0.26810556E+00 0.17438521E+04</pdfrwt>
<pdfrwt beam="2">  1       -2 0.67116108E-01 0.17438521E+04</pdfrwt>
<totfact> 0.23003536E+01</totfact>
</mgrwt>
<rwgt>
<wgt id='morphing_basis_vector_1'> +2.0149829e-04 </wgt>
<wgt id='morphing_basis_vector_2'> +1.3990515e-04 </wgt>
<wgt id='morphing_basis_vector_3'> +2.1357543e-04 </wgt>
<wgt id='morphing_basis_vector_4'> +1.3853039e-04 </wgt>
<wgt id='morphing_basis_vector_5'> +2.2921528e-04 </wgt>
</rwgt>
</event>
<event>
 4      1 +1.5130300e-07 1.66580900e+03 7.81860800e-03 8.22460300e-02
        2 -1    0    0  501    0 +0.0000000000e+00 +0.0000000000e+00 +1.9408891224e+03 1.9408891224e+03 0.0000000000e+00 0.0000e+00 -1.0000e+00
       -2 -1    0    0    0  501 -0.0000000000e+00 -0.0000000000e+00 -3.5742882596e+02 3.5742882596e+02 0.0000000000e+00 0.0000e+00 1.0000e+00
      -13  1    1    2    0    0 -5.4757503821e+02 -2.0394076943e+02 -2.7188859710e+01 5.8495255705e+02 0.0000000000e+00 0.0000e+00 1.0000e+00
       13  1    1    2    0    0 +5.4757503821e+02 +2.0394076943e+02 +1.6106491561e+03 1.7133653913e+03 0.0000000000e+00 0.0000e+00 -1.0000e+00
<mgrwt>
<rscale>  0 0.16658088E+04</rscale>
<asrwt>0</asrwt>
<pdfrwt beam="1">  1        2 0.29859832E+00 0.16658088E+04</pdfrwt>
<pdfrwt beam="2">  1       -2 0.54989051E-01 0.16658088E+04</pdfrwt>
<totfact> 0.27070712E+01</totfact>
</mgrwt>
<rwgt>
<wgt id='morphing_basis_vector_1'> +1.6635063e-04 </wgt>
<wgt id='morphing_basis_vector_2'> +1.1000720e-04 </wgt>
<wgt id='morphing_basis_vector_3'> +1.7475128e-04 </wgt>
<wgt id='morphing_basis_vector_4'> +1.1915136e-04 </wgt>
<wgt id='morphing_basis_vector_5'> +1.9021715e-04 </wgt>
</rwgt>
</event>
<event>
 4      1 +1.5130300e-07 1.61723100e+03 7.81860800e-03 8.24991500e-02
        2 -1    0    0  501    0 +0.0000000000e+00 +0.0000000000e+00 +5.1840098912e+02 5.1840098912e+02 0.0000000000e+00 0.0000e+00 1.0000e+00
       -2 -1    0    0    0  501 -0.0000000000e+00 -0.0000000000e+00 -1.2612993017e+03 1.2612993017e+03 0.0000000000e+00 0.0000e+00 -1.0000e+00
      -13  1    1    2    0    0 +3.2946280451e+02 -4.8939879708e+02 -9.7999733260e+02 1.1438757337e+03 0.0000000000e+00 0.0000e+00 -1.0000e+00
       13  1    1    2    0    0 -3.2946280451e+02 +4.8939879708e+02 +2.3709902006e+02 6.3582455713e+02 0.0000000000e+00 0.0000e+00 1.0000e+00
<mgrwt>
<rscale>  0 0.16172307E+04</rscale>
<asrwt>0</asrwt>
<pdfrwt beam="1">  1        2 0.79753999E-01 0.16172307E+04</pdfrwt>
<pdfrwt beam="2">  1       -2 0.19404605E+00 0.16172307E+04</pdfrwt>
<totfact> 0.89863134E+00</totfact>
</mgrwt>
<rwgt>
<wgt id='morphing_basis_vector_1'> +1.4834129e-04 </wgt>
<wgt id='morphing_basis_vector_2'> +9.8002266e-05 </wgt>
<wgt id='morphing_basis_vector_3'> +1.5534901e-04 </wgt>
<wgt id='morphing_basis_vector_4'> +1.0540563e-04 </wgt>
<wgt id='morphing_basis_vector_5'> +1.6837106e-04 </wgt>
</rwgt>
</event>
<event>
 4      1 +1.5130300e-07 1.60763000e+03 7.81860800e-03 8.25502500e-02
        2 -1    0    0  501    0 +0.0000000000e+00 +0.0000000000e+00 +1.3467924372e+03 1.3467924372e+03 0.0000000000e+00 0.0000e+00 1.0000e+00
       -2 -1    0    0    0  501 -0.0000000000e+00 -0.0000000000e+00 -4.7974609238e+02 4.7974609238e+02 0.0000000000e+00 0.0000e+00 -1.0000e+00
      -13  1    1    2    0    0 +2.5608565052e+01 -5.7302264726e+02 -2.0627964532e+02 6.0955889376e+02 0.0000000000e+00 0.0000e+00 -1.0000e+00
       13  1    1    2    0    0 -2.5608565052e+01 +5.7302264726e+02 +1.0733259902e+03 1.2169796359e+03 0.0000000000e+00 0.0000e+00 1.0000e+00
<mgrwt>
<rscale>  0 0.16076298E+04</rscale>
<asrwt>0</asrwt>
<pdfrwt beam="1">  1        2 0.20719884E+00 0.16076298E+04</pdfrwt>
<pdfrwt beam="2">  1       -2 0.73807092E-01 0.16076298E+04</pdfrwt>
<totfact> 0.31598396E+01</totfact>
</mgrwt>
<rwgt>
<wgt id='morphing_basis_vector_1'> +1.4493140e-04 </wgt>
<wgt id='morphing_basis_vector_2'> +9.5653468e-05 </wgt>
<wgt id='morphing_basis_vector_3'> +1.5166974e-04 </wgt>
<wgt id='morphing_basis_vector_4'> +1.0289794e-04 </wgt>
<wgt id='morphing_basis_vector_5'> +1.6428914e-04 </wgt>
</rwgt>
</event>
<event>
 4      1 +1.5130300e-07 1.64822700e+03 7.81860800e-03 8.23366000e-02
        2 -1    0    0  501    0 +0.0000000000e+00 +0.0000000000e+00 +1.2813105629e+03 1.2813105629e+03 0.0000000000e+00 0.0000e+00 -1.0000e+00
       -2 -1    0    0    0  501 -0.0000000000e+00 -0.0000000000e+00 -5.3005361927e+02 5.3005361927e+02 0.0000000000e+00 0.0000e+00 1.0000e+00
      -13  1    1    2    0    0 +1.5328895288e+02 +7.6930115983e+02 +9.7951223764e+01 7.9051642604e+02 0.0000000000e+00 0.0000e+00 1.0000e+00
       13  1    1    2    0    0 -1.5328895288e+02 -7.6930115983e+02 +6.5330571989e+02 1.0208477562e+03 0.0000000000e+00 0.0000e+00 -1.0000e+00
<mgrwt>
<rscale>  0 0.16482273E+04</rscale>
<asrwt>0</asrwt>
<pdfrwt beam="1">  1        2 0.19712470E+00 0.16482273E+04</pdfrwt>
<pdfrwt beam="2">  1       -2 0.81546711E-01 0.16482273E+04</pdfrwt>
<totfact> 0.27463593E+01</totfact>
</mgrwt>
<rwgt>
<wgt id='morphing_basis_vector_1'> +1.6121565e-04 </wgt>
<wgt id='morphing_basis_vector_2'> +1.1019133e-04 </wgt>
<wgt id='morphing_basis_vector_3'> +1.6966696e-04 </wgt>
<wgt id='morphing_basis_vector_4'> +1.1103836e-04 </wgt>
<wgt id='morphing_basis_vector_5'> +1.8185379e-04 </wgt>
</rwgt>
</event>
<event>
 4      1 +1.5130300e-07 1.80692600e+03 7.81860800e-03 8.15581400e-02
        2 -1    0    0  501    0 +0.0000000000e+00 +0.0000000000e+00 +1.6796119272e+03 1.6796119272e+03 0.0000000000e+00 0.0000e+00 -1.0000e+00
       -2 -1    0    0    0  501 -0.0000000000e+00 -0.0000000000e+00 -4.8597242141e+02 4.8597242141e+02 0.0000000000e+00 0.0000e+00 1.0000e+00
      -13  1    1    2    0    0 +1.0913132979e+02 +8.9604034311e+02 +5.5122773167e+02 1.0576624962e+03 0.0000000000e+00 0.0000e+00 1.0000e+00
       13  1    1    2    0    0 -1.0913132979e+02 -8.9604034311e+02 +6.4241177413e+02 1.1079218525e+03 0.0000000000e+00 0.0000e+00 -1.0000e+00
<mgrwt>
<rscale>  0 0.18069256E+04</rscale>
<asrwt>0</asrwt>
<pdfrwt beam="1">  1        2 0.25840183E+00 0.18069256E+04</pdfrwt>
<pdfrwt beam="2">  1       -2 0.74764989E-01 0.18069256E+04</pdfrwt>
<totfact> 0.19658538E+01</totfact>
</mgrwt>
<rwgt>
<wgt id='morphing_basis_vector_1'> +2.3518858e-04 </wgt>
<wgt id='morphing_basis_vector_2'> +1.7214226e-04 </wgt>
<wgt id='morphing_basis_vector_3'> +2.5146202e-04 </wgt>
<wgt id='morphing_basis_vector_4'> +1.5290671e-04 </wgt>
<wgt id='morphing_basis_vector_5'> +2.6461543e-04 </wgt>
</rwgt>
</event>
<event>
 4      1 +1.5130300e-07 1.70927500e+03 7.81860800e-03 8.20269500e-02
        2 -1    0    0  501    0 +0.0000000000e+00 +0.0000000000e+00 +2.4546073922e+03 2.4546073922e+03 0.0000000000e+00 0.0000e+00 1.0000e+00
       -2 -1    0    0    0  501 -0.0000000000e+00 -0.0000000000e+00 -2.9756488699e+02 2.9756488699e+02 0.0000000000e+00 0.0000e+00 -1.0000e+00
      -13  1    1    2    0    0 +6.8998732473e+02 +1.9291769817e+02 +3.2828352871e+02 7.8807983211e+02 0.0000000000e+00 0.0000e+00 -1.0000e+00
       13  1    1    2    0    0 -6.8998732473e+02 -1.9291769817e+02 +1.8287589765e+03 1.9640924471e+03 0.0000000000e+00 0.0000e+00 1.0000e+00
<mgrwt>
<rscale>  0 0.17092747E+04</rscale>
<asrwt>0</asrwt>
<pdfrwt beam="1">  1        2 0.37763189E+00 0.17092747E+04</pdfrwt>
<pdfrwt beam="2">  1       -2 0.45779215E-01 0.17092747E+04</pdfrwt>
<totfact> 0.19642415E+01</totfact>
</mgrwt>
<rwgt>
<wgt id='morphing_basis_vector_1'> +1.8429955e-04 </wgt>
<wgt id='morphing_basis_vector_2'> +1.2306617e-04 </wgt>
<wgt id='morphing_basis_vector_3'> +1.9426026e-04 </wgt>
<wgt id='morphing_basis_vector_4'> +1.3162845e-04 </wgt>
<wgt id='morphing_basis_vector_5'> +2.1141876e-04 </wgt>
</rwgt>
</event>
<event>
 4      1 +1.5130300e-07 1.69933500e+03 7.81860800e-03 8.20764500e-02
        2 -1    0    0  501    0 +0.0000000000e+00 +0.0000000000e+00 +1.1575047830e+03 1.1575047830e+03 0.0000000000e+00 0.0000e+00 -1.0000e+00
       -2 -1    0    0    0  501 -0.0000000000e+00 -0.0000000000e+00 -6.2369948304e+02 6.2369948304e+02 0.0000000000e+00 0.0000e+00 1.0000e+00
      -13  1    1    2    0    0 +4.7299493371e+02 +2.1241388996e+02 -4.3864684844e+02 6.7915751163e+02 0.0000000000e+00 0.0000e+00 1.0000e+00
       13  1    1    2    0    0 -4.7299493371e+02 -2.1241388996e+02 +9.7245214839e+02 1.1020467544e+03 0.0000000000e+00 0.0000e+00 -1.0000e+00
<mgrwt>
<rscale>  0 0.16993353E+04</rscale>
<asrwt>0</asrwt>
<pdfrwt beam="1">  1        2 0.17807766E+00 0.16993353E+04</pdfrwt>
<pdfrwt beam="2">  1       -2 0.95953767E-01 0.16993353E+04</pdfrwt>
<totfact> 0.22114191E+01</totfact>
</mgrwt>
<rwgt>
<wgt id='morphing_basis_vector_1'> +1.7964014e-04 </wgt>
<wgt id='morphing_basis_vector_2'> +1.1870068e-04 </wgt>
<wgt id='morphing_basis_vector_3'> +1.8906428e-04 </wgt>
<wgt id='morphing_basis_vector_4'> +1.2952643e-04 </wgt>
<wgt id='morphing_basis_vector_5'> +2.0648694e-04 </wgt>
</rwgt>
</event>
<event>
 4      1 +1.5130300e-07 1.78425200e+03 7.81860800e-03 8.16642600e-02
        2 -1    0    0  501    0 +0.0000000000e+00 +0.0000000000e+00 +1.6280576624e+03 1.6280576624e+03 0.0000000000e+00 0.0000e+00 -1.0000e+00
       -2 -1    0    0    0  501 -0.0000000000e+00 -0.0000000000e+00 -4.8885793204e+02 4.8885793204e+02 0.0000000000e+00 0.0000e+00 1.0000e+00
      -13  1    1    2    0    0 +4.7566901066e+01 -2.9509803545e+02 -4.2767932472e+02 5.2178066790e+02 0.0000000000e+00 0.0000e+00 1.0000e+00
       13  1    1    2    0    0 -4.7566901066e+01 +2.9509803545e+02 +1.5668790551e+03 1.5951349266e+03 0.0000000000e+00 0.0000e+00 -1.0000e+00
<mgrwt>
<rscale>  0 0.17842521E+04</rscale>
<asrwt>0</asrwt>
<pdfrwt beam="1">  1        2 0.25047041E+00 0.17842521E+04</pdfrwt>
<pdfrwt beam="2">  1       -2 0.75208913E-01 0.17842521E+04</pdfrwt>
<totfact> 0.20768699E+01</totfact>
</mgrwt>
<rwgt>
<wgt id='morphing_basis_vector_1'> +2.1709417e-04 </wgt>
<wgt id='morphing_basis_vector_2'> +1.4361588e-04 </wgt>
<wgt id='morphing_basis_vector_3'> +2.2952030e-04 </wgt>
<wgt id='morphing_basis_vector_4'> +1.5843064e-04 </wgt>
<wgt id='morphing_basis_vector_5'> +2.5228872e-04 </wgt>
</rwgt>
</event>
<event>
 4      1 +1.5130300e-07 1.61625300e+03 7.81860800e-03 8.25043300e-02
        2 -1    0    0  501    0 +0.0000000000e+00 +0.0000000000e+00 +1.9356549357e+03 1.9356549357e+03 0.0000000000e+00 0.0000e+00 1.0000e+00
       -2 -1    0    0    0  501 -0.0000000000e+00 -0.0000000000e+00 -3.3738887739e+02 3.3738887739e+02 0.0000000000e+00 0.0000e+00 -1.0000e+00
      -13  1    1    2    0    0 -3.6166016949e+02 +6.3555969149e+02 +3.1534659616e+02 7.9635273300e+02 0.0000000000e+00 0.0000e+00 -1.0000e+00
       13  1    1    2    0    0 +3.6166016949e+02 -6.3555969149e+02 +1.2829194621e+03 1.4766910801e+03 0.0000000000e+00 0.0000e+00 1.0000e+00
<mgrwt>
<rscale>  0 0.16162530E+04</rscale>
<asrwt>0</asrwt>
<pdfrwt beam="1">  1        2 0.29779306E+00 0.16162530E+04</pdfrwt>
<pdfrwt beam="2">  1       -2 0.51905982E-01 0.16162530E+04</pdfrwt>
<totfact> 0.30711126E+01</totfact>
</mgrwt>
<rwgt>
<wgt id='morphing_basis_vector_1'> +1.4873628e-04 </wgt>
<wgt id='morphing_basis_vector_2'> +9.9977278e-05 </wgt>
<wgt id='morphing_basis_vector_3'> +1.5598065e-04 </wgt>
<wgt id='morphing_basis_vector_4'> +1.0372939e-04 </wgt>
<wgt id='morphing_basis_vector_5'> +1.6784457e-04 </wgt>
</rwgt>
</event>
<event>
 4      1 +1.5130300e-07 1.66715800e+03 7.81860800e-03 8.22391300e-02
        2 -1    0    0  501    0 +0.0000000000e+00 +0.0000000000e+00 +2.9036187139e+03 2.9036187139e+03 0.0000000000e+00 0.0000e+00 -1.0000e+00
       -2 -1    0    0    0  501 -0.0000000000e+00 -0.0000000000e+00 -2.3930623750e+02 2.3930623750e+02 0.0000000000e+00 0.0000e+00 1.0000e+00
      -13  1    1    2    0    0 +6.9372130882e+02 +2.2165685564e+02 +5.6760853102e+02 9.2334200622e+02 0.0000000000e+00 0.0000e+00 1.0000e+00
       13  1    1    2    0    0 -6.9372130882e+02 -2.2165685564e+02 +2.0967039454e+03 2.2195829452e+03 0.0000000000e+00 0.0000e+00 -1.0000e+00
<mgrwt>
<rscale>  0 0.16671581E+04</rscale>
<asrwt>0</asrwt>
<pdfrwt beam="1">  1        2 0.44671055E+00 0.16671581E+04</pdfrwt>
<pdfrwt beam="2">  1       -2 0.36816346E-01 0.16671581E+04</pdfrwt>
<totfact> 0.15778489E+01</totfact>
</mgrwt>
<rwgt>
<wgt id='morphing_basis_vector_1'> +1.6747931e-04 </wgt>
<wgt id='morphing_basis_vector_2'> +1.1215669e-04 </wgt>
<wgt id='morphing_basis_vector_3'> +1.7614627e-04 </wgt>
<wgt id='morphing_basis_vector_4'> +1.1838853e-04 </wgt>
<wgt id='morphing_basis_vector_5'> +1.9076385e-04 </wgt>
</rwgt>
</event>
<event>
 4      1 +1.5130300e-07 1.58725000e+03 7.81860800e-03 8.26599700e-02
        2 -1    0    0  501    0 +0.0000000000e+00 +0.0000000000e+00 +9.3986359449e+02 9.3986359449e+02 0.0000000000e+00 0.0000e+00 -1.0000e+00
       -2 -1    0    0    0  501 -0.0000000000e+00 -0.0000000000e+00 -6.7014025994e+02 6.7014025994e+02 0.0000000000e+00 0.0000e+00 1.0000e+00
      -13  1    1    2    0    0 -1.5382667632e+02 +7.7332983336e+02 +2.2637000487e+02 8.2033228428e+02 0.0000000000e+00 0.0000e+00 1.0000e+00
       13  1    1    2    0    0 +1.5382667632e+02 -7.7332983336e+02 +4.3353329676e+01 7.8967157016e+02 0.0000000000e+00 0.0000e+00 -1.0000e+00
<mgrwt>
<rscale>  0 0.15872497E+04</rscale>
<asrwt>0</asrwt>
<pdfrwt beam="1">  1        2 0.14459440E+00 0.15872497E+04</pdfrwt>
<pdfrwt beam="2">  1       -2 0.10309850E+00 0.15872497E+04</pdfrwt>
<totfact> 0.25528705E+01</totfact>
</mgrwt>
<rwgt>
<wgt id='morphing_basis_vector_1'> +1.4525964e-04 </wgt>
<wgt id='morphing_basis_vector_2'> +1.1274078e-04 </wgt>
<wgt id='morphing_basis_vector_3'> +1.5398442e-04 </wgt>
<wgt id='morphing_basis_vector_4'> +8.3752332e-05 </wgt>
<wgt id='morphing_basis_vector_5'> +1.5481561e-04 </wgt>
</rwgt>
</event>
<event>
 4      1 +1.5130300e-07 1.69645000e+03 7.81860800e-03 8.20908900e-02
        2 -1    0    0  501    0 +0.0000000000e+00 +0.0000000000e+00 +1.3431200139e+03 1.3431200139e+03 0.0000000000e+00 0.0000e+00 -1.0000e+00
       -2 -1    0    0    0  501 -0.0000000000e+00 -0.0000000000e+00 -5.3568207315e+02 5.3568207315e+02 0.0000000000e+00 0.0000e+00 1.0000e+00
      -13  1    1    2    0    0 -3.4672996910e+02 -4.2184634488e+02 -3.1513486841e+02 6.3046490422e+02 0.0000000000e+00 0.0000e+00 1.0000e+00
       13  1    1    2    0    0 +3.4672996910e+02 +4.2184634488e+02 +1.1225728092e+03 1.2483371829e+03 0.0000000000e+00 0.0000e+00 -1.0000e+00
<mgrwt>
<rscale>  0 0.16964496E+04</rscale>
<asrwt>0</asrwt>
<pdfrwt beam="1">  1        2 0.20663385E+00 0.16964496E+04</pdfrwt>
<pdfrwt beam="2">  1       -2 0.82412627E-01 0.16964496E+04</pdfrwt>
<totfact> 0.24613864E+01</totfact>
</mgrwt>
<rwgt>
<wgt id='morphing_basis_vector_1'> +1.7848730e-04 </wgt>
<wgt id='morphing_basis_vector_2'> +1.1799689e-04 </wgt>
<wgt id='morphing_basis_vector_3'> +1.8782878e-04 </wgt>
<wgt id='morphing_basis_vector_4'> +1.2856629e-04 </wgt>
<wgt id='morphing_basis_vector_5'> +2.0504412e-04 </wgt>
</rwgt>
</event>
<event>
 4      1 +1.5130300e-07 1.67307100e+03 7.81860800e-03 8.22089500e-02
        2 -1    0    0  501    0 +0.0000000000e+00 +0.0000000000e+00 +8.2704060262e+02 8.2704060262e+02 0.0000000000e+00 0.0000e+00 -1.0000e+00
       -2 -1    0    0    0  501 -0.0000000000e+00 -0.0000000000e+00 -8.4613900234e+02 8.4613900234e+02 0.0000000000e+00 0.0000e+00 1.0000e+00
      -13  1    1    2    0    0 +1.3576402925e+02 -3.0216356580e+02 -7.7775067497e+02 8.4535838823e+02 0.0000000000e+00 0.0000e+00 1.0000e+00
       13  1    1    2    0    0 -1.3576402925e+02 +3.0216356580e+02 +7.5865227524e+02 8.2782121673e+02 0.0000000000e+00 0.0000e+00 -1.0000e+00
<mgrwt>
<rscale>  0 0.16730706E+04</rscale>
<asrwt>0</asrwt>
<pdfrwt beam="1">  1        2 0.12723702E+00 0.16730706E+04</pdfrwt>
<pdfrwt beam="2">  1       -2 0.13017523E+00 0.16730706E+04</pdfrwt>
<totfact> 0.16564536E+01</totfact>
</mgrwt>
<rwgt>
<wgt id='morphing_basis_vector_1'> +1.6900636e-04 </wgt>
<wgt id='morphing_basis_vector_2'> +1.1138027e-04 </wgt>
<wgt id='morphing_basis_vector_3'> +1.7756384e-04 </wgt>
<wgt id='morphing_basis_vector_4'> +1.2164641e-04 </wgt>
<wgt id='morphing_basis_vector_5'> +1.9368038e-04 </wgt>
</rwgt>
</event>
<event>
 4      1 +1.5130300e-07 1.67586100e+03 7.81860800e-03 8.21947600e-02
        2 -1    0    0  501    0 +0.0000000000e+00 +0.0000000000e+00 +2.0559888948e+03 2.0559888948e+03 0.0000000000e+00 0.0000e+00 1.0000e+00
       -2 -1    0    0    0  501 -0.0000000000e+00 -0.0000000000e+00 -3.4150348677e+02 3.4150348677e+02 0.0000000000e+00 0.0000e+00 -1.0000e+00
      -13  1    1    2    0    0 +2.6974118295e+02 +5.7721668065e+02 +7.8663145143e+01 6.4197141105e+02 0.0000000000e+00 0.0000e+00 -1.0000e+00
       13  1    1    2    0    0 -2.6974118295e+02 -5.7721668065e+02 +1.6358222629e+03 1.7555209705e+03 0.0000000000e+00 0.0000e+00 1.0000e+00
<mgrwt>
<rscale>  0 0.16758608E+04</rscale>
<asrwt>0</asrwt>
<pdfrwt beam="1">  1        2 0.31630598E+00 0.16758608E+04</pdfrwt>
<pdfrwt beam="2">  1       -2 0.52538999E-01 0.16758608E+04</pdfrwt>
<totfact> 0.25530353E+01</totfact>
</mgrwt>
<rwgt>
<wgt id='morphing_basis_vector_1'> +1.7040076e-04 </wgt>
<wgt id='morphing_basis_vector_2'> +1.1299720e-04 </wgt>
<wgt id='morphing_basis_vector_3'> +1.7915582e-04 </wgt>
<wgt id='morphing_basis_vector_4'> +1.2191291e-04 </wgt>
<wgt id='morphing_basis_vector_5'> +1.9496984e-04 </wgt>
</rwgt>
</event>
<event>
 4      1 +1.5130300e-07 1.66885000e+03 7.81860800e-03 8.22304800e-02
        2 -1    0    0  501    0 +0.0000000000e+00 +0.0000000000e+00 +1.2730326780e+03 1.2730326780e+03 0.0000000000e+00 0.0000e+00 -1.0000e+00
       -2 -1    0    0    0  501 -0.0000000000e+00 -0.0000000000e+00 -5.4693408964e+02 5.4693408964e+02 0.0000000000e+00 0.0000e+00 1.0000e+00
      -13  1    1    2    0    0 -2.7799208200e+02 +2.1215425407e+02 -4.6316562914e+02 5.8035456851e+02 0.0000000000e+00 0.0000e+00 1.0000e+00
       13  1    1    2    0    0 +2.7799208200e+02 -2.1215425407e+02 +1.1892642175e+03 1.2396121991e+03 0.0000000000e+00 0.0000e+00 -1.0000e+00
<mgrwt>
<rscale>  0 0.16688499E+04</rscale>
<asrwt>0</asrwt>
<pdfrwt beam="1">  1        2 0.19585118E+00 0.16688499E+04</pdfrwt>
<pdfrwt beam="2">  1       -2 0.84143707E-01 0.16688499E+04</pdfrwt>
<totfact> 0.25800660E+01</totfact>
</mgrwt>
<rwgt>
<wgt id='morphing_basis_vector_1'> +1.6735932e-04 </wgt>
<wgt id='morphing_basis_vector_2'> +1.1028479e-04 </wgt>
<wgt id='morphing_basis_vector_3'> +1.7578840e-04 </wgt>
<wgt id='morphing_basis_vector_4'> +1.2038279e-04 </wgt>
<wgt id='morphing_basis_vector_5'> +1.9167640e-04 </wgt>
</rwgt>
</event>
<event>
 4      1 +1.5130300e-07 1.59678500e+03 7.81860800e-03 8.26084300e-02
        2 -1    0    0  501    0 +0.0000000000e+00 +0.0000000000e+00 +8.1820378892e+02 8.1820378892e+02 0.0000000000e+00 0.0000e+00 1.0000e+00
       -2 -1    0    0    0  501 -0.0000000000e+00 -0.0000000000e+00 -7.7906081898e+02 7.7906081898e+02 0.0000000000e+00 0.0000e+00 -1.0000e+00
      -13  1    1    2    0    0 +5.6795490890e+02 +5.4268480900e+02 +1.6227103879e+02 8.0212933526e+02 0.0000000000e+00 0.0000e+00 1.0000e+00
       13  1    1    2    0    0 -5.6795490890e+02 -5.4268480900e+02 -1.2312806885e+02 7.9513527264e+02 0.0000000000e+00 0.0000e+00 -1.0000e+00
<mgrwt>
<rscale>  0 0.15967849E+04</rscale>
<asrwt>0</asrwt>
<pdfrwt beam="1">  1        2 0.12587751E+00 0.15967849E+04</pdfrwt>
<pdfrwt beam="2">  1       -2 0.11985551E+00 0.15967849E+04</pdfrwt>
<totfact> 0.21012962E+01</totfact>
</mgrwt>
<rwgt>
<wgt id='morphing_basis_vector_1'> +1.5057594e-04 </wgt>
<wgt id='morphing_basis_vector_2'> +1.2109589e-04 </wgt>
<wgt id='morphing_basis_vector_3'> +1.6029598e-04 </wgt>
<wgt id='morphing_basis_vector_4'> +8.2225915e-05 </wgt>
<wgt id='morphing_basis_vector_5'> +1.5841685e-04 </wgt>
</rwgt>
</event>
<event>
 4      1 +1.5130300e-07 1.62825800e+03 7.81860800e-03 8.24409000e-02
        2 -1    0    0  501    0 +0.0000000000e+00 +0.0000000000e+00 +1.8192799464e+03 1.8192799464e+03 0.0000000000e+00 0.0000e+00 1.0000e+00
       -2 -1    0    0    0  501 -0.0000000000e+00 -0.0000000000e+00 -3.6432306866e+02 3.6432306866e+02 0.0000000000e+00 0.0000e+00 -1.0000e+00
      -13  1    1    2    0    0 +6.2708149613e+02 -5.1815481027e+02 +7.7175484205e+02 1.1213033249e+03 0.0000000000e+00 0.0000e+00 -1.0000e+00
       13  1    1    2    0    0 -6.2708149613e+02 +5.1815481027e+02 +6.8320203573e+02 1.0622996902e+03 0.0000000000e+00 0.0000e+00 1.0000e+00
<mgrwt>
<rscale>  0 0.16282575E+04</rscale>
<asrwt>0</asrwt>
<pdfrwt beam="1">  1        2 0.27988922E+00 0.16282575E+04</pdfrwt>
<pdfrwt beam="2">  1       -2 0.56049704E-01 0.16282575E+04</pdfrwt>
<totfact> 0.30551239E+01</totfact>
</mgrwt>
<rwgt>
<wgt id='morphing_basis_vector_1'> +1.5849179e-04 </wgt>
<wgt id='morphing_basis_vector_2'> +1.1907276e-04 </wgt>
<wgt id='morphing_basis_vector_3'> +1.6802844e-04 </wgt>
<wgt id='morphing_basis_vector_4'> +9.6588750e-05 </wgt>
<wgt id='morphing_basis_vector_5'> +1.7226031e-04 </wgt>
</rwgt>
</event>
<event>
 4      1 +1.5130300e-07 1.83645900e+03 7.81860800e-03 8.14223200e-02
        2 -1    0    0  501    0 +0.0000000000e+00 +0.0000000000e+00 +7.9975842362e+02 7.9975842362e+02 0.0000000000e+00 0.0000e+00 -1.0000e+00
       -2 -1    0    0    0  501 -0.0000000000e+00 -0.0000000000e+00 -1.0542500857e+03 1.0542500857e+03 0.0000000000e+00 0.0000e+00 1.0000e+00
      -13  1    1    2    0    0 +8.5240042036e+02 +3.5099938374e+01 +2.1559758265e+02 8.7994363453e+02 0.0000000000e+00 0.0000e+00 1.0000e+00
       13  1    1    2    0    0 -8.5240042036e+02 -3.5099938374e+01 -4.7008924476e+02 9.7406487481e+02 0.0000000000e+00 0.0000e+00 -1.0000e+00
<mgrwt>
<rscale>  0 0.18364590E+04</rscale>
<asrwt>0</asrwt>
<pdfrwt beam="1">  1        2 0.12303976E+00 0.18364590E+04</pdfrwt>
<pdfrwt beam="2">  1       -2 0.16219232E+00 0.18364590E+04</pdfrwt>
<totfact> 0.91730042E+00</totfact>
</mgrwt>
<rwgt>
<wgt id='morphing_basis_vector_1'> +2.7358711e-04 </wgt>
<wgt id='morphing_basis_vector_2'> +2.5184237e-04 </wgt>
<wgt id='morphing_basis_vector_3'> +3.0102421e-04 </wgt>
<wgt id='morphing_basis_vector_4'> +1.1825989e-04 </wgt>
<wgt id='morphing_basis_vector_5'> +2.7927635e-04 </wgt>
</rwgt>
</event>
<event>
 4      1 +1.5130300e-07 1.68377500e+03 7.81860800e-03 8.21546500e-02
        2 -1    0    0  501    0 +0.0000000000e+00 +0.0000000000e+00 +4.4821417890e+03 4.4821417890e+03 0.0000000000e+00 0.0000e+00 -1.0000e+00
       -2 -1    0    0    0  501 -0.0000000000e+00 -0.0000000000e+00 -1.5813308129e+02 1.5813308129e+02 0.0000000000e+00 0.0000e+00 1.0000e+00
      -13  1    1    2    0    0 -7.0686052601e+01 +7.4901864453e+02 +3.2032345681e+03 3.2904007577e+03 0.0000000000e+00 0.0000e+00 1.0000e+00
       13  1    1    2    0    0 +7.0686052601e+01 -7.4901864453e+02 +1.1207741396e+03 1.3498741126e+03 0.0000000000e+00 0.0000e+00 -1.0000e+00
<mgrwt>
<rscale>  0 0.16837754E+04</rscale>
<asrwt>0</asrwt>
<pdfrwt beam="1">  1        2 0.68956018E+00 0.16837754E+04</pdfrwt>
<pdfrwt beam="2">  1       -2 0.24328170E-01 0.16837754E+04</pdfrwt>
<totfact> 0.18958586E+00</totfact>
</mgrwt>
<rwgt>
<wgt id='morphing_basis_vector_1'> +2.0079469e-04 </wgt>
<wgt id='morphing_basis_vector_2'> +1.9608288e-04 </wgt>
<wgt id='morphing_basis_vector_3'> +2.2008333e-04 </wgt>
<wgt id='morphing_basis_vector_4'> +7.1890665e-05 </wgt>
<wgt id='morphing_basis_vector_5'> +1.9478152e-04 </wgt>
</rwgt>
</event>
<event>
 4      1 +1.5130300e-07 1.64851500e+03 7.81860800e-03 8.23351100e-02
        2 -1    0    0  501    0 +0.0000000000e+00 +0.0000000000e+00 +7.0579048893e+02 7.0579048893e+02 0.0000000000e+00 0.0000e+00 -1.0000e+00
       -2 -1    0    0    0  501 -0.0000000000e+00 -0.0000000000e+00 -9.6260894039e+02 9.6260894039e+02 0.0000000000e+00 0.0000e+00 1.0000e+00
      -13  1    1    2    0    0 -4.7796890037e+02 -1.3831410735e+02 -7.9346204631e+02 9.3657198386e+02 0.0000000000e+00 0.0000e+00 1.0000e+00
       13  1    1    2    0    0 +4.7796890037e+02 +1.3831410735e+02 +5.3664359486e+02 7.3182744545e+02 0.0000000000e+00 0.0000e+00 -1.0000e+00
<mgrwt>
<rscale>  0 0.16485148E+04</rscale>
<asrwt>0</asrwt>
<pdfrwt beam="1">  1        2 0.10858315E+00 0.16485148E+04</pdfrwt>
<pdfrwt beam="2">  1       -2 0.14809368E+00 0.16485148E+04</pdfrwt>
<totfact> 0.14204764E+01</totfact>
</mgrwt>
<rwgt>
<wgt id='morphing_basis_vector_1'> +1.5964461e-04 </wgt>
<wgt id='morphing_basis_vector_2'> +1.0527144e-04 </wgt>
<wgt id='morphing_basis_vector_3'> +1.6749001e-04 </wgt>
<wgt id='morphing_basis_vector_4'> +1.1433378e-04 </wgt>
<wgt id='morphing_basis_vector_5'> +1.8222907e-04 </wgt>
</rwgt>
</event>
<event>
 4      1 +1.5130300e-07 1.69880400e+03 7.81860800e-03 8.20791100e-02
        2 -1    0    0  501    0 +0.0000000000e+00 +0.0000000000e+00 +1.3698203739e+03 1.3698203739e+03 0.0000000000e+00 0.0000e+00 1.0000e+00
       -2 -1    0    0    0  501 -0.0000000000e+00 -0.0000000000e+00 -5.2669940295e+02 5.2669940295e+02 0.0000000000e+00 0.0000e+00 -1.0000e+00
      -13  1    1    2    0    0 +6.1846706308e+02 +4.3729539644e+02 +8.5068661290e+02 1.1390331361e+03 0.0000000000e+00 0.0000e+00 1.0000e+00
       13  1    1    2    0    0 -6.1846706308e+02 -4.3729539644e+02 -7.5656419991e+00 7.5748664067e+02 0.0000000000e+00 0.0000e+00 -1.0000e+00
<mgrwt>
<rscale>  0 0.16988038E+04</rscale>
<asrwt>0</asrwt>
<pdfrwt beam="1">  1        2 0.21074159E+00 0.16988038E+04</pdfrwt>
<pdfrwt beam="2">  1       -2 0.81030678E-01 0.16988038E+04</pdfrwt>
<totfact> 0.24698193E+01</totfact>
</mgrwt>
<rwgt>
<wgt id='morphing_basis_vector_1'> +2.0816418e-04 </wgt>
<wgt id='morphing_basis_vector_2'> +2.0394877e-04 </wgt>
<wgt id='morphing_basis_vector_3'> +2.2855339e-04 </wgt>
<wgt id='morphing_basis_vector_4'> +7.3959444e-05 </wgt>
<wgt id='morphing_basis_vector_5'> +2.0197872e-04 </wgt>
</rwgt>
</event>
<event>
 4      1 +1.5130300e-07 1.59772800e+03 7.81860800e-03 8.26033500e-02
        2 -1    0    0  501    0 +0.0000000000e+00 +0.0000000000e+00 +1.5006735939e+03 1.5006735939e+03 0.0000000000e+00 0.0000e+00 -1.0000e+00
       -2 -1    0    0    0  501 -0.0000000000e+00 -0.0000000000e+00 -4.2526499591e+02 4.2526499591e+02 0.0000000000e+00 0.0000e+00 1.0000e+00
      -13  1    1    2    0    0 +1.1493572197e+02 +4.5977723767e+02 -2.3750422826e+02 5.3010714663e+02 0.0000000000e+00 0.0000e+00 1.0000e+00
       13  1    1    2    0    0 -1.1493572197e+02 -4.5977723767e+02 +1.3129128262e+03 1.3958314432e+03 0.0000000000e+00 0.0000e+00 -1.0000e+00
<mgrwt>
<rscale>  0 0.15977283E+04</rscale>
<asrwt>0</asrwt>
<pdfrwt beam="1">  1        2 0.23087286E+00 0.15977283E+04</pdfrwt>
<pdfrwt beam="2">  1       -2 0.65425385E-01 0.15977283E+04</pdfrwt>
<totfact> 0.33522576E+01</totfact>
</mgrwt>
<rwgt>
<wgt id='morphing_basis_vector_1'> +1.4139253e-04 </wgt>
<wgt id='morphing_basis_vector_2'> +9.3023456e-05 </wgt>
<wgt id='morphing_basis_vector_3'> +1.4783008e-04 </wgt>
<wgt id='morphing_basis_vector_4'> +1.0051936e-04 </wgt>
<wgt id='morphing_basis_vector_5'> +1.6016898e-04 </wgt>
</rwgt>
</event>
<event>
 4      1 +1.5130300e-07 1.62617100e+03 7.81860800e-03 8.24518800e-02
        2 -1    0    0  501    0 +0.0000000000e+00 +0.0000000000e+00 +1.2055580578e+03 1.2055580578e+03 0.0000000000e+00 0.0000e+00 1.0000e+00
       -2 -1    0    0    0  501 -0.0000000000e+00 -0.0000000000e+00 -5.4838372100e+02 5.4838372100e+02 0.0000000000e+00 0.0000e+00 -1.0000e+00
      -13  1    1    2    0    0 +2.4887317554e+02 -5.4781442440e+02 -2.6125415750e+02 6.5596664236e+02 0.0000000000e+00 0.0000e+00 -1.0000e+00
       13  1    1    2    0    0 -2.4887317554e+02 +5.4781442440e+02 +9.1842849435e+02 1.0979751365e+03 0.0000000000e+00 0.0000e+00 1.0000e+00
<mgrwt>
<rscale>  0 0.16261715E+04</rscale>
<asrwt>0</asrwt>
<pdfrwt beam="1">  1        2 0.18547047E+00 0.16261715E+04</pdfrwt>
<pdfrwt beam="2">  1       -2 0.84366727E-01 0.16261715E+04</pdfrwt>
<totfact> 0.28160716E+01</totfact>
</mgrwt>
<rwgt>
<wgt id='morphing_basis_vector_1'> +1.5156600e-04 </wgt>
<wgt id='morphing_basis_vector_2'> +1.0021328e-04 </wgt>
<wgt id='morphing_basis_vector_3'> +1.5882845e-04 </wgt>
<wgt id='morphing_basis_vector_4'> +1.0779103e-04 </wgt>
<wgt id='morphing_basis_vector_5'> +1.7224028e-04 </wgt>
</rwgt>
</event>
<event>
 4      1 +1.5130300e-07 1.65239700e+03 7.81860800e-03 8.23150200e-02
        2 -1    0    0  501    0 +0.0000000000e+00 +0.0000000000e+00 +1.9048224998e+03 1.9048224998e+03 0.0000000000e+00 0.0000e+00 1.0000e+00
       -2 -1    0    0    0  501 -0.0000000000e+00 -0.0000000000e+00 -3.5835589312e+02 3.5835589312e+02 0.0000000000e+00 0.0000e+00 -1.0000e+00
      -13  1    1    2    0    0 -8.1712468203e+02 +9.3915662772e+01 +6.6633634881e+02 1.0585447687e+03 0.0000000000e+00 0.0000e+00 -1.0000e+00
       13  1    1    2    0    0 +8.1712468203e+02 -9.3915662772e+01 +8.8013025787e+02 1.2046336242e+03 0.0000000000e+00 0.0000e+00 1.0000e+00
<mgrwt>
<rscale>  0 0.16523975E+04</rscale>
<asrwt>0</asrwt>
<pdfrwt beam="1">  1        2 0.29304961E+00 0.16523975E+04</pdfrwt>
<pdfrwt beam="2">  1       -2 0.55131677E-01 0.16523975E+04</pdfrwt>
<totfact> 0.28242867E+01</totfact>
</mgrwt>
<rwgt>
<wgt id='morphing_basis_vector_1'> +1.6517214e-04 </wgt>
<wgt id='morphing_basis_vector_2'> +1.1833260e-04 </wgt>
<wgt id='morphing_basis_vector_3'> +1.7462395e-04 </wgt>
<wgt id='morphing_basis_vector_4'> +1.0766601e-04 </wgt>
<wgt id='morphing_basis_vector_5'> +1.8341162e-04 </wgt>
</rwgt>
</event>
<event>
 4      1 +1.5130300e-07 1.76147200e+03 7.81860800e-03 8.17724900e-02
        2 -1    0    0  501    0 +0.0000000000e+00 +0.0000000000e+00 +8.4098873907e+02 8.4098873907e+02 0.0000000000e+00 0.0000e+00 1.0000e+00
       -2 -1    0    0    0  501 -0.0000000000e+00 -0.0000000000e+00 -9.2236232876e+02 9.2236232876e+02 0.0000000000e+00 0.0000e+00 -1.0000e+00
      -13  1    1    2    0    0 -6.9548522298e+01 -5.7039799154e+02 -7.0886058986e+02 9.1250983642e+02 0.0000000000e+00 0.0000e+00 -1.0000e+00
       13  1    1    2    0    0 +6.9548522298e+01 +5.7039799154e+02 +6.2748700016e+02 8.5084123142e+02 0.0000000000e+00 0.0000e+00 1.0000e+00
<mgrwt>
<rscale>  0 0.17614725E+04</rscale>
<asrwt>0</asrwt>
<pdfrwt beam="1">  1        2 0.12938288E+00 0.17614725E+04</pdfrwt>
<pdfrwt beam="2">  1       -2 0.14190190E+00 0.17614725E+04</pdfrwt>
<totfact> 0.12700949E+01</totfact>
</mgrwt>
<rwgt>
<wgt id='morphing_basis_vector_1'> +2.0664013e-04 </wgt>
<wgt id='morphing_basis_vector_2'> +1.3694599e-04 </wgt>
<wgt id='morphing_basis_vector_3'> +2.1825922e-04 </wgt>
<wgt id='morphing_basis_vector_4'> +1.5000817e-04 </wgt>
<wgt id='morphing_basis_vector_5'> +2.3930924e-04 </wgt>
</rwgt>
</event>
<event>
 4      1 +1.5130300e-07 1.57255300e+03 7.81860800e-03 8.27401400e-02
        2 -1    0    0  501    0 +0.0000000000e+00 +0.0000000000e+00 +2.0134444435e+03 2.0134444435e+03 0.0000000000e+00 0.0000e+00 -1.0000e+00
       -2 -1    0    0    0  501 -0.0000000000e+00 -0.0000000000e+00 -3.0705127950e+02 3.0705127950e+02 0.0000000000e+00 0.0000e+00 1.0000e+00
      -13  1    1    2    0    0 -6.5694002956e+02 +2.6261490031e+02 +3.4696121776e+02 7.8798405754e+02 0.0000000000e+00 0.0000e+00 1.0000e+00
       13  1    1    2    0    0 +6.5694002956e+02 -2.6261490031e+02 +1.3594319462e+03 1.5325116654e+03 0.0000000000e+00 0.0000e+00 -1.0000e+00
<mgrwt>
<rscale>  0 0.15725529E+04</rscale>
<asrwt>0</asrwt>
<pdfrwt beam="1">  1        2 0.30976067E+00 0.15725529E+04</pdfrwt>
<pdfrwt beam="2">  1       -2 0.47238660E-01 0.15725529E+04</pdfrwt>
<totfact> 0.33532742E+01</totfact>
</mgrwt>
<rwgt>
<wgt id='morphing_basis_vector_1'> +1.3370760e-04 </wgt>
<wgt id='morphing_basis_vector_2'> +8.9608598e-05 </wgt>
<wgt id='morphing_basis_vector_3'> +1.3976212e-04 </wgt>
<wgt id='morphing_basis_vector_4'> +9.2726996e-05 </wgt>
<wgt id='morphing_basis_vector_5'> +1.4989349e-04 </wgt>
</rwgt>
</event>
<event>
 4      1 +1.5130300e-07 1.65209000e+03 7.81860800e-03 8.23166000e-02
        2 -1    0    0  501    0 +0.0000000000e+00 +0.0000000000e+00 +3.2690288973e+03 3.2690288973e+03 0.0000000000e+00 0.0000e+00 1.0000e+00
       -2 -1    0    0    0  501 -0.0000000000e+00 -0.0000000000e+00 -2.0873187761e+02 2.0873187761e+02 0.0000000000e+00 0.0000e+00 -1.0000e+00
      -13  1    1    2    0    0 -2.7194448030e+02 +6.2951794141e+02 +5.6066535534e+02 8.8577213752e+02 0.0000000000e+00 0.0000e+00 -1.0000e+00
       13  1    1    2    0    0 +2.7194448030e+02 -6.2951794141e+02 +2.4996316643e+03 2.5919886374e+03 0.0000000000e+00 0.0000e+00 1.0000e+00
<mgrwt>
<rscale>  0 0.16520902E+04</rscale>
<asrwt>0</asrwt>
<pdfrwt beam="1">  1        2 0.50292749E+00 0.16520902E+04</pdfrwt>
<pdfrwt beam="2">  1       -2 0.32112599E-01 0.16520902E+04</pdfrwt>
<totfact> 0.11628173E+01</totfact>
</mgrwt>
<rwgt>
<wgt id='morphing_basis_vector_1'> +1.6143080e-04 </wgt>
<wgt id='morphing_basis_vector_2'> +1.0747708e-04 </wgt>
<wgt id='morphing_basis_vector_3'> +1.6954213e-04 </wgt>
<wgt id='morphing_basis_vector_4'> +1.1451956e-04 </wgt>
<wgt id='morphing_basis_vector_5'> +1.8379901e-04 </wgt>
</rwgt>
</event>
<event>
 4      1 +1.5130300e-07 1.78508000e+03 7.81860800e-03 8.16603500e-02
        2 -1    0    0  501    0 +0.0000000000e+00 +0.0000000000e+00 +2.2480831590e+03 2.2480831590e+03 0.0000000000e+00 0.0000e+00 -1.0000e+00
       -2 -1    0    0    0  501 -0.0000000000e+00 -0.0000000000e+00 -3.5435860167e+02 3.5435860167e+02 0.0000000000e+00 0.0000e+00 1.0000e+00
      -13  1    1    2    0    0 -4.4582294831e+02 +4.6992328342e+01 -1.7832033522e+02 4.8245675673e+02 0.0000000000e+00 0.0000e+00 1.0000e+00
       13  1    1    2    0    0 +4.4582294831e+02 -4.6992328342e+01 +2.0720448926e+03 2.1199850040e+03 0.0000000000e+00 0.0000e+00 -1.0000e+00
<mgrwt>
<rscale>  0 0.17850799E+04</rscale>
<asrwt>0</asrwt>
<pdfrwt beam="1">  1        2 0.34585894E+00 0.17850799E+04</pdfrwt>
<pdfrwt beam="2">  1       -2 0.54516709E-01 0.17850799E+04</pdfrwt>
<totfact> 0.18262565E+01</totfact>
</mgrwt>
<rwgt>
<wgt id='morphing_basis_vector_1'> +2.1752569e-04 </wgt>
<wgt id='morphing_basis_vector_2'> +1.4399404e-04 </wgt>
<wgt id='morphing_basis_vector_3'> +2.2999978e-04 </wgt>
<wgt id='morphing_basis_vector_4'> +1.5865702e-04 </wgt>
<wgt id='morphing_basis_vector_5'> +2.5276338e-04 </wgt>
</rwgt>
</event>
<event>
 4      1 +1.5130300e-07 1.69440100e+03 7.81860800e-03 8.21011500e-02
        2 -1    0    0  501    0 +0.0000000000e+00 +0.0000000000e+00 +9.9033125261e+02 9.9033125261e+02 0.0000000000e+00 0.0000e+00 1.0000e+00
       -2 -1    0    0    0  501 -0.0000000000e+00 -0.0000000000e+00 -7.2475637645e+02 7.2475637645e+02 0.0000000000e+00 0.0000e+00 -1.0000e+00
      -13  1    1    2    0    0 -4.4559492627e+02 -3.9005366439e+01 -5.9549134389e+02 7.4477258112e+02 0.0000000000e+00 0.0000e+00 -1.0000e+00
       13  1    1    2    0    0 +4.4559492627e+02 +3.9005366439e+01 +8.6106622006e+02 9.7031504794e+02 0.0000000000e+00 0.0000e+00 1.0000e+00
<mgrwt>
<rscale>  0 0.16944012E+04</rscale>
<asrwt>0</asrwt>
<pdfrwt beam="1">  1        2 0.15235866E+00 0.16944012E+04</pdfrwt>
<pdfrwt beam="2">  1       -2 0.11150098E+00 0.16944012E+04</pdfrwt>
<totfact> 0.19349469E+01</totfact>
</mgrwt>
<rwgt>
<wgt id='morphing_basis_vector_1'> +1.7757165e-04 </wgt>
<wgt id='morphing_basis_vector_2'> +1.1719992e-04 </wgt>
<wgt id='morphing_basis_vector_3'> +1.8681636e-04 </wgt>
<wgt id='morphing_basis_vector_4'> +1.2808202e-04 </wgt>
<wgt id='morphing_basis_vector_5'> +2.0403939e-04 </wgt>
</rwgt>
</event>
<event>
 4      1 +1.5130300e-07 1.83008000e+03 7.81860800e-03 8.14514300e-02
        2 -1    0    0  501    0 +0.0000000000e+00 +0.0000000000e+00 +1.7443959903e+03 1.7443959903e+03 0.0000000000e+00 0.0000e+00 -1.0000e+00
       -2 -1    0    0    0  501 -0.0000000000e+00 -0.0000000000e+00 -4.7999296720e+02 4.7999296720e+02 0.0000000000e+00 0.0000e+00 1.0000e+00
      -13  1    1    2    0    0 +2.9477876899e+02 -8.5783809769e+02 +4.8575452630e+02 1.0289500398e+03 0.0000000000e+00 0.0000e+00 1.0000e+00
       13  1    1    2    0    0 -2.9477876899e+02 +8.5783809769e+02 +7.7864849680e+02 1.1954389177e+03 0.0000000000e+00 0.0000e+00 -1.0000e+00
<mgrwt>
<rscale>  0 0.18300796E+04</rscale>
<asrwt>0</asrwt>
<pdfrwt beam="1">  1        2 0.26836861E+00 0.18300796E+04</pdfrwt>
<pdfrwt beam="2">  1       -2 0.73845073E-01 0.18300796E+04</pdfrwt>
<totfact> 0.18554632E+01</totfact>
</mgrwt>
<rwgt>
<wgt id='morphing_basis_vector_1'> +2.4503379e-04 </wgt>
<wgt id='morphing_basis_vector_2'> +1.7468085e-04 </wgt>
<wgt id='morphing_basis_vector_3'> +2.6157235e-04 </wgt>
<wgt id='morphing_basis_vector_4'> +1.6527259e-04 </wgt>
<wgt id='morphing_basis_vector_5'> +2.7911149e-04 </wgt>
</rwgt>
</event>
<event>
 4      1 +1.5130300e-07 1.60292000e+03 7.81860800e-03 8.25754600e-02
        2 -1    0    0  501    0 +0.0000000000e+00 +0.0000000000e+00 +8.4643669137e+02 8.4643669137e+02 0.0000000000e+00 0.0000e+00 1.0000e+00
       -2 -1    0    0    0  501 -0.0000000000e+00 -0.0000000000e+00 -7.5887352333e+02 7.5887352333e+02 0.0000000000e+00 0.0000e+00 -1.0000e+00
      -13  1    1    2    0    0 +7.3085429685e+02 -3.1712154480e+02 +1.3122910472e+02 8.0742501530e+02 0.0000000000e+00 0.0000e+00 -1.0000e+00
       13  1    1    2    0    0 -7.3085429685e+02 +3.1712154480e+02 -4.3665936676e+01 7.9788519940e+02 0.0000000000e+00 0.0000e+00 1.0000e+00
<mgrwt>
<rscale>  0 0.16029203E+04</rscale>
<asrwt>0</asrwt>
<pdfrwt beam="1">  1        2 0.13022103E+00 0.16029203E+04</pdfrwt>
<pdfrwt beam="2">  1       -2 0.11674977E+00 0.16029203E+04</pdfrwt>
<totfact> 0.21501044E+01</totfact>
</mgrwt>
<rwgt>
<wgt id='morphing_basis_vector_1'> +1.5077091e-04 </wgt>
<wgt id='morphing_basis_vector_2'> +1.1680348e-04 </wgt>
<wgt id='morphing_basis_vector_3'> +1.6000176e-04 </wgt>
<wgt id='morphing_basis_vector_4'> +8.7449265e-05 </wgt>
<wgt id='morphing_basis_vector_5'> +1.6123862e-04 </wgt>
</rwgt>
</event>
<event>
 4      1 +1.5130300e-07 1.56946000e+03 7.81860800e-03 8.27571400e-02
        2 -1    0    0  501    0 +0.0000000000e+00 +0.0000000000e+00 +6.5157655686e+02 6.5157655686e+02 0.0000000000e+00 0.0000e+00 1.0000e+00
       -2 -1    0    0    0  501 -0.0000000000e+00 -0.0000000000e+00 -9.4509362326e+02 9.4509362326e+02 0.0000000000e+00 0.0000e+00 -1.0000e+00
      -13  1    1    2    0    0 +2.5226943810e+02 +1.5021619402e+02 -8.8710917254e+02 9.3443429857e+02 0.0000000000e+00 0.0000e+00 -1.0000e+00
       13  1    1    2    0    0 -2.5226943810e+02 -1.5021619402e+02 +5.9359210614e+02 6.6223588155e+02 0.0000000000e+00 0.0000e+00 1.0000e+00
<mgrwt>
<rscale>  0 0.15694596E+04</rscale>
<asrwt>0</asrwt>
<pdfrwt beam="1">  1        2 0.10024255E+00 0.15694596E+04</pdfrwt>
<pdfrwt beam="2">  1       -2 0.14539902E+00 0.15694596E+04</pdfrwt>
<totfact> 0.16595252E+01</totfact>
</mgrwt>
<rwgt>
<wgt id='morphing_basis_vector_1'> +1.3189346e-04 </wgt>
<wgt id='morphing_basis_vector_2'> +8.6537479e-05 </wgt>
<wgt id='morphing_basis_vector_3'> +1.3759975e-04 </wgt>
<wgt id='morphing_basis_vector_4'> +9.3486558e-05 </wgt>
<wgt id='morphing_basis_vector_5'> +1.4879230e-04 </wgt>
</rwgt>
</event>
<event>
 4      1 +1.5130300e-07 1.81744200e+03 7.81860800e-03 8.15094700e-02
        2 -1    0    0  501    0 +0.0000000000e+00 +0.0000000000e+00 +1.1594708485e+03 1.1594708485e+03 0.0000000000e+00 0.0000e+00 1.0000e+00
       -2 -1    0    0    0  501 -0.0000000000e+00 -0.0000000000e+00 -7.1219850416e+02 7.1219850416e+02 0.0000000000e+00 0.0000e+00 -1.0000e+00
      -13  1    1    2    0    0 -8.1372525480e+02 -2.0193115375e+02 -1.3731917542e+02 8.4957726964e+02 0.0000000000e+00 0.0000e+00 -1.0000e+00
       13  1    1    2    0    0 +8.1372525480e+02 +2.0193115375e+02 +5.8459151975e+02 1.0220920830e+03 0.0000000000e+00 0.0000e+00 1.0000e+00
<mgrwt>
<rscale>  0 0.18174415E+04</rscale>
<asrwt>0</asrwt>
<pdfrwt beam="1">  1        2 0.17838013E+00 0.18174415E+04</pdfrwt>
<pdfrwt beam="2">  1       -2 0.10956900E+00 0.18174415E+04</pdfrwt>
<totfact> 0.15797940E+01</totfact>
</mgrwt>
<rwgt>
<wgt id='morphing_basis_vector_1'> +2.3508601e-04 </wgt>
<wgt id='morphing_basis_vector_2'> +1.5985012e-04 </wgt>
<wgt id='morphing_basis_vector_3'> +2.4960021e-04 </wgt>
<wgt id='morphing_basis_vector_4'> +1.6731636e-04 </wgt>
<wgt id='morphing_basis_vector_5'> +2.7181659e-04 </wgt>
</rwgt>
</event>
<event>
 4      1 +1.5130300e-07 1.65245800e+03 7.81860800e-03 8.23147000e-02
        2 -1    0    0  501    0 +0.0000000000e+00 +0.0000000000e+00 +2.2191304892e+03 2.2191304892e+03 0.0000000000e+00 0.0000e+00 -1.0000e+00
       -2 -1    0    0    0  501 -0.0000000000e+00 -0.0000000000e+00 -3.0762240269e+02 3.0762240269e+02 0.0000000000e+00 0.0000e+00 1.0000e+00
      -13  1    1    2    0    0 -1.8051453954e+01 -4.3738824866e+02 -1.1572068023e+02 4.5279753852e+02 0.0000000000e+00 0.0000e+00 1.0000e+00
       13  1    1    2    0    0 +1.8051453954e+01 +4.3738824866e+02 +2.0272287668e+03 2.0739553534e+03 0.0000000000e+00 0.0000e+00 -1.0000e+00
<mgrwt>
<rscale>  0 0.16524579E+04</rscale>
<asrwt>0</asrwt>
<pdfrwt beam="1">  1        2 0.34140468E+00 0.16524579E+04</pdfrwt>
<pdfrwt beam="2">  1       -2 0.47326525E-01 0.16524579E+04</pdfrwt>
<totfact> 0.25370688E+01</totfact>
</mgrwt>
<rwgt>
<wgt id='morphing_basis_vector_1'> +1.6109347e-04 </wgt>
<wgt id='morphing_basis_vector_2'> +1.0615382e-04 </wgt>
<wgt id='morphing_basis_vector_3'> +1.6904072e-04 </wgt>
<wgt id='morphing_basis_vector_4'> +1.1553760e-04 </wgt>
<wgt id='morphing_basis_vector_5'> +1.8403704e-04 </wgt>
</rwgt>
</event>
<event>
 4      1 +1.5130300e-07 1.56482800e+03 7.81860800e-03 8.27826500e-02
        2 -1    0    0  501    0 +0.0000000000e+00 +0.0000000000e+00 +3.2782475263e+03 3.2782475263e+03 0.0000000000e+00 0.0000e+00 -1.0000e+00
       -2 -1    0    0    0  501 -0.0000000000e+00 -0.0000000000e+00 -1.8673744206e+02 1.8673744206e+02 0.0000000000e+00 0.0000e+00 1.0000e+00
      -13  1    1    2    0    0 -4.6646134437e+02 -4.5401332207e+02 +5.8449422696e+02 8.7484157638e+02 0.0000000000e+00 0.0000e+00 1.0000e+00
       13  1    1    2    0    0 +4.6646134437e+02 +4.5401332207e+02 +2.5070158572e+03 2.5901433919e+03 0.0000000000e+00 0.0000e+00 -1.0000e+00
<mgrwt>
<rscale>  0 0.15648279E+04</rscale>
<asrwt>0</asrwt>
<pdfrwt beam="1">  1        2 0.50434573E+00 0.15648279E+04</pdfrwt>
<pdfrwt beam="2">  1       -2 0.28728840E-01 0.15648279E+04</pdfrwt>
<totfact> 0.14090268E+01</totfact>
</mgrwt>
<rwgt>
<wgt id='morphing_basis_vector_1'> +1.3081360e-04 </wgt>
<wgt id='morphing_basis_vector_2'> +8.6785872e-05 </wgt>
<wgt id='morphing_basis_vector_3'> +1.3654905e-04 </wgt>
<wgt id='morphing_basis_vector_4'> +9.1559635e-05 </wgt>
<wgt id='morphing_basis_vector_5'> +1.4692626e-04 </wgt>
</rwgt>
</event>
<event>
 4      1 +1.5130300e-07 1.63386200e+03 7.81860800e-03 8.24114700e-02
        2 -1    0    0  501    0 +0.0000000000e+00 +0.0000000000e+00 +2.5704045002e+03 2.5704045002e+03 0.0000000000e+00 0.0000e+00 -1.0000e+00
       -2 -1    0    0    0  501 -0.0000000000e+00 -0.0000000000e+00 -2.5963854234e+02 2.5963854234e+02 0.0000000000e+00 0.0000e+00 1.0000e+00
      -13  1    1    2    0    0 +3.0153138438e+02 +6.9215255877e+02 +1.6959033009e+03 1.8563632044e+03 0.0000000000e+00 0.0000e+00 1.0000e+00
       13  1    1    2    0    0 -3.0153138438e+02 -6.9215255877e+02 +6.1486265687e+02 9.7367983814e+02 0.0000000000e+00 0.0000e+00 -1.0000e+00
<mgrwt>
<rscale>  0 0.16338618E+04</rscale>
<asrwt>0</asrwt>
<pdfrwt beam="1">  1        2 0.39544683E+00 0.16338618E+04</pdfrwt>
<pdfrwt beam="2">  1       -2 0.39944393E-01 0.16338618E+04</pdfrwt>
<totfact> 0.21851503E+01</totfact>
</mgrwt>
<rwgt>
<wgt id='morphing_basis_vector_1'> +1.7426106e-04 </wgt>
<wgt id='morphing_basis_vector_2'> +1.6126375e-04 </wgt>
<wgt id='morphing_basis_vector_3'> +1.8892345e-04 </wgt>
<wgt id='morphing_basis_vector_4'> +7.1912262e-05 </wgt>
<wgt id='morphing_basis_vector_5'> +1.7273958e-04 </wgt>
</rwgt>
</event>
<event>
 4      1 +1.5130300e-07 1.77258400e+03 7.81860800e-03 8.17194900e-02
        2 -1    0    0  501    0 +0.0000000000e+00 +0.0000000000e+00 +9.1449794998e+02 9.1449794998e+02 0.0000000000e+00 0.0000e+00 -1.0000e+00
       -2 -1    0    0    0  501 -0.0000000000e+00 -0.0000000000e+00 -8.5895631562e+02 8.5895631562e+02 0.0000000000e+00 0.0000e+00 1.0000e+00
      -13  1    1    2    0    0 +2.8893676569e+02 +5.4316221199e+02 -6.1051105141e+02 8.6673720758e+02 0.0000000000e+00 0.0000e+00 1.0000e+00
       13  1    1    2    0    0 -2.8893676569e+02 -5.4316221199e+02 +6.6605268577e+02 9.0671705803e+02 0.0000000000e+00 0.0000e+00 -1.0000e+00
<mgrwt>
<rscale>  0 0.17725843E+04</rscale>
<asrwt>0</asrwt>
<pdfrwt beam="1">  1        2 0.14069199E+00 0.17725843E+04</pdfrwt>
<pdfrwt beam="2">  1       -2 0.13214713E+00 0.17725843E+04</pdfrwt>
<totfact> 0.13797479E+01</totfact>
</mgrwt>
<rwgt>
<wgt id='morphing_basis_vector_1'> +2.1183124e-04 </wgt>
<wgt id='morphing_basis_vector_2'> +1.4058650e-04 </wgt>
<wgt id='morphing_basis_vector_3'> +2.2389648e-04 </wgt>
<wgt id='morphing_basis_vector_4'> +1.5380065e-04 </wgt>
<wgt id='morphing_basis_vector_5'> +2.4555577e-04 </wgt>
</rwgt>
</event>
<event>
 4      1 +1.5130300e-07 1.55403400e+03 7.81860800e-03 8.28424700e-02
        2 -1    0    0  501    0 +0.0000000000e+00 +0.0000000000e+00 +1.5321962048e+03 1.5321962048e+03 0.0000000000e+00 0.0000e+00 -1.0000e+00
       -2 -1    0    0    0  501 -0.0000000000e+00 -0.0000000000e+00 -3.9404569468e+02 3.9404569468e+02 0.0000000000e+00 0.0000e+00 1.0000e+00
      -13  1    1    2    0    0 -1.4785764024e+02 -6.7970937087e+02 +1.3989542571e+02 7.0953325557e+02 0.0000000000e+00 0.0000e+00 1.0000e+00
       13  1    1    2    0    0 +1.4785764024e+02 +6.7970937087e+02 +9.9825508440e+02 1.2167086439e+03 0.0000000000e+00 0.0000e+00 -1.0000e+00
<mgrwt>
<rscale>  0 0.15540339E+04</rscale>
<asrwt>0</asrwt>
<pdfrwt beam="1">  1        2 0.23572249E+00 0.15540339E+04</pdfrwt>
<pdfrwt beam="2">  1       -2 0.60622415E-01 0.15540339E+04</pdfrwt>
<totfact> 0.37847217E+01</totfact>
</mgrwt>
<rwgt>
<wgt id='morphing_basis_vector_1'> +1.2768230e-04 </wgt>
<wgt id='morphing_basis_vector_2'> +8.5419366e-05 </wgt>
<wgt id='morphing_basis_vector_3'> +1.3326416e-04 </wgt>
<wgt id='morphing_basis_vector_4'> +8.8366997e-05 </wgt>
<wgt id='morphing_basis_vector_5'> +1.4273539e-04 </wgt>
</rwgt>
</event>
<event>
 4      1 +1.5130300e-07 1.58320000e+03 7.81860800e-03 8.26819700e-02
        2 -1    0    0  501    0 +0.0000000000e+00 +0.0000000000e+00 +7.1715997630e+02 7.1715997630e+02 0.0000000000e+00 0.0000e+00 1.0000e+00
       -2 -1    0    0    0  501 -0.0000000000e+00 -0.0000000000e+00 -8.7376727725e+02 8.7376727725e+02 0.0000000000e+00 0.0000e+00 -1.0000e+00
      -13  1    1    2    0    0 -4.1481637513e+02 -6.6314063132e+02 +4.3956892474e+01 7.8342857388e+02 0.0000000000e+00 0.0000e+00 -1.0000e+00
       13  1    1    2    0    0 +4.1481637513e+02 +6.6314063132e+02 -2.0056419343e+02 8.0749867967e+02 0.0000000000e+00 0.0000e+00 1.0000e+00
<mgrwt>
<rscale>  0 0.15832005E+04</rscale>
<asrwt>0</asrwt>
<pdfrwt beam="1">  1        2 0.11033230E+00 0.15832005E+04</pdfrwt>
<pdfrwt beam="2">  1       -2 0.13442574E+00 0.15832005E+04</pdfrwt>
<totfact> 0.18332597E+01</totfact>
</mgrwt>
<rwgt>
<wgt id='morphing_basis_vector_1'> +1.4492067e-04 </wgt>
<wgt id='morphing_basis_vector_2'> +1.1486340e-04 </wgt>
<wgt id='morphing_basis_vector_3'> +1.5388070e-04 </wgt>
<wgt id='morphing_basis_vector_4'> +8.0808312e-05 </wgt>
<wgt id='morphing_basis_vector_5'> +1.5303608e-04 </wgt>
</rwgt>
</event>
<event>
 4      1 +1.5130300e-07 1.67889500e+03 7.81860800e-03 8.21793600e-02
        2 -1    0    0  501    0 +0.0000000000e+00 +0.0000000000e+00 +1.0952058703e+03 1.0952058703e+03 0.0000000000e+00 0.0000e+00 -1.0000e+00
       -2 -1    0    0    0  501 -0.0000000000e+00 -0.0000000000e+00 -6.4341505553e+02 6.4341505553e+02 0.0000000000e+00 0.0000e+00 1.0000e+00
      -13  1    1    2    0    0 -4.9470940970e+02 -3.2634884144e+02 -3.8975436466e+02 7.0933026943e+02 0.0000000000e+00 0.0000e+00 1.0000e+00
       13  1    1    2    0    0 +4.9470940970e+02 +3.2634884144e+02 +8.4154517946e+02 1.0292906564e+03 0.0000000000e+00 0.0000e+00 -1.0000e+00
<mgrwt>
<rscale>  0 0.16788948E+04</rscale>
<asrwt>0</asrwt>
<pdfrwt beam="1">  1        2 0.16849321E+00 0.16788948E+04</pdfrwt>
<pdfrwt beam="2">  1       -2 0.98986932E-01 0.16788948E+04</pdfrwt>
<totfact> 0.22403076E+01</totfact>
</mgrwt>
<rwgt>
<wgt id='morphing_basis_vector_1'> +1.7149300e-04 </wgt>
<wgt id='morphing_basis_vector_2'> +1.1348123e-04 </wgt>
<wgt id='morphing_basis_vector_3'> +1.8030242e-04 </wgt>
<wgt id='morphing_basis_vector_4'> +1.2303379e-04 </wgt>
<wgt id='morphing_basis_vector_5'> +1.9644275e-04 </wgt>
</rwgt>
</event>
<event>
 4      1 +1.5130300e-07 1.62868700e+03 7.81860800e-03 8.24386400e-02
        2 -1    0    0  501    0 +0.0000000000e+00 +0.0000000000e+00 +1.5429941643e+03 1.5429941643e+03 0.0000000000e+00 0.0000e+00 1.0000e+00
       -2 -1    0    0    0  501 -0.0000000000e+00 -0.0000000000e+00 -4.2978450319e+02 4.2978450319e+02 0.0000000000e+00 0.0000e+00 -1.0000e+00
      -13  1    1    2    0    0 +5.2619212308e+02 -6.1620792373e+02 +4.5846488811e+02 9.3101042384e+02 0.0000000000e+00 0.0000e+00 -1.0000e+00
       13  1    1    2    0    0 -5.2619212308e+02 +6.1620792373e+02 +6.5474477296e+02 1.0417682436e+03 0.0000000000e+00 0.0000e+00 1.0000e+00
<mgrwt>
<rscale>  0 0.16286866E+04</rscale>
<asrwt>0</asrwt>
<pdfrwt beam="1">  1        2 0.23738372E+00 0.16286866E+04</pdfrwt>
<pdfrwt beam="2">  1       -2 0.66120693E-01 0.16286866E+04</pdfrwt>
<totfact> 0.30966451E+01</totfact>
</mgrwt>
<rwgt>
<wgt id='morphing_basis_vector_1'> +1.5608729e-04 </wgt>
<wgt id='morphing_basis_vector_2'> +1.1156281e-04 </wgt>
<wgt id='morphing_basis_vector_3'> +1.6471726e-04 </wgt>
<wgt id='morphing_basis_vector_4'> +1.0159097e-04 </wgt>
<wgt id='morphing_basis_vector_5'> +1.7281888e-04 </wgt>
</rwgt>
</event>
<event>
 4      1 +1.5130300e-07 1.67334900e+03 7.81860800e-03 8.22075400e-02
        2 -1    0    0  501    0 +0.0000000000e+00 +0.0000000000e+00 +1.3329005321e+03 1.3329005321e+03 0.0000000000e+00 0.0000e+00 -1.0000e+00
       -2 -1    0    0    0  501 -0.0000000000e+00 -0.0000000000e+00 -5.2518846623e+02 5.2518846623e+02 0.0000000000e+00 0.0000e+00 1.0000e+00
      -13  1    1    2    0    0 +2.5983262443e+02 -4.2620857476e+02 -3.4173312092e+02 6.0493658168e+02 0.0000000000e+00 0.0000e+00 1.0000e+00
       13  1    1    2    0    0 -2.5983262443e+02 +4.2620857476e+02 +1.1494451868e+03 1.2531524167e+03 0.0000000000e+00 0.0000e+00 -1.0000e+00
<mgrwt>
<rscale>  0 0.16733487E+04</rscale>
<asrwt>0</asrwt>
<pdfrwt beam="1">  1        2 0.20506162E+00 0.16733487E+04</pdfrwt>
<pdfrwt beam="2">  1       -2 0.80798226E-01 0.16733487E+04</pdfrwt>
<totfact> 0.26146564E+01</totfact>
</mgrwt>
<rwgt>
<wgt id='morphing_basis_vector_1'> +1.6918509e-04 </wgt>
<wgt id='morphing_basis_vector_2'> +1.1166011e-04 </wgt>
<wgt id='morphing_basis_vector_3'> +1.7777717e-04 </wgt>
<wgt id='morphing_basis_vector_4'> +1.2159601e-04 </wgt>
<wgt id='morphing_basis_vector_5'> +1.9380275e-04 </wgt>
</rwgt>
</event>
<event>
 4      1 +1.5130300e-07 1.57591900e+03 7.81860800e-03 8.27217000e-02
        2 -1    0    0  501    0 +0.0000000000e+00 +0.0000000000e+00 +5.2305522256e+02 5.2305522256e+02 0.0000000000e+00 0.0000e+00 -1.0000e+00
       -2 -1    0    0    0  501 -0.0000000000e+00 -0.0000000000e+00 -1.1870257953e+03 1.1870257953e+03 0.0000000000e+00 0.0000e+00 1.0000e+00
      -13  1    1    2    0    0 +8.3208446520e+01 +2.6537357664e+02 -1.1319961851e+03 1.1656595317e+03 0.0000000000e+00 0.0000e+00 1.0000e+00
       13  1    1    2    0    0 -8.3208446520e+01 -2.6537357664e+02 +4.6802561237e+02 5.4442148615e+02 0.0000000000e+00 0.0000e+00 -1.0000e+00
<mgrwt>
<rscale>  0 0.15759188E+04</rscale>
<asrwt>0</asrwt>
<pdfrwt beam="1">  1        2 0.80470034E-01 0.15759188E+04</pdfrwt>
<pdfrwt beam="2">  1       -2 0.18261935E+00 0.15759188E+04</pdfrwt>
<totfact> 0.10864349E+01</totfact>
</mgrwt>
<rwgt>
<wgt id='morphing_basis_vector_1'> +1.3400542e-04 </wgt>
<wgt id='morphing_basis_vector_2'> +8.7945255e-05 </wgt>
<wgt id='morphing_basis_vector_3'> +1.3986935e-04 </wgt>
<wgt id='morphing_basis_vector_4'> +9.5087756e-05 </wgt>
<wgt id='morphing_basis_vector_5'> +1.5133924e-04 </wgt>
</rwgt>
</event>
<event>
 4      1 +1.5130300e-07 1.67866000e+03 7.81860800e-03 8.21805500e-02
        2 -1    0    0  501    0 +0.0000000000e+00 +0.0000000000e+00 +1.2981851161e+03 1.2981851161e+03 0.0000000000e+00 0.0000e+00 1.0000e+00
       -2 -1    0    0    0  501 -0.0000000000e+00 -0.0000000000e+00 -5.4266129469e+02 5.4266129469e+02 0.0000000000e+00 0.0000e+00 -1.0000e+00
      -13  1    1    2    0    0 +4.1453496829e+02 +5.7238298829e+02 -1.1876847591e+02 7.1663622298e+02 0.0000000000e+00 0.0000e+00 -1.0000e+00
       13  1    1    2    0    0 -4.1453496829e+02 -5.7238298829e+02 +8.7429229736e+02 1.1242101878e+03 0.0000000000e+00 0.0000e+00 1.0000e+00
<mgrwt>
<rscale>  0 0.16786600E+04</rscale>
<asrwt>0</asrwt>
<pdfrwt beam="1">  1        2 0.19972079E+00 0.16786600E+04</pdfrwt>
<pdfrwt beam="2">  1       -2 0.83486354E-01 0.16786600E+04</pdfrwt>
<totfact> 0.25388552E+01</totfact>
</mgrwt>
<rwgt>
<wgt id='morphing_basis_vector_1'> +1.7181200e-04 </wgt>
<wgt id='morphing_basis_vector_2'> +1.1464357e-04 </wgt>
<wgt id='morphing_basis_vector_3'> +1.8076894e-04 </wgt>
<wgt id='morphing_basis_vector_4'> +1.2217072e-04 </wgt>
<wgt id='morphing_basis_vector_5'> +1.9626917e-04 </wgt>
</rwgt>
</event>
<event>
 4      1 +1.5130300e-07 1.80561200e+03 7.81860800e-03 8.15642500e-02
        2 -1    0    0  501    0 +0.0000000000e+00 +0.0000000000e+00 +3.4869772277e+03 3.4869772277e+03 0.0000000000e+00 0.0000e+00 1.0000e+00
       -2 -1    0    0    0  501 -0.0000000000e+00 -0.0000000000e+00 -2.3374364309e+02 2.3374364309e+02 0.0000000000e+00 0.0000e+00 -1.0000e+00
      -13  1    1    2    0    0 -6.2688900722e+02 -6.1670733165e+02 +1.2056148874e+03 1.4922550107e+03 0.0000000000e+00 0.0000e+00 -1.0000e+00
       13  1    1    2    0    0 +6.2688900722e+02 +6.1670733165e+02 +2.0476186972e+03 2.2284658601e+03 0.0000000000e+00 0.0000e+00 1.0000e+00
<mgrwt>
<rscale>  0 0.18056121E+04</rscale>
<asrwt>0</asrwt>
<pdfrwt beam="1">  1        2 0.53645800E+00 0.18056121E+04</pdfrwt>
<pdfrwt beam="2">  1       -2 0.35960563E-01 0.18056121E+04</pdfrwt>
<totfact> 0.65521760E+00</totfact>
</mgrwt>
<rwgt>
<wgt id='morphing_basis_vector_1'> +2.3091261e-04 </wgt>
<wgt id='morphing_basis_vector_2'> +1.6093936e-04 </wgt>
<wgt id='morphing_basis_vector_3'> +2.4563377e-04 </wgt>
<wgt id='morphing_basis_vector_4'> +1.5950148e-04 </wgt>
<wgt id='morphing_basis_vector_5'> +2.6437457e-04 </wgt>
</rwgt>
</event>
<event>
 4      1 +1.5130300e-07 1.58312800e+03 7.81860800e-03 8.26823700e-02
        2 -1    0    0  501    0 +0.0000000000e+00 +0.0000000000e+00 +9.4329518960e+02 9.4329518960e+02 0.0000000000e+00 0.0000e+00 -1.0000e+00
       -2 -1    0    0    0  501 -0.0000000000e+00 -0.0000000000e+00 -6.6423871183e+02 6.6423871183e+02 0.0000000000e+00 0.0000e+00 1.0000e+00
      -13  1    1    2    0    0 -4.2187974061e+02 +3.5746701390e+01 -5.3959708592e+02 6.8587561359e+02 0.0000000000e+00 0.0000e+00 1.0000e+00
       13  1    1    2    0    0 +4.2187974061e+02 -3.5746701390e+01 +8.1865356369e+02 9.2165828783e+02 0.0000000000e+00 0.0000e+00 -1.0000e+00
<mgrwt>
<rscale>  0 0.15831275E+04</rscale>
<asrwt>0</asrwt>
<pdfrwt beam="1">  1        2 0.14512234E+00 0.15831275E+04</pdfrwt>
<pdfrwt beam="2">  1       -2 0.10219057E+00 0.15831275E+04</pdfrwt>
<totfact> 0.25963579E+01</totfact>
</mgrwt>
<rwgt>
<wgt id='morphing_basis_vector_1'> +1.3642730e-04 </wgt>
<wgt id='morphing_basis_vector_2'> +8.9640003e-05 </wgt>
<wgt id='morphing_basis_vector_3'> +1.4248197e-04 </wgt>
<wgt id='morphing_basis_vector_4'> +9.6832941e-05 </wgt>
<wgt id='morphing_basis_vector_5'> +1.5421478e-04 </wgt>
</rwgt>
</event>
<event>
 4      1 +1.5130300e-07 1.84378800e+03 7.81860800e-03 8.13890300e-02
        2 -1    0    0  501    0 +0.0000000000e+00 +0.0000000000e+00 +9.7012129856e+02 9.7012129856e+02 0.0000000000e+00 0.0000e+00 1.0000e+00
       -2 -1    0    0    0  501 -0.0000000000e+00 -0.0000000000e+00 -8.7606374395e+02 8.7606374395e+02 0.0000000000e+00 0.0000e+00 -1.0000e+00
      -13  1    1    2    0    0 +6.5782773266e+01 -2.9399934249e+02 -8.2538203139e+02 8.7864582420e+02 0.0000000000e+00 0.0000e+00 -1.0000e+00
       13  1    1    2    0    0 -6.5782773266e+01 +2.9399934249e+02 +9.1943958601e+02 9.6753921831e+02 0.0000000000e+00 0.0000e+00 1.0000e+00
<mgrwt>
<rscale>  0 0.18437875E+04</rscale>
<asrwt>0</asrwt>
<pdfrwt beam="1">  1        2 0.14924943E+00 0.18437875E+04</pdfrwt>
<pdfrwt beam="2">  1       -2 0.13477904E+00 0.18437875E+04</pdfrwt>
<totfact> 0.11974543E+01</totfact>
</mgrwt>
<rwgt>
<wgt id='morphing_basis_vector_1'> +2.4675769e-04 </wgt>
<wgt id='morphing_basis_vector_2'> +1.6353734e-04 </wgt>
<wgt id='morphing_basis_vector_3'> +2.6164458e-04 </wgt>
<wgt id='morphing_basis_vector_4'> +1.8122400e-04 </wgt>
<wgt id='morphing_basis_vector_5'> +2.8861615e-04 </wgt>
</rwgt>
</event>
<event>
 4      1 +1.5130300e-07 1.63852500e+03 7.81860800e-03 8.23870800e-02
        2 -1    0    0  501    0 +0.0000000000e+00 +0.0000000000e+00 +1.4623868518e+03 1.4623868518e+03 0.0000000000e+00 0.0000e+00 -1.0000e+00
       -2 -1    0    0    0  501 -0.0000000000e+00 -0.0000000000e+00 -4.5896936622e+02 4.5896936622e+02 0.0000000000e+00 0.0000e+00 1.0000e+00
      -13  1    1    2    0    0 +5.3218511340e+02 -6.1449344001e+02 +3.8231166850e+02 8.9832365805e+02 0.0000000000e+00 0.0000e+00 1.0000e+00
       13  1    1    2    0    0 -5.3218511340e+02 +6.1449344001e+02 +6.2110581705e+02 1.0230325599e+03 0.0000000000e+00 0.0000e+00 -1.0000e+00
<mgrwt>
<rscale>  0 0.16385247E+04</rscale>
<asrwt>0</asrwt>
<pdfrwt beam="1">  1        2 0.22498259E+00 0.16385247E+04</pdfrwt>
<pdfrwt beam="2">  1       -2 0.70610672E-01 0.16385247E+04</pdfrwt>
<totfact> 0.29849001E+01</totfact>
</mgrwt>
<rwgt>
<wgt id='morphing_basis_vector_1'> +1.5942546e-04 </wgt>
<wgt id='morphing_basis_vector_2'> +1.1319318e-04 </wgt>
<wgt id='morphing_basis_vector_3'> +1.6825160e-04 </wgt>
<wgt id='morphing_basis_vector_4'> +1.0481387e-04 </wgt>
<wgt id='morphing_basis_vector_5'> +1.7721300e-04 </wgt>
</rwgt>
</event>
<event>
 4      1 +1.5130300e-07 1.60393900e+03 7.81860800e-03 8.25700000e-02
        2 -1    0    0  501    0 +0.0000000000e+00 +0.0000000000e+00 +2.5762108577e+03 2.5762108577e+03 0.0000000000e+00 0.0000e+00 1.0000e+00
       -2 -1    0    0    0  501 -0.0000000000e+00 -0.0000000000e+00 -2.4965147083e+02 2.4965147083e+02 0.0000000000e+00 0.0000e+00 -1.0000e+00
      -13  1    1    2    0    0 -4.2619493724e+02 +3.8370743126e+02 +2.1509739211e+03 2.2261092351e+03 0.0000000000e+00 0.0000e+00 1.0000e+00
       13  1    1    2    0    0 +4.2619493724e+02 -3.8370743126e+02 +1.7558546582e+02 5.9975309348e+02 0.0000000000e+00 0.0000e+00 -1.0000e+00
<mgrwt>
<rscale>  0 0.16039387E+04</rscale>
<asrwt>0</asrwt>
<pdfrwt beam="1">  1        2 0.39634011E+00 0.16039387E+04</pdfrwt>
<pdfrwt beam="2">  1       -2 0.38407920E-01 0.16039387E+04</pdfrwt>
<totfact> 0.23382509E+01</totfact>
</mgrwt>
<rwgt>
<wgt id='morphing_basis_vector_1'> +1.8464127e-04 </wgt>
<wgt id='morphing_basis_vector_2'> +2.1676578e-04 </wgt>
<wgt id='morphing_basis_vector_3'> +2.0564869e-04 </wgt>
<wgt id='morphing_basis_vector_4'> +2.4005121e-05 </wgt>
<wgt id='morphing_basis_vector_5'> +1.5685096e-04 </wgt>
</rwgt>
</event>
<event>
 4      1 +1.5130300e-07 1.60568400e+03 7.81860800e-03 8.25606500e-02
        2 -1    0    0  501    0 +0.0000000000e+00 +0.0000000000e+00 +7.9483772618e+02 7.9483772618e+02 0.0000000000e+00 0.0000e+00 1.0000e+00
       -2 -1    0    0    0  501 -0.0000000000e+00 -0.0000000000e+00 -8.1092723490e+02 8.1092723490e+02 0.0000000000e+00 0.0000e+00 -1.0000e+00
      -13  1    1    2    0    0 +2.7566800519e+02 +3.2470330639e+02 -6.8861581964e+02 8.0970169403e+02 0.0000000000e+00 0.0000e+00 -1.0000e+00
       13  1    1    2    0    0 -2.7566800519e+02 -3.2470330639e+02 +6.7252631092e+02 7.9606326705e+02 0.0000000000e+00 0.0000e+00 1.0000e+00
<mgrwt>
<rscale>  0 0.16056844E+04</rscale>
<asrwt>0</asrwt>
<pdfrwt beam="1">  1        2 0.12228273E+00 0.16056844E+04</pdfrwt>
<pdfrwt beam="2">  1       -2 0.12475804E+00 0.16056844E+04</pdfrwt>
<totfact> 0.19625407E+01</totfact>
</mgrwt>
<rwgt>
<wgt id='morphing_basis_vector_1'> +1.4411244e-04 </wgt>
<wgt id='morphing_basis_vector_2'> +9.4780176e-05 </wgt>
<wgt id='morphing_basis_vector_3'> +1.5074946e-04 </wgt>
<wgt id='morphing_basis_vector_4'> +1.0265249e-04 </wgt>
<wgt id='morphing_basis_vector_5'> +1.6349048e-04 </wgt>
</rwgt>
</event>
<event>
 4      1 +1.5130300e-07 1.58053500e+03 7.81860800e-03 8.26964900e-02
        2 -1    0    0  501    0 +0.0000000000e+00 +0.0000000000e+00 +1.9827061111e+03 1.9827061111e+03 0.0000000000e+00 0.0000e+00 1.0000e+00
       -2 -1    0    0    0  501 -0.0000000000e+00 -0.0000000000e+00 -3.1498488589e+02 3.1498488589e+02 0.0000000000e+00 0.0000e+00 -1.0000e+00
      -13  1    1    2    0    0 -4.2315984595e+02 -6.4103390912e+02 +1.1040133317e+03 1.3449290555e+03 0.0000000000e+00 0.0000e+00 -1.0000e+00
       13  1    1    2    0    0 +4.2315984595e+02 +6.4103390912e+02 +5.6370789347e+02 9.5276194142e+02 0.0000000000e+00 0.0000e+00 1.0000e+00
<mgrwt>
<rscale>  0 0.15805347E+04</rscale>
<asrwt>0</asrwt>
<pdfrwt beam="1">  1        2 0.30503170E+00 0.15805347E+04</pdfrwt>
<pdfrwt beam="2">  1       -2 0.48459214E-01 0.15805347E+04</pdfrwt>
<totfact> 0.33181378E+01</totfact>
</mgrwt>
<rwgt>
<wgt id='morphing_basis_vector_1'> +1.4663026e-04 </wgt>
<wgt id='morphing_basis_vector_2'> +1.2200114e-04 </wgt>
<wgt id='morphing_basis_vector_3'> +1.5640276e-04 </wgt>
<wgt id='morphing_basis_vector_4'> +7.5226899e-05 </wgt>
<wgt id='morphing_basis_vector_5'> +1.5159709e-04 </wgt>
</rwgt>
</event>
<event>
 4      1 +1.5130300e-07 1.66865200e+03 7.81860800e-03 8.22314900e-02
        2 -1    0    0  501    0 +0.0000000000e+00 +0.0000000000e+00 +1.1642007623e+03 1.1642007623e+03 0.0000000000e+00 0.0000e+00 1.0000e+00
       -2 -1    0    0    0  501 -0.0000000000e+00 -0.0000000000e+00 -5.9792117469e+02 5.9792117469e+02 0.0000000000e+00 0.0000e+00 -1.0000e+00
      -13  1    1    2    0    0 -1.9329698382e+02 +1.7092660721e+02 -5.5472713509e+02 6.1180211132e+02 0.0000000000e+00 0.0000e+00 -1.0000e+00
       13  1    1    2    0    0 +1.9329698382e+02 -1.7092660721e+02 +1.1210067227e+03 1.1503198256e+03 0.0000000000e+00 0.0000e+00 1.0000e+00
<mgrwt>
<rscale>  0 0.16686525E+04</rscale>
<asrwt>0</asrwt>
<pdfrwt beam="1">  1        2 0.17910781E+00 0.16686525E+04</pdfrwt>
<pdfrwt beam="2">  1       -2 0.91987873E-01 0.16686525E+04</pdfrwt>
<totfact> 0.24268272E+01</totfact>
</mgrwt>
<rwgt>
<wgt id='morphing_basis_vector_1'> +1.6727097e-04 </wgt>
<wgt id='morphing_basis_vector_2'> +1.1019918e-04 </wgt>
<wgt id='morphing_basis_vector_3'> +1.7568974e-04 </wgt>
<wgt id='morphing_basis_vector_4'> +1.2034627e-04 </wgt>
<wgt id='morphing_basis_vector_5'> +1.9158477e-04 </wgt>
</rwgt>
</event>
<event>
 4      1 +1.5130300e-07 1.68955400e+03 7.81860800e-03 8.21255100e-02
        2 -1    0    0  501    0 +0.0000000000e+00 +0.0000000000e+00 +1.0965821715e+03 1.0965821715e+03 0.0000000000e+00 0.0000e+00 -1.0000e+00
       -2 -1    0    0    0  501 -0.0000000000e+00 -0.0000000000e+00 -6.5079293779e+02 6.5079293779e+02 0.0000000000e+00 0.0000e+00 1.0000e+00
      -13  1    1    2    0    0 +6.8761172032e+02 +2.0459134401e+02 -2.3844349453e+02 7.5599126718e+02 0.0000000000e+00 0.0000e+00 1.0000e+00
       13  1    1    2    0    0 -6.8761172032e+02 -2.0459134401e+02 +6.8423272819e+02 9.9138384206e+02 0.0000000000e+00 0.0000e+00 -1.0000e+00
<mgrwt>
<rscale>  0 0.16895537E+04</rscale>
<asrwt>0</asrwt>
<pdfrwt beam="1">  1        2 0.16870495E+00 0.16895537E+04</pdfrwt>
<pdfrwt beam="2">  1       -2 0.10012199E+00 0.16895537E+04</pdfrwt>
<totfact> 0.21735123E+01</totfact>
</mgrwt>
<rwgt>
<wgt id='morphing_basis_vector_1'> +1.7622787e-04 </wgt>
<wgt id='morphing_basis_vector_2'> +1.1773255e-04 </wgt>
<wgt id='morphing_basis_vector_3'> +1.8555279e-04 </wgt>
<wgt id='morphing_basis_vector_4'> +1.2538317e-04 </wgt>
<wgt id='morphing_basis_vector_5'> +2.0155703e-04 </wgt>
</rwgt>
</event>
<event>
 4      1 +1.5130300e-07 1.58315400e+03 7.81860800e-03 8.26822200e-02
        2 -1    0    0  501    0 +0.0000000000e+00 +0.0000000000e+00 +1.9289368279e+03 1.9289368279e+03 0.0000000000e+00 0.0000e+00 -1.0000e+00
       -2 -1    0    0    0  501 -0.0000000000e+00 -0.0000000000e+00 -3.2483920819e+02 3.2483920819e+02 0.0000000000e+00 0.0000e+00 1.0000e+00
      -13  1    1    2    0    0 +2.7879009585e+02 -6.3442859124e+02 +2.5740233583e+02 7.3924252950e+02 0.0000000000e+00 0.0000e+00 1.0000e+00
       13  1    1    2    0    0 -2.7879009585e+02 +6.3442859124e+02 +1.3466952838e+03 1.5145335066e+03 0.0000000000e+00 0.0000e+00 -1.0000e+00
<mgrwt>
<rscale>  0 0.15831542E+04</rscale>
<asrwt>0</asrwt>
<pdfrwt beam="1">  1        2 0.29675951E+00 0.15831542E+04</pdfrwt>
<pdfrwt beam="2">  1       -2 0.49975264E-01 0.15831542E+04</pdfrwt>
<totfact> 0.33476748E+01</totfact>
</mgrwt>
<rwgt>
<wgt id='morphing_basis_vector_1'> +1.3705686e-04 </wgt>
<wgt id='morphing_basis_vector_2'> +9.1493255e-05 </wgt>
<wgt id='morphing_basis_vector_3'> +1.4332497e-04 </wgt>
<wgt id='morphing_basis_vector_4'> +9.5663980e-05 </wgt>
<wgt id='morphing_basis_vector_5'> +1.5413699e-04 </wgt>
</rwgt>
</event>
<event>
 4      1 +1.5130300e-07 1.58399100e+03 7.81860800e-03 8.26776700e-02
        2 -1    0    0  501    0 +0.0000000000e+00 +0.0000000000e+00 +1.3430182501e+03 1.3430182501e+03 0.0000000000e+00 0.0000e+00 1.0000e+00
       -2 -1    0    0    0  501 -0.0000000000e+00 -0.0000000000e+00 -4.6704987511e+02 4.6704987511e+02 0.0000000000e+00 0.0000e+00 -1.0000e+00
      -13  1    1    2    0    0 -3.8980798560e+02 +3.6599459568e+02 -2.2965982830e+02 5.8193293982e+02 0.0000000000e+00 0.0000e+00 -1.0000e+00
       13  1    1    2    0    0 +3.8980798560e+02 -3.6599459568e+02 +1.1056282033e+03 1.2281351854e+03 0.0000000000e+00 0.0000e+00 1.0000e+00
<mgrwt>
<rscale>  0 0.15839905E+04</rscale>
<asrwt>0</asrwt>
<pdfrwt beam="1">  1        2 0.20661819E+00 0.15839905E+04</pdfrwt>
<pdfrwt beam="2">  1       -2 0.71853827E-01 0.15839905E+04</pdfrwt>
<totfact> 0.33728041E+01</totfact>
</mgrwt>
<rwgt>
<wgt id='morphing_basis_vector_1'> +1.3680202e-04 </wgt>
<wgt id='morphing_basis_vector_2'> +9.0090268e-05 </wgt>
<wgt id='morphing_basis_vector_3'> +1.4290810e-04 </wgt>
<wgt id='morphing_basis_vector_4'> +9.6887026e-05 </wgt>
<wgt id='morphing_basis_vector_5'> +1.5454995e-04 </wgt>
</rwgt>
</event>
<event>
 4      1 +1.5130300e-07 1.65769000e+03 7.81860800e-03 8.22877100e-02
        2 -1    0    0  501    0 +0.0000000000e+00 +0.0000000000e+00 +6.6821527260e+02 6.6821527260e+02 0.0000000000e+00 0.0000e+00 -1.0000e+00
       -2 -1    0    0    0  501 -0.0000000000e+00 -0.0000000000e+00 -1.0280882391e+03 1.0280882391e+03 0.0000000000e+00 0.0000e+00 1.0000e+00
      -13  1    1    2    0    0 +1.5721305351e+02 +1.1393478775e+02 -1.0044895023e+03 1.0230817368e+03 0.0000000000e+00 0.0000e+00 1.0000e+00
       13  1    1    2    0    0 -1.5721305351e+02 -1.1393478775e+02 +6.4461653575e+02 6.7322177491e+02 0.0000000000e+00 0.0000e+00 -1.0000e+00
<mgrwt>
<rscale>  0 0.16576903E+04</rscale>
<asrwt>0</asrwt>
<pdfrwt beam="1">  1        2 0.10280235E+00 0.16576903E+04</pdfrwt>
<pdfrwt beam="2">  1       -2 0.15816742E+00 0.16576903E+04</pdfrwt>
<totfact> 0.12544402E+01</totfact>
</mgrwt>
<rwgt>
<wgt id='morphing_basis_vector_1'> +1.6304009e-04 </wgt>
<wgt id='morphing_basis_vector_2'> +1.0735901e-04 </wgt>
<wgt id='morphing_basis_vector_3'> +1.7112682e-04 </wgt>
<wgt id='morphing_basis_vector_4'> +1.1713294e-04 </wgt>
<wgt id='morphing_basis_vector_5'> +1.8645544e-04 </wgt>
</rwgt>
</event>
<event>
 4      1 +1.5130300e-07 1.65377000e+03 7.81860800e-03 8.23079200e-02
        2 -1    0    0  501    0 +0.0000000000e+00 +0.0000000000e+00 +1.0008675100e+03 1.0008675100e+03 0.0000000000e+00 0.0000e+00 -1.0000e+00
       -2 -1    0    0    0  501 -0.0000000000e+00 -0.0000000000e+00 -6.8314627406e+02 6.8314627406e+02 0.0000000000e+00 0.0000e+00 1.0000e+00
      -13  1    1    2    0    0 -1.7529352198e+02 -1.4904291765e+02 -6.4989146367e+02 6.8942042666e+02 0.0000000000e+00 0.0000e+00 1.0000e+00
       13  1    1    2    0    0 +1.7529352198e+02 +1.4904291765e+02 +9.6761269964e+02 9.9459335743e+02 0.0000000000e+00 0.0000e+00 -1.0000e+00
<mgrwt>
<rscale>  0 0.16537701E+04</rscale>
<asrwt>0</asrwt>
<pdfrwt beam="1">  1        2 0.15397962E+00 0.16537701E+04</pdfrwt>
<pdfrwt beam="2">  1       -2 0.10509943E+00 0.16537701E+04</pdfrwt>
<totfact> 0.22160391E+01</totfact>
</mgrwt>
<rwgt>
<wgt id='morphing_basis_vector_1'> +1.6154933e-04 </wgt>
<wgt id='morphing_basis_vector_2'> +1.0636391e-04 </wgt>
<wgt id='morphing_basis_vector_3'> +1.6952016e-04 </wgt>
<wgt id='morphing_basis_vector_4'> +1.1599494e-04 </wgt>
<wgt id='morphing_basis_vector_5'> +1.8464583e-04 </wgt>
</rwgt>
</event>
<event>
 4      1 +1.5130300e-07 1.81825300e+03 7.81860800e-03 8.15057300e-02
        2 -1    0    0  501    0 +0.0000000000e+00 +0.0000000000e+00 +1.4563226024e+03 1.4563226024e+03 0.0000000000e+00 0.0000e+00 1.0000e+00
       -2 -1    0    0    0  501 -0.0000000000e+00 -0.0000000000e+00 -5.6753297444e+02 5.6753297444e+02 0.0000000000e+00 0.0000e+00 -1.0000e+00
      -13  1    1    2    0    0 -3.4484573186e+02 +7.5048889872e+02 +2.1485735444e+01 8.2620445576e+02 0.0000000000e+00 0.0000e+00 -1.0000e+00
       13  1    1    2    0    0 +3.4484573186e+02 -7.5048889872e+02 +8.6730389255e+02 1.1976511211e+03 0.0000000000e+00 0.0000e+00 1.0000e+00
<mgrwt>
<rscale>  0 0.18182531E+04</rscale>
<asrwt>0</asrwt>
<pdfrwt beam="1">  1        2 0.22404963E+00 0.18182531E+04</pdfrwt>
<pdfrwt beam="2">  1       -2 0.87312766E-01 0.18182531E+04</pdfrwt>
<totfact> 0.18404578E+01</totfact>
</mgrwt>
<rwgt>
<wgt id='morphing_basis_vector_1'> +2.3524122e-04 </wgt>
<wgt id='morphing_basis_vector_2'> +1.5937695e-04 </wgt>
<wgt id='morphing_basis_vector_3'> +2.4968505e-04 </wgt>
<wgt id='morphing_basis_vector_4'> +1.6812072e-04 </wgt>
<wgt id='morphing_basis_vector_5'> +2.7235303e-04 </wgt>
</rwgt>
</event>
<event>
 4      1 +1.5130300e-07 1.70736500e+03 7.81860800e-03 8.20364300e-02
        2 -1    0    0  501    0 +0.0000000000e+00 +0.0000000000e+00 +1.4018959168e+03 1.4018959168e+03 0.0000000000e+00 0.0000e+00 -1.0000e+00
       -2 -1    0    0    0  501 -0.0000000000e+00 -0.0000000000e+00 -5.1984867411e+02 5.1984867411e+02 0.0000000000e+00 0.0000e+00 1.0000e+00
      -13  1    1    2    0    0 +1.2809768993e+02 -4.1038333813e+02 -3.8911171108e+02 5.7985465945e+02 0.0000000000e+00 0.0000e+00 1.0000e+00
       13  1    1    2    0    0 -1.2809768993e+02 +4.1038333813e+02 +1.2711589537e+03 1.3418899314e+03 0.0000000000e+00 0.0000e+00 -1.0000e+00
<mgrwt>
<rscale>  0 0.17073649E+04</rscale>
<asrwt>0</asrwt>
<pdfrwt beam="1">  1        2 0.21567629E+00 0.17073649E+04</pdfrwt>
<pdfrwt beam="2">  1       -2 0.79976720E-01 0.17073649E+04</pdfrwt>
<totfact> 0.24384353E+01</totfact>
</mgrwt>
<rwgt>
<wgt id='morphing_basis_vector_1'> +1.8290433e-04 </wgt>
<wgt id='morphing_basis_vector_2'> +1.2075481e-04 </wgt>
<wgt id='morphing_basis_vector_3'> +1.9257092e-04 </wgt>
<wgt id='morphing_basis_vector_4'> +1.3217458e-04 </wgt>
<wgt id='morphing_basis_vector_5'> +2.1053740e-04 </wgt>
</rwgt>
</event>
<event>
 4      1 +1.5130300e-07 1.84615200e+03 7.81860800e-03 8.13783200e-02
        2 -1    0    0  501    0 +0.0000000000e+00 +0.0000000000e+00 +1.5851292938e+03 1.5851292938e+03 0.0000000000e+00 0.0000e+00 1.0000e+00
       -2 -1    0    0    0  501 -0.0000000000e+00 -0.0000000000e+00 -5.3753922226e+02 5.3753922226e+02 0.0000000000e+00 0.0000e+00 -1.0000e+00
      -13  1    1    2    0    0 -3.1481374884e+01 -6.9711993991e+02 -1.7094414494e+02 7.1846307371e+02 0.0000000000e+00 0.0000e+00 -1.0000e+00
       13  1    1    2    0    0 +3.1481374884e+01 +6.9711993991e+02 +1.2185342165e+03 1.4042054424e+03 0.0000000000e+00 0.0000e+00 1.0000e+00
<mgrwt>
<rscale>  0 0.18461519E+04</rscale>
<asrwt>0</asrwt>
<pdfrwt beam="1">  1        2 0.24386604E+00 0.18461519E+04</pdfrwt>
<pdfrwt beam="2">  1       -2 0.82698343E-01 0.18461519E+04</pdfrwt>
<totfact> 0.17627301E+01</totfact>
</mgrwt>
<rwgt>
<wgt id='morphing_basis_vector_1'> +2.4842359e-04 </wgt>
<wgt id='morphing_basis_vector_2'> +1.6563800e-04 </wgt>
<wgt id='morphing_basis_vector_3'> +2.6359493e-04 </wgt>
<wgt id='morphing_basis_vector_4'> +1.8133756e-04 </wgt>
<wgt id='morphing_basis_vector_5'> +2.9006941e-04 </wgt>
</rwgt>
</event>
<event>
 4      1 +1.5130300e-07 1.59459300e+03 7.81860800e-03 8.26202400e-02
        2 -1    0    0  501    0 +0.0000000000e+00 +0.0000000000e+00 +1.3689663944e+03 1.3689663944e+03 0.0000000000e+00 0.0000e+00 -1.0000e+00
       -2 -1    0    0    0  501 -0.0000000000e+00 -0.0000000000e+00 -4.6435133055e+02 4.6435133055e+02 0.0000000000e+00 0.0000e+00 1.0000e+00
      -13  1    1    2    0    0 -4.2309489644e+02 +5.7001526971e+02 +3.4985795478e+01 7.1073954793e+02 0.0000000000e+00 0.0000e+00 1.0000e+00
       13  1    1    2    0    0 +4.2309489644e+02 -5.7001526971e+02 +8.6962926833e+02 1.1225781770e+03 0.0000000000e+00 0.0000e+00 -1.0000e+00
<mgrwt>
<rscale>  0 0.15945926E+04</rscale>
<asrwt>0</asrwt>
<pdfrwt beam="1">  1        2 0.21061021E+00 0.15945926E+04</pdfrwt>
<pdfrwt beam="2">  1       -2 0.71438667E-01 0.15945926E+04</pdfrwt>
<totfact> 0.32984608E+01</totfact>
</mgrwt>
<rwgt>
<wgt id='morphing_basis_vector_1'> +1.4103608e-04 </wgt>
<wgt id='morphing_basis_vector_2'> +9.4435196e-05 </wgt>
<wgt id='morphing_basis_vector_3'> +1.4764056e-04 </wgt>
<wgt id='morphing_basis_vector_4'> +9.8350122e-05 </wgt>
<wgt id='morphing_basis_vector_5'> +1.5877281e-04 </wgt>
</rwgt>
</event>
<event>
 4      1 +1.5130300e-07 1.75336500e+03 7.81860800e-03 8.18114200e-02
        2 -1    0    0  501    0 +0.0000000000e+00 +0.0000000000e+00 +2.2108790297e+03 2.2108790297e+03 0.0000000000e+00 0.0000e+00 1.0000e+00
       -2 -1    0    0    0  501 -0.0000000000e+00 -0.0000000000e+00 -3.4763214653e+02 3.4763214653e+02 0.0000000000e+00 0.0000e+00 -1.0000e+00
      -13  1    1    2    0    0 -7.2197532025e+02 +4.8752367411e+00 +2.0597317764e+02 7.5079762978e+02 0.0000000000e+00 0.0000e+00 -1.0000e+00
       13  1    1    2    0    0 +7.2197532025e+02 -4.8752367411e+00 +1.6572737056e+03 1.8077135465e+03 0.0000000000e+00 0.0000e+00 1.0000e+00
<mgrwt>
<rscale>  0 0.17533655E+04</rscale>
<asrwt>0</asrwt>
<pdfrwt beam="1">  1        2 0.34013523E+00 0.17533655E+04</pdfrwt>
<pdfrwt beam="2">  1       -2 0.53481870E-01 0.17533655E+04</pdfrwt>
<totfact> 0.19988051E+01</totfact>
</mgrwt>
<rwgt>
<wgt id='morphing_basis_vector_1'> +2.0342476e-04 </wgt>
<wgt id='morphing_basis_vector_2'> +1.3585143e-04 </wgt>
<wgt id='morphing_basis_vector_3'> +2.1492850e-04 </wgt>
<wgt id='morphing_basis_vector_4'> +1.4629380e-04 </wgt>
<wgt id='morphing_basis_vector_5'> +2.3475053e-04 </wgt>
</rwgt>
</event>
<event>
 4      1 +1.5130300e-07 1.58307200e+03 7.81860800e-03 8.26826700e-02
        2 -1    0    0  501    0 +0.0000000000e+00 +0.0000000000e+00 +9.1033729529e+02 9.1033729529e+02 0.0000000000e+00 0.0000e+00 1.0000e+00
       -2 -1    0    0    0  501 -0.0000000000e+00 -0.0000000000e+00 -6.8823849967e+02 6.8823849967e+02 0.0000000000e+00 0.0000e+00 -1.0000e+00
      -13  1    1    2    0    0 -4.3854842559e+02 -6.0870257356e+02 -1.4378221993e+02 7.6388276026e+02 0.0000000000e+00 0.0000e+00 -1.0000e+00
       13  1    1    2    0    0 +4.3854842559e+02 +6.0870257356e+02 +3.6588101555e+02 8.3469303471e+02 0.0000000000e+00 0.0000e+00 1.0000e+00
<mgrwt>
<rscale>  0 0.15830719E+04</rscale>
<asrwt>0</asrwt>
<pdfrwt beam="1">  1        2 0.14005189E+00 0.15830719E+04</pdfrwt>
<pdfrwt beam="2">  1       -2 0.10588285E+00 0.15830719E+04</pdfrwt>
<totfact> 0.24990597E+01</totfact>
</mgrwt>
<rwgt>
<wgt id='morphing_basis_vector_1'> +1.3779730e-04 </wgt>
<wgt id='morphing_basis_vector_2'> +9.3760469e-05 </wgt>
<wgt id='morphing_basis_vector_3'> +1.4432656e-04 </wgt>
<wgt id='morphing_basis_vector_4'> +9.4188610e-05 </wgt>
<wgt id='morphing_basis_vector_5'> +1.5399435e-04 </wgt>
</rwgt>
</event>
<event>
 4      1 +1.5130300e-07 1.69090600e+03 7.81860800e-03 8.21187100e-02
        2 -1    0    0  501    0 +0.0000000000e+00 +0.0000000000e+00 +1.2002764855e+03 1.2002764855e+03 0.0000000000e+00 0.0000e+00 1.0000e+00
       -2 -1    0    0    0  501 -0.0000000000e+00 -0.0000000000e+00 -5.9552198811e+02 5.9552198811e+02 0.0000000000e+00 0.0000e+00 -1.0000e+00
      -13  1    1    2    0    0 +7.6380085485e+00 +3.9014104673e+02 -4.9416362293e+02 6.2965551038e+02 0.0000000000e+00 0.0000e+00 -1.0000e+00
       13  1    1    2    0    0 -7.6380085485e+00 -3.9014104673e+02 +1.0989181203e+03 1.1661429632e+03 0.0000000000e+00 0.0000e+00 1.0000e+00
<mgrwt>
<rscale>  0 0.16909063E+04</rscale>
<asrwt>0</asrwt>
<pdfrwt beam="1">  1        2 0.18465792E+00 0.16909063E+04</pdfrwt>
<pdfrwt beam="2">  1       -2 0.91618767E-01 0.16909063E+04</pdfrwt>
<totfact> 0.23287574E+01</totfact>
</mgrwt>
<rwgt>
<wgt id='morphing_basis_vector_1'> +1.7613000e-04 </wgt>
<wgt id='morphing_basis_vector_2'> +1.1618280e-04 </wgt>
<wgt id='morphing_basis_vector_3'> +1.8525369e-04 </wgt>
<wgt id='morphing_basis_vector_4'> +1.2704192e-04 </wgt>
<wgt id='morphing_basis_vector_5'> +2.0231696e-04 </wgt>
</rwgt>
</event>
<event>
 4      1 +1.5130300e-07 1.66377300e+03 7.81860800e-03 8.22564600e-02
        2 -1    0    0  501    0 +0.0000000000e+00 +0.0000000000e+00 +8.0240470771e+02 8.0240470771e+02 0.0000000000e+00 0.0000e+00 -1.0000e+00
       -2 -1    0    0    0  501 -0.0000000000e+00 -0.0000000000e+00 -8.6245148578e+02 8.6245148578e+02 0.0000000000e+00 0.0000e+00 1.0000e+00
      -13  1    1    2    0    0 -4.8100529050e+02 -2.7754579034e+02 -6.4981132085e+02 8.5478214062e+02 0.0000000000e+00 0.0000e+00 1.0000e+00
       13  1    1    2    0    0 +4.8100529050e+02 +2.7754579034e+02 +5.8976454278e+02 8.1007405287e+02 0.0000000000e+00 0.0000e+00 -1.0000e+00
<mgrwt>
<rscale>  0 0.16637730E+04</rscale>
<asrwt>0</asrwt>
<pdfrwt beam="1">  1        2 0.12344688E+00 0.16637730E+04</pdfrwt>
<pdfrwt beam="2">  1       -2 0.13268484E+00 0.16637730E+04</pdfrwt>
<totfact> 0.16377540E+01</totfact>
</mgrwt>
<rwgt>
<wgt id='morphing_basis_vector_1'> +1.6551766e-04 </wgt>
<wgt id='morphing_basis_vector_2'> +1.0934445e-04 </wgt>
<wgt id='morphing_basis_vector_3'> +1.7383960e-04 </wgt>
<wgt id='morphing_basis_vector_4'> +1.1863928e-04 </wgt>
<wgt id='morphing_basis_vector_5'> +1.8926834e-04 </wgt>
</rwgt>
</event>
<event>
 4      1 +1.5130300e-07 1.60057100e+03 7.81860800e-03 8.25880600e-02
        2 -1    0    0  501    0 +0.0000000000e+00 +0.0000000000e+00 +1.7223058058e+03 1.7223058058e+03 0.0000000000e+00 0.0000e+00 1.0000e+00
       -2 -1    0    0    0  501 -0.0000000000e+00 -0.0000000000e+00 -3.7185999900e+02 3.7185999900e+02 0.0000000000e+00 0.0000e+00 -1.0000e+00
      -13  1    1    2    0    0 -6.7262689060e+02 -3.3739800714e+02 +3.1884105177e+02 8.1726615339e+02 0.0000000000e+00 0.0000e+00 -1.0000e+00
       13  1    1    2    0    0 +6.7262689060e+02 +3.3739800714e+02 +1.0316047550e+03 1.2768996514e+03 0.0000000000e+00 0.0000e+00 1.0000e+00
<mgrwt>
<rscale>  0 0.16005707E+04</rscale>
<asrwt>0</asrwt>
<pdfrwt beam="1">  1        2 0.26497012E+00 0.16005707E+04</pdfrwt>
<pdfrwt beam="2">  1       -2 0.57209232E-01 0.16005707E+04</pdfrwt>
<totfact> 0.33262855E+01</totfact>
</mgrwt>
<rwgt>
<wgt id='morphing_basis_vector_1'> +1.4365901e-04 </wgt>
<wgt id='morphing_basis_vector_2'> +9.7514203e-05 </wgt>
<wgt id='morphing_basis_vector_3'> +1.5062118e-04 </wgt>
<wgt id='morphing_basis_vector_4'> +9.8809357e-05 </wgt>
<wgt id='morphing_basis_vector_5'> +1.6116342e-04 </wgt>
</rwgt>
</event>
<event>
 4      1 +1.5130300e-07 1.56739500e+03 7.81860800e-03 8.27685000e-02
        2 -1    0    0  501    0 +0.0000000000e+00 +0.0000000000e+00 +5.6369776450e+02 5.6369776450e+02 0.0000000000e+00 0.0000e+00 -1.0000e+00
       -2 -1    0    0    0  501 -0.0000000000e+00 -0.0000000000e+00 -1.0895580351e+03 1.0895580351e+03 0.0000000000e+00 0.0000e+00 1.0000e+00
      -13  1    1    2    0    0 +4.3175207140e+02 +6.2817509640e+02 -4.5502639628e+02 8.8772902634e+02 0.0000000000e+00 0.0000e+00 1.0000e+00
       13  1    1    2    0    0 -4.3175207140e+02 -6.2817509640e+02 -7.0833874375e+01 7.6552677331e+02 0.0000000000e+00 0.0000e+00 -1.0000e+00
<mgrwt>
<rscale>  0 0.15673946E+04</rscale>
<asrwt>0</asrwt>
<pdfrwt beam="1">  1        2 0.86722733E-01 0.15673946E+04</pdfrwt>
<pdfrwt beam="2">  1       -2 0.16762431E+00 0.15673946E+04</pdfrwt>
<totfact> 0.13006597E+01</totfact>
</mgrwt>
<rwgt>
<wgt id='morphing_basis_vector_1'> +1.3318708e-04 </wgt>
<wgt id='morphing_basis_vector_2'> +9.1936640e-05 </wgt>
<wgt id='morphing_basis_vector_3'> +1.3950486e-04 </wgt>
<wgt id='morphing_basis_vector_4'> +8.9269444e-05 </wgt>
<wgt id='morphing_basis_vector_5'> +1.4770621e-04 </wgt>
</rwgt>
</event>
<event>
 4      1 +1.5130300e-07 1.61843300e+03 7.81860800e-03 8.24927700e-02
        2 -1    0    0  501    0 +0.0000000000e+00 +0.0000000000e+00 +1.1095409093e+03 1.1095409093e+03 0.0000000000e+00 0.0000e+00 1.0000e+00
       -2 -1    0    0    0  501 -0.0000000000e+00 -0.0000000000e+00 -5.9018208852e+02 5.9018208852e+02 0.0000000000e+00 0.0000e+00 -1.0000e+00
      -13  1    1    2    0    0 -2.3320687646e+02 -5.0798431264e+02 -3.5485878109e+02 6.6208629621e+02 0.0000000000e+00 0.0000e+00 -1.0000e+00
       13  1    1    2    0    0 +2.3320687646e+02 +5.0798431264e+02 +8.7421760189e+02 1.0376367016e+03 0.0000000000e+00 0.0000e+00 1.0000e+00
<mgrwt>
<rscale>  0 0.16184328E+04</rscale>
<asrwt>0</asrwt>
<pdfrwt beam="1">  1        2 0.17069860E+00 0.16184328E+04</pdfrwt>
<pdfrwt beam="2">  1       -2 0.90797244E-01 0.16184328E+04</pdfrwt>
<totfact> 0.27077045E+01</totfact>
</mgrwt>
<rwgt>
<wgt id='morphing_basis_vector_1'> +1.4871314e-04 </wgt>
<wgt id='morphing_basis_vector_2'> +9.8122924e-05 </wgt>
<wgt id='morphing_basis_vector_3'> +1.5573394e-04 </wgt>
<wgt id='morphing_basis_vector_4'> +1.0583577e-04 </wgt>
<wgt id='morphing_basis_vector_5'> +1.6889593e-04 </wgt>
</rwgt>
</event>
<event>
 4      1 +1.5130300e-07 1.72521900e+03 7.81860800e-03 8.19482400e-02
        2 -1    0    0  501    0 +0.0000000000e+00 +0.0000000000e+00 +4.8961900369e+02 4.8961900369e+02 0.0000000000e+00 0.0000e+00 -1.0000e+00
       -2 -1    0    0    0  501 -0.0000000000e+00 -0.0000000000e+00 -1.5197439645e+03 1.5197439645e+03 0.0000000000e+00 0.0000e+00 1.0000e+00
      -13  1    1    2    0    0 +4.8410361927e+02 -6.6309010532e+02 -2.0680021524e+02 8.4664699314e+02 0.0000000000e+00 0.0000e+00 1.0000e+00
       13  1    1    2    0    0 -4.8410361927e+02 +6.6309010532e+02 -8.2332474554e+02 1.1627159750e+03 0.0000000000e+00 0.0000e+00 -1.0000e+00
<mgrwt>
<rscale>  0 0.17252194E+04</rscale>
<asrwt>0</asrwt>
<pdfrwt beam="1">  1        2 0.75326002E-01 0.17252194E+04</pdfrwt>
<pdfrwt beam="2">  1       -2 0.23380676E+00 0.17252194E+04</pdfrwt>
<totfact> 0.49306938E+00</totfact>
</mgrwt>
<rwgt>
<wgt id='morphing_basis_vector_1'> +2.1013327e-04 </wgt>
<wgt id='morphing_basis_vector_2'> +1.8425227e-04 </wgt>
<wgt id='morphing_basis_vector_3'> +2.2807895e-04 </wgt>
<wgt id='morphing_basis_vector_4'> +9.9890965e-05 </wgt>
<wgt id='morphing_basis_vector_5'> +2.1681129e-04 </wgt>
</rwgt>
</event>
<event>
 4      1 +1.5130300e-07 1.57591100e+03 7.81860800e-03 8.27217400e-02
        2 -1    0    0  501    0 +0.0000000000e+00 +0.0000000000e+00 +6.8652458969e+02 6.8652458969e+02 0.0000000000e+00 0.0000e+00 -1.0000e+00
       -2 -1    0    0    0  501 -0.0000000000e+00 -0.0000000000e+00 -9.0437287017e+02 9.0437287017e+02 0.0000000000e+00 0.0000e+00 1.0000e+00
      -13  1    1    2    0    0 +3.2423450401e+02 +3.2898140980e+02 -7.5336560597e+02 8.8369481035e+02 0.0000000000e+00 0.0000e+00 1.0000e+00
       13  1    1    2    0    0 -3.2423450401e+02 -3.2898140980e+02 +5.3551732549e+02 7.0720264951e+02 0.0000000000e+00 0.0000e+00 -1.0000e+00
<mgrwt>
<rscale>  0 0.15759114E+04</rscale>
<asrwt>0</asrwt>
<pdfrwt beam="1">  1        2 0.10561917E+00 0.15759114E+04</pdfrwt>
<pdfrwt beam="2">  1       -2 0.13913429E+00 0.15759114E+04</pdfrwt>
<totfact> 0.17603993E+01</totfact>
</mgrwt>
<rwgt>
<wgt id='morphing_basis_vector_1'> +1.3405644e-04 </wgt>
<wgt id='morphing_basis_vector_2'> +8.8102746e-05 </wgt>
<wgt id='morphing_basis_vector_3'> +1.3993837e-04 </wgt>
<wgt id='morphing_basis_vector_4'> +9.4984781e-05 </wgt>
<wgt id='morphing_basis_vector_5'> +1.5132870e-04 </wgt>
</rwgt>
</event>
<event>
 4      1 +1.5130300e-07 1.65319000e+03 7.81860800e-03 8.23109200e-02
        2 -1    0    0  501    0 +0.0000000000e+00 +0.0000000000e+00 +1.2105444366e+03 1.2105444366e+03 0.0000000000e+00 0.0000e+00 -1.0000e+00
       -2 -1    0    0    0  501 -0.0000000000e+00 -0.0000000000e+00 -5.6442321582e+02 5.6442321582e+02 0.0000000000e+00 0.0000e+00 1.0000e+00
      -13  1    1    2    0    0 +4.2258578057e+02 +2.4855623777e+02 +1.0375909922e+03 1.1475861678e+03 0.0000000000e+00 0.0000e+00 -1.0000e+00
       13  1    1    2    0    0 -4.2258578057e+02 -2.4855623777e+02 -3.9146977149e+02 6.2738148463e+02 0.0000000000e+00 0.0000e+00 1.0000e+00
<mgrwt>
<rscale>  0 0.16531901E+04</rscale>
<asrwt>0</asrwt>
<pdfrwt beam="1">  1        2 0.18623760E+00 0.16531901E+04</pdfrwt>
<pdfrwt beam="2">  1       -2 0.86834341E-01 0.16531901E+04</pdfrwt>
<totfact> 0.26111319E+01</totfact>
</mgrwt>
<rwgt>
<wgt id='morphing_basis_vector_1'> +2.1518950e-04 </wgt>
<wgt id='morphing_basis_vector_2'> +2.6634412e-04 </wgt>
<wgt id='morphing_basis_vector_3'> +2.4293819e-04 </wgt>
<wgt id='morphing_basis_vector_4'> +1.2676296e-05 </wgt>
<wgt id='morphing_basis_vector_5'> +1.7652834e-04 </wgt>
</rwgt>
</event>
<event>
 4      1 +1.5130300e-07 1.56404700e+03 7.81860800e-03 8.27869600e-02
        2 -1    0    0  501    0 +0.0000000000e+00 +0.0000000000e+00 +3.4708829905e+03 3.4708829905e+03 0.0000000000e+00 0.0000e+00 1.0000e+00
       -2 -1    0    0    0  501 -0.0000000000e+00 -0.0000000000e+00 -1.7619743445e+02 1.7619743445e+02 0.0000000000e+00 0.0000e+00 -1.0000e+00
      -13  1    1    2    0    0 +3.5267986249e+02 +5.6704955731e+02 +6.9833842322e+02 9.6623229049e+02 0.0000000000e+00 0.0000e+00 -1.0000e+00
       13  1    1    2    0    0 -3.5267986249e+02 -5.6704955731e+02 +2.5963471328e+03 2.6808481344e+03 0.0000000000e+00 0.0000e+00 1.0000e+00
<mgrwt>
<rscale>  0 0.15640469E+04</rscale>
<asrwt>0</asrwt>
<pdfrwt beam="1">  1        2 0.53398195E+00 0.15640469E+04</pdfrwt>
<pdfrwt beam="2">  1       -2 0.27107300E-01 0.15640469E+04</pdfrwt>
<totfact> 0.11424663E+01</totfact>
</mgrwt>
<rwgt>
<wgt id='morphing_basis_vector_1'> +1.3065141e-04 </wgt>
<wgt id='morphing_basis_vector_2'> +8.6884034e-05 </wgt>
<wgt id='morphing_basis_vector_3'> +1.3639800e-04 </wgt>
<wgt id='morphing_basis_vector_4'> +9.1200743e-05 </wgt>
<wgt id='morphing_basis_vector_5'> +1.4661062e-04 </wgt>
</rwgt>
</event>
<event>
 4      1 +1.5130300e-07 1.55548600e+03 7.81860800e-03 8.28344000e-02
        2 -1    0    0  501    0 +0.0000000000e+00 +0.0000000000e+00 +2.3939037508e+03 2.3939037508e+03 0.0000000000e+00 0.0000e+00 1.0000e+00
       -2 -1    0    0    0  501 -0.0000000000e+00 -0.0000000000e+00 -2.5267678482e+02 2.5267678482e+02 0.0000000000e+00 0.0000e+00 -1.0000e+00
      -13  1    1    2    0    0 +5.1073987760e+01 +7.4652129177e+02 +1.4314705064e+03 1.6152431402e+03 0.0000000000e+00 0.0000e+00 1.0000e+00
       13  1    1    2    0    0 -5.1073987760e+01 -7.4652129177e+02 +7.0975645962e+02 1.0313373955e+03 0.0000000000e+00 0.0000e+00 -1.0000e+00
<mgrwt>
<rscale>  0 0.15554857E+04</rscale>
<asrwt>0</asrwt>
<pdfrwt beam="1">  1        2 0.36829287E+00 0.15554857E+04</pdfrwt>
<pdfrwt beam="2">  1       -2 0.38873353E-01 0.15554857E+04</pdfrwt>
<totfact> 0.29453017E+01</totfact>
</mgrwt>
<rwgt>
<wgt id='morphing_basis_vector_1'> +1.3919690e-04 </wgt>
<wgt id='morphing_basis_vector_2'> +1.1864685e-04 </wgt>
<wgt id='morphing_basis_vector_3'> +1.4848577e-04 </wgt>
<wgt id='morphing_basis_vector_4'> +6.7870620e-05 </wgt>
<wgt id='morphing_basis_vector_5'> +1.4172584e-04 </wgt>
</rwgt>
</event>
<event>
 4      1 +1.5130300e-07 1.62552300e+03 7.81860800e-03 8.24553000e-02
        2 -1    0    0  501    0 +0.0000000000e+00 +0.0000000000e+00 +9.3869639897e+02 9.3869639897e+02 0.0000000000e+00 0.0000e+00 1.0000e+00
       -2 -1    0    0    0  501 -0.0000000000e+00 -0.0000000000e+00 -7.0372165184e+02 7.0372165184e+02 0.0000000000e+00 0.0000e+00 -1.0000e+00
      -13  1    1    2    0    0 -6.3353323350e+01 +2.6904687703e+02 -6.5477422156e+02 7.1072438177e+02 0.0000000000e+00 0.0000e+00 -1.0000e+00
       13  1    1    2    0    0 +6.3353323350e+01 -2.6904687703e+02 +8.8974896870e+02 9.3169366904e+02 0.0000000000e+00 0.0000e+00 1.0000e+00
<mgrwt>
<rscale>  0 0.16255227E+04</rscale>
<asrwt>0</asrwt>
<pdfrwt beam="1">  1        2 0.14441483E+00 0.16255227E+04</pdfrwt>
<pdfrwt beam="2">  1       -2 0.10826487E+00 0.16255227E+04</pdfrwt>
<totfact> 0.22590805E+01</totfact>
</mgrwt>
<rwgt>
<wgt id='morphing_basis_vector_1'> +1.5110434e-04 </wgt>
<wgt id='morphing_basis_vector_2'> +9.9379760e-05 </wgt>
<wgt id='morphing_basis_vector_3'> +1.5826724e-04 </wgt>
<wgt id='morphing_basis_vector_4'> +1.0804739e-04 </wgt>
<wgt id='morphing_basis_vector_5'> +1.7198996e-04 </wgt>
</rwgt>
</event>
<event>
 4      1 +1.5130300e-07 1.76277500e+03 7.81860800e-03 8.17662600e-02
        2 -1    0    0  501    0 +0.0000000000e+00 +0.0000000000e+00 +6.3462788462e+02 6.3462788462e+02 0.0000000000e+00 0.0000e+00 -1.0000e+00
       -2 -1    0    0    0  501 -0.0000000000e+00 -0.0000000000e+00 -1.2240931579e+03 1.2240931579e+03 0.0000000000e+00 0.0000e+00 1.0000e+00
      -13  1    1    2    0    0 -1.5110552436e+02 +3.7292072697e+02 -1.1215966674e+03 1.1915879458e+03 0.0000000000e+00 0.0000e+00 1.0000e+00
       13  1    1    2    0    0 +1.5110552436e+02 -3.7292072697e+02 +5.3213139417e+02 6.6713309674e+02 0.0000000000e+00 0.0000e+00 -1.0000e+00
<mgrwt>
<rscale>  0 0.17627747E+04</rscale>
<asrwt>0</asrwt>
<pdfrwt beam="1">  1        2 0.97635059E-01 0.17627747E+04</pdfrwt>
<pdfrwt beam="2">  1       -2 0.18832202E+00 0.17627747E+04</pdfrwt>
<totfact> 0.77297737E+00</totfact>
</mgrwt>
<rwgt>
<wgt id='morphing_basis_vector_1'> +2.0710580e-04 </wgt>
<wgt id='morphing_basis_vector_2'> +1.3696033e-04 </wgt>
<wgt id='morphing_basis_vector_3'> +2.1872145e-04 </wgt>
<wgt id='morphing_basis_vector_4'> +1.5071647e-04 </wgt>
<wgt id='morphing_basis_vector_5'> +2.4005574e-04 </wgt>
</rwgt>
</event>
<event>
 4      1 +1.5130300e-07 1.70241800e+03 7.81860800e-03 8.20610600e-02
        2 -1    0    0  501    0 +0.0000000000e+00 +0.0000000000e+00 +9.2941562036e+02 9.2941562036e+02 0.0000000000e+00 0.0000e+00 1.0000e+00
       -2 -1    0    0    0  501 -0.0000000000e+00 -0.0000000000e+00 -7.7958324218e+02 7.7958324218e+02 0.0000000000e+00 0.0000e+00 -1.0000e+00
      -13  1    1    2    0    0 +5.6332429978e+02 +4.3509437828e+01 +7.1403213882e+02 9.1053238997e+02 0.0000000000e+00 0.0000e+00 1.0000e+00
       13  1    1    2    0    0 -5.6332429978e+02 -4.3509437828e+01 -5.6419976065e+02 7.9846647257e+02 0.0000000000e+00 0.0000e+00 -1.0000e+00
<mgrwt>
<rscale>  0 0.17024181E+04</rscale>
<asrwt>0</asrwt>
<pdfrwt beam="1">  1        2 0.14298702E+00 0.17024181E+04</pdfrwt>
<pdfrwt beam="2">  1       -2 0.11993588E+00 0.17024181E+04</pdfrwt>
<totfact> 0.17536815E+01</totfact>
</mgrwt>
<rwgt>
<wgt id='morphing_basis_vector_1'> +2.3696278e-04 </wgt>
<wgt id='morphing_basis_vector_2'> +2.8607729e-04 </wgt>
<wgt id='morphing_basis_vector_3'> +2.6796783e-04 </wgt>
<wgt id='morphing_basis_vector_4'> +2.2402888e-05 </wgt>
<wgt id='morphing_basis_vector_5'> +1.9974992e-04 </wgt>
</rwgt>
</event>
<event>
 4      1 +1.5130300e-07 1.58867400e+03 7.81860800e-03 8.26522500e-02
        2 -1    0    0  501    0 +0.0000000000e+00 +0.0000000000e+00 +1.7947773229e+03 1.7947773229e+03 0.0000000000e+00 0.0000e+00 -1.0000e+00
       -2 -1    0    0    0  501 -0.0000000000e+00 -0.0000000000e+00 -3.5155950559e+02 3.5155950559e+02 0.0000000000e+00 0.0000e+00 1.0000e+00
      -13  1    1    2    0    0 +6.7499820372e+02 +3.1439984549e+02 +3.4793113297e+02 8.2190383328e+02 0.0000000000e+00 0.0000e+00 1.0000e+00
       13  1    1    2    0    0 -6.7499820372e+02 -3.1439984549e+02 +1.0952866843e+03 1.3244329952e+03 0.0000000000e+00 0.0000e+00 -1.0000e+00
<mgrwt>
<rscale>  0 0.15886737E+04</rscale>
<asrwt>0</asrwt>
<pdfrwt beam="1">  1        2 0.27611958E+00 0.15886737E+04</pdfrwt>
<pdfrwt beam="2">  1       -2 0.54086079E-01 0.15886737E+04</pdfrwt>
<totfact> 0.33984275E+01</totfact>
</mgrwt>
<rwgt>
<wgt id='morphing_basis_vector_1'> +1.3952075e-04 </wgt>
<wgt id='morphing_basis_vector_2'> +9.4554554e-05 </wgt>
<wgt id='morphing_basis_vector_3'> +1.4614111e-04 </wgt>
<wgt id='morphing_basis_vector_4'> +9.5901937e-05 </wgt>
<wgt id='morphing_basis_vector_5'> +1.5628201e-04 </wgt>
</rwgt>
</event>
<event>
 4      1 +1.5130300e-07 1.63939400e+03 7.81860800e-03 8.23825500e-02
        2 -1    0    0  501    0 +0.0000000000e+00 +0.0000000000e+00 +9.9066738233e+02 9.9066738233e+02 0.0000000000e+00 0.0000e+00 1.0000e+00
       -2 -1    0    0    0  501 -0.0000000000e+00 -0.0000000000e+00 -6.7823250096e+02 6.7823250096e+02 0.0000000000e+00 0.0000e+00 -1.0000e+00
      -13  1    1    2    0    0 +5.5282143747e+02 -5.3657828275e+02 -1.2877667505e+02 7.8109617032e+02 0.0000000000e+00 0.0000e+00 -1.0000e+00
       13  1    1    2    0    0 -5.5282143747e+02 +5.3657828275e+02 +4.4121155641e+02 8.8780371297e+02 0.0000000000e+00 0.0000e+00 1.0000e+00
<mgrwt>
<rscale>  0 0.16393936E+04</rscale>
<asrwt>0</asrwt>
<pdfrwt beam="1">  1        2 0.15241037E+00 0.16393936E+04</pdfrwt>
<pdfrwt beam="2">  1       -2 0.10434346E+00 0.16393936E+04</pdfrwt>
<totfact> 0.22918569E+01</totfact>
</mgrwt>
<rwgt>
<wgt id='morphing_basis_vector_1'> +1.5764448e-04 </wgt>
<wgt id='morphing_basis_vector_2'> +1.0715737e-04 </wgt>
<wgt id='morphing_basis_vector_3'> +1.6573373e-04 </wgt>
<wgt id='morphing_basis_vector_4'> +1.0907431e-04 </wgt>
<wgt id='morphing_basis_vector_5'> +1.7790678e-04 </wgt>
</rwgt>
</event>
<event>
 4      1 +1.5130300e-07 1.55618400e+03 7.81860800e-03 8.28305100e-02
        2 -1    0    0  501    0 +0.0000000000e+00 +0.0000000000e+00 +1.2022094100e+03 1.2022094100e+03 0.0000000000e+00 0.0000e+00 -1.0000e+00
       -2 -1    0    0    0  501 -0.0000000000e+00 -0.0000000000e+00 -5.0359556942e+02 5.0359556942e+02 0.0000000000e+00 0.0000e+00 1.0000e+00
      -13  1    1    2    0    0 -1.9650063895e+02 -7.5037831522e+01 -4.7184038223e+02 5.1660093261e+02 0.0000000000e+00 0.0000e+00 1.0000e+00
       13  1    1    2    0    0 +1.9650063895e+02 +7.5037831522e+01 +1.1704542228e+03 1.1892040468e+03 0.0000000000e+00 0.0000e+00 -1.0000e+00
<mgrwt>
<rscale>  0 0.15561842E+04</rscale>
<asrwt>0</asrwt>
<pdfrwt beam="1">  1        2 0.18495529E+00 0.15561842E+04</pdfrwt>
<pdfrwt beam="2">  1       -2 0.77476242E-01 0.15561842E+04</pdfrwt>
<totfact> 0.34526388E+01</totfact>
</mgrwt>
<rwgt>
<wgt id='morphing_basis_vector_1'> +1.2762335e-04 </wgt>
<wgt id='morphing_basis_vector_2'> +8.3671290e-05 </wgt>
<wgt id='morphing_basis_vector_3'> +1.3301034e-04 </wgt>
<wgt id='morphing_basis_vector_4'> +9.0275312e-05 </wgt>
<wgt id='morphing_basis_vector_5'> +1.4365895e-04 </wgt>
</rwgt>
</event>
<event>
 4      1 +1.5130300e-07 1.55815600e+03 7.81860800e-03 8.28195700e-02
        2 -1    0    0  501    0 +0.0000000000e+00 +0.0000000000e+00 +3.0268188166e+02 3.0268188166e+02 0.0000000000e+00 0.0000e+00 -1.0000e+00
       -2 -1    0    0    0  501 -0.0000000000e+00 -0.0000000000e+00 -2.0052822010e+03 2.0052822010e+03 0.0000000000e+00 0.0000e+00 1.0000e+00
      -13  1    1    2    0    0 +3.9501453845e+02 +5.6585038882e+02 -1.3868765221e+03 1.5490802548e+03 0.0000000000e+00 0.0000e+00 1.0000e+00
       13  1    1    2    0    0 -3.9501453845e+02 -5.6585038882e+02 -3.1572379725e+02 7.5888382792e+02 0.0000000000e+00 0.0000e+00 -1.0000e+00
<mgrwt>
<rscale>  0 0.15581561E+04</rscale>
<asrwt>0</asrwt>
<pdfrwt beam="1">  1        2 0.46566443E-01 0.15581561E+04</pdfrwt>
<pdfrwt beam="2">  1       -2 0.30850495E+00 0.15581561E+04</pdfrwt>
<totfact> 0.26537955E+00</totfact>
</mgrwt>
<rwgt>
<wgt id='morphing_basis_vector_1'> +1.2893169e-04 </wgt>
<wgt id='morphing_basis_vector_2'> +8.6119655e-05 </wgt>
<wgt id='morphing_basis_vector_3'> +1.3459233e-04 </wgt>
<wgt id='morphing_basis_vector_4'> +8.9462887e-05 </wgt>
<wgt id='morphing_basis_vector_5'> +1.4431671e-04 </wgt>
</rwgt>
</event>
<event>
 4      1 +1.5130300e-07 1.73132700e+03 7.81860800e-03 8.19183300e-02
        2 -1    0    0  501    0 +0.0000000000e+00 +0.0000000000e+00 +7.7190969554e+02 7.7190969554e+02 0.0000000000e+00 0.0000e+00 1.0000e+00
       -2 -1    0    0    0  501 -0.0000000000e+00 -0.0000000000e+00 -9.7080409962e+02 9.7080409962e+02 0.0000000000e+00 0.0000e+00 -1.0000e+00
      -13  1    1    2    0    0 -7.1392880340e+02 -2.6676694757e+02 -5.1265187068e+02 9.1851558569e+02 0.0000000000e+00 0.0000e+00 -1.0000e+00
       13  1    1    2    0    0 +7.1392880340e+02 +2.6676694757e+02 +3.1375746661e+02 8.2419820947e+02 0.0000000000e+00 0.0000e+00 1.0000e+00
<mgrwt>
<rscale>  0 0.17313268E+04</rscale>
<asrwt>0</asrwt>
<pdfrwt beam="1">  1        2 0.11875534E+00 0.17313268E+04</pdfrwt>
<pdfrwt beam="2">  1       -2 0.14935448E+00 0.17313268E+04</pdfrwt>
<totfact> 0.12314041E+01</totfact>
</mgrwt>
<rwgt>
<wgt id='morphing_basis_vector_1'> +1.9403650e-04 </wgt>
<wgt id='morphing_basis_vector_2'> +1.3038126e-04 </wgt>
<wgt id='morphing_basis_vector_3'> +2.0488886e-04 </wgt>
<wgt id='morphing_basis_vector_4'> +1.3814163e-04 </wgt>
<wgt id='morphing_basis_vector_5'> +2.2280914e-04 </wgt>
</rwgt>
</event>
<event>
 4      1 +1.5130300e-07 1.65767200e+03 7.81860800e-03 8.22878000e-02
        2 -1    0    0  501    0 +0.0000000000e+00 +0.0000000000e+00 +7.2035846120e+02 7.2035846120e+02 0.0000000000e+00 0.0000e+00 -1.0000e+00
       -2 -1    0    0    0  501 -0.0000000000e+00 -0.0000000000e+00 -9.5364917926e+02 9.5364917926e+02 0.0000000000e+00 0.0000e+00 1.0000e+00
      -13  1    1    2    0    0 -1.7387107127e+02 -1.3318334214e+01 -9.3491462715e+02 9.5103832074e+02 0.0000000000e+00 0.0000e+00 1.0000e+00
       13  1    1    2    0    0 +1.7387107127e+02 +1.3318334214e+01 +7.0162390909e+02 7.2296931973e+02 0.0000000000e+00 0.0000e+00 -1.0000e+00
<mgrwt>
<rscale>  0 0.16576722E+04</rscale>
<asrwt>0</asrwt>
<pdfrwt beam="1">  1        2 0.11082438E+00 0.16576722E+04</pdfrwt>
<pdfrwt beam="2">  1       -2 0.14671526E+00 0.16576722E+04</pdfrwt>
<totfact> 0.14211532E+01</totfact>
</mgrwt>
<rwgt>
<wgt id='morphing_basis_vector_1'> +1.6303271e-04 </wgt>
<wgt id='morphing_basis_vector_2'> +1.0735299e-04 </wgt>
<wgt id='morphing_basis_vector_3'> +1.7111873e-04 </wgt>
<wgt id='morphing_basis_vector_4'> +1.1712858e-04 </wgt>
<wgt id='morphing_basis_vector_5'> +1.8644712e-04 </wgt>
</rwgt>
</event>
<event>
 4      1 +1.5130300e-07 1.57460400e+03 7.81860800e-03 8.27289000e-02
        2 -1    0    0  501    0 +0.0000000000e+00 +0.0000000000e+00 +1.4540493391e+03 1.4540493391e+03 0.0000000000e+00 0.0000e+00 -1.0000e+00
       -2 -1    0    0    0  501 -0.0000000000e+00 -0.0000000000e+00 -4.2628867173e+02 4.2628867173e+02 0.0000000000e+00 0.0000e+00 1.0000e+00
      -13  1    1    2    0    0 -7.1130215479e+02 -3.3564595427e+02 +5.5585994797e+02 9.6311434616e+02 0.0000000000e+00 0.0000e+00 1.0000e+00
       13  1    1    2    0    0 +7.1130215479e+02 +3.3564595427e+02 +4.7190071935e+02 9.1722366463e+02 0.0000000000e+00 0.0000e+00 -1.0000e+00
<mgrwt>
<rscale>  0 0.15746044E+04</rscale>
<asrwt>0</asrwt>
<pdfrwt beam="1">  1        2 0.22369990E+00 0.15746044E+04</pdfrwt>
<pdfrwt beam="2">  1       -2 0.65582873E-01 0.15746044E+04</pdfrwt>
<totfact> 0.35490333E+01</totfact>
</mgrwt>
<rwgt>
<wgt id='morphing_basis_vector_1'> +1.3926989e-04 </wgt>
<wgt id='morphing_basis_vector_2'> +1.0461430e-04 </wgt>
<wgt id='morphing_basis_vector_3'> +1.4703598e-04 </wgt>
<wgt id='morphing_basis_vector_4'> +8.3985288e-05 </wgt>
<wgt id='morphing_basis_vector_5'> +1.5000814e-04 </wgt>
</rwgt>
</event>
<event>
 4      1 +1.5130300e-07 1.84470600e+03 7.81860800e-03 8.13848700e-02
        2 -1    0    0  501    0 +0.0000000000e+00 +0.0000000000e+00 +2.3432398556e+03 2.3432398556e+03 0.0000000000e+00 0.0000e+00 -1.0000e+00
       -2 -1    0    0    0  501 -0.0000000000e+00 -0.0000000000e+00 -3.6305927377e+02 3.6305927377e+02 0.0000000000e+00 0.0000e+00 1.0000e+00
      -13  1    1    2    0    0 +4.4245286258e+02 +6.3789607233e+02 +2.5941204295e+02 8.1851728310e+02 0.0000000000e+00 0.0000e+00 1.0000e+00
       13  1    1    2    0    0 -4.4245286258e+02 -6.3789607233e+02 +1.7207685389e+03 1.8877818463e+03 0.0000000000e+00 0.0000e+00 -1.0000e+00
<mgrwt>
<rscale>  0 0.18447059E+04</rscale>
<asrwt>0</asrwt>
<pdfrwt beam="1">  1        2 0.36049843E+00 0.18447059E+04</pdfrwt>
<pdfrwt beam="2">  1       -2 0.55855274E-01 0.18447059E+04</pdfrwt>
<totfact> 0.15241192E+01</totfact>
</mgrwt>
<rwgt>
<wgt id='morphing_basis_vector_1'> +2.4811529e-04 </wgt>
<wgt id='morphing_basis_vector_2'> +1.6646162e-04 </wgt>
<wgt id='morphing_basis_vector_3'> +2.6341267e-04 </wgt>
<wgt id='morphing_basis_vector_4'> +1.7987314e-04 </wgt>
<wgt id='morphing_basis_vector_5'> +2.8907137e-04 </wgt>
</rwgt>
</event>
<event>
 4      1 +1.5130300e-07 1.80574900e+03 7.81860800e-03 8.15636100e-02
        2 -1    0    0  501    0 +0.0000000000e+00 +0.0000000000e+00 +1.4706552337e+03 1.4706552337e+03 0.0000000000e+00 0.0000e+00 1.0000e+00
       -2 -1    0    0    0  501 -0.0000000000e+00 -0.0000000000e+00 -5.5429851226e+02 5.5429851226e+02 0.0000000000e+00 0.0000e+00 -1.0000e+00
      -13  1    1    2    0    0 +7.5046717405e+02 +3.1147733507e+02 +8.9961836208e+02 1.2122426766e+03 0.0000000000e+00 0.0000e+00 1.0000e+00
       13  1    1    2    0    0 -7.5046717405e+02 -3.1147733507e+02 +1.6738359359e+01 8.1271106936e+02 0.0000000000e+00 0.0000e+00 -1.0000e+00
<mgrwt>
<rscale>  0 0.18057486E+04</rscale>
<asrwt>0</asrwt>
<pdfrwt beam="1">  1        2 0.22625465E+00 0.18057486E+04</pdfrwt>
<pdfrwt beam="2">  1       -2 0.85276695E-01 0.18057486E+04</pdfrwt>
<totfact> 0.19101701E+01</totfact>
</mgrwt>
<rwgt>
<wgt id='morphing_basis_vector_1'> +2.6238952e-04 </wgt>
<wgt id='morphing_basis_vector_2'> +2.5417312e-04 </wgt>
<wgt id='morphing_basis_vector_3'> +2.9006594e-04 </wgt>
<wgt id='morphing_basis_vector_4'> +9.8210341e-05 </wgt>
<wgt id='morphing_basis_vector_5'> +2.5969968e-04 </wgt>
</rwgt>
</event>
<event>
 4      1 +1.5130300e-07 1.58856200e+03 7.81860800e-03 8.26528500e-02
        2 -1    0    0  501    0 +0.0000000000e+00 +0.0000000000e+00 +2.0066712348e+03 2.0066712348e+03 0.0000000000e+00 0.0000e+00 1.0000e+00
       -2 -1    0    0    0  501 -0.0000000000e+00 -0.0000000000e+00 -3.1439255786e+02 3.1439255786e+02 0.0000000000e+00 0.0000e+00 -1.0000e+00
      -13  1    1    2    0    0 +2.1274593128e+02 +5.9775315660e+02 +1.4799052660e+02 6.5151428493e+02 0.0000000000e+00 0.0000e+00 -1.0000e+00
       13  1    1    2    0    0 -2.1274593128e+02 -5.9775315660e+02 +1.5442881504e+03 1.6695495078e+03 0.0000000000e+00 0.0000e+00 1.0000e+00
<mgrwt>
<rscale>  0 0.15885622E+04</rscale>
<asrwt>0</asrwt>
<pdfrwt beam="1">  1        2 0.30871864E+00 0.15885622E+04</pdfrwt>
<pdfrwt beam="2">  1       -2 0.48368087E-01 0.15885622E+04</pdfrwt>
<totfact> 0.32265605E+01</totfact>
</mgrwt>
<rwgt>
<wgt id='morphing_basis_vector_1'> +1.3855386e-04 </wgt>
<wgt id='morphing_basis_vector_2'> +9.1763652e-05 </wgt>
<wgt id='morphing_basis_vector_3'> +1.4485086e-04 </wgt>
<wgt id='morphing_basis_vector_4'> +9.7635558e-05 </wgt>
<wgt id='morphing_basis_vector_5'> +1.5636949e-04 </wgt>
</rwgt>
</event>
<event>
 4      1 +1.5130300e-07 1.69675600e+03 7.81860800e-03 8.20893500e-02
        2 -1    0    0  501    0 +0.0000000000e+00 +0.0000000000e+00 +1.6111588604e+03 1.6111588604e+03 0.0000000000e+00 0.0000e+00 -1.0000e+00
       -2 -1    0    0    0  501 -0.0000000000e+00 -0.0000000000e+00 -4.4672531021e+02 4.4672531021e+02 0.0000000000e+00 0.0000e+00 1.0000e+00
      -13  1    1    2    0    0 +4.6567258201e+02 +7.0365198800e+02 +4.7531956757e+02 9.6845535011e+02 0.0000000000e+00 0.0000e+00 1.0000e+00
       13  1    1    2    0    0 -4.6567258201e+02 -7.0365198800e+02 +6.8911398258e+02 1.0894288205e+03 0.0000000000e+00 0.0000e+00 -1.0000e+00
<mgrwt>
<rscale>  0 0.16967562E+04</rscale>
<asrwt>0</asrwt>
<pdfrwt beam="1">  1        2 0.24787059E+00 0.16967562E+04</pdfrwt>
<pdfrwt beam="2">  1       -2 0.68726971E-01 0.16967562E+04</pdfrwt>
<totfact> 0.25989774E+01</totfact>
</mgrwt>
<rwgt>
<wgt id='morphing_basis_vector_1'> +1.8292277e-04 </wgt>
<wgt id='morphing_basis_vector_2'> +1.3088665e-04 </wgt>
<wgt id='morphing_basis_vector_3'> +1.9391838e-04 </wgt>
<wgt id='morphing_basis_vector_4'> +1.2035668e-04 </wgt>
<wgt id='morphing_basis_vector_5'> +2.0456075e-04 </wgt>
</rwgt>
</event>
<event>
 4      1 +1.5130300e-07 1.67233500e+03 7.81860800e-03 8.22127000e-02
        2 -1    0    0  501    0 +0.0000000000e+00 +0.0000000000e+00 +8.0915040391e+02 8.0915040391e+02 0.0000000000e+00 0.0000e+00 1.0000e+00
       -2 -1    0    0    0  501 -0.0000000000e+00 -0.0000000000e+00 -8.6408709949e+02 8.6408709949e+02 0.0000000000e+00 0.0000e+00 -1.0000e+00
      -13  1    1    2    0    0 +5.9887836772e+02 +5.7947364547e+02 -9.6290773791e+01 8.3887836915e+02 0.0000000000e+00 0.0000e+00 -1.0000e+00
       13  1    1    2    0    0 -5.9887836772e+02 -5.7947364547e+02 +4.1354078217e+01 8.3435913425e+02 0.0000000000e+00 0.0000e+00 1.0000e+00
<mgrwt>
<rscale>  0 0.16723354E+04</rscale>
<asrwt>0</asrwt>
<pdfrwt beam="1">  1        2 0.12448468E+00 0.16723354E+04</pdfrwt>
<pdfrwt beam="2">  1       -2 0.13293648E+00 0.16723354E+04</pdfrwt>
<totfact> 0.16107033E+01</totfact>
</mgrwt>
<rwgt>
<wgt id='morphing_basis_vector_1'> +1.7325302e-04 </wgt>
<wgt id='morphing_basis_vector_2'> +1.2466599e-04 </wgt>
<wgt id='morphing_basis_vector_3'> +1.8348293e-04 </wgt>
<wgt id='morphing_basis_vector_4'> +1.1271742e-04 </wgt>
<wgt id='morphing_basis_vector_5'> +1.9266565e-04 </wgt>
</rwgt>
</event>
<event>
 4      1 +1.5130300e-07 1.78640200e+03 7.81860800e-03 8.16541200e-02
        2 -1    0    0  501    0 +0.0000000000e+00 +0.0000000000e+00 +1.5388392565e+03 1.5388392565e+03 0.0000000000e+00 0.0000e+00 -1.0000e+00
       -2 -1    0    0    0  501 -0.0000000000e+00 -0.0000000000e+00 -5.1844818424e+02 5.1844818424e+02 0.0000000000e+00 0.0000e+00 1.0000e+00
      -13  1    1    2    0    0 +6.3928981547e+02 +5.7177836453e+02 +2.2300933974e+02 8.8620264721e+02 0.0000000000e+00 0.0000e+00 1.0000e+00
       13  1    1    2    0    0 -6.3928981547e+02 -5.7177836453e+02 +7.9738173256e+02 1.1710847936e+03 0.0000000000e+00 0.0000e+00 -1.0000e+00
<mgrwt>
<rscale>  0 0.17864024E+04</rscale>
<asrwt>0</asrwt>
<pdfrwt beam="1">  1        2 0.23674450E+00 0.17864024E+04</pdfrwt>
<pdfrwt beam="2">  1       -2 0.79761260E-01 0.17864024E+04</pdfrwt>
<totfact> 0.20415821E+01</totfact>
</mgrwt>
<rwgt>
<wgt id='morphing_basis_vector_1'> +2.2081839e-04 </wgt>
<wgt id='morphing_basis_vector_2'> +1.5232118e-04 </wgt>
<wgt id='morphing_basis_vector_3'> +2.3442885e-04 </wgt>
<wgt id='morphing_basis_vector_4'> +1.5394865e-04 </wgt>
<wgt id='morphing_basis_vector_5'> +2.5313067e-04 </wgt>
</rwgt>
</event>
<event>
 4      1 +1.5130300e-07 1.65428600e+03 7.81860800e-03 8.23052600e-02
        2 -1    0    0  501    0 +0.0000000000e+00 +0.0000000000e+00 +1.1987940697e+03 1.1987940697e+03 0.0000000000e+00 0.0000e+00 -1.0000e+00
       -2 -1    0    0    0  501 -0.0000000000e+00 -0.0000000000e+00 -5.7071156597e+02 5.7071156597e+02 0.0000000000e+00 0.0000e+00 1.0000e+00
      -13  1    1    2    0    0 +2.4712422483e+02 -3.7437007242e+02 -4.2930122568e+02 6.2090488482e+02 0.0000000000e+00 0.0000e+00 1.0000e+00
       13  1    1    2    0    0 -2.4712422483e+02 +3.7437007242e+02 +1.0573837294e+03 1.1486007508e+03 0.0000000000e+00 0.0000e+00 -1.0000e+00
<mgrwt>
<rscale>  0 0.16542861E+04</rscale>
<asrwt>0</asrwt>
<pdfrwt beam="1">  1        2 0.18442986E+00 0.16542861E+04</pdfrwt>
<pdfrwt beam="2">  1       -2 0.87801780E-01 0.16542861E+04</pdfrwt>
<totfact> 0.25851174E+01</totfact>
</mgrwt>
<rwgt>
<wgt id='morphing_basis_vector_1'> +1.6179177e-04 </wgt>
<wgt id='morphing_basis_vector_2'> +1.0663366e-04 </wgt>
<wgt id='morphing_basis_vector_3'> +1.6979502e-04 </wgt>
<wgt id='morphing_basis_vector_4'> +1.1605459e-04 </wgt>
<wgt id='morphing_basis_vector_5'> +1.8487644e-04 </wgt>
</rwgt>
</event>
<event>
 4      1 +1.5130300e-07 1.66722500e+03 7.81860800e-03 8.22387900e-02
        2 -1    0    0  501    0 +0.0000000000e+00 +0.0000000000e+00 +1.4926429577e+03 1.4926429577e+03 0.0000000000e+00 0.0000e+00 1.0000e+00
       -2 -1    0    0    0  501 -0.0000000000e+00 -0.0000000000e+00 -4.6555642538e+02 4.6555642538e+02 0.0000000000e+00 0.0000e+00 -1.0000e+00
      -13  1    1    2    0    0 +8.3464685495e+01 +6.7726690786e+02 +1.0759105071e+03 1.2740644558e+03 0.0000000000e+00 0.0000e+00 1.0000e+00
       13  1    1    2    0    0 -8.3464685495e+01 -6.7726690786e+02 -4.8823974796e+01 6.8413492728e+02 0.0000000000e+00 0.0000e+00 -1.0000e+00
<mgrwt>
<rscale>  0 0.16672247E+04</rscale>
<asrwt>0</asrwt>
<pdfrwt beam="1">  1        2 0.22963738E+00 0.16672247E+04</pdfrwt>
<pdfrwt beam="2">  1       -2 0.71624066E-01 0.16672247E+04</pdfrwt>
<totfact> 0.27771039E+01</totfact>
</mgrwt>
<rwgt>
<wgt id='morphing_basis_vector_1'> +2.0364127e-04 </wgt>
<wgt id='morphing_basis_vector_2'> +2.1958493e-04 </wgt>
<wgt id='morphing_basis_vector_3'> +2.2575761e-04 </wgt>
<wgt id='morphing_basis_vector_4'> +4.9060732e-05 </wgt>
<wgt id='morphing_basis_vector_5'> +1.8550677e-04 </wgt>
</rwgt>
</event>
<event>
 4      1 +1.5130300e-07 1.60093200e+03 7.81860800e-03 8.25861300e-02
        2 -1    0    0  501    0 +0.0000000000e+00 +0.0000000000e+00 +3.3533640947e+03 3.3533640947e+03 0.0000000000e+00 0.0000e+00 1.0000e+00
       -2 -1    0    0    0  501 -0.0000000000e+00 -0.0000000000e+00 -1.9107545566e+02 1.9107545566e+02 0.0000000000e+00 0.0000e+00 -1.0000e+00
      -13  1    1    2    0    0 +2.6650419427e+02 -5.0348660175e+02 +2.8261491533e+03 2.8829918974e+03 0.0000000000e+00 0.0000e+00 1.0000e+00
       13  1    1    2    0    0 -2.6650419427e+02 +5.0348660175e+02 +3.3613948567e+02 6.6144765290e+02 0.0000000000e+00 0.0000e+00 -1.0000e+00
<mgrwt>
<rscale>  0 0.16009317E+04</rscale>
<asrwt>0</asrwt>
<pdfrwt beam="1">  1        2 0.51590213E+00 0.16009317E+04</pdfrwt>
<pdfrwt beam="2">  1       -2 0.29396226E-01 0.16009317E+04</pdfrwt>
<totfact> 0.11959324E+01</totfact>
</mgrwt>
<rwgt>
<wgt id='morphing_basis_vector_1'> +1.8354915e-04 </wgt>
<wgt id='morphing_basis_vector_2'> +2.1592028e-04 </wgt>
<wgt id='morphing_basis_vector_3'> +2.0441433e-04 </wgt>
<wgt id='morphing_basis_vector_4'> +2.3354851e-05 </wgt>
<wgt id='morphing_basis_vector_5'> +1.5560851e-04 </wgt>
</rwgt>
</event>
<event>
 4      1 +1.5130300e-07 1.68325900e+03 7.81860800e-03 8.21572600e-02
        2 -1    0    0  501    0 +0.0000000000e+00 +0.0000000000e+00 +9.5732015779e+02 9.5732015779e+02 0.0000000000e+00 0.0000e+00 -1.0000e+00
       -2 -1    0    0    0  501 -0.0000000000e+00 -0.0000000000e+00 -7.3992018729e+02 7.3992018729e+02 0.0000000000e+00 0.0000e+00 1.0000e+00
      -13  1    1    2    0    0 +4.9577611632e+02 +5.7082676174e+02 -2.6410516831e+02 8.0086746055e+02 0.0000000000e+00 0.0000e+00 1.0000e+00
       13  1    1    2    0    0 -4.9577611632e+02 -5.7082676174e+02 +4.8150513881e+02 8.9637288454e+02 0.0000000000e+00 0.0000e+00 -1.0000e+00
<mgrwt>
<rscale>  0 0.16832594E+04</rscale>
<asrwt>0</asrwt>
<pdfrwt beam="1">  1        2 0.14728002E+00 0.16832594E+04</pdfrwt>
<pdfrwt beam="2">  1       -2 0.11383387E+00 0.16832594E+04</pdfrwt>
<totfact> 0.19280642E+01</totfact>
</mgrwt>
<rwgt>
<wgt id='morphing_basis_vector_1'> +1.7407328e-04 </wgt>
<wgt id='morphing_basis_vector_2'> +1.1715039e-04 </wgt>
<wgt id='morphing_basis_vector_3'> +1.8333809e-04 </wgt>
<wgt id='morphing_basis_vector_4'> +1.2273623e-04 </wgt>
<wgt id='morphing_basis_vector_5'> +1.9842913e-04 </wgt>
</rwgt>
</event>
<event>
 4      1 +1.5130300e-07 1.75395900e+03 7.81860800e-03 8.18085600e-02
        2 -1    0    0  501    0 +0.0000000000e+00 +0.0000000000e+00 +4.1799526947e+02 4.1799526947e+02 0.0000000000e+00 0.0000e+00 -1.0000e+00
       -2 -1    0    0    0  501 -0.0000000000e+00 -0.0000000000e+00 -1.8399568823e+03 1.8399568823e+03 0.0000000000e+00 0.0000e+00 1.0000e+00
      -13  1    1    2    0    0 -8.0150119759e+02 -3.3490826195e+02 -8.6613433695e+02 1.2266851280e+03 0.0000000000e+00 0.0000e+00 -1.0000e+00
       13  1    1    2    0    0 +8.0150119759e+02 +3.3490826195e+02 -5.5582727587e+02 1.0312670237e+03 0.0000000000e+00 0.0000e+00 1.0000e+00
<mgrwt>
<rscale>  0 0.17539593E+04</rscale>
<asrwt>0</asrwt>
<pdfrwt beam="1">  1        2 0.64306965E-01 0.17539593E+04</pdfrwt>
<pdfrwt beam="2">  1       -2 0.28307029E+00 0.17539593E+04</pdfrwt>
<totfact> 0.26929460E+00</totfact>
</mgrwt>
<rwgt>
<wgt id='morphing_basis_vector_1'> +2.0751896e-04 </wgt>
<wgt id='morphing_basis_vector_2'> +1.4739115e-04 </wgt>
<wgt id='morphing_basis_vector_3'> +2.2056870e-04 </wgt>
<wgt id='morphing_basis_vector_4'> +1.3907074e-04 </wgt>
<wgt id='morphing_basis_vector_5'> +2.3450448e-04 </wgt>
</rwgt>
</event>
<event>
 4      1 +1.5130300e-07 1.68354200e+03 7.81860800e-03 8.21558300e-02
        2 -1    0    0  501    0 +0.0000000000e+00 +0.0000000000e+00 +1.1370046263e+03 1.1370046263e+03 0.0000000000e+00 0.0000e+00 -1.0000e+00
       -2 -1    0    0    0  501 -0.0000000000e+00 -0.0000000000e+00 -6.2319765065e+02 6.2319765065e+02 0.0000000000e+00 0.0000e+00 1.0000e+00
      -13  1    1    2    0    0 +1.7619733791e+02 +1.9787779703e+02 -5.7846356920e+02 6.3625562892e+02 0.0000000000e+00 0.0000e+00 1.0000e+00
       13  1    1    2    0    0 -1.7619733791e+02 -1.9787779703e+02 +1.0922705448e+03 1.1239466480e+03 0.0000000000e+00 0.0000e+00 -1.0000e+00
<mgrwt>
<rscale>  0 0.16835422E+04</rscale>
<asrwt>0</asrwt>
<pdfrwt beam="1">  1        2 0.17492379E+00 0.16835422E+04</pdfrwt>
<pdfrwt beam="2">  1       -2 0.95876562E-01 0.16835422E+04</pdfrwt>
<totfact> 0.22815294E+01</totfact>
</mgrwt>
<rwgt>
<wgt id='morphing_basis_vector_1'> +1.7314653e-04 </wgt>
<wgt id='morphing_basis_vector_2'> +1.1413615e-04 </wgt>
<wgt id='morphing_basis_vector_3'> +1.8202799e-04 </wgt>
<wgt id='morphing_basis_vector_4'> +1.2482238e-04 </wgt>
<wgt id='morphing_basis_vector_5'> +1.9871934e-04 </wgt>
</rwgt>
</event>
<event>
 4      1 +1.5130300e-07 1.67616000e+03 7.81860800e-03 8.21932400e-02
        2 -1    0    0  501    0 +0.0000000000e+00 +0.0000000000e+00 +8.2618414533e+02 8.2618414533e+02 0.0000000000e+00 0.0000e+00 -1.0000e+00
       -2 -1    0    0    0  501 -0.0000000000e+00 -0.0000000000e+00 -8.5014748261e+02 8.5014748261e+02 0.0000000000e+00 0.0000e+00 1.0000e+00
      -13  1    1    2    0    0 +7.6228953795e+02 +3.2773937584e+02 +1.0584349897e+02 8.3648149078e+02 0.0000000000e+00 0.0000e+00 1.0000e+00
       13  1    1    2    0    0 -7.6228953795e+02 -3.2773937584e+02 -1.2980683625e+02 8.3985013716e+02 0.0000000000e+00 0.0000e+00 -1.0000e+00
<mgrwt>
<rscale>  0 0.16761603E+04</rscale>
<asrwt>0</asrwt>
<pdfrwt beam="1">  1        2 0.12710525E+00 0.16761603E+04</pdfrwt>
<pdfrwt beam="2">  1       -2 0.13079192E+00 0.16761603E+04</pdfrwt>
<totfact> 0.16374246E+01</totfact>
</mgrwt>
<rwgt>
<wgt id='morphing_basis_vector_1'> +1.8037352e-04 </wgt>
<wgt id='morphing_basis_vector_2'> +1.4236424e-04 </wgt>
<wgt id='morphing_basis_vector_3'> +1.9283342e-04 </wgt>
<wgt id='morphing_basis_vector_4'> +1.0306742e-04 </wgt>
<wgt id='morphing_basis_vector_5'> +1.9366754e-04 </wgt>
</rwgt>
</event>
<event>
 4      1 +1.5130300e-07 1.83666300e+03 7.81860800e-03 8.14213900e-02
        2 -1    0    0  501    0 +0.0000000000e+00 +0.0000000000e+00 +1.8473744915e+03 1.8473744915e+03 0.0000000000e+00 0.0000e+00 1.0000e+00
       -2 -1    0    0    0  501 -0.0000000000e+00 -0.0000000000e+00 -4.5650334728e+02 4.5650334728e+02 0.0000000000e+00 0.0000e+00 -1.0000e+00
      -13  1    1    2    0    0 +2.4396652846e+01 +4.1445825800e+02 -3.3205747791e+02 5.3163240396e+02 0.0000000000e+00 0.0000e+00 -1.0000e+00
       13  1    1    2    0    0 -2.4396652846e+01 -4.1445825800e+02 +1.7229286222e+03 1.7722454349e+03 0.0000000000e+00 0.0000e+00 1.0000e+00
<mgrwt>
<rscale>  0 0.18366629E+04</rscale>
<asrwt>0</asrwt>
<pdfrwt beam="1">  1        2 0.28421146E+00 0.18366629E+04</pdfrwt>
<pdfrwt beam="2">  1       -2 0.70231285E-01 0.18366629E+04</pdfrwt>
<totfact> 0.18115334E+01</totfact>
</mgrwt>
<rwgt>
<wgt id='morphing_basis_vector_1'> +2.4307944e-04 </wgt>
<wgt id='morphing_basis_vector_2'> +1.6112147e-04 </wgt>
<wgt id='morphing_basis_vector_3'> +2.5766677e-04 </wgt>
<wgt id='morphing_basis_vector_4'> +1.7832789e-04 </wgt>
<wgt id='morphing_basis_vector_5'> +2.8407209e-04 </wgt>
</rwgt>
</event>
<event>
 4      1 +1.5130300e-07 1.67291200e+03 7.81860800e-03 8.22097600e-02
        2 -1    0    0  501    0 +0.0000000000e+00 +0.0000000000e+00 +5.0912408437e+02 5.0912408437e+02 0.0000000000e+00 0.0000e+00 1.0000e+00
       -2 -1    0    0    0  501 -0.0000000000e+00 -0.0000000000e+00 -1.3742395108e+03 1.3742395108e+03 0.0000000000e+00 0.0000e+00 -1.0000e+00
      -13  1    1    2    0    0 -6.3366696402e+01 -7.4291638270e+02 -8.5935066590e+02 1.1377274089e+03 0.0000000000e+00 0.0000e+00 -1.0000e+00
       13  1    1    2    0    0 +6.3366696402e+01 +7.4291638270e+02 -5.7647605633e+00 7.4563618633e+02 0.0000000000e+00 0.0000e+00 1.0000e+00
<mgrwt>
<rscale>  0 0.16729118E+04</rscale>
<asrwt>0</asrwt>
<pdfrwt beam="1">  1        2 0.78326783E-01 0.16729118E+04</pdfrwt>
<pdfrwt beam="2">  1       -2 0.21142146E+00 0.16729118E+04</pdfrwt>
<totfact> 0.68242403E+00</totfact>
</mgrwt>
<rwgt>
<wgt id='morphing_basis_vector_1'> +1.6988388e-04 </wgt>
<wgt id='morphing_basis_vector_2'> +1.1413189e-04 </wgt>
<wgt id='morphing_basis_vector_3'> +1.7878792e-04 </wgt>
<wgt id='morphing_basis_vector_4'> +1.1979383e-04 </wgt>
<wgt id='morphing_basis_vector_5'> +1.9346693e-04 </wgt>
</rwgt>
</event>
<event>
 4      1 +1.5130300e-07 1.65257200e+03 7.81860800e-03 8.23141100e-02
        2 -1    0    0  501    0 +0.0000000000e+00 +0.0000000000e+00 +1.4664391800e+03 1.4664391800e+03 0.0000000000e+00 0.0000e+00 1.0000e+00
       -2 -1    0    0    0  501 -0.0000000000e+00 -0.0000000000e+00 -4.6558276412e+02 4.6558276412e+02 0.0000000000e+00 0.0000e+00 -1.0000e+00
      -13  1    1    2    0    0 -4.0613889805e+01 -6.3878860751e+02 -1.1047362628e+02 6.4954198882e+02 0.0000000000e+00 0.0000e+00 -1.0000e+00
       13  1    1    2    0    0 +4.0613889805e+01 +6.3878860751e+02 +1.1113300422e+03 1.2824799553e+03 0.0000000000e+00 0.0000e+00 1.0000e+00
<mgrwt>
<rscale>  0 0.16525723E+04</rscale>
<asrwt>0</asrwt>
<pdfrwt beam="1">  1        2 0.22560603E+00 0.16525723E+04</pdfrwt>
<pdfrwt beam="2">  1       -2 0.71628118E-01 0.16525723E+04</pdfrwt>
<totfact> 0.28757901E+01</totfact>
</mgrwt>
<rwgt>
<wgt id='morphing_basis_vector_1'> +1.6142125e-04 </wgt>
<wgt id='morphing_basis_vector_2'> +1.0702856e-04 </wgt>
<wgt id='morphing_basis_vector_3'> +1.6947637e-04 </wgt>
<wgt id='morphing_basis_vector_4'> +1.1502579e-04 </wgt>
<wgt id='morphing_basis_vector_5'> +1.8404808e-04 </wgt>
</rwgt>
</event>
<event>
 4      1 +1.5130300e-07 1.58317600e+03 7.81860800e-03 8.26821000e-02
        2 -1    0    0  501    0 +0.0000000000e+00 +0.0000000000e+00 +9.2231014390e+02 9.2231014390e+02 0.0000000000e+00 0.0000e+00 -1.0000e+00
       -2 -1    0    0    0  501 -0.0000000000e+00 -0.0000000000e+00 -6.7939392405e+02 6.7939392405e+02 0.0000000000e+00 0.0000e+00 1.0000e+00
      -13  1    1    2    0    0 -6.3450513880e+02 -4.7224941251e+02 +8.9535253228e+01 7.9601057804e+02 0.0000000000e+00 0.0000e+00 1.0000e+00
       13  1    1    2    0    0 +6.3450513880e+02 +4.7224941251e+02 +1.5338096662e+02 8.0569348992e+02 0.0000000000e+00 0.0000e+00 -1.0000e+00
<mgrwt>
<rscale>  0 0.15831764E+04</rscale>
<asrwt>0</asrwt>
<pdfrwt beam="1">  1        2 0.14189387E+00 0.15831764E+04</pdfrwt>
<pdfrwt beam="2">  1       -2 0.10452214E+00 0.15831764E+04</pdfrwt>
<totfact> 0.25343228E+01</totfact>
</mgrwt>
<rwgt>
<wgt id='morphing_basis_vector_1'> +1.4070026e-04 </wgt>
<wgt id='morphing_basis_vector_2'> +1.0232031e-04 </wgt>
<wgt id='morphing_basis_vector_3'> +1.4821546e-04 </wgt>
<wgt id='morphing_basis_vector_4'> +8.8781907e-05 </wgt>
<wgt id='morphing_basis_vector_5'> +1.5362729e-04 </wgt>
</rwgt>
</event>
<event>
 4      1 +1.5130300e-07 1.62323500e+03 7.81860800e-03 8.24673700e-02
        2 -1    0    0  501    0 +0.0000000000e+00 +0.0000000000e+00 +2.9412196654e+03 2.9412196654e+03 0.0000000000e+00 0.0000e+00 1.0000e+00
       -2 -1    0    0    0  501 -0.0000000000e+00 -0.0000000000e+00 -2.2396264720e+02 2.2396264720e+02 0.0000000000e+00 0.0000e+00 -1.0000e+00
      -13  1    1    2    0    0 -5.3501380593e+02 +6.0117799932e+02 +1.1534824312e+03 1.4064766185e+03 0.0000000000e+00 0.0000e+00 -1.0000e+00
       13  1    1    2    0    0 +5.3501380593e+02 -6.0117799932e+02 +1.5637745871e+03 1.7587056941e+03 0.0000000000e+00 0.0000e+00 1.0000e+00
<mgrwt>
<rscale>  0 0.16232355E+04</rscale>
<asrwt>0</asrwt>
<pdfrwt beam="1">  1        2 0.45249531E+00 0.16232355E+04</pdfrwt>
<pdfrwt beam="2">  1       -2 0.34455794E-01 0.16232355E+04</pdfrwt>
<totfact> 0.16923023E+01</totfact>
</mgrwt>
<rwgt>
<wgt id='morphing_basis_vector_1'> +1.5366059e-04 </wgt>
<wgt id='morphing_basis_vector_2'> +1.0888032e-04 </wgt>
<wgt id='morphing_basis_vector_3'> +1.6196771e-04 </wgt>
<wgt id='morphing_basis_vector_4'> +1.0097988e-04 </wgt>
<wgt id='morphing_basis_vector_5'> +1.7050605e-04 </wgt>
</rwgt>
</event>
<event>
 4      1 +1.5130300e-07 1.78421300e+03 7.81860800e-03 8.16644400e-02
        2 -1    0    0  501    0 +0.0000000000e+00 +0.0000000000e+00 +2.0722650973e+03 2.0722650973e+03 0.0000000000e+00 0.0000e+00 1.0000e+00
       -2 -1    0    0    0  501 -0.0000000000e+00 -0.0000000000e+00 -3.8405045401e+02 3.8405045401e+02 0.0000000000e+00 0.0000e+00 -1.0000e+00
      -13  1    1    2    0    0 -1.9406726685e+02 -5.7693346492e+02 -5.3746199985e+01 6.1106708390e+02 0.0000000000e+00 0.0000e+00 -1.0000e+00
       13  1    1    2    0    0 +1.9406726685e+02 +5.7693346492e+02 +1.7419608433e+03 1.8452484674e+03 0.0000000000e+00 0.0000e+00 1.0000e+00
<mgrwt>
<rscale>  0 0.17842134E+04</rscale>
<asrwt>0</asrwt>
<pdfrwt beam="1">  1        2 0.31881001E+00 0.17842134E+04</pdfrwt>
<pdfrwt beam="2">  1       -2 0.59084686E-01 0.17842134E+04</pdfrwt>
<totfact> 0.19539194E+01</totfact>
</mgrwt>
<rwgt>
<wgt id='morphing_basis_vector_1'> +2.1727961e-04 </wgt>
<wgt id='morphing_basis_vector_2'> +1.4420842e-04 </wgt>
<wgt id='morphing_basis_vector_3'> +2.2978712e-04 </wgt>
<wgt id='morphing_basis_vector_4'> +1.5801946e-04 </wgt>
<wgt id='morphing_basis_vector_5'> +2.5223553e-04 </wgt>
</rwgt>
</event>
<event>
 4      1 +1.5130300e-07 1.83879100e+03 7.81860800e-03 8.14117100e-02
        2 -1    0    0  501    0 +0.0000000000e+00 +0.0000000000e+00 +1.8410936383e+03 1.8410936383e+03 0.0000000000e+00 0.0000e+00 -1.0000e+00
       -2 -1    0    0    0  501 -0.0000000000e+00 -0.0000000000e+00 -4.5912267409e+02 4.5912267409e+02 0.0000000000e+00 0.0000e+00 1.0000e+00
      -13  1    1    2    0    0 +8.3051535039e+01 -7.3240847854e+02 +3.5738046271e+00 7.3711092041e+02 0.0000000000e+00 0.0000e+00 1.0000e+00
       13  1    1    2    0    0 -8.3051535039e+01 +7.3240847854e+02 +1.3783971596e+03 1.5631053920e+03 0.0000000000e+00 0.0000e+00 -1.0000e+00
<mgrwt>
<rscale>  0 0.18387907E+04</rscale>
<asrwt>0</asrwt>
<pdfrwt beam="1">  1        2 0.28324517E+00 0.18387907E+04</pdfrwt>
<pdfrwt beam="2">  1       -2 0.70634258E-01 0.18387907E+04</pdfrwt>
<totfact> 0.18035648E+01</totfact>
</mgrwt>
<rwgt>
<wgt id='morphing_basis_vector_1'> +2.4477157e-04 </wgt>
<wgt id='morphing_basis_vector_2'> +1.6361351e-04 </wgt>
<wgt id='morphing_basis_vector_3'> +2.5969946e-04 </wgt>
<wgt id='morphing_basis_vector_4'> +1.7801721e-04 </wgt>
<wgt id='morphing_basis_vector_5'> +2.8533240e-04 </wgt>
</rwgt>
</event>
<event>
 4      1 +1.5130300e-07 1.67269400e+03 7.81860800e-03 8.22108700e-02
        2 -1    0    0  501    0 +0.0000000000e+00 +0.0000000000e+00 +2.9407088081e+03 2.9407088081e+03 0.0000000000e+00 0.0000e+00 -1.0000e+00
       -2 -1    0    0    0  501 -0.0000000000e+00 -0.0000000000e+00 -2.3785968782e+02 2.3785968782e+02 0.0000000000e+00 0.0000e+00 1.0000e+00
      -13  1    1    2    0    0 +1.0784306812e+02 +4.3752308431e+02 +1.2551007159e+01 4.5079275108e+02 0.0000000000e+00 0.0000e+00 1.0000e+00
       13  1    1    2    0    0 -1.0784306812e+02 -4.3752308431e+02 +2.6902981132e+03 2.7277757449e+03 0.0000000000e+00 0.0000e+00 -1.0000e+00
<mgrwt>
<rscale>  0 0.16726937E+04</rscale>
<asrwt>0</asrwt>
<pdfrwt beam="1">  1        2 0.45241671E+00 0.16726937E+04</pdfrwt>
<pdfrwt beam="2">  1       -2 0.36593800E-01 0.16726937E+04</pdfrwt>
<totfact> 0.15101874E+01</totfact>
</mgrwt>
<rwgt>
<wgt id='morphing_basis_vector_1'> +1.6889598e-04 </wgt>
<wgt id='morphing_basis_vector_2'> +1.1139264e-04 </wgt>
<wgt id='morphing_basis_vector_3'> +1.7745585e-04 </wgt>
<wgt id='morphing_basis_vector_4'> +1.2146177e-04 </wgt>
<wgt id='morphing_basis_vector_5'> +1.9349536e-04 </wgt>
</rwgt>
</event>
<event>
 4      1 +1.5130300e-07 1.64868600e+03 7.81860800e-03 8.23342300e-02
        2 -1    0    0  501    0 +0.0000000000e+00 +0.0000000000e+00 +1.5903210474e+03 1.5903210474e+03 0.0000000000e+00 0.0000e+00 -1.0000e+00
       -2 -1    0    0    0  501 -0.0000000000e+00 -0.0000000000e+00 -4.2729820718e+02 4.2729820718e+02 0.0000000000e+00 0.0000e+00 1.0000e+00
      -13  1    1    2    0    0 -8.9165095171e+01 -5.9809847162e+02 -1.0409612084e+02 6.1360263878e+02 0.0000000000e+00 0.0000e+00 1.0000e+00
       13  1    1    2    0    0 +8.9165095171e+01 +5.9809847162e+02 +1.2671189610e+03 1.4040166158e+03 0.0000000000e+00 0.0000e+00 -1.0000e+00
<mgrwt>
<rscale>  0 0.16486859E+04</rscale>
<asrwt>0</asrwt>
<pdfrwt beam="1">  1        2 0.24466477E+00 0.16486859E+04</pdfrwt>
<pdfrwt beam="2">  1       -2 0.65738187E-01 0.16486859E+04</pdfrwt>
<totfact> 0.29448691E+01</totfact>
</mgrwt>
<rwgt>
<wgt id='morphing_basis_vector_1'> +1.5986079e-04 </wgt>
<wgt id='morphing_basis_vector_2'> +1.0576599e-04 </wgt>
<wgt id='morphing_basis_vector_3'> +1.6776678e-04 </wgt>
<wgt id='morphing_basis_vector_4'> +1.1409208e-04 </wgt>
<wgt id='morphing_basis_vector_5'> +1.8228493e-04 </wgt>
</rwgt>
</event>
<event>
 4      1 +1.5130300e-07 1.68574500e+03 7.81860800e-03 8.21447100e-02
        2 -1    0    0  501    0 +0.0000000000e+00 +0.0000000000e+00 +1.8846955287e+03 1.8846955287e+03 0.0000000000e+00 0.0000e+00 1.0000e+00
       -2 -1    0    0    0  501 -0.0000000000e+00 -0.0000000000e+00 -3.7694878420e+02 3.7694878420e+02 0.0000000000e+00 0.0000e+00 -1.0000e+00
      -13  1    1    2    0    0 -2.9675661610e+02 +5.5130759183e+02 -3.2016818321e+00 6.2611085343e+02 0.0000000000e+00 0.0000e+00 -1.0000e+00
       13  1    1    2    0    0 +2.9675661610e+02 -5.5130759183e+02 +1.5109484264e+03 1.6355334595e+03 0.0000000000e+00 0.0000e+00 1.0000e+00
<mgrwt>
<rscale>  0 0.16857446E+04</rscale>
<asrwt>0</asrwt>
<pdfrwt beam="1">  1        2 0.28995315E+00 0.16857446E+04</pdfrwt>
<pdfrwt beam="2">  1       -2 0.57992122E-01 0.16857446E+04</pdfrwt>
<totfact> 0.26086969E+01</totfact>
</mgrwt>
<rwgt>
<wgt id='morphing_basis_vector_1'> +1.7429849e-04 </wgt>
<wgt id='morphing_basis_vector_2'> +1.1552914e-04 </wgt>
<wgt id='morphing_basis_vector_3'> +1.8335169e-04 </wgt>
<wgt id='morphing_basis_vector_4'> +1.2497564e-04 </wgt>
<wgt id='morphing_basis_vector_5'> +1.9975144e-04 </wgt>
</rwgt>
</event>
<event>
 4      1 +1.5130300e-07 1.71861100e+03 7.81860800e-03 8.19807600e-02
        2 -1    0    0  501    0 +0.0000000000e+00 +0.0000000000e+00 +2.4723574694e+03 2.4723574694e+03 0.0000000000e+00 0.0000e+00 1.0000e+00
       -2 -1    0    0    0  501 -0.0000000000e+00 -0.0000000000e+00 -2.9866461756e+02 2.9866461756e+02 0.0000000000e+00 0.0000e+00 -1.0000e+00
      -13  1    1    2    0    0 -6.2648424386e+02 -3.1623726909e+02 +2.8727565994e+02 7.5829797769e+02 0.0000000000e+00 0.0000e+00 1.0000e+00
       13  1    1    2    0    0 +6.2648424386e+02 +3.1623726909e+02 +1.8864171919e+03 2.0127241093e+03 0.0000000000e+00 0.0000e+00 -1.0000e+00
<mgrwt>
<rscale>  0 0.17186107E+04</rscale>
<asrwt>0</asrwt>
<pdfrwt beam="1">  1        2 0.38036267E+00 0.17186107E+04</pdfrwt>
<pdfrwt beam="2">  1       -2 0.45948404E-01 0.17186107E+04</pdfrwt>
<totfact> 0.19021746E+01</totfact>
</mgrwt>
<rwgt>
<wgt id='morphing_basis_vector_1'> +1.8813742e-04 </wgt>
<wgt id='morphing_basis_vector_2'> +1.2541768e-04 </wgt>
<wgt id='morphing_basis_vector_3'> +1.9837726e-04 </wgt>
<wgt id='morphing_basis_vector_4'> +1.3481802e-04 </wgt>
<wgt id='morphing_basis_vector_5'> +2.1622221e-04 </wgt>
</rwgt>
</event>
<event>
 4      1 +1.5130300e-07 1.57669700e+03 7.81860800e-03 8.27174500e-02
        2 -1    0    0  501    0 +0.0000000000e+00 +0.0000000000e+00 +1.0489603385e+03 1.0489603385e+03 0.0000000000e+00 0.0000e+00 1.0000e+00
       -2 -1    0    0    0  501 -0.0000000000e+00 -0.0000000000e+00 -5.9248493085e+02 5.9248493085e+02 0.0000000000e+00 0.0000e+00 -1.0000e+00
      -13  1    1    2    0    0 -5.7147835707e+01 -2.3824100029e+02 -5.5184551919e+02 6.0378649073e+02 0.0000000000e+00 0.0000e+00 -1.0000e+00
       13  1    1    2    0    0 +5.7147835707e+01 +2.3824100029e+02 +1.0083209269e+03 1.0376587786e+03 0.0000000000e+00 0.0000e+00 1.0000e+00
<mgrwt>
<rscale>  0 0.15766968E+04</rscale>
<asrwt>0</asrwt>
<pdfrwt beam="1">  1        2 0.16137851E+00 0.15766968E+04</pdfrwt>
<pdfrwt beam="2">  1       -2 0.91151528E-01 0.15766968E+04</pdfrwt>
<totfact> 0.29296926E+01</totfact>
</mgrwt>
<rwgt>
<wgt id='morphing_basis_vector_1'> +1.3425921e-04 </wgt>
<wgt id='morphing_basis_vector_2'> +8.8109138e-05 </wgt>
<wgt id='morphing_basis_vector_3'> +1.4014152e-04 </wgt>
<wgt id='morphing_basis_vector_4'> +9.5286313e-05 </wgt>
<wgt id='morphing_basis_vector_5'> +1.5164849e-04 </wgt>
</rwgt>
</event>
<event>
 4      1 +1.5130300e-07 1.79401300e+03 7.81860800e-03 8.16183800e-02
        2 -1    0    0  501    0 +0.0000000000e+00 +0.0000000000e+00 +1.7843395841e+03 1.7843395841e+03 0.0000000000e+00 0.0000e+00 1.0000e+00
       -2 -1    0    0    0  501 -0.0000000000e+00 -0.0000000000e+00 -4.5093457674e+02 4.5093457674e+02 0.0000000000e+00 0.0000e+00 -1.0000e+00
      -13  1    1    2    0    0 +3.1030691111e+02 +5.3703265711e+02 -1.4070288006e+02 6.3599666220e+02 0.0000000000e+00 0.0000e+00 -1.0000e+00
       13  1    1    2    0    0 -3.1030691111e+02 -5.3703265711e+02 +1.4741078874e+03 1.5992774986e+03 0.0000000000e+00 0.0000e+00 1.0000e+00
<mgrwt>
<rscale>  0 0.17940127E+04</rscale>
<asrwt>0</asrwt>
<pdfrwt beam="1">  1        2 0.27451378E+00 0.17940127E+04</pdfrwt>
<pdfrwt beam="2">  1       -2 0.69374551E-01 0.17940127E+04</pdfrwt>
<totfact> 0.20238452E+01</totfact>
</mgrwt>
<rwgt>
<wgt id='morphing_basis_vector_1'> +2.2198673e-04 </wgt>
<wgt id='morphing_basis_vector_2'> +1.4741630e-04 </wgt>
<wgt id='morphing_basis_vector_3'> +2.3488879e-04 </wgt>
<wgt id='morphing_basis_vector_4'> +1.6157408e-04 </wgt>
<wgt id='morphing_basis_vector_5'> +2.5796326e-04 </wgt>
</rwgt>
</event>
<event>
 4      1 +1.5130300e-07 1.69932700e+03 7.81860800e-03 8.20764900e-02
        2 -1    0    0  501    0 +0.0000000000e+00 +0.0000000000e+00 +1.0957221962e+03 1.0957221962e+03 0.0000000000e+00 0.0000e+00 -1.0000e+00
       -2 -1    0    0    0  501 -0.0000000000e+00 -0.0000000000e+00 -6.5886029955e+02 6.5886029955e+02 0.0000000000e+00 0.0000e+00 1.0000e+00
      -13  1    1    2    0    0 -7.5379675107e+02 -2.5544655006e+02 -8.8671693776e+01 8.0082779119e+02 0.0000000000e+00 0.0000e+00 1.0000e+00
       13  1    1    2    0    0 +7.5379675107e+02 +2.5544655006e+02 +5.2553359047e+02 9.5375470461e+02 0.0000000000e+00 0.0000e+00 -1.0000e+00
<mgrwt>
<rscale>  0 0.16993268E+04</rscale>
<asrwt>0</asrwt>
<pdfrwt beam="1">  1        2 0.16857264E+00 0.16993268E+04</pdfrwt>
<pdfrwt beam="2">  1       -2 0.10136312E+00 0.16993268E+04</pdfrwt>
<totfact> 0.21103450E+01</totfact>
</mgrwt>
<rwgt>
<wgt id='morphing_basis_vector_1'> +1.8118067e-04 </wgt>
<wgt id='morphing_basis_vector_2'> +1.2328570e-04 </wgt>
<wgt id='morphing_basis_vector_3'> +1.9119476e-04 </wgt>
<wgt id='morphing_basis_vector_4'> +1.2654740e-04 </wgt>
<wgt id='morphing_basis_vector_5'> +2.0625471e-04 </wgt>
</rwgt>
</event>
<event>
 4      1 +1.5130300e-07 1.70853300e+03 7.81860800e-03 8.20306300e-02
        2 -1    0    0  501    0 +0.0000000000e+00 +0.0000000000e+00 +1.5288609609e+03 1.5288609609e+03 0.0000000000e+00 0.0000e+00 1.0000e+00
       -2 -1    0    0    0  501 -0.0000000000e+00 -0.0000000000e+00 -4.7733025248e+02 4.7733025248e+02 0.0000000000e+00 0.0000e+00 -1.0000e+00
      -13  1    1    2    0    0 -1.7782683039e+02 -3.2476206004e+02 -3.7821408608e+02 5.2928127887e+02 0.0000000000e+00 0.0000e+00 -1.0000e+00
       13  1    1    2    0    0 +1.7782683039e+02 +3.2476206004e+02 +1.4297447945e+03 1.4769099345e+03 0.0000000000e+00 0.0000e+00 1.0000e+00
<mgrwt>
<rscale>  0 0.17085334E+04</rscale>
<asrwt>0</asrwt>
<pdfrwt beam="1">  1        2 0.23520938E+00 0.17085334E+04</pdfrwt>
<pdfrwt beam="2">  1       -2 0.73435424E-01 0.17085334E+04</pdfrwt>
<totfact> 0.25018633E+01</totfact>
</mgrwt>
<rwgt>
<wgt id='morphing_basis_vector_1'> +1.8337227e-04 </wgt>
<wgt id='morphing_basis_vector_2'> +1.2102392e-04 </wgt>
<wgt id='morphing_basis_vector_3'> +1.9307031e-04 </wgt>
<wgt id='morphing_basis_vector_4'> +1.3258408e-04 </wgt>
<wgt id='morphing_basis_vector_5'> +2.1113331e-04 </wgt>
</rwgt>
</event>
<event>
 4      1 +1.5130300e-07 1.81318700e+03 7.81860800e-03 8.15291200e-02
        2 -1    0    0  501    0 +0.0000000000e+00 +0.0000000000e+00 +6.6894825276e+02 6.6894825276e+02 0.0000000000e+00 0.0000e+00 -1.0000e+00
       -2 -1    0    0    0  501 -0.0000000000e+00 -0.0000000000e+00 -1.2286633655e+03 1.2286633655e+03 0.0000000000e+00 0.0000e+00 1.0000e+00
      -13  1    1    2    0    0 +3.4674637718e+02 -8.3764734650e+02 -2.7451246944e+02 9.4722923470e+02 0.0000000000e+00 0.0000e+00 1.0000e+00
       13  1    1    2    0    0 -3.4674637718e+02 +8.3764734650e+02 -2.8520264327e+02 9.5038238352e+02 0.0000000000e+00 0.0000e+00 -1.0000e+00
<mgrwt>
<rscale>  0 0.18131875E+04</rscale>
<asrwt>0</asrwt>
<pdfrwt beam="1">  1        2 0.10291512E+00 0.18131875E+04</pdfrwt>
<pdfrwt beam="2">  1       -2 0.18902513E+00 0.18131875E+04</pdfrwt>
<totfact> 0.71381068E+00</totfact>
</mgrwt>
<rwgt>
<wgt id='morphing_basis_vector_1'> +2.3975593e-04 </wgt>
<wgt id='morphing_basis_vector_2'> +1.7857757e-04 </wgt>
<wgt id='morphing_basis_vector_3'> +2.5690572e-04 </wgt>
<wgt id='morphing_basis_vector_4'> +1.5240795e-04 </wgt>
<wgt id='morphing_basis_vector_5'> +2.6818566e-04 </wgt>
</rwgt>
</event>
<event>
 4      1 +1.5130300e-07 1.60696200e+03 7.81860800e-03 8.25538200e-02
        2 -1    0    0  501    0 +0.0000000000e+00 +0.0000000000e+00 +1.5758196053e+03 1.5758196053e+03 0.0000000000e+00 0.0000e+00 1.0000e+00
       -2 -1    0    0    0  501 -0.0000000000e+00 -0.0000000000e+00 -4.0967992686e+02 4.0967992686e+02 0.0000000000e+00 0.0000e+00 -1.0000e+00
      -13  1    1    2    0    0 -6.4036887333e+02 +2.1407093088e+02 +4.4950736091e+01 6.7669729277e+02 0.0000000000e+00 0.0000e+00 -1.0000e+00
       13  1    1    2    0    0 +6.4036887333e+02 -2.1407093088e+02 +1.1211889424e+03 1.3088022394e+03 0.0000000000e+00 0.0000e+00 1.0000e+00
<mgrwt>
<rscale>  0 0.16069619E+04</rscale>
<asrwt>0</asrwt>
<pdfrwt beam="1">  1        2 0.24243378E+00 0.16069619E+04</pdfrwt>
<pdfrwt beam="2">  1       -2 0.63027682E-01 0.16069619E+04</pdfrwt>
<totfact> 0.32874670E+01</totfact>
</mgrwt>
<rwgt>
<wgt id='morphing_basis_vector_1'> +1.4502771e-04 </wgt>
<wgt id='morphing_basis_vector_2'> +9.6477314e-05 </wgt>
<wgt id='morphing_basis_vector_3'> +1.5186401e-04 </wgt>
<wgt id='morphing_basis_vector_4'> +1.0209515e-04 </wgt>
<wgt id='morphing_basis_vector_5'> +1.6396032e-04 </wgt>
</rwgt>
</event>
<event>
 4      1 +1.5130300e-07 1.72046200e+03 7.81860800e-03 8.19716300e-02
        2 -1    0    0  501    0 +0.0000000000e+00 +0.0000000000e+00 +1.0537224470e+03 1.0537224470e+03 0.0000000000e+00 0.0000e+00 -1.0000e+00
       -2 -1    0    0    0  501 -0.0000000000e+00 -0.0000000000e+00 -7.0226989045e+02 7.0226989045e+02 0.0000000000e+00 0.0000e+00 1.0000e+00
      -13  1    1    2    0    0 -3.3593991484e+02 +1.4854989438e+01 -6.3240883313e+02 7.1625221068e+02 0.0000000000e+00 0.0000e+00 1.0000e+00
       13  1    1    2    0    0 +3.3593991484e+02 -1.4854989438e+01 +9.8386138971e+02 1.0397401268e+03 0.0000000000e+00 0.0000e+00 -1.0000e+00
<mgrwt>
<rscale>  0 0.17204622E+04</rscale>
<asrwt>0</asrwt>
<pdfrwt beam="1">  1        2 0.16211114E+00 0.17204622E+04</pdfrwt>
<pdfrwt beam="2">  1       -2 0.10804152E+00 0.17204622E+04</pdfrwt>
<totfact> 0.19091367E+01</totfact>
</mgrwt>
<rwgt>
<wgt id='morphing_basis_vector_1'> +1.8839667e-04 </wgt>
<wgt id='morphing_basis_vector_2'> +1.2437618e-04 </wgt>
<wgt id='morphing_basis_vector_3'> +1.9849456e-04 </wgt>
<wgt id='morphing_basis_vector_4'> +1.3644123e-04 </wgt>
<wgt id='morphing_basis_vector_5'> +2.1725993e-04 </wgt>
</rwgt>
</event>
<event>
 4      1 +1.5130300e-07 1.60865900e+03 7.81860800e-03 8.25447600e-02
        2 -1    0    0  501    0 +0.0000000000e+00 +0.0000000000e+00 +2.0619539984e+03 2.0619539984e+03 0.0000000000e+00 0.0000e+00 -1.0000e+00
       -2 -1    0    0    0  501 -0.0000000000e+00 -0.0000000000e+00 -3.1375387132e+02 3.1375387132e+02 0.0000000000e+00 0.0000e+00 1.0000e+00
      -13  1    1    2    0    0 +6.7061070345e+02 -2.8119548078e+02 +3.6645788592e+02 8.1429785469e+02 0.0000000000e+00 0.0000e+00 1.0000e+00
       13  1    1    2    0    0 -6.7061070345e+02 +2.8119548078e+02 +1.3817422411e+03 1.5614100150e+03 0.0000000000e+00 0.0000e+00 -1.0000e+00
<mgrwt>
<rscale>  0 0.16086591E+04</rscale>
<asrwt>0</asrwt>
<pdfrwt beam="1">  1        2 0.31722368E+00 0.16086591E+04</pdfrwt>
<pdfrwt beam="2">  1       -2 0.48269828E-01 0.16086591E+04</pdfrwt>
<totfact> 0.30102581E+01</totfact>
</mgrwt>
<rwgt>
<wgt id='morphing_basis_vector_1'> +1.4603750e-04 </wgt>
<wgt id='morphing_basis_vector_2'> +9.8114922e-05 </wgt>
<wgt id='morphing_basis_vector_3'> +1.5306621e-04 </wgt>
<wgt id='morphing_basis_vector_4'> +1.0175057e-04 </wgt>
<wgt id='morphing_basis_vector_5'> +1.6461629e-04 </wgt>
</rwgt>
</event>
<event>
 4      1 +1.5130300e-07 1.63425700e+03 7.81860800e-03 8.24094000e-02
        2 -1    0    0  501    0 +0.0000000000e+00 +0.0000000000e+00 +2.0794963808e+03 2.0794963808e+03 0.0000000000e+00 0.0000e+00 1.0000e+00
       -2 -1    0    0    0  501 -0.0000000000e+00 -0.0000000000e+00 -3.2108680341e+02 3.2108680341e+02 0.0000000000e+00 0.0000e+00 -1.0000e+00
      -13  1    1    2    0    0 +4.8305659781e+02 -2.2748108901e+02 +1.7878057748e+03 1.8658351510e+03 0.0000000000e+00 0.0000e+00 1.0000e+00
       13  1    1    2    0    0 -4.8305659781e+02 +2.2748108901e+02 -2.9396197398e+01 5.3474803316e+02 0.0000000000e+00 0.0000e+00 -1.0000e+00
<mgrwt>
<rscale>  0 0.16342568E+04</rscale>
<asrwt>0</asrwt>
<pdfrwt beam="1">  1        2 0.31992251E+00 0.16342568E+04</pdfrwt>
<pdfrwt beam="2">  1       -2 0.49397971E-01 0.16342568E+04</pdfrwt>
<totfact> 0.28064421E+01</totfact>
</mgrwt>
<rwgt>
<wgt id='morphing_basis_vector_1'> +2.0277867e-04 </wgt>
<wgt id='morphing_basis_vector_2'> +2.4573850e-04 </wgt>
<wgt id='morphing_basis_vector_3'> +2.2770155e-04 </wgt>
<wgt id='morphing_basis_vector_4'> +1.7833823e-05 </wgt>
<wgt id='morphing_basis_vector_5'> +1.6880155e-04 </wgt>
</rwgt>
</event>
<event>
 4      1 +1.5130300e-07 1.59326200e+03 7.81860800e-03 8.26274300e-02
        2 -1    0    0  501    0 +0.0000000000e+00 +0.0000000000e+00 +1.2980309752e+03 1.2980309752e+03 0.0000000000e+00 0.0000e+00 -1.0000e+00
       -2 -1    0    0    0  501 -0.0000000000e+00 -0.0000000000e+00 -4.8891051312e+02 4.8891051312e+02 0.0000000000e+00 0.0000e+00 1.0000e+00
      -13  1    1    2    0    0 +7.9938173123e+01 -7.8427225000e+02 +2.7595708623e+02 8.3523971834e+02 0.0000000000e+00 0.0000e+00 1.0000e+00
       13  1    1    2    0    0 -7.9938173123e+01 +7.8427225000e+02 +5.3316337584e+02 9.5170176998e+02 0.0000000000e+00 0.0000e+00 -1.0000e+00
<mgrwt>
<rscale>  0 0.15932621E+04</rscale>
<asrwt>0</asrwt>
<pdfrwt beam="1">  1        2 0.19969707E+00 0.15932621E+04</pdfrwt>
<pdfrwt beam="2">  1       -2 0.75217002E-01 0.15932621E+04</pdfrwt>
<totfact> 0.32357392E+01</totfact>
</mgrwt>
<rwgt>
<wgt id='morphing_basis_vector_1'> +1.4278106e-04 </wgt>
<wgt id='morphing_basis_vector_2'> +1.0067294e-04 </wgt>
<wgt id='morphing_basis_vector_3'> +1.5011260e-04 </wgt>
<wgt id='morphing_basis_vector_4'> +9.3837087e-05 </wgt>
<wgt id='morphing_basis_vector_5'> +1.5791171e-04 </wgt>
</rwgt>
</event>
<event>
 4      1 +1.5130300e-07 1.66747400e+03 7.81860800e-03 8.22375100e-02
        2 -1    0    0  501    0 +0.0000000000e+00 +0.0000000000e+00 +1.9891566286e+03 1.9891566286e+03 0.0000000000e+00 0.0000e+00 -1.0000e+00
       -2 -1    0    0    0  501 -0.0000000000e+00 -0.0000000000e+00 -3.4945330317e+02 3.4945330317e+02 0.0000000000e+00 0.0000e+00 1.0000e+00
      -13  1    1    2    0    0 -5.7609848256e+02 -3.8053898593e+02 +1.6439661164e+02 7.0973630832e+02 0.0000000000e+00 0.0000e+00 1.0000e+00
       13  1    1    2    0    0 +5.7609848256e+02 +3.8053898593e+02 +1.4753067137e+03 1.6288736234e+03 0.0000000000e+00 0.0000e+00 -1.0000e+00
<mgrwt>
<rscale>  0 0.16674740E+04</rscale>
<asrwt>0</asrwt>
<pdfrwt beam="1">  1        2 0.30602409E+00 0.16674740E+04</pdfrwt>
<pdfrwt beam="2">  1       -2 0.53762048E-01 0.16674740E+04</pdfrwt>
<totfact> 0.26609559E+01</totfact>
</mgrwt>
<rwgt>
<wgt id='morphing_basis_vector_1'> +1.6733845e-04 </wgt>
<wgt id='morphing_basis_vector_2'> +1.1145546e-04 </wgt>
<wgt id='morphing_basis_vector_3'> +1.7591702e-04 </wgt>
<wgt id='morphing_basis_vector_4'> +1.1898771e-04 </wgt>
<wgt id='morphing_basis_vector_5'> +1.9095133e-04 </wgt>
</rwgt>
</event>
<event>
 4      1 +1.5130300e-07 1.56019800e+03 7.81860800e-03 8.28082500e-02
        2 -1    0    0  501    0 +0.0000000000e+00 +0.0000000000e+00 +1.2523271721e+03 1.2523271721e+03 0.0000000000e+00 0.0000e+00 -1.0000e+00
       -2 -1    0    0    0  501 -0.0000000000e+00 -0.0000000000e+00 -4.8593914116e+02 4.8593914116e+02 0.0000000000e+00 0.0000e+00 1.0000e+00
      -13  1    1    2    0    0 -2.5647975300e+02 +2.0602894500e+02 -4.0487196062e+02 5.2168102742e+02 0.0000000000e+00 0.0000e+00 1.0000e+00
       13  1    1    2    0    0 +2.5647975300e+02 -2.0602894500e+02 +1.1712599916e+03 1.2165852858e+03 0.0000000000e+00 0.0000e+00 -1.0000e+00
<mgrwt>
<rscale>  0 0.15601984E+04</rscale>
<asrwt>0</asrwt>
<pdfrwt beam="1">  1        2 0.19266572E+00 0.15601984E+04</pdfrwt>
<pdfrwt beam="2">  1       -2 0.74759868E-01 0.15601984E+04</pdfrwt>
<totfact> 0.34938016E+01</totfact>
</mgrwt>
<rwgt>
<wgt id='morphing_basis_vector_1'> +1.2891222e-04 </wgt>
<wgt id='morphing_basis_vector_2'> +8.4556794e-05 </wgt>
<wgt id='morphing_basis_vector_3'> +1.3439763e-04 </wgt>
<wgt id='morphing_basis_vector_4'> +9.1220763e-05 </wgt>
<wgt id='morphing_basis_vector_5'> +1.4519583e-04 </wgt>
</rwgt>
</event>
<event>
 4      1 +1.5130300e-07 1.57428500e+03 7.81860800e-03 8.27306500e-02
        2 -1    0    0  501    0 +0.0000000000e+00 +0.0000000000e+00 +1.9101436982e+03 1.9101436982e+03 0.0000000000e+00 0.0000e+00 -1.0000e+00
       -2 -1    0    0    0  501 -0.0000000000e+00 -0.0000000000e+00 -3.2437015945e+02 3.2437015945e+02 0.0000000000e+00 0.0000e+00 1.0000e+00
      -13  1    1    2    0    0 +6.4307543433e+02 +4.2013519292e+02 +5.4895920350e+02 9.4414818841e+02 0.0000000000e+00 0.0000e+00 1.0000e+00
       13  1    1    2    0    0 -6.4307543433e+02 -4.2013519292e+02 +1.0368143352e+03 1.2903656692e+03 0.0000000000e+00 0.0000e+00 -1.0000e+00
<mgrwt>
<rscale>  0 0.15742854E+04</rscale>
<asrwt>0</asrwt>
<pdfrwt beam="1">  1        2 0.29386825E+00 0.15742854E+04</pdfrwt>
<pdfrwt beam="2">  1       -2 0.49903103E-01 0.15742854E+04</pdfrwt>
<totfact> 0.34419722E+01</totfact>
</mgrwt>
<rwgt>
<wgt id='morphing_basis_vector_1'> +1.3558518e-04 </wgt>
<wgt id='morphing_basis_vector_2'> +9.3887379e-05 </wgt>
<wgt id='morphing_basis_vector_3'> +1.4212743e-04 </wgt>
<wgt id='morphing_basis_vector_4'> +9.0678090e-05 </wgt>
<wgt id='morphing_basis_vector_5'> +1.5039115e-04 </wgt>
</rwgt>
</event>
<event>
 4      1 +1.5130300e-07 1.75114800e+03 7.81860800e-03 8.18221000e-02
        2 -1    0    0  501    0 +0.0000000000e+00 +0.0000000000e+00 +1.5762792633e+03 1.5762792633e+03 0.0000000000e+00 0.0000e+00 -1.0000e+00
       -2 -1    0    0    0  501 -0.0000000000e+00 -0.0000000000e+00 -4.8635389273e+02 4.8635389273e+02 0.0000000000e+00 0.0000e+00 1.0000e+00
      -13  1    1    2    0    0 +4.3994064942e+02 +6.7757149588e+02 +1.4730354288e+02 8.2118770131e+02 0.0000000000e+00 0.0000e+00 1.0000e+00
       13  1    1    2    0    0 -4.3994064942e+02 -6.7757149588e+02 +9.4262182773e+02 1.2414454548e+03 0.0000000000e+00 0.0000e+00 -1.0000e+00
<mgrwt>
<rscale>  0 0.17511477E+04</rscale>
<asrwt>0</asrwt>
<pdfrwt beam="1">  1        2 0.24250450E+00 0.17511477E+04</pdfrwt>
<pdfrwt beam="2">  1       -2 0.74823676E-01 0.17511477E+04</pdfrwt>
<totfact> 0.22511069E+01</totfact>
</mgrwt>
<rwgt>
<wgt id='morphing_basis_vector_1'> +2.0337898e-04 </wgt>
<wgt id='morphing_basis_vector_2'> +1.3800767e-04 </wgt>
<wgt id='morphing_basis_vector_3'> +2.1517966e-04 </wgt>
<wgt id='morphing_basis_vector_4'> +1.4368370e-04 </wgt>
<wgt id='morphing_basis_vector_5'> +2.3339104e-04 </wgt>
</rwgt>
</event>
<event>
 4      1 +1.5130300e-07 1.65822500e+03 7.81860800e-03 8.22849600e-02
        2 -1    0    0  501    0 +0.0000000000e+00 +0.0000000000e+00 +1.0527035293e+03 1.0527035293e+03 0.0000000000e+00 0.0000e+00 -1.0000e+00
       -2 -1    0    0    0  501 -0.0000000000e+00 -0.0000000000e+00 -6.5301145892e+02 6.5301145892e+02 0.0000000000e+00 0.0000e+00 1.0000e+00
      -13  1    1    2    0    0 -7.0974812549e+02 -2.8795555253e+02 -1.2668275058e+02 7.7634355871e+02 0.0000000000e+00 0.0000e+00 1.0000e+00
       13  1    1    2    0    0 +7.0974812549e+02 +2.8795555253e+02 +5.2637482101e+02 9.2937142955e+02 0.0000000000e+00 0.0000e+00 -1.0000e+00
<mgrwt>
<rscale>  0 0.16582249E+04</rscale>
<asrwt>0</asrwt>
<pdfrwt beam="1">  1        2 0.16195439E+00 0.16582249E+04</pdfrwt>
<pdfrwt beam="2">  1       -2 0.10046330E+00 0.16582249E+04</pdfrwt>
<totfact> 0.22979046E+01</totfact>
</mgrwt>
<rwgt>
<wgt id='morphing_basis_vector_1'> +1.6452941e-04 </wgt>
<wgt id='morphing_basis_vector_2'> +1.1131591e-04 </wgt>
<wgt id='morphing_basis_vector_3'> +1.7310651e-04 </wgt>
<wgt id='morphing_basis_vector_4'> +1.1482561e-04 </wgt>
<wgt id='morphing_basis_vector_5'> +1.8651565e-04 </wgt>
</rwgt>
</event>
<event>
 4      1 +1.5130300e-07 1.61550800e+03 7.81860800e-03 8.25082900e-02
        2 -1    0    0  501    0 +0.0000000000e+00 +0.0000000000e+00 +1.7592746030e+03 1.7592746030e+03 0.0000000000e+00 0.0000e+00 -1.0000e+00
       -2 -1    0    0    0  501 -0.0000000000e+00 -0.0000000000e+00 -3.7087266112e+02 3.7087266112e+02 0.0000000000e+00 0.0000e+00 1.0000e+00
      -13  1    1    2    0    0 -5.6625234139e+02 -3.3152996041e+01 +1.4524896765e+03 1.5593162269e+03 0.0000000000e+00 0.0000e+00 -1.0000e+00
       13  1    1    2    0    0 +5.6625234139e+02 +3.3152996041e+01 -6.4087734607e+01 5.7083103718e+02 0.0000000000e+00 0.0000e+00 1.0000e+00
<mgrwt>
<rscale>  0 0.16155084E+04</rscale>
<asrwt>0</asrwt>
<pdfrwt beam="1">  1        2 0.27065763E+00 0.16155084E+04</pdfrwt>
<pdfrwt beam="2">  1       -2 0.57057333E-01 0.16155084E+04</pdfrwt>
<totfact> 0.31857651E+01</totfact>
</mgrwt>
<rwgt>
<wgt id='morphing_basis_vector_1'> +1.9080575e-04 </wgt>
<wgt id='morphing_basis_vector_2'> +2.2573346e-04 </wgt>
<wgt id='morphing_basis_vector_3'> +2.1304140e-04 </wgt>
<wgt id='morphing_basis_vector_4'> +2.2915832e-05 </wgt>
<wgt id='morphing_basis_vector_5'> +1.6142412e-04 </wgt>
</rwgt>
</event>
<event>
 4      1 +1.5130300e-07 1.56137000e+03 7.81860800e-03 8.28017600e-02
        2 -1    0    0  501    0 +0.0000000000e+00 +0.0000000000e+00 +8.2792145642e+02 8.2792145642e+02 0.0000000000e+00 0.0000e+00 -1.0000e+00
       -2 -1    0    0    0  501 -0.0000000000e+00 -0.0000000000e+00 -7.3614391084e+02 7.3614391084e+02 0.0000000000e+00 0.0000e+00 1.0000e+00
      -13  1    1    2    0    0 -4.7991685422e+02 -6.1512896750e+02 +1.8173252322e+01 7.8040636896e+02 0.0000000000e+00 0.0000e+00 1.0000e+00
       13  1    1    2    0    0 +4.7991685422e+02 +6.1512896750e+02 +7.3604293260e+01 7.8365899829e+02 0.0000000000e+00 0.0000e+00 -1.0000e+00
<mgrwt>
<rscale>  0 0.15613703E+04</rscale>
<asrwt>0</asrwt>
<pdfrwt beam="1">  1        2 0.12737253E+00 0.15613703E+04</pdfrwt>
<pdfrwt beam="2">  1       -2 0.11325291E+00 0.15613703E+04</pdfrwt>
<totfact> 0.24004950E+01</totfact>
</mgrwt>
<rwgt>
<wgt id='morphing_basis_vector_1'> +1.3341076e-04 </wgt>
<wgt id='morphing_basis_vector_2'> +9.7085226e-05 </wgt>
<wgt id='morphing_basis_vector_3'> +1.4030339e-04 </wgt>
<wgt id='morphing_basis_vector_4'> +8.3721808e-05 </wgt>
<wgt id='morphing_basis_vector_5'> +1.4506339e-04 </wgt>
</rwgt>
</event>
<event>
 4      1 +1.5130300e-07 1.63232600e+03 7.81860800e-03 8.24195300e-02
        2 -1    0    0  501    0 +0.0000000000e+00 +0.0000000000e+00 +1.0989566308e+03 1.0989566308e+03 0.0000000000e+00 0.0000e+00 -1.0000e+00
       -2 -1    0    0    0  501 -0.0000000000e+00 -0.0000000000e+00 -6.0614027774e+02 6.0614027774e+02 0.0000000000e+00 0.0000e+00 1.0000e+00
      -13  1    1    2    0    0 +5.2922050622e+01 +6.7221433006e+02 +7.2674410178e+02 9.9137774761e+02 0.0000000000e+00 0.0000e+00 1.0000e+00
       13  1    1    2    0    0 -5.2922050622e+01 -6.7221433006e+02 -2.3392774876e+02 7.1371916089e+02 0.0000000000e+00 0.0000e+00 -1.0000e+00
<mgrwt>
<rscale>  0 0.16323258E+04</rscale>
<asrwt>0</asrwt>
<pdfrwt beam="1">  1        2 0.16907025E+00 0.16323258E+04</pdfrwt>
<pdfrwt beam="2">  1       -2 0.93252351E-01 0.16323258E+04</pdfrwt>
<totfact> 0.25779407E+01</totfact>
</mgrwt>
<rwgt>
<wgt id='morphing_basis_vector_1'> +1.8668564e-04 </wgt>
<wgt id='morphing_basis_vector_2'> +1.9950972e-04 </wgt>
<wgt id='morphing_basis_vector_3'> +2.0597522e-04 </wgt>
<wgt id='morphing_basis_vector_4'> +4.6701576e-05 </wgt>
<wgt id='morphing_basis_vector_5'> +1.7017990e-04 </wgt>
</rwgt>
</event>
<event>
 4      1 +1.5130300e-07 1.69476900e+03 7.81860800e-03 8.20993100e-02
        2 -1    0    0  501    0 +0.0000000000e+00 +0.0000000000e+00 +3.0853560613e+03 3.0853560613e+03 0.0000000000e+00 0.0000e+00 -1.0000e+00
       -2 -1    0    0    0  501 -0.0000000000e+00 -0.0000000000e+00 -2.3273191723e+02 2.3273191723e+02 0.0000000000e+00 0.0000e+00 1.0000e+00
      -13  1    1    2    0    0 -8.1607183201e+02 +1.9846690808e+02 +1.2056878448e+03 1.4693690917e+03 0.0000000000e+00 0.0000e+00 -1.0000e+00
       13  1    1    2    0    0 +8.1607183201e+02 -1.9846690808e+02 +1.6469362993e+03 1.8487188868e+03 0.0000000000e+00 0.0000e+00 1.0000e+00
<mgrwt>
<rscale>  0 0.16947694E+04</rscale>
<asrwt>0</asrwt>
<pdfrwt beam="1">  1        2 0.47467013E+00 0.16947694E+04</pdfrwt>
<pdfrwt beam="2">  1       -2 0.35804913E-01 0.16947694E+04</pdfrwt>
<totfact> 0.12634220E+01</totfact>
</mgrwt>
<rwgt>
<wgt id='morphing_basis_vector_1'> +1.8162901e-04 </wgt>
<wgt id='morphing_basis_vector_2'> +1.2890991e-04 </wgt>
<wgt id='morphing_basis_vector_3'> +1.9237375e-04 </wgt>
<wgt id='morphing_basis_vector_4'> +1.2066929e-04 </wgt>
<wgt id='morphing_basis_vector_5'> +2.0364566e-04 </wgt>
</rwgt>
</event>
<event>
 4      1 +1.5130300e-07 1.82108300e+03 7.81860800e-03 8.14927000e-02
        2 -1    0    0  501    0 +0.0000000000e+00 +0.0000000000e+00 +2.0026186602e+03 2.0026186602e+03 0.0000000000e+00 0.0000e+00 -1.0000e+00
       -2 -1    0    0    0  501 -0.0000000000e+00 -0.0000000000e+00 -4.1400063549e+02 4.1400063549e+02 0.0000000000e+00 0.0000e+00 1.0000e+00
      -13  1    1    2    0    0 -8.3927857804e+02 +2.9605356480e+02 +5.3888145342e+02 1.0403987051e+03 0.0000000000e+00 0.0000e+00 1.0000e+00
       13  1    1    2    0    0 +8.3927857804e+02 -2.9605356480e+02 +1.0497365713e+03 1.3762205906e+03 0.0000000000e+00 0.0000e+00 -1.0000e+00
<mgrwt>
<rscale>  0 0.18210825E+04</rscale>
<asrwt>0</asrwt>
<pdfrwt beam="1">  1        2 0.30809518E+00 0.18210825E+04</pdfrwt>
<pdfrwt beam="2">  1       -2 0.63692406E-01 0.18210825E+04</pdfrwt>
<totfact> 0.18258728E+01</totfact>
</mgrwt>
<rwgt>
<wgt id='morphing_basis_vector_1'> +2.3895431e-04 </wgt>
<wgt id='morphing_basis_vector_2'> +1.6712710e-04 </wgt>
<wgt id='morphing_basis_vector_3'> +2.5447084e-04 </wgt>
<wgt id='morphing_basis_vector_4'> +1.6473177e-04 </wgt>
<wgt id='morphing_basis_vector_5'> +2.7374724e-04 </wgt>
</rwgt>
</event>
<event>
 4      1 +1.5130300e-07 1.58270200e+03 7.81860800e-03 8.26846800e-02
        2 -1    0    0  501    0 +0.0000000000e+00 +0.0000000000e+00 +2.2437781215e+03 2.2437781215e+03 0.0000000000e+00 0.0000e+00 -1.0000e+00
       -2 -1    0    0    0  501 -0.0000000000e+00 -0.0000000000e+00 -2.7909891239e+02 2.7909891239e+02 0.0000000000e+00 0.0000e+00 1.0000e+00
      -13  1    1    2    0    0 -6.1383709123e+02 +4.2641257429e+02 +5.6785332617e+02 9.3865918103e+02 0.0000000000e+00 0.0000e+00 1.0000e+00
       13  1    1    2    0    0 +6.1383709123e+02 -4.2641257429e+02 +1.3968258830e+03 1.5842178529e+03 0.0000000000e+00 0.0000e+00 -1.0000e+00
<mgrwt>
<rscale>  0 0.15827015E+04</rscale>
<asrwt>0</asrwt>
<pdfrwt beam="1">  1        2 0.34519662E+00 0.15827015E+04</pdfrwt>
<pdfrwt beam="2">  1       -2 0.42938296E-01 0.15827015E+04</pdfrwt>
<totfact> 0.29781330E+01</totfact>
</mgrwt>
<rwgt>
<wgt id='morphing_basis_vector_1'> +1.3761329e-04 </wgt>
<wgt id='morphing_basis_vector_2'> +9.3497860e-05 </wgt>
<wgt id='morphing_basis_vector_3'> +1.4411232e-04 </wgt>
<wgt id='morphing_basis_vector_4'> +9.4209893e-05 </wgt>
<wgt id='morphing_basis_vector_5'> +1.5385405e-04 </wgt>
</rwgt>
</event>
<event>
 4      1 +1.5130300e-07 1.68077700e+03 7.81860800e-03 8.21698200e-02
        2 -1    0    0  501    0 +0.0000000000e+00 +0.0000000000e+00 +1.8326469680e+03 1.8326469680e+03 0.0000000000e+00 0.0000e+00 1.0000e+00
       -2 -1    0    0    0  501 -0.0000000000e+00 -0.0000000000e+00 -3.8537304279e+02 3.8537304279e+02 0.0000000000e+00 0.0000e+00 -1.0000e+00
      -13  1    1    2    0    0 +4.9290422032e+02 -2.2025457775e+02 -1.2626236039e+02 5.5444461678e+02 0.0000000000e+00 0.0000e+00 -1.0000e+00
       13  1    1    2    0    0 -4.9290422032e+02 +2.2025457775e+02 +1.5735362856e+03 1.6635753940e+03 0.0000000000e+00 0.0000e+00 1.0000e+00
<mgrwt>
<rscale>  0 0.16807769E+04</rscale>
<asrwt>0</asrwt>
<pdfrwt beam="1">  1        2 0.28194568E+00 0.16807769E+04</pdfrwt>
<pdfrwt beam="2">  1       -2 0.59288162E-01 0.16807769E+04</pdfrwt>
<totfact> 0.26669853E+01</totfact>
</mgrwt>
<rwgt>
<wgt id='morphing_basis_vector_1'> +1.7216050e-04 </wgt>
<wgt id='morphing_basis_vector_2'> +1.1374426e-04 </wgt>
<wgt id='morphing_basis_vector_3'> +1.8099887e-04 </wgt>
<wgt id='morphing_basis_vector_4'> +1.2375724e-04 </wgt>
<wgt id='morphing_basis_vector_5'> +1.9736245e-04 </wgt>
</rwgt>
</event>
<event>
 4      1 +1.5130300e-07 1.61457600e+03 7.81860800e-03 8.25132400e-02
        2 -1    0    0  501    0 +0.0000000000e+00 +0.0000000000e+00 +2.0451256942e+03 2.0451256942e+03 0.0000000000e+00 0.0000e+00 1.0000e+00
       -2 -1    0    0    0  501 -0.0000000000e+00 -0.0000000000e+00 -3.1866696737e+02 3.1866696737e+02 0.0000000000e+00 0.0000e+00 -1.0000e+00
      -13  1    1    2    0    0 -7.1082409431e+02 +3.0961087767e+02 +5.3395466381e+02 9.4140181199e+02 0.0000000000e+00 0.0000e+00 1.0000e+00
       13  1    1    2    0    0 +7.1082409431e+02 -3.0961087767e+02 +1.1925040630e+03 1.4223908496e+03 0.0000000000e+00 0.0000e+00 -1.0000e+00
<mgrwt>
<rscale>  0 0.16145761E+04</rscale>
<asrwt>0</asrwt>
<pdfrwt beam="1">  1        2 0.31463471E+00 0.16145761E+04</pdfrwt>
<pdfrwt beam="2">  1       -2 0.49025689E-01 0.16145761E+04</pdfrwt>
<totfact> 0.29833515E+01</totfact>
</mgrwt>
<rwgt>
<wgt id='morphing_basis_vector_1'> +1.4901990e-04 </wgt>
<wgt id='morphing_basis_vector_2'> +1.0218995e-04 </wgt>
<wgt id='morphing_basis_vector_3'> +1.5652908e-04 </wgt>
<wgt id='morphing_basis_vector_4'> +1.0160914e-04 </wgt>
<wgt id='morphing_basis_vector_5'> +1.6700048e-04 </wgt>
</rwgt>
</event>
<event>
 4      1 +1.5130300e-07 1.61374600e+03 7.81860800e-03 8.25176500e-02
        2 -1    0    0  501    0 +0.0000000000e+00 +0.0000000000e+00 +2.0968391566e+03 2.0968391566e+03 0.0000000000e+00 0.0000e+00 -1.0000e+00
       -2 -1    0    0    0  501 -0.0000000000e+00 -0.0000000000e+00 -3.1048848832e+02 3.1048848832e+02 0.0000000000e+00 0.0000e+00 1.0000e+00
      -13  1    1    2    0    0 -5.2560275231e+02 +3.4661633708e+01 -1.8613899601e+01 5.2707320112e+02 0.0000000000e+00 0.0000e+00 1.0000e+00
       13  1    1    2    0    0 +5.2560275231e+02 -3.4661633708e+01 +1.8049645679e+03 1.8802544438e+03 0.0000000000e+00 0.0000e+00 -1.0000e+00
<mgrwt>
<rscale>  0 0.16137465E+04</rscale>
<asrwt>0</asrwt>
<pdfrwt beam="1">  1        2 0.32259063E+00 0.16137465E+04</pdfrwt>
<pdfrwt beam="2">  1       -2 0.47767461E-01 0.16137465E+04</pdfrwt>
<totfact> 0.29346112E+01</totfact>
</mgrwt>
<rwgt>
<wgt id='morphing_basis_vector_1'> +1.4701027e-04 </wgt>
<wgt id='morphing_basis_vector_2'> +9.6887316e-05 </wgt>
<wgt id='morphing_basis_vector_3'> +1.5388885e-04 </wgt>
<wgt id='morphing_basis_vector_4'> +1.0465524e-04 </wgt>
<wgt id='morphing_basis_vector_5'> +1.6689357e-04 </wgt>
</rwgt>
</event>
<event>
 4      1 +1.5130300e-07 1.64950000e+03 7.81860800e-03 8.23300100e-02
        2 -1    0    0  501    0 +0.0000000000e+00 +0.0000000000e+00 +9.8387367552e+02 9.8387367552e+02 0.0000000000e+00 0.0000e+00 -1.0000e+00
       -2 -1    0    0    0  501 -0.0000000000e+00 -0.0000000000e+00 -6.9136188120e+02 6.9136188120e+02 0.0000000000e+00 0.0000e+00 1.0000e+00
      -13  1    1    2    0    0 +5.5615212973e+02 -5.4434215062e+02 -1.3113394128e+02 7.8918291853e+02 0.0000000000e+00 0.0000e+00 1.0000e+00
       13  1    1    2    0    0 -5.5615212973e+02 +5.4434215062e+02 +4.2364573560e+02 8.8605263819e+02 0.0000000000e+00 0.0000e+00 -1.0000e+00
<mgrwt>
<rscale>  0 0.16495002E+04</rscale>
<asrwt>0</asrwt>
<pdfrwt beam="1">  1        2 0.15136518E+00 0.16495002E+04</pdfrwt>
<pdfrwt beam="2">  1       -2 0.10636337E+00 0.16495002E+04</pdfrwt>
<totfact> 0.22056011E+01</totfact>
</mgrwt>
<rwgt>
<wgt id='morphing_basis_vector_1'> +1.6152144e-04 </wgt>
<wgt id='morphing_basis_vector_2'> +1.0999780e-04 </wgt>
<wgt id='morphing_basis_vector_3'> +1.6994741e-04 </wgt>
<wgt id='morphing_basis_vector_4'> +1.1173259e-04 </wgt>
<wgt id='morphing_basis_vector_5'> +1.8245898e-04 </wgt>
</rwgt>
</event>
<event>
 4      1 +1.5130300e-07 1.82643400e+03 7.81860800e-03 8.14681200e-02
        2 -1    0    0  501    0 +0.0000000000e+00 +0.0000000000e+00 +3.6493865344e+03 3.6493865344e+03 0.0000000000e+00 0.0000e+00 1.0000e+00
       -2 -1    0    0    0  501 -0.0000000000e+00 -0.0000000000e+00 -2.2852207180e+02 2.2852207180e+02 0.0000000000e+00 0.0000e+00 -1.0000e+00
      -13  1    1    2    0    0 -3.0156734378e+02 -6.0786933531e+02 +4.1280792423e+02 7.9426593403e+02 0.0000000000e+00 0.0000e+00 -1.0000e+00
       13  1    1    2    0    0 +3.0156734378e+02 +6.0786933531e+02 +3.0080565383e+03 3.0836426721e+03 0.0000000000e+00 0.0000e+00 1.0000e+00
<mgrwt>
<rscale>  0 0.18264341E+04</rscale>
<asrwt>0</asrwt>
<pdfrwt beam="1">  1        2 0.56144404E+00 0.18264341E+04</pdfrwt>
<pdfrwt beam="2">  1       -2 0.35157244E-01 0.18264341E+04</pdfrwt>
<totfact> 0.51641847E+00</totfact>
</mgrwt>
<rwgt>
<wgt id='morphing_basis_vector_1'> +2.3818213e-04 </wgt>
<wgt id='morphing_basis_vector_2'> +1.5862222e-04 </wgt>
<wgt id='morphing_basis_vector_3'> +2.5247600e-04 </wgt>
<wgt id='morphing_basis_vector_4'> +1.7362192e-04 </wgt>
<wgt id='morphing_basis_vector_5'> +2.7759427e-04 </wgt>
</rwgt>
</event>
<event>
 4      1 +1.5130300e-07 1.76665300e+03 7.81860800e-03 8.17477300e-02
        2 -1    0    0  501    0 +0.0000000000e+00 +0.0000000000e+00 +8.2907843328e+02 8.2907843328e+02 0.0000000000e+00 0.0000e+00 -1.0000e+00
       -2 -1    0    0    0  501 -0.0000000000e+00 -0.0000000000e+00 -9.4112368766e+02 9.4112368766e+02 0.0000000000e+00 0.0000e+00 1.0000e+00
      -13  1    1    2    0    0 +6.2352300442e+02 +5.2501680315e+02 -3.9706182306e+02 9.0668719631e+02 0.0000000000e+00 0.0000e+00 1.0000e+00
       13  1    1    2    0    0 -6.2352300442e+02 -5.2501680315e+02 +2.8501656868e+02 8.6351492463e+02 0.0000000000e+00 0.0000e+00 -1.0000e+00
<mgrwt>
<rscale>  0 0.17666526E+04</rscale>
<asrwt>0</asrwt>
<pdfrwt beam="1">  1        2 0.12755053E+00 0.17666526E+04</pdfrwt>
<pdfrwt beam="2">  1       -2 0.14478826E+00 0.17666526E+04</pdfrwt>
<totfact> 0.12227061E+01</totfact>
</mgrwt>
<rwgt>
<wgt id='morphing_basis_vector_1'> +2.1048775e-04 </wgt>
<wgt id='morphing_basis_vector_2'> +1.4290785e-04 </wgt>
<wgt id='morphing_basis_vector_3'> +2.2289204e-04 </wgt>
<wgt id='morphing_basis_vector_4'> +1.4896830e-04 </wgt>
<wgt id='morphing_basis_vector_5'> +2.4199022e-04 </wgt>
</rwgt>
</event>
<event>
 4      1 +1.5130300e-07 1.69387600e+03 7.81860800e-03 8.21037900e-02
        2 -1    0    0  501    0 +0.0000000000e+00 +0.0000000000e+00 +1.6201921705e+03 1.6201921705e+03 0.0000000000e+00 0.0000e+00 -1.0000e+00
       -2 -1    0    0    0  501 -0.0000000000e+00 -0.0000000000e+00 -4.4272786074e+02 4.4272786074e+02 0.0000000000e+00 0.0000e+00 1.0000e+00
      -13  1    1    2    0    0 +3.6868306883e+01 +5.9224090788e+02 -1.4724359268e+02 6.1138305554e+02 0.0000000000e+00 0.0000e+00 1.0000e+00
       13  1    1    2    0    0 -3.6868306883e+01 -5.9224090788e+02 +1.3247079024e+03 1.4515369757e+03 0.0000000000e+00 0.0000e+00 -1.0000e+00
<mgrwt>
<rscale>  0 0.16938763E+04</rscale>
<asrwt>0</asrwt>
<pdfrwt beam="1">  1        2 0.24926033E+00 0.16938763E+04</pdfrwt>
<pdfrwt beam="2">  1       -2 0.68111979E-01 0.16938763E+04</pdfrwt>
<totfact> 0.26193390E+01</totfact>
</mgrwt>
<rwgt>
<wgt id='morphing_basis_vector_1'> +1.7751005e-04 </wgt>
<wgt id='morphing_basis_vector_2'> +1.1750879e-04 </wgt>
<wgt id='morphing_basis_vector_3'> +1.8679570e-04 </wgt>
<wgt id='morphing_basis_vector_4'> +1.2762584e-04 </wgt>
<wgt id='morphing_basis_vector_5'> +2.0375705e-04 </wgt>
</rwgt>
</event>
<event>
 4      1 +1.5130300e-07 1.57196700e+03 7.81860800e-03 8.27433600e-02
        2 -1    0    0  501    0 +0.0000000000e+00 +0.0000000000e+00 +1.0490256153e+03 1.0490256153e+03 0.0000000000e+00 0.0000e+00 1.0000e+00
       -2 -1    0    0    0  501 -0.0000000000e+00 -0.0000000000e+00 -5.8889859716e+02 5.8889859716e+02 0.0000000000e+00 0.0000e+00 -1.0000e+00
      -13  1    1    2    0    0 +6.5546022064e+02 +4.0946713999e+02 +8.0956804448e+01 7.7707492802e+02 0.0000000000e+00 0.0000e+00 -1.0000e+00
       13  1    1    2    0    0 -6.5546022064e+02 -4.0946713999e+02 +3.7917021372e+02 8.6084928445e+02 0.0000000000e+00 0.0000e+00 1.0000e+00
<mgrwt>
<rscale>  0 0.15719666E+04</rscale>
<asrwt>0</asrwt>
<pdfrwt beam="1">  1        2 0.16138856E+00 0.15719666E+04</pdfrwt>
<pdfrwt beam="2">  1       -2 0.90599784E-01 0.15719666E+04</pdfrwt>
<totfact> 0.29725087E+01</totfact>
</mgrwt>
<rwgt>
<wgt id='morphing_basis_vector_1'> +1.3514082e-04 </wgt>
<wgt id='morphing_basis_vector_2'> +9.4317874e-05 </wgt>
<wgt id='morphing_basis_vector_3'> +1.4173100e-04 </wgt>
<wgt id='morphing_basis_vector_4'> +8.9509868e-05 </wgt>
<wgt id='morphing_basis_vector_5'> +1.4943160e-04 </wgt>
</rwgt>
</event>
<event>
 4      1 +1.5130300e-07 1.68130200e+03 7.81860800e-03 8.21671600e-02
        2 -1    0    0  501    0 +0.0000000000e+00 +0.0000000000e+00 +1.3197465585e+03 1.3197465585e+03 0.0000000000e+00 0.0000e+00 -1.0000e+00
       -2 -1    0    0    0  501 -0.0000000000e+00 -0.0000000000e+00 -5.3547715981e+02 5.3547715981e+02 0.0000000000e+00 0.0000e+00 1.0000e+00
      -13  1    1    2    0    0 -5.6116055747e+02 -3.3416070442e+02 -1.9188842233e+02 6.8072440405e+02 0.0000000000e+00 0.0000e+00 1.0000e+00
       13  1    1    2    0    0 +5.6116055747e+02 +3.3416070442e+02 +9.7615782100e+02 1.1744993142e+03 0.0000000000e+00 0.0000e+00 -1.0000e+00
<mgrwt>
<rscale>  0 0.16813020E+04</rscale>
<asrwt>0</asrwt>
<pdfrwt beam="1">  1        2 0.20303793E+00 0.16813020E+04</pdfrwt>
<pdfrwt beam="2">  1       -2 0.82381102E-01 0.16813020E+04</pdfrwt>
<totfact> 0.25435471E+01</totfact>
</mgrwt>
<rwgt>
<wgt id='morphing_basis_vector_1'> +1.7260587e-04 </wgt>
<wgt id='morphing_basis_vector_2'> +1.1458669e-04 </wgt>
<wgt id='morphing_basis_vector_3'> +1.8154977e-04 </wgt>
<wgt id='morphing_basis_vector_4'> +1.2346206e-04 </wgt>
<wgt id='morphing_basis_vector_5'> +1.9758163e-04 </wgt>
</rwgt>
</event>
<event>
 4      1 +1.5130300e-07 1.73416500e+03 7.81860800e-03 8.19044700e-02
        2 -1    0    0  501    0 +0.0000000000e+00 +0.0000000000e+00 +2.2318489360e+03 2.2318489360e+03 0.0000000000e+00 0.0000e+00 1.0000e+00
       -2 -1    0    0    0  501 -0.0000000000e+00 -0.0000000000e+00 -3.3686504470e+02 3.3686504470e+02 0.0000000000e+00 0.0000e+00 -1.0000e+00
      -13  1    1    2    0    0 +4.3934577268e+02 -4.1093345662e+02 +2.2528085727e+01 6.0199545546e+02 0.0000000000e+00 0.0000e+00 -1.0000e+00
       13  1    1    2    0    0 -4.3934577268e+02 +4.1093345662e+02 +1.8724558056e+03 1.9667185253e+03 0.0000000000e+00 0.0000e+00 1.0000e+00
<mgrwt>
<rscale>  0 0.17341648E+04</rscale>
<asrwt>0</asrwt>
<pdfrwt beam="1">  1        2 0.34336136E+00 0.17341648E+04</pdfrwt>
<pdfrwt beam="2">  1       -2 0.51825393E-01 0.17341648E+04</pdfrwt>
<totfact> 0.20733293E+01</totfact>
</mgrwt>
<rwgt>
<wgt id='morphing_basis_vector_1'> +1.9449875e-04 </wgt>
<wgt id='morphing_basis_vector_2'> +1.2891477e-04 </wgt>
<wgt id='morphing_basis_vector_3'> +2.0514802e-04 </wgt>
<wgt id='morphing_basis_vector_4'> +1.4058170e-04 </wgt>
<wgt id='morphing_basis_vector_5'> +2.2442938e-04 </wgt>
</rwgt>
</event>
<event>
 4      1 +1.5130300e-07 1.57201400e+03 7.81860800e-03 8.27431000e-02
        2 -1    0    0  501    0 +0.0000000000e+00 +0.0000000000e+00 +1.3092567889e+03 1.3092567889e+03 0.0000000000e+00 0.0000e+00 -1.0000e+00
       -2 -1    0    0    0  501 -0.0000000000e+00 -0.0000000000e+00 -4.7187587524e+02 4.7187587524e+02 0.0000000000e+00 0.0000e+00 1.0000e+00
      -13  1    1    2    0    0 -3.1747492526e+02 -3.8462064572e+02 -2.6964823102e+02 5.6695108940e+02 0.0000000000e+00 0.0000e+00 1.0000e+00
       13  1    1    2    0    0 +3.1747492526e+02 +3.8462064572e+02 +1.1070291447e+03 1.2141815748e+03 0.0000000000e+00 0.0000e+00 -1.0000e+00
<mgrwt>
<rscale>  0 0.15720136E+04</rscale>
<asrwt>0</asrwt>
<pdfrwt beam="1">  1        2 0.20142412E+00 0.15720136E+04</pdfrwt>
<pdfrwt beam="2">  1       -2 0.72596289E-01 0.15720136E+04</pdfrwt>
<totfact> 0.34515275E+01</totfact>
</mgrwt>
<rwgt>
<wgt id='morphing_basis_vector_1'> +1.3280630e-04 </wgt>
<wgt id='morphing_basis_vector_2'> +8.7332623e-05 </wgt>
<wgt id='morphing_basis_vector_3'> +1.3860199e-04 </wgt>
<wgt id='morphing_basis_vector_4'> +9.3964487e-05 </wgt>
<wgt id='morphing_basis_vector_5'> +1.4978406e-04 </wgt>
</rwgt>
</event>
<event>
 4      1 +1.5130300e-07 1.65756400e+03 7.81860800e-03 8.22883600e-02
        2 -1    0    0  501    0 +0.0000000000e+00 +0.0000000000e+00 +1.5794294870e+03 1.5794294870e+03 0.0000000000e+00 0.0000e+00 1.0000e+00
       -2 -1    0    0    0  501 -0.0000000000e+00 -0.0000000000e+00 -4.3489098400e+02 4.3489098400e+02 0.0000000000e+00 0.0000e+00 -1.0000e+00
      -13  1    1    2    0    0 -5.2557223600e+02 +2.2712172001e+02 -1.5592512450e+02 5.9339960853e+02 0.0000000000e+00 0.0000e+00 -1.0000e+00
       13  1    1    2    0    0 +5.2557223600e+02 -2.2712172001e+02 +1.3004636275e+03 1.4209208625e+03 0.0000000000e+00 0.0000e+00 1.0000e+00
<mgrwt>
<rscale>  0 0.16575640E+04</rscale>
<asrwt>0</asrwt>
<pdfrwt beam="1">  1        2 0.24298915E+00 0.16575640E+04</pdfrwt>
<pdfrwt beam="2">  1       -2 0.66906306E-01 0.16575640E+04</pdfrwt>
<totfact> 0.28753017E+01</totfact>
</mgrwt>
<rwgt>
<wgt id='morphing_basis_vector_1'> +1.6316037e-04 </wgt>
<wgt id='morphing_basis_vector_2'> +1.0782762e-04 </wgt>
<wgt id='morphing_basis_vector_3'> +1.7130551e-04 </wgt>
<wgt id='morphing_basis_vector_4'> +1.1677337e-04 </wgt>
<wgt id='morphing_basis_vector_5'> +1.8637239e-04 </wgt>
</rwgt>
</event>
<event>
 4      1 +1.5130300e-07 1.82291300e+03 7.81860800e-03 8.14842800e-02
        2 -1    0    0  501    0 +0.0000000000e+00 +0.0000000000e+00 +1.3509212611e+03 1.3509212611e+03 0.0000000000e+00 0.0000e+00 -1.0000e+00
       -2 -1    0    0    0  501 -0.0000000000e+00 -0.0000000000e+00 -6.1495300983e+02 6.1495300983e+02 0.0000000000e+00 0.0000e+00 1.0000e+00
      -13  1    1    2    0    0 -7.7869826450e+02 +4.9040111959e+01 -1.4010970282e+02 7.9272104081e+02 0.0000000000e+00 0.0000e+00 1.0000e+00
       13  1    1    2    0    0 +7.7869826450e+02 -4.9040111959e+01 +8.7607795409e+02 1.1731532301e+03 0.0000000000e+00 0.0000e+00 -1.0000e+00
<mgrwt>
<rscale>  0 0.18229132E+04</rscale>
<asrwt>0</asrwt>
<pdfrwt beam="1">  1        2 0.20783404E+00 0.18229132E+04</pdfrwt>
<pdfrwt beam="2">  1       -2 0.94608155E-01 0.18229132E+04</pdfrwt>
<totfact> 0.17487503E+01</totfact>
</mgrwt>
<rwgt>
<wgt id='morphing_basis_vector_1'> +2.3698014e-04 </wgt>
<wgt id='morphing_basis_vector_2'> +1.5915131e-04 </wgt>
<wgt id='morphing_basis_vector_3'> +2.5136782e-04 </wgt>
<wgt id='morphing_basis_vector_4'> +1.7111067e-04 </wgt>
<wgt id='morphing_basis_vector_5'> +2.7531927e-04 </wgt>
</rwgt>
</event>
<event>
 4      1 +1.5130300e-07 1.77590000e+03 7.81860800e-03 8.17037500e-02
        2 -1    0    0  501    0 +0.0000000000e+00 +0.0000000000e+00 +1.0763697281e+03 1.0763697281e+03 0.0000000000e+00 0.0000e+00 1.0000e+00
       -2 -1    0    0    0  501 -0.0000000000e+00 -0.0000000000e+00 -7.3251300159e+02 7.3251300159e+02 0.0000000000e+00 0.0000e+00 -1.0000e+00
      -13  1    1    2    0    0 -1.7552906649e+02 +3.7369018195e+02 +9.7265864573e+02 1.0566549325e+03 0.0000000000e+00 0.0000e+00 1.0000e+00
       13  1    1    2    0    0 +1.7552906649e+02 -3.7369018195e+02 -6.2880191921e+02 7.5222779720e+02 0.0000000000e+00 0.0000e+00 -1.0000e+00
<mgrwt>
<rscale>  0 0.17758996E+04</rscale>
<asrwt>0</asrwt>
<pdfrwt beam="1">  1        2 0.16559534E+00 0.17758996E+04</pdfrwt>
<pdfrwt beam="2">  1       -2 0.11269431E+00 0.17758996E+04</pdfrwt>
<totfact> 0.16560075E+01</totfact>
</mgrwt>
<rwgt>
<wgt id='morphing_basis_vector_1'> +2.8937121e-04 </wgt>
<wgt id='morphing_basis_vector_2'> +3.6716921e-04 </wgt>
<wgt id='morphing_basis_vector_3'> +3.3229257e-04 </wgt>
<wgt id='morphing_basis_vector_4'> +7.0814612e-06 </wgt>
<wgt id='morphing_basis_vector_5'> +2.3601329e-04 </wgt>
</rwgt>
</event>
<event>
 4      1 +1.5130300e-07 1.82575100e+03 7.81860800e-03 8.14712600e-02
        2 -1    0    0  501    0 +0.0000000000e+00 +0.0000000000e+00 +1.2521221538e+03 1.2521221538e+03 0.0000000000e+00 0.0000e+00 1.0000e+00
       -2 -1    0    0    0  501 -0.0000000000e+00 -0.0000000000e+00 -6.6554323849e+02 6.6554323849e+02 0.0000000000e+00 0.0000e+00 -1.0000e+00
      -13  1    1    2    0    0 +9.0603522429e+02 +2.7557597291e+01 +4.0681494511e+02 9.9355807500e+02 0.0000000000e+00 0.0000e+00 -1.0000e+00
       13  1    1    2    0    0 -9.0603522429e+02 -2.7557597291e+01 +1.7976397016e+02 9.2410731725e+02 0.0000000000e+00 0.0000e+00 1.0000e+00
<mgrwt>
<rscale>  0 0.18257507E+04</rscale>
<asrwt>0</asrwt>
<pdfrwt beam="1">  1        2 0.19263418E+00 0.18257507E+04</pdfrwt>
<pdfrwt beam="2">  1       -2 0.10239127E+00 0.18257507E+04</pdfrwt>
<totfact> 0.16478666E+01</totfact>
</mgrwt>
<rwgt>
<wgt id='morphing_basis_vector_1'> +2.5061937e-04 </wgt>
<wgt id='morphing_basis_vector_2'> +1.9630950e-04 </wgt>
<wgt id='morphing_basis_vector_3'> +2.7022012e-04 </wgt>
<wgt id='morphing_basis_vector_4'> +1.4833255e-04 </wgt>
<wgt id='morphing_basis_vector_5'> +2.7522443e-04 </wgt>
</rwgt>
</event>
<event>
 4      1 +1.5130300e-07 1.76454500e+03 7.81860800e-03 8.17578000e-02
        2 -1    0    0  501    0 +0.0000000000e+00 +0.0000000000e+00 +1.8542745602e+03 1.8542745602e+03 0.0000000000e+00 0.0000e+00 -1.0000e+00
       -2 -1    0    0    0  501 -0.0000000000e+00 -0.0000000000e+00 -4.1978923152e+02 4.1978923152e+02 0.0000000000e+00 0.0000e+00 1.0000e+00
      -13  1    1    2    0    0 +4.6028977338e+02 +6.9269488591e+02 +1.0967398951e+03 1.3764197318e+03 0.0000000000e+00 0.0000e+00 1.0000e+00
       13  1    1    2    0    0 -4.6028977338e+02 -6.9269488591e+02 +3.3774543352e+02 8.9764405992e+02 0.0000000000e+00 0.0000e+00 -1.0000e+00
<mgrwt>
<rscale>  0 0.17645447E+04</rscale>
<asrwt>0</asrwt>
<pdfrwt beam="1">  1        2 0.28527300E+00 0.17645447E+04</pdfrwt>
<pdfrwt beam="2">  1       -2 0.64582960E-01 0.17645447E+04</pdfrwt>
<totfact> 0.21579642E+01</totfact>
</mgrwt>
<rwgt>
<wgt id='morphing_basis_vector_1'> +2.3132924e-04 </wgt>
<wgt id='morphing_basis_vector_2'> +2.0700084e-04 </wgt>
<wgt id='morphing_basis_vector_3'> +2.5240540e-04 </wgt>
<wgt id='morphing_basis_vector_4'> +1.0583295e-04 </wgt>
<wgt id='morphing_basis_vector_5'> +2.3753370e-04 </wgt>
</rwgt>
</event>
<event>
 4      1 +1.5130300e-07 1.57709700e+03 7.81860800e-03 8.27152600e-02
        2 -1    0    0  501    0 +0.0000000000e+00 +0.0000000000e+00 +3.5800906198e+02 3.5800906198e+02 0.0000000000e+00 0.0000e+00 -1.0000e+00
       -2 -1    0    0    0  501 -0.0000000000e+00 -0.0000000000e+00 -1.7368520978e+03 1.7368520978e+03 0.0000000000e+00 0.0000e+00 1.0000e+00
      -13  1    1    2    0    0 -1.3015815182e+02 -3.6270978252e+02 -1.6032597441e+03 1.6489212649e+03 0.0000000000e+00 0.0000e+00 1.0000e+00
       13  1    1    2    0    0 +1.3015815182e+02 +3.6270978252e+02 +2.2441670832e+02 4.4593989483e+02 0.0000000000e+00 0.0000e+00 -1.0000e+00
<mgrwt>
<rscale>  0 0.15770971E+04</rscale>
<asrwt>0</asrwt>
<pdfrwt beam="1">  1        2 0.55078317E-01 0.15770971E+04</pdfrwt>
<pdfrwt beam="2">  1       -2 0.26720802E+00 0.15770971E+04</pdfrwt>
<totfact> 0.41801790E+00</totfact>
</mgrwt>
<rwgt>
<wgt id='morphing_basis_vector_1'> +1.3441289e-04 </wgt>
<wgt id='morphing_basis_vector_2'> +8.8261871e-05 </wgt>
<wgt id='morphing_basis_vector_3'> +1.4031247e-04 </wgt>
<wgt id='morphing_basis_vector_4'> +9.5345161e-05 </wgt>
<wgt id='morphing_basis_vector_5'> +1.5180452e-04 </wgt>
</rwgt>
</event>
<event>
 4      1 +1.5130300e-07 1.58659000e+03 7.81860800e-03 8.26635500e-02
        2 -1    0    0  501    0 +0.0000000000e+00 +0.0000000000e+00 +1.0339593778e+03 1.0339593778e+03 0.0000000000e+00 0.0000e+00 1.0000e+00
       -2 -1    0    0    0  501 -0.0000000000e+00 -0.0000000000e+00 -6.0864767395e+02 6.0864767395e+02 0.0000000000e+00 0.0000e+00 -1.0000e+00
      -13  1    1    2    0    0 -1.9879073137e+02 +5.9844417918e+02 -2.8565234903e+02 6.9227917416e+02 0.0000000000e+00 0.0000e+00 -1.0000e+00
       13  1    1    2    0    0 +1.9879073137e+02 -5.9844417918e+02 +7.1096405291e+02 9.5032787763e+02 0.0000000000e+00 0.0000e+00 1.0000e+00
<mgrwt>
<rscale>  0 0.15865900E+04</rscale>
<asrwt>0</asrwt>
<pdfrwt beam="1">  1        2 0.15907067E+00 0.15865900E+04</pdfrwt>
<pdfrwt beam="2">  1       -2 0.93638104E-01 0.15865900E+04</pdfrwt>
<totfact> 0.28069152E+01</totfact>
</mgrwt>
<rwgt>
<wgt id='morphing_basis_vector_1'> +1.3787793e-04 </wgt>
<wgt id='morphing_basis_vector_2'> +9.1282979e-05 </wgt>
<wgt id='morphing_basis_vector_3'> +1.4412033e-04 </wgt>
<wgt id='morphing_basis_vector_4'> +9.7157161e-05 </wgt>
<wgt id='morphing_basis_vector_5'> +1.5557093e-04 </wgt>
</rwgt>
</event>
<event>
 4      1 +1.5130300e-07 1.56292600e+03 7.81860800e-03 8.27931600e-02
        2 -1    0    0  501    0 +0.0000000000e+00 +0.0000000000e+00 +3.6320075245e+03 3.6320075245e+03 0.0000000000e+00 0.0000e+00 1.0000e+00
       -2 -1    0    0    0  501 -0.0000000000e+00 -0.0000000000e+00 -1.6813959910e+02 1.6813959910e+02 0.0000000000e+00 0.0000e+00 -1.0000e+00
      -13  1    1    2    0    0 -5.3910410368e+02 -2.1230955417e+02 +4.5693683692e+02 7.3790233387e+02 0.0000000000e+00 0.0000e+00 -1.0000e+00
       13  1    1    2    0    0 +5.3910410368e+02 +2.1230955417e+02 +3.0069310885e+03 3.0622447897e+03 0.0000000000e+00 0.0000e+00 1.0000e+00
<mgrwt>
<rscale>  0 0.15629258E+04</rscale>
<asrwt>0</asrwt>
<pdfrwt beam="1">  1        2 0.55877033E+00 0.15629258E+04</pdfrwt>
<pdfrwt beam="2">  1       -2 0.25867633E-01 0.15629258E+04</pdfrwt>
<totfact> 0.94333748E+00</totfact>
</mgrwt>
<rwgt>
<wgt id='morphing_basis_vector_1'> +1.2997598e-04 </wgt>
<wgt id='morphing_basis_vector_2'> +8.5705662e-05 </wgt>
<wgt id='morphing_basis_vector_3'> +1.3558999e-04 </wgt>
<wgt id='morphing_basis_vector_4'> +9.1522891e-05 </wgt>
<wgt id='morphing_basis_vector_5'> +1.4622113e-04 </wgt>
</rwgt>
</event>
<event>
 4      1 +1.5130300e-07 1.58733100e+03 7.81860800e-03 8.26595200e-02
        2 -1    0    0  501    0 +0.0000000000e+00 +0.0000000000e+00 +1.0759822229e+03 1.0759822229e+03 0.0000000000e+00 0.0000e+00 1.0000e+00
       -2 -1    0    0    0  501 -0.0000000000e+00 -0.0000000000e+00 -5.8542342483e+02 5.8542342483e+02 0.0000000000e+00 0.0000e+00 -1.0000e+00
      -13  1    1    2    0    0 -3.9571859020e+02 -1.7639368569e+02 -4.5073162082e+02 6.2519351324e+02 0.0000000000e+00 0.0000e+00 -1.0000e+00
       13  1    1    2    0    0 +3.9571859020e+02 +1.7639368569e+02 +9.4129041893e+02 1.0362121345e+03 0.0000000000e+00 0.0000e+00 1.0000e+00
<mgrwt>
<rscale>  0 0.15873313E+04</rscale>
<asrwt>0</asrwt>
<pdfrwt beam="1">  1        2 0.16553573E+00 0.15873313E+04</pdfrwt>
<pdfrwt beam="2">  1       -2 0.90065142E-01 0.15873313E+04</pdfrwt>
<totfact> 0.28984519E+01</totfact>
</mgrwt>
<rwgt>
<wgt id='morphing_basis_vector_1'> +1.3783969e-04 </wgt>
<wgt id='morphing_basis_vector_2'> +9.0594327e-05 </wgt>
<wgt id='morphing_basis_vector_3'> +1.4400201e-04 </wgt>
<wgt id='morphing_basis_vector_4'> +9.7890340e-05 </wgt>
<wgt id='morphing_basis_vector_5'> +1.5591245e-04 </wgt>
</rwgt>
</event>
<event>
 4      1 +1.5130300e-07 1.76427000e+03 7.81860800e-03 8.17591100e-02
        2 -1    0    0  501    0 +0.0000000000e+00 +0.0000000000e+00 +1.0672083665e+03 1.0672083665e+03 0.0000000000e+00 0.0000e+00 1.0000e+00
       -2 -1    0    0    0  501 -0.0000000000e+00 -0.0000000000e+00 -7.2915642198e+02 7.2915642198e+02 0.0000000000e+00 0.0000e+00 -1.0000e+00
      -13  1    1    2    0    0 -1.2193589429e+02 +8.7274508499e+02 +2.0987422509e+02 9.0586949173e+02 0.0000000000e+00 0.0000e+00 -1.0000e+00
       13  1    1    2    0    0 +1.2193589429e+02 -8.7274508499e+02 +1.2817771938e+02 8.9049529670e+02 0.0000000000e+00 0.0000e+00 1.0000e+00
<mgrwt>
<rscale>  0 0.17642696E+04</rscale>
<asrwt>0</asrwt>
<pdfrwt beam="1">  1        2 0.16418590E+00 0.17642696E+04</pdfrwt>
<pdfrwt beam="2">  1       -2 0.11217791E+00 0.17642696E+04</pdfrwt>
<totfact> 0.16986120E+01</totfact>
</mgrwt>
<rwgt>
<wgt id='morphing_basis_vector_1'> +2.1668095e-04 </wgt>
<wgt id='morphing_basis_vector_2'> +1.6380911e-04 </wgt>
<wgt id='morphing_basis_vector_3'> +2.3191899e-04 </wgt>
<wgt id='morphing_basis_vector_4'> +1.3396283e-04 </wgt>
<wgt id='morphing_basis_vector_5'> +2.3955859e-04 </wgt>
</rwgt>
</event>
<event>
 4      1 +1.5130300e-07 1.70626700e+03 7.81860800e-03 8.20418900e-02
        2 -1    0    0  501    0 +0.0000000000e+00 +0.0000000000e+00 +1.0716641408e+03 1.0716641408e+03 0.0000000000e+00 0.0000e+00 -1.0000e+00
       -2 -1    0    0    0  501 -0.0000000000e+00 -0.0000000000e+00 -6.7916497743e+02 6.7916497743e+02 0.0000000000e+00 0.0000e+00 1.0000e+00
      -13  1    1    2    0    0 -5.2825961884e+02 +6.6986334276e+02 +1.8819413092e+02 8.7360869603e+02 0.0000000000e+00 0.0000e+00 1.0000e+00
       13  1    1    2    0    0 +5.2825961884e+02 -6.6986334276e+02 +2.0430503248e+02 8.7722042222e+02 0.0000000000e+00 0.0000e+00 -1.0000e+00
<mgrwt>
<rscale>  0 0.17062670E+04</rscale>
<asrwt>0</asrwt>
<pdfrwt beam="1">  1        2 0.16487141E+00 0.17062670E+04</pdfrwt>
<pdfrwt beam="2">  1       -2 0.10448692E+00 0.17062670E+04</pdfrwt>
<totfact> 0.20248957E+01</totfact>
</mgrwt>
<rwgt>
<wgt id='morphing_basis_vector_1'> +1.8884157e-04 </wgt>
<wgt id='morphing_basis_vector_2'> +1.3944398e-04 </wgt>
<wgt id='morphing_basis_vector_3'> +2.0092953e-04 </wgt>
<wgt id='morphing_basis_vector_4'> +1.1948852e-04 </wgt>
<wgt id='morphing_basis_vector_5'> +2.0903557e-04 </wgt>
</rwgt>
</event>
<event>
 4      1 +1.5130300e-07 1.62933700e+03 7.81860800e-03 8.24352200e-02
        2 -1    0    0  501    0 +0.0000000000e+00 +0.0000000000e+00 +1.4018509208e+03 1.4018509208e+03 0.0000000000e+00 0.0000e+00 -1.0000e+00
       -2 -1    0    0    0  501 -0.0000000000e+00 -0.0000000000e+00 -4.7343472958e+02 4.7343472958e+02 0.0000000000e+00 0.0000e+00 1.0000e+00
      -13  1    1    2    0    0 -1.5622730083e+02 +6.0484634206e+02 -1.3763955244e+02 6.3968016494e+02 0.0000000000e+00 0.0000e+00 1.0000e+00
       13  1    1    2    0    0 +1.5622730083e+02 -6.0484634206e+02 +1.0660557437e+03 1.2356054854e+03 0.0000000000e+00 0.0000e+00 -1.0000e+00
<mgrwt>
<rscale>  0 0.16293372E+04</rscale>
<asrwt>0</asrwt>
<pdfrwt beam="1">  1        2 0.21566937E+00 0.16293372E+04</pdfrwt>
<pdfrwt beam="2">  1       -2 0.72836113E-01 0.16293372E+04</pdfrwt>
<totfact> 0.30215447E+01</totfact>
</mgrwt>
<rwgt>
<wgt id='morphing_basis_vector_1'> +1.5277034e-04 </wgt>
<wgt id='morphing_basis_vector_2'> +1.0115352e-04 </wgt>
<wgt id='morphing_basis_vector_3'> +1.6014224e-04 </wgt>
<wgt id='morphing_basis_vector_4'> +1.0854993e-04 </wgt>
<wgt id='morphing_basis_vector_5'> +1.7361876e-04 </wgt>
</rwgt>
</event>
<event>
 4      1 +1.5130300e-07 1.65306700e+03 7.81860800e-03 8.23115600e-02
        2 -1    0    0  501    0 +0.0000000000e+00 +0.0000000000e+00 +5.0725470523e+02 5.0725470523e+02 0.0000000000e+00 0.0000e+00 1.0000e+00
       -2 -1    0    0    0  501 -0.0000000000e+00 -0.0000000000e+00 -1.3467737764e+03 1.3467737764e+03 0.0000000000e+00 0.0000e+00 -1.0000e+00
      -13  1    1    2    0    0 +1.7434841007e+02 +7.8614664895e+02 -6.2878527563e+02 1.0216627842e+03 0.0000000000e+00 0.0000e+00 -1.0000e+00
       13  1    1    2    0    0 -1.7434841007e+02 -7.8614664895e+02 -2.1073379558e+02 8.3236569748e+02 0.0000000000e+00 0.0000e+00 1.0000e+00
<mgrwt>
<rscale>  0 0.16530666E+04</rscale>
<asrwt>0</asrwt>
<pdfrwt beam="1">  1        2 0.78039187E-01 0.16530666E+04</pdfrwt>
<pdfrwt beam="2">  1       -2 0.20719596E+00 0.16530666E+04</pdfrwt>
<totfact> 0.73635075E+00</totfact>
</mgrwt>
<rwgt>
<wgt id='morphing_basis_vector_1'> +1.6377516e-04 </wgt>
<wgt id='morphing_basis_vector_2'> +1.1359562e-04 </wgt>
<wgt id='morphing_basis_vector_3'> +1.7264115e-04 </wgt>
<wgt id='morphing_basis_vector_4'> +1.1101859e-04 </wgt>
<wgt id='morphing_basis_vector_5'> +1.8395920e-04 </wgt>
</rwgt>
</event>
<event>
 4      1 +1.5130300e-07 1.55676200e+03 7.81860800e-03 8.28273100e-02
        2 -1    0    0  501    0 +0.0000000000e+00 +0.0000000000e+00 +1.4929294754e+03 1.4929294754e+03 0.0000000000e+00 0.0000e+00 1.0000e+00
       -2 -1    0    0    0  501 -0.0000000000e+00 -0.0000000000e+00 -4.0583071379e+02 4.0583071379e+02 0.0000000000e+00 0.0000e+00 -1.0000e+00
      -13  1    1    2    0    0 -7.4332887476e+02 +1.3756136000e+02 +3.1727975157e+02 8.1983375423e+02 0.0000000000e+00 0.0000e+00 -1.0000e+00
       13  1    1    2    0    0 +7.4332887476e+02 -1.3756136000e+02 +7.6981901004e+02 1.0789264349e+03 0.0000000000e+00 0.0000e+00 1.0000e+00
<mgrwt>
<rscale>  0 0.15567616E+04</rscale>
<asrwt>0</asrwt>
<pdfrwt beam="1">  1        2 0.22968146E+00 0.15567616E+04</pdfrwt>
<pdfrwt beam="2">  1       -2 0.62435495E-01 0.15567616E+04</pdfrwt>
<totfact> 0.37453435E+01</totfact>
</mgrwt>
<rwgt>
<wgt id='morphing_basis_vector_1'> +1.2967882e-04 </wgt>
<wgt id='morphing_basis_vector_2'> +8.9368714e-05 </wgt>
<wgt id='morphing_basis_vector_3'> +1.3570229e-04 </wgt>
<wgt id='morphing_basis_vector_4'> +8.6883161e-05 </wgt>
<wgt id='morphing_basis_vector_5'> +1.4361480e-04 </wgt>
</rwgt>
</event>
<event>
 4      1 +1.5130300e-07 1.66952600e+03 7.81860800e-03 8.22270300e-02
        2 -1    0    0  501    0 +0.0000000000e+00 +0.0000000000e+00 +7.2951181845e+02 7.2951181845e+02 0.0000000000e+00 0.0000e+00 -1.0000e+00
       -2 -1    0    0    0  501 -0.0000000000e+00 -0.0000000000e+00 -9.5519935742e+02 9.5519935742e+02 0.0000000000e+00 0.0000e+00 1.0000e+00
      -13  1    1    2    0    0 +7.5413725186e+02 -3.4799026618e+02 -1.9732501749e+02 8.5367287794e+02 0.0000000000e+00 0.0000e+00 1.0000e+00
       13  1    1    2    0    0 -7.5413725186e+02 +3.4799026618e+02 -2.8362521485e+01 8.3103829793e+02 0.0000000000e+00 0.0000e+00 -1.0000e+00
<mgrwt>
<rscale>  0 0.16695259E+04</rscale>
<asrwt>0</asrwt>
<pdfrwt beam="1">  1        2 0.11223259E+00 0.16695259E+04</pdfrwt>
<pdfrwt beam="2">  1       -2 0.14695375E+00 0.16695259E+04</pdfrwt>
<totfact> 0.13912647E+01</totfact>
</mgrwt>
<rwgt>
<wgt id='morphing_basis_vector_1'> +1.7182949e-04 </wgt>
<wgt id='morphing_basis_vector_2'> +1.2296464e-04 </wgt>
<wgt id='morphing_basis_vector_3'> +1.8184779e-04 </wgt>
<wgt id='morphing_basis_vector_4'> +1.1250809e-04 </wgt>
<wgt id='morphing_basis_vector_5'> +1.9138025e-04 </wgt>
</rwgt>
</event>
<event>
 4      1 +1.5130300e-07 1.56916100e+03 7.81860800e-03 8.27587800e-02
        2 -1    0    0  501    0 +0.0000000000e+00 +0.0000000000e+00 +1.3479498001e+03 1.3479498001e+03 0.0000000000e+00 0.0000e+00 1.0000e+00
       -2 -1    0    0    0  501 -0.0000000000e+00 -0.0000000000e+00 -4.5666869562e+02 4.5666869562e+02 0.0000000000e+00 0.0000e+00 -1.0000e+00
      -13  1    1    2    0    0 +6.5915203381e+02 +2.1613270068e+02 +2.4068433103e+01 6.9409944349e+02 0.0000000000e+00 0.0000e+00 -1.0000e+00
       13  1    1    2    0    0 -6.5915203381e+02 -2.1613270068e+02 +8.6721267137e+02 1.1105190522e+03 0.0000000000e+00 0.0000e+00 1.0000e+00
<mgrwt>
<rscale>  0 0.15691609E+04</rscale>
<asrwt>0</asrwt>
<pdfrwt beam="1">  1        2 0.20737689E+00 0.15691609E+04</pdfrwt>
<pdfrwt beam="2">  1       -2 0.70256723E-01 0.15691609E+04</pdfrwt>
<totfact> 0.35216581E+01</totfact>
</mgrwt>
<rwgt>
<wgt id='morphing_basis_vector_1'> +1.3248038e-04 </wgt>
<wgt id='morphing_basis_vector_2'> +8.8509043e-05 </wgt>
<wgt id='morphing_basis_vector_3'> +1.3841029e-04 </wgt>
<wgt id='morphing_basis_vector_4'> +9.2120424e-05 </wgt>
<wgt id='morphing_basis_vector_5'> +1.4857820e-04 </wgt>
</rwgt>
</event>
<event>
 4      1 +1.5130300e-07 1.64009500e+03 7.81860800e-03 8.23788900e-02
        2 -1    0    0  501    0 +0.0000000000e+00 +0.0000000000e+00 +6.9231725854e+02 6.9231725854e+02 0.0000000000e+00 0.0000e+00 -1.0000e+00
       -2 -1    0    0    0  501 -0.0000000000e+00 -0.0000000000e+00 -9.7134412793e+02 9.7134412793e+02 0.0000000000e+00 0.0000e+00 1.0000e+00
      -13  1    1    2    0    0 -5.6120546880e+01 +8.1625472615e+02 -8.3428756479e+01 8.2242425253e+02 0.0000000000e+00 0.0000e+00 1.0000e+00
       13  1    1    2    0    0 +5.6120546880e+01 -8.1625472615e+02 -1.9559811291e+02 8.4123713394e+02 0.0000000000e+00 0.0000e+00 -1.0000e+00
<mgrwt>
<rscale>  0 0.16400955E+04</rscale>
<asrwt>0</asrwt>
<pdfrwt beam="1">  1        2 0.10651035E+00 0.16400955E+04</pdfrwt>
<pdfrwt beam="2">  1       -2 0.14943756E+00 0.16400955E+04</pdfrwt>
<totfact> 0.14185322E+01</totfact>
</mgrwt>
<rwgt>
<wgt id='morphing_basis_vector_1'> +1.6366687e-04 </wgt>
<wgt id='morphing_basis_vector_2'> +1.2446736e-04 </wgt>
<wgt id='morphing_basis_vector_3'> +1.7386921e-04 </wgt>
<wgt id='morphing_basis_vector_4'> +9.8256129e-05 </wgt>
<wgt id='morphing_basis_vector_5'> +1.7738445e-04 </wgt>
</rwgt>
</event>
<event>
 4      1 +1.5130300e-07 1.63542300e+03 7.81860800e-03 8.24033000e-02
        2 -1    0    0  501    0 +0.0000000000e+00 +0.0000000000e+00 +6.8292904098e+02 6.8292904098e+02 0.0000000000e+00 0.0000e+00 -1.0000e+00
       -2 -1    0    0    0  501 -0.0000000000e+00 -0.0000000000e+00 -9.7909409112e+02 9.7909409112e+02 0.0000000000e+00 0.0000e+00 1.0000e+00
      -13  1    1    2    0    0 +2.7319738307e+00 -5.7843922110e+02 -7.3545603495e+02 9.3567888484e+02 0.0000000000e+00 0.0000e+00 1.0000e+00
       13  1    1    2    0    0 -2.7319738307e+00 +5.7843922110e+02 +4.3929098481e+02 7.2634424726e+02 0.0000000000e+00 0.0000e+00 -1.0000e+00
<mgrwt>
<rscale>  0 0.16354226E+04</rscale>
<asrwt>0</asrwt>
<pdfrwt beam="1">  1        2 0.10506601E+00 0.16354226E+04</pdfrwt>
<pdfrwt beam="2">  1       -2 0.15062986E+00 0.16354226E+04</pdfrwt>
<totfact> 0.14104843E+01</totfact>
</mgrwt>
<rwgt>
<wgt id='morphing_basis_vector_1'> +1.5488409e-04 </wgt>
<wgt id='morphing_basis_vector_2'> +1.0231970e-04 </wgt>
<wgt id='morphing_basis_vector_3'> +1.6238906e-04 </wgt>
<wgt id='morphing_basis_vector_4'> +1.1044292e-04 </wgt>
<wgt id='morphing_basis_vector_5'> +1.7632369e-04 </wgt>
</rwgt>
</event>
<event>
 4      1 +1.5130300e-07 1.63904900e+03 7.81860800e-03 8.23843500e-02
        2 -1    0    0  501    0 +0.0000000000e+00 +0.0000000000e+00 +7.8211166518e+02 7.8211166518e+02 0.0000000000e+00 0.0000e+00 -1.0000e+00
       -2 -1    0    0    0  501 -0.0000000000e+00 -0.0000000000e+00 -8.5872704132e+02 8.5872704132e+02 0.0000000000e+00 0.0000e+00 1.0000e+00
      -13  1    1    2    0    0 -5.7924070407e+02 -4.2442994236e+02 -4.3365644119e+02 8.3887929895e+02 0.0000000000e+00 0.0000e+00 1.0000e+00
       13  1    1    2    0    0 +5.7924070407e+02 +4.2442994236e+02 +3.5704106504e+02 8.0195940755e+02 0.0000000000e+00 0.0000e+00 -1.0000e+00
<mgrwt>
<rscale>  0 0.16390490E+04</rscale>
<asrwt>0</asrwt>
<pdfrwt beam="1">  1        2 0.12032487E+00 0.16390490E+04</pdfrwt>
<pdfrwt beam="2">  1       -2 0.13211185E+00 0.16390490E+04</pdfrwt>
<totfact> 0.17158230E+01</totfact>
</mgrwt>
<rwgt>
<wgt id='morphing_basis_vector_1'> +1.5679639e-04 </wgt>
<wgt id='morphing_basis_vector_2'> +1.0492887e-04 </wgt>
<wgt id='morphing_basis_vector_3'> +1.6461414e-04 </wgt>
<wgt id='morphing_basis_vector_4'> +1.1035516e-04 </wgt>
<wgt id='morphing_basis_vector_5'> +1.7785721e-04 </wgt>
</rwgt>
</event>
<event>
 4      1 +1.5130300e-07 1.77893400e+03 7.81860800e-03 8.16893800e-02
        2 -1    0    0  501    0 +0.0000000000e+00 +0.0000000000e+00 +1.4087184112e+03 1.4087184112e+03 0.0000000000e+00 0.0000e+00 -1.0000e+00
       -2 -1    0    0    0  501 -0.0000000000e+00 -0.0000000000e+00 -5.6161055270e+02 5.6161055270e+02 0.0000000000e+00 0.0000e+00 1.0000e+00
      -13  1    1    2    0    0 +8.1527752076e+02 -1.7547024179e+02 +8.0945204418e+01 8.3786596048e+02 0.0000000000e+00 0.0000e+00 1.0000e+00
       13  1    1    2    0    0 -8.1527752076e+02 +1.7547024179e+02 +7.6616265409e+02 1.1324630034e+03 0.0000000000e+00 0.0000e+00 -1.0000e+00
<mgrwt>
<rscale>  0 0.17789335E+04</rscale>
<asrwt>0</asrwt>
<pdfrwt beam="1">  1        2 0.21672591E+00 0.17789335E+04</pdfrwt>
<pdfrwt beam="2">  1       -2 0.86401624E-01 0.17789335E+04</pdfrwt>
<totfact> 0.20126378E+01</totfact>
</mgrwt>
<rwgt>
<wgt id='morphing_basis_vector_1'> +2.1655823e-04 </wgt>
<wgt id='morphing_basis_vector_2'> +1.4779445e-04 </wgt>
<wgt id='morphing_basis_vector_3'> +2.2957897e-04 </wgt>
<wgt id='morphing_basis_vector_4'> +1.5265652e-04 </wgt>
<wgt id='morphing_basis_vector_5'> +2.4892049e-04 </wgt>
</rwgt>
</event>
<event>
 4      1 +1.5130300e-07 1.75826700e+03 7.81860800e-03 8.17878600e-02
        2 -1    0    0  501    0 +0.0000000000e+00 +0.0000000000e+00 +1.5717748585e+03 1.5717748585e+03 0.0000000000e+00 0.0000e+00 1.0000e+00
       -2 -1    0    0    0  501 -0.0000000000e+00 -0.0000000000e+00 -4.9172142853e+02 4.9172142853e+02 0.0000000000e+00 0.0000e+00 -1.0000e+00
      -13  1    1    2    0    0 -2.7016628795e+02 -7.1808445614e+02 +3.6281144884e+01 7.6808295826e+02 0.0000000000e+00 0.0000e+00 -1.0000e+00
       13  1    1    2    0    0 +2.7016628795e+02 +7.1808445614e+02 +1.0437722851e+03 1.2954133288e+03 0.0000000000e+00 0.0000e+00 1.0000e+00
<mgrwt>
<rscale>  0 0.17582666E+04</rscale>
<asrwt>0</asrwt>
<pdfrwt beam="1">  1        2 0.24181151E+00 0.17582666E+04</pdfrwt>
<pdfrwt beam="2">  1       -2 0.75649451E-01 0.17582666E+04</pdfrwt>
<totfact> 0.22086166E+01</totfact>
</mgrwt>
<rwgt>
<wgt id='morphing_basis_vector_1'> +2.0599030e-04 </wgt>
<wgt id='morphing_basis_vector_2'> +1.3837230e-04 </wgt>
<wgt id='morphing_basis_vector_3'> +2.1781418e-04 </wgt>
<wgt id='morphing_basis_vector_4'> +1.4731539e-04 </wgt>
<wgt id='morphing_basis_vector_5'> +2.3740490e-04 </wgt>
</rwgt>
</event>
<event>
 4      1 +1.5130300e-07 1.56498000e+03 7.81860800e-03 8.27818100e-02
        2 -1    0    0  501    0 +0.0000000000e+00 +0.0000000000e+00 +6.0359123507e+02 6.0359123507e+02 0.0000000000e+00 0.0000e+00 1.0000e+00
       -2 -1    0    0    0  501 -0.0000000000e+00 -0.0000000000e+00 -1.0144121680e+03 1.0144121680e+03 0.0000000000e+00 0.0000e+00 -1.0000e+00
      -13  1    1    2    0    0 +1.4043577471e+02 +4.0509959161e+02 -8.8215866686e+02 9.8083219740e+02 0.0000000000e+00 0.0000e+00 -1.0000e+00
       13  1    1    2    0    0 -1.4043577471e+02 -4.0509959161e+02 +4.7133773392e+02 6.3717120568e+02 0.0000000000e+00 0.0000e+00 1.0000e+00
<mgrwt>
<rscale>  0 0.15649796E+04</rscale>
<asrwt>0</asrwt>
<pdfrwt beam="1">  1        2 0.92860191E-01 0.15649796E+04</pdfrwt>
<pdfrwt beam="2">  1       -2 0.15606341E+00 0.15649796E+04</pdfrwt>
<totfact> 0.14846243E+01</totfact>
</mgrwt>
<rwgt>
<wgt id='morphing_basis_vector_1'> +1.3047660e-04 </wgt>
<wgt id='morphing_basis_vector_2'> +8.5669522e-05 </wgt>
<wgt id='morphing_basis_vector_3'> +1.3608609e-04 </wgt>
<wgt id='morphing_basis_vector_4'> +9.2325409e-05 </wgt>
<wgt id='morphing_basis_vector_5'> +1.4703990e-04 </wgt>
</rwgt>
</event>
<event>
 4      1 +1.5130300e-07 1.65949700e+03 7.81860800e-03 8.22784100e-02
        2 -1    0    0  501    0 +0.0000000000e+00 +0.0000000000e+00 +1.3318468222e+03 1.3318468222e+03 0.0000000000e+00 0.0000e+00 -1.0000e+00
       -2 -1    0    0    0  501 -0.0000000000e+00 -0.0000000000e+00 -5.1693834398e+02 5.1693834398e+02 0.0000000000e+00 0.0000e+00 1.0000e+00
      -13  1    1    2    0    0 +1.0096402816e+02 +3.5990588715e+02 -4.1782298621e+02 5.6062646245e+02 0.0000000000e+00 0.0000e+00 1.0000e+00
       13  1    1    2    0    0 -1.0096402816e+02 -3.5990588715e+02 +1.2327314644e+03 1.2881587037e+03 0.0000000000e+00 0.0000e+00 -1.0000e+00
<mgrwt>
<rscale>  0 0.16594971E+04</rscale>
<asrwt>0</asrwt>
<pdfrwt beam="1">  1        2 0.20489951E+00 0.16594971E+04</pdfrwt>
<pdfrwt beam="2">  1       -2 0.79528977E-01 0.16594971E+04</pdfrwt>
<totfact> 0.27171098E+01</totfact>
</mgrwt>
<rwgt>
<wgt id='morphing_basis_vector_1'> +1.6375125e-04 </wgt>
<wgt id='morphing_basis_vector_2'> +1.0788111e-04 </wgt>
<wgt id='morphing_basis_vector_3'> +1.7189934e-04 </wgt>
<wgt id='morphing_basis_vector_4'> +1.1762087e-04 </wgt>
<wgt id='morphing_basis_vector_5'> +1.8729095e-04 </wgt>
</rwgt>
</event>
<event>
 4      1 +1.5130300e-07 1.63577900e+03 7.81860800e-03 8.24014300e-02
        2 -1    0    0  501    0 +0.0000000000e+00 +0.0000000000e+00 +8.6856719973e+02 8.6856719973e+02 0.0000000000e+00 0.0000e+00 -1.0000e+00
       -2 -1    0    0    0  501 -0.0000000000e+00 -0.0000000000e+00 -7.7016902186e+02 7.7016902186e+02 0.0000000000e+00 0.0000e+00 1.0000e+00
      -13  1    1    2    0    0 +1.4678680197e+02 -1.8038543123e+02 -7.3634729810e+02 7.7219985266e+02 0.0000000000e+00 0.0000e+00 1.0000e+00
       13  1    1    2    0    0 -1.4678680197e+02 +1.8038543123e+02 +8.3474547597e+02 8.6653636893e+02 0.0000000000e+00 0.0000e+00 -1.0000e+00
<mgrwt>
<rscale>  0 0.16357794E+04</rscale>
<asrwt>0</asrwt>
<pdfrwt beam="1">  1        2 0.13362572E+00 0.16357794E+04</pdfrwt>
<pdfrwt beam="2">  1       -2 0.11848754E+00 0.16357794E+04</pdfrwt>
<totfact> 0.19947240E+01</totfact>
</mgrwt>
<rwgt>
<wgt id='morphing_basis_vector_1'> +1.5483399e-04 </wgt>
<wgt id='morphing_basis_vector_2'> +1.0186882e-04 </wgt>
<wgt id='morphing_basis_vector_3'> +1.6228361e-04 </wgt>
<wgt id='morphing_basis_vector_4'> +1.1088838e-04 </wgt>
<wgt id='morphing_basis_vector_5'> +1.7650857e-04 </wgt>
</rwgt>
</event>
<event>
 4      1 +1.5130300e-07 1.75225400e+03 7.81860800e-03 8.18167700e-02
        2 -1    0    0  501    0 +0.0000000000e+00 +0.0000000000e+00 +1.8031507814e+03 1.8031507814e+03 0.0000000000e+00 0.0000e+00 1.0000e+00
       -2 -1    0    0    0  501 -0.0000000000e+00 -0.0000000000e+00 -4.2569857878e+02 4.2569857878e+02 0.0000000000e+00 0.0000e+00 -1.0000e+00
      -13  1    1    2    0    0 -1.9559698600e+02 +8.2348517097e+02 +4.0087194227e+02 9.3652780089e+02 0.0000000000e+00 0.0000e+00 1.0000e+00
       13  1    1    2    0    0 +1.9559698600e+02 -8.2348517097e+02 +9.7658026038e+02 1.2923215593e+03 0.0000000000e+00 0.0000e+00 -1.0000e+00
<mgrwt>
<rscale>  0 0.17522542E+04</rscale>
<asrwt>0</asrwt>
<pdfrwt beam="1">  1        2 0.27740781E+00 0.17522542E+04</pdfrwt>
<pdfrwt beam="2">  1       -2 0.65492090E-01 0.17522542E+04</pdfrwt>
<totfact> 0.22401185E+01</totfact>
</mgrwt>
<rwgt>
<wgt id='morphing_basis_vector_1'> +2.0504470e-04 </wgt>
<wgt id='morphing_basis_vector_2'> +1.4181037e-04 </wgt>
<wgt id='morphing_basis_vector_3'> +2.1735111e-04 </wgt>
<wgt id='morphing_basis_vector_4'> +1.4179613e-04 </wgt>
<wgt id='morphing_basis_vector_5'> +2.3382288e-04 </wgt>
</rwgt>
</event>
<event>
 4      1 +1.5130300e-07 1.69415500e+03 7.81860800e-03 8.21023900e-02
        2 -1    0    0  501    0 +0.0000000000e+00 +0.0000000000e+00 +1.1256802718e+03 1.1256802718e+03 0.0000000000e+00 0.0000e+00 -1.0000e+00
       -2 -1    0    0    0  501 -0.0000000000e+00 -0.0000000000e+00 -6.3742850217e+02 6.3742850217e+02 0.0000000000e+00 0.0000e+00 1.0000e+00
      -13  1    1    2    0    0 -2.7318863446e+02 -2.7825027999e+02 -5.3846819517e+02 6.6483324641e+02 0.0000000000e+00 0.0000e+00 1.0000e+00
       13  1    1    2    0    0 +2.7318863446e+02 +2.7825027999e+02 +1.0267199648e+03 1.0982755276e+03 0.0000000000e+00 0.0000e+00 -1.0000e+00
<mgrwt>
<rscale>  0 0.16941555E+04</rscale>
<asrwt>0</asrwt>
<pdfrwt beam="1">  1        2 0.17318158E+00 0.16941555E+04</pdfrwt>
<pdfrwt beam="2">  1       -2 0.98065924E-01 0.16941555E+04</pdfrwt>
<totfact> 0.21939726E+01</totfact>
</mgrwt>
<rwgt>
<wgt id='morphing_basis_vector_1'> +1.7744924e-04 </wgt>
<wgt id='morphing_basis_vector_2'> +1.1706656e-04 </wgt>
<wgt id='morphing_basis_vector_3'> +1.8667751e-04 </wgt>
<wgt id='morphing_basis_vector_4'> +1.2804862e-04 </wgt>
<wgt id='morphing_basis_vector_5'> +2.0392096e-04 </wgt>
</rwgt>
</event>
<event>
 4      1 +1.5130300e-07 1.63639400e+03 7.81860800e-03 8.23982200e-02
        2 -1    0    0  501    0 +0.0000000000e+00 +0.0000000000e+00 +2.5202267981e+03 2.5202267981e+03 0.0000000000e+00 0.0000e+00 1.0000e+00
       -2 -1    0    0    0  501 -0.0000000000e+00 -0.0000000000e+00 -2.6562955773e+02 2.6562955773e+02 0.0000000000e+00 0.0000e+00 -1.0000e+00
      -13  1    1    2    0    0 -4.7181623027e+01 +7.3871708766e+02 +5.3383997356e+02 9.1264130879e+02 0.0000000000e+00 0.0000e+00 -1.0000e+00
       13  1    1    2    0    0 +4.7181623027e+01 -7.3871708766e+02 +1.7207572668e+03 1.8732150470e+03 0.0000000000e+00 0.0000e+00 1.0000e+00
<mgrwt>
<rscale>  0 0.16363945E+04</rscale>
<asrwt>0</asrwt>
<pdfrwt beam="1">  1        2 0.38772718E+00 0.16363945E+04</pdfrwt>
<pdfrwt beam="2">  1       -2 0.40866088E-01 0.16363945E+04</pdfrwt>
<totfact> 0.22430937E+01</totfact>
</mgrwt>
<rwgt>
<wgt id='morphing_basis_vector_1'> +1.5605468e-04 </wgt>
<wgt id='morphing_basis_vector_2'> +1.0497797e-04 </wgt>
<wgt id='morphing_basis_vector_3'> +1.6388170e-04 </wgt>
<wgt id='morphing_basis_vector_4'> +1.0915999e-04 </wgt>
<wgt id='morphing_basis_vector_5'> +1.7663803e-04 </wgt>
</rwgt>
</event>
<event>
 4      1 +1.5130300e-07 1.76773800e+03 7.81860800e-03 8.17425500e-02
        2 -1    0    0  501    0 +0.0000000000e+00 +0.0000000000e+00 +1.7065452186e+03 1.7065452186e+03 0.0000000000e+00 0.0000e+00 -1.0000e+00
       -2 -1    0    0    0  501 -0.0000000000e+00 -0.0000000000e+00 -4.5778150695e+02 4.5778150695e+02 0.0000000000e+00 0.0000e+00 1.0000e+00
      -13  1    1    2    0    0 +2.8432520717e+02 +1.2986910363e+02 -3.8784951574e+02 4.9813055956e+02 0.0000000000e+00 0.0000e+00 1.0000e+00
       13  1    1    2    0    0 -2.8432520717e+02 -1.2986910363e+02 +1.6366132274e+03 1.6661961660e+03 0.0000000000e+00 0.0000e+00 -1.0000e+00
<mgrwt>
<rscale>  0 0.17677385E+04</rscale>
<asrwt>0</asrwt>
<pdfrwt beam="1">  1        2 0.26254541E+00 0.17677385E+04</pdfrwt>
<pdfrwt beam="2">  1       -2 0.70427925E-01 0.17677385E+04</pdfrwt>
<totfact> 0.21696768E+01</totfact>
</mgrwt>
<rwgt>
<wgt id='morphing_basis_vector_1'> +2.0936830e-04 </wgt>
<wgt id='morphing_basis_vector_2'> +1.3843461e-04 </wgt>
<wgt id='morphing_basis_vector_3'> +2.2116239e-04 </wgt>
<wgt id='morphing_basis_vector_4'> +1.5250199e-04 </wgt>
<wgt id='morphing_basis_vector_5'> +2.4284506e-04 </wgt>
</rwgt>
</event>
<event>
 4      1 +1.5130300e-07 1.56922100e+03 7.81860800e-03 8.27584500e-02
        2 -1    0    0  501    0 +0.0000000000e+00 +0.0000000000e+00 +1.4814589668e+03 1.4814589668e+03 0.0000000000e+00 0.0000e+00 -1.0000e+00
       -2 -1    0    0    0  501 -0.0000000000e+00 -0.0000000000e+00 -4.1554544932e+02 4.1554544932e+02 0.0000000000e+00 0.0000e+00 1.0000e+00
      -13  1    1    2    0    0 -2.1037604654e+02 +2.1768961409e+02 -3.4209975871e+02 4.5681406934e+02 0.0000000000e+00 0.0000e+00 1.0000e+00
       13  1    1    2    0    0 +2.1037604654e+02 -2.1768961409e+02 +1.4080132762e+03 1.4401903468e+03 0.0000000000e+00 0.0000e+00 -1.0000e+00
<mgrwt>
<rscale>  0 0.15692209E+04</rscale>
<asrwt>0</asrwt>
<pdfrwt beam="1">  1        2 0.22791676E+00 0.15692209E+04</pdfrwt>
<pdfrwt beam="2">  1       -2 0.63930070E-01 0.15692209E+04</pdfrwt>
<totfact> 0.36151331E+01</totfact>
</mgrwt>
<rwgt>
<wgt id='morphing_basis_vector_1'> +1.3181691e-04 </wgt>
<wgt id='morphing_basis_vector_2'> +8.6488793e-05 </wgt>
<wgt id='morphing_basis_vector_3'> +1.3751776e-04 </wgt>
<wgt id='morphing_basis_vector_4'> +9.3425854e-05 </wgt>
<wgt id='morphing_basis_vector_5'> +1.4869864e-04 </wgt>
</rwgt>
</event>
<event>
 4      1 +1.5130300e-07 1.68202600e+03 7.81860800e-03 8.21635000e-02
        2 -1    0    0  501    0 +0.0000000000e+00 +0.0000000000e+00 +3.2544056741e+03 3.2544056741e+03 0.0000000000e+00 0.0000e+00 -1.0000e+00
       -2 -1    0    0    0  501 -0.0000000000e+00 -0.0000000000e+00 -2.1733701475e+02 2.1733701475e+02 0.0000000000e+00 0.0000e+00 1.0000e+00
      -13  1    1    2    0    0 -4.7974777761e+02 -4.7991611879e+02 +2.5439731820e+03 2.6329217538e+03 0.0000000000e+00 0.0000e+00 1.0000e+00
       13  1    1    2    0    0 +4.7974777761e+02 +4.7991611879e+02 +4.9309547736e+02 8.3882093499e+02 0.0000000000e+00 0.0000e+00 -1.0000e+00
<mgrwt>
<rscale>  0 0.16820259E+04</rscale>
<asrwt>0</asrwt>
<pdfrwt beam="1">  1        2 0.50067776E+00 0.16820259E+04</pdfrwt>
<pdfrwt beam="2">  1       -2 0.33436466E-01 0.16820259E+04</pdfrwt>
<totfact> 0.11032684E+01</totfact>
</mgrwt>
<rwgt>
<wgt id='morphing_basis_vector_1'> +2.1226213e-04 </wgt>
<wgt id='morphing_basis_vector_2'> +2.3177123e-04 </wgt>
<wgt id='morphing_basis_vector_3'> +2.3606537e-04 </wgt>
<wgt id='morphing_basis_vector_4'> +4.7974970e-05 </wgt>
<wgt id='morphing_basis_vector_5'> +1.9214698e-04 </wgt>
</rwgt>
</event>
<event>
 4      1 +1.5130300e-07 1.64334300e+03 7.81860800e-03 8.23619700e-02
        2 -1    0    0  501    0 +0.0000000000e+00 +0.0000000000e+00 +2.7657615916e+03 2.7657615916e+03 0.0000000000e+00 0.0000e+00 1.0000e+00
       -2 -1    0    0    0  501 -0.0000000000e+00 -0.0000000000e+00 -2.4410790555e+02 2.4410790555e+02 0.0000000000e+00 0.0000e+00 -1.0000e+00
      -13  1    1    2    0    0 -4.2990722541e+02 +3.8937574840e+02 +1.9488440180e+02 6.1189347600e+02 0.0000000000e+00 0.0000e+00 -1.0000e+00
       13  1    1    2    0    0 +4.2990722541e+02 -3.8937574840e+02 +2.3267692843e+03 2.3979760212e+03 0.0000000000e+00 0.0000e+00 1.0000e+00
<mgrwt>
<rscale>  0 0.16433433E+04</rscale>
<asrwt>0</asrwt>
<pdfrwt beam="1">  1        2 0.42550176E+00 0.16433433E+04</pdfrwt>
<pdfrwt beam="2">  1       -2 0.37555064E-01 0.16433433E+04</pdfrwt>
<totfact> 0.18607442E+01</totfact>
</mgrwt>
<rwgt>
<wgt id='morphing_basis_vector_1'> +1.5781348e-04 </wgt>
<wgt id='morphing_basis_vector_2'> +1.0428339e-04 </wgt>
<wgt id='morphing_basis_vector_3'> +1.6554611e-04 </wgt>
<wgt id='morphing_basis_vector_4'> +1.1266561e-04 </wgt>
<wgt id='morphing_basis_vector_5'> +1.7987005e-04 </wgt>
</rwgt>
</event>
<event>
 4      1 +1.5130300e-07 1.57490500e+03 7.81860800e-03 8.27272500e-02
        2 -1    0    0  501    0 +0.0000000000e+00 +0.0000000000e+00 +1.5823799420e+03 1.5823799420e+03 0.0000000000e+00 0.0000e+00 -1.0000e+00
       -2 -1    0    0    0  501 -0.0000000000e+00 -0.0000000000e+00 -3.9186622121e+02 3.9186622121e+02 0.0000000000e+00 0.0000e+00 1.0000e+00
      -13  1    1    2    0    0 +7.1873361991e+02 +2.8582604966e+02 +4.1014169658e+02 8.7549457927e+02 0.0000000000e+00 0.0000e+00 1.0000e+00
       13  1    1    2    0    0 -7.1873361991e+02 -2.8582604966e+02 +7.8037202422e+02 1.0987515840e+03 0.0000000000e+00 0.0000e+00 -1.0000e+00
<mgrwt>
<rscale>  0 0.15749048E+04</rscale>
<asrwt>0</asrwt>
<pdfrwt beam="1">  1        2 0.24344306E+00 0.15749048E+04</pdfrwt>
<pdfrwt beam="2">  1       -2 0.60287112E-01 0.15749048E+04</pdfrwt>
<totfact> 0.35828837E+01</totfact>
</mgrwt>
<rwgt>
<wgt id='morphing_basis_vector_1'> +1.3606912e-04 </wgt>
<wgt id='morphing_basis_vector_2'> +9.4858387e-05 </wgt>
<wgt id='morphing_basis_vector_3'> +1.4272241e-04 </wgt>
<wgt id='morphing_basis_vector_4'> +9.0300781e-05 </wgt>
<wgt id='morphing_basis_vector_5'> +1.5059629e-04 </wgt>
</rwgt>
</event>
<event>
 4      1 +1.5130300e-07 1.71623300e+03 7.81860800e-03 8.19924900e-02
        2 -1    0    0  501    0 +0.0000000000e+00 +0.0000000000e+00 +9.2959860726e+02 9.2959860726e+02 0.0000000000e+00 0.0000e+00 1.0000e+00
       -2 -1    0    0    0  501 -0.0000000000e+00 -0.0000000000e+00 -7.9213090253e+02 7.9213090253e+02 0.0000000000e+00 0.0000e+00 -1.0000e+00
      -13  1    1    2    0    0 +6.4596448431e+02 -5.6333364971e+02 +1.1068725751e+02 8.6421443223e+02 0.0000000000e+00 0.0000e+00 -1.0000e+00
       13  1    1    2    0    0 -6.4596448431e+02 +5.6333364971e+02 +2.6780447219e+01 8.5751507756e+02 0.0000000000e+00 0.0000e+00 1.0000e+00
<mgrwt>
<rscale>  0 0.17162328E+04</rscale>
<asrwt>0</asrwt>
<pdfrwt beam="1">  1        2 0.14301517E+00 0.17162328E+04</pdfrwt>
<pdfrwt beam="2">  1       -2 0.12186629E+00 0.17162328E+04</pdfrwt>
<totfact> 0.16797283E+01</totfact>
</mgrwt>
<rwgt>
<wgt id='morphing_basis_vector_1'> +1.9468587e-04 </wgt>
<wgt id='morphing_basis_vector_2'> +1.4718685e-04 </wgt>
<wgt id='morphing_basis_vector_3'> +2.0777181e-04 </wgt>
<wgt id='morphing_basis_vector_4'> +1.1944954e-04 </wgt>
<wgt id='morphing_basis_vector_5'> +2.1387435e-04 </wgt>
</rwgt>
</event>
<event>
 4      1 +1.5130300e-07 1.57290100e+03 7.81860800e-03 8.27382300e-02
        2 -1    0    0  501    0 +0.0000000000e+00 +0.0000000000e+00 +1.0691001117e+03 1.0691001117e+03 0.0000000000e+00 0.0000e+00 1.0000e+00
       -2 -1    0    0    0  501 -0.0000000000e+00 -0.0000000000e+00 -5.7852822423e+02 5.7852822423e+02 0.0000000000e+00 0.0000e+00 -1.0000e+00
      -13  1    1    2    0    0 +3.3962757599e+02 -1.3402349132e+02 -4.8436665242e+02 6.0656429220e+02 0.0000000000e+00 0.0000e+00 -1.0000e+00
       13  1    1    2    0    0 -3.3962757599e+02 +1.3402349132e+02 +9.7493853985e+02 1.0410640437e+03 0.0000000000e+00 0.0000e+00 1.0000e+00
<mgrwt>
<rscale>  0 0.15729013E+04</rscale>
<asrwt>0</asrwt>
<pdfrwt beam="1">  1        2 0.16447694E+00 0.15729013E+04</pdfrwt>
<pdfrwt beam="2">  1       -2 0.89004343E-01 0.15729013E+04</pdfrwt>
<totfact> 0.30121335E+01</totfact>
</mgrwt>
<rwgt>
<wgt id='morphing_basis_vector_1'> +1.3302860e-04 </wgt>
<wgt id='morphing_basis_vector_2'> +8.7324144e-05 </wgt>
<wgt id='morphing_basis_vector_3'> +1.3882299e-04 </wgt>
<wgt id='morphing_basis_vector_4'> +9.4312627e-05 </wgt>
<wgt id='morphing_basis_vector_5'> +1.5014354e-04 </wgt>
</rwgt>
</event>
<event>
 4      1 +1.5130300e-07 1.70742600e+03 7.81860800e-03 8.20361300e-02
        2 -1    0    0  501    0 +0.0000000000e+00 +0.0000000000e+00 +2.3676430479e+03 2.3676430479e+03 0.0000000000e+00 0.0000e+00 -1.0000e+00
       -2 -1    0    0    0  501 -0.0000000000e+00 -0.0000000000e+00 -3.0782765802e+02 3.0782765802e+02 0.0000000000e+00 0.0000e+00 1.0000e+00
      -13  1    1    2    0    0 +7.7493323017e+02 -2.0753605606e+02 +1.4873779850e+03 1.6899366841e+03 0.0000000000e+00 0.0000e+00 1.0000e+00
       13  1    1    2    0    0 -7.7493323017e+02 +2.0753605606e+02 +5.7243740486e+02 9.8553402187e+02 0.0000000000e+00 0.0000e+00 -1.0000e+00
<mgrwt>
<rscale>  0 0.17074262E+04</rscale>
<asrwt>0</asrwt>
<pdfrwt beam="1">  1        2 0.36425277E+00 0.17074262E+04</pdfrwt>
<pdfrwt beam="2">  1       -2 0.47358103E-01 0.17074262E+04</pdfrwt>
<totfact> 0.20694085E+01</totfact>
</mgrwt>
<rwgt>
<wgt id='morphing_basis_vector_1'> +2.0403541e-04 </wgt>
<wgt id='morphing_basis_vector_2'> +1.8346956e-04 </wgt>
<wgt id='morphing_basis_vector_3'> +2.2182403e-04 </wgt>
<wgt id='morphing_basis_vector_4'> +9.1466509e-05 </wgt>
<wgt id='morphing_basis_vector_5'> +2.0744596e-04 </wgt>
</rwgt>
</event>
<event>
 4      1 +1.5130300e-07 1.85382600e+03 7.81860800e-03 8.13436900e-02
        2 -1    0    0  501    0 +0.0000000000e+00 +0.0000000000e+00 +1.1525624583e+03 1.1525624583e+03 0.0000000000e+00 0.0000e+00 1.0000e+00
       -2 -1    0    0    0  501 -0.0000000000e+00 -0.0000000000e+00 -7.4544151213e+02 7.4544151213e+02 0.0000000000e+00 0.0000e+00 -1.0000e+00
      -13  1    1    2    0    0 +3.9199651523e+02 -8.0550613102e+02 -4.0159611128e+01 8.9672414344e+02 0.0000000000e+00 0.0000e+00 -1.0000e+00
       13  1    1    2    0    0 -3.9199651523e+02 +8.0550613102e+02 +4.4728055734e+02 1.0012798270e+03 0.0000000000e+00 0.0000e+00 1.0000e+00
<mgrwt>
<rscale>  0 0.18538262E+04</rscale>
<asrwt>0</asrwt>
<pdfrwt beam="1">  1        2 0.17731730E+00 0.18538262E+04</pdfrwt>
<pdfrwt beam="2">  1       -2 0.11468331E+00 0.18538262E+04</pdfrwt>
<totfact> 0.14167521E+01</totfact>
</mgrwt>
<rwgt>
<wgt id='morphing_basis_vector_1'> +2.5547809e-04 </wgt>
<wgt id='morphing_basis_vector_2'> +1.7726625e-04 </wgt>
<wgt id='morphing_basis_vector_3'> +2.7226442e-04 </wgt>
<wgt id='morphing_basis_vector_4'> +1.7855897e-04 </wgt>
<wgt id='morphing_basis_vector_5'> +2.9458005e-04 </wgt>
</rwgt>
</event>
<event>
 4      1 +1.5130300e-07 1.69914600e+03 7.81860800e-03 8.20774000e-02
        2 -1    0    0  501    0 +0.0000000000e+00 +0.0000000000e+00 +2.3325833376e+03 2.3325833376e+03 0.0000000000e+00 0.0000e+00 1.0000e+00
       -2 -1    0    0    0  501 -0.0000000000e+00 -0.0000000000e+00 -3.0943119357e+02 3.0943119357e+02 0.0000000000e+00 0.0000e+00 -1.0000e+00
      -13  1    1    2    0    0 -8.3860507589e+02 +3.5888823153e+01 +1.2156636295e+03 1.4772895928e+03 0.0000000000e+00 0.0000e+00 -1.0000e+00
       13  1    1    2    0    0 +8.3860507589e+02 -3.5888823153e+01 +8.0748851456e+02 1.1647249384e+03 0.0000000000e+00 0.0000e+00 1.0000e+00
<mgrwt>
<rscale>  0 0.16991457E+04</rscale>
<asrwt>0</asrwt>
<pdfrwt beam="1">  1        2 0.35885896E+00 0.16991457E+04</pdfrwt>
<pdfrwt beam="2">  1       -2 0.47604801E-01 0.16991457E+04</pdfrwt>
<totfact> 0.21488034E+01</totfact>
</mgrwt>
<rwgt>
<wgt id='morphing_basis_vector_1'> +1.9070543e-04 </wgt>
<wgt id='morphing_basis_vector_2'> +1.5175506e-04 </wgt>
<wgt id='morphing_basis_vector_3'> +2.0438235e-04 </wgt>
<wgt id='morphing_basis_vector_4'> +1.0798769e-04 </wgt>
<wgt id='morphing_basis_vector_5'> +2.0474719e-04 </wgt>
</rwgt>
</event>
<event>
 4      1 +1.5130300e-07 1.80223400e+03 7.81860800e-03 8.15799700e-02
        2 -1    0    0  501    0 +0.0000000000e+00 +0.0000000000e+00 +1.4201411811e+03 1.4201411811e+03 0.0000000000e+00 0.0000e+00 -1.0000e+00
       -2 -1    0    0    0  501 -0.0000000000e+00 -0.0000000000e+00 -5.7178218976e+02 5.7178218976e+02 0.0000000000e+00 0.0000e+00 1.0000e+00
      -13  1    1    2    0    0 +3.2572033334e+01 +6.8799489544e+02 -2.1802223938e+02 7.2244834443e+02 0.0000000000e+00 0.0000e+00 1.0000e+00
       13  1    1    2    0    0 -3.2572033334e+01 -6.8799489544e+02 +1.0663812307e+03 1.2694750264e+03 0.0000000000e+00 0.0000e+00 -1.0000e+00
<mgrwt>
<rscale>  0 0.18022335E+04</rscale>
<asrwt>0</asrwt>
<pdfrwt beam="1">  1        2 0.21848326E+00 0.18022335E+04</pdfrwt>
<pdfrwt beam="2">  1       -2 0.87966491E-01 0.18022335E+04</pdfrwt>
<totfact> 0.18982776E+01</totfact>
</mgrwt>
<rwgt>
<wgt id='morphing_basis_vector_1'> +2.2616832e-04 </wgt>
<wgt id='morphing_basis_vector_2'> +1.5066361e-04 </wgt>
<wgt id='morphing_basis_vector_3'> +2.3947890e-04 </wgt>
<wgt id='morphing_basis_vector_4'> +1.6426282e-04 </wgt>
<wgt id='morphing_basis_vector_5'> +2.6281622e-04 </wgt>
</rwgt>
</event>
<event>
 4      1 +1.5130300e-07 1.61165900e+03 7.81860800e-03 8.25287600e-02
        2 -1    0    0  501    0 +0.0000000000e+00 +0.0000000000e+00 +1.9401358367e+03 1.9401358367e+03 0.0000000000e+00 0.0000e+00 -1.0000e+00
       -2 -1    0    0    0  501 -0.0000000000e+00 -0.0000000000e+00 -3.3469893358e+02 3.3469893358e+02 0.0000000000e+00 0.0000e+00 1.0000e+00
      -13  1    1    2    0    0 +7.5007106732e+01 -3.7025134961e+02 -2.0196752057e+02 4.2837250998e+02 0.0000000000e+00 0.0000e+00 1.0000e+00
       13  1    1    2    0    0 -7.5007106732e+01 +3.7025134961e+02 +1.8074044236e+03 1.8464622603e+03 0.0000000000e+00 0.0000e+00 -1.0000e+00
<mgrwt>
<rscale>  0 0.16116593E+04</rscale>
<asrwt>0</asrwt>
<pdfrwt beam="1">  1        2 0.29848243E+00 0.16116593E+04</pdfrwt>
<pdfrwt beam="2">  1       -2 0.51492145E-01 0.16116593E+04</pdfrwt>
<totfact> 0.31034172E+01</totfact>
</mgrwt>
<rwgt>
<wgt id='morphing_basis_vector_1'> +1.4618493e-04 </wgt>
<wgt id='morphing_basis_vector_2'> +9.6127495e-05 </wgt>
<wgt id='morphing_basis_vector_3'> +1.5297542e-04 </wgt>
<wgt id='morphing_basis_vector_4'> +1.0426899e-04 </wgt>
<wgt id='morphing_basis_vector_5'> +1.6601775e-04 </wgt>
</rwgt>
</event>
<event>
 4      1 +1.5130300e-07 1.59646300e+03 7.81860800e-03 8.26101600e-02
        2 -1    0    0  501    0 +0.0000000000e+00 +0.0000000000e+00 +7.1052918000e+02 7.1052918000e+02 0.0000000000e+00 0.0000e+00 1.0000e+00
       -2 -1    0    0    0  501 -0.0000000000e+00 -0.0000000000e+00 -8.9675935918e+02 8.9675935918e+02 0.0000000000e+00 0.0000e+00 -1.0000e+00
      -13  1    1    2    0    0 -3.8545370807e+02 +6.8466661617e+02 -2.3489169283e+02 8.2007136502e+02 0.0000000000e+00 0.0000e+00 -1.0000e+00
       13  1    1    2    0    0 +3.8545370807e+02 -6.8466661617e+02 +4.8661513652e+01 7.8721717415e+02 0.0000000000e+00 0.0000e+00 1.0000e+00
<mgrwt>
<rscale>  0 0.15964632E+04</rscale>
<asrwt>0</asrwt>
<pdfrwt beam="1">  1        2 0.10931218E+00 0.15964632E+04</pdfrwt>
<pdfrwt beam="2">  1       -2 0.13796298E+00 0.15964632E+04</pdfrwt>
<totfact> 0.17246183E+01</totfact>
</mgrwt>
<rwgt>
<wgt id='morphing_basis_vector_1'> +1.4354004e-04 </wgt>
<wgt id='morphing_basis_vector_2'> +1.0041303e-04 </wgt>
<wgt id='morphing_basis_vector_3'> +1.5084213e-04 </wgt>
<wgt id='morphing_basis_vector_4'> +9.5292017e-05 </wgt>
<wgt id='morphing_basis_vector_5'> +1.5927637e-04 </wgt>
</rwgt>
</event>
<event>
 4      1 +1.5130300e-07 1.73654200e+03 7.81860800e-03 8.18928800e-02
        2 -1    0    0  501    0 +0.0000000000e+00 +0.0000000000e+00 +1.6583928215e+03 1.6583928215e+03 0.0000000000e+00 0.0000e+00 -1.0000e+00
       -2 -1    0    0    0  501 -0.0000000000e+00 -0.0000000000e+00 -4.5459359972e+02 4.5459359972e+02 0.0000000000e+00 0.0000e+00 1.0000e+00
      -13  1    1    2    0    0 +4.1277007277e+02 +6.7487395227e+02 +1.6646854018e+02 8.0842177068e+02 0.0000000000e+00 0.0000e+00 1.0000e+00
       13  1    1    2    0    0 -4.1277007277e+02 -6.7487395227e+02 +1.0373306816e+03 1.3045646505e+03 0.0000000000e+00 0.0000e+00 -1.0000e+00
<mgrwt>
<rscale>  0 0.17365423E+04</rscale>
<asrwt>0</asrwt>
<pdfrwt beam="1">  1        2 0.25513735E+00 0.17365423E+04</pdfrwt>
<pdfrwt beam="2">  1       -2 0.69937478E-01 0.17365423E+04</pdfrwt>
<totfact> 0.23488047E+01</totfact>
</mgrwt>
<rwgt>
<wgt id='morphing_basis_vector_1'> +1.9667477e-04 </wgt>
<wgt id='morphing_basis_vector_2'> +1.3298762e-04 </wgt>
<wgt id='morphing_basis_vector_3'> +2.0785519e-04 </wgt>
<wgt id='morphing_basis_vector_4'> +1.3917431e-04 </wgt>
<wgt id='morphing_basis_vector_5'> +2.2552669e-04 </wgt>
</rwgt>
</event>
<event>
 4      1 +1.5130300e-07 1.56520200e+03 7.81860800e-03 8.27805900e-02
        2 -1    0    0  501    0 +0.0000000000e+00 +0.0000000000e+00 +1.3643438140e+03 1.3643438140e+03 0.0000000000e+00 0.0000e+00 1.0000e+00
       -2 -1    0    0    0  501 -0.0000000000e+00 -0.0000000000e+00 -4.4890773578e+02 4.4890773578e+02 0.0000000000e+00 0.0000e+00 -1.0000e+00
      -13  1    1    2    0    0 +3.2684317758e+02 +5.0673259114e+01 -3.6396045772e+02 4.9179412024e+02 0.0000000000e+00 0.0000e+00 -1.0000e+00
       13  1    1    2    0    0 -3.2684317758e+02 -5.0673259114e+01 +1.2793965359e+03 1.3214574295e+03 0.0000000000e+00 0.0000e+00 1.0000e+00
<mgrwt>
<rscale>  0 0.15652022E+04</rscale>
<asrwt>0</asrwt>
<pdfrwt beam="1">  1        2 0.20989905E+00 0.15652022E+04</pdfrwt>
<pdfrwt beam="2">  1       -2 0.69062729E-01 0.15652022E+04</pdfrwt>
<totfact> 0.35769436E+01</totfact>
</mgrwt>
<rwgt>
<wgt id='morphing_basis_vector_1'> +1.3051945e-04 </wgt>
<wgt id='morphing_basis_vector_2'> +8.5631275e-05 </wgt>
<wgt id='morphing_basis_vector_3'> +1.3612457e-04 </wgt>
<wgt id='morphing_basis_vector_4'> +9.2434369e-05 </wgt>
<wgt id='morphing_basis_vector_5'> +1.4713048e-04 </wgt>
</rwgt>
</event>
<event>
 4      1 +1.5130300e-07 1.82224200e+03 7.81860800e-03 8.14873700e-02
        2 -1    0    0  501    0 +0.0000000000e+00 +0.0000000000e+00 +1.2710135282e+03 1.2710135282e+03 0.0000000000e+00 0.0000e+00 1.0000e+00
       -2 -1    0    0    0  501 -0.0000000000e+00 -0.0000000000e+00 -6.5313355546e+02 6.5313355546e+02 0.0000000000e+00 0.0000e+00 -1.0000e+00
      -13  1    1    2    0    0 -4.7700960649e+02 -2.1139121325e+02 -4.7976947710e+02 7.0880403560e+02 0.0000000000e+00 0.0000e+00 -1.0000e+00
       13  1    1    2    0    0 +4.7700960649e+02 +2.1139121325e+02 +1.0976494498e+03 1.2153430480e+03 0.0000000000e+00 0.0000e+00 1.0000e+00
<mgrwt>
<rscale>  0 0.18222421E+04</rscale>
<asrwt>0</asrwt>
<pdfrwt beam="1">  1        2 0.19554054E+00 0.18222421E+04</pdfrwt>
<pdfrwt beam="2">  1       -2 0.10048209E+00 0.18222421E+04</pdfrwt>
<totfact> 0.16827847E+01</totfact>
</mgrwt>
<rwgt>
<wgt id='morphing_basis_vector_1'> +2.3577566e-04 </wgt>
<wgt id='morphing_basis_vector_2'> +1.5635623e-04 </wgt>
<wgt id='morphing_basis_vector_3'> +2.4977450e-04 </wgt>
<wgt id='morphing_basis_vector_4'> +1.7254372e-04 </wgt>
<wgt id='morphing_basis_vector_5'> +2.7503558e-04 </wgt>
</rwgt>
</event>
<event>
 4      1 +1.5130300e-07 1.77182000e+03 7.81860800e-03 8.17231200e-02
        2 -1    0    0  501    0 +0.0000000000e+00 +0.0000000000e+00 +4.4144586006e+02 4.4144586006e+02 0.0000000000e+00 0.0000e+00 1.0000e+00
       -2 -1    0    0    0  501 -0.0000000000e+00 -0.0000000000e+00 -1.7778775269e+03 1.7778775269e+03 0.0000000000e+00 0.0000e+00 -1.0000e+00
      -13  1    1    2    0    0 -4.8392035841e+02 -2.0194958522e-01 -1.5976996142e+03 1.6693780312e+03 0.0000000000e+00 0.0000e+00 -1.0000e+00
       13  1    1    2    0    0 +4.8392035841e+02 +2.0194958522e-01 +2.6126794727e+02 5.4994535578e+02 0.0000000000e+00 0.0000e+00 1.0000e+00
<mgrwt>
<rscale>  0 0.17718202E+04</rscale>
<asrwt>0</asrwt>
<pdfrwt beam="1">  1        2 0.67914750E-01 0.17718202E+04</pdfrwt>
<pdfrwt beam="2">  1       -2 0.27351961E+00 0.17718202E+04</pdfrwt>
<totfact> 0.29366332E+00</totfact>
</mgrwt>
<rwgt>
<wgt id='morphing_basis_vector_1'> +2.1131590e-04 </wgt>
<wgt id='morphing_basis_vector_2'> +1.3987312e-04 </wgt>
<wgt id='morphing_basis_vector_3'> +2.2328752e-04 </wgt>
<wgt id='morphing_basis_vector_4'> +1.5383955e-04 </wgt>
<wgt id='morphing_basis_vector_5'> +2.4514570e-04 </wgt>
</rwgt>
</event>
<event>
 4      1 +1.5130300e-07 1.62383700e+03 7.81860800e-03 8.24641900e-02
        2 -1    0    0  501    0 +0.0000000000e+00 +0.0000000000e+00 +8.3552608957e+02 8.3552608957e+02 0.0000000000e+00 0.0000e+00 -1.0000e+00
       -2 -1    0    0    0  501 -0.0000000000e+00 -0.0000000000e+00 -7.8897824109e+02 7.8897824109e+02 0.0000000000e+00 0.0000e+00 1.0000e+00
      -13  1    1    2    0    0 +1.3986876115e+02 +2.7565906148e+02 -7.2780788022e+02 7.9073099031e+02 0.0000000000e+00 0.0000e+00 1.0000e+00
       13  1    1    2    0    0 -1.3986876115e+02 -2.7565906148e+02 +7.7435572870e+02 8.3377334035e+02 0.0000000000e+00 0.0000e+00 -1.0000e+00
<mgrwt>
<rscale>  0 0.16238373E+04</rscale>
<asrwt>0</asrwt>
<pdfrwt beam="1">  1        2 0.12854248E+00 0.16238373E+04</pdfrwt>
<pdfrwt beam="2">  1       -2 0.12138127E+00 0.16238373E+04</pdfrwt>
<totfact> 0.19738349E+01</totfact>
</mgrwt>
<rwgt>
<wgt id='morphing_basis_vector_1'> +1.5050114e-04 </wgt>
<wgt id='morphing_basis_vector_2'> +9.8984324e-05 </wgt>
<wgt id='morphing_basis_vector_3'> +1.5761866e-04 </wgt>
<wgt id='morphing_basis_vector_4'> +1.0757995e-04 </wgt>
<wgt id='morphing_basis_vector_5'> +1.7125533e-04 </wgt>
</rwgt>
</event>
<event>
 4      1 +1.5130300e-07 1.70293200e+03 7.81860800e-03 8.20584900e-02
        2 -1    0    0  501    0 +0.0000000000e+00 +0.0000000000e+00 +1.9943557477e+03 1.9943557477e+03 0.0000000000e+00 0.0000e+00 1.0000e+00
       -2 -1    0    0    0  501 -0.0000000000e+00 -0.0000000000e+00 -3.6352319959e+02 3.6352319959e+02 0.0000000000e+00 0.0000e+00 -1.0000e+00
      -13  1    1    2    0    0 +3.9646037959e+02 -5.2895325610e+01 -2.2535294156e+02 4.5908898520e+02 0.0000000000e+00 0.0000e+00 -1.0000e+00
       13  1    1    2    0    0 -3.9646037959e+02 +5.2895325610e+01 +1.8561854896e+03 1.8987899620e+03 0.0000000000e+00 0.0000e+00 1.0000e+00
<mgrwt>
<rscale>  0 0.17029323E+04</rscale>
<asrwt>0</asrwt>
<pdfrwt beam="1">  1        2 0.30682395E+00 0.17029323E+04</pdfrwt>
<pdfrwt beam="2">  1       -2 0.55926647E-01 0.17029323E+04</pdfrwt>
<totfact> 0.24341137E+01</totfact>
</mgrwt>
<rwgt>
<wgt id='morphing_basis_vector_1'> +1.8105358e-04 </wgt>
<wgt id='morphing_basis_vector_2'> +1.1948895e-04 </wgt>
<wgt id='morphing_basis_vector_3'> +1.9056928e-04 </wgt>
<wgt id='morphing_basis_vector_4'> +1.3079127e-04 </wgt>
<wgt id='morphing_basis_vector_5'> +2.0830056e-04 </wgt>
</rwgt>
</event>
<event>
 4      1 +1.5130300e-07 1.63680300e+03 7.81860800e-03 8.23960800e-02
        2 -1    0    0  501    0 +0.0000000000e+00 +0.0000000000e+00 +1.1942251619e+03 1.1942251619e+03 0.0000000000e+00 0.0000e+00 -1.0000e+00
       -2 -1    0    0    0  501 -0.0000000000e+00 -0.0000000000e+00 -5.6084966567e+02 5.6084966567e+02 0.0000000000e+00 0.0000e+00 1.0000e+00
      -13  1    1    2    0    0 +4.3256421675e+01 +6.7968967177e+02 -1.6989960038e+02 7.0193663684e+02 0.0000000000e+00 0.0000e+00 1.0000e+00
       13  1    1    2    0    0 -4.3256421675e+01 -6.7968967177e+02 +8.0327509663e+02 1.0531381907e+03 0.0000000000e+00 0.0000e+00 -1.0000e+00
<mgrwt>
<rscale>  0 0.16368027E+04</rscale>
<asrwt>0</asrwt>
<pdfrwt beam="1">  1        2 0.18372695E+00 0.16368027E+04</pdfrwt>
<pdfrwt beam="2">  1       -2 0.86284565E-01 0.16368027E+04</pdfrwt>
<totfact> 0.27124203E+01</totfact>
</mgrwt>
<rwgt>
<wgt id='morphing_basis_vector_1'> +1.5571804e-04 </wgt>
<wgt id='morphing_basis_vector_2'> +1.0363084e-04 </wgt>
<wgt id='morphing_basis_vector_3'> +1.6338059e-04 </wgt>
<wgt id='morphing_basis_vector_4'> +1.1020401e-04 </wgt>
<wgt id='morphing_basis_vector_5'> +1.7689047e-04 </wgt>
</rwgt>
</event>
<event>
 4      1 +1.5130300e-07 1.68814600e+03 7.81860800e-03 8.21326000e-02
        2 -1    0    0  501    0 +0.0000000000e+00 +0.0000000000e+00 +7.2224441178e+02 7.2224441178e+02 0.0000000000e+00 0.0000e+00 -1.0000e+00
       -2 -1    0    0    0  501 -0.0000000000e+00 -0.0000000000e+00 -9.8645190001e+02 9.8645190001e+02 0.0000000000e+00 0.0000e+00 1.0000e+00
      -13  1    1    2    0    0 -3.9503282367e+02 +5.2551868954e+02 -6.6792356026e+02 9.3719939563e+02 0.0000000000e+00 0.0000e+00 1.0000e+00
       13  1    1    2    0    0 +3.9503282367e+02 -5.2551868954e+02 +4.0371607202e+02 7.7149691616e+02 0.0000000000e+00 0.0000e+00 -1.0000e+00
<mgrwt>
<rscale>  0 0.16881462E+04</rscale>
<asrwt>0</asrwt>
<pdfrwt beam="1">  1        2 0.11111452E+00 0.16881462E+04</pdfrwt>
<pdfrwt beam="2">  1       -2 0.15176183E+00 0.16881462E+04</pdfrwt>
<totfact> 0.12831061E+01</totfact>
</mgrwt>
<rwgt>
<wgt id='morphing_basis_vector_1'> +1.7535902e-04 </wgt>
<wgt id='morphing_basis_vector_2'> +1.1645782e-04 </wgt>
<wgt id='morphing_basis_vector_3'> +1.8452471e-04 </wgt>
<wgt id='morphing_basis_vector_4'> +1.2552952e-04 </wgt>
<wgt id='morphing_basis_vector_5'> +2.0091113e-04 </wgt>
</rwgt>
</event>
<event>
 4      1 +1.5130300e-07 1.76190000e+03 7.81860800e-03 8.17704500e-02
        2 -1    0    0  501    0 +0.0000000000e+00 +0.0000000000e+00 +3.4038766706e+03 3.4038766706e+03 0.0000000000e+00 0.0000e+00 1.0000e+00
       -2 -1    0    0    0  501 -0.0000000000e+00 -0.0000000000e+00 -2.2799670688e+02 2.2799670688e+02 0.0000000000e+00 0.0000e+00 -1.0000e+00
      -13  1    1    2    0    0 +1.2763124446e+02 +7.7896898207e+02 +7.8166830872e+02 1.1108950240e+03 0.0000000000e+00 0.0000e+00 -1.0000e+00
       13  1    1    2    0    0 -1.2763124446e+02 -7.7896898207e+02 +2.3942116550e+03 2.5209783535e+03 0.0000000000e+00 0.0000e+00 1.0000e+00
<mgrwt>
<rscale>  0 0.17618997E+04</rscale>
<asrwt>0</asrwt>
<pdfrwt beam="1">  1        2 0.52367330E+00 0.17618997E+04</pdfrwt>
<pdfrwt beam="2">  1       -2 0.35076419E-01 0.17618997E+04</pdfrwt>
<totfact> 0.78980456E+00</totfact>
</mgrwt>
<rwgt>
<wgt id='morphing_basis_vector_1'> +2.0789768e-04 </wgt>
<wgt id='morphing_basis_vector_2'> +1.4023050e-04 </wgt>
<wgt id='morphing_basis_vector_3'> +2.1995818e-04 </wgt>
<wgt id='morphing_basis_vector_4'> +1.4809355e-04 </wgt>
<wgt id='morphing_basis_vector_5'> +2.3938830e-04 </wgt>
</rwgt>
</event>
<event>
 4      1 +1.5130300e-07 1.70655700e+03 7.81860800e-03 8.20404500e-02
        2 -1    0    0  501    0 +0.0000000000e+00 +0.0000000000e+00 +1.3829934286e+03 1.3829934286e+03 0.0000000000e+00 0.0000e+00 1.0000e+00
       -2 -1    0    0    0  501 -0.0000000000e+00 -0.0000000000e+00 -5.2645542449e+02 5.2645542449e+02 0.0000000000e+00 0.0000e+00 -1.0000e+00
      -13  1    1    2    0    0 +1.8236864332e+02 +7.6329103507e+02 +8.0307669932e+02 1.1228551604e+03 0.0000000000e+00 0.0000e+00 -1.0000e+00
       13  1    1    2    0    0 -1.8236864332e+02 -7.6329103507e+02 +5.3461304807e+01 7.8659369270e+02 0.0000000000e+00 0.0000e+00 1.0000e+00
<mgrwt>
<rscale>  0 0.17065572E+04</rscale>
<asrwt>0</asrwt>
<pdfrwt beam="1">  1        2 0.21276822E+00 0.17065572E+04</pdfrwt>
<pdfrwt beam="2">  1       -2 0.80993143E-01 0.17065572E+04</pdfrwt>
<totfact> 0.24287296E+01</totfact>
</mgrwt>
<rwgt>
<wgt id='morphing_basis_vector_1'> +2.0716476e-04 </wgt>
<wgt id='morphing_basis_vector_2'> +1.9359896e-04 </wgt>
<wgt id='morphing_basis_vector_3'> +2.2626118e-04 </wgt>
<wgt id='morphing_basis_vector_4'> +8.4458870e-05 </wgt>
<wgt id='morphing_basis_vector_5'> +2.0649003e-04 </wgt>
</rwgt>
</event>
<event>
 4      1 +1.5130300e-07 1.75436900e+03 7.81860800e-03 8.18065900e-02
        2 -1    0    0  501    0 +0.0000000000e+00 +0.0000000000e+00 +8.9684645121e+02 8.9684645121e+02 0.0000000000e+00 0.0000e+00 -1.0000e+00
       -2 -1    0    0    0  501 -0.0000000000e+00 -0.0000000000e+00 -8.5795338795e+02 8.5795338795e+02 0.0000000000e+00 0.0000e+00 1.0000e+00
      -13  1    1    2    0    0 +6.0859767297e+02 -2.8733838174e+02 -5.4327322932e+02 8.6492790154e+02 0.0000000000e+00 0.0000e+00 1.0000e+00
       13  1    1    2    0    0 -6.0859767297e+02 +2.8733838174e+02 +5.8216629258e+02 8.8987193763e+02 0.0000000000e+00 0.0000e+00 -1.0000e+00
<mgrwt>
<rscale>  0 0.17543688E+04</rscale>
<asrwt>0</asrwt>
<pdfrwt beam="1">  1        2 0.13797638E+00 0.17543688E+04</pdfrwt>
<pdfrwt beam="2">  1       -2 0.13199283E+00 0.17543688E+04</pdfrwt>
<totfact> 0.14235112E+01</totfact>
</mgrwt>
<rwgt>
<wgt id='morphing_basis_vector_1'> +2.0364728e-04 </wgt>
<wgt id='morphing_basis_vector_2'> +1.3547232e-04 </wgt>
<wgt id='morphing_basis_vector_3'> +2.1509633e-04 </wgt>
<wgt id='morphing_basis_vector_4'> +1.4708650e-04 </wgt>
<wgt id='morphing_basis_vector_5'> +2.3533711e-04 </wgt>
</rwgt>
</event>
<event>
 4      1 +1.5130300e-07 1.69282300e+03 7.81860800e-03 8.21090700e-02
        2 -1    0    0  501    0 +0.0000000000e+00 +0.0000000000e+00 +1.9201675035e+03 1.9201675035e+03 0.0000000000e+00 0.0000e+00 -1.0000e+00
       -2 -1    0    0    0  501 -0.0000000000e+00 -0.0000000000e+00 -3.7309905893e+02 3.7309905893e+02 0.0000000000e+00 0.0000e+00 1.0000e+00
      -13  1    1    2    0    0 +9.7765358695e+00 +5.9368533591e+02 -4.3625553486e+01 5.9536631383e+02 0.0000000000e+00 0.0000e+00 1.0000e+00
       13  1    1    2    0    0 -9.7765358695e+00 -5.9368533591e+02 +1.5906939980e+03 1.6979002486e+03 0.0000000000e+00 0.0000e+00 -1.0000e+00
<mgrwt>
<rscale>  0 0.16928233E+04</rscale>
<asrwt>0</asrwt>
<pdfrwt beam="1">  1        2 0.29541038E+00 0.16928233E+04</pdfrwt>
<pdfrwt beam="2">  1       -2 0.57399856E-01 0.16928233E+04</pdfrwt>
<totfact> 0.25434004E+01</totfact>
</mgrwt>
<rwgt>
<wgt id='morphing_basis_vector_1'> +1.7708280e-04 </wgt>
<wgt id='morphing_basis_vector_2'> +1.1722462e-04 </wgt>
<wgt id='morphing_basis_vector_3'> +1.8633478e-04 </wgt>
<wgt id='morphing_basis_vector_4'> +1.2729745e-04 </wgt>
<wgt id='morphing_basis_vector_5'> +2.0323634e-04 </wgt>
</rwgt>
</event>
<event>
 4      1 +1.5130300e-07 1.67194300e+03 7.81860800e-03 8.22147000e-02
        2 -1    0    0  501    0 +0.0000000000e+00 +0.0000000000e+00 +1.2941688622e+03 1.2941688622e+03 0.0000000000e+00 0.0000e+00 1.0000e+00
       -2 -1    0    0    0  501 -0.0000000000e+00 -0.0000000000e+00 -5.3999776198e+02 5.3999776198e+02 0.0000000000e+00 0.0000e+00 -1.0000e+00
      -13  1    1    2    0    0 +1.2175555090e+02 -2.9839773769e+02 -4.6910757771e+02 5.6914632872e+02 0.0000000000e+00 0.0000e+00 -1.0000e+00
       13  1    1    2    0    0 -1.2175555090e+02 +2.9839773769e+02 +1.2232786779e+03 1.2650202954e+03 0.0000000000e+00 0.0000e+00 1.0000e+00
<mgrwt>
<rscale>  0 0.16719429E+04</rscale>
<asrwt>0</asrwt>
<pdfrwt beam="1">  1        2 0.19910290E+00 0.16719429E+04</pdfrwt>
<pdfrwt beam="2">  1       -2 0.83076579E-01 0.16719429E+04</pdfrwt>
<totfact> 0.25827481E+01</totfact>
</mgrwt>
<rwgt>
<wgt id='morphing_basis_vector_1'> +1.6856283e-04 </wgt>
<wgt id='morphing_basis_vector_2'> +1.1107998e-04 </wgt>
<wgt id='morphing_basis_vector_3'> +1.7708503e-04 </wgt>
<wgt id='morphing_basis_vector_4'> +1.2131224e-04 </wgt>
<wgt id='morphing_basis_vector_5'> +1.9314379e-04 </wgt>
</rwgt>
</event>
<event>
 4      1 +1.5130300e-07 1.56242000e+03 7.81860800e-03 8.27959500e-02
        2 -1    0    0  501    0 +0.0000000000e+00 +0.0000000000e+00 +1.7514004834e+03 1.7514004834e+03 0.0000000000e+00 0.0000e+00 -1.0000e+00
       -2 -1    0    0    0  501 -0.0000000000e+00 -0.0000000000e+00 -3.4845776733e+02 3.4845776733e+02 0.0000000000e+00 0.0000e+00 1.0000e+00
      -13  1    1    2    0    0 -4.8025514393e+02 +4.9337209469e+02 +2.0542132157e+02 7.1851161887e+02 0.0000000000e+00 0.0000e+00 1.0000e+00
       13  1    1    2    0    0 +4.8025514393e+02 -4.9337209469e+02 +1.1975213945e+03 1.3813466319e+03 0.0000000000e+00 0.0000e+00 -1.0000e+00
<mgrwt>
<rscale>  0 0.15624200E+04</rscale>
<asrwt>0</asrwt>
<pdfrwt beam="1">  1        2 0.26944622E+00 0.15624200E+04</pdfrwt>
<pdfrwt beam="2">  1       -2 0.53608888E-01 0.15624200E+04</pdfrwt>
<totfact> 0.36647886E+01</totfact>
</mgrwt>
<rwgt>
<wgt id='morphing_basis_vector_1'> +1.3027365e-04 </wgt>
<wgt id='morphing_basis_vector_2'> +8.6967069e-05 </wgt>
<wgt id='morphing_basis_vector_3'> +1.3602963e-04 </wgt>
<wgt id='morphing_basis_vector_4'> +9.0531716e-05 </wgt>
<wgt id='morphing_basis_vector_5'> +1.4596042e-04 </wgt>
</rwgt>
</event>
<event>
 4      1 +1.5130300e-07 1.56509300e+03 7.81860800e-03 8.27811900e-02
        2 -1    0    0  501    0 +0.0000000000e+00 +0.0000000000e+00 +1.6558013521e+03 1.6558013521e+03 0.0000000000e+00 0.0000e+00 -1.0000e+00
       -2 -1    0    0    0  501 -0.0000000000e+00 -0.0000000000e+00 -3.6983838386e+02 3.6983838386e+02 0.0000000000e+00 0.0000e+00 1.0000e+00
      -13  1    1    2    0    0 -1.7080669222e+02 +2.8287209616e+02 -2.7511211677e+02 4.2997468028e+02 0.0000000000e+00 0.0000e+00 1.0000e+00
       13  1    1    2    0    0 +1.7080669222e+02 -2.8287209616e+02 +1.5610750850e+03 1.5956650557e+03 0.0000000000e+00 0.0000e+00 -1.0000e+00
<mgrwt>
<rscale>  0 0.15650928E+04</rscale>
<asrwt>0</asrwt>
<pdfrwt beam="1">  1        2 0.25473867E+00 0.15650928E+04</pdfrwt>
<pdfrwt beam="2">  1       -2 0.56898214E-01 0.15650928E+04</pdfrwt>
<totfact> 0.36730182E+01</totfact>
</mgrwt>
<rwgt>
<wgt id='morphing_basis_vector_1'> +1.3048411e-04 </wgt>
<wgt id='morphing_basis_vector_2'> +8.5607543e-05 </wgt>
<wgt id='morphing_basis_vector_3'> +1.3608658e-04 </wgt>
<wgt id='morphing_basis_vector_4'> +9.2407799e-05 </wgt>
<wgt id='morphing_basis_vector_5'> +1.4708799e-04 </wgt>
</rwgt>
</event>
<event>
 4      1 +1.5130300e-07 1.64268100e+03 7.81860800e-03 8.23654200e-02
        2 -1    0    0  501    0 +0.0000000000e+00 +0.0000000000e+00 +3.2628501189e+02 3.2628501189e+02 0.0000000000e+00 0.0000e+00 -1.0000e+00
       -2 -1    0    0    0  501 -0.0000000000e+00 -0.0000000000e+00 -2.0675180775e+03 2.0675180775e+03 0.0000000000e+00 0.0000e+00 1.0000e+00
      -13  1    1    2    0    0 -6.5049401971e+02 -3.9272963509e+02 -4.1624038271e+02 8.6639199682e+02 0.0000000000e+00 0.0000e+00 1.0000e+00
       13  1    1    2    0    0 +6.5049401971e+02 +3.9272963509e+02 -1.3249926829e+03 1.5274110926e+03 0.0000000000e+00 0.0000e+00 -1.0000e+00
<mgrwt>
<rscale>  0 0.16426809E+04</rscale>
<asrwt>0</asrwt>
<pdfrwt beam="1">  1        2 0.50197695E-01 0.16426809E+04</pdfrwt>
<pdfrwt beam="2">  1       -2 0.31807970E+00 0.16426809E+04</pdfrwt>
<totfact> 0.20887730E+00</totfact>
</mgrwt>
<rwgt>
<wgt id='morphing_basis_vector_1'> +1.7779543e-04 </wgt>
<wgt id='morphing_basis_vector_2'> +1.6426773e-04 </wgt>
<wgt id='morphing_basis_vector_3'> +1.9287218e-04 </wgt>
<wgt id='morphing_basis_vector_4'> +7.3797545e-05 </wgt>
<wgt id='morphing_basis_vector_5'> +1.7663191e-04 </wgt>
</rwgt>
</event>
<event>
 4      1 +1.5130300e-07 1.63437200e+03 7.81860800e-03 8.24088000e-02
        2 -1    0    0  501    0 +0.0000000000e+00 +0.0000000000e+00 +1.8298767616e+03 1.8298767616e+03 0.0000000000e+00 0.0000e+00 -1.0000e+00
       -2 -1    0    0    0  501 -0.0000000000e+00 -0.0000000000e+00 -3.6493867593e+02 3.6493867593e+02 0.0000000000e+00 0.0000e+00 1.0000e+00
      -13  1    1    2    0    0 -1.1774819349e+02 -5.0567265326e+02 -1.1497395414e+02 5.3177860003e+02 0.0000000000e+00 0.0000e+00 1.0000e+00
       13  1    1    2    0    0 +1.1774819349e+02 +5.0567265326e+02 +1.5799120398e+03 1.6630368375e+03 0.0000000000e+00 0.0000e+00 -1.0000e+00
<mgrwt>
<rscale>  0 0.16343718E+04</rscale>
<asrwt>0</asrwt>
<pdfrwt beam="1">  1        2 0.28151950E+00 0.16343718E+04</pdfrwt>
<pdfrwt beam="2">  1       -2 0.56144413E-01 0.16343718E+04</pdfrwt>
<totfact> 0.30020682E+01</totfact>
</mgrwt>
<rwgt>
<wgt id='morphing_basis_vector_1'> +1.5441771e-04 </wgt>
<wgt id='morphing_basis_vector_2'> +1.0182079e-04 </wgt>
<wgt id='morphing_basis_vector_3'> +1.6186357e-04 </wgt>
<wgt id='morphing_basis_vector_4'> +1.1030496e-04 </wgt>
<wgt id='morphing_basis_vector_5'> +1.7586886e-04 </wgt>
</rwgt>
</event>
<event>
 4      1 +1.5130300e-07 1.64589600e+03 7.81860800e-03 8.23487000e-02
        2 -1    0    0  501    0 +0.0000000000e+00 +0.0000000000e+00 +1.1614539554e+03 1.1614539554e+03 0.0000000000e+00 0.0000e+00 -1.0000e+00
       -2 -1    0    0    0  501 -0.0000000000e+00 -0.0000000000e+00 -5.8309969097e+02 5.8309969097e+02 0.0000000000e+00 0.0000e+00 1.0000e+00
      -13  1    1    2    0    0 +4.5813856588e+02 -3.9432176619e+02 -3.0274386341e+02 6.7604322914e+02 0.0000000000e+00 0.0000e+00 1.0000e+00
       13  1    1    2    0    0 -4.5813856588e+02 +3.9432176619e+02 +8.8109812782e+02 1.0685104172e+03 0.0000000000e+00 0.0000e+00 -1.0000e+00
<mgrwt>
<rscale>  0 0.16458960E+04</rscale>
<asrwt>0</asrwt>
<pdfrwt beam="1">  1        2 0.17868522E+00 0.16458960E+04</pdfrwt>
<pdfrwt beam="2">  1       -2 0.89707645E-01 0.16458960E+04</pdfrwt>
<totfact> 0.25882109E+01</totfact>
</mgrwt>
<rwgt>
<wgt id='morphing_basis_vector_1'> +1.5881496e-04 </wgt>
<wgt id='morphing_basis_vector_2'> +1.0506641e-04 </wgt>
<wgt id='morphing_basis_vector_3'> +1.6663953e-04 </wgt>
<wgt id='morphing_basis_vector_4'> +1.1329628e-04 </wgt>
<wgt id='morphing_basis_vector_5'> +1.8101717e-04 </wgt>
</rwgt>
</event>
<event>
 4      1 +1.5130300e-07 1.60262200e+03 7.81860800e-03 8.25770600e-02
        2 -1    0    0  501    0 +0.0000000000e+00 +0.0000000000e+00 +1.3267151803e+03 1.3267151803e+03 0.0000000000e+00 0.0000e+00 -1.0000e+00
       -2 -1    0    0    0  501 -0.0000000000e+00 -0.0000000000e+00 -4.8397691222e+02 4.8397691222e+02 0.0000000000e+00 0.0000e+00 1.0000e+00
      -13  1    1    2    0    0 -2.9906628205e+02 -5.3355881590e+02 -1.6350128716e+02 6.3313373152e+02 0.0000000000e+00 0.0000e+00 1.0000e+00
       13  1    1    2    0    0 +2.9906628205e+02 +5.3355881590e+02 +1.0062395553e+03 1.1775583610e+03 0.0000000000e+00 0.0000e+00 -1.0000e+00
<mgrwt>
<rscale>  0 0.16026222E+04</rscale>
<asrwt>0</asrwt>
<pdfrwt beam="1">  1        2 0.20411003E+00 0.16026222E+04</pdfrwt>
<pdfrwt beam="2">  1       -2 0.74457987E-01 0.16026222E+04</pdfrwt>
<totfact> 0.31836656E+01</totfact>
</mgrwt>
<rwgt>
<wgt id='morphing_basis_vector_1'> +1.4327676e-04 </wgt>
<wgt id='morphing_basis_vector_2'> +9.4743213e-05 </wgt>
<wgt id='morphing_basis_vector_3'> +1.4991212e-04 </wgt>
<wgt id='morphing_basis_vector_4'> +1.0141745e-04 </wgt>
<wgt id='morphing_basis_vector_5'> +1.6217513e-04 </wgt>
</rwgt>
</event>
<event>
 4      1 +1.5130300e-07 1.66856700e+03 7.81860800e-03 8.22319200e-02
        2 -1    0    0  501    0 +0.0000000000e+00 +0.0000000000e+00 +1.5970598789e+03 1.5970598789e+03 0.0000000000e+00 0.0000e+00 -1.0000e+00
       -2 -1    0    0    0  501 -0.0000000000e+00 -0.0000000000e+00 -4.3581911884e+02 4.3581911884e+02 0.0000000000e+00 0.0000e+00 1.0000e+00
      -13  1    1    2    0    0 -5.8205458941e+02 -4.0338161629e+02 +1.1179681576e+03 1.3233884822e+03 0.0000000000e+00 0.0000e+00 1.0000e+00
       13  1    1    2    0    0 +5.8205458941e+02 +4.0338161629e+02 +4.3272602383e+01 7.0949051546e+02 0.0000000000e+00 0.0000e+00 -1.0000e+00
<mgrwt>
<rscale>  0 0.16685673E+04</rscale>
<asrwt>0</asrwt>
<pdfrwt beam="1">  1        2 0.24570152E+00 0.16685673E+04</pdfrwt>
<pdfrwt beam="2">  1       -2 0.67049096E-01 0.16685673E+04</pdfrwt>
<totfact> 0.27957408E+01</totfact>
</mgrwt>
<rwgt>
<wgt id='morphing_basis_vector_1'> +2.0029719e-04 </wgt>
<wgt id='morphing_basis_vector_2'> +2.0844064e-04 </wgt>
<wgt id='morphing_basis_vector_3'> +2.2103011e-04 </wgt>
<wgt id='morphing_basis_vector_4'> +5.6865869e-05 </wgt>
<wgt id='morphing_basis_vector_5'> +1.8670453e-04 </wgt>
</rwgt>
</event>
<event>
 4      1 +1.5130300e-07 1.58719300e+03 7.81860800e-03 8.26602800e-02
        2 -1    0    0  501    0 +0.0000000000e+00 +0.0000000000e+00 +1.9521788004e+03 1.9521788004e+03 0.0000000000e+00 0.0000e+00 1.0000e+00
       -2 -1    0    0    0  501 -0.0000000000e+00 -0.0000000000e+00 -3.2261141619e+02 3.2261141619e+02 0.0000000000e+00 0.0000e+00 -1.0000e+00
      -13  1    1    2    0    0 -1.6803225005e+01 -5.5402088735e+02 +7.8041090580e-01 5.5427619562e+02 0.0000000000e+00 0.0000e+00 -1.0000e+00
       13  1    1    2    0    0 +1.6803225005e+01 +5.5402088735e+02 +1.6287869733e+03 1.7205140210e+03 0.0000000000e+00 0.0000e+00 1.0000e+00
<mgrwt>
<rscale>  0 0.15871927E+04</rscale>
<asrwt>0</asrwt>
<pdfrwt beam="1">  1        2 0.30033520E+00 0.15871927E+04</pdfrwt>
<pdfrwt beam="2">  1       -2 0.49632526E-01 0.15871927E+04</pdfrwt>
<totfact> 0.32919105E+01</totfact>
</mgrwt>
<rwgt>
<wgt id='morphing_basis_vector_1'> +1.3790212e-04 </wgt>
<wgt id='morphing_basis_vector_2'> +9.0887707e-05 </wgt>
<wgt id='morphing_basis_vector_3'> +1.4409848e-04 </wgt>
<wgt id='morphing_basis_vector_4'> +9.7648349e-05 </wgt>
<wgt id='morphing_basis_vector_5'> +1.5584064e-04 </wgt>
</rwgt>
</event>
<event>
 4      1 +1.5130300e-07 1.73676800e+03 7.81860800e-03 8.18917800e-02
        2 -1    0    0  501    0 +0.0000000000e+00 +0.0000000000e+00 +1.4144974400e+03 1.4144974400e+03 0.0000000000e+00 0.0000e+00 -1.0000e+00
       -2 -1    0    0    0  501 -0.0000000000e+00 -0.0000000000e+00 -5.3311592570e+02 5.3311592570e+02 0.0000000000e+00 0.0000e+00 1.0000e+00
      -13  1    1    2    0    0 +4.3744011670e+02 +8.5686715274e+01 -3.9503125124e+02 5.9560537131e+02 0.0000000000e+00 0.0000e+00 1.0000e+00
       13  1    1    2    0    0 -4.3744011670e+02 -8.5686715274e+01 +1.2764127655e+03 1.3520079944e+03 0.0000000000e+00 0.0000e+00 -1.0000e+00
<mgrwt>
<rscale>  0 0.17367684E+04</rscale>
<asrwt>0</asrwt>
<pdfrwt beam="1">  1        2 0.21761499E+00 0.17367684E+04</pdfrwt>
<pdfrwt beam="2">  1       -2 0.82017835E-01 0.17367684E+04</pdfrwt>
<totfact> 0.22596132E+01</totfact>
</mgrwt>
<rwgt>
<wgt id='morphing_basis_vector_1'> +1.9547549e-04 </wgt>
<wgt id='morphing_basis_vector_2'> +1.2919868e-04 </wgt>
<wgt id='morphing_basis_vector_3'> +2.0615320e-04 </wgt>
<wgt id='morphing_basis_vector_4'> +1.4176493e-04 </wgt>
<wgt id='morphing_basis_vector_5'> +2.2584096e-04 </wgt>
</rwgt>
</event>
<event>
 4      1 +1.5130300e-07 1.66026100e+03 7.81860800e-03 8.22744800e-02
        2 -1    0    0  501    0 +0.0000000000e+00 +0.0000000000e+00 +2.1999718209e+03 2.1999718209e+03 0.0000000000e+00 0.0000e+00 -1.0000e+00
       -2 -1    0    0    0  501 -0.0000000000e+00 -0.0000000000e+00 -3.1323901952e+02 3.1323901952e+02 0.0000000000e+00 0.0000e+00 1.0000e+00
      -13  1    1    2    0    0 +7.4957288827e+02 +1.5117518063e+02 +4.5425238458e+02 8.8941479579e+02 0.0000000000e+00 0.0000e+00 1.0000e+00
       13  1    1    2    0    0 -7.4957288827e+02 -1.5117518063e+02 +1.4324804168e+03 1.6237960447e+03 0.0000000000e+00 0.0000e+00 -1.0000e+00
<mgrwt>
<rscale>  0 0.16602614E+04</rscale>
<asrwt>0</asrwt>
<pdfrwt beam="1">  1        2 0.33845719E+00 0.16602614E+04</pdfrwt>
<pdfrwt beam="2">  1       -2 0.48190620E-01 0.16602614E+04</pdfrwt>
<totfact> 0.25102958E+01</totfact>
</mgrwt>
<rwgt>
<wgt id='morphing_basis_vector_1'> +1.6527825e-04 </wgt>
<wgt id='morphing_basis_vector_2'> +1.1174549e-04 </wgt>
<wgt id='morphing_basis_vector_3'> +1.7390563e-04 </wgt>
<wgt id='morphing_basis_vector_4'> +1.1547831e-04 </wgt>
<wgt id='morphing_basis_vector_5'> +1.8746621e-04 </wgt>
</rwgt>
</event>
<event>
 4      1 +1.5130300e-07 1.76518600e+03 7.81860800e-03 8.17547300e-02
        2 -1    0    0  501    0 +0.0000000000e+00 +0.0000000000e+00 +2.5386872350e+03 2.5386872350e+03 0.0000000000e+00 0.0000e+00 -1.0000e+00
       -2 -1    0    0    0  501 -0.0000000000e+00 -0.0000000000e+00 -3.0683999338e+02 3.0683999338e+02 0.0000000000e+00 0.0000e+00 1.0000e+00
      -13  1    1    2    0    0 -8.6174431359e+02 +3.4914305325e+00 +8.0855737867e+02 1.1816854432e+03 0.0000000000e+00 0.0000e+00 1.0000e+00
       13  1    1    2    0    0 +8.6174431359e+02 -3.4914305325e+00 +1.4232898629e+03 1.6638417852e+03 0.0000000000e+00 0.0000e+00 -1.0000e+00
<mgrwt>
<rscale>  0 0.17651864E+04</rscale>
<asrwt>0</asrwt>
<pdfrwt beam="1">  1        2 0.39056725E+00 0.17651864E+04</pdfrwt>
<pdfrwt beam="2">  1       -2 0.47206155E-01 0.17651864E+04</pdfrwt>
<totfact> 0.16416225E+01</totfact>
</mgrwt>
<rwgt>
<wgt id='morphing_basis_vector_1'> +2.1153386e-04 </wgt>
<wgt id='morphing_basis_vector_2'> +1.4756311e-04 </wgt>
<wgt id='morphing_basis_vector_3'> +2.2457323e-04 </wgt>
<wgt id='morphing_basis_vector_4'> +1.4510695e-04 </wgt>
<wgt id='morphing_basis_vector_5'> +2.4090808e-04 </wgt>
</rwgt>
</event>
<event>
 4      1 +1.5130300e-07 1.83118500e+03 7.81860800e-03 8.14463800e-02
        2 -1    0    0  501    0 +0.0000000000e+00 +0.0000000000e+00 +5.0954753416e+02 5.0954753416e+02 0.0000000000e+00 0.0000e+00 -1.0000e+00
       -2 -1    0    0    0  501 -0.0000000000e+00 -0.0000000000e+00 -1.6452042870e+03 1.6452042870e+03 0.0000000000e+00 0.0000e+00 1.0000e+00
      -13  1    1    2    0    0 +1.3155766407e+02 -3.1885764659e+02 -1.5658265213e+03 1.6033684269e+03 0.0000000000e+00 0.0000e+00 1.0000e+00
       13  1    1    2    0    0 -1.3155766407e+02 +3.1885764659e+02 +4.3016976843e+02 5.5138339423e+02 0.0000000000e+00 0.0000e+00 -1.0000e+00
<mgrwt>
<rscale>  0 0.18311852E+04</rscale>
<asrwt>0</asrwt>
<pdfrwt beam="1">  1        2 0.78391928E-01 0.18311852E+04</pdfrwt>
<pdfrwt beam="2">  1       -2 0.25310835E+00 0.18311852E+04</pdfrwt>
<totfact> 0.34283319E+00</totfact>
</mgrwt>
<rwgt>
<wgt id='morphing_basis_vector_1'> +2.4024372e-04 </wgt>
<wgt id='morphing_basis_vector_2'> +1.5917552e-04 </wgt>
<wgt id='morphing_basis_vector_3'> +2.5458830e-04 </wgt>
<wgt id='morphing_basis_vector_4'> +1.7619537e-04 </wgt>
<wgt id='morphing_basis_vector_5'> +2.8062028e-04 </wgt>
</rwgt>
</event>
<event>
 4      1 +1.5130300e-07 1.83382700e+03 7.81860800e-03 8.14343200e-02
        2 -1    0    0  501    0 +0.0000000000e+00 +0.0000000000e+00 +4.0232400731e+03 4.0232400731e+03 0.0000000000e+00 0.0000e+00 1.0000e+00
       -2 -1    0    0    0  501 -0.0000000000e+00 -0.0000000000e+00 -2.0896842090e+02 2.0896842090e+02 0.0000000000e+00 0.0000e+00 -1.0000e+00
      -13  1    1    2    0    0 +2.5324869287e+02 +8.2281548515e+02 +1.1788987369e+03 1.4597816463e+03 0.0000000000e+00 0.0000e+00 -1.0000e+00
       13  1    1    2    0    0 -2.5324869287e+02 -8.2281548515e+02 +2.6353729154e+03 2.7724268477e+03 0.0000000000e+00 0.0000e+00 1.0000e+00
<mgrwt>
<rscale>  0 0.18338267E+04</rscale>
<asrwt>0</asrwt>
<pdfrwt beam="1">  1        2 0.61895995E+00 0.18338267E+04</pdfrwt>
<pdfrwt beam="2">  1       -2 0.32148991E-01 0.18338267E+04</pdfrwt>
<totfact> 0.30426996E+00</totfact>
</mgrwt>
<rwgt>
<wgt id='morphing_basis_vector_1'> +2.4385637e-04 </wgt>
<wgt id='morphing_basis_vector_2'> +1.6677988e-04 </wgt>
<wgt id='morphing_basis_vector_3'> +2.5926058e-04 </wgt>
<wgt id='morphing_basis_vector_4'> +1.7281701e-04 </wgt>
<wgt id='morphing_basis_vector_5'> +2.8193842e-04 </wgt>
</rwgt>
</event>
<event>
 4      1 +1.5130300e-07 1.60581000e+03 7.81860800e-03 8.25599800e-02
        2 -1    0    0  501    0 +0.0000000000e+00 +0.0000000000e+00 +1.5429888184e+03 1.5429888184e+03 0.0000000000e+00 0.0000e+00 -1.0000e+00
       -2 -1    0    0    0  501 -0.0000000000e+00 -0.0000000000e+00 -4.1779704754e+02 4.1779704754e+02 0.0000000000e+00 0.0000e+00 1.0000e+00
      -13  1    1    2    0    0 +3.7830705130e+02 -4.7205434201e+02 +1.2072224573e+03 1.3503101823e+03 0.0000000000e+00 0.0000e+00 1.0000e+00
       13  1    1    2    0    0 -3.7830705130e+02 +4.7205434201e+02 -8.2030686439e+01 6.1047568370e+02 0.0000000000e+00 0.0000e+00 -1.0000e+00
<mgrwt>
<rscale>  0 0.16058097E+04</rscale>
<asrwt>0</asrwt>
<pdfrwt beam="1">  1        2 0.23738289E+00 0.16058097E+04</pdfrwt>
<pdfrwt beam="2">  1       -2 0.64276470E-01 0.16058097E+04</pdfrwt>
<totfact> 0.32921758E+01</totfact>
</mgrwt>
<rwgt>
<wgt id='morphing_basis_vector_1'> +1.8240022e-04 </wgt>
<wgt id='morphing_basis_vector_2'> +2.0859573e-04 </wgt>
<wgt id='morphing_basis_vector_3'> +2.0246980e-04 </wgt>
<wgt id='morphing_basis_vector_4'> +2.9970563e-05 </wgt>
<wgt id='morphing_basis_vector_5'> +1.5804776e-04 </wgt>
</rwgt>
</event>
<event>
 4      1 +1.5130300e-07 1.58394300e+03 7.81860800e-03 8.26779300e-02
        2 -1    0    0  501    0 +0.0000000000e+00 +0.0000000000e+00 +1.6707190749e+03 1.6707190749e+03 0.0000000000e+00 0.0000e+00 1.0000e+00
       -2 -1    0    0    0  501 -0.0000000000e+00 -0.0000000000e+00 -3.7541870638e+02 3.7541870638e+02 0.0000000000e+00 0.0000e+00 -1.0000e+00
      -13  1    1    2    0    0 -3.3706202753e+02 -8.4663738358e+01 +1.5669547042e+03 1.6050314028e+03 0.0000000000e+00 0.0000e+00 1.0000e+00
       13  1    1    2    0    0 +3.3706202753e+02 +8.4663738358e+01 -2.7165433571e+02 4.4110637845e+02 0.0000000000e+00 0.0000e+00 -1.0000e+00
<mgrwt>
<rscale>  0 0.15839434E+04</rscale>
<asrwt>0</asrwt>
<pdfrwt beam="1">  1        2 0.25703370E+00 0.15839434E+04</pdfrwt>
<pdfrwt beam="2">  1       -2 0.57756725E-01 0.15839434E+04</pdfrwt>
<totfact> 0.34900686E+01</totfact>
</mgrwt>
<rwgt>
<wgt id='morphing_basis_vector_1'> +1.8584423e-04 </wgt>
<wgt id='morphing_basis_vector_2'> +2.3609335e-04 </wgt>
<wgt id='morphing_basis_vector_3'> +2.0878183e-04 </wgt>
<wgt id='morphing_basis_vector_4'> +3.9322095e-06 </wgt>
<wgt id='morphing_basis_vector_5'> +1.4753147e-04 </wgt>
</rwgt>
</event>
<event>
 4      1 +1.5130300e-07 1.60398600e+03 7.81860800e-03 8.25697400e-02
        2 -1    0    0  501    0 +0.0000000000e+00 +0.0000000000e+00 +8.7970270525e+02 8.7970270525e+02 0.0000000000e+00 0.0000e+00 1.0000e+00
       -2 -1    0    0    0  501 -0.0000000000e+00 -0.0000000000e+00 -7.3114818982e+02 7.3114818982e+02 0.0000000000e+00 0.0000e+00 -1.0000e+00
      -13  1    1    2    0    0 +3.7311065385e+02 -1.5732874560e+02 -6.2094919874e+02 7.4131086706e+02 0.0000000000e+00 0.0000e+00 -1.0000e+00
       13  1    1    2    0    0 -3.7311065385e+02 +1.5732874560e+02 +7.6950371417e+02 8.6954002802e+02 0.0000000000e+00 0.0000e+00 1.0000e+00
<mgrwt>
<rscale>  0 0.16039863E+04</rscale>
<asrwt>0</asrwt>
<pdfrwt beam="1">  1        2 0.13533888E+00 0.16039863E+04</pdfrwt>
<pdfrwt beam="2">  1       -2 0.11248434E+00 0.16039863E+04</pdfrwt>
<totfact> 0.22462133E+01</totfact>
</mgrwt>
<rwgt>
<wgt id='morphing_basis_vector_1'> +1.4351452e-04 </wgt>
<wgt id='morphing_basis_vector_2'> +9.4361137e-05 </wgt>
<wgt id='morphing_basis_vector_3'> +1.5010372e-04 </wgt>
<wgt id='morphing_basis_vector_4'> +1.0222127e-04 </wgt>
<wgt id='morphing_basis_vector_5'> +1.6277936e-04 </wgt>
</rwgt>
</event>
<event>
 4      1 +1.5130300e-07 1.71667600e+03 7.81860800e-03 8.19903000e-02
        2 -1    0    0  501    0 +0.0000000000e+00 +0.0000000000e+00 +9.2548786321e+02 9.2548786321e+02 0.0000000000e+00 0.0000e+00 -1.0000e+00
       -2 -1    0    0    0  501 -0.0000000000e+00 -0.0000000000e+00 -7.9606046436e+02 7.9606046436e+02 0.0000000000e+00 0.0000e+00 1.0000e+00
      -13  1    1    2    0    0 +5.0559191758e+02 -2.3016013347e+02 -5.9147311467e+02 8.1144150716e+02 0.0000000000e+00 0.0000e+00 1.0000e+00
       13  1    1    2    0    0 -5.0559191758e+02 +2.3016013347e+02 +7.2090051352e+02 9.1010682041e+02 0.0000000000e+00 0.0000e+00 -1.0000e+00
<mgrwt>
<rscale>  0 0.17166762E+04</rscale>
<asrwt>0</asrwt>
<pdfrwt beam="1">  1        2 0.14238275E+00 0.17166762E+04</pdfrwt>
<pdfrwt beam="2">  1       -2 0.12247084E+00 0.17166762E+04</pdfrwt>
<totfact> 0.16681870E+01</totfact>
</mgrwt>
<rwgt>
<wgt id='morphing_basis_vector_1'> +1.8691273e-04 </wgt>
<wgt id='morphing_basis_vector_2'> +1.2366670e-04 </wgt>
<wgt id='morphing_basis_vector_3'> +1.9692985e-04 </wgt>
<wgt id='morphing_basis_vector_4'> +1.3497267e-04 </wgt>
<wgt id='morphing_basis_vector_5'> +2.1528326e-04 </wgt>
</rwgt>
</event>
<event>
 4      1 +1.5130300e-07 1.68853300e+03 7.81860800e-03 8.21306500e-02
        2 -1    0    0  501    0 +0.0000000000e+00 +0.0000000000e+00 +2.3094501217e+03 2.3094501217e+03 0.0000000000e+00 0.0000e+00 -1.0000e+00
       -2 -1    0    0    0  501 -0.0000000000e+00 -0.0000000000e+00 -3.0863890492e+02 3.0863890492e+02 0.0000000000e+00 0.0000e+00 1.0000e+00
      -13  1    1    2    0    0 +6.4859832458e+02 +2.7992970801e+02 +2.8356349959e+02 7.6121526941e+02 0.0000000000e+00 0.0000e+00 1.0000e+00
       13  1    1    2    0    0 -6.4859832458e+02 -2.7992970801e+02 +1.7172477172e+03 1.8568737572e+03 0.0000000000e+00 0.0000e+00 -1.0000e+00
<mgrwt>
<rscale>  0 0.16885333E+04</rscale>
<asrwt>0</asrwt>
<pdfrwt beam="1">  1        2 0.35530001E+00 0.16885333E+04</pdfrwt>
<pdfrwt beam="2">  1       -2 0.47482910E-01 0.16885333E+04</pdfrwt>
<totfact> 0.22293421E+01</totfact>
</mgrwt>
<rwgt>
<wgt id='morphing_basis_vector_1'> +1.7574532e-04 </wgt>
<wgt id='morphing_basis_vector_2'> +1.1724655e-04 </wgt>
<wgt id='morphing_basis_vector_3'> +1.8501064e-04 </wgt>
<wgt id='morphing_basis_vector_4'> +1.2520531e-04 </wgt>
<wgt id='morphing_basis_vector_5'> +2.0106688e-04 </wgt>
</rwgt>
</event>
<event>
 4      1 +1.5130300e-07 1.72084400e+03 7.81860800e-03 8.19697500e-02
        2 -1    0    0  501    0 +0.0000000000e+00 +0.0000000000e+00 +6.2406935269e+02 6.2406935269e+02 0.0000000000e+00 0.0000e+00 1.0000e+00
       -2 -1    0    0    0  501 -0.0000000000e+00 -0.0000000000e+00 -1.1862884351e+03 1.1862884351e+03 0.0000000000e+00 0.0000e+00 -1.0000e+00
      -13  1    1    2    0    0 +2.0533516646e+02 -1.1230242165e+02 -1.1521593898e+03 1.1756894250e+03 0.0000000000e+00 0.0000e+00 -1.0000e+00
       13  1    1    2    0    0 -2.0533516646e+02 +1.1230242165e+02 +5.8994030738e+02 6.3466836282e+02 0.0000000000e+00 0.0000e+00 1.0000e+00
<mgrwt>
<rscale>  0 0.17208443E+04</rscale>
<asrwt>0</asrwt>
<pdfrwt beam="1">  1        2 0.96010670E-01 0.17208443E+04</pdfrwt>
<pdfrwt beam="2">  1       -2 0.18250591E+00 0.17208443E+04</pdfrwt>
<totfact> 0.87506347E+00</totfact>
</mgrwt>
<rwgt>
<wgt id='morphing_basis_vector_1'> +1.8854926e-04 </wgt>
<wgt id='morphing_basis_vector_2'> +1.2445488e-04 </wgt>
<wgt id='morphing_basis_vector_3'> +1.9865623e-04 </wgt>
<wgt id='morphing_basis_vector_4'> +1.3658554e-04 </wgt>
<wgt id='morphing_basis_vector_5'> +2.1745982e-04 </wgt>
</rwgt>
</event>
<event>
 4      1 +1.5130300e-07 1.81045700e+03 7.81860800e-03 8.15417600e-02
        2 -1    0    0  501    0 +0.0000000000e+00 +0.0000000000e+00 +6.2701562072e+02 6.2701562072e+02 0.0000000000e+00 0.0000e+00 -1.0000e+00
       -2 -1    0    0    0  501 -0.0000000000e+00 -0.0000000000e+00 -1.3068872385e+03 1.3068872385e+03 0.0000000000e+00 0.0000e+00 1.0000e+00
      -13  1    1    2    0    0 -4.7897124040e+02 -1.6390794733e+02 -1.1415439304e+03 1.2487601088e+03 0.0000000000e+00 0.0000e+00 1.0000e+00
       13  1    1    2    0    0 +4.7897124040e+02 +1.6390794733e+02 +4.6167231256e+02 6.8514275046e+02 0.0000000000e+00 0.0000e+00 -1.0000e+00
<mgrwt>
<rscale>  0 0.18104571E+04</rscale>
<asrwt>0</asrwt>
<pdfrwt beam="1">  1        2 0.96463942E-01 0.18104571E+04</pdfrwt>
<pdfrwt beam="2">  1       -2 0.20105957E+00 0.18104571E+04</pdfrwt>
<totfact> 0.62892485E+00</totfact>
</mgrwt>
<rwgt>
<wgt id='morphing_basis_vector_1'> +2.2987076e-04 </wgt>
<wgt id='morphing_basis_vector_2'> +1.5236251e-04 </wgt>
<wgt id='morphing_basis_vector_3'> +2.4337513e-04 </wgt>
<wgt id='morphing_basis_vector_4'> +1.6803935e-04 </wgt>
<wgt id='morphing_basis_vector_5'> +2.6782016e-04 </wgt>
</rwgt>
</event>
<event>
 4      1 +1.5130300e-07 1.85065200e+03 7.81860800e-03 8.13580000e-02
        2 -1    0    0  501    0 +0.0000000000e+00 +0.0000000000e+00 +1.5813769601e+03 1.5813769601e+03 0.0000000000e+00 0.0000e+00 -1.0000e+00
       -2 -1    0    0    0  501 -0.0000000000e+00 -0.0000000000e+00 -5.4144453265e+02 5.4144453265e+02 0.0000000000e+00 0.0000e+00 1.0000e+00
      -13  1    1    2    0    0 -4.0307115482e+02 -2.2695457439e+02 -3.9930131596e+02 6.1107796197e+02 0.0000000000e+00 0.0000e+00 1.0000e+00
       13  1    1    2    0    0 +4.0307115482e+02 +2.2695457439e+02 +1.4392337434e+03 1.5117435308e+03 0.0000000000e+00 0.0000e+00 -1.0000e+00
<mgrwt>
<rscale>  0 0.18506517E+04</rscale>
<asrwt>0</asrwt>
<pdfrwt beam="1">  1        2 0.24328876E+00 0.18506517E+04</pdfrwt>
<pdfrwt beam="2">  1       -2 0.83299160E-01 0.18506517E+04</pdfrwt>
<totfact> 0.17414734E+01</totfact>
</mgrwt>
<rwgt>
<wgt id='morphing_basis_vector_1'> +2.5040916e-04 </wgt>
<wgt id='morphing_basis_vector_2'> +1.6609232e-04 </wgt>
<wgt id='morphing_basis_vector_3'> +2.6561717e-04 </wgt>
<wgt id='morphing_basis_vector_4'> +1.8391374e-04 </wgt>
<wgt id='morphing_basis_vector_5'> +2.9303465e-04 </wgt>
</rwgt>
</event>
<event>
 4      1 +1.5130300e-07 1.74931700e+03 7.81860800e-03 8.18309400e-02
        2 -1    0    0  501    0 +0.0000000000e+00 +0.0000000000e+00 +1.4946130491e+03 1.4946130491e+03 0.0000000000e+00 0.0000e+00 -1.0000e+00
       -2 -1    0    0    0  501 -0.0000000000e+00 -0.0000000000e+00 -5.1185665234e+02 5.1185665234e+02 0.0000000000e+00 0.0000e+00 1.0000e+00
      -13  1    1    2    0    0 -5.5781207526e+02 -6.5620716252e+02 +6.6633066177e+02 1.0889254806e+03 0.0000000000e+00 0.0000e+00 1.0000e+00
       13  1    1    2    0    0 +5.5781207526e+02 +6.5620716252e+02 +3.1642573497e+02 9.1754422084e+02 0.0000000000e+00 0.0000e+00 -1.0000e+00
<mgrwt>
<rscale>  0 0.17493172E+04</rscale>
<asrwt>0</asrwt>
<pdfrwt beam="1">  1        2 0.22994047E+00 0.17493172E+04</pdfrwt>
<pdfrwt beam="2">  1       -2 0.78747178E-01 0.17493172E+04</pdfrwt>
<totfact> 0.22317019E+01</totfact>
</mgrwt>
<rwgt>
<wgt id='morphing_basis_vector_1'> +2.1446084e-04 </wgt>
<wgt id='morphing_basis_vector_2'> +1.7279513e-04 </wgt>
<wgt id='morphing_basis_vector_3'> +2.3091943e-04 </wgt>
<wgt id='morphing_basis_vector_4'> +1.1996486e-04 </wgt>
<wgt id='morphing_basis_vector_5'> +2.3061058e-04 </wgt>
</rwgt>
</event>
<event>
 4      1 +1.5130300e-07 1.55472100e+03 7.81860800e-03 8.28386400e-02
        2 -1    0    0  501    0 +0.0000000000e+00 +0.0000000000e+00 +3.8140642166e+02 3.8140642166e+02 0.0000000000e+00 0.0000e+00 1.0000e+00
       -2 -1    0    0    0  501 -0.0000000000e+00 -0.0000000000e+00 -1.5843719974e+03 1.5843719974e+03 0.0000000000e+00 0.0000e+00 -1.0000e+00
      -13  1    1    2    0    0 -3.9892592885e+01 +7.5529401491e+02 -8.2847275268e+02 1.1217965813e+03 0.0000000000e+00 0.0000e+00 -1.0000e+00
       13  1    1    2    0    0 +3.9892592885e+01 -7.5529401491e+02 -3.7449282309e+02 8.4398183776e+02 0.0000000000e+00 0.0000e+00 1.0000e+00
<mgrwt>
<rscale>  0 0.15547214E+04</rscale>
<asrwt>0</asrwt>
<pdfrwt beam="1">  1        2 0.58677912E-01 0.15547214E+04</pdfrwt>
<pdfrwt beam="2">  1       -2 0.24374953E+00 0.15547214E+04</pdfrwt>
<totfact> 0.56592234E+00</totfact>
</mgrwt>
<rwgt>
<wgt id='morphing_basis_vector_1'> +1.2907945e-04 </wgt>
<wgt id='morphing_basis_vector_2'> +8.9077777e-05 </wgt>
<wgt id='morphing_basis_vector_3'> +1.3506918e-04 </wgt>
<wgt id='morphing_basis_vector_4'> +8.6306964e-05 </wgt>
<wgt id='morphing_basis_vector_5'> +1.4283021e-04 </wgt>
</rwgt>
</event>
<event>
 4      1 +1.5130300e-07 1.62607300e+03 7.81860800e-03 8.24524000e-02
        2 -1    0    0  501    0 +0.0000000000e+00 +0.0000000000e+00 +4.5007632948e+02 4.5007632948e+02 0.0000000000e+00 0.0000e+00 1.0000e+00
       -2 -1    0    0    0  501 -0.0000000000e+00 -0.0000000000e+00 -1.4687027707e+03 1.4687027707e+03 0.0000000000e+00 0.0000e+00 -1.0000e+00
      -13  1    1    2    0    0 -7.1345309069e+02 -1.8419438900e+02 -9.1480603725e+02 1.1746544051e+03 0.0000000000e+00 0.0000e+00 -1.0000e+00
       13  1    1    2    0    0 +7.1345309069e+02 +1.8419438900e+02 -1.0382040393e+02 7.4412469507e+02 0.0000000000e+00 0.0000e+00 1.0000e+00
<mgrwt>
<rscale>  0 0.16260730E+04</rscale>
<asrwt>0</asrwt>
<pdfrwt beam="1">  1        2 0.69242513E-01 0.16260730E+04</pdfrwt>
<pdfrwt beam="2">  1       -2 0.22595427E+00 0.16260730E+04</pdfrwt>
<totfact> 0.62129385E+00</totfact>
</mgrwt>
<rwgt>
<wgt id='morphing_basis_vector_1'> +1.5228616e-04 </wgt>
<wgt id='morphing_basis_vector_2'> +1.0243716e-04 </wgt>
<wgt id='morphing_basis_vector_3'> +1.5981665e-04 </wgt>
<wgt id='morphing_basis_vector_4'> +1.0632264e-04 </wgt>
<wgt id='morphing_basis_vector_5'> +1.7208800e-04 </wgt>
</rwgt>
</event>
<event>
 4      1 +1.5130300e-07 1.56757600e+03 7.81860800e-03 8.27675000e-02
        2 -1    0    0  501    0 +0.0000000000e+00 +0.0000000000e+00 +1.1802171054e+03 1.1802171054e+03 0.0000000000e+00 0.0000e+00 -1.0000e+00
       -2 -1    0    0    0  501 -0.0000000000e+00 -0.0000000000e+00 -5.2051743228e+02 5.2051743228e+02 0.0000000000e+00 0.0000e+00 1.0000e+00
      -13  1    1    2    0    0 -2.2729818437e+02 -5.1342998966e+02 -2.6345644389e+02 6.2022908407e+02 0.0000000000e+00 0.0000e+00 1.0000e+00
       13  1    1    2    0    0 +2.2729818437e+02 +5.1342998966e+02 +9.2315611700e+02 1.0805054536e+03 0.0000000000e+00 0.0000e+00 -1.0000e+00
<mgrwt>
<rscale>  0 0.15675759E+04</rscale>
<asrwt>0</asrwt>
<pdfrwt beam="1">  1        2 0.18157186E+00 0.15675759E+04</pdfrwt>
<pdfrwt beam="2">  1       -2 0.80079605E-01 0.15675759E+04</pdfrwt>
<totfact> 0.32983594E+01</totfact>
</mgrwt>
<rwgt>
<wgt id='morphing_basis_vector_1'> +1.3144178e-04 </wgt>
<wgt id='morphing_basis_vector_2'> +8.6604825e-05 </wgt>
<wgt id='morphing_basis_vector_3'> +1.3715628e-04 </wgt>
<wgt id='morphing_basis_vector_4'> +9.2722193e-05 </wgt>
<wgt id='morphing_basis_vector_5'> +1.4803297e-04 </wgt>
</rwgt>
</event>
<event>
 4      1 +1.5130300e-07 1.81788700e+03 7.81860800e-03 8.15074200e-02
        2 -1    0    0  501    0 +0.0000000000e+00 +0.0000000000e+00 +2.4649066954e+03 2.4649066954e+03 0.0000000000e+00 0.0000e+00 1.0000e+00
       -2 -1    0    0    0  501 -0.0000000000e+00 -0.0000000000e+00 -3.3517613892e+02 3.3517613892e+02 0.0000000000e+00 0.0000e+00 -1.0000e+00
      -13  1    1    2    0    0 -5.4240605262e+01 +4.7531128313e+02 -1.2557009437e+02 4.9460156463e+02 0.0000000000e+00 0.0000e+00 -1.0000e+00
       13  1    1    2    0    0 +5.4240605262e+01 -4.7531128313e+02 +2.2553006508e+03 2.3054812697e+03 0.0000000000e+00 0.0000e+00 1.0000e+00
<mgrwt>
<rscale>  0 0.18178866E+04</rscale>
<asrwt>0</asrwt>
<pdfrwt beam="1">  1        2 0.37921640E+00 0.18178866E+04</pdfrwt>
<pdfrwt beam="2">  1       -2 0.51565562E-01 0.18178866E+04</pdfrwt>
<totfact> 0.15206748E+01</totfact>
</mgrwt>
<rwgt>
<wgt id='morphing_basis_vector_1'> +2.3355305e-04 </wgt>
<wgt id='morphing_basis_vector_2'> +1.5479088e-04 </wgt>
<wgt id='morphing_basis_vector_3'> +2.4735657e-04 </wgt>
<wgt id='morphing_basis_vector_4'> +1.7092158e-04 </wgt>
<wgt id='morphing_basis_vector_5'> +2.7235637e-04 </wgt>
</rwgt>
</event>
<event>
 4      1 +1.5130300e-07 1.59086500e+03 7.81860800e-03 8.26403800e-02
        2 -1    0    0  501    0 +0.0000000000e+00 +0.0000000000e+00 +2.1456086775e+03 2.1456086775e+03 0.0000000000e+00 0.0000e+00 1.0000e+00
       -2 -1    0    0    0  501 -0.0000000000e+00 -0.0000000000e+00 -2.9488746661e+02 2.9488746661e+02 0.0000000000e+00 0.0000e+00 -1.0000e+00
      -13  1    1    2    0    0 -4.7151946900e+02 -8.5620841665e+01 +1.8992845034e+03 1.9588116711e+03 0.0000000000e+00 0.0000e+00 1.0000e+00
       13  1    1    2    0    0 +4.7151946900e+02 +8.5620841665e+01 -4.8563292459e+01 4.8168447302e+02 0.0000000000e+00 0.0000e+00 -1.0000e+00
<mgrwt>
<rscale>  0 0.15908653E+04</rscale>
<asrwt>0</asrwt>
<pdfrwt beam="1">  1        2 0.33009363E+00 0.15908653E+04</pdfrwt>
<pdfrwt beam="2">  1       -2 0.45367304E-01 0.15908653E+04</pdfrwt>
<totfact> 0.30480498E+01</totfact>
</mgrwt>
<rwgt>
<wgt id='morphing_basis_vector_1'> +1.8501322e-04 </wgt>
<wgt id='morphing_basis_vector_2'> +2.2823199e-04 </wgt>
<wgt id='morphing_basis_vector_3'> +2.0716104e-04 </wgt>
<wgt id='morphing_basis_vector_4'> +1.1578770e-05 </wgt>
<wgt id='morphing_basis_vector_5'> +1.5077535e-04 </wgt>
</rwgt>
</event>
<event>
 4      1 +1.5130300e-07 1.56853300e+03 7.81860800e-03 8.27622400e-02
        2 -1    0    0  501    0 +0.0000000000e+00 +0.0000000000e+00 +7.1261481332e+02 7.1261481332e+02 0.0000000000e+00 0.0000e+00 -1.0000e+00
       -2 -1    0    0    0  501 -0.0000000000e+00 -0.0000000000e+00 -8.6312205582e+02 8.6312205582e+02 0.0000000000e+00 0.0000e+00 1.0000e+00
      -13  1    1    2    0    0 +5.6208922217e+02 -3.8036018772e+02 -4.7006686681e+02 8.2557920599e+02 0.0000000000e+00 0.0000e+00 1.0000e+00
       13  1    1    2    0    0 -5.6208922217e+02 +3.8036018772e+02 +3.1955962431e+02 7.5015766315e+02 0.0000000000e+00 0.0000e+00 -1.0000e+00
<mgrwt>
<rscale>  0 0.15685325E+04</rscale>
<asrwt>0</asrwt>
<pdfrwt beam="1">  1        2 0.10963305E+00 0.15685325E+04</pdfrwt>
<pdfrwt beam="2">  1       -2 0.13278801E+00 0.15685325E+04</pdfrwt>
<totfact> 0.19128029E+01</totfact>
</mgrwt>
<rwgt>
<wgt id='morphing_basis_vector_1'> +1.3216438e-04 </wgt>
<wgt id='morphing_basis_vector_2'> +8.8039633e-05 </wgt>
<wgt id='morphing_basis_vector_3'> +1.3804116e-04 </wgt>
<wgt id='morphing_basis_vector_4'> +9.2177616e-05 </wgt>
<wgt id='morphing_basis_vector_5'> +1.4834819e-04 </wgt>
</rwgt>
</event>
<event>
 4      1 +1.5130300e-07 1.78410500e+03 7.81860800e-03 8.16649500e-02
        2 -1    0    0  501    0 +0.0000000000e+00 +0.0000000000e+00 +1.3337298438e+03 1.3337298438e+03 0.0000000000e+00 0.0000e+00 -1.0000e+00
       -2 -1    0    0    0  501 -0.0000000000e+00 -0.0000000000e+00 -5.9664080669e+02 5.9664080669e+02 0.0000000000e+00 0.0000e+00 1.0000e+00
      -13  1    1    2    0    0 +7.8649225591e+02 -8.1505692594e+01 -7.8282097832e+01 7.9456990464e+02 0.0000000000e+00 0.0000e+00 1.0000e+00
       13  1    1    2    0    0 -7.8649225591e+02 +8.1505692594e+01 +8.1537113491e+02 1.1358007458e+03 0.0000000000e+00 0.0000e+00 -1.0000e+00
<mgrwt>
<rscale>  0 0.17841050E+04</rscale>
<asrwt>0</asrwt>
<pdfrwt beam="1">  1        2 0.20518921E+00 0.17841050E+04</pdfrwt>
<pdfrwt beam="2">  1       -2 0.91790894E-01 0.17841050E+04</pdfrwt>
<totfact> 0.19267296E+01</totfact>
</mgrwt>
<rwgt>
<wgt id='morphing_basis_vector_1'> +2.1818365e-04 </wgt>
<wgt id='morphing_basis_vector_2'> +1.4700936e-04 </wgt>
<wgt id='morphing_basis_vector_3'> +2.3107540e-04 </wgt>
<wgt id='morphing_basis_vector_4'> +1.5611865e-04 </wgt>
<wgt id='morphing_basis_vector_5'> +2.5202866e-04 </wgt>
</rwgt>
</event>
<event>
 4      1 +1.5130300e-07 1.57908500e+03 7.81860800e-03 8.27044000e-02
        2 -1    0    0  501    0 +0.0000000000e+00 +0.0000000000e+00 +1.3989819911e+03 1.3989819911e+03 0.0000000000e+00 0.0000e+00 -1.0000e+00
       -2 -1    0    0    0  501 -0.0000000000e+00 -0.0000000000e+00 -4.4559370336e+02 4.4559370336e+02 0.0000000000e+00 0.0000e+00 1.0000e+00
      -13  1    1    2    0    0 +1.7543624336e+02 +6.8436284089e+02 +6.4943587915e+01 7.0947025525e+02 0.0000000000e+00 0.0000e+00 1.0000e+00
       13  1    1    2    0    0 -1.7543624336e+02 -6.8436284089e+02 +8.8844469978e+02 1.1351054392e+03 0.0000000000e+00 0.0000e+00 -1.0000e+00
<mgrwt>
<rscale>  0 0.15790853E+04</rscale>
<asrwt>0</asrwt>
<pdfrwt beam="1">  1        2 0.21522800E+00 0.15790853E+04</pdfrwt>
<pdfrwt beam="2">  1       -2 0.68552878E-01 0.15790853E+04</pdfrwt>
<totfact> 0.34695638E+01</totfact>
</mgrwt>
<rwgt>
<wgt id='morphing_basis_vector_1'> +1.3583090e-04 </wgt>
<wgt id='morphing_basis_vector_2'> +9.0965920e-05 </wgt>
<wgt id='morphing_basis_vector_3'> +1.4203951e-04 </wgt>
<wgt id='morphing_basis_vector_4'> +9.4401933e-05 </wgt>
<wgt id='morphing_basis_vector_5'> +1.5248831e-04 </wgt>
</rwgt>
</event>
<event>
 4      1 +1.5130300e-07 1.85743200e+03 7.81860800e-03 8.13274800e-02
        2 -1    0    0  501    0 +0.0000000000e+00 +0.0000000000e+00 +2.7777847868e+03 2.7777847868e+03 0.0000000000e+00 0.0000e+00 -1.0000e+00
       -2 -1    0    0    0  501 -0.0000000000e+00 -0.0000000000e+00 -3.1050391350e+02 3.1050391350e+02 0.0000000000e+00 0.0000e+00 1.0000e+00
      -13  1    1    2    0    0 +1.7622636930e+01 +8.5345129752e+02 +6.2540594354e+02 1.0582165510e+03 0.0000000000e+00 0.0000e+00 1.0000e+00
       13  1    1    2    0    0 -1.7622636930e+01 -8.5345129752e+02 +1.8418749298e+03 2.0300721493e+03 0.0000000000e+00 0.0000e+00 -1.0000e+00
<mgrwt>
<rscale>  0 0.18574316E+04</rscale>
<asrwt>0</asrwt>
<pdfrwt beam="1">  1        2 0.42735149E+00 0.18574316E+04</pdfrwt>
<pdfrwt beam="2">  1       -2 0.47769835E-01 0.18574316E+04</pdfrwt>
<totfact> 0.11370612E+01</totfact>
</mgrwt>
<rwgt>
<wgt id='morphing_basis_vector_1'> +2.5586527e-04 </wgt>
<wgt id='morphing_basis_vector_2'> +1.7401055e-04 </wgt>
<wgt id='morphing_basis_vector_3'> +2.7216420e-04 </wgt>
<wgt id='morphing_basis_vector_4'> +1.8304590e-04 </wgt>
<wgt id='morphing_basis_vector_5'> +2.9717113e-04 </wgt>
</rwgt>
</event>
<event>
 4      1 +1.5130300e-07 1.67818400e+03 7.81860800e-03 8.21829700e-02
        2 -1    0    0  501    0 +0.0000000000e+00 +0.0000000000e+00 +2.0242186005e+03 2.0242186005e+03 0.0000000000e+00 0.0000e+00 1.0000e+00
       -2 -1    0    0    0  501 -0.0000000000e+00 -0.0000000000e+00 -3.4782557503e+02 3.4782557503e+02 0.0000000000e+00 0.0000e+00 -1.0000e+00
      -13  1    1    2    0    0 +2.6056730763e+02 -3.4306486723e+02 -1.7957878389e+02 4.6673050527e+02 0.0000000000e+00 0.0000e+00 -1.0000e+00
       13  1    1    2    0    0 -2.6056730763e+02 +3.4306486723e+02 +1.8559718094e+03 1.9053136703e+03 0.0000000000e+00 0.0000e+00 1.0000e+00
<mgrwt>
<rscale>  0 0.16781835E+04</rscale>
<asrwt>0</asrwt>
<pdfrwt beam="1">  1        2 0.31141824E+00 0.16781835E+04</pdfrwt>
<pdfrwt beam="2">  1       -2 0.53511628E-01 0.16781835E+04</pdfrwt>
<totfact> 0.25644168E+01</totfact>
</mgrwt>
<rwgt>
<wgt id='morphing_basis_vector_1'> +1.7104995e-04 </wgt>
<wgt id='morphing_basis_vector_2'> +1.1281335e-04 </wgt>
<wgt id='morphing_basis_vector_3'> +1.7977657e-04 </wgt>
<wgt id='morphing_basis_vector_4'> +1.2312884e-04 </wgt>
<wgt id='morphing_basis_vector_5'> +1.9612409e-04 </wgt>
</rwgt>
</event>
<event>
 4      1 +1.5130300e-07 1.85788900e+03 7.81860800e-03 8.13254200e-02
        2 -1    0    0  501    0 +0.0000000000e+00 +0.0000000000e+00 +9.2050459686e+02 9.2050459686e+02 0.0000000000e+00 0.0000e+00 -1.0000e+00
       -2 -1    0    0    0  501 -0.0000000000e+00 -0.0000000000e+00 -9.3746201621e+02 9.3746201621e+02 0.0000000000e+00 0.0000e+00 1.0000e+00
      -13  1    1    2    0    0 +2.7105090412e+02 -4.3101615693e+01 -8.9599060635e+02 9.3708351205e+02 0.0000000000e+00 0.0000e+00 1.0000e+00
       13  1    1    2    0    0 -2.7105090412e+02 +4.3101615693e+01 +8.7903318699e+02 9.2088310101e+02 0.0000000000e+00 0.0000e+00 -1.0000e+00
<mgrwt>
<rscale>  0 0.18578892E+04</rscale>
<asrwt>0</asrwt>
<pdfrwt beam="1">  1        2 0.14161609E+00 0.18578892E+04</pdfrwt>
<pdfrwt beam="2">  1       -2 0.14422493E+00 0.18578892E+04</pdfrwt>
<totfact> 0.10666402E+01</totfact>
</mgrwt>
<rwgt>
<wgt id='morphing_basis_vector_1'> +2.5420877e-04 </wgt>
<wgt id='morphing_basis_vector_2'> +1.6853818e-04 </wgt>
<wgt id='morphing_basis_vector_3'> +2.6972008e-04 </wgt>
<wgt id='morphing_basis_vector_4'> +1.8696749e-04 </wgt>
<wgt id='morphing_basis_vector_5'> +2.9776228e-04 </wgt>
</rwgt>
</event>
<event>
 4      1 +1.5130300e-07 1.85341100e+03 7.81860800e-03 8.13455600e-02
        2 -1    0    0  501    0 +0.0000000000e+00 +0.0000000000e+00 +2.7847991544e+02 2.7847991544e+02 0.0000000000e+00 0.0000e+00 -1.0000e+00
       -2 -1    0    0    0  501 -0.0000000000e+00 -0.0000000000e+00 -3.0838240827e+03 3.0838240827e+03 0.0000000000e+00 0.0000e+00 1.0000e+00
      -13  1    1    2    0    0 -1.2368501735e+02 +6.8142811036e+02 -2.5197038271e+03 2.6131493699e+03 0.0000000000e+00 0.0000e+00 1.0000e+00
       13  1    1    2    0    0 +1.2368501735e+02 -6.8142811036e+02 -2.8564034018e+02 7.4915462826e+02 0.0000000000e+00 0.0000e+00 -1.0000e+00
<mgrwt>
<rscale>  0 0.18534110E+04</rscale>
<asrwt>0</asrwt>
<pdfrwt beam="1">  1        2 0.42843062E-01 0.18534110E+04</pdfrwt>
<pdfrwt beam="2">  1       -2 0.47443450E+00 0.18534110E+04</pdfrwt>
<totfact> 0.22304558E-01</totfact>
</mgrwt>
<rwgt>
<wgt id='morphing_basis_vector_1'> +2.5223108e-04 </wgt>
<wgt id='morphing_basis_vector_2'> +1.6814374e-04 </wgt>
<wgt id='morphing_basis_vector_3'> +2.6771479e-04 </wgt>
<wgt id='morphing_basis_vector_4'> +1.8433071e-04 </wgt>
<wgt id='morphing_basis_vector_5'> +2.9477253e-04 </wgt>
</rwgt>
</event>
<event>
 4      1 +1.5130300e-07 1.64490900e+03 7.81860800e-03 8.23538300e-02
        2 -1    0    0  501    0 +0.0000000000e+00 +0.0000000000e+00 +2.7682877066e+03 2.7682877066e+03 0.0000000000e+00 0.0000e+00 -1.0000e+00
       -2 -1    0    0    0  501 -0.0000000000e+00 -0.0000000000e+00 -2.4435002512e+02 2.4435002512e+02 0.0000000000e+00 0.0000e+00 1.0000e+00
      -13  1    1    2    0    0 -5.4037164499e+02 -3.3853786569e+02 +3.1061165600e+02 7.0928767229e+02 0.0000000000e+00 0.0000e+00 1.0000e+00
       13  1    1    2    0    0 +5.4037164499e+02 +3.3853786569e+02 +2.2133260255e+03 2.3033500594e+03 0.0000000000e+00 0.0000e+00 -1.0000e+00
<mgrwt>
<rscale>  0 0.16449087E+04</rscale>
<asrwt>0</asrwt>
<pdfrwt beam="1">  1        2 0.42589039E+00 0.16449087E+04</pdfrwt>
<pdfrwt beam="2">  1       -2 0.37592314E-01 0.16449087E+04</pdfrwt>
<totfact> 0.18503821E+01</totfact>
</mgrwt>
<rwgt>
<wgt id='morphing_basis_vector_1'> +1.5853621e-04 </wgt>
<wgt id='morphing_basis_vector_2'> +1.0508763e-04 </wgt>
<wgt id='morphing_basis_vector_3'> +1.6636496e-04 </wgt>
<wgt id='morphing_basis_vector_4'> +1.1284326e-04 </wgt>
<wgt id='morphing_basis_vector_5'> +1.8055699e-04 </wgt>
</rwgt>
</event>
<event>
 4      1 +1.5130300e-07 1.64566000e+03 7.81860800e-03 8.23499200e-02
        2 -1    0    0  501    0 +0.0000000000e+00 +0.0000000000e+00 +1.8408717915e+03 1.8408717915e+03 0.0000000000e+00 0.0000e+00 1.0000e+00
       -2 -1    0    0    0  501 -0.0000000000e+00 -0.0000000000e+00 -3.6778741081e+02 3.6778741081e+02 0.0000000000e+00 0.0000e+00 -1.0000e+00
      -13  1    1    2    0    0 -5.6336768743e+02 +5.7287871069e+02 +4.9843069635e+02 9.4551907832e+02 0.0000000000e+00 0.0000e+00 -1.0000e+00
       13  1    1    2    0    0 +5.6336768743e+02 -5.7287871069e+02 +9.7465368432e+02 1.2631401240e+03 0.0000000000e+00 0.0000e+00 1.0000e+00
<mgrwt>
<rscale>  0 0.16456603E+04</rscale>
<asrwt>0</asrwt>
<pdfrwt beam="1">  1        2 0.28321104E+00 0.16456603E+04</pdfrwt>
<pdfrwt beam="2">  1       -2 0.56582680E-01 0.16456603E+04</pdfrwt>
<totfact> 0.29110353E+01</totfact>
</mgrwt>
<rwgt>
<wgt id='morphing_basis_vector_1'> +1.6104384e-04 </wgt>
<wgt id='morphing_basis_vector_2'> +1.1189677e-04 </wgt>
<wgt id='morphing_basis_vector_3'> +1.6970728e-04 </wgt>
<wgt id='morphing_basis_vector_4'> +1.0879670e-04 </wgt>
<wgt id='morphing_basis_vector_5'> +1.8057336e-04 </wgt>
</rwgt>
</event>
<event>
 4      1 +1.5130300e-07 1.66576800e+03 7.81860800e-03 8.22462400e-02
        2 -1    0    0  501    0 +0.0000000000e+00 +0.0000000000e+00 +1.1574710997e+03 1.1574710997e+03 0.0000000000e+00 0.0000e+00 -1.0000e+00
       -2 -1    0    0    0  501 -0.0000000000e+00 -0.0000000000e+00 -5.9931998429e+02 5.9931998429e+02 0.0000000000e+00 0.0000e+00 1.0000e+00
      -13  1    1    2    0    0 +7.8107662840e+02 +5.5678164710e+01 -2.0180902672e+01 7.8331859820e+02 0.0000000000e+00 0.0000e+00 1.0000e+00
       13  1    1    2    0    0 -7.8107662840e+02 -5.5678164710e+01 +5.7833201807e+02 9.7347248579e+02 0.0000000000e+00 0.0000e+00 -1.0000e+00
<mgrwt>
<rscale>  0 0.16657678E+04</rscale>
<asrwt>0</asrwt>
<pdfrwt beam="1">  1        2 0.17807248E+00 0.16657678E+04</pdfrwt>
<pdfrwt beam="2">  1       -2 0.92203075E-01 0.16657678E+04</pdfrwt>
<totfact> 0.24363482E+01</totfact>
</mgrwt>
<rwgt>
<wgt id='morphing_basis_vector_1'> +1.6772887e-04 </wgt>
<wgt id='morphing_basis_vector_2'> +1.1414056e-04 </wgt>
<wgt id='morphing_basis_vector_3'> +1.7664641e-04 </wgt>
<wgt id='morphing_basis_vector_4'> +1.1646440e-04 </wgt>
<wgt id='morphing_basis_vector_5'> +1.8999392e-04 </wgt>
</rwgt>
</event>
<event>
 4      1 +1.5130300e-07 1.63158800e+03 7.81860800e-03 8.24234000e-02
        2 -1    0    0  501    0 +0.0000000000e+00 +0.0000000000e+00 +2.4392576484e+03 2.4392576484e+03 0.0000000000e+00 0.0000e+00 -1.0000e+00
       -2 -1    0    0    0  501 -0.0000000000e+00 -0.0000000000e+00 -2.7283687891e+02 2.7283687891e+02 0.0000000000e+00 0.0000e+00 1.0000e+00
      -13  1    1    2    0    0 +2.2560121675e+02 -7.7078439894e+02 +8.4512670243e+02 1.1658660480e+03 0.0000000000e+00 0.0000e+00 1.0000e+00
       13  1    1    2    0    0 -2.2560121675e+02 +7.7078439894e+02 +1.3212940671e+03 1.5462284794e+03 0.0000000000e+00 0.0000e+00 -1.0000e+00
<mgrwt>
<rscale>  0 0.16315875E+04</rscale>
<asrwt>0</asrwt>
<pdfrwt beam="1">  1        2 0.37527039E+00 0.16315875E+04</pdfrwt>
<pdfrwt beam="2">  1       -2 0.41974906E-01 0.16315875E+04</pdfrwt>
<totfact> 0.23829799E+01</totfact>
</mgrwt>
<rwgt>
<wgt id='morphing_basis_vector_1'> +1.5618863e-04 </wgt>
<wgt id='morphing_basis_vector_2'> +1.0943272e-04 </wgt>
<wgt id='morphing_basis_vector_3'> +1.6456032e-04 </wgt>
<wgt id='morphing_basis_vector_4'> +1.0420886e-04 </wgt>
<wgt id='morphing_basis_vector_5'> +1.7423312e-04 </wgt>
</rwgt>
</event>
<event>
 4      1 +1.5130300e-07 1.63188900e+03 7.81860800e-03 8.24218100e-02
        2 -1    0    0  501    0 +0.0000000000e+00 +0.0000000000e+00 +4.4645438795e+02 4.4645438795e+02 0.0000000000e+00 0.0000e+00 -1.0000e+00
       -2 -1    0    0    0  501 -0.0000000000e+00 -0.0000000000e+00 -1.4912291879e+03 1.4912291879e+03 0.0000000000e+00 0.0000e+00 1.0000e+00
      -13  1    1    2    0    0 +2.6883315133e+02 -2.8423645564e+02 -1.3725961093e+03 1.4272637126e+03 0.0000000000e+00 0.0000e+00 1.0000e+00
       13  1    1    2    0    0 -2.6883315133e+02 +2.8423645564e+02 +3.2782130935e+02 5.1041986328e+02 0.0000000000e+00 0.0000e+00 -1.0000e+00
<mgrwt>
<rscale>  0 0.16318895E+04</rscale>
<asrwt>0</asrwt>
<pdfrwt beam="1">  1        2 0.68685291E-01 0.16318895E+04</pdfrwt>
<pdfrwt beam="2">  1       -2 0.22941987E+00 0.16318895E+04</pdfrwt>
<totfact> 0.59240801E+00</totfact>
</mgrwt>
<rwgt>
<wgt id='morphing_basis_vector_1'> +1.5343382e-04 </wgt>
<wgt id='morphing_basis_vector_2'> +1.0098608e-04 </wgt>
<wgt id='morphing_basis_vector_3'> +1.6078199e-04 </wgt>
<wgt id='morphing_basis_vector_4'> +1.0976164e-04 </wgt>
<wgt id='morphing_basis_vector_5'> +1.7478137e-04 </wgt>
</rwgt>
</event>
<event>
 4      1 +1.5130300e-07 1.82890900e+03 7.81860800e-03 8.14567900e-02
        2 -1    0    0  501    0 +0.0000000000e+00 +0.0000000000e+00 +2.3742682547e+03 2.3742682547e+03 0.0000000000e+00 0.0000e+00 1.0000e+00
       -2 -1    0    0    0  501 -0.0000000000e+00 -0.0000000000e+00 -3.5220398727e+02 3.5220398727e+02 0.0000000000e+00 0.0000e+00 -1.0000e+00
      -13  1    1    2    0    0 -8.1870235180e+02 +3.8099894856e+02 +7.9606715968e+02 1.2038092301e+03 0.0000000000e+00 0.0000e+00 -1.0000e+00
       13  1    1    2    0    0 +8.1870235180e+02 -3.8099894856e+02 +1.2259971078e+03 1.5226630120e+03 0.0000000000e+00 0.0000e+00 1.0000e+00
<mgrwt>
<rscale>  0 0.18289087E+04</rscale>
<asrwt>0</asrwt>
<pdfrwt beam="1">  1        2 0.36527203E+00 0.18289087E+04</pdfrwt>
<pdfrwt beam="2">  1       -2 0.54185230E-01 0.18289087E+04</pdfrwt>
<totfact> 0.15561445E+01</totfact>
</mgrwt>
<rwgt>
<wgt id='morphing_basis_vector_1'> +2.4391178e-04 </wgt>
<wgt id='morphing_basis_vector_2'> +1.7272524e-04 </wgt>
<wgt id='morphing_basis_vector_3'> +2.6017982e-04 </wgt>
<wgt id='morphing_basis_vector_4'> +1.6583989e-04 </wgt>
<wgt id='morphing_basis_vector_5'> +2.7845845e-04 </wgt>
</rwgt>
</event>
<event>
 4      1 +1.5130300e-07 1.76765100e+03 7.81860800e-03 8.17429700e-02
        2 -1    0    0  501    0 +0.0000000000e+00 +0.0000000000e+00 +1.0535465123e+03 1.0535465123e+03 0.0000000000e+00 0.0000e+00 -1.0000e+00
       -2 -1    0    0    0  501 -0.0000000000e+00 -0.0000000000e+00 -7.4144605875e+02 7.4144605875e+02 0.0000000000e+00 0.0000e+00 1.0000e+00
      -13  1    1    2    0    0 +6.8033101118e+01 -4.2765641712e+02 -6.2634054900e+02 7.6145978047e+02 0.0000000000e+00 0.0000e+00 1.0000e+00
       13  1    1    2    0    0 -6.8033101118e+01 +4.2765641712e+02 +9.3844100254e+02 1.0335327906e+03 0.0000000000e+00 0.0000e+00 -1.0000e+00
<mgrwt>
<rscale>  0 0.17676514E+04</rscale>
<asrwt>0</asrwt>
<pdfrwt beam="1">  1        2 0.16208408E+00 0.17676514E+04</pdfrwt>
<pdfrwt beam="2">  1       -2 0.11406862E+00 0.17676514E+04</pdfrwt>
<totfact> 0.16591459E+01</totfact>
</mgrwt>
<rwgt>
<wgt id='morphing_basis_vector_1'> +2.0935844e-04 </wgt>
<wgt id='morphing_basis_vector_2'> +1.3849764e-04 </wgt>
<wgt id='morphing_basis_vector_3'> +2.2116145e-04 </wgt>
<wgt id='morphing_basis_vector_4'> +1.5241226e-04 </wgt>
<wgt id='morphing_basis_vector_5'> +2.4279144e-04 </wgt>
</rwgt>
</event>
<event>
 4      1 +1.5130300e-07 1.81539300e+03 7.81860800e-03 8.15189300e-02
        2 -1    0    0  501    0 +0.0000000000e+00 +0.0000000000e+00 +6.7915592711e+02 6.7915592711e+02 0.0000000000e+00 0.0000e+00 -1.0000e+00
       -2 -1    0    0    0  501 -0.0000000000e+00 -0.0000000000e+00 -1.2131427900e+03 1.2131427900e+03 0.0000000000e+00 0.0000e+00 1.0000e+00
      -13  1    1    2    0    0 +6.1459343914e+02 +3.6519039827e+01 -9.6222250698e+02 1.1423357163e+03 0.0000000000e+00 0.0000e+00 1.0000e+00
       13  1    1    2    0    0 -6.1459343914e+02 -3.6519039827e+01 +4.2823564412e+02 7.4996300082e+02 0.0000000000e+00 0.0000e+00 -1.0000e+00
<mgrwt>
<rscale>  0 0.18153932E+04</rscale>
<asrwt>0</asrwt>
<pdfrwt beam="1">  1        2 0.10448553E+00 0.18153932E+04</pdfrwt>
<pdfrwt beam="2">  1       -2 0.18663735E+00 0.18153932E+04</pdfrwt>
<totfact> 0.73008328E+00</totfact>
</mgrwt>
<rwgt>
<wgt id='morphing_basis_vector_1'> +2.3246316e-04 </wgt>
<wgt id='morphing_basis_vector_2'> +1.5442017e-04 </wgt>
<wgt id='morphing_basis_vector_3'> +2.4622838e-04 </wgt>
<wgt id='morphing_basis_vector_4'> +1.6965529e-04 </wgt>
<wgt id='morphing_basis_vector_5'> +2.7080477e-04 </wgt>
</rwgt>
</event>
<event>
 4      1 +1.5130300e-07 1.64523300e+03 7.81860800e-03 8.23521400e-02
        2 -1    0    0  501    0 +0.0000000000e+00 +0.0000000000e+00 +9.5704617952e+02 9.5704617952e+02 0.0000000000e+00 0.0000e+00 -1.0000e+00
       -2 -1    0    0    0  501 -0.0000000000e+00 -0.0000000000e+00 -7.0706906603e+02 7.0706906603e+02 0.0000000000e+00 0.0000e+00 1.0000e+00
      -13  1    1    2    0    0 -6.8727810324e+02 -4.2197492311e+02 -3.8994684135e+01 8.0742467904e+02 0.0000000000e+00 0.0000e+00 1.0000e+00
       13  1    1    2    0    0 +6.8727810324e+02 +4.2197492311e+02 +2.8897179762e+02 8.5669056651e+02 0.0000000000e+00 0.0000e+00 -1.0000e+00
<mgrwt>
<rscale>  0 0.16452328E+04</rscale>
<asrwt>0</asrwt>
<pdfrwt beam="1">  1        2 0.14723787E+00 0.16452328E+04</pdfrwt>
<pdfrwt beam="2">  1       -2 0.10877986E+00 0.16452328E+04</pdfrwt>
<totfact> 0.21694932E+01</totfact>
</mgrwt>
<rwgt>
<wgt id='morphing_basis_vector_1'> +1.6107705e-04 </wgt>
<wgt id='morphing_basis_vector_2'> +1.1236368e-04 </wgt>
<wgt id='morphing_basis_vector_3'> +1.6979814e-04 </wgt>
<wgt id='morphing_basis_vector_4'> +1.0830636e-04 </wgt>
<wgt id='morphing_basis_vector_5'> +1.8035175e-04 </wgt>
</rwgt>
</event>
<event>
 4      1 +1.5130300e-07 1.61567500e+03 7.81860800e-03 8.25074000e-02
        2 -1    0    0  501    0 +0.0000000000e+00 +0.0000000000e+00 +1.3733905550e+03 1.3733905550e+03 0.0000000000e+00 0.0000e+00 -1.0000e+00
       -2 -1    0    0    0  501 -0.0000000000e+00 -0.0000000000e+00 -4.7517563738e+02 4.7517563738e+02 0.0000000000e+00 0.0000e+00 1.0000e+00
      -13  1    1    2    0    0 -3.2375509932e+02 -4.3544972085e+02 -2.3563023351e+02 5.9157030915e+02 0.0000000000e+00 0.0000e+00 1.0000e+00
       13  1    1    2    0    0 +3.2375509932e+02 +4.3544972085e+02 +1.1338451511e+03 1.2569958833e+03 0.0000000000e+00 0.0000e+00 -1.0000e+00
<mgrwt>
<rscale>  0 0.16156754E+04</rscale>
<asrwt>0</asrwt>
<pdfrwt beam="1">  1        2 0.21129085E+00 0.16156754E+04</pdfrwt>
<pdfrwt beam="2">  1       -2 0.73103945E-01 0.16156754E+04</pdfrwt>
<totfact> 0.31142308E+01</totfact>
</mgrwt>
<rwgt>
<wgt id='morphing_basis_vector_1'> +1.4771134e-04 </wgt>
<wgt id='morphing_basis_vector_2'> +9.7400328e-05 </wgt>
<wgt id='morphing_basis_vector_3'> +1.5464894e-04 </wgt>
<wgt id='morphing_basis_vector_4'> +1.0513623e-04 </wgt>
<wgt id='morphing_basis_vector_5'> +1.6771532e-04 </wgt>
</rwgt>
</event>
<event>
 4      1 +1.5130300e-07 1.61539100e+03 7.81860800e-03 8.25089100e-02
        2 -1    0    0  501    0 +0.0000000000e+00 +0.0000000000e+00 +1.0921905273e+03 1.0921905273e+03 0.0000000000e+00 0.0000e+00 1.0000e+00
       -2 -1    0    0    0  501 -0.0000000000e+00 -0.0000000000e+00 -5.9730631515e+02 5.9730631515e+02 0.0000000000e+00 0.0000e+00 -1.0000e+00
      -13  1    1    2    0    0 -5.4795479904e+02 +1.6199828091e+02 -3.4959971242e+02 6.6986406362e+02 0.0000000000e+00 0.0000e+00 -1.0000e+00
       13  1    1    2    0    0 +5.4795479904e+02 -1.6199828091e+02 +8.4448392453e+02 1.0196327788e+03 0.0000000000e+00 0.0000e+00 1.0000e+00
<mgrwt>
<rscale>  0 0.16153913E+04</rscale>
<asrwt>0</asrwt>
<pdfrwt beam="1">  1        2 0.16802931E+00 0.16153913E+04</pdfrwt>
<pdfrwt beam="2">  1       -2 0.91893280E-01 0.16153913E+04</pdfrwt>
<totfact> 0.26973073E+01</totfact>
</mgrwt>
<rwgt>
<wgt id='morphing_basis_vector_1'> +1.4765424e-04 </wgt>
<wgt id='morphing_basis_vector_2'> +9.7462372e-05 </wgt>
<wgt id='morphing_basis_vector_3'> +1.5459955e-04 </wgt>
<wgt id='morphing_basis_vector_4'> +1.0497715e-04 </wgt>
<wgt id='morphing_basis_vector_5'> +1.6758746e-04 </wgt>
</rwgt>
</event>
<event>
 4      1 +1.5130300e-07 1.60724400e+03 7.81860800e-03 8.25523100e-02
        2 -1    0    0  501    0 +0.0000000000e+00 +0.0000000000e+00 +1.8927039513e+03 1.8927039513e+03 0.0000000000e+00 0.0000e+00 -1.0000e+00
       -2 -1    0    0    0  501 -0.0000000000e+00 -0.0000000000e+00 -3.4120949605e+02 3.4120949605e+02 0.0000000000e+00 0.0000e+00 1.0000e+00
      -13  1    1    2    0    0 +3.7596621925e+02 +3.7378330665e+02 -6.3671255689e+01 5.3396496809e+02 0.0000000000e+00 0.0000e+00 1.0000e+00
       13  1    1    2    0    0 -3.7596621925e+02 -3.7378330665e+02 +1.6151657109e+03 1.6999484793e+03 0.0000000000e+00 0.0000e+00 -1.0000e+00
<mgrwt>
<rscale>  0 0.16072443E+04</rscale>
<asrwt>0</asrwt>
<pdfrwt beam="1">  1        2 0.29118522E+00 0.16072443E+04</pdfrwt>
<pdfrwt beam="2">  1       -2 0.52493770E-01 0.16072443E+04</pdfrwt>
<totfact> 0.31763535E+01</totfact>
</mgrwt>
<rwgt>
<wgt id='morphing_basis_vector_1'> +1.4473352e-04 </wgt>
<wgt id='morphing_basis_vector_2'> +9.5374962e-05 </wgt>
<wgt id='morphing_basis_vector_3'> +1.5143930e-04 </wgt>
<wgt id='morphing_basis_vector_4'> +1.0291649e-04 </wgt>
<wgt id='morphing_basis_vector_5'> +1.6413572e-04 </wgt>
</rwgt>
</event>
<event>
 4      1 +1.5130300e-07 1.57601500e+03 7.81860800e-03 8.27211800e-02
        2 -1    0    0  501    0 +0.0000000000e+00 +0.0000000000e+00 +1.7429794848e+03 1.7429794848e+03 0.0000000000e+00 0.0000e+00 -1.0000e+00
       -2 -1    0    0    0  501 -0.0000000000e+00 -0.0000000000e+00 -3.5626111497e+02 3.5626111497e+02 0.0000000000e+00 0.0000e+00 1.0000e+00
      -13  1    1    2    0    0 +7.1761437820e+02 +3.0840678084e+02 +8.3223613029e+02 1.1413597657e+03 0.0000000000e+00 0.0000e+00 1.0000e+00
       13  1    1    2    0    0 -7.1761437820e+02 -3.0840678084e+02 +5.5448223956e+02 9.5788083405e+02 0.0000000000e+00 0.0000e+00 -1.0000e+00
<mgrwt>
<rscale>  0 0.15760150E+04</rscale>
<asrwt>0</asrwt>
<pdfrwt beam="1">  1        2 0.26815068E+00 0.15760150E+04</pdfrwt>
<pdfrwt beam="2">  1       -2 0.54809404E-01 0.15760150E+04</pdfrwt>
<totfact> 0.35396648E+01</totfact>
</mgrwt>
<rwgt>
<wgt id='morphing_basis_vector_1'> +1.4180031e-04 </wgt>
<wgt id='morphing_basis_vector_2'> +1.1107565e-04 </wgt>
<wgt id='morphing_basis_vector_3'> +1.5030714e-04 </wgt>
<wgt id='morphing_basis_vector_4'> +8.0423437e-05 </wgt>
<wgt id='morphing_basis_vector_5'> +1.5027268e-04 </wgt>
</rwgt>
</event>
<event>
 4      1 +1.5130300e-07 1.56121400e+03 7.81860800e-03 8.28026200e-02
        2 -1    0    0  501    0 +0.0000000000e+00 +0.0000000000e+00 +1.5706585549e+03 1.5706585549e+03 0.0000000000e+00 0.0000e+00 -1.0000e+00
       -2 -1    0    0    0  501 -0.0000000000e+00 -0.0000000000e+00 -3.8795645507e+02 3.8795645507e+02 0.0000000000e+00 0.0000e+00 1.0000e+00
      -13  1    1    2    0    0 +4.2235946300e+02 -5.6227272477e+02 +1.6626715459e+02 7.2262223859e+02 0.0000000000e+00 0.0000e+00 1.0000e+00
       13  1    1    2    0    0 -4.2235946300e+02 +5.6227272477e+02 +1.0164349453e+03 1.2359927714e+03 0.0000000000e+00 0.0000e+00 -1.0000e+00
<mgrwt>
<rscale>  0 0.15612138E+04</rscale>
<asrwt>0</asrwt>
<pdfrwt beam="1">  1        2 0.24163977E+00 0.15612138E+04</pdfrwt>
<pdfrwt beam="2">  1       -2 0.59685610E-01 0.15612138E+04</pdfrwt>
<totfact> 0.37170491E+01</totfact>
</mgrwt>
<rwgt>
<wgt id='morphing_basis_vector_1'> +1.3002341e-04 </wgt>
<wgt id='morphing_basis_vector_2'> +8.7115144e-05 </wgt>
<wgt id='morphing_basis_vector_3'> +1.3579596e-04 </wgt>
<wgt id='morphing_basis_vector_4'> +8.9982191e-05 </wgt>
<wgt id='morphing_basis_vector_5'> +1.4547555e-04 </wgt>
</rwgt>
</event>
<event>
 4      1 +1.5130300e-07 1.77100100e+03 7.81860800e-03 8.17270200e-02
        2 -1    0    0  501    0 +0.0000000000e+00 +0.0000000000e+00 +2.2768209989e+03 2.2768209989e+03 0.0000000000e+00 0.0000e+00 1.0000e+00
       -2 -1    0    0    0  501 -0.0000000000e+00 -0.0000000000e+00 -3.4438843958e+02 3.4438843958e+02 0.0000000000e+00 0.0000e+00 -1.0000e+00
      -13  1    1    2    0    0 -7.1975509894e+02 -4.9110605593e+02 +7.3276670186e+02 1.1384988362e+03 0.0000000000e+00 0.0000e+00 -1.0000e+00
       13  1    1    2    0    0 +7.1975509894e+02 +4.9110605593e+02 +1.1996658575e+03 1.4827106023e+03 0.0000000000e+00 0.0000e+00 1.0000e+00
<mgrwt>
<rscale>  0 0.17710007E+04</rscale>
<asrwt>0</asrwt>
<pdfrwt beam="1">  1        2 0.35028014E+00 0.17710007E+04</pdfrwt>
<pdfrwt beam="2">  1       -2 0.52982838E-01 0.17710007E+04</pdfrwt>
<totfact> 0.18635036E+01</totfact>
</mgrwt>
<rwgt>
<wgt id='morphing_basis_vector_1'> +2.1481322e-04 </wgt>
<wgt id='morphing_basis_vector_2'> +1.5112786e-04 </wgt>
<wgt id='morphing_basis_vector_3'> +2.2831664e-04 </wgt>
<wgt id='morphing_basis_vector_4'> +1.4600469e-04 </wgt>
<wgt id='morphing_basis_vector_5'> +2.4409801e-04 </wgt>
</rwgt>
</event>
<event>
 4      1 +1.5130300e-07 1.63585400e+03 7.81860800e-03 8.24010400e-02
        2 -1    0    0  501    0 +0.0000000000e+00 +0.0000000000e+00 +1.1186220968e+03 1.1186220968e+03 0.0000000000e+00 0.0000e+00 -1.0000e+00
       -2 -1    0    0    0  501 -0.0000000000e+00 -0.0000000000e+00 -5.9806123932e+02 5.9806123932e+02 0.0000000000e+00 0.0000e+00 1.0000e+00
      -13  1    1    2    0    0 -7.5589551594e+01 +7.9652830505e+02 +8.2086225223e+01 8.0430670109e+02 0.0000000000e+00 0.0000e+00 1.0000e+00
       13  1    1    2    0    0 +7.5589551594e+01 -7.9652830505e+02 +4.3847463229e+02 9.1237663506e+02 0.0000000000e+00 0.0000e+00 -1.0000e+00
<mgrwt>
<rscale>  0 0.16358539E+04</rscale>
<asrwt>0</asrwt>
<pdfrwt beam="1">  1        2 0.17209571E+00 0.16358539E+04</pdfrwt>
<pdfrwt beam="2">  1       -2 0.92009421E-01 0.16358539E+04</pdfrwt>
<totfact> 0.25884884E+01</totfact>
</mgrwt>
<rwgt>
<wgt id='morphing_basis_vector_1'> +1.5743205e-04 </wgt>
<wgt id='morphing_basis_vector_2'> +1.0953190e-04 </wgt>
<wgt id='morphing_basis_vector_3'> +1.6581357e-04 </wgt>
<wgt id='morphing_basis_vector_4'> +1.0599857e-04 </wgt>
<wgt id='morphing_basis_vector_5'> +1.7616892e-04 </wgt>
</rwgt>
</event>
<event>
 4      1 +1.5130300e-07 1.63994900e+03 7.81860800e-03 8.23796500e-02
        2 -1    0    0  501    0 +0.0000000000e+00 +0.0000000000e+00 +1.1264578957e+03 1.1264578957e+03 0.0000000000e+00 0.0000e+00 -1.0000e+00
       -2 -1    0    0    0  501 -0.0000000000e+00 -0.0000000000e+00 -5.9687797576e+02 5.9687797576e+02 0.0000000000e+00 0.0000e+00 1.0000e+00
      -13  1    1    2    0    0 -5.8137117659e+01 -5.9473471055e+02 -3.2524811615e+02 6.8034964352e+02 0.0000000000e+00 0.0000e+00 1.0000e+00
       13  1    1    2    0    0 +5.8137117659e+01 +5.9473471055e+02 +8.5482803610e+02 1.0429862279e+03 0.0000000000e+00 0.0000e+00 -1.0000e+00
<mgrwt>
<rscale>  0 0.16399487E+04</rscale>
<asrwt>0</asrwt>
<pdfrwt beam="1">  1        2 0.17330121E+00 0.16399487E+04</pdfrwt>
<pdfrwt beam="2">  1       -2 0.91827381E-01 0.16399487E+04</pdfrwt>
<totfact> 0.25718196E+01</totfact>
</mgrwt>
<rwgt>
<wgt id='morphing_basis_vector_1'> +1.5658872e-04 </wgt>
<wgt id='morphing_basis_vector_2'> +1.0354480e-04 </wgt>
<wgt id='morphing_basis_vector_3'> +1.6423628e-04 </wgt>
<wgt id='morphing_basis_vector_4'> +1.1164057e-04 </wgt>
<wgt id='morphing_basis_vector_5'> +1.7833855e-04 </wgt>
</rwgt>
</event>
<event>
 4      1 +1.5130300e-07 1.72552300e+03 7.81860800e-03 8.19467500e-02
        2 -1    0    0  501    0 +0.0000000000e+00 +0.0000000000e+00 +2.0638923121e+03 2.0638923121e+03 0.0000000000e+00 0.0000e+00 -1.0000e+00
       -2 -1    0    0    0  501 -0.0000000000e+00 -0.0000000000e+00 -3.6065715640e+02 3.6065715640e+02 0.0000000000e+00 0.0000e+00 1.0000e+00
      -13  1    1    2    0    0 -2.2217149188e+01 +7.0988456275e+02 +1.5398744884e+03 1.6957721351e+03 0.0000000000e+00 0.0000e+00 1.0000e+00
       13  1    1    2    0    0 +2.2217149188e+01 -7.0988456275e+02 +1.6336066738e+02 7.2877733348e+02 0.0000000000e+00 0.0000e+00 -1.0000e+00
<mgrwt>
<rscale>  0 0.17255231E+04</rscale>
<asrwt>0</asrwt>
<pdfrwt beam="1">  1        2 0.31752189E+00 0.17255231E+04</pdfrwt>
<pdfrwt beam="2">  1       -2 0.55485717E-01 0.17255231E+04</pdfrwt>
<totfact> 0.22557335E+01</totfact>
</mgrwt>
<rwgt>
<wgt id='morphing_basis_vector_1'> +2.3211276e-04 </wgt>
<wgt id='morphing_basis_vector_2'> +2.4922936e-04 </wgt>
<wgt id='morphing_basis_vector_3'> +2.5859477e-04 </wgt>
<wgt id='morphing_basis_vector_4'> +5.7727383e-05 </wgt>
<wgt id='morphing_basis_vector_5'> +2.1372260e-04 </wgt>
</rwgt>
</event>
<event>
 4      1 +1.5130300e-07 1.66492700e+03 7.81860800e-03 8.22505400e-02
        2 -1    0    0  501    0 +0.0000000000e+00 +0.0000000000e+00 +4.6324609163e+02 4.6324609163e+02 0.0000000000e+00 0.0000e+00 -1.0000e+00
       -2 -1    0    0    0  501 -0.0000000000e+00 -0.0000000000e+00 -1.4959561568e+03 1.4959561568e+03 0.0000000000e+00 0.0000e+00 1.0000e+00
      -13  1    1    2    0    0 -2.9866859526e+02 +5.9792398943e+02 -1.1003355659e+03 1.2874216032e+03 0.0000000000e+00 0.0000e+00 1.0000e+00
       13  1    1    2    0    0 +2.9866859526e+02 -5.9792398943e+02 +6.7625500698e+01 6.7178064521e+02 0.0000000000e+00 0.0000e+00 -1.0000e+00
<mgrwt>
<rscale>  0 0.16649274E+04</rscale>
<asrwt>0</asrwt>
<pdfrwt beam="1">  1        2 0.71268630E-01 0.16649274E+04</pdfrwt>
<pdfrwt beam="2">  1       -2 0.23014710E+00 0.16649274E+04</pdfrwt>
<totfact> 0.55992512E+00</totfact>
</mgrwt>
<rwgt>
<wgt id='morphing_basis_vector_1'> +1.6624704e-04 </wgt>
<wgt id='morphing_basis_vector_2'> +1.1048509e-04 </wgt>
<wgt id='morphing_basis_vector_3'> +1.7470916e-04 </wgt>
<wgt id='morphing_basis_vector_4'> +1.1843565e-04 </wgt>
<wgt id='morphing_basis_vector_5'> +1.8976831e-04 </wgt>
</rwgt>
</event>
<event>
 4      1 +1.5130300e-07 1.68280600e+03 7.81860800e-03 8.21595500e-02
        2 -1    0    0  501    0 +0.0000000000e+00 +0.0000000000e+00 +6.5151453386e+02 6.5151453386e+02 0.0000000000e+00 0.0000e+00 -1.0000e+00
       -2 -1    0    0    0  501 -0.0000000000e+00 -0.0000000000e+00 -1.0866359740e+03 1.0866359740e+03 0.0000000000e+00 0.0000e+00 1.0000e+00
      -13  1    1    2    0    0 +7.9051508731e+01 +7.7998256685e+02 -5.3311976911e+02 9.4807100675e+02 0.0000000000e+00 0.0000e+00 1.0000e+00
       13  1    1    2    0    0 -7.9051508731e+01 -7.7998256685e+02 +9.7998328962e+01 7.9007950113e+02 0.0000000000e+00 0.0000e+00 -1.0000e+00
<mgrwt>
<rscale>  0 0.16828061E+04</rscale>
<asrwt>0</asrwt>
<pdfrwt beam="1">  1        2 0.10023301E+00 0.16828061E+04</pdfrwt>
<pdfrwt beam="2">  1       -2 0.16717476E+00 0.16828061E+04</pdfrwt>
<totfact> 0.10944355E+01</totfact>
</mgrwt>
<rwgt>
<wgt id='morphing_basis_vector_1'> +1.7433819e-04 </wgt>
<wgt id='morphing_basis_vector_2'> +1.1835428e-04 </wgt>
<wgt id='morphing_basis_vector_3'> +1.8375672e-04 </wgt>
<wgt id='morphing_basis_vector_4'> +1.2174074e-04 </wgt>
<wgt id='morphing_basis_vector_5'> +1.9814370e-04 </wgt>
</rwgt>
</event>
<event>
 4      1 +1.5130300e-07 1.55758400e+03 7.81860800e-03 8.28227400e-02
        2 -1    0    0  501    0 +0.0000000000e+00 +0.0000000000e+00 +3.2657419210e+03 3.2657419210e+03 0.0000000000e+00 0.0000e+00 1.0000e+00
       -2 -1    0    0    0  501 -0.0000000000e+00 -0.0000000000e+00 -1.8572108942e+02 1.8572108942e+02 0.0000000000e+00 0.0000e+00 -1.0000e+00
      -13  1    1    2    0    0 -7.0760507848e+02 -3.2236386060e+02 +1.6364403892e+03 1.8117838042e+03 0.0000000000e+00 0.0000e+00 -1.0000e+00
       13  1    1    2    0    0 +7.0760507848e+02 +3.2236386060e+02 +1.4435804423e+03 1.6396792062e+03 0.0000000000e+00 0.0000e+00 1.0000e+00
<mgrwt>
<rscale>  0 0.15575842E+04</rscale>
<asrwt>0</asrwt>
<pdfrwt beam="1">  1        2 0.50242179E+00 0.15575842E+04</pdfrwt>
<pdfrwt beam="2">  1       -2 0.28572478E-01 0.15575842E+04</pdfrwt>
<totfact> 0.14520622E+01</totfact>
</mgrwt>
<rwgt>
<wgt id='morphing_basis_vector_1'> +1.3375393e-04 </wgt>
<wgt id='morphing_basis_vector_2'> +1.0089927e-04 </wgt>
<wgt id='morphing_basis_vector_3'> +1.4106744e-04 </wgt>
<wgt id='morphing_basis_vector_4'> +7.9887471e-05 </wgt>
<wgt id='morphing_basis_vector_5'> +1.4339009e-04 </wgt>
</rwgt>
</event>
<event>
 4      1 +1.5130300e-07 1.82982300e+03 7.81860800e-03 8.14526000e-02
        2 -1    0    0  501    0 +0.0000000000e+00 +0.0000000000e+00 +6.6585753863e+02 6.6585753863e+02 0.0000000000e+00 0.0000e+00 1.0000e+00
       -2 -1    0    0    0  501 -0.0000000000e+00 -0.0000000000e+00 -1.2571206570e+03 1.2571206570e+03 0.0000000000e+00 0.0000e+00 -1.0000e+00
      -13  1    1    2    0    0 +3.1981124874e+02 -7.6337396669e+02 +1.1414789321e+02 8.3549314143e+02 0.0000000000e+00 0.0000e+00 -1.0000e+00
       13  1    1    2    0    0 -3.1981124874e+02 +7.6337396669e+02 -7.0541101160e+02 1.0874850542e+03 0.0000000000e+00 0.0000e+00 1.0000e+00
<mgrwt>
<rscale>  0 0.18298232E+04</rscale>
<asrwt>0</asrwt>
<pdfrwt beam="1">  1        2 0.10243962E+00 0.18298232E+04</pdfrwt>
<pdfrwt beam="2">  1       -2 0.19340318E+00 0.18298232E+04</pdfrwt>
<totfact> 0.66501110E+00</totfact>
</mgrwt>
<rwgt>
<wgt id='morphing_basis_vector_1'> +2.7528343e-04 </wgt>
<wgt id='morphing_basis_vector_2'> +2.6470241e-04 </wgt>
<wgt id='morphing_basis_vector_3'> +3.0452173e-04 </wgt>
<wgt id='morphing_basis_vector_4'> +1.0568266e-04 </wgt>
<wgt id='morphing_basis_vector_5'> +2.7432616e-04 </wgt>
</rwgt>
</event>
<event>
 4      1 +1.5130300e-07 1.65215900e+03 7.81860800e-03 8.23162500e-02
        2 -1    0    0  501    0 +0.0000000000e+00 +0.0000000000e+00 +7.3115952346e+02 7.3115952346e+02 0.0000000000e+00 0.0000e+00 -1.0000e+00
       -2 -1    0    0    0  501 -0.0000000000e+00 -0.0000000000e+00 -9.3332231898e+02 9.3332231898e+02 0.0000000000e+00 0.0000e+00 1.0000e+00
      -13  1    1    2    0    0 +4.9565527673e+02 -4.4969920088e+02 -5.8894933422e+02 8.9149584570e+02 0.0000000000e+00 0.0000e+00 1.0000e+00
       13  1    1    2    0    0 -4.9565527673e+02 +4.4969920088e+02 +3.8678653870e+02 7.7298599673e+02 0.0000000000e+00 0.0000e+00 -1.0000e+00
<mgrwt>
<rscale>  0 0.16521592E+04</rscale>
<asrwt>0</asrwt>
<pdfrwt beam="1">  1        2 0.11248608E+00 0.16521592E+04</pdfrwt>
<pdfrwt beam="2">  1       -2 0.14358805E+00 0.16521592E+04</pdfrwt>
<totfact> 0.14828979E+01</totfact>
</mgrwt>
<rwgt>
<wgt id='morphing_basis_vector_1'> +1.6137598e-04 </wgt>
<wgt id='morphing_basis_vector_2'> +1.0725404e-04 </wgt>
<wgt id='morphing_basis_vector_3'> +1.6945965e-04 </wgt>
<wgt id='morphing_basis_vector_4'> +1.1469430e-04 </wgt>
<wgt id='morphing_basis_vector_5'> +1.8384241e-04 </wgt>
</rwgt>
</event>
<event>
 4      1 +1.5130300e-07 1.59286700e+03 7.81860800e-03 8.26295600e-02
        2 -1    0    0  501    0 +0.0000000000e+00 +0.0000000000e+00 +8.2711922664e+02 8.2711922664e+02 0.0000000000e+00 0.0000e+00 1.0000e+00
       -2 -1    0    0    0  501 -0.0000000000e+00 -0.0000000000e+00 -7.6688653195e+02 7.6688653195e+02 0.0000000000e+00 0.0000e+00 -1.0000e+00
      -13  1    1    2    0    0 -5.5795590075e+02 +7.5661285570e+01 -5.3355096405e+02 7.7570358292e+02 0.0000000000e+00 0.0000e+00 -1.0000e+00
       13  1    1    2    0    0 +5.5795590075e+02 -7.5661285570e+01 +5.9378365874e+02 8.1830217567e+02 0.0000000000e+00 0.0000e+00 1.0000e+00
<mgrwt>
<rscale>  0 0.15928673E+04</rscale>
<asrwt>0</asrwt>
<pdfrwt beam="1">  1        2 0.12724911E+00 0.15928673E+04</pdfrwt>
<pdfrwt beam="2">  1       -2 0.11798254E+00 0.15928673E+04</pdfrwt>
<totfact> 0.21588446E+01</totfact>
</mgrwt>
<rwgt>
<wgt id='morphing_basis_vector_1'> +1.3983272e-04 </wgt>
<wgt id='morphing_basis_vector_2'> +9.2208487e-05 </wgt>
<wgt id='morphing_basis_vector_3'> +1.4617874e-04 </wgt>
<wgt id='morphing_basis_vector_4'> +9.9075425e-05 </wgt>
<wgt id='morphing_basis_vector_5'> +1.5815259e-04 </wgt>
</rwgt>
</event>
<event>
 4      1 +1.5130300e-07 1.73982100e+03 7.81860800e-03 8.18769300e-02
        2 -1    0    0  501    0 +0.0000000000e+00 +0.0000000000e+00 +1.9403906178e+03 1.9403906178e+03 0.0000000000e+00 0.0000e+00 1.0000e+00
       -2 -1    0    0    0  501 -0.0000000000e+00 -0.0000000000e+00 -3.8999577873e+02 3.8999577873e+02 0.0000000000e+00 0.0000e+00 -1.0000e+00
      -13  1    1    2    0    0 -1.4677509359e+02 -7.8563872781e+02 +3.1513714192e+02 8.5911731268e+02 0.0000000000e+00 0.0000e+00 -1.0000e+00
       13  1    1    2    0    0 +1.4677509359e+02 +7.8563872781e+02 +1.2352576972e+03 1.4712690839e+03 0.0000000000e+00 0.0000e+00 1.0000e+00
<mgrwt>
<rscale>  0 0.17398209E+04</rscale>
<asrwt>0</asrwt>
<pdfrwt beam="1">  1        2 0.29852163E+00 0.17398209E+04</pdfrwt>
<pdfrwt beam="2">  1       -2 0.59999352E-01 0.17398209E+04</pdfrwt>
<totfact> 0.22544784E+01</totfact>
</mgrwt>
<rwgt>
<wgt id='morphing_basis_vector_1'> +1.9823903e-04 </wgt>
<wgt id='morphing_basis_vector_2'> +1.3432250e-04 </wgt>
<wgt id='morphing_basis_vector_3'> +2.0958602e-04 </wgt>
<wgt id='morphing_basis_vector_4'> +1.4003381e-04 </wgt>
<wgt id='morphing_basis_vector_5'> +2.2726361e-04 </wgt>
</rwgt>
</event>
<event>
 4      1 +1.5130300e-07 1.64201900e+03 7.81860800e-03 8.23688700e-02
        2 -1    0    0  501    0 +0.0000000000e+00 +0.0000000000e+00 +7.9706219920e+02 7.9706219920e+02 0.0000000000e+00 0.0000e+00 -1.0000e+00
       -2 -1    0    0    0  501 -0.0000000000e+00 -0.0000000000e+00 -8.4567582594e+02 8.4567582594e+02 0.0000000000e+00 0.0000e+00 1.0000e+00
      -13  1    1    2    0    0 +5.8270794750e+02 -2.0349682139e+02 -5.6592811026e+02 8.3739723810e+02 0.0000000000e+00 0.0000e+00 1.0000e+00
       13  1    1    2    0    0 -5.8270794750e+02 +2.0349682139e+02 +5.1731448353e+02 8.0534078703e+02 0.0000000000e+00 0.0000e+00 -1.0000e+00
<mgrwt>
<rscale>  0 0.16420186E+04</rscale>
<asrwt>0</asrwt>
<pdfrwt beam="1">  1        2 0.12262495E+00 0.16420186E+04</pdfrwt>
<pdfrwt beam="2">  1       -2 0.13010397E+00 0.16420186E+04</pdfrwt>
<totfact> 0.17446443E+01</totfact>
</mgrwt>
<rwgt>
<wgt id='morphing_basis_vector_1'> +1.5740201e-04 </wgt>
<wgt id='morphing_basis_vector_2'> +1.0419493e-04 </wgt>
<wgt id='morphing_basis_vector_3'> +1.6512587e-04 </wgt>
<wgt id='morphing_basis_vector_4'> +1.1213602e-04 </wgt>
<wgt id='morphing_basis_vector_5'> +1.7926145e-04 </wgt>
</rwgt>
</event>
<event>
 4      1 +1.5130300e-07 1.66341800e+03 7.81860800e-03 8.22582800e-02
        2 -1    0    0  501    0 +0.0000000000e+00 +0.0000000000e+00 +1.5343987894e+03 1.5343987894e+03 0.0000000000e+00 0.0000e+00 -1.0000e+00
       -2 -1    0    0    0  501 -0.0000000000e+00 -0.0000000000e+00 -4.5082128403e+02 4.5082128403e+02 0.0000000000e+00 0.0000e+00 1.0000e+00
      -13  1    1    2    0    0 -4.9494801008e+02 -1.2342360469e+02 -2.4220787562e+02 5.6468714691e+02 0.0000000000e+00 0.0000e+00 1.0000e+00
       13  1    1    2    0    0 +4.9494801008e+02 +1.2342360469e+02 +1.3257853810e+03 1.4205329265e+03 0.0000000000e+00 0.0000e+00 -1.0000e+00
<mgrwt>
<rscale>  0 0.16634177E+04</rscale>
<asrwt>0</asrwt>
<pdfrwt beam="1">  1        2 0.23606135E+00 0.16634177E+04</pdfrwt>
<pdfrwt beam="2">  1       -2 0.69357122E-01 0.16634177E+04</pdfrwt>
<totfact> 0.28208077E+01</totfact>
</mgrwt>
<rwgt>
<wgt id='morphing_basis_vector_1'> +1.6532949e-04 </wgt>
<wgt id='morphing_basis_vector_2'> +1.0910090e-04 </wgt>
<wgt id='morphing_basis_vector_3'> +1.7362175e-04 </wgt>
<wgt id='morphing_basis_vector_4'> +1.1863280e-04 </wgt>
<wgt id='morphing_basis_vector_5'> +1.8910944e-04 </wgt>
</rwgt>
</event>
<event>
 4      1 +1.5130300e-07 1.59819700e+03 7.81860800e-03 8.26008300e-02
        2 -1    0    0  501    0 +0.0000000000e+00 +0.0000000000e+00 +1.8962816536e+03 1.8962816536e+03 0.0000000000e+00 0.0000e+00 1.0000e+00
       -2 -1    0    0    0  501 -0.0000000000e+00 -0.0000000000e+00 -3.3674219184e+02 3.3674219184e+02 0.0000000000e+00 0.0000e+00 -1.0000e+00
      -13  1    1    2    0    0 +2.8064200201e+01 +3.4647939973e+02 -2.2556730525e+02 4.1438651398e+02 0.0000000000e+00 0.0000e+00 -1.0000e+00
       13  1    1    2    0    0 -2.8064200201e+01 -3.4647939973e+02 +1.7851067670e+03 1.8186373315e+03 0.0000000000e+00 0.0000e+00 1.0000e+00
<mgrwt>
<rscale>  0 0.15981965E+04</rscale>
<asrwt>0</asrwt>
<pdfrwt beam="1">  1        2 0.29173563E+00 0.15981965E+04</pdfrwt>
<pdfrwt beam="2">  1       -2 0.51806492E-01 0.15981965E+04</pdfrwt>
<totfact> 0.32480419E+01</totfact>
</mgrwt>
<rwgt>
<wgt id='morphing_basis_vector_1'> +1.4150224e-04 </wgt>
<wgt id='morphing_basis_vector_2'> +9.2979536e-05 </wgt>
<wgt id='morphing_basis_vector_3'> +1.4793426e-04 </wgt>
<wgt id='morphing_basis_vector_4'> +1.0073754e-04 </wgt>
<wgt id='morphing_basis_vector_5'> +1.6037011e-04 </wgt>
</rwgt>
</event>
<event>
 4      1 +1.5130300e-07 1.68032700e+03 7.81860800e-03 8.21721000e-02
        2 -1    0    0  501    0 +0.0000000000e+00 +0.0000000000e+00 +1.0863532148e+03 1.0863532148e+03 0.0000000000e+00 0.0000e+00 -1.0000e+00
       -2 -1    0    0    0  501 -0.0000000000e+00 -0.0000000000e+00 -6.4976567895e+02 6.4976567895e+02 0.0000000000e+00 0.0000e+00 1.0000e+00
      -13  1    1    2    0    0 -5.4276174243e+02 +5.5149664870e+02 -1.1989066964e+02 7.8301509260e+02 0.0000000000e+00 0.0000e+00 1.0000e+00
       13  1    1    2    0    0 +5.4276174243e+02 -5.5149664870e+02 +5.5647820547e+02 9.5310380114e+02 0.0000000000e+00 0.0000e+00 -1.0000e+00
<mgrwt>
<rscale>  0 0.16803274E+04</rscale>
<asrwt>0</asrwt>
<pdfrwt beam="1">  1        2 0.16713126E+00 0.16803274E+04</pdfrwt>
<pdfrwt beam="2">  1       -2 0.99963951E-01 0.16803274E+04</pdfrwt>
<totfact> 0.22147300E+01</totfact>
</mgrwt>
<rwgt>
<wgt id='morphing_basis_vector_1'> +1.7317363e-04 </wgt>
<wgt id='morphing_basis_vector_2'> +1.1716656e-04 </wgt>
<wgt id='morphing_basis_vector_3'> +1.8244642e-04 </wgt>
<wgt id='morphing_basis_vector_4'> +1.2132948e-04 </wgt>
<wgt id='morphing_basis_vector_5'> +1.9697026e-04 </wgt>
</rwgt>
</event>
<event>
 4      1 +1.5130300e-07 1.79871900e+03 7.81860800e-03 8.15963700e-02
        2 -1    0    0  501    0 +0.0000000000e+00 +0.0000000000e+00 +1.5566520187e+03 1.5566520187e+03 0.0000000000e+00 0.0000e+00 -1.0000e+00
       -2 -1    0    0    0  501 -0.0000000000e+00 -0.0000000000e+00 -5.1960723939e+02 5.1960723939e+02 0.0000000000e+00 0.0000e+00 1.0000e+00
      -13  1    1    2    0    0 -1.9733297614e+02 +2.6438999435e+02 -4.4723686761e+02 5.5575461162e+02 0.0000000000e+00 0.0000e+00 1.0000e+00
       13  1    1    2    0    0 +1.9733297614e+02 -2.6438999435e+02 +1.4842816469e+03 1.5205046465e+03 0.0000000000e+00 0.0000e+00 -1.0000e+00
<mgrwt>
<rscale>  0 0.17987192E+04</rscale>
<asrwt>0</asrwt>
<pdfrwt beam="1">  1        2 0.23948493E+00 0.17987192E+04</pdfrwt>
<pdfrwt beam="2">  1       -2 0.79939575E-01 0.17987192E+04</pdfrwt>
<totfact> 0.19831984E+01</totfact>
</mgrwt>
<rwgt>
<wgt id='morphing_basis_vector_1'> +2.2404366e-04 </wgt>
<wgt id='morphing_basis_vector_2'> +1.4829046e-04 </wgt>
<wgt id='morphing_basis_vector_3'> +2.3704322e-04 </wgt>
<wgt id='morphing_basis_vector_4'> +1.6375310e-04 </wgt>
<wgt id='morphing_basis_vector_5'> +2.6078324e-04 </wgt>
</rwgt>
</event>
<event>
 4      1 +1.5130300e-07 1.75357500e+03 7.81860800e-03 8.18104100e-02
        2 -1    0    0  501    0 +0.0000000000e+00 +0.0000000000e+00 +1.5166377433e+03 1.5166377433e+03 0.0000000000e+00 0.0000e+00 -1.0000e+00
       -2 -1    0    0    0  501 -0.0000000000e+00 -0.0000000000e+00 -5.0688206321e+02 5.0688206321e+02 0.0000000000e+00 0.0000e+00 1.0000e+00
      -13  1    1    2    0    0 -3.5019821913e+02 +8.0150795509e+02 +4.3466107872e+02 9.7672106976e+02 0.0000000000e+00 0.0000e+00 1.0000e+00
       13  1    1    2    0    0 +3.5019821913e+02 -8.0150795509e+02 +5.7509460140e+02 1.0467987368e+03 0.0000000000e+00 0.0000e+00 -1.0000e+00
<mgrwt>
<rscale>  0 0.17535752E+04</rscale>
<asrwt>0</asrwt>
<pdfrwt beam="1">  1        2 0.23332888E+00 0.17535752E+04</pdfrwt>
<pdfrwt beam="2">  1       -2 0.77981856E-01 0.17535752E+04</pdfrwt>
<totfact> 0.22166030E+01</totfact>
</mgrwt>
<rwgt>
<wgt id='morphing_basis_vector_1'> +2.0864164e-04 </wgt>
<wgt id='morphing_basis_vector_2'> +1.5112219e-04 </wgt>
<wgt id='morphing_basis_vector_3'> +2.2219284e-04 </wgt>
<wgt id='morphing_basis_vector_4'> +1.3642316e-04 </wgt>
<wgt id='morphing_basis_vector_5'> +2.3409925e-04 </wgt>
</rwgt>
</event>
<event>
 4      1 +1.5130300e-07 1.61678800e+03 7.81860800e-03 8.25015000e-02
        2 -1    0    0  501    0 +0.0000000000e+00 +0.0000000000e+00 +5.9311189167e+02 5.9311189167e+02 0.0000000000e+00 0.0000e+00 -1.0000e+00
       -2 -1    0    0    0  501 -0.0000000000e+00 -0.0000000000e+00 -1.1018169451e+03 1.1018169451e+03 0.0000000000e+00 0.0000e+00 1.0000e+00
      -13  1    1    2    0    0 -1.2865638738e+02 +7.8325564563e+02 -4.1491789773e+02 8.9565547744e+02 0.0000000000e+00 0.0000e+00 1.0000e+00
       13  1    1    2    0    0 +1.2865638738e+02 -7.8325564563e+02 -9.3787155739e+01 7.9927335937e+02 0.0000000000e+00 0.0000e+00 -1.0000e+00
<mgrwt>
<rscale>  0 0.16167878E+04</rscale>
<asrwt>0</asrwt>
<pdfrwt beam="1">  1        2 0.91247984E-01 0.16167878E+04</pdfrwt>
<pdfrwt beam="2">  1       -2 0.16951030E+00 0.16167878E+04</pdfrwt>
<totfact> 0.11797549E+01</totfact>
</mgrwt>
<rwgt>
<wgt id='morphing_basis_vector_1'> +1.5061583e-04 </wgt>
<wgt id='morphing_basis_vector_2'> +1.0513096e-04 </wgt>
<wgt id='morphing_basis_vector_3'> +1.5847490e-04 </wgt>
<wgt id='morphing_basis_vector_4'> +1.0065467e-04 </wgt>
<wgt id='morphing_basis_vector_5'> +1.6783029e-04 </wgt>
</rwgt>
</event>
<event>
 4      1 +1.5130300e-07 1.62561600e+03 7.81860800e-03 8.24548100e-02
        2 -1    0    0  501    0 +0.0000000000e+00 +0.0000000000e+00 +1.4405907462e+03 1.4405907462e+03 0.0000000000e+00 0.0000e+00 -1.0000e+00
       -2 -1    0    0    0  501 -0.0000000000e+00 -0.0000000000e+00 -4.5860149282e+02 4.5860149282e+02 0.0000000000e+00 0.0000e+00 1.0000e+00
      -13  1    1    2    0    0 +6.2429374859e+02 +4.9253628235e+02 +2.9437998348e+02 8.4793528564e+02 0.0000000000e+00 0.0000e+00 1.0000e+00
       13  1    1    2    0    0 -6.2429374859e+02 -4.9253628235e+02 +6.8760926991e+02 1.0512569534e+03 0.0000000000e+00 0.0000e+00 -1.0000e+00
<mgrwt>
<rscale>  0 0.16256163E+04</rscale>
<asrwt>0</asrwt>
<pdfrwt beam="1">  1        2 0.22162934E+00 0.16256163E+04</pdfrwt>
<pdfrwt beam="2">  1       -2 0.70554076E-01 0.16256163E+04</pdfrwt>
<totfact> 0.30788893E+01</totfact>
</mgrwt>
<rwgt>
<wgt id='morphing_basis_vector_1'> +1.5364904e-04 </wgt>
<wgt id='morphing_basis_vector_2'> +1.0687065e-04 </wgt>
<wgt id='morphing_basis_vector_3'> +1.6171384e-04 </wgt>
<wgt id='morphing_basis_vector_4'> +1.0328401e-04 </wgt>
<wgt id='morphing_basis_vector_5'> +1.7166778e-04 </wgt>
</rwgt>
</event>
<event>
 4      1 +1.5130300e-07 1.69729400e+03 7.81860800e-03 8.20866600e-02
        2 -1    0    0  501    0 +0.0000000000e+00 +0.0000000000e+00 +5.7391424317e+02 5.7391424317e+02 0.0000000000e+00 0.0000e+00 1.0000e+00
       -2 -1    0    0    0  501 -0.0000000000e+00 -0.0000000000e+00 -1.2548939623e+03 1.2548939623e+03 0.0000000000e+00 0.0000e+00 -1.0000e+00
      -13  1    1    2    0    0 +4.5027104626e+02 +5.7685851248e+02 -8.0354734562e+02 1.0868293772e+03 0.0000000000e+00 0.0000e+00 1.0000e+00
       13  1    1    2    0    0 -4.5027104626e+02 -5.7685851248e+02 +1.2256762649e+02 7.4197882826e+02 0.0000000000e+00 0.0000e+00 -1.0000e+00
<mgrwt>
<rscale>  0 0.16972938E+04</rscale>
<asrwt>0</asrwt>
<pdfrwt beam="1">  1        2 0.88294499E-01 0.16972938E+04</pdfrwt>
<pdfrwt beam="2">  1       -2 0.19306061E+00 0.16972938E+04</pdfrwt>
<totfact> 0.80693274E+00</totfact>
</mgrwt>
<rwgt>
<wgt id='morphing_basis_vector_1'> +1.7947237e-04 </wgt>
<wgt id='morphing_basis_vector_2'> +1.2012895e-04 </wgt>
<wgt id='morphing_basis_vector_3'> +1.8908545e-04 </wgt>
<wgt id='morphing_basis_vector_4'> +1.2759705e-04 </wgt>
<wgt id='morphing_basis_vector_5'> +2.0536973e-04 </wgt>
</rwgt>
</event>
<event>
 4      1 +1.5130300e-07 1.64148800e+03 7.81860800e-03 8.23716300e-02
        2 -1    0    0  501    0 +0.0000000000e+00 +0.0000000000e+00 +1.1859834911e+03 1.1859834911e+03 0.0000000000e+00 0.0000e+00 -1.0000e+00
       -2 -1    0    0    0  501 -0.0000000000e+00 -0.0000000000e+00 -5.6798482758e+02 5.6798482758e+02 0.0000000000e+00 0.0000e+00 1.0000e+00
      -13  1    1    2    0    0 +4.6836370370e+02 -1.0709079216e+02 -4.0202064130e+02 6.2646116619e+02 0.0000000000e+00 0.0000e+00 1.0000e+00
       13  1    1    2    0    0 -4.6836370370e+02 +1.0709079216e+02 +1.0200193049e+03 1.1275071525e+03 0.0000000000e+00 0.0000e+00 -1.0000e+00
<mgrwt>
<rscale>  0 0.16414879E+04</rscale>
<asrwt>0</asrwt>
<pdfrwt beam="1">  1        2 0.18245900E+00 0.16414879E+04</pdfrwt>
<pdfrwt beam="2">  1       -2 0.87382281E-01 0.16414879E+04</pdfrwt>
<totfact> 0.26624794E+01</totfact>
</mgrwt>
<rwgt>
<wgt id='morphing_basis_vector_1'> +1.5700788e-04 </wgt>
<wgt id='morphing_basis_vector_2'> +1.0347692e-04 </wgt>
<wgt id='morphing_basis_vector_3'> +1.6464476e-04 </wgt>
<wgt id='morphing_basis_vector_4'> +1.1236316e-04 </wgt>
<wgt id='morphing_basis_vector_5'> +1.7905143e-04 </wgt>
</rwgt>
</event>
<event>
 4      1 +1.5130300e-07 1.59434200e+03 7.81860800e-03 8.26216000e-02
        2 -1    0    0  501    0 +0.0000000000e+00 +0.0000000000e+00 +2.1876807370e+03 2.1876807370e+03 0.0000000000e+00 0.0000e+00 -1.0000e+00
       -2 -1    0    0    0  501 -0.0000000000e+00 -0.0000000000e+00 -2.9048170105e+02 2.9048170105e+02 0.0000000000e+00 0.0000e+00 1.0000e+00
      -13  1    1    2    0    0 -2.3598204601e+02 -4.5008390979e+02 -6.0516655152e+00 5.0823191021e+02 0.0000000000e+00 0.0000e+00 1.0000e+00
       13  1    1    2    0    0 +2.3598204601e+02 +4.5008390979e+02 +1.9032507015e+03 1.9699305279e+03 0.0000000000e+00 0.0000e+00 -1.0000e+00
<mgrwt>
<rscale>  0 0.15943415E+04</rscale>
<asrwt>0</asrwt>
<pdfrwt beam="1">  1        2 0.33656626E+00 0.15943415E+04</pdfrwt>
<pdfrwt beam="2">  1       -2 0.44689494E-01 0.15943415E+04</pdfrwt>
<totfact> 0.29681825E+01</totfact>
</mgrwt>
<rwgt>
<wgt id='morphing_basis_vector_1'> +1.4026380e-04 </wgt>
<wgt id='morphing_basis_vector_2'> +9.2334395e-05 </wgt>
<wgt id='morphing_basis_vector_3'> +1.4662346e-04 </wgt>
<wgt id='morphing_basis_vector_4'> +9.9588695e-05 </wgt>
<wgt id='morphing_basis_vector_5'> +1.5876790e-04 </wgt>
</rwgt>
</event>
<event>
 4      1 +1.5130300e-07 1.65673700e+03 7.81860800e-03 8.22926200e-02
        2 -1    0    0  501    0 +0.0000000000e+00 +0.0000000000e+00 +2.5381006921e+03 2.5381006921e+03 0.0000000000e+00 0.0000e+00 1.0000e+00
       -2 -1    0    0    0  501 -0.0000000000e+00 -0.0000000000e+00 -2.7035741424e+02 2.7035741424e+02 0.0000000000e+00 0.0000e+00 -1.0000e+00
      -13  1    1    2    0    0 +2.8184036087e+02 -3.6122473366e+02 -3.6016162956e+01 4.5958074504e+02 0.0000000000e+00 0.0000e+00 -1.0000e+00
       13  1    1    2    0    0 -2.8184036087e+02 +3.6122473366e+02 +2.3037594408e+03 2.3488773613e+03 0.0000000000e+00 0.0000e+00 1.0000e+00
<mgrwt>
<rscale>  0 0.16567370E+04</rscale>
<asrwt>0</asrwt>
<pdfrwt beam="1">  1        2 0.39047701E+00 0.16567370E+04</pdfrwt>
<pdfrwt beam="2">  1       -2 0.41593450E-01 0.16567370E+04</pdfrwt>
<totfact> 0.21133172E+01</totfact>
</mgrwt>
<rwgt>
<wgt id='morphing_basis_vector_1'> +1.6272942e-04 </wgt>
<wgt id='morphing_basis_vector_2'> +1.0727339e-04 </wgt>
<wgt id='morphing_basis_vector_3'> +1.7080735e-04 </wgt>
<wgt id='morphing_basis_vector_4'> +1.1675424e-04 </wgt>
<wgt id='morphing_basis_vector_5'> +1.8600646e-04 </wgt>
</rwgt>
</event>
<event>
 4      1 +1.5130300e-07 1.72095800e+03 7.81860800e-03 8.19691900e-02
        2 -1    0    0  501    0 +0.0000000000e+00 +0.0000000000e+00 +9.2355548755e+02 9.2355548755e+02 0.0000000000e+00 0.0000e+00 1.0000e+00
       -2 -1    0    0    0  501 -0.0000000000e+00 -0.0000000000e+00 -8.0171060233e+02 8.0171060233e+02 0.0000000000e+00 0.0000e+00 -1.0000e+00
      -13  1    1    2    0    0 -2.5280881857e+01 -3.7406349970e+02 -7.1552365562e+02 8.0779745391e+02 0.0000000000e+00 0.0000e+00 -1.0000e+00
       13  1    1    2    0    0 +2.5280881857e+01 +3.7406349970e+02 +8.3736854084e+02 9.1746863597e+02 0.0000000000e+00 0.0000e+00 1.0000e+00
<mgrwt>
<rscale>  0 0.17209581E+04</rscale>
<asrwt>0</asrwt>
<pdfrwt beam="1">  1        2 0.14208546E+00 0.17209581E+04</pdfrwt>
<pdfrwt beam="2">  1       -2 0.12334009E+00 0.17209581E+04</pdfrwt>
<totfact> 0.16416208E+01</totfact>
</mgrwt>
<rwgt>
<wgt id='morphing_basis_vector_1'> +1.8861609e-04 </wgt>
<wgt id='morphing_basis_vector_2'> +1.2454171e-04 </wgt>
<wgt id='morphing_basis_vector_3'> +1.9873406e-04 </wgt>
<wgt id='morphing_basis_vector_4'> +1.3658732e-04 </wgt>
<wgt id='morphing_basis_vector_5'> +2.1751624e-04 </wgt>
</rwgt>
</event>
<event>
 4      1 +1.5130300e-07 1.82303100e+03 7.81860800e-03 8.14837400e-02
        2 -1    0    0  501    0 +0.0000000000e+00 +0.0000000000e+00 +1.6427152074e+03 1.6427152074e+03 0.0000000000e+00 0.0000e+00 1.0000e+00
       -2 -1    0    0    0  501 -0.0000000000e+00 -0.0000000000e+00 -5.0578511256e+02 5.0578511256e+02 0.0000000000e+00 0.0000e+00 -1.0000e+00
      -13  1    1    2    0    0 +8.9856484713e+02 +1.2163569319e+02 +4.5887509848e+02 1.0162580294e+03 0.0000000000e+00 0.0000e+00 1.0000e+00
       13  1    1    2    0    0 -8.9856484713e+02 -1.2163569319e+02 +6.7805499631e+02 1.1322422905e+03 0.0000000000e+00 0.0000e+00 -1.0000e+00
<mgrwt>
<rscale>  0 0.18230314E+04</rscale>
<asrwt>0</asrwt>
<pdfrwt beam="1">  1        2 0.25272541E+00 0.18230314E+04</pdfrwt>
<pdfrwt beam="2">  1       -2 0.77813095E-01 0.18230314E+04</pdfrwt>
<totfact> 0.18832385E+01</totfact>
</mgrwt>
<rwgt>
<wgt id='morphing_basis_vector_1'> +2.4200046e-04 </wgt>
<wgt id='morphing_basis_vector_2'> +1.7390569e-04 </wgt>
<wgt id='morphing_basis_vector_3'> +2.5846015e-04 </wgt>
<wgt id='morphing_basis_vector_4'> +1.6145030e-04 </wgt>
<wgt id='morphing_basis_vector_5'> +2.7463845e-04 </wgt>
</rwgt>
</event>
<event>
 4      1 +1.5130300e-07 1.76189900e+03 7.81860800e-03 8.17704500e-02
        2 -1    0    0  501    0 +0.0000000000e+00 +0.0000000000e+00 +1.6093570653e+03 1.6093570653e+03 0.0000000000e+00 0.0000e+00 1.0000e+00
       -2 -1    0    0    0  501 -0.0000000000e+00 -0.0000000000e+00 -4.8222472722e+02 4.8222472722e+02 0.0000000000e+00 0.0000e+00 -1.0000e+00
      -13  1    1    2    0    0 +5.0168455136e+02 -3.5437096574e+02 -1.8611143721e+02 6.4179719342e+02 0.0000000000e+00 0.0000e+00 -1.0000e+00
       13  1    1    2    0    0 -5.0168455136e+02 +3.5437096574e+02 +1.3132437752e+03 1.4497845991e+03 0.0000000000e+00 0.0000e+00 1.0000e+00
<mgrwt>
<rscale>  0 0.17618987E+04</rscale>
<asrwt>0</asrwt>
<pdfrwt beam="1">  1        2 0.24759339E+00 0.17618987E+04</pdfrwt>
<pdfrwt beam="2">  1       -2 0.74188420E-01 0.17618987E+04</pdfrwt>
<totfact> 0.21963417E+01</totfact>
</mgrwt>
<rwgt>
<wgt id='morphing_basis_vector_1'> +2.0690348e-04 </wgt>
<wgt id='morphing_basis_vector_2'> +1.3728030e-04 </wgt>
<wgt id='morphing_basis_vector_3'> +2.1856592e-04 </wgt>
<wgt id='morphing_basis_vector_4'> +1.5002407e-04 </wgt>
<wgt id='morphing_basis_vector_5'> +2.3953674e-04 </wgt>
</rwgt>
</event>
<event>
 4      1 +1.5130300e-07 1.68707800e+03 7.81860800e-03 8.21379800e-02
        2 -1    0    0  501    0 +0.0000000000e+00 +0.0000000000e+00 +1.0775060712e+03 1.0775060712e+03 0.0000000000e+00 0.0000e+00 1.0000e+00
       -2 -1    0    0    0  501 -0.0000000000e+00 -0.0000000000e+00 -6.6037532851e+02 6.6037532851e+02 0.0000000000e+00 0.0000e+00 -1.0000e+00
      -13  1    1    2    0    0 +2.9609545501e+02 +7.8978774582e+02 +2.1990708845e+02 8.7166296782e+02 0.0000000000e+00 0.0000e+00 -1.0000e+00
       13  1    1    2    0    0 -2.9609545501e+02 -7.8978774582e+02 +1.9722365422e+02 8.6621843187e+02 0.0000000000e+00 0.0000e+00 1.0000e+00
<mgrwt>
<rscale>  0 0.16870785E+04</rscale>
<asrwt>0</asrwt>
<pdfrwt beam="1">  1        2 0.16577016E+00 0.16870785E+04</pdfrwt>
<pdfrwt beam="2">  1       -2 0.10159620E+00 0.16870785E+04</pdfrwt>
<totfact> 0.21546289E+01</totfact>
</mgrwt>
<rwgt>
<wgt id='morphing_basis_vector_1'> +1.8122889e-04 </wgt>
<wgt id='morphing_basis_vector_2'> +1.3488966e-04 </wgt>
<wgt id='morphing_basis_vector_3'> +1.9274464e-04 </wgt>
<wgt id='morphing_basis_vector_4'> +1.1307855e-04 </wgt>
<wgt id='morphing_basis_vector_5'> +1.9946171e-04 </wgt>
</rwgt>
</event>
<event>
 4      1 +1.5130300e-07 1.77438500e+03 7.81860800e-03 8.17109400e-02
        2 -1    0    0  501    0 +0.0000000000e+00 +0.0000000000e+00 +1.5893349166e+03 1.5893349166e+03 0.0000000000e+00 0.0000e+00 1.0000e+00
       -2 -1    0    0    0  501 -0.0000000000e+00 -0.0000000000e+00 -4.9524511567e+02 4.9524511567e+02 0.0000000000e+00 0.0000e+00 -1.0000e+00
      -13  1    1    2    0    0 +6.9003887945e+02 -4.8914644686e+02 +2.3248201133e+02 8.7719198995e+02 0.0000000000e+00 0.0000e+00 -1.0000e+00
       13  1    1    2    0    0 -6.9003887945e+02 +4.8914644686e+02 +8.6160778961e+02 1.2073880423e+03 0.0000000000e+00 0.0000e+00 1.0000e+00
<mgrwt>
<rscale>  0 0.17743848E+04</rscale>
<asrwt>0</asrwt>
<pdfrwt beam="1">  1        2 0.24451306E+00 0.17743848E+04</pdfrwt>
<pdfrwt beam="2">  1       -2 0.76191557E-01 0.17743848E+04</pdfrwt>
<totfact> 0.21225345E+01</totfact>
</mgrwt>
<rwgt>
<wgt id='morphing_basis_vector_1'> +2.1484221e-04 </wgt>
<wgt id='morphing_basis_vector_2'> +1.4759596e-04 </wgt>
<wgt id='morphing_basis_vector_3'> +2.2785358e-04 </wgt>
<wgt id='morphing_basis_vector_4'> +1.5021729e-04 </wgt>
<wgt id='morphing_basis_vector_5'> +2.4625428e-04 </wgt>
</rwgt>
</event>
<event>
 4      1 +1.5130300e-07 1.61936800e+03 7.81860800e-03 8.24878200e-02
        2 -1    0    0  501    0 +0.0000000000e+00 +0.0000000000e+00 +5.7181390897e+02 5.7181390897e+02 0.0000000000e+00 0.0000e+00 1.0000e+00
       -2 -1    0    0    0  501 -0.0000000000e+00 -0.0000000000e+00 -1.1465063318e+03 1.1465063318e+03 0.0000000000e+00 0.0000e+00 -1.0000e+00
      -13  1    1    2    0    0 +2.1805852888e+02 +7.5969170345e+02 -4.7389343224e+02 9.2155086210e+02 0.0000000000e+00 0.0000e+00 -1.0000e+00
       13  1    1    2    0    0 -2.1805852888e+02 -7.5969170345e+02 -1.0079899061e+02 7.9676937869e+02 0.0000000000e+00 0.0000e+00 1.0000e+00
<mgrwt>
<rscale>  0 0.16193681E+04</rscale>
<asrwt>0</asrwt>
<pdfrwt beam="1">  1        2 0.87971373E-01 0.16193681E+04</pdfrwt>
<pdfrwt beam="2">  1       -2 0.17638559E+00 0.16193681E+04</pdfrwt>
<totfact> 0.10890321E+01</totfact>
</mgrwt>
<rwgt>
<wgt id='morphing_basis_vector_1'> +1.5127294e-04 </wgt>
<wgt id='morphing_basis_vector_2'> +1.0496904e-04 </wgt>
<wgt id='morphing_basis_vector_3'> +1.5911193e-04 </wgt>
<wgt id='morphing_basis_vector_4'> +1.0184607e-04 </wgt>
<wgt id='morphing_basis_vector_5'> +1.6897762e-04 </wgt>
</rwgt>
</event>
<event>
 4      1 +1.5130300e-07 1.67685800e+03 7.81860800e-03 8.21897000e-02
        2 -1    0    0  501    0 +0.0000000000e+00 +0.0000000000e+00 +2.1352558944e+03 2.1352558944e+03 0.0000000000e+00 0.0000e+00 1.0000e+00
       -2 -1    0    0    0  501 -0.0000000000e+00 -0.0000000000e+00 -3.2921718774e+02 3.2921718774e+02 0.0000000000e+00 0.0000e+00 -1.0000e+00
      -13  1    1    2    0    0 -3.6622637859e+02 +1.9363862960e+02 -1.6829339809e+02 4.4714689654e+02 0.0000000000e+00 0.0000e+00 -1.0000e+00
       13  1    1    2    0    0 +3.6622637859e+02 -1.9363862960e+02 +1.9743321047e+03 2.0173261856e+03 0.0000000000e+00 0.0000e+00 1.0000e+00
<mgrwt>
<rscale>  0 0.16768577E+04</rscale>
<asrwt>0</asrwt>
<pdfrwt beam="1">  1        2 0.32850090E+00 0.16768577E+04</pdfrwt>
<pdfrwt beam="2">  1       -2 0.50648799E-01 0.16768577E+04</pdfrwt>
<totfact> 0.24754423E+01</totfact>
</mgrwt>
<rwgt>
<wgt id='morphing_basis_vector_1'> +1.7051887e-04 </wgt>
<wgt id='morphing_basis_vector_2'> +1.1244227e-04 </wgt>
<wgt id='morphing_basis_vector_3'> +1.7920166e-04 </wgt>
<wgt id='morphing_basis_vector_4'> +1.2274196e-04 </wgt>
<wgt id='morphing_basis_vector_5'> +1.9548813e-04 </wgt>
</rwgt>
</event>
<event>
 4      1 +1.5130300e-07 1.58361300e+03 7.81860800e-03 8.26797200e-02
        2 -1    0    0  501    0 +0.0000000000e+00 +0.0000000000e+00 +1.3153128026e+03 1.3153128026e+03 0.0000000000e+00 0.0000e+00 1.0000e+00
       -2 -1    0    0    0  501 -0.0000000000e+00 -0.0000000000e+00 -4.7666068689e+02 4.7666068689e+02 0.0000000000e+00 0.0000e+00 -1.0000e+00
      -13  1    1    2    0    0 +1.5481630206e+02 +7.6339356817e+02 +2.5841948216e+02 8.2068170205e+02 0.0000000000e+00 0.0000e+00 -1.0000e+00
       13  1    1    2    0    0 -1.5481630206e+02 -7.6339356817e+02 +5.8023263351e+02 9.7129178742e+02 0.0000000000e+00 0.0000e+00 1.0000e+00
<mgrwt>
<rscale>  0 0.15836135E+04</rscale>
<asrwt>0</asrwt>
<pdfrwt beam="1">  1        2 0.20235581E+00 0.15836135E+04</pdfrwt>
<pdfrwt beam="2">  1       -2 0.73332414E-01 0.15836135E+04</pdfrwt>
<totfact> 0.33465491E+01</totfact>
</mgrwt>
<rwgt>
<wgt id='morphing_basis_vector_1'> +1.3908398e-04 </wgt>
<wgt id='morphing_basis_vector_2'> +9.7172902e-05 </wgt>
<wgt id='morphing_basis_vector_3'> +1.4600645e-04 </wgt>
<wgt id='morphing_basis_vector_4'> +9.2230038e-05 </wgt>
<wgt id='morphing_basis_vector_5'> +1.5405453e-04 </wgt>
</rwgt>
</event>
<event>
 4      1 +1.5130300e-07 1.61597900e+03 7.81860800e-03 8.25057900e-02
        2 -1    0    0  501    0 +0.0000000000e+00 +0.0000000000e+00 +1.7783964734e+03 1.7783964734e+03 0.0000000000e+00 0.0000e+00 1.0000e+00
       -2 -1    0    0    0  501 -0.0000000000e+00 -0.0000000000e+00 -3.6709858707e+02 3.6709858707e+02 0.0000000000e+00 0.0000e+00 -1.0000e+00
      -13  1    1    2    0    0 -4.4293639615e+02 +5.6992276498e+02 +2.2356892344e+02 7.5563726258e+02 0.0000000000e+00 0.0000e+00 -1.0000e+00
       13  1    1    2    0    0 +4.4293639615e+02 -5.6992276498e+02 +1.1877289629e+03 1.3898577979e+03 0.0000000000e+00 0.0000e+00 1.0000e+00
<mgrwt>
<rscale>  0 0.16159788E+04</rscale>
<asrwt>0</asrwt>
<pdfrwt beam="1">  1        2 0.27359945E+00 0.16159788E+04</pdfrwt>
<pdfrwt beam="2">  1       -2 0.56476707E-01 0.16159788E+04</pdfrwt>
<totfact> 0.31737298E+01</totfact>
</mgrwt>
<rwgt>
<wgt id='morphing_basis_vector_1'> +1.4853474e-04 </wgt>
<wgt id='morphing_basis_vector_2'> +9.9601900e-05 </wgt>
<wgt id='morphing_basis_vector_3'> +1.5573456e-04 </wgt>
<wgt id='morphing_basis_vector_4'> +1.0385439e-04 </wgt>
<wgt id='morphing_basis_vector_5'> +1.6774207e-04 </wgt>
</rwgt>
</event>
<event>
 4      1 +1.5130300e-07 1.55070900e+03 7.81860800e-03 8.28610000e-02
        2 -1    0    0  501    0 +0.0000000000e+00 +0.0000000000e+00 +1.8124412836e+03 1.8124412836e+03 0.0000000000e+00 0.0000e+00 1.0000e+00
       -2 -1    0    0    0  501 -0.0000000000e+00 -0.0000000000e+00 -3.3169314897e+02 3.3169314897e+02 0.0000000000e+00 0.0000e+00 -1.0000e+00
      -13  1    1    2    0    0 -1.7525106889e+02 +3.6992901881e+02 -1.7011222133e+02 4.4328160796e+02 0.0000000000e+00 0.0000e+00 -1.0000e+00
       13  1    1    2    0    0 +1.7525106889e+02 -3.6992901881e+02 +1.6508603560e+03 1.7008528246e+03 0.0000000000e+00 0.0000e+00 1.0000e+00
<mgrwt>
<rscale>  0 0.15507087E+04</rscale>
<asrwt>0</asrwt>
<pdfrwt beam="1">  1        2 0.27883712E+00 0.15507087E+04</pdfrwt>
<pdfrwt beam="2">  1       -2 0.51029716E-01 0.15507087E+04</pdfrwt>
<totfact> 0.37415058E+01</totfact>
</mgrwt>
<rwgt>
<wgt id='morphing_basis_vector_1'> +1.2592714e-04 </wgt>
<wgt id='morphing_basis_vector_2'> +8.2611891e-05 </wgt>
<wgt id='morphing_basis_vector_3'> +1.3119674e-04 </wgt>
<wgt id='morphing_basis_vector_4'> +8.8910631e-05 </wgt>
<wgt id='morphing_basis_vector_5'> +1.4157559e-04 </wgt>
</rwgt>
</event>
<event>
 4      1 +1.5130300e-07 1.58869900e+03 7.81860800e-03 8.26521100e-02
        2 -1    0    0  501    0 +0.0000000000e+00 +0.0000000000e+00 +3.0547508927e+03 3.0547508927e+03 0.0000000000e+00 0.0000e+00 -1.0000e+00
       -2 -1    0    0    0  501 -0.0000000000e+00 -0.0000000000e+00 -2.0656058351e+02 2.0656058351e+02 0.0000000000e+00 0.0000e+00 1.0000e+00
      -13  1    1    2    0    0 +5.8160819110e+02 -2.5107844682e+02 +4.4027717672e+02 7.7146125421e+02 0.0000000000e+00 0.0000e+00 1.0000e+00
       13  1    1    2    0    0 -5.8160819110e+02 +2.5107844682e+02 +2.4079131325e+03 2.4898502220e+03 0.0000000000e+00 0.0000e+00 -1.0000e+00
<mgrwt>
<rscale>  0 0.15886990E+04</rscale>
<asrwt>0</asrwt>
<pdfrwt beam="1">  1        2 0.46996164E+00 0.15886990E+04</pdfrwt>
<pdfrwt beam="2">  1       -2 0.31778553E-01 0.15886990E+04</pdfrwt>
<totfact> 0.16587252E+01</totfact>
</mgrwt>
<rwgt>
<wgt id='morphing_basis_vector_1'> +1.3859634e-04 </wgt>
<wgt id='morphing_basis_vector_2'> +9.1783720e-05 </wgt>
<wgt id='morphing_basis_vector_3'> +1.4489559e-04 </wgt>
<wgt id='morphing_basis_vector_4'> +9.7677288e-05 </wgt>
<wgt id='morphing_basis_vector_5'> +1.5642562e-04 </wgt>
</rwgt>
</event>
<event>
 4      1 +1.5130300e-07 1.63121900e+03 7.81860800e-03 8.24253300e-02
        2 -1    0    0  501    0 +0.0000000000e+00 +0.0000000000e+00 +1.4418340997e+03 1.4418340997e+03 0.0000000000e+00 0.0000e+00 -1.0000e+00
       -2 -1    0    0    0  501 -0.0000000000e+00 -0.0000000000e+00 -4.6136971768e+02 4.6136971768e+02 0.0000000000e+00 0.0000e+00 1.0000e+00
      -13  1    1    2    0    0 +3.1336835595e+02 +4.4211848034e+02 -2.2095154285e+02 5.8522479566e+02 0.0000000000e+00 0.0000e+00 1.0000e+00
       13  1    1    2    0    0 -3.1336835595e+02 -4.4211848034e+02 +1.2014159248e+03 1.3179790217e+03 0.0000000000e+00 0.0000e+00 -1.0000e+00
<mgrwt>
<rscale>  0 0.16312187E+04</rscale>
<asrwt>0</asrwt>
<pdfrwt beam="1">  1        2 0.22182063E+00 0.16312187E+04</pdfrwt>
<pdfrwt beam="2">  1       -2 0.70979957E-01 0.16312187E+04</pdfrwt>
<totfact> 0.30329770E+01</totfact>
</mgrwt>
<rwgt>
<wgt id='morphing_basis_vector_1'> +1.5329205e-04 </wgt>
<wgt id='morphing_basis_vector_2'> +1.0112801e-04 </wgt>
<wgt id='morphing_basis_vector_3'> +1.6065836e-04 </wgt>
<wgt id='morphing_basis_vector_4'> +1.0937977e-04 </wgt>
<wgt id='morphing_basis_vector_5'> +1.7447050e-04 </wgt>
</rwgt>
</event>
<event>
 4      1 +1.5130300e-07 1.55464100e+03 7.81860800e-03 8.28390900e-02
        2 -1    0    0  501    0 +0.0000000000e+00 +0.0000000000e+00 +1.5575812675e+03 1.5575812675e+03 0.0000000000e+00 0.0000e+00 -1.0000e+00
       -2 -1    0    0    0  501 -0.0000000000e+00 -0.0000000000e+00 -3.8792660713e+02 3.8792660713e+02 0.0000000000e+00 0.0000e+00 1.0000e+00
      -13  1    1    2    0    0 +1.4270295697e+02 -3.0113985531e+02 -2.9400220886e+02 4.4439469529e+02 0.0000000000e+00 0.0000e+00 1.0000e+00
       13  1    1    2    0    0 -1.4270295697e+02 +3.0113985531e+02 +1.4636568693e+03 1.5011131794e+03 0.0000000000e+00 0.0000e+00 -1.0000e+00
<mgrwt>
<rscale>  0 0.15546411E+04</rscale>
<asrwt>0</asrwt>
<pdfrwt beam="1">  1        2 0.23962788E+00 0.15546411E+04</pdfrwt>
<pdfrwt beam="2">  1       -2 0.59681017E-01 0.15546411E+04</pdfrwt>
<totfact> 0.37826542E+01</totfact>
</mgrwt>
<rwgt>
<wgt id='morphing_basis_vector_1'> +1.2714587e-04 </wgt>
<wgt id='morphing_basis_vector_2'> +8.3378537e-05 </wgt>
<wgt id='morphing_basis_vector_3'> +1.3250040e-04 </wgt>
<wgt id='morphing_basis_vector_4'> +8.9884813e-05 </wgt>
<wgt id='morphing_basis_vector_5'> +1.4306920e-04 </wgt>
</rwgt>
</event>
<event>
 4      1 +1.5130300e-07 1.58942300e+03 7.81860800e-03 8.26481900e-02
        2 -1    0    0  501    0 +0.0000000000e+00 +0.0000000000e+00 +1.3935236423e+03 1.3935236423e+03 0.0000000000e+00 0.0000e+00 1.0000e+00
       -2 -1    0    0    0  501 -0.0000000000e+00 -0.0000000000e+00 -4.5321526955e+02 4.5321526955e+02 0.0000000000e+00 0.0000e+00 -1.0000e+00
      -13  1    1    2    0    0 +1.7428802944e+02 +6.1306350642e+02 -8.1399911410e+01 6.4253336543e+02 0.0000000000e+00 0.0000e+00 1.0000e+00
       13  1    1    2    0    0 -1.7428802944e+02 -6.1306350642e+02 +1.0217082841e+03 1.2042055464e+03 0.0000000000e+00 0.0000e+00 -1.0000e+00
<mgrwt>
<rscale>  0 0.15894228E+04</rscale>
<asrwt>0</asrwt>
<pdfrwt beam="1">  1        2 0.21438825E+00 0.15894228E+04</pdfrwt>
<pdfrwt beam="2">  1       -2 0.69725427E-01 0.15894228E+04</pdfrwt>
<totfact> 0.33671173E+01</totfact>
</mgrwt>
<rwgt>
<wgt id='morphing_basis_vector_1'> +1.3885400e-04 </wgt>
<wgt id='morphing_basis_vector_2'> +9.1987155e-05 </wgt>
<wgt id='morphing_basis_vector_3'> +1.4517643e-04 </wgt>
<wgt id='morphing_basis_vector_4'> +9.7836442e-05 </wgt>
<wgt id='morphing_basis_vector_5'> +1.5671825e-04 </wgt>
</rwgt>
</event>
<event>
 4      1 +1.5130300e-07 1.66684800e+03 7.81860800e-03 8.22407100e-02
        2 -1    0    0  501    0 +0.0000000000e+00 +0.0000000000e+00 +5.4874896454e+02 5.4874896454e+02 0.0000000000e+00 0.0000e+00 -1.0000e+00
       -2 -1    0    0    0  501 -0.0000000000e+00 -0.0000000000e+00 -1.2657795782e+03 1.2657795782e+03 0.0000000000e+00 0.0000e+00 1.0000e+00
      -13  1    1    2    0    0 +1.2747175307e+02 -2.8845755161e+02 -1.1983173081e+03 1.2391211312e+03 0.0000000000e+00 0.0000e+00 1.0000e+00
       13  1    1    2    0    0 -1.2747175307e+02 +2.8845755161e+02 +4.8128669448e+02 5.7540741149e+02 0.0000000000e+00 0.0000e+00 -1.0000e+00
<mgrwt>
<rscale>  0 0.16668476E+04</rscale>
<asrwt>0</asrwt>
<pdfrwt beam="1">  1        2 0.84422919E-01 0.16668476E+04</pdfrwt>
<pdfrwt beam="2">  1       -2 0.19473532E+00 0.16668476E+04</pdfrwt>
<totfact> 0.82829259E+00</totfact>
</mgrwt>
<rwgt>
<wgt id='morphing_basis_vector_1'> +1.6657498e-04 </wgt>
<wgt id='morphing_basis_vector_2'> +1.0974633e-04 </wgt>
<wgt id='morphing_basis_vector_3'> +1.7494085e-04 </wgt>
<wgt id='morphing_basis_vector_4'> +1.1980073e-04 </wgt>
<wgt id='morphing_basis_vector_5'> +1.9073220e-04 </wgt>
</rwgt>
</event>
<event>
 4      1 +1.5130300e-07 1.66837500e+03 7.81860800e-03 8.22329000e-02
        2 -1    0    0  501    0 +0.0000000000e+00 +0.0000000000e+00 +1.2666556422e+03 1.2666556422e+03 0.0000000000e+00 0.0000e+00 -1.0000e+00
       -2 -1    0    0    0  501 -0.0000000000e+00 -0.0000000000e+00 -5.4937500839e+02 5.4937500839e+02 0.0000000000e+00 0.0000e+00 1.0000e+00
      -13  1    1    2    0    0 +7.9971706195e+02 -1.5319837571e+02 +5.5593221379e+02 9.8594003257e+02 0.0000000000e+00 0.0000e+00 1.0000e+00
       13  1    1    2    0    0 -7.9971706195e+02 +1.5319837571e+02 +1.6134842003e+02 8.3009061803e+02 0.0000000000e+00 0.0000e+00 -1.0000e+00
<mgrwt>
<rscale>  0 0.16683752E+04</rscale>
<asrwt>0</asrwt>
<pdfrwt beam="1">  1        2 0.19487010E+00 0.16683752E+04</pdfrwt>
<pdfrwt beam="2">  1       -2 0.84519232E-01 0.16683752E+04</pdfrwt>
<totfact> 0.25755683E+01</totfact>
</mgrwt>
<rwgt>
<wgt id='morphing_basis_vector_1'> +1.8008436e-04 </wgt>
<wgt id='morphing_basis_vector_2'> +1.4853360e-04 </wgt>
<wgt id='morphing_basis_vector_3'> +1.9330789e-04 </wgt>
<wgt id='morphing_basis_vector_4'> +9.5463113e-05 </wgt>
<wgt id='morphing_basis_vector_5'> +1.8956211e-04 </wgt>
</rwgt>
</event>
<event>
 4      1 +1.5130300e-07 1.64039600e+03 7.81860800e-03 8.23773200e-02
        2 -1    0    0  501    0 +0.0000000000e+00 +0.0000000000e+00 +1.3860761947e+03 1.3860761947e+03 0.0000000000e+00 0.0000e+00 -1.0000e+00
       -2 -1    0    0    0  501 -0.0000000000e+00 -0.0000000000e+00 -4.8534487999e+02 4.8534487999e+02 0.0000000000e+00 0.0000e+00 1.0000e+00
      -13  1    1    2    0    0 -2.9780329164e+02 +4.1575961993e+02 -2.8117733341e+02 5.8361250406e+02 0.0000000000e+00 0.0000e+00 1.0000e+00
       13  1    1    2    0    0 +2.9780329164e+02 -4.1575961993e+02 +1.1819086481e+03 1.2878085706e+03 0.0000000000e+00 0.0000e+00 -1.0000e+00
<mgrwt>
<rscale>  0 0.16403963E+04</rscale>
<asrwt>0</asrwt>
<pdfrwt beam="1">  1        2 0.21324249E+00 0.16403963E+04</pdfrwt>
<pdfrwt beam="2">  1       -2 0.74668444E-01 0.16403963E+04</pdfrwt>
<totfact> 0.29184663E+01</totfact>
</mgrwt>
<rwgt>
<wgt id='morphing_basis_vector_1'> +1.5662872e-04 </wgt>
<wgt id='morphing_basis_vector_2'> +1.0328193e-04 </wgt>
<wgt id='morphing_basis_vector_3'> +1.6424349e-04 </wgt>
<wgt id='morphing_basis_vector_4'> +1.1200678e-04 </wgt>
<wgt id='morphing_basis_vector_5'> +1.7855751e-04 </wgt>
</rwgt>
</event>
<event>
 4      1 +1.5130300e-07 1.80635200e+03 7.81860800e-03 8.15608100e-02
        2 -1    0    0  501    0 +0.0000000000e+00 +0.0000000000e+00 +2.0457846175e+03 2.0457846175e+03 0.0000000000e+00 0.0000e+00 -1.0000e+00
       -2 -1    0    0    0  501 -0.0000000000e+00 -0.0000000000e+00 -3.9873565171e+02 3.9873565171e+02 0.0000000000e+00 0.0000e+00 1.0000e+00
      -13  1    1    2    0    0 -4.0087234912e+02 -8.0917024491e+02 +8.0119981049e+02 1.2072183986e+03 0.0000000000e+00 0.0000e+00 1.0000e+00
       13  1    1    2    0    0 +4.0087234912e+02 +8.0917024491e+02 +8.4584915529e+02 1.2373018706e+03 0.0000000000e+00 0.0000e+00 -1.0000e+00
<mgrwt>
<rscale>  0 0.18063524E+04</rscale>
<asrwt>0</asrwt>
<pdfrwt beam="1">  1        2 0.31473609E+00 0.18063524E+04</pdfrwt>
<pdfrwt beam="2">  1       -2 0.61343948E-01 0.18063524E+04</pdfrwt>
<totfact> 0.18686870E+01</totfact>
</mgrwt>
<rwgt>
<wgt id='morphing_basis_vector_1'> +2.3554609e-04 </wgt>
<wgt id='morphing_basis_vector_2'> +1.7385064e-04 </wgt>
<wgt id='morphing_basis_vector_3'> +2.5205892e-04 </wgt>
<wgt id='morphing_basis_vector_4'> +1.5144165e-04 </wgt>
<wgt id='morphing_basis_vector_5'> +2.6417332e-04 </wgt>
</rwgt>
</event>
<event>
 4      1 +1.5130300e-07 1.60465300e+03 7.81860800e-03 8.25661700e-02
        2 -1    0    0  501    0 +0.0000000000e+00 +0.0000000000e+00 +1.4223178743e+03 1.4223178743e+03 0.0000000000e+00 0.0000e+00 1.0000e+00
       -2 -1    0    0    0  501 -0.0000000000e+00 -0.0000000000e+00 -4.5259071238e+02 4.5259071238e+02 0.0000000000e+00 0.0000e+00 -1.0000e+00
      -13  1    1    2    0    0 +5.7266861078e+02 +4.5435496444e+02 +8.7122046969e+02 1.1372831126e+03 0.0000000000e+00 0.0000e+00 -1.0000e+00
       13  1    1    2    0    0 -5.7266861078e+02 -4.5435496444e+02 +9.8506692188e+01 7.3762547400e+02 0.0000000000e+00 0.0000e+00 1.0000e+00
<mgrwt>
<rscale>  0 0.16046531E+04</rscale>
<asrwt>0</asrwt>
<pdfrwt beam="1">  1        2 0.21881813E+00 0.16046531E+04</pdfrwt>
<pdfrwt beam="2">  1       -2 0.69629341E-01 0.16046531E+04</pdfrwt>
<totfact> 0.32488825E+01</totfact>
</mgrwt>
<rwgt>
<wgt id='morphing_basis_vector_1'> +1.6425176e-04 </wgt>
<wgt id='morphing_basis_vector_2'> +1.5552752e-04 </wgt>
<wgt id='morphing_basis_vector_3'> +1.7805058e-04 </wgt>
<wgt id='morphing_basis_vector_4'> +6.3415181e-05 </wgt>
<wgt id='morphing_basis_vector_5'> +1.6011331e-04 </wgt>
</rwgt>
</event>
<event>
 4      1 +1.5130300e-07 1.66691200e+03 7.81860800e-03 8.22403900e-02
        2 -1    0    0  501    0 +0.0000000000e+00 +0.0000000000e+00 +1.4192167383e+03 1.4192167383e+03 0.0000000000e+00 0.0000e+00 -1.0000e+00
       -2 -1    0    0    0  501 -0.0000000000e+00 -0.0000000000e+00 -4.8945931900e+02 4.8945931900e+02 0.0000000000e+00 0.0000e+00 1.0000e+00
      -13  1    1    2    0    0 -4.3542995676e+02 -7.9136011917e+01 -3.4380216940e+02 5.6041206920e+02 0.0000000000e+00 0.0000e+00 1.0000e+00
       13  1    1    2    0    0 +4.3542995676e+02 +7.9136011917e+01 +1.2735595887e+03 1.3482639881e+03 0.0000000000e+00 0.0000e+00 -1.0000e+00
<mgrwt>
<rscale>  0 0.16669119E+04</rscale>
<asrwt>0</asrwt>
<pdfrwt beam="1">  1        2 0.21834104E+00 0.16669119E+04</pdfrwt>
<pdfrwt beam="2">  1       -2 0.75301434E-01 0.16669119E+04</pdfrwt>
<totfact> 0.27377248E+01</totfact>
</mgrwt>
<rwgt>
<wgt id='morphing_basis_vector_1'> +1.6663586e-04 </wgt>
<wgt id='morphing_basis_vector_2'> +1.0986978e-04 </wgt>
<wgt id='morphing_basis_vector_3'> +1.7501705e-04 </wgt>
<wgt id='morphing_basis_vector_4'> +1.1975086e-04 </wgt>
<wgt id='morphing_basis_vector_5'> +1.9075726e-04 </wgt>
</rwgt>
</event>
<event>
 4      1 +1.5130300e-07 1.58198800e+03 7.81860800e-03 8.26885700e-02
        2 -1    0    0  501    0 +0.0000000000e+00 +0.0000000000e+00 +4.5522879108e+02 4.5522879108e+02 0.0000000000e+00 0.0000e+00 -1.0000e+00
       -2 -1    0    0    0  501 -0.0000000000e+00 -0.0000000000e+00 -1.3744103648e+03 1.3744103648e+03 0.0000000000e+00 0.0000e+00 1.0000e+00
      -13  1    1    2    0    0 -5.8433664268e+02 +5.3287609104e+02 -4.4076614743e+02 9.0536237889e+02 0.0000000000e+00 0.0000e+00 1.0000e+00
       13  1    1    2    0    0 +5.8433664268e+02 -5.3287609104e+02 -4.7841542632e+02 9.2427677701e+02 0.0000000000e+00 0.0000e+00 -1.0000e+00
<mgrwt>
<rscale>  0 0.15819876E+04</rscale>
<asrwt>0</asrwt>
<pdfrwt beam="1">  1        2 0.70035199E-01 0.15819876E+04</pdfrwt>
<pdfrwt beam="2">  1       -2 0.21144775E+00 0.15819876E+04</pdfrwt>
<totfact> 0.78077612E+00</totfact>
</mgrwt>
<rwgt>
<wgt id='morphing_basis_vector_1'> +1.4133893e-04 </wgt>
<wgt id='morphing_basis_vector_2'> +1.0513605e-04 </wgt>
<wgt id='morphing_basis_vector_3'> +1.4917675e-04 </wgt>
<wgt id='morphing_basis_vector_4'> +8.6523607e-05 </wgt>
<wgt id='morphing_basis_vector_5'> +1.5300213e-04 </wgt>
</rwgt>
</event>
<event>
 4      1 +1.5130300e-07 1.79560100e+03 7.81860800e-03 8.16109400e-02
        2 -1    0    0  501    0 +0.0000000000e+00 +0.0000000000e+00 +1.7045821199e+03 1.7045821199e+03 0.0000000000e+00 0.0000e+00 -1.0000e+00
       -2 -1    0    0    0  501 -0.0000000000e+00 -0.0000000000e+00 -4.7287005213e+02 4.7287005213e+02 0.0000000000e+00 0.0000e+00 1.0000e+00
      -13  1    1    2    0    0 +4.3342354206e+02 +4.1460267067e+01 -3.3627134853e+02 5.5013938270e+02 0.0000000000e+00 0.0000e+00 1.0000e+00
       13  1    1    2    0    0 -4.3342354206e+02 -4.1460267067e+01 +1.5679834163e+03 1.6273127894e+03 0.0000000000e+00 0.0000e+00 -1.0000e+00
<mgrwt>
<rscale>  0 0.17956011E+04</rscale>
<asrwt>0</asrwt>
<pdfrwt beam="1">  1        2 0.26224340E+00 0.17956011E+04</pdfrwt>
<pdfrwt beam="2">  1       -2 0.72749239E-01 0.17956011E+04</pdfrwt>
<totfact> 0.20231661E+01</totfact>
</mgrwt>
<rwgt>
<wgt id='morphing_basis_vector_1'> +2.2256123e-04 </wgt>
<wgt id='morphing_basis_vector_2'> +1.4736067e-04 </wgt>
<wgt id='morphing_basis_vector_3'> +2.3544785e-04 </wgt>
<wgt id='morphing_basis_vector_4'> +1.6253751e-04 </wgt>
<wgt id='morphing_basis_vector_5'> +2.5893028e-04 </wgt>
</rwgt>
</event>
<event>
 4      1 +1.5130300e-07 1.59003500e+03 7.81860800e-03 8.26448800e-02
        2 -1    0    0  501    0 +0.0000000000e+00 +0.0000000000e+00 +1.8992442581e+03 1.8992442581e+03 0.0000000000e+00 0.0000e+00 -1.0000e+00
       -2 -1    0    0    0  501 -0.0000000000e+00 -0.0000000000e+00 -3.3279160496e+02 3.3279160496e+02 0.0000000000e+00 0.0000e+00 1.0000e+00
      -13  1    1    2    0    0 +3.1379754070e+02 -6.9833300874e+02 +1.0840210778e+03 1.3271170200e+03 0.0000000000e+00 0.0000e+00 1.0000e+00
       13  1    1    2    0    0 -3.1379754070e+02 +6.9833300874e+02 +4.8243157536e+02 9.0491884307e+02 0.0000000000e+00 0.0000e+00 -1.0000e+00
<mgrwt>
<rscale>  0 0.15900346E+04</rscale>
<asrwt>0</asrwt>
<pdfrwt beam="1">  1        2 0.29219142E+00 0.15900346E+04</pdfrwt>
<pdfrwt beam="2">  1       -2 0.51198709E-01 0.15900346E+04</pdfrwt>
<totfact> 0.33143988E+01</totfact>
</mgrwt>
<rwgt>
<wgt id='morphing_basis_vector_1'> +1.5142645e-04 </wgt>
<wgt id='morphing_basis_vector_2'> +1.2892646e-04 </wgt>
<wgt id='morphing_basis_vector_3'> +1.6203554e-04 </wgt>
<wgt id='morphing_basis_vector_4'> +7.4541493e-05 </wgt>
<wgt id='morphing_basis_vector_5'> +1.5519971e-04 </wgt>
</rwgt>
</event>
<event>
 4      1 +1.5130300e-07 1.85259200e+03 7.81860800e-03 8.13492500e-02
        2 -1    0    0  501    0 +0.0000000000e+00 +0.0000000000e+00 +1.9484759108e+03 1.9484759108e+03 0.0000000000e+00 0.0000e+00 -1.0000e+00
       -2 -1    0    0    0  501 -0.0000000000e+00 -0.0000000000e+00 -4.4035684901e+02 4.4035684901e+02 0.0000000000e+00 0.0000e+00 1.0000e+00
      -13  1    1    2    0    0 -8.5215760687e+02 +2.9260601319e+02 +1.0313186672e+03 1.3694557529e+03 0.0000000000e+00 0.0000e+00 1.0000e+00
       13  1    1    2    0    0 +8.5215760687e+02 -2.9260601319e+02 +4.7680039458e+02 1.0193770069e+03 0.0000000000e+00 0.0000e+00 -1.0000e+00
<mgrwt>
<rscale>  0 0.18525925E+04</rscale>
<asrwt>0</asrwt>
<pdfrwt beam="1">  1        2 0.29976552E+00 0.18525925E+04</pdfrwt>
<pdfrwt beam="2">  1       -2 0.67747208E-01 0.18525925E+04</pdfrwt>
<totfact> 0.17152190E+01</totfact>
</mgrwt>
<rwgt>
<wgt id='morphing_basis_vector_1'> +2.7184078e-04 </wgt>
<wgt id='morphing_basis_vector_2'> +2.2728678e-04 </wgt>
<wgt id='morphing_basis_vector_3'> +2.9578586e-04 </wgt>
<wgt id='morphing_basis_vector_4'> +1.4465362e-04 </wgt>
<wgt id='morphing_basis_vector_5'> +2.9117432e-04 </wgt>
</rwgt>
</event>
<event>
 4      1 +1.5130300e-07 1.74484100e+03 7.81860800e-03 8.18525800e-02
        2 -1    0    0  501    0 +0.0000000000e+00 +0.0000000000e+00 +1.1020782942e+03 1.1020782942e+03 0.0000000000e+00 0.0000e+00 1.0000e+00
       -2 -1    0    0    0  501 -0.0000000000e+00 -0.0000000000e+00 -6.9061989047e+02 6.9061989047e+02 0.0000000000e+00 0.0000e+00 -1.0000e+00
      -13  1    1    2    0    0 +2.9903006298e+02 -7.5898016107e+02 +5.2348086839e+02 9.6927915640e+02 0.0000000000e+00 0.0000e+00 1.0000e+00
       13  1    1    2    0    0 -2.9903006298e+02 +7.5898016107e+02 -1.1202246469e+02 8.2341902824e+02 0.0000000000e+00 0.0000e+00 -1.0000e+00
<mgrwt>
<rscale>  0 0.17448406E+04</rscale>
<asrwt>0</asrwt>
<pdfrwt beam="1">  1        2 0.16955051E+00 0.17448406E+04</pdfrwt>
<pdfrwt beam="2">  1       -2 0.10624921E+00 0.17448406E+04</pdfrwt>
<totfact> 0.18565334E+01</totfact>
</mgrwt>
<rwgt>
<wgt id='morphing_basis_vector_1'> +2.2291639e-04 </wgt>
<wgt id='morphing_basis_vector_2'> +2.0249039e-04 </wgt>
<wgt id='morphing_basis_vector_3'> +2.4333209e-04 </wgt>
<wgt id='morphing_basis_vector_4'> +9.8186420e-05 </wgt>
<wgt id='morphing_basis_vector_5'> +2.2661714e-04 </wgt>
</rwgt>
</event>
<event>
 4      1 +1.5130300e-07 1.79329600e+03 7.81860800e-03 8.16217400e-02
        2 -1    0    0  501    0 +0.0000000000e+00 +0.0000000000e+00 +1.6562638007e+03 1.6562638007e+03 0.0000000000e+00 0.0000e+00 -1.0000e+00
       -2 -1    0    0    0  501 -0.0000000000e+00 -0.0000000000e+00 -4.8541641293e+02 4.8541641293e+02 0.0000000000e+00 0.0000e+00 1.0000e+00
      -13  1    1    2    0    0 +5.7898632872e+02 -3.9617976776e+02 -8.1439212735e+01 7.0626901574e+02 0.0000000000e+00 0.0000e+00 1.0000e+00
       13  1    1    2    0    0 -5.7898632872e+02 +3.9617976776e+02 +1.2522866005e+03 1.4354111979e+03 0.0000000000e+00 0.0000e+00 -1.0000e+00
<mgrwt>
<rscale>  0 0.17932960E+04</rscale>
<asrwt>0</asrwt>
<pdfrwt beam="1">  1        2 0.25480981E+00 0.17932960E+04</pdfrwt>
<pdfrwt beam="2">  1       -2 0.74679449E-01 0.17932960E+04</pdfrwt>
<totfact> 0.20330155E+01</totfact>
</mgrwt>
<rwgt>
<wgt id='morphing_basis_vector_1'> +2.2189058e-04 </wgt>
<wgt id='morphing_basis_vector_2'> +1.4792386e-04 </wgt>
<wgt id='morphing_basis_vector_3'> +2.3486608e-04 </wgt>
<wgt id='morphing_basis_vector_4'> +1.6082312e-04 </wgt>
<wgt id='morphing_basis_vector_5'> +2.5750322e-04 </wgt>
</rwgt>
</event>
<event>
 4      1 +1.5130300e-07 1.77450700e+03 7.81860800e-03 8.17103600e-02
        2 -1    0    0  501    0 +0.0000000000e+00 +0.0000000000e+00 +7.8833212577e+02 7.8833212577e+02 0.0000000000e+00 0.0000e+00 1.0000e+00
       -2 -1    0    0    0  501 -0.0000000000e+00 -0.0000000000e+00 -9.9858784396e+02 9.9858784396e+02 0.0000000000e+00 0.0000e+00 -1.0000e+00
      -13  1    1    2    0    0 +6.7002491311e+02 +3.2001276278e+02 +3.8394149927e+02 8.3591424643e+02 0.0000000000e+00 0.0000e+00 1.0000e+00
       13  1    1    2    0    0 -6.7002491311e+02 -3.2001276278e+02 -5.9419721745e+02 9.5100572330e+02 0.0000000000e+00 0.0000e+00 -1.0000e+00
<mgrwt>
<rscale>  0 0.17745071E+04</rscale>
<asrwt>0</asrwt>
<pdfrwt beam="1">  1        2 0.12128187E+00 0.17745071E+04</pdfrwt>
<pdfrwt beam="2">  1       -2 0.15362890E+00 0.17745071E+04</pdfrwt>
<totfact> 0.11014412E+01</totfact>
</mgrwt>
<rwgt>
<wgt id='morphing_basis_vector_1'> +2.5660347e-04 </wgt>
<wgt id='morphing_basis_vector_2'> +2.7141277e-04 </wgt>
<wgt id='morphing_basis_vector_3'> +2.8646773e-04 </wgt>
<wgt id='morphing_basis_vector_4'> +6.9105744e-05 </wgt>
<wgt id='morphing_basis_vector_5'> +2.4005198e-04 </wgt>
</rwgt>
</event>
<event>
 4      1 +1.5130300e-07 1.69135300e+03 7.81860800e-03 8.21164600e-02
        2 -1    0    0  501    0 +0.0000000000e+00 +0.0000000000e+00 +8.2554452136e+02 8.2554452136e+02 0.0000000000e+00 0.0000e+00 -1.0000e+00
       -2 -1    0    0    0  501 -0.0000000000e+00 -0.0000000000e+00 -8.6629963153e+02 8.6629963153e+02 0.0000000000e+00 0.0000e+00 1.0000e+00
      -13  1    1    2    0    0 +4.7242123499e+02 +1.9819822590e+02 -6.9340608798e+02 8.6213477071e+02 0.0000000000e+00 0.0000e+00 1.0000e+00
       13  1    1    2    0    0 -4.7242123499e+02 -1.9819822590e+02 +6.5265097781e+02 8.2970938217e+02 0.0000000000e+00 0.0000e+00 -1.0000e+00
<mgrwt>
<rscale>  0 0.16913532E+04</rscale>
<asrwt>0</asrwt>
<pdfrwt beam="1">  1        2 0.12700685E+00 0.16913532E+04</pdfrwt>
<pdfrwt beam="2">  1       -2 0.13327687E+00 0.16913532E+04</pdfrwt>
<totfact> 0.15559353E+01</totfact>
</mgrwt>
<rwgt>
<wgt id='morphing_basis_vector_1'> +1.7637779e-04 </wgt>
<wgt id='morphing_basis_vector_2'> +1.1650249e-04 </wgt>
<wgt id='morphing_basis_vector_3'> +1.8554119e-04 </wgt>
<wgt id='morphing_basis_vector_4'> +1.2705144e-04 </wgt>
<wgt id='morphing_basis_vector_5'> +2.0252718e-04 </wgt>
</rwgt>
</event>
<event>
 4      1 +1.5130300e-07 1.74652200e+03 7.81860800e-03 8.18444500e-02
        2 -1    0    0  501    0 +0.0000000000e+00 +0.0000000000e+00 +1.1174774927e+03 1.1174774927e+03 0.0000000000e+00 0.0000e+00 1.0000e+00
       -2 -1    0    0    0  501 -0.0000000000e+00 -0.0000000000e+00 -6.8241588230e+02 6.8241588230e+02 0.0000000000e+00 0.0000e+00 -1.0000e+00
      -13  1    1    2    0    0 -7.6436757560e+02 +1.9379934195e+02 +6.0418741217e+02 9.9340747158e+02 0.0000000000e+00 0.0000e+00 -1.0000e+00
       13  1    1    2    0    0 +7.6436757560e+02 -1.9379934195e+02 -1.6912580179e+02 8.0648590341e+02 0.0000000000e+00 0.0000e+00 1.0000e+00
<mgrwt>
<rscale>  0 0.17465216E+04</rscale>
<asrwt>0</asrwt>
<pdfrwt beam="1">  1        2 0.17191961E+00 0.17465216E+04</pdfrwt>
<pdfrwt beam="2">  1       -2 0.10498706E+00 0.17465216E+04</pdfrwt>
<totfact> 0.18717066E+01</totfact>
</mgrwt>
<rwgt>
<wgt id='morphing_basis_vector_1'> +2.2982869e-04 </wgt>
<wgt id='morphing_basis_vector_2'> +2.2129368e-04 </wgt>
<wgt id='morphing_basis_vector_3'> +2.5275888e-04 </wgt>
<wgt id='morphing_basis_vector_4'> +8.6793305e-05 </wgt>
<wgt id='morphing_basis_vector_5'> +2.2660669e-04 </wgt>
</rwgt>
</event>
<event>
 4      1 +1.5130300e-07 1.69677900e+03 7.81860800e-03 8.20892400e-02
        2 -1    0    0  501    0 +0.0000000000e+00 +0.0000000000e+00 +1.0603456494e+03 1.0603456494e+03 0.0000000000e+00 0.0000e+00 -1.0000e+00
       -2 -1    0    0    0  501 -0.0000000000e+00 -0.0000000000e+00 -6.7880231981e+02 6.7880231981e+02 0.0000000000e+00 0.0000e+00 1.0000e+00
      -13  1    1    2    0    0 +1.6145920281e+02 -1.2648546448e+02 -6.5300803462e+02 6.8446120429e+02 0.0000000000e+00 0.0000e+00 1.0000e+00
       13  1    1    2    0    0 -1.6145920281e+02 +1.2648546448e+02 +1.0345513642e+03 1.0546867649e+03 0.0000000000e+00 0.0000e+00 -1.0000e+00
<mgrwt>
<rscale>  0 0.16967794E+04</rscale>
<asrwt>0</asrwt>
<pdfrwt beam="1">  1        2 0.16313010E+00 0.16967794E+04</pdfrwt>
<pdfrwt beam="2">  1       -2 0.10443113E+00 0.16967794E+04</pdfrwt>
<totfact> 0.20615926E+01</totfact>
</mgrwt>
<rwgt>
<wgt id='morphing_basis_vector_1'> +1.7849644e-04 </wgt>
<wgt id='morphing_basis_vector_2'> +1.1771370e-04 </wgt>
<wgt id='morphing_basis_vector_3'> +1.8780068e-04 </wgt>
<wgt id='morphing_basis_vector_4'> +1.2891148e-04 </wgt>
<wgt id='morphing_basis_vector_5'> +2.0522669e-04 </wgt>
</rwgt>
</event>
<event>
 4      1 +1.5130300e-07 1.66966200e+03 7.81860800e-03 8.22263300e-02
        2 -1    0    0  501    0 +0.0000000000e+00 +0.0000000000e+00 +1.6592725177e+03 1.6592725177e+03 0.0000000000e+00 0.0000e+00 -1.0000e+00
       -2 -1    0    0    0  501 -0.0000000000e+00 -0.0000000000e+00 -4.2002906957e+02 4.2002906957e+02 0.0000000000e+00 0.0000e+00 1.0000e+00
      -13  1    1    2    0    0 -5.0893893762e+02 +2.4295239701e+02 -1.4694524453e+02 5.8278436349e+02 0.0000000000e+00 0.0000e+00 1.0000e+00
       13  1    1    2    0    0 +5.0893893762e+02 -2.4295239701e+02 +1.3861886926e+03 1.4965172237e+03 0.0000000000e+00 0.0000e+00 -1.0000e+00
<mgrwt>
<rscale>  0 0.16696619E+04</rscale>
<asrwt>0</asrwt>
<pdfrwt beam="1">  1        2 0.25527269E+00 0.16696619E+04</pdfrwt>
<pdfrwt beam="2">  1       -2 0.64619858E-01 0.16696619E+04</pdfrwt>
<totfact> 0.27896241E+01</totfact>
</mgrwt>
<rwgt>
<wgt id='morphing_basis_vector_1'> +1.6781471e-04 </wgt>
<wgt id='morphing_basis_vector_2'> +1.1090945e-04 </wgt>
<wgt id='morphing_basis_vector_3'> +1.7632041e-04 </wgt>
<wgt id='morphing_basis_vector_4'> +1.2035739e-04 </wgt>
<wgt id='morphing_basis_vector_5'> +1.9204031e-04 </wgt>
</rwgt>
</event>
<event>
 4      1 +1.5130300e-07 1.76823900e+03 7.81860800e-03 8.17401700e-02
        2 -1    0    0  501    0 +0.0000000000e+00 +0.0000000000e+00 +3.6597173518e+02 3.6597173518e+02 0.0000000000e+00 0.0000e+00 1.0000e+00
       -2 -1    0    0    0  501 -0.0000000000e+00 -0.0000000000e+00 -2.1358677292e+03 2.1358677292e+03 0.0000000000e+00 0.0000e+00 -1.0000e+00
      -13  1    1    2    0    0 +6.8297797824e+02 -3.1425022741e+02 -1.5432154761e+03 1.7166030787e+03 0.0000000000e+00 0.0000e+00 -1.0000e+00
       13  1    1    2    0    0 -6.8297797824e+02 +3.1425022741e+02 -2.2668051796e+02 7.8523638569e+02 0.0000000000e+00 0.0000e+00 1.0000e+00
<mgrwt>
<rscale>  0 0.17682389E+04</rscale>
<asrwt>0</asrwt>
<pdfrwt beam="1">  1        2 0.56303343E-01 0.17682389E+04</pdfrwt>
<pdfrwt beam="2">  1       -2 0.32859504E+00 0.17682389E+04</pdfrwt>
<totfact> 0.15458159E+00</totfact>
</mgrwt>
<rwgt>
<wgt id='morphing_basis_vector_1'> +2.1039904e-04 </wgt>
<wgt id='morphing_basis_vector_2'> +1.4096329e-04 </wgt>
<wgt id='morphing_basis_vector_3'> +2.2253369e-04 </wgt>
<wgt id='morphing_basis_vector_4'> +1.5112411e-04 </wgt>
<wgt id='morphing_basis_vector_5'> +2.4300722e-04 </wgt>
</rwgt>
</event>
<event>
 4      1 +1.5130300e-07 1.64787200e+03 7.81860800e-03 8.23384500e-02
        2 -1    0    0  501    0 +0.0000000000e+00 +0.0000000000e+00 +2.0615384187e+03 2.0615384187e+03 0.0000000000e+00 0.0000e+00 1.0000e+00
       -2 -1    0    0    0  501 -0.0000000000e+00 -0.0000000000e+00 -3.2930275119e+02 3.2930275119e+02 0.0000000000e+00 0.0000e+00 -1.0000e+00
      -13  1    1    2    0    0 -2.7189153423e+02 -7.6911338346e+02 +6.9810609848e+02 1.0736910765e+03 0.0000000000e+00 0.0000e+00 -1.0000e+00
       13  1    1    2    0    0 +2.7189153423e+02 +7.6911338346e+02 +1.0341295690e+03 1.3171500934e+03 0.0000000000e+00 0.0000e+00 1.0000e+00
<mgrwt>
<rscale>  0 0.16478717E+04</rscale>
<asrwt>0</asrwt>
<pdfrwt beam="1">  1        2 0.31715975E+00 0.16478717E+04</pdfrwt>
<pdfrwt beam="2">  1       -2 0.50661963E-01 0.16478717E+04</pdfrwt>
<totfact> 0.27304845E+01</totfact>
</mgrwt>
<rwgt>
<wgt id='morphing_basis_vector_1'> +1.6276404e-04 </wgt>
<wgt id='morphing_basis_vector_2'> +1.1510273e-04 </wgt>
<wgt id='morphing_basis_vector_3'> +1.7181992e-04 </wgt>
<wgt id='morphing_basis_vector_4'> +1.0771837e-04 </wgt>
<wgt id='morphing_basis_vector_5'> +1.8144721e-04 </wgt>
</rwgt>
</event>
<event>
 4      1 +1.5130300e-07 1.70737700e+03 7.81860800e-03 8.20363700e-02
        2 -1    0    0  501    0 +0.0000000000e+00 +0.0000000000e+00 +1.7806117797e+03 1.7806117797e+03 0.0000000000e+00 0.0000e+00 1.0000e+00
       -2 -1    0    0    0  501 -0.0000000000e+00 -0.0000000000e+00 -4.0928863452e+02 4.0928863452e+02 0.0000000000e+00 0.0000e+00 -1.0000e+00
      -13  1    1    2    0    0 +6.6404003039e+02 +1.0720646472e+02 +1.3599072620e+03 1.5171651688e+03 0.0000000000e+00 0.0000e+00 -1.0000e+00
       13  1    1    2    0    0 -6.6404003039e+02 -1.0720646472e+02 +1.1415883129e+01 6.7273524541e+02 0.0000000000e+00 0.0000e+00 1.0000e+00
<mgrwt>
<rscale>  0 0.17073771E+04</rscale>
<asrwt>0</asrwt>
<pdfrwt beam="1">  1        2 0.27394027E+00 0.17073771E+04</pdfrwt>
<pdfrwt beam="2">  1       -2 0.62967483E-01 0.17073771E+04</pdfrwt>
<totfact> 0.25125781E+01</totfact>
</mgrwt>
<rwgt>
<wgt id='morphing_basis_vector_1'> +2.2743103e-04 </wgt>
<wgt id='morphing_basis_vector_2'> +2.5301731e-04 </wgt>
<wgt id='morphing_basis_vector_3'> +2.5422627e-04 </wgt>
<wgt id='morphing_basis_vector_4'> +4.6265351e-05 </wgt>
<wgt id='morphing_basis_vector_5'> +2.0395688e-04 </wgt>
</rwgt>
</event>
<event>
 4      1 +1.5130300e-07 1.62493000e+03 7.81860800e-03 8.24584300e-02
        2 -1    0    0  501    0 +0.0000000000e+00 +0.0000000000e+00 +6.5851991876e+02 6.5851991876e+02 0.0000000000e+00 0.0000e+00 -1.0000e+00
       -2 -1    0    0    0  501 -0.0000000000e+00 -0.0000000000e+00 -1.0023982023e+03 1.0023982023e+03 0.0000000000e+00 0.0000e+00 1.0000e+00
      -13  1    1    2    0    0 +1.4535692415e+02 +7.4084585653e+02 -4.7878432933e+02 8.9398861992e+02 0.0000000000e+00 0.0000e+00 1.0000e+00
       13  1    1    2    0    0 -1.4535692415e+02 -7.4084585653e+02 +1.3490604579e+02 7.6692950114e+02 0.0000000000e+00 0.0000e+00 -1.0000e+00
<mgrwt>
<rscale>  0 0.16249298E+04</rscale>
<asrwt>0</asrwt>
<pdfrwt beam="1">  1        2 0.10131076E+00 0.16249298E+04</pdfrwt>
<pdfrwt beam="2">  1       -2 0.15421511E+00 0.16249298E+04</pdfrwt>
<totfact> 0.13785382E+01</totfact>
</mgrwt>
<rwgt>
<wgt id='morphing_basis_vector_1'> +1.5214798e-04 </wgt>
<wgt id='morphing_basis_vector_2'> +1.0297642e-04 </wgt>
<wgt id='morphing_basis_vector_3'> +1.5974445e-04 </wgt>
<wgt id='morphing_basis_vector_4'> +1.0548742e-04 </wgt>
<wgt id='morphing_basis_vector_5'> +1.7154969e-04 </wgt>
</rwgt>
</event>
<event>
 4      1 +1.5130300e-07 1.62114700e+03 7.81860800e-03 8.24784000e-02
        2 -1    0    0  501    0 +0.0000000000e+00 +0.0000000000e+00 +3.5207440296e+02 3.5207440296e+02 0.0000000000e+00 0.0000e+00 1.0000e+00
       -2 -1    0    0    0  501 -0.0000000000e+00 -0.0000000000e+00 -1.8661666123e+03 1.8661666123e+03 0.0000000000e+00 0.0000e+00 -1.0000e+00
      -13  1    1    2    0    0 -5.6070020989e+02 +1.5499045258e+02 -1.5294148288e+03 1.6363118543e+03 0.0000000000e+00 0.0000e+00 -1.0000e+00
       13  1    1    2    0    0 +5.6070020989e+02 -1.5499045258e+02 +1.5322619472e+01 5.8192916101e+02 0.0000000000e+00 0.0000e+00 1.0000e+00
<mgrwt>
<rscale>  0 0.16211471E+04</rscale>
<asrwt>0</asrwt>
<pdfrwt beam="1">  1        2 0.54165294E-01 0.16211471E+04</pdfrwt>
<pdfrwt beam="2">  1       -2 0.28710255E+00 0.16211471E+04</pdfrwt>
<totfact> 0.31047625E+00</totfact>
</mgrwt>
<rwgt>
<wgt id='morphing_basis_vector_1'> +1.4972002e-04 </wgt>
<wgt id='morphing_basis_vector_2'> +9.8884865e-05 </wgt>
<wgt id='morphing_basis_vector_3'> +1.5682891e-04 </wgt>
<wgt id='morphing_basis_vector_4'> +1.0649778e-04 </wgt>
<wgt id='morphing_basis_vector_5'> +1.7006185e-04 </wgt>
</rwgt>
</event>
<event>
 4      1 +1.5130300e-07 1.68772800e+03 7.81860800e-03 8.21347000e-02
        2 -1    0    0  501    0 +0.0000000000e+00 +0.0000000000e+00 +3.0106586845e+03 3.0106586845e+03 0.0000000000e+00 0.0000e+00 -1.0000e+00
       -2 -1    0    0    0  501 -0.0000000000e+00 -0.0000000000e+00 -2.3652859299e+02 2.3652859299e+02 0.0000000000e+00 0.0000e+00 1.0000e+00
      -13  1    1    2    0    0 +4.5207655246e+02 +3.6629821343e+02 +2.1112679894e+02 6.1896859021e+02 0.0000000000e+00 0.0000e+00 1.0000e+00
       13  1    1    2    0    0 -4.5207655246e+02 -3.6629821343e+02 +2.5630032925e+03 2.6282186872e+03 0.0000000000e+00 0.0000e+00 -1.0000e+00
<mgrwt>
<rscale>  0 0.16877285E+04</rscale>
<asrwt>0</asrwt>
<pdfrwt beam="1">  1        2 0.46317823E+00 0.16877285E+04</pdfrwt>
<pdfrwt beam="2">  1       -2 0.36389017E-01 0.16877285E+04</pdfrwt>
<totfact> 0.13734174E+01</totfact>
</mgrwt>
<rwgt>
<wgt id='morphing_basis_vector_1'> +1.7500162e-04 </wgt>
<wgt id='morphing_basis_vector_2'> +1.1578301e-04 </wgt>
<wgt id='morphing_basis_vector_3'> +1.8408231e-04 </wgt>
<wgt id='morphing_basis_vector_4'> +1.2576529e-04 </wgt>
<wgt id='morphing_basis_vector_5'> +2.0073448e-04 </wgt>
</rwgt>
</event>
<event>
 4      1 +1.5130300e-07 1.73532300e+03 7.81860800e-03 8.18988200e-02
        2 -1    0    0  501    0 +0.0000000000e+00 +0.0000000000e+00 +9.4338345963e+02 9.4338345963e+02 0.0000000000e+00 0.0000e+00 -1.0000e+00
       -2 -1    0    0    0  501 -0.0000000000e+00 -0.0000000000e+00 -7.9801701927e+02 7.9801701927e+02 0.0000000000e+00 0.0000e+00 1.0000e+00
      -13  1    1    2    0    0 -1.5487737476e+02 -5.3991646193e+02 -5.9094935526e+02 8.1530235346e+02 0.0000000000e+00 0.0000e+00 1.0000e+00
       13  1    1    2    0    0 +1.5487737476e+02 +5.3991646193e+02 +7.3631579562e+02 9.2609812544e+02 0.0000000000e+00 0.0000e+00 -1.0000e+00
<mgrwt>
<rscale>  0 0.17353225E+04</rscale>
<asrwt>0</asrwt>
<pdfrwt beam="1">  1        2 0.14513592E+00 0.17353225E+04</pdfrwt>
<pdfrwt beam="2">  1       -2 0.12277185E+00 0.17353225E+04</pdfrwt>
<totfact> 0.16116248E+01</totfact>
</mgrwt>
<rwgt>
<wgt id='morphing_basis_vector_1'> +1.9494006e-04 </wgt>
<wgt id='morphing_basis_vector_2'> +1.2906320e-04 </wgt>
<wgt id='morphing_basis_vector_3'> +2.0560494e-04 </wgt>
<wgt id='morphing_basis_vector_4'> +1.4109257e-04 </wgt>
<wgt id='morphing_basis_vector_5'> +2.2505513e-04 </wgt>
</rwgt>
</event>
<event>
 4      1 +1.5130300e-07 1.83119700e+03 7.81860800e-03 8.14463200e-02
        2 -1    0    0  501    0 +0.0000000000e+00 +0.0000000000e+00 +3.5357265524e+03 3.5357265524e+03 0.0000000000e+00 0.0000e+00 -1.0000e+00
       -2 -1    0    0    0  501 -0.0000000000e+00 -0.0000000000e+00 -2.3709996361e+02 2.3709996361e+02 0.0000000000e+00 0.0000e+00 1.0000e+00
      -13  1    1    2    0    0 -3.4652390654e+02 +7.3418915871e+02 +7.7712435066e+02 1.1238482082e+03 0.0000000000e+00 0.0000e+00 1.0000e+00
       13  1    1    2    0    0 +3.4652390654e+02 -7.3418915871e+02 +2.5215022381e+03 2.6489783079e+03 0.0000000000e+00 0.0000e+00 -1.0000e+00
<mgrwt>
<rscale>  0 0.18311970E+04</rscale>
<asrwt>0</asrwt>
<pdfrwt beam="1">  1        2 0.54395789E+00 0.18311970E+04</pdfrwt>
<pdfrwt beam="2">  1       -2 0.36476920E-01 0.18311970E+04</pdfrwt>
<totfact> 0.58675357E+00</totfact>
</mgrwt>
<rwgt>
<wgt id='morphing_basis_vector_1'> +2.4153198e-04 </wgt>
<wgt id='morphing_basis_vector_2'> +1.6298254e-04 </wgt>
<wgt id='morphing_basis_vector_3'> +2.5641397e-04 </wgt>
<wgt id='morphing_basis_vector_4'> +1.7368896e-04 </wgt>
<wgt id='morphing_basis_vector_5'> +2.8043248e-04 </wgt>
</rwgt>
</event>
<event>
 4      1 +1.5130300e-07 1.58978900e+03 7.81860800e-03 8.26462000e-02
        2 -1    0    0  501    0 +0.0000000000e+00 +0.0000000000e+00 +1.4515169027e+03 1.4515169027e+03 0.0000000000e+00 0.0000e+00 -1.0000e+00
       -2 -1    0    0    0  501 -0.0000000000e+00 -0.0000000000e+00 -4.3530846878e+02 4.3530846878e+02 0.0000000000e+00 0.0000e+00 1.0000e+00
      -13  1    1    2    0    0 +9.4440440536e+00 +6.5312603185e+02 -2.9515610240e+01 6.5386082212e+02 0.0000000000e+00 0.0000e+00 1.0000e+00
       13  1    1    2    0    0 -9.4440440536e+00 -6.5312603185e+02 +1.0457240441e+03 1.2329645493e+03 0.0000000000e+00 0.0000e+00 -1.0000e+00
<mgrwt>
<rscale>  0 0.15897894E+04</rscale>
<asrwt>0</asrwt>
<pdfrwt beam="1">  1        2 0.22331029E+00 0.15897894E+04</pdfrwt>
<pdfrwt beam="2">  1       -2 0.66970534E-01 0.15897894E+04</pdfrwt>
<totfact> 0.34026507E+01</totfact>
</mgrwt>
<rwgt>
<wgt id='morphing_basis_vector_1'> +1.3904165e-04 </wgt>
<wgt id='morphing_basis_vector_2'> +9.2259959e-05 </wgt>
<wgt id='morphing_basis_vector_3'> +1.4539553e-04 </wgt>
<wgt id='morphing_basis_vector_4'> +9.7809044e-05 </wgt>
<wgt id='morphing_basis_vector_5'> +1.5685849e-04 </wgt>
</rwgt>
</event>
<event>
 4      1 +1.5130300e-07 1.71418800e+03 7.81860800e-03 8.20026000e-02
        2 -1    0    0  501    0 +0.0000000000e+00 +0.0000000000e+00 +5.2953630475e+02 5.2953630475e+02 0.0000000000e+00 0.0000e+00 -1.0000e+00
       -2 -1    0    0    0  501 -0.0000000000e+00 -0.0000000000e+00 -1.3872710040e+03 1.3872710040e+03 0.0000000000e+00 0.0000e+00 1.0000e+00
      -13  1    1    2    0    0 +1.3555695232e+02 +3.0022047333e+02 -1.3136622282e+03 1.3543324812e+03 0.0000000000e+00 0.0000e+00 1.0000e+00
       13  1    1    2    0    0 -1.3555695232e+02 -3.0022047333e+02 +4.5592752895e+02 5.6247482752e+02 0.0000000000e+00 0.0000e+00 -1.0000e+00
<mgrwt>
<rscale>  0 0.17141883E+04</rscale>
<asrwt>0</asrwt>
<pdfrwt beam="1">  1        2 0.81467124E-01 0.17141883E+04</pdfrwt>
<pdfrwt beam="2">  1       -2 0.21342631E+00 0.17141883E+04</pdfrwt>
<totfact> 0.62882470E+00</totfact>
</mgrwt>
<rwgt>
<wgt id='morphing_basis_vector_1'> +1.8573649e-04 </wgt>
<wgt id='morphing_basis_vector_2'> +1.2259023e-04 </wgt>
<wgt id='morphing_basis_vector_3'> +1.9562098e-04 </wgt>
<wgt id='morphing_basis_vector_4'> +1.3441157e-04 </wgt>
<wgt id='morphing_basis_vector_5'> +2.1402213e-04 </wgt>
</rwgt>
</event>
<event>
 4      1 +1.5130300e-07 1.77001700e+03 7.81860800e-03 8.17317000e-02
        2 -1    0    0  501    0 +0.0000000000e+00 +0.0000000000e+00 +1.6232773443e+03 1.6232773443e+03 0.0000000000e+00 0.0000e+00 -1.0000e+00
       -2 -1    0    0    0  501 -0.0000000000e+00 -0.0000000000e+00 -4.8250523296e+02 4.8250523296e+02 0.0000000000e+00 0.0000e+00 1.0000e+00
      -13  1    1    2    0    0 +4.0770876105e+02 -2.4482119881e+02 -3.1757386462e+02 5.7185401346e+02 0.0000000000e+00 0.0000e+00 1.0000e+00
       13  1    1    2    0    0 -4.0770876105e+02 +2.4482119881e+02 +1.4583459759e+03 1.5339285637e+03 0.0000000000e+00 0.0000e+00 -1.0000e+00
<mgrwt>
<rscale>  0 0.17700167E+04</rscale>
<asrwt>0</asrwt>
<pdfrwt beam="1">  1        2 0.24973497E+00 0.17700167E+04</pdfrwt>
<pdfrwt beam="2">  1       -2 0.74231575E-01 0.17700167E+04</pdfrwt>
<totfact> 0.21532545E+01</totfact>
</mgrwt>
<rwgt>
<wgt id='morphing_basis_vector_1'> +2.1047385e-04 </wgt>
<wgt id='morphing_basis_vector_2'> +1.3929599e-04 </wgt>
<wgt id='morphing_basis_vector_3'> +2.2237494e-04 </wgt>
<wgt id='morphing_basis_vector_4'> +1.5320833e-04 </wgt>
<wgt id='morphing_basis_vector_5'> +2.4412418e-04 </wgt>
</rwgt>
</event>
<event>
 4      1 +1.5130300e-07 1.66566700e+03 7.81860800e-03 8.22467600e-02
        2 -1    0    0  501    0 +0.0000000000e+00 +0.0000000000e+00 +1.4683298360e+03 1.4683298360e+03 0.0000000000e+00 0.0000e+00 -1.0000e+00
       -2 -1    0    0    0  501 -0.0000000000e+00 -0.0000000000e+00 -4.7238134162e+02 4.7238134162e+02 0.0000000000e+00 0.0000e+00 1.0000e+00
      -13  1    1    2    0    0 +2.4960959720e+02 +4.7079107538e+02 -2.4776294050e+02 5.8765267153e+02 0.0000000000e+00 0.0000e+00 1.0000e+00
       13  1    1    2    0    0 -2.4960959720e+02 -4.7079107538e+02 +1.2437114349e+03 1.3530585061e+03 0.0000000000e+00 0.0000e+00 -1.0000e+00
<mgrwt>
<rscale>  0 0.16656670E+04</rscale>
<asrwt>0</asrwt>
<pdfrwt beam="1">  1        2 0.22589690E+00 0.16656670E+04</pdfrwt>
<pdfrwt beam="2">  1       -2 0.72674053E-01 0.16656670E+04</pdfrwt>
<totfact> 0.27770339E+01</totfact>
</mgrwt>
<rwgt>
<wgt id='morphing_basis_vector_1'> +1.6622195e-04 </wgt>
<wgt id='morphing_basis_vector_2'> +1.0975124e-04 </wgt>
<wgt id='morphing_basis_vector_3'> +1.7459089e-04 </wgt>
<wgt id='morphing_basis_vector_4'> +1.1925100e-04 </wgt>
<wgt id='morphing_basis_vector_5'> +1.9016126e-04 </wgt>
</rwgt>
</event>
<event>
 4      1 +1.5130300e-07 1.82162700e+03 7.81860800e-03 8.14902000e-02
        2 -1    0    0  501    0 +0.0000000000e+00 +0.0000000000e+00 +2.8728023014e+03 2.8728023014e+03 0.0000000000e+00 0.0000e+00 1.0000e+00
       -2 -1    0    0    0  501 -0.0000000000e+00 -0.0000000000e+00 -2.8877066620e+02 2.8877066620e+02 0.0000000000e+00 0.0000e+00 -1.0000e+00
      -13  1    1    2    0    0 +4.2377898488e+02 +2.9908604791e+02 -7.3968275660e+00 5.1874445070e+02 0.0000000000e+00 0.0000e+00 -1.0000e+00
       13  1    1    2    0    0 -4.2377898488e+02 -2.9908604791e+02 +2.5914284628e+03 2.6428285169e+03 0.0000000000e+00 0.0000e+00 1.0000e+00
<mgrwt>
<rscale>  0 0.18216268E+04</rscale>
<asrwt>0</asrwt>
<pdfrwt beam="1">  1        2 0.44196956E+00 0.18216268E+04</pdfrwt>
<pdfrwt beam="2">  1       -2 0.44426258E-01 0.18216268E+04</pdfrwt>
<totfact> 0.11438016E+01</totfact>
</mgrwt>
<rwgt>
<wgt id='morphing_basis_vector_1'> +2.3546258e-04 </wgt>
<wgt id='morphing_basis_vector_2'> +1.5613996e-04 </wgt>
<wgt id='morphing_basis_vector_3'> +2.4943450e-04 </wgt>
<wgt id='morphing_basis_vector_4'> +1.7231017e-04 </wgt>
<wgt id='morphing_basis_vector_5'> +2.7465560e-04 </wgt>
</rwgt>
</event>
<event>
 4      1 +1.5130300e-07 1.78076000e+03 7.81860800e-03 8.16807400e-02
        2 -1    0    0  501    0 +0.0000000000e+00 +0.0000000000e+00 +3.0637039222e+03 3.0637039222e+03 0.0000000000e+00 0.0000e+00 -1.0000e+00
       -2 -1    0    0    0  501 -0.0000000000e+00 -0.0000000000e+00 -2.5876395905e+02 2.5876395905e+02 0.0000000000e+00 0.0000e+00 1.0000e+00
      -13  1    1    2    0    0 +1.5845239582e+02 +6.8289147292e+02 +3.7829204321e+02 7.9658822203e+02 0.0000000000e+00 0.0000e+00 1.0000e+00
       13  1    1    2    0    0 -1.5845239582e+02 -6.8289147292e+02 +2.4266479199e+03 2.5258796592e+03 0.0000000000e+00 0.0000e+00 -1.0000e+00
<mgrwt>
<rscale>  0 0.17807596E+04</rscale>
<asrwt>0</asrwt>
<pdfrwt beam="1">  1        2 0.47133904E+00 0.17807596E+04</pdfrwt>
<pdfrwt beam="2">  1       -2 0.39809842E-01 0.17807596E+04</pdfrwt>
<totfact> 0.10643330E+01</totfact>
</mgrwt>
<rwgt>
<wgt id='morphing_basis_vector_1'> +2.1592226e-04 </wgt>
<wgt id='morphing_basis_vector_2'> +1.4393193e-04 </wgt>
<wgt id='morphing_basis_vector_3'> +2.2840760e-04 </wgt>
<wgt id='morphing_basis_vector_4'> +1.5622840e-04 </wgt>
<wgt id='morphing_basis_vector_5'> +2.5019679e-04 </wgt>
</rwgt>
</event>
<event>
 4      1 +1.5130300e-07 1.71878900e+03 7.81860800e-03 8.19798800e-02
        2 -1    0    0  501    0 +0.0000000000e+00 +0.0000000000e+00 +8.4447500102e+02 8.4447500102e+02 0.0000000000e+00 0.0000e+00 -1.0000e+00
       -2 -1    0    0    0  501 -0.0000000000e+00 -0.0000000000e+00 -8.7457737485e+02 8.7457737485e+02 0.0000000000e+00 0.0000e+00 1.0000e+00
      -13  1    1    2    0    0 +8.8023022636e+01 +3.4459105005e+02 -7.9751871010e+02 8.7322799844e+02 0.0000000000e+00 0.0000e+00 1.0000e+00
       13  1    1    2    0    0 -8.8023022636e+01 -3.4459105005e+02 +7.6741633627e+02 8.4582437743e+02 0.0000000000e+00 0.0000e+00 -1.0000e+00
<mgrwt>
<rscale>  0 0.17187888E+04</rscale>
<asrwt>0</asrwt>
<pdfrwt beam="1">  1        2 0.12991923E+00 0.17187888E+04</pdfrwt>
<pdfrwt beam="2">  1       -2 0.13455037E+00 0.17187888E+04</pdfrwt>
<totfact> 0.14682775E+01</totfact>
</mgrwt>
<rwgt>
<wgt id='morphing_basis_vector_1'> +1.8768827e-04 </wgt>
<wgt id='morphing_basis_vector_2'> +1.2390960e-04 </wgt>
<wgt id='morphing_basis_vector_3'> +1.9773049e-04 </wgt>
<wgt id='morphing_basis_vector_4'> +1.3589005e-04 </wgt>
<wgt id='morphing_basis_vector_5'> +2.1639221e-04 </wgt>
</rwgt>
</event>
<event>
 4      1 +1.5130300e-07 1.76274900e+03 7.81860800e-03 8.17663800e-02
        2 -1    0    0  501    0 +0.0000000000e+00 +0.0000000000e+00 +3.0903690391e+03 3.0903690391e+03 0.0000000000e+00 0.0000e+00 1.0000e+00
       -2 -1    0    0    0  501 -0.0000000000e+00 -0.0000000000e+00 -2.5136849186e+02 2.5136849186e+02 0.0000000000e+00 0.0000e+00 -1.0000e+00
      -13  1    1    2    0    0 -7.0973871507e+02 -2.9549348967e+02 +2.2366027075e+03 2.3650448447e+03 0.0000000000e+00 0.0000e+00 1.0000e+00
       13  1    1    2    0    0 +7.0973871507e+02 +2.9549348967e+02 +6.0239783970e+02 9.7669268626e+02 0.0000000000e+00 0.0000e+00 -1.0000e+00
<mgrwt>
<rscale>  0 0.17627494E+04</rscale>
<asrwt>0</asrwt>
<pdfrwt beam="1">  1        2 0.47544136E+00 0.17627494E+04</pdfrwt>
<pdfrwt beam="2">  1       -2 0.38672078E-01 0.17627494E+04</pdfrwt>
<totfact> 0.10807757E+01</totfact>
</mgrwt>
<rwgt>
<wgt id='morphing_basis_vector_1'> +2.4394854e-04 </wgt>
<wgt id='morphing_basis_vector_2'> +2.4635304e-04 </wgt>
<wgt id='morphing_basis_vector_3'> +2.7033317e-04 </wgt>
<wgt id='morphing_basis_vector_4'> +7.9090533e-05 </wgt>
<wgt id='morphing_basis_vector_5'> +2.3451410e-04 </wgt>
</rwgt>
</event>
<event>
 4      1 +1.5130300e-07 1.57881100e+03 7.81860800e-03 8.27058900e-02
        2 -1    0    0  501    0 +0.0000000000e+00 +0.0000000000e+00 +3.3664847046e+03 3.3664847046e+03 0.0000000000e+00 0.0000e+00 1.0000e+00
       -2 -1    0    0    0  501 -0.0000000000e+00 -0.0000000000e+00 -1.8510745864e+02 1.8510745864e+02 0.0000000000e+00 0.0000e+00 -1.0000e+00
      -13  1    1    2    0    0 -2.1333035930e+02 +5.8585360562e+02 +5.0151590391e+02 8.0015779149e+02 0.0000000000e+00 0.0000e+00 -1.0000e+00
       13  1    1    2    0    0 +2.1333035930e+02 -5.8585360562e+02 +2.6798613420e+03 2.7514343717e+03 0.0000000000e+00 0.0000e+00 1.0000e+00
<mgrwt>
<rscale>  0 0.15788115E+04</rscale>
<asrwt>0</asrwt>
<pdfrwt beam="1">  1        2 0.51792068E+00 0.15788115E+04</pdfrwt>
<pdfrwt beam="2">  1       -2 0.28478073E-01 0.15788115E+04</pdfrwt>
<totfact> 0.12410932E+01</totfact>
</mgrwt>
<rwgt>
<wgt id='morphing_basis_vector_1'> +1.3526527e-04 </wgt>
<wgt id='morphing_basis_vector_2'> +8.9491449e-05 </wgt>
<wgt id='morphing_basis_vector_3'> +1.4130492e-04 </wgt>
<wgt id='morphing_basis_vector_4'> +9.5232578e-05 </wgt>
<wgt id='morphing_basis_vector_5'> +1.5244671e-04 </wgt>
</rwgt>
</event>
<event>
 4      1 +1.5130300e-07 1.72113500e+03 7.81860800e-03 8.19683200e-02
        2 -1    0    0  501    0 +0.0000000000e+00 +0.0000000000e+00 +8.9934513883e+02 8.9934513883e+02 0.0000000000e+00 0.0000e+00 1.0000e+00
       -2 -1    0    0    0  501 -0.0000000000e+00 -0.0000000000e+00 -8.2346140132e+02 8.2346140132e+02 0.0000000000e+00 0.0000e+00 -1.0000e+00
      -13  1    1    2    0    0 -7.5837698844e+02 -1.9047553305e+02 +3.9767856757e+02 8.7724844165e+02 0.0000000000e+00 0.0000e+00 1.0000e+00
       13  1    1    2    0    0 +7.5837698844e+02 +1.9047553305e+02 -3.2179483005e+02 8.4555809850e+02 0.0000000000e+00 0.0000e+00 -1.0000e+00
<mgrwt>
<rscale>  0 0.17211345E+04</rscale>
<asrwt>0</asrwt>
<pdfrwt beam="1">  1        2 0.13836079E+00 0.17211345E+04</pdfrwt>
<pdfrwt beam="2">  1       -2 0.12668637E+00 0.17211345E+04</pdfrwt>
<totfact> 0.15864202E+01</totfact>
</mgrwt>
<rwgt>
<wgt id='morphing_basis_vector_1'> +2.1610527e-04 </wgt>
<wgt id='morphing_basis_vector_2'> +2.0601442e-04 </wgt>
<wgt id='morphing_basis_vector_3'> +2.3688892e-04 </wgt>
<wgt id='morphing_basis_vector_4'> +8.3648798e-05 </wgt>
<wgt id='morphing_basis_vector_5'> +2.1353779e-04 </wgt>
</rwgt>
</event>
<event>
 4      1 +1.5130300e-07 1.56317400e+03 7.81860800e-03 8.27917900e-02
        2 -1    0    0  501    0 +0.0000000000e+00 +0.0000000000e+00 +2.2330081293e+03 2.2330081293e+03 0.0000000000e+00 0.0000e+00 1.0000e+00
       -2 -1    0    0    0  501 -0.0000000000e+00 -0.0000000000e+00 -2.7356734488e+02 2.7356734488e+02 0.0000000000e+00 0.0000e+00 -1.0000e+00
      -13  1    1    2    0    0 +3.8094061342e+02 -6.5692624555e+02 +1.2763071186e+03 1.4851355844e+03 0.0000000000e+00 0.0000e+00 1.0000e+00
       13  1    1    2    0    0 -3.8094061342e+02 +6.5692624555e+02 +6.8313366579e+02 1.0214398898e+03 0.0000000000e+00 0.0000e+00 -1.0000e+00
<mgrwt>
<rscale>  0 0.15631738E+04</rscale>
<asrwt>0</asrwt>
<pdfrwt beam="1">  1        2 0.34353970E+00 0.15631738E+04</pdfrwt>
<pdfrwt beam="2">  1       -2 0.42087285E-01 0.15631738E+04</pdfrwt>
<totfact> 0.31428387E+01</totfact>
</mgrwt>
<rwgt>
<wgt id='morphing_basis_vector_1'> +1.4054340e-04 </wgt>
<wgt id='morphing_basis_vector_2'> +1.1698528e-04 </wgt>
<wgt id='morphing_basis_vector_3'> +1.4967889e-04 </wgt>
<wgt id='morphing_basis_vector_4'> +7.1783667e-05 </wgt>
<wgt id='morphing_basis_vector_5'> +1.4483119e-04 </wgt>
</rwgt>
</event>
<event>
 4      1 +1.5130300e-07 1.55986000e+03 7.81860800e-03 8.28101200e-02
        2 -1    0    0  501    0 +0.0000000000e+00 +0.0000000000e+00 +6.0387463184e+02 6.0387463184e+02 0.0000000000e+00 0.0000e+00 -1.0000e+00
       -2 -1    0    0    0  501 -0.0000000000e+00 -0.0000000000e+00 -1.0073135533e+03 1.0073135533e+03 0.0000000000e+00 0.0000e+00 1.0000e+00
      -13  1    1    2    0    0 +4.4456218842e+02 +3.5741023295e+02 -7.5111783155e+02 9.4316255803e+02 0.0000000000e+00 0.0000e+00 1.0000e+00
       13  1    1    2    0    0 -4.4456218842e+02 -3.5741023295e+02 +3.4767891008e+02 6.6802562713e+02 0.0000000000e+00 0.0000e+00 -1.0000e+00
<mgrwt>
<rscale>  0 0.15598604E+04</rscale>
<asrwt>0</asrwt>
<pdfrwt beam="1">  1        2 0.92903790E-01 0.15598604E+04</pdfrwt>
<pdfrwt beam="2">  1       -2 0.15497131E+00 0.15598604E+04</pdfrwt>
<totfact> 0.15151389E+01</totfact>
</mgrwt>
<rwgt>
<wgt id='morphing_basis_vector_1'> +1.2897688e-04 </wgt>
<wgt id='morphing_basis_vector_2'> +8.4998798e-05 </wgt>
<wgt id='morphing_basis_vector_3'> +1.3451192e-04 </wgt>
<wgt id='morphing_basis_vector_4'> +9.0813356e-05 </wgt>
<wgt id='morphing_basis_vector_5'> +1.4504137e-04 </wgt>
</rwgt>
</event>
<event>
 4      1 +1.5130300e-07 1.55768800e+03 7.81860800e-03 8.28221600e-02
        2 -1    0    0  501    0 +0.0000000000e+00 +0.0000000000e+00 +2.9977106398e+03 2.9977106398e+03 0.0000000000e+00 0.0000e+00 -1.0000e+00
       -2 -1    0    0    0  501 -0.0000000000e+00 -0.0000000000e+00 -2.0235383624e+02 2.0235383624e+02 0.0000000000e+00 0.0000e+00 1.0000e+00
      -13  1    1    2    0    0 -5.7694720724e+02 +2.9878620751e+02 +5.1535927752e+02 8.2929877769e+02 0.0000000000e+00 0.0000e+00 1.0000e+00
       13  1    1    2    0    0 +5.7694720724e+02 -2.9878620751e+02 +2.2799975261e+03 2.3707656984e+03 0.0000000000e+00 0.0000e+00 -1.0000e+00
<mgrwt>
<rscale>  0 0.15576883E+04</rscale>
<asrwt>0</asrwt>
<pdfrwt beam="1">  1        2 0.46118622E+00 0.15576883E+04</pdfrwt>
<pdfrwt beam="2">  1       -2 0.31131362E-01 0.15576883E+04</pdfrwt>
<totfact> 0.18798796E+01</totfact>
</mgrwt>
<rwgt>
<wgt id='morphing_basis_vector_1'> +1.2852765e-04 </wgt>
<wgt id='morphing_basis_vector_2'> +8.5260381e-05 </wgt>
<wgt id='morphing_basis_vector_3'> +1.3409213e-04 </wgt>
<wgt id='morphing_basis_vector_4'> +8.9831838e-05 </wgt>
<wgt id='morphing_basis_vector_5'> +1.4417366e-04 </wgt>
</rwgt>
</event>
<event>
 4      1 +1.5130300e-07 1.72625800e+03 7.81860800e-03 8.19431500e-02
        2 -1    0    0  501    0 +0.0000000000e+00 +0.0000000000e+00 +2.3142430419e+03 2.3142430419e+03 0.0000000000e+00 0.0000e+00 -1.0000e+00
       -2 -1    0    0    0  501 -0.0000000000e+00 -0.0000000000e+00 -3.2191580894e+02 3.2191580894e+02 0.0000000000e+00 0.0000e+00 1.0000e+00
      -13  1    1    2    0    0 +5.8528309199e+01 +8.5025136105e+02 +7.8768035012e+02 1.1605142282e+03 0.0000000000e+00 0.0000e+00 1.0000e+00
       13  1    1    2    0    0 -5.8528309199e+01 -8.5025136105e+02 +1.2046468829e+03 1.4756446226e+03 0.0000000000e+00 0.0000e+00 -1.0000e+00
<mgrwt>
<rscale>  0 0.17262577E+04</rscale>
<asrwt>0</asrwt>
<pdfrwt beam="1">  1        2 0.35603738E+00 0.17262577E+04</pdfrwt>
<pdfrwt beam="2">  1       -2 0.49525511E-01 0.17262577E+04</pdfrwt>
<totfact> 0.20337367E+01</totfact>
</mgrwt>
<rwgt>
<wgt id='morphing_basis_vector_1'> +1.9472268e-04 </wgt>
<wgt id='morphing_basis_vector_2'> +1.3745708e-04 </wgt>
<wgt id='morphing_basis_vector_3'> +2.0652043e-04 </wgt>
<wgt id='morphing_basis_vector_4'> +1.3090186e-04 </wgt>
<wgt id='morphing_basis_vector_5'> +2.1971174e-04 </wgt>
</rwgt>
</event>
<event>
 4      1 +1.5130300e-07 1.61268100e+03 7.81860800e-03 8.25233200e-02
        2 -1    0    0  501    0 +0.0000000000e+00 +0.0000000000e+00 +1.9974045986e+03 1.9974045986e+03 0.0000000000e+00 0.0000e+00 1.0000e+00
       -2 -1    0    0    0  501 -0.0000000000e+00 -0.0000000000e+00 -3.2551473601e+02 3.2551473601e+02 0.0000000000e+00 0.0000e+00 -1.0000e+00
      -13  1    1    2    0    0 -5.4010534420e+02 -4.9961400635e+02 +3.6070453353e+02 8.1941180043e+02 0.0000000000e+00 0.0000e+00 -1.0000e+00
       13  1    1    2    0    0 +5.4010534420e+02 +4.9961400635e+02 +1.3111853290e+03 1.5035075342e+03 0.0000000000e+00 0.0000e+00 1.0000e+00
<mgrwt>
<rscale>  0 0.16126805E+04</rscale>
<asrwt>0</asrwt>
<pdfrwt beam="1">  1        2 0.30729301E+00 0.16126805E+04</pdfrwt>
<pdfrwt beam="2">  1       -2 0.50079192E-01 0.16126805E+04</pdfrwt>
<totfact> 0.30445184E+01</totfact>
</mgrwt>
<rwgt>
<wgt id='morphing_basis_vector_1'> +1.4754262e-04 </wgt>
<wgt id='morphing_basis_vector_2'> +9.9337724e-05 </wgt>
<wgt id='morphing_basis_vector_3'> +1.5471357e-04 </wgt>
<wgt id='morphing_basis_vector_4'> +1.0264148e-04 </wgt>
<wgt id='morphing_basis_vector_5'> +1.6630845e-04 </wgt>
</rwgt>
</event>
<event>
 4      1 +1.5130300e-07 1.73168300e+03 7.81860800e-03 8.19165900e-02
        2 -1    0    0  501    0 +0.0000000000e+00 +0.0000000000e+00 +8.9547168231e+02 8.9547168231e+02 0.0000000000e+00 0.0000e+00 -1.0000e+00
       -2 -1    0    0    0  501 -0.0000000000e+00 -0.0000000000e+00 -8.3719205950e+02 8.3719205950e+02 0.0000000000e+00 0.0000e+00 1.0000e+00
      -13  1    1    2    0    0 -1.4976559926e+02 +1.3282205691e+02 -8.1372084732e+02 8.3798153374e+02 0.0000000000e+00 0.0000e+00 1.0000e+00
       13  1    1    2    0    0 +1.4976559926e+02 -1.3282205691e+02 +8.7200047014e+02 8.9468220807e+02 0.0000000000e+00 0.0000e+00 -1.0000e+00
<mgrwt>
<rscale>  0 0.17316833E+04</rscale>
<asrwt>0</asrwt>
<pdfrwt beam="1">  1        2 0.13776487E+00 0.17316833E+04</pdfrwt>
<pdfrwt beam="2">  1       -2 0.12879878E+00 0.17316833E+04</pdfrwt>
<totfact> 0.15260103E+01</totfact>
</mgrwt>
<rwgt>
<wgt id='morphing_basis_vector_1'> +1.9321265e-04 </wgt>
<wgt id='morphing_basis_vector_2'> +1.2757873e-04 </wgt>
<wgt id='morphing_basis_vector_3'> +2.0369400e-04 </wgt>
<wgt id='morphing_basis_vector_4'> +1.4015445e-04 </wgt>
<wgt id='morphing_basis_vector_5'> +2.2314351e-04 </wgt>
</rwgt>
</event>
<event>
 4      1 +1.5130300e-07 1.67318000e+03 7.81860800e-03 8.22084000e-02
        2 -1    0    0  501    0 +0.0000000000e+00 +0.0000000000e+00 +1.1562969890e+03 1.1562969890e+03 0.0000000000e+00 0.0000e+00 1.0000e+00
       -2 -1    0    0    0  501 -0.0000000000e+00 -0.0000000000e+00 -6.0527935198e+02 6.0527935198e+02 0.0000000000e+00 0.0000e+00 -1.0000e+00
      -13  1    1    2    0    0 +6.1796877811e+02 +3.9798546846e+02 -1.4510340171e+02 7.4922148995e+02 0.0000000000e+00 0.0000e+00 -1.0000e+00
       13  1    1    2    0    0 -6.1796877811e+02 -3.9798546846e+02 +6.9612103873e+02 1.0123548510e+03 0.0000000000e+00 0.0000e+00 1.0000e+00
<mgrwt>
<rscale>  0 0.16731798E+04</rscale>
<asrwt>0</asrwt>
<pdfrwt beam="1">  1        2 0.17789184E+00 0.16731798E+04</pdfrwt>
<pdfrwt beam="2">  1       -2 0.93119901E-01 0.16731798E+04</pdfrwt>
<totfact> 0.23827141E+01</totfact>
</mgrwt>
<rwgt>
<wgt id='morphing_basis_vector_1'> +1.6987992e-04 </wgt>
<wgt id='morphing_basis_vector_2'> +1.1387789e-04 </wgt>
<wgt id='morphing_basis_vector_3'> +1.7875148e-04 </wgt>
<wgt id='morphing_basis_vector_4'> +1.2008360e-04 </wgt>
<wgt id='morphing_basis_vector_5'> +1.9361067e-04 </wgt>
</rwgt>
</event>
<event>
 4      1 +1.5130300e-07 1.76658800e+03 7.81860800e-03 8.17480400e-02
        2 -1    0    0  501    0 +0.0000000000e+00 +0.0000000000e+00 +1.9708857861e+03 1.9708857861e+03 0.0000000000e+00 0.0000e+00 1.0000e+00
       -2 -1    0    0    0  501 -0.0000000000e+00 -0.0000000000e+00 -3.9586660920e+02 3.9586660920e+02 0.0000000000e+00 0.0000e+00 -1.0000e+00
      -13  1    1    2    0    0 +6.0994425370e+02 -3.6498371056e+02 +8.4996186392e+01 7.1586971811e+02 0.0000000000e+00 0.0000e+00 1.0000e+00
       13  1    1    2    0    0 -6.0994425370e+02 +3.6498371056e+02 +1.4900229905e+03 1.6508826772e+03 0.0000000000e+00 0.0000e+00 -1.0000e+00
<mgrwt>
<rscale>  0 0.17665875E+04</rscale>
<asrwt>0</asrwt>
<pdfrwt beam="1">  1        2 0.30321319E+00 0.17665875E+04</pdfrwt>
<pdfrwt beam="2">  1       -2 0.60902557E-01 0.17665875E+04</pdfrwt>
<totfact> 0.20970619E+01</totfact>
</mgrwt>
<rwgt>
<wgt id='morphing_basis_vector_1'> +2.0937390e-04 </wgt>
<wgt id='morphing_basis_vector_2'> +1.3967045e-04 </wgt>
<wgt id='morphing_basis_vector_3'> +2.2134018e-04 </wgt>
<wgt id='morphing_basis_vector_4'> +1.5105257e-04 </wgt>
<wgt id='morphing_basis_vector_5'> +2.4211632e-04 </wgt>
</rwgt>
</event>
<event>
 4      1 +1.5130300e-07 1.62140100e+03 7.81860800e-03 8.24770600e-02
        2 -1    0    0  501    0 +0.0000000000e+00 +0.0000000000e+00 +1.8346232828e+03 1.8346232828e+03 0.0000000000e+00 0.0000e+00 -1.0000e+00
       -2 -1    0    0    0  501 -0.0000000000e+00 -0.0000000000e+00 -3.5824011320e+02 3.5824011320e+02 0.0000000000e+00 0.0000e+00 1.0000e+00
      -13  1    1    2    0    0 -7.1375996984e+02 +2.0219114145e+02 +2.9599833050e+02 7.9871744935e+02 0.0000000000e+00 0.0000e+00 1.0000e+00
       13  1    1    2    0    0 +7.1375996984e+02 -2.0219114145e+02 +1.1803848391e+03 1.3941459467e+03 0.0000000000e+00 0.0000e+00 -1.0000e+00
<mgrwt>
<rscale>  0 0.16214014E+04</rscale>
<asrwt>0</asrwt>
<pdfrwt beam="1">  1        2 0.28224973E+00 0.16214014E+04</pdfrwt>
<pdfrwt beam="2">  1       -2 0.55113865E-01 0.16214014E+04</pdfrwt>
<totfact> 0.31008588E+01</totfact>
</mgrwt>
<rwgt>
<wgt id='morphing_basis_vector_1'> +1.5068998e-04 </wgt>
<wgt id='morphing_basis_vector_2'> +1.0156023e-04 </wgt>
<wgt id='morphing_basis_vector_3'> +1.5811938e-04 </wgt>
<wgt id='morphing_basis_vector_4'> +1.0489152e-04 </wgt>
<wgt id='morphing_basis_vector_5'> +1.7004500e-04 </wgt>
</rwgt>
</event>
<event>
 4      1 +1.5130300e-07 1.60490200e+03 7.81860800e-03 8.25648400e-02
        2 -1    0    0  501    0 +0.0000000000e+00 +0.0000000000e+00 +1.6370128825e+03 1.6370128825e+03 0.0000000000e+00 0.0000e+00 1.0000e+00
       -2 -1    0    0    0  501 -0.0000000000e+00 -0.0000000000e+00 -3.9335502153e+02 3.9335502153e+02 0.0000000000e+00 0.0000e+00 -1.0000e+00
      -13  1    1    2    0    0 +3.3022234573e+02 -7.2866157490e+02 +7.0116569324e+02 1.0637799668e+03 0.0000000000e+00 0.0000e+00 -1.0000e+00
       13  1    1    2    0    0 -3.3022234573e+02 +7.2866157490e+02 +5.4249216770e+02 9.6658793722e+02 0.0000000000e+00 0.0000e+00 1.0000e+00
<mgrwt>
<rscale>  0 0.16049015E+04</rscale>
<asrwt>0</asrwt>
<pdfrwt beam="1">  1        2 0.25184813E+00 0.16049015E+04</pdfrwt>
<pdfrwt beam="2">  1       -2 0.60516158E-01 0.16049015E+04</pdfrwt>
<totfact> 0.33063321E+01</totfact>
</mgrwt>
<rwgt>
<wgt id='morphing_basis_vector_1'> +1.5071248e-04 </wgt>
<wgt id='morphing_basis_vector_2'> +1.1504478e-04 </wgt>
<wgt id='morphing_basis_vector_3'> +1.5973962e-04 </wgt>
<wgt id='morphing_basis_vector_4'> +8.9382002e-05 </wgt>
<wgt id='morphing_basis_vector_5'> +1.6217463e-04 </wgt>
</rwgt>
</event>
<event>
 4      1 +1.5130300e-07 1.69536600e+03 7.81860800e-03 8.20963200e-02
        2 -1    0    0  501    0 +0.0000000000e+00 +0.0000000000e+00 +2.1029334748e+03 2.1029334748e+03 0.0000000000e+00 0.0000e+00 1.0000e+00
       -2 -1    0    0    0  501 -0.0000000000e+00 -0.0000000000e+00 -3.4169737040e+02 3.4169737040e+02 0.0000000000e+00 0.0000e+00 -1.0000e+00
      -13  1    1    2    0    0 +5.5192860510e+02 +4.6405055645e+02 +2.3802216092e+02 7.5935673643e+02 0.0000000000e+00 0.0000e+00 -1.0000e+00
       13  1    1    2    0    0 -5.5192860510e+02 -4.6405055645e+02 +1.5232139435e+03 1.6852741088e+03 0.0000000000e+00 0.0000e+00 1.0000e+00
<mgrwt>
<rscale>  0 0.16953664E+04</rscale>
<asrwt>0</asrwt>
<pdfrwt beam="1">  1        2 0.32352822E+00 0.16953664E+04</pdfrwt>
<pdfrwt beam="2">  1       -2 0.52568827E-01 0.16953664E+04</pdfrwt>
<totfact> 0.23950221E+01</totfact>
</mgrwt>
<rwgt>
<wgt id='morphing_basis_vector_1'> +1.7860564e-04 </wgt>
<wgt id='morphing_basis_vector_2'> +1.1936653e-04 </wgt>
<wgt id='morphing_basis_vector_3'> +1.8812563e-04 </wgt>
<wgt id='morphing_basis_vector_4'> +1.2714839e-04 </wgt>
<wgt id='morphing_basis_vector_5'> +2.0442344e-04 </wgt>
</rwgt>
</event>
<event>
 4      1 +1.5130300e-07 1.56967200e+03 7.81860800e-03 8.27559700e-02
        2 -1    0    0  501    0 +0.0000000000e+00 +0.0000000000e+00 +8.5609659447e+02 8.5609659447e+02 0.0000000000e+00 0.0000e+00 1.0000e+00
       -2 -1    0    0    0  501 -0.0000000000e+00 -0.0000000000e+00 -7.1950743052e+02 7.1950743052e+02 0.0000000000e+00 0.0000e+00 -1.0000e+00
      -13  1    1    2    0    0 -6.6366635293e+02 -2.0795615382e+02 +4.3335707157e+02 8.1944929154e+02 0.0000000000e+00 0.0000e+00 1.0000e+00
       13  1    1    2    0    0 +6.6366635293e+02 +2.0795615382e+02 -2.9676790762e+02 7.5615473345e+02 0.0000000000e+00 0.0000e+00 -1.0000e+00
<mgrwt>
<rscale>  0 0.15696724E+04</rscale>
<asrwt>0</asrwt>
<pdfrwt beam="1">  1        2 0.13170717E+00 0.15696724E+04</pdfrwt>
<pdfrwt beam="2">  1       -2 0.11069345E+00 0.15696724E+04</pdfrwt>
<totfact> 0.24319510E+01</totfact>
</mgrwt>
<rwgt>
<wgt id='morphing_basis_vector_1'> +1.5380684e-04 </wgt>
<wgt id='morphing_basis_vector_2'> +1.5161556e-04 </wgt>
<wgt id='morphing_basis_vector_3'> +1.6689534e-04 </wgt>
<wgt id='morphing_basis_vector_4'> +5.2253777e-05 </wgt>
<wgt id='morphing_basis_vector_5'> +1.4577392e-04 </wgt>
</rwgt>
</event>
<event>
 4      1 +1.5130300e-07 1.69229300e+03 7.81860800e-03 8.21117300e-02
        2 -1    0    0  501    0 +0.0000000000e+00 +0.0000000000e+00 +1.6866446380e+03 1.6866446380e+03 0.0000000000e+00 0.0000e+00 -1.0000e+00
       -2 -1    0    0    0  501 -0.0000000000e+00 -0.0000000000e+00 -4.2449022393e+02 4.2449022393e+02 0.0000000000e+00 0.0000e+00 1.0000e+00
      -13  1    1    2    0    0 +6.0785021396e+02 -1.3841315217e+02 -8.2645174888e+01 6.2886430034e+02 0.0000000000e+00 0.0000e+00 1.0000e+00
       13  1    1    2    0    0 -6.0785021396e+02 +1.3841315217e+02 +1.3447995890e+03 1.4822705616e+03 0.0000000000e+00 0.0000e+00 -1.0000e+00
<mgrwt>
<rscale>  0 0.16922933E+04</rscale>
<asrwt>0</asrwt>
<pdfrwt beam="1">  1        2 0.25948379E+00 0.16922933E+04</pdfrwt>
<pdfrwt beam="2">  1       -2 0.65306189E-01 0.16922933E+04</pdfrwt>
<totfact> 0.26295416E+01</totfact>
</mgrwt>
<rwgt>
<wgt id='morphing_basis_vector_1'> +1.7693247e-04 </wgt>
<wgt id='morphing_basis_vector_2'> +1.1727324e-04 </wgt>
<wgt id='morphing_basis_vector_3'> +1.8619203e-04 </wgt>
<wgt id='morphing_basis_vector_4'> +1.2700830e-04 </wgt>
<wgt id='morphing_basis_vector_5'> +2.0296512e-04 </wgt>
</rwgt>
</event>
<event>
 4      1 +1.5130300e-07 1.69717300e+03 7.81860800e-03 8.20872700e-02
        2 -1    0    0  501    0 +0.0000000000e+00 +0.0000000000e+00 +2.1823630295e+03 2.1823630295e+03 0.0000000000e+00 0.0000e+00 1.0000e+00
       -2 -1    0    0    0  501 -0.0000000000e+00 -0.0000000000e+00 -3.2996304402e+02 3.2996304402e+02 0.0000000000e+00 0.0000e+00 -1.0000e+00
      -13  1    1    2    0    0 -5.2743073826e+02 -3.0650231282e+02 +5.2982964282e+01 6.1231858205e+02 0.0000000000e+00 0.0000e+00 -1.0000e+00
       13  1    1    2    0    0 +5.2743073826e+02 +3.0650231282e+02 +1.7994170212e+03 1.9000074915e+03 0.0000000000e+00 0.0000e+00 1.0000e+00
<mgrwt>
<rscale>  0 0.16971731E+04</rscale>
<asrwt>0</asrwt>
<pdfrwt beam="1">  1        2 0.33574815E+00 0.16971731E+04</pdfrwt>
<pdfrwt beam="2">  1       -2 0.50763547E-01 0.16971731E+04</pdfrwt>
<totfact> 0.23128151E+01</totfact>
</mgrwt>
<rwgt>
<wgt id='morphing_basis_vector_1'> +1.7888881e-04 </wgt>
<wgt id='morphing_basis_vector_2'> +1.1850877e-04 </wgt>
<wgt id='morphing_basis_vector_3'> +1.8829409e-04 </wgt>
<wgt id='morphing_basis_vector_4'> +1.2858877e-04 </wgt>
<wgt id='morphing_basis_vector_5'> +2.0538849e-04 </wgt>
</rwgt>
</event>
<event>
 4      1 +1.5130300e-07 1.69838000e+03 7.81860800e-03 8.20812300e-02
        2 -1    0    0  501    0 +0.0000000000e+00 +0.0000000000e+00 +2.3794292316e+03 2.3794292316e+03 0.0000000000e+00 0.0000e+00 1.0000e+00
       -2 -1    0    0    0  501 -0.0000000000e+00 -0.0000000000e+00 -3.0306590448e+02 3.0306590448e+02 0.0000000000e+00 0.0000e+00 -1.0000e+00
      -13  1    1    2    0    0 +6.8799177428e+02 -2.9126768024e+02 +1.6757650066e+03 1.8347637179e+03 0.0000000000e+00 0.0000e+00 1.0000e+00
       13  1    1    2    0    0 -6.8799177428e+02 +2.9126768024e+02 +4.0059832053e+02 8.4773141822e+02 0.0000000000e+00 0.0000e+00 -1.0000e+00
<mgrwt>
<rscale>  0 0.16983803E+04</rscale>
<asrwt>0</asrwt>
<pdfrwt beam="1">  1        2 0.36606602E+00 0.16983803E+04</pdfrwt>
<pdfrwt beam="2">  1       -2 0.46625525E-01 0.16983803E+04</pdfrwt>
<totfact> 0.21009864E+01</totfact>
</mgrwt>
<rwgt>
<wgt id='morphing_basis_vector_1'> +2.0986795e-04 </wgt>
<wgt id='morphing_basis_vector_2'> +2.0941114e-04 </wgt>
<wgt id='morphing_basis_vector_3'> +2.3095676e-04 </wgt>
<wgt id='morphing_basis_vector_4'> +7.0211214e-05 </wgt>
<wgt id='morphing_basis_vector_5'> +2.0149070e-04 </wgt>
</rwgt>
</event>
<event>
 4      1 +1.5130300e-07 1.67901100e+03 7.81860800e-03 8.21787700e-02
        2 -1    0    0  501    0 +0.0000000000e+00 +0.0000000000e+00 +2.1697882955e+03 2.1697882955e+03 0.0000000000e+00 0.0000e+00 -1.0000e+00
       -2 -1    0    0    0  501 -0.0000000000e+00 -0.0000000000e+00 -3.2481010668e+02 3.2481010668e+02 0.0000000000e+00 0.0000e+00 1.0000e+00
      -13  1    1    2    0    0 -1.3977115712e+02 -3.7484428068e+02 -1.7407957303e+02 4.3628879067e+02 0.0000000000e+00 0.0000e+00 1.0000e+00
       13  1    1    2    0    0 +1.3977115712e+02 +3.7484428068e+02 +2.0190577619e+03 2.0583096115e+03 0.0000000000e+00 0.0000e+00 -1.0000e+00
<mgrwt>
<rscale>  0 0.16790106E+04</rscale>
<asrwt>0</asrwt>
<pdfrwt beam="1">  1        2 0.33381358E+00 0.16790106E+04</pdfrwt>
<pdfrwt beam="2">  1       -2 0.49970787E-01 0.16790106E+04</pdfrwt>
<totfact> 0.24290667E+01</totfact>
</mgrwt>
<rwgt>
<wgt id='morphing_basis_vector_1'> +1.7136609e-04 </wgt>
<wgt id='morphing_basis_vector_2'> +1.1299834e-04 </wgt>
<wgt id='morphing_basis_vector_3'> +1.8011417e-04 </wgt>
<wgt id='morphing_basis_vector_4'> +1.2340102e-04 </wgt>
<wgt id='morphing_basis_vector_5'> +1.9652390e-04 </wgt>
</rwgt>
</event>
<event>
 4      1 +1.5130300e-07 1.75140000e+03 7.81860800e-03 8.18208900e-02
        2 -1    0    0  501    0 +0.0000000000e+00 +0.0000000000e+00 +1.5564048589e+03 1.5564048589e+03 0.0000000000e+00 0.0000e+00 -1.0000e+00
       -2 -1    0    0    0  501 -0.0000000000e+00 -0.0000000000e+00 -4.9270608982e+02 4.9270608982e+02 0.0000000000e+00 0.0000e+00 1.0000e+00
      -13  1    1    2    0    0 -5.7895683216e+02 -3.7744233603e+02 -9.7333183403e+01 6.9794518346e+02 0.0000000000e+00 0.0000e+00 1.0000e+00
       13  1    1    2    0    0 +5.7895683216e+02 +3.7744233603e+02 +1.1610319525e+03 1.3511657652e+03 0.0000000000e+00 0.0000e+00 -1.0000e+00
<mgrwt>
<rscale>  0 0.17513996E+04</rscale>
<asrwt>0</asrwt>
<pdfrwt beam="1">  1        2 0.23944690E+00 0.17513996E+04</pdfrwt>
<pdfrwt beam="2">  1       -2 0.75800938E-01 0.17513996E+04</pdfrwt>
<totfact> 0.22440117E+01</totfact>
</mgrwt>
<rwgt>
<wgt id='morphing_basis_vector_1'> +2.0238399e-04 </wgt>
<wgt id='morphing_basis_vector_2'> +1.3479370e-04 </wgt>
<wgt id='morphing_basis_vector_3'> +2.1375339e-04 </wgt>
<wgt id='morphing_basis_vector_4'> +1.4592057e-04 </wgt>
<wgt id='morphing_basis_vector_5'> +2.3369481e-04 </wgt>
</rwgt>
</event>
<event>
 4      1 +1.5130300e-07 1.76874500e+03 7.81860800e-03 8.17377600e-02
        2 -1    0    0  501    0 +0.0000000000e+00 +0.0000000000e+00 +3.0965456845e+03 3.0965456845e+03 0.0000000000e+00 0.0000e+00 1.0000e+00
       -2 -1    0    0    0  501 -0.0000000000e+00 -0.0000000000e+00 -2.5257643218e+02 2.5257643218e+02 0.0000000000e+00 0.0000e+00 -1.0000e+00
      -13  1    1    2    0    0 -2.5238637769e+02 -7.6436995791e+02 +2.1155188183e+03 2.2634884994e+03 0.0000000000e+00 0.0000e+00 1.0000e+00
       13  1    1    2    0    0 +2.5238637769e+02 +7.6436995791e+02 +7.2845043397e+02 1.0856336173e+03 0.0000000000e+00 0.0000e+00 -1.0000e+00
<mgrwt>
<rscale>  0 0.17687447E+04</rscale>
<asrwt>0</asrwt>
<pdfrwt beam="1">  1        2 0.47639162E+00 0.17687447E+04</pdfrwt>
<pdfrwt beam="2">  1       -2 0.38857915E-01 0.17687447E+04</pdfrwt>
<totfact> 0.10605698E+01</totfact>
</mgrwt>
<rwgt>
<wgt id='morphing_basis_vector_1'> +2.4003916e-04 </wgt>
<wgt id='morphing_basis_vector_2'> +2.2840505e-04 </wgt>
<wgt id='morphing_basis_vector_3'> +2.6402667e-04 </wgt>
<wgt id='morphing_basis_vector_4'> +9.4118191e-05 </wgt>
<wgt id='morphing_basis_vector_5'> +2.3887608e-04 </wgt>
</rwgt>
</event>
<event>
 4      1 +1.5130300e-07 1.57536300e+03 7.81860800e-03 8.27247400e-02
        2 -1    0    0  501    0 +0.0000000000e+00 +0.0000000000e+00 +5.0387545795e+02 5.0387545795e+02 0.0000000000e+00 0.0000e+00 -1.0000e+00
       -2 -1    0    0    0  501 -0.0000000000e+00 -0.0000000000e+00 -1.2313407360e+03 1.2313407360e+03 0.0000000000e+00 0.0000e+00 1.0000e+00
      -13  1    1    2    0    0 -2.4477808223e+02 +5.4536985894e+02 -9.2871054604e+02 1.1044672340e+03 0.0000000000e+00 0.0000e+00 1.0000e+00
       13  1    1    2    0    0 +2.4477808223e+02 -5.4536985894e+02 +2.0124526802e+02 6.3074895996e+02 0.0000000000e+00 0.0000e+00 -1.0000e+00
<mgrwt>
<rscale>  0 0.15753633E+04</rscale>
<asrwt>0</asrwt>
<pdfrwt beam="1">  1        2 0.77519301E-01 0.15753633E+04</pdfrwt>
<pdfrwt beam="2">  1       -2 0.18943704E+00 0.15753633E+04</pdfrwt>
<totfact> 0.10081059E+01</totfact>
</mgrwt>
<rwgt>
<wgt id='morphing_basis_vector_1'> +1.3405660e-04 </wgt>
<wgt id='morphing_basis_vector_2'> +8.8519538e-05 </wgt>
<wgt id='morphing_basis_vector_3'> +1.3998635e-04 </wgt>
<wgt id='morphing_basis_vector_4'> +9.4506900e-05 </wgt>
<wgt id='morphing_basis_vector_5'> +1.5108566e-04 </wgt>
</rwgt>
</event>
<event>
 4      1 +1.5130300e-07 1.64753600e+03 7.81860800e-03 8.23401900e-02
        2 -1    0    0  501    0 +0.0000000000e+00 +0.0000000000e+00 +1.7478151518e+03 1.7478151518e+03 0.0000000000e+00 0.0000e+00 -1.0000e+00
       -2 -1    0    0    0  501 -0.0000000000e+00 -0.0000000000e+00 -3.8825266968e+02 3.8825266968e+02 0.0000000000e+00 0.0000e+00 1.0000e+00
      -13  1    1    2    0    0 +5.6302758747e+02 -6.3195197057e+01 -9.5535111928e+01 5.7456127158e+02 0.0000000000e+00 0.0000e+00 1.0000e+00
       13  1    1    2    0    0 -5.6302758747e+02 +6.3195197057e+01 +1.4550975940e+03 1.5615065499e+03 0.0000000000e+00 0.0000e+00 -1.0000e+00
<mgrwt>
<rscale>  0 0.16475362E+04</rscale>
<asrwt>0</asrwt>
<pdfrwt beam="1">  1        2 0.26889463E+00 0.16475362E+04</pdfrwt>
<pdfrwt beam="2">  1       -2 0.59731181E-01 0.16475362E+04</pdfrwt>
<totfact> 0.29364979E+01</totfact>
</mgrwt>
<rwgt>
<wgt id='morphing_basis_vector_1'> +1.5935706e-04 </wgt>
<wgt id='morphing_basis_vector_2'> +1.0526286e-04 </wgt>
<wgt id='morphing_basis_vector_3'> +1.6720307e-04 </wgt>
<wgt id='morphing_basis_vector_4'> +1.1390162e-04 </wgt>
<wgt id='morphing_basis_vector_5'> +1.8177219e-04 </wgt>
</rwgt>
</event>
<event>
 4      1 +1.5130300e-07 1.60666500e+03 7.81860800e-03 8.25554100e-02
        2 -1    0    0  501    0 +0.0000000000e+00 +0.0000000000e+00 +2.7202564779e+03 2.7202564779e+03 0.0000000000e+00 0.0000e+00 -1.0000e+00
       -2 -1    0    0    0  501 -0.0000000000e+00 -0.0000000000e+00 -2.3723613791e+02 2.3723613791e+02 0.0000000000e+00 0.0000e+00 1.0000e+00
      -13  1    1    2    0    0 -3.7840459144e+02 +1.8963574590e+02 -1.5331144402e+01 4.2354078309e+02 0.0000000000e+00 0.0000e+00 1.0000e+00
       13  1    1    2    0    0 +3.7840459144e+02 -1.8963574590e+02 +2.4983514844e+03 2.5339518327e+03 0.0000000000e+00 0.0000e+00 -1.0000e+00
<mgrwt>
<rscale>  0 0.16066650E+04</rscale>
<asrwt>0</asrwt>
<pdfrwt beam="1">  1        2 0.41850097E+00 0.16066650E+04</pdfrwt>
<pdfrwt beam="2">  1       -2 0.36497869E-01 0.16066650E+04</pdfrwt>
<totfact> 0.20993843E+01</totfact>
</mgrwt>
<rwgt>
<wgt id='morphing_basis_vector_1'> +1.4445264e-04 </wgt>
<wgt id='morphing_basis_vector_2'> +9.5005001e-05 </wgt>
<wgt id='morphing_basis_vector_3'> +1.5111526e-04 </wgt>
<wgt id='morphing_basis_vector_4'> +1.0291354e-04 </wgt>
<wgt id='morphing_basis_vector_5'> +1.6390309e-04 </wgt>
</rwgt>
</event>
<event>
 4      1 +1.5130300e-07 1.63974200e+03 7.81860800e-03 8.23807300e-02
        2 -1    0    0  501    0 +0.0000000000e+00 +0.0000000000e+00 +1.2905990152e+03 1.2905990152e+03 0.0000000000e+00 0.0000e+00 -1.0000e+00
       -2 -1    0    0    0  501 -0.0000000000e+00 -0.0000000000e+00 -5.2083451134e+02 5.2083451134e+02 0.0000000000e+00 0.0000e+00 1.0000e+00
      -13  1    1    2    0    0 +1.0017830910e+01 +4.1776715806e+02 -3.9435382166e+02 5.7458218903e+02 0.0000000000e+00 0.0000e+00 1.0000e+00
       13  1    1    2    0    0 -1.0017830910e+01 -4.1776715806e+02 +1.1641183255e+03 1.2368513375e+03 0.0000000000e+00 0.0000e+00 -1.0000e+00
<mgrwt>
<rscale>  0 0.16397421E+04</rscale>
<asrwt>0</asrwt>
<pdfrwt beam="1">  1        2 0.19855369E+00 0.16397421E+04</pdfrwt>
<pdfrwt beam="2">  1       -2 0.80128387E-01 0.16397421E+04</pdfrwt>
<totfact> 0.28251561E+01</totfact>
</mgrwt>
<rwgt>
<wgt id='morphing_basis_vector_1'> +1.5632743e-04 </wgt>
<wgt id='morphing_basis_vector_2'> +1.0294397e-04 </wgt>
<wgt id='morphing_basis_vector_3'> +1.6390196e-04 </wgt>
<wgt id='morphing_basis_vector_4'> +1.1193578e-04 </wgt>
<wgt id='morphing_basis_vector_5'> +1.7827279e-04 </wgt>
</rwgt>
</event>
<event>
 4      1 +1.5130300e-07 1.69231600e+03 7.81860800e-03 8.21116200e-02
        2 -1    0    0  501    0 +0.0000000000e+00 +0.0000000000e+00 +3.2043022198e+03 3.2043022198e+03 0.0000000000e+00 0.0000e+00 -1.0000e+00
       -2 -1    0    0    0  501 -0.0000000000e+00 -0.0000000000e+00 -2.2344451682e+02 2.2344451682e+02 0.0000000000e+00 0.0000e+00 1.0000e+00
      -13  1    1    2    0    0 +8.2252831552e+02 -1.3139655363e+01 +1.0891070223e+03 1.3648734690e+03 0.0000000000e+00 0.0000e+00 1.0000e+00
       13  1    1    2    0    0 -8.2252831552e+02 +1.3139655363e+01 +1.8917506806e+03 2.0628732676e+03 0.0000000000e+00 0.0000e+00 -1.0000e+00
<mgrwt>
<rscale>  0 0.16923165E+04</rscale>
<asrwt>0</asrwt>
<pdfrwt beam="1">  1        2 0.49296954E+00 0.16923165E+04</pdfrwt>
<pdfrwt beam="2">  1       -2 0.34376082E-01 0.16923165E+04</pdfrwt>
<totfact> 0.11337612E+01</totfact>
</mgrwt>
<rwgt>
<wgt id='morphing_basis_vector_1'> +1.7931658e-04 </wgt>
<wgt id='morphing_basis_vector_2'> +1.2433549e-04 </wgt>
<wgt id='morphing_basis_vector_3'> +1.8947948e-04 </wgt>
<wgt id='morphing_basis_vector_4'> +1.2244231e-04 </wgt>
<wgt id='morphing_basis_vector_5'> +2.0262662e-04 </wgt>
</rwgt>
</event>
<event>
 4      1 +1.5130300e-07 1.55573500e+03 7.81860800e-03 8.28330100e-02
        2 -1    0    0  501    0 +0.0000000000e+00 +0.0000000000e+00 +2.2120031930e+03 2.2120031930e+03 0.0000000000e+00 0.0000e+00 -1.0000e+00
       -2 -1    0    0    0  501 -0.0000000000e+00 -0.0000000000e+00 -2.7354296084e+02 2.7354296084e+02 0.0000000000e+00 0.0000e+00 1.0000e+00
      -13  1    1    2    0    0 +5.6925443192e+02 -1.2654385106e+02 +1.4675918773e+02 6.0133369578e+02 0.0000000000e+00 0.0000e+00 1.0000e+00
       13  1    1    2    0    0 -5.6925443192e+02 +1.2654385106e+02 +1.7917010444e+03 1.8842124581e+03 0.0000000000e+00 0.0000e+00 -1.0000e+00
<mgrwt>
<rscale>  0 0.15557351E+04</rscale>
<asrwt>0</asrwt>
<pdfrwt beam="1">  1        2 0.34030817E+00 0.15557351E+04</pdfrwt>
<pdfrwt beam="2">  1       -2 0.42083534E-01 0.15557351E+04</pdfrwt>
<totfact> 0.32336751E+01</totfact>
</mgrwt>
<rwgt>
<wgt id='morphing_basis_vector_1'> +1.2769122e-04 </wgt>
<wgt id='morphing_basis_vector_2'> +8.4202359e-05 </wgt>
<wgt id='morphing_basis_vector_3'> +1.3313753e-04 </wgt>
<wgt id='morphing_basis_vector_4'> +8.9771275e-05 </wgt>
<wgt id='morphing_basis_vector_5'> +1.4345786e-04 </wgt>
</rwgt>
</event>
<event>
 4      1 +1.5130300e-07 1.67245100e+03 7.81860800e-03 8.22121100e-02
        2 -1    0    0  501    0 +0.0000000000e+00 +0.0000000000e+00 +2.0405078468e+03 2.0405078468e+03 0.0000000000e+00 0.0000e+00 -1.0000e+00
       -2 -1    0    0    0  501 -0.0000000000e+00 -0.0000000000e+00 -3.4269557387e+02 3.4269557387e+02 0.0000000000e+00 0.0000e+00 1.0000e+00
      -13  1    1    2    0    0 +1.0697782369e+02 +6.5921381092e+02 +1.3177909494e+02 6.8071494264e+02 0.0000000000e+00 0.0000e+00 1.0000e+00
       13  1    1    2    0    0 -1.0697782369e+02 -6.5921381092e+02 +1.5660331780e+03 1.7024884781e+03 0.0000000000e+00 0.0000e+00 -1.0000e+00
<mgrwt>
<rscale>  0 0.16724509E+04</rscale>
<asrwt>0</asrwt>
<pdfrwt beam="1">  1        2 0.31392428E+00 0.16724509E+04</pdfrwt>
<pdfrwt beam="2">  1       -2 0.52722397E-01 0.16724509E+04</pdfrwt>
<totfact> 0.25876154E+01</totfact>
</mgrwt>
<rwgt>
<wgt id='morphing_basis_vector_1'> +1.6916969e-04 </wgt>
<wgt id='morphing_basis_vector_2'> +1.1242536e-04 </wgt>
<wgt id='morphing_basis_vector_3'> +1.7785998e-04 </wgt>
<wgt id='morphing_basis_vector_4'> +1.2068072e-04 </wgt>
<wgt id='morphing_basis_vector_5'> +1.9332569e-04 </wgt>
</rwgt>
</event>
<event>
 4      1 +1.5130300e-07 1.64721300e+03 7.81860800e-03 8.23418600e-02
        2 -1    0    0  501    0 +0.0000000000e+00 +0.0000000000e+00 +1.7934245055e+03 1.7934245055e+03 0.0000000000e+00 0.0000e+00 1.0000e+00
       -2 -1    0    0    0  501 -0.0000000000e+00 -0.0000000000e+00 -3.7823041850e+02 3.7823041850e+02 0.0000000000e+00 0.0000e+00 -1.0000e+00
      -13  1    1    2    0    0 -6.0163459467e+02 -4.1908207977e+02 +1.2021811294e+03 1.4081311881e+03 0.0000000000e+00 0.0000e+00 1.0000e+00
       13  1    1    2    0    0 +6.0163459467e+02 +4.1908207977e+02 +2.1301295755e+02 7.6352373583e+02 0.0000000000e+00 0.0000e+00 -1.0000e+00
<mgrwt>
<rscale>  0 0.16472130E+04</rscale>
<asrwt>0</asrwt>
<pdfrwt beam="1">  1        2 0.27591146E+00 0.16472130E+04</pdfrwt>
<pdfrwt beam="2">  1       -2 0.58189296E-01 0.16472130E+04</pdfrwt>
<totfact> 0.29221540E+01</totfact>
</mgrwt>
<rwgt>
<wgt id='morphing_basis_vector_1'> +1.8485854e-04 </wgt>
<wgt id='morphing_basis_vector_2'> +1.8136563e-04 </wgt>
<wgt id='morphing_basis_vector_3'> +2.0206104e-04 </wgt>
<wgt id='morphing_basis_vector_4'> +6.4780768e-05 </wgt>
<wgt id='morphing_basis_vector_5'> +1.7789691e-04 </wgt>
</rwgt>
</event>
<event>
 4      1 +1.5130300e-07 1.58288800e+03 7.81860800e-03 8.26836700e-02
        2 -1    0    0  501    0 +0.0000000000e+00 +0.0000000000e+00 +1.1324622155e+03 1.1324622155e+03 0.0000000000e+00 0.0000e+00 -1.0000e+00
       -2 -1    0    0    0  501 -0.0000000000e+00 -0.0000000000e+00 -5.5311643005e+02 5.5311643005e+02 0.0000000000e+00 0.0000e+00 1.0000e+00
      -13  1    1    2    0    0 +6.1625270991e+02 +6.1652292139e+01 -2.3505806342e+02 6.6243543140e+02 0.0000000000e+00 0.0000e+00 1.0000e+00
       13  1    1    2    0    0 -6.1625270991e+02 -6.1652292139e+01 +8.1440384889e+02 1.0231432142e+03 0.0000000000e+00 0.0000e+00 -1.0000e+00
<mgrwt>
<rscale>  0 0.15828878E+04</rscale>
<asrwt>0</asrwt>
<pdfrwt beam="1">  1        2 0.17422496E+00 0.15828878E+04</pdfrwt>
<pdfrwt beam="2">  1       -2 0.85094835E-01 0.15828878E+04</pdfrwt>
<totfact> 0.30598408E+01</totfact>
</mgrwt>
<rwgt>
<wgt id='morphing_basis_vector_1'> +1.3660446e-04 </wgt>
<wgt id='morphing_basis_vector_2'> +9.0351834e-05 </wgt>
<wgt id='morphing_basis_vector_3'> +1.4274123e-04 </wgt>
<wgt id='morphing_basis_vector_4'> +9.6285403e-05 </wgt>
<wgt id='morphing_basis_vector_5'> +1.5408169e-04 </wgt>
</rwgt>
</event>
<event>
 4      1 +1.5130300e-07 1.57039700e+03 7.81860800e-03 8.27519800e-02
        2 -1    0    0  501    0 +0.0000000000e+00 +0.0000000000e+00 +5.3099744548e+02 5.3099744548e+02 0.0000000000e+00 0.0000e+00 -1.0000e+00
       -2 -1    0    0    0  501 -0.0000000000e+00 -0.0000000000e+00 -1.1610911045e+03 1.1610911045e+03 0.0000000000e+00 0.0000e+00 1.0000e+00
      -13  1    1    2    0    0 +5.9253143883e+02 +5.0801347309e+02 -2.2257563675e+02 8.1161019518e+02 0.0000000000e+00 0.0000e+00 1.0000e+00
       13  1    1    2    0    0 -5.9253143883e+02 -5.0801347309e+02 -4.0751802231e+02 8.8047835484e+02 0.0000000000e+00 0.0000e+00 -1.0000e+00
<mgrwt>
<rscale>  0 0.15703967E+04</rscale>
<asrwt>0</asrwt>
<pdfrwt beam="1">  1        2 0.81691916E-01 0.15703967E+04</pdfrwt>
<pdfrwt beam="2">  1       -2 0.17862940E+00 0.15703967E+04</pdfrwt>
<totfact> 0.11453388E+01</totfact>
</mgrwt>
<rwgt>
<wgt id='morphing_basis_vector_1'> +1.3926856e-04 </wgt>
<wgt id='morphing_basis_vector_2'> +1.0778920e-04 </wgt>
<wgt id='morphing_basis_vector_3'> +1.4738725e-04 </wgt>
<wgt id='morphing_basis_vector_4'> +8.0353206e-05 </wgt>
<wgt id='morphing_basis_vector_5'> +1.4815561e-04 </wgt>
</rwgt>
</event>
<event>
 4      1 +1.5130300e-07 1.62696400e+03 7.81860800e-03 8.24477100e-02
        2 -1    0    0  501    0 +0.0000000000e+00 +0.0000000000e+00 +2.1045365978e+03 2.1045365978e+03 0.0000000000e+00 0.0000e+00 1.0000e+00
       -2 -1    0    0    0  501 -0.0000000000e+00 -0.0000000000e+00 -3.1444115661e+02 3.1444115661e+02 0.0000000000e+00 0.0000e+00 -1.0000e+00
      -13  1    1    2    0    0 +1.6030218319e+02 +5.6713958613e+02 +6.1364027740e+01 5.9254505651e+02 0.0000000000e+00 0.0000e+00 -1.0000e+00
       13  1    1    2    0    0 -1.6030218319e+02 -5.6713958613e+02 +1.7287314135e+03 1.8264326979e+03 0.0000000000e+00 0.0000e+00 1.0000e+00
<mgrwt>
<rscale>  0 0.16269639E+04</rscale>
<asrwt>0</asrwt>
<pdfrwt beam="1">  1        2 0.32377485E+00 0.16269639E+04</pdfrwt>
<pdfrwt beam="2">  1       -2 0.48375564E-01 0.16269639E+04</pdfrwt>
<totfact> 0.28314592E+01</totfact>
</mgrwt>
<rwgt>
<wgt id='morphing_basis_vector_1'> +1.5182544e-04 </wgt>
<wgt id='morphing_basis_vector_2'> +1.0032503e-04 </wgt>
<wgt id='morphing_basis_vector_3'> +1.5910037e-04 </wgt>
<wgt id='morphing_basis_vector_4'> +1.0805956e-04 </wgt>
<wgt id='morphing_basis_vector_5'> +1.7259058e-04 </wgt>
</rwgt>
</event>
<event>
 4      1 +1.5130300e-07 1.62484300e+03 7.81860800e-03 8.24588800e-02
        2 -1    0    0  501    0 +0.0000000000e+00 +0.0000000000e+00 +1.6561829743e+03 1.6561829743e+03 0.0000000000e+00 0.0000e+00 -1.0000e+00
       -2 -1    0    0    0  501 -0.0000000000e+00 -0.0000000000e+00 -3.9852387627e+02 3.9852387627e+02 0.0000000000e+00 0.0000e+00 1.0000e+00
      -13  1    1    2    0    0 -1.1537864213e+02 -7.6946432206e+02 +9.2442476700e+02 1.2082833789e+03 0.0000000000e+00 0.0000e+00 1.0000e+00
       13  1    1    2    0    0 +1.1537864213e+02 +7.6946432206e+02 +3.3323433106e+02 8.4642347166e+02 0.0000000000e+00 0.0000e+00 -1.0000e+00
<mgrwt>
<rscale>  0 0.16248427E+04</rscale>
<asrwt>0</asrwt>
<pdfrwt beam="1">  1        2 0.25479738E+00 0.16248427E+04</pdfrwt>
<pdfrwt beam="2">  1       -2 0.61311367E-01 0.16248427E+04</pdfrwt>
<totfact> 0.31353364E+01</totfact>
</mgrwt>
<rwgt>
<wgt id='morphing_basis_vector_1'> +1.6552972e-04 </wgt>
<wgt id='morphing_basis_vector_2'> +1.4285058e-04 </wgt>
<wgt id='morphing_basis_vector_3'> +1.7792410e-04 </wgt>
<wgt id='morphing_basis_vector_4'> +7.9884498e-05 </wgt>
<wgt id='morphing_basis_vector_5'> +1.6957298e-04 </wgt>
</rwgt>
</event>
<event>
 4      1 +1.5130300e-07 1.70974300e+03 7.81860800e-03 8.20246200e-02
        2 -1    0    0  501    0 +0.0000000000e+00 +0.0000000000e+00 +2.6197817426e+03 2.6197817426e+03 0.0000000000e+00 0.0000e+00 1.0000e+00
       -2 -1    0    0    0  501 -0.0000000000e+00 -0.0000000000e+00 -2.7895660221e+02 2.7895660221e+02 0.0000000000e+00 0.0000e+00 -1.0000e+00
      -13  1    1    2    0    0 +1.3545428050e+02 -5.0561669611e+02 +2.4515486426e+01 5.2402014710e+02 0.0000000000e+00 0.0000e+00 -1.0000e+00
       13  1    1    2    0    0 -1.3545428050e+02 +5.0561669611e+02 +2.3163096539e+03 2.3747181977e+03 0.0000000000e+00 0.0000e+00 1.0000e+00
<mgrwt>
<rscale>  0 0.17097432E+04</rscale>
<asrwt>0</asrwt>
<pdfrwt beam="1">  1        2 0.40304333E+00 0.17097432E+04</pdfrwt>
<pdfrwt beam="2">  1       -2 0.42916402E-01 0.17097432E+04</pdfrwt>
<totfact> 0.17701450E+01</totfact>
</mgrwt>
<rwgt>
<wgt id='morphing_basis_vector_1'> +1.8395936e-04 </wgt>
<wgt id='morphing_basis_vector_2'> +1.2160497e-04 </wgt>
<wgt id='morphing_basis_vector_3'> +1.9372918e-04 </wgt>
<wgt id='morphing_basis_vector_4'> +1.3281282e-04 </wgt>
<wgt id='morphing_basis_vector_5'> +2.1173655e-04 </wgt>
</rwgt>
</event>
<event>
 4      1 +1.5130300e-07 1.58560200e+03 7.81860800e-03 8.26689100e-02
        2 -1    0    0  501    0 +0.0000000000e+00 +0.0000000000e+00 +1.0647662660e+03 1.0647662660e+03 0.0000000000e+00 0.0000e+00 -1.0000e+00
       -2 -1    0    0    0  501 -0.0000000000e+00 -0.0000000000e+00 -5.9030143038e+02 5.9030143038e+02 0.0000000000e+00 0.0000e+00 1.0000e+00
      -13  1    1    2    0    0 -5.6005120823e+02 +4.4838386298e+02 -1.1493202722e+02 7.2657746683e+02 0.0000000000e+00 0.0000e+00 1.0000e+00
       13  1    1    2    0    0 +5.6005120823e+02 -4.4838386298e+02 +5.8939686280e+02 9.2849022951e+02 0.0000000000e+00 0.0000e+00 -1.0000e+00
<mgrwt>
<rscale>  0 0.15856015E+04</rscale>
<asrwt>0</asrwt>
<pdfrwt beam="1">  1        2 0.16381020E+00 0.15856015E+04</pdfrwt>
<pdfrwt beam="2">  1       -2 0.90815605E-01 0.15856015E+04</pdfrwt>
<totfact> 0.28880938E+01</totfact>
</mgrwt>
<rwgt>
<wgt id='morphing_basis_vector_1'> +1.3809976e-04 </wgt>
<wgt id='morphing_basis_vector_2'> +9.2708482e-05 </wgt>
<wgt id='morphing_basis_vector_3'> +1.4450728e-04 </wgt>
<wgt id='morphing_basis_vector_4'> +9.5857432e-05 </wgt>
<wgt id='morphing_basis_vector_5'> +1.5509193e-04 </wgt>
</rwgt>
</event>
<event>
 4      1 +1.5130300e-07 1.65103300e+03 7.81860800e-03 8.23220700e-02
        2 -1    0    0  501    0 +0.0000000000e+00 +0.0000000000e+00 +1.2924070041e+03 1.2924070041e+03 0.0000000000e+00 0.0000e+00 -1.0000e+00
       -2 -1    0    0    0  501 -0.0000000000e+00 -0.0000000000e+00 -5.2729317489e+02 5.2729317489e+02 0.0000000000e+00 0.0000e+00 1.0000e+00
      -13  1    1    2    0    0 +7.6887026295e+02 -2.1248714598e+02 +1.4832518835e+02 8.1136467137e+02 0.0000000000e+00 0.0000e+00 1.0000e+00
       13  1    1    2    0    0 -7.6887026295e+02 +2.1248714598e+02 +6.1678864087e+02 1.0083355076e+03 0.0000000000e+00 0.0000e+00 -1.0000e+00
<mgrwt>
<rscale>  0 0.16510329E+04</rscale>
<asrwt>0</asrwt>
<pdfrwt beam="1">  1        2 0.19883185E+00 0.16510329E+04</pdfrwt>
<pdfrwt beam="2">  1       -2 0.81122027E-01 0.16510329E+04</pdfrwt>
<totfact> 0.27380484E+01</totfact>
</mgrwt>
<rwgt>
<wgt id='morphing_basis_vector_1'> +1.6269050e-04 </wgt>
<wgt id='morphing_basis_vector_2'> +1.1214260e-04 </wgt>
<wgt id='morphing_basis_vector_3'> +1.7137915e-04 </wgt>
<wgt id='morphing_basis_vector_4'> +1.1103920e-04 </wgt>
<wgt id='morphing_basis_vector_5'> +1.8307304e-04 </wgt>
</rwgt>
</event>
<event>
 4      1 +1.5130300e-07 1.62052000e+03 7.81860800e-03 8.24817200e-02
        2 -1    0    0  501    0 +0.0000000000e+00 +0.0000000000e+00 +1.9210263596e+03 1.9210263596e+03 0.0000000000e+00 0.0000e+00 -1.0000e+00
       -2 -1    0    0    0  501 -0.0000000000e+00 -0.0000000000e+00 -3.4175553687e+02 3.4175553687e+02 0.0000000000e+00 0.0000e+00 1.0000e+00
      -13  1    1    2    0    0 +6.1734976302e+02 +1.8611392289e+02 +1.0449043909e+02 6.5320546083e+02 0.0000000000e+00 0.0000e+00 1.0000e+00
       13  1    1    2    0    0 -6.1734976302e+02 -1.8611392289e+02 +1.4747803836e+03 1.6095764356e+03 0.0000000000e+00 0.0000e+00 -1.0000e+00
<mgrwt>
<rscale>  0 0.16205202E+04</rscale>
<asrwt>0</asrwt>
<pdfrwt beam="1">  1        2 0.29554251E+00 0.16205202E+04</pdfrwt>
<pdfrwt beam="2">  1       -2 0.52577776E-01 0.16205202E+04</pdfrwt>
<totfact> 0.30495521E+01</totfact>
</mgrwt>
<rwgt>
<wgt id='morphing_basis_vector_1'> +1.4966468e-04 </wgt>
<wgt id='morphing_basis_vector_2'> +9.9237002e-05 </wgt>
<wgt id='morphing_basis_vector_3'> +1.5681647e-04 </wgt>
<wgt id='morphing_basis_vector_4'> +1.0600599e-04 </wgt>
<wgt id='morphing_basis_vector_5'> +1.6976637e-04 </wgt>
</rwgt>
</event>
<event>
 4      1 +1.5130300e-07 1.62642900e+03 7.81860800e-03 8.24505200e-02
        2 -1    0    0  501    0 +0.0000000000e+00 +0.0000000000e+00 +1.5589135957e+03 1.5589135957e+03 0.0000000000e+00 0.0000e+00 -1.0000e+00
       -2 -1    0    0    0  501 -0.0000000000e+00 -0.0000000000e+00 -4.2421698488e+02 4.2421698488e+02 0.0000000000e+00 0.0000e+00 1.0000e+00
      -13  1    1    2    0    0 -2.3313951772e+02 -7.4122553377e+02 +2.7484383265e+02 8.2420171013e+02 0.0000000000e+00 0.0000e+00 1.0000e+00
       13  1    1    2    0    0 +2.3313951772e+02 +7.4122553377e+02 +8.5985277816e+02 1.1589288704e+03 0.0000000000e+00 0.0000e+00 -1.0000e+00
<mgrwt>
<rscale>  0 0.16264288E+04</rscale>
<asrwt>0</asrwt>
<pdfrwt beam="1">  1        2 0.23983286E+00 0.16264288E+04</pdfrwt>
<pdfrwt beam="2">  1       -2 0.65264152E-01 0.16264288E+04</pdfrwt>
<totfact> 0.31188086E+01</totfact>
</mgrwt>
<rwgt>
<wgt id='morphing_basis_vector_1'> +1.5318214e-04 </wgt>
<wgt id='morphing_basis_vector_2'> +1.0480596e-04 </wgt>
<wgt id='morphing_basis_vector_3'> +1.6099774e-04 </wgt>
<wgt id='morphing_basis_vector_4'> +1.0495599e-04 </wgt>
<wgt id='morphing_basis_vector_5'> +1.7213241e-04 </wgt>
</rwgt>
</event>
<event>
 4      1 +1.5130300e-07 1.84136700e+03 7.81860800e-03 8.14000100e-02
        2 -1    0    0  501    0 +0.0000000000e+00 +0.0000000000e+00 +1.8828967426e+03 1.8828967426e+03 0.0000000000e+00 0.0000e+00 -1.0000e+00
       -2 -1    0    0    0  501 -0.0000000000e+00 -0.0000000000e+00 -4.5018836610e+02 4.5018836610e+02 0.0000000000e+00 0.0000e+00 1.0000e+00
      -13  1    1    2    0    0 +1.8597992957e+02 +8.3587179657e+02 +2.8782494958e+02 9.0338994687e+02 0.0000000000e+00 0.0000e+00 1.0000e+00
       13  1    1    2    0    0 -1.8597992957e+02 -8.3587179657e+02 +1.1448834269e+03 1.4296951618e+03 0.0000000000e+00 0.0000e+00 -1.0000e+00
<mgrwt>
<rscale>  0 0.18413671E+04</rscale>
<asrwt>0</asrwt>
<pdfrwt beam="1">  1        2 0.28967642E+00 0.18413671E+04</pdfrwt>
<pdfrwt beam="2">  1       -2 0.69259750E-01 0.18413671E+04</pdfrwt>
<totfact> 0.17823940E+01</totfact>
</mgrwt>
<rwgt>
<wgt id='morphing_basis_vector_1'> +2.4756775e-04 </wgt>
<wgt id='morphing_basis_vector_2'> +1.6883560e-04 </wgt>
<wgt id='morphing_basis_vector_3'> +2.6322202e-04 </wgt>
<wgt id='morphing_basis_vector_4'> +1.7618901e-04 </wgt>
<wgt id='morphing_basis_vector_5'> +2.8675140e-04 </wgt>
</rwgt>
</event>
<event>
 4      1 +1.5130300e-07 1.61621800e+03 7.81860800e-03 8.25045200e-02
        2 -1    0    0  501    0 +0.0000000000e+00 +0.0000000000e+00 +1.2376628290e+03 1.2376628290e+03 0.0000000000e+00 0.0000e+00 1.0000e+00
       -2 -1    0    0    0  501 -0.0000000000e+00 -0.0000000000e+00 -5.2763989622e+02 5.2763989622e+02 0.0000000000e+00 0.0000e+00 -1.0000e+00
      -13  1    1    2    0    0 +2.9762689380e+01 +4.8470640103e+02 -3.5049132424e+02 5.9889087591e+02 0.0000000000e+00 0.0000e+00 -1.0000e+00
       13  1    1    2    0    0 -2.9762689380e+01 -4.8470640103e+02 +1.0605142570e+03 1.1664118493e+03 0.0000000000e+00 0.0000e+00 1.0000e+00
<mgrwt>
<rscale>  0 0.16162182E+04</rscale>
<asrwt>0</asrwt>
<pdfrwt beam="1">  1        2 0.19040967E+00 0.16162182E+04</pdfrwt>
<pdfrwt beam="2">  1       -2 0.81175369E-01 0.16162182E+04</pdfrwt>
<totfact> 0.29485956E+01</totfact>
</mgrwt>
<rwgt>
<wgt id='morphing_basis_vector_1'> +1.4784603e-04 </wgt>
<wgt id='morphing_basis_vector_2'> +9.7357494e-05 </wgt>
<wgt id='morphing_basis_vector_3'> +1.5477792e-04 </wgt>
<wgt id='morphing_basis_vector_4'> +1.0539195e-04 </wgt>
<wgt id='morphing_basis_vector_5'> +1.6795619e-04 </wgt>
</rwgt>
</event>
<event>
 4      1 +1.5130300e-07 1.84151700e+03 7.81860800e-03 8.13993200e-02
        2 -1    0    0  501    0 +0.0000000000e+00 +0.0000000000e+00 +7.9408099692e+02 7.9408099692e+02 0.0000000000e+00 0.0000e+00 -1.0000e+00
       -2 -1    0    0    0  501 -0.0000000000e+00 -0.0000000000e+00 -1.0676450251e+03 1.0676450251e+03 0.0000000000e+00 0.0000e+00 1.0000e+00
      -13  1    1    2    0    0 -2.9702665740e+02 -8.5986847720e+02 -2.8046125856e+02 9.5197539403e+02 0.0000000000e+00 0.0000e+00 1.0000e+00
       13  1    1    2    0    0 +2.9702665740e+02 +8.5986847720e+02 +6.8972304038e+00 9.0975062796e+02 0.0000000000e+00 0.0000e+00 -1.0000e+00
<mgrwt>
<rscale>  0 0.18415174E+04</rscale>
<asrwt>0</asrwt>
<pdfrwt beam="1">  1        2 0.12216631E+00 0.18415174E+04</pdfrwt>
<pdfrwt beam="2">  1       -2 0.16425308E+00 0.18415174E+04</pdfrwt>
<totfact> 0.89117300E+00</totfact>
</mgrwt>
<rwgt>
<wgt id='morphing_basis_vector_1'> +2.5060871e-04 </wgt>
<wgt id='morphing_basis_vector_2'> +1.7767435e-04 </wgt>
<wgt id='morphing_basis_vector_3'> +2.6751772e-04 </wgt>
<wgt id='morphing_basis_vector_4'> +1.7044062e-04 </wgt>
<wgt id='morphing_basis_vector_5'> +2.8639530e-04 </wgt>
</rwgt>
</event>
<event>
 4      1 +1.5130300e-07 1.55903700e+03 7.81860800e-03 8.28146800e-02
        2 -1    0    0  501    0 +0.0000000000e+00 +0.0000000000e+00 +1.2628865762e+03 1.2628865762e+03 0.0000000000e+00 0.0000e+00 1.0000e+00
       -2 -1    0    0    0  501 -0.0000000000e+00 -0.0000000000e+00 -4.8115897990e+02 4.8115897990e+02 0.0000000000e+00 0.0000e+00 -1.0000e+00
      -13  1    1    2    0    0 -2.6375419550e+02 +6.1416920439e+02 +8.3955877931e+02 1.0731398004e+03 0.0000000000e+00 0.0000e+00 1.0000e+00
       13  1    1    2    0    0 +2.6375419550e+02 -6.1416920439e+02 -5.7831183039e+01 6.7090575568e+02 0.0000000000e+00 0.0000e+00 -1.0000e+00
<mgrwt>
<rscale>  0 0.15590372E+04</rscale>
<asrwt>0</asrwt>
<pdfrwt beam="1">  1        2 0.19429024E+00 0.15590372E+04</pdfrwt>
<pdfrwt beam="2">  1       -2 0.74024459E-01 0.15590372E+04</pdfrwt>
<totfact> 0.35210285E+01</totfact>
</mgrwt>
<rwgt>
<wgt id='morphing_basis_vector_1'> +1.5299387e-04 </wgt>
<wgt id='morphing_basis_vector_2'> +1.5711959e-04 </wgt>
<wgt id='morphing_basis_vector_3'> +1.6660888e-04 </wgt>
<wgt id='morphing_basis_vector_4'> +4.4811062e-05 </wgt>
<wgt id='morphing_basis_vector_5'> +1.4129010e-04 </wgt>
</rwgt>
</event>
<event>
 4      1 +1.5130300e-07 1.66568500e+03 7.81860800e-03 8.22466600e-02
        2 -1    0    0  501    0 +0.0000000000e+00 +0.0000000000e+00 +1.1968591019e+03 1.1968591019e+03 0.0000000000e+00 0.0000e+00 -1.0000e+00
       -2 -1    0    0    0  501 -0.0000000000e+00 -0.0000000000e+00 -5.7953935091e+02 5.7953935091e+02 0.0000000000e+00 0.0000e+00 1.0000e+00
      -13  1    1    2    0    0 +7.9990464918e+02 +1.2133258064e+02 +5.1942651910e+02 9.6144316090e+02 0.0000000000e+00 0.0000e+00 1.0000e+00
       13  1    1    2    0    0 -7.9990464918e+02 -1.2133258064e+02 +9.7893231845e+01 8.1495529187e+02 0.0000000000e+00 0.0000e+00 -1.0000e+00
<mgrwt>
<rscale>  0 0.16656854E+04</rscale>
<asrwt>0</asrwt>
<pdfrwt beam="1">  1        2 0.18413217E+00 0.16656854E+04</pdfrwt>
<pdfrwt beam="2">  1       -2 0.89159900E-01 0.16656854E+04</pdfrwt>
<totfact> 0.24984484E+01</totfact>
</mgrwt>
<rwgt>
<wgt id='morphing_basis_vector_1'> +1.7983730e-04 </wgt>
<wgt id='morphing_basis_vector_2'> +1.5020598e-04 </wgt>
<wgt id='morphing_basis_vector_3'> +1.9326402e-04 </wgt>
<wgt id='morphing_basis_vector_4'> +9.3147163e-05 </wgt>
<wgt id='morphing_basis_vector_5'> +1.8817925e-04 </wgt>
</rwgt>
</event>
<event>
 4      1 +1.5130300e-07 1.76805700e+03 7.81860800e-03 8.17410400e-02
        2 -1    0    0  501    0 +0.0000000000e+00 +0.0000000000e+00 +1.6706025683e+03 1.6706025683e+03 0.0000000000e+00 0.0000e+00 -1.0000e+00
       -2 -1    0    0    0  501 -0.0000000000e+00 -0.0000000000e+00 -4.6779918750e+02 4.6779918750e+02 0.0000000000e+00 0.0000e+00 1.0000e+00
      -13  1    1    2    0    0 +8.6323370703e+02 -1.6578153496e+02 +4.8761834036e+02 1.0052002766e+03 0.0000000000e+00 0.0000e+00 1.0000e+00
       13  1    1    2    0    0 -8.6323370703e+02 +1.6578153496e+02 +7.1518504041e+02 1.1332014791e+03 0.0000000000e+00 0.0000e+00 -1.0000e+00
<mgrwt>
<rscale>  0 0.17680572E+04</rscale>
<asrwt>0</asrwt>
<pdfrwt beam="1">  1        2 0.25701578E+00 0.17680572E+04</pdfrwt>
<pdfrwt beam="2">  1       -2 0.71969107E-01 0.17680572E+04</pdfrwt>
<totfact> 0.21682652E+01</totfact>
</mgrwt>
<rwgt>
<wgt id='morphing_basis_vector_1'> +2.1466960e-04 </wgt>
<wgt id='morphing_basis_vector_2'> +1.5383228e-04 </wgt>
<wgt id='morphing_basis_vector_3'> +2.2854887e-04 </wgt>
<wgt id='morphing_basis_vector_4'> +1.4259251e-04 </wgt>
<wgt id='morphing_basis_vector_5'> +2.4225076e-04 </wgt>
</rwgt>
</event>
<event>
 4      1 +1.5130300e-07 1.59487900e+03 7.81860800e-03 8.26187000e-02
        2 -1    0    0  501    0 +0.0000000000e+00 +0.0000000000e+00 +2.1713501768e+03 2.1713501768e+03 0.0000000000e+00 0.0000e+00 -1.0000e+00
       -2 -1    0    0    0  501 -0.0000000000e+00 -0.0000000000e+00 -2.9286380442e+02 2.9286380442e+02 0.0000000000e+00 0.0000e+00 1.0000e+00
      -13  1    1    2    0    0 +6.1191800047e+02 +5.0882024748e+02 +8.6094274483e+02 1.1724180540e+03 0.0000000000e+00 0.0000e+00 1.0000e+00
       13  1    1    2    0    0 -6.1191800047e+02 -5.0882024748e+02 +1.0175436275e+03 1.2917959272e+03 0.0000000000e+00 0.0000e+00 -1.0000e+00
<mgrwt>
<rscale>  0 0.15948791E+04</rscale>
<asrwt>0</asrwt>
<pdfrwt beam="1">  1        2 0.33405386E+00 0.15948791E+04</pdfrwt>
<pdfrwt beam="2">  1       -2 0.45055971E-01 0.15948791E+04</pdfrwt>
<totfact> 0.29852155E+01</totfact>
</mgrwt>
<rwgt>
<wgt id='morphing_basis_vector_1'> +1.4440327e-04 </wgt>
<wgt id='morphing_basis_vector_2'> +1.0422991e-04 </wgt>
<wgt id='morphing_basis_vector_3'> +1.5215031e-04 </wgt>
<wgt id='morphing_basis_vector_4'> +9.2218594e-05 </wgt>
<wgt id='morphing_basis_vector_5'> +1.5842256e-04 </wgt>
</rwgt>
</event>
<event>
 4      1 +1.5130300e-07 1.80412100e+03 7.81860800e-03 8.15711800e-02
        2 -1    0    0  501    0 +0.0000000000e+00 +0.0000000000e+00 +5.0997134444e+02 5.0997134444e+02 0.0000000000e+00 0.0000e+00 -1.0000e+00
       -2 -1    0    0    0  501 -0.0000000000e+00 -0.0000000000e+00 -1.5956057945e+03 1.5956057945e+03 0.0000000000e+00 0.0000e+00 1.0000e+00
      -13  1    1    2    0    0 -7.2140693350e+02 +3.6677342184e+02 -1.0078456192e+03 1.2925569615e+03 0.0000000000e+00 0.0000e+00 1.0000e+00
       13  1    1    2    0    0 +7.2140693350e+02 -3.6677342184e+02 -7.7788830879e+01 8.1302017742e+02 0.0000000000e+00 0.0000e+00 -1.0000e+00
<mgrwt>
<rscale>  0 0.18041211E+04</rscale>
<asrwt>0</asrwt>
<pdfrwt beam="1">  1        2 0.78457131E-01 0.18041211E+04</pdfrwt>
<pdfrwt beam="2">  1       -2 0.24547781E+00 0.18041211E+04</pdfrwt>
<totfact> 0.38772249E+00</totfact>
</mgrwt>
<rwgt>
<wgt id='morphing_basis_vector_1'> +2.2802227e-04 </wgt>
<wgt id='morphing_basis_vector_2'> +1.5404370e-04 </wgt>
<wgt id='morphing_basis_vector_3'> +2.4179252e-04 </wgt>
<wgt id='morphing_basis_vector_4'> +1.6315568e-04 </wgt>
<wgt id='morphing_basis_vector_5'> +2.6380594e-04 </wgt>
</rwgt>
</event>
<event>
 4      1 +1.5130300e-07 1.69696700e+03 7.81860800e-03 8.20882900e-02
        2 -1    0    0  501    0 +0.0000000000e+00 +0.0000000000e+00 +9.4601916900e+02 9.4601916900e+02 0.0000000000e+00 0.0000e+00 -1.0000e+00
       -2 -1    0    0    0  501 -0.0000000000e+00 -0.0000000000e+00 -7.6100429507e+02 7.6100429507e+02 0.0000000000e+00 0.0000e+00 1.0000e+00
      -13  1    1    2    0    0 -1.7140910908e+02 -4.9851038461e+02 -5.7628648790e+02 7.8102484108e+02 0.0000000000e+00 0.0000e+00 1.0000e+00
       13  1    1    2    0    0 +1.7140910908e+02 +4.9851038461e+02 +7.6130136184e+02 9.2599862299e+02 0.0000000000e+00 0.0000e+00 -1.0000e+00
<mgrwt>
<rscale>  0 0.16969675E+04</rscale>
<asrwt>0</asrwt>
<pdfrwt beam="1">  1        2 0.14554141E+00 0.16969675E+04</pdfrwt>
<pdfrwt beam="2">  1       -2 0.11707758E+00 0.16969675E+04</pdfrwt>
<totfact> 0.18222113E+01</totfact>
</mgrwt>
<rwgt>
<wgt id='morphing_basis_vector_1'> +1.7867793e-04 </wgt>
<wgt id='morphing_basis_vector_2'> +1.1807588e-04 </wgt>
<wgt id='morphing_basis_vector_3'> +1.8802816e-04 </wgt>
<wgt id='morphing_basis_vector_4'> +1.2876874e-04 </wgt>
<wgt id='morphing_basis_vector_5'> +2.0530484e-04 </wgt>
</rwgt>
</event>
<event>
 4      1 +1.5130300e-07 1.61634300e+03 7.81860800e-03 8.25038500e-02
        2 -1    0    0  501    0 +0.0000000000e+00 +0.0000000000e+00 +1.7070391677e+03 1.7070391677e+03 0.0000000000e+00 0.0000e+00 -1.0000e+00
       -2 -1    0    0    0  501 -0.0000000000e+00 -0.0000000000e+00 -3.8261651921e+02 3.8261651921e+02 0.0000000000e+00 0.0000e+00 1.0000e+00
      -13  1    1    2    0    0 -5.5604113352e+02 +1.9133036800e+02 -5.4524963564e+01 5.9056077040e+02 0.0000000000e+00 0.0000e+00 1.0000e+00
       13  1    1    2    0    0 +5.5604113352e+02 -1.9133036800e+02 +1.3789476120e+03 1.4990949165e+03 0.0000000000e+00 0.0000e+00 -1.0000e+00
<mgrwt>
<rscale>  0 0.16163433E+04</rscale>
<asrwt>0</asrwt>
<pdfrwt beam="1">  1        2 0.26262141E+00 0.16163433E+04</pdfrwt>
<pdfrwt beam="2">  1       -2 0.58864081E-01 0.16163433E+04</pdfrwt>
<totfact> 0.31962221E+01</totfact>
</mgrwt>
<rwgt>
<wgt id='morphing_basis_vector_1'> +1.4802259e-04 </wgt>
<wgt id='morphing_basis_vector_2'> +9.7780438e-05 </wgt>
<wgt id='morphing_basis_vector_3'> +1.5500479e-04 </wgt>
<wgt id='morphing_basis_vector_4'> +1.0517382e-04 </wgt>
<wgt id='morphing_basis_vector_5'> +1.6799076e-04 </wgt>
</rwgt>
</event>
<event>
 4      1 +1.5130300e-07 1.56130800e+03 7.81860800e-03 8.28021000e-02
        2 -1    0    0  501    0 +0.0000000000e+00 +0.0000000000e+00 +6.7922487673e+02 6.7922487673e+02 0.0000000000e+00 0.0000e+00 -1.0000e+00
       -2 -1    0    0    0  501 -0.0000000000e+00 -0.0000000000e+00 -8.9722978912e+02 8.9722978912e+02 0.0000000000e+00 0.0000e+00 1.0000e+00
      -13  1    1    2    0    0 -5.0597721421e+02 +4.6841293046e+01 -7.0738457685e+02 8.7097645639e+02 0.0000000000e+00 0.0000e+00 1.0000e+00
       13  1    1    2    0    0 +5.0597721421e+02 -4.6841293046e+01 +4.8937966446e+02 7.0547820946e+02 0.0000000000e+00 0.0000e+00 -1.0000e+00
<mgrwt>
<rscale>  0 0.15613082E+04</rscale>
<asrwt>0</asrwt>
<pdfrwt beam="1">  1        2 0.10449613E+00 0.15613082E+04</pdfrwt>
<pdfrwt beam="2">  1       -2 0.13803535E+00 0.15613082E+04</pdfrwt>
<totfact> 0.18250512E+01</totfact>
</mgrwt>
<rwgt>
<wgt id='morphing_basis_vector_1'> +1.2935246e-04 </wgt>
<wgt id='morphing_basis_vector_2'> +8.5047580e-05 </wgt>
<wgt id='morphing_basis_vector_3'> +1.3489276e-04 </wgt>
<wgt id='morphing_basis_vector_4'> +9.1328290e-05 </wgt>
<wgt id='morphing_basis_vector_5'> +1.4561121e-04 </wgt>
</rwgt>
</event>
<event>
 4      1 +1.5130300e-07 1.78644800e+03 7.81860800e-03 8.16539100e-02
        2 -1    0    0  501    0 +0.0000000000e+00 +0.0000000000e+00 +6.9002471203e+02 6.9002471203e+02 0.0000000000e+00 0.0000e+00 -1.0000e+00
       -2 -1    0    0    0  501 -0.0000000000e+00 -0.0000000000e+00 -1.1562621291e+03 1.1562621291e+03 0.0000000000e+00 0.0000e+00 1.0000e+00
      -13  1    1    2    0    0 +6.6549338290e+02 -5.9303967262e+02 -2.9223563092e+02 9.3807204413e+02 0.0000000000e+00 0.0000e+00 1.0000e+00
       13  1    1    2    0    0 -6.6549338290e+02 +5.9303967262e+02 -1.7400178620e+02 9.0821479706e+02 0.0000000000e+00 0.0000e+00 -1.0000e+00
<mgrwt>
<rscale>  0 0.17864484E+04</rscale>
<asrwt>0</asrwt>
<pdfrwt beam="1">  1        2 0.10615765E+00 0.17864484E+04</pdfrwt>
<pdfrwt beam="2">  1       -2 0.17788648E+00 0.17864484E+04</pdfrwt>
<totfact> 0.83594862E+00</totfact>
</mgrwt>
<rwgt>
<wgt id='morphing_basis_vector_1'> +2.2443066e-04 </wgt>
<wgt id='morphing_basis_vector_2'> +1.6299061e-04 </wgt>
<wgt id='morphing_basis_vector_3'> +2.3950499e-04 </wgt>
<wgt id='morphing_basis_vector_4'> +1.4696882e-04 </wgt>
<wgt id='morphing_basis_vector_5'> +2.5261596e-04 </wgt>
</rwgt>
</event>
<event>
 4      1 +1.5130300e-07 1.62435300e+03 7.81860800e-03 8.24614700e-02
        2 -1    0    0  501    0 +0.0000000000e+00 +0.0000000000e+00 +2.0129735402e+03 2.0129735402e+03 0.0000000000e+00 0.0000e+00 -1.0000e+00
       -2 -1    0    0    0  501 -0.0000000000e+00 -0.0000000000e+00 -3.2768958371e+02 3.2768958371e+02 0.0000000000e+00 0.0000e+00 1.0000e+00
      -13  1    1    2    0    0 -3.5321352126e+02 +7.9611695236e+01 -2.0495557518e+02 4.1605841106e+02 0.0000000000e+00 0.0000e+00 1.0000e+00
       13  1    1    2    0    0 +3.5321352126e+02 -7.9611695236e+01 +1.8902395317e+03 1.9246047128e+03 0.0000000000e+00 0.0000e+00 -1.0000e+00
<mgrwt>
<rscale>  0 0.16243527E+04</rscale>
<asrwt>0</asrwt>
<pdfrwt beam="1">  1        2 0.30968823E+00 0.16243527E+04</pdfrwt>
<pdfrwt beam="2">  1       -2 0.50413783E-01 0.16243527E+04</pdfrwt>
<totfact> 0.29420879E+01</totfact>
</mgrwt>
<rwgt>
<wgt id='morphing_basis_vector_1'> +1.5069584e-04 </wgt>
<wgt id='morphing_basis_vector_2'> +9.9136105e-05 </wgt>
<wgt id='morphing_basis_vector_3'> +1.5783094e-04 </wgt>
<wgt id='morphing_basis_vector_4'> +1.0770289e-04 </wgt>
<wgt id='morphing_basis_vector_5'> +1.7147825e-04 </wgt>
</rwgt>
</event>
<event>
 4      1 +1.5130300e-07 1.70329100e+03 7.81860800e-03 8.20567100e-02
        2 -1    0    0  501    0 +0.0000000000e+00 +0.0000000000e+00 +1.6291218469e+03 1.6291218469e+03 0.0000000000e+00 0.0000e+00 1.0000e+00
       -2 -1    0    0    0  501 -0.0000000000e+00 -0.0000000000e+00 -4.4520903788e+02 4.4520903788e+02 0.0000000000e+00 0.0000e+00 -1.0000e+00
      -13  1    1    2    0    0 -4.2314162131e+01 -6.7630120355e+02 -3.6294166117e+01 6.7859492537e+02 0.0000000000e+00 0.0000e+00 -1.0000e+00
       13  1    1    2    0    0 +4.2314162131e+01 +6.7630120355e+02 +1.2202069751e+03 1.3957359594e+03 0.0000000000e+00 0.0000e+00 1.0000e+00
<mgrwt>
<rscale>  0 0.17032907E+04</rscale>
<asrwt>0</asrwt>
<pdfrwt beam="1">  1        2 0.25063413E+00 0.17032907E+04</pdfrwt>
<pdfrwt beam="2">  1       -2 0.68493699E-01 0.17032907E+04</pdfrwt>
<totfact> 0.25568763E+01</totfact>
</mgrwt>
<rwgt>
<wgt id='morphing_basis_vector_1'> +1.8161238e-04 </wgt>
<wgt id='morphing_basis_vector_2'> +1.2080805e-04 </wgt>
<wgt id='morphing_basis_vector_3'> +1.9129733e-04 </wgt>
<wgt id='morphing_basis_vector_4'> +1.3011256e-04 </wgt>
<wgt id='morphing_basis_vector_5'> +2.0842020e-04 </wgt>
</rwgt>
</event>
<event>
 4      1 +1.5130300e-07 1.56549200e+03 7.81860800e-03 8.27789900e-02
        2 -1    0    0  501    0 +0.0000000000e+00 +0.0000000000e+00 +2.1752999920e+03 2.1752999920e+03 0.0000000000e+00 0.0000e+00 -1.0000e+00
       -2 -1    0    0    0  501 -0.0000000000e+00 -0.0000000000e+00 -2.8165828564e+02 2.8165828564e+02 0.0000000000e+00 0.0000e+00 1.0000e+00
      -13  1    1    2    0    0 +3.4237769712e+02 -7.5837184707e+01 -1.5147603514e+02 3.8199313513e+02 0.0000000000e+00 0.0000e+00 1.0000e+00
       13  1    1    2    0    0 -3.4237769712e+02 +7.5837184707e+01 +2.0451177415e+03 2.0749651425e+03 0.0000000000e+00 0.0000e+00 -1.0000e+00
<mgrwt>
<rscale>  0 0.15654920E+04</rscale>
<asrwt>0</asrwt>
<pdfrwt beam="1">  1        2 0.33466153E+00 0.15654920E+04</pdfrwt>
<pdfrwt beam="2">  1       -2 0.43332045E-01 0.15654920E+04</pdfrwt>
<totfact> 0.32077473E+01</totfact>
</mgrwt>
<rwgt>
<wgt id='morphing_basis_vector_1'> +1.3061674e-04 </wgt>
<wgt id='morphing_basis_vector_2'> +8.5704996e-05 </wgt>
<wgt id='morphing_basis_vector_3'> +1.3623009e-04 </wgt>
<wgt id='morphing_basis_vector_4'> +9.2497910e-05 </wgt>
<wgt id='morphing_basis_vector_5'> +1.4724255e-04 </wgt>
</rwgt>
</event>
<event>
 4      1 +1.5130300e-07 1.74640400e+03 7.81860800e-03 8.18450100e-02
        2 -1    0    0  501    0 +0.0000000000e+00 +0.0000000000e+00 +2.2591614554e+03 2.2591614554e+03 0.0000000000e+00 0.0000e+00 -1.0000e+00
       -2 -1    0    0    0  501 -0.0000000000e+00 -0.0000000000e+00 -3.3750647945e+02 3.3750647945e+02 0.0000000000e+00 0.0000e+00 1.0000e+00
      -13  1    1    2    0    0 -5.1211735816e+01 +7.3403355977e+02 +2.6175752591e+02 7.8098969975e+02 0.0000000000e+00 0.0000e+00 1.0000e+00
       13  1    1    2    0    0 +5.1211735816e+01 -7.3403355977e+02 +1.6598974501e+03 1.8156782351e+03 0.0000000000e+00 0.0000e+00 -1.0000e+00
<mgrwt>
<rscale>  0 0.17464039E+04</rscale>
<asrwt>0</asrwt>
<pdfrwt beam="1">  1        2 0.34756329E+00 0.17464039E+04</pdfrwt>
<pdfrwt beam="2">  1       -2 0.51924075E-01 0.17464039E+04</pdfrwt>
<totfact> 0.19900853E+01</totfact>
</mgrwt>
<rwgt>
<wgt id='morphing_basis_vector_1'> +2.0040602e-04 </wgt>
<wgt id='morphing_basis_vector_2'> +1.3405564e-04 </wgt>
<wgt id='morphing_basis_vector_3'> +2.1169513e-04 </wgt>
<wgt id='morphing_basis_vector_4'> +1.4371396e-04 </wgt>
<wgt id='morphing_basis_vector_5'> +2.3093079e-04 </wgt>
</rwgt>
</event>
<event>
 4      1 +1.5130300e-07 1.57884200e+03 7.81860800e-03 8.27057200e-02
        2 -1    0    0  501    0 +0.0000000000e+00 +0.0000000000e+00 +1.8983195292e+03 1.8983195292e+03 0.0000000000e+00 0.0000e+00 1.0000e+00
       -2 -1    0    0    0  501 -0.0000000000e+00 -0.0000000000e+00 -3.2828285500e+02 3.2828285500e+02 0.0000000000e+00 0.0000e+00 -1.0000e+00
      -13  1    1    2    0    0 -8.1642409582e+01 -5.0747018294e+02 -5.9964101342e+01 5.1748155819e+02 0.0000000000e+00 0.0000e+00 -1.0000e+00
       13  1    1    2    0    0 +8.1642409582e+01 +5.0747018294e+02 +1.6300007755e+03 1.7091208260e+03 0.0000000000e+00 0.0000e+00 1.0000e+00
<mgrwt>
<rscale>  0 0.15788423E+04</rscale>
<asrwt>0</asrwt>
<pdfrwt beam="1">  1        2 0.29204915E+00 0.15788423E+04</pdfrwt>
<pdfrwt beam="2">  1       -2 0.50505056E-01 0.15788423E+04</pdfrwt>
<totfact> 0.34120161E+01</totfact>
</mgrwt>
<rwgt>
<wgt id='morphing_basis_vector_1'> +1.3506653e-04 </wgt>
<wgt id='morphing_basis_vector_2'> +8.8876344e-05 </wgt>
<wgt id='morphing_basis_vector_3'> +1.4103566e-04 </wgt>
<wgt id='morphing_basis_vector_4'> +9.5635794e-05 </wgt>
<wgt id='morphing_basis_vector_5'> +1.5248877e-04 </wgt>
</rwgt>
</event>
<event>
 4      1 +1.5130300e-07 1.74438500e+03 7.81860800e-03 8.18547900e-02
        2 -1    0    0  501    0 +0.0000000000e+00 +0.0000000000e+00 +8.3091524802e+02 8.3091524802e+02 0.0000000000e+00 0.0000e+00 1.0000e+00
       -2 -1    0    0    0  501 -0.0000000000e+00 -0.0000000000e+00 -9.1551995637e+02 9.1551995637e+02 0.0000000000e+00 0.0000e+00 -1.0000e+00
      -13  1    1    2    0    0 +6.0116170071e+02 -5.8012520967e+02 -2.9315394575e+02 8.8536991434e+02 0.0000000000e+00 0.0000e+00 1.0000e+00
       13  1    1    2    0    0 -6.0116170071e+02 +5.8012520967e+02 +2.0854923740e+02 8.6106529005e+02 0.0000000000e+00 0.0000e+00 -1.0000e+00
<mgrwt>
<rscale>  0 0.17443847E+04</rscale>
<asrwt>0</asrwt>
<pdfrwt beam="1">  1        2 0.12783312E+00 0.17443847E+04</pdfrwt>
<pdfrwt beam="2">  1       -2 0.14084922E+00 0.17443847E+04</pdfrwt>
<totfact> 0.13192143E+01</totfact>
</mgrwt>
<rwgt>
<wgt id='morphing_basis_vector_1'> +2.0117428e-04 </wgt>
<wgt id='morphing_basis_vector_2'> +1.3839999e-04 </wgt>
<wgt id='morphing_basis_vector_3'> +2.1304934e-04 </wgt>
<wgt id='morphing_basis_vector_4'> +1.3979718e-04 </wgt>
<wgt id='morphing_basis_vector_5'> +2.2958708e-04 </wgt>
</rwgt>
</event>
<event>
 4      1 +1.5130300e-07 1.63075100e+03 7.81860800e-03 8.24277900e-02
        2 -1    0    0  501    0 +0.0000000000e+00 +0.0000000000e+00 +1.9016173716e+03 1.9016173716e+03 0.0000000000e+00 0.0000e+00 1.0000e+00
       -2 -1    0    0    0  501 -0.0000000000e+00 -0.0000000000e+00 -3.4961659518e+02 3.4961659518e+02 0.0000000000e+00 0.0000e+00 -1.0000e+00
      -13  1    1    2    0    0 +4.0112121288e+02 +8.5703678998e+01 -1.9682215818e+02 4.5495308546e+02 0.0000000000e+00 0.0000e+00 -1.0000e+00
       13  1    1    2    0    0 -4.0112121288e+02 -8.5703678998e+01 +1.7488229346e+03 1.7962808813e+03 0.0000000000e+00 0.0000e+00 1.0000e+00
<mgrwt>
<rscale>  0 0.16307507E+04</rscale>
<asrwt>0</asrwt>
<pdfrwt beam="1">  1        2 0.29255651E+00 0.16307507E+04</pdfrwt>
<pdfrwt beam="2">  1       -2 0.53787170E-01 0.16307507E+04</pdfrwt>
<totfact> 0.29854587E+01</totfact>
</mgrwt>
<rwgt>
<wgt id='morphing_basis_vector_1'> +1.5302532e-04 </wgt>
<wgt id='morphing_basis_vector_2'> +1.0072746e-04 </wgt>
<wgt id='morphing_basis_vector_3'> +1.6034379e-04 </wgt>
<wgt id='morphing_basis_vector_4'> +1.0943425e-04 </wgt>
<wgt id='morphing_basis_vector_5'> +1.7427819e-04 </wgt>
</rwgt>
</event>
<event>
 4      1 +1.5130300e-07 1.69728300e+03 7.81860800e-03 8.20867200e-02
        2 -1    0    0  501    0 +0.0000000000e+00 +0.0000000000e+00 +2.4883873570e+03 2.4883873570e+03 0.0000000000e+00 0.0000e+00 -1.0000e+00
       -2 -1    0    0    0  501 -0.0000000000e+00 -0.0000000000e+00 -2.8942126538e+02 2.8942126538e+02 0.0000000000e+00 0.0000e+00 1.0000e+00
      -13  1    1    2    0    0 -1.1441504407e+02 -4.7891339493e+02 -3.1732723923e+01 4.9341241160e+02 0.0000000000e+00 0.0000e+00 1.0000e+00
       13  1    1    2    0    0 +1.1441504407e+02 +4.7891339493e+02 +2.2306988155e+03 2.2843962108e+03 0.0000000000e+00 0.0000e+00 -1.0000e+00
<mgrwt>
<rscale>  0 0.16972828E+04</rscale>
<asrwt>0</asrwt>
<pdfrwt beam="1">  1        2 0.38282881E+00 0.16972828E+04</pdfrwt>
<pdfrwt beam="2">  1       -2 0.44526350E-01 0.16972828E+04</pdfrwt>
<totfact> 0.19806269E+01</totfact>
</mgrwt>
<rwgt>
<wgt id='morphing_basis_vector_1'> +1.7877630e-04 </wgt>
<wgt id='morphing_basis_vector_2'> +1.1807119e-04 </wgt>
<wgt id='morphing_basis_vector_3'> +1.8812509e-04 </wgt>
<wgt id='morphing_basis_vector_4'> +1.2892636e-04 </wgt>
<wgt id='morphing_basis_vector_5'> +2.0546632e-04 </wgt>
</rwgt>
</event>
<event>
 4      1 +1.5130300e-07 1.57972300e+03 7.81860800e-03 8.27009200e-02
        2 -1    0    0  501    0 +0.0000000000e+00 +0.0000000000e+00 +9.0149045929e+02 9.0149045929e+02 0.0000000000e+00 0.0000e+00 1.0000e+00
       -2 -1    0    0    0  501 -0.0000000000e+00 -0.0000000000e+00 -6.9205487883e+02 6.9205487883e+02 0.0000000000e+00 0.0000e+00 -1.0000e+00
      -13  1    1    2    0    0 -1.0324065800e+02 -6.0493135173e+02 -3.9690625994e+02 7.3084550552e+02 0.0000000000e+00 0.0000e+00 -1.0000e+00
       13  1    1    2    0    0 +1.0324065800e+02 +6.0493135173e+02 +6.0634184039e+02 8.6269983260e+02 0.0000000000e+00 0.0000e+00 1.0000e+00
<mgrwt>
<rscale>  0 0.15797226E+04</rscale>
<asrwt>0</asrwt>
<pdfrwt beam="1">  1        2 0.13869084E+00 0.15797226E+04</pdfrwt>
<pdfrwt beam="2">  1       -2 0.10646998E+00 0.15797226E+04</pdfrwt>
<totfact> 0.24987865E+01</totfact>
</mgrwt>
<rwgt>
<wgt id='morphing_basis_vector_1'> +1.3553666e-04 </wgt>
<wgt id='morphing_basis_vector_2'> +8.9602644e-05 </wgt>
<wgt id='morphing_basis_vector_3'> +1.4158870e-04 </wgt>
<wgt id='morphing_basis_vector_4'> +9.5518398e-05 </wgt>
<wgt id='morphing_basis_vector_5'> +1.5281488e-04 </wgt>
</rwgt>
</event>
<event>
 4      1 +1.5130300e-07 1.68477000e+03 7.81860800e-03 8.21496200e-02
        2 -1    0    0  501    0 +0.0000000000e+00 +0.0000000000e+00 +1.6052893768e+03 1.6052893768e+03 0.0000000000e+00 0.0000e+00 1.0000e+00
       -2 -1    0    0    0  501 -0.0000000000e+00 -0.0000000000e+00 -4.4204668797e+02 4.4204668797e+02 0.0000000000e+00 0.0000e+00 -1.0000e+00
      -13  1    1    2    0    0 +8.2636253079e+02 -1.3693683131e+02 +6.9021799590e+02 1.0853698033e+03 0.0000000000e+00 0.0000e+00 -1.0000e+00
       13  1    1    2    0    0 -8.2636253079e+02 +1.3693683131e+02 +4.7302469295e+02 9.6196626147e+02 0.0000000000e+00 0.0000e+00 1.0000e+00
<mgrwt>
<rscale>  0 0.16847704E+04</rscale>
<asrwt>0</asrwt>
<pdfrwt beam="1">  1        2 0.24696759E+00 0.16847704E+04</pdfrwt>
<pdfrwt beam="2">  1       -2 0.68007183E-01 0.16847704E+04</pdfrwt>
<totfact> 0.26806821E+01</totfact>
</mgrwt>
<rwgt>
<wgt id='morphing_basis_vector_1'> +1.8284141e-04 </wgt>
<wgt id='morphing_basis_vector_2'> +1.4181449e-04 </wgt>
<wgt id='morphing_basis_vector_3'> +1.9523813e-04 </wgt>
<wgt id='morphing_basis_vector_4'> +1.0749168e-04 </wgt>
<wgt id='morphing_basis_vector_5'> +1.9796310e-04 </wgt>
</rwgt>
</event>
<event>
 4      1 +1.5130300e-07 1.55150700e+03 7.81860800e-03 8.28565500e-02
        2 -1    0    0  501    0 +0.0000000000e+00 +0.0000000000e+00 +1.0168015611e+03 1.0168015611e+03 0.0000000000e+00 0.0000e+00 1.0000e+00
       -2 -1    0    0    0  501 -0.0000000000e+00 -0.0000000000e+00 -5.9184927435e+02 5.9184927435e+02 0.0000000000e+00 0.0000e+00 -1.0000e+00
      -13  1    1    2    0    0 +3.3199342770e+02 -1.7369717660e+02 -4.9180863321e+02 6.1827669930e+02 0.0000000000e+00 0.0000e+00 -1.0000e+00
       13  1    1    2    0    0 -3.3199342770e+02 +1.7369717660e+02 +9.1676091998e+02 9.9037413617e+02 0.0000000000e+00 0.0000e+00 1.0000e+00
<mgrwt>
<rscale>  0 0.15515067E+04</rscale>
<asrwt>0</asrwt>
<pdfrwt beam="1">  1        2 0.15643101E+00 0.15515067E+04</pdfrwt>
<pdfrwt beam="2">  1       -2 0.91053735E-01 0.15515067E+04</pdfrwt>
<totfact> 0.30803772E+01</totfact>
</mgrwt>
<rwgt>
<wgt id='morphing_basis_vector_1'> +1.2616654e-04 </wgt>
<wgt id='morphing_basis_vector_2'> +8.2745575e-05 </wgt>
<wgt id='morphing_basis_vector_3'> +1.3145093e-04 </wgt>
<wgt id='morphing_basis_vector_4'> +8.9121269e-05 </wgt>
<wgt id='morphing_basis_vector_5'> +1.4187877e-04 </wgt>
</rwgt>
</event>
<event>
 4      1 +1.5130300e-07 1.65464000e+03 7.81860800e-03 8.23034300e-02
        2 -1    0    0  501    0 +0.0000000000e+00 +0.0000000000e+00 +6.8997795463e+02 6.8997795463e+02 0.0000000000e+00 0.0000e+00 1.0000e+00
       -2 -1    0    0    0  501 -0.0000000000e+00 -0.0000000000e+00 -9.9200018416e+02 9.9200018416e+02 0.0000000000e+00 0.0000e+00 -1.0000e+00
      -13  1    1    2    0    0 -2.9051739587e+02 -3.4005635832e+02 -8.5851317525e+02 9.6803076202e+02 0.0000000000e+00 0.0000e+00 -1.0000e+00
       13  1    1    2    0    0 +2.9051739587e+02 +3.4005635832e+02 +5.5649094572e+02 7.1394737677e+02 0.0000000000e+00 0.0000e+00 1.0000e+00
<mgrwt>
<rscale>  0 0.16546398E+04</rscale>
<asrwt>0</asrwt>
<pdfrwt beam="1">  1        2 0.10615046E+00 0.16546398E+04</pdfrwt>
<pdfrwt beam="2">  1       -2 0.15261541E+00 0.16546398E+04</pdfrwt>
<totfact> 0.13392973E+01</totfact>
</mgrwt>
<rwgt>
<wgt id='morphing_basis_vector_1'> +1.6192541e-04 </wgt>
<wgt id='morphing_basis_vector_2'> +1.0672154e-04 </wgt>
<wgt id='morphing_basis_vector_3'> +1.6993888e-04 </wgt>
<wgt id='morphing_basis_vector_4'> +1.1615813e-04 </wgt>
<wgt id='morphing_basis_vector_5'> +1.8503943e-04 </wgt>
</rwgt>
</event>
<event>
 4      1 +1.5130300e-07 1.59202700e+03 7.81860800e-03 8.26341000e-02
        2 -1    0    0  501    0 +0.0000000000e+00 +0.0000000000e+00 +1.8997244599e+03 1.8997244599e+03 0.0000000000e+00 0.0000e+00 1.0000e+00
       -2 -1    0    0    0  501 -0.0000000000e+00 -0.0000000000e+00 -3.3354192271e+02 3.3354192271e+02 0.0000000000e+00 0.0000e+00 -1.0000e+00
      -13  1    1    2    0    0 -2.2314634543e+02 -2.8708032657e+02 -2.1024078812e+02 4.2001261216e+02 0.0000000000e+00 0.0000e+00 -1.0000e+00
       13  1    1    2    0    0 +2.2314634543e+02 +2.8708032657e+02 +1.7764233253e+03 1.8132537705e+03 0.0000000000e+00 0.0000e+00 1.0000e+00
<mgrwt>
<rscale>  0 0.15920273E+04</rscale>
<asrwt>0</asrwt>
<pdfrwt beam="1">  1        2 0.29226529E+00 0.15920273E+04</pdfrwt>
<pdfrwt beam="2">  1       -2 0.51314143E-01 0.15920273E+04</pdfrwt>
<totfact> 0.32970940E+01</totfact>
</mgrwt>
<rwgt>
<wgt id='morphing_basis_vector_1'> +1.3940146e-04 </wgt>
<wgt id='morphing_basis_vector_2'> +9.1582968e-05 </wgt>
<wgt id='morphing_basis_vector_3'> +1.4567529e-04 </wgt>
<wgt id='morphing_basis_vector_4'> +9.9136743e-05 </wgt>
<wgt id='morphing_basis_vector_5'> +1.5782938e-04 </wgt>
</rwgt>
</event>
<event>
 4      1 +1.5130300e-07 1.85114700e+03 7.81860800e-03 8.13557600e-02
        2 -1    0    0  501    0 +0.0000000000e+00 +0.0000000000e+00 +2.0171600008e+03 2.0171600008e+03 0.0000000000e+00 0.0000e+00 -1.0000e+00
       -2 -1    0    0    0  501 -0.0000000000e+00 -0.0000000000e+00 -4.2469942324e+02 4.2469942324e+02 0.0000000000e+00 0.0000e+00 1.0000e+00
      -13  1    1    2    0    0 +5.4100128016e+02 -7.3765468287e+02 +6.1028841860e+02 1.0996675726e+03 0.0000000000e+00 0.0000e+00 1.0000e+00
       13  1    1    2    0    0 -5.4100128016e+02 +7.3765468287e+02 +9.8217215896e+02 1.3421918515e+03 0.0000000000e+00 0.0000e+00 -1.0000e+00
<mgrwt>
<rscale>  0 0.18511474E+04</rscale>
<asrwt>0</asrwt>
<pdfrwt beam="1">  1        2 0.31033230E+00 0.18511474E+04</pdfrwt>
<pdfrwt beam="2">  1       -2 0.65338374E-01 0.18511474E+04</pdfrwt>
<totfact> 0.16943371E+01</totfact>
</mgrwt>
<rwgt>
<wgt id='morphing_basis_vector_1'> +2.5580759e-04 </wgt>
<wgt id='morphing_basis_vector_2'> +1.8149927e-04 </wgt>
<wgt id='morphing_basis_vector_3'> +2.7321348e-04 </wgt>
<wgt id='morphing_basis_vector_4'> +1.7403507e-04 </wgt>
<wgt id='morphing_basis_vector_5'> +2.9257086e-04 </wgt>
</rwgt>
</event>
<event>
 4      1 +1.5130300e-07 1.85300600e+03 7.81860800e-03 8.13473800e-02
        2 -1    0    0  501    0 +0.0000000000e+00 +0.0000000000e+00 +1.5151348728e+03 1.5151348728e+03 0.0000000000e+00 0.0000e+00 -1.0000e+00
       -2 -1    0    0    0  501 -0.0000000000e+00 -0.0000000000e+00 -5.6655563859e+02 5.6655563859e+02 0.0000000000e+00 0.0000e+00 1.0000e+00
      -13  1    1    2    0    0 -6.8675346980e+02 -3.2143441873e+02 -1.2382365077e+02 7.6829858149e+02 0.0000000000e+00 0.0000e+00 1.0000e+00
       13  1    1    2    0    0 +6.8675346980e+02 +3.2143441873e+02 +1.0724028850e+03 1.3133919299e+03 0.0000000000e+00 0.0000e+00 -1.0000e+00
<mgrwt>
<rscale>  0 0.18530064E+04</rscale>
<asrwt>0</asrwt>
<pdfrwt beam="1">  1        2 0.23309767E+00 0.18530064E+04</pdfrwt>
<pdfrwt beam="2">  1       -2 0.87162407E-01 0.18530064E+04</pdfrwt>
<totfact> 0.17077036E+01</totfact>
</mgrwt>
<rwgt>
<wgt id='morphing_basis_vector_1'> +2.5234162e-04 </wgt>
<wgt id='morphing_basis_vector_2'> +1.6896374e-04 </wgt>
<wgt id='morphing_basis_vector_3'> +2.6794516e-04 </wgt>
<wgt id='morphing_basis_vector_4'> +1.8352717e-04 </wgt>
<wgt id='morphing_basis_vector_5'> +2.9445940e-04 </wgt>
</rwgt>
</event>
<event>
 4      1 +1.5130300e-07 1.72746700e+03 7.81860800e-03 8.19372200e-02
        2 -1    0    0  501    0 +0.0000000000e+00 +0.0000000000e+00 +5.4131221307e+02 5.4131221307e+02 0.0000000000e+00 0.0000e+00 1.0000e+00
       -2 -1    0    0    0  501 -0.0000000000e+00 -0.0000000000e+00 -1.3781982669e+03 1.3781982669e+03 0.0000000000e+00 0.0000e+00 -1.0000e+00
      -13  1    1    2    0    0 -3.8748954626e+02 +6.6624850930e+02 -8.5165753625e+02 1.1486321359e+03 0.0000000000e+00 0.0000e+00 -1.0000e+00
       13  1    1    2    0    0 +3.8748954626e+02 -6.6624850930e+02 +1.4771482441e+01 7.7087834403e+02 0.0000000000e+00 0.0000e+00 1.0000e+00
<mgrwt>
<rscale>  0 0.17274670E+04</rscale>
<asrwt>0</asrwt>
<pdfrwt beam="1">  1        2 0.83278804E-01 0.17274670E+04</pdfrwt>
<pdfrwt beam="2">  1       -2 0.21203050E+00 0.17274670E+04</pdfrwt>
<totfact> 0.62667630E+00</totfact>
</mgrwt>
<rwgt>
<wgt id='morphing_basis_vector_1'> +1.9247588e-04 </wgt>
<wgt id='morphing_basis_vector_2'> +1.2958637e-04 </wgt>
<wgt id='morphing_basis_vector_3'> +2.0323548e-04 </wgt>
<wgt id='morphing_basis_vector_4'> +1.3665396e-04 </wgt>
<wgt id='morphing_basis_vector_5'> +2.2075790e-04 </wgt>
</rwgt>
</event>
<event>
 4      1 +1.5130300e-07 1.55767900e+03 7.81860800e-03 8.28222100e-02
        2 -1    0    0  501    0 +0.0000000000e+00 +0.0000000000e+00 +9.6949339343e+02 9.6949339343e+02 0.0000000000e+00 0.0000e+00 1.0000e+00
       -2 -1    0    0    0  501 -0.0000000000e+00 -0.0000000000e+00 -6.2567861155e+02 6.2567861155e+02 0.0000000000e+00 0.0000e+00 -1.0000e+00
      -13  1    1    2    0    0 -8.1517704392e+01 +7.6085158240e+02 +2.3325476676e+01 7.6556145699e+02 0.0000000000e+00 0.0000e+00 -1.0000e+00
       13  1    1    2    0    0 +8.1517704392e+01 -7.6085158240e+02 +3.2048930520e+02 8.2961054798e+02 0.0000000000e+00 0.0000e+00 1.0000e+00
<mgrwt>
<rscale>  0 0.15576794E+04</rscale>
<asrwt>0</asrwt>
<pdfrwt beam="1">  1        2 0.14915283E+00 0.15576794E+04</pdfrwt>
<pdfrwt beam="2">  1       -2 0.96258248E-01 0.15576794E+04</pdfrwt>
<totfact> 0.28913571E+01</totfact>
</mgrwt>
<rwgt>
<wgt id='morphing_basis_vector_1'> +1.3041018e-04 </wgt>
<wgt id='morphing_basis_vector_2'> +9.0872579e-05 </wgt>
<wgt id='morphing_basis_vector_3'> +1.3660239e-04 </wgt>
<wgt id='morphing_basis_vector_4'> +8.6273769e-05 </wgt>
<wgt id='morphing_basis_vector_5'> +1.4390362e-04 </wgt>
</rwgt>
</event>
<event>
 4      1 +1.5130300e-07 1.66344400e+03 7.81860800e-03 8.22581500e-02
        2 -1    0    0  501    0 +0.0000000000e+00 +0.0000000000e+00 +1.3833048744e+03 1.3833048744e+03 0.0000000000e+00 0.0000e+00 -1.0000e+00
       -2 -1    0    0    0  501 -0.0000000000e+00 -0.0000000000e+00 -5.0007866948e+02 5.0007866948e+02 0.0000000000e+00 0.0000e+00 1.0000e+00
      -13  1    1    2    0    0 -2.6023373066e+02 -6.9153381534e+02 +9.2584168721e+00 7.3893594487e+02 0.0000000000e+00 0.0000e+00 1.0000e+00
       13  1    1    2    0    0 +2.6023373066e+02 +6.9153381534e+02 +8.7396778808e+02 1.1444475990e+03 0.0000000000e+00 0.0000e+00 -1.0000e+00
<mgrwt>
<rscale>  0 0.16634437E+04</rscale>
<asrwt>0</asrwt>
<pdfrwt beam="1">  1        2 0.21281613E+00 0.16634437E+04</pdfrwt>
<pdfrwt beam="2">  1       -2 0.76935180E-01 0.16634437E+04</pdfrwt>
<totfact> 0.27359216E+01</totfact>
</mgrwt>
<rwgt>
<wgt id='morphing_basis_vector_1'> +1.6615198e-04 </wgt>
<wgt id='morphing_basis_vector_2'> +1.1152267e-04 </wgt>
<wgt id='morphing_basis_vector_3'> +1.7474636e-04 </wgt>
<wgt id='morphing_basis_vector_4'> +1.1708215e-04 </wgt>
<wgt id='morphing_basis_vector_5'> +1.8900284e-04 </wgt>
</rwgt>
</event>
<event>
 4      1 +1.5130300e-07 1.62617900e+03 7.81860800e-03 8.24518400e-02
        2 -1    0    0  501    0 +0.0000000000e+00 +0.0000000000e+00 +8.7521799350e+02 8.7521799350e+02 0.0000000000e+00 0.0000e+00 -1.0000e+00
       -2 -1    0    0    0  501 -0.0000000000e+00 -0.0000000000e+00 -7.5537134803e+02 7.5537134803e+02 0.0000000000e+00 0.0000e+00 1.0000e+00
      -13  1    1    2    0    0 +6.7617248941e+02 +7.7899347890e+01 -3.8607173544e+02 7.8251449107e+02 0.0000000000e+00 0.0000e+00 1.0000e+00
       13  1    1    2    0    0 -6.7617248941e+02 -7.7899347890e+01 +5.0591838091e+02 8.4807485046e+02 0.0000000000e+00 0.0000e+00 -1.0000e+00
<mgrwt>
<rscale>  0 0.16261791E+04</rscale>
<asrwt>0</asrwt>
<pdfrwt beam="1">  1        2 0.13464892E+00 0.16261791E+04</pdfrwt>
<pdfrwt beam="2">  1       -2 0.11621098E+00 0.16261791E+04</pdfrwt>
<totfact> 0.20774720E+01</totfact>
</mgrwt>
<rwgt>
<wgt id='morphing_basis_vector_1'> +1.5185478e-04 </wgt>
<wgt id='morphing_basis_vector_2'> +1.0106588e-04 </wgt>
<wgt id='morphing_basis_vector_3'> +1.5921995e-04 </wgt>
<wgt id='morphing_basis_vector_4'> +1.0724752e-04 </wgt>
<wgt id='morphing_basis_vector_5'> +1.7220224e-04 </wgt>
</rwgt>
</event>
<event>
 4      1 +1.5130300e-07 1.74718400e+03 7.81860800e-03 8.18412400e-02
        2 -1    0    0  501    0 +0.0000000000e+00 +0.0000000000e+00 +2.1514190935e+03 2.1514190935e+03 0.0000000000e+00 0.0000e+00 -1.0000e+00
       -2 -1    0    0    0  501 -0.0000000000e+00 -0.0000000000e+00 -3.5472548877e+02 3.5472548877e+02 0.0000000000e+00 0.0000e+00 1.0000e+00
      -13  1    1    2    0    0 +4.8261533478e+02 +7.1576135333e+02 +7.0627064106e+02 1.1153699363e+03 0.0000000000e+00 0.0000e+00 1.0000e+00
       13  1    1    2    0    0 -4.8261533478e+02 -7.1576135333e+02 +1.0904229636e+03 1.3907746460e+03 0.0000000000e+00 0.0000e+00 -1.0000e+00
<mgrwt>
<rscale>  0 0.17471842E+04</rscale>
<asrwt>0</asrwt>
<pdfrwt beam="1">  1        2 0.33098754E+00 0.17471842E+04</pdfrwt>
<pdfrwt beam="2">  1       -2 0.54573154E-01 0.17471842E+04</pdfrwt>
<totfact> 0.20766375E+01</totfact>
</mgrwt>
<rwgt>
<wgt id='morphing_basis_vector_1'> +2.0415421e-04 </wgt>
<wgt id='morphing_basis_vector_2'> +1.4438503e-04 </wgt>
<wgt id='morphing_basis_vector_3'> +2.1681958e-04 </wgt>
<wgt id='morphing_basis_vector_4'> +1.3738463e-04 </wgt>
<wgt id='morphing_basis_vector_5'> +2.3084687e-04 </wgt>
</rwgt>
</event>
<event>
 4      1 +1.5130300e-07 1.64615800e+03 7.81860800e-03 8.23473400e-02
        2 -1    0    0  501    0 +0.0000000000e+00 +0.0000000000e+00 +3.4208402964e+03 3.4208402964e+03 0.0000000000e+00 0.0000e+00 -1.0000e+00
       -2 -1    0    0    0  501 -0.0000000000e+00 -0.0000000000e+00 -1.9803889975e+02 1.9803889975e+02 0.0000000000e+00 0.0000e+00 1.0000e+00
      -13  1    1    2    0    0 +5.7777941203e+02 +4.9380229092e+02 +9.1694380981e+02 1.1909893794e+03 0.0000000000e+00 0.0000e+00 1.0000e+00
       13  1    1    2    0    0 -5.7777941203e+02 -4.9380229092e+02 +2.3058575868e+03 2.4278898168e+03 0.0000000000e+00 0.0000e+00 -1.0000e+00
<mgrwt>
<rscale>  0 0.16461585E+04</rscale>
<asrwt>0</asrwt>
<pdfrwt beam="1">  1        2 0.52628308E+00 0.16461585E+04</pdfrwt>
<pdfrwt beam="2">  1       -2 0.30467526E-01 0.16461585E+04</pdfrwt>
<totfact> 0.10013117E+01</totfact>
</mgrwt>
<rwgt>
<wgt id='morphing_basis_vector_1'> +1.5992389e-04 </wgt>
<wgt id='morphing_basis_vector_2'> +1.0813744e-04 </wgt>
<wgt id='morphing_basis_vector_3'> +1.6812521e-04 </wgt>
<wgt id='morphing_basis_vector_4'> +1.1143718e-04 </wgt>
<wgt id='morphing_basis_vector_5'> +1.8098912e-04 </wgt>
</rwgt>
</event>
<event>
 4      1 +1.5130300e-07 1.80492400e+03 7.81860800e-03 8.15674500e-02
        2 -1    0    0  501    0 +0.0000000000e+00 +0.0000000000e+00 +1.0936215871e+03 1.0936215871e+03 0.0000000000e+00 0.0000e+00 -1.0000e+00
       -2 -1    0    0    0  501 -0.0000000000e+00 -0.0000000000e+00 -7.4471610941e+02 7.4471610941e+02 0.0000000000e+00 0.0000e+00 1.0000e+00
      -13  1    1    2    0    0 +1.4847959925e+02 -1.6194393996e+02 +1.0659657898e+03 1.0883726825e+03 0.0000000000e+00 0.0000e+00 -1.0000e+00
       13  1    1    2    0    0 -1.4847959925e+02 +1.6194393996e+02 -7.1706031207e+02 7.4996501401e+02 0.0000000000e+00 0.0000e+00 1.0000e+00
<mgrwt>
<rscale>  0 0.18049239E+04</rscale>
<asrwt>0</asrwt>
<pdfrwt beam="1">  1        2 0.16824947E+00 0.18049239E+04</pdfrwt>
<pdfrwt beam="2">  1       -2 0.11457171E+00 0.18049239E+04</pdfrwt>
<totfact> 0.15464649E+01</totfact>
</mgrwt>
<rwgt>
<wgt id='morphing_basis_vector_1'> +3.1083018e-04 </wgt>
<wgt id='morphing_basis_vector_2'> +3.9882212e-04 </wgt>
<wgt id='morphing_basis_vector_3'> +3.5859321e-04 </wgt>
<wgt id='morphing_basis_vector_4'> +2.5201514e-06 </wgt>
<wgt id='morphing_basis_vector_5'> +2.5180859e-04 </wgt>
</rwgt>
</event>
<event>
 4      1 +1.5130300e-07 1.68571500e+03 7.81860800e-03 8.21448600e-02
        2 -1    0    0  501    0 +0.0000000000e+00 +0.0000000000e+00 +4.5784670108e+02 4.5784670108e+02 0.0000000000e+00 0.0000e+00 1.0000e+00
       -2 -1    0    0    0  501 -0.0000000000e+00 -0.0000000000e+00 -1.5516300210e+03 1.5516300210e+03 0.0000000000e+00 0.0000e+00 -1.0000e+00
      -13  1    1    2    0    0 +4.7168333785e+02 +4.6384255899e+02 -1.1694786150e+03 1.3436202297e+03 0.0000000000e+00 0.0000e+00 -1.0000e+00
       13  1    1    2    0    0 -4.7168333785e+02 -4.6384255899e+02 +7.5695295069e+01 6.6585649237e+02 0.0000000000e+00 0.0000e+00 1.0000e+00
<mgrwt>
<rscale>  0 0.16857149E+04</rscale>
<asrwt>0</asrwt>
<pdfrwt beam="1">  1        2 0.70437953E-01 0.16857149E+04</pdfrwt>
<pdfrwt beam="2">  1       -2 0.23871231E+00 0.16857149E+04</pdfrwt>
<totfact> 0.49347200E+00</totfact>
</mgrwt>
<rwgt>
<wgt id='morphing_basis_vector_1'> +1.7439770e-04 </wgt>
<wgt id='morphing_basis_vector_2'> +1.1585135e-04 </wgt>
<wgt id='morphing_basis_vector_3'> +1.8349196e-04 </wgt>
<wgt id='morphing_basis_vector_4'> +1.2475277e-04 </wgt>
<wgt id='morphing_basis_vector_5'> +1.9972063e-04 </wgt>
</rwgt>
</event>
<event>
 4      1 +1.5130300e-07 1.80562200e+03 7.81860800e-03 8.15642000e-02
        2 -1    0    0  501    0 +0.0000000000e+00 +0.0000000000e+00 +2.0902263364e+03 2.0902263364e+03 0.0000000000e+00 0.0000e+00 1.0000e+00
       -2 -1    0    0    0  501 -0.0000000000e+00 -0.0000000000e+00 -3.8994251161e+02 3.8994251161e+02 0.0000000000e+00 0.0000e+00 -1.0000e+00
      -13  1    1    2    0    0 +5.1007214742e+02 +5.9398833016e+02 +2.3268340886e+02 8.1678473339e+02 0.0000000000e+00 0.0000e+00 -1.0000e+00
       13  1    1    2    0    0 -5.1007214742e+02 -5.9398833016e+02 +1.4676004159e+03 1.6633841146e+03 0.0000000000e+00 0.0000e+00 1.0000e+00
<mgrwt>
<rscale>  0 0.18056224E+04</rscale>
<asrwt>0</asrwt>
<pdfrwt beam="1">  1        2 0.32157327E+00 0.18056224E+04</pdfrwt>
<pdfrwt beam="2">  1       -2 0.59991157E-01 0.18056224E+04</pdfrwt>
<totfact> 0.18466746E+01</totfact>
</mgrwt>
<rwgt>
<wgt id='morphing_basis_vector_1'> +2.2842685e-04 </wgt>
<wgt id='morphing_basis_vector_2'> +1.5355278e-04 </wgt>
<wgt id='morphing_basis_vector_3'> +2.4212161e-04 </wgt>
<wgt id='morphing_basis_vector_4'> +1.6436985e-04 </wgt>
<wgt id='morphing_basis_vector_5'> +2.6475802e-04 </wgt>
</rwgt>
</event>
<event>
 4      1 +1.5130300e-07 1.84046500e+03 7.81860800e-03 8.14041000e-02
        2 -1    0    0  501    0 +0.0000000000e+00 +0.0000000000e+00 +1.0421310575e+03 1.0421310575e+03 0.0000000000e+00 0.0000e+00 -1.0000e+00
       -2 -1    0    0    0  501 -0.0000000000e+00 -0.0000000000e+00 -8.1259287288e+02 8.1259287288e+02 0.0000000000e+00 0.0000e+00 1.0000e+00
      -13  1    1    2    0    0 +2.5387959150e+02 -3.6500776619e+01 -7.7584293214e+02 8.1714099703e+02 0.0000000000e+00 0.0000e+00 1.0000e+00
       13  1    1    2    0    0 -2.5387959150e+02 +3.6500776619e+01 +1.0053811168e+03 1.0375829334e+03 0.0000000000e+00 0.0000e+00 -1.0000e+00
<mgrwt>
<rscale>  0 0.18404655E+04</rscale>
<asrwt>0</asrwt>
<pdfrwt beam="1">  1        2 0.16032785E+00 0.18404655E+04</pdfrwt>
<pdfrwt beam="2">  1       -2 0.12501429E+00 0.18404655E+04</pdfrwt>
<totfact> 0.13212058E+01</totfact>
</mgrwt>
<rwgt>
<wgt id='morphing_basis_vector_1'> +2.4502218e-04 </wgt>
<wgt id='morphing_basis_vector_2'> +1.6236234e-04 </wgt>
<wgt id='morphing_basis_vector_3'> +2.5976249e-04 </wgt>
<wgt id='morphing_basis_vector_4'> +1.7989913e-04 </wgt>
<wgt id='morphing_basis_vector_5'> +2.8649299e-04 </wgt>
</rwgt>
</event>
<event>
 4      1 +1.5130300e-07 1.59059800e+03 7.81860800e-03 8.26418300e-02
        2 -1    0    0  501    0 +0.0000000000e+00 +0.0000000000e+00 +9.4834582745e+02 9.4834582745e+02 0.0000000000e+00 0.0000e+00 -1.0000e+00
       -2 -1    0    0    0  501 -0.0000000000e+00 -0.0000000000e+00 -6.6695093918e+02 6.6695093918e+02 0.0000000000e+00 0.0000e+00 1.0000e+00
      -13  1    1    2    0    0 -4.0059208312e+02 +2.6283435100e+02 -5.0393845023e+02 6.9534874326e+02 0.0000000000e+00 0.0000e+00 1.0000e+00
       13  1    1    2    0    0 +4.0059208312e+02 -2.6283435100e+02 +7.8533333851e+02 9.1994802337e+02 0.0000000000e+00 0.0000e+00 -1.0000e+00
<mgrwt>
<rscale>  0 0.15905975E+04</rscale>
<asrwt>0</asrwt>
<pdfrwt beam="1">  1        2 0.14589936E+00 0.15905975E+04</pdfrwt>
<pdfrwt beam="2">  1       -2 0.10260784E+00 0.15905975E+04</pdfrwt>
<totfact> 0.25500437E+01</totfact>
</mgrwt>
<rwgt>
<wgt id='morphing_basis_vector_1'> +1.3896853e-04 </wgt>
<wgt id='morphing_basis_vector_2'> +9.1412022e-05 </wgt>
<wgt id='morphing_basis_vector_3'> +1.4522349e-04 </wgt>
<wgt id='morphing_basis_vector_4'> +9.8672575e-05 </wgt>
<wgt id='morphing_basis_vector_5'> +1.5723760e-04 </wgt>
</rwgt>
</event>
<event>
 4      1 +1.5130300e-07 1.55300300e+03 7.81860800e-03 8.28482100e-02
        2 -1    0    0  501    0 +0.0000000000e+00 +0.0000000000e+00 +5.4558561123e+02 5.4558561123e+02 0.0000000000e+00 0.0000e+00 -1.0000e+00
       -2 -1    0    0    0  501 -0.0000000000e+00 -0.0000000000e+00 -1.1051517583e+03 1.1051517583e+03 0.0000000000e+00 0.0000e+00 1.0000e+00
      -13  1    1    2    0    0 -7.0127191196e+02 +1.3934149164e+02 +4.2193382561e+01 7.1622526298e+02 0.0000000000e+00 0.0000e+00 1.0000e+00
       13  1    1    2    0    0 +7.0127191196e+02 -1.3934149164e+02 -6.0175952965e+02 9.3451210657e+02 0.0000000000e+00 0.0000e+00 -1.0000e+00
<mgrwt>
<rscale>  0 0.15530034E+04</rscale>
<asrwt>0</asrwt>
<pdfrwt beam="1">  1        2 0.83936248E-01 0.15530034E+04</pdfrwt>
<pdfrwt beam="2">  1       -2 0.17002335E+00 0.15530034E+04</pdfrwt>
<totfact> 0.12953671E+01</totfact>
</mgrwt>
<rwgt>
<wgt id='morphing_basis_vector_1'> +1.4354739e-04 </wgt>
<wgt id='morphing_basis_vector_2'> +1.3341633e-04 </wgt>
<wgt id='morphing_basis_vector_3'> +1.5446745e-04 </wgt>
<wgt id='morphing_basis_vector_4'> +5.7610972e-05 </wgt>
<wgt id='morphing_basis_vector_5'> +1.4005843e-04 </wgt>
</rwgt>
</event>
<event>
 4      1 +1.5130300e-07 1.55443400e+03 7.81860800e-03 8.28402500e-02
        2 -1    0    0  501    0 +0.0000000000e+00 +0.0000000000e+00 +7.4366696087e+02 7.4366696087e+02 0.0000000000e+00 0.0000e+00 -1.0000e+00
       -2 -1    0    0    0  501 -0.0000000000e+00 -0.0000000000e+00 -8.1228021501e+02 8.1228021501e+02 0.0000000000e+00 0.0000e+00 1.0000e+00
      -13  1    1    2    0    0 +5.0462224655e+02 -2.6740182564e+02 -5.6199981386e+02 8.0124349536e+02 0.0000000000e+00 0.0000e+00 1.0000e+00
       13  1    1    2    0    0 -5.0462224655e+02 +2.6740182564e+02 +4.9338655973e+02 7.5470368052e+02 0.0000000000e+00 0.0000e+00 -1.0000e+00
<mgrwt>
<rscale>  0 0.15544336E+04</rscale>
<asrwt>0</asrwt>
<pdfrwt beam="1">  1        2 0.11441030E+00 0.15544336E+04</pdfrwt>
<pdfrwt beam="2">  1       -2 0.12496619E+00 0.15544336E+04</pdfrwt>
<totfact> 0.21347261E+01</totfact>
</mgrwt>
<rwgt>
<wgt id='morphing_basis_vector_1'> +1.2725475e-04 </wgt>
<wgt id='morphing_basis_vector_2'> +8.3854329e-05 </wgt>
<wgt id='morphing_basis_vector_3'> +1.3266232e-04 </wgt>
<wgt id='morphing_basis_vector_4'> +8.9506359e-05 </wgt>
<wgt id='morphing_basis_vector_5'> +1.4296561e-04 </wgt>
</rwgt>
</event>
<event>
 4      1 +1.5130300e-07 1.71690600e+03 7.81860800e-03 8.19891700e-02
        2 -1    0    0  501    0 +0.0000000000e+00 +0.0000000000e+00 +9.0342920441e+02 9.0342920441e+02 0.0000000000e+00 0.0000e+00 1.0000e+00
       -2 -1    0    0    0  501 -0.0000000000e+00 -0.0000000000e+00 -8.1571615483e+02 8.1571615483e+02 0.0000000000e+00 0.0000e+00 -1.0000e+00
      -13  1    1    2    0    0 -1.0863823091e+02 +5.0202978476e+02 -6.4486723515e+02 8.2443309066e+02 0.0000000000e+00 0.0000e+00 -1.0000e+00
       13  1    1    2    0    0 +1.0863823091e+02 -5.0202978476e+02 +7.3258028472e+02 8.9471226859e+02 0.0000000000e+00 0.0000e+00 1.0000e+00
<mgrwt>
<rscale>  0 0.17169063E+04</rscale>
<asrwt>0</asrwt>
<pdfrwt beam="1">  1        2 0.13898911E+00 0.17169063E+04</pdfrwt>
<pdfrwt beam="2">  1       -2 0.12549479E+00 0.17169063E+04</pdfrwt>
<totfact> 0.16170346E+01</totfact>
</mgrwt>
<rwgt>
<wgt id='morphing_basis_vector_1'> +1.8696491e-04 </wgt>
<wgt id='morphing_basis_vector_2'> +1.2359765e-04 </wgt>
<wgt id='morphing_basis_vector_3'> +1.9697231e-04 </wgt>
<wgt id='morphing_basis_vector_4'> +1.3513451e-04 </wgt>
<wgt id='morphing_basis_vector_5'> +2.1540859e-04 </wgt>
</rwgt>
</event>
<event>
 4      1 +1.5130300e-07 1.59870700e+03 7.81860800e-03 8.25980800e-02
        2 -1    0    0  501    0 +0.0000000000e+00 +0.0000000000e+00 +1.3413665310e+03 1.3413665310e+03 0.0000000000e+00 0.0000e+00 -1.0000e+00
       -2 -1    0    0    0  501 -0.0000000000e+00 -0.0000000000e+00 -4.7635446341e+02 4.7635446341e+02 0.0000000000e+00 0.0000e+00 1.0000e+00
      -13  1    1    2    0    0 +2.3108520620e+02 +1.7289080856e+02 -4.1505023902e+02 5.0552774911e+02 0.0000000000e+00 0.0000e+00 1.0000e+00
       13  1    1    2    0    0 -2.3108520620e+02 -1.7289080856e+02 +1.2800623066e+03 1.3121932453e+03 0.0000000000e+00 0.0000e+00 -1.0000e+00
<mgrwt>
<rscale>  0 0.15987069E+04</rscale>
<asrwt>0</asrwt>
<pdfrwt beam="1">  1        2 0.20636408E+00 0.15987069E+04</pdfrwt>
<pdfrwt beam="2">  1       -2 0.73285303E-01 0.15987069E+04</pdfrwt>
<totfact> 0.32344544E+01</totfact>
</mgrwt>
<rwgt>
<wgt id='morphing_basis_vector_1'> +1.4166868e-04 </wgt>
<wgt id='morphing_basis_vector_2'> +9.3070735e-05 </wgt>
<wgt id='morphing_basis_vector_3'> +1.4811096e-04 </wgt>
<wgt id='morphing_basis_vector_4'> +1.0088681e-04 </wgt>
<wgt id='morphing_basis_vector_5'> +1.6058286e-04 </wgt>
</rwgt>
</event>
<event>
 4      1 +1.5130300e-07 1.55806100e+03 7.81860800e-03 8.28201000e-02
        2 -1    0    0  501    0 +0.0000000000e+00 +0.0000000000e+00 +1.3897433725e+03 1.3897433725e+03 0.0000000000e+00 0.0000e+00 1.0000e+00
       -2 -1    0    0    0  501 -0.0000000000e+00 -0.0000000000e+00 -4.3669089714e+02 4.3669089714e+02 0.0000000000e+00 0.0000e+00 -1.0000e+00
      -13  1    1    2    0    0 -2.5476492281e+02 -7.0419003189e+02 +2.2483514510e+02 7.8188209430e+02 0.0000000000e+00 0.0000e+00 -1.0000e+00
       13  1    1    2    0    0 +2.5476492281e+02 +7.0419003189e+02 +7.2821733026e+02 1.0445521753e+03 0.0000000000e+00 0.0000e+00 1.0000e+00
<mgrwt>
<rscale>  0 0.15580607E+04</rscale>
<asrwt>0</asrwt>
<pdfrwt beam="1">  1        2 0.21380667E+00 0.15580607E+04</pdfrwt>
<pdfrwt beam="2">  1       -2 0.67183216E-01 0.15580607E+04</pdfrwt>
<totfact> 0.36717471E+01</totfact>
</mgrwt>
<rwgt>
<wgt id='morphing_basis_vector_1'> +1.2982999e-04 </wgt>
<wgt id='morphing_basis_vector_2'> +8.8864640e-05 </wgt>
<wgt id='morphing_basis_vector_3'> +1.3579779e-04 </wgt>
<wgt id='morphing_basis_vector_4'> +8.7688345e-05 </wgt>
<wgt id='morphing_basis_vector_5'> +1.4414883e-04 </wgt>
</rwgt>
</event>
<event>
 4      1 +1.5130300e-07 1.78448300e+03 7.81860800e-03 8.16631700e-02
        2 -1    0    0  501    0 +0.0000000000e+00 +0.0000000000e+00 +2.3870217444e+03 2.3870217444e+03 0.0000000000e+00 0.0000e+00 -1.0000e+00
       -2 -1    0    0    0  501 -0.0000000000e+00 -0.0000000000e+00 -3.3350970188e+02 3.3350970188e+02 0.0000000000e+00 0.0000e+00 1.0000e+00
      -13  1    1    2    0    0 -5.2102664735e+02 -6.1435047859e+02 +4.4183841520e+02 9.1875810905e+02 0.0000000000e+00 0.0000e+00 1.0000e+00
       13  1    1    2    0    0 +5.2102664735e+02 +6.1435047859e+02 +1.6116736273e+03 1.8017733373e+03 0.0000000000e+00 0.0000e+00 -1.0000e+00
<mgrwt>
<rscale>  0 0.17844830E+04</rscale>
<asrwt>0</asrwt>
<pdfrwt beam="1">  1        2 0.36723410E+00 0.17844830E+04</pdfrwt>
<pdfrwt beam="2">  1       -2 0.51309186E-01 0.17844830E+04</pdfrwt>
<totfact> 0.17117615E+01</totfact>
</mgrwt>
<rwgt>
<wgt id='morphing_basis_vector_1'> +2.1856939e-04 </wgt>
<wgt id='morphing_basis_vector_2'> +1.4774222e-04 </wgt>
<wgt id='morphing_basis_vector_3'> +2.3155991e-04 </wgt>
<wgt id='morphing_basis_vector_4'> +1.5585404e-04 </wgt>
<wgt id='morphing_basis_vector_5'> +2.5221681e-04 </wgt>
</rwgt>
</event>
<event>
 4      1 +1.5130300e-07 1.55507800e+03 7.81860800e-03 8.28366600e-02
        2 -1    0    0  501    0 +0.0000000000e+00 +0.0000000000e+00 +1.6064097643e+03 1.6064097643e+03 0.0000000000e+00 0.0000e+00 1.0000e+00
       -2 -1    0    0    0  501 -0.0000000000e+00 -0.0000000000e+00 -3.7634650429e+02 3.7634650429e+02 0.0000000000e+00 0.0000e+00 -1.0000e+00
      -13  1    1    2    0    0 +7.8005353398e+01 +3.8594378892e+02 -2.3983075061e+02 4.6103821133e+02 0.0000000000e+00 0.0000e+00 -1.0000e+00
       13  1    1    2    0    0 -7.8005353398e+01 -3.8594378892e+02 +1.4698940106e+03 1.5217180573e+03 0.0000000000e+00 0.0000e+00 1.0000e+00
<mgrwt>
<rscale>  0 0.15550777E+04</rscale>
<asrwt>0</asrwt>
<pdfrwt beam="1">  1        2 0.24713996E+00 0.15550777E+04</pdfrwt>
<pdfrwt beam="2">  1       -2 0.57899463E-01 0.15550777E+04</pdfrwt>
<totfact> 0.37797533E+01</totfact>
</mgrwt>
<rwgt>
<wgt id='morphing_basis_vector_1'> +1.2729892e-04 </wgt>
<wgt id='morphing_basis_vector_2'> +8.3515120e-05 </wgt>
<wgt id='morphing_basis_vector_3'> +1.3266863e-04 </wgt>
<wgt id='morphing_basis_vector_4'> +8.9961115e-05 </wgt>
<wgt id='morphing_basis_vector_5'> +1.4323335e-04 </wgt>
</rwgt>
</event>
<event>
 4      1 +1.5130300e-07 1.82004200e+03 7.81860800e-03 8.14974900e-02
        2 -1    0    0  501    0 +0.0000000000e+00 +0.0000000000e+00 +1.7667952195e+03 1.7667952195e+03 0.0000000000e+00 0.0000e+00 -1.0000e+00
       -2 -1    0    0    0  501 -0.0000000000e+00 -0.0000000000e+00 -4.6872319291e+02 4.6872319291e+02 0.0000000000e+00 0.0000e+00 1.0000e+00
      -13  1    1    2    0    0 -6.6460749946e+02 -2.6336967951e+01 -1.1382408855e+02 6.7479825678e+02 0.0000000000e+00 0.0000e+00 1.0000e+00
       13  1    1    2    0    0 +6.6460749946e+02 +2.6336967951e+01 +1.4118961151e+03 1.5607201556e+03 0.0000000000e+00 0.0000e+00 -1.0000e+00
<mgrwt>
<rscale>  0 0.18200416E+04</rscale>
<asrwt>0</asrwt>
<pdfrwt beam="1">  1        2 0.27181465E+00 0.18200416E+04</pdfrwt>
<pdfrwt beam="2">  1       -2 0.72111261E-01 0.18200416E+04</pdfrwt>
<totfact> 0.19003121E+01</totfact>
</mgrwt>
<rwgt>
<wgt id='morphing_basis_vector_1'> +2.3491039e-04 </wgt>
<wgt id='morphing_basis_vector_2'> +1.5633403e-04 </wgt>
<wgt id='morphing_basis_vector_3'> +2.4891831e-04 </wgt>
<wgt id='morphing_basis_vector_4'> +1.7121495e-04 </wgt>
<wgt id='morphing_basis_vector_5'> +2.7364013e-04 </wgt>
</rwgt>
</event>
<event>
 4      1 +1.5130300e-07 1.57494300e+03 7.81860800e-03 8.27270400e-02
        2 -1    0    0  501    0 +0.0000000000e+00 +0.0000000000e+00 +8.9678757134e+02 8.9678757134e+02 0.0000000000e+00 0.0000e+00 1.0000e+00
       -2 -1    0    0    0  501 -0.0000000000e+00 -0.0000000000e+00 -6.9148079644e+02 6.9148079644e+02 0.0000000000e+00 0.0000e+00 -1.0000e+00
      -13  1    1    2    0    0 -1.1511041458e+02 -6.6514392293e+02 -3.0629525009e+02 7.4127162767e+02 0.0000000000e+00 0.0000e+00 -1.0000e+00
       13  1    1    2    0    0 +1.1511041458e+02 +6.6514392293e+02 +5.1160202500e+02 8.4699674010e+02 0.0000000000e+00 0.0000e+00 1.0000e+00
<mgrwt>
<rscale>  0 0.15749430E+04</rscale>
<asrwt>0</asrwt>
<pdfrwt beam="1">  1        2 0.13796732E+00 0.15749430E+04</pdfrwt>
<pdfrwt beam="2">  1       -2 0.10638166E+00 0.15749430E+04</pdfrwt>
<totfact> 0.25227741E+01</totfact>
</mgrwt>
<rwgt>
<wgt id='morphing_basis_vector_1'> +1.3422564e-04 </wgt>
<wgt id='morphing_basis_vector_2'> +8.9341654e-05 </wgt>
<wgt id='morphing_basis_vector_3'> +1.4024936e-04 </wgt>
<wgt id='morphing_basis_vector_4'> +9.3821341e-05 </wgt>
<wgt id='morphing_basis_vector_5'> +1.5087547e-04 </wgt>
</rwgt>
</event>
<event>
 4      1 +1.5130300e-07 1.57563700e+03 7.81860800e-03 8.27232500e-02
        2 -1    0    0  501    0 +0.0000000000e+00 +0.0000000000e+00 +6.9498064118e+02 6.9498064118e+02 0.0000000000e+00 0.0000e+00 -1.0000e+00
       -2 -1    0    0    0  501 -0.0000000000e+00 -0.0000000000e+00 -8.9305762379e+02 8.9305762379e+02 0.0000000000e+00 0.0000e+00 1.0000e+00
      -13  1    1    2    0    0 -3.7037224060e+02 +6.6583190915e+02 -3.0099033439e+02 8.1920870921e+02 0.0000000000e+00 0.0000e+00 1.0000e+00
       13  1    1    2    0    0 +3.7037224060e+02 -6.6583190915e+02 +1.0291335178e+02 7.6882955576e+02 0.0000000000e+00 0.0000e+00 -1.0000e+00
<mgrwt>
<rscale>  0 0.15756367E+04</rscale>
<asrwt>0</asrwt>
<pdfrwt beam="1">  1        2 0.10692010E+00 0.15756367E+04</pdfrwt>
<pdfrwt beam="2">  1       -2 0.13739348E+00 0.15756367E+04</pdfrwt>
<totfact> 0.17955023E+01</totfact>
</mgrwt>
<rwgt>
<wgt id='morphing_basis_vector_1'> +1.3574613e-04 </wgt>
<wgt id='morphing_basis_vector_2'> +9.3341297e-05 </wgt>
<wgt id='morphing_basis_vector_3'> +1.4222650e-04 </wgt>
<wgt id='morphing_basis_vector_4'> +9.1548600e-05 </wgt>
<wgt id='morphing_basis_vector_5'> +1.5096645e-04 </wgt>
</rwgt>
</event>
<event>
 4      1 +1.5130300e-07 1.55053600e+03 7.81860800e-03 8.28619600e-02
        2 -1    0    0  501    0 +0.0000000000e+00 +0.0000000000e+00 +1.6262731223e+03 1.6262731223e+03 0.0000000000e+00 0.0000e+00 -1.0000e+00
       -2 -1    0    0    0  501 -0.0000000000e+00 -0.0000000000e+00 -3.6958164504e+02 3.6958164504e+02 0.0000000000e+00 0.0000e+00 1.0000e+00
      -13  1    1    2    0    0 +2.8140615112e+02 -6.1730265898e+02 +1.4536378715e+02 6.9381742936e+02 0.0000000000e+00 0.0000e+00 1.0000e+00
       13  1    1    2    0    0 -2.8140615112e+02 +6.1730265898e+02 +1.1113276901e+03 1.3020373380e+03 0.0000000000e+00 0.0000e+00 -1.0000e+00
<mgrwt>
<rscale>  0 0.15505363E+04</rscale>
<asrwt>0</asrwt>
<pdfrwt beam="1">  1        2 0.25019586E+00 0.15505363E+04</pdfrwt>
<pdfrwt beam="2">  1       -2 0.56858715E-01 0.15505363E+04</pdfrwt>
<totfact> 0.38245459E+01</totfact>
</mgrwt>
<rwgt>
<wgt id='morphing_basis_vector_1'> +1.2644536e-04 </wgt>
<wgt id='morphing_basis_vector_2'> +8.4280216e-05 </wgt>
<wgt id='morphing_basis_vector_3'> +1.3189997e-04 </wgt>
<wgt id='morphing_basis_vector_4'> +8.7791688e-05 </wgt>
<wgt id='morphing_basis_vector_5'> +1.4142977e-04 </wgt>
</rwgt>
</event>
<event>
 4      1 +1.5130300e-07 1.60869200e+03 7.81860800e-03 8.25445800e-02
        2 -1    0    0  501    0 +0.0000000000e+00 +0.0000000000e+00 +2.4542199304e+03 2.4542199304e+03 0.0000000000e+00 0.0000e+00 -1.0000e+00
       -2 -1    0    0    0  501 -0.0000000000e+00 -0.0000000000e+00 -2.6361633962e+02 2.6361633962e+02 0.0000000000e+00 0.0000e+00 1.0000e+00
      -13  1    1    2    0    0 +2.8611861918e+01 +4.0116281345e+02 -8.1547193379e+01 4.1036591755e+02 0.0000000000e+00 0.0000e+00 1.0000e+00
       13  1    1    2    0    0 -2.8611861918e+01 -4.0116281345e+02 +2.2721507841e+03 2.3074703525e+03 0.0000000000e+00 0.0000e+00 -1.0000e+00
<mgrwt>
<rscale>  0 0.16086920E+04</rscale>
<asrwt>0</asrwt>
<pdfrwt beam="1">  1        2 0.37757228E+00 0.16086920E+04</pdfrwt>
<pdfrwt beam="2">  1       -2 0.40556362E-01 0.16086920E+04</pdfrwt>
<totfact> 0.24961906E+01</totfact>
</mgrwt>
<rwgt>
<wgt id='morphing_basis_vector_1'> +1.4515200e-04 </wgt>
<wgt id='morphing_basis_vector_2'> +9.5453969e-05 </wgt>
<wgt id='morphing_basis_vector_3'> +1.5186570e-04 </wgt>
<wgt id='morphing_basis_vector_4'> +1.0346552e-04 </wgt>
<wgt id='morphing_basis_vector_5'> +1.6475918e-04 </wgt>
</rwgt>
</event>
<event>
 4      1 +1.5130300e-07 1.70131200e+03 7.81860800e-03 8.20665800e-02
        2 -1    0    0  501    0 +0.0000000000e+00 +0.0000000000e+00 +1.2481517610e+03 1.2481517610e+03 0.0000000000e+00 0.0000e+00 -1.0000e+00
       -2 -1    0    0    0  501 -0.0000000000e+00 -0.0000000000e+00 -5.7974972279e+02 5.7974972279e+02 0.0000000000e+00 0.0000e+00 1.0000e+00
      -13  1    1    2    0    0 +6.9975697240e+02 +4.5440028321e+02 +5.1229414199e+02 9.7907340160e+02 0.0000000000e+00 0.0000e+00 1.0000e+00
       13  1    1    2    0    0 -6.9975697240e+02 -4.5440028321e+02 +1.5610789618e+02 8.4882808215e+02 0.0000000000e+00 0.0000e+00 -1.0000e+00
<mgrwt>
<rscale>  0 0.17013120E+04</rscale>
<asrwt>0</asrwt>
<pdfrwt beam="1">  1        2 0.19202335E+00 0.17013120E+04</pdfrwt>
<pdfrwt beam="2">  1       -2 0.89192266E-01 0.17013120E+04</pdfrwt>
<totfact> 0.23235976E+01</totfact>
</mgrwt>
<rwgt>
<wgt id='morphing_basis_vector_1'> +1.9330286e-04 </wgt>
<wgt id='morphing_basis_vector_2'> +1.5741974e-04 </wgt>
<wgt id='morphing_basis_vector_3'> +2.0771130e-04 </wgt>
<wgt id='morphing_basis_vector_4'> +1.0537252e-04 </wgt>
<wgt id='morphing_basis_vector_5'> +2.0557861e-04 </wgt>
</rwgt>
</event>
<event>
 4      1 +1.5130300e-07 1.59151800e+03 7.81860800e-03 8.26368500e-02
        2 -1    0    0  501    0 +0.0000000000e+00 +0.0000000000e+00 +8.5892379512e+02 8.5892379512e+02 0.0000000000e+00 0.0000e+00 -1.0000e+00
       -2 -1    0    0    0  501 -0.0000000000e+00 -0.0000000000e+00 -7.3723890994e+02 7.3723890994e+02 0.0000000000e+00 0.0000e+00 1.0000e+00
      -13  1    1    2    0    0 +2.4217040446e+02 +4.7001206043e+02 -5.3559845139e+02 7.5261114985e+02 0.0000000000e+00 0.0000e+00 1.0000e+00
       13  1    1    2    0    0 -2.4217040446e+02 -4.7001206043e+02 +6.5728333657e+02 8.4355155520e+02 0.0000000000e+00 0.0000e+00 -1.0000e+00
<mgrwt>
<rscale>  0 0.15915176E+04</rscale>
<asrwt>0</asrwt>
<pdfrwt beam="1">  1        2 0.13214212E+00 0.15915176E+04</pdfrwt>
<pdfrwt beam="2">  1       -2 0.11342137E+00 0.15915176E+04</pdfrwt>
<totfact> 0.22728358E+01</totfact>
</mgrwt>
<rwgt>
<wgt id='morphing_basis_vector_1'> +1.3932671e-04 </wgt>
<wgt id='morphing_basis_vector_2'> +9.1759255e-05 </wgt>
<wgt id='morphing_basis_vector_3'> +1.4562139e-04 </wgt>
<wgt id='morphing_basis_vector_4'> +9.8819852e-05 </wgt>
<wgt id='morphing_basis_vector_5'> +1.5760680e-04 </wgt>
</rwgt>
</event>
<event>
 4      1 +1.5130300e-07 1.70774400e+03 7.81860800e-03 8.20345500e-02
        2 -1    0    0  501    0 +0.0000000000e+00 +0.0000000000e+00 +1.7347948716e+03 1.7347948716e+03 0.0000000000e+00 0.0000e+00 -1.0000e+00
       -2 -1    0    0    0  501 -0.0000000000e+00 -0.0000000000e+00 -4.2027882470e+02 4.2027882470e+02 0.0000000000e+00 0.0000e+00 1.0000e+00
      -13  1    1    2    0    0 -6.5583017363e+02 +4.7662445519e+02 +3.1908244431e+02 8.7126212715e+02 0.0000000000e+00 0.0000e+00 1.0000e+00
       13  1    1    2    0    0 +6.5583017363e+02 -4.7662445519e+02 +9.9543360257e+02 1.2838115691e+03 0.0000000000e+00 0.0000e+00 -1.0000e+00
<mgrwt>
<rscale>  0 0.17077442E+04</rscale>
<asrwt>0</asrwt>
<pdfrwt beam="1">  1        2 0.26689151E+00 0.17077442E+04</pdfrwt>
<pdfrwt beam="2">  1       -2 0.64658282E-01 0.17077442E+04</pdfrwt>
<totfact> 0.25211990E+01</totfact>
</mgrwt>
<rwgt>
<wgt id='morphing_basis_vector_1'> +1.8498393e-04 </wgt>
<wgt id='morphing_basis_vector_2'> +1.2656899e-04 </wgt>
<wgt id='morphing_basis_vector_3'> +1.9540261e-04 </wgt>
<wgt id='morphing_basis_vector_4'> +1.2858712e-04 </wgt>
<wgt id='morphing_basis_vector_5'> +2.1044545e-04 </wgt>
</rwgt>
</event>
<event>
 4      1 +1.5130300e-07 1.72454000e+03 7.81860800e-03 8.19515800e-02
        2 -1    0    0  501    0 +0.0000000000e+00 +0.0000000000e+00 +9.8055577274e+02 9.8055577274e+02 0.0000000000e+00 0.0000e+00 -1.0000e+00
       -2 -1    0    0    0  501 -0.0000000000e+00 -0.0000000000e+00 -7.5825349113e+02 7.5825349113e+02 0.0000000000e+00 0.0000e+00 1.0000e+00
      -13  1    1    2    0    0 -6.6799575824e+02 -4.7214718153e+02 +3.8611348965e+02 9.0455785937e+02 0.0000000000e+00 0.0000e+00 1.0000e+00
       13  1    1    2    0    0 +6.6799575824e+02 +4.7214718153e+02 -1.6381120804e+02 8.3425140451e+02 0.0000000000e+00 0.0000e+00 -1.0000e+00
<mgrwt>
<rscale>  0 0.17245403E+04</rscale>
<asrwt>0</asrwt>
<pdfrwt beam="1">  1        2 0.15085474E+00 0.17245403E+04</pdfrwt>
<pdfrwt beam="2">  1       -2 0.11665438E+00 0.17245403E+04</pdfrwt>
<totfact> 0.17448250E+01</totfact>
</mgrwt>
<rwgt>
<wgt id='morphing_basis_vector_1'> +2.1040931e-04 </wgt>
<wgt id='morphing_basis_vector_2'> +1.8574309e-04 </wgt>
<wgt id='morphing_basis_vector_3'> +2.2854891e-04 </wgt>
<wgt id='morphing_basis_vector_4'> +9.8573630e-05 </wgt>
<wgt id='morphing_basis_vector_5'> +2.1637223e-04 </wgt>
</rwgt>
</event>
<event>
 4      1 +1.5130300e-07 1.56229100e+03 7.81860800e-03 8.27966700e-02
        2 -1    0    0  501    0 +0.0000000000e+00 +0.0000000000e+00 +3.1200137568e+03 3.1200137568e+03 0.0000000000e+00 0.0000e+00 1.0000e+00
       -2 -1    0    0    0  501 -0.0000000000e+00 -0.0000000000e+00 -1.9557225034e+02 1.9557225034e+02 0.0000000000e+00 0.0000e+00 -1.0000e+00
      -13  1    1    2    0    0 -6.5351613703e+02 +2.7835744385e+02 +7.7249661270e+02 1.0494366224e+03 0.0000000000e+00 0.0000e+00 -1.0000e+00
       13  1    1    2    0    0 +6.5351613703e+02 -2.7835744385e+02 +2.1519448937e+03 2.2661493847e+03 0.0000000000e+00 0.0000e+00 1.0000e+00
<mgrwt>
<rscale>  0 0.15622908E+04</rscale>
<asrwt>0</asrwt>
<pdfrwt beam="1">  1        2 0.48000208E+00 0.15622908E+04</pdfrwt>
<pdfrwt beam="2">  1       -2 0.30088041E-01 0.15622908E+04</pdfrwt>
<totfact> 0.16605298E+01</totfact>
</mgrwt>
<rwgt>
<wgt id='morphing_basis_vector_1'> +1.3044311e-04 </wgt>
<wgt id='morphing_basis_vector_2'> +8.7567431e-05 </wgt>
<wgt id='morphing_basis_vector_3'> +1.3626660e-04 </wgt>
<wgt id='morphing_basis_vector_4'> +9.0102223e-05 </wgt>
<wgt id='morphing_basis_vector_5'> +1.4588060e-04 </wgt>
</rwgt>
</event>
<event>
 4      1 +1.5130300e-07 1.63829300e+03 7.81860800e-03 8.23882900e-02
        2 -1    0    0  501    0 +0.0000000000e+00 +0.0000000000e+00 +1.5004184908e+03 1.5004184908e+03 0.0000000000e+00 0.0000e+00 -1.0000e+00
       -2 -1    0    0    0  501 -0.0000000000e+00 -0.0000000000e+00 -4.4720922346e+02 4.4720922346e+02 0.0000000000e+00 0.0000e+00 1.0000e+00
      -13  1    1    2    0    0 -3.0218707905e+02 +7.2615193609e+02 +2.5450530265e+02 8.2667201121e+02 0.0000000000e+00 0.0000e+00 1.0000e+00
       13  1    1    2    0    0 +3.0218707905e+02 -7.2615193609e+02 +7.9870396470e+02 1.1209557031e+03 0.0000000000e+00 0.0000e+00 -1.0000e+00
<mgrwt>
<rscale>  0 0.16382930E+04</rscale>
<asrwt>0</asrwt>
<pdfrwt beam="1">  1        2 0.23083361E+00 0.16382930E+04</pdfrwt>
<pdfrwt beam="2">  1       -2 0.68801420E-01 0.16382930E+04</pdfrwt>
<totfact> 0.30044168E+01</totfact>
</mgrwt>
<rwgt>
<wgt id='morphing_basis_vector_1'> +1.5768639e-04 </wgt>
<wgt id='morphing_basis_vector_2'> +1.0821873e-04 </wgt>
<wgt id='morphing_basis_vector_3'> +1.6590617e-04 </wgt>
<wgt id='morphing_basis_vector_4'> +1.0790903e-04 </wgt>
<wgt id='morphing_basis_vector_5'> +1.7734948e-04 </wgt>
</rwgt>
</event>
<event>
 4      1 +1.5130300e-07 1.76956300e+03 7.81860800e-03 8.17338600e-02
        2 -1    0    0  501    0 +0.0000000000e+00 +0.0000000000e+00 +3.3796077846e+03 3.3796077846e+03 0.0000000000e+00 0.0000e+00 1.0000e+00
       -2 -1    0    0    0  501 -0.0000000000e+00 -0.0000000000e+00 -2.3163588684e+02 2.3163588684e+02 0.0000000000e+00 0.0000e+00 -1.0000e+00
      -13  1    1    2    0    0 -1.5206402406e+02 +8.0727059104e+02 +9.0323507336e+02 1.2209188639e+03 0.0000000000e+00 0.0000e+00 -1.0000e+00
       13  1    1    2    0    0 +1.5206402406e+02 -8.0727059104e+02 +2.2447368244e+03 2.3903248075e+03 0.0000000000e+00 0.0000e+00 1.0000e+00
<mgrwt>
<rscale>  0 0.17695632E+04</rscale>
<asrwt>0</asrwt>
<pdfrwt beam="1">  1        2 0.51993962E+00 0.17695632E+04</pdfrwt>
<pdfrwt beam="2">  1       -2 0.35636293E-01 0.17695632E+04</pdfrwt>
<totfact> 0.79762094E+00</totfact>
</mgrwt>
<rwgt>
<wgt id='morphing_basis_vector_1'> +2.1194945e-04 </wgt>
<wgt id='morphing_basis_vector_2'> +1.4415843e-04 </wgt>
<wgt id='morphing_basis_vector_3'> +2.2451209e-04 </wgt>
<wgt id='morphing_basis_vector_4'> +1.4976896e-04 </wgt>
<wgt id='morphing_basis_vector_5'> +2.4361434e-04 </wgt>
</rwgt>
</event>
<event>
 4      1 +1.5130300e-07 1.79625500e+03 7.81860800e-03 8.16078800e-02
        2 -1    0    0  501    0 +0.0000000000e+00 +0.0000000000e+00 +2.4106116366e+03 2.4106116366e+03 0.0000000000e+00 0.0000e+00 -1.0000e+00
       -2 -1    0    0    0  501 -0.0000000000e+00 -0.0000000000e+00 -3.3461772926e+02 3.3461772926e+02 0.0000000000e+00 0.0000e+00 1.0000e+00
      -13  1    1    2    0    0 +3.7397479830e+02 -7.1544809357e+02 +4.3647616098e+02 9.1773338364e+02 0.0000000000e+00 0.0000e+00 1.0000e+00
       13  1    1    2    0    0 -3.7397479830e+02 +7.1544809357e+02 +1.6395177463e+03 1.8274959822e+03 0.0000000000e+00 0.0000e+00 -1.0000e+00
<mgrwt>
<rscale>  0 0.17962554E+04</rscale>
<asrwt>0</asrwt>
<pdfrwt beam="1">  1        2 0.37086332E+00 0.17962554E+04</pdfrwt>
<pdfrwt beam="2">  1       -2 0.51479652E-01 0.17962554E+04</pdfrwt>
<totfact> 0.16455703E+01</totfact>
</mgrwt>
<rwgt>
<wgt id='morphing_basis_vector_1'> +2.2419153e-04 </wgt>
<wgt id='morphing_basis_vector_2'> +1.5147163e-04 </wgt>
<wgt id='morphing_basis_vector_3'> +2.3764267e-04 </wgt>
<wgt id='morphing_basis_vector_4'> +1.6021720e-04 </wgt>
<wgt id='morphing_basis_vector_5'> +2.5911883e-04 </wgt>
</rwgt>
</event>
<event>
 4      1 +1.5130300e-07 1.55199500e+03 7.81860800e-03 8.28538300e-02
        2 -1    0    0  501    0 +0.0000000000e+00 +0.0000000000e+00 +1.6019094320e+03 1.6019094320e+03 0.0000000000e+00 0.0000e+00 -1.0000e+00
       -2 -1    0    0    0  501 -0.0000000000e+00 -0.0000000000e+00 -3.7590874723e+02 3.7590874723e+02 0.0000000000e+00 0.0000e+00 1.0000e+00
      -13  1    1    2    0    0 -3.3499752097e+02 +3.7344981534e+01 -2.7774254472e+02 4.3675955381e+02 0.0000000000e+00 0.0000e+00 1.0000e+00
       13  1    1    2    0    0 +3.3499752097e+02 -3.7344981534e+01 +1.5037432295e+03 1.5410586254e+03 0.0000000000e+00 0.0000e+00 -1.0000e+00
<mgrwt>
<rscale>  0 0.15519945E+04</rscale>
<asrwt>0</asrwt>
<pdfrwt beam="1">  1        2 0.24644760E+00 0.15519945E+04</pdfrwt>
<pdfrwt beam="2">  1       -2 0.57832116E-01 0.15519945E+04</pdfrwt>
<totfact> 0.38116136E+01</totfact>
</mgrwt>
<rwgt>
<wgt id='morphing_basis_vector_1'> +1.2631153e-04 </wgt>
<wgt id='morphing_basis_vector_2'> +8.2822835e-05 </wgt>
<wgt id='morphing_basis_vector_3'> +1.3160447e-04 </wgt>
<wgt id='morphing_basis_vector_4'> +8.9253086e-05 </wgt>
<wgt id='morphing_basis_vector_5'> +1.4206456e-04 </wgt>
</rwgt>
</event>
<event>
 4      1 +1.5130300e-07 1.55135400e+03 7.81860800e-03 8.28574000e-02
        2 -1    0    0  501    0 +0.0000000000e+00 +0.0000000000e+00 +1.4065122095e+03 1.4065122095e+03 0.0000000000e+00 0.0000e+00 -1.0000e+00
       -2 -1    0    0    0  501 -0.0000000000e+00 -0.0000000000e+00 -4.2777787567e+02 4.2777787567e+02 0.0000000000e+00 0.0000e+00 1.0000e+00
      -13  1    1    2    0    0 +6.3782386545e+01 +5.9841546178e+02 -8.9281421986e+01 6.0839167486e+02 0.0000000000e+00 0.0000e+00 1.0000e+00
       13  1    1    2    0    0 -6.3782386545e+01 -5.9841546178e+02 +1.0680157558e+03 1.2258984103e+03 0.0000000000e+00 0.0000e+00 -1.0000e+00
<mgrwt>
<rscale>  0 0.15513540E+04</rscale>
<asrwt>0</asrwt>
<pdfrwt beam="1">  1        2 0.21638649E+00 0.15513540E+04</pdfrwt>
<pdfrwt beam="2">  1       -2 0.65811981E-01 0.15513540E+04</pdfrwt>
<totfact> 0.37543892E+01</totfact>
</mgrwt>
<rwgt>
<wgt id='morphing_basis_vector_1'> +1.2635532e-04 </wgt>
<wgt id='morphing_basis_vector_2'> +8.3418689e-05 </wgt>
<wgt id='morphing_basis_vector_3'> +1.3171444e-04 </wgt>
<wgt id='morphing_basis_vector_4'> +8.8638920e-05 </wgt>
<wgt id='morphing_basis_vector_5'> +1.4178761e-04 </wgt>
</rwgt>
</event>
<event>
 4      1 +1.5130300e-07 1.60224000e+03 7.81860800e-03 8.25791000e-02
        2 -1    0    0  501    0 +0.0000000000e+00 +0.0000000000e+00 +1.4197463228e+03 1.4197463228e+03 0.0000000000e+00 0.0000e+00 -1.0000e+00
       -2 -1    0    0    0  501 -0.0000000000e+00 -0.0000000000e+00 -4.5204786585e+02 4.5204786585e+02 0.0000000000e+00 0.0000e+00 1.0000e+00
      -13  1    1    2    0    0 -4.2499927296e+02 -3.9615693422e+02 -1.6051367262e+02 6.0276806289e+02 0.0000000000e+00 0.0000e+00 1.0000e+00
       13  1    1    2    0    0 +4.2499927296e+02 +3.9615693422e+02 +1.1282121296e+03 1.2690261257e+03 0.0000000000e+00 0.0000e+00 -1.0000e+00
<mgrwt>
<rscale>  0 0.16022401E+04</rscale>
<asrwt>0</asrwt>
<pdfrwt beam="1">  1        2 0.21842251E+00 0.16022401E+04</pdfrwt>
<pdfrwt beam="2">  1       -2 0.69545826E-01 0.16022401E+04</pdfrwt>
<totfact> 0.32687875E+01</totfact>
</mgrwt>
<rwgt>
<wgt id='morphing_basis_vector_1'> +1.4307451e-04 </wgt>
<wgt id='morphing_basis_vector_2'> +9.4446217e-05 </wgt>
<wgt id='morphing_basis_vector_3'> +1.4967525e-04 </wgt>
<wgt id='morphing_basis_vector_4'> +1.0145057e-04 </wgt>
<wgt id='morphing_basis_vector_5'> +1.6202561e-04 </wgt>
</rwgt>
</event>
<event>
 4      1 +1.5130300e-07 1.61571400e+03 7.81860800e-03 8.25071900e-02
        2 -1    0    0  501    0 +0.0000000000e+00 +0.0000000000e+00 +3.5197103170e+03 3.5197103170e+03 0.0000000000e+00 0.0000e+00 1.0000e+00
       -2 -1    0    0    0  501 -0.0000000000e+00 -0.0000000000e+00 -1.8542235883e+02 1.8542235883e+02 0.0000000000e+00 0.0000e+00 -1.0000e+00
      -13  1    1    2    0    0 +4.7024817828e+02 +3.6682570037e+02 +4.1753957930e+02 7.2803416397e+02 0.0000000000e+00 0.0000e+00 -1.0000e+00
       13  1    1    2    0    0 -4.7024817828e+02 -3.6682570037e+02 +2.9167483789e+03 2.9770985119e+03 0.0000000000e+00 0.0000e+00 1.0000e+00
<mgrwt>
<rscale>  0 0.16157141E+04</rscale>
<asrwt>0</asrwt>
<pdfrwt beam="1">  1        2 0.54149385E+00 0.16157141E+04</pdfrwt>
<pdfrwt beam="2">  1       -2 0.28526519E-01 0.16157141E+04</pdfrwt>
<totfact> 0.95814433E+00</totfact>
</mgrwt>
<rwgt>
<wgt id='morphing_basis_vector_1'> +1.4781756e-04 </wgt>
<wgt id='morphing_basis_vector_2'> +9.7684709e-05 </wgt>
<wgt id='morphing_basis_vector_3'> +1.5478903e-04 </wgt>
<wgt id='morphing_basis_vector_4'> +1.0497045e-04 </wgt>
<wgt id='morphing_basis_vector_5'> +1.6771856e-04 </wgt>
</rwgt>
</event>
<event>
 4      1 +1.5130300e-07 1.70343100e+03 7.81860800e-03 8.20560100e-02
        2 -1    0    0  501    0 +0.0000000000e+00 +0.0000000000e+00 +2.1346618267e+03 2.1346618267e+03 0.0000000000e+00 0.0000e+00 -1.0000e+00
       -2 -1    0    0    0  501 -0.0000000000e+00 -0.0000000000e+00 -3.3982868634e+02 3.3982868634e+02 0.0000000000e+00 0.0000e+00 1.0000e+00
      -13  1    1    2    0    0 +2.9099655850e+02 +3.0805380421e+02 -1.7581930583e+02 4.5879033517e+02 0.0000000000e+00 0.0000e+00 1.0000e+00
       13  1    1    2    0    0 -2.9099655850e+02 -3.0805380421e+02 +1.9706524462e+03 2.0157001778e+03 0.0000000000e+00 0.0000e+00 -1.0000e+00
<mgrwt>
<rscale>  0 0.17034310E+04</rscale>
<asrwt>0</asrwt>
<pdfrwt beam="1">  1        2 0.32840950E+00 0.17034310E+04</pdfrwt>
<pdfrwt beam="2">  1       -2 0.52281338E-01 0.17034310E+04</pdfrwt>
<totfact> 0.23213560E+01</totfact>
</mgrwt>
<rwgt>
<wgt id='morphing_basis_vector_1'> +1.8126844e-04 </wgt>
<wgt id='morphing_basis_vector_2'> +1.1965265e-04 </wgt>
<wgt id='morphing_basis_vector_3'> +1.9080386e-04 </wgt>
<wgt id='morphing_basis_vector_4'> +1.3093225e-04 </wgt>
<wgt id='morphing_basis_vector_5'> +2.0855028e-04 </wgt>
</rwgt>
</event>
<event>
 4      1 +1.5130300e-07 1.55618500e+03 7.81860800e-03 8.28305100e-02
        2 -1    0    0  501    0 +0.0000000000e+00 +0.0000000000e+00 +1.8060466203e+03 1.8060466203e+03 0.0000000000e+00 0.0000e+00 -1.0000e+00
       -2 -1    0    0    0  501 -0.0000000000e+00 -0.0000000000e+00 -3.3522286328e+02 3.3522286328e+02 0.0000000000e+00 0.0000e+00 1.0000e+00
      -13  1    1    2    0    0 +4.4783227115e+01 +7.7207238756e+02 +6.1763297436e+02 9.8973319641e+02 0.0000000000e+00 0.0000e+00 1.0000e+00
       13  1    1    2    0    0 -4.4783227115e+01 -7.7207238756e+02 +8.5319078265e+02 1.1515362872e+03 0.0000000000e+00 0.0000e+00 -1.0000e+00
<mgrwt>
<rscale>  0 0.15561852E+04</rscale>
<asrwt>0</asrwt>
<pdfrwt beam="1">  1        2 0.27785332E+00 0.15561852E+04</pdfrwt>
<pdfrwt beam="2">  1       -2 0.51572749E-01 0.15561852E+04</pdfrwt>
<totfact> 0.36925293E+01</totfact>
</mgrwt>
<rwgt>
<wgt id='morphing_basis_vector_1'> +1.3071588e-04 </wgt>
<wgt id='morphing_basis_vector_2'> +9.2879440e-05 </wgt>
<wgt id='morphing_basis_vector_3'> +1.3713097e-04 </wgt>
<wgt id='morphing_basis_vector_4'> +8.4445015e-05 </wgt>
<wgt id='morphing_basis_vector_5'> +1.4322230e-04 </wgt>
</rwgt>
</event>
<event>
 4      1 +1.5130300e-07 1.62405200e+03 7.81860800e-03 8.24630500e-02
        2 -1    0    0  501    0 +0.0000000000e+00 +0.0000000000e+00 +2.1992699936e+03 2.1992699936e+03 0.0000000000e+00 0.0000e+00 -1.0000e+00
       -2 -1    0    0    0  501 -0.0000000000e+00 -0.0000000000e+00 -2.9982060059e+02 2.9982060059e+02 0.0000000000e+00 0.0000e+00 1.0000e+00
      -13  1    1    2    0    0 +7.3880688674e+02 +1.8591352093e+02 +5.1725090193e+02 9.2084089218e+02 0.0000000000e+00 0.0000e+00 1.0000e+00
       13  1    1    2    0    0 -7.3880688674e+02 -1.8591352093e+02 +1.3821984911e+03 1.5782497020e+03 0.0000000000e+00 0.0000e+00 -1.0000e+00
<mgrwt>
<rscale>  0 0.16240523E+04</rscale>
<asrwt>0</asrwt>
<pdfrwt beam="1">  1        2 0.33834922E+00 0.16240523E+04</pdfrwt>
<pdfrwt beam="2">  1       -2 0.46126248E-01 0.16240523E+04</pdfrwt>
<totfact> 0.27437173E+01</totfact>
</mgrwt>
<rwgt>
<wgt id='morphing_basis_vector_1'> +1.5196866e-04 </wgt>
<wgt id='morphing_basis_vector_2'> +1.0317110e-04 </wgt>
<wgt id='morphing_basis_vector_3'> +1.5958927e-04 </wgt>
<wgt id='morphing_basis_vector_4'> +1.0498774e-04 </wgt>
<wgt id='morphing_basis_vector_5'> +1.7114794e-04 </wgt>
</rwgt>
</event>
<event>
 4      1 +1.5130300e-07 1.57578700e+03 7.81860800e-03 8.27224200e-02
        2 -1    0    0  501    0 +0.0000000000e+00 +0.0000000000e+00 +2.2208969585e+03 2.2208969585e+03 0.0000000000e+00 0.0000e+00 -1.0000e+00
       -2 -1    0    0    0  501 -0.0000000000e+00 -0.0000000000e+00 -2.7951593302e+02 2.7951593302e+02 0.0000000000e+00 0.0000e+00 1.0000e+00
      -13  1    1    2    0    0 -6.2104193517e+02 +4.8057032346e+02 +8.6865281829e+02 1.1709819127e+03 0.0000000000e+00 0.0000e+00 1.0000e+00
       13  1    1    2    0    0 +6.2104193517e+02 -4.8057032346e+02 +1.0727282072e+03 1.3294309788e+03 0.0000000000e+00 0.0000e+00 -1.0000e+00
<mgrwt>
<rscale>  0 0.15757869E+04</rscale>
<asrwt>0</asrwt>
<pdfrwt beam="1">  1        2 0.34167644E+00 0.15757869E+04</pdfrwt>
<pdfrwt beam="2">  1       -2 0.43002453E-01 0.15757869E+04</pdfrwt>
<totfact> 0.30625607E+01</totfact>
</mgrwt>
<rwgt>
<wgt id='morphing_basis_vector_1'> +1.3757041e-04 </wgt>
<wgt id='morphing_basis_vector_2'> +9.8657639e-05 </wgt>
<wgt id='morphing_basis_vector_3'> +1.4465811e-04 </wgt>
<wgt id='morphing_basis_vector_4'> +8.8227944e-05 </wgt>
<wgt id='morphing_basis_vector_5'> +1.5077346e-04 </wgt>
</rwgt>
</event>
<event>
 4      1 +1.5130300e-07 1.55765800e+03 7.81860800e-03 8.28223300e-02
        2 -1    0    0  501    0 +0.0000000000e+00 +0.0000000000e+00 +8.8384606228e+02 8.8384606228e+02 0.0000000000e+00 0.0000e+00 -1.0000e+00
       -2 -1    0    0    0  501 -0.0000000000e+00 -0.0000000000e+00 -6.8628971623e+02 6.8628971623e+02 0.0000000000e+00 0.0000e+00 1.0000e+00
      -13  1    1    2    0    0 -4.1221169907e+02 +5.9319745203e+02 -1.9471183348e+02 7.4814062852e+02 0.0000000000e+00 0.0000e+00 1.0000e+00
       13  1    1    2    0    0 +4.1221169907e+02 -5.9319745203e+02 +3.9226817953e+02 8.2199515000e+02 0.0000000000e+00 0.0000e+00 -1.0000e+00
<mgrwt>
<rscale>  0 0.15576578E+04</rscale>
<asrwt>0</asrwt>
<pdfrwt beam="1">  1        2 0.13597632E+00 0.15576578E+04</pdfrwt>
<pdfrwt beam="2">  1       -2 0.10558303E+00 0.15576578E+04</pdfrwt>
<totfact> 0.26248795E+01</totfact>
</mgrwt>
<rwgt>
<wgt id='morphing_basis_vector_1'> +1.2913977e-04 </wgt>
<wgt id='morphing_basis_vector_2'> +8.7105536e-05 </wgt>
<wgt id='morphing_basis_vector_3'> +1.3491062e-04 </wgt>
<wgt id='morphing_basis_vector_4'> +8.8651695e-05 </wgt>
<wgt id='morphing_basis_vector_5'> +1.4407403e-04 </wgt>
</rwgt>
</event>
<event>
 4      1 +1.5130300e-07 1.60281100e+03 7.81860800e-03 8.25760400e-02
        2 -1    0    0  501    0 +0.0000000000e+00 +0.0000000000e+00 +1.2451275430e+03 1.2451275430e+03 0.0000000000e+00 0.0000e+00 -1.0000e+00
       -2 -1    0    0    0  501 -0.0000000000e+00 -0.0000000000e+00 -5.1581135633e+02 5.1581135633e+02 0.0000000000e+00 0.0000e+00 1.0000e+00
      -13  1    1    2    0    0 +4.9075018946e+02 -6.2170964494e+02 +2.3058465499e+02 8.2494115802e+02 0.0000000000e+00 0.0000e+00 1.0000e+00
       13  1    1    2    0    0 -4.9075018946e+02 +6.2170964494e+02 +4.9873153169e+02 9.3599774133e+02 0.0000000000e+00 0.0000e+00 -1.0000e+00
<mgrwt>
<rscale>  0 0.16028112E+04</rscale>
<asrwt>0</asrwt>
<pdfrwt beam="1">  1        2 0.19155808E+00 0.16028112E+04</pdfrwt>
<pdfrwt beam="2">  1       -2 0.79355594E-01 0.16028112E+04</pdfrwt>
<totfact> 0.30768331E+01</totfact>
</mgrwt>
<rwgt>
<wgt id='morphing_basis_vector_1'> +1.4602957e-04 </wgt>
<wgt id='morphing_basis_vector_2'> +1.0278320e-04 </wgt>
<wgt id='morphing_basis_vector_3'> +1.5361070e-04 </wgt>
<wgt id='morphing_basis_vector_4'> +9.6359671e-05 </wgt>
<wgt id='morphing_basis_vector_5'> +1.6186827e-04 </wgt>
</rwgt>
</event>
<event>
 4      1 +1.5130300e-07 1.75488500e+03 7.81860800e-03 8.18041000e-02
        2 -1    0    0  501    0 +0.0000000000e+00 +0.0000000000e+00 +1.5286892301e+03 1.5286892301e+03 0.0000000000e+00 0.0000e+00 1.0000e+00
       -2 -1    0    0    0  501 -0.0000000000e+00 -0.0000000000e+00 -5.0363771595e+02 5.0363771595e+02 0.0000000000e+00 0.0000e+00 -1.0000e+00
      -13  1    1    2    0    0 +5.6585370673e+02 +5.8561811191e+02 +1.3411586340e+02 8.2530361397e+02 0.0000000000e+00 0.0000e+00 -1.0000e+00
       13  1    1    2    0    0 -5.6585370673e+02 -5.8561811191e+02 +8.9093565076e+02 1.2070233321e+03 0.0000000000e+00 0.0000e+00 1.0000e+00
<mgrwt>
<rscale>  0 0.17548852E+04</rscale>
<asrwt>0</asrwt>
<pdfrwt beam="1">  1        2 0.23518296E+00 0.17548852E+04</pdfrwt>
<pdfrwt beam="2">  1       -2 0.77482726E-01 0.17548852E+04</pdfrwt>
<totfact> 0.22138527E+01</totfact>
</mgrwt>
<rwgt>
<wgt id='morphing_basis_vector_1'> +2.0517376e-04 </wgt>
<wgt id='morphing_basis_vector_2'> +1.3946820e-04 </wgt>
<wgt id='morphing_basis_vector_3'> +2.1715728e-04 </wgt>
<wgt id='morphing_basis_vector_4'> +1.4475428e-04 </wgt>
<wgt id='morphing_basis_vector_5'> +2.3542812e-04 </wgt>
</rwgt>
</event>
<event>
 4      1 +1.5130300e-07 1.79636000e+03 7.81860800e-03 8.16073900e-02
        2 -1    0    0  501    0 +0.0000000000e+00 +0.0000000000e+00 +1.3090121508e+03 1.3090121508e+03 0.0000000000e+00 0.0000e+00 1.0000e+00
       -2 -1    0    0    0  501 -0.0000000000e+00 -0.0000000000e+00 -6.1628711798e+02 6.1628711798e+02 0.0000000000e+00 0.0000e+00 -1.0000e+00
      -13  1    1    2    0    0 -3.0361127482e+02 -7.9658735940e+02 +4.3225292238e+01 8.5358049020e+02 0.0000000000e+00 0.0000e+00 -1.0000e+00
       13  1    1    2    0    0 +3.0361127482e+02 +7.9658735940e+02 +6.4949974061e+02 1.0717187786e+03 0.0000000000e+00 0.0000e+00 1.0000e+00
<mgrwt>
<rscale>  0 0.17963600E+04</rscale>
<asrwt>0</asrwt>
<pdfrwt beam="1">  1        2 0.20138648E+00 0.17963600E+04</pdfrwt>
<pdfrwt beam="2">  1       -2 0.94813403E-01 0.17963600E+04</pdfrwt>
<totfact> 0.18424290E+01</totfact>
</mgrwt>
<rwgt>
<wgt id='morphing_basis_vector_1'> +2.2526763e-04 </wgt>
<wgt id='morphing_basis_vector_2'> +1.5454845e-04 </wgt>
<wgt id='morphing_basis_vector_3'> +2.3914326e-04 </wgt>
<wgt id='morphing_basis_vector_4'> +1.5825539e-04 </wgt>
<wgt id='morphing_basis_vector_5'> +2.5902576e-04 </wgt>
</rwgt>
</event>
<event>
 4      1 +1.5130300e-07 1.64400100e+03 7.81860800e-03 8.23585500e-02
        2 -1    0    0  501    0 +0.0000000000e+00 +0.0000000000e+00 +1.4715690571e+03 1.4715690571e+03 0.0000000000e+00 0.0000e+00 1.0000e+00
       -2 -1    0    0    0  501 -0.0000000000e+00 -0.0000000000e+00 -4.5915936904e+02 4.5915936904e+02 0.0000000000e+00 0.0000e+00 -1.0000e+00
      -13  1    1    2    0    0 -6.1707200888e+02 -5.0699652253e+02 +7.3472124526e+02 1.0851906036e+03 0.0000000000e+00 0.0000e+00 -1.0000e+00
       13  1    1    2    0    0 +6.1707200888e+02 +5.0699652253e+02 +2.7768844279e+02 8.4553782248e+02 0.0000000000e+00 0.0000e+00 1.0000e+00
<mgrwt>
<rscale>  0 0.16440009E+04</rscale>
<asrwt>0</asrwt>
<pdfrwt beam="1">  1        2 0.22639524E+00 0.16440009E+04</pdfrwt>
<pdfrwt beam="2">  1       -2 0.70639903E-01 0.16440009E+04</pdfrwt>
<totfact> 0.29457380E+01</totfact>
</mgrwt>
<rwgt>
<wgt id='morphing_basis_vector_1'> +1.7088711e-04 </wgt>
<wgt id='morphing_basis_vector_2'> +1.4259269e-04 </wgt>
<wgt id='morphing_basis_vector_3'> +1.8331422e-04 </wgt>
<wgt id='morphing_basis_vector_4'> +8.8316074e-05 </wgt>
<wgt id='morphing_basis_vector_5'> +1.7830190e-04 </wgt>
</rwgt>
</event>
<event>
 4      1 +1.5130300e-07 1.56229100e+03 7.81860800e-03 8.27966700e-02
        2 -1    0    0  501    0 +0.0000000000e+00 +0.0000000000e+00 +7.2568562220e+02 7.2568562220e+02 0.0000000000e+00 0.0000e+00 -1.0000e+00
       -2 -1    0    0    0  501 -0.0000000000e+00 -0.0000000000e+00 -8.4084354291e+02 8.4084354291e+02 0.0000000000e+00 0.0000e+00 1.0000e+00
      -13  1    1    2    0    0 -3.5579894355e+02 -6.6496145404e+02 -2.6165370473e+02 7.9826642469e+02 0.0000000000e+00 0.0000e+00 1.0000e+00
       13  1    1    2    0    0 +3.5579894355e+02 +6.6496145404e+02 +1.4649578401e+02 7.6826274042e+02 0.0000000000e+00 0.0000e+00 -1.0000e+00
<mgrwt>
<rscale>  0 0.15622907E+04</rscale>
<asrwt>0</asrwt>
<pdfrwt beam="1">  1        2 0.11164394E+00 0.15622907E+04</pdfrwt>
<pdfrwt beam="2">  1       -2 0.12936054E+00 0.15622907E+04</pdfrwt>
<totfact> 0.20072956E+01</totfact>
</mgrwt>
<rwgt>
<wgt id='morphing_basis_vector_1'> +1.3130447e-04 </wgt>
<wgt id='morphing_basis_vector_2'> +9.0132154e-05 </wgt>
<wgt id='morphing_basis_vector_3'> +1.3741640e-04 </wgt>
<wgt id='morphing_basis_vector_4'> +8.8476287e-05 </wgt>
<wgt id='morphing_basis_vector_5'> +1.4575857e-04 </wgt>
</rwgt>
</event>
<event>
 4      1 +1.5130300e-07 1.64094000e+03 7.81860800e-03 8.23744900e-02
        2 -1    0    0  501    0 +0.0000000000e+00 +0.0000000000e+00 +1.1047258006e+03 1.1047258006e+03 0.0000000000e+00 0.0000e+00 1.0000e+00
       -2 -1    0    0    0  501 -0.0000000000e+00 -0.0000000000e+00 -6.0935558043e+02 6.0935558043e+02 0.0000000000e+00 0.0000e+00 -1.0000e+00
      -13  1    1    2    0    0 -8.0022546020e+02 -1.7343937129e+02 +3.0225171624e+02 8.7281046203e+02 0.0000000000e+00 0.0000e+00 -1.0000e+00
       13  1    1    2    0    0 +8.0022546020e+02 +1.7343937129e+02 +1.9311850397e+02 8.4127091905e+02 0.0000000000e+00 0.0000e+00 1.0000e+00
<mgrwt>
<rscale>  0 0.16409398E+04</rscale>
<asrwt>0</asrwt>
<pdfrwt beam="1">  1        2 0.16995781E+00 0.16409398E+04</pdfrwt>
<pdfrwt beam="2">  1       -2 0.93747013E-01 0.16409398E+04</pdfrwt>
<totfact> 0.25239928E+01</totfact>
</mgrwt>
<rwgt>
<wgt id='morphing_basis_vector_1'> +1.6389896e-04 </wgt>
<wgt id='morphing_basis_vector_2'> +1.2443660e-04 </wgt>
<wgt id='morphing_basis_vector_3'> +1.7409830e-04 </wgt>
<wgt id='morphing_basis_vector_4'> +9.8646292e-05 </wgt>
<wgt id='morphing_basis_vector_5'> +1.7777474e-04 </wgt>
</rwgt>
</event>
<event>
 4      1 +1.5130300e-07 1.74024800e+03 7.81860800e-03 8.18748500e-02
        2 -1    0    0  501    0 +0.0000000000e+00 +0.0000000000e+00 +7.4776443956e+02 7.4776443956e+02 0.0000000000e+00 0.0000e+00 1.0000e+00
       -2 -1    0    0    0  501 -0.0000000000e+00 -0.0000000000e+00 -1.0125061952e+03 1.0125061952e+03 0.0000000000e+00 0.0000e+00 -1.0000e+00
      -13  1    1    2    0    0 -2.3176318883e+02 -8.0366931473e+02 +1.1021667819e+02 8.4365055520e+02 0.0000000000e+00 0.0000e+00 1.0000e+00
       13  1    1    2    0    0 +2.3176318883e+02 +8.0366931473e+02 -3.7495843380e+02 9.1662007954e+02 0.0000000000e+00 0.0000e+00 -1.0000e+00
<mgrwt>
<rscale>  0 0.17402484E+04</rscale>
<asrwt>0</asrwt>
<pdfrwt beam="1">  1        2 0.11504068E+00 0.17402484E+04</pdfrwt>
<pdfrwt beam="2">  1       -2 0.15577018E+00 0.17402484E+04</pdfrwt>
<totfact> 0.11343813E+01</totfact>
</mgrwt>
<rwgt>
<wgt id='morphing_basis_vector_1'> +2.1541215e-04 </wgt>
<wgt id='morphing_basis_vector_2'> +1.8488227e-04 </wgt>
<wgt id='morphing_basis_vector_3'> +2.3347364e-04 </wgt>
<wgt id='morphing_basis_vector_4'> +1.0726322e-04 </wgt>
<wgt id='morphing_basis_vector_5'> +2.2495955e-04 </wgt>
</rwgt>
</event>
<event>
 4      1 +1.5130300e-07 1.56380500e+03 7.81860800e-03 8.27883000e-02
        2 -1    0    0  501    0 +0.0000000000e+00 +0.0000000000e+00 +9.2543579986e+02 9.2543579986e+02 0.0000000000e+00 0.0000e+00 -1.0000e+00
       -2 -1    0    0    0  501 -0.0000000000e+00 -0.0000000000e+00 -6.6063095885e+02 6.6063095885e+02 0.0000000000e+00 0.0000e+00 1.0000e+00
      -13  1    1    2    0    0 +1.8579434572e+02 +5.2991161268e+02 -4.1944399414e+02 7.0089879467e+02 0.0000000000e+00 0.0000e+00 1.0000e+00
       13  1    1    2    0    0 -1.8579434572e+02 -5.2991161268e+02 +6.8424883515e+02 8.8516796404e+02 0.0000000000e+00 0.0000e+00 -1.0000e+00
<mgrwt>
<rscale>  0 0.15638050E+04</rscale>
<asrwt>0</asrwt>
<pdfrwt beam="1">  1        2 0.14237474E+00 0.15638050E+04</pdfrwt>
<pdfrwt beam="2">  1       -2 0.10163553E+00 0.15638050E+04</pdfrwt>
<totfact> 0.27058426E+01</totfact>
</mgrwt>
<rwgt>
<wgt id='morphing_basis_vector_1'> +1.3022476e-04 </wgt>
<wgt id='morphing_basis_vector_2'> +8.5793549e-05 </wgt>
<wgt id='morphing_basis_vector_3'> +1.3584851e-04 </wgt>
<wgt id='morphing_basis_vector_4'> +9.1800486e-05 </wgt>
<wgt id='morphing_basis_vector_5'> +1.4656631e-04 </wgt>
</rwgt>
</event>
<event>
 4      1 +1.5130300e-07 1.76503800e+03 7.81860800e-03 8.17554400e-02
        2 -1    0    0  501    0 +0.0000000000e+00 +0.0000000000e+00 +6.9454711037e+02 6.9454711037e+02 0.0000000000e+00 0.0000e+00 1.0000e+00
       -2 -1    0    0    0  501 -0.0000000000e+00 -0.0000000000e+00 -1.1213631330e+03 1.1213631330e+03 0.0000000000e+00 0.0000e+00 -1.0000e+00
      -13  1    1    2    0    0 +9.7880480558e+00 -4.0418929860e+02 +5.9366016000e+02 7.1825982803e+02 0.0000000000e+00 0.0000e+00 1.0000e+00
       13  1    1    2    0    0 -9.7880480558e+00 +4.0418929860e+02 -1.0204761827e+03 1.0976504154e+03 0.0000000000e+00 0.0000e+00 -1.0000e+00
<mgrwt>
<rscale>  0 0.17650377E+04</rscale>
<asrwt>0</asrwt>
<pdfrwt beam="1">  1        2 0.10685340E+00 0.17650377E+04</pdfrwt>
<pdfrwt beam="2">  1       -2 0.17251740E+00 0.17650377E+04</pdfrwt>
<totfact> 0.91382183E+00</totfact>
</mgrwt>
<rwgt>
<wgt id='morphing_basis_vector_1'> +2.8268752e-04 </wgt>
<wgt id='morphing_basis_vector_2'> +3.5893064e-04 </wgt>
<wgt id='morphing_basis_vector_3'> +3.2430956e-04 </wgt>
<wgt id='morphing_basis_vector_4'> +6.6145254e-06 </wgt>
<wgt id='morphing_basis_vector_5'> +2.3013679e-04 </wgt>
</rwgt>
</event>
<event>
 4      1 +1.5130300e-07 1.80343000e+03 7.81860800e-03 8.15744000e-02
        2 -1    0    0  501    0 +0.0000000000e+00 +0.0000000000e+00 +1.2298876479e+03 1.2298876479e+03 0.0000000000e+00 0.0000e+00 -1.0000e+00
       -2 -1    0    0    0  501 -0.0000000000e+00 -0.0000000000e+00 -6.6110944855e+02 6.6110944855e+02 0.0000000000e+00 0.0000e+00 1.0000e+00
      -13  1    1    2    0    0 -2.5671513608e+02 -7.8460588125e+02 -9.5965385644e+01 8.3109470292e+02 0.0000000000e+00 0.0000e+00 1.0000e+00
       13  1    1    2    0    0 +2.5671513608e+02 +7.8460588125e+02 +6.6474358496e+02 1.0599023935e+03 0.0000000000e+00 0.0000e+00 -1.0000e+00
<mgrwt>
<rscale>  0 0.18034304E+04</rscale>
<asrwt>0</asrwt>
<pdfrwt beam="1">  1        2 0.18921348E+00 0.18034304E+04</pdfrwt>
<pdfrwt beam="2">  1       -2 0.10170915E+00 0.18034304E+04</pdfrwt>
<totfact> 0.17286092E+01</totfact>
</mgrwt>
<rwgt>
<wgt id='morphing_basis_vector_1'> +2.2796252e-04 </wgt>
<wgt id='morphing_basis_vector_2'> +1.5464308e-04 </wgt>
<wgt id='morphing_basis_vector_3'> +2.4181924e-04 </wgt>
<wgt id='morphing_basis_vector_4'> +1.6235216e-04 </wgt>
<wgt id='morphing_basis_vector_5'> +2.6334971e-04 </wgt>
</rwgt>
</event>
<event>
 4      1 +1.5130300e-07 1.78522900e+03 7.81860800e-03 8.16596500e-02
        2 -1    0    0  501    0 +0.0000000000e+00 +0.0000000000e+00 +1.6870389176e+03 1.6870389176e+03 0.0000000000e+00 0.0000e+00 1.0000e+00
       -2 -1    0    0    0  501 -0.0000000000e+00 -0.0000000000e+00 -4.7228357132e+02 4.7228357132e+02 0.0000000000e+00 0.0000e+00 -1.0000e+00
      -13  1    1    2    0    0 +7.1734728966e+02 +1.5381507480e+02 -7.6094765557e+00 7.3369211210e+02 0.0000000000e+00 0.0000e+00 -1.0000e+00
       13  1    1    2    0    0 -7.1734728966e+02 -1.5381507480e+02 +1.2223648229e+03 1.4256303769e+03 0.0000000000e+00 0.0000e+00 1.0000e+00
<mgrwt>
<rscale>  0 0.17852291E+04</rscale>
<asrwt>0</asrwt>
<pdfrwt beam="1">  1        2 0.25954445E+00 0.17852291E+04</pdfrwt>
<pdfrwt beam="2">  1       -2 0.72659012E-01 0.17852291E+04</pdfrwt>
<totfact> 0.20765738E+01</totfact>
</mgrwt>
<rwgt>
<wgt id='morphing_basis_vector_1'> +2.1820717e-04 </wgt>
<wgt id='morphing_basis_vector_2'> +1.4585366e-04 </wgt>
<wgt id='morphing_basis_vector_3'> +2.3093553e-04 </wgt>
<wgt id='morphing_basis_vector_4'> +1.5752169e-04 </wgt>
<wgt id='morphing_basis_vector_5'> +2.5275799e-04 </wgt>
</rwgt>
</event>
<event>
 4      1 +1.5130300e-07 1.75052900e+03 7.81860800e-03 8.18250900e-02
        2 -1    0    0  501    0 +0.0000000000e+00 +0.0000000000e+00 +1.8056419969e+03 1.8056419969e+03 0.0000000000e+00 0.0000e+00 1.0000e+00
       -2 -1    0    0    0  501 -0.0000000000e+00 -0.0000000000e+00 -4.2427472352e+02 4.2427472352e+02 0.0000000000e+00 0.0000e+00 -1.0000e+00
      -13  1    1    2    0    0 -3.4222635213e+02 -5.6572625004e+02 -3.9894201305e+01 6.6238705707e+02 0.0000000000e+00 0.0000e+00 -1.0000e+00
       13  1    1    2    0    0 +3.4222635213e+02 +5.6572625004e+02 +1.4212614747e+03 1.5675296634e+03 0.0000000000e+00 0.0000e+00 1.0000e+00
<mgrwt>
<rscale>  0 0.17505294E+04</rscale>
<asrwt>0</asrwt>
<pdfrwt beam="1">  1        2 0.27779107E+00 0.17505294E+04</pdfrwt>
<pdfrwt beam="2">  1       -2 0.65273035E-01 0.17505294E+04</pdfrwt>
<totfact> 0.22490595E+01</totfact>
</mgrwt>
<rwgt>
<wgt id='morphing_basis_vector_1'> +2.0188137e-04 </wgt>
<wgt id='morphing_basis_vector_2'> +1.3419897e-04 </wgt>
<wgt id='morphing_basis_vector_3'> +2.1317444e-04 </wgt>
<wgt id='morphing_basis_vector_4'> +1.4583912e-04 </wgt>
<wgt id='morphing_basis_vector_5'> +2.3323503e-04 </wgt>
</rwgt>
</event>
<event>
 4      1 +1.5130300e-07 1.58622400e+03 7.81860800e-03 8.26655300e-02
        2 -1    0    0  501    0 +0.0000000000e+00 +0.0000000000e+00 +1.0530599763e+03 1.0530599763e+03 0.0000000000e+00 0.0000e+00 -1.0000e+00
       -2 -1    0    0    0  501 -0.0000000000e+00 -0.0000000000e+00 -5.9733212553e+02 5.9733212553e+02 0.0000000000e+00 0.0000e+00 1.0000e+00
      -13  1    1    2    0    0 -2.8820306198e+02 -3.9617930478e+01 -5.3981585408e+02 6.1321427060e+02 0.0000000000e+00 0.0000e+00 1.0000e+00
       13  1    1    2    0    0 +2.8820306198e+02 +3.9617930478e+01 +9.9554370481e+02 1.0371778312e+03 0.0000000000e+00 0.0000e+00 -1.0000e+00
<mgrwt>
<rscale>  0 0.15862239E+04</rscale>
<asrwt>0</asrwt>
<pdfrwt beam="1">  1        2 0.16200923E+00 0.15862239E+04</pdfrwt>
<pdfrwt beam="2">  1       -2 0.91897250E-01 0.15862239E+04</pdfrwt>
<totfact> 0.28554982E+01</totfact>
</mgrwt>
<rwgt>
<wgt id='morphing_basis_vector_1'> +1.3743166e-04 </wgt>
<wgt id='morphing_basis_vector_2'> +9.0238380e-05 </wgt>
<wgt id='morphing_basis_vector_3'> +1.4355352e-04 </wgt>
<wgt id='morphing_basis_vector_4'> +9.7677052e-05 </wgt>
<wgt id='morphing_basis_vector_5'> +1.5546886e-04 </wgt>
</rwgt>
</event>
<event>
 4      1 +1.5130300e-07 1.78581200e+03 7.81860800e-03 8.16569000e-02
        2 -1    0    0  501    0 +0.0000000000e+00 +0.0000000000e+00 +1.3185084172e+03 1.3185084172e+03 0.0000000000e+00 0.0000e+00 -1.0000e+00
       -2 -1    0    0    0  501 -0.0000000000e+00 -0.0000000000e+00 -6.0468405321e+02 6.0468405321e+02 0.0000000000e+00 0.0000e+00 1.0000e+00
      -13  1    1    2    0    0 +2.3986655650e+01 +8.9229112245e+02 +3.8152200116e+02 9.7073057241e+02 0.0000000000e+00 0.0000e+00 -1.0000e+00
       13  1    1    2    0    0 -2.3986655650e+01 -8.9229112245e+02 +3.3230236286e+02 9.5246189804e+02 0.0000000000e+00 0.0000e+00 1.0000e+00
<mgrwt>
<rscale>  0 0.17858119E+04</rscale>
<asrwt>0</asrwt>
<pdfrwt beam="1">  1        2 0.20284745E+00 0.17858119E+04</pdfrwt>
<pdfrwt beam="2">  1       -2 0.93028316E-01 0.17858119E+04</pdfrwt>
<totfact> 0.19045644E+01</totfact>
</mgrwt>
<rwgt>
<wgt id='morphing_basis_vector_1'> +2.2654149e-04 </wgt>
<wgt id='morphing_basis_vector_2'> +1.6995035e-04 </wgt>
<wgt id='morphing_basis_vector_3'> +2.4257233e-04 </wgt>
<wgt id='morphing_basis_vector_4'> +1.4203412e-04 </wgt>
<wgt id='morphing_basis_vector_5'> +2.5188181e-04 </wgt>
</rwgt>
</event>
<event>
 4      1 +1.5130300e-07 1.62676200e+03 7.81860800e-03 8.24487700e-02
        2 -1    0    0  501    0 +0.0000000000e+00 +0.0000000000e+00 +1.6175162252e+03 1.6175162252e+03 0.0000000000e+00 0.0000e+00 1.0000e+00
       -2 -1    0    0    0  501 -0.0000000000e+00 -0.0000000000e+00 -4.0901518676e+02 4.0901518676e+02 0.0000000000e+00 0.0000e+00 -1.0000e+00
      -13  1    1    2    0    0 +4.2942460735e+02 -1.0465930108e+02 -2.4635705107e+02 5.0601468290e+02 0.0000000000e+00 0.0000e+00 -1.0000e+00
       13  1    1    2    0    0 -4.2942460735e+02 +1.0465930108e+02 +1.4548580895e+03 1.5205167291e+03 0.0000000000e+00 0.0000e+00 1.0000e+00
<mgrwt>
<rscale>  0 0.16267621E+04</rscale>
<asrwt>0</asrwt>
<pdfrwt beam="1">  1        2 0.24884865E+00 0.16267621E+04</pdfrwt>
<pdfrwt beam="2">  1       -2 0.62925414E-01 0.16267621E+04</pdfrwt>
<totfact> 0.31216170E+01</totfact>
</mgrwt>
<rwgt>
<wgt id='morphing_basis_vector_1'> +1.5159256e-04 </wgt>
<wgt id='morphing_basis_vector_2'> +9.9800588e-05 </wgt>
<wgt id='morphing_basis_vector_3'> +1.5880452e-04 </wgt>
<wgt id='morphing_basis_vector_4'> +1.0830920e-04 </wgt>
<wgt id='morphing_basis_vector_5'> +1.7252541e-04 </wgt>
</rwgt>
</event>
<event>
 4      1 +1.5130300e-07 1.80362900e+03 7.81860800e-03 8.15734700e-02
        2 -1    0    0  501    0 +0.0000000000e+00 +0.0000000000e+00 +6.3315368878e+02 6.3315368878e+02 0.0000000000e+00 0.0000e+00 -1.0000e+00
       -2 -1    0    0    0  501 -0.0000000000e+00 -0.0000000000e+00 -1.2844741006e+03 1.2844741006e+03 0.0000000000e+00 0.0000e+00 1.0000e+00
      -13  1    1    2    0    0 -4.8973018462e+02 +7.1185299062e+02 -6.0024553083e+02 1.0520765330e+03 0.0000000000e+00 0.0000e+00 1.0000e+00
       13  1    1    2    0    0 +4.8973018462e+02 -7.1185299062e+02 -5.1074880986e+01 8.6555125640e+02 0.0000000000e+00 0.0000e+00 -1.0000e+00
<mgrwt>
<rscale>  0 0.18036291E+04</rscale>
<asrwt>0</asrwt>
<pdfrwt beam="1">  1        2 0.97408261E-01 0.18036291E+04</pdfrwt>
<pdfrwt beam="2">  1       -2 0.19761140E+00 0.18036291E+04</pdfrwt>
<totfact> 0.65920231E+00</totfact>
</mgrwt>
<rwgt>
<wgt id='morphing_basis_vector_1'> +2.2915704e-04 </wgt>
<wgt id='morphing_basis_vector_2'> +1.5796381e-04 </wgt>
<wgt id='morphing_basis_vector_3'> +2.4347365e-04 </wgt>
<wgt id='morphing_basis_vector_4'> +1.6028445e-04 </wgt>
<wgt id='morphing_basis_vector_5'> +2.6330268e-04 </wgt>
</rwgt>
</event>
<event>
 4      1 +1.5130300e-07 1.57370100e+03 7.81860800e-03 8.27338500e-02
        2 -1    0    0  501    0 +0.0000000000e+00 +0.0000000000e+00 +8.7611222060e+02 8.7611222060e+02 0.0000000000e+00 0.0000e+00 1.0000e+00
       -2 -1    0    0    0  501 -0.0000000000e+00 -0.0000000000e+00 -7.0668292584e+02 7.0668292584e+02 0.0000000000e+00 0.0000e+00 -1.0000e+00
      -13  1    1    2    0    0 +7.4541485242e+02 +1.6635949225e+02 -1.0562690021e+02 7.7102258392e+02 0.0000000000e+00 0.0000e+00 -1.0000e+00
       13  1    1    2    0    0 -7.4541485242e+02 -1.6635949225e+02 +2.7505619497e+02 8.1177256252e+02 0.0000000000e+00 0.0000e+00 1.0000e+00
<mgrwt>
<rscale>  0 0.15737008E+04</rscale>
<asrwt>0</asrwt>
<pdfrwt beam="1">  1        2 0.13478650E+00 0.15737008E+04</pdfrwt>
<pdfrwt beam="2">  1       -2 0.10872045E+00 0.15737008E+04</pdfrwt>
<totfact> 0.24662948E+01</totfact>
</mgrwt>
<rwgt>
<wgt id='morphing_basis_vector_1'> +1.3520828e-04 </wgt>
<wgt id='morphing_basis_vector_2'> +9.3208124e-05 </wgt>
<wgt id='morphing_basis_vector_3'> +1.4167289e-04 </wgt>
<wgt id='morphing_basis_vector_4'> +9.0883649e-05 </wgt>
<wgt id='morphing_basis_vector_5'> +1.5018647e-04 </wgt>
</rwgt>
</event>
<event>
 4      1 +1.5130300e-07 1.56663000e+03 7.81860800e-03 8.27727100e-02
        2 -1    0    0  501    0 +0.0000000000e+00 +0.0000000000e+00 +3.1623662768e+03 3.1623662768e+03 0.0000000000e+00 0.0000e+00 -1.0000e+00
       -2 -1    0    0    0  501 -0.0000000000e+00 -0.0000000000e+00 -1.9402627852e+02 1.9402627852e+02 0.0000000000e+00 0.0000e+00 1.0000e+00
      -13  1    1    2    0    0 -2.0090605820e+02 +5.0991463968e+02 +2.8516384714e+02 6.1781437641e+02 0.0000000000e+00 0.0000e+00 1.0000e+00
       13  1    1    2    0    0 +2.0090605820e+02 -5.0991463968e+02 +2.6831761511e+03 2.7385781789e+03 0.0000000000e+00 0.0000e+00 -1.0000e+00
<mgrwt>
<rscale>  0 0.15666297E+04</rscale>
<asrwt>0</asrwt>
<pdfrwt beam="1">  1        2 0.48651785E+00 0.15666297E+04</pdfrwt>
<pdfrwt beam="2">  1       -2 0.29850199E-01 0.15666297E+04</pdfrwt>
<totfact> 0.15775726E+01</totfact>
</mgrwt>
<rwgt>
<wgt id='morphing_basis_vector_1'> +1.3111415e-04 </wgt>
<wgt id='morphing_basis_vector_2'> +8.6336875e-05 </wgt>
<wgt id='morphing_basis_vector_3'> +1.3679858e-04 </wgt>
<wgt id='morphing_basis_vector_4'> +9.2530770e-05 </wgt>
<wgt id='morphing_basis_vector_5'> +1.4766696e-04 </wgt>
</rwgt>
</event>
<event>
 4      1 +1.5130300e-07 1.57627300e+03 7.81860800e-03 8.27197700e-02
        2 -1    0    0  501    0 +0.0000000000e+00 +0.0000000000e+00 +6.5656618641e+02 6.5656618641e+02 0.0000000000e+00 0.0000e+00 -1.0000e+00
       -2 -1    0    0    0  501 -0.0000000000e+00 -0.0000000000e+00 -9.4607224340e+02 9.4607224340e+02 0.0000000000e+00 0.0000e+00 1.0000e+00
      -13  1    1    2    0    0 +4.5245240270e+02 -1.5474107616e+01 -8.0068460402e+02 9.1980892572e+02 0.0000000000e+00 0.0000e+00 1.0000e+00
       13  1    1    2    0    0 -4.5245240270e+02 +1.5474107616e+01 +5.1117854703e+02 6.8282950409e+02 0.0000000000e+00 0.0000e+00 -1.0000e+00
<mgrwt>
<rscale>  0 0.15762729E+04</rscale>
<asrwt>0</asrwt>
<pdfrwt beam="1">  1        2 0.10101018E+00 0.15762729E+04</pdfrwt>
<pdfrwt beam="2">  1       -2 0.14554957E+00 0.15762729E+04</pdfrwt>
<totfact> 0.16386536E+01</totfact>
</mgrwt>
<rwgt>
<wgt id='morphing_basis_vector_1'> +1.3416987e-04 </wgt>
<wgt id='morphing_basis_vector_2'> +8.8165647e-05 </wgt>
<wgt id='morphing_basis_vector_3'> +1.4005882e-04 </wgt>
<wgt id='morphing_basis_vector_4'> +9.5085380e-05 </wgt>
<wgt id='morphing_basis_vector_5'> +1.5147295e-04 </wgt>
</rwgt>
</event>
<event>
 4      1 +1.5130300e-07 1.55172700e+03 7.81860800e-03 8.28553200e-02
        2 -1    0    0  501    0 +0.0000000000e+00 +0.0000000000e+00 +1.5892614290e+03 1.5892614290e+03 0.0000000000e+00 0.0000e+00 -1.0000e+00
       -2 -1    0    0    0  501 -0.0000000000e+00 -0.0000000000e+00 -3.7876984877e+02 3.7876984877e+02 0.0000000000e+00 0.0000e+00 1.0000e+00
      -13  1    1    2    0    0 +3.5736040354e+02 -6.8788953913e+02 +5.6383994728e+02 9.5854784033e+02 0.0000000000e+00 0.0000e+00 1.0000e+00
       13  1    1    2    0    0 -3.5736040354e+02 +6.8788953913e+02 +6.4665163292e+02 1.0094834374e+03 0.0000000000e+00 0.0000e+00 -1.0000e+00
<mgrwt>
<rscale>  0 0.15517272E+04</rscale>
<asrwt>0</asrwt>
<pdfrwt beam="1">  1        2 0.24450175E+00 0.15517272E+04</pdfrwt>
<pdfrwt beam="2">  1       -2 0.58272285E-01 0.15517272E+04</pdfrwt>
<totfact> 0.38146353E+01</totfact>
</mgrwt>
<rwgt>
<wgt id='morphing_basis_vector_1'> +1.3015392e-04 </wgt>
<wgt id='morphing_basis_vector_2'> +9.4459918e-05 </wgt>
<wgt id='morphing_basis_vector_3'> +1.3673920e-04 </wgt>
<wgt id='morphing_basis_vector_4'> +8.1791734e-05 </wgt>
<wgt id='morphing_basis_vector_5'> +1.4140929e-04 </wgt>
</rwgt>
</event>
<event>
 4      1 +1.5130300e-07 1.69934000e+03 7.81860800e-03 8.20764200e-02
        2 -1    0    0  501    0 +0.0000000000e+00 +0.0000000000e+00 +2.3556875432e+03 2.3556875432e+03 0.0000000000e+00 0.0000e+00 1.0000e+00
       -2 -1    0    0    0  501 -0.0000000000e+00 -0.0000000000e+00 -3.0646655689e+02 3.0646655689e+02 0.0000000000e+00 0.0000e+00 -1.0000e+00
      -13  1    1    2    0    0 -7.4751849216e+02 -2.4163195549e+02 +5.1753764934e+02 9.4075242041e+02 0.0000000000e+00 0.0000e+00 -1.0000e+00
       13  1    1    2    0    0 +7.4751849216e+02 +2.4163195549e+02 +1.5316833370e+03 1.7214016797e+03 0.0000000000e+00 0.0000e+00 1.0000e+00
<mgrwt>
<rscale>  0 0.16993404E+04</rscale>
<asrwt>0</asrwt>
<pdfrwt beam="1">  1        2 0.36241346E+00 0.16993404E+04</pdfrwt>
<pdfrwt beam="2">  1       -2 0.47148703E-01 0.16993404E+04</pdfrwt>
<totfact> 0.21225557E+01</totfact>
</mgrwt>
<rwgt>
<wgt id='morphing_basis_vector_1'> +1.8097281e-04 </wgt>
<wgt id='morphing_basis_vector_2'> +1.2265523e-04 </wgt>
<wgt id='morphing_basis_vector_3'> +1.9090574e-04 </wgt>
<wgt id='morphing_basis_vector_4'> +1.2696317e-04 </wgt>
<wgt id='morphing_basis_vector_5'> +2.0629304e-04 </wgt>
</rwgt>
</event>
<event>
 4      1 +1.5130300e-07 1.76884300e+03 7.81860800e-03 8.17372900e-02
        2 -1    0    0  501    0 +0.0000000000e+00 +0.0000000000e+00 +2.9450598217e+03 2.9450598217e+03 0.0000000000e+00 0.0000e+00 -1.0000e+00
       -2 -1    0    0    0  501 -0.0000000000e+00 -0.0000000000e+00 -2.6559779853e+02 2.6559779853e+02 0.0000000000e+00 0.0000e+00 1.0000e+00
      -13  1    1    2    0    0 +4.2180721265e+02 -7.7105034333e+02 +1.1603973400e+03 1.4556654641e+03 0.0000000000e+00 0.0000e+00 1.0000e+00
       13  1    1    2    0    0 -4.2180721265e+02 +7.7105034333e+02 +1.5190646831e+03 1.7549921562e+03 0.0000000000e+00 0.0000e+00 -1.0000e+00
<mgrwt>
<rscale>  0 0.17688430E+04</rscale>
<asrwt>0</asrwt>
<pdfrwt beam="1">  1        2 0.45308610E+00 0.17688430E+04</pdfrwt>
<pdfrwt beam="2">  1       -2 0.40861202E-01 0.17688430E+04</pdfrwt>
<totfact> 0.12114920E+01</totfact>
</mgrwt>
<rwgt>
<wgt id='morphing_basis_vector_1'> +2.1493927e-04 </wgt>
<wgt id='morphing_basis_vector_2'> +1.5379835e-04 </wgt>
<wgt id='morphing_basis_vector_3'> +2.2881168e-04 </wgt>
<wgt id='morphing_basis_vector_4'> +1.4305169e-04 </wgt>
<wgt id='morphing_basis_vector_5'> +2.4270825e-04 </wgt>
</rwgt>
</event>
<event>
 4      1 +1.5130300e-07 1.84093300e+03 7.81860800e-03 8.14019800e-02
        2 -1    0    0  501    0 +0.0000000000e+00 +0.0000000000e+00 +3.8172717836e+03 3.8172717836e+03 0.0000000000e+00 0.0000e+00 -1.0000e+00
       -2 -1    0    0    0  501 -0.0000000000e+00 -0.0000000000e+00 -2.2195391797e+02 2.2195391797e+02 0.0000000000e+00 0.0000e+00 1.0000e+00
      -13  1    1    2    0    0 -3.4969691353e+02 +8.2648526305e+02 +1.3485736010e+03 1.6198816558e+03 0.0000000000e+00 0.0000e+00 1.0000e+00
       13  1    1    2    0    0 +3.4969691353e+02 -8.2648526305e+02 +2.2467442646e+03 2.4193440458e+03 0.0000000000e+00 0.0000e+00 -1.0000e+00
<mgrwt>
<rscale>  0 0.18409328E+04</rscale>
<asrwt>0</asrwt>
<pdfrwt beam="1">  1        2 0.58727254E+00 0.18409328E+04</pdfrwt>
<pdfrwt beam="2">  1       -2 0.34146759E-01 0.18409328E+04</pdfrwt>
<totfact> 0.40277737E+00</totfact>
</mgrwt>
<rwgt>
<wgt id='morphing_basis_vector_1'> +2.4911233e-04 </wgt>
<wgt id='morphing_basis_vector_2'> +1.7393469e-04 </wgt>
<wgt id='morphing_basis_vector_3'> +2.6549312e-04 </wgt>
<wgt id='morphing_basis_vector_4'> +1.7254413e-04 </wgt>
<wgt id='morphing_basis_vector_5'> +2.8620410e-04 </wgt>
</rwgt>
</event>
<event>
 4      1 +1.5130300e-07 1.60277700e+03 7.81860800e-03 8.25762300e-02
        2 -1    0    0  501    0 +0.0000000000e+00 +0.0000000000e+00 +1.5823798383e+03 1.5823798383e+03 0.0000000000e+00 0.0000e+00 -1.0000e+00
       -2 -1    0    0    0  501 -0.0000000000e+00 -0.0000000000e+00 -4.0585923409e+02 4.0585923409e+02 0.0000000000e+00 0.0000e+00 1.0000e+00
      -13  1    1    2    0    0 +1.2556780149e+02 -3.6432242799e+02 -2.8338188579e+02 4.7833398113e+02 0.0000000000e+00 0.0000e+00 1.0000e+00
       13  1    1    2    0    0 -1.2556780149e+02 +3.6432242799e+02 +1.4599024900e+03 1.5099050913e+03 0.0000000000e+00 0.0000e+00 -1.0000e+00
<mgrwt>
<rscale>  0 0.16027769E+04</rscale>
<asrwt>0</asrwt>
<pdfrwt beam="1">  1        2 0.24344305E+00 0.16027769E+04</pdfrwt>
<pdfrwt beam="2">  1       -2 0.62439883E-01 0.16027769E+04</pdfrwt>
<totfact> 0.33250215E+01</totfact>
</mgrwt>
<rwgt>
<wgt id='morphing_basis_vector_1'> +1.4308933e-04 </wgt>
<wgt id='morphing_basis_vector_2'> +9.4062138e-05 </wgt>
<wgt id='morphing_basis_vector_3'> +1.4964444e-04 </wgt>
<wgt id='morphing_basis_vector_4'> +1.0191585e-04 </wgt>
<wgt id='morphing_basis_vector_5'> +1.6227434e-04 </wgt>
</rwgt>
</event>
<event>
 4      1 +1.5130300e-07 1.76606300e+03 7.81860800e-03 8.17505500e-02
        2 -1    0    0  501    0 +0.0000000000e+00 +0.0000000000e+00 +6.6306763247e+02 6.6306763247e+02 0.0000000000e+00 0.0000e+00 1.0000e+00
       -2 -1    0    0    0  501 -0.0000000000e+00 -0.0000000000e+00 -1.1759652670e+03 1.1759652670e+03 0.0000000000e+00 0.0000e+00 -1.0000e+00
      -13  1    1    2    0    0 -8.5968553319e+02 -2.0123652402e+02 -2.7077028449e+02 9.2351063965e+02 0.0000000000e+00 0.0000e+00 -1.0000e+00
       13  1    1    2    0    0 +8.5968553319e+02 +2.0123652402e+02 -2.4212735003e+02 9.1552225981e+02 0.0000000000e+00 0.0000e+00 1.0000e+00
<mgrwt>
<rscale>  0 0.17660629E+04</rscale>
<asrwt>0</asrwt>
<pdfrwt beam="1">  1        2 0.10201041E+00 0.17660629E+04</pdfrwt>
<pdfrwt beam="2">  1       -2 0.18091773E+00 0.17660629E+04</pdfrwt>
<totfact> 0.83342995E+00</totfact>
</mgrwt>
<rwgt>
<wgt id='morphing_basis_vector_1'> +2.1578064e-04 </wgt>
<wgt id='morphing_basis_vector_2'> +1.5924282e-04 </wgt>
<wgt id='morphing_basis_vector_3'> +2.3039764e-04 </wgt>
<wgt id='morphing_basis_vector_4'> +1.3794297e-04 </wgt>
<wgt id='morphing_basis_vector_5'> +2.4082335e-04 </wgt>
</rwgt>
</event>
<event>
 4      1 +1.5130300e-07 1.81315900e+03 7.81860800e-03 8.15292500e-02
        2 -1    0    0  501    0 +0.0000000000e+00 +0.0000000000e+00 +1.0991490122e+03 1.0991490122e+03 0.0000000000e+00 0.0000e+00 1.0000e+00
       -2 -1    0    0    0  501 -0.0000000000e+00 -0.0000000000e+00 -7.4774794197e+02 7.4774794197e+02 0.0000000000e+00 0.0000e+00 -1.0000e+00
      -13  1    1    2    0    0 +6.6222825104e+02 -1.9522787765e+02 -4.2279189643e+02 8.0957591885e+02 0.0000000000e+00 0.0000e+00 -1.0000e+00
       13  1    1    2    0    0 -6.6222825104e+02 +1.9522787765e+02 +7.7419296664e+02 1.0373210353e+03 0.0000000000e+00 0.0000e+00 1.0000e+00
<mgrwt>
<rscale>  0 0.18131590E+04</rscale>
<asrwt>0</asrwt>
<pdfrwt beam="1">  1        2 0.16909985E+00 0.18131590E+04</pdfrwt>
<pdfrwt beam="2">  1       -2 0.11503814E+00 0.18131590E+04</pdfrwt>
<totfact> 0.15177740E+01</totfact>
</mgrwt>
<rwgt>
<wgt id='morphing_basis_vector_1'> +2.3155522e-04 </wgt>
<wgt id='morphing_basis_vector_2'> +1.5428183e-04 </wgt>
<wgt id='morphing_basis_vector_3'> +2.4531303e-04 </wgt>
<wgt id='morphing_basis_vector_4'> +1.6839842e-04 </wgt>
<wgt id='morphing_basis_vector_5'> +2.6941017e-04 </wgt>
</rwgt>
</event>
<event>
 4      1 +1.5130300e-07 1.73499200e+03 7.81860800e-03 8.19004400e-02
        2 -1    0    0  501    0 +0.0000000000e+00 +0.0000000000e+00 +7.3049659634e+02 7.3049659634e+02 0.0000000000e+00 0.0000e+00 -1.0000e+00
       -2 -1    0    0    0  501 -0.0000000000e+00 -0.0000000000e+00 -1.0301882204e+03 1.0301882204e+03 0.0000000000e+00 0.0000e+00 1.0000e+00
      -13  1    1    2    0    0 -3.6391886487e+01 -7.1894276409e+02 -6.4110754366e+02 9.6396159154e+02 0.0000000000e+00 0.0000e+00 1.0000e+00
       13  1    1    2    0    0 +3.6391886487e+01 +7.1894276409e+02 +3.4141591959e+02 7.9672322521e+02 0.0000000000e+00 0.0000e+00 -1.0000e+00
<mgrwt>
<rscale>  0 0.17349916E+04</rscale>
<asrwt>0</asrwt>
<pdfrwt beam="1">  1        2 0.11238409E+00 0.17349916E+04</pdfrwt>
<pdfrwt beam="2">  1       -2 0.15849050E+00 0.17349916E+04</pdfrwt>
<totfact> 0.11106388E+01</totfact>
</mgrwt>
<rwgt>
<wgt id='morphing_basis_vector_1'> +1.9528054e-04 </wgt>
<wgt id='morphing_basis_vector_2'> +1.3040661e-04 </wgt>
<wgt id='morphing_basis_vector_3'> +2.0612432e-04 </wgt>
<wgt id='morphing_basis_vector_4'> +1.4004264e-04 </wgt>
<wgt id='morphing_basis_vector_5'> +2.2480662e-04 </wgt>
</rwgt>
</event>
<event>
 4      1 +1.5130300e-07 1.70626200e+03 7.81860800e-03 8.20419100e-02
        2 -1    0    0  501    0 +0.0000000000e+00 +0.0000000000e+00 +1.1082319614e+03 1.1082319614e+03 0.0000000000e+00 0.0000e+00 -1.0000e+00
       -2 -1    0    0    0  501 -0.0000000000e+00 -0.0000000000e+00 -6.5675123028e+02 6.5675123028e+02 0.0000000000e+00 0.0000e+00 1.0000e+00
      -13  1    1    2    0    0 +5.9848461958e+02 +3.4247497924e+02 -2.9390234783e+02 7.4956756956e+02 0.0000000000e+00 0.0000e+00 1.0000e+00
       13  1    1    2    0    0 -5.9848461958e+02 -3.4247497924e+02 +7.4538307899e+02 1.0154156222e+03 0.0000000000e+00 0.0000e+00 -1.0000e+00
<mgrwt>
<rscale>  0 0.17062622E+04</rscale>
<asrwt>0</asrwt>
<pdfrwt beam="1">  1        2 0.17049723E+00 0.17062622E+04</pdfrwt>
<pdfrwt beam="2">  1       -2 0.10103865E+00 0.17062622E+04</pdfrwt>
<totfact> 0.20891489E+01</totfact>
</mgrwt>
<rwgt>
<wgt id='morphing_basis_vector_1'> +1.8289653e-04 </wgt>
<wgt id='morphing_basis_vector_2'> +1.2178749e-04 </wgt>
<wgt id='morphing_basis_vector_3'> +1.9269994e-04 </wgt>
<wgt id='morphing_basis_vector_4'> +1.3095363e-04 </wgt>
<wgt id='morphing_basis_vector_5'> +2.0991216e-04 </wgt>
</rwgt>
</event>
<event>
 4      1 +1.5130300e-07 1.58124800e+03 7.81860800e-03 8.26926000e-02
        2 -1    0    0  501    0 +0.0000000000e+00 +0.0000000000e+00 +1.9049833065e+03 1.9049833065e+03 0.0000000000e+00 0.0000e+00 -1.0000e+00
       -2 -1    0    0    0  501 -0.0000000000e+00 -0.0000000000e+00 -3.2813211279e+02 3.2813211279e+02 0.0000000000e+00 0.0000e+00 1.0000e+00
      -13  1    1    2    0    0 +3.7425478417e+02 -2.6647476994e+02 -1.2026708274e+02 4.7491011536e+02 0.0000000000e+00 0.0000e+00 1.0000e+00
       13  1    1    2    0    0 -3.7425478417e+02 +2.6647476994e+02 +1.6971182765e+03 1.7582053039e+03 0.0000000000e+00 0.0000e+00 -1.0000e+00
<mgrwt>
<rscale>  0 0.15812479E+04</rscale>
<asrwt>0</asrwt>
<pdfrwt beam="1">  1        2 0.29307435E+00 0.15812479E+04</pdfrwt>
<pdfrwt beam="2">  1       -2 0.50481865E-01 0.15812479E+04</pdfrwt>
<totfact> 0.33852798E+01</totfact>
</mgrwt>
<rwgt>
<wgt id='morphing_basis_vector_1'> +1.3582009e-04 </wgt>
<wgt id='morphing_basis_vector_2'> +8.9277512e-05 </wgt>
<wgt id='morphing_basis_vector_3'> +1.4183408e-04 </wgt>
<wgt id='morphing_basis_vector_4'> +9.6323610e-05 </wgt>
<wgt id='morphing_basis_vector_5'> +1.5345720e-04 </wgt>
</rwgt>
</event>
<event>
 4      1 +1.5130300e-07 1.63776100e+03 7.81860800e-03 8.23910700e-02
        2 -1    0    0  501    0 +0.0000000000e+00 +0.0000000000e+00 +1.5668663391e+03 1.5668663391e+03 0.0000000000e+00 0.0000e+00 1.0000e+00
       -2 -1    0    0    0  501 -0.0000000000e+00 -0.0000000000e+00 -4.2796575259e+02 4.2796575259e+02 0.0000000000e+00 0.0000e+00 -1.0000e+00
      -13  1    1    2    0    0 -7.7766466979e+02 -2.5072126294e+02 +5.0338844000e+02 9.5969964669e+02 0.0000000000e+00 0.0000e+00 -1.0000e+00
       13  1    1    2    0    0 +7.7766466979e+02 +2.5072126294e+02 +6.3551214652e+02 1.0351324450e+03 0.0000000000e+00 0.0000e+00 1.0000e+00
<mgrwt>
<rscale>  0 0.16377608E+04</rscale>
<asrwt>0</asrwt>
<pdfrwt beam="1">  1        2 0.24105636E+00 0.16377608E+04</pdfrwt>
<pdfrwt beam="2">  1       -2 0.65840886E-01 0.16377608E+04</pdfrwt>
<totfact> 0.30277132E+01</totfact>
</mgrwt>
<rwgt>
<wgt id='morphing_basis_vector_1'> +1.6000890e-04 </wgt>
<wgt id='morphing_basis_vector_2'> +1.1557755e-04 </wgt>
<wgt id='morphing_basis_vector_3'> +1.6912579e-04 </wgt>
<wgt id='morphing_basis_vector_4'> +1.0294735e-04 </wgt>
<wgt id='morphing_basis_vector_5'> +1.7674635e-04 </wgt>
</rwgt>
</event>
<event>
 4      1 +1.5130300e-07 1.55277300e+03 7.81860800e-03 8.28494900e-02
        2 -1    0    0  501    0 +0.0000000000e+00 +0.0000000000e+00 +2.5828038657e+03 2.5828038657e+03 0.0000000000e+00 0.0000e+00 1.0000e+00
       -2 -1    0    0    0  501 -0.0000000000e+00 -0.0000000000e+00 -2.3338049529e+02 2.3338049529e+02 0.0000000000e+00 0.0000e+00 -1.0000e+00
      -13  1    1    2    0    0 +4.8869947943e+02 +3.3642122332e+02 +2.6649273506e+02 6.5040356590e+02 0.0000000000e+00 0.0000e+00 -1.0000e+00
       13  1    1    2    0    0 -4.8869947943e+02 -3.3642122332e+02 +2.0829306354e+03 2.1657807951e+03 0.0000000000e+00 0.0000e+00 1.0000e+00
<mgrwt>
<rscale>  0 0.15527731E+04</rscale>
<asrwt>0</asrwt>
<pdfrwt beam="1">  1        2 0.39735442E+00 0.15527731E+04</pdfrwt>
<pdfrwt beam="2">  1       -2 0.35904694E-01 0.15527731E+04</pdfrwt>
<totfact> 0.26355770E+01</totfact>
</mgrwt>
<rwgt>
<wgt id='morphing_basis_vector_1'> +1.2677949e-04 </wgt>
<wgt id='morphing_basis_vector_2'> +8.3649979e-05 </wgt>
<wgt id='morphing_basis_vector_3'> +1.3216433e-04 </wgt>
<wgt id='morphing_basis_vector_4'> +8.9018425e-05 </wgt>
<wgt id='morphing_basis_vector_5'> +1.4232807e-04 </wgt>
</rwgt>
</event>
<event>
 4      1 +1.5130300e-07 1.65970200e+03 7.81860800e-03 8.22773600e-02
        2 -1    0    0  501    0 +0.0000000000e+00 +0.0000000000e+00 +2.0963453353e+03 2.0963453353e+03 0.0000000000e+00 0.0000e+00 1.0000e+00
       -2 -1    0    0    0  501 -0.0000000000e+00 -0.0000000000e+00 -3.2850143851e+02 3.2850143851e+02 0.0000000000e+00 0.0000e+00 -1.0000e+00
      -13  1    1    2    0    0 +1.0157832463e+02 -8.2213390018e+02 +9.5594491547e+02 1.2649320089e+03 0.0000000000e+00 0.0000e+00 1.0000e+00
       13  1    1    2    0    0 -1.0157832463e+02 +8.2213390018e+02 +8.1189898131e+02 1.1599147648e+03 0.0000000000e+00 0.0000e+00 -1.0000e+00
<mgrwt>
<rscale>  0 0.16597017E+04</rscale>
<asrwt>0</asrwt>
<pdfrwt beam="1">  1        2 0.32251466E+00 0.16597017E+04</pdfrwt>
<pdfrwt beam="2">  1       -2 0.50538684E-01 0.16597017E+04</pdfrwt>
<totfact> 0.26194981E+01</totfact>
</mgrwt>
<rwgt>
<wgt id='morphing_basis_vector_1'> +1.7118552e-04 </wgt>
<wgt id='morphing_basis_vector_2'> +1.2980062e-04 </wgt>
<wgt id='morphing_basis_vector_3'> +1.8205902e-04 </wgt>
<wgt id='morphing_basis_vector_4'> +1.0357946e-04 </wgt>
<wgt id='morphing_basis_vector_5'> +1.8631183e-04 </wgt>
</rwgt>
</event>
<event>
 4      1 +1.5130300e-07 1.62193100e+03 7.81860800e-03 8.24742600e-02
        2 -1    0    0  501    0 +0.0000000000e+00 +0.0000000000e+00 +1.2856990510e+03 1.2856990510e+03 0.0000000000e+00 0.0000e+00 -1.0000e+00
       -2 -1    0    0    0  501 -0.0000000000e+00 -0.0000000000e+00 -5.1152348448e+02 5.1152348448e+02 0.0000000000e+00 0.0000e+00 1.0000e+00
      -13  1    1    2    0    0 -6.8149572885e+02 -6.9968571530e+01 -9.3787977069e+01 6.9146815840e+02 0.0000000000e+00 0.0000e+00 1.0000e+00
       13  1    1    2    0    0 +6.8149572885e+02 +6.9968571530e+01 +8.6796354364e+02 1.1057543771e+03 0.0000000000e+00 0.0000e+00 -1.0000e+00
<mgrwt>
<rscale>  0 0.16219313E+04</rscale>
<asrwt>0</asrwt>
<pdfrwt beam="1">  1        2 0.19779985E+00 0.16219313E+04</pdfrwt>
<pdfrwt beam="2">  1       -2 0.78695921E-01 0.16219313E+04</pdfrwt>
<totfact> 0.29662368E+01</totfact>
</mgrwt>
<rwgt>
<wgt id='morphing_basis_vector_1'> +1.5035742e-04 </wgt>
<wgt id='morphing_basis_vector_2'> +1.0013363e-04 </wgt>
<wgt id='morphing_basis_vector_3'> +1.5761519e-04 </wgt>
<wgt id='morphing_basis_vector_4'> +1.0603090e-04 </wgt>
<wgt id='morphing_basis_vector_5'> +1.7034987e-04 </wgt>
</rwgt>
</event>
<event>
 4      1 +1.5130300e-07 1.64725800e+03 7.81860800e-03 8.23416300e-02
        2 -1    0    0  501    0 +0.0000000000e+00 +0.0000000000e+00 +2.1036158402e+03 2.1036158402e+03 0.0000000000e+00 0.0000e+00 -1.0000e+00
       -2 -1    0    0    0  501 -0.0000000000e+00 -0.0000000000e+00 -3.2247564849e+02 3.2247564849e+02 0.0000000000e+00 0.0000e+00 1.0000e+00
      -13  1    1    2    0    0 +9.5514113075e+01 +5.6504530607e+02 +1.9289053527e+01 5.7338574389e+02 0.0000000000e+00 0.0000e+00 1.0000e+00
       13  1    1    2    0    0 -9.5514113075e+01 -5.6504530607e+02 +1.7618511381e+03 1.8527057448e+03 0.0000000000e+00 0.0000e+00 -1.0000e+00
<mgrwt>
<rscale>  0 0.16472582E+04</rscale>
<asrwt>0</asrwt>
<pdfrwt beam="1">  1        2 0.32363320E+00 0.16472582E+04</pdfrwt>
<pdfrwt beam="2">  1       -2 0.49611639E-01 0.16472582E+04</pdfrwt>
<totfact> 0.26937707E+01</totfact>
</mgrwt>
<rwgt>
<wgt id='morphing_basis_vector_1'> +1.5926336e-04 </wgt>
<wgt id='morphing_basis_vector_2'> +1.0522448e-04 </wgt>
<wgt id='morphing_basis_vector_3'> +1.6710512e-04 </wgt>
<wgt id='morphing_basis_vector_4'> +1.1380211e-04 </wgt>
<wgt id='morphing_basis_vector_5'> +1.8164429e-04 </wgt>
</rwgt>
</event>
<event>
 4      1 +1.5130300e-07 1.81901000e+03 7.81860800e-03 8.15022400e-02
        2 -1    0    0  501    0 +0.0000000000e+00 +0.0000000000e+00 +9.8597917263e+02 9.8597917263e+02 0.0000000000e+00 0.0000e+00 1.0000e+00
       -2 -1    0    0    0  501 -0.0000000000e+00 -0.0000000000e+00 -8.3896243340e+02 8.3896243340e+02 0.0000000000e+00 0.0000e+00 -1.0000e+00
      -13  1    1    2    0    0 +2.3458283868e+02 -8.1996572884e+02 -2.4347534328e+02 8.8693469177e+02 0.0000000000e+00 0.0000e+00 1.0000e+00
       13  1    1    2    0    0 -2.3458283868e+02 +8.1996572884e+02 +3.9049208252e+02 9.3800691426e+02 0.0000000000e+00 0.0000e+00 -1.0000e+00
<mgrwt>
<rscale>  0 0.18190102E+04</rscale>
<asrwt>0</asrwt>
<pdfrwt beam="1">  1        2 0.15168910E+00 0.18190102E+04</pdfrwt>
<pdfrwt beam="2">  1       -2 0.12907114E+00 0.18190102E+04</pdfrwt>
<totfact> 0.13179485E+01</totfact>
</mgrwt>
<rwgt>
<wgt id='morphing_basis_vector_1'> +2.3622341e-04 </wgt>
<wgt id='morphing_basis_vector_2'> +1.6141862e-04 </wgt>
<wgt id='morphing_basis_vector_3'> +2.5094945e-04 </wgt>
<wgt id='morphing_basis_vector_4'> +1.6723455e-04 </wgt>
<wgt id='morphing_basis_vector_5'> +2.7272692e-04 </wgt>
</rwgt>
</event>
<event>
 4      1 +1.5130300e-07 1.72793500e+03 7.81860800e-03 8.19349300e-02
        2 -1    0    0  501    0 +0.0000000000e+00 +0.0000000000e+00 +1.8829712693e+03 1.8829712693e+03 0.0000000000e+00 0.0000e+00 1.0000e+00
       -2 -1    0    0    0  501 -0.0000000000e+00 -0.0000000000e+00 -3.9641593437e+02 3.9641593437e+02 0.0000000000e+00 0.0000e+00 -1.0000e+00
      -13  1    1    2    0    0 -6.7215875120e+02 +4.1798769480e+02 +2.8645010117e+02 8.4176288840e+02 0.0000000000e+00 0.0000e+00 -1.0000e+00
       13  1    1    2    0    0 +6.7215875120e+02 -4.1798769480e+02 +1.2001052338e+03 1.4376243153e+03 0.0000000000e+00 0.0000e+00 1.0000e+00
<mgrwt>
<rscale>  0 0.17279350E+04</rscale>
<asrwt>0</asrwt>
<pdfrwt beam="1">  1        2 0.28968788E+00 0.17279350E+04</pdfrwt>
<pdfrwt beam="2">  1       -2 0.60987068E-01 0.17279350E+04</pdfrwt>
<totfact> 0.23496982E+01</totfact>
</mgrwt>
<rwgt>
<wgt id='morphing_basis_vector_1'> +1.9297873e-04 </wgt>
<wgt id='morphing_basis_vector_2'> +1.3061553e-04 </wgt>
<wgt id='morphing_basis_vector_3'> +2.0387234e-04 </wgt>
<wgt id='morphing_basis_vector_4'> +1.3622588e-04 </wgt>
<wgt id='morphing_basis_vector_5'> +2.2095913e-04 </wgt>
</rwgt>
</event>
<event>
 4      1 +1.5130300e-07 1.80679700e+03 7.81860800e-03 8.15587400e-02
        2 -1    0    0  501    0 +0.0000000000e+00 +0.0000000000e+00 +1.6730290708e+03 1.6730290708e+03 0.0000000000e+00 0.0000e+00 -1.0000e+00
       -2 -1    0    0    0  501 -0.0000000000e+00 -0.0000000000e+00 -4.8781499055e+02 4.8781499055e+02 0.0000000000e+00 0.0000e+00 1.0000e+00
      -13  1    1    2    0    0 +4.0211294590e+02 +2.8486058327e+02 -3.1291838934e+02 5.8374505698e+02 0.0000000000e+00 0.0000e+00 1.0000e+00
       13  1    1    2    0    0 -4.0211294590e+02 -2.8486058327e+02 +1.4981324696e+03 1.5770990043e+03 0.0000000000e+00 0.0000e+00 -1.0000e+00
<mgrwt>
<rscale>  0 0.18067968E+04</rscale>
<asrwt>0</asrwt>
<pdfrwt beam="1">  1        2 0.25738909E+00 0.18067968E+04</pdfrwt>
<pdfrwt beam="2">  1       -2 0.75048461E-01 0.18067968E+04</pdfrwt>
<totfact> 0.19660652E+01</totfact>
</mgrwt>
<rwgt>
<wgt id='morphing_basis_vector_1'> +2.2805374e-04 </wgt>
<wgt id='morphing_basis_vector_2'> +1.5112007e-04 </wgt>
<wgt id='morphing_basis_vector_3'> +2.4140439e-04 </wgt>
<wgt id='morphing_basis_vector_4'> +1.6667006e-04 </wgt>
<wgt id='morphing_basis_vector_5'> +2.6560899e-04 </wgt>
</rwgt>
</event>
<event>
 4      1 +1.5130300e-07 1.60788200e+03 7.81860800e-03 8.25489100e-02
        2 -1    0    0  501    0 +0.0000000000e+00 +0.0000000000e+00 +8.0181248838e+02 8.0181248838e+02 0.0000000000e+00 0.0000e+00 1.0000e+00
       -2 -1    0    0    0  501 -0.0000000000e+00 -0.0000000000e+00 -8.0607533329e+02 8.0607533329e+02 0.0000000000e+00 0.0000e+00 -1.0000e+00
      -13  1    1    2    0    0 -2.4259497892e+02 +5.1602224681e+02 -5.6886967195e+02 8.0544645176e+02 0.0000000000e+00 0.0000e+00 -1.0000e+00
       13  1    1    2    0    0 +2.4259497892e+02 -5.1602224681e+02 +5.6460682704e+02 8.0244136990e+02 0.0000000000e+00 0.0000e+00 1.0000e+00
<mgrwt>
<rscale>  0 0.16078822E+04</rscale>
<asrwt>0</asrwt>
<pdfrwt beam="1">  1        2 0.12335577E+00 0.16078822E+04</pdfrwt>
<pdfrwt beam="2">  1       -2 0.12401159E+00 0.16078822E+04</pdfrwt>
<totfact> 0.19711436E+01</totfact>
</mgrwt>
<rwgt>
<wgt id='morphing_basis_vector_1'> +1.4501347e-04 </wgt>
<wgt id='morphing_basis_vector_2'> +9.5694461e-05 </wgt>
<wgt id='morphing_basis_vector_3'> +1.5175642e-04 </wgt>
<wgt id='morphing_basis_vector_4'> +1.0297619e-04 </wgt>
<wgt id='morphing_basis_vector_5'> +1.6439645e-04 </wgt>
</rwgt>
</event>
<event>
 4      1 +1.5130300e-07 1.85681700e+03 7.81860800e-03 8.13302400e-02
        2 -1    0    0  501    0 +0.0000000000e+00 +0.0000000000e+00 +4.7257437561e+02 4.7257437561e+02 0.0000000000e+00 0.0000e+00 1.0000e+00
       -2 -1    0    0    0  501 -0.0000000000e+00 -0.0000000000e+00 -1.8239292278e+03 1.8239292278e+03 0.0000000000e+00 0.0000e+00 -1.0000e+00
      -13  1    1    2    0    0 +3.3496385095e+02 +8.2966098084e+02 -9.8215359801e+02 1.3285946766e+03 0.0000000000e+00 0.0000e+00 -1.0000e+00
       13  1    1    2    0    0 -3.3496385095e+02 -8.2966098084e+02 -3.6920125422e+02 9.6790892686e+02 0.0000000000e+00 0.0000e+00 1.0000e+00
<mgrwt>
<rscale>  0 0.18568169E+04</rscale>
<asrwt>0</asrwt>
<pdfrwt beam="1">  1        2 0.72703750E-01 0.18568169E+04</pdfrwt>
<pdfrwt beam="2">  1       -2 0.28060450E+00 0.18568169E+04</pdfrwt>
<totfact> 0.24145071E+00</totfact>
</mgrwt>
<rwgt>
<wgt id='morphing_basis_vector_1'> +2.5695041e-04 </wgt>
<wgt id='morphing_basis_vector_2'> +1.7798072e-04 </wgt>
<wgt id='morphing_basis_vector_3'> +2.7382210e-04 </wgt>
<wgt id='morphing_basis_vector_4'> +1.8001801e-04 </wgt>
<wgt id='morphing_basis_vector_5'> +2.9655199e-04 </wgt>
</rwgt>
</event>
<event>
 4      1 +1.5130300e-07 1.62398200e+03 7.81860800e-03 8.24634300e-02
        2 -1    0    0  501    0 +0.0000000000e+00 +0.0000000000e+00 +2.2797067122e+03 2.2797067122e+03 0.0000000000e+00 0.0000e+00 -1.0000e+00
       -2 -1    0    0    0  501 -0.0000000000e+00 -0.0000000000e+00 -2.8921666331e+02 2.8921666331e+02 0.0000000000e+00 0.0000e+00 1.0000e+00
      -13  1    1    2    0    0 +3.5612766791e+02 +1.0633291081e+02 -1.4676618285e+02 3.9959218736e+02 0.0000000000e+00 0.0000e+00 1.0000e+00
       13  1    1    2    0    0 -3.5612766791e+02 -1.0633291081e+02 +2.1372562317e+03 2.1693311881e+03 0.0000000000e+00 0.0000e+00 -1.0000e+00
<mgrwt>
<rscale>  0 0.16239817E+04</rscale>
<asrwt>0</asrwt>
<pdfrwt beam="1">  1        2 0.35072410E+00 0.16239817E+04</pdfrwt>
<pdfrwt beam="2">  1       -2 0.44494873E-01 0.16239817E+04</pdfrwt>
<totfact> 0.26438132E+01</totfact>
</mgrwt>
<rwgt>
<wgt id='morphing_basis_vector_1'> +1.5056471e-04 </wgt>
<wgt id='morphing_basis_vector_2'> +9.9053713e-05 </wgt>
<wgt id='morphing_basis_vector_3'> +1.5769039e-04 </wgt>
<wgt id='morphing_basis_vector_4'> +1.0759716e-04 </wgt>
<wgt id='morphing_basis_vector_5'> +1.7131647e-04 </wgt>
</rwgt>
</event>
<event>
 4      1 +1.5130300e-07 1.64935300e+03 7.81860800e-03 8.23307700e-02
        2 -1    0    0  501    0 +0.0000000000e+00 +0.0000000000e+00 +1.5651390712e+03 1.5651390712e+03 0.0000000000e+00 0.0000e+00 -1.0000e+00
       -2 -1    0    0    0  501 -0.0000000000e+00 -0.0000000000e+00 -4.3452427592e+02 4.3452427592e+02 0.0000000000e+00 0.0000e+00 1.0000e+00
      -13  1    1    2    0    0 +2.2212049211e+02 +7.6524279449e+02 +8.2294267958e+02 1.1454993241e+03 0.0000000000e+00 0.0000e+00 1.0000e+00
       13  1    1    2    0    0 -2.2212049211e+02 -7.6524279449e+02 +3.0767211570e+02 8.5416402307e+02 0.0000000000e+00 0.0000e+00 -1.0000e+00
<mgrwt>
<rscale>  0 0.16493525E+04</rscale>
<asrwt>0</asrwt>
<pdfrwt beam="1">  1        2 0.24079062E+00 0.16493525E+04</pdfrwt>
<pdfrwt beam="2">  1       -2 0.66849889E-01 0.16493525E+04</pdfrwt>
<totfact> 0.29358050E+01</totfact>
</mgrwt>
<rwgt>
<wgt id='morphing_basis_vector_1'> +1.7399463e-04 </wgt>
<wgt id='morphing_basis_vector_2'> +1.4721120e-04 </wgt>
<wgt id='morphing_basis_vector_3'> +1.8700485e-04 </wgt>
<wgt id='morphing_basis_vector_4'> +8.7709091e-05 </wgt>
<wgt id='morphing_basis_vector_5'> +1.8056737e-04 </wgt>
</rwgt>
</event>
<event>
 4      1 +1.5130300e-07 1.65450600e+03 7.81860800e-03 8.23041200e-02
        2 -1    0    0  501    0 +0.0000000000e+00 +0.0000000000e+00 +1.2132404285e+03 1.2132404285e+03 0.0000000000e+00 0.0000e+00 -1.0000e+00
       -2 -1    0    0    0  501 -0.0000000000e+00 -0.0000000000e+00 -5.6406589165e+02 5.6406589165e+02 0.0000000000e+00 0.0000e+00 1.0000e+00
      -13  1    1    2    0    0 -6.9170671457e+02 +4.4180754389e+02 +4.3568204812e+02 9.2923136617e+02 0.0000000000e+00 0.0000e+00 1.0000e+00
       13  1    1    2    0    0 +6.9170671457e+02 -4.4180754389e+02 +2.1349248873e+02 8.4807495398e+02 0.0000000000e+00 0.0000e+00 -1.0000e+00
<mgrwt>
<rscale>  0 0.16545060E+04</rscale>
<asrwt>0</asrwt>
<pdfrwt beam="1">  1        2 0.18665237E+00 0.16545060E+04</pdfrwt>
<pdfrwt beam="2">  1       -2 0.86779368E-01 0.16545060E+04</pdfrwt>
<totfact> 0.26052302E+01</totfact>
</mgrwt>
<rwgt>
<wgt id='morphing_basis_vector_1'> +1.7098410e-04 </wgt>
<wgt id='morphing_basis_vector_2'> +1.3376983e-04 </wgt>
<wgt id='morphing_basis_vector_3'> +1.8234557e-04 </wgt>
<wgt id='morphing_basis_vector_4'> +9.8669780e-05 </wgt>
<wgt id='morphing_basis_vector_5'> +1.8364945e-04 </wgt>
</rwgt>
</event>
<event>
 4      1 +1.5130300e-07 1.61181600e+03 7.81860800e-03 8.25279200e-02
        2 -1    0    0  501    0 +0.0000000000e+00 +0.0000000000e+00 +5.3940025599e+02 5.3940025599e+02 0.0000000000e+00 0.0000e+00 -1.0000e+00
       -2 -1    0    0    0  501 -0.0000000000e+00 -0.0000000000e+00 -1.2040923892e+03 1.2040923892e+03 0.0000000000e+00 0.0000e+00 1.0000e+00
      -13  1    1    2    0    0 +2.4004960015e+02 +2.9424363330e+02 -1.1012510620e+03 1.1648849848e+03 0.0000000000e+00 0.0000e+00 1.0000e+00
       13  1    1    2    0    0 -2.4004960015e+02 -2.9424363330e+02 +4.3655892883e+02 5.7860766035e+02 0.0000000000e+00 0.0000e+00 -1.0000e+00
<mgrwt>
<rscale>  0 0.16118160E+04</rscale>
<asrwt>0</asrwt>
<pdfrwt beam="1">  1        2 0.82984656E-01 0.16118160E+04</pdfrwt>
<pdfrwt beam="2">  1       -2 0.18524498E+00 0.16118160E+04</pdfrwt>
<totfact> 0.99891341E+00</totfact>
</mgrwt>
<rwgt>
<wgt id='morphing_basis_vector_1'> +1.4624060e-04 </wgt>
<wgt id='morphing_basis_vector_2'> +9.6165977e-05 </wgt>
<wgt id='morphing_basis_vector_3'> +1.5303549e-04 </wgt>
<wgt id='morphing_basis_vector_4'> +1.0430978e-04 </wgt>
<wgt id='morphing_basis_vector_5'> +1.6608432e-04 </wgt>
</rwgt>
</event>
<event>
 4      1 +1.5130300e-07 1.61975100e+03 7.81860800e-03 8.24857900e-02
        2 -1    0    0  501    0 +0.0000000000e+00 +0.0000000000e+00 +8.0078973742e+02 8.0078973742e+02 0.0000000000e+00 0.0000e+00 -1.0000e+00
       -2 -1    0    0    0  501 -0.0000000000e+00 -0.0000000000e+00 -8.1906426288e+02 8.1906426288e+02 0.0000000000e+00 0.0000e+00 1.0000e+00
      -13  1    1    2    0    0 -5.8372478861e+02 -5.1002363870e+02 -2.4375721315e+02 8.1257388577e+02 0.0000000000e+00 0.0000e+00 1.0000e+00
       13  1    1    2    0    0 +5.8372478861e+02 +5.1002363870e+02 +2.2548268768e+02 8.0728011453e+02 0.0000000000e+00 0.0000e+00 -1.0000e+00
<mgrwt>
<rscale>  0 0.16197509E+04</rscale>
<asrwt>0</asrwt>
<pdfrwt beam="1">  1        2 0.12319842E+00 0.16197509E+04</pdfrwt>
<pdfrwt beam="2">  1       -2 0.12600989E+00 0.16197509E+04</pdfrwt>
<totfact> 0.18911670E+01</totfact>
</mgrwt>
<rwgt>
<wgt id='morphing_basis_vector_1'> +1.5079627e-04 </wgt>
<wgt id='morphing_basis_vector_2'> +1.0323630e-04 </wgt>
<wgt id='morphing_basis_vector_3'> +1.5842768e-04 </wgt>
<wgt id='morphing_basis_vector_4'> +1.0311793e-04 </wgt>
<wgt id='morphing_basis_vector_5'> +1.6923122e-04 </wgt>
</rwgt>
</event>
<event>
 4      1 +1.5130300e-07 1.80603200e+03 7.81860800e-03 8.15623000e-02
        2 -1    0    0  501    0 +0.0000000000e+00 +0.0000000000e+00 +5.9221396079e+02 5.9221396079e+02 0.0000000000e+00 0.0000e+00 1.0000e+00
       -2 -1    0    0    0  501 -0.0000000000e+00 -0.0000000000e+00 -1.3769316112e+03 1.3769316112e+03 0.0000000000e+00 0.0000e+00 -1.0000e+00
      -13  1    1    2    0    0 -6.5526007181e+02 +4.2790546341e+02 -8.8356913430e+02 1.1803233720e+03 0.0000000000e+00 0.0000e+00 -1.0000e+00
       13  1    1    2    0    0 +6.5526007181e+02 -4.2790546341e+02 +9.8851483908e+01 7.8882219999e+02 0.0000000000e+00 0.0000e+00 1.0000e+00
<mgrwt>
<rscale>  0 0.18060323E+04</rscale>
<asrwt>0</asrwt>
<pdfrwt beam="1">  1        2 0.91109841E-01 0.18060323E+04</pdfrwt>
<pdfrwt beam="2">  1       -2 0.21183563E+00 0.18060323E+04</pdfrwt>
<totfact> 0.56246152E+00</totfact>
</mgrwt>
<rwgt>
<wgt id='morphing_basis_vector_1'> +2.2862387e-04 </wgt>
<wgt id='morphing_basis_vector_2'> +1.5367494e-04 </wgt>
<wgt id='morphing_basis_vector_3'> +2.4233358e-04 </wgt>
<wgt id='morphing_basis_vector_4'> +1.6453306e-04 </wgt>
<wgt id='morphing_basis_vector_5'> +2.6500523e-04 </wgt>
</rwgt>
</event>
<event>
 4      1 +1.5130300e-07 1.64564900e+03 7.81860800e-03 8.23499800e-02
        2 -1    0    0  501    0 +0.0000000000e+00 +0.0000000000e+00 +8.7896288040e+02 8.7896288040e+02 0.0000000000e+00 0.0000e+00 1.0000e+00
       -2 -1    0    0    0  501 -0.0000000000e+00 -0.0000000000e+00 -7.7027140615e+02 7.7027140615e+02 0.0000000000e+00 0.0000e+00 -1.0000e+00
      -13  1    1    2    0    0 +7.6114256219e+02 +1.4572957358e+02 +3.3147103151e+02 8.4288086544e+02 0.0000000000e+00 0.0000e+00 -1.0000e+00
       13  1    1    2    0    0 -7.6114256219e+02 -1.4572957358e+02 -2.2277955727e+02 8.0635342111e+02 0.0000000000e+00 0.0000e+00 1.0000e+00
<mgrwt>
<rscale>  0 0.16456488E+04</rscale>
<asrwt>0</asrwt>
<pdfrwt beam="1">  1        2 0.13522506E+00 0.16456488E+04</pdfrwt>
<pdfrwt beam="2">  1       -2 0.11850329E+00 0.16456488E+04</pdfrwt>
<totfact> 0.19610872E+01</totfact>
</mgrwt>
<rwgt>
<wgt id='morphing_basis_vector_1'> +1.7646516e-04 </wgt>
<wgt id='morphing_basis_vector_2'> +1.5776003e-04 </wgt>
<wgt id='morphing_basis_vector_3'> +1.9075873e-04 </wgt>
<wgt id='morphing_basis_vector_4'> +7.9283488e-05 </wgt>
<wgt id='morphing_basis_vector_5'> +1.7832455e-04 </wgt>
</rwgt>
</event>
<event>
 4      1 +1.5130300e-07 1.79203900e+03 7.81860800e-03 8.16276300e-02
        2 -1    0    0  501    0 +0.0000000000e+00 +0.0000000000e+00 +3.0407813493e+02 3.0407813493e+02 0.0000000000e+00 0.0000e+00 -1.0000e+00
       -2 -1    0    0    0  501 -0.0000000000e+00 -0.0000000000e+00 -2.6402783118e+03 2.6402783118e+03 0.0000000000e+00 0.0000e+00 1.0000e+00
      -13  1    1    2    0    0 +1.9765651493e+02 -4.1481549024e+02 -2.4319564808e+03 2.4749853158e+03 0.0000000000e+00 0.0000e+00 1.0000e+00
       13  1    1    2    0    0 -1.9765651493e+02 +4.1481549024e+02 +9.5756303923e+01 4.6937113096e+02 0.0000000000e+00 0.0000e+00 -1.0000e+00
<mgrwt>
<rscale>  0 0.17920390E+04</rscale>
<asrwt>0</asrwt>
<pdfrwt beam="1">  1        2 0.46781251E-01 0.17920390E+04</pdfrwt>
<pdfrwt beam="2">  1       -2 0.40619666E+00 0.17920390E+04</pdfrwt>
<totfact> 0.59672619E-01</totfact>
</mgrwt>
<rwgt>
<wgt id='morphing_basis_vector_1'> +2.2085599e-04 </wgt>
<wgt id='morphing_basis_vector_2'> +1.4624217e-04 </wgt>
<wgt id='morphing_basis_vector_3'> +2.3360582e-04 </wgt>
<wgt id='morphing_basis_vector_4'> +1.6119753e-04 </wgt>
<wgt id='morphing_basis_vector_5'> +2.5682854e-04 </wgt>
</rwgt>
</event>
<event>
 4      1 +1.5130300e-07 1.61812900e+03 7.81860800e-03 8.24943800e-02
        2 -1    0    0  501    0 +0.0000000000e+00 +0.0000000000e+00 +2.7298631531e+03 2.7298631531e+03 0.0000000000e+00 0.0000e+00 -1.0000e+00
       -2 -1    0    0    0  501 -0.0000000000e+00 -0.0000000000e+00 -2.3978688984e+02 2.3978688984e+02 0.0000000000e+00 0.0000e+00 1.0000e+00
      -13  1    1    2    0    0 +2.0112871927e+02 +6.2993397960e+02 +2.1005731450e+03 2.2021982467e+03 0.0000000000e+00 0.0000e+00 1.0000e+00
       13  1    1    2    0    0 -2.0112871927e+02 -6.2993397960e+02 +3.8950311825e+02 7.6745179621e+02 0.0000000000e+00 0.0000e+00 -1.0000e+00
<mgrwt>
<rscale>  0 0.16181290E+04</rscale>
<asrwt>0</asrwt>
<pdfrwt beam="1">  1        2 0.41997892E+00 0.16181290E+04</pdfrwt>
<pdfrwt beam="2">  1       -2 0.36890293E-01 0.16181290E+04</pdfrwt>
<totfact> 0.20285386E+01</totfact>
</mgrwt>
<rwgt>
<wgt id='morphing_basis_vector_1'> +1.8146292e-04 </wgt>
<wgt id='morphing_basis_vector_2'> +1.9579169e-04 </wgt>
<wgt id='morphing_basis_vector_3'> +2.0015748e-04 </wgt>
<wgt id='morphing_basis_vector_4'> +4.3158151e-05 </wgt>
<wgt id='morphing_basis_vector_5'> +1.6402558e-04 </wgt>
</rwgt>
</event>
<event>
 4      1 +1.5130300e-07 1.68821300e+03 7.81860800e-03 8.21322600e-02
        2 -1    0    0  501    0 +0.0000000000e+00 +0.0000000000e+00 +2.8137418629e+03 2.8137418629e+03 0.0000000000e+00 0.0000e+00 1.0000e+00
       -2 -1    0    0    0  501 -0.0000000000e+00 -0.0000000000e+00 -2.5322716249e+02 2.5322716249e+02 0.0000000000e+00 0.0000e+00 -1.0000e+00
      -13  1    1    2    0    0 +1.7007418466e+02 -4.4403162657e+02 +2.5472986219e+03 2.5912968921e+03 0.0000000000e+00 0.0000e+00 1.0000e+00
       13  1    1    2    0    0 -1.7007418466e+02 +4.4403162657e+02 +1.3216078492e+01 4.7567213331e+02 0.0000000000e+00 0.0000e+00 -1.0000e+00
<mgrwt>
<rscale>  0 0.16882131E+04</rscale>
<asrwt>0</asrwt>
<pdfrwt beam="1">  1        2 0.43288334E+00 0.16882131E+04</pdfrwt>
<pdfrwt beam="2">  1       -2 0.38958027E-01 0.16882131E+04</pdfrwt>
<totfact> 0.16160823E+01</totfact>
</mgrwt>
<rwgt>
<wgt id='morphing_basis_vector_1'> +2.3474667e-04 </wgt>
<wgt id='morphing_basis_vector_2'> +2.9286506e-04 </wgt>
<wgt id='morphing_basis_vector_3'> +2.6640118e-04 </wgt>
<wgt id='morphing_basis_vector_4'> +1.1298090e-05 </wgt>
<wgt id='morphing_basis_vector_5'> +1.9220630e-04 </wgt>
</rwgt>
</event>
<event>
 4      1 +1.5130300e-07 1.67013400e+03 7.81860800e-03 8.22239200e-02
        2 -1    0    0  501    0 +0.0000000000e+00 +0.0000000000e+00 +6.1082275557e+02 6.1082275557e+02 0.0000000000e+00 0.0000e+00 1.0000e+00
       -2 -1    0    0    0  501 -0.0000000000e+00 -0.0000000000e+00 -1.1416358008e+03 1.1416358008e+03 0.0000000000e+00 0.0000e+00 -1.0000e+00
      -13  1    1    2    0    0 -9.9803876958e+01 +3.3323363794e+02 +5.3117935660e+02 6.3494643883e+02 0.0000000000e+00 0.0000e+00 1.0000e+00
       13  1    1    2    0    0 +9.9803876958e+01 -3.3323363794e+02 -1.0619924019e+03 1.1175121176e+03 0.0000000000e+00 0.0000e+00 -1.0000e+00
<mgrwt>
<rscale>  0 0.16701343E+04</rscale>
<asrwt>0</asrwt>
<pdfrwt beam="1">  1        2 0.93972733E-01 0.16701343E+04</pdfrwt>
<pdfrwt beam="2">  1       -2 0.17563628E+00 0.16701343E+04</pdfrwt>
<totfact> 0.10168731E+01</totfact>
</mgrwt>
<rwgt>
<wgt id='morphing_basis_vector_1'> +2.2859972e-04 </wgt>
<wgt id='morphing_basis_vector_2'> +2.9115435e-04 </wgt>
<wgt id='morphing_basis_vector_3'> +2.5972824e-04 </wgt>
<wgt id='morphing_basis_vector_4'> +4.1532698e-06 </wgt>
<wgt id='morphing_basis_vector_5'> +1.8338812e-04 </wgt>
</rwgt>
</event>
<event>
 4      1 +1.5130300e-07 1.59173900e+03 7.81860800e-03 8.26356500e-02
        2 -1    0    0  501    0 +0.0000000000e+00 +0.0000000000e+00 +1.8462245217e+03 1.8462245217e+03 0.0000000000e+00 0.0000e+00 -1.0000e+00
       -2 -1    0    0    0  501 -0.0000000000e+00 -0.0000000000e+00 -3.4308302157e+02 3.4308302157e+02 0.0000000000e+00 0.0000e+00 1.0000e+00
      -13  1    1    2    0    0 +1.2400135777e+02 +7.0811887929e+02 +2.8191089057e+02 7.7219326218e+02 0.0000000000e+00 0.0000e+00 1.0000e+00
       13  1    1    2    0    0 -1.2400135777e+02 -7.0811887929e+02 +1.2212306095e+03 1.4171142811e+03 0.0000000000e+00 0.0000e+00 -1.0000e+00
<mgrwt>
<rscale>  0 0.15917390E+04</rscale>
<asrwt>0</asrwt>
<pdfrwt beam="1">  1        2 0.28403454E+00 0.15917390E+04</pdfrwt>
<pdfrwt beam="2">  1       -2 0.52782004E-01 0.15917390E+04</pdfrwt>
<totfact> 0.33395047E+01</totfact>
</mgrwt>
<rwgt>
<wgt id='morphing_basis_vector_1'> +1.4016702e-04 </wgt>
<wgt id='morphing_basis_vector_2'> +9.4086792e-05 </wgt>
<wgt id='morphing_basis_vector_3'> +1.4673218e-04 </wgt>
<wgt id='morphing_basis_vector_4'> +9.7425007e-05 </wgt>
<wgt id='morphing_basis_vector_5'> +1.5758792e-04 </wgt>
</rwgt>
</event>
<event>
 4      1 +1.5130300e-07 1.61284300e+03 7.81860800e-03 8.25224600e-02
        2 -1    0    0  501    0 +0.0000000000e+00 +0.0000000000e+00 +8.3429854142e+02 8.3429854142e+02 0.0000000000e+00 0.0000e+00 1.0000e+00
       -2 -1    0    0    0  501 -0.0000000000e+00 -0.0000000000e+00 -7.7947604573e+02 7.7947604573e+02 0.0000000000e+00 0.0000e+00 -1.0000e+00
      -13  1    1    2    0    0 -7.5812552849e+01 +6.3951992527e+02 -4.5823743446e+02 7.9038903353e+02 0.0000000000e+00 0.0000e+00 -1.0000e+00
       13  1    1    2    0    0 +7.5812552849e+01 -6.3951992527e+02 +5.1305993016e+02 8.2338555362e+02 0.0000000000e+00 0.0000e+00 1.0000e+00
<mgrwt>
<rscale>  0 0.16128431E+04</rscale>
<asrwt>0</asrwt>
<pdfrwt beam="1">  1        2 0.12835362E+00 0.16128431E+04</pdfrwt>
<pdfrwt beam="2">  1       -2 0.11991939E+00 0.16128431E+04</pdfrwt>
<totfact> 0.20429717E+01</totfact>
</mgrwt>
<rwgt>
<wgt id='morphing_basis_vector_1'> +1.4694229e-04 </wgt>
<wgt id='morphing_basis_vector_2'> +9.7419691e-05 </wgt>
<wgt id='morphing_basis_vector_3'> +1.5388510e-04 </wgt>
<wgt id='morphing_basis_vector_4'> +1.0393661e-04 </wgt>
<wgt id='morphing_basis_vector_5'> +1.6647238e-04 </wgt>
</rwgt>
</event>
<event>
 4      1 +1.5130300e-07 1.81904200e+03 7.81860800e-03 8.15020900e-02
        2 -1    0    0  501    0 +0.0000000000e+00 +0.0000000000e+00 +2.8681839608e+03 2.8681839608e+03 0.0000000000e+00 0.0000e+00 1.0000e+00
       -2 -1    0    0    0  501 -0.0000000000e+00 -0.0000000000e+00 -2.8841544165e+02 2.8841544165e+02 0.0000000000e+00 0.0000e+00 -1.0000e+00
      -13  1    1    2    0    0 +1.1235566155e+02 -6.2436131177e+02 +1.5889736155e+02 6.5398716640e+02 0.0000000000e+00 0.0000e+00 -1.0000e+00
       13  1    1    2    0    0 -1.1235566155e+02 +6.2436131177e+02 +2.4208711576e+03 2.5026122360e+03 0.0000000000e+00 0.0000e+00 1.0000e+00
<mgrwt>
<rscale>  0 0.18190421E+04</rscale>
<asrwt>0</asrwt>
<pdfrwt beam="1">  1        2 0.44125905E+00 0.18190421E+04</pdfrwt>
<pdfrwt beam="2">  1       -2 0.44371608E-01 0.18190421E+04</pdfrwt>
<totfact> 0.11545173E+01</totfact>
</mgrwt>
<rwgt>
<wgt id='morphing_basis_vector_1'> +2.3432863e-04 </wgt>
<wgt id='morphing_basis_vector_2'> +1.5576113e-04 </wgt>
<wgt id='morphing_basis_vector_3'> +2.4826171e-04 </wgt>
<wgt id='morphing_basis_vector_4'> +1.7098416e-04 </wgt>
<wgt id='morphing_basis_vector_5'> +2.7303679e-04 </wgt>
</rwgt>
</event>
<event>
 4      1 +1.5130300e-07 1.73725400e+03 7.81860800e-03 8.18894200e-02
        2 -1    0    0  501    0 +0.0000000000e+00 +0.0000000000e+00 +3.9866744696e+02 3.9866744696e+02 0.0000000000e+00 0.0000e+00 1.0000e+00
       -2 -1    0    0    0  501 -0.0000000000e+00 -0.0000000000e+00 -1.8925868132e+03 1.8925868132e+03 0.0000000000e+00 0.0000e+00 -1.0000e+00
      -13  1    1    2    0    0 +8.6284106169e+02 +4.3425491154e+01 -6.2802289367e+02 1.0680792227e+03 0.0000000000e+00 0.0000e+00 -1.0000e+00
       13  1    1    2    0    0 -8.6284106169e+02 -4.3425491154e+01 -8.6589647256e+02 1.2231750374e+03 0.0000000000e+00 0.0000e+00 1.0000e+00
<mgrwt>
<rscale>  0 0.17372539E+04</rscale>
<asrwt>0</asrwt>
<pdfrwt beam="1">  1        2 0.61333455E-01 0.17372539E+04</pdfrwt>
<pdfrwt beam="2">  1       -2 0.29116720E+00 0.17372539E+04</pdfrwt>
<totfact> 0.25066373E+00</totfact>
</mgrwt>
<rwgt>
<wgt id='morphing_basis_vector_1'> +2.0594277e-04 </wgt>
<wgt id='morphing_basis_vector_2'> +1.5979165e-04 </wgt>
<wgt id='morphing_basis_vector_3'> +2.2067338e-04 </wgt>
<wgt id='morphing_basis_vector_4'> +1.2206311e-04 </wgt>
<wgt id='morphing_basis_vector_5'> +2.2457179e-04 </wgt>
</rwgt>
</event>
<event>
 4      1 +1.5130300e-07 1.66923300e+03 7.81860800e-03 8.22285200e-02
        2 -1    0    0  501    0 +0.0000000000e+00 +0.0000000000e+00 +1.1274032539e+03 1.1274032539e+03 0.0000000000e+00 0.0000e+00 -1.0000e+00
       -2 -1    0    0    0  501 -0.0000000000e+00 -0.0000000000e+00 -6.1786633073e+02 6.1786633073e+02 0.0000000000e+00 0.0000e+00 1.0000e+00
      -13  1    1    2    0    0 +3.9871246098e+02 +2.3751689441e+02 -4.7051504205e+02 6.6088600111e+02 0.0000000000e+00 0.0000e+00 1.0000e+00
       13  1    1    2    0    0 -3.9871246098e+02 -2.3751689441e+02 +9.8005196527e+02 1.0843835836e+03 0.0000000000e+00 0.0000e+00 -1.0000e+00
<mgrwt>
<rscale>  0 0.16692328E+04</rscale>
<asrwt>0</asrwt>
<pdfrwt beam="1">  1        2 0.17344665E+00 0.16692328E+04</pdfrwt>
<pdfrwt beam="2">  1       -2 0.95056359E-01 0.16692328E+04</pdfrwt>
<totfact> 0.23620636E+01</totfact>
</mgrwt>
<rwgt>
<wgt id='morphing_basis_vector_1'> +1.6755033e-04 </wgt>
<wgt id='morphing_basis_vector_2'> +1.1050893e-04 </wgt>
<wgt id='morphing_basis_vector_3'> +1.7600670e-04 </wgt>
<wgt id='morphing_basis_vector_4'> +1.2041623e-04 </wgt>
<wgt id='morphing_basis_vector_5'> +1.9185140e-04 </wgt>
</rwgt>
</event>
<event>
 4      1 +1.5130300e-07 1.69036200e+03 7.81860800e-03 8.21214400e-02
        2 -1    0    0  501    0 +0.0000000000e+00 +0.0000000000e+00 +2.0919025892e+03 2.0919025892e+03 0.0000000000e+00 0.0000e+00 -1.0000e+00
       -2 -1    0    0    0  501 -0.0000000000e+00 -0.0000000000e+00 -3.4147433176e+02 3.4147433176e+02 0.0000000000e+00 0.0000e+00 1.0000e+00
      -13  1    1    2    0    0 +5.6051148980e+02 -1.2319861888e+02 -1.7985877661e+01 5.7417290226e+02 0.0000000000e+00 0.0000e+00 1.0000e+00
       13  1    1    2    0    0 -5.6051148980e+02 +1.2319861888e+02 +1.7684141351e+03 1.8592040187e+03 0.0000000000e+00 0.0000e+00 -1.0000e+00
<mgrwt>
<rscale>  0 0.16903621E+04</rscale>
<asrwt>0</asrwt>
<pdfrwt beam="1">  1        2 0.32183116E+00 0.16903621E+04</pdfrwt>
<pdfrwt beam="2">  1       -2 0.52534514E-01 0.16903621E+04</pdfrwt>
<totfact> 0.24339045E+01</totfact>
</mgrwt>
<rwgt>
<wgt id='morphing_basis_vector_1'> +1.7605108e-04 </wgt>
<wgt id='morphing_basis_vector_2'> +1.1645513e-04 </wgt>
<wgt id='morphing_basis_vector_3'> +1.8521095e-04 </wgt>
<wgt id='morphing_basis_vector_4'> +1.2660185e-04 </wgt>
<wgt id='morphing_basis_vector_5'> +2.0202842e-04 </wgt>
</rwgt>
</event>
<event>
 4      1 +1.5130300e-07 1.81349700e+03 7.81860800e-03 8.15276900e-02
        2 -1    0    0  501    0 +0.0000000000e+00 +0.0000000000e+00 +4.2207183560e+02 4.2207183560e+02 0.0000000000e+00 0.0000e+00 1.0000e+00
       -2 -1    0    0    0  501 -0.0000000000e+00 -0.0000000000e+00 -1.9479926917e+03 1.9479926917e+03 0.0000000000e+00 0.0000e+00 -1.0000e+00
      -13  1    1    2    0    0 +6.7710722288e+01 +6.3354736402e+02 +8.0195405624e+01 6.4218245651e+02 0.0000000000e+00 0.0000e+00 1.0000e+00
       13  1    1    2    0    0 -6.7710722288e+01 -6.3354736402e+02 -1.6061162617e+03 1.7278820708e+03 0.0000000000e+00 0.0000e+00 -1.0000e+00
<mgrwt>
<rscale>  0 0.18134970E+04</rscale>
<asrwt>0</asrwt>
<pdfrwt beam="1">  1        2 0.64934128E-01 0.18134970E+04</pdfrwt>
<pdfrwt beam="2">  1       -2 0.29969118E+00 0.18134970E+04</pdfrwt>
<totfact> 0.20449959E+00</totfact>
</mgrwt>
<rwgt>
<wgt id='morphing_basis_vector_1'> +2.9920436e-04 </wgt>
<wgt id='morphing_basis_vector_2'> +3.5458302e-04 </wgt>
<wgt id='morphing_basis_vector_3'> +3.4093154e-04 </wgt>
<wgt id='morphing_basis_vector_4'> +3.6625545e-05 </wgt>
<wgt id='morphing_basis_vector_5'> +2.5937905e-04 </wgt>
</rwgt>
</event>
<event>
 4      1 +1.5130300e-07 1.73271400e+03 7.81860800e-03 8.19115500e-02
        2 -1    0    0  501    0 +0.0000000000e+00 +0.0000000000e+00 +1.1660914073e+03 1.1660914073e+03 0.0000000000e+00 0.0000e+00 -1.0000e+00
       -2 -1    0    0    0  501 -0.0000000000e+00 -0.0000000000e+00 -6.4366672131e+02 6.4366672131e+02 0.0000000000e+00 0.0000e+00 1.0000e+00
      -13  1    1    2    0    0 -7.8616311420e+00 +8.0733640380e+02 +5.8938098296e+02 9.9961183328e+02 0.0000000000e+00 0.0000e+00 1.0000e+00
       13  1    1    2    0    0 +7.8616311420e+00 -8.0733640380e+02 -6.6956296974e+01 8.1014629534e+02 0.0000000000e+00 0.0000e+00 -1.0000e+00
<mgrwt>
<rscale>  0 0.17327137E+04</rscale>
<asrwt>0</asrwt>
<pdfrwt beam="1">  1        2 0.17939868E+00 0.17327137E+04</pdfrwt>
<pdfrwt beam="2">  1       -2 0.99025649E-01 0.17327137E+04</pdfrwt>
<totfact> 0.20217353E+01</totfact>
</mgrwt>
<rwgt>
<wgt id='morphing_basis_vector_1'> +2.1753429e-04 </wgt>
<wgt id='morphing_basis_vector_2'> +1.9877527e-04 </wgt>
<wgt id='morphing_basis_vector_3'> +2.3741594e-04 </wgt>
<wgt id='morphing_basis_vector_4'> +9.4276448e-05 </wgt>
<wgt id='morphing_basis_vector_5'> +2.2013472e-04 </wgt>
</rwgt>
</event>
<event>
 4      1 +1.5130300e-07 1.66810100e+03 7.81860800e-03 8.22343000e-02
        2 -1    0    0  501    0 +0.0000000000e+00 +0.0000000000e+00 +1.3324712591e+03 1.3324712591e+03 0.0000000000e+00 0.0000e+00 1.0000e+00
       -2 -1    0    0    0  501 -0.0000000000e+00 -0.0000000000e+00 -5.2206802206e+02 5.2206802206e+02 0.0000000000e+00 0.0000e+00 -1.0000e+00
      -13  1    1    2    0    0 +2.9951936994e+02 -4.8988051543e+02 -2.6734437540e+02 6.3337807621e+02 0.0000000000e+00 0.0000e+00 -1.0000e+00
       13  1    1    2    0    0 -2.9951936994e+02 +4.8988051543e+02 +1.0777476125e+03 1.2211612050e+03 0.0000000000e+00 0.0000e+00 1.0000e+00
<mgrwt>
<rscale>  0 0.16681015E+04</rscale>
<asrwt>0</asrwt>
<pdfrwt beam="1">  1        2 0.20499558E+00 0.16681015E+04</pdfrwt>
<pdfrwt beam="2">  1       -2 0.80318158E-01 0.16681015E+04</pdfrwt>
<totfact> 0.26529315E+01</totfact>
</mgrwt>
<rwgt>
<wgt id='morphing_basis_vector_1'> +1.6722298e-04 </wgt>
<wgt id='morphing_basis_vector_2'> +1.1055040e-04 </wgt>
<wgt id='morphing_basis_vector_3'> +1.7568693e-04 </wgt>
<wgt id='morphing_basis_vector_4'> +1.1986337e-04 </wgt>
<wgt id='morphing_basis_vector_5'> +1.9130008e-04 </wgt>
</rwgt>
</event>
<event>
 4      1 +1.5130300e-07 1.73199400e+03 7.81860800e-03 8.19150700e-02
        2 -1    0    0  501    0 +0.0000000000e+00 +0.0000000000e+00 +2.0968610645e+03 2.0968610645e+03 0.0000000000e+00 0.0000e+00 1.0000e+00
       -2 -1    0    0    0  501 -0.0000000000e+00 -0.0000000000e+00 -3.5765382652e+02 3.5765382652e+02 0.0000000000e+00 0.0000e+00 -1.0000e+00
      -13  1    1    2    0    0 +5.6981120950e+02 -6.4684396912e+02 +7.5224030830e+02 1.1440967688e+03 0.0000000000e+00 0.0000e+00 -1.0000e+00
       13  1    1    2    0    0 -5.6981120950e+02 +6.4684396912e+02 +9.8696692963e+02 1.3104181222e+03 0.0000000000e+00 0.0000e+00 1.0000e+00
<mgrwt>
<rscale>  0 0.17319935E+04</rscale>
<asrwt>0</asrwt>
<pdfrwt beam="1">  1        2 0.32259400E+00 0.17319935E+04</pdfrwt>
<pdfrwt beam="2">  1       -2 0.55023667E-01 0.17319935E+04</pdfrwt>
<totfact> 0.21964671E+01</totfact>
</mgrwt>
<rwgt>
<wgt id='morphing_basis_vector_1'> +1.9830681e-04 </wgt>
<wgt id='morphing_basis_vector_2'> +1.4239685e-04 </wgt>
<wgt id='morphing_basis_vector_3'> +2.1074325e-04 </wgt>
<wgt id='morphing_basis_vector_4'> +1.3065677e-04 </wgt>
<wgt id='morphing_basis_vector_5'> +2.2256945e-04 </wgt>
</rwgt>
</event>
<event>
 4      1 +1.5130300e-07 1.73338900e+03 7.81860800e-03 8.19082500e-02
        2 -1    0    0  501    0 +0.0000000000e+00 +0.0000000000e+00 +1.4231309174e+03 1.4231309174e+03 0.0000000000e+00 0.0000e+00 1.0000e+00
       -2 -1    0    0    0  501 -0.0000000000e+00 -0.0000000000e+00 -5.2782189750e+02 5.2782189750e+02 0.0000000000e+00 0.0000e+00 -1.0000e+00
      -13  1    1    2    0    0 -7.2271065898e+02 -1.1494068693e+02 -7.4997818291e+01 7.3562676057e+02 0.0000000000e+00 0.0000e+00 -1.0000e+00
       13  1    1    2    0    0 +7.2271065898e+02 +1.1494068693e+02 +9.7030683823e+02 1.2153260544e+03 0.0000000000e+00 0.0000e+00 1.0000e+00
<mgrwt>
<rscale>  0 0.17333894E+04</rscale>
<asrwt>0</asrwt>
<pdfrwt beam="1">  1        2 0.21894322E+00 0.17333894E+04</pdfrwt>
<pdfrwt beam="2">  1       -2 0.81203370E-01 0.17333894E+04</pdfrwt>
<totfact> 0.22864438E+01</totfact>
</mgrwt>
<rwgt>
<wgt id='morphing_basis_vector_1'> +1.9466326e-04 </wgt>
<wgt id='morphing_basis_vector_2'> +1.3018039e-04 </wgt>
<wgt id='morphing_basis_vector_3'> +2.0548244e-04 </wgt>
<wgt id='morphing_basis_vector_4'> +1.3935020e-04 </wgt>
<wgt id='morphing_basis_vector_5'> +2.2394251e-04 </wgt>
</rwgt>
</event>
<event>
 4      1 +1.5130300e-07 1.55577600e+03 7.81860800e-03 8.28327800e-02
        2 -1    0    0  501    0 +0.0000000000e+00 +0.0000000000e+00 +1.0096093160e+03 1.0096093160e+03 0.0000000000e+00 0.0000e+00 1.0000e+00
       -2 -1    0    0    0  501 -0.0000000000e+00 -0.0000000000e+00 -5.9935014633e+02 5.9935014633e+02 0.0000000000e+00 0.0000e+00 -1.0000e+00
      -13  1    1    2    0    0 -2.1436928443e+02 -5.7554066409e+02 +6.9884665443e+02 9.3036976119e+02 0.0000000000e+00 0.0000e+00 1.0000e+00
       13  1    1    2    0    0 +2.1436928443e+02 +5.7554066409e+02 -2.8858748476e+02 6.7858970114e+02 0.0000000000e+00 0.0000e+00 -1.0000e+00
<mgrwt>
<rscale>  0 0.15557757E+04</rscale>
<asrwt>0</asrwt>
<pdfrwt beam="1">  1        2 0.15532451E+00 0.15557757E+04</pdfrwt>
<pdfrwt beam="2">  1       -2 0.92207715E-01 0.15557757E+04</pdfrwt>
<totfact> 0.30205904E+01</totfact>
</mgrwt>
<rwgt>
<wgt id='morphing_basis_vector_1'> +1.5837572e-04 </wgt>
<wgt id='morphing_basis_vector_2'> +1.7554527e-04 </wgt>
<wgt id='morphing_basis_vector_3'> +1.7401559e-04 </wgt>
<wgt id='morphing_basis_vector_4'> +3.1951974e-05 </wgt>
<wgt id='morphing_basis_vector_5'> +1.3913899e-04 </wgt>
</rwgt>
</event>
<event>
 4      1 +1.5130300e-07 1.83483800e+03 7.81860800e-03 8.14297100e-02
        2 -1    0    0  501    0 +0.0000000000e+00 +0.0000000000e+00 +7.2670526324e+02 7.2670526324e+02 0.0000000000e+00 0.0000e+00 1.0000e+00
       -2 -1    0    0    0  501 -0.0000000000e+00 -0.0000000000e+00 -1.1581828994e+03 1.1581828994e+03 0.0000000000e+00 0.0000e+00 -1.0000e+00
      -13  1    1    2    0    0 -1.2246295213e+02 +6.0781349398e+02 +4.7888870839e+02 7.8343398773e+02 0.0000000000e+00 0.0000e+00 1.0000e+00
       13  1    1    2    0    0 +1.2246295213e+02 -6.0781349398e+02 -9.1036634450e+02 1.1014541749e+03 0.0000000000e+00 0.0000e+00 -1.0000e+00
<mgrwt>
<rscale>  0 0.18348380E+04</rscale>
<asrwt>0</asrwt>
<pdfrwt beam="1">  1        2 0.11180081E+00 0.18348380E+04</pdfrwt>
<pdfrwt beam="2">  1       -2 0.17818198E+00 0.18348380E+04</pdfrwt>
<totfact> 0.77705218E+00</totfact>
</mgrwt>
<rwgt>
<wgt id='morphing_basis_vector_1'> +3.1614263e-04 </wgt>
<wgt id='morphing_basis_vector_2'> +3.7997529e-04 </wgt>
<wgt id='morphing_basis_vector_3'> +3.6170633e-04 </wgt>
<wgt id='morphing_basis_vector_4'> +3.2614545e-05 </wgt>
<wgt id='morphing_basis_vector_5'> +2.7164039e-04 </wgt>
</rwgt>
</event>
<event>
 4      1 +1.5130300e-07 1.65655700e+03 7.81860800e-03 8.22935500e-02
        2 -1    0    0  501    0 +0.0000000000e+00 +0.0000000000e+00 +5.2055559521e+02 5.2055559521e+02 0.0000000000e+00 0.0000e+00 -1.0000e+00
       -2 -1    0    0    0  501 -0.0000000000e+00 -0.0000000000e+00 -1.3179102806e+03 1.3179102806e+03 0.0000000000e+00 0.0000e+00 1.0000e+00
      -13  1    1    2    0    0 -6.6401355884e+01 -4.8273126565e+02 -1.1420080889e+03 1.2416203486e+03 0.0000000000e+00 0.0000e+00 1.0000e+00
       13  1    1    2    0    0 +6.6401355884e+01 +4.8273126565e+02 +3.4465340347e+02 5.9684552727e+02 0.0000000000e+00 0.0000e+00 -1.0000e+00
<mgrwt>
<rscale>  0 0.16565574E+04</rscale>
<asrwt>0</asrwt>
<pdfrwt beam="1">  1        2 0.80085476E-01 0.16565574E+04</pdfrwt>
<pdfrwt beam="2">  1       -2 0.20275543E+00 0.16565574E+04</pdfrwt>
<totfact> 0.76958339E+00</totfact>
</mgrwt>
<rwgt>
<wgt id='morphing_basis_vector_1'> +1.6267999e-04 </wgt>
<wgt id='morphing_basis_vector_2'> +1.0728415e-04 </wgt>
<wgt id='morphing_basis_vector_3'> +1.7075959e-04 </wgt>
<wgt id='morphing_basis_vector_4'> +1.1666565e-04 </wgt>
<wgt id='morphing_basis_vector_5'> +1.8592064e-04 </wgt>
</rwgt>
</event>
<event>
 4      1 +1.5130300e-07 1.55239400e+03 7.81860800e-03 8.28516000e-02
        2 -1    0    0  501    0 +0.0000000000e+00 +0.0000000000e+00 +1.9277088373e+03 1.9277088373e+03 0.0000000000e+00 0.0000e+00 -1.0000e+00
       -2 -1    0    0    0  501 -0.0000000000e+00 -0.0000000000e+00 -3.1253794098e+02 3.1253794098e+02 0.0000000000e+00 0.0000e+00 1.0000e+00
      -13  1    1    2    0    0 -3.4483645549e+01 -7.2883145826e+02 +4.2551296210e+02 8.4465714777e+02 0.0000000000e+00 0.0000e+00 1.0000e+00
       13  1    1    2    0    0 +3.4483645549e+01 +7.2883145826e+02 +1.1896579342e+03 1.3955896305e+03 0.0000000000e+00 0.0000e+00 -1.0000e+00
<mgrwt>
<rscale>  0 0.15523945E+04</rscale>
<asrwt>0</asrwt>
<pdfrwt beam="1">  1        2 0.29657058E+00 0.15523945E+04</pdfrwt>
<pdfrwt beam="2">  1       -2 0.48082761E-01 0.15523945E+04</pdfrwt>
<totfact> 0.36251123E+01</totfact>
</mgrwt>
<rwgt>
<wgt id='morphing_basis_vector_1'> +1.2762357e-04 </wgt>
<wgt id='morphing_basis_vector_2'> +8.6439200e-05 </wgt>
<wgt id='morphing_basis_vector_3'> +1.3331841e-04 </wgt>
<wgt id='morphing_basis_vector_4'> +8.7113135e-05 </wgt>
<wgt id='morphing_basis_vector_5'> +1.4204861e-04 </wgt>
</rwgt>
</event>
<event>
 4      1 +1.5130300e-07 1.82949800e+03 7.81860800e-03 8.14540900e-02
        2 -1    0    0  501    0 +0.0000000000e+00 +0.0000000000e+00 +1.5881218794e+03 1.5881218794e+03 0.0000000000e+00 0.0000e+00 1.0000e+00
       -2 -1    0    0    0  501 -0.0000000000e+00 -0.0000000000e+00 -5.2689000716e+02 5.2689000716e+02 0.0000000000e+00 0.0000e+00 -1.0000e+00
      -13  1    1    2    0    0 -7.8213254562e+02 +4.3351618736e+02 +3.0794894191e+02 9.4578018294e+02 0.0000000000e+00 0.0000e+00 -1.0000e+00
       13  1    1    2    0    0 +7.8213254562e+02 -4.3351618736e+02 +7.5328293036e+02 1.1692317036e+03 0.0000000000e+00 0.0000e+00 1.0000e+00
<mgrwt>
<rscale>  0 0.18294978E+04</rscale>
<asrwt>0</asrwt>
<pdfrwt beam="1">  1        2 0.24432644E+00 0.18294978E+04</pdfrwt>
<pdfrwt beam="2">  1       -2 0.81060002E-01 0.18294978E+04</pdfrwt>
<totfact> 0.18405532E+01</totfact>
</mgrwt>
<rwgt>
<wgt id='morphing_basis_vector_1'> +2.4330695e-04 </wgt>
<wgt id='morphing_basis_vector_2'> +1.7024118e-04 </wgt>
<wgt id='morphing_basis_vector_3'> +2.5922196e-04 </wgt>
<wgt id='morphing_basis_vector_4'> +1.6784377e-04 </wgt>
<wgt id='morphing_basis_vector_5'> +2.7896482e-04 </wgt>
</rwgt>
</event>
<event>
 4      1 +1.5130300e-07 1.84024900e+03 7.81860800e-03 8.14050800e-02
        2 -1    0    0  501    0 +0.0000000000e+00 +0.0000000000e+00 +3.6051291617e+03 3.6051291617e+03 0.0000000000e+00 0.0000e+00 -1.0000e+00
       -2 -1    0    0    0  501 -0.0000000000e+00 -0.0000000000e+00 -2.3484016182e+02 2.3484016182e+02 0.0000000000e+00 0.0000e+00 1.0000e+00
      -13  1    1    2    0    0 -8.4132687618e+02 -2.5000695807e+02 +1.1087784218e+03 1.4141159713e+03 0.0000000000e+00 0.0000e+00 1.0000e+00
       13  1    1    2    0    0 +8.4132687618e+02 +2.5000695807e+02 +2.2615105781e+03 2.4258533523e+03 0.0000000000e+00 0.0000e+00 -1.0000e+00
<mgrwt>
<rscale>  0 0.18402490E+04</rscale>
<asrwt>0</asrwt>
<pdfrwt beam="1">  1        2 0.55463522E+00 0.18402490E+04</pdfrwt>
<pdfrwt beam="2">  1       -2 0.36129258E-01 0.18402490E+04</pdfrwt>
<totfact> 0.52976869E+00</totfact>
</mgrwt>
<rwgt>
<wgt id='morphing_basis_vector_1'> +2.4769185e-04 </wgt>
<wgt id='morphing_basis_vector_2'> +1.7053771e-04 </wgt>
<wgt id='morphing_basis_vector_3'> +2.6359396e-04 </wgt>
<wgt id='morphing_basis_vector_4'> +1.7435866e-04 </wgt>
<wgt id='morphing_basis_vector_5'> +2.8593060e-04 </wgt>
</rwgt>
</event>
<event>
 4      1 +1.5130300e-07 1.58948400e+03 7.81860800e-03 8.26478600e-02
        2 -1    0    0  501    0 +0.0000000000e+00 +0.0000000000e+00 +4.6151228038e+02 4.6151228038e+02 0.0000000000e+00 0.0000e+00 1.0000e+00
       -2 -1    0    0    0  501 -0.0000000000e+00 -0.0000000000e+00 -1.3685758715e+03 1.3685758715e+03 0.0000000000e+00 0.0000e+00 -1.0000e+00
      -13  1    1    2    0    0 +1.1636478669e+02 +7.8301957110e+02 -5.3457207225e+02 9.5521082110e+02 0.0000000000e+00 0.0000e+00 -1.0000e+00
       13  1    1    2    0    0 -1.1636478669e+02 -7.8301957110e+02 -3.7249151890e+02 8.7487733081e+02 0.0000000000e+00 0.0000e+00 1.0000e+00
<mgrwt>
<rscale>  0 0.15894837E+04</rscale>
<asrwt>0</asrwt>
<pdfrwt beam="1">  1        2 0.71001890E-01 0.15894837E+04</pdfrwt>
<pdfrwt beam="2">  1       -2 0.21055013E+00 0.15894837E+04</pdfrwt>
<totfact> 0.77977359E+00</totfact>
</mgrwt>
<rwgt>
<wgt id='morphing_basis_vector_1'> +1.4216407e-04 </wgt>
<wgt id='morphing_basis_vector_2'> +1.0179076e-04 </wgt>
<wgt id='morphing_basis_vector_3'> +1.4962355e-04 </wgt>
<wgt id='morphing_basis_vector_4'> +9.1614076e-05 </wgt>
<wgt id='morphing_basis_vector_5'> +1.5627284e-04 </wgt>
</rwgt>
</event>
<event>
 4      1 +1.5130300e-07 1.77955700e+03 7.81860800e-03 8.16864300e-02
        2 -1    0    0  501    0 +0.0000000000e+00 +0.0000000000e+00 +1.6577501787e+03 1.6577501787e+03 0.0000000000e+00 0.0000e+00 -1.0000e+00
       -2 -1    0    0    0  501 -0.0000000000e+00 -0.0000000000e+00 -4.7757863494e+02 4.7757863494e+02 0.0000000000e+00 0.0000e+00 1.0000e+00
      -13  1    1    2    0    0 -5.9665518293e+02 -6.4660539067e+02 +4.3085241713e+02 9.7965797292e+02 0.0000000000e+00 0.0000e+00 1.0000e+00
       13  1    1    2    0    0 +5.9665518293e+02 +6.4660539067e+02 +7.4931912666e+02 1.1556708407e+03 0.0000000000e+00 0.0000e+00 -1.0000e+00
<mgrwt>
<rscale>  0 0.17795573E+04</rscale>
<asrwt>0</asrwt>
<pdfrwt beam="1">  1        2 0.25503849E+00 0.17795573E+04</pdfrwt>
<pdfrwt beam="2">  1       -2 0.73473637E-01 0.17795573E+04</pdfrwt>
<totfact> 0.21052792E+01</totfact>
</mgrwt>
<rwgt>
<wgt id='morphing_basis_vector_1'> +2.1936742e-04 </wgt>
<wgt id='morphing_basis_vector_2'> +1.5545759e-04 </wgt>
<wgt id='morphing_basis_vector_3'> +2.3343232e-04 </wgt>
<wgt id='morphing_basis_vector_4'> +1.4798288e-04 </wgt>
<wgt id='morphing_basis_vector_5'> +2.4890037e-04 </wgt>
</rwgt>
</event>
<event>
 4      1 +1.5130300e-07 1.59330300e+03 7.81860800e-03 8.26272000e-02
        2 -1    0    0  501    0 +0.0000000000e+00 +0.0000000000e+00 +3.0530967178e+03 3.0530967178e+03 0.0000000000e+00 0.0000e+00 1.0000e+00
       -2 -1    0    0    0  501 -0.0000000000e+00 -0.0000000000e+00 -2.0787211419e+02 2.0787211419e+02 0.0000000000e+00 0.0000e+00 -1.0000e+00
      -13  1    1    2    0    0 -3.1201050747e+02 +4.6261313931e+02 +2.5889935735e+02 6.1513441675e+02 0.0000000000e+00 0.0000e+00 -1.0000e+00
       13  1    1    2    0    0 +3.1201050747e+02 -4.6261313931e+02 +2.5863252462e+03 2.6458344152e+03 0.0000000000e+00 0.0000e+00 1.0000e+00
<mgrwt>
<rscale>  0 0.15933031E+04</rscale>
<asrwt>0</asrwt>
<pdfrwt beam="1">  1        2 0.46970715E+00 0.15933031E+04</pdfrwt>
<pdfrwt beam="2">  1       -2 0.31980328E-01 0.15933031E+04</pdfrwt>
<totfact> 0.16433907E+01</totfact>
</mgrwt>
<rwgt>
<wgt id='morphing_basis_vector_1'> +1.3997254e-04 </wgt>
<wgt id='morphing_basis_vector_2'> +9.2282939e-05 </wgt>
<wgt id='morphing_basis_vector_3'> +1.4632694e-04 </wgt>
<wgt id='morphing_basis_vector_4'> +9.9203209e-05 </wgt>
<wgt id='morphing_basis_vector_5'> +1.5833248e-04 </wgt>
</rwgt>
</event>
<event>
 4      1 +1.5130300e-07 1.76988400e+03 7.81860800e-03 8.17323300e-02
        2 -1    0    0  501    0 +0.0000000000e+00 +0.0000000000e+00 +2.4587965078e+03 2.4587965078e+03 0.0000000000e+00 0.0000e+00 -1.0000e+00
       -2 -1    0    0    0  501 -0.0000000000e+00 -0.0000000000e+00 -3.1849833609e+02 3.1849833609e+02 0.0000000000e+00 0.0000e+00 1.0000e+00
      -13  1    1    2    0    0 -4.3211512489e+02 +4.4569290692e+02 +8.0489121156e+01 6.2597455784e+02 0.0000000000e+00 0.0000e+00 1.0000e+00
       13  1    1    2    0    0 +4.3211512489e+02 -4.4569290692e+02 +2.0598090506e+03 2.1513202861e+03 0.0000000000e+00 0.0000e+00 -1.0000e+00
<mgrwt>
<rscale>  0 0.17698843E+04</rscale>
<asrwt>0</asrwt>
<pdfrwt beam="1">  1        2 0.37827637E+00 0.17698843E+04</pdfrwt>
<pdfrwt beam="2">  1       -2 0.48999745E-01 0.17698843E+04</pdfrwt>
<totfact> 0.17025293E+01</totfact>
</mgrwt>
<rwgt>
<wgt id='morphing_basis_vector_1'> +2.1058997e-04 </wgt>
<wgt id='morphing_basis_vector_2'> +1.3978160e-04 </wgt>
<wgt id='morphing_basis_vector_3'> +2.2255751e-04 </wgt>
<wgt id='morphing_basis_vector_4'> +1.5281612e-04 </wgt>
<wgt id='morphing_basis_vector_5'> +2.4402256e-04 </wgt>
</rwgt>
</event>
<event>
 4      1 +1.5130300e-07 1.57228400e+03 7.81860800e-03 8.27416200e-02
        2 -1    0    0  501    0 +0.0000000000e+00 +0.0000000000e+00 +1.4696809043e+03 1.4696809043e+03 0.0000000000e+00 0.0000e+00 -1.0000e+00
       -2 -1    0    0    0  501 -0.0000000000e+00 -0.0000000000e+00 -4.2051262218e+02 4.2051262218e+02 0.0000000000e+00 0.0000e+00 1.0000e+00
      -13  1    1    2    0    0 +7.9569128966e+01 +2.4654295355e+02 -3.6772115254e+02 4.4981498447e+02 0.0000000000e+00 0.0000e+00 1.0000e+00
       13  1    1    2    0    0 -7.9569128966e+01 -2.4654295355e+02 +1.4168894346e+03 1.4403785420e+03 0.0000000000e+00 0.0000e+00 -1.0000e+00
<mgrwt>
<rscale>  0 0.15722842E+04</rscale>
<asrwt>0</asrwt>
<pdfrwt beam="1">  1        2 0.22610475E+00 0.15722842E+04</pdfrwt>
<pdfrwt beam="2">  1       -2 0.64694250E-01 0.15722842E+04</pdfrwt>
<totfact> 0.35796488E+01</totfact>
</mgrwt>
<rwgt>
<wgt id='morphing_basis_vector_1'> +1.3281142e-04 </wgt>
<wgt id='morphing_basis_vector_2'> +8.7143690e-05 </wgt>
<wgt id='morphing_basis_vector_3'> +1.3858552e-04 </wgt>
<wgt id='morphing_basis_vector_4'> +9.4188894e-05 </wgt>
<wgt id='morphing_basis_vector_5'> +1.4990246e-04 </wgt>
</rwgt>
</event>
<event>
 4      1 +1.5130300e-07 1.77976000e+03 7.81860800e-03 8.16854700e-02
        2 -1    0    0  501    0 +0.0000000000e+00 +0.0000000000e+00 +1.1270471054e+03 1.1270471054e+03 0.0000000000e+00 0.0000e+00 1.0000e+00
       -2 -1    0    0    0  501 -0.0000000000e+00 -0.0000000000e+00 -7.0262041217e+02 7.0262041217e+02 0.0000000000e+00 0.0000e+00 -1.0000e+00
      -13  1    1    2    0    0 -8.8841539304e+02 -2.8570005443e+01 +2.5568560909e+02 9.2491798906e+02 0.0000000000e+00 0.0000e+00 -1.0000e+00
       13  1    1    2    0    0 +8.8841539304e+02 +2.8570005443e+01 +1.6874108409e+02 9.0474952846e+02 0.0000000000e+00 0.0000e+00 1.0000e+00
<mgrwt>
<rscale>  0 0.17797599E+04</rscale>
<asrwt>0</asrwt>
<pdfrwt beam="1">  1        2 0.17339186E+00 0.17797599E+04</pdfrwt>
<pdfrwt beam="2">  1       -2 0.10809545E+00 0.17797599E+04</pdfrwt>
<totfact> 0.17135889E+01</totfact>
</mgrwt>
<rwgt>
<wgt id='morphing_basis_vector_1'> +2.2425937e-04 </wgt>
<wgt id='morphing_basis_vector_2'> +1.6975693e-04 </wgt>
<wgt id='morphing_basis_vector_3'> +2.4027693e-04 </wgt>
<wgt id='morphing_basis_vector_4'> +1.3871602e-04 </wgt>
<wgt id='morphing_basis_vector_5'> +2.4829465e-04 </wgt>
</rwgt>
</event>
<event>
 4      1 +1.5130300e-07 1.74905100e+03 7.81860800e-03 8.18322200e-02
        2 -1    0    0  501    0 +0.0000000000e+00 +0.0000000000e+00 +9.5462203318e+02 9.5462203318e+02 0.0000000000e+00 0.0000e+00 -1.0000e+00
       -2 -1    0    0    0  501 -0.0000000000e+00 -0.0000000000e+00 -8.0114955511e+02 8.0114955511e+02 0.0000000000e+00 0.0000e+00 1.0000e+00
      -13  1    1    2    0    0 -3.8373836409e+01 +8.5827337971e+02 -8.7259988035e+01 8.6355083877e+02 0.0000000000e+00 0.0000e+00 1.0000e+00
       13  1    1    2    0    0 +3.8373836409e+01 -8.5827337971e+02 +2.4073246610e+02 8.9222074952e+02 0.0000000000e+00 0.0000e+00 -1.0000e+00
<mgrwt>
<rscale>  0 0.17490512E+04</rscale>
<asrwt>0</asrwt>
<pdfrwt beam="1">  1        2 0.14686493E+00 0.17490512E+04</pdfrwt>
<pdfrwt beam="2">  1       -2 0.12325378E+00 0.17490512E+04</pdfrwt>
<totfact> 0.15671907E+01</totfact>
</mgrwt>
<rwgt>
<wgt id='morphing_basis_vector_1'> +2.0449760e-04 </wgt>
<wgt id='morphing_basis_vector_2'> +1.4348801e-04 </wgt>
<wgt id='morphing_basis_vector_3'> +2.1703807e-04 </wgt>
<wgt id='morphing_basis_vector_4'> +1.3897251e-04 </wgt>
<wgt id='morphing_basis_vector_5'> +2.3193718e-04 </wgt>
</rwgt>
</event>
<event>
 4      1 +1.5130300e-07 1.55680000e+03 7.81860800e-03 8.28270900e-02
        2 -1    0    0  501    0 +0.0000000000e+00 +0.0000000000e+00 +1.6490913262e+03 1.6490913262e+03 0.0000000000e+00 0.0000e+00 -1.0000e+00
       -2 -1    0    0    0  501 -0.0000000000e+00 -0.0000000000e+00 -3.6741850991e+02 3.6741850991e+02 0.0000000000e+00 0.0000e+00 1.0000e+00
      -13  1    1    2    0    0 -7.0260417681e+02 -3.2210429583e+02 +7.6027654115e+02 1.0841698325e+03 0.0000000000e+00 0.0000e+00 1.0000e+00
       13  1    1    2    0    0 +7.0260417681e+02 +3.2210429583e+02 +5.2139627516e+02 9.3234000365e+02 0.0000000000e+00 0.0000e+00 -1.0000e+00
<mgrwt>
<rscale>  0 0.15568002E+04</rscale>
<asrwt>0</asrwt>
<pdfrwt beam="1">  1        2 0.25370635E+00 0.15568002E+04</pdfrwt>
<pdfrwt beam="2">  1       -2 0.56525925E-01 0.15568002E+04</pdfrwt>
<totfact> 0.37569008E+01</totfact>
</mgrwt>
<rwgt>
<wgt id='morphing_basis_vector_1'> +1.3487914e-04 </wgt>
<wgt id='morphing_basis_vector_2'> +1.0482568e-04 </wgt>
<wgt id='morphing_basis_vector_3'> +1.4262969e-04 </wgt>
<wgt id='morphing_basis_vector_4'> +7.7108939e-05 </wgt>
<wgt id='morphing_basis_vector_5'> +1.4289613e-04 </wgt>
</rwgt>
</event>
<event>
 4      1 +1.5130300e-07 1.71698800e+03 7.81860800e-03 8.19887600e-02
        2 -1    0    0  501    0 +0.0000000000e+00 +0.0000000000e+00 +1.5225829589e+03 1.5225829589e+03 0.0000000000e+00 0.0000e+00 -1.0000e+00
       -2 -1    0    0    0  501 -0.0000000000e+00 -0.0000000000e+00 -4.8405368988e+02 4.8405368988e+02 0.0000000000e+00 0.0000e+00 1.0000e+00
      -13  1    1    2    0    0 -8.2410766498e+02 +2.3006005180e+02 +4.3719897884e+02 9.6084547041e+02 0.0000000000e+00 0.0000e+00 1.0000e+00
       13  1    1    2    0    0 +8.2410766498e+02 -2.3006005180e+02 +6.0133029022e+02 1.0457911784e+03 0.0000000000e+00 0.0000e+00 -1.0000e+00
<mgrwt>
<rscale>  0 0.17169879E+04</rscale>
<asrwt>0</asrwt>
<pdfrwt beam="1">  1        2 0.23424353E+00 0.17169879E+04</pdfrwt>
<pdfrwt beam="2">  1       -2 0.74469799E-01 0.17169879E+04</pdfrwt>
<totfact> 0.24443831E+01</totfact>
</mgrwt>
<rwgt>
<wgt id='morphing_basis_vector_1'> +1.9195732e-04 </wgt>
<wgt id='morphing_basis_vector_2'> +1.3834693e-04 </wgt>
<wgt id='morphing_basis_vector_3'> +2.0388918e-04 </wgt>
<wgt id='morphing_basis_vector_4'> +1.2558175e-04 </wgt>
<wgt id='morphing_basis_vector_5'> +2.1471541e-04 </wgt>
</rwgt>
</event>
<event>
 4      1 +1.5130300e-07 1.70210900e+03 7.81860800e-03 8.20626000e-02
        2 -1    0    0  501    0 +0.0000000000e+00 +0.0000000000e+00 +3.6255409134e+03 3.6255409134e+03 0.0000000000e+00 0.0000e+00 -1.0000e+00
       -2 -1    0    0    0  501 -0.0000000000e+00 -0.0000000000e+00 -1.9977543819e+02 1.9977543819e+02 0.0000000000e+00 0.0000e+00 1.0000e+00
      -13  1    1    2    0    0 +4.3828839811e+01 -8.4991144732e+02 +1.7237980525e+03 1.9224333958e+03 0.0000000000e+00 0.0000e+00 1.0000e+00
       13  1    1    2    0    0 -4.3828839811e+01 +8.4991144732e+02 +1.7019674227e+03 1.9028829558e+03 0.0000000000e+00 0.0000e+00 -1.0000e+00
<mgrwt>
<rscale>  0 0.17021093E+04</rscale>
<asrwt>0</asrwt>
<pdfrwt beam="1">  1        2 0.55777548E+00 0.17021093E+04</pdfrwt>
<pdfrwt beam="2">  1       -2 0.30734685E-01 0.17021093E+04</pdfrwt>
<totfact> 0.69451040E+00</totfact>
</mgrwt>
<rwgt>
<wgt id='morphing_basis_vector_1'> +1.8740990e-04 </wgt>
<wgt id='morphing_basis_vector_2'> +1.3915517e-04 </wgt>
<wgt id='morphing_basis_vector_3'> +1.9946399e-04 </wgt>
<wgt id='morphing_basis_vector_4'> +1.1761890e-04 </wgt>
<wgt id='morphing_basis_vector_5'> +2.0689759e-04 </wgt>
</rwgt>
</event>
<event>
 4      1 +1.5130300e-07 1.61929800e+03 7.81860800e-03 8.24881900e-02
        2 -1    0    0  501    0 +0.0000000000e+00 +0.0000000000e+00 +1.5089929455e+03 1.5089929455e+03 0.0000000000e+00 0.0000e+00 -1.0000e+00
       -2 -1    0    0    0  501 -0.0000000000e+00 -0.0000000000e+00 -4.3441670134e+02 4.3441670134e+02 0.0000000000e+00 0.0000e+00 1.0000e+00
      -13  1    1    2    0    0 -6.2528517818e+02 -5.0684432038e+02 +4.3225553602e+02 9.1362879091e+02 0.0000000000e+00 0.0000e+00 1.0000e+00
       13  1    1    2    0    0 +6.2528517818e+02 +5.0684432038e+02 +6.4232070813e+02 1.0297808559e+03 0.0000000000e+00 0.0000e+00 -1.0000e+00
<mgrwt>
<rscale>  0 0.16192983E+04</rscale>
<asrwt>0</asrwt>
<pdfrwt beam="1">  1        2 0.23215276E+00 0.16192983E+04</pdfrwt>
<pdfrwt beam="2">  1       -2 0.66833339E-01 0.16192983E+04</pdfrwt>
<totfact> 0.31653520E+01</totfact>
</mgrwt>
<rwgt>
<wgt id='morphing_basis_vector_1'> +1.5250588e-04 </wgt>
<wgt id='morphing_basis_vector_2'> +1.0869394e-04 </wgt>
<wgt id='morphing_basis_vector_3'> +1.6079061e-04 </wgt>
<wgt id='morphing_basis_vector_4'> +9.9430578e-05 </wgt>
<wgt id='morphing_basis_vector_5'> +1.6876602e-04 </wgt>
</rwgt>
</event>
<event>
 4      1 +1.5130300e-07 1.66957100e+03 7.81860800e-03 8.22268000e-02
        2 -1    0    0  501    0 +0.0000000000e+00 +0.0000000000e+00 +2.5925417941e+02 2.5925417941e+02 0.0000000000e+00 0.0000e+00 -1.0000e+00
       -2 -1    0    0    0  501 -0.0000000000e+00 -0.0000000000e+00 -2.6879667286e+03 2.6879667286e+03 0.0000000000e+00 0.0000e+00 1.0000e+00
      -13  1    1    2    0    0 +9.3594942532e+01 +8.1484433378e+02 -1.4885984716e+03 1.6996048691e+03 0.0000000000e+00 0.0000e+00 1.0000e+00
       13  1    1    2    0    0 -9.3594942532e+01 -8.1484433378e+02 -9.4011407763e+02 1.2476160389e+03 0.0000000000e+00 0.0000e+00 -1.0000e+00
<mgrwt>
<rscale>  0 0.16695707E+04</rscale>
<asrwt>0</asrwt>
<pdfrwt beam="1">  1        2 0.39885257E-01 0.16695707E+04</pdfrwt>
<pdfrwt beam="2">  1       -2 0.41353336E+00 0.16695707E+04</pdfrwt>
<totfact> 0.64687884E-01</totfact>
</mgrwt>
<rwgt>
<wgt id='morphing_basis_vector_1'> +1.7065958e-04 </wgt>
<wgt id='morphing_basis_vector_2'> +1.1944709e-04 </wgt>
<wgt id='morphing_basis_vector_3'> +1.8023656e-04 </wgt>
<wgt id='morphing_basis_vector_4'> +1.1480076e-04 </wgt>
<wgt id='morphing_basis_vector_5'> +1.9157533e-04 </wgt>
</rwgt>
</event>
<event>
 4      1 +1.5130300e-07 1.82838800e+03 7.81860800e-03 8.14591700e-02
        2 -1    0    0  501    0 +0.0000000000e+00 +0.0000000000e+00 +2.7060030253e+03 2.7060030253e+03 0.0000000000e+00 0.0000e+00 -1.0000e+00
       -2 -1    0    0    0  501 -0.0000000000e+00 -0.0000000000e+00 -3.0885072281e+02 3.0885072281e+02 0.0000000000e+00 0.0000e+00 1.0000e+00
      -13  1    1    2    0    0 -7.7043989030e+02 -1.3703910840e+01 +2.0097100221e+03 2.1523707382e+03 0.0000000000e+00 0.0000e+00 -1.0000e+00
       13  1    1    2    0    0 +7.7043989030e+02 +1.3703910840e+01 +3.8744228040e+02 8.6248300991e+02 0.0000000000e+00 0.0000e+00 1.0000e+00
<mgrwt>
<rscale>  0 0.18283884E+04</rscale>
<asrwt>0</asrwt>
<pdfrwt beam="1">  1        2 0.41630814E+00 0.18283884E+04</pdfrwt>
<pdfrwt beam="2">  1       -2 0.47515498E-01 0.18283884E+04</pdfrwt>
<totfact> 0.12759275E+01</totfact>
</mgrwt>
<rwgt>
<wgt id='morphing_basis_vector_1'> +2.8723160e-04 </wgt>
<wgt id='morphing_basis_vector_2'> +3.0182369e-04 </wgt>
<wgt id='morphing_basis_vector_3'> +3.2169697e-04 </wgt>
<wgt id='morphing_basis_vector_4'> +8.0303719e-05 </wgt>
<wgt id='morphing_basis_vector_5'> +2.7150035e-04 </wgt>
</rwgt>
</event>
<event>
 4      1 +1.5130300e-07 1.59674100e+03 7.81860800e-03 8.26086600e-02
        2 -1    0    0  501    0 +0.0000000000e+00 +0.0000000000e+00 +1.6363803551e+03 1.6363803551e+03 0.0000000000e+00 0.0000e+00 -1.0000e+00
       -2 -1    0    0    0  501 -0.0000000000e+00 -0.0000000000e+00 -3.8951548375e+02 3.8951548375e+02 0.0000000000e+00 0.0000e+00 1.0000e+00
      -13  1    1    2    0    0 -4.3969660550e+02 +2.9825280000e+02 -1.3263866455e+02 5.4761378080e+02 0.0000000000e+00 0.0000e+00 1.0000e+00
       13  1    1    2    0    0 +4.3969660550e+02 -2.9825280000e+02 +1.3795035359e+03 1.4782820581e+03 0.0000000000e+00 0.0000e+00 -1.0000e+00
<mgrwt>
<rscale>  0 0.15967410E+04</rscale>
<asrwt>0</asrwt>
<pdfrwt beam="1">  1        2 0.25175082E+00 0.15967410E+04</pdfrwt>
<pdfrwt beam="2">  1       -2 0.59925460E-01 0.15967410E+04</pdfrwt>
<totfact> 0.33786700E+01</totfact>
</mgrwt>
<rwgt>
<wgt id='morphing_basis_vector_1'> +1.4110773e-04 </wgt>
<wgt id='morphing_basis_vector_2'> +9.2955909e-05 </wgt>
<wgt id='morphing_basis_vector_3'> +1.4753814e-04 </wgt>
<wgt id='morphing_basis_vector_4'> +1.0016208e-04 </wgt>
<wgt id='morphing_basis_vector_5'> +1.5975317e-04 </wgt>
</rwgt>
</event>
<event>
 4      1 +1.5130300e-07 1.55197700e+03 7.81860800e-03 8.28539200e-02
        2 -1    0    0  501    0 +0.0000000000e+00 +0.0000000000e+00 +1.4633301757e+03 1.4633301757e+03 0.0000000000e+00 0.0000e+00 -1.0000e+00
       -2 -1    0    0    0  501 -0.0000000000e+00 -0.0000000000e+00 -4.1149865755e+02 4.1149865755e+02 0.0000000000e+00 0.0000e+00 1.0000e+00
      -13  1    1    2    0    0 -4.2490813062e+02 -3.9377892679e+02 -9.7769246565e+01 5.8750964948e+02 0.0000000000e+00 0.0000e+00 1.0000e+00
       13  1    1    2    0    0 +4.2490813062e+02 +3.9377892679e+02 +1.1496007647e+03 1.2873191838e+03 0.0000000000e+00 0.0000e+00 -1.0000e+00
<mgrwt>
<rscale>  0 0.15519773E+04</rscale>
<asrwt>0</asrwt>
<pdfrwt beam="1">  1        2 0.22512772E+00 0.15519773E+04</pdfrwt>
<pdfrwt beam="2">  1       -2 0.63307486E-01 0.15519773E+04</pdfrwt>
<totfact> 0.37822581E+01</totfact>
</mgrwt>
<rwgt>
<wgt id='morphing_basis_vector_1'> +1.2649717e-04 </wgt>
<wgt id='morphing_basis_vector_2'> +8.3388187e-05 </wgt>
<wgt id='morphing_basis_vector_3'> +1.3185291e-04 </wgt>
<wgt id='morphing_basis_vector_4'> +8.8889012e-05 </wgt>
<wgt id='morphing_basis_vector_5'> +1.4203108e-04 </wgt>
</rwgt>
</event>
<event>
 4      1 +1.5130300e-07 1.63282600e+03 7.81860800e-03 8.24169000e-02
        2 -1    0    0  501    0 +0.0000000000e+00 +0.0000000000e+00 +1.5294823608e+03 1.5294823608e+03 0.0000000000e+00 0.0000e+00 -1.0000e+00
       -2 -1    0    0    0  501 -0.0000000000e+00 -0.0000000000e+00 -4.3578821224e+02 4.3578821224e+02 0.0000000000e+00 0.0000e+00 1.0000e+00
      -13  1    1    2    0    0 +8.7763109045e+01 +4.9688970930e+02 -2.2564382629e+02 5.5273581652e+02 0.0000000000e+00 0.0000e+00 1.0000e+00
       13  1    1    2    0    0 -8.7763109045e+01 -4.9688970930e+02 +1.3193379748e+03 1.4125347565e+03 0.0000000000e+00 0.0000e+00 -1.0000e+00
<mgrwt>
<rscale>  0 0.16328262E+04</rscale>
<asrwt>0</asrwt>
<pdfrwt beam="1">  1        2 0.23530498E+00 0.16328262E+04</pdfrwt>
<pdfrwt beam="2">  1       -2 0.67044341E-01 0.16328262E+04</pdfrwt>
<totfact> 0.30589463E+01</totfact>
</mgrwt>
<rwgt>
<wgt id='morphing_basis_vector_1'> +1.5383835e-04 </wgt>
<wgt id='morphing_basis_vector_2'> +1.0140103e-04 </wgt>
<wgt id='morphing_basis_vector_3'> +1.6123549e-04 </wgt>
<wgt id='morphing_basis_vector_4'> +1.0990193e-04 </wgt>
<wgt id='morphing_basis_vector_5'> +1.7518628e-04 </wgt>
</rwgt>
</event>
<event>
 4      1 +1.5130300e-07 1.83933900e+03 7.81860800e-03 8.14092200e-02
        2 -1    0    0  501    0 +0.0000000000e+00 +0.0000000000e+00 +1.5694924215e+03 1.5694924215e+03 0.0000000000e+00 0.0000e+00 -1.0000e+00
       -2 -1    0    0    0  501 -0.0000000000e+00 -0.0000000000e+00 -5.3889499449e+02 5.3889499449e+02 0.0000000000e+00 0.0000e+00 1.0000e+00
      -13  1    1    2    0    0 +3.9300396168e+02 -8.3108903129e+02 +4.8651561923e+02 1.0401242904e+03 0.0000000000e+00 0.0000e+00 1.0000e+00
       13  1    1    2    0    0 -3.9300396168e+02 +8.3108903129e+02 +5.4408180778e+02 1.0682631255e+03 0.0000000000e+00 0.0000e+00 -1.0000e+00
<mgrwt>
<rscale>  0 0.18393386E+04</rscale>
<asrwt>0</asrwt>
<pdfrwt beam="1">  1        2 0.24146037E+00 0.18393386E+04</pdfrwt>
<pdfrwt beam="2">  1       -2 0.82906923E-01 0.18393386E+04</pdfrwt>
<totfact> 0.17892015E+01</totfact>
</mgrwt>
<rwgt>
<wgt id='morphing_basis_vector_1'> +2.5251755e-04 </wgt>
<wgt id='morphing_basis_vector_2'> +1.8593383e-04 </wgt>
<wgt id='morphing_basis_vector_3'> +2.7060881e-04 </wgt>
<wgt id='morphing_basis_vector_4'> +1.6360971e-04 </wgt>
<wgt id='morphing_basis_vector_5'> +2.8454273e-04 </wgt>
</rwgt>
</event>
<event>
 4      1 +1.5130300e-07 1.59999000e+03 7.81860800e-03 8.25911800e-02
        2 -1    0    0  501    0 +0.0000000000e+00 +0.0000000000e+00 +1.1925060492e+03 1.1925060492e+03 0.0000000000e+00 0.0000e+00 -1.0000e+00
       -2 -1    0    0    0  501 -0.0000000000e+00 -0.0000000000e+00 -5.3667847859e+02 5.3667847859e+02 0.0000000000e+00 0.0000e+00 1.0000e+00
      -13  1    1    2    0    0 +2.4542476407e+01 +6.5559072657e+02 -1.6686385591e+02 6.7693801808e+02 0.0000000000e+00 0.0000e+00 1.0000e+00
       13  1    1    2    0    0 -2.4542476407e+01 -6.5559072657e+02 +8.2269142649e+02 1.0522465097e+03 0.0000000000e+00 0.0000e+00 -1.0000e+00
<mgrwt>
<rscale>  0 0.15999904E+04</rscale>
<asrwt>0</asrwt>
<pdfrwt beam="1">  1        2 0.18346247E+00 0.15999904E+04</pdfrwt>
<pdfrwt beam="2">  1       -2 0.82565920E-01 0.15999904E+04</pdfrwt>
<totfact> 0.30179047E+01</totfact>
</mgrwt>
<rwgt>
<wgt id='morphing_basis_vector_1'> +1.4252434e-04 </wgt>
<wgt id='morphing_basis_vector_2'> +9.4598946e-05 </wgt>
<wgt id='morphing_basis_vector_3'> +1.4914476e-04 </wgt>
<wgt id='morphing_basis_vector_4'> +1.0043395e-04 </wgt>
<wgt id='morphing_basis_vector_5'> +1.6105623e-04 </wgt>
</rwgt>
</event>
<event>
 4      1 +1.5130300e-07 1.64645700e+03 7.81860800e-03 8.23457900e-02
        2 -1    0    0  501    0 +0.0000000000e+00 +0.0000000000e+00 +6.9557670041e+02 6.9557670041e+02 0.0000000000e+00 0.0000e+00 -1.0000e+00
       -2 -1    0    0    0  501 -0.0000000000e+00 -0.0000000000e+00 -9.7430655433e+02 9.7430655433e+02 0.0000000000e+00 0.0000e+00 1.0000e+00
      -13  1    1    2    0    0 +8.0718851780e+02 -1.5462326335e+02 -1.8740212503e+02 8.4295979341e+02 0.0000000000e+00 0.0000e+00 1.0000e+00
       13  1    1    2    0    0 -8.0718851780e+02 +1.5462326335e+02 -9.1327728896e+01 8.2692346133e+02 0.0000000000e+00 0.0000e+00 -1.0000e+00
<mgrwt>
<rscale>  0 0.16464567E+04</rscale>
<asrwt>0</asrwt>
<pdfrwt beam="1">  1        2 0.10701180E+00 0.16464567E+04</pdfrwt>
<pdfrwt beam="2">  1       -2 0.14989332E+00 0.16464567E+04</pdfrwt>
<totfact> 0.13974542E+01</totfact>
</mgrwt>
<rwgt>
<wgt id='morphing_basis_vector_1'> +1.6348080e-04 </wgt>
<wgt id='morphing_basis_vector_2'> +1.1845614e-04 </wgt>
<wgt id='morphing_basis_vector_3'> +1.7294941e-04 </wgt>
<wgt id='morphing_basis_vector_4'> +1.0493018e-04 </wgt>
<wgt id='morphing_basis_vector_5'> +1.8062316e-04 </wgt>
</rwgt>
</event>
<event>
 4      1 +1.5130300e-07 1.55804900e+03 7.81860800e-03 8.28201600e-02
        2 -1    0    0  501    0 +0.0000000000e+00 +0.0000000000e+00 +3.4507594404e+03 3.4507594404e+03 0.0000000000e+00 0.0000e+00 -1.0000e+00
       -2 -1    0    0    0  501 -0.0000000000e+00 -0.0000000000e+00 -1.7586837972e+02 1.7586837972e+02 0.0000000000e+00 0.0000e+00 1.0000e+00
      -13  1    1    2    0    0 +3.9039679640e+02 +5.8569903563e+02 +8.6045464963e+02 1.1116812597e+03 0.0000000000e+00 0.0000e+00 1.0000e+00
       13  1    1    2    0    0 -3.9039679640e+02 -5.8569903563e+02 +2.4144364110e+03 2.5149465604e+03 0.0000000000e+00 0.0000e+00 -1.0000e+00
<mgrwt>
<rscale>  0 0.15580494E+04</rscale>
<asrwt>0</asrwt>
<pdfrwt beam="1">  1        2 0.53088601E+00 0.15580494E+04</pdfrwt>
<pdfrwt beam="2">  1       -2 0.27056676E-01 0.15580494E+04</pdfrwt>
<totfact> 0.11856501E+01</totfact>
</mgrwt>
<rwgt>
<wgt id='morphing_basis_vector_1'> +1.2902835e-04 </wgt>
<wgt id='morphing_basis_vector_2'> +8.6485923e-05 </wgt>
<wgt id='morphing_basis_vector_3'> +1.3472996e-04 </wgt>
<wgt id='morphing_basis_vector_4'> +8.9190876e-05 </wgt>
<wgt id='morphing_basis_vector_5'> +1.4425736e-04 </wgt>
</rwgt>
</event>
<event>
 4      1 +1.5130300e-07 1.63198000e+03 7.81860800e-03 8.24213400e-02
        2 -1    0    0  501    0 +0.0000000000e+00 +0.0000000000e+00 +1.4110310420e+03 1.4110310420e+03 0.0000000000e+00 0.0000e+00 1.0000e+00
       -2 -1    0    0    0  501 -0.0000000000e+00 -0.0000000000e+00 -4.7188177433e+02 4.7188177433e+02 0.0000000000e+00 0.0000e+00 -1.0000e+00
      -13  1    1    2    0    0 -5.7949875956e+02 +3.4333661244e+02 -6.1832800104e+01 6.7640382682e+02 0.0000000000e+00 0.0000e+00 -1.0000e+00
       13  1    1    2    0    0 +5.7949875956e+02 -3.4333661244e+02 +1.0009820678e+03 1.2065089896e+03 0.0000000000e+00 0.0000e+00 1.0000e+00
<mgrwt>
<rscale>  0 0.16319802E+04</rscale>
<asrwt>0</asrwt>
<pdfrwt beam="1">  1        2 0.21708170E+00 0.16319802E+04</pdfrwt>
<pdfrwt beam="2">  1       -2 0.72597197E-01 0.16319802E+04</pdfrwt>
<totfact> 0.30064216E+01</totfact>
</mgrwt>
<rwgt>
<wgt id='morphing_basis_vector_1'> +1.5391713e-04 </wgt>
<wgt id='morphing_basis_vector_2'> +1.0234717e-04 </wgt>
<wgt id='morphing_basis_vector_3'> +1.6143009e-04 </wgt>
<wgt id='morphing_basis_vector_4'> +1.0892726e-04 </wgt>
<wgt id='morphing_basis_vector_5'> +1.7475621e-04 </wgt>
</rwgt>
</event>
<event>
 4      1 +1.5130300e-07 1.66483100e+03 7.81860800e-03 8.22510400e-02
        2 -1    0    0  501    0 +0.0000000000e+00 +0.0000000000e+00 +3.4120495528e+03 3.4120495528e+03 0.0000000000e+00 0.0000e+00 1.0000e+00
       -2 -1    0    0    0  501 -0.0000000000e+00 -0.0000000000e+00 -2.0307900541e+02 2.0307900541e+02 0.0000000000e+00 0.0000e+00 -1.0000e+00
      -13  1    1    2    0    0 +4.7148815283e+02 +6.5190395355e+02 +1.1406045327e+03 1.3958003235e+03 0.0000000000e+00 0.0000e+00 -1.0000e+00
       13  1    1    2    0    0 -4.7148815283e+02 -6.5190395355e+02 +2.0683660147e+03 2.2193282348e+03 0.0000000000e+00 0.0000e+00 1.0000e+00
<mgrwt>
<rscale>  0 0.16648311E+04</rscale>
<asrwt>0</asrwt>
<pdfrwt beam="1">  1        2 0.52493066E+00 0.16648311E+04</pdfrwt>
<pdfrwt beam="2">  1       -2 0.31242926E-01 0.16648311E+04</pdfrwt>
<totfact> 0.96949710E+00</totfact>
</mgrwt>
<rwgt>
<wgt id='morphing_basis_vector_1'> +1.6804260e-04 </wgt>
<wgt id='morphing_basis_vector_2'> +1.1590824e-04 </wgt>
<wgt id='morphing_basis_vector_3'> +1.7718241e-04 </wgt>
<wgt id='morphing_basis_vector_4'> +1.1489116e-04 </wgt>
<wgt id='morphing_basis_vector_5'> +1.8945503e-04 </wgt>
</rwgt>
</event>
<event>
 4      1 +1.5130300e-07 1.80790300e+03 7.81860800e-03 8.15536000e-02
        2 -1    0    0  501    0 +0.0000000000e+00 +0.0000000000e+00 +2.5825328927e+03 2.5825328927e+03 0.0000000000e+00 0.0000e+00 -1.0000e+00
       -2 -1    0    0    0  501 -0.0000000000e+00 -0.0000000000e+00 -3.1640585618e+02 3.1640585618e+02 0.0000000000e+00 0.0000e+00 1.0000e+00
      -13  1    1    2    0    0 -4.1250237215e+02 +6.6485566389e+02 +4.0716764096e+02 8.8202990237e+02 0.0000000000e+00 0.0000e+00 1.0000e+00
       13  1    1    2    0    0 +4.1250237215e+02 -6.6485566389e+02 +1.8589593956e+03 2.0169088465e+03 0.0000000000e+00 0.0000e+00 -1.0000e+00
<mgrwt>
<rscale>  0 0.18079032E+04</rscale>
<asrwt>0</asrwt>
<pdfrwt beam="1">  1        2 0.39731274E+00 0.18079032E+04</pdfrwt>
<pdfrwt beam="2">  1       -2 0.48677826E-01 0.18079032E+04</pdfrwt>
<totfact> 0.14499370E+01</totfact>
</mgrwt>
<rwgt>
<wgt id='morphing_basis_vector_1'> +2.2953918e-04 </wgt>
<wgt id='morphing_basis_vector_2'> +1.5427571e-04 </wgt>
<wgt id='morphing_basis_vector_3'> +2.4332315e-04 </wgt>
<wgt id='morphing_basis_vector_4'> +1.6525206e-04 </wgt>
<wgt id='morphing_basis_vector_5'> +2.6613393e-04 </wgt>
</rwgt>
</event>
<event>
 4      1 +1.5130300e-07 1.84715800e+03 7.81860800e-03 8.13737700e-02
        2 -1    0    0  501    0 +0.0000000000e+00 +0.0000000000e+00 +1.9718002455e+03 1.9718002455e+03 0.0000000000e+00 0.0000e+00 -1.0000e+00
       -2 -1    0    0    0  501 -0.0000000000e+00 -0.0000000000e+00 -4.3259866047e+02 4.3259866047e+02 0.0000000000e+00 0.0000e+00 1.0000e+00
      -13  1    1    2    0    0 -5.6534458793e+02 -1.2955159920e+02 -1.6597654660e+02 6.0327964824e+02 0.0000000000e+00 0.0000e+00 1.0000e+00
       13  1    1    2    0    0 +5.6534458793e+02 +1.2955159920e+02 +1.7051781316e+03 1.8011192577e+03 0.0000000000e+00 0.0000e+00 -1.0000e+00
<mgrwt>
<rscale>  0 0.18471580E+04</rscale>
<asrwt>0</asrwt>
<pdfrwt beam="1">  1        2 0.30335388E+00 0.18471580E+04</pdfrwt>
<pdfrwt beam="2">  1       -2 0.66553641E-01 0.18471580E+04</pdfrwt>
<totfact> 0.17290011E+01</totfact>
</mgrwt>
<rwgt>
<wgt id='morphing_basis_vector_1'> +2.4867238e-04 </wgt>
<wgt id='morphing_basis_vector_2'> +1.6516419e-04 </wgt>
<wgt id='morphing_basis_vector_3'> +2.6376997e-04 </wgt>
<wgt id='morphing_basis_vector_4'> +1.8229230e-04 </wgt>
<wgt id='morphing_basis_vector_5'> +2.9076012e-04 </wgt>
</rwgt>
</event>
<event>
 4      1 +1.5130300e-07 1.73988700e+03 7.81860800e-03 8.18766100e-02
        2 -1    0    0  501    0 +0.0000000000e+00 +0.0000000000e+00 +1.1307486029e+03 1.1307486029e+03 0.0000000000e+00 0.0000e+00 1.0000e+00
       -2 -1    0    0    0  501 -0.0000000000e+00 -0.0000000000e+00 -6.6929276835e+02 6.6929276835e+02 0.0000000000e+00 0.0000e+00 -1.0000e+00
      -13  1    1    2    0    0 +3.9932051517e+02 +3.3380198509e+02 -4.9045317022e+02 7.1513981239e+02 0.0000000000e+00 0.0000e+00 -1.0000e+00
       13  1    1    2    0    0 -3.9932051517e+02 -3.3380198509e+02 +9.5190900475e+02 1.0849015589e+03 0.0000000000e+00 0.0000e+00 1.0000e+00
<mgrwt>
<rscale>  0 0.17398872E+04</rscale>
<asrwt>0</asrwt>
<pdfrwt beam="1">  1        2 0.17396132E+00 0.17398872E+04</pdfrwt>
<pdfrwt beam="2">  1       -2 0.10296812E+00 0.17398872E+04</pdfrwt>
<totfact> 0.19287486E+01</totfact>
</mgrwt>
<rwgt>
<wgt id='morphing_basis_vector_1'> +1.9689629e-04 </wgt>
<wgt id='morphing_basis_vector_2'> +1.3026827e-04 </wgt>
<wgt id='morphing_basis_vector_3'> +2.0770469e-04 </wgt>
<wgt id='morphing_basis_vector_4'> +1.4271473e-04 </wgt>
<wgt id='morphing_basis_vector_5'> +2.2750388e-04 </wgt>
</rwgt>
</event>
<event>
 4      1 +1.5130300e-07 1.79342700e+03 7.81860800e-03 8.16211200e-02
        2 -1    0    0  501    0 +0.0000000000e+00 +0.0000000000e+00 +5.2667185378e+02 5.2667185378e+02 0.0000000000e+00 0.0000e+00 1.0000e+00
       -2 -1    0    0    0  501 -0.0000000000e+00 -0.0000000000e+00 -1.5267485007e+03 1.5267485007e+03 0.0000000000e+00 0.0000e+00 -1.0000e+00
      -13  1    1    2    0    0 +5.5187559762e+01 +8.8631579741e+02 -3.5751783913e+02 9.5729847215e+02 0.0000000000e+00 0.0000e+00 1.0000e+00
       13  1    1    2    0    0 -5.5187559762e+01 -8.8631579741e+02 -6.4255880781e+02 1.0961218824e+03 0.0000000000e+00 0.0000e+00 -1.0000e+00
<mgrwt>
<rscale>  0 0.17934274E+04</rscale>
<asrwt>0</asrwt>
<pdfrwt beam="1">  1        2 0.81026438E-01 0.17934274E+04</pdfrwt>
<pdfrwt beam="2">  1       -2 0.23488439E+00 0.17934274E+04</pdfrwt>
<totfact> 0.44317407E+00</totfact>
</mgrwt>
<rwgt>
<wgt id='morphing_basis_vector_1'> +2.3463467e-04 </wgt>
<wgt id='morphing_basis_vector_2'> +1.8559423e-04 </wgt>
<wgt id='morphing_basis_vector_3'> +2.5280259e-04 </wgt>
<wgt id='morphing_basis_vector_4'> +1.3614089e-04 </wgt>
<wgt id='morphing_basis_vector_5'> +2.5566533e-04 </wgt>
</rwgt>
</event>
<event>
 4      1 +1.5130300e-07 1.62477600e+03 7.81860800e-03 8.24592400e-02
        2 -1    0    0  501    0 +0.0000000000e+00 +0.0000000000e+00 +6.5772612784e+02 6.5772612784e+02 0.0000000000e+00 0.0000e+00 -1.0000e+00
       -2 -1    0    0    0  501 -0.0000000000e+00 -0.0000000000e+00 -1.0034174458e+03 1.0034174458e+03 0.0000000000e+00 0.0000e+00 1.0000e+00
      -13  1    1    2    0    0 +3.5255913656e+02 -3.7347625538e+02 -8.1637200717e+02 9.6449246352e+02 0.0000000000e+00 0.0000e+00 1.0000e+00
       13  1    1    2    0    0 -3.5255913656e+02 +3.7347625538e+02 +4.7068068918e+02 6.9665111015e+02 0.0000000000e+00 0.0000e+00 -1.0000e+00
<mgrwt>
<rscale>  0 0.16247755E+04</rscale>
<asrwt>0</asrwt>
<pdfrwt beam="1">  1        2 0.10118864E+00 0.16247755E+04</pdfrwt>
<pdfrwt beam="2">  1       -2 0.15437191E+00 0.16247755E+04</pdfrwt>
<totfact> 0.13764948E+01</totfact>
</mgrwt>
<rwgt>
<wgt id='morphing_basis_vector_1'> +1.5092733e-04 </wgt>
<wgt id='morphing_basis_vector_2'> +9.9473842e-05 </wgt>
<wgt id='morphing_basis_vector_3'> +1.5810251e-04 </wgt>
<wgt id='morphing_basis_vector_4'> +1.0766717e-04 </wgt>
<wgt id='morphing_basis_vector_5'> +1.7165090e-04 </wgt>
</rwgt>
</event>
<event>
 4      1 +1.5130300e-07 1.65902200e+03 7.81860800e-03 8.22808600e-02
        2 -1    0    0  501    0 +0.0000000000e+00 +0.0000000000e+00 +1.7143696938e+03 1.7143696938e+03 0.0000000000e+00 0.0000e+00 -1.0000e+00
       -2 -1    0    0    0  501 -0.0000000000e+00 -0.0000000000e+00 -4.0136508262e+02 4.0136508262e+02 0.0000000000e+00 0.0000e+00 1.0000e+00
      -13  1    1    2    0    0 -1.9107464048e+02 +6.4065515731e+02 +3.0258491085e+01 6.6922651255e+02 0.0000000000e+00 0.0000e+00 1.0000e+00
       13  1    1    2    0    0 +1.9107464048e+02 -6.4065515731e+02 +1.2827461201e+03 1.4465082639e+03 0.0000000000e+00 0.0000e+00 -1.0000e+00
<mgrwt>
<rscale>  0 0.16590216E+04</rscale>
<asrwt>0</asrwt>
<pdfrwt beam="1">  1        2 0.26374918E+00 0.16590216E+04</pdfrwt>
<pdfrwt beam="2">  1       -2 0.61748475E-01 0.16590216E+04</pdfrwt>
<totfact> 0.28596237E+01</totfact>
</mgrwt>
<rwgt>
<wgt id='morphing_basis_vector_1'> +1.6397907e-04 </wgt>
<wgt id='morphing_basis_vector_2'> +1.0897788e-04 </wgt>
<wgt id='morphing_basis_vector_3'> +1.7226439e-04 </wgt>
<wgt id='morphing_basis_vector_4'> +1.1669639e-04 </wgt>
<wgt id='morphing_basis_vector_5'> +1.8701014e-04 </wgt>
</rwgt>
</event>
<event>
 4      1 +1.5130300e-07 1.59397700e+03 7.81860800e-03 8.26235600e-02
        2 -1    0    0  501    0 +0.0000000000e+00 +0.0000000000e+00 +6.9869590104e+02 6.9869590104e+02 0.0000000000e+00 0.0000e+00 -1.0000e+00
       -2 -1    0    0    0  501 -0.0000000000e+00 -0.0000000000e+00 -9.0910913062e+02 9.0910913062e+02 0.0000000000e+00 0.0000e+00 1.0000e+00
      -13  1    1    2    0    0 -1.2676432115e+02 -2.7189268873e+02 -8.4998593443e+02 9.0137168584e+02 0.0000000000e+00 0.0000e+00 1.0000e+00
       13  1    1    2    0    0 +1.2676432115e+02 +2.7189268873e+02 +6.3957270485e+02 7.0643334583e+02 0.0000000000e+00 0.0000e+00 -1.0000e+00
<mgrwt>
<rscale>  0 0.15939772E+04</rscale>
<asrwt>0</asrwt>
<pdfrwt beam="1">  1        2 0.10749168E+00 0.15939772E+04</pdfrwt>
<pdfrwt beam="2">  1       -2 0.13986294E+00 0.15939772E+04</pdfrwt>
<totfact> 0.16957417E+01</totfact>
</mgrwt>
<rwgt>
<wgt id='morphing_basis_vector_1'> +1.4005300e-04 </wgt>
<wgt id='morphing_basis_vector_2'> +9.1993290e-05 </wgt>
<wgt id='morphing_basis_vector_3'> +1.4637316e-04 </wgt>
<wgt id='morphing_basis_vector_4'> +9.9659363e-05 </wgt>
<wgt id='morphing_basis_vector_5'> +1.5863058e-04 </wgt>
</rwgt>
</event>
<event>
 4      1 +1.5130300e-07 1.68517800e+03 7.81860800e-03 8.21475600e-02
        2 -1    0    0  501    0 +0.0000000000e+00 +0.0000000000e+00 +1.3782911515e+03 1.3782911515e+03 0.0000000000e+00 0.0000e+00 -1.0000e+00
       -2 -1    0    0    0  501 -0.0000000000e+00 -0.0000000000e+00 -5.1509915709e+02 5.1509915709e+02 0.0000000000e+00 0.0000e+00 1.0000e+00
      -13  1    1    2    0    0 +7.4659471953e+02 +1.9167629319e+02 +4.9235377182e+01 7.7237788612e+02 0.0000000000e+00 0.0000e+00 1.0000e+00
       13  1    1    2    0    0 -7.4659471953e+02 -1.9167629319e+02 +8.1395661722e+02 1.1210124225e+03 0.0000000000e+00 0.0000e+00 -1.0000e+00
<mgrwt>
<rscale>  0 0.16851785E+04</rscale>
<asrwt>0</asrwt>
<pdfrwt beam="1">  1        2 0.21204479E+00 0.16851785E+04</pdfrwt>
<pdfrwt beam="2">  1       -2 0.79246025E-01 0.16851785E+04</pdfrwt>
<totfact> 0.25720926E+01</totfact>
</mgrwt>
<rwgt>
<wgt id='morphing_basis_vector_1'> +1.7503952e-04 </wgt>
<wgt id='morphing_basis_vector_2'> +1.1825380e-04 </wgt>
<wgt id='morphing_basis_vector_3'> +1.8444052e-04 </wgt>
<wgt id='morphing_basis_vector_4'> +1.2294003e-04 </wgt>
<wgt id='morphing_basis_vector_5'> +1.9933315e-04 </wgt>
</rwgt>
</event>
<event>
 4      1 +1.5130300e-07 1.76299100e+03 7.81860800e-03 8.17652300e-02
        2 -1    0    0  501    0 +0.0000000000e+00 +0.0000000000e+00 +1.4822878733e+03 1.4822878733e+03 0.0000000000e+00 0.0000e+00 -1.0000e+00
       -2 -1    0    0    0  501 -0.0000000000e+00 -0.0000000000e+00 -5.2421301457e+02 5.2421301457e+02 0.0000000000e+00 0.0000e+00 1.0000e+00
      -13  1    1    2    0    0 +2.9414374238e+02 -7.5403304133e+01 -4.6280892897e+02 5.5353256832e+02 0.0000000000e+00 0.0000e+00 1.0000e+00
       13  1    1    2    0    0 -2.9414374238e+02 +7.5403304133e+01 +1.4208837877e+03 1.4529683196e+03 0.0000000000e+00 0.0000e+00 -1.0000e+00
<mgrwt>
<rscale>  0 0.17629913E+04</rscale>
<asrwt>0</asrwt>
<pdfrwt beam="1">  1        2 0.22804429E+00 0.17629913E+04</pdfrwt>
<pdfrwt beam="2">  1       -2 0.80648157E-01 0.17629913E+04</pdfrwt>
<totfact> 0.21458380E+01</totfact>
</mgrwt>
<rwgt>
<wgt id='morphing_basis_vector_1'> +2.0718479e-04 </wgt>
<wgt id='morphing_basis_vector_2'> +1.3696696e-04 </wgt>
<wgt id='morphing_basis_vector_3'> +2.1880043e-04 </wgt>
<wgt id='morphing_basis_vector_4'> +1.5083169e-04 </wgt>
<wgt id='morphing_basis_vector_5'> +2.4017987e-04 </wgt>
</rwgt>
</event>
<event>
 4      1 +1.5130300e-07 1.61727900e+03 7.81860800e-03 8.24988900e-02
        2 -1    0    0  501    0 +0.0000000000e+00 +0.0000000000e+00 +2.0169054514e+03 2.0169054514e+03 0.0000000000e+00 0.0000e+00 -1.0000e+00
       -2 -1    0    0    0  501 -0.0000000000e+00 -0.0000000000e+00 -3.2420856382e+02 3.2420856382e+02 0.0000000000e+00 0.0000e+00 1.0000e+00
      -13  1    1    2    0    0 -1.6042538510e+02 -5.3944482081e+02 +5.8126248885e+00 5.6282395604e+02 0.0000000000e+00 0.0000e+00 1.0000e+00
       13  1    1    2    0    0 +1.6042538510e+02 +5.3944482081e+02 +1.6868842627e+03 1.7782900592e+03 0.0000000000e+00 0.0000e+00 -1.0000e+00
<mgrwt>
<rscale>  0 0.16172792E+04</rscale>
<asrwt>0</asrwt>
<pdfrwt beam="1">  1        2 0.31029314E+00 0.16172792E+04</pdfrwt>
<pdfrwt beam="2">  1       -2 0.49878242E-01 0.16172792E+04</pdfrwt>
<totfact> 0.29910284E+01</totfact>
</mgrwt>
<rwgt>
<wgt id='morphing_basis_vector_1'> +1.4830910e-04 </wgt>
<wgt id='morphing_basis_vector_2'> +9.7866803e-05 </wgt>
<wgt id='morphing_basis_vector_3'> +1.5530059e-04 </wgt>
<wgt id='morphing_basis_vector_4'> +1.0551282e-04 </wgt>
<wgt id='morphing_basis_vector_5'> +1.6839901e-04 </wgt>
</rwgt>
</event>
<event>
 4      1 +1.5130300e-07 1.71383700e+03 7.81860800e-03 8.20043400e-02
        2 -1    0    0  501    0 +0.0000000000e+00 +0.0000000000e+00 +2.3923045157e+03 2.3923045157e+03 0.0000000000e+00 0.0000e+00 1.0000e+00
       -2 -1    0    0    0  501 -0.0000000000e+00 -0.0000000000e+00 -3.0694631484e+02 3.0694631484e+02 0.0000000000e+00 0.0000e+00 -1.0000e+00
      -13  1    1    2    0    0 -1.5631274186e+02 -5.3904371812e+02 +2.2820429006e+01 5.6171396217e+02 0.0000000000e+00 0.0000e+00 -1.0000e+00
       13  1    1    2    0    0 +1.5631274186e+02 +5.3904371812e+02 +2.0625377719e+03 2.1375368684e+03 0.0000000000e+00 0.0000e+00 1.0000e+00
<mgrwt>
<rscale>  0 0.17138367E+04</rscale>
<asrwt>0</asrwt>
<pdfrwt beam="1">  1        2 0.36804684E+00 0.17138367E+04</pdfrwt>
<pdfrwt beam="2">  1       -2 0.47222512E-01 0.17138367E+04</pdfrwt>
<totfact> 0.20118885E+01</totfact>
</mgrwt>
<rwgt>
<wgt id='morphing_basis_vector_1'> +1.8572146e-04 </wgt>
<wgt id='morphing_basis_vector_2'> +1.2288637e-04 </wgt>
<wgt id='morphing_basis_vector_3'> +1.9564558e-04 </wgt>
<wgt id='morphing_basis_vector_4'> +1.3404125e-04 </wgt>
<wgt id='morphing_basis_vector_5'> +2.1382201e-04 </wgt>
</rwgt>
</event>
<event>
 4      1 +1.5130300e-07 1.83082900e+03 7.81860800e-03 8.14480100e-02
        2 -1    0    0  501    0 +0.0000000000e+00 +0.0000000000e+00 +3.1258647635e+02 3.1258647635e+02 0.0000000000e+00 0.0000e+00 1.0000e+00
       -2 -1    0    0    0  501 -0.0000000000e+00 -0.0000000000e+00 -2.6808055036e+03 2.6808055036e+03 0.0000000000e+00 0.0000e+00 -1.0000e+00
      -13  1    1    2    0    0 -8.9126030465e+02 +1.0050229709e+02 -1.4835315824e+03 1.7335834559e+03 0.0000000000e+00 0.0000e+00 -1.0000e+00
       13  1    1    2    0    0 +8.9126030465e+02 -1.0050229709e+02 -8.8468744485e+02 1.2598085241e+03 0.0000000000e+00 0.0000e+00 1.0000e+00
<mgrwt>
<rscale>  0 0.18308288E+04</rscale>
<asrwt>0</asrwt>
<pdfrwt beam="1">  1        2 0.48090227E-01 0.18308288E+04</pdfrwt>
<pdfrwt beam="2">  1       -2 0.41243161E+00 0.18308288E+04</pdfrwt>
<totfact> 0.52450523E-01</totfact>
</mgrwt>
<rwgt>
<wgt id='morphing_basis_vector_1'> +2.4416775e-04 </wgt>
<wgt id='morphing_basis_vector_2'> +1.7123270e-04 </wgt>
<wgt id='morphing_basis_vector_3'> +2.6021625e-04 </wgt>
<wgt id='morphing_basis_vector_4'> +1.6801313e-04 </wgt>
<wgt id='morphing_basis_vector_5'> +2.7977139e-04 </wgt>
</rwgt>
</event>
<event>
 4      1 +1.5130300e-07 1.71508100e+03 7.81860800e-03 8.19981900e-02
        2 -1    0    0  501    0 +0.0000000000e+00 +0.0000000000e+00 +1.5588749325e+03 1.5588749325e+03 0.0000000000e+00 0.0000e+00 1.0000e+00
       -2 -1    0    0    0  501 -0.0000000000e+00 -0.0000000000e+00 -4.7173478035e+02 4.7173478035e+02 0.0000000000e+00 0.0000e+00 -1.0000e+00
      -13  1    1    2    0    0 -2.4322921827e+02 +7.0787468230e+02 +1.0390434246e+03 1.2805695048e+03 0.0000000000e+00 0.0000e+00 1.0000e+00
       13  1    1    2    0    0 +2.4322921827e+02 -7.0787468230e+02 +4.8096727546e+01 7.5004020803e+02 0.0000000000e+00 0.0000e+00 -1.0000e+00
<mgrwt>
<rscale>  0 0.17150808E+04</rscale>
<asrwt>0</asrwt>
<pdfrwt beam="1">  1        2 0.23982691E+00 0.17150808E+04</pdfrwt>
<pdfrwt beam="2">  1       -2 0.72574582E-01 0.17150808E+04</pdfrwt>
<totfact> 0.24683275E+01</totfact>
</mgrwt>
<rwgt>
<wgt id='morphing_basis_vector_1'> +2.1914343e-04 </wgt>
<wgt id='morphing_basis_vector_2'> +2.2095459e-04 </wgt>
<wgt id='morphing_basis_vector_3'> +2.4184206e-04 </wgt>
<wgt id='morphing_basis_vector_4'> +7.0895882e-05 </wgt>
<wgt id='morphing_basis_vector_5'> +2.0958416e-04 </wgt>
</rwgt>
</event>
<event>
 4      1 +1.5130300e-07 1.60235200e+03 7.81860800e-03 8.25785000e-02
        2 -1    0    0  501    0 +0.0000000000e+00 +0.0000000000e+00 +1.0596497461e+03 1.0596497461e+03 0.0000000000e+00 0.0000e+00 1.0000e+00
       -2 -1    0    0    0  501 -0.0000000000e+00 -0.0000000000e+00 -6.0575030710e+02 6.0575030710e+02 0.0000000000e+00 0.0000e+00 -1.0000e+00
      -13  1    1    2    0    0 +7.7830985720e+02 -8.9772900495e+01 +4.0104500931e+02 8.8014913904e+02 0.0000000000e+00 0.0000e+00 -1.0000e+00
       13  1    1    2    0    0 -7.7830985720e+02 +8.9772900495e+01 +5.2854429702e+01 7.8525091417e+02 0.0000000000e+00 0.0000e+00 1.0000e+00
<mgrwt>
<rscale>  0 0.16023522E+04</rscale>
<asrwt>0</asrwt>
<pdfrwt beam="1">  1        2 0.16302304E+00 0.16023522E+04</pdfrwt>
<pdfrwt beam="2">  1       -2 0.93192355E-01 0.16023522E+04</pdfrwt>
<totfact> 0.27340625E+01</totfact>
</mgrwt>
<rwgt>
<wgt id='morphing_basis_vector_1'> +1.5366204e-04 </wgt>
<wgt id='morphing_basis_vector_2'> +1.2585926e-04 </wgt>
<wgt id='morphing_basis_vector_3'> +1.6395672e-04 </wgt>
<wgt id='morphing_basis_vector_4'> +8.1434343e-05 </wgt>
<wgt id='morphing_basis_vector_5'> +1.6055832e-04 </wgt>
</rwgt>
</event>
<event>
 4      1 +1.5130300e-07 1.56857000e+03 7.81860800e-03 8.27620300e-02
        2 -1    0    0  501    0 +0.0000000000e+00 +0.0000000000e+00 +6.2448642709e+02 6.2448642709e+02 0.0000000000e+00 0.0000e+00 1.0000e+00
       -2 -1    0    0    0  501 -0.0000000000e+00 -0.0000000000e+00 -9.8497449603e+02 9.8497449603e+02 0.0000000000e+00 0.0000e+00 -1.0000e+00
      -13  1    1    2    0    0 +3.8948930772e+01 -3.0530308904e+02 -9.2042031329e+02 9.7051560961e+02 0.0000000000e+00 0.0000e+00 -1.0000e+00
       13  1    1    2    0    0 -3.8948930772e+01 +3.0530308904e+02 +5.5993224435e+02 6.3894531350e+02 0.0000000000e+00 0.0000e+00 1.0000e+00
<mgrwt>
<rscale>  0 0.15685703E+04</rscale>
<asrwt>0</asrwt>
<pdfrwt beam="1">  1        2 0.96074836E-01 0.15685703E+04</pdfrwt>
<pdfrwt beam="2">  1       -2 0.15153454E+00 0.15685703E+04</pdfrwt>
<totfact> 0.15525376E+01</totfact>
</mgrwt>
<rwgt>
<wgt id='morphing_basis_vector_1'> +1.3160618e-04 </wgt>
<wgt id='morphing_basis_vector_2'> +8.6349468e-05 </wgt>
<wgt id='morphing_basis_vector_3'> +1.3729147e-04 </wgt>
<wgt id='morphing_basis_vector_4'> +9.3264858e-05 </wgt>
<wgt id='morphing_basis_vector_5'> +1.4844395e-04 </wgt>
</rwgt>
</event>
<event>
 4      1 +1.5130300e-07 1.81371100e+03 7.81860800e-03 8.15267000e-02
        2 -1    0    0  501    0 +0.0000000000e+00 +0.0000000000e+00 +2.2914686131e+03 2.2914686131e+03 0.0000000000e+00 0.0000e+00 -1.0000e+00
       -2 -1    0    0    0  501 -0.0000000000e+00 -0.0000000000e+00 -3.5889067147e+02 3.5889067147e+02 0.0000000000e+00 0.0000e+00 1.0000e+00
      -13  1    1    2    0    0 +3.7182478253e+02 +7.9269114418e+02 +1.3113944016e+03 1.5768221826e+03 0.0000000000e+00 0.0000e+00 1.0000e+00
       13  1    1    2    0    0 -3.7182478253e+02 -7.9269114418e+02 +6.2118354007e+02 1.0735371020e+03 0.0000000000e+00 0.0000e+00 -1.0000e+00
<mgrwt>
<rscale>  0 0.18137108E+04</rscale>
<asrwt>0</asrwt>
<pdfrwt beam="1">  1        2 0.35253362E+00 0.18137108E+04</pdfrwt>
<pdfrwt beam="2">  1       -2 0.55213951E-01 0.18137108E+04</pdfrwt>
<totfact> 0.16763013E+01</totfact>
</mgrwt>
<rwgt>
<wgt id='morphing_basis_vector_1'> +2.5205781e-04 </wgt>
<wgt id='morphing_basis_vector_2'> +2.1447425e-04 </wgt>
<wgt id='morphing_basis_vector_3'> +2.7421943e-04 </wgt>
<wgt id='morphing_basis_vector_4'> +1.2906963e-04 </wgt>
<wgt id='morphing_basis_vector_5'> +2.6667763e-04 </wgt>
</rwgt>
</event>
<event>
 4      1 +1.5130300e-07 1.62784400e+03 7.81860800e-03 8.24430700e-02
        2 -1    0    0  501    0 +0.0000000000e+00 +0.0000000000e+00 +1.9697926652e+03 1.9697926652e+03 0.0000000000e+00 0.0000e+00 1.0000e+00
       -2 -1    0    0    0  501 -0.0000000000e+00 -0.0000000000e+00 -3.3631410396e+02 3.3631410396e+02 0.0000000000e+00 0.0000e+00 -1.0000e+00
      -13  1    1    2    0    0 -6.8603782438e+02 -3.5559891151e+02 +4.5453151110e+02 8.9649170489e+02 0.0000000000e+00 0.0000e+00 -1.0000e+00
       13  1    1    2    0    0 +6.8603782438e+02 +3.5559891151e+02 +1.1789470501e+03 1.4096150643e+03 0.0000000000e+00 0.0000e+00 1.0000e+00
<mgrwt>
<rscale>  0 0.16278440E+04</rscale>
<asrwt>0</asrwt>
<pdfrwt beam="1">  1        2 0.30304502E+00 0.16278440E+04</pdfrwt>
<pdfrwt beam="2">  1       -2 0.51740632E-01 0.16278440E+04</pdfrwt>
<totfact> 0.29545688E+01</totfact>
</mgrwt>
<rwgt>
<wgt id='morphing_basis_vector_1'> +1.5356141e-04 </wgt>
<wgt id='morphing_basis_vector_2'> +1.0475418e-04 </wgt>
<wgt id='morphing_basis_vector_3'> +1.6136971e-04 </wgt>
<wgt id='morphing_basis_vector_4'> +1.0559674e-04 </wgt>
<wgt id='morphing_basis_vector_5'> +1.7277081e-04 </wgt>
</rwgt>
</event>
<event>
 4      1 +1.5130300e-07 1.62044400e+03 7.81860800e-03 8.24821200e-02
        2 -1    0    0  501    0 +0.0000000000e+00 +0.0000000000e+00 +5.8868480067e+02 5.8868480067e+02 0.0000000000e+00 0.0000e+00 -1.0000e+00
       -2 -1    0    0    0  501 -0.0000000000e+00 -0.0000000000e+00 -1.1151288123e+03 1.1151288123e+03 0.0000000000e+00 0.0000e+00 1.0000e+00
      -13  1    1    2    0    0 +7.4645152822e+02 +1.3251346616e+02 -5.6377766705e+02 9.4477243851e+02 0.0000000000e+00 0.0000e+00 1.0000e+00
       13  1    1    2    0    0 -7.4645152822e+02 -1.3251346616e+02 +3.7333655422e+01 7.5904117446e+02 0.0000000000e+00 0.0000e+00 -1.0000e+00
<mgrwt>
<rscale>  0 0.16204436E+04</rscale>
<asrwt>0</asrwt>
<pdfrwt beam="1">  1        2 0.90566894E-01 0.16204436E+04</pdfrwt>
<pdfrwt beam="2">  1       -2 0.17155828E+00 0.16204436E+04</pdfrwt>
<totfact> 0.11469365E+01</totfact>
</mgrwt>
<rwgt>
<wgt id='morphing_basis_vector_1'> +1.5062241e-04 </wgt>
<wgt id='morphing_basis_vector_2'> +1.0214889e-04 </wgt>
<wgt id='morphing_basis_vector_3'> +1.5812314e-04 </wgt>
<wgt id='morphing_basis_vector_4'> +1.0410794e-04 </wgt>
<wgt id='morphing_basis_vector_5'> +1.6959109e-04 </wgt>
</rwgt>
</event>
<event>
 4      1 +1.5130300e-07 1.65664000e+03 7.81860800e-03 8.22931200e-02
        2 -1    0    0  501    0 +0.0000000000e+00 +0.0000000000e+00 +2.0044108203e+03 2.0044108203e+03 0.0000000000e+00 0.0000e+00 -1.0000e+00
       -2 -1    0    0    0  501 -0.0000000000e+00 -0.0000000000e+00 -3.4230226266e+02 3.4230226266e+02 0.0000000000e+00 0.0000e+00 1.0000e+00
      -13  1    1    2    0    0 +1.3711531378e+02 -8.1689245081e+02 +8.3007941704e+02 1.1726660753e+03 0.0000000000e+00 0.0000e+00 1.0000e+00
       13  1    1    2    0    0 -1.3711531378e+02 +8.1689245081e+02 +8.3202914059e+02 1.1740470077e+03 0.0000000000e+00 0.0000e+00 -1.0000e+00
<mgrwt>
<rscale>  0 0.16566404E+04</rscale>
<asrwt>0</asrwt>
<pdfrwt beam="1">  1        2 0.30837089E+00 0.16566404E+04</pdfrwt>
<pdfrwt beam="2">  1       -2 0.52661888E-01 0.16566404E+04</pdfrwt>
<totfact> 0.27213483E+01</totfact>
</mgrwt>
<rwgt>
<wgt id='morphing_basis_vector_1'> +1.6854684e-04 </wgt>
<wgt id='morphing_basis_vector_2'> +1.2465260e-04 </wgt>
<wgt id='morphing_basis_vector_3'> +1.7878015e-04 </wgt>
<wgt id='morphing_basis_vector_4'> +1.0550872e-04 </wgt>
<wgt id='morphing_basis_vector_5'> +1.8510763e-04 </wgt>
</rwgt>
</event>
<event>
 4      1 +1.5130300e-07 1.61406600e+03 7.81860800e-03 8.25159500e-02
        2 -1    0    0  501    0 +0.0000000000e+00 +0.0000000000e+00 +2.3988161352e+03 2.3988161352e+03 0.0000000000e+00 0.0000e+00 -1.0000e+00
       -2 -1    0    0    0  501 -0.0000000000e+00 -0.0000000000e+00 -2.7150989484e+02 2.7150989484e+02 0.0000000000e+00 0.0000e+00 1.0000e+00
      -13  1    1    2    0    0 -3.3960295755e+02 -1.5251617513e+02 -1.2096749060e+02 3.9143899427e+02 0.0000000000e+00 0.0000e+00 1.0000e+00
       13  1    1    2    0    0 +3.3960295755e+02 +1.5251617513e+02 +2.2482737310e+03 2.2788870358e+03 0.0000000000e+00 0.0000e+00 -1.0000e+00
<mgrwt>
<rscale>  0 0.16140661E+04</rscale>
<asrwt>0</asrwt>
<pdfrwt beam="1">  1        2 0.36904862E+00 0.16140661E+04</pdfrwt>
<pdfrwt beam="2">  1       -2 0.41770755E-01 0.16140661E+04</pdfrwt>
<totfact> 0.25441436E+01</totfact>
</mgrwt>
<rwgt>
<wgt id='morphing_basis_vector_1'> +1.4703155e-04 </wgt>
<wgt id='morphing_basis_vector_2'> +9.6690442e-05 </wgt>
<wgt id='morphing_basis_vector_3'> +1.5388635e-04 </wgt>
<wgt id='morphing_basis_vector_4'> +1.0491512e-04 </wgt>
<wgt id='morphing_basis_vector_5'> +1.6704316e-04 </wgt>
</rwgt>
</event>
<event>
 4      1 +1.5130300e-07 1.58836400e+03 7.81860800e-03 8.26539200e-02
        2 -1    0    0  501    0 +0.0000000000e+00 +0.0000000000e+00 +6.8571639513e+02 6.8571639513e+02 0.0000000000e+00 0.0000e+00 -1.0000e+00
       -2 -1    0    0    0  501 -0.0000000000e+00 -0.0000000000e+00 -9.1980480995e+02 9.1980480995e+02 0.0000000000e+00 0.0000e+00 1.0000e+00
      -13  1    1    2    0    0 +2.0874453168e+02 +7.0687475608e+02 +1.8191913839e+02 7.5917110930e+02 0.0000000000e+00 0.0000e+00 1.0000e+00
       13  1    1    2    0    0 -2.0874453168e+02 -7.0687475608e+02 -4.1600755321e+02 8.4635009577e+02 0.0000000000e+00 0.0000e+00 -1.0000e+00
<mgrwt>
<rscale>  0 0.15883642E+04</rscale>
<asrwt>0</asrwt>
<pdfrwt beam="1">  1        2 0.10549483E+00 0.15883642E+04</pdfrwt>
<pdfrwt beam="2">  1       -2 0.14150843E+00 0.15883642E+04</pdfrwt>
<totfact> 0.16803878E+01</totfact>
</mgrwt>
<rwgt>
<wgt id='morphing_basis_vector_1'> +1.5566229e-04 </wgt>
<wgt id='morphing_basis_vector_2'> +1.4283444e-04 </wgt>
<wgt id='morphing_basis_vector_3'> +1.6787564e-04 </wgt>
<wgt id='morphing_basis_vector_4'> +6.5021934e-05 </wgt>
<wgt id='morphing_basis_vector_5'> +1.5383491e-04 </wgt>
</rwgt>
</event>
<event>
 4      1 +1.5130300e-07 1.75534700e+03 7.81860800e-03 8.18018800e-02
        2 -1    0    0  501    0 +0.0000000000e+00 +0.0000000000e+00 +2.3670526458e+03 2.3670526458e+03 0.0000000000e+00 0.0000e+00 -1.0000e+00
       -2 -1    0    0    0  501 -0.0000000000e+00 -0.0000000000e+00 -3.2543047366e+02 3.2543047366e+02 0.0000000000e+00 0.0000e+00 1.0000e+00
      -13  1    1    2    0    0 -7.6184989492e+02 +6.6924994678e+01 +1.6812984614e+03 1.8470676039e+03 0.0000000000e+00 0.0000e+00 -1.0000e+00
       13  1    1    2    0    0 +7.6184989492e+02 -6.6924994678e+01 +3.6032371074e+02 8.4541551549e+02 0.0000000000e+00 0.0000e+00 1.0000e+00
<mgrwt>
<rscale>  0 0.17553473E+04</rscale>
<asrwt>0</asrwt>
<pdfrwt beam="1">  1        2 0.36416193E+00 0.17553473E+04</pdfrwt>
<pdfrwt beam="2">  1       -2 0.50066228E-01 0.17553473E+04</pdfrwt>
<totfact> 0.18501915E+01</totfact>
</mgrwt>
<rwgt>
<wgt id='morphing_basis_vector_1'> +2.4013635e-04 </wgt>
<wgt id='morphing_basis_vector_2'> +2.4278333e-04 </wgt>
<wgt id='morphing_basis_vector_3'> +2.6599348e-04 </wgt>
<wgt id='morphing_basis_vector_4'> +7.7439315e-05 </wgt>
<wgt id='morphing_basis_vector_5'> +2.3047960e-04 </wgt>
</rwgt>
</event>
<event>
 4      1 +1.5130300e-07 1.85227000e+03 7.81860800e-03 8.13507000e-02
        2 -1    0    0  501    0 +0.0000000000e+00 +0.0000000000e+00 +6.4556759845e+02 6.4556759845e+02 0.0000000000e+00 0.0000e+00 -1.0000e+00
       -2 -1    0    0    0  501 -0.0000000000e+00 -0.0000000000e+00 -1.3286382253e+03 1.3286382253e+03 0.0000000000e+00 0.0000e+00 1.0000e+00
      -13  1    1    2    0    0 -1.2974914851e+02 -6.8896458262e+02 -9.8653349100e+02 1.2102707823e+03 0.0000000000e+00 0.0000e+00 1.0000e+00
       13  1    1    2    0    0 +1.2974914851e+02 +6.8896458262e+02 +3.0346286414e+02 7.6393504145e+02 0.0000000000e+00 0.0000e+00 -1.0000e+00
<mgrwt>
<rscale>  0 0.18522697E+04</rscale>
<asrwt>0</asrwt>
<pdfrwt beam="1">  1        2 0.99318093E-01 0.18522697E+04</pdfrwt>
<pdfrwt beam="2">  1       -2 0.20440588E+00 0.18522697E+04</pdfrwt>
<totfact> 0.57226719E+00</totfact>
</mgrwt>
<rwgt>
<wgt id='morphing_basis_vector_1'> +2.5165815e-04 </wgt>
<wgt id='morphing_basis_vector_2'> +1.6783264e-04 </wgt>
<wgt id='morphing_basis_vector_3'> +2.6710459e-04 </wgt>
<wgt id='morphing_basis_vector_4'> +1.8380164e-04 </wgt>
<wgt id='morphing_basis_vector_5'> +2.9402502e-04 </wgt>
</rwgt>
</event>
<event>
 4      1 +1.5130300e-07 1.72045700e+03 7.81860800e-03 8.19716600e-02
        2 -1    0    0  501    0 +0.0000000000e+00 +0.0000000000e+00 +1.3360996195e+03 1.3360996195e+03 0.0000000000e+00 0.0000e+00 -1.0000e+00
       -2 -1    0    0    0  501 -0.0000000000e+00 -0.0000000000e+00 -5.5384600093e+02 5.5384600093e+02 0.0000000000e+00 0.0000e+00 1.0000e+00
      -13  1    1    2    0    0 -5.1956190460e+02 -6.8554144594e+02 +3.8119243906e+02 9.4086094744e+02 0.0000000000e+00 0.0000e+00 1.0000e+00
       13  1    1    2    0    0 +5.1956190460e+02 +6.8554144594e+02 +4.0106117952e+02 9.4908467300e+02 0.0000000000e+00 0.0000e+00 -1.0000e+00
<mgrwt>
<rscale>  0 0.17204574E+04</rscale>
<asrwt>0</asrwt>
<pdfrwt beam="1">  1        2 0.20555379E+00 0.17204574E+04</pdfrwt>
<pdfrwt beam="2">  1       -2 0.85207077E-01 0.17204574E+04</pdfrwt>
<totfact> 0.22964550E+01</totfact>
</mgrwt>
<rwgt>
<wgt id='morphing_basis_vector_1'> +1.9499557e-04 </wgt>
<wgt id='morphing_basis_vector_2'> +1.4398048e-04 </wgt>
<wgt id='morphing_basis_vector_3'> +2.0765869e-04 </wgt>
<wgt id='morphing_basis_vector_4'> +1.2368000e-04 </wgt>
<wgt id='morphing_basis_vector_5'> +2.1627759e-04 </wgt>
</rwgt>
</event>
<event>
 4      1 +1.5130300e-07 1.57950900e+03 7.81860800e-03 8.27020800e-02
        2 -1    0    0  501    0 +0.0000000000e+00 +0.0000000000e+00 +2.1234583812e+03 2.1234583812e+03 0.0000000000e+00 0.0000e+00 -1.0000e+00
       -2 -1    0    0    0  501 -0.0000000000e+00 -0.0000000000e+00 -2.9372477680e+02 2.9372477680e+02 0.0000000000e+00 0.0000e+00 1.0000e+00
      -13  1    1    2    0    0 -7.2740126721e+02 -2.6728492766e+01 +4.4596030670e+02 8.5364372604e+02 0.0000000000e+00 0.0000e+00 1.0000e+00
       13  1    1    2    0    0 +7.2740126721e+02 +2.6728492766e+01 +1.3837732977e+03 1.5635394320e+03 0.0000000000e+00 0.0000e+00 -1.0000e+00
<mgrwt>
<rscale>  0 0.15795092E+04</rscale>
<asrwt>0</asrwt>
<pdfrwt beam="1">  1        2 0.32668590E+00 0.15795092E+04</pdfrwt>
<pdfrwt beam="2">  1       -2 0.45188428E-01 0.15795092E+04</pdfrwt>
<totfact> 0.31645864E+01</totfact>
</mgrwt>
<rwgt>
<wgt id='morphing_basis_vector_1'> +1.3622454e-04 </wgt>
<wgt id='morphing_basis_vector_2'> +9.1813430e-05 </wgt>
<wgt id='morphing_basis_vector_3'> +1.4253027e-04 </wgt>
<wgt id='morphing_basis_vector_4'> +9.4028745e-05 </wgt>
<wgt id='morphing_basis_vector_5'> +1.5262154e-04 </wgt>
</rwgt>
</event>
<event>
 4      1 +1.5130300e-07 1.84664900e+03 7.81860800e-03 8.13760700e-02
        2 -1    0    0  501    0 +0.0000000000e+00 +0.0000000000e+00 +1.3605065122e+03 1.3605065122e+03 0.0000000000e+00 0.0000e+00 1.0000e+00
       -2 -1    0    0    0  501 -0.0000000000e+00 -0.0000000000e+00 -6.2662579752e+02 6.2662579752e+02 0.0000000000e+00 0.0000e+00 -1.0000e+00
      -13  1    1    2    0    0 +4.4238623331e+02 -3.9416546921e+01 -5.0412798552e+02 6.7186625855e+02 0.0000000000e+00 0.0000e+00 -1.0000e+00
       13  1    1    2    0    0 -4.4238623331e+02 +3.9416546921e+01 +1.2380087002e+03 1.3152660512e+03 0.0000000000e+00 0.0000e+00 1.0000e+00
<mgrwt>
<rscale>  0 0.18466494E+04</rscale>
<asrwt>0</asrwt>
<pdfrwt beam="1">  1        2 0.20930869E+00 0.18466494E+04</pdfrwt>
<pdfrwt beam="2">  1       -2 0.96403969E-01 0.18466494E+04</pdfrwt>
<totfact> 0.16484347E+01</totfact>
</mgrwt>
<rwgt>
<wgt id='morphing_basis_vector_1'> +2.4829226e-04 </wgt>
<wgt id='morphing_basis_vector_2'> +1.6464966e-04 </wgt>
<wgt id='morphing_basis_vector_3'> +2.6331971e-04 </wgt>
<wgt id='morphing_basis_vector_4'> +1.8230832e-04 </wgt>
<wgt id='morphing_basis_vector_5'> +2.9044966e-04 </wgt>
</rwgt>
</event>
<event>
 4      1 +1.5130300e-07 1.58680900e+03 7.81860800e-03 8.26623600e-02
        2 -1    0    0  501    0 +0.0000000000e+00 +0.0000000000e+00 +6.0777076534e+02 6.0777076534e+02 0.0000000000e+00 0.0000e+00 1.0000e+00
       -2 -1    0    0    0  501 -0.0000000000e+00 -0.0000000000e+00 -1.0357365497e+03 1.0357365497e+03 0.0000000000e+00 0.0000e+00 -1.0000e+00
      -13  1    1    2    0    0 -6.9233502845e+02 -3.8624311826e+02 -2.4638750364e+02 8.3019174892e+02 0.0000000000e+00 0.0000e+00 -1.0000e+00
       13  1    1    2    0    0 +6.9233502845e+02 +3.8624311826e+02 -1.8157828068e+02 8.1331556609e+02 0.0000000000e+00 0.0000e+00 1.0000e+00
<mgrwt>
<rscale>  0 0.15868086E+04</rscale>
<asrwt>0</asrwt>
<pdfrwt beam="1">  1        2 0.93503196E-01 0.15868086E+04</pdfrwt>
<pdfrwt beam="2">  1       -2 0.15934408E+00 0.15868086E+04</pdfrwt>
<totfact> 0.13827787E+01</totfact>
</mgrwt>
<rwgt>
<wgt id='morphing_basis_vector_1'> +1.4196158e-04 </wgt>
<wgt id='morphing_basis_vector_2'> +1.0326733e-04 </wgt>
<wgt id='morphing_basis_vector_3'> +1.4958982e-04 </wgt>
<wgt id='morphing_basis_vector_4'> +8.9611490e-05 </wgt>
<wgt id='morphing_basis_vector_5'> +1.5508677e-04 </wgt>
</rwgt>
</event>
<event>
 4      1 +1.5130300e-07 1.67292500e+03 7.81860800e-03 8.22097000e-02
        2 -1    0    0  501    0 +0.0000000000e+00 +0.0000000000e+00 +1.7005846397e+03 1.7005846397e+03 0.0000000000e+00 0.0000e+00 -1.0000e+00
       -2 -1    0    0    0  501 -0.0000000000e+00 -0.0000000000e+00 -4.1142857281e+02 4.1142857281e+02 0.0000000000e+00 0.0000e+00 1.0000e+00
      -13  1    1    2    0    0 -3.9535619605e+02 -2.5301510371e+01 -2.8547811272e+02 4.8830773189e+02 0.0000000000e+00 0.0000e+00 1.0000e+00
       13  1    1    2    0    0 +3.9535619605e+02 +2.5301510371e+01 +1.5746341797e+03 1.6237054807e+03 0.0000000000e+00 0.0000e+00 -1.0000e+00
<mgrwt>
<rscale>  0 0.16729245E+04</rscale>
<asrwt>0</asrwt>
<pdfrwt beam="1">  1        2 0.26162840E+00 0.16729245E+04</pdfrwt>
<pdfrwt beam="2">  1       -2 0.63296705E-01 0.16729245E+04</pdfrwt>
<totfact> 0.27617140E+01</totfact>
</mgrwt>
<rwgt>
<wgt id='morphing_basis_vector_1'> +1.6896409e-04 </wgt>
<wgt id='morphing_basis_vector_2'> +1.1138661e-04 </wgt>
<wgt id='morphing_basis_vector_3'> +1.7752269e-04 </wgt>
<wgt id='morphing_basis_vector_4'> +1.2157382e-04 </wgt>
<wgt id='morphing_basis_vector_5'> +1.9360857e-04 </wgt>
</rwgt>
</event>
<event>
 4      1 +1.5130300e-07 1.73929100e+03 7.81860800e-03 8.18795100e-02
        2 -1    0    0  501    0 +0.0000000000e+00 +0.0000000000e+00 +1.0477540962e+03 1.0477540962e+03 0.0000000000e+00 0.0000e+00 1.0000e+00
       -2 -1    0    0    0  501 -0.0000000000e+00 -0.0000000000e+00 -7.2181393855e+02 7.2181393855e+02 0.0000000000e+00 0.0000e+00 -1.0000e+00
      -13  1    1    2    0    0 +6.5425247586e+02 +1.5004529313e+02 -3.9957774486e+02 7.8116724608e+02 0.0000000000e+00 0.0000e+00 -1.0000e+00
       13  1    1    2    0    0 -6.5425247586e+02 -1.5004529313e+02 +7.2551790250e+02 9.8840078865e+02 0.0000000000e+00 0.0000e+00 1.0000e+00
<mgrwt>
<rscale>  0 0.17392912E+04</rscale>
<asrwt>0</asrwt>
<pdfrwt beam="1">  1        2 0.16119294E+00 0.17392912E+04</pdfrwt>
<pdfrwt beam="2">  1       -2 0.11104830E+00 0.17392912E+04</pdfrwt>
<totfact> 0.17945562E+01</totfact>
</mgrwt>
<rwgt>
<wgt id='morphing_basis_vector_1'> +1.9692930e-04 </wgt>
<wgt id='morphing_basis_vector_2'> +1.3096934e-04 </wgt>
<wgt id='morphing_basis_vector_3'> +2.0783290e-04 </wgt>
<wgt id='morphing_basis_vector_4'> +1.4194170e-04 </wgt>
<wgt id='morphing_basis_vector_5'> +2.2713992e-04 </wgt>
</rwgt>
</event>
<event>
 4      1 +1.5130300e-07 1.72533200e+03 7.81860800e-03 8.19476900e-02
        2 -1    0    0  501    0 +0.0000000000e+00 +0.0000000000e+00 +1.2037394968e+03 1.2037394968e+03 0.0000000000e+00 0.0000e+00 -1.0000e+00
       -2 -1    0    0    0  501 -0.0000000000e+00 -0.0000000000e+00 -6.1823368519e+02 6.1823368519e+02 0.0000000000e+00 0.0000e+00 1.0000e+00
      -13  1    1    2    0    0 -1.5367654561e+01 -6.9331141213e+02 -2.4909145663e+02 7.3686052463e+02 0.0000000000e+00 0.0000e+00 1.0000e+00
       13  1    1    2    0    0 +1.5367654561e+01 +6.9331141213e+02 +8.3459726821e+02 1.0851126573e+03 0.0000000000e+00 0.0000e+00 -1.0000e+00
<mgrwt>
<rscale>  0 0.17253316E+04</rscale>
<asrwt>0</asrwt>
<pdfrwt beam="1">  1        2 0.18519069E+00 0.17253316E+04</pdfrwt>
<pdfrwt beam="2">  1       -2 0.95112875E-01 0.17253316E+04</pdfrwt>
<totfact> 0.21163847E+01</totfact>
</mgrwt>
<rwgt>
<wgt id='morphing_basis_vector_1'> +1.9096125e-04 </wgt>
<wgt id='morphing_basis_vector_2'> +1.2720170e-04 </wgt>
<wgt id='morphing_basis_vector_3'> +2.0141402e-04 </wgt>
<wgt id='morphing_basis_vector_4'> +1.3710350e-04 </wgt>
<wgt id='morphing_basis_vector_5'> +2.1972654e-04 </wgt>
</rwgt>
</event>
<event>
 4      1 +1.5130300e-07 1.66073000e+03 7.81860800e-03 8.22720800e-02
        2 -1    0    0  501    0 +0.0000000000e+00 +0.0000000000e+00 +3.6022140693e+03 3.6022140693e+03 0.0000000000e+00 0.0000e+00 1.0000e+00
       -2 -1    0    0    0  501 -0.0000000000e+00 -0.0000000000e+00 -1.9141171222e+02 1.9141171222e+02 0.0000000000e+00 0.0000e+00 -1.0000e+00
      -13  1    1    2    0    0 -5.7183551247e+02 -1.5117215950e+02 +3.7410152168e+02 6.9985771672e+02 0.0000000000e+00 0.0000e+00 -1.0000e+00
       13  1    1    2    0    0 +5.7183551247e+02 +1.5117215950e+02 +3.0367008354e+03 3.0937680649e+03 0.0000000000e+00 0.0000e+00 1.0000e+00
<mgrwt>
<rscale>  0 0.16607299E+04</rscale>
<asrwt>0</asrwt>
<pdfrwt beam="1">  1        2 0.55418673E+00 0.16607299E+04</pdfrwt>
<pdfrwt beam="2">  1       -2 0.29447958E-01 0.16607299E+04</pdfrwt>
<totfact> 0.78342453E+00</totfact>
</mgrwt>
<rwgt>
<wgt id='morphing_basis_vector_1'> +1.6440596e-04 </wgt>
<wgt id='morphing_basis_vector_2'> +1.0873825e-04 </wgt>
<wgt id='morphing_basis_vector_3'> +1.7265829e-04 </wgt>
<wgt id='morphing_basis_vector_4'> +1.1763224e-04 </wgt>
<wgt id='morphing_basis_vector_5'> +1.8783802e-04 </wgt>
</rwgt>
</event>
<event>
 4      1 +1.5130300e-07 1.58697000e+03 7.81860800e-03 8.26614900e-02
        2 -1    0    0  501    0 +0.0000000000e+00 +0.0000000000e+00 +6.3578746403e+02 6.3578746403e+02 0.0000000000e+00 0.0000e+00 -1.0000e+00
       -2 -1    0    0    0  501 -0.0000000000e+00 -0.0000000000e+00 -9.9029655820e+02 9.9029655820e+02 0.0000000000e+00 0.0000e+00 1.0000e+00
      -13  1    1    2    0    0 +3.6645489191e+01 +4.4719096189e+02 -8.4782763804e+02 9.5923633797e+02 0.0000000000e+00 0.0000e+00 1.0000e+00
       13  1    1    2    0    0 -3.6645489191e+01 -4.4719096189e+02 +4.9331854386e+02 6.6684768425e+02 0.0000000000e+00 0.0000e+00 -1.0000e+00
<mgrwt>
<rscale>  0 0.15869696E+04</rscale>
<asrwt>0</asrwt>
<pdfrwt beam="1">  1        2 0.97813456E-01 0.15869696E+04</pdfrwt>
<pdfrwt beam="2">  1       -2 0.15235332E+00 0.15869696E+04</pdfrwt>
<totfact> 0.14940226E+01</totfact>
</mgrwt>
<rwgt>
<wgt id='morphing_basis_vector_1'> +1.3772604e-04 </wgt>
<wgt id='morphing_basis_vector_2'> +9.0536680e-05 </wgt>
<wgt id='morphing_basis_vector_3'> +1.4388192e-04 </wgt>
<wgt id='morphing_basis_vector_4'> +9.7783241e-05 </wgt>
<wgt id='morphing_basis_vector_5'> +1.5576464e-04 </wgt>
</rwgt>
</event>
<event>
 4      1 +1.5130300e-07 1.63067100e+03 7.81860800e-03 8.24282100e-02
        2 -1    0    0  501    0 +0.0000000000e+00 +0.0000000000e+00 +4.7950664495e+02 4.7950664495e+02 0.0000000000e+00 0.0000e+00 1.0000e+00
       -2 -1    0    0    0  501 -0.0000000000e+00 -0.0000000000e+00 -1.3863660245e+03 1.3863660245e+03 0.0000000000e+00 0.0000e+00 -1.0000e+00
      -13  1    1    2    0    0 -7.6759191775e+02 -1.7742370310e+02 -6.9370624130e+02 1.0497165674e+03 0.0000000000e+00 0.0000e+00 -1.0000e+00
       13  1    1    2    0    0 +7.6759191775e+02 +1.7742370310e+02 -2.1315313828e+02 8.1615610209e+02 0.0000000000e+00 0.0000e+00 1.0000e+00
<mgrwt>
<rscale>  0 0.16306707E+04</rscale>
<asrwt>0</asrwt>
<pdfrwt beam="1">  1        2 0.73770253E-01 0.16306707E+04</pdfrwt>
<pdfrwt beam="2">  1       -2 0.21328708E+00 0.16306707E+04</pdfrwt>
<totfact> 0.71108299E+00</totfact>
</mgrwt>
<rwgt>
<wgt id='morphing_basis_vector_1'> +1.5503892e-04 </wgt>
<wgt id='morphing_basis_vector_2'> +1.0678321e-04 </wgt>
<wgt id='morphing_basis_vector_3'> +1.6309034e-04 </wgt>
<wgt id='morphing_basis_vector_4'> +1.0551307e-04 </wgt>
<wgt id='morphing_basis_vector_5'> +1.7394714e-04 </wgt>
</rwgt>
</event>
<event>
 4      1 +1.5130300e-07 1.71214500e+03 7.81860800e-03 8.20127100e-02
        2 -1    0    0  501    0 +0.0000000000e+00 +0.0000000000e+00 +2.1591148518e+03 2.1591148518e+03 0.0000000000e+00 0.0000e+00 -1.0000e+00
       -2 -1    0    0    0  501 -0.0000000000e+00 -0.0000000000e+00 -3.3942621945e+02 3.3942621945e+02 0.0000000000e+00 0.0000e+00 1.0000e+00
      -13  1    1    2    0    0 +9.9244626487e+01 +3.9890115927e+02 -1.8598413900e+02 4.5117815850e+02 0.0000000000e+00 0.0000e+00 1.0000e+00
       13  1    1    2    0    0 -9.9244626487e+01 -3.9890115927e+02 +2.0056727713e+03 2.0473629127e+03 0.0000000000e+00 0.0000e+00 -1.0000e+00
<mgrwt>
<rscale>  0 0.17121451E+04</rscale>
<asrwt>0</asrwt>
<pdfrwt beam="1">  1        2 0.33217151E+00 0.17121451E+04</pdfrwt>
<pdfrwt beam="2">  1       -2 0.52219420E-01 0.17121451E+04</pdfrwt>
<totfact> 0.22518001E+01</totfact>
</mgrwt>
<rwgt>
<wgt id='morphing_basis_vector_1'> +1.8489671e-04 </wgt>
<wgt id='morphing_basis_vector_2'> +1.2207333e-04 </wgt>
<wgt id='morphing_basis_vector_3'> +1.9472018e-04 </wgt>
<wgt id='morphing_basis_vector_4'> +1.3371611e-04 </wgt>
<wgt id='morphing_basis_vector_5'> +2.1297245e-04 </wgt>
</rwgt>
</event>
<event>
 4      1 +1.5130300e-07 1.63824200e+03 7.81860800e-03 8.23885600e-02
        2 -1    0    0  501    0 +0.0000000000e+00 +0.0000000000e+00 +2.7659792877e+03 2.7659792877e+03 0.0000000000e+00 0.0000e+00 -1.0000e+00
       -2 -1    0    0    0  501 -0.0000000000e+00 -0.0000000000e+00 -2.4257575339e+02 2.4257575339e+02 0.0000000000e+00 0.0000e+00 1.0000e+00
      -13  1    1    2    0    0 -9.4807571931e+01 -4.3588518890e+02 +5.0380250469e-02 4.4607664827e+02 0.0000000000e+00 0.0000e+00 1.0000e+00
       13  1    1    2    0    0 +9.4807571931e+01 +4.3588518890e+02 +2.5233531541e+03 2.5624783929e+03 0.0000000000e+00 0.0000e+00 -1.0000e+00
<mgrwt>
<rscale>  0 0.16382424E+04</rscale>
<asrwt>0</asrwt>
<pdfrwt beam="1">  1        2 0.42553525E+00 0.16382424E+04</pdfrwt>
<pdfrwt beam="2">  1       -2 0.37319348E-01 0.16382424E+04</pdfrwt>
<totfact> 0.18828018E+01</totfact>
</mgrwt>
<rwgt>
<wgt id='morphing_basis_vector_1'> +1.5578624e-04 </wgt>
<wgt id='morphing_basis_vector_2'> +1.0261127e-04 </wgt>
<wgt id='morphing_basis_vector_3'> +1.6332251e-04 </wgt>
<wgt id='morphing_basis_vector_4'> +1.1149021e-04 </wgt>
<wgt id='morphing_basis_vector_5'> +1.7759991e-04 </wgt>
</rwgt>
</event>
<event>
 4      1 +1.5130300e-07 1.60245600e+03 7.81860800e-03 8.25779500e-02
        2 -1    0    0  501    0 +0.0000000000e+00 +0.0000000000e+00 +6.4994532447e+02 6.4994532447e+02 0.0000000000e+00 0.0000e+00 -1.0000e+00
       -2 -1    0    0    0  501 -0.0000000000e+00 -0.0000000000e+00 -9.8772386269e+02 9.8772386269e+02 0.0000000000e+00 0.0000e+00 1.0000e+00
      -13  1    1    2    0    0 +6.8920638382e+02 +4.0236506135e+02 -2.4161065703e+02 8.3383379140e+02 0.0000000000e+00 0.0000e+00 1.0000e+00
       13  1    1    2    0    0 -6.8920638382e+02 -4.0236506135e+02 -9.6167881193e+01 8.0383539576e+02 0.0000000000e+00 0.0000e+00 -1.0000e+00
<mgrwt>
<rscale>  0 0.16024562E+04</rscale>
<asrwt>0</asrwt>
<pdfrwt beam="1">  1        2 0.99991589E-01 0.16024562E+04</pdfrwt>
<pdfrwt beam="2">  1       -2 0.15195752E+00 0.16024562E+04</pdfrwt>
<totfact> 0.14641921E+01</totfact>
</mgrwt>
<rwgt>
<wgt id='morphing_basis_vector_1'> +1.4670990e-04 </wgt>
<wgt id='morphing_basis_vector_2'> +1.0509066e-04 </wgt>
<wgt id='morphing_basis_vector_3'> +1.5456233e-04 </wgt>
<wgt id='morphing_basis_vector_4'> +9.4740843e-05 </wgt>
<wgt id='morphing_basis_vector_5'> +1.6160477e-04 </wgt>
</rwgt>
</event>
<event>
 4      1 +1.5130300e-07 1.85204100e+03 7.81860800e-03 8.13517300e-02
        2 -1    0    0  501    0 +0.0000000000e+00 +0.0000000000e+00 +9.8448058992e+02 9.8448058992e+02 0.0000000000e+00 0.0000e+00 1.0000e+00
       -2 -1    0    0    0  501 -0.0000000000e+00 -0.0000000000e+00 -8.7103229406e+02 8.7103229406e+02 0.0000000000e+00 0.0000e+00 -1.0000e+00
      -13  1    1    2    0    0 +7.7350715372e+02 -1.8703495233e+02 -4.1768108767e+02 8.9875073366e+02 0.0000000000e+00 0.0000e+00 -1.0000e+00
       13  1    1    2    0    0 -7.7350715372e+02 +1.8703495233e+02 +5.3112938353e+02 9.5676215033e+02 0.0000000000e+00 0.0000e+00 1.0000e+00
<mgrwt>
<rscale>  0 0.18520415E+04</rscale>
<asrwt>0</asrwt>
<pdfrwt beam="1">  1        2 0.15145855E+00 0.18520415E+04</pdfrwt>
<pdfrwt beam="2">  1       -2 0.13400497E+00 0.18520415E+04</pdfrwt>
<totfact> 0.11906119E+01</totfact>
</mgrwt>
<rwgt>
<wgt id='morphing_basis_vector_1'> +2.5214373e-04 </wgt>
<wgt id='morphing_basis_vector_2'> +1.6954982e-04 </wgt>
<wgt id='morphing_basis_vector_3'> +2.6783705e-04 </wgt>
<wgt id='morphing_basis_vector_4'> +1.8251817e-04 </wgt>
<wgt id='morphing_basis_vector_5'> +2.9378390e-04 </wgt>
</rwgt>
</event>
<event>
 4      1 +1.5130300e-07 1.67802000e+03 7.81860800e-03 8.21838000e-02
        2 -1    0    0  501    0 +0.0000000000e+00 +0.0000000000e+00 +1.8278933216e+03 1.8278933216e+03 0.0000000000e+00 0.0000e+00 -1.0000e+00
       -2 -1    0    0    0  501 -0.0000000000e+00 -0.0000000000e+00 -3.8510875273e+02 3.8510875273e+02 0.0000000000e+00 0.0000e+00 1.0000e+00
      -13  1    1    2    0    0 -5.4268741965e+02 -2.5944226285e+02 +1.4927796816e+03 1.6094132785e+03 0.0000000000e+00 0.0000e+00 1.0000e+00
       13  1    1    2    0    0 +5.4268741965e+02 +2.5944226285e+02 -4.9995112694e+01 6.0358879587e+02 0.0000000000e+00 0.0000e+00 -1.0000e+00
<mgrwt>
<rscale>  0 0.16780199E+04</rscale>
<asrwt>0</asrwt>
<pdfrwt beam="1">  1        2 0.28121435E+00 0.16780199E+04</pdfrwt>
<pdfrwt beam="2">  1       -2 0.59247501E-01 0.16780199E+04</pdfrwt>
<totfact> 0.26876975E+01</totfact>
</mgrwt>
<rwgt>
<wgt id='morphing_basis_vector_1'> +2.1987080e-04 </wgt>
<wgt id='morphing_basis_vector_2'> +2.5805428e-04 </wgt>
<wgt id='morphing_basis_vector_3'> +2.4695362e-04 </wgt>
<wgt id='morphing_basis_vector_4'> +2.9121727e-05 </wgt>
<wgt id='morphing_basis_vector_5'> +1.8886962e-04 </wgt>
</rwgt>
</event>
<event>
 4      1 +1.5130300e-07 1.58291500e+03 7.81860800e-03 8.26835200e-02
        2 -1    0    0  501    0 +0.0000000000e+00 +0.0000000000e+00 +1.0993189962e+03 1.0993189962e+03 0.0000000000e+00 0.0000e+00 -1.0000e+00
       -2 -1    0    0    0  501 -0.0000000000e+00 -0.0000000000e+00 -5.6981198059e+02 5.6981198059e+02 0.0000000000e+00 0.0000e+00 1.0000e+00
      -13  1    1    2    0    0 +4.8772302931e+02 -5.2576302464e+02 -8.8303249884e+01 7.2256347495e+02 0.0000000000e+00 0.0000e+00 1.0000e+00
       13  1    1    2    0    0 -4.8772302931e+02 +5.2576302464e+02 +6.1781026550e+02 9.4656750185e+02 0.0000000000e+00 0.0000e+00 -1.0000e+00
<mgrwt>
<rscale>  0 0.15829152E+04</rscale>
<asrwt>0</asrwt>
<pdfrwt beam="1">  1        2 0.16912600E+00 0.15829152E+04</pdfrwt>
<pdfrwt beam="2">  1       -2 0.87663382E-01 0.15829152E+04</pdfrwt>
<totfact> 0.29895383E+01</totfact>
</mgrwt>
<rwgt>
<wgt id='morphing_basis_vector_1'> +1.3720648e-04 </wgt>
<wgt id='morphing_basis_vector_2'> +9.2122601e-05 </wgt>
<wgt id='morphing_basis_vector_3'> +1.4354714e-04 </wgt>
<wgt id='morphing_basis_vector_4'> +9.5169255e-05 </wgt>
<wgt id='morphing_basis_vector_5'> +1.5400814e-04 </wgt>
</rwgt>
</event>
<event>
 4      1 +1.5130300e-07 1.71103300e+03 7.81860800e-03 8.20182200e-02
        2 -1    0    0  501    0 +0.0000000000e+00 +0.0000000000e+00 +2.2144360990e+03 2.2144360990e+03 0.0000000000e+00 0.0000e+00 1.0000e+00
       -2 -1    0    0    0  501 -0.0000000000e+00 -0.0000000000e+00 -3.3051691130e+02 3.3051691130e+02 0.0000000000e+00 0.0000e+00 -1.0000e+00
      -13  1    1    2    0    0 -7.2126942185e+01 +4.3708167359e+02 -1.4664045949e+02 4.6663273517e+02 0.0000000000e+00 0.0000e+00 -1.0000e+00
       13  1    1    2    0    0 +7.2126942185e+01 -4.3708167359e+02 +2.0305596472e+03 2.0783202752e+03 0.0000000000e+00 0.0000e+00 1.0000e+00
<mgrwt>
<rscale>  0 0.17110331E+04</rscale>
<asrwt>0</asrwt>
<pdfrwt beam="1">  1        2 0.34068247E+00 0.17110331E+04</pdfrwt>
<pdfrwt beam="2">  1       -2 0.50848757E-01 0.17110331E+04</pdfrwt>
<totfact> 0.22072619E+01</totfact>
</mgrwt>
<rwgt>
<wgt id='morphing_basis_vector_1'> +1.8444327e-04 </wgt>
<wgt id='morphing_basis_vector_2'> +1.2179976e-04 </wgt>
<wgt id='morphing_basis_vector_3'> +1.9423454e-04 </wgt>
<wgt id='morphing_basis_vector_4'> +1.3333417e-04 </wgt>
<wgt id='morphing_basis_vector_5'> +2.1240245e-04 </wgt>
</rwgt>
</event>
<event>
 4      1 +1.5130300e-07 1.81874000e+03 7.81860800e-03 8.15034900e-02
        2 -1    0    0  501    0 +0.0000000000e+00 +0.0000000000e+00 +6.2246281218e+02 6.2246281218e+02 0.0000000000e+00 0.0000e+00 1.0000e+00
       -2 -1    0    0    0  501 -0.0000000000e+00 -0.0000000000e+00 -1.3285192148e+03 1.3285192148e+03 0.0000000000e+00 0.0000e+00 -1.0000e+00
      -13  1    1    2    0    0 -4.9526495907e+02 +7.4382003950e+02 -1.7225757282e+02 9.1007049301e+02 0.0000000000e+00 0.0000e+00 -1.0000e+00
       13  1    1    2    0    0 +4.9526495907e+02 -7.4382003950e+02 -5.3379882980e+02 1.0409115340e+03 0.0000000000e+00 0.0000e+00 1.0000e+00
<mgrwt>
<rscale>  0 0.18187400E+04</rscale>
<asrwt>0</asrwt>
<pdfrwt beam="1">  1        2 0.95763511E-01 0.18187400E+04</pdfrwt>
<pdfrwt beam="2">  1       -2 0.20438757E+00 0.18187400E+04</pdfrwt>
<totfact> 0.59958684E+00</totfact>
</mgrwt>
<rwgt>
<wgt id='morphing_basis_vector_1'> +2.5020148e-04 </wgt>
<wgt id='morphing_basis_vector_2'> +2.0319447e-04 </wgt>
<wgt id='morphing_basis_vector_3'> +2.7078183e-04 </wgt>
<wgt id='morphing_basis_vector_4'> +1.3952710e-04 </wgt>
<wgt id='morphing_basis_vector_5'> +2.7041731e-04 </wgt>
</rwgt>
</event>
<event>
 4      1 +1.5130300e-07 1.66847900e+03 7.81860800e-03 8.22323700e-02
        2 -1    0    0  501    0 +0.0000000000e+00 +0.0000000000e+00 +1.3720817178e+03 1.3720817178e+03 0.0000000000e+00 0.0000e+00 -1.0000e+00
       -2 -1    0    0    0  501 -0.0000000000e+00 -0.0000000000e+00 -5.0722624170e+02 5.0722624170e+02 0.0000000000e+00 0.0000e+00 1.0000e+00
      -13  1    1    2    0    0 +4.4260293272e+02 +3.6217526307e+02 -2.5167940617e+02 6.2482861708e+02 0.0000000000e+00 0.0000e+00 1.0000e+00
       13  1    1    2    0    0 -4.4260293272e+02 -3.6217526307e+02 +1.1165348822e+03 1.2544793424e+03 0.0000000000e+00 0.0000e+00 -1.0000e+00
<mgrwt>
<rscale>  0 0.16684794E+04</rscale>
<asrwt>0</asrwt>
<pdfrwt beam="1">  1        2 0.21108949E+00 0.16684794E+04</pdfrwt>
<pdfrwt beam="2">  1       -2 0.78034807E-01 0.16684794E+04</pdfrwt>
<totfact> 0.26882919E+01</totfact>
</mgrwt>
<rwgt>
<wgt id='morphing_basis_vector_1'> +1.6736628e-04 </wgt>
<wgt id='morphing_basis_vector_2'> +1.1063770e-04 </wgt>
<wgt id='morphing_basis_vector_3'> +1.7584038e-04 </wgt>
<wgt id='morphing_basis_vector_4'> +1.1998260e-04 </wgt>
<wgt id='morphing_basis_vector_5'> +1.9147913e-04 </wgt>
</rwgt>
</event>
<event>
 4      1 +1.5130300e-07 1.59105600e+03 7.81860800e-03 8.26393500e-02
        2 -1    0    0  501    0 +0.0000000000e+00 +0.0000000000e+00 +9.3006629090e+02 9.3006629090e+02 0.0000000000e+00 0.0000e+00 1.0000e+00
       -2 -1    0    0    0  501 -0.0000000000e+00 -0.0000000000e+00 -6.8045103297e+02 6.8045103297e+02 0.0000000000e+00 0.0000e+00 -1.0000e+00
      -13  1    1    2    0    0 -2.9464134081e+02 +7.0026911024e+02 -1.1403238734e+02 7.6824067312e+02 0.0000000000e+00 0.0000e+00 -1.0000e+00
       13  1    1    2    0    0 +2.9464134081e+02 -7.0026911024e+02 +3.6364764528e+02 8.4227665075e+02 0.0000000000e+00 0.0000e+00 1.0000e+00
<mgrwt>
<rscale>  0 0.15910557E+04</rscale>
<asrwt>0</asrwt>
<pdfrwt beam="1">  1        2 0.14308712E+00 0.15910557E+04</pdfrwt>
<pdfrwt beam="2">  1       -2 0.10468477E+00 0.15910557E+04</pdfrwt>
<totfact> 0.24940757E+01</totfact>
</mgrwt>
<rwgt>
<wgt id='morphing_basis_vector_1'> +1.4065421e-04 </wgt>
<wgt id='morphing_basis_vector_2'> +9.6070838e-05 </wgt>
<wgt id='morphing_basis_vector_3'> +1.4745014e-04 </wgt>
<wgt id='morphing_basis_vector_4'> +9.5886694e-05 </wgt>
<wgt id='morphing_basis_vector_5'> +1.5720581e-04 </wgt>
</rwgt>
</event>
<event>
 4      1 +1.5130300e-07 1.66323700e+03 7.81860800e-03 8.22592100e-02
        2 -1    0    0  501    0 +0.0000000000e+00 +0.0000000000e+00 +4.5919130997e+02 4.5919130997e+02 0.0000000000e+00 0.0000e+00 -1.0000e+00
       -2 -1    0    0    0  501 -0.0000000000e+00 -0.0000000000e+00 -1.5061029387e+03 1.5061029387e+03 0.0000000000e+00 0.0000e+00 1.0000e+00
      -13  1    1    2    0    0 +3.5280392348e+02 -3.4583644697e+02 -1.3139117709e+03 1.4037227640e+03 0.0000000000e+00 0.0000e+00 1.0000e+00
       13  1    1    2    0    0 -3.5280392348e+02 +3.4583644697e+02 +2.6700014217e+02 5.6157148467e+02 0.0000000000e+00 0.0000e+00 -1.0000e+00
<mgrwt>
<rscale>  0 0.16632371E+04</rscale>
<asrwt>0</asrwt>
<pdfrwt beam="1">  1        2 0.70644817E-01 0.16632371E+04</pdfrwt>
<pdfrwt beam="2">  1       -2 0.23170815E+00 0.16632371E+04</pdfrwt>
<totfact> 0.55152584E+00</totfact>
</mgrwt>
<rwgt>
<wgt id='morphing_basis_vector_1'> +1.6524618e-04 </wgt>
<wgt id='morphing_basis_vector_2'> +1.0901374e-04 </wgt>
<wgt id='morphing_basis_vector_3'> +1.7352793e-04 </wgt>
<wgt id='morphing_basis_vector_4'> +1.1860586e-04 </wgt>
<wgt id='morphing_basis_vector_5'> +1.8902687e-04 </wgt>
</rwgt>
</event>
<event>
 4      1 +1.5130300e-07 1.55397500e+03 7.81860800e-03 8.28428000e-02
        2 -1    0    0  501    0 +0.0000000000e+00 +0.0000000000e+00 +1.6895229320e+03 1.6895229320e+03 0.0000000000e+00 0.0000e+00 1.0000e+00
       -2 -1    0    0    0  501 -0.0000000000e+00 -0.0000000000e+00 -3.5732534261e+02 3.5732534261e+02 0.0000000000e+00 0.0000e+00 -1.0000e+00
      -13  1    1    2    0    0 +4.5870756745e+02 -2.1603639574e+02 -1.0938306724e+02 5.1869934656e+02 0.0000000000e+00 0.0000e+00 -1.0000e+00
       13  1    1    2    0    0 -4.5870756745e+02 +2.1603639574e+02 +1.4415806566e+03 1.5281489281e+03 0.0000000000e+00 0.0000e+00 1.0000e+00
<mgrwt>
<rscale>  0 0.15539747E+04</rscale>
<asrwt>0</asrwt>
<pdfrwt beam="1">  1        2 0.25992660E+00 0.15539747E+04</pdfrwt>
<pdfrwt beam="2">  1       -2 0.54973131E-01 0.15539747E+04</pdfrwt>
<totfact> 0.37745364E+01</totfact>
</mgrwt>
<rwgt>
<wgt id='morphing_basis_vector_1'> +1.2701914e-04 </wgt>
<wgt id='morphing_basis_vector_2'> +8.3487720e-05 </wgt>
<wgt id='morphing_basis_vector_3'> +1.3238590e-04 </wgt>
<wgt id='morphing_basis_vector_4'> +8.9567612e-05 </wgt>
<wgt id='morphing_basis_vector_5'> +1.4280393e-04 </wgt>
</rwgt>
</event>
<event>
 4      1 +1.5130300e-07 1.64402900e+03 7.81860800e-03 8.23584000e-02
        2 -1    0    0  501    0 +0.0000000000e+00 +0.0000000000e+00 +2.8927146651e+03 2.8927146651e+03 0.0000000000e+00 0.0000e+00 -1.0000e+00
       -2 -1    0    0    0  501 -0.0000000000e+00 -0.0000000000e+00 -2.3358965350e+02 2.3358965350e+02 0.0000000000e+00 0.0000e+00 1.0000e+00
      -13  1    1    2    0    0 -2.5901920363e+02 -6.9584581985e+02 +6.5881427792e+02 9.9263719739e+02 0.0000000000e+00 0.0000e+00 1.0000e+00
       13  1    1    2    0    0 +2.5901920363e+02 +6.9584581985e+02 +2.0003107337e+03 2.1336671212e+03 0.0000000000e+00 0.0000e+00 -1.0000e+00
<mgrwt>
<rscale>  0 0.16440295E+04</rscale>
<asrwt>0</asrwt>
<pdfrwt beam="1">  1        2 0.44503300E+00 0.16440295E+04</pdfrwt>
<pdfrwt beam="2">  1       -2 0.35936872E-01 0.16440295E+04</pdfrwt>
<totfact> 0.16795898E+01</totfact>
</mgrwt>
<rwgt>
<wgt id='morphing_basis_vector_1'> +1.5888487e-04 </wgt>
<wgt id='morphing_basis_vector_2'> +1.0688011e-04 </wgt>
<wgt id='morphing_basis_vector_3'> +1.6693468e-04 </wgt>
<wgt id='morphing_basis_vector_4'> +1.1129975e-04 </wgt>
<wgt id='morphing_basis_vector_5'> +1.8006118e-04 </wgt>
</rwgt>
</event>
<event>
 4      1 +1.5130300e-07 1.70452500e+03 7.81860800e-03 8.20505600e-02
        2 -1    0    0  501    0 +0.0000000000e+00 +0.0000000000e+00 +2.0448098775e+03 2.0448098775e+03 0.0000000000e+00 0.0000e+00 -1.0000e+00
       -2 -1    0    0    0  501 -0.0000000000e+00 -0.0000000000e+00 -3.5521695276e+02 3.5521695276e+02 0.0000000000e+00 0.0000e+00 1.0000e+00
      -13  1    1    2    0    0 +1.5209281730e+02 -2.9830533305e+02 -2.5872124613e+02 4.2314888633e+02 0.0000000000e+00 0.0000e+00 1.0000e+00
       13  1    1    2    0    0 -1.5209281730e+02 +2.9830533305e+02 +1.9483141708e+03 1.9768779439e+03 0.0000000000e+00 0.0000e+00 -1.0000e+00
<mgrwt>
<rscale>  0 0.17045247E+04</rscale>
<asrwt>0</asrwt>
<pdfrwt beam="1">  1        2 0.31458613E+00 0.17045247E+04</pdfrwt>
<pdfrwt beam="2">  1       -2 0.54648763E-01 0.17045247E+04</pdfrwt>
<totfact> 0.23884727E+01</totfact>
</mgrwt>
<rwgt>
<wgt id='morphing_basis_vector_1'> +1.8169742e-04 </wgt>
<wgt id='morphing_basis_vector_2'> +1.1988489e-04 </wgt>
<wgt id='morphing_basis_vector_3'> +1.9125971e-04 </wgt>
<wgt id='morphing_basis_vector_4'> +1.3132443e-04 </wgt>
<wgt id='morphing_basis_vector_5'> +2.0910498e-04 </wgt>
</rwgt>
</event>
<event>
 4      1 +1.5130300e-07 1.57640400e+03 7.81860800e-03 8.27190500e-02
        2 -1    0    0  501    0 +0.0000000000e+00 +0.0000000000e+00 +1.2000876235e+03 1.2000876235e+03 0.0000000000e+00 0.0000e+00 -1.0000e+00
       -2 -1    0    0    0  501 -0.0000000000e+00 -0.0000000000e+00 -5.1768076850e+02 5.1768076850e+02 0.0000000000e+00 0.0000e+00 1.0000e+00
      -13  1    1    2    0    0 -7.7398271947e+02 -1.0466165260e+02 +4.5682702547e+02 9.0481724274e+02 0.0000000000e+00 0.0000e+00 1.0000e+00
       13  1    1    2    0    0 +7.7398271947e+02 +1.0466165260e+02 +2.2557982951e+02 8.1295114924e+02 0.0000000000e+00 0.0000e+00 -1.0000e+00
<mgrwt>
<rscale>  0 0.15764039E+04</rscale>
<asrwt>0</asrwt>
<pdfrwt beam="1">  1        2 0.18462886E+00 0.15764039E+04</pdfrwt>
<pdfrwt beam="2">  1       -2 0.79643196E-01 0.15764039E+04</pdfrwt>
<totfact> 0.32486580E+01</totfact>
</mgrwt>
<rwgt>
<wgt id='morphing_basis_vector_1'> +1.4199771e-04 </wgt>
<wgt id='morphing_basis_vector_2'> +1.1136744e-04 </wgt>
<wgt id='morphing_basis_vector_3'> +1.5053888e-04 </wgt>
<wgt id='morphing_basis_vector_4'> +8.0388183e-05 </wgt>
<wgt id='morphing_basis_vector_5'> +1.5041704e-04 </wgt>
</rwgt>
</event>
<event>
 4      1 +1.5130300e-07 1.66176800e+03 7.81860800e-03 8.22667500e-02
        2 -1    0    0  501    0 +0.0000000000e+00 +0.0000000000e+00 +1.7458397289e+03 1.7458397289e+03 0.0000000000e+00 0.0000e+00 1.0000e+00
       -2 -1    0    0    0  501 -0.0000000000e+00 -0.0000000000e+00 -3.9543605837e+02 3.9543605837e+02 0.0000000000e+00 0.0000e+00 -1.0000e+00
      -13  1    1    2    0    0 +1.9290520035e+02 -7.3618667172e+02 +2.4554185896e+02 7.9967120521e+02 0.0000000000e+00 0.0000e+00 -1.0000e+00
       13  1    1    2    0    0 -1.9290520035e+02 +7.3618667172e+02 +1.1048618116e+03 1.3416045821e+03 0.0000000000e+00 0.0000e+00 1.0000e+00
<mgrwt>
<rscale>  0 0.16617677E+04</rscale>
<asrwt>0</asrwt>
<pdfrwt beam="1">  1        2 0.26859072E+00 0.16617677E+04</pdfrwt>
<pdfrwt beam="2">  1       -2 0.60836318E-01 0.16617677E+04</pdfrwt>
<totfact> 0.28316841E+01</totfact>
</mgrwt>
<rwgt>
<wgt id='morphing_basis_vector_1'> +1.6579270e-04 </wgt>
<wgt id='morphing_basis_vector_2'> +1.1194189e-04 </wgt>
<wgt id='morphing_basis_vector_3'> +1.7444215e-04 </wgt>
<wgt id='morphing_basis_vector_4'> +1.1604158e-04 </wgt>
<wgt id='morphing_basis_vector_5'> +1.8817758e-04 </wgt>
</rwgt>
</event>
<event>
 4      1 +1.5130300e-07 1.69773000e+03 7.81860800e-03 8.20844800e-02
        2 -1    0    0  501    0 +0.0000000000e+00 +0.0000000000e+00 +1.4905607137e+03 1.4905607137e+03 0.0000000000e+00 0.0000e+00 1.0000e+00
       -2 -1    0    0    0  501 -0.0000000000e+00 -0.0000000000e+00 -4.8342332357e+02 4.8342332357e+02 0.0000000000e+00 0.0000e+00 -1.0000e+00
      -13  1    1    2    0    0 +6.2916686101e+02 -3.2620920384e+02 -3.9694469749e+01 7.0981619775e+02 0.0000000000e+00 0.0000e+00 -1.0000e+00
       13  1    1    2    0    0 -6.2916686101e+02 +3.2620920384e+02 +1.0468318599e+03 1.2641678396e+03 0.0000000000e+00 0.0000e+00 1.0000e+00
<mgrwt>
<rscale>  0 0.16977300E+04</rscale>
<asrwt>0</asrwt>
<pdfrwt beam="1">  1        2 0.22931703E+00 0.16977300E+04</pdfrwt>
<pdfrwt beam="2">  1       -2 0.74372820E-01 0.16977300E+04</pdfrwt>
<totfact> 0.25588464E+01</totfact>
</mgrwt>
<rwgt>
<wgt id='morphing_basis_vector_1'> +1.7948685e-04 </wgt>
<wgt id='morphing_basis_vector_2'> +1.1976080e-04 </wgt>
<wgt id='morphing_basis_vector_3'> +1.8905153e-04 </wgt>
<wgt id='morphing_basis_vector_4'> +1.2804980e-04 </wgt>
<wgt id='morphing_basis_vector_5'> +2.0561127e-04 </wgt>
</rwgt>
</event>
<event>
 4      1 +1.5130300e-07 1.69032900e+03 7.81860800e-03 8.21216100e-02
        2 -1    0    0  501    0 +0.0000000000e+00 +0.0000000000e+00 +2.6757831052e+03 2.6757831052e+03 0.0000000000e+00 0.0000e+00 -1.0000e+00
       -2 -1    0    0    0  501 -0.0000000000e+00 -0.0000000000e+00 -2.6695105472e+02 2.6695105472e+02 0.0000000000e+00 0.0000e+00 1.0000e+00
      -13  1    1    2    0    0 -2.3233102014e+02 +6.2910392241e+02 +3.0897567745e+02 7.3838703765e+02 0.0000000000e+00 0.0000e+00 1.0000e+00
       13  1    1    2    0    0 +2.3233102014e+02 -6.2910392241e+02 +2.0998563730e+03 2.2043471223e+03 0.0000000000e+00 0.0000e+00 -1.0000e+00
<mgrwt>
<rscale>  0 0.16903291E+04</rscale>
<asrwt>0</asrwt>
<pdfrwt beam="1">  1        2 0.41165892E+00 0.16903291E+04</pdfrwt>
<pdfrwt beam="2">  1       -2 0.41069395E-01 0.16903291E+04</pdfrwt>
<totfact> 0.17815447E+01</totfact>
</mgrwt>
<rwgt>
<wgt id='morphing_basis_vector_1'> +1.7628939e-04 </wgt>
<wgt id='morphing_basis_vector_2'> +1.1719402e-04 </wgt>
<wgt id='morphing_basis_vector_3'> +1.8554371e-04 </wgt>
<wgt id='morphing_basis_vector_4'> +1.2610711e-04 </wgt>
<wgt id='morphing_basis_vector_5'> +2.0197511e-04 </wgt>
</rwgt>
</event>
<event>
 4      1 +1.5130300e-07 1.69159500e+03 7.81860800e-03 8.21152500e-02
        2 -1    0    0  501    0 +0.0000000000e+00 +0.0000000000e+00 +7.8230296716e+02 7.8230296716e+02 0.0000000000e+00 0.0000e+00 -1.0000e+00
       -2 -1    0    0    0  501 -0.0000000000e+00 -0.0000000000e+00 -9.1444504417e+02 9.1444504417e+02 0.0000000000e+00 0.0000e+00 1.0000e+00
      -13  1    1    2    0    0 -2.4859523020e+02 +1.5339176821e+01 -8.7682687265e+02 9.1151535556e+02 0.0000000000e+00 0.0000e+00 1.0000e+00
       13  1    1    2    0    0 +2.4859523020e+02 -1.5339176821e+01 +7.4468479564e+02 7.8523265577e+02 0.0000000000e+00 0.0000e+00 -1.0000e+00
<mgrwt>
<rscale>  0 0.16915946E+04</rscale>
<asrwt>0</asrwt>
<pdfrwt beam="1">  1        2 0.12035430E+00 0.16915946E+04</pdfrwt>
<pdfrwt beam="2">  1       -2 0.14068385E+00 0.16915946E+04</pdfrwt>
<totfact> 0.14369890E+01</totfact>
</mgrwt>
<rwgt>
<wgt id='morphing_basis_vector_1'> +1.7638705e-04 </wgt>
<wgt id='morphing_basis_vector_2'> +1.1630485e-04 </wgt>
<wgt id='morphing_basis_vector_3'> +1.8552456e-04 </wgt>
<wgt id='morphing_basis_vector_4'> +1.2729663e-04 </wgt>
<wgt id='morphing_basis_vector_5'> +2.0265917e-04 </wgt>
</rwgt>
</event>
<event>
 4      1 +1.5130300e-07 1.66233300e+03 7.81860800e-03 8.22638500e-02
        2 -1    0    0  501    0 +0.0000000000e+00 +0.0000000000e+00 +9.5138783182e+02 9.5138783182e+02 0.0000000000e+00 0.0000e+00 1.0000e+00
       -2 -1    0    0    0  501 -0.0000000000e+00 -0.0000000000e+00 -7.2613649544e+02 7.2613649544e+02 0.0000000000e+00 0.0000e+00 -1.0000e+00
      -13  1    1    2    0    0 -3.0256263884e+02 +2.6589748305e+02 -6.2106182366e+02 7.4024550706e+02 0.0000000000e+00 0.0000e+00 -1.0000e+00
       13  1    1    2    0    0 +3.0256263884e+02 -2.6589748305e+02 +8.4631316005e+02 9.3727882019e+02 0.0000000000e+00 0.0000e+00 1.0000e+00
<mgrwt>
<rscale>  0 0.16623326E+04</rscale>
<asrwt>0</asrwt>
<pdfrwt beam="1">  1        2 0.14636736E+00 0.16623326E+04</pdfrwt>
<pdfrwt beam="2">  1       -2 0.11171331E+00 0.16623326E+04</pdfrwt>
<totfact> 0.20433535E+01</totfact>
</mgrwt>
<rwgt>
<wgt id='morphing_basis_vector_1'> +1.6484898e-04 </wgt>
<wgt id='morphing_basis_vector_2'> +1.0863579e-04 </wgt>
<wgt id='morphing_basis_vector_3'> +1.7308541e-04 </wgt>
<wgt id='morphing_basis_vector_4'> +1.1843371e-04 </wgt>
<wgt id='morphing_basis_vector_5'> +1.8861104e-04 </wgt>
</rwgt>
</event>
<event>
 4      1 +1.5130300e-07 1.62574200e+03 7.81860800e-03 8.24541400e-02
        2 -1    0    0  501    0 +0.0000000000e+00 +0.0000000000e+00 +1.7782467434e+03 1.7782467434e+03 0.0000000000e+00 0.0000e+00 1.0000e+00
       -2 -1    0    0    0  501 -0.0000000000e+00 -0.0000000000e+00 -3.7157908482e+02 3.7157908482e+02 0.0000000000e+00 0.0000e+00 -1.0000e+00
      -13  1    1    2    0    0 +5.7734726803e+02 +5.3799486112e+02 +4.4558792825e+02 9.0626538072e+02 0.0000000000e+00 0.0000e+00 -1.0000e+00
       13  1    1    2    0    0 -5.7734726803e+02 -5.3799486112e+02 +9.6107973030e+02 1.2435604475e+03 0.0000000000e+00 0.0000e+00 1.0000e+00
<mgrwt>
<rscale>  0 0.16257420E+04</rscale>
<asrwt>0</asrwt>
<pdfrwt beam="1">  1        2 0.27357642E+00 0.16257420E+04</pdfrwt>
<pdfrwt beam="2">  1       -2 0.57166014E-01 0.16257420E+04</pdfrwt>
<totfact> 0.30946676E+01</totfact>
</mgrwt>
<rwgt>
<wgt id='morphing_basis_vector_1'> +1.5338385e-04 </wgt>
<wgt id='morphing_basis_vector_2'> +1.0597732e-04 </wgt>
<wgt id='morphing_basis_vector_3'> +1.6134101e-04 </wgt>
<wgt id='morphing_basis_vector_4'> +1.0391068e-04 </wgt>
<wgt id='morphing_basis_vector_5'> +1.7176755e-04 </wgt>
</rwgt>
</event>
<event>
 4      1 +1.5130300e-07 1.77178500e+03 7.81860800e-03 8.17232900e-02
        2 -1    0    0  501    0 +0.0000000000e+00 +0.0000000000e+00 +3.4822242697e+03 3.4822242697e+03 0.0000000000e+00 0.0000e+00 1.0000e+00
       -2 -1    0    0    0  501 -0.0000000000e+00 -0.0000000000e+00 -2.2537470403e+02 2.2537470403e+02 0.0000000000e+00 0.0000e+00 -1.0000e+00
      -13  1    1    2    0    0 +8.3471213336e+02 +2.7332359271e+02 +1.3865971638e+03 1.6413719342e+03 0.0000000000e+00 0.0000e+00 -1.0000e+00
       13  1    1    2    0    0 -8.3471213336e+02 -2.7332359271e+02 +1.8702524019e+03 2.0662270395e+03 0.0000000000e+00 0.0000e+00 1.0000e+00
<mgrwt>
<rscale>  0 0.17717847E+04</rscale>
<asrwt>0</asrwt>
<pdfrwt beam="1">  1        2 0.53572677E+00 0.17717847E+04</pdfrwt>
<pdfrwt beam="2">  1       -2 0.34673034E-01 0.17717847E+04</pdfrwt>
<totfact> 0.70821913E+00</totfact>
</mgrwt>
<rwgt>
<wgt id='morphing_basis_vector_1'> +2.1598491e-04 </wgt>
<wgt id='morphing_basis_vector_2'> +1.5376914e-04 </wgt>
<wgt id='morphing_basis_vector_3'> +2.2984461e-04 </wgt>
<wgt id='morphing_basis_vector_4'> +1.4471202e-04 </wgt>
<wgt id='morphing_basis_vector_5'> +2.4442134e-04 </wgt>
</rwgt>
</event>
<event>
 4      1 +1.5130300e-07 1.59298200e+03 7.81860800e-03 8.26289400e-02
        2 -1    0    0  501    0 +0.0000000000e+00 +0.0000000000e+00 +1.6052068407e+03 1.6052068407e+03 0.0000000000e+00 0.0000e+00 -1.0000e+00
       -2 -1    0    0    0  501 -0.0000000000e+00 -0.0000000000e+00 -3.9521252660e+02 3.9521252660e+02 0.0000000000e+00 0.0000e+00 1.0000e+00
      -13  1    1    2    0    0 +5.5802258182e+02 +5.6695559690e+02 +5.5523947918e+02 9.7011274083e+02 0.0000000000e+00 0.0000e+00 1.0000e+00
       13  1    1    2    0    0 -5.5802258182e+02 -5.6695559690e+02 +6.5475483491e+02 1.0303066265e+03 0.0000000000e+00 0.0000e+00 -1.0000e+00
<mgrwt>
<rscale>  0 0.15929819E+04</rscale>
<asrwt>0</asrwt>
<pdfrwt beam="1">  1        2 0.24695489E+00 0.15929819E+04</pdfrwt>
<pdfrwt beam="2">  1       -2 0.60801928E-01 0.15929819E+04</pdfrwt>
<totfact> 0.34140445E+01</totfact>
</mgrwt>
<rwgt>
<wgt id='morphing_basis_vector_1'> +1.4394955e-04 </wgt>
<wgt id='morphing_basis_vector_2'> +1.0436995e-04 </wgt>
<wgt id='morphing_basis_vector_3'> +1.5171142e-04 </wgt>
<wgt id='morphing_basis_vector_4'> +9.1367522e-05 </wgt>
<wgt id='morphing_basis_vector_5'> +1.5761601e-04 </wgt>
</rwgt>
</event>
<event>
 4      1 +1.5130300e-07 1.74042200e+03 7.81860800e-03 8.18740100e-02
        2 -1    0    0  501    0 +0.0000000000e+00 +0.0000000000e+00 +9.2936397907e+02 9.2936397907e+02 0.0000000000e+00 0.0000e+00 1.0000e+00
       -2 -1    0    0    0  501 -0.0000000000e+00 -0.0000000000e+00 -8.1482339970e+02 8.1482339970e+02 0.0000000000e+00 0.0000e+00 -1.0000e+00
      -13  1    1    2    0    0 -6.1145056489e+02 +1.4691623429e+02 -5.4553849042e+02 8.3250730792e+02 0.0000000000e+00 0.0000e+00 -1.0000e+00
       13  1    1    2    0    0 +6.1145056489e+02 -1.4691623429e+02 +6.6007906980e+02 9.1168007085e+02 0.0000000000e+00 0.0000e+00 1.0000e+00
<mgrwt>
<rscale>  0 0.17404224E+04</rscale>
<asrwt>0</asrwt>
<pdfrwt beam="1">  1        2 0.14297907E+00 0.17404224E+04</pdfrwt>
<pdfrwt beam="2">  1       -2 0.12535745E+00 0.17404224E+04</pdfrwt>
<totfact> 0.15569873E+01</totfact>
</mgrwt>
<rwgt>
<wgt id='morphing_basis_vector_1'> +1.9730018e-04 </wgt>
<wgt id='morphing_basis_vector_2'> +1.3092548e-04 </wgt>
<wgt id='morphing_basis_vector_3'> +2.0819395e-04 </wgt>
<wgt id='morphing_basis_vector_4'> +1.4256947e-04 </wgt>
<wgt id='morphing_basis_vector_5'> +2.2776638e-04 </wgt>
</rwgt>
</event>
<event>
 4      1 +1.5130300e-07 1.69983800e+03 7.81860800e-03 8.20739400e-02
        2 -1    0    0  501    0 +0.0000000000e+00 +0.0000000000e+00 +1.8911627304e+03 1.8911627304e+03 0.0000000000e+00 0.0000e+00 1.0000e+00
       -2 -1    0    0    0  501 -0.0000000000e+00 -0.0000000000e+00 -3.8196744954e+02 3.8196744954e+02 0.0000000000e+00 0.0000e+00 -1.0000e+00
      -13  1    1    2    0    0 -5.4160949712e+02 -2.8963317321e+02 -3.1019224113e+01 6.1497188119e+02 0.0000000000e+00 0.0000e+00 -1.0000e+00
       13  1    1    2    0    0 +5.4160949712e+02 +2.8963317321e+02 +1.5402145049e+03 1.6581582987e+03 0.0000000000e+00 0.0000e+00 1.0000e+00
<mgrwt>
<rscale>  0 0.16998384E+04</rscale>
<asrwt>0</asrwt>
<pdfrwt beam="1">  1        2 0.29094811E+00 0.16998384E+04</pdfrwt>
<pdfrwt beam="2">  1       -2 0.58764224E-01 0.16998384E+04</pdfrwt>
<totfact> 0.25151873E+01</totfact>
</mgrwt>
<rwgt>
<wgt id='morphing_basis_vector_1'> +1.7999094e-04 </wgt>
<wgt id='morphing_basis_vector_2'> +1.1926714e-04 </wgt>
<wgt id='morphing_basis_vector_3'> +1.8948661e-04 </wgt>
<wgt id='morphing_basis_vector_4'> +1.2940660e-04 </wgt>
<wgt id='morphing_basis_vector_5'> +2.0671718e-04 </wgt>
</rwgt>
</event>
<event>
 4      1 +1.5130300e-07 1.58913300e+03 7.81860800e-03 8.26497600e-02
        2 -1    0    0  501    0 +0.0000000000e+00 +0.0000000000e+00 +8.9515943478e+02 8.9515943478e+02 0.0000000000e+00 0.0000e+00 1.0000e+00
       -2 -1    0    0    0  501 -0.0000000000e+00 -0.0000000000e+00 -7.0527790828e+02 7.0527790828e+02 0.0000000000e+00 0.0000e+00 -1.0000e+00
      -13  1    1    2    0    0 +3.0563039482e+02 +6.2683199271e+02 -2.8856699839e+02 7.5471795917e+02 0.0000000000e+00 0.0000e+00 -1.0000e+00
       13  1    1    2    0    0 -3.0563039482e+02 -6.2683199271e+02 +4.7844852489e+02 8.4571938390e+02 0.0000000000e+00 0.0000e+00 1.0000e+00
<mgrwt>
<rscale>  0 0.15891333E+04</rscale>
<asrwt>0</asrwt>
<pdfrwt beam="1">  1        2 0.13771684E+00 0.15891333E+04</pdfrwt>
<pdfrwt beam="2">  1       -2 0.10850429E+00 0.15891333E+04</pdfrwt>
<totfact> 0.24049451E+01</totfact>
</mgrwt>
<rwgt>
<wgt id='morphing_basis_vector_1'> +1.3908673e-04 </wgt>
<wgt id='morphing_basis_vector_2'> +9.2905193e-05 </wgt>
<wgt id='morphing_basis_vector_3'> +1.4551576e-04 </wgt>
<wgt id='morphing_basis_vector_4'> +9.7135987e-05 </wgt>
<wgt id='morphing_basis_vector_5'> +1.5655317e-04 </wgt>
</rwgt>
</event>
<event>
 4      1 +1.5130300e-07 1.67955200e+03 7.81860800e-03 8.21760300e-02
        2 -1    0    0  501    0 +0.0000000000e+00 +0.0000000000e+00 +1.3322550788e+03 1.3322550788e+03 0.0000000000e+00 0.0000e+00 -1.0000e+00
       -2 -1    0    0    0  501 -0.0000000000e+00 -0.0000000000e+00 -5.2934580695e+02 5.2934580695e+02 0.0000000000e+00 0.0000e+00 1.0000e+00
      -13  1    1    2    0    0 -2.6677946445e+02 +7.9989495235e+01 -4.7666424215e+02 5.5206738877e+02 0.0000000000e+00 0.0000e+00 1.0000e+00
       13  1    1    2    0    0 +2.6677946445e+02 -7.9989495235e+01 +1.2795735140e+03 1.3095334970e+03 0.0000000000e+00 0.0000e+00 -1.0000e+00
<mgrwt>
<rscale>  0 0.16795519E+04</rscale>
<asrwt>0</asrwt>
<pdfrwt beam="1">  1        2 0.20496232E+00 0.16795519E+04</pdfrwt>
<pdfrwt beam="2">  1       -2 0.81437817E-01 0.16795519E+04</pdfrwt>
<totfact> 0.25690213E+01</totfact>
</mgrwt>
<rwgt>
<wgt id='morphing_basis_vector_1'> +1.7155809e-04 </wgt>
<wgt id='morphing_basis_vector_2'> +1.1307457e-04 </wgt>
<wgt id='morphing_basis_vector_3'> +1.8031454e-04 </wgt>
<wgt id='morphing_basis_vector_4'> +1.2360846e-04 </wgt>
<wgt id='morphing_basis_vector_5'> +1.9678811e-04 </wgt>
</rwgt>
</event>
<event>
 4      1 +1.5130300e-07 1.57219400e+03 7.81860800e-03 8.27421100e-02
        2 -1    0    0  501    0 +0.0000000000e+00 +0.0000000000e+00 +8.0089384026e+02 8.0089384026e+02 0.0000000000e+00 0.0000e+00 1.0000e+00
       -2 -1    0    0    0  501 -0.0000000000e+00 -0.0000000000e+00 -7.7157370834e+02 7.7157370834e+02 0.0000000000e+00 0.0000e+00 -1.0000e+00
      -13  1    1    2    0    0 -3.2700591595e+01 +5.0075084379e+02 -5.9053017718e+02 7.7494943474e+02 0.0000000000e+00 0.0000e+00 -1.0000e+00
       13  1    1    2    0    0 +3.2700591595e+01 -5.0075084379e+02 +6.1985030910e+02 7.9751811386e+02 0.0000000000e+00 0.0000e+00 1.0000e+00
<mgrwt>
<rscale>  0 0.15721942E+04</rscale>
<asrwt>0</asrwt>
<pdfrwt beam="1">  1        2 0.12321444E+00 0.15721942E+04</pdfrwt>
<pdfrwt beam="2">  1       -2 0.11870365E+00 0.15721942E+04</pdfrwt>
<totfact> 0.22195554E+01</totfact>
</mgrwt>
<rwgt>
<wgt id='morphing_basis_vector_1'> +1.3286817e-04 </wgt>
<wgt id='morphing_basis_vector_2'> +8.7380527e-05 </wgt>
<wgt id='morphing_basis_vector_3'> +1.3866924e-04 </wgt>
<wgt id='morphing_basis_vector_4'> +9.4003734e-05 </wgt>
<wgt id='morphing_basis_vector_5'> +1.4985477e-04 </wgt>
</rwgt>
</event>
<event>
 4      1 +1.5130300e-07 1.81074700e+03 7.81860800e-03 8.15404200e-02
        2 -1    0    0  501    0 +0.0000000000e+00 +0.0000000000e+00 +1.3536054701e+03 1.3536054701e+03 0.0000000000e+00 0.0000e+00 -1.0000e+00
       -2 -1    0    0    0  501 -0.0000000000e+00 -0.0000000000e+00 -6.0556854916e+02 6.0556854916e+02 0.0000000000e+00 0.0000e+00 1.0000e+00
      -13  1    1    2    0    0 +8.3752922704e+01 -7.6022691638e+02 -1.5019738199e+02 7.7943490428e+02 0.0000000000e+00 0.0000e+00 1.0000e+00
       13  1    1    2    0    0 -8.3752922704e+01 +7.6022691638e+02 +8.9823430293e+02 1.1797391150e+03 0.0000000000e+00 0.0000e+00 -1.0000e+00
<mgrwt>
<rscale>  0 0.18107467E+04</rscale>
<asrwt>0</asrwt>
<pdfrwt beam="1">  1        2 0.20824700E+00 0.18107467E+04</pdfrwt>
<pdfrwt beam="2">  1       -2 0.93164392E-01 0.18107467E+04</pdfrwt>
<totfact> 0.18087734E+01</totfact>
</mgrwt>
<rwgt>
<wgt id='morphing_basis_vector_1'> +2.3077846e-04 </wgt>
<wgt id='morphing_basis_vector_2'> +1.5472609e-04 </wgt>
<wgt id='morphing_basis_vector_3'> +2.4461078e-04 </wgt>
<wgt id='morphing_basis_vector_4'> +1.6665620e-04 </wgt>
<wgt id='morphing_basis_vector_5'> +2.6787995e-04 </wgt>
</rwgt>
</event>
<event>
 4      1 +1.5130300e-07 1.55251900e+03 7.81860800e-03 8.28509000e-02
        2 -1    0    0  501    0 +0.0000000000e+00 +0.0000000000e+00 +7.4948746716e+02 7.4948746716e+02 0.0000000000e+00 0.0000e+00 1.0000e+00
       -2 -1    0    0    0  501 -0.0000000000e+00 -0.0000000000e+00 -8.0398817488e+02 8.0398817488e+02 0.0000000000e+00 0.0000e+00 -1.0000e+00
      -13  1    1    2    0    0 -3.1003959088e+02 +4.9121659624e+02 -5.4250518061e+02 7.9481454650e+02 0.0000000000e+00 0.0000e+00 -1.0000e+00
       13  1    1    2    0    0 +3.1003959088e+02 -4.9121659624e+02 +4.8800447289e+02 7.5866109555e+02 0.0000000000e+00 0.0000e+00 1.0000e+00
<mgrwt>
<rscale>  0 0.15525193E+04</rscale>
<asrwt>0</asrwt>
<pdfrwt beam="1">  1        2 0.11530576E+00 0.15525193E+04</pdfrwt>
<pdfrwt beam="2">  1       -2 0.12369049E+00 0.15525193E+04</pdfrwt>
<totfact> 0.21721417E+01</totfact>
</mgrwt>
<rwgt>
<wgt id='morphing_basis_vector_1'> +1.2667101e-04 </wgt>
<wgt id='morphing_basis_vector_2'> +8.3511641e-05 </wgt>
<wgt id='morphing_basis_vector_3'> +1.3204047e-04 </wgt>
<wgt id='morphing_basis_vector_4'> +8.9011823e-05 </wgt>
<wgt id='morphing_basis_vector_5'> +1.4223592e-04 </wgt>
</rwgt>
</event>
<event>
 4      1 +1.5130300e-07 1.80173700e+03 7.81860800e-03 8.15822800e-02
        2 -1    0    0  501    0 +0.0000000000e+00 +0.0000000000e+00 +1.5407126945e+03 1.5407126945e+03 0.0000000000e+00 0.0000e+00 -1.0000e+00
       -2 -1    0    0    0  501 -0.0000000000e+00 -0.0000000000e+00 -5.2674610075e+02 5.2674610075e+02 0.0000000000e+00 0.0000e+00 1.0000e+00
      -13  1    1    2    0    0 -2.4881417918e+02 +5.1198217936e+02 -2.9422624746e+02 6.4078337403e+02 0.0000000000e+00 0.0000e+00 1.0000e+00
       13  1    1    2    0    0 +2.4881417918e+02 -5.1198217936e+02 +1.3081928412e+03 1.4266754212e+03 0.0000000000e+00 0.0000e+00 -1.0000e+00
<mgrwt>
<rscale>  0 0.18017374E+04</rscale>
<asrwt>0</asrwt>
<pdfrwt beam="1">  1        2 0.23703272E+00 0.18017374E+04</pdfrwt>
<pdfrwt beam="2">  1       -2 0.81037862E-01 0.18017374E+04</pdfrwt>
<totfact> 0.19620281E+01</totfact>
</mgrwt>
<rwgt>
<wgt id='morphing_basis_vector_1'> +2.2564817e-04 </wgt>
<wgt id='morphing_basis_vector_2'> +1.4967665e-04 </wgt>
<wgt id='morphing_basis_vector_3'> +2.3882444e-04 </wgt>
<wgt id='morphing_basis_vector_4'> +1.6461908e-04 </wgt>
<wgt id='morphing_basis_vector_5'> +2.6256169e-04 </wgt>
</rwgt>
</event>
<event>
 4      1 +1.5130300e-07 1.69270200e+03 7.81860800e-03 8.21096800e-02
        2 -1    0    0  501    0 +0.0000000000e+00 +0.0000000000e+00 +1.9155701950e+03 1.9155701950e+03 0.0000000000e+00 0.0000e+00 1.0000e+00
       -2 -1    0    0    0  501 -0.0000000000e+00 -0.0000000000e+00 -3.7394105262e+02 3.7394105262e+02 0.0000000000e+00 0.0000e+00 -1.0000e+00
      -13  1    1    2    0    0 +3.9868513290e+02 +5.5401071636e+02 +9.3940885187e+01 6.8898664642e+02 0.0000000000e+00 0.0000e+00 -1.0000e+00
       13  1    1    2    0    0 -3.9868513290e+02 -5.5401071636e+02 +1.4476882572e+03 1.6005246012e+03 0.0000000000e+00 0.0000e+00 1.0000e+00
<mgrwt>
<rscale>  0 0.16927024E+04</rscale>
<asrwt>0</asrwt>
<pdfrwt beam="1">  1        2 0.29470310E+00 0.16927024E+04</pdfrwt>
<pdfrwt beam="2">  1       -2 0.57529394E-01 0.16927024E+04</pdfrwt>
<totfact> 0.25468324E+01</totfact>
</mgrwt>
<rwgt>
<wgt id='morphing_basis_vector_1'> +1.7730137e-04 </wgt>
<wgt id='morphing_basis_vector_2'> +1.1798712e-04 </wgt>
<wgt id='morphing_basis_vector_3'> +1.8665124e-04 </wgt>
<wgt id='morphing_basis_vector_4'> +1.2674441e-04 </wgt>
<wgt id='morphing_basis_vector_5'> +2.0313716e-04 </wgt>
</rwgt>
</event>
<event>
 4      1 +1.5130300e-07 1.67881200e+03 7.81860800e-03 8.21797800e-02
        2 -1    0    0  501    0 +0.0000000000e+00 +0.0000000000e+00 +8.4015352902e+02 8.4015352902e+02 0.0000000000e+00 0.0000e+00 -1.0000e+00
       -2 -1    0    0    0  501 -0.0000000000e+00 -0.0000000000e+00 -8.3865912605e+02 8.3865912605e+02 0.0000000000e+00 0.0000e+00 1.0000e+00
      -13  1    1    2    0    0 +7.6378543614e+00 +4.3472301096e+02 -7.1727814614e+02 8.3876717390e+02 0.0000000000e+00 0.0000e+00 1.0000e+00
       13  1    1    2    0    0 -7.6378543614e+00 -4.3472301096e+02 +7.1877254911e+02 8.4004548117e+02 0.0000000000e+00 0.0000e+00 -1.0000e+00
<mgrwt>
<rscale>  0 0.16788120E+04</rscale>
<asrwt>0</asrwt>
<pdfrwt beam="1">  1        2 0.12925439E+00 0.16788120E+04</pdfrwt>
<pdfrwt beam="2">  1       -2 0.12902448E+00 0.16788120E+04</pdfrwt>
<totfact> 0.16607345E+01</totfact>
</mgrwt>
<rwgt>
<wgt id='morphing_basis_vector_1'> +1.7130072e-04 </wgt>
<wgt id='morphing_basis_vector_2'> +1.1298539e-04 </wgt>
<wgt id='morphing_basis_vector_3'> +1.8004763e-04 </wgt>
<wgt id='morphing_basis_vector_4'> +1.2331524e-04 </wgt>
<wgt id='morphing_basis_vector_5'> +1.9642627e-04 </wgt>
</rwgt>
</event>
<event>
 4      1 +1.5130300e-07 1.75410900e+03 7.81860800e-03 8.18078400e-02
        2 -1    0    0  501    0 +0.0000000000e+00 +0.0000000000e+00 +2.8623471738e+03 2.8623471738e+03 0.0000000000e+00 0.0000e+00 -1.0000e+00
       -2 -1    0    0    0  501 -0.0000000000e+00 -0.0000000000e+00 -2.6873896064e+02 2.6873896064e+02 0.0000000000e+00 0.0000e+00 1.0000e+00
      -13  1    1    2    0    0 +8.7011440927e+01 -4.6197595758e+02 -2.4858226473e+01 4.7075546482e+02 0.0000000000e+00 0.0000e+00 1.0000e+00
       13  1    1    2    0    0 -8.7011440927e+01 +4.6197595758e+02 +2.6184664396e+03 2.6603306696e+03 0.0000000000e+00 0.0000e+00 -1.0000e+00
<mgrwt>
<rscale>  0 0.17541086E+04</rscale>
<asrwt>0</asrwt>
<pdfrwt beam="1">  1        2 0.44036108E+00 0.17541086E+04</pdfrwt>
<pdfrwt beam="2">  1       -2 0.41344458E-01 0.17541086E+04</pdfrwt>
<totfact> 0.13394884E+01</totfact>
</mgrwt>
<rwgt>
<wgt id='morphing_basis_vector_1'> +2.0319768e-04 </wgt>
<wgt id='morphing_basis_vector_2'> +1.3440740e-04 </wgt>
<wgt id='morphing_basis_vector_3'> +2.1450485e-04 </wgt>
<wgt id='morphing_basis_vector_4'> +1.4764141e-04 </wgt>
<wgt id='morphing_basis_vector_5'> +2.3524352e-04 </wgt>
</rwgt>
</event>
<event>
 4      1 +1.5130300e-07 1.58343800e+03 7.81860800e-03 8.26806700e-02
        2 -1    0    0  501    0 +0.0000000000e+00 +0.0000000000e+00 +4.4640959685e+02 4.4640959685e+02 0.0000000000e+00 0.0000e+00 -1.0000e+00
       -2 -1    0    0    0  501 -0.0000000000e+00 -0.0000000000e+00 -1.4041350018e+03 1.4041350018e+03 0.0000000000e+00 0.0000e+00 1.0000e+00
      -13  1    1    2    0    0 +1.1639458323e+02 -5.7675420676e+02 -1.0979651123e+03 1.2456807383e+03 0.0000000000e+00 0.0000e+00 1.0000e+00
       13  1    1    2    0    0 -1.1639458323e+02 +5.7675420676e+02 +1.4023970734e+02 6.0486386033e+02 0.0000000000e+00 0.0000e+00 -1.0000e+00
<mgrwt>
<rscale>  0 0.15834385E+04</rscale>
<asrwt>0</asrwt>
<pdfrwt beam="1">  1        2 0.68678400E-01 0.15834385E+04</pdfrwt>
<pdfrwt beam="2">  1       -2 0.21602077E+00 0.15834385E+04</pdfrwt>
<totfact> 0.74014604E+00</totfact>
</mgrwt>
<rwgt>
<wgt id='morphing_basis_vector_1'> +1.3670789e-04 </wgt>
<wgt id='morphing_basis_vector_2'> +9.0235645e-05 </wgt>
<wgt id='morphing_basis_vector_3'> +1.4283101e-04 </wgt>
<wgt id='morphing_basis_vector_4'> +9.6576512e-05 </wgt>
<wgt id='morphing_basis_vector_5'> +1.5431470e-04 </wgt>
</rwgt>
</event>
<event>
 4      1 +1.5130300e-07 1.61544100e+03 7.81860800e-03 8.25086400e-02
        2 -1    0    0  501    0 +0.0000000000e+00 +0.0000000000e+00 +2.0139520046e+03 2.0139520046e+03 0.0000000000e+00 0.0000e+00 -1.0000e+00
       -2 -1    0    0    0  501 -0.0000000000e+00 -0.0000000000e+00 -3.2394636284e+02 3.2394636284e+02 0.0000000000e+00 0.0000e+00 1.0000e+00
      -13  1    1    2    0    0 +5.8401730187e+02 +1.5773575773e+02 +7.0428285833e+01 6.0902949156e+02 0.0000000000e+00 0.0000e+00 1.0000e+00
       13  1    1    2    0    0 -5.8401730187e+02 -1.5773575773e+02 +1.6195773559e+03 1.7288688758e+03 0.0000000000e+00 0.0000e+00 -1.0000e+00
<mgrwt>
<rscale>  0 0.16154410E+04</rscale>
<asrwt>0</asrwt>
<pdfrwt beam="1">  1        2 0.30983876E+00 0.16154410E+04</pdfrwt>
<pdfrwt beam="2">  1       -2 0.49837903E-01 0.16154410E+04</pdfrwt>
<totfact> 0.30077239E+01</totfact>
</mgrwt>
<rwgt>
<wgt id='morphing_basis_vector_1'> +1.4774079e-04 </wgt>
<wgt id='morphing_basis_vector_2'> +9.7679284e-05 </wgt>
<wgt id='morphing_basis_vector_3'> +1.5471190e-04 </wgt>
<wgt id='morphing_basis_vector_4'> +1.0485917e-04 </wgt>
<wgt id='morphing_basis_vector_5'> +1.6759878e-04 </wgt>
</rwgt>
</event>
<event>
 4      1 +1.5130300e-07 1.59419500e+03 7.81860800e-03 8.26223900e-02
        2 -1    0    0  501    0 +0.0000000000e+00 +0.0000000000e+00 +1.7268051299e+03 1.7268051299e+03 0.0000000000e+00 0.0000e+00 -1.0000e+00
       -2 -1    0    0    0  501 -0.0000000000e+00 -0.0000000000e+00 -3.6794233283e+02 3.6794233283e+02 0.0000000000e+00 0.0000e+00 1.0000e+00
      -13  1    1    2    0    0 +7.9473430438e+01 -5.2103536621e+02 -1.0629469149e+02 5.3767317250e+02 0.0000000000e+00 0.0000e+00 1.0000e+00
       13  1    1    2    0    0 -7.9473430438e+01 +5.2103536621e+02 +1.4651574885e+03 1.5570742902e+03 0.0000000000e+00 0.0000e+00 -1.0000e+00
<mgrwt>
<rscale>  0 0.15941954E+04</rscale>
<asrwt>0</asrwt>
<pdfrwt beam="1">  1        2 0.26566232E+00 0.15941954E+04</pdfrwt>
<pdfrwt beam="2">  1       -2 0.56606514E-01 0.15941954E+04</pdfrwt>
<totfact> 0.33808055E+01</totfact>
</mgrwt>
<rwgt>
<wgt id='morphing_basis_vector_1'> +1.4023407e-04 </wgt>
<wgt id='morphing_basis_vector_2'> +9.2360764e-05 </wgt>
<wgt id='morphing_basis_vector_3'> +1.4659691e-04 </wgt>
<wgt id='morphing_basis_vector_4'> +9.9512948e-05 </wgt>
<wgt id='morphing_basis_vector_5'> +1.5870494e-04 </wgt>
</rwgt>
</event>
<event>
 4      1 +1.5130300e-07 1.81720300e+03 7.81860800e-03 8.15105700e-02
        2 -1    0    0  501    0 +0.0000000000e+00 +0.0000000000e+00 +8.0201527579e+02 8.0201527579e+02 0.0000000000e+00 0.0000e+00 1.0000e+00
       -2 -1    0    0    0  501 -0.0000000000e+00 -0.0000000000e+00 -1.0293530117e+03 1.0293530117e+03 0.0000000000e+00 0.0000e+00 -1.0000e+00
      -13  1    1    2    0    0 -8.4558051712e+02 -7.9996680416e+01 -4.3890878548e+02 9.5605794897e+02 0.0000000000e+00 0.0000e+00 -1.0000e+00
       13  1    1    2    0    0 +8.4558051712e+02 +7.9996680416e+01 +2.1157104952e+02 8.7531033857e+02 0.0000000000e+00 0.0000e+00 1.0000e+00
<mgrwt>
<rscale>  0 0.18172032E+04</rscale>
<asrwt>0</asrwt>
<pdfrwt beam="1">  1        2 0.12338697E+00 0.18172032E+04</pdfrwt>
<pdfrwt beam="2">  1       -2 0.15836200E+00 0.18172032E+04</pdfrwt>
<totfact> 0.98249665E+00</totfact>
</mgrwt>
<rwgt>
<wgt id='morphing_basis_vector_1'> +2.3523521e-04 </wgt>
<wgt id='morphing_basis_vector_2'> +1.6056663e-04 </wgt>
<wgt id='morphing_basis_vector_3'> +2.4985090e-04 </wgt>
<wgt id='morphing_basis_vector_4'> +1.6669957e-04 </wgt>
<wgt id='morphing_basis_vector_5'> +2.7162963e-04 </wgt>
</rwgt>
</event>
<event>
 4      1 +1.5130300e-07 1.60001900e+03 7.81860800e-03 8.25910300e-02
        2 -1    0    0  501    0 +0.0000000000e+00 +0.0000000000e+00 +1.8038308309e+03 1.8038308309e+03 0.0000000000e+00 0.0000e+00 -1.0000e+00
       -2 -1    0    0    0  501 -0.0000000000e+00 -0.0000000000e+00 -3.5480902110e+02 3.5480902110e+02 0.0000000000e+00 0.0000e+00 1.0000e+00
      -13  1    1    2    0    0 +7.6011404431e+02 +1.9281167239e+02 +5.1091382209e+02 9.3593943980e+02 0.0000000000e+00 0.0000e+00 1.0000e+00
       13  1    1    2    0    0 -7.6011404431e+02 -1.9281167239e+02 +9.3810798768e+02 1.2227004122e+03 0.0000000000e+00 0.0000e+00 -1.0000e+00
<mgrwt>
<rscale>  0 0.16000193E+04</rscale>
<asrwt>0</asrwt>
<pdfrwt beam="1">  1        2 0.27751243E+00 0.16000193E+04</pdfrwt>
<pdfrwt beam="2">  1       -2 0.54586004E-01 0.16000193E+04</pdfrwt>
<totfact> 0.32946740E+01</totfact>
</mgrwt>
<rwgt>
<wgt id='morphing_basis_vector_1'> +1.4456622e-04 </wgt>
<wgt id='morphing_basis_vector_2'> +1.0065171e-04 </wgt>
<wgt id='morphing_basis_vector_3'> +1.5189665e-04 </wgt>
<wgt id='morphing_basis_vector_4'> +9.6581693e-05 </wgt>
<wgt id='morphing_basis_vector_5'> +1.6077680e-04 </wgt>
</rwgt>
</event>
<event>
 4      1 +1.5130300e-07 1.67367200e+03 7.81860800e-03 8.22058900e-02
        2 -1    0    0  501    0 +0.0000000000e+00 +0.0000000000e+00 +1.1489906284e+03 1.1489906284e+03 0.0000000000e+00 0.0000e+00 -1.0000e+00
       -2 -1    0    0    0  501 -0.0000000000e+00 -0.0000000000e+00 -6.0948673172e+02 6.0948673172e+02 0.0000000000e+00 0.0000e+00 1.0000e+00
      -13  1    1    2    0    0 +1.4753897687e+01 -6.6974063041e+02 +7.9668620703e+02 1.0409030224e+03 0.0000000000e+00 0.0000e+00 1.0000e+00
       13  1    1    2    0    0 -1.4753897687e+01 +6.6974063041e+02 -2.5718231031e+02 7.1757433779e+02 0.0000000000e+00 0.0000e+00 -1.0000e+00
<mgrwt>
<rscale>  0 0.16736721E+04</rscale>
<asrwt>0</asrwt>
<pdfrwt beam="1">  1        2 0.17676779E+00 0.16736721E+04</pdfrwt>
<pdfrwt beam="2">  1       -2 0.93767190E-01 0.16736721E+04</pdfrwt>
<totfact> 0.23675565E+01</totfact>
</mgrwt>
<rwgt>
<wgt id='morphing_basis_vector_1'> +2.0896611e-04 </wgt>
<wgt id='morphing_basis_vector_2'> +2.2960143e-04 </wgt>
<wgt id='morphing_basis_vector_3'> +2.3240706e-04 </wgt>
<wgt id='morphing_basis_vector_4'> +4.5524616e-05 </wgt>
<wgt id='morphing_basis_vector_5'> +1.8814323e-04 </wgt>
</rwgt>
</event>
<event>
 4      1 +1.5130300e-07 1.55588800e+03 7.81860800e-03 8.28321600e-02
        2 -1    0    0  501    0 +0.0000000000e+00 +0.0000000000e+00 +1.7308840708e+03 1.7308840708e+03 0.0000000000e+00 0.0000e+00 -1.0000e+00
       -2 -1    0    0    0  501 -0.0000000000e+00 -0.0000000000e+00 -3.4964596048e+02 3.4964596048e+02 0.0000000000e+00 0.0000e+00 1.0000e+00
      -13  1    1    2    0    0 -7.1280199986e+02 -2.7398779023e+02 +4.9209749470e+02 9.0846901130e+02 0.0000000000e+00 0.0000e+00 1.0000e+00
       13  1    1    2    0    0 +7.1280199986e+02 +2.7398779023e+02 +8.8914061564e+02 1.1720610200e+03 0.0000000000e+00 0.0000e+00 -1.0000e+00
<mgrwt>
<rscale>  0 0.15558877E+04</rscale>
<asrwt>0</asrwt>
<pdfrwt beam="1">  1        2 0.26628985E+00 0.15558877E+04</pdfrwt>
<pdfrwt beam="2">  1       -2 0.53791687E-01 0.15558877E+04</pdfrwt>
<totfact> 0.37387749E+01</totfact>
</mgrwt>
<rwgt>
<wgt id='morphing_basis_vector_1'> +1.2978983e-04 </wgt>
<wgt id='morphing_basis_vector_2'> +9.0339846e-05 </wgt>
<wgt id='morphing_basis_vector_3'> +1.3592114e-04 </wgt>
<wgt id='morphing_basis_vector_4'> +8.5942178e-05 </wgt>
<wgt id='morphing_basis_vector_5'> +1.4322634e-04 </wgt>
</rwgt>
</event>
<event>
 4      1 +1.5130300e-07 1.55610300e+03 7.81860800e-03 8.28309700e-02
        2 -1    0    0  501    0 +0.0000000000e+00 +0.0000000000e+00 +3.3914519364e+03 3.3914519364e+03 0.0000000000e+00 0.0000e+00 1.0000e+00
       -2 -1    0    0    0  501 -0.0000000000e+00 -0.0000000000e+00 -1.7849698451e+02 1.7849698451e+02 0.0000000000e+00 0.0000e+00 -1.0000e+00
      -13  1    1    2    0    0 +1.6358401668e+02 +4.9726803483e+02 +2.8593228071e+02 5.9648344330e+02 0.0000000000e+00 0.0000e+00 -1.0000e+00
       13  1    1    2    0    0 -1.6358401668e+02 -4.9726803483e+02 +2.9270226711e+03 2.9734654776e+03 0.0000000000e+00 0.0000e+00 1.0000e+00
<mgrwt>
<rscale>  0 0.15561028E+04</rscale>
<asrwt>0</asrwt>
<pdfrwt beam="1">  1        2 0.52176179E+00 0.15561028E+04</pdfrwt>
<pdfrwt beam="2">  1       -2 0.27461077E-01 0.15561028E+04</pdfrwt>
<totfact> 0.12733515E+01</totfact>
</mgrwt>
<rwgt>
<wgt id='morphing_basis_vector_1'> +1.2771056e-04 </wgt>
<wgt id='morphing_basis_vector_2'> +8.3990660e-05 </wgt>
<wgt id='morphing_basis_vector_3'> +1.3313321e-04 </wgt>
<wgt id='morphing_basis_vector_4'> +9.0042641e-05 </wgt>
<wgt id='morphing_basis_vector_5'> +1.4361188e-04 </wgt>
</rwgt>
</event>
<event>
 4      1 +1.5130300e-07 1.85702900e+03 7.81860800e-03 8.13292900e-02
        2 -1    0    0  501    0 +0.0000000000e+00 +0.0000000000e+00 +2.6148354972e+03 2.6148354972e+03 0.0000000000e+00 0.0000e+00 -1.0000e+00
       -2 -1    0    0    0  501 -0.0000000000e+00 -0.0000000000e+00 -3.2971080013e+02 3.2971080013e+02 0.0000000000e+00 0.0000e+00 1.0000e+00
      -13  1    1    2    0    0 -8.4083997040e+02 -3.2203546174e+02 +7.8300425112e+02 1.1932369219e+03 0.0000000000e+00 0.0000e+00 1.0000e+00
       13  1    1    2    0    0 +8.4083997040e+02 +3.2203546174e+02 +1.5021204460e+03 1.7513093755e+03 0.0000000000e+00 0.0000e+00 -1.0000e+00
<mgrwt>
<rscale>  0 0.18570294E+04</rscale>
<asrwt>0</asrwt>
<pdfrwt beam="1">  1        2 0.40228237E+00 0.18570294E+04</pdfrwt>
<pdfrwt beam="2">  1       -2 0.50724740E-01 0.18570294E+04</pdfrwt>
<totfact> 0.12729927E+01</totfact>
</mgrwt>
<rwgt>
<wgt id='morphing_basis_vector_1'> +2.5739080e-04 </wgt>
<wgt id='morphing_basis_vector_2'> +1.7902643e-04 </wgt>
<wgt id='morphing_basis_vector_3'> +2.7441116e-04 </wgt>
<wgt id='morphing_basis_vector_4'> +1.7946310e-04 </wgt>
<wgt id='morphing_basis_vector_5'> +2.9664111e-04 </wgt>
</rwgt>
</event>
<event>
 4      1 +1.5130300e-07 1.64951500e+03 7.81860800e-03 8.23299300e-02
        2 -1    0    0  501    0 +0.0000000000e+00 +0.0000000000e+00 +9.2753212566e+02 9.2753212566e+02 0.0000000000e+00 0.0000e+00 -1.0000e+00
       -2 -1    0    0    0  501 -0.0000000000e+00 -0.0000000000e+00 -7.3337073325e+02 7.3337073325e+02 0.0000000000e+00 0.0000e+00 1.0000e+00
      -13  1    1    2    0    0 -3.5231833562e+02 -2.9886074465e+02 -5.9084828491e+02 7.5003176605e+02 0.0000000000e+00 0.0000e+00 1.0000e+00
       13  1    1    2    0    0 +3.5231833562e+02 +2.9886074465e+02 +7.8500967733e+02 9.1087109286e+02 0.0000000000e+00 0.0000e+00 -1.0000e+00
<mgrwt>
<rscale>  0 0.16495150E+04</rscale>
<asrwt>0</asrwt>
<pdfrwt beam="1">  1        2 0.14269725E+00 0.16495150E+04</pdfrwt>
<pdfrwt beam="2">  1       -2 0.11282627E+00 0.16495150E+04</pdfrwt>
<totfact> 0.20664356E+01</totfact>
</mgrwt>
<rwgt>
<wgt id='morphing_basis_vector_1'> +1.5999571e-04 </wgt>
<wgt id='morphing_basis_vector_2'> +1.0544872e-04 </wgt>
<wgt id='morphing_basis_vector_3'> +1.6786121e-04 </wgt>
<wgt id='morphing_basis_vector_4'> +1.1466789e-04 </wgt>
<wgt id='morphing_basis_vector_5'> +1.8268868e-04 </wgt>
</rwgt>
</event>
<event>
 4      1 +1.5130300e-07 1.64785100e+03 7.81860800e-03 8.23385500e-02
        2 -1    0    0  501    0 +0.0000000000e+00 +0.0000000000e+00 +3.0723835078e+03 3.0723835078e+03 0.0000000000e+00 0.0000e+00 -1.0000e+00
       -2 -1    0    0    0  501 -0.0000000000e+00 -0.0000000000e+00 -2.2095323438e+02 2.2095323438e+02 0.0000000000e+00 0.0000e+00 1.0000e+00
      -13  1    1    2    0    0 -5.7856628106e+02 -3.2808927142e+02 +4.5384618203e+02 8.0520672410e+02 0.0000000000e+00 0.0000e+00 1.0000e+00
       13  1    1    2    0    0 +5.7856628106e+02 +3.2808927142e+02 +2.3975840914e+03 2.4881300181e+03 0.0000000000e+00 0.0000e+00 -1.0000e+00
<mgrwt>
<rscale>  0 0.16478508E+04</rscale>
<asrwt>0</asrwt>
<pdfrwt beam="1">  1        2 0.47267436E+00 0.16478508E+04</pdfrwt>
<pdfrwt beam="2">  1       -2 0.33992807E-01 0.16478508E+04</pdfrwt>
<totfact> 0.14226052E+01</totfact>
</mgrwt>
<rwgt>
<wgt id='morphing_basis_vector_1'> +1.5973785e-04 </wgt>
<wgt id='morphing_basis_vector_2'> +1.0612312e-04 </wgt>
<wgt id='morphing_basis_vector_3'> +1.6768916e-04 </wgt>
<wgt id='morphing_basis_vector_4'> +1.1348855e-04 </wgt>
<wgt id='morphing_basis_vector_5'> +1.8187700e-04 </wgt>
</rwgt>
</event>
<event>
 4      1 +1.5130300e-07 1.66793300e+03 7.81860800e-03 8.22351600e-02
        2 -1    0    0  501    0 +0.0000000000e+00 +0.0000000000e+00 +5.6311910527e+02 5.6311910527e+02 0.0000000000e+00 0.0000e+00 -1.0000e+00
       -2 -1    0    0    0  501 -0.0000000000e+00 -0.0000000000e+00 -1.2350858172e+03 1.2350858172e+03 0.0000000000e+00 0.0000e+00 1.0000e+00
      -13  1    1    2    0    0 +7.9530250292e+02 -2.3968952019e+02 -4.1625164682e+02 9.2909771861e+02 0.0000000000e+00 0.0000e+00 1.0000e+00
       13  1    1    2    0    0 -7.9530250292e+02 +2.3968952019e+02 -2.5571506508e+02 8.6910720383e+02 0.0000000000e+00 0.0000e+00 -1.0000e+00
<mgrwt>
<rscale>  0 0.16679334E+04</rscale>
<asrwt>0</asrwt>
<pdfrwt beam="1">  1        2 0.86633709E-01 0.16679334E+04</pdfrwt>
<pdfrwt beam="2">  1       -2 0.19001320E+00 0.16679334E+04</pdfrwt>
<totfact> 0.87132903E+00</totfact>
</mgrwt>
<rwgt>
<wgt id='morphing_basis_vector_1'> +1.7137115e-04 </wgt>
<wgt id='morphing_basis_vector_2'> +1.2303087e-04 </wgt>
<wgt id='morphing_basis_vector_3'> +1.8139892e-04 </wgt>
<wgt id='morphing_basis_vector_4'> +1.1172666e-04 </wgt>
<wgt id='morphing_basis_vector_5'> +1.9060393e-04 </wgt>
</rwgt>
</event>
<event>
 4      1 +1.5130300e-07 1.70798100e+03 7.81860800e-03 8.20333700e-02
        2 -1    0    0  501    0 +0.0000000000e+00 +0.0000000000e+00 +4.9750095484e+02 4.9750095484e+02 0.0000000000e+00 0.0000e+00 1.0000e+00
       -2 -1    0    0    0  501 -0.0000000000e+00 -0.0000000000e+00 -1.4659269747e+03 1.4659269747e+03 0.0000000000e+00 0.0000e+00 -1.0000e+00
      -13  1    1    2    0    0 -4.6444399520e+00 -5.1879132214e+02 -1.2639964959e+03 1.3663283457e+03 0.0000000000e+00 0.0000e+00 -1.0000e+00
       13  1    1    2    0    0 +4.6444399520e+00 +5.1879132214e+02 +2.9557047599e+02 5.9709958384e+02 0.0000000000e+00 0.0000e+00 1.0000e+00
<mgrwt>
<rscale>  0 0.17079813E+04</rscale>
<asrwt>0</asrwt>
<pdfrwt beam="1">  1        2 0.76538608E-01 0.17079813E+04</pdfrwt>
<pdfrwt beam="2">  1       -2 0.22552723E+00 0.17079813E+04</pdfrwt>
<totfact> 0.55441930E+00</totfact>
</mgrwt>
<rwgt>
<wgt id='morphing_basis_vector_1'> +1.8321911e-04 </wgt>
<wgt id='morphing_basis_vector_2'> +1.2109880e-04 </wgt>
<wgt id='morphing_basis_vector_3'> +1.9292847e-04 </wgt>
<wgt id='morphing_basis_vector_4'> +1.3225922e-04 </wgt>
<wgt id='morphing_basis_vector_5'> +2.1084155e-04 </wgt>
</rwgt>
</event>
<event>
 4      1 +1.5130300e-07 1.85855200e+03 7.81860800e-03 8.13224500e-02
        2 -1    0    0  501    0 +0.0000000000e+00 +0.0000000000e+00 +1.6987244478e+03 1.6987244478e+03 0.0000000000e+00 0.0000e+00 -1.0000e+00
       -2 -1    0    0    0  501 -0.0000000000e+00 -0.0000000000e+00 -5.0835455584e+02 5.0835455584e+02 0.0000000000e+00 0.0000e+00 1.0000e+00
      -13  1    1    2    0    0 +5.0428394516e+02 +7.7968618608e+02 +6.3867930130e+02 1.1269978243e+03 0.0000000000e+00 0.0000e+00 1.0000e+00
       13  1    1    2    0    0 -5.0428394516e+02 -7.7968618608e+02 +5.5169059067e+02 1.0800811793e+03 0.0000000000e+00 0.0000e+00 -1.0000e+00
<mgrwt>
<rscale>  0 0.18585525E+04</rscale>
<asrwt>0</asrwt>
<pdfrwt beam="1">  1        2 0.26134222E+00 0.18585525E+04</pdfrwt>
<pdfrwt beam="2">  1       -2 0.78208394E-01 0.18585525E+04</pdfrwt>
<totfact> 0.17277374E+01</totfact>
</mgrwt>
<rwgt>
<wgt id='morphing_basis_vector_1'> +2.6526320e-04 </wgt>
<wgt id='morphing_basis_vector_2'> +2.0050171e-04 </wgt>
<wgt id='morphing_basis_vector_3'> +2.8535595e-04 </wgt>
<wgt id='morphing_basis_vector_4'> +1.6622586e-04 </wgt>
<wgt id='morphing_basis_vector_5'> +2.9655931e-04 </wgt>
</rwgt>
</event>
<event>
 4      1 +1.5130300e-07 1.55683200e+03 7.81860800e-03 8.28269200e-02
        2 -1    0    0  501    0 +0.0000000000e+00 +0.0000000000e+00 +1.4570098646e+03 1.4570098646e+03 0.0000000000e+00 0.0000e+00 -1.0000e+00
       -2 -1    0    0    0  501 -0.0000000000e+00 -0.0000000000e+00 -4.1587320649e+02 4.1587320649e+02 0.0000000000e+00 0.0000e+00 1.0000e+00
      -13  1    1    2    0    0 -1.9145294392e+02 -3.8752553349e+02 -2.5823598739e+02 5.0350381729e+02 0.0000000000e+00 0.0000e+00 1.0000e+00
       13  1    1    2    0    0 +1.9145294392e+02 +3.8752553349e+02 +1.2993726455e+03 1.3693792538e+03 0.0000000000e+00 0.0000e+00 -1.0000e+00
<mgrwt>
<rscale>  0 0.15568319E+04</rscale>
<asrwt>0</asrwt>
<pdfrwt beam="1">  1        2 0.22415536E+00 0.15568319E+04</pdfrwt>
<pdfrwt beam="2">  1       -2 0.63980494E-01 0.15568319E+04</pdfrwt>
<totfact> 0.37287598E+01</totfact>
</mgrwt>
<rwgt>
<wgt id='morphing_basis_vector_1'> +1.2787062e-04 </wgt>
<wgt id='morphing_basis_vector_2'> +8.3932751e-05 </wgt>
<wgt id='morphing_basis_vector_3'> +1.3328672e-04 </wgt>
<wgt id='morphing_basis_vector_4'> +9.0351950e-05 </wgt>
<wgt id='morphing_basis_vector_5'> +1.4390044e-04 </wgt>
</rwgt>
</event>
<event>
 4      1 +1.5130300e-07 1.81656600e+03 7.81860800e-03 8.15135100e-02
        2 -1    0    0  501    0 +0.0000000000e+00 +0.0000000000e+00 +1.9618037293e+03 1.9618037293e+03 0.0000000000e+00 0.0000e+00 1.0000e+00
       -2 -1    0    0    0  501 -0.0000000000e+00 -0.0000000000e+00 -4.2051993947e+02 4.2051993947e+02 0.0000000000e+00 0.0000e+00 -1.0000e+00
      -13  1    1    2    0    0 +7.9985974873e+02 +1.8333217437e+02 +2.6003484374e+02 8.6081613818e+02 0.0000000000e+00 0.0000e+00 -1.0000e+00
       13  1    1    2    0    0 -7.9985974873e+02 -1.8333217437e+02 +1.2812489461e+03 1.5215075306e+03 0.0000000000e+00 0.0000e+00 1.0000e+00
<mgrwt>
<rscale>  0 0.18165655E+04</rscale>
<asrwt>0</asrwt>
<pdfrwt beam="1">  1        2 0.30181595E+00 0.18165655E+04</pdfrwt>
<pdfrwt beam="2">  1       -2 0.64695376E-01 0.18165655E+04</pdfrwt>
<totfact> 0.18637810E+01</totfact>
</mgrwt>
<rwgt>
<wgt id='morphing_basis_vector_1'> +2.3431207e-04 </wgt>
<wgt id='morphing_basis_vector_2'> +1.5856050e-04 </wgt>
<wgt id='morphing_basis_vector_3'> +2.4865022e-04 </wgt>
<wgt id='morphing_basis_vector_4'> +1.6763571e-04 </wgt>
<wgt id='morphing_basis_vector_5'> +2.7133053e-04 </wgt>
</rwgt>
</event>
<event>
 4      1 +1.5130300e-07 1.77520000e+03 7.81860800e-03 8.17070700e-02
        2 -1    0    0  501    0 +0.0000000000e+00 +0.0000000000e+00 +3.4097636144e+03 3.4097636144e+03 0.0000000000e+00 0.0000e+00 -1.0000e+00
       -2 -1    0    0    0  501 -0.0000000000e+00 -0.0000000000e+00 -2.3105235082e+02 2.3105235082e+02 0.0000000000e+00 0.0000e+00 1.0000e+00
      -13  1    1    2    0    0 -8.8063410762e+02 +6.0831402296e+01 +1.7797392796e+03 1.9866274926e+03 0.0000000000e+00 0.0000e+00 1.0000e+00
       13  1    1    2    0    0 +8.8063410762e+02 -6.0831402296e+01 +1.3989719840e+03 1.6541884726e+03 0.0000000000e+00 0.0000e+00 -1.0000e+00
<mgrwt>
<rscale>  0 0.17752002E+04</rscale>
<asrwt>0</asrwt>
<pdfrwt beam="1">  1        2 0.52457898E+00 0.17752002E+04</pdfrwt>
<pdfrwt beam="2">  1       -2 0.35546518E-01 0.17752002E+04</pdfrwt>
<totfact> 0.76246901E+00</totfact>
</mgrwt>
<rwgt>
<wgt id='morphing_basis_vector_1'> +2.2406390e-04 </wgt>
<wgt id='morphing_basis_vector_2'> +1.7409117e-04 </wgt>
<wgt id='morphing_basis_vector_3'> +2.4068029e-04 </wgt>
<wgt id='morphing_basis_vector_4'> +1.3330319e-04 </wgt>
<wgt id='morphing_basis_vector_5'> +2.4538967e-04 </wgt>
</rwgt>
</event>
<event>
 4      1 +1.5130300e-07 1.61128000e+03 7.81860800e-03 8.25307800e-02
        2 -1    0    0  501    0 +0.0000000000e+00 +0.0000000000e+00 +2.5496873846e+03 2.5496873846e+03 0.0000000000e+00 0.0000e+00 1.0000e+00
       -2 -1    0    0    0  501 -0.0000000000e+00 -0.0000000000e+00 -2.5456292813e+02 2.5456292813e+02 0.0000000000e+00 0.0000e+00 -1.0000e+00
      -13  1    1    2    0    0 -3.6638681690e+02 -5.3529997344e+02 +3.1604614477e+02 7.2157503199e+02 0.0000000000e+00 0.0000e+00 -1.0000e+00
       13  1    1    2    0    0 +3.6638681690e+02 +5.3529997344e+02 +1.9790783117e+03 2.0826752807e+03 0.0000000000e+00 0.0000e+00 1.0000e+00
<mgrwt>
<rscale>  0 0.16112801E+04</rscale>
<asrwt>0</asrwt>
<pdfrwt beam="1">  1        2 0.39225958E+00 0.16112801E+04</pdfrwt>
<pdfrwt beam="2">  1       -2 0.39163529E-01 0.16112801E+04</pdfrwt>
<totfact> 0.23376692E+01</totfact>
</mgrwt>
<rwgt>
<wgt id='morphing_basis_vector_1'> +1.4641127e-04 </wgt>
<wgt id='morphing_basis_vector_2'> +9.7108190e-05 </wgt>
<wgt id='morphing_basis_vector_3'> +1.5331856e-04 </wgt>
<wgt id='morphing_basis_vector_4'> +1.0348357e-04 </wgt>
<wgt id='morphing_basis_vector_5'> +1.6580491e-04 </wgt>
</rwgt>
</event>
<event>
 4      1 +1.5130300e-07 1.58319000e+03 7.81860800e-03 8.26820200e-02
        2 -1    0    0  501    0 +0.0000000000e+00 +0.0000000000e+00 +9.6478189253e+02 9.6478189253e+02 0.0000000000e+00 0.0000e+00 1.0000e+00
       -2 -1    0    0    0  501 -0.0000000000e+00 -0.0000000000e+00 -6.4949676491e+02 6.4949676491e+02 0.0000000000e+00 0.0000e+00 -1.0000e+00
      -13  1    1    2    0    0 +6.3519434747e+02 +3.0807046816e+02 -2.0750047900e+02 7.3582315891e+02 0.0000000000e+00 0.0000e+00 -1.0000e+00
       13  1    1    2    0    0 -6.3519434747e+02 -3.0807046816e+02 +5.2278560662e+02 8.7845549853e+02 0.0000000000e+00 0.0000e+00 1.0000e+00
<mgrwt>
<rscale>  0 0.15831901E+04</rscale>
<asrwt>0</asrwt>
<pdfrwt beam="1">  1        2 0.14842798E+00 0.15831901E+04</pdfrwt>
<pdfrwt beam="2">  1       -2 0.99922579E-01 0.15831901E+04</pdfrwt>
<totfact> 0.26566977E+01</totfact>
</mgrwt>
<rwgt>
<wgt id='morphing_basis_vector_1'> +1.3718037e-04 </wgt>
<wgt id='morphing_basis_vector_2'> +9.1833251e-05 </wgt>
<wgt id='morphing_basis_vector_3'> +1.4348764e-04 </wgt>
<wgt id='morphing_basis_vector_4'> +9.5461738e-05 </wgt>
<wgt id='morphing_basis_vector_5'> +1.5413552e-04 </wgt>
</rwgt>
</event>
<event>
 4      1 +1.5130300e-07 1.66989800e+03 7.81860800e-03 8.22251300e-02
        2 -1    0    0  501    0 +0.0000000000e+00 +0.0000000000e+00 +2.5625024212e+03 2.5625024212e+03 0.0000000000e+00 0.0000e+00 -1.0000e+00
       -2 -1    0    0    0  501 -0.0000000000e+00 -0.0000000000e+00 -2.7205439583e+02 2.7205439583e+02 0.0000000000e+00 0.0000e+00 1.0000e+00
      -13  1    1    2    0    0 +6.3586066145e+02 +5.2952138713e+02 +9.5598869061e+02 1.2643678487e+03 0.0000000000e+00 0.0000e+00 1.0000e+00
       13  1    1    2    0    0 -6.3586066145e+02 -5.2952138713e+02 +1.3344593348e+03 1.5701889684e+03 0.0000000000e+00 0.0000e+00 -1.0000e+00
<mgrwt>
<rscale>  0 0.16698983E+04</rscale>
<asrwt>0</asrwt>
<pdfrwt beam="1">  1        2 0.39423112E+00 0.16698983E+04</pdfrwt>
<pdfrwt beam="2">  1       -2 0.41854524E-01 0.16698983E+04</pdfrwt>
<totfact> 0.20170243E+01</totfact>
</mgrwt>
<rwgt>
<wgt id='morphing_basis_vector_1'> +1.7147762e-04 </wgt>
<wgt id='morphing_basis_vector_2'> +1.2158427e-04 </wgt>
<wgt id='morphing_basis_vector_3'> +1.8132241e-04 </wgt>
<wgt id='morphing_basis_vector_4'> +1.1357269e-04 </wgt>
<wgt id='morphing_basis_vector_5'> +1.9162932e-04 </wgt>
</rwgt>
</event>
<event>
 4      1 +1.5130300e-07 1.58944500e+03 7.81860800e-03 8.26480700e-02
        2 -1    0    0  501    0 +0.0000000000e+00 +0.0000000000e+00 +1.4808954332e+03 1.4808954332e+03 0.0000000000e+00 0.0000e+00 1.0000e+00
       -2 -1    0    0    0  501 -0.0000000000e+00 -0.0000000000e+00 -4.2648797639e+02 4.2648797639e+02 0.0000000000e+00 0.0000e+00 -1.0000e+00
      -13  1    1    2    0    0 +5.1737600587e+02 +6.0125088194e+02 +4.6837109659e+02 9.2116884369e+02 0.0000000000e+00 0.0000e+00 1.0000e+00
       13  1    1    2    0    0 -5.1737600587e+02 -6.0125088194e+02 +5.8603636022e+02 9.8621456589e+02 0.0000000000e+00 0.0000e+00 -1.0000e+00
<mgrwt>
<rscale>  0 0.15894453E+04</rscale>
<asrwt>0</asrwt>
<pdfrwt beam="1">  1        2 0.22783006E+00 0.15894453E+04</pdfrwt>
<pdfrwt beam="2">  1       -2 0.65613535E-01 0.15894453E+04</pdfrwt>
<totfact> 0.34205245E+01</totfact>
</mgrwt>
<rwgt>
<wgt id='morphing_basis_vector_1'> +1.4253392e-04 </wgt>
<wgt id='morphing_basis_vector_2'> +1.0292132e-04 </wgt>
<wgt id='morphing_basis_vector_3'> +1.5012449e-04 </wgt>
<wgt id='morphing_basis_vector_4'> +9.0878441e-05 </wgt>
<wgt id='morphing_basis_vector_5'> +1.5620251e-04 </wgt>
</rwgt>
</event>
<event>
 4      1 +1.5130300e-07 1.61768700e+03 7.81860800e-03 8.24967300e-02
        2 -1    0    0  501    0 +0.0000000000e+00 +0.0000000000e+00 +1.6219274921e+03 1.6219274921e+03 0.0000000000e+00 0.0000e+00 -1.0000e+00
       -2 -1    0    0    0  501 -0.0000000000e+00 -0.0000000000e+00 -4.0336429691e+02 4.0336429691e+02 0.0000000000e+00 0.0000e+00 1.0000e+00
      -13  1    1    2    0    0 +5.7841004543e+02 -4.1336632027e+02 +1.2634364211e+02 7.2207521166e+02 0.0000000000e+00 0.0000e+00 1.0000e+00
       13  1    1    2    0    0 -5.7841004543e+02 +4.1336632027e+02 +1.0922195531e+03 1.3032165774e+03 0.0000000000e+00 0.0000e+00 -1.0000e+00
<mgrwt>
<rscale>  0 0.16176868E+04</rscale>
<asrwt>0</asrwt>
<pdfrwt beam="1">  1        2 0.24952730E+00 0.16176868E+04</pdfrwt>
<pdfrwt beam="2">  1       -2 0.62056046E-01 0.16176868E+04</pdfrwt>
<totfact> 0.31972137E+01</totfact>
</mgrwt>
<rwgt>
<wgt id='morphing_basis_vector_1'> +1.4903465e-04 </wgt>
<wgt id='morphing_basis_vector_2'> +9.9691140e-05 </wgt>
<wgt id='morphing_basis_vector_3'> +1.5624363e-04 </wgt>
<wgt id='morphing_basis_vector_4'> +1.0451650e-04 </wgt>
<wgt id='morphing_basis_vector_5'> +1.6849039e-04 </wgt>
</rwgt>
</event>
<event>
 4      1 +1.5130300e-07 1.62840900e+03 7.81860800e-03 8.24401000e-02
        2 -1    0    0  501    0 +0.0000000000e+00 +0.0000000000e+00 +2.3928031095e+03 2.3928031095e+03 0.0000000000e+00 0.0000e+00 -1.0000e+00
       -2 -1    0    0    0  501 -0.0000000000e+00 -0.0000000000e+00 -2.7705134363e+02 2.7705134363e+02 0.0000000000e+00 0.0000e+00 1.0000e+00
      -13  1    1    2    0    0 +1.1310573109e+02 -6.4040788399e+02 +2.5464129104e+02 6.9839627103e+02 0.0000000000e+00 0.0000e+00 1.0000e+00
       13  1    1    2    0    0 -1.1310573109e+02 +6.4040788399e+02 +1.8611104748e+03 1.9714581821e+03 0.0000000000e+00 0.0000e+00 -1.0000e+00
<mgrwt>
<rscale>  0 0.16284094E+04</rscale>
<asrwt>0</asrwt>
<pdfrwt beam="1">  1        2 0.36812354E+00 0.16284094E+04</pdfrwt>
<pdfrwt beam="2">  1       -2 0.42623285E-01 0.16284094E+04</pdfrwt>
<totfact> 0.24655632E+01</totfact>
</mgrwt>
<rwgt>
<wgt id='morphing_basis_vector_1'> +1.5251978e-04 </wgt>
<wgt id='morphing_basis_vector_2'> +1.0118404e-04 </wgt>
<wgt id='morphing_basis_vector_3'> +1.5989654e-04 </wgt>
<wgt id='morphing_basis_vector_4'> +1.0813035e-04 </wgt>
<wgt id='morphing_basis_vector_5'> +1.7319901e-04 </wgt>
</rwgt>
</event>
<event>
 4      1 +1.5130300e-07 1.58012600e+03 7.81860800e-03 8.26987200e-02
        2 -1    0    0  501    0 +0.0000000000e+00 +0.0000000000e+00 +1.0437433710e+03 1.0437433710e+03 0.0000000000e+00 0.0000e+00 -1.0000e+00
       -2 -1    0    0    0  501 -0.0000000000e+00 -0.0000000000e+00 -5.9803893179e+02 5.9803893179e+02 0.0000000000e+00 0.0000e+00 1.0000e+00
      -13  1    1    2    0    0 -6.9680328143e+02 -3.6436968480e+02 +3.0265472185e+02 8.4255561292e+02 0.0000000000e+00 0.0000e+00 1.0000e+00
       13  1    1    2    0    0 +6.9680328143e+02 +3.6436968480e+02 +1.4304971740e+02 7.9922668990e+02 0.0000000000e+00 0.0000e+00 -1.0000e+00
<mgrwt>
<rscale>  0 0.15801255E+04</rscale>
<asrwt>0</asrwt>
<pdfrwt beam="1">  1        2 0.16057590E+00 0.15801255E+04</pdfrwt>
<pdfrwt beam="2">  1       -2 0.92005989E-01 0.15801255E+04</pdfrwt>
<totfact> 0.28866757E+01</totfact>
</mgrwt>
<rwgt>
<wgt id='morphing_basis_vector_1'> +1.4234199e-04 </wgt>
<wgt id='morphing_basis_vector_2'> +1.0955056e-04 </wgt>
<wgt id='morphing_basis_vector_3'> +1.5068373e-04 </wgt>
<wgt id='morphing_basis_vector_4'> +8.2987663e-05 </wgt>
<wgt id='morphing_basis_vector_5'> +1.5202529e-04 </wgt>
</rwgt>
</event>
<event>
 4      1 +1.5130300e-07 1.57760900e+03 7.81860800e-03 8.27124600e-02
        2 -1    0    0  501    0 +0.0000000000e+00 +0.0000000000e+00 +1.7116293906e+03 1.7116293906e+03 0.0000000000e+00 0.0000e+00 -1.0000e+00
       -2 -1    0    0    0  501 -0.0000000000e+00 -0.0000000000e+00 -3.6352046656e+02 3.6352046656e+02 0.0000000000e+00 0.0000e+00 1.0000e+00
      -13  1    1    2    0    0 -2.3649197416e+02 +4.2200466878e+02 -1.4549590943e+02 5.0515884034e+02 0.0000000000e+00 0.0000e+00 1.0000e+00
       13  1    1    2    0    0 +2.3649197416e+02 -4.2200466878e+02 +1.4936048334e+03 1.5699910168e+03 0.0000000000e+00 0.0000e+00 -1.0000e+00
<mgrwt>
<rscale>  0 0.15776087E+04</rscale>
<asrwt>0</asrwt>
<pdfrwt beam="1">  1        2 0.26332759E+00 0.15776087E+04</pdfrwt>
<pdfrwt beam="2">  1       -2 0.55926226E-01 0.15776087E+04</pdfrwt>
<totfact> 0.35373341E+01</totfact>
</mgrwt>
<rwgt>
<wgt id='morphing_basis_vector_1'> +1.3463137e-04 </wgt>
<wgt id='morphing_basis_vector_2'> +8.8522403e-05 </wgt>
<wgt id='morphing_basis_vector_3'> +1.4056053e-04 </wgt>
<wgt id='morphing_basis_vector_4'> +9.5379028e-05 </wgt>
<wgt id='morphing_basis_vector_5'> +1.5200103e-04 </wgt>
</rwgt>
</event>
<event>
 4      1 +1.5130300e-07 1.77480300e+03 7.81860800e-03 8.17089500e-02
        2 -1    0    0  501    0 +0.0000000000e+00 +0.0000000000e+00 +1.8248268360e+03 1.8248268360e+03 0.0000000000e+00 0.0000e+00 -1.0000e+00
       -2 -1    0    0    0  501 -0.0000000000e+00 -0.0000000000e+00 -4.3153782834e+02 4.3153782834e+02 0.0000000000e+00 0.0000e+00 1.0000e+00
      -13  1    1    2    0    0 +4.5389628353e+02 +3.1327201811e+02 -1.8720167599e+02 5.8241365113e+02 0.0000000000e+00 0.0000e+00 1.0000e+00
       13  1    1    2    0    0 -4.5389628353e+02 -3.1327201811e+02 +1.5804906836e+03 1.6739510132e+03 0.0000000000e+00 0.0000e+00 -1.0000e+00
<mgrwt>
<rscale>  0 0.17748034E+04</rscale>
<asrwt>0</asrwt>
<pdfrwt beam="1">  1        2 0.28074259E+00 0.17748034E+04</pdfrwt>
<pdfrwt beam="2">  1       -2 0.66390436E-01 0.17748034E+04</pdfrwt>
<totfact> 0.21130193E+01</totfact>
</mgrwt>
<rwgt>
<wgt id='morphing_basis_vector_1'> +2.1276572e-04 </wgt>
<wgt id='morphing_basis_vector_2'> +1.4098400e-04 </wgt>
<wgt id='morphing_basis_vector_3'> +2.2487533e-04 </wgt>
<wgt id='morphing_basis_vector_4'> +1.5478818e-04 </wgt>
<wgt id='morphing_basis_vector_5'> +2.4683477e-04 </wgt>
</rwgt>
</event>
<event>
 4      1 +1.5130300e-07 1.83084300e+03 7.81860800e-03 8.14479400e-02
        2 -1    0    0  501    0 +0.0000000000e+00 +0.0000000000e+00 +1.7304844062e+03 1.7304844062e+03 0.0000000000e+00 0.0000e+00 -1.0000e+00
       -2 -1    0    0    0  501 -0.0000000000e+00 -0.0000000000e+00 -4.8425535498e+02 4.8425535498e+02 0.0000000000e+00 0.0000e+00 1.0000e+00
      -13  1    1    2    0    0 +5.9596079177e+02 +6.3454153036e+02 +2.8057094493e+02 9.1462138299e+02 0.0000000000e+00 0.0000e+00 1.0000e+00
       13  1    1    2    0    0 -5.9596079177e+02 -6.3454153036e+02 +9.6565810633e+02 1.3001183782e+03 0.0000000000e+00 0.0000e+00 -1.0000e+00
<mgrwt>
<rscale>  0 0.18308428E+04</rscale>
<asrwt>0</asrwt>
<pdfrwt beam="1">  1        2 0.26622837E+00 0.18308428E+04</pdfrwt>
<pdfrwt beam="2">  1       -2 0.74500825E-01 0.18308428E+04</pdfrwt>
<totfact> 0.18524399E+01</totfact>
</mgrwt>
<rwgt>
<wgt id='morphing_basis_vector_1'> +2.4268029e-04 </wgt>
<wgt id='morphing_basis_vector_2'> +1.6680453e-04 </wgt>
<wgt id='morphing_basis_vector_3'> +2.5810370e-04 </wgt>
<wgt id='morphing_basis_vector_4'> +1.7094559e-04 </wgt>
<wgt id='morphing_basis_vector_5'> +2.8000772e-04 </wgt>
</rwgt>
</event>
<event>
 4      1 +1.5130300e-07 1.73417300e+03 7.81860800e-03 8.19044300e-02
        2 -1    0    0  501    0 +0.0000000000e+00 +0.0000000000e+00 +2.4606035167e+03 2.4606035167e+03 0.0000000000e+00 0.0000e+00 -1.0000e+00
       -2 -1    0    0    0  501 -0.0000000000e+00 -0.0000000000e+00 -3.0555076590e+02 3.0555076590e+02 0.0000000000e+00 0.0000e+00 1.0000e+00
      -13  1    1    2    0    0 -3.9354762198e+02 +7.6471247458e+02 +9.0152847282e+02 1.2459608689e+03 0.0000000000e+00 0.0000e+00 1.0000e+00
       13  1    1    2    0    0 +3.9354762198e+02 -7.6471247458e+02 +1.2535242779e+03 1.5201934137e+03 0.0000000000e+00 0.0000e+00 -1.0000e+00
<mgrwt>
<rscale>  0 0.17341733E+04</rscale>
<asrwt>0</asrwt>
<pdfrwt beam="1">  1        2 0.37855437E+00 0.17341733E+04</pdfrwt>
<pdfrwt beam="2">  1       -2 0.47007812E-01 0.17341733E+04</pdfrwt>
<totfact> 0.18470309E+01</totfact>
</mgrwt>
<rwgt>
<wgt id='morphing_basis_vector_1'> +1.9871794e-04 </wgt>
<wgt id='morphing_basis_vector_2'> +1.4143541e-04 </wgt>
<wgt id='morphing_basis_vector_3'> +2.1102277e-04 </wgt>
<wgt id='morphing_basis_vector_4'> +1.3242169e-04 </wgt>
<wgt id='morphing_basis_vector_5'> +2.2380601e-04 </wgt>
</rwgt>
</event>
<event>
 4      1 +1.5130300e-07 1.55885400e+03 7.81860800e-03 8.28156900e-02
        2 -1    0    0  501    0 +0.0000000000e+00 +0.0000000000e+00 +2.3615736402e+03 2.3615736402e+03 0.0000000000e+00 0.0000e+00 -1.0000e+00
       -2 -1    0    0    0  501 -0.0000000000e+00 -0.0000000000e+00 -2.5724661187e+02 2.5724661187e+02 0.0000000000e+00 0.0000e+00 1.0000e+00
      -13  1    1    2    0    0 -3.7896546855e+02 -6.4588169765e+02 +1.4153189443e+03 1.6012200685e+03 0.0000000000e+00 0.0000e+00 1.0000e+00
       13  1    1    2    0    0 +3.7896546855e+02 +6.4588169765e+02 +6.8900808401e+02 1.0176001835e+03 0.0000000000e+00 0.0000e+00 -1.0000e+00
<mgrwt>
<rscale>  0 0.15588545E+04</rscale>
<asrwt>0</asrwt>
<pdfrwt beam="1">  1        2 0.36331901E+00 0.15588545E+04</pdfrwt>
<pdfrwt beam="2">  1       -2 0.39576403E-01 0.15588545E+04</pdfrwt>
<totfact> 0.29741720E+01</totfact>
</mgrwt>
<rwgt>
<wgt id='morphing_basis_vector_1'> +1.4054741e-04 </wgt>
<wgt id='morphing_basis_vector_2'> +1.2019319e-04 </wgt>
<wgt id='morphing_basis_vector_3'> +1.5002462e-04 </wgt>
<wgt id='morphing_basis_vector_4'> +6.8138191e-05 </wgt>
<wgt id='morphing_basis_vector_5'> +1.4297274e-04 </wgt>
</rwgt>
</event>
<event>
 4      1 +1.5130300e-07 1.81748000e+03 7.81860800e-03 8.15093000e-02
        2 -1    0    0  501    0 +0.0000000000e+00 +0.0000000000e+00 +1.0358181251e+03 1.0358181251e+03 0.0000000000e+00 0.0000e+00 1.0000e+00
       -2 -1    0    0    0  501 -0.0000000000e+00 -0.0000000000e+00 -7.9725231848e+02 7.9725231848e+02 0.0000000000e+00 0.0000e+00 -1.0000e+00
      -13  1    1    2    0    0 -1.1622506710e+02 -6.1985939022e+02 +7.7916929976e+02 1.0024164442e+03 0.0000000000e+00 0.0000e+00 1.0000e+00
       13  1    1    2    0    0 +1.1622506710e+02 +6.1985939022e+02 -5.4060349316e+02 8.3065399938e+02 0.0000000000e+00 0.0000e+00 -1.0000e+00
<mgrwt>
<rscale>  0 0.18174800E+04</rscale>
<asrwt>0</asrwt>
<pdfrwt beam="1">  1        2 0.15935663E+00 0.18174800E+04</pdfrwt>
<pdfrwt beam="2">  1       -2 0.12265420E+00 0.18174800E+04</pdfrwt>
<totfact> 0.14042462E+01</totfact>
</mgrwt>
<rwgt>
<wgt id='morphing_basis_vector_1'> +3.0273889e-04 </wgt>
<wgt id='morphing_basis_vector_2'> +3.6049455e-04 </wgt>
<wgt id='morphing_basis_vector_3'> +3.4534197e-04 </wgt>
<wgt id='morphing_basis_vector_4'> +3.5072823e-05 </wgt>
<wgt id='morphing_basis_vector_5'> +2.6157127e-04 </wgt>
</rwgt>
</event>
<event>
 4      1 +1.5130300e-07 1.61669600e+03 7.81860800e-03 8.25019800e-02
        2 -1    0    0  501    0 +0.0000000000e+00 +0.0000000000e+00 +5.4507523602e+02 5.4507523602e+02 0.0000000000e+00 0.0000e+00 -1.0000e+00
       -2 -1    0    0    0  501 -0.0000000000e+00 -0.0000000000e+00 -1.1987819227e+03 1.1987819227e+03 0.0000000000e+00 0.0000e+00 1.0000e+00
      -13  1    1    2    0    0 -4.3007458043e+02 +6.6230623985e+02 -5.1309756520e+02 9.4174455745e+02 0.0000000000e+00 0.0000e+00 1.0000e+00
       13  1    1    2    0    0 +4.3007458043e+02 -6.6230623985e+02 -1.4060912149e+02 8.0211260128e+02 0.0000000000e+00 0.0000e+00 -1.0000e+00
<mgrwt>
<rscale>  0 0.16166958E+04</rscale>
<asrwt>0</asrwt>
<pdfrwt beam="1">  1        2 0.83857728E-01 0.16166958E+04</pdfrwt>
<pdfrwt beam="2">  1       -2 0.18442799E+00 0.16166958E+04</pdfrwt>
<totfact> 0.10005399E+01</totfact>
</mgrwt>
<rwgt>
<wgt id='morphing_basis_vector_1'> +1.5034082e-04 </wgt>
<wgt id='morphing_basis_vector_2'> +1.0438820e-04 </wgt>
<wgt id='morphing_basis_vector_3'> +1.5811127e-04 </wgt>
<wgt id='morphing_basis_vector_4'> +1.0109154e-04 </wgt>
<wgt id='morphing_basis_vector_5'> +1.6782576e-04 </wgt>
</rwgt>
</event>
<event>
 4      1 +1.5130300e-07 1.77098900e+03 7.81860800e-03 8.17270700e-02
        2 -1    0    0  501    0 +0.0000000000e+00 +0.0000000000e+00 +1.8137147846e+03 1.8137147846e+03 0.0000000000e+00 0.0000e+00 -1.0000e+00
       -2 -1    0    0    0  501 -0.0000000000e+00 -0.0000000000e+00 -4.3231739210e+02 4.3231739210e+02 0.0000000000e+00 0.0000e+00 1.0000e+00
      -13  1    1    2    0    0 -3.7328414538e+02 +7.5041818811e+02 +1.0530502889e+03 1.3458764509e+03 0.0000000000e+00 0.0000e+00 1.0000e+00
       13  1    1    2    0    0 +3.7328414538e+02 -7.5041818811e+02 +3.2834710366e+02 9.0015572581e+02 0.0000000000e+00 0.0000e+00 -1.0000e+00
<mgrwt>
<rscale>  0 0.17709889E+04</rscale>
<asrwt>0</asrwt>
<pdfrwt beam="1">  1        2 0.27903304E+00 0.17709889E+04</pdfrwt>
<pdfrwt beam="2">  1       -2 0.66510369E-01 0.17709889E+04</pdfrwt>
<totfact> 0.21359116E+01</totfact>
</mgrwt>
<rwgt>
<wgt id='morphing_basis_vector_1'> +2.3382628e-04 </wgt>
<wgt id='morphing_basis_vector_2'> +2.0757389e-04 </wgt>
<wgt id='morphing_basis_vector_3'> +2.5499433e-04 </wgt>
<wgt id='morphing_basis_vector_4'> +1.0900641e-04 </wgt>
<wgt id='morphing_basis_vector_5'> +2.4123342e-04 </wgt>
</rwgt>
</event>
<event>
 4      1 +1.5130300e-07 1.57717900e+03 7.81860800e-03 8.27148100e-02
        2 -1    0    0  501    0 +0.0000000000e+00 +0.0000000000e+00 +1.2331648287e+03 1.2331648287e+03 0.0000000000e+00 0.0000e+00 -1.0000e+00
       -2 -1    0    0    0  501 -0.0000000000e+00 -0.0000000000e+00 -5.0429071290e+02 5.0429071290e+02 0.0000000000e+00 0.0000e+00 1.0000e+00
      -13  1    1    2    0    0 -1.5330010505e+02 -4.3959431008e+02 -3.3674304555e+02 5.7457806988e+02 0.0000000000e+00 0.0000e+00 1.0000e+00
       13  1    1    2    0    0 +1.5330010505e+02 +4.3959431008e+02 +1.0656171614e+03 1.1628774717e+03 0.0000000000e+00 0.0000e+00 -1.0000e+00
<mgrwt>
<rscale>  0 0.15771792E+04</rscale>
<asrwt>0</asrwt>
<pdfrwt beam="1">  1        2 0.18971766E+00 0.15771792E+04</pdfrwt>
<pdfrwt beam="2">  1       -2 0.77583187E-01 0.15771792E+04</pdfrwt>
<totfact> 0.32963040E+01</totfact>
</mgrwt>
<rwgt>
<wgt id='morphing_basis_vector_1'> +1.3447657e-04 </wgt>
<wgt id='morphing_basis_vector_2'> +8.8388866e-05 </wgt>
<wgt id='morphing_basis_vector_3'> +1.4039064e-04 </wgt>
<wgt id='morphing_basis_vector_4'> +9.5296444e-05 </wgt>
<wgt id='morphing_basis_vector_5'> +1.5183199e-04 </wgt>
</rwgt>
</event>
<event>
 4      1 +1.5130300e-07 1.61120300e+03 7.81860800e-03 8.25311900e-02
        2 -1    0    0  501    0 +0.0000000000e+00 +0.0000000000e+00 +1.5374715275e+03 1.5374715275e+03 0.0000000000e+00 0.0000e+00 -1.0000e+00
       -2 -1    0    0    0  501 -0.0000000000e+00 -0.0000000000e+00 -4.2211752731e+02 4.2211752731e+02 0.0000000000e+00 0.0000e+00 1.0000e+00
      -13  1    1    2    0    0 -4.1983841986e+02 +6.8697196380e+02 +5.9205348238e+02 9.9936084766e+02 0.0000000000e+00 0.0000e+00 1.0000e+00
       13  1    1    2    0    0 +4.1983841986e+02 -6.8697196380e+02 +5.2330051776e+02 9.6022820711e+02 0.0000000000e+00 0.0000e+00 -1.0000e+00
<mgrwt>
<rscale>  0 0.16112029E+04</rscale>
<asrwt>0</asrwt>
<pdfrwt beam="1">  1        2 0.23653408E+00 0.16112029E+04</pdfrwt>
<pdfrwt beam="2">  1       -2 0.64941159E-01 0.16112029E+04</pdfrwt>
<totfact> 0.32436087E+01</totfact>
</mgrwt>
<rwgt>
<wgt id='morphing_basis_vector_1'> +1.5203050e-04 </wgt>
<wgt id='morphing_basis_vector_2'> +1.1388793e-04 </wgt>
<wgt id='morphing_basis_vector_3'> +1.6092930e-04 </wgt>
<wgt id='morphing_basis_vector_4'> +9.2718175e-05 </wgt>
<wgt id='morphing_basis_vector_5'> +1.6495941e-04 </wgt>
</rwgt>
</event>
<event>
 4      1 +1.5130300e-07 1.70805800e+03 7.81860800e-03 8.20329900e-02
        2 -1    0    0  501    0 +0.0000000000e+00 +0.0000000000e+00 +7.5887989149e+02 7.5887989149e+02 0.0000000000e+00 0.0000e+00 -1.0000e+00
       -2 -1    0    0    0  501 -0.0000000000e+00 -0.0000000000e+00 -9.6110797586e+02 9.6110797586e+02 0.0000000000e+00 0.0000e+00 1.0000e+00
      -13  1    1    2    0    0 +1.2469816272e+02 +7.2861870069e+02 -5.3180528496e+02 9.1063258447e+02 0.0000000000e+00 0.0000e+00 1.0000e+00
       13  1    1    2    0    0 -1.2469816272e+02 -7.2861870069e+02 +3.2957720058e+02 8.0935528288e+02 0.0000000000e+00 0.0000e+00 -1.0000e+00
<mgrwt>
<rscale>  0 0.17080580E+04</rscale>
<asrwt>0</asrwt>
<pdfrwt beam="1">  1        2 0.11675075E+00 0.17080580E+04</pdfrwt>
<pdfrwt beam="2">  1       -2 0.14786277E+00 0.17080580E+04</pdfrwt>
<totfact> 0.12971243E+01</totfact>
</mgrwt>
<rwgt>
<wgt id='morphing_basis_vector_1'> +1.8396379e-04 </wgt>
<wgt id='morphing_basis_vector_2'> +1.2323745e-04 </wgt>
<wgt id='morphing_basis_vector_3'> +1.9395004e-04 </wgt>
<wgt id='morphing_basis_vector_4'> +1.3090818e-04 </wgt>
<wgt id='morphing_basis_vector_5'> +2.1077499e-04 </wgt>
</rwgt>
</event>
<event>
 4      1 +1.5130300e-07 1.58328800e+03 7.81860800e-03 8.26814900e-02
        2 -1    0    0  501    0 +0.0000000000e+00 +0.0000000000e+00 +2.1299407263e+03 2.1299407263e+03 0.0000000000e+00 0.0000e+00 -1.0000e+00
       -2 -1    0    0    0  501 -0.0000000000e+00 -0.0000000000e+00 -2.9423368551e+02 2.9423368551e+02 0.0000000000e+00 0.0000e+00 1.0000e+00
      -13  1    1    2    0    0 -6.7380266832e+02 +3.4206320105e+02 +5.5655566563e+02 9.3849426119e+02 0.0000000000e+00 0.0000e+00 1.0000e+00
       13  1    1    2    0    0 +6.7380266832e+02 -3.4206320105e+02 +1.2791513751e+03 1.4856801506e+03 0.0000000000e+00 0.0000e+00 -1.0000e+00
<mgrwt>
<rscale>  0 0.15832881E+04</rscale>
<asrwt>0</asrwt>
<pdfrwt beam="1">  1        2 0.32768318E+00 0.15832881E+04</pdfrwt>
<pdfrwt beam="2">  1       -2 0.45266722E-01 0.15832881E+04</pdfrwt>
<totfact> 0.31264719E+01</totfact>
</mgrwt>
<rwgt>
<wgt id='morphing_basis_vector_1'> +1.3800312e-04 </wgt>
<wgt id='morphing_basis_vector_2'> +9.4206550e-05 </wgt>
<wgt id='morphing_basis_vector_3'> +1.4458375e-04 </wgt>
<wgt id='morphing_basis_vector_4'> +9.3989873e-05 </wgt>
<wgt id='morphing_basis_vector_5'> +1.5406226e-04 </wgt>
</rwgt>
</event>
<event>
 4      1 +1.5130300e-07 1.58409800e+03 7.81860800e-03 8.26770900e-02
        2 -1    0    0  501    0 +0.0000000000e+00 +0.0000000000e+00 +2.3850964850e+03 2.3850964850e+03 0.0000000000e+00 0.0000e+00 1.0000e+00
       -2 -1    0    0    0  501 -0.0000000000e+00 -0.0000000000e+00 -2.6302562003e+02 2.6302562003e+02 0.0000000000e+00 0.0000e+00 -1.0000e+00
      -13  1    1    2    0    0 -7.4044090020e+02 -1.3763123576e+02 +1.4710136852e+03 1.6525968492e+03 0.0000000000e+00 0.0000e+00 -1.0000e+00
       13  1    1    2    0    0 +7.4044090020e+02 +1.3763123576e+02 +6.5105717972e+02 9.9552525584e+02 0.0000000000e+00 0.0000e+00 1.0000e+00
<mgrwt>
<rscale>  0 0.15840978E+04</rscale>
<asrwt>0</asrwt>
<pdfrwt beam="1">  1        2 0.36693791E+00 0.15840978E+04</pdfrwt>
<pdfrwt beam="2">  1       -2 0.40465482E-01 0.15840978E+04</pdfrwt>
<totfact> 0.27582690E+01</totfact>
</mgrwt>
<rwgt>
<wgt id='morphing_basis_vector_1'> +1.5096936e-04 </wgt>
<wgt id='morphing_basis_vector_2'> +1.3217436e-04 </wgt>
<wgt id='morphing_basis_vector_3'> +1.6192774e-04 </wgt>
<wgt id='morphing_basis_vector_4'> +7.0140624e-05 </wgt>
<wgt id='morphing_basis_vector_5'> +1.5257684e-04 </wgt>
</rwgt>
</event>
<event>
 4      1 +1.5130300e-07 1.56199000e+03 7.81860800e-03 8.27983300e-02
        2 -1    0    0  501    0 +0.0000000000e+00 +0.0000000000e+00 +1.5635096462e+03 1.5635096462e+03 0.0000000000e+00 0.0000e+00 -1.0000e+00
       -2 -1    0    0    0  501 -0.0000000000e+00 -0.0000000000e+00 -3.9011812717e+02 3.9011812717e+02 0.0000000000e+00 0.0000e+00 1.0000e+00
      -13  1    1    2    0    0 -1.5225383583e+02 -6.2382047785e+02 +3.0690136306e+01 6.4286476305e+02 0.0000000000e+00 0.0000e+00 1.0000e+00
       13  1    1    2    0    0 +1.5225383583e+02 +6.2382047785e+02 +1.1427013827e+03 1.3107630103e+03 0.0000000000e+00 0.0000e+00 -1.0000e+00
<mgrwt>
<rscale>  0 0.15619903E+04</rscale>
<asrwt>0</asrwt>
<pdfrwt beam="1">  1        2 0.24053994E+00 0.15619903E+04</pdfrwt>
<pdfrwt beam="2">  1       -2 0.60018174E-01 0.15619903E+04</pdfrwt>
<totfact> 0.37085698E+01</totfact>
</mgrwt>
<rwgt>
<wgt id='morphing_basis_vector_1'> +1.2986419e-04 </wgt>
<wgt id='morphing_basis_vector_2'> +8.6066305e-05 </wgt>
<wgt id='morphing_basis_vector_3'> +1.3551888e-04 </wgt>
<wgt id='morphing_basis_vector_4'> +9.0940269e-05 </wgt>
<wgt id='morphing_basis_vector_5'> +1.4583291e-04 </wgt>
</rwgt>
</event>
<event>
 4      1 +1.5130300e-07 1.76701000e+03 7.81860800e-03 8.17460300e-02
        2 -1    0    0  501    0 +0.0000000000e+00 +0.0000000000e+00 +1.6651153752e+03 1.6651153752e+03 0.0000000000e+00 0.0000e+00 1.0000e+00
       -2 -1    0    0    0  501 -0.0000000000e+00 -0.0000000000e+00 -4.6878518003e+02 4.6878518003e+02 0.0000000000e+00 0.0000e+00 -1.0000e+00
      -13  1    1    2    0    0 +4.5230559034e+02 -1.3962244433e+02 -3.0272176241e+02 5.6188543267e+02 0.0000000000e+00 0.0000e+00 -1.0000e+00
       13  1    1    2    0    0 -4.5230559034e+02 +1.3962244433e+02 +1.4990519576e+03 1.5720151225e+03 0.0000000000e+00 0.0000e+00 1.0000e+00
<mgrwt>
<rscale>  0 0.17670104E+04</rscale>
<asrwt>0</asrwt>
<pdfrwt beam="1">  1        2 0.25617159E+00 0.17670104E+04</pdfrwt>
<pdfrwt beam="2">  1       -2 0.72120798E-01 0.17670104E+04</pdfrwt>
<totfact> 0.21738223E+01</totfact>
</mgrwt>
<rwgt>
<wgt id='morphing_basis_vector_1'> +2.0908320e-04 </wgt>
<wgt id='morphing_basis_vector_2'> +1.3835993e-04 </wgt>
<wgt id='morphing_basis_vector_3'> +2.2087028e-04 </wgt>
<wgt id='morphing_basis_vector_4'> +1.5214588e-04 </wgt>
<wgt id='morphing_basis_vector_5'> +2.4242721e-04 </wgt>
</rwgt>
</event>
<event>
 4      1 +1.5130300e-07 1.83242600e+03 7.81860800e-03 8.14407100e-02
        2 -1    0    0  501    0 +0.0000000000e+00 +0.0000000000e+00 +2.6271573330e+03 2.6271573330e+03 0.0000000000e+00 0.0000e+00 -1.0000e+00
       -2 -1    0    0    0  501 -0.0000000000e+00 -0.0000000000e+00 -3.1952633516e+02 3.1952633516e+02 0.0000000000e+00 0.0000e+00 1.0000e+00
      -13  1    1    2    0    0 +1.6035362639e+02 -8.8828955334e+02 +1.4064134994e+03 1.6711584448e+03 0.0000000000e+00 0.0000e+00 1.0000e+00
       13  1    1    2    0    0 -1.6035362639e+02 +8.8828955334e+02 +9.0121749835e+02 1.2755252234e+03 0.0000000000e+00 0.0000e+00 -1.0000e+00
<mgrwt>
<rscale>  0 0.18324257E+04</rscale>
<asrwt>0</asrwt>
<pdfrwt beam="1">  1        2 0.40417804E+00 0.18324257E+04</pdfrwt>
<pdfrwt beam="2">  1       -2 0.49157899E-01 0.18324257E+04</pdfrwt>
<totfact> 0.13337279E+01</totfact>
</mgrwt>
<rwgt>
<wgt id='morphing_basis_vector_1'> +2.5686746e-04 </wgt>
<wgt id='morphing_basis_vector_2'> +2.0702130e-04 </wgt>
<wgt id='morphing_basis_vector_3'> +2.7796459e-04 </wgt>
<wgt id='morphing_basis_vector_4'> +1.4536953e-04 </wgt>
<wgt id='morphing_basis_vector_5'> +2.7896474e-04 </wgt>
</rwgt>
</event>
<event>
 4      1 +1.5130300e-07 1.79330700e+03 7.81860800e-03 8.16216900e-02
        2 -1    0    0  501    0 +0.0000000000e+00 +0.0000000000e+00 +1.5230089201e+03 1.5230089201e+03 0.0000000000e+00 0.0000e+00 1.0000e+00
       -2 -1    0    0    0  501 -0.0000000000e+00 -0.0000000000e+00 -5.2789406899e+02 5.2789406899e+02 0.0000000000e+00 0.0000e+00 -1.0000e+00
      -13  1    1    2    0    0 -4.2307368879e+02 +3.2104466795e+01 -4.0582312940e+02 5.8712388411e+02 0.0000000000e+00 0.0000e+00 -1.0000e+00
       13  1    1    2    0    0 +4.2307368879e+02 -3.2104466795e+01 +1.4009379805e+03 1.4637791050e+03 0.0000000000e+00 0.0000e+00 1.0000e+00
<mgrwt>
<rscale>  0 0.17933069E+04</rscale>
<asrwt>0</asrwt>
<pdfrwt beam="1">  1        2 0.23430906E+00 0.17933069E+04</pdfrwt>
<pdfrwt beam="2">  1       -2 0.81214473E-01 0.17933069E+04</pdfrwt>
<totfact> 0.19987891E+01</totfact>
</mgrwt>
<rwgt>
<wgt id='morphing_basis_vector_1'> +2.2144997e-04 </wgt>
<wgt id='morphing_basis_vector_2'> +1.4660440e-04 </wgt>
<wgt id='morphing_basis_vector_3'> +2.3424353e-04 </wgt>
<wgt id='morphing_basis_vector_4'> +1.6169664e-04 </wgt>
<wgt id='morphing_basis_vector_5'> +2.5757696e-04 </wgt>
</rwgt>
</event>
<event>
 4      1 +1.5130300e-07 1.77485500e+03 7.81860800e-03 8.17087100e-02
        2 -1    0    0  501    0 +0.0000000000e+00 +0.0000000000e+00 +1.6153031427e+03 1.6153031427e+03 0.0000000000e+00 0.0000e+00 1.0000e+00
       -2 -1    0    0    0  501 -0.0000000000e+00 -0.0000000000e+00 -4.8754160261e+02 4.8754160261e+02 0.0000000000e+00 0.0000e+00 -1.0000e+00
      -13  1    1    2    0    0 -5.3491946218e+02 +9.7080777513e+01 -2.6713832934e+02 6.0574449679e+02 0.0000000000e+00 0.0000e+00 -1.0000e+00
       13  1    1    2    0    0 +5.3491946218e+02 -9.7080777513e+01 +1.3948998694e+03 1.4971002485e+03 0.0000000000e+00 0.0000e+00 1.0000e+00
<mgrwt>
<rscale>  0 0.17748549E+04</rscale>
<asrwt>0</asrwt>
<pdfrwt beam="1">  1        2 0.24850817E+00 0.17748549E+04</pdfrwt>
<pdfrwt beam="2">  1       -2 0.75006401E-01 0.17748549E+04</pdfrwt>
<totfact> 0.21254031E+01</totfact>
</mgrwt>
<rwgt>
<wgt id='morphing_basis_vector_1'> +2.1278086e-04 </wgt>
<wgt id='morphing_basis_vector_2'> +1.4097372e-04 </wgt>
<wgt id='morphing_basis_vector_3'> +2.2488884e-04 </wgt>
<wgt id='morphing_basis_vector_4'> +1.5482393e-04 </wgt>
<wgt id='morphing_basis_vector_5'> +2.4686548e-04 </wgt>
</rwgt>
</event>
<event>
 4      1 +1.5130300e-07 1.73653700e+03 7.81860800e-03 8.18929100e-02
        2 -1    0    0  501    0 +0.0000000000e+00 +0.0000000000e+00 +1.3220159340e+03 1.3220159340e+03 0.0000000000e+00 0.0000e+00 -1.0000e+00
       -2 -1    0    0    0  501 -0.0000000000e+00 -0.0000000000e+00 -5.7025775620e+02 5.7025775620e+02 0.0000000000e+00 0.0000e+00 1.0000e+00
      -13  1    1    2    0    0 -3.8552509391e+02 +4.2582598216e+02 -3.3361430069e+02 6.6427092872e+02 0.0000000000e+00 0.0000e+00 1.0000e+00
       13  1    1    2    0    0 +3.8552509391e+02 -4.2582598216e+02 +1.0853724785e+03 1.2280027614e+03 0.0000000000e+00 0.0000e+00 -1.0000e+00
<mgrwt>
<rscale>  0 0.17365366E+04</rscale>
<asrwt>0</asrwt>
<pdfrwt beam="1">  1        2 0.20338707E+00 0.17365366E+04</pdfrwt>
<pdfrwt beam="2">  1       -2 0.87731963E-01 0.17365366E+04</pdfrwt>
<totfact> 0.21833475E+01</totfact>
</mgrwt>
<rwgt>
<wgt id='morphing_basis_vector_1'> +1.9548906e-04 </wgt>
<wgt id='morphing_basis_vector_2'> +1.2947239e-04 </wgt>
<wgt id='morphing_basis_vector_3'> +2.0620386e-04 </wgt>
<wgt id='morphing_basis_vector_4'> +1.4146430e-04 </wgt>
<wgt id='morphing_basis_vector_5'> +2.2570002e-04 </wgt>
</rwgt>
</event>
<event>
 4      1 +1.5130300e-07 1.71416000e+03 7.81860800e-03 8.20027400e-02
        2 -1    0    0  501    0 +0.0000000000e+00 +0.0000000000e+00 +1.3754576199e+03 1.3754576199e+03 0.0000000000e+00 0.0000e+00 -1.0000e+00
       -2 -1    0    0    0  501 -0.0000000000e+00 -0.0000000000e+00 -5.3406648873e+02 5.3406648873e+02 0.0000000000e+00 0.0000e+00 1.0000e+00
      -13  1    1    2    0    0 +2.9306206099e+02 -2.3542821215e+02 -4.3733259153e+02 5.7669022038e+02 0.0000000000e+00 0.0000e+00 1.0000e+00
       13  1    1    2    0    0 -2.9306206099e+02 +2.3542821215e+02 +1.2787237227e+03 1.3328338883e+03 0.0000000000e+00 0.0000e+00 -1.0000e+00
<mgrwt>
<rscale>  0 0.17141596E+04</rscale>
<asrwt>0</asrwt>
<pdfrwt beam="1">  1        2 0.21160886E+00 0.17141596E+04</pdfrwt>
<pdfrwt beam="2">  1       -2 0.82164076E-01 0.17141596E+04</pdfrwt>
<totfact> 0.23722904E+01</totfact>
</mgrwt>
<rwgt>
<wgt id='morphing_basis_vector_1'> +1.8573383e-04 </wgt>
<wgt id='morphing_basis_vector_2'> +1.2261008e-04 </wgt>
<wgt id='morphing_basis_vector_3'> +1.9562099e-04 </wgt>
<wgt id='morphing_basis_vector_4'> +1.3438418e-04 </wgt>
<wgt id='morphing_basis_vector_5'> +2.1400604e-04 </wgt>
</rwgt>
</event>
<event>
 4      1 +1.5130300e-07 1.80690300e+03 7.81860800e-03 8.15582500e-02
        2 -1    0    0  501    0 +0.0000000000e+00 +0.0000000000e+00 +1.3723960744e+03 1.3723960744e+03 0.0000000000e+00 0.0000e+00 -1.0000e+00
       -2 -1    0    0    0  501 -0.0000000000e+00 -0.0000000000e+00 -5.9474401711e+02 5.9474401711e+02 0.0000000000e+00 0.0000e+00 1.0000e+00
      -13  1    1    2    0    0 -5.6241343516e+02 +4.5129434497e+02 -2.0372927572e+02 7.4932040919e+02 0.0000000000e+00 0.0000e+00 1.0000e+00
       13  1    1    2    0    0 +5.6241343516e+02 -4.5129434497e+02 +9.8138133300e+02 1.2178196823e+03 0.0000000000e+00 0.0000e+00 -1.0000e+00
<mgrwt>
<rscale>  0 0.18069027E+04</rscale>
<asrwt>0</asrwt>
<pdfrwt beam="1">  1        2 0.21113786E+00 0.18069027E+04</pdfrwt>
<pdfrwt beam="2">  1       -2 0.91499080E-01 0.18069027E+04</pdfrwt>
<totfact> 0.18418179E+01</totfact>
</mgrwt>
<rwgt>
<wgt id='morphing_basis_vector_1'> +2.2859898e-04 </wgt>
<wgt id='morphing_basis_vector_2'> +1.5261800e-04 </wgt>
<wgt id='morphing_basis_vector_3'> +2.4215738e-04 </wgt>
<wgt id='morphing_basis_vector_4'> +1.6574699e-04 </wgt>
<wgt id='morphing_basis_vector_5'> +2.6559813e-04 </wgt>
</rwgt>
</event>
<event>
 4      1 +1.5130300e-07 1.59161600e+03 7.81860800e-03 8.26363200e-02
        2 -1    0    0  501    0 +0.0000000000e+00 +0.0000000000e+00 +5.3366387371e+02 5.3366387371e+02 0.0000000000e+00 0.0000e+00 -1.0000e+00
       -2 -1    0    0    0  501 -0.0000000000e+00 -0.0000000000e+00 -1.1867208779e+03 1.1867208779e+03 0.0000000000e+00 0.0000e+00 1.0000e+00
      -13  1    1    2    0    0 -4.6134946327e+02 +1.5679987010e+02 -1.0066233254e+03 1.1183559566e+03 0.0000000000e+00 0.0000e+00 1.0000e+00
       13  1    1    2    0    0 +4.6134946327e+02 -1.5679987010e+02 +3.5356632118e+02 6.0202879499e+02 0.0000000000e+00 0.0000e+00 -1.0000e+00
<mgrwt>
<rscale>  0 0.15916156E+04</rscale>
<asrwt>0</asrwt>
<pdfrwt beam="1">  1        2 0.82102135E-01 0.15916156E+04</pdfrwt>
<pdfrwt beam="2">  1       -2 0.18257244E+00 0.15916156E+04</pdfrwt>
<totfact> 0.10610780E+01</totfact>
</mgrwt>
<rwgt>
<wgt id='morphing_basis_vector_1'> +1.3931942e-04 </wgt>
<wgt id='morphing_basis_vector_2'> +9.1660907e-05 </wgt>
<wgt id='morphing_basis_vector_3'> +1.4560261e-04 </wgt>
<wgt id='morphing_basis_vector_4'> +9.8921859e-05 </wgt>
<wgt id='morphing_basis_vector_5'> +1.5765269e-04 </wgt>
</rwgt>
</event>
<event>
 4      1 +1.5130300e-07 1.74939300e+03 7.81860800e-03 8.18305700e-02
        2 -1    0    0  501    0 +0.0000000000e+00 +0.0000000000e+00 +1.1350694434e+03 1.1350694434e+03 0.0000000000e+00 0.0000e+00 -1.0000e+00
       -2 -1    0    0    0  501 -0.0000000000e+00 -0.0000000000e+00 -6.7405065436e+02 6.7405065436e+02 0.0000000000e+00 0.0000e+00 1.0000e+00
      -13  1    1    2    0    0 -2.0805993345e+02 +5.2526264349e+02 -4.6004971190e+02 7.2858459905e+02 0.0000000000e+00 0.0000e+00 1.0000e+00
       13  1    1    2    0    0 +2.0805993345e+02 -5.2526264349e+02 +9.2106850093e+02 1.0805354987e+03 0.0000000000e+00 0.0000e+00 -1.0000e+00
<mgrwt>
<rscale>  0 0.17493934E+04</rscale>
<asrwt>0</asrwt>
<pdfrwt beam="1">  1        2 0.17462607E+00 0.17493934E+04</pdfrwt>
<pdfrwt beam="2">  1       -2 0.10370010E+00 0.17493934E+04</pdfrwt>
<totfact> 0.18828774E+01</totfact>
</mgrwt>
<rwgt>
<wgt id='morphing_basis_vector_1'> +2.0116643e-04 </wgt>
<wgt id='morphing_basis_vector_2'> +1.3324593e-04 </wgt>
<wgt id='morphing_basis_vector_3'> +2.1233632e-04 </wgt>
<wgt id='morphing_basis_vector_4'> +1.4584926e-04 </wgt>
<wgt id='morphing_basis_vector_5'> +2.3264488e-04 </wgt>
</rwgt>
</event>
<event>
 4      1 +1.5130300e-07 1.70189300e+03 7.81860800e-03 8.20636800e-02
        2 -1    0    0  501    0 +0.0000000000e+00 +0.0000000000e+00 +3.0642048134e+03 3.0642048134e+03 0.0000000000e+00 0.0000e+00 1.0000e+00
       -2 -1    0    0    0  501 -0.0000000000e+00 -0.0000000000e+00 -2.3631242414e+02 2.3631242414e+02 0.0000000000e+00 0.0000e+00 -1.0000e+00
      -13  1    1    2    0    0 -8.1128850307e+02 -1.3816398204e+02 +9.9426630542e+02 1.2906757173e+03 0.0000000000e+00 0.0000e+00 1.0000e+00
       13  1    1    2    0    0 +8.1128850307e+02 +1.3816398204e+02 +1.8336260839e+03 2.0098415203e+03 0.0000000000e+00 0.0000e+00 -1.0000e+00
<mgrwt>
<rscale>  0 0.17018927E+04</rscale>
<asrwt>0</asrwt>
<pdfrwt beam="1">  1        2 0.47141610E+00 0.17018927E+04</pdfrwt>
<pdfrwt beam="2">  1       -2 0.36355760E-01 0.17018927E+04</pdfrwt>
<totfact> 0.12676835E+01</totfact>
</mgrwt>
<rwgt>
<wgt id='morphing_basis_vector_1'> +1.8308156e-04 </wgt>
<wgt id='morphing_basis_vector_2'> +1.2650190e-04 </wgt>
<wgt id='morphing_basis_vector_3'> +1.9350439e-04 </wgt>
<wgt id='morphing_basis_vector_4'> +1.2572484e-04 </wgt>
<wgt id='morphing_basis_vector_5'> +2.0741509e-04 </wgt>
</rwgt>
</event>
<event>
 4      1 +1.5130300e-07 1.59190000e+03 7.81860800e-03 8.26347800e-02
        2 -1    0    0  501    0 +0.0000000000e+00 +0.0000000000e+00 +9.8485405583e+02 9.8485405583e+02 0.0000000000e+00 0.0000e+00 -1.0000e+00
       -2 -1    0    0    0  501 -0.0000000000e+00 -0.0000000000e+00 -6.4327975092e+02 6.4327975092e+02 0.0000000000e+00 0.0000e+00 1.0000e+00
      -13  1    1    2    0    0 +5.9453454123e+02 -2.3233256649e+02 -3.1552144444e+02 7.1204179938e+02 0.0000000000e+00 0.0000e+00 1.0000e+00
       13  1    1    2    0    0 -5.9453454123e+02 +2.3233256649e+02 +6.5709574934e+02 9.1609200737e+02 0.0000000000e+00 0.0000e+00 -1.0000e+00
<mgrwt>
<rscale>  0 0.15919003E+04</rscale>
<asrwt>0</asrwt>
<pdfrwt beam="1">  1        2 0.15151601E+00 0.15919003E+04</pdfrwt>
<pdfrwt beam="2">  1       -2 0.98966115E-01 0.15919003E+04</pdfrwt>
<totfact> 0.26389789E+01</totfact>
</mgrwt>
<rwgt>
<wgt id='morphing_basis_vector_1'> +1.3969421e-04 </wgt>
<wgt id='morphing_basis_vector_2'> +9.2553565e-05 </wgt>
<wgt id='morphing_basis_vector_3'> +1.4608101e-04 </wgt>
<wgt id='morphing_basis_vector_4'> +9.8467057e-05 </wgt>
<wgt id='morphing_basis_vector_5'> +1.5772937e-04 </wgt>
</rwgt>
</event>
<event>
 4      1 +1.5130300e-07 1.73750600e+03 7.81860800e-03 8.18881900e-02
        2 -1    0    0  501    0 +0.0000000000e+00 +0.0000000000e+00 +2.1899927808e+03 2.1899927808e+03 0.0000000000e+00 0.0000e+00 -1.0000e+00
       -2 -1    0    0    0  501 -0.0000000000e+00 -0.0000000000e+00 -3.4462741858e+02 3.4462741858e+02 0.0000000000e+00 0.0000e+00 1.0000e+00
      -13  1    1    2    0    0 -5.2711458930e+02 +1.9574132550e+01 -8.4289482620e+01 5.3417006075e+02 0.0000000000e+00 0.0000e+00 1.0000e+00
       13  1    1    2    0    0 +5.2711458930e+02 -1.9574132550e+01 +1.9296548449e+03 2.0004501387e+03 0.0000000000e+00 0.0000e+00 -1.0000e+00
<mgrwt>
<rscale>  0 0.17375058E+04</rscale>
<asrwt>0</asrwt>
<pdfrwt beam="1">  1        2 0.33692196E+00 0.17375058E+04</pdfrwt>
<pdfrwt beam="2">  1       -2 0.53019604E-01 0.17375058E+04</pdfrwt>
<totfact> 0.20933099E+01</totfact>
</mgrwt>
<rwgt>
<wgt id='morphing_basis_vector_1'> +1.9585638e-04 </wgt>
<wgt id='morphing_basis_vector_2'> +1.2958661e-04 </wgt>
<wgt id='morphing_basis_vector_3'> +2.0658288e-04 </wgt>
<wgt id='morphing_basis_vector_4'> +1.4190058e-04 </wgt>
<wgt id='morphing_basis_vector_5'> +2.2622649e-04 </wgt>
</rwgt>
</event>
<event>
 4      1 +1.5130300e-07 1.57816000e+03 7.81860800e-03 8.27094500e-02
        2 -1    0    0  501    0 +0.0000000000e+00 +0.0000000000e+00 +1.0581613119e+03 1.0581613119e+03 0.0000000000e+00 0.0000e+00 -1.0000e+00
       -2 -1    0    0    0  501 -0.0000000000e+00 -0.0000000000e+00 -5.8842394331e+02 5.8842394331e+02 0.0000000000e+00 0.0000e+00 1.0000e+00
      -13  1    1    2    0    0 +5.8807960489e+01 +4.8470171928e+02 -4.1188949913e+02 6.3878563883e+02 0.0000000000e+00 0.0000e+00 1.0000e+00
       13  1    1    2    0    0 -5.8807960489e+01 -4.8470171928e+02 +8.8162686774e+02 1.0077996164e+03 0.0000000000e+00 0.0000e+00 -1.0000e+00
<mgrwt>
<rscale>  0 0.15781603E+04</rscale>
<asrwt>0</asrwt>
<pdfrwt beam="1">  1        2 0.16279405E+00 0.15781603E+04</pdfrwt>
<pdfrwt beam="2">  1       -2 0.90526761E-01 0.15781603E+04</pdfrwt>
<totfact> 0.29385921E+01</totfact>
</mgrwt>
<rwgt>
<wgt id='morphing_basis_vector_1'> +1.3481716e-04 </wgt>
<wgt id='morphing_basis_vector_2'> +8.8654810e-05 </wgt>
<wgt id='morphing_basis_vector_3'> +1.4076123e-04 </wgt>
<wgt id='morphing_basis_vector_4'> +9.5510124e-05 </wgt>
<wgt id='morphing_basis_vector_5'> +1.5222019e-04 </wgt>
</rwgt>
</event>
<event>
 4      1 +1.5130300e-07 1.82250200e+03 7.81860800e-03 8.14861800e-02
        2 -1    0    0  501    0 +0.0000000000e+00 +0.0000000000e+00 +2.2095316759e+03 2.2095316759e+03 0.0000000000e+00 0.0000e+00 -1.0000e+00
       -2 -1    0    0    0  501 -0.0000000000e+00 -0.0000000000e+00 -3.7581630809e+02 3.7581630809e+02 0.0000000000e+00 0.0000e+00 1.0000e+00
      -13  1    1    2    0    0 -2.4974685561e+02 -3.8045729010e+02 -2.0305611396e+02 4.9835030540e+02 0.0000000000e+00 0.0000e+00 1.0000e+00
       13  1    1    2    0    0 +2.4974685561e+02 +3.8045729010e+02 +2.0367714818e+03 2.0869976786e+03 0.0000000000e+00 0.0000e+00 -1.0000e+00
<mgrwt>
<rscale>  0 0.18225016E+04</rscale>
<asrwt>0</asrwt>
<pdfrwt beam="1">  1        2 0.33992794E+00 0.18225016E+04</pdfrwt>
<pdfrwt beam="2">  1       -2 0.57817895E-01 0.18225016E+04</pdfrwt>
<totfact> 0.17006835E+01</totfact>
</mgrwt>
<rwgt>
<wgt id='morphing_basis_vector_1'> +2.3586213e-04 </wgt>
<wgt id='morphing_basis_vector_2'> +1.5631206e-04 </wgt>
<wgt id='morphing_basis_vector_3'> +2.4985331e-04 </wgt>
<wgt id='morphing_basis_vector_4'> +1.7273162e-04 </wgt>
<wgt id='morphing_basis_vector_5'> +2.7520289e-04 </wgt>
</rwgt>
</event>
<event>
 4      1 +1.5130300e-07 1.78214900e+03 7.81860800e-03 8.16741800e-02
        2 -1    0    0  501    0 +0.0000000000e+00 +0.0000000000e+00 +1.8566450285e+03 1.8566450285e+03 0.0000000000e+00 0.0000e+00 -1.0000e+00
       -2 -1    0    0    0  501 -0.0000000000e+00 -0.0000000000e+00 -4.2766061836e+02 4.2766061836e+02 0.0000000000e+00 0.0000e+00 1.0000e+00
      -13  1    1    2    0    0 -5.1865193090e+02 -3.3945512691e+02 -1.0602526787e+02 6.2886482334e+02 0.0000000000e+00 0.0000e+00 1.0000e+00
       13  1    1    2    0    0 +5.1865193090e+02 +3.3945512691e+02 +1.5350096780e+03 1.6554408235e+03 0.0000000000e+00 0.0000e+00 -1.0000e+00
<mgrwt>
<rscale>  0 0.17821492E+04</rscale>
<asrwt>0</asrwt>
<pdfrwt beam="1">  1        2 0.28563769E+00 0.17821492E+04</pdfrwt>
<pdfrwt beam="2">  1       -2 0.65793942E-01 0.17821492E+04</pdfrwt>
<totfact> 0.20660929E+01</totfact>
</mgrwt>
<rwgt>
<wgt id='morphing_basis_vector_1'> +2.1632483e-04 </wgt>
<wgt id='morphing_basis_vector_2'> +1.4361967e-04 </wgt>
<wgt id='morphing_basis_vector_3'> +2.2876120e-04 </wgt>
<wgt id='morphing_basis_vector_4'> +1.5722554e-04 </wgt>
<wgt id='morphing_basis_vector_5'> +2.5103712e-04 </wgt>
</rwgt>
</event>
<event>
 4      1 +1.5130300e-07 1.80145600e+03 7.81860800e-03 8.15836000e-02
        2 -1    0    0  501    0 +0.0000000000e+00 +0.0000000000e+00 +3.2981974065e+02 3.2981974065e+02 0.0000000000e+00 0.0000e+00 -1.0000e+00
       -2 -1    0    0    0  501 -0.0000000000e+00 -0.0000000000e+00 -2.4598609630e+03 2.4598609630e+03 0.0000000000e+00 0.0000e+00 1.0000e+00
      -13  1    1    2    0    0 +7.5899564644e+02 -4.8228021269e+02 -1.1446193791e+03 1.4556174353e+03 0.0000000000e+00 0.0000e+00 1.0000e+00
       13  1    1    2    0    0 -7.5899564644e+02 +4.8228021269e+02 -9.8542184325e+02 1.3340632684e+03 0.0000000000e+00 0.0000e+00 -1.0000e+00
<mgrwt>
<rscale>  0 0.18014558E+04</rscale>
<asrwt>0</asrwt>
<pdfrwt beam="1">  1        2 0.50741497E-01 0.18014558E+04</pdfrwt>
<pdfrwt beam="2">  1       -2 0.37844016E+00 0.18014558E+04</pdfrwt>
<totfact> 0.82330598E-01</totfact>
</mgrwt>
<rwgt>
<wgt id='morphing_basis_vector_1'> +2.3204483e-04 </wgt>
<wgt id='morphing_basis_vector_2'> +1.6897122e-04 </wgt>
<wgt id='morphing_basis_vector_3'> +2.4789632e-04 </wgt>
<wgt id='morphing_basis_vector_4'> +1.5175871e-04 </wgt>
<wgt id='morphing_basis_vector_5'> +2.6140479e-04 </wgt>
</rwgt>
</event>
<event>
 4      1 +1.5130300e-07 1.62624700e+03 7.81860800e-03 8.24514800e-02
        2 -1    0    0  501    0 +0.0000000000e+00 +0.0000000000e+00 +1.9472500591e+03 1.9472500591e+03 0.0000000000e+00 0.0000e+00 -1.0000e+00
       -2 -1    0    0    0  501 -0.0000000000e+00 -0.0000000000e+00 -3.3954033259e+02 3.3954033259e+02 0.0000000000e+00 0.0000e+00 1.0000e+00
      -13  1    1    2    0    0 +7.4276581728e+02 +3.1967696842e+02 +6.8391280034e+02 1.0590708862e+03 0.0000000000e+00 0.0000e+00 1.0000e+00
       13  1    1    2    0    0 -7.4276581728e+02 -3.1967696842e+02 +9.2379692620e+02 1.2277195056e+03 0.0000000000e+00 0.0000e+00 -1.0000e+00
<mgrwt>
<rscale>  0 0.16262471E+04</rscale>
<asrwt>0</asrwt>
<pdfrwt beam="1">  1        2 0.29957693E+00 0.16262471E+04</pdfrwt>
<pdfrwt beam="2">  1       -2 0.52236975E-01 0.16262471E+04</pdfrwt>
<totfact> 0.29851055E+01</totfact>
</mgrwt>
<rwgt>
<wgt id='morphing_basis_vector_1'> +1.5510512e-04 </wgt>
<wgt id='morphing_basis_vector_2'> +1.1067664e-04 </wgt>
<wgt id='morphing_basis_vector_3'> +1.6362823e-04 </wgt>
<wgt id='morphing_basis_vector_4'> +1.0111320e-04 </wgt>
<wgt id='morphing_basis_vector_5'> +1.7176551e-04 </wgt>
</rwgt>
</event>
<event>
 4      1 +1.5130300e-07 1.56056400e+03 7.81860800e-03 8.28062200e-02
        2 -1    0    0  501    0 +0.0000000000e+00 +0.0000000000e+00 +7.1786345967e+02 7.1786345967e+02 0.0000000000e+00 0.0000e+00 1.0000e+00
       -2 -1    0    0    0  501 -0.0000000000e+00 -0.0000000000e+00 -8.4812772200e+02 8.4812772200e+02 0.0000000000e+00 0.0000e+00 -1.0000e+00
      -13  1    1    2    0    0 -2.5242672161e+02 +9.2579369731e+01 +6.6991086875e+02 7.2185231284e+02 0.0000000000e+00 0.0000e+00 1.0000e+00
       13  1    1    2    0    0 +2.5242672161e+02 -9.2579369731e+01 -8.0017513108e+02 8.4413886884e+02 0.0000000000e+00 0.0000e+00 -1.0000e+00
<mgrwt>
<rscale>  0 0.15605639E+04</rscale>
<asrwt>0</asrwt>
<pdfrwt beam="1">  1        2 0.11044053E+00 0.15605639E+04</pdfrwt>
<pdfrwt beam="2">  1       -2 0.13048119E+00 0.15605639E+04</pdfrwt>
<totfact> 0.19884265E+01</totfact>
</mgrwt>
<rwgt>
<wgt id='morphing_basis_vector_1'> +1.7622275e-04 </wgt>
<wgt id='morphing_basis_vector_2'> +2.2515677e-04 </wgt>
<wgt id='morphing_basis_vector_3'> +1.9748845e-04 </wgt>
<wgt id='morphing_basis_vector_4'> +2.2541674e-06 </wgt>
<wgt id='morphing_basis_vector_5'> +1.3865615e-04 </wgt>
</rwgt>
</event>
<event>
 4      1 +1.5130300e-07 1.57265900e+03 7.81860800e-03 8.27395600e-02
        2 -1    0    0  501    0 +0.0000000000e+00 +0.0000000000e+00 +1.2895685297e+03 1.2895685297e+03 0.0000000000e+00 0.0000e+00 -1.0000e+00
       -2 -1    0    0    0  501 -0.0000000000e+00 -0.0000000000e+00 -4.7947379379e+02 4.7947379379e+02 0.0000000000e+00 0.0000e+00 1.0000e+00
      -13  1    1    2    0    0 -3.1173921439e+02 -1.4722979490e+02 -3.8992558479e+02 5.2048046262e+02 0.0000000000e+00 0.0000e+00 1.0000e+00
       13  1    1    2    0    0 +3.1173921439e+02 +1.4722979490e+02 +1.2000203207e+03 1.2485618608e+03 0.0000000000e+00 0.0000e+00 -1.0000e+00
<mgrwt>
<rscale>  0 0.15726593E+04</rscale>
<asrwt>0</asrwt>
<pdfrwt beam="1">  1        2 0.19839516E+00 0.15726593E+04</pdfrwt>
<pdfrwt beam="2">  1       -2 0.73765200E-01 0.15726593E+04</pdfrwt>
<totfact> 0.34210717E+01</totfact>
</mgrwt>
<rwgt>
<wgt id='morphing_basis_vector_1'> +1.3294495e-04 </wgt>
<wgt id='morphing_basis_vector_2'> +8.7257920e-05 </wgt>
<wgt id='morphing_basis_vector_3'> +1.3873189e-04 </wgt>
<wgt id='morphing_basis_vector_4'> +9.4261201e-05 </wgt>
<wgt id='morphing_basis_vector_5'> +1.5004876e-04 </wgt>
</rwgt>
</event>
<event>
 4      1 +1.5130300e-07 1.66688300e+03 7.81860800e-03 8.22405300e-02
        2 -1    0    0  501    0 +0.0000000000e+00 +0.0000000000e+00 +1.2799939213e+03 1.2799939213e+03 0.0000000000e+00 0.0000e+00 1.0000e+00
       -2 -1    0    0    0  501 -0.0000000000e+00 -0.0000000000e+00 -5.4267797578e+02 5.4267797578e+02 0.0000000000e+00 0.0000e+00 -1.0000e+00
      -13  1    1    2    0    0 -3.1358970067e+02 +5.9571154423e+02 -1.6860197489e+02 6.9400098720e+02 0.0000000000e+00 0.0000e+00 -1.0000e+00
       13  1    1    2    0    0 +3.1358970067e+02 -5.9571154423e+02 +9.0591792040e+02 1.1286709099e+03 0.0000000000e+00 0.0000e+00 1.0000e+00
<mgrwt>
<rscale>  0 0.16668827E+04</rscale>
<asrwt>0</asrwt>
<pdfrwt beam="1">  1        2 0.19692214E+00 0.16668827E+04</pdfrwt>
<pdfrwt beam="2">  1       -2 0.83488920E-01 0.16668827E+04</pdfrwt>
<totfact> 0.26030647E+01</totfact>
</mgrwt>
<rwgt>
<wgt id='morphing_basis_vector_1'> +1.6702446e-04 </wgt>
<wgt id='morphing_basis_vector_2'> +1.1105096e-04 </wgt>
<wgt id='morphing_basis_vector_3'> +1.7555354e-04 </wgt>
<wgt id='morphing_basis_vector_4'> +1.1897476e-04 </wgt>
<wgt id='morphing_basis_vector_5'> +1.9068498e-04 </wgt>
</rwgt>
</event>
<event>
 4      1 +1.5130300e-07 1.65842400e+03 7.81860800e-03 8.22839300e-02
        2 -1    0    0  501    0 +0.0000000000e+00 +0.0000000000e+00 +1.0563264218e+03 1.0563264218e+03 0.0000000000e+00 0.0000e+00 -1.0000e+00
       -2 -1    0    0    0  501 -0.0000000000e+00 -0.0000000000e+00 -6.5092802448e+02 6.5092802448e+02 0.0000000000e+00 0.0000e+00 1.0000e+00
      -13  1    1    2    0    0 -4.5390678056e+02 -6.5971813699e+02 -1.8889858927e+01 8.0100949588e+02 0.0000000000e+00 0.0000e+00 1.0000e+00
       13  1    1    2    0    0 +4.5390678056e+02 +6.5971813699e+02 +4.2428825623e+02 9.0624495038e+02 0.0000000000e+00 0.0000e+00 -1.0000e+00
<mgrwt>
<rscale>  0 0.16584239E+04</rscale>
<asrwt>0</asrwt>
<pdfrwt beam="1">  1        2 0.16251176E+00 0.16584239E+04</pdfrwt>
<pdfrwt beam="2">  1       -2 0.10014277E+00 0.16584239E+04</pdfrwt>
<totfact> 0.23039302E+01</totfact>
</mgrwt>
<rwgt>
<wgt id='morphing_basis_vector_1'> +1.6551750e-04 </wgt>
<wgt id='morphing_basis_vector_2'> +1.1407804e-04 </wgt>
<wgt id='morphing_basis_vector_3'> +1.7443739e-04 </wgt>
<wgt id='morphing_basis_vector_4'> +1.1313548e-04 </wgt>
<wgt id='morphing_basis_vector_5'> +1.8647480e-04 </wgt>
</rwgt>
</event>
<event>
 4      1 +1.5130300e-07 1.73211000e+03 7.81860800e-03 8.19145000e-02
        2 -1    0    0  501    0 +0.0000000000e+00 +0.0000000000e+00 +1.5684640677e+03 1.5684640677e+03 0.0000000000e+00 0.0000e+00 -1.0000e+00
       -2 -1    0    0    0  501 -0.0000000000e+00 -0.0000000000e+00 -4.7820754099e+02 4.7820754099e+02 0.0000000000e+00 0.0000e+00 1.0000e+00
      -13  1    1    2    0    0 +5.3582056368e+02 -6.4024846793e+02 +2.7302627452e+02 8.7838779803e+02 0.0000000000e+00 0.0000e+00 1.0000e+00
       13  1    1    2    0    0 -5.3582056368e+02 +6.4024846793e+02 +8.1723025217e+02 1.1682838106e+03 0.0000000000e+00 0.0000e+00 -1.0000e+00
<mgrwt>
<rscale>  0 0.17321101E+04</rscale>
<asrwt>0</asrwt>
<pdfrwt beam="1">  1        2 0.24130216E+00 0.17321101E+04</pdfrwt>
<pdfrwt beam="2">  1       -2 0.73570392E-01 0.17321101E+04</pdfrwt>
<totfact> 0.23634114E+01</totfact>
</mgrwt>
<rwgt>
<wgt id='morphing_basis_vector_1'> +1.9593507e-04 </wgt>
<wgt id='morphing_basis_vector_2'> +1.3523706e-04 </wgt>
<wgt id='morphing_basis_vector_3'> +2.0742602e-04 </wgt>
<wgt id='morphing_basis_vector_4'> +1.3538493e-04 </wgt>
<wgt id='morphing_basis_vector_5'> +2.2299182e-04 </wgt>
</rwgt>
</event>
<event>
 4      1 +1.5130300e-07 1.60765700e+03 7.81860800e-03 8.25501100e-02
        2 -1    0    0  501    0 +0.0000000000e+00 +0.0000000000e+00 +3.1149905039e+03 3.1149905039e+03 0.0000000000e+00 0.0000e+00 -1.0000e+00
       -2 -1    0    0    0  501 -0.0000000000e+00 -0.0000000000e+00 -2.0742934192e+02 2.0742934192e+02 0.0000000000e+00 0.0000e+00 1.0000e+00
      -13  1    1    2    0    0 +6.5449972934e+02 +2.8077521982e+02 +6.8346593022e+02 9.8708170763e+02 0.0000000000e+00 0.0000e+00 1.0000e+00
       13  1    1    2    0    0 -6.5449972934e+02 -2.8077521982e+02 +2.2240952318e+03 2.3353381382e+03 0.0000000000e+00 0.0000e+00 -1.0000e+00
<mgrwt>
<rscale>  0 0.16076572E+04</rscale>
<asrwt>0</asrwt>
<pdfrwt beam="1">  1        2 0.47922927E+00 0.16076572E+04</pdfrwt>
<pdfrwt beam="2">  1       -2 0.31912209E-01 0.16076572E+04</pdfrwt>
<totfact> 0.14999204E+01</totfact>
</mgrwt>
<rwgt>
<wgt id='morphing_basis_vector_1'> +1.4553396e-04 </wgt>
<wgt id='morphing_basis_vector_2'> +9.7424133e-05 </wgt>
<wgt id='morphing_basis_vector_3'> +1.5248165e-04 </wgt>
<wgt id='morphing_basis_vector_4'> +1.0177737e-04 </wgt>
<wgt id='morphing_basis_vector_5'> +1.6421543e-04 </wgt>
</rwgt>
</event>
<event>
 4      1 +1.5130300e-07 1.65450400e+03 7.81860800e-03 8.23041400e-02
        2 -1    0    0  501    0 +0.0000000000e+00 +0.0000000000e+00 +1.0817715741e+03 1.0817715741e+03 0.0000000000e+00 0.0000e+00 1.0000e+00
       -2 -1    0    0    0  501 -0.0000000000e+00 -0.0000000000e+00 -6.3261575133e+02 6.3261575133e+02 0.0000000000e+00 0.0000e+00 -1.0000e+00
      -13  1    1    2    0    0 +5.6171179413e+02 +4.2981353420e+02 +6.6915948471e+02 9.7367049346e+02 0.0000000000e+00 0.0000e+00 -1.0000e+00
       13  1    1    2    0    0 -5.6171179413e+02 -4.2981353420e+02 -2.2000366197e+02 7.4071683194e+02 0.0000000000e+00 0.0000e+00 1.0000e+00
<mgrwt>
<rscale>  0 0.16545038E+04</rscale>
<asrwt>0</asrwt>
<pdfrwt beam="1">  1        2 0.16642640E+00 0.16545038E+04</pdfrwt>
<pdfrwt beam="2">  1       -2 0.97325500E-01 0.16545038E+04</pdfrwt>
<totfact> 0.23817238E+01</totfact>
</mgrwt>
<rwgt>
<wgt id='morphing_basis_vector_1'> +1.9299342e-04 </wgt>
<wgt id='morphing_basis_vector_2'> +1.9920473e-04 </wgt>
<wgt id='morphing_basis_vector_3'> +2.1245372e-04 </wgt>
<wgt id='morphing_basis_vector_4'> +5.6507815e-05 </wgt>
<wgt id='morphing_basis_vector_5'> +1.8043893e-04 </wgt>
</rwgt>
</event>
<event>
 4      1 +1.5130300e-07 1.64304900e+03 7.81860800e-03 8.23635000e-02
        2 -1    0    0  501    0 +0.0000000000e+00 +0.0000000000e+00 +2.4762451688e+03 2.4762451688e+03 0.0000000000e+00 0.0000e+00 1.0000e+00
       -2 -1    0    0    0  501 -0.0000000000e+00 -0.0000000000e+00 -2.7255062576e+02 2.7255062576e+02 0.0000000000e+00 0.0000e+00 -1.0000e+00
      -13  1    1    2    0    0 +7.4507870384e+02 +2.5777966913e+02 +7.1557411613e+02 1.0647248229e+03 0.0000000000e+00 0.0000e+00 -1.0000e+00
       13  1    1    2    0    0 -7.4507870384e+02 -2.5777966913e+02 +1.4881204269e+03 1.6840709717e+03 0.0000000000e+00 0.0000e+00 1.0000e+00
<mgrwt>
<rscale>  0 0.16430486E+04</rscale>
<asrwt>0</asrwt>
<pdfrwt beam="1">  1        2 0.38096078E+00 0.16430486E+04</pdfrwt>
<pdfrwt beam="2">  1       -2 0.41930867E-01 0.16430486E+04</pdfrwt>
<totfact> 0.22682709E+01</totfact>
</mgrwt>
<rwgt>
<wgt id='morphing_basis_vector_1'> +1.5945713e-04 </wgt>
<wgt id='morphing_basis_vector_2'> +1.0942347e-04 </wgt>
<wgt id='morphing_basis_vector_3'> +1.6781967e-04 </wgt>
<wgt id='morphing_basis_vector_4'> +1.0922935e-04 </wgt>
<wgt id='morphing_basis_vector_5'> +1.7948235e-04 </wgt>
</rwgt>
</event>
<event>
 4      1 +1.5130300e-07 1.68150100e+03 7.81860800e-03 8.21661500e-02
        2 -1    0    0  501    0 +0.0000000000e+00 +0.0000000000e+00 +1.2441282707e+03 1.2441282707e+03 0.0000000000e+00 0.0000e+00 -1.0000e+00
       -2 -1    0    0    0  501 -0.0000000000e+00 -0.0000000000e+00 -5.6815803568e+02 5.6815803568e+02 0.0000000000e+00 0.0000e+00 1.0000e+00
      -13  1    1    2    0    0 -6.3703088394e+02 +3.6790428840e+02 -1.0073781622e+02 7.4250253881e+02 0.0000000000e+00 0.0000e+00 1.0000e+00
       13  1    1    2    0    0 +6.3703088394e+02 -3.6790428840e+02 +7.7670805125e+02 1.0697837676e+03 0.0000000000e+00 0.0000e+00 -1.0000e+00
<mgrwt>
<rscale>  0 0.16815011E+04</rscale>
<asrwt>0</asrwt>
<pdfrwt beam="1">  1        2 0.19140435E+00 0.16815011E+04</pdfrwt>
<pdfrwt beam="2">  1       -2 0.87408929E-01 0.16815011E+04</pdfrwt>
<totfact> 0.24526398E+01</totfact>
</mgrwt>
<rwgt>
<wgt id='morphing_basis_vector_1'> +1.7315814e-04 </wgt>
<wgt id='morphing_basis_vector_2'> +1.1604545e-04 </wgt>
<wgt id='morphing_basis_vector_3'> +1.8228650e-04 </wgt>
<wgt id='morphing_basis_vector_4'> +1.2261292e-04 </wgt>
<wgt id='morphing_basis_vector_5'> +1.9760843e-04 </wgt>
</rwgt>
</event>
<event>
 4      1 +1.5130300e-07 1.68164500e+03 7.81860800e-03 8.21654300e-02
        2 -1    0    0  501    0 +0.0000000000e+00 +0.0000000000e+00 +3.4122831679e+03 3.4122831679e+03 0.0000000000e+00 0.0000e+00 1.0000e+00
       -2 -1    0    0    0  501 -0.0000000000e+00 -0.0000000000e+00 -2.0718744888e+02 2.0718744888e+02 0.0000000000e+00 0.0000e+00 -1.0000e+00
      -13  1    1    2    0    0 +6.8349936528e+02 +4.6790533213e+02 +1.9135252799e+03 2.0851104956e+03 0.0000000000e+00 0.0000e+00 -1.0000e+00
       13  1    1    2    0    0 -6.8349936528e+02 -4.6790533213e+02 +1.2915704391e+03 1.5343601212e+03 0.0000000000e+00 0.0000e+00 1.0000e+00
<mgrwt>
<rscale>  0 0.16816447E+04</rscale>
<asrwt>0</asrwt>
<pdfrwt beam="1">  1        2 0.52496660E+00 0.16816447E+04</pdfrwt>
<pdfrwt beam="2">  1       -2 0.31874995E-01 0.16816447E+04</pdfrwt>
<totfact> 0.93345136E+00</totfact>
</mgrwt>
<rwgt>
<wgt id='morphing_basis_vector_1'> +1.8383348e-04 </wgt>
<wgt id='morphing_basis_vector_2'> +1.4763832e-04 </wgt>
<wgt id='morphing_basis_vector_3'> +1.9696674e-04 </wgt>
<wgt id='morphing_basis_vector_4'> +1.0223827e-04 </wgt>
<wgt id='morphing_basis_vector_5'> +1.9611779e-04 </wgt>
</rwgt>
</event>
<event>
 4      1 +1.5130300e-07 1.62790500e+03 7.81860800e-03 8.24427500e-02
        2 -1    0    0  501    0 +0.0000000000e+00 +0.0000000000e+00 +8.9288550652e+02 8.9288550652e+02 0.0000000000e+00 0.0000e+00 -1.0000e+00
       -2 -1    0    0    0  501 -0.0000000000e+00 -0.0000000000e+00 -7.4199719331e+02 7.4199719331e+02 0.0000000000e+00 0.0000e+00 1.0000e+00
      -13  1    1    2    0    0 -1.8955719520e+02 -4.8977412550e+02 -5.4907981859e+02 7.5980212651e+02 0.0000000000e+00 0.0000e+00 1.0000e+00
       13  1    1    2    0    0 +1.8955719520e+02 +4.8977412550e+02 +6.9996813180e+02 8.7508057332e+02 0.0000000000e+00 0.0000e+00 -1.0000e+00
<mgrwt>
<rscale>  0 0.16279048E+04</rscale>
<asrwt>0</asrwt>
<pdfrwt beam="1">  1        2 0.13736700E+00 0.16279048E+04</pdfrwt>
<pdfrwt beam="2">  1       -2 0.11415341E+00 0.16279048E+04</pdfrwt>
<totfact> 0.21167508E+01</totfact>
</mgrwt>
<rwgt>
<wgt id='morphing_basis_vector_1'> +1.5206905e-04 </wgt>
<wgt id='morphing_basis_vector_2'> +1.0026488e-04 </wgt>
<wgt id='morphing_basis_vector_3'> +1.5933550e-04 </wgt>
<wgt id='morphing_basis_vector_4'> +1.0850274e-04 </wgt>
<wgt id='morphing_basis_vector_5'> +1.7301654e-04 </wgt>
</rwgt>
</event>
<event>
 4      1 +1.5130300e-07 1.75477400e+03 7.81860800e-03 8.18046400e-02
        2 -1    0    0  501    0 +0.0000000000e+00 +0.0000000000e+00 +5.4489966179e+02 5.4489966179e+02 0.0000000000e+00 0.0000e+00 -1.0000e+00
       -2 -1    0    0    0  501 -0.0000000000e+00 -0.0000000000e+00 -1.4127509674e+03 1.4127509674e+03 0.0000000000e+00 0.0000e+00 1.0000e+00
      -13  1    1    2    0    0 +1.3848434845e+02 -1.8268190634e+02 -1.3787509081e+03 1.3976783107e+03 0.0000000000e+00 0.0000e+00 1.0000e+00
       13  1    1    2    0    0 -1.3848434845e+02 +1.8268190634e+02 +5.1089960247e+02 5.5997231849e+02 0.0000000000e+00 0.0000e+00 -1.0000e+00
<mgrwt>
<rscale>  0 0.17547735E+04</rscale>
<asrwt>0</asrwt>
<pdfrwt beam="1">  1        2 0.83830717E-01 0.17547735E+04</pdfrwt>
<pdfrwt beam="2">  1       -2 0.21734630E+00 0.17547735E+04</pdfrwt>
<totfact> 0.56843688E+00</totfact>
</mgrwt>
<rwgt>
<wgt id='morphing_basis_vector_1'> +2.0344179e-04 </wgt>
<wgt id='morphing_basis_vector_2'> +1.3444237e-04 </wgt>
<wgt id='morphing_basis_vector_3'> +2.1475101e-04 </wgt>
<wgt id='morphing_basis_vector_4'> +1.4798009e-04 </wgt>
<wgt id='morphing_basis_vector_5'> +2.3561826e-04 </wgt>
</rwgt>
</event>
<event>
 4      1 +1.5130300e-07 1.73010900e+03 7.81860800e-03 8.19242800e-02
        2 -1    0    0  501    0 +0.0000000000e+00 +0.0000000000e+00 +2.1211468620e+03 2.1211468620e+03 0.0000000000e+00 0.0000e+00 -1.0000e+00
       -2 -1    0    0    0  501 -0.0000000000e+00 -0.0000000000e+00 -3.5279007408e+02 3.5279007408e+02 0.0000000000e+00 0.0000e+00 1.0000e+00
      -13  1    1    2    0    0 -7.4733496337e+02 +3.6052370083e+02 +5.3440700579e+02 9.8695376497e+02 0.0000000000e+00 0.0000e+00 1.0000e+00
       13  1    1    2    0    0 +7.4733496337e+02 -3.6052370083e+02 +1.2339497821e+03 1.4869831711e+03 0.0000000000e+00 0.0000e+00 -1.0000e+00
<mgrwt>
<rscale>  0 0.17301093E+04</rscale>
<asrwt>0</asrwt>
<pdfrwt beam="1">  1        2 0.32633028E+00 0.17301093E+04</pdfrwt>
<pdfrwt beam="2">  1       -2 0.54275397E-01 0.17301093E+04</pdfrwt>
<totfact> 0.21876324E+01</totfact>
</mgrwt>
<rwgt>
<wgt id='morphing_basis_vector_1'> +1.9488348e-04 </wgt>
<wgt id='morphing_basis_vector_2'> +1.3411044e-04 </wgt>
<wgt id='morphing_basis_vector_3'> +2.0623125e-04 </wgt>
<wgt id='morphing_basis_vector_4'> +1.3507716e-04 </wgt>
<wgt id='morphing_basis_vector_5'> +2.2196117e-04 </wgt>
</rwgt>
</event>
<event>
 4      1 +1.5130300e-07 1.58366600e+03 7.81860800e-03 8.26794400e-02
        2 -1    0    0  501    0 +0.0000000000e+00 +0.0000000000e+00 +2.6612643584e+03 2.6612643584e+03 0.0000000000e+00 0.0000e+00 -1.0000e+00
       -2 -1    0    0    0  501 -0.0000000000e+00 -0.0000000000e+00 -2.3560213118e+02 2.3560213118e+02 0.0000000000e+00 0.0000e+00 1.0000e+00
      -13  1    1    2    0    0 -8.5269748001e+01 +4.5150891580e+02 +3.3209316200e+01 4.6068871232e+02 0.0000000000e+00 0.0000e+00 1.0000e+00
       13  1    1    2    0    0 +8.5269748001e+01 -4.5150891580e+02 +2.3924529110e+03 2.4361777773e+03 0.0000000000e+00 0.0000e+00 -1.0000e+00
<mgrwt>
<rscale>  0 0.15836661E+04</rscale>
<asrwt>0</asrwt>
<pdfrwt beam="1">  1        2 0.40942526E+00 0.15836661E+04</pdfrwt>
<pdfrwt beam="2">  1       -2 0.36246484E-01 0.15836661E+04</pdfrwt>
<totfact> 0.23154020E+01</totfact>
</mgrwt>
<rwgt>
<wgt id='morphing_basis_vector_1'> +1.3662582e-04 </wgt>
<wgt id='morphing_basis_vector_2'> +8.9815984e-05 </wgt>
<wgt id='morphing_basis_vector_3'> +1.4270046e-04 </wgt>
<wgt id='morphing_basis_vector_4'> +9.6933465e-05 </wgt>
<wgt id='morphing_basis_vector_5'> +1.5442890e-04 </wgt>
</rwgt>
</event>
<event>
 4      1 +1.5130300e-07 1.56860800e+03 7.81860800e-03 8.27618200e-02
        2 -1    0    0  501    0 +0.0000000000e+00 +0.0000000000e+00 +9.7176879251e+02 9.7176879251e+02 0.0000000000e+00 0.0000e+00 1.0000e+00
       -2 -1    0    0    0  501 -0.0000000000e+00 -0.0000000000e+00 -6.3300351459e+02 6.3300351459e+02 0.0000000000e+00 0.0000e+00 -1.0000e+00
      -13  1    1    2    0    0 +6.1116834639e+02 -4.8130539383e+02 +6.7325905196e+01 7.8084211417e+02 0.0000000000e+00 0.0000e+00 -1.0000e+00
       13  1    1    2    0    0 -6.1116834639e+02 +4.8130539383e+02 +2.7143937272e+02 8.2393019293e+02 0.0000000000e+00 0.0000e+00 1.0000e+00
<mgrwt>
<rscale>  0 0.15686084E+04</rscale>
<asrwt>0</asrwt>
<pdfrwt beam="1">  1        2 0.14950289E+00 0.15686084E+04</pdfrwt>
<pdfrwt beam="2">  1       -2 0.97385155E-01 0.15686084E+04</pdfrwt>
<totfact> 0.28005599E+01</totfact>
</mgrwt>
<rwgt>
<wgt id='morphing_basis_vector_1'> +1.3459896e-04 </wgt>
<wgt id='morphing_basis_vector_2'> +9.5230840e-05 </wgt>
<wgt id='morphing_basis_vector_3'> +1.4129048e-04 </wgt>
<wgt id='morphing_basis_vector_4'> +8.7642286e-05 </wgt>
<wgt id='morphing_basis_vector_5'> +1.4803578e-04 </wgt>
</rwgt>
</event>
<event>
 4      1 +1.5130300e-07 1.59433900e+03 7.81860800e-03 8.26216100e-02
        2 -1    0    0  501    0 +0.0000000000e+00 +0.0000000000e+00 +1.3553538335e+03 1.3553538335e+03 0.0000000000e+00 0.0000e+00 -1.0000e+00
       -2 -1    0    0    0  501 -0.0000000000e+00 -0.0000000000e+00 -4.6886567951e+02 4.6886567951e+02 0.0000000000e+00 0.0000e+00 1.0000e+00
      -13  1    1    2    0    0 +1.8979795039e+02 -5.5869414276e+02 -1.7006135380e+02 6.1407106363e+02 0.0000000000e+00 0.0000e+00 1.0000e+00
       13  1    1    2    0    0 -1.8979795039e+02 +5.5869414276e+02 +1.0565495078e+03 1.2101484494e+03 0.0000000000e+00 0.0000e+00 -1.0000e+00
<mgrwt>
<rscale>  0 0.15943386E+04</rscale>
<asrwt>0</asrwt>
<pdfrwt beam="1">  1        2 0.20851597E+00 0.15943386E+04</pdfrwt>
<pdfrwt beam="2">  1       -2 0.72133182E-01 0.15943386E+04</pdfrwt>
<totfact> 0.32882045E+01</totfact>
</mgrwt>
<rwgt>
<wgt id='morphing_basis_vector_1'> +1.4038413e-04 </wgt>
<wgt id='morphing_basis_vector_2'> +9.2694758e-05 </wgt>
<wgt id='morphing_basis_vector_3'> +1.4678580e-04 </wgt>
<wgt id='morphing_basis_vector_4'> +9.9357700e-05 </wgt>
<wgt id='morphing_basis_vector_5'> +1.5874933e-04 </wgt>
</rwgt>
</event>
<event>
 4      1 +1.5130300e-07 1.67998200e+03 7.81860800e-03 8.21738400e-02
        2 -1    0    0  501    0 +0.0000000000e+00 +0.0000000000e+00 +2.4920951579e+03 2.4920951579e+03 0.0000000000e+00 0.0000e+00 1.0000e+00
       -2 -1    0    0    0  501 -0.0000000000e+00 -0.0000000000e+00 -2.8312929064e+02 2.8312929064e+02 0.0000000000e+00 0.0000e+00 -1.0000e+00
      -13  1    1    2    0    0 -2.7245028180e+01 -6.2648229812e+02 +1.8122501603e+02 6.5273644594e+02 0.0000000000e+00 0.0000e+00 -1.0000e+00
       13  1    1    2    0    0 +2.7245028180e+01 +6.2648229812e+02 +2.0277408512e+03 2.1224880026e+03 0.0000000000e+00 0.0000e+00 1.0000e+00
<mgrwt>
<rscale>  0 0.16799823E+04</rscale>
<asrwt>0</asrwt>
<pdfrwt beam="1">  1        2 0.38339924E+00 0.16799823E+04</pdfrwt>
<pdfrwt beam="2">  1       -2 0.43558354E-01 0.16799823E+04</pdfrwt>
<totfact> 0.20582543E+01</totfact>
</mgrwt>
<rwgt>
<wgt id='morphing_basis_vector_1'> +1.7200230e-04 </wgt>
<wgt id='morphing_basis_vector_2'> +1.1400124e-04 </wgt>
<wgt id='morphing_basis_vector_3'> +1.8087505e-04 </wgt>
<wgt id='morphing_basis_vector_4'> +1.2321334e-04 </wgt>
<wgt id='morphing_basis_vector_5'> +1.9695559e-04 </wgt>
</rwgt>
</event>
<event>
 4      1 +1.5130300e-07 1.71948500e+03 7.81860800e-03 8.19764500e-02
        2 -1    0    0  501    0 +0.0000000000e+00 +0.0000000000e+00 +1.3386692812e+03 1.3386692812e+03 0.0000000000e+00 0.0000e+00 1.0000e+00
       -2 -1    0    0    0  501 -0.0000000000e+00 -0.0000000000e+00 -5.5215818275e+02 5.5215818275e+02 0.0000000000e+00 0.0000e+00 -1.0000e+00
      -13  1    1    2    0    0 +6.6798038008e+02 +4.3679983708e+01 +9.8650643912e+02 1.1921831586e+03 0.0000000000e+00 0.0000e+00 1.0000e+00
       13  1    1    2    0    0 -6.6798038008e+02 -4.3679983708e+01 -1.9999534067e+02 6.9864430538e+02 0.0000000000e+00 0.0000e+00 -1.0000e+00
<mgrwt>
<rscale>  0 0.17194850E+04</rscale>
<asrwt>0</asrwt>
<pdfrwt beam="1">  1        2 0.20594912E+00 0.17194850E+04</pdfrwt>
<pdfrwt beam="2">  1       -2 0.84947413E-01 0.17194850E+04</pdfrwt>
<totfact> 0.23050844E+01</totfact>
</mgrwt>
<rwgt>
<wgt id='morphing_basis_vector_1'> +2.3495282e-04 </wgt>
<wgt id='morphing_basis_vector_2'> +2.6361268e-04 </wgt>
<wgt id='morphing_basis_vector_3'> +2.6325905e-04 </wgt>
<wgt id='morphing_basis_vector_4'> +4.5337143e-05 </wgt>
<wgt id='morphing_basis_vector_5'> +2.0978231e-04 </wgt>
</rwgt>
</event>
<event>
 4      1 +1.5130300e-07 1.72998500e+03 7.81860800e-03 8.19248900e-02
        2 -1    0    0  501    0 +0.0000000000e+00 +0.0000000000e+00 +2.1867818325e+03 2.1867818325e+03 0.0000000000e+00 0.0000e+00 -1.0000e+00
       -2 -1    0    0    0  501 -0.0000000000e+00 -0.0000000000e+00 -3.4215202517e+02 3.4215202517e+02 0.0000000000e+00 0.0000e+00 1.0000e+00
      -13  1    1    2    0    0 -2.7322948325e+01 +8.2213485782e+02 +5.3126783560e+02 9.7923326183e+02 0.0000000000e+00 0.0000e+00 1.0000e+00
       13  1    1    2    0    0 +2.7322948325e+01 -8.2213485782e+02 +1.3133619717e+03 1.5497005958e+03 0.0000000000e+00 0.0000e+00 -1.0000e+00
<mgrwt>
<rscale>  0 0.17299848E+04</rscale>
<asrwt>0</asrwt>
<pdfrwt beam="1">  1        2 0.33642796E+00 0.17299848E+04</pdfrwt>
<pdfrwt beam="2">  1       -2 0.52638775E-01 0.17299848E+04</pdfrwt>
<totfact> 0.21339535E+01</totfact>
</mgrwt>
<rwgt>
<wgt id='morphing_basis_vector_1'> +1.9457831e-04 </wgt>
<wgt id='morphing_basis_vector_2'> +1.3332818e-04 </wgt>
<wgt id='morphing_basis_vector_3'> +2.0582330e-04 </wgt>
<wgt id='morphing_basis_vector_4'> +1.3552221e-04 </wgt>
<wgt id='morphing_basis_vector_5'> +2.2193283e-04 </wgt>
</rwgt>
</event>
<event>
 4      1 +1.5130300e-07 1.71834200e+03 7.81860800e-03 8.19820800e-02
        2 -1    0    0  501    0 +0.0000000000e+00 +0.0000000000e+00 +1.8939164054e+03 1.8939164054e+03 0.0000000000e+00 0.0000e+00 -1.0000e+00
       -2 -1    0    0    0  501 -0.0000000000e+00 -0.0000000000e+00 -3.8976089693e+02 3.8976089693e+02 0.0000000000e+00 0.0000e+00 1.0000e+00
      -13  1    1    2    0    0 -3.2319412810e+02 -2.4362642605e+02 -2.5513141387e+02 4.7843528116e+02 0.0000000000e+00 0.0000e+00 1.0000e+00
       13  1    1    2    0    0 +3.2319412810e+02 +2.4362642605e+02 +1.7592869223e+03 1.8052420212e+03 0.0000000000e+00 0.0000e+00 -1.0000e+00
<mgrwt>
<rscale>  0 0.17183417E+04</rscale>
<asrwt>0</asrwt>
<pdfrwt beam="1">  1        2 0.29137175E+00 0.17183417E+04</pdfrwt>
<pdfrwt beam="2">  1       -2 0.59963216E-01 0.17183417E+04</pdfrwt>
<totfact> 0.24009272E+01</totfact>
</mgrwt>
<rwgt>
<wgt id='morphing_basis_vector_1'> +1.8751141e-04 </wgt>
<wgt id='morphing_basis_vector_2'> +1.2382102e-04 </wgt>
<wgt id='morphing_basis_vector_3'> +1.9754348e-04 </wgt>
<wgt id='morphing_basis_vector_4'> +1.3571975e-04 </wgt>
<wgt id='morphing_basis_vector_5'> +2.1615903e-04 </wgt>
</rwgt>
</event>
<event>
 4      1 +1.5130300e-07 1.55497000e+03 7.81860800e-03 8.28372600e-02
        2 -1    0    0  501    0 +0.0000000000e+00 +0.0000000000e+00 +2.1898037059e+03 2.1898037059e+03 0.0000000000e+00 0.0000e+00 -1.0000e+00
       -2 -1    0    0    0  501 -0.0000000000e+00 -0.0000000000e+00 -2.7604421400e+02 2.7604421400e+02 0.0000000000e+00 0.0000e+00 1.0000e+00
      -13  1    1    2    0    0 -2.6594649065e+00 -7.0430094355e+02 +4.3468725699e+02 8.2764720940e+02 0.0000000000e+00 0.0000e+00 1.0000e+00
       13  1    1    2    0    0 +2.6594649065e+00 +7.0430094355e+02 +1.4790722349e+03 1.6382007105e+03 0.0000000000e+00 0.0000e+00 -1.0000e+00
<mgrwt>
<rscale>  0 0.15549696E+04</rscale>
<asrwt>0</asrwt>
<pdfrwt beam="1">  1        2 0.33689287E+00 0.15549696E+04</pdfrwt>
<pdfrwt beam="2">  1       -2 0.42468342E-01 0.15549696E+04</pdfrwt>
<totfact> 0.32728278E+01</totfact>
</mgrwt>
<rwgt>
<wgt id='morphing_basis_vector_1'> +1.2806394e-04 </wgt>
<wgt id='morphing_basis_vector_2'> +8.5872274e-05 </wgt>
<wgt id='morphing_basis_vector_3'> +1.3369645e-04 </wgt>
<wgt id='morphing_basis_vector_4'> +8.8428589e-05 </wgt>
<wgt id='morphing_basis_vector_5'> +1.4307926e-04 </wgt>
</rwgt>
</event>
<event>
 4      1 +1.5130300e-07 1.56282700e+03 7.81860800e-03 8.27937000e-02
        2 -1    0    0  501    0 +0.0000000000e+00 +0.0000000000e+00 +1.4401962448e+03 1.4401962448e+03 0.0000000000e+00 0.0000e+00 1.0000e+00
       -2 -1    0    0    0  501 -0.0000000000e+00 -0.0000000000e+00 -4.2397515832e+02 4.2397515832e+02 0.0000000000e+00 0.0000e+00 -1.0000e+00
      -13  1    1    2    0    0 +3.6398574372e+02 -6.6547413790e+02 +2.8410808297e+02 8.0997460000e+02 0.0000000000e+00 0.0000e+00 -1.0000e+00
       13  1    1    2    0    0 -3.6398574372e+02 +6.6547413790e+02 +7.3211300354e+02 1.0541968032e+03 0.0000000000e+00 0.0000e+00 1.0000e+00
<mgrwt>
<rscale>  0 0.15628275E+04</rscale>
<asrwt>0</asrwt>
<pdfrwt beam="1">  1        2 0.22156865E+00 0.15628275E+04</pdfrwt>
<pdfrwt beam="2">  1       -2 0.65226948E-01 0.15628275E+04</pdfrwt>
<totfact> 0.36583130E+01</totfact>
</mgrwt>
<rwgt>
<wgt id='morphing_basis_vector_1'> +1.3162951e-04 </wgt>
<wgt id='morphing_basis_vector_2'> +9.0701908e-05 </wgt>
<wgt id='morphing_basis_vector_3'> +1.3780579e-04 </wgt>
<wgt id='morphing_basis_vector_4'> +8.8317925e-05 </wgt>
<wgt id='morphing_basis_vector_5'> +1.4594437e-04 </wgt>
</rwgt>
</event>
<event>
 4      1 +1.5130300e-07 1.60101000e+03 7.81860800e-03 8.25857100e-02
        2 -1    0    0  501    0 +0.0000000000e+00 +0.0000000000e+00 +5.3626400636e+02 5.3626400636e+02 0.0000000000e+00 0.0000e+00 -1.0000e+00
       -2 -1    0    0    0  501 -0.0000000000e+00 -0.0000000000e+00 -1.1949485924e+03 1.1949485924e+03 0.0000000000e+00 0.0000e+00 1.0000e+00
      -13  1    1    2    0    0 +5.0014711503e+02 +4.5841131886e+01 -1.0033815144e+03 1.1220619455e+03 0.0000000000e+00 0.0000e+00 1.0000e+00
       13  1    1    2    0    0 -5.0014711503e+02 -4.5841131886e+01 +3.4469692832e+02 6.0915065332e+02 0.0000000000e+00 0.0000e+00 -1.0000e+00
<mgrwt>
<rscale>  0 0.16010096E+04</rscale>
<asrwt>0</asrwt>
<pdfrwt beam="1">  1        2 0.82502155E-01 0.16010096E+04</pdfrwt>
<pdfrwt beam="2">  1       -2 0.18383824E+00 0.16010096E+04</pdfrwt>
<totfact> 0.10313869E+01</totfact>
</mgrwt>
<rwgt>
<wgt id='morphing_basis_vector_1'> +1.4254297e-04 </wgt>
<wgt id='morphing_basis_vector_2'> +9.3844467e-05 </wgt>
<wgt id='morphing_basis_vector_3'> +1.4907405e-04 </wgt>
<wgt id='morphing_basis_vector_4'> +1.0133154e-04 </wgt>
<wgt id='morphing_basis_vector_5'> +1.6152792e-04 </wgt>
</rwgt>
</event>
<event>
 4      1 +1.5130300e-07 1.56540900e+03 7.81860800e-03 8.27794400e-02
        2 -1    0    0  501    0 +0.0000000000e+00 +0.0000000000e+00 +1.4670584218e+03 1.4670584218e+03 0.0000000000e+00 0.0000e+00 1.0000e+00
       -2 -1    0    0    0  501 -0.0000000000e+00 -0.0000000000e+00 -4.1758822017e+02 4.1758822017e+02 0.0000000000e+00 0.0000e+00 -1.0000e+00
      -13  1    1    2    0    0 -5.0458090549e+02 -3.8442458399e+02 -2.7294066174e+01 6.3492449710e+02 0.0000000000e+00 0.0000e+00 -1.0000e+00
       13  1    1    2    0    0 +5.0458090549e+02 +3.8442458399e+02 +1.0767642678e+03 1.2497221449e+03 0.0000000000e+00 0.0000e+00 1.0000e+00
<mgrwt>
<rscale>  0 0.15654090E+04</rscale>
<asrwt>0</asrwt>
<pdfrwt beam="1">  1        2 0.22570129E+00 0.15654090E+04</pdfrwt>
<pdfrwt beam="2">  1       -2 0.64244342E-01 0.15654090E+04</pdfrwt>
<totfact> 0.36466188E+01</totfact>
</mgrwt>
<rwgt>
<wgt id='morphing_basis_vector_1'> +1.3093036e-04 </wgt>
<wgt id='morphing_basis_vector_2'> +8.6700598e-05 </wgt>
<wgt id='morphing_basis_vector_3'> +1.3665612e-04 </wgt>
<wgt id='morphing_basis_vector_4'> +9.1834772e-05 </wgt>
<wgt id='morphing_basis_vector_5'> +1.4716203e-04 </wgt>
</rwgt>
</event>
<event>
 4      1 +1.5130300e-07 1.64883000e+03 7.81860800e-03 8.23334800e-02
        2 -1    0    0  501    0 +0.0000000000e+00 +0.0000000000e+00 +1.9465045963e+03 1.9465045963e+03 0.0000000000e+00 0.0000e+00 1.0000e+00
       -2 -1    0    0    0  501 -0.0000000000e+00 -0.0000000000e+00 -3.4916959067e+02 3.4916959067e+02 0.0000000000e+00 0.0000e+00 -1.0000e+00
      -13  1    1    2    0    0 -6.5186919389e+02 +1.9316880738e+01 +9.6479673756e+01 6.5925330130e+02 0.0000000000e+00 0.0000e+00 -1.0000e+00
       13  1    1    2    0    0 +6.5186919389e+02 -1.9316880738e+01 +1.5008553319e+03 1.6364208857e+03 0.0000000000e+00 0.0000e+00 1.0000e+00
<mgrwt>
<rscale>  0 0.16488301E+04</rscale>
<asrwt>0</asrwt>
<pdfrwt beam="1">  1        2 0.29946224E+00 0.16488301E+04</pdfrwt>
<pdfrwt beam="2">  1       -2 0.53718400E-01 0.16488301E+04</pdfrwt>
<totfact> 0.28206245E+01</totfact>
</mgrwt>
<rwgt>
<wgt id='morphing_basis_vector_1'> +1.6005335e-04 </wgt>
<wgt id='morphing_basis_vector_2'> +1.0621362e-04 </wgt>
<wgt id='morphing_basis_vector_3'> +1.6801421e-04 </wgt>
<wgt id='morphing_basis_vector_4'> +1.1386851e-04 </wgt>
<wgt id='morphing_basis_vector_5'> +1.8233050e-04 </wgt>
</rwgt>
</event>
<event>
 4      1 +1.5130300e-07 1.63647800e+03 7.81860800e-03 8.23977800e-02
        2 -1    0    0  501    0 +0.0000000000e+00 +0.0000000000e+00 +1.6566866230e+03 1.6566866230e+03 0.0000000000e+00 0.0000e+00 -1.0000e+00
       -2 -1    0    0    0  501 -0.0000000000e+00 -0.0000000000e+00 -4.0412887928e+02 4.0412887928e+02 0.0000000000e+00 0.0000e+00 1.0000e+00
      -13  1    1    2    0    0 +5.8762066483e+02 -6.4564885386e+01 -8.6142125947e+01 5.9740031471e+02 0.0000000000e+00 0.0000e+00 1.0000e+00
       13  1    1    2    0    0 -5.8762066483e+02 +6.4564885386e+01 +1.3386998697e+03 1.4634151876e+03 0.0000000000e+00 0.0000e+00 -1.0000e+00
<mgrwt>
<rscale>  0 0.16364778E+04</rscale>
<asrwt>0</asrwt>
<pdfrwt beam="1">  1        2 0.25487486E+00 0.16364778E+04</pdfrwt>
<pdfrwt beam="2">  1       -2 0.62173675E-01 0.16364778E+04</pdfrwt>
<totfact> 0.30412388E+01</totfact>
</mgrwt>
<rwgt>
<wgt id='morphing_basis_vector_1'> +1.5529580e-04 </wgt>
<wgt id='morphing_basis_vector_2'> +1.0265059e-04 </wgt>
<wgt id='morphing_basis_vector_3'> +1.6283949e-04 </wgt>
<wgt id='morphing_basis_vector_4'> +1.1069158e-04 </wgt>
<wgt id='morphing_basis_vector_5'> +1.7678966e-04 </wgt>
</rwgt>
</event>
<event>
 4      1 +1.5130300e-07 1.69269100e+03 7.81860800e-03 8.21097400e-02
        2 -1    0    0  501    0 +0.0000000000e+00 +0.0000000000e+00 +1.6233313080e+03 1.6233313080e+03 0.0000000000e+00 0.0000e+00 -1.0000e+00
       -2 -1    0    0    0  501 -0.0000000000e+00 -0.0000000000e+00 -4.4125336235e+02 4.4125336235e+02 0.0000000000e+00 0.0000e+00 1.0000e+00
      -13  1    1    2    0    0 -3.0395978810e+02 -3.6462120195e+02 -2.6359127716e+02 5.4297378859e+02 0.0000000000e+00 0.0000e+00 1.0000e+00
       13  1    1    2    0    0 +3.0395978810e+02 +3.6462120195e+02 +1.4456692228e+03 1.5216108817e+03 0.0000000000e+00 0.0000e+00 -1.0000e+00
<mgrwt>
<rscale>  0 0.16926906E+04</rscale>
<asrwt>0</asrwt>
<pdfrwt beam="1">  1        2 0.24974327E+00 0.16926906E+04</pdfrwt>
<pdfrwt beam="2">  1       -2 0.67885134E-01 0.16926906E+04</pdfrwt>
<totfact> 0.26276537E+01</totfact>
</mgrwt>
<rwgt>
<wgt id='morphing_basis_vector_1'> +1.7689148e-04 </wgt>
<wgt id='morphing_basis_vector_2'> +1.1678019e-04 </wgt>
<wgt id='morphing_basis_vector_3'> +1.8608694e-04 </wgt>
<wgt id='morphing_basis_vector_4'> +1.2752099e-04 </wgt>
<wgt id='morphing_basis_vector_5'> +2.0319107e-04 </wgt>
</rwgt>
</event>
<event>
 4      1 +1.5130300e-07 1.62719700e+03 7.81860800e-03 8.24464800e-02
        2 -1    0    0  501    0 +0.0000000000e+00 +0.0000000000e+00 +1.0975130182e+03 1.0975130182e+03 0.0000000000e+00 0.0000e+00 -1.0000e+00
       -2 -1    0    0    0  501 -0.0000000000e+00 -0.0000000000e+00 -6.0312917359e+02 6.0312917359e+02 0.0000000000e+00 0.0000e+00 1.0000e+00
      -13  1    1    2    0    0 -4.9524795492e+02 +1.1270905922e+02 -4.1708101959e+02 6.5721415519e+02 0.0000000000e+00 0.0000e+00 1.0000e+00
       13  1    1    2    0    0 +4.9524795492e+02 -1.1270905922e+02 +9.1146486423e+02 1.0434280366e+03 0.0000000000e+00 0.0000e+00 -1.0000e+00
<mgrwt>
<rscale>  0 0.16271965E+04</rscale>
<asrwt>0</asrwt>
<pdfrwt beam="1">  1        2 0.16884816E+00 0.16271965E+04</pdfrwt>
<pdfrwt beam="2">  1       -2 0.92789104E-01 0.16271965E+04</pdfrwt>
<totfact> 0.26146328E+01</totfact>
</mgrwt>
<rwgt>
<wgt id='morphing_basis_vector_1'> +1.5179537e-04 </wgt>
<wgt id='morphing_basis_vector_2'> +1.0004174e-04 </wgt>
<wgt id='morphing_basis_vector_3'> +1.5903583e-04 </wgt>
<wgt id='morphing_basis_vector_4'> +1.0834120e-04 </wgt>
<wgt id='morphing_basis_vector_5'> +1.7270885e-04 </wgt>
</rwgt>
</event>
<event>
 4      1 +1.5130300e-07 1.83666100e+03 7.81860800e-03 8.14214000e-02
        2 -1    0    0  501    0 +0.0000000000e+00 +0.0000000000e+00 +1.7650687800e+03 1.7650687800e+03 0.0000000000e+00 0.0000e+00 1.0000e+00
       -2 -1    0    0    0  501 -0.0000000000e+00 -0.0000000000e+00 -4.7778940536e+02 4.7778940536e+02 0.0000000000e+00 0.0000e+00 -1.0000e+00
      -13  1    1    2    0    0 -8.0469116936e+02 -1.6893115366e+02 +1.4420811228e+02 8.3478236228e+02 0.0000000000e+00 0.0000e+00 -1.0000e+00
       13  1    1    2    0    0 +8.0469116936e+02 +1.6893115366e+02 +1.1430712624e+03 1.4080758231e+03 0.0000000000e+00 0.0000e+00 1.0000e+00
<mgrwt>
<rscale>  0 0.18366613E+04</rscale>
<asrwt>0</asrwt>
<pdfrwt beam="1">  1        2 0.27154904E+00 0.18366613E+04</pdfrwt>
<pdfrwt beam="2">  1       -2 0.73506063E-01 0.18366613E+04</pdfrwt>
<totfact> 0.18242153E+01</totfact>
</mgrwt>
<rwgt>
<wgt id='morphing_basis_vector_1'> +2.4447362e-04 </wgt>
<wgt id='morphing_basis_vector_2'> +1.6525820e-04 </wgt>
<wgt id='morphing_basis_vector_3'> +2.5964690e-04 </wgt>
<wgt id='morphing_basis_vector_4'> +1.7559364e-04 </wgt>
<wgt id='morphing_basis_vector_5'> +2.8385841e-04 </wgt>
</rwgt>
</event>
<event>
 4      1 +1.5130300e-07 1.68099600e+03 7.81860800e-03 8.21687100e-02
        2 -1    0    0  501    0 +0.0000000000e+00 +0.0000000000e+00 +1.5399957211e+03 1.5399957211e+03 0.0000000000e+00 0.0000e+00 1.0000e+00
       -2 -1    0    0    0  501 -0.0000000000e+00 -0.0000000000e+00 -4.5872664333e+02 4.5872664333e+02 0.0000000000e+00 0.0000e+00 -1.0000e+00
      -13  1    1    2    0    0 -5.9191709366e+02 -1.4767022882e+02 -1.4679946550e+02 6.2747304749e+02 0.0000000000e+00 0.0000e+00 -1.0000e+00
       13  1    1    2    0    0 +5.9191709366e+02 +1.4767022882e+02 +1.2280685433e+03 1.3712493169e+03 0.0000000000e+00 0.0000e+00 1.0000e+00
<mgrwt>
<rscale>  0 0.16809962E+04</rscale>
<asrwt>0</asrwt>
<pdfrwt beam="1">  1        2 0.23692242E+00 0.16809962E+04</pdfrwt>
<pdfrwt beam="2">  1       -2 0.70573330E-01 0.16809962E+04</pdfrwt>
<totfact> 0.26941570E+01</totfact>
</mgrwt>
<rwgt>
<wgt id='morphing_basis_vector_1'> +1.7236342e-04 </wgt>
<wgt id='morphing_basis_vector_2'> +1.1414643e-04 </wgt>
<wgt id='morphing_basis_vector_3'> +1.8125223e-04 </wgt>
<wgt id='morphing_basis_vector_4'> +1.2360137e-04 </wgt>
<wgt id='morphing_basis_vector_5'> +1.9745147e-04 </wgt>
</rwgt>
</event>
<event>
 4      1 +1.5130300e-07 1.78040200e+03 7.81860800e-03 8.16824300e-02
        2 -1    0    0  501    0 +0.0000000000e+00 +0.0000000000e+00 +2.5106204394e+03 2.5106204394e+03 0.0000000000e+00 0.0000e+00 1.0000e+00
       -2 -1    0    0    0  501 -0.0000000000e+00 -0.0000000000e+00 -3.1564217082e+02 3.1564217082e+02 0.0000000000e+00 0.0000e+00 -1.0000e+00
      -13  1    1    2    0    0 +7.9324298257e+02 +3.1602600626e+02 +6.9793963071e+02 1.1028266383e+03 0.0000000000e+00 0.0000e+00 1.0000e+00
       13  1    1    2    0    0 -7.9324298257e+02 -3.1602600626e+02 +1.4970386379e+03 1.7234359719e+03 0.0000000000e+00 0.0000e+00 -1.0000e+00
<mgrwt>
<rscale>  0 0.17804018E+04</rscale>
<asrwt>0</asrwt>
<pdfrwt beam="1">  1        2 0.38624929E+00 0.17804018E+04</pdfrwt>
<pdfrwt beam="2">  1       -2 0.48560336E-01 0.17804018E+04</pdfrwt>
<totfact> 0.16127334E+01</totfact>
</mgrwt>
<rwgt>
<wgt id='morphing_basis_vector_1'> +2.1790072e-04 </wgt>
<wgt id='morphing_basis_vector_2'> +1.5019095e-04 </wgt>
<wgt id='morphing_basis_vector_3'> +2.3124302e-04 </wgt>
<wgt id='morphing_basis_vector_4'> +1.5191794e-04 </wgt>
<wgt id='morphing_basis_vector_5'> +2.4966727e-04 </wgt>
</rwgt>
</event>
<event>
 4      1 +1.5130300e-07 1.79819000e+03 7.81860800e-03 8.15988400e-02
        2 -1    0    0  501    0 +0.0000000000e+00 +0.0000000000e+00 +6.0530770665e+02 6.0530770665e+02 0.0000000000e+00 0.0000e+00 1.0000e+00
       -2 -1    0    0    0  501 -0.0000000000e+00 -0.0000000000e+00 -1.3354727607e+03 1.3354727607e+03 0.0000000000e+00 0.0000e+00 -1.0000e+00
      -13  1    1    2    0    0 +3.6899172231e+02 -1.5623827429e+02 +5.0360483656e+02 6.4357060288e+02 0.0000000000e+00 0.0000e+00 1.0000e+00
       13  1    1    2    0    0 -3.6899172231e+02 +1.5623827429e+02 -1.2337698906e+03 1.2972098644e+03 0.0000000000e+00 0.0000e+00 -1.0000e+00
<mgrwt>
<rscale>  0 0.17981902E+04</rscale>
<asrwt>0</asrwt>
<pdfrwt beam="1">  1        2 0.93124264E-01 0.17981902E+04</pdfrwt>
<pdfrwt beam="2">  1       -2 0.20545734E+00 0.17981902E+04</pdfrwt>
<totfact> 0.60985651E+00</totfact>
</mgrwt>
<rwgt>
<wgt id='morphing_basis_vector_1'> +3.0425754e-04 </wgt>
<wgt id='morphing_basis_vector_2'> +3.8688583e-04 </wgt>
<wgt id='morphing_basis_vector_3'> +3.5025391e-04 </wgt>
<wgt id='morphing_basis_vector_4'> +6.5323528e-06 </wgt>
<wgt id='morphing_basis_vector_5'> +2.4830187e-04 </wgt>
</rwgt>
</event>
<event>
 4      1 +1.5130300e-07 1.78001800e+03 7.81860800e-03 8.16842500e-02
        2 -1    0    0  501    0 +0.0000000000e+00 +0.0000000000e+00 +1.3771275392e+03 1.3771275392e+03 0.0000000000e+00 0.0000e+00 1.0000e+00
       -2 -1    0    0    0  501 -0.0000000000e+00 -0.0000000000e+00 -5.7519457140e+02 5.7519457140e+02 0.0000000000e+00 0.0000e+00 -1.0000e+00
      -13  1    1    2    0    0 +2.2116533451e+02 -7.0651035135e+02 -1.4086250002e+02 7.5360017626e+02 0.0000000000e+00 0.0000e+00 -1.0000e+00
       13  1    1    2    0    0 -2.2116533451e+02 +7.0651035135e+02 +9.4279546785e+02 1.1987219344e+03 0.0000000000e+00 0.0000e+00 1.0000e+00
<mgrwt>
<rscale>  0 0.17800183E+04</rscale>
<asrwt>0</asrwt>
<pdfrwt beam="1">  1        2 0.21186578E+00 0.17800183E+04</pdfrwt>
<pdfrwt beam="2">  1       -2 0.88491472E-01 0.17800183E+04</pdfrwt>
<totfact> 0.19836911E+01</totfact>
</mgrwt>
<rwgt>
<wgt id='morphing_basis_vector_1'> +2.1579158e-04 </wgt>
<wgt id='morphing_basis_vector_2'> +1.4434657e-04 </wgt>
<wgt id='morphing_basis_vector_3'> +2.2833687e-04 </wgt>
<wgt id='morphing_basis_vector_4'> +1.5553458e-04 </wgt>
<wgt id='morphing_basis_vector_5'> +2.4973677e-04 </wgt>
</rwgt>
</event>
<event>
 4      1 +1.5130300e-07 1.84171300e+03 7.81860800e-03 8.13984400e-02
        2 -1    0    0  501    0 +0.0000000000e+00 +0.0000000000e+00 +4.7719100402e+02 4.7719100402e+02 0.0000000000e+00 0.0000e+00 1.0000e+00
       -2 -1    0    0    0  501 -0.0000000000e+00 -0.0000000000e+00 -1.7770174254e+03 1.7770174254e+03 0.0000000000e+00 0.0000e+00 -1.0000e+00
      -13  1    1    2    0    0 +2.0424516289e+02 +3.3914545240e+02 +3.6770964614e+02 5.4032037562e+02 0.0000000000e+00 0.0000e+00 1.0000e+00
       13  1    1    2    0    0 -2.0424516289e+02 -3.3914545240e+02 -1.6675360675e+03 1.7138880538e+03 0.0000000000e+00 0.0000e+00 -1.0000e+00
<mgrwt>
<rscale>  0 0.18417130E+04</rscale>
<asrwt>0</asrwt>
<pdfrwt beam="1">  1        2 0.73414001E-01 0.18417130E+04</pdfrwt>
<pdfrwt beam="2">  1       -2 0.27338730E+00 0.18417130E+04</pdfrwt>
<totfact> 0.26780176E+00</totfact>
</mgrwt>
<rwgt>
<wgt id='morphing_basis_vector_1'> +3.3439698e-04 </wgt>
<wgt id='morphing_basis_vector_2'> +4.2592376e-04 </wgt>
<wgt id='morphing_basis_vector_3'> +3.8657407e-04 </wgt>
<wgt id='morphing_basis_vector_4'> +6.4420294e-06 </wgt>
<wgt id='morphing_basis_vector_5'> +2.7374947e-04 </wgt>
</rwgt>
</event>
<event>
 4      1 +1.5130300e-07 1.61847700e+03 7.81860800e-03 8.24925400e-02
        2 -1    0    0  501    0 +0.0000000000e+00 +0.0000000000e+00 +5.3433441666e+02 5.3433441666e+02 0.0000000000e+00 0.0000e+00 -1.0000e+00
       -2 -1    0    0    0  501 -0.0000000000e+00 -0.0000000000e+00 -1.2255743575e+03 1.2255743575e+03 0.0000000000e+00 0.0000e+00 1.0000e+00
      -13  1    1    2    0    0 +2.6912013349e+02 -4.9534812243e+02 -9.7693269905e+02 1.1279152925e+03 0.0000000000e+00 0.0000e+00 1.0000e+00
       13  1    1    2    0    0 -2.6912013349e+02 +4.9534812243e+02 +2.8569275826e+02 6.3199348159e+02 0.0000000000e+00 0.0000e+00 -1.0000e+00
<mgrwt>
<rscale>  0 0.16184765E+04</rscale>
<asrwt>0</asrwt>
<pdfrwt beam="1">  1        2 0.82205295E-01 0.16184765E+04</pdfrwt>
<pdfrwt beam="2">  1       -2 0.18854990E+00 0.16184765E+04</pdfrwt>
<totfact> 0.95342234E+00</totfact>
</mgrwt>
<rwgt>
<wgt id='morphing_basis_vector_1'> +1.4873616e-04 </wgt>
<wgt id='morphing_basis_vector_2'> +9.8155497e-05 </wgt>
<wgt id='morphing_basis_vector_3'> +1.5576080e-04 </wgt>
<wgt id='morphing_basis_vector_4'> +1.0583339e-04 </wgt>
<wgt id='morphing_basis_vector_5'> +1.6891369e-04 </wgt>
</rwgt>
</event>
<event>
 4      1 +1.5130300e-07 1.67637500e+03 7.81860800e-03 8.21921500e-02
        2 -1    0    0  501    0 +0.0000000000e+00 +0.0000000000e+00 +1.0549244324e+03 1.0549244324e+03 0.0000000000e+00 0.0000e+00 -1.0000e+00
       -2 -1    0    0    0  501 -0.0000000000e+00 -0.0000000000e+00 -6.6597967659e+02 6.6597967659e+02 0.0000000000e+00 0.0000e+00 1.0000e+00
      -13  1    1    2    0    0 -4.3669951589e+02 +1.4413581034e+02 -5.2491058336e+02 6.9786296615e+02 0.0000000000e+00 0.0000e+00 1.0000e+00
       13  1    1    2    0    0 +4.3669951589e+02 -1.4413581034e+02 +9.1385533915e+02 1.0230411428e+03 0.0000000000e+00 0.0000e+00 -1.0000e+00
<mgrwt>
<rscale>  0 0.16763749E+04</rscale>
<asrwt>0</asrwt>
<pdfrwt beam="1">  1        2 0.16229607E+00 0.16763749E+04</pdfrwt>
<pdfrwt beam="2">  1       -2 0.10245841E+00 0.16763749E+04</pdfrwt>
<totfact> 0.21804669E+01</totfact>
</mgrwt>
<rwgt>
<wgt id='morphing_basis_vector_1'> +1.7034944e-04 </wgt>
<wgt id='morphing_basis_vector_2'> +1.1237766e-04 </wgt>
<wgt id='morphing_basis_vector_3'> +1.7902518e-04 </wgt>
<wgt id='morphing_basis_vector_4'> +1.2255587e-04 </wgt>
<wgt id='morphing_basis_vector_5'> +1.9525348e-04 </wgt>
</rwgt>
</event>
<event>
 4      1 +1.5130300e-07 1.67457600e+03 7.81860800e-03 8.22012900e-02
        2 -1    0    0  501    0 +0.0000000000e+00 +0.0000000000e+00 +2.4309066822e+03 2.4309066822e+03 0.0000000000e+00 0.0000e+00 1.0000e+00
       -2 -1    0    0    0  501 -0.0000000000e+00 -0.0000000000e+00 -2.8839074034e+02 2.8839074034e+02 0.0000000000e+00 0.0000e+00 -1.0000e+00
      -13  1    1    2    0    0 -7.7145435269e+02 -2.1149891963e+02 +1.4729075394e+03 1.6761056741e+03 0.0000000000e+00 0.0000e+00 -1.0000e+00
       13  1    1    2    0    0 +7.7145435269e+02 +2.1149891963e+02 +6.6960840246e+02 1.0431917484e+03 0.0000000000e+00 0.0000e+00 1.0000e+00
<mgrwt>
<rscale>  0 0.16745757E+04</rscale>
<asrwt>0</asrwt>
<pdfrwt beam="1">  1        2 0.37398563E+00 0.16745757E+04</pdfrwt>
<pdfrwt beam="2">  1       -2 0.44367808E-01 0.16745757E+04</pdfrwt>
<totfact> 0.21608000E+01</totfact>
</mgrwt>
<rwgt>
<wgt id='morphing_basis_vector_1'> +1.8650553e-04 </wgt>
<wgt id='morphing_basis_vector_2'> +1.6202731e-04 </wgt>
<wgt id='morphing_basis_vector_3'> +2.0144142e-04 </wgt>
<wgt id='morphing_basis_vector_4'> +8.9616408e-05 </wgt>
<wgt id='morphing_basis_vector_5'> +1.9191912e-04 </wgt>
</rwgt>
</event>
<event>
 4      1 +1.5130300e-07 1.59110300e+03 7.81860800e-03 8.26391000e-02
        2 -1    0    0  501    0 +0.0000000000e+00 +0.0000000000e+00 +4.9729229467e+02 4.9729229467e+02 0.0000000000e+00 0.0000e+00 -1.0000e+00
       -2 -1    0    0    0  501 -0.0000000000e+00 -0.0000000000e+00 -1.2726958601e+03 1.2726958601e+03 0.0000000000e+00 0.0000e+00 1.0000e+00
      -13  1    1    2    0    0 +2.1540018140e+02 +1.9312931861e+01 -1.2393686615e+03 1.2580957462e+03 0.0000000000e+00 0.0000e+00 1.0000e+00
       13  1    1    2    0    0 -2.1540018140e+02 -1.9312931861e+01 +4.6396509612e+02 5.1189240852e+02 0.0000000000e+00 0.0000e+00 -1.0000e+00
<mgrwt>
<rscale>  0 0.15911026E+04</rscale>
<asrwt>0</asrwt>
<pdfrwt beam="1">  1        2 0.76506508E-01 0.15911026E+04</pdfrwt>
<pdfrwt beam="2">  1       -2 0.19579936E+00 0.15911026E+04</pdfrwt>
<totfact> 0.91676267E+00</totfact>
</mgrwt>
<rwgt>
<wgt id='morphing_basis_vector_1'> +1.3907093e-04 </wgt>
<wgt id='morphing_basis_vector_2'> +9.1322410e-05 </wgt>
<wgt id='morphing_basis_vector_3'> +1.4531514e-04 </wgt>
<wgt id='morphing_basis_vector_4'> +9.8931943e-05 </wgt>
<wgt id='morphing_basis_vector_5'> +1.5745365e-04 </wgt>
</rwgt>
</event>
<event>
 4      1 +1.5130300e-07 1.81670300e+03 7.81860800e-03 8.15128800e-02
        2 -1    0    0  501    0 +0.0000000000e+00 +0.0000000000e+00 +1.1567289229e+03 1.1567289229e+03 0.0000000000e+00 0.0000e+00 -1.0000e+00
       -2 -1    0    0    0  501 -0.0000000000e+00 -0.0000000000e+00 -7.1330687985e+02 7.1330687985e+02 0.0000000000e+00 0.0000e+00 1.0000e+00
      -13  1    1    2    0    0 -1.4229285195e+02 -4.0698551074e+02 -6.0127128903e+02 7.3987270843e+02 0.0000000000e+00 0.0000e+00 1.0000e+00
       13  1    1    2    0    0 +1.4229285195e+02 +4.0698551074e+02 +1.0446933321e+03 1.1301630943e+03 0.0000000000e+00 0.0000e+00 -1.0000e+00
<mgrwt>
<rscale>  0 0.18167033E+04</rscale>
<asrwt>0</asrwt>
<pdfrwt beam="1">  1        2 0.17795830E+00 0.18167033E+04</pdfrwt>
<pdfrwt beam="2">  1       -2 0.10973952E+00 0.18167033E+04</pdfrwt>
<totfact> 0.15796378E+01</totfact>
</mgrwt>
<rwgt>
<wgt id='morphing_basis_vector_1'> +2.3293690e-04 </wgt>
<wgt id='morphing_basis_vector_2'> +1.5432296e-04 </wgt>
<wgt id='morphing_basis_vector_3'> +2.4668140e-04 </wgt>
<wgt id='morphing_basis_vector_4'> +1.7051228e-04 </wgt>
<wgt id='morphing_basis_vector_5'> +2.7163414e-04 </wgt>
</rwgt>
</event>
<event>
 4      1 +1.5130300e-07 1.75045700e+03 7.81860800e-03 8.18254300e-02
        2 -1    0    0  501    0 +0.0000000000e+00 +0.0000000000e+00 +1.2407914254e+03 1.2407914254e+03 0.0000000000e+00 0.0000e+00 1.0000e+00
       -2 -1    0    0    0  501 -0.0000000000e+00 -0.0000000000e+00 -6.1736827148e+02 6.1736827148e+02 0.0000000000e+00 0.0000e+00 -1.0000e+00
      -13  1    1    2    0    0 +5.7214692347e+02 +2.7478861375e+02 +9.5142153951e+02 1.1437061817e+03 0.0000000000e+00 0.0000e+00 1.0000e+00
       13  1    1    2    0    0 -5.7214692347e+02 -2.7478861375e+02 -3.2799838563e+02 7.1445351511e+02 0.0000000000e+00 0.0000e+00 -1.0000e+00
<mgrwt>
<rscale>  0 0.17504574E+04</rscale>
<asrwt>0</asrwt>
<pdfrwt beam="1">  1        2 0.19089099E+00 0.17504574E+04</pdfrwt>
<pdfrwt beam="2">  1       -2 0.94979734E-01 0.17504574E+04</pdfrwt>
<totfact> 0.20162890E+01</totfact>
</mgrwt>
<rwgt>
<wgt id='morphing_basis_vector_1'> +2.5831986e-04 </wgt>
<wgt id='morphing_basis_vector_2'> +3.0183530e-04 </wgt>
<wgt id='morphing_basis_vector_3'> +2.9204763e-04 </wgt>
<wgt id='morphing_basis_vector_4'> +3.6241656e-05 </wgt>
<wgt id='morphing_basis_vector_5'> +2.2475067e-04 </wgt>
</rwgt>
</event>
<event>
 4      1 +1.5130300e-07 1.65387100e+03 7.81860800e-03 8.23074000e-02
        2 -1    0    0  501    0 +0.0000000000e+00 +0.0000000000e+00 +8.2792896061e+02 8.2792896061e+02 0.0000000000e+00 0.0000e+00 -1.0000e+00
       -2 -1    0    0    0  501 -0.0000000000e+00 -0.0000000000e+00 -8.2594288445e+02 8.2594288445e+02 0.0000000000e+00 0.0000e+00 1.0000e+00
      -13  1    1    2    0    0 +3.7899226436e+02 -2.9066074904e+02 -6.7406539163e+02 8.2612526875e+02 0.0000000000e+00 0.0000e+00 1.0000e+00
       13  1    1    2    0    0 -3.7899226436e+02 +2.9066074904e+02 +6.7605146780e+02 8.2774657631e+02 0.0000000000e+00 0.0000e+00 -1.0000e+00
<mgrwt>
<rscale>  0 0.16538707E+04</rscale>
<asrwt>0</asrwt>
<pdfrwt beam="1">  1        2 0.12737369E+00 0.16538707E+04</pdfrwt>
<pdfrwt beam="2">  1       -2 0.12706814E+00 0.16538707E+04</pdfrwt>
<totfact> 0.17665916E+01</totfact>
</mgrwt>
<rwgt>
<wgt id='morphing_basis_vector_1'> +1.6165153e-04 </wgt>
<wgt id='morphing_basis_vector_2'> +1.0657991e-04 </wgt>
<wgt id='morphing_basis_vector_3'> +1.6964888e-04 </wgt>
<wgt id='morphing_basis_vector_4'> +1.1590124e-04 </wgt>
<wgt id='morphing_basis_vector_5'> +1.8468272e-04 </wgt>
</rwgt>
</event>
<event>
 4      1 +1.5130300e-07 1.60549500e+03 7.81860800e-03 8.25616700e-02
        2 -1    0    0  501    0 +0.0000000000e+00 +0.0000000000e+00 +9.4457505539e+02 9.4457505539e+02 0.0000000000e+00 0.0000e+00 -1.0000e+00
       -2 -1    0    0    0  501 -0.0000000000e+00 -0.0000000000e+00 -6.8221499178e+02 6.8221499178e+02 0.0000000000e+00 0.0000e+00 1.0000e+00
      -13  1    1    2    0    0 -5.2252714495e+02 +2.9876224140e+02 -4.0700511603e+02 7.2659937969e+02 0.0000000000e+00 0.0000e+00 1.0000e+00
       13  1    1    2    0    0 +5.2252714495e+02 -2.9876224140e+02 +6.6936517965e+02 9.0019066748e+02 0.0000000000e+00 0.0000e+00 -1.0000e+00
<mgrwt>
<rscale>  0 0.16054946E+04</rscale>
<asrwt>0</asrwt>
<pdfrwt beam="1">  1        2 0.14531924E+00 0.16054946E+04</pdfrwt>
<pdfrwt beam="2">  1       -2 0.10495615E+00 0.16054946E+04</pdfrwt>
<totfact> 0.24227342E+01</totfact>
</mgrwt>
<rwgt>
<wgt id='morphing_basis_vector_1'> +1.4424705e-04 </wgt>
<wgt id='morphing_basis_vector_2'> +9.5332800e-05 </wgt>
<wgt id='morphing_basis_vector_3'> +1.5094944e-04 </wgt>
<wgt id='morphing_basis_vector_4'> +1.0222115e-04 </wgt>
<wgt id='morphing_basis_vector_5'> +1.6338197e-04 </wgt>
</rwgt>
</event>
<event>
 4      1 +1.5130300e-07 1.84215900e+03 7.81860800e-03 8.13964100e-02
        2 -1    0    0  501    0 +0.0000000000e+00 +0.0000000000e+00 +1.2161230177e+03 1.2161230177e+03 0.0000000000e+00 0.0000e+00 1.0000e+00
       -2 -1    0    0    0  501 -0.0000000000e+00 -0.0000000000e+00 -6.9761655629e+02 6.9761655629e+02 0.0000000000e+00 0.0000e+00 -1.0000e+00
      -13  1    1    2    0    0 -5.8620774879e+02 +6.6036886205e+02 +5.3146740676e+02 1.0306231916e+03 0.0000000000e+00 0.0000e+00 1.0000e+00
       13  1    1    2    0    0 +5.8620774879e+02 -6.6036886205e+02 -1.2960945329e+01 8.8311638237e+02 0.0000000000e+00 0.0000e+00 -1.0000e+00
<mgrwt>
<rscale>  0 0.18421591E+04</rscale>
<asrwt>0</asrwt>
<pdfrwt beam="1">  1        2 0.18709585E+00 0.18421591E+04</pdfrwt>
<pdfrwt beam="2">  1       -2 0.10732562E+00 0.18421591E+04</pdfrwt>
<totfact> 0.15376447E+01</totfact>
</mgrwt>
<rwgt>
<wgt id='morphing_basis_vector_1'> +2.6962942e-04 </wgt>
<wgt id='morphing_basis_vector_2'> +2.3331507e-04 </wgt>
<wgt id='morphing_basis_vector_3'> +2.9444231e-04 </wgt>
<wgt id='morphing_basis_vector_4'> +1.3405868e-04 </wgt>
<wgt id='morphing_basis_vector_5'> +2.8395337e-04 </wgt>
</rwgt>
</event>
<event>
 4      1 +1.5130300e-07 1.69089300e+03 7.81860800e-03 8.21187700e-02
        2 -1    0    0  501    0 +0.0000000000e+00 +0.0000000000e+00 +9.7330236328e+02 9.7330236328e+02 0.0000000000e+00 0.0000e+00 -1.0000e+00
       -2 -1    0    0    0  501 -0.0000000000e+00 -0.0000000000e+00 -7.3438599338e+02 7.3438599338e+02 0.0000000000e+00 0.0000e+00 1.0000e+00
      -13  1    1    2    0    0 -9.1279731944e+01 +7.3923967955e+02 -2.8448006056e+02 7.9733067052e+02 0.0000000000e+00 0.0000e+00 1.0000e+00
       13  1    1    2    0    0 +9.1279731944e+01 -7.3923967955e+02 +5.2339643046e+02 9.1035768614e+02 0.0000000000e+00 0.0000e+00 -1.0000e+00
<mgrwt>
<rscale>  0 0.16908928E+04</rscale>
<asrwt>0</asrwt>
<pdfrwt beam="1">  1        2 0.14973882E+00 0.16908928E+04</pdfrwt>
<pdfrwt beam="2">  1       -2 0.11298246E+00 0.16908928E+04</pdfrwt>
<totfact> 0.19186891E+01</totfact>
</mgrwt>
<rwgt>
<wgt id='morphing_basis_vector_1'> +1.7699777e-04 </wgt>
<wgt id='morphing_basis_vector_2'> +1.1877386e-04 </wgt>
<wgt id='morphing_basis_vector_3'> +1.8645256e-04 </wgt>
<wgt id='morphing_basis_vector_4'> +1.2535640e-04 </wgt>
<wgt id='morphing_basis_vector_5'> +2.0218168e-04 </wgt>
</rwgt>
</event>
<event>
 4      1 +1.5130300e-07 1.68693100e+03 7.81860800e-03 8.21387200e-02
        2 -1    0    0  501    0 +0.0000000000e+00 +0.0000000000e+00 +4.1480305066e+02 4.1480305066e+02 0.0000000000e+00 0.0000e+00 -1.0000e+00
       -2 -1    0    0    0  501 -0.0000000000e+00 -0.0000000000e+00 -1.7151123789e+03 1.7151123789e+03 0.0000000000e+00 0.0000e+00 1.0000e+00
      -13  1    1    2    0    0 -7.3113829075e+01 -5.4514795022e+02 -1.4575285183e+03 1.5578579207e+03 0.0000000000e+00 0.0000e+00 1.0000e+00
       13  1    1    2    0    0 +7.3113829075e+01 +5.4514795022e+02 +1.5721919007e+02 5.7205750879e+02 0.0000000000e+00 0.0000e+00 -1.0000e+00
<mgrwt>
<rscale>  0 0.16869308E+04</rscale>
<asrwt>0</asrwt>
<pdfrwt beam="1">  1        2 0.63815853E-01 0.16869308E+04</pdfrwt>
<pdfrwt beam="2">  1       -2 0.26386345E+00 0.16869308E+04</pdfrwt>
<totfact> 0.36964225E+00</totfact>
</mgrwt>
<rwgt>
<wgt id='morphing_basis_vector_1'> +1.7463363e-04 </wgt>
<wgt id='morphing_basis_vector_2'> +1.1542832e-04 </wgt>
<wgt id='morphing_basis_vector_3'> +1.8367111e-04 </wgt>
<wgt id='morphing_basis_vector_4'> +1.2561094e-04 </wgt>
<wgt id='morphing_basis_vector_5'> +2.0035128e-04 </wgt>
</rwgt>
</event>
<event>
 4      1 +1.5130300e-07 1.78971700e+03 7.81860800e-03 8.16385300e-02
        2 -1    0    0  501    0 +0.0000000000e+00 +0.0000000000e+00 +1.9152469288e+03 1.9152469288e+03 0.0000000000e+00 0.0000e+00 -1.0000e+00
       -2 -1    0    0    0  501 -0.0000000000e+00 -0.0000000000e+00 -4.1810355265e+02 4.1810355265e+02 0.0000000000e+00 0.0000e+00 1.0000e+00
      -13  1    1    2    0    0 -6.5295341286e+01 -4.5628153357e+02 -2.5142994491e+02 5.2504603290e+02 0.0000000000e+00 0.0000e+00 1.0000e+00
       13  1    1    2    0    0 +6.5295341286e+01 +4.5628153357e+02 +1.7485733210e+03 1.8083044485e+03 0.0000000000e+00 0.0000e+00 -1.0000e+00
<mgrwt>
<rscale>  0 0.17897168E+04</rscale>
<asrwt>0</asrwt>
<pdfrwt beam="1">  1        2 0.29465337E+00 0.17897168E+04</pdfrwt>
<pdfrwt beam="2">  1       -2 0.64323624E-01 0.17897168E+04</pdfrwt>
<totfact> 0.20077525E+01</totfact>
</mgrwt>
<rwgt>
<wgt id='morphing_basis_vector_1'> +2.1974308e-04 </wgt>
<wgt id='morphing_basis_vector_2'> +1.4549693e-04 </wgt>
<wgt id='morphing_basis_vector_3'> +2.3240155e-04 </wgt>
<wgt id='morphing_basis_vector_4'> +1.6034128e-04 </wgt>
<wgt id='morphing_basis_vector_5'> +2.5546626e-04 </wgt>
</rwgt>
</event>
<event>
 4      1 +1.5130300e-07 1.76706400e+03 7.81860800e-03 8.17457700e-02
        2 -1    0    0  501    0 +0.0000000000e+00 +0.0000000000e+00 +9.2077960662e+02 9.2077960662e+02 0.0000000000e+00 0.0000e+00 1.0000e+00
       -2 -1    0    0    0  501 -0.0000000000e+00 -0.0000000000e+00 -8.4779101640e+02 8.4779101640e+02 0.0000000000e+00 0.0000e+00 -1.0000e+00
      -13  1    1    2    0    0 -3.0285676898e+02 -2.0027909795e+02 -7.6967048344e+02 8.5101503669e+02 0.0000000000e+00 0.0000e+00 -1.0000e+00
       13  1    1    2    0    0 +3.0285676898e+02 +2.0027909795e+02 +8.4265907366e+02 9.1755558633e+02 0.0000000000e+00 0.0000e+00 1.0000e+00
<mgrwt>
<rscale>  0 0.17670639E+04</rscale>
<asrwt>0</asrwt>
<pdfrwt beam="1">  1        2 0.14165840E+00 0.17670639E+04</pdfrwt>
<pdfrwt beam="2">  1       -2 0.13042939E+00 0.17670639E+04</pdfrwt>
<totfact> 0.14164390E+01</totfact>
</mgrwt>
<rwgt>
<wgt id='morphing_basis_vector_1'> +2.0906572e-04 </wgt>
<wgt id='morphing_basis_vector_2'> +1.3825138e-04 </wgt>
<wgt id='morphing_basis_vector_3'> +2.2083787e-04 </wgt>
<wgt id='morphing_basis_vector_4'> +1.5224673e-04 </wgt>
<wgt id='morphing_basis_vector_5'> +2.4246366e-04 </wgt>
</rwgt>
</event>
<event>
 4      1 +1.5130300e-07 1.66058200e+03 7.81860800e-03 8.22728400e-02
        2 -1    0    0  501    0 +0.0000000000e+00 +0.0000000000e+00 +1.5777450840e+03 1.5777450840e+03 0.0000000000e+00 0.0000e+00 -1.0000e+00
       -2 -1    0    0    0  501 -0.0000000000e+00 -0.0000000000e+00 -4.3694190434e+02 4.3694190434e+02 0.0000000000e+00 0.0000e+00 1.0000e+00
      -13  1    1    2    0    0 +6.8077032425e+01 -6.7813101952e+02 -4.9446540816e+00 6.8155748956e+02 0.0000000000e+00 0.0000e+00 1.0000e+00
       13  1    1    2    0    0 -6.8077032425e+01 +6.7813101952e+02 +1.1457478338e+03 1.3331294988e+03 0.0000000000e+00 0.0000e+00 -1.0000e+00
<mgrwt>
<rscale>  0 0.16605818E+04</rscale>
<asrwt>0</asrwt>
<pdfrwt beam="1">  1        2 0.24273001E+00 0.16605818E+04</pdfrwt>
<pdfrwt beam="2">  1       -2 0.67221832E-01 0.16605818E+04</pdfrwt>
<totfact> 0.28522455E+01</totfact>
</mgrwt>
<rwgt>
<wgt id='morphing_basis_vector_1'> +1.6463643e-04 </wgt>
<wgt id='morphing_basis_vector_2'> +1.0955441e-04 </wgt>
<wgt id='morphing_basis_vector_3'> +1.7299063e-04 </wgt>
<wgt id='morphing_basis_vector_4'> +1.1703799e-04 </wgt>
<wgt id='morphing_basis_vector_5'> +1.8772703e-04 </wgt>
</rwgt>
</event>
<event>
 4      1 +1.5130300e-07 1.84853700e+03 7.81860800e-03 8.13675400e-02
        2 -1    0    0  501    0 +0.0000000000e+00 +0.0000000000e+00 +1.8346875295e+03 1.8346875295e+03 0.0000000000e+00 0.0000e+00 -1.0000e+00
       -2 -1    0    0    0  501 -0.0000000000e+00 -0.0000000000e+00 -4.6562254102e+02 4.6562254102e+02 0.0000000000e+00 0.0000e+00 1.0000e+00
      -13  1    1    2    0    0 +6.5071835631e+02 -3.3629545091e+02 -1.6916718857e+01 7.3267672607e+02 0.0000000000e+00 0.0000e+00 1.0000e+00
       13  1    1    2    0    0 -6.5071835631e+02 +3.3629545091e+02 +1.3859817073e+03 1.5676333444e+03 0.0000000000e+00 0.0000e+00 -1.0000e+00
<mgrwt>
<rscale>  0 0.18485366E+04</rscale>
<asrwt>0</asrwt>
<pdfrwt beam="1">  1        2 0.28225962E+00 0.18485366E+04</pdfrwt>
<pdfrwt beam="2">  1       -2 0.71634238E-01 0.18485366E+04</pdfrwt>
<totfact> 0.17627102E+01</totfact>
</mgrwt>
<rwgt>
<wgt id='morphing_basis_vector_1'> +2.4983052e-04 </wgt>
<wgt id='morphing_basis_vector_2'> +1.6693530e-04 </wgt>
<wgt id='morphing_basis_vector_3'> +2.6517210e-04 </wgt>
<wgt id='morphing_basis_vector_4'> +1.8200105e-04 </wgt>
<wgt id='morphing_basis_vector_5'> +2.9158365e-04 </wgt>
</rwgt>
</event>
<event>
 4      1 +1.5130300e-07 1.65693200e+03 7.81860800e-03 8.22916200e-02
        2 -1    0    0  501    0 +0.0000000000e+00 +0.0000000000e+00 +1.9537439165e+03 1.9537439165e+03 0.0000000000e+00 0.0000e+00 -1.0000e+00
       -2 -1    0    0    0  501 -0.0000000000e+00 -0.0000000000e+00 -3.5130290351e+02 3.5130290351e+02 0.0000000000e+00 0.0000e+00 1.0000e+00
      -13  1    1    2    0    0 +4.0072639892e+01 +6.4095826263e+02 +7.3123913425e+01 6.4635935641e+02 0.0000000000e+00 0.0000e+00 1.0000e+00
       13  1    1    2    0    0 -4.0072639892e+01 -6.4095826263e+02 +1.5293170996e+03 1.6586874636e+03 0.0000000000e+00 0.0000e+00 -1.0000e+00
<mgrwt>
<rscale>  0 0.16569320E+04</rscale>
<asrwt>0</asrwt>
<pdfrwt beam="1">  1        2 0.30057598E+00 0.16569320E+04</pdfrwt>
<pdfrwt beam="2">  1       -2 0.54046602E-01 0.16569320E+04</pdfrwt>
<totfact> 0.27586551E+01</totfact>
</mgrwt>
<rwgt>
<wgt id='morphing_basis_vector_1'> +1.6308261e-04 </wgt>
<wgt id='morphing_basis_vector_2'> +1.0815203e-04 </wgt>
<wgt id='morphing_basis_vector_3'> +1.7126915e-04 </wgt>
<wgt id='morphing_basis_vector_4'> +1.1627659e-04 </wgt>
<wgt id='morphing_basis_vector_5'> +1.8605598e-04 </wgt>
</rwgt>
</event>
<event>
 4      1 +1.5130300e-07 1.79351600e+03 7.81860800e-03 8.16207100e-02
        2 -1    0    0  501    0 +0.0000000000e+00 +0.0000000000e+00 +3.1461014759e+03 3.1461014759e+03 0.0000000000e+00 0.0000e+00 1.0000e+00
       -2 -1    0    0    0  501 -0.0000000000e+00 -0.0000000000e+00 -2.5560984220e+02 2.5560984220e+02 0.0000000000e+00 0.0000e+00 -1.0000e+00
      -13  1    1    2    0    0 -2.3052471320e+01 -8.9102285949e+02 +1.2582397988e+03 1.5419534830e+03 0.0000000000e+00 0.0000e+00 -1.0000e+00
       13  1    1    2    0    0 +2.3052471320e+01 +8.9102285949e+02 +1.6322518349e+03 1.8597578351e+03 0.0000000000e+00 0.0000e+00 1.0000e+00
<mgrwt>
<rscale>  0 0.17935155E+04</rscale>
<asrwt>0</asrwt>
<pdfrwt beam="1">  1        2 0.48401558E+00 0.17935155E+04</pdfrwt>
<pdfrwt beam="2">  1       -2 0.39324593E-01 0.17935155E+04</pdfrwt>
<totfact> 0.95930595E+00</totfact>
</mgrwt>
<rwgt>
<wgt id='morphing_basis_vector_1'> +2.2690337e-04 </wgt>
<wgt id='morphing_basis_vector_2'> +1.6255557e-04 </wgt>
<wgt id='morphing_basis_vector_3'> +2.4189499e-04 </wgt>
<wgt id='morphing_basis_vector_4'> +1.5133415e-04 </wgt>
<wgt id='morphing_basis_vector_5'> +2.5689138e-04 </wgt>
</rwgt>
</event>
<event>
 4      1 +1.5130300e-07 1.60955900e+03 7.81860800e-03 8.25399500e-02
        2 -1    0    0  501    0 +0.0000000000e+00 +0.0000000000e+00 +5.7971460081e+02 5.7971460081e+02 0.0000000000e+00 0.0000e+00 -1.0000e+00
       -2 -1    0    0    0  501 -0.0000000000e+00 -0.0000000000e+00 -1.1172225806e+03 1.1172225806e+03 0.0000000000e+00 0.0000e+00 1.0000e+00
      -13  1    1    2    0    0 +3.9210447688e+01 +4.0420798264e+02 -1.0012737593e+03 1.0804955777e+03 0.0000000000e+00 0.0000e+00 1.0000e+00
       13  1    1    2    0    0 -3.9210447688e+01 -4.0420798264e+02 +4.6376577954e+02 6.1644160365e+02 0.0000000000e+00 0.0000e+00 -1.0000e+00
<mgrwt>
<rscale>  0 0.16095592E+04</rscale>
<asrwt>0</asrwt>
<pdfrwt beam="1">  1        2 0.89186862E-01 0.16095592E+04</pdfrwt>
<pdfrwt beam="2">  1       -2 0.17188040E+00 0.16095592E+04</pdfrwt>
<totfact> 0.11621196E+01</totfact>
</mgrwt>
<rwgt>
<wgt id='morphing_basis_vector_1'> +1.4545690e-04 </wgt>
<wgt id='morphing_basis_vector_2'> +9.5661078e-05 </wgt>
<wgt id='morphing_basis_vector_3'> +1.5219425e-04 </wgt>
<wgt id='morphing_basis_vector_4'> +1.0369308e-04 </wgt>
<wgt id='morphing_basis_vector_5'> +1.6512578e-04 </wgt>
</rwgt>
</event>
<event>
 4      1 +1.5130300e-07 1.84015400e+03 7.81860800e-03 8.14055200e-02
        2 -1    0    0  501    0 +0.0000000000e+00 +0.0000000000e+00 +1.4915862209e+03 1.4915862209e+03 0.0000000000e+00 0.0000e+00 1.0000e+00
       -2 -1    0    0    0  501 -0.0000000000e+00 -0.0000000000e+00 -5.6754465660e+02 5.6754465660e+02 0.0000000000e+00 0.0000e+00 -1.0000e+00
      -13  1    1    2    0    0 +3.2418531755e+02 -1.2543115833e+01 -5.0141625740e+02 5.9721998715e+02 0.0000000000e+00 0.0000e+00 -1.0000e+00
       13  1    1    2    0    0 -3.2418531755e+02 +1.2543115833e+01 +1.4254578217e+03 1.4619108904e+03 0.0000000000e+00 0.0000e+00 1.0000e+00
<mgrwt>
<rscale>  0 0.18401541E+04</rscale>
<asrwt>0</asrwt>
<pdfrwt beam="1">  1        2 0.22947480E+00 0.18401541E+04</pdfrwt>
<pdfrwt beam="2">  1       -2 0.87314563E-01 0.18401541E+04</pdfrwt>
<totfact> 0.17551650E+01</totfact>
</mgrwt>
<rwgt>
<wgt id='morphing_basis_vector_1'> +2.4486723e-04 </wgt>
<wgt id='morphing_basis_vector_2'> +1.6227398e-04 </wgt>
<wgt id='morphing_basis_vector_3'> +2.5959690e-04 </wgt>
<wgt id='morphing_basis_vector_4'> +1.7976117e-04 </wgt>
<wgt id='morphing_basis_vector_5'> +2.8629351e-04 </wgt>
</rwgt>
</event>
<event>
 4      1 +1.5130300e-07 1.61280000e+03 7.81860800e-03 8.25226900e-02
        2 -1    0    0  501    0 +0.0000000000e+00 +0.0000000000e+00 +9.6651620034e+02 9.6651620034e+02 0.0000000000e+00 0.0000e+00 1.0000e+00
       -2 -1    0    0    0  501 -0.0000000000e+00 -0.0000000000e+00 -6.7280912807e+02 6.7280912807e+02 0.0000000000e+00 0.0000e+00 -1.0000e+00
      -13  1    1    2    0    0 +6.2300178548e+02 -3.8238868828e+02 +4.9293626039e+02 8.8166801600e+02 0.0000000000e+00 0.0000e+00 1.0000e+00
       13  1    1    2    0    0 -6.2300178548e+02 +3.8238868828e+02 -1.9922918812e+02 7.5765731240e+02 0.0000000000e+00 0.0000e+00 -1.0000e+00
<mgrwt>
<rscale>  0 0.16128000E+04</rscale>
<asrwt>0</asrwt>
<pdfrwt beam="1">  1        2 0.14869480E+00 0.16128000E+04</pdfrwt>
<pdfrwt beam="2">  1       -2 0.10350910E+00 0.16128000E+04</pdfrwt>
<totfact> 0.24260772E+01</totfact>
</mgrwt>
<rwgt>
<wgt id='morphing_basis_vector_1'> +1.6814108e-04 </wgt>
<wgt id='morphing_basis_vector_2'> +1.6051948e-04 </wgt>
<wgt id='morphing_basis_vector_3'> +1.8258499e-04 </wgt>
<wgt id='morphing_basis_vector_4'> +6.3545342e-05 </wgt>
<wgt id='morphing_basis_vector_5'> +1.6339900e-04 </wgt>
</rwgt>
</event>
<event>
 4      1 +1.5130300e-07 1.75760100e+03 7.81860800e-03 8.17910600e-02
        2 -1    0    0  501    0 +0.0000000000e+00 +0.0000000000e+00 +1.0447666605e+03 1.0447666605e+03 0.0000000000e+00 0.0000e+00 1.0000e+00
       -2 -1    0    0    0  501 -0.0000000000e+00 -0.0000000000e+00 -7.3919866975e+02 7.3919866975e+02 0.0000000000e+00 0.0000e+00 -1.0000e+00
      -13  1    1    2    0    0 +4.1383452400e+02 +5.6397663279e+02 -3.8713651399e+02 7.9950192998e+02 0.0000000000e+00 0.0000e+00 -1.0000e+00
       13  1    1    2    0    0 -4.1383452400e+02 -5.6397663279e+02 +6.9270450471e+02 9.8446340025e+02 0.0000000000e+00 0.0000e+00 1.0000e+00
<mgrwt>
<rscale>  0 0.17576008E+04</rscale>
<asrwt>0</asrwt>
<pdfrwt beam="1">  1        2 0.16073333E+00 0.17576008E+04</pdfrwt>
<pdfrwt beam="2">  1       -2 0.11372287E+00 0.17576008E+04</pdfrwt>
<totfact> 0.16942502E+01</totfact>
</mgrwt>
<rwgt>
<wgt id='morphing_basis_vector_1'> +2.0521685e-04 </wgt>
<wgt id='morphing_basis_vector_2'> +1.3677088e-04 </wgt>
<wgt id='morphing_basis_vector_3'> +2.1682783e-04 </wgt>
<wgt id='morphing_basis_vector_4'> +1.4799891e-04 </wgt>
<wgt id='morphing_basis_vector_5'> +2.3710643e-04 </wgt>
</rwgt>
</event>
<event>
 4      1 +1.5130300e-07 1.59840200e+03 7.81860800e-03 8.25997200e-02
        2 -1    0    0  501    0 +0.0000000000e+00 +0.0000000000e+00 +1.8689777278e+03 1.8689777278e+03 0.0000000000e+00 0.0000e+00 -1.0000e+00
       -2 -1    0    0    0  501 -0.0000000000e+00 -0.0000000000e+00 -3.4174954008e+02 3.4174954008e+02 0.0000000000e+00 0.0000e+00 1.0000e+00
      -13  1    1    2    0    0 +5.3205902689e+02 -5.7239366569e+02 +5.3217558725e+02 9.4547986350e+02 0.0000000000e+00 0.0000e+00 1.0000e+00
       13  1    1    2    0    0 -5.3205902689e+02 +5.7239366569e+02 +9.9505260048e+02 1.2652474044e+03 0.0000000000e+00 0.0000e+00 -1.0000e+00
<mgrwt>
<rscale>  0 0.15984021E+04</rscale>
<asrwt>0</asrwt>
<pdfrwt beam="1">  1        2 0.28753503E+00 0.15984021E+04</pdfrwt>
<pdfrwt beam="2">  1       -2 0.52576854E-01 0.15984021E+04</pdfrwt>
<totfact> 0.32667983E+01</totfact>
</mgrwt>
<rwgt>
<wgt id='morphing_basis_vector_1'> +1.4389156e-04 </wgt>
<wgt id='morphing_basis_vector_2'> +9.9926576e-05 </wgt>
<wgt id='morphing_basis_vector_3'> +1.5113694e-04 </wgt>
<wgt id='morphing_basis_vector_4'> +9.6387409e-05 </wgt>
<wgt id='morphing_basis_vector_5'> +1.6012285e-04 </wgt>
</rwgt>
</event>
<event>
 4      1 +1.5130300e-07 1.78125800e+03 7.81860800e-03 8.16783900e-02
        2 -1    0    0  501    0 +0.0000000000e+00 +0.0000000000e+00 +1.6086214194e+03 1.6086214194e+03 0.0000000000e+00 0.0000e+00 -1.0000e+00
       -2 -1    0    0    0  501 -0.0000000000e+00 -0.0000000000e+00 -4.9310573061e+02 4.9310573061e+02 0.0000000000e+00 0.0000e+00 1.0000e+00
      -13  1    1    2    0    0 -1.3791040883e+02 -7.5826249481e+02 +3.1090090555e+01 7.7132864956e+02 0.0000000000e+00 0.0000e+00 1.0000e+00
       13  1    1    2    0    0 +1.3791040883e+02 +7.5826249481e+02 +1.0844255982e+03 1.3303985004e+03 0.0000000000e+00 0.0000e+00 -1.0000e+00
<mgrwt>
<rscale>  0 0.17812585E+04</rscale>
<asrwt>0</asrwt>
<pdfrwt beam="1">  1        2 0.24748021E+00 0.17812585E+04</pdfrwt>
<pdfrwt beam="2">  1       -2 0.75862421E-01 0.17812585E+04</pdfrwt>
<totfact> 0.20894322E+01</totfact>
</mgrwt>
<rwgt>
<wgt id='morphing_basis_vector_1'> +2.1662247e-04 </wgt>
<wgt id='morphing_basis_vector_2'> +1.4546936e-04 </wgt>
<wgt id='morphing_basis_vector_3'> +2.2931582e-04 </wgt>
<wgt id='morphing_basis_vector_4'> +1.5550369e-04 </wgt>
<wgt id='morphing_basis_vector_5'> +2.5041454e-04 </wgt>
</rwgt>
</event>
<event>
 4      1 +1.5130300e-07 1.56312900e+03 7.81860800e-03 8.27920300e-02
        2 -1    0    0  501    0 +0.0000000000e+00 +0.0000000000e+00 +1.3887813550e+03 1.3887813550e+03 0.0000000000e+00 0.0000e+00 1.0000e+00
       -2 -1    0    0    0  501 -0.0000000000e+00 -0.0000000000e+00 -4.3984111486e+02 4.3984111486e+02 0.0000000000e+00 0.0000e+00 -1.0000e+00
      -13  1    1    2    0    0 -2.7132322010e+02 +1.8808292841e+02 -3.5426718608e+02 4.8424861059e+02 0.0000000000e+00 0.0000e+00 -1.0000e+00
       13  1    1    2    0    0 +2.7132322010e+02 -1.8808292841e+02 +1.3032074262e+03 1.3443738592e+03 0.0000000000e+00 0.0000e+00 1.0000e+00
<mgrwt>
<rscale>  0 0.15631291E+04</rscale>
<asrwt>0</asrwt>
<pdfrwt beam="1">  1        2 0.21365867E+00 0.15631291E+04</pdfrwt>
<pdfrwt beam="2">  1       -2 0.67667864E-01 0.15631291E+04</pdfrwt>
<totfact> 0.36192151E+01</totfact>
</mgrwt>
<rwgt>
<wgt id='morphing_basis_vector_1'> +1.2985174e-04 </wgt>
<wgt id='morphing_basis_vector_2'> +8.5184924e-05 </wgt>
<wgt id='morphing_basis_vector_3'> +1.3540709e-04 </wgt>
<wgt id='morphing_basis_vector_4'> +9.1930075e-05 </wgt>
<wgt id='morphing_basis_vector_5'> +1.4632662e-04 </wgt>
</rwgt>
</event>
<event>
 4      1 +1.5130300e-07 1.81100900e+03 7.81860800e-03 8.15392000e-02
        2 -1    0    0  501    0 +0.0000000000e+00 +0.0000000000e+00 +1.9233160487e+03 1.9233160487e+03 0.0000000000e+00 0.0000e+00 -1.0000e+00
       -2 -1    0    0    0  501 -0.0000000000e+00 -0.0000000000e+00 -4.2631490108e+02 4.2631490108e+02 0.0000000000e+00 0.0000e+00 1.0000e+00
      -13  1    1    2    0    0 +1.4128982196e+02 +3.2273637003e+02 -3.3374670423e+02 4.8529211915e+02 0.0000000000e+00 0.0000e+00 1.0000e+00
       13  1    1    2    0    0 -1.4128982196e+02 -3.2273637003e+02 +1.8307478518e+03 1.8643388306e+03 0.0000000000e+00 0.0000e+00 -1.0000e+00
<mgrwt>
<rscale>  0 0.18110089E+04</rscale>
<asrwt>0</asrwt>
<pdfrwt beam="1">  1        2 0.29589477E+00 0.18110089E+04</pdfrwt>
<pdfrwt beam="2">  1       -2 0.65586909E-01 0.18110089E+04</pdfrwt>
<totfact> 0.19041737E+01</totfact>
</mgrwt>
<rwgt>
<wgt id='morphing_basis_vector_1'> +2.3007855e-04 </wgt>
<wgt id='morphing_basis_vector_2'> +1.5235147e-04 </wgt>
<wgt id='morphing_basis_vector_3'> +2.4357845e-04 </wgt>
<wgt id='morphing_basis_vector_4'> +1.6837758e-04 </wgt>
<wgt id='morphing_basis_vector_5'> +2.6816486e-04 </wgt>
</rwgt>
</event>
<event>
 4      1 +1.5130300e-07 1.56565700e+03 7.81860800e-03 8.27780700e-02
        2 -1    0    0  501    0 +0.0000000000e+00 +0.0000000000e+00 +8.9295901572e+02 8.9295901572e+02 0.0000000000e+00 0.0000e+00 -1.0000e+00
       -2 -1    0    0    0  501 -0.0000000000e+00 -0.0000000000e+00 -6.8628104322e+02 6.8628104322e+02 0.0000000000e+00 0.0000e+00 1.0000e+00
      -13  1    1    2    0    0 -1.3144682923e+02 +7.7019710926e+02 +5.4556327463e+01 7.8323575562e+02 0.0000000000e+00 0.0000e+00 1.0000e+00
       13  1    1    2    0    0 +1.3144682923e+02 -7.7019710926e+02 +1.5212164504e+02 7.9600430332e+02 0.0000000000e+00 0.0000e+00 -1.0000e+00
<mgrwt>
<rscale>  0 0.15656575E+04</rscale>
<asrwt>0</asrwt>
<pdfrwt beam="1">  1        2 0.13737831E+00 0.15656575E+04</pdfrwt>
<pdfrwt beam="2">  1       -2 0.10558170E+00 0.15656575E+04</pdfrwt>
<totfact> 0.25872418E+01</totfact>
</mgrwt>
<rwgt>
<wgt id='morphing_basis_vector_1'> +1.3444804e-04 </wgt>
<wgt id='morphing_basis_vector_2'> +9.6988473e-05 </wgt>
<wgt id='morphing_basis_vector_3'> +1.4133536e-04 </wgt>
<wgt id='morphing_basis_vector_4'> +8.5403153e-05 </wgt>
<wgt id='morphing_basis_vector_5'> +1.4677121e-04 </wgt>
</rwgt>
</event>
<event>
 4      1 +1.5130300e-07 1.59622600e+03 7.81860800e-03 8.26114400e-02
        2 -1    0    0  501    0 +0.0000000000e+00 +0.0000000000e+00 +6.9664061717e+02 6.9664061717e+02 0.0000000000e+00 0.0000e+00 -1.0000e+00
       -2 -1    0    0    0  501 -0.0000000000e+00 -0.0000000000e+00 -9.1436525713e+02 9.1436525713e+02 0.0000000000e+00 0.0000e+00 1.0000e+00
      -13  1    1    2    0    0 +3.6191085896e+02 +7.1127301161e+02 -9.9014399230e+01 8.0417200780e+02 0.0000000000e+00 0.0000e+00 1.0000e+00
       13  1    1    2    0    0 -3.6191085896e+02 -7.1127301161e+02 -1.1871024073e+02 8.0683386650e+02 0.0000000000e+00 0.0000e+00 -1.0000e+00
<mgrwt>
<rscale>  0 0.15962255E+04</rscale>
<asrwt>0</asrwt>
<pdfrwt beam="1">  1        2 0.10717548E+00 0.15962255E+04</pdfrwt>
<pdfrwt beam="2">  1       -2 0.14067158E+00 0.15962255E+04</pdfrwt>
<totfact> 0.16745599E+01</totfact>
</mgrwt>
<rwgt>
<wgt id='morphing_basis_vector_1'> +1.4616879e-04 </wgt>
<wgt id='morphing_basis_vector_2'> +1.0842297e-04 </wgt>
<wgt id='morphing_basis_vector_3'> +1.5440666e-04 </wgt>
<wgt id='morphing_basis_vector_4'> +9.0085993e-05 </wgt>
<wgt id='morphing_basis_vector_5'> +1.5879008e-04 </wgt>
</rwgt>
</event>
<event>
 4      1 +1.5130300e-07 1.67873300e+03 7.81860800e-03 8.21801800e-02
        2 -1    0    0  501    0 +0.0000000000e+00 +0.0000000000e+00 +1.5768785051e+03 1.5768785051e+03 0.0000000000e+00 0.0000e+00 1.0000e+00
       -2 -1    0    0    0  501 -0.0000000000e+00 -0.0000000000e+00 -4.4679167624e+02 4.4679167624e+02 0.0000000000e+00 0.0000e+00 -1.0000e+00
      -13  1    1    2    0    0 +2.6870953466e+02 +6.8078347404e+01 +1.5201085935e+03 1.5451762396e+03 0.0000000000e+00 0.0000e+00 1.0000e+00
       13  1    1    2    0    0 -2.6870953466e+02 -6.8078347404e+01 -3.9002176464e+02 4.7849394175e+02 0.0000000000e+00 0.0000e+00 -1.0000e+00
<mgrwt>
<rscale>  0 0.16787331E+04</rscale>
<asrwt>0</asrwt>
<pdfrwt beam="1">  1        2 0.24259669E+00 0.16787331E+04</pdfrwt>
<pdfrwt beam="2">  1       -2 0.68737182E-01 0.16787331E+04</pdfrwt>
<totfact> 0.27191066E+01</totfact>
</mgrwt>
<rwgt>
<wgt id='morphing_basis_vector_1'> +2.3401588e-04 </wgt>
<wgt id='morphing_basis_vector_2'> +2.9944007e-04 </wgt>
<wgt id='morphing_basis_vector_3'> +2.6634196e-04 </wgt>
<wgt id='morphing_basis_vector_4'> +2.6812831e-06 </wgt>
<wgt id='morphing_basis_vector_5'> +1.8717610e-04 </wgt>
</rwgt>
</event>
<event>
 4      1 +1.5130300e-07 1.78832700e+03 7.81860800e-03 8.16450700e-02
        2 -1    0    0  501    0 +0.0000000000e+00 +0.0000000000e+00 +5.2508230707e+02 5.2508230707e+02 0.0000000000e+00 0.0000e+00 1.0000e+00
       -2 -1    0    0    0  501 -0.0000000000e+00 -0.0000000000e+00 -1.5226730866e+03 1.5226730866e+03 0.0000000000e+00 0.0000e+00 -1.0000e+00
      -13  1    1    2    0    0 -4.4402507466e+02 -7.1695292449e+02 -8.3915005854e+02 1.1896859180e+03 0.0000000000e+00 0.0000e+00 -1.0000e+00
       13  1    1    2    0    0 +4.4402507466e+02 +7.1695292449e+02 -1.5844072095e+02 8.5806947557e+02 0.0000000000e+00 0.0000e+00 1.0000e+00
<mgrwt>
<rscale>  0 0.17883274E+04</rscale>
<asrwt>0</asrwt>
<pdfrwt beam="1">  1        2 0.80781895E-01 0.17883274E+04</pdfrwt>
<pdfrwt beam="2">  1       -2 0.23425739E+00 0.17883274E+04</pdfrwt>
<totfact> 0.44942097E+00</totfact>
</mgrwt>
<rwgt>
<wgt id='morphing_basis_vector_1'> +2.2119307e-04 </wgt>
<wgt id='morphing_basis_vector_2'> +1.5132522e-04 </wgt>
<wgt id='morphing_basis_vector_3'> +2.3465891e-04 </wgt>
<wgt id='morphing_basis_vector_4'> +1.5571047e-04 </wgt>
<wgt id='morphing_basis_vector_5'> +2.5433484e-04 </wgt>
</rwgt>
</event>
<event>
 4      1 +1.5130300e-07 1.64229800e+03 7.81860800e-03 8.23674100e-02
        2 -1    0    0  501    0 +0.0000000000e+00 +0.0000000000e+00 +2.2583424092e+03 2.2583424092e+03 0.0000000000e+00 0.0000e+00 -1.0000e+00
       -2 -1    0    0    0  501 -0.0000000000e+00 -0.0000000000e+00 -2.9857536708e+02 2.9857536708e+02 0.0000000000e+00 0.0000e+00 1.0000e+00
      -13  1    1    2    0    0 +7.9211081637e+02 +2.1634539764e+02 +9.6997080704e+02 1.2708612210e+03 0.0000000000e+00 0.0000e+00 1.0000e+00
       13  1    1    2    0    0 -7.9211081637e+02 -2.1634539764e+02 +9.8979623513e+02 1.2860565554e+03 0.0000000000e+00 0.0000e+00 -1.0000e+00
<mgrwt>
<rscale>  0 0.16422977E+04</rscale>
<asrwt>0</asrwt>
<pdfrwt beam="1">  1        2 0.34743728E+00 0.16422977E+04</pdfrwt>
<pdfrwt beam="2">  1       -2 0.45934673E-01 0.16422977E+04</pdfrwt>
<totfact> 0.25543518E+01</totfact>
</mgrwt>
<rwgt>
<wgt id='morphing_basis_vector_1'> +1.6280978e-04 </wgt>
<wgt id='morphing_basis_vector_2'> +1.2003614e-04 </wgt>
<wgt id='morphing_basis_vector_3'> +1.7247174e-04 </wgt>
<wgt id='morphing_basis_vector_4'> +1.0207297e-04 </wgt>
<wgt id='morphing_basis_vector_5'> +1.7861638e-04 </wgt>
</rwgt>
</event>
<event>
 4      1 +1.5130300e-07 1.72418500e+03 7.81860800e-03 8.19533200e-02
        2 -1    0    0  501    0 +0.0000000000e+00 +0.0000000000e+00 +7.3244748510e+02 7.3244748510e+02 0.0000000000e+00 0.0000e+00 -1.0000e+00
       -2 -1    0    0    0  501 -0.0000000000e+00 -0.0000000000e+00 -1.0146846571e+03 1.0146846571e+03 0.0000000000e+00 0.0000e+00 1.0000e+00
      -13  1    1    2    0    0 +1.3042436548e+02 +4.2652592051e+02 -8.8868280235e+02 9.9432992470e+02 0.0000000000e+00 0.0000e+00 1.0000e+00
       13  1    1    2    0    0 -1.3042436548e+02 -4.2652592051e+02 +6.0644563039e+02 7.5280221745e+02 0.0000000000e+00 0.0000e+00 -1.0000e+00
<mgrwt>
<rscale>  0 0.17241847E+04</rscale>
<asrwt>0</asrwt>
<pdfrwt beam="1">  1        2 0.11268423E+00 0.17241847E+04</pdfrwt>
<pdfrwt beam="2">  1       -2 0.15610533E+00 0.17241847E+04</pdfrwt>
<totfact> 0.11583657E+01</totfact>
</mgrwt>
<rwgt>
<wgt id='morphing_basis_vector_1'> +1.9002126e-04 </wgt>
<wgt id='morphing_basis_vector_2'> +1.2554207e-04 </wgt>
<wgt id='morphing_basis_vector_3'> +2.0025985e-04 </wgt>
<wgt id='morphing_basis_vector_4'> +1.3759304e-04 </wgt>
<wgt id='morphing_basis_vector_5'> +2.1919329e-04 </wgt>
</rwgt>
</event>
<event>
 4      1 +1.5130300e-07 1.78506900e+03 7.81860800e-03 8.16604000e-02
        2 -1    0    0  501    0 +0.0000000000e+00 +0.0000000000e+00 +1.5223100088e+03 1.5223100088e+03 0.0000000000e+00 0.0000e+00 1.0000e+00
       -2 -1    0    0    0  501 -0.0000000000e+00 -0.0000000000e+00 -5.2329563241e+02 5.2329563241e+02 0.0000000000e+00 0.0000e+00 -1.0000e+00
      -13  1    1    2    0    0 +8.6566995977e+02 -4.7811878621e+01 +7.4245929108e+02 1.1414535706e+03 0.0000000000e+00 0.0000e+00 -1.0000e+00
       13  1    1    2    0    0 -8.6566995977e+02 +4.7811878621e+01 +2.5655508533e+02 9.0415207061e+02 0.0000000000e+00 0.0000e+00 1.0000e+00
<mgrwt>
<rscale>  0 0.17850694E+04</rscale>
<asrwt>0</asrwt>
<pdfrwt beam="1">  1        2 0.23420154E+00 0.17850694E+04</pdfrwt>
<pdfrwt beam="2">  1       -2 0.80507021E-01 0.17850694E+04</pdfrwt>
<totfact> 0.20422011E+01</totfact>
</mgrwt>
<rwgt>
<wgt id='morphing_basis_vector_1'> +2.3547813e-04 </wgt>
<wgt id='morphing_basis_vector_2'> +1.9728157e-04 </wgt>
<wgt id='morphing_basis_vector_3'> +2.5525761e-04 </wgt>
<wgt id='morphing_basis_vector_4'> +1.2366523e-04 </wgt>
<wgt id='morphing_basis_vector_5'> +2.5005005e-04 </wgt>
</rwgt>
</event>
<event>
 4      1 +1.5130300e-07 1.80045300e+03 7.81860800e-03 8.15882700e-02
        2 -1    0    0  501    0 +0.0000000000e+00 +0.0000000000e+00 +1.1927204767e+03 1.1927204767e+03 0.0000000000e+00 0.0000e+00 -1.0000e+00
       -2 -1    0    0    0  501 -0.0000000000e+00 -0.0000000000e+00 -6.7946163547e+02 6.7946163547e+02 0.0000000000e+00 0.0000e+00 1.0000e+00
      -13  1    1    2    0    0 -1.8906365873e+01 +2.2527830330e+02 -6.4946404772e+02 6.8768547599e+02 0.0000000000e+00 0.0000e+00 1.0000e+00
       13  1    1    2    0    0 +1.8906365873e+01 -2.2527830330e+02 +1.1627228890e+03 1.1844966362e+03 0.0000000000e+00 0.0000e+00 -1.0000e+00
<mgrwt>
<rscale>  0 0.18004531E+04</rscale>
<asrwt>0</asrwt>
<pdfrwt beam="1">  1        2 0.18349546E+00 0.18004531E+04</pdfrwt>
<pdfrwt beam="2">  1       -2 0.10453256E+00 0.18004531E+04</pdfrwt>
<totfact> 0.16997600E+01</totfact>
</mgrwt>
<rwgt>
<wgt id='morphing_basis_vector_1'> +2.2487780e-04 </wgt>
<wgt id='morphing_basis_vector_2'> +1.4882888e-04 </wgt>
<wgt id='morphing_basis_vector_3'> +2.3794313e-04 </wgt>
<wgt id='morphing_basis_vector_4'> +1.6441917e-04 </wgt>
<wgt id='morphing_basis_vector_5'> +2.6181691e-04 </wgt>
</rwgt>
</event>
<event>
 4      1 +1.5130300e-07 1.69336700e+03 7.81860800e-03 8.21063500e-02
        2 -1    0    0  501    0 +0.0000000000e+00 +0.0000000000e+00 +2.7328076467e+03 2.7328076467e+03 0.0000000000e+00 0.0000e+00 1.0000e+00
       -2 -1    0    0    0  501 -0.0000000000e+00 -0.0000000000e+00 -2.6232094284e+02 2.6232094284e+02 0.0000000000e+00 0.0000e+00 -1.0000e+00
      -13  1    1    2    0    0 +6.5126582221e+02 -9.5190889120e+01 +2.9320902482e+02 7.2054146917e+02 0.0000000000e+00 0.0000e+00 -1.0000e+00
       13  1    1    2    0    0 -6.5126582221e+02 +9.5190889120e+01 +2.1772776790e+03 2.2745871203e+03 0.0000000000e+00 0.0000e+00 1.0000e+00
<mgrwt>
<rscale>  0 0.16933667E+04</rscale>
<asrwt>0</asrwt>
<pdfrwt beam="1">  1        2 0.42043192E+00 0.16933667E+04</pdfrwt>
<pdfrwt beam="2">  1       -2 0.40357070E-01 0.16933667E+04</pdfrwt>
<totfact> 0.16979583E+01</totfact>
</mgrwt>
<rwgt>
<wgt id='morphing_basis_vector_1'> +1.7747224e-04 </wgt>
<wgt id='morphing_basis_vector_2'> +1.1787352e-04 </wgt>
<wgt id='morphing_basis_vector_3'> +1.8680590e-04 </wgt>
<wgt id='morphing_basis_vector_4'> +1.2714121e-04 </wgt>
<wgt id='morphing_basis_vector_5'> +2.0348000e-04 </wgt>
</rwgt>
</event>
<event>
 4      1 +1.5130300e-07 1.78385100e+03 7.81860800e-03 8.16661500e-02
        2 -1    0    0  501    0 +0.0000000000e+00 +0.0000000000e+00 +2.2402619952e+03 2.2402619952e+03 0.0000000000e+00 0.0000e+00 -1.0000e+00
       -2 -1    0    0    0  501 -0.0000000000e+00 -0.0000000000e+00 -3.5510613923e+02 3.5510613923e+02 0.0000000000e+00 0.0000e+00 1.0000e+00
      -13  1    1    2    0    0 +1.2126997368e+02 +7.7539727221e+02 +3.2602035871e+02 8.4984505091e+02 0.0000000000e+00 0.0000e+00 1.0000e+00
       13  1    1    2    0    0 -1.2126997368e+02 -7.7539727221e+02 +1.5591354973e+03 1.7455230835e+03 0.0000000000e+00 0.0000e+00 -1.0000e+00
<mgrwt>
<rscale>  0 0.17838507E+04</rscale>
<asrwt>0</asrwt>
<pdfrwt beam="1">  1        2 0.34465569E+00 0.17838507E+04</pdfrwt>
<pdfrwt beam="2">  1       -2 0.54631715E-01 0.17838507E+04</pdfrwt>
<totfact> 0.18376605E+01</totfact>
</mgrwt>
<rwgt>
<wgt id='morphing_basis_vector_1'> +2.1799275e-04 </wgt>
<wgt id='morphing_basis_vector_2'> +1.4671979e-04 </wgt>
<wgt id='morphing_basis_vector_3'> +2.3084594e-04 </wgt>
<wgt id='morphing_basis_vector_4'> +1.5616316e-04 </wgt>
<wgt id='morphing_basis_vector_5'> +2.5189183e-04 </wgt>
</rwgt>
</event>
<event>
 4      1 +1.5130300e-07 1.67253300e+03 7.81860800e-03 8.22116900e-02
        2 -1    0    0  501    0 +0.0000000000e+00 +0.0000000000e+00 +1.0410169805e+03 1.0410169805e+03 0.0000000000e+00 0.0000e+00 -1.0000e+00
       -2 -1    0    0    0  501 -0.0000000000e+00 -0.0000000000e+00 -6.7178713209e+02 6.7178713209e+02 0.0000000000e+00 0.0000e+00 1.0000e+00
      -13  1    1    2    0    0 +1.3015422272e+02 +2.1621840177e+02 -6.3185919243e+02 6.8039441357e+02 0.0000000000e+00 0.0000e+00 1.0000e+00
       13  1    1    2    0    0 -1.3015422272e+02 -2.1621840177e+02 +1.0010890409e+03 1.0324096991e+03 0.0000000000e+00 0.0000e+00 -1.0000e+00
<mgrwt>
<rscale>  0 0.16725332E+04</rscale>
<asrwt>0</asrwt>
<pdfrwt beam="1">  1        2 0.16015646E+00 0.16725332E+04</pdfrwt>
<pdfrwt beam="2">  1       -2 0.10335187E+00 0.16725332E+04</pdfrwt>
<totfact> 0.21776029E+01</totfact>
</mgrwt>
<rwgt>
<wgt id='morphing_basis_vector_1'> +1.6878702e-04 </wgt>
<wgt id='morphing_basis_vector_2'> +1.1121374e-04 </wgt>
<wgt id='morphing_basis_vector_3'> +1.7732474e-04 </wgt>
<wgt id='morphing_basis_vector_4'> +1.2150216e-04 </wgt>
<wgt id='morphing_basis_vector_5'> +1.9342567e-04 </wgt>
</rwgt>
</event>
<event>
 4      1 +1.5130300e-07 1.68244600e+03 7.81860800e-03 8.21613700e-02
        2 -1    0    0  501    0 +0.0000000000e+00 +0.0000000000e+00 +2.5478342229e+03 2.5478342229e+03 0.0000000000e+00 0.0000e+00 -1.0000e+00
       -2 -1    0    0    0  501 -0.0000000000e+00 -0.0000000000e+00 -2.7774803894e+02 2.7774803894e+02 0.0000000000e+00 0.0000e+00 1.0000e+00
      -13  1    1    2    0    0 +5.7737247335e+02 -5.5906774039e+02 +1.5523456619e+03 1.7480539938e+03 0.0000000000e+00 0.0000e+00 1.0000e+00
       13  1    1    2    0    0 -5.7737247335e+02 +5.5906774039e+02 +7.1774052205e+02 1.0775282680e+03 0.0000000000e+00 0.0000e+00 -1.0000e+00
<mgrwt>
<rscale>  0 0.16824458E+04</rscale>
<asrwt>0</asrwt>
<pdfrwt beam="1">  1        2 0.39197448E+00 0.16824458E+04</pdfrwt>
<pdfrwt beam="2">  1       -2 0.42730469E-01 0.16824458E+04</pdfrwt>
<totfact> 0.19769299E+01</totfact>
</mgrwt>
<rwgt>
<wgt id='morphing_basis_vector_1'> +1.8993488e-04 </wgt>
<wgt id='morphing_basis_vector_2'> +1.6503450e-04 </wgt>
<wgt id='morphing_basis_vector_3'> +2.0527608e-04 </wgt>
<wgt id='morphing_basis_vector_4'> +9.1359460e-05 </wgt>
<wgt id='morphing_basis_vector_5'> +1.9565568e-04 </wgt>
</rwgt>
</event>
<event>
 4      1 +1.5130300e-07 1.76305200e+03 7.81860800e-03 8.17649300e-02
        2 -1    0    0  501    0 +0.0000000000e+00 +0.0000000000e+00 +1.9559149018e+03 1.9559149018e+03 0.0000000000e+00 0.0000e+00 1.0000e+00
       -2 -1    0    0    0  501 -0.0000000000e+00 -0.0000000000e+00 -3.9730158745e+02 3.9730158745e+02 0.0000000000e+00 0.0000e+00 -1.0000e+00
      -13  1    1    2    0    0 +2.2360602777e+02 -3.9588958782e+02 -2.2871819968e+02 5.0895995546e+02 0.0000000000e+00 0.0000e+00 -1.0000e+00
       13  1    1    2    0    0 -2.2360602777e+02 +3.9588958782e+02 +1.7873315140e+03 1.8442565337e+03 0.0000000000e+00 0.0000e+00 1.0000e+00
<mgrwt>
<rscale>  0 0.17630520E+04</rscale>
<asrwt>0</asrwt>
<pdfrwt beam="1">  1        2 0.30090998E+00 0.17630520E+04</pdfrwt>
<pdfrwt beam="2">  1       -2 0.61123322E-01 0.17630520E+04</pdfrwt>
<totfact> 0.21227526E+01</totfact>
</mgrwt>
<rwgt>
<wgt id='morphing_basis_vector_1'> +2.0725415e-04 </wgt>
<wgt id='morphing_basis_vector_2'> +1.3710897e-04 </wgt>
<wgt id='morphing_basis_vector_3'> +2.1888871e-04 </wgt>
<wgt id='morphing_basis_vector_4'> +1.5077221e-04 </wgt>
<wgt id='morphing_basis_vector_5'> +2.4020757e-04 </wgt>
</rwgt>
</event>
<event>
 4      1 +1.5130300e-07 1.58801500e+03 7.81860800e-03 8.26558200e-02
        2 -1    0    0  501    0 +0.0000000000e+00 +0.0000000000e+00 +6.4193298900e+02 6.4193298900e+02 0.0000000000e+00 0.0000e+00 -1.0000e+00
       -2 -1    0    0    0  501 -0.0000000000e+00 -0.0000000000e+00 -9.8210825191e+02 9.8210825191e+02 0.0000000000e+00 0.0000e+00 1.0000e+00
      -13  1    1    2    0    0 -6.1568785629e+02 +9.7459473046e+01 -6.7305584064e+02 9.1737345170e+02 0.0000000000e+00 0.0000e+00 1.0000e+00
       13  1    1    2    0    0 +6.1568785629e+02 -9.7459473046e+01 +3.3288057773e+02 7.0666778920e+02 0.0000000000e+00 0.0000e+00 -1.0000e+00
<mgrwt>
<rscale>  0 0.15880147E+04</rscale>
<asrwt>0</asrwt>
<pdfrwt beam="1">  1        2 0.98758922E-01 0.15880147E+04</pdfrwt>
<pdfrwt beam="2">  1       -2 0.15109358E+00 0.15880147E+04</pdfrwt>
<totfact> 0.15125178E+01</totfact>
</mgrwt>
<rwgt>
<wgt id='morphing_basis_vector_1'> +1.3833237e-04 </wgt>
<wgt id='morphing_basis_vector_2'> +9.1530064e-05 </wgt>
<wgt id='morphing_basis_vector_3'> +1.4460261e-04 </wgt>
<wgt id='morphing_basis_vector_4'> +9.7566244e-05 </wgt>
<wgt id='morphing_basis_vector_5'> +1.5615229e-04 </wgt>
</rwgt>
</event>
<event>
 4      1 +1.5130300e-07 1.61638100e+03 7.81860800e-03 8.25036500e-02
        2 -1    0    0  501    0 +0.0000000000e+00 +0.0000000000e+00 +2.5862174581e+03 2.5862174581e+03 0.0000000000e+00 0.0000e+00 -1.0000e+00
       -2 -1    0    0    0  501 -0.0000000000e+00 -0.0000000000e+00 -2.5255876200e+02 2.5255876200e+02 0.0000000000e+00 0.0000e+00 1.0000e+00
      -13  1    1    2    0    0 -4.2042621638e+02 +6.2670187557e+02 +6.5885440319e+02 1.0017996650e+03 0.0000000000e+00 0.0000e+00 1.0000e+00
       13  1    1    2    0    0 +4.2042621638e+02 -6.2670187557e+02 +1.6748042929e+03 1.8369765551e+03 0.0000000000e+00 0.0000e+00 -1.0000e+00
<mgrwt>
<rscale>  0 0.16163810E+04</rscale>
<asrwt>0</asrwt>
<pdfrwt beam="1">  1        2 0.39787959E+00 0.16163810E+04</pdfrwt>
<pdfrwt beam="2">  1       -2 0.38855196E-01 0.16163810E+04</pdfrwt>
<totfact> 0.22544582E+01</totfact>
</mgrwt>
<rwgt>
<wgt id='morphing_basis_vector_1'> +1.4913328e-04 </wgt>
<wgt id='morphing_basis_vector_2'> +1.0105362e-04 </wgt>
<wgt id='morphing_basis_vector_3'> +1.5650597e-04 </wgt>
<wgt id='morphing_basis_vector_4'> +1.0309411e-04 </wgt>
<wgt id='morphing_basis_vector_5'> +1.6784874e-04 </wgt>
</rwgt>
</event>
<event>
 4      1 +1.5130300e-07 1.62051000e+03 7.81860800e-03 8.24817700e-02
        2 -1    0    0  501    0 +0.0000000000e+00 +0.0000000000e+00 +6.0156680819e+02 6.0156680819e+02 0.0000000000e+00 0.0000e+00 -1.0000e+00
       -2 -1    0    0    0  501 -0.0000000000e+00 -0.0000000000e+00 -1.0913383739e+03 1.0913383739e+03 0.0000000000e+00 0.0000e+00 1.0000e+00
      -13  1    1    2    0    0 -3.0701467131e+02 -2.8357782283e+02 -9.7004231828e+02 1.0562464150e+03 0.0000000000e+00 0.0000e+00 1.0000e+00
       13  1    1    2    0    0 +3.0701467131e+02 +2.8357782283e+02 +4.8027075252e+02 6.3665876710e+02 0.0000000000e+00 0.0000e+00 -1.0000e+00
<mgrwt>
<rscale>  0 0.16205097E+04</rscale>
<asrwt>0</asrwt>
<pdfrwt beam="1">  1        2 0.92548740E-01 0.16205097E+04</pdfrwt>
<pdfrwt beam="2">  1       -2 0.16789821E+00 0.16205097E+04</pdfrwt>
<totfact> 0.11940193E+01</totfact>
</mgrwt>
<rwgt>
<wgt id='morphing_basis_vector_1'> +1.4933519e-04 </wgt>
<wgt id='morphing_basis_vector_2'> +9.8265533e-05 </wgt>
<wgt id='morphing_basis_vector_3'> +1.5637061e-04 </wgt>
<wgt id='morphing_basis_vector_4'> +1.0662397e-04 </wgt>
<wgt id='morphing_basis_vector_5'> +1.6980888e-04 </wgt>
</rwgt>
</event>
<event>
 4      1 +1.5130300e-07 1.65891900e+03 7.81860800e-03 8.22813900e-02
        2 -1    0    0  501    0 +0.0000000000e+00 +0.0000000000e+00 +4.0261875850e+02 4.0261875850e+02 0.0000000000e+00 0.0000e+00 1.0000e+00
       -2 -1    0    0    0  501 -0.0000000000e+00 -0.0000000000e+00 -1.7088200688e+03 1.7088200688e+03 0.0000000000e+00 0.0000e+00 -1.0000e+00
      -13  1    1    2    0    0 -7.5820519789e+02 +3.3594389073e+02 -6.7399886465e+02 1.0686476919e+03 0.0000000000e+00 0.0000e+00 -1.0000e+00
       13  1    1    2    0    0 +7.5820519789e+02 -3.3594389073e+02 -6.3220244566e+02 1.0427911354e+03 0.0000000000e+00 0.0000e+00 1.0000e+00
<mgrwt>
<rscale>  0 0.16589189E+04</rscale>
<asrwt>0</asrwt>
<pdfrwt beam="1">  1        2 0.61941347E-01 0.16589189E+04</pdfrwt>
<pdfrwt beam="2">  1       -2 0.26289540E+00 0.16589189E+04</pdfrwt>
<totfact> 0.38912841E+00</totfact>
</mgrwt>
<rwgt>
<wgt id='morphing_basis_vector_1'> +1.6905489e-04 </wgt>
<wgt id='morphing_basis_vector_2'> +1.2415761e-04 </wgt>
<wgt id='morphing_basis_vector_3'> +1.7922675e-04 </wgt>
<wgt id='morphing_basis_vector_4'> +1.0686201e-04 </wgt>
<wgt id='morphing_basis_vector_5'> +1.8621567e-04 </wgt>
</rwgt>
</event>
<event>
 4      1 +1.5130300e-07 1.58581100e+03 7.81860800e-03 8.26677800e-02
        2 -1    0    0  501    0 +0.0000000000e+00 +0.0000000000e+00 +1.7546632274e+03 1.7546632274e+03 0.0000000000e+00 0.0000e+00 -1.0000e+00
       -2 -1    0    0    0  501 -0.0000000000e+00 -0.0000000000e+00 -3.5830170449e+02 3.5830170449e+02 0.0000000000e+00 0.0000e+00 1.0000e+00
      -13  1    1    2    0    0 +2.8186758905e+02 +1.7275607799e+02 -2.6209056044e+02 4.2188323279e+02 0.0000000000e+00 0.0000e+00 1.0000e+00
       13  1    1    2    0    0 -2.8186758905e+02 -1.7275607799e+02 +1.6584520833e+03 1.6910816991e+03 0.0000000000e+00 0.0000e+00 -1.0000e+00
<mgrwt>
<rscale>  0 0.15858106E+04</rscale>
<asrwt>0</asrwt>
<pdfrwt beam="1">  1        2 0.26994818E+00 0.15858106E+04</pdfrwt>
<pdfrwt beam="2">  1       -2 0.55123340E-01 0.15858106E+04</pdfrwt>
<totfact> 0.34444965E+01</totfact>
</mgrwt>
<rwgt>
<wgt id='morphing_basis_vector_1'> +1.3729842e-04 </wgt>
<wgt id='morphing_basis_vector_2'> +9.0161721e-05 </wgt>
<wgt id='morphing_basis_vector_3'> +1.4341168e-04 </wgt>
<wgt id='morphing_basis_vector_4'> +9.7561923e-05 </wgt>
<wgt id='morphing_basis_vector_5'> +1.5530088e-04 </wgt>
</rwgt>
</event>
<event>
 4      1 +1.5130300e-07 1.57388600e+03 7.81860800e-03 8.27328400e-02
        2 -1    0    0  501    0 +0.0000000000e+00 +0.0000000000e+00 +4.8366632900e+02 4.8366632900e+02 0.0000000000e+00 0.0000e+00 -1.0000e+00
       -2 -1    0    0    0  501 -0.0000000000e+00 -0.0000000000e+00 -1.2803851181e+03 1.2803851181e+03 0.0000000000e+00 0.0000e+00 1.0000e+00
      -13  1    1    2    0    0 -3.1283254088e+02 +1.7689475739e+02 -1.1830359054e+03 1.2364181765e+03 0.0000000000e+00 0.0000e+00 1.0000e+00
       13  1    1    2    0    0 +3.1283254088e+02 -1.7689475739e+02 +3.8631711632e+02 5.2763327054e+02 0.0000000000e+00 0.0000e+00 -1.0000e+00
<mgrwt>
<rscale>  0 0.15738859E+04</rscale>
<asrwt>0</asrwt>
<pdfrwt beam="1">  1        2 0.74410206E-01 0.15738859E+04</pdfrwt>
<pdfrwt beam="2">  1       -2 0.19698232E+00 0.15738859E+04</pdfrwt>
<totfact> 0.92885799E+00</totfact>
</mgrwt>
<rwgt>
<wgt id='morphing_basis_vector_1'> +1.3334983e-04 </wgt>
<wgt id='morphing_basis_vector_2'> +8.7535677e-05 </wgt>
<wgt id='morphing_basis_vector_3'> +1.3916792e-04 </wgt>
<wgt id='morphing_basis_vector_4'> +9.4559155e-05 </wgt>
<wgt id='morphing_basis_vector_5'> +1.5053247e-04 </wgt>
</rwgt>
</event>
<event>
 4      1 +1.5130300e-07 1.79839200e+03 7.81860800e-03 8.15978900e-02
        2 -1    0    0  501    0 +0.0000000000e+00 +0.0000000000e+00 +1.2805015293e+03 1.2805015293e+03 0.0000000000e+00 0.0000e+00 -1.0000e+00
       -2 -1    0    0    0  501 -0.0000000000e+00 -0.0000000000e+00 -6.3143504357e+02 6.3143504357e+02 0.0000000000e+00 0.0000e+00 1.0000e+00
      -13  1    1    2    0    0 -5.7187218046e+02 +5.7230412060e+02 -9.2649685432e+01 8.1434253324e+02 0.0000000000e+00 0.0000e+00 1.0000e+00
       13  1    1    2    0    0 +5.7187218046e+02 -5.7230412060e+02 +7.4171617111e+02 1.0975940396e+03 0.0000000000e+00 0.0000e+00 -1.0000e+00
<mgrwt>
<rscale>  0 0.17983921E+04</rscale>
<asrwt>0</asrwt>
<pdfrwt beam="1">  1        2 0.19700023E+00 0.17983921E+04</pdfrwt>
<pdfrwt beam="2">  1       -2 0.97143853E-01 0.17983921E+04</pdfrwt>
<totfact> 0.18057914E+01</totfact>
</mgrwt>
<rwgt>
<wgt id='morphing_basis_vector_1'> +2.2524570e-04 </wgt>
<wgt id='morphing_basis_vector_2'> +1.5222175e-04 </wgt>
<wgt id='morphing_basis_vector_3'> +2.3879061e-04 </wgt>
<wgt id='morphing_basis_vector_4'> +1.6097555e-04 </wgt>
<wgt id='morphing_basis_vector_5'> +2.6038310e-04 </wgt>
</rwgt>
</event>
<event>
 4      1 +1.5130300e-07 1.59010600e+03 7.81860800e-03 8.26444900e-02
        2 -1    0    0  501    0 +0.0000000000e+00 +0.0000000000e+00 +1.0781343794e+03 1.0781343794e+03 0.0000000000e+00 0.0000e+00 1.0000e+00
       -2 -1    0    0    0  501 -0.0000000000e+00 -0.0000000000e+00 -5.8629914535e+02 5.8629914535e+02 0.0000000000e+00 0.0000e+00 -1.0000e+00
      -13  1    1    2    0    0 +4.0983138272e+02 -2.8608641582e+02 -4.0129012430e+02 6.4096876947e+02 0.0000000000e+00 0.0000e+00 -1.0000e+00
       13  1    1    2    0    0 -4.0983138272e+02 +2.8608641582e+02 +8.9312535839e+02 1.0234647553e+03 0.0000000000e+00 0.0000e+00 1.0000e+00
<mgrwt>
<rscale>  0 0.15901060E+04</rscale>
<asrwt>0</asrwt>
<pdfrwt beam="1">  1        2 0.16586683E+00 0.15901060E+04</pdfrwt>
<pdfrwt beam="2">  1       -2 0.90199869E-01 0.15901060E+04</pdfrwt>
<totfact> 0.28790222E+01</totfact>
</mgrwt>
<rwgt>
<wgt id='morphing_basis_vector_1'> +1.3881921e-04 </wgt>
<wgt id='morphing_basis_vector_2'> +9.1351175e-05 </wgt>
<wgt id='morphing_basis_vector_3'> +1.4506745e-04 </wgt>
<wgt id='morphing_basis_vector_4'> +9.8514688e-05 </wgt>
<wgt id='morphing_basis_vector_5'> +1.5703463e-04 </wgt>
</rwgt>
</event>
<event>
 4      1 +1.5130300e-07 1.57834900e+03 7.81860800e-03 8.27084200e-02
        2 -1    0    0  501    0 +0.0000000000e+00 +0.0000000000e+00 +1.1269028104e+03 1.1269028104e+03 0.0000000000e+00 0.0000e+00 1.0000e+00
       -2 -1    0    0    0  501 -0.0000000000e+00 -0.0000000000e+00 -5.5266227701e+02 5.5266227701e+02 0.0000000000e+00 0.0000e+00 -1.0000e+00
      -13  1    1    2    0    0 +4.5278765741e+02 -6.2264531657e+02 +4.7171748228e+02 9.0289602726e+02 0.0000000000e+00 0.0000e+00 -1.0000e+00
       13  1    1    2    0    0 -4.5278765741e+02 +6.2264531657e+02 +1.0252305110e+02 7.7666906013e+02 0.0000000000e+00 0.0000e+00 1.0000e+00
<mgrwt>
<rscale>  0 0.15783494E+04</rscale>
<asrwt>0</asrwt>
<pdfrwt beam="1">  1        2 0.17336966E+00 0.15783494E+04</pdfrwt>
<pdfrwt beam="2">  1       -2 0.85024966E-01 0.15783494E+04</pdfrwt>
<totfact> 0.30902506E+01</totfact>
</mgrwt>
<rwgt>
<wgt id='morphing_basis_vector_1'> +1.4530049e-04 </wgt>
<wgt id='morphing_basis_vector_2'> +1.1971554e-04 </wgt>
<wgt id='morphing_basis_vector_3'> +1.5480292e-04 </wgt>
<wgt id='morphing_basis_vector_4'> +7.5833151e-05 </wgt>
<wgt id='morphing_basis_vector_5'> +1.5081150e-04 </wgt>
</rwgt>
</event>
<event>
 4      1 +1.5130300e-07 1.79207600e+03 7.81860800e-03 8.16274600e-02
        2 -1    0    0  501    0 +0.0000000000e+00 +0.0000000000e+00 +1.0667192639e+03 1.0667192639e+03 0.0000000000e+00 0.0000e+00 -1.0000e+00
       -2 -1    0    0    0  501 -0.0000000000e+00 -0.0000000000e+00 -7.5266687876e+02 7.5266687876e+02 0.0000000000e+00 0.0000e+00 1.0000e+00
      -13  1    1    2    0    0 +2.7116549362e+02 -6.8712303527e+02 -3.5786677056e+02 8.2081509245e+02 0.0000000000e+00 0.0000e+00 1.0000e+00
       13  1    1    2    0    0 -2.7116549362e+02 +6.8712303527e+02 +6.7191915573e+02 9.9857105024e+02 0.0000000000e+00 0.0000e+00 -1.0000e+00
<mgrwt>
<rscale>  0 0.17920762E+04</rscale>
<asrwt>0</asrwt>
<pdfrwt beam="1">  1        2 0.16411066E+00 0.17920762E+04</pdfrwt>
<pdfrwt beam="2">  1       -2 0.11579490E+00 0.17920762E+04</pdfrwt>
<totfact> 0.15642310E+01</totfact>
</mgrwt>
<rwgt>
<wgt id='morphing_basis_vector_1'> +2.2150315e-04 </wgt>
<wgt id='morphing_basis_vector_2'> +1.4812147e-04 </wgt>
<wgt id='morphing_basis_vector_3'> +2.3451164e-04 </wgt>
<wgt id='morphing_basis_vector_4'> +1.5998420e-04 </wgt>
<wgt id='morphing_basis_vector_5'> +2.5675540e-04 </wgt>
</rwgt>
</event>
<event>
 4      1 +1.5130300e-07 1.72007400e+03 7.81860800e-03 8.19735400e-02
        2 -1    0    0  501    0 +0.0000000000e+00 +0.0000000000e+00 +7.5731898452e+02 7.5731898452e+02 0.0000000000e+00 0.0000e+00 -1.0000e+00
       -2 -1    0    0    0  501 -0.0000000000e+00 -0.0000000000e+00 -9.7668726968e+02 9.7668726968e+02 0.0000000000e+00 0.0000e+00 1.0000e+00
      -13  1    1    2    0    0 -6.6324861959e+01 -3.7839867966e+02 -8.8538345017e+02 9.6513646803e+02 0.0000000000e+00 0.0000e+00 1.0000e+00
       13  1    1    2    0    0 +6.6324861959e+01 +3.7839867966e+02 +6.6601516500e+02 7.6886978617e+02 0.0000000000e+00 0.0000e+00 -1.0000e+00
<mgrwt>
<rscale>  0 0.17200742E+04</rscale>
<asrwt>0</asrwt>
<pdfrwt beam="1">  1        2 0.11651061E+00 0.17200742E+04</pdfrwt>
<pdfrwt beam="2">  1       -2 0.15025958E+00 0.17200742E+04</pdfrwt>
<totfact> 0.12410199E+01</totfact>
</mgrwt>
<rwgt>
<wgt id='morphing_basis_vector_1'> +1.8824183e-04 </wgt>
<wgt id='morphing_basis_vector_2'> +1.2429637e-04 </wgt>
<wgt id='morphing_basis_vector_3'> +1.9833052e-04 </wgt>
<wgt id='morphing_basis_vector_4'> +1.3629474e-04 </wgt>
<wgt id='morphing_basis_vector_5'> +2.1705709e-04 </wgt>
</rwgt>
</event>
<event>
 4      1 +1.5130300e-07 1.75194700e+03 7.81860800e-03 8.18182500e-02
        2 -1    0    0  501    0 +0.0000000000e+00 +0.0000000000e+00 +5.7079959182e+02 5.7079959182e+02 0.0000000000e+00 0.0000e+00 1.0000e+00
       -2 -1    0    0    0  501 -0.0000000000e+00 -0.0000000000e+00 -1.3443063865e+03 1.3443063865e+03 0.0000000000e+00 0.0000e+00 -1.0000e+00
      -13  1    1    2    0    0 -3.2463265757e+02 +8.1246737573e+02 -3.3986413263e+02 9.3861452558e+02 0.0000000000e+00 0.0000e+00 -1.0000e+00
       13  1    1    2    0    0 +3.2463265757e+02 -8.1246737573e+02 -4.3364266210e+02 9.7649145279e+02 0.0000000000e+00 0.0000e+00 1.0000e+00
<mgrwt>
<rscale>  0 0.17519470E+04</rscale>
<asrwt>0</asrwt>
<pdfrwt beam="1">  1        2 0.87815323E-01 0.17519470E+04</pdfrwt>
<pdfrwt beam="2">  1       -2 0.20681637E+00 0.17519470E+04</pdfrwt>
<totfact> 0.64123386E+00</totfact>
</mgrwt>
<rwgt>
<wgt id='morphing_basis_vector_1'> +2.1095059e-04 </wgt>
<wgt id='morphing_basis_vector_2'> +1.5966174e-04 </wgt>
<wgt id='morphing_basis_vector_3'> +2.2564955e-04 </wgt>
<wgt id='morphing_basis_vector_4'> +1.2996087e-04 </wgt>
<wgt id='morphing_basis_vector_5'> +2.3275013e-04 </wgt>
</rwgt>
</event>
<event>
 4      1 +1.5130300e-07 1.55202400e+03 7.81860800e-03 8.28536600e-02
        2 -1    0    0  501    0 +0.0000000000e+00 +0.0000000000e+00 +1.8501464737e+03 1.8501464737e+03 0.0000000000e+00 0.0000e+00 -1.0000e+00
       -2 -1    0    0    0  501 -0.0000000000e+00 -0.0000000000e+00 -3.2548495614e+02 3.2548495614e+02 0.0000000000e+00 0.0000e+00 1.0000e+00
      -13  1    1    2    0    0 +5.2242077846e+02 +1.4116144772e+02 -1.7334595499e+01 5.4143375614e+02 0.0000000000e+00 0.0000e+00 1.0000e+00
       13  1    1    2    0    0 -5.2242077846e+02 -1.4116144772e+02 +1.5419961131e+03 1.6341976738e+03 0.0000000000e+00 0.0000e+00 -1.0000e+00
<mgrwt>
<rscale>  0 0.15520243E+04</rscale>
<asrwt>0</asrwt>
<pdfrwt beam="1">  1        2 0.28463791E+00 0.15520243E+04</pdfrwt>
<pdfrwt beam="2">  1       -2 0.50074610E-01 0.15520243E+04</pdfrwt>
<totfact> 0.36996228E+01</totfact>
</mgrwt>
<rwgt>
<wgt id='morphing_basis_vector_1'> +1.2644538e-04 </wgt>
<wgt id='morphing_basis_vector_2'> +8.3199817e-05 </wgt>
<wgt id='morphing_basis_vector_3'> +1.3178020e-04 </wgt>
<wgt id='morphing_basis_vector_4'> +8.9025592e-05 </wgt>
<wgt id='morphing_basis_vector_5'> +1.4205825e-04 </wgt>
</rwgt>
</event>
<event>
 4      1 +1.5130300e-07 1.80306400e+03 7.81860800e-03 8.15761000e-02
        2 -1    0    0  501    0 +0.0000000000e+00 +0.0000000000e+00 +2.6003733239e+03 2.6003733239e+03 0.0000000000e+00 0.0000e+00 -1.0000e+00
       -2 -1    0    0    0  501 -0.0000000000e+00 -0.0000000000e+00 -3.1255515233e+02 3.1255515233e+02 0.0000000000e+00 0.0000e+00 1.0000e+00
      -13  1    1    2    0    0 +3.3946599242e+02 +5.6091791340e+02 +1.4423615588e+02 6.7131969601e+02 0.0000000000e+00 0.0000e+00 1.0000e+00
       13  1    1    2    0    0 -3.3946599242e+02 -5.6091791340e+02 +2.1435820157e+03 2.2416087803e+03 0.0000000000e+00 0.0000e+00 -1.0000e+00
<mgrwt>
<rscale>  0 0.18030641E+04</rscale>
<asrwt>0</asrwt>
<pdfrwt beam="1">  1        2 0.40005742E+00 0.18030641E+04</pdfrwt>
<pdfrwt beam="2">  1       -2 0.48085410E-01 0.18030641E+04</pdfrwt>
<totfact> 0.14492202E+01</totfact>
</mgrwt>
<rwgt>
<wgt id='morphing_basis_vector_1'> +2.2646586e-04 </wgt>
<wgt id='morphing_basis_vector_2'> +1.5061411e-04 </wgt>
<wgt id='morphing_basis_vector_3'> +2.3976540e-04 </wgt>
<wgt id='morphing_basis_vector_4'> +1.6478664e-04 </wgt>
<wgt id='morphing_basis_vector_5'> +2.6332970e-04 </wgt>
</rwgt>
</event>
<event>
 4      1 +1.5130300e-07 1.78086400e+03 7.81860800e-03 8.16802500e-02
        2 -1    0    0  501    0 +0.0000000000e+00 +0.0000000000e+00 +1.1221247208e+03 1.1221247208e+03 0.0000000000e+00 0.0000e+00 -1.0000e+00
       -2 -1    0    0    0  501 -0.0000000000e+00 -0.0000000000e+00 -7.0657832554e+02 7.0657832554e+02 0.0000000000e+00 0.0000e+00 1.0000e+00
      -13  1    1    2    0    0 -1.7280518747e+02 +8.2143637202e+02 -9.7275371968e+01 8.4503363488e+02 0.0000000000e+00 0.0000e+00 1.0000e+00
       13  1    1    2    0    0 +1.7280518747e+02 -8.2143637202e+02 +5.1282176723e+02 9.8366941146e+02 0.0000000000e+00 0.0000e+00 -1.0000e+00
<mgrwt>
<rscale>  0 0.17808638E+04</rscale>
<asrwt>0</asrwt>
<pdfrwt beam="1">  1        2 0.17263457E+00 0.17808638E+04</pdfrwt>
<pdfrwt beam="2">  1       -2 0.10870436E+00 0.17808638E+04</pdfrwt>
<totfact> 0.17010459E+01</totfact>
</mgrwt>
<rwgt>
<wgt id='morphing_basis_vector_1'> +2.1760401e-04 </wgt>
<wgt id='morphing_basis_vector_2'> +1.4881004e-04 </wgt>
<wgt id='morphing_basis_vector_3'> +2.3075575e-04 </wgt>
<wgt id='morphing_basis_vector_4'> +1.5308681e-04 </wgt>
<wgt id='morphing_basis_vector_5'> +2.5001103e-04 </wgt>
</rwgt>
</event>
<event>
 4      1 +1.5130300e-07 1.73538900e+03 7.81860800e-03 8.18985000e-02
        2 -1    0    0  501    0 +0.0000000000e+00 +0.0000000000e+00 +2.0623250070e+03 2.0623250070e+03 0.0000000000e+00 0.0000e+00 -1.0000e+00
       -2 -1    0    0    0  501 -0.0000000000e+00 -0.0000000000e+00 -3.6507022195e+02 3.6507022195e+02 0.0000000000e+00 0.0000e+00 1.0000e+00
      -13  1    1    2    0    0 -1.1085182393e+02 +3.7100039592e+02 -2.3752169325e+02 4.5425320627e+02 0.0000000000e+00 0.0000e+00 1.0000e+00
       13  1    1    2    0    0 +1.1085182393e+02 -3.7100039592e+02 +1.9347764783e+03 1.9731420227e+03 0.0000000000e+00 0.0000e+00 -1.0000e+00
<mgrwt>
<rscale>  0 0.17353887E+04</rscale>
<asrwt>0</asrwt>
<pdfrwt beam="1">  1        2 0.31728076E+00 0.17353887E+04</pdfrwt>
<pdfrwt beam="2">  1       -2 0.56164651E-01 0.17353887E+04</pdfrwt>
<totfact> 0.22036242E+01</totfact>
</mgrwt>
<rwgt>
<wgt id='morphing_basis_vector_1'> +1.9484992e-04 </wgt>
<wgt id='morphing_basis_vector_2'> +1.2872906e-04 </wgt>
<wgt id='morphing_basis_vector_3'> +2.0547035e-04 </wgt>
<wgt id='morphing_basis_vector_4'> +1.4134524e-04 </wgt>
<wgt id='morphing_basis_vector_5'> +2.2510811e-04 </wgt>
</rwgt>
</event>
<event>
 4      1 +1.5130300e-07 1.83384400e+03 7.81860800e-03 8.14342400e-02
        2 -1    0    0  501    0 +0.0000000000e+00 +0.0000000000e+00 +8.7166763647e+02 8.7166763647e+02 0.0000000000e+00 0.0000e+00 1.0000e+00
       -2 -1    0    0    0  501 -0.0000000000e+00 -0.0000000000e+00 -9.6452603416e+02 9.6452603416e+02 0.0000000000e+00 0.0000e+00 -1.0000e+00
      -13  1    1    2    0    0 -6.0466160293e+02 +2.6209907494e+02 -6.8476817330e+02 9.5037836166e+02 0.0000000000e+00 0.0000e+00 -1.0000e+00
       13  1    1    2    0    0 +6.0466160293e+02 -2.6209907494e+02 +5.9190977562e+02 8.8581530897e+02 0.0000000000e+00 0.0000e+00 1.0000e+00
<mgrwt>
<rscale>  0 0.18338442E+04</rscale>
<asrwt>0</asrwt>
<pdfrwt beam="1">  1        2 0.13410271E+00 0.18338442E+04</pdfrwt>
<pdfrwt beam="2">  1       -2 0.14838862E+00 0.18338442E+04</pdfrwt>
<totfact> 0.10618133E+01</totfact>
</mgrwt>
<rwgt>
<wgt id='morphing_basis_vector_1'> +2.4190936e-04 </wgt>
<wgt id='morphing_basis_vector_2'> +1.6098470e-04 </wgt>
<wgt id='morphing_basis_vector_3'> +2.5649401e-04 </wgt>
<wgt id='morphing_basis_vector_4'> +1.7665565e-04 </wgt>
<wgt id='morphing_basis_vector_5'> +2.8224742e-04 </wgt>
</rwgt>
</event>
<event>
 4      1 +1.5130300e-07 1.81704000e+03 7.81860800e-03 8.15113200e-02
        2 -1    0    0  501    0 +0.0000000000e+00 +0.0000000000e+00 +3.4929387614e+03 3.4929387614e+03 0.0000000000e+00 0.0000e+00 -1.0000e+00
       -2 -1    0    0    0  501 -0.0000000000e+00 -0.0000000000e+00 -2.3630788718e+02 2.3630788718e+02 0.0000000000e+00 0.0000e+00 1.0000e+00
      -13  1    1    2    0    0 -2.8219760481e+01 +6.4273127635e+02 +3.1173846173e+02 7.1489909568e+02 0.0000000000e+00 0.0000e+00 1.0000e+00
       13  1    1    2    0    0 +2.8219760481e+01 -6.4273127635e+02 +2.9448924125e+03 3.0143475529e+03 0.0000000000e+00 0.0000e+00 -1.0000e+00
<mgrwt>
<rscale>  0 0.18170404E+04</rscale>
<asrwt>0</asrwt>
<pdfrwt beam="1">  1        2 0.53737516E+00 0.18170404E+04</pdfrwt>
<pdfrwt beam="2">  1       -2 0.36355062E-01 0.18170404E+04</pdfrwt>
<totfact> 0.63518374E+00</totfact>
</mgrwt>
<rwgt>
<wgt id='morphing_basis_vector_1'> +2.3334662e-04 </wgt>
<wgt id='morphing_basis_vector_2'> +1.5515118e-04 </wgt>
<wgt id='morphing_basis_vector_3'> +2.4720519e-04 </wgt>
<wgt id='morphing_basis_vector_4'> +1.7017070e-04 </wgt>
<wgt id='morphing_basis_vector_5'> +2.7180420e-04 </wgt>
</rwgt>
</event>
<event>
 4      1 +1.5130300e-07 1.60897600e+03 7.81860800e-03 8.25430700e-02
        2 -1    0    0  501    0 +0.0000000000e+00 +0.0000000000e+00 +2.3669535280e+03 2.3669535280e+03 0.0000000000e+00 0.0000e+00 -1.0000e+00
       -2 -1    0    0    0  501 -0.0000000000e+00 -0.0000000000e+00 -2.7343201930e+02 2.7343201930e+02 0.0000000000e+00 0.0000e+00 1.0000e+00
      -13  1    1    2    0    0 +5.9481707665e+02 +4.7692112135e+02 +1.4681578341e+03 1.6543121037e+03 0.0000000000e+00 0.0000e+00 1.0000e+00
       13  1    1    2    0    0 -5.9481707665e+02 -4.7692112135e+02 +6.2536367464e+02 9.8607344362e+02 0.0000000000e+00 0.0000e+00 -1.0000e+00
<mgrwt>
<rscale>  0 0.16089759E+04</rscale>
<asrwt>0</asrwt>
<pdfrwt beam="1">  1        2 0.36414668E+00 0.16089759E+04</pdfrwt>
<pdfrwt beam="2">  1       -2 0.42066466E-01 0.16089759E+04</pdfrwt>
<totfact> 0.26215859E+01</totfact>
</mgrwt>
<rwgt>
<wgt id='morphing_basis_vector_1'> +1.6083569e-04 </wgt>
<wgt id='morphing_basis_vector_2'> +1.4188554e-04 </wgt>
<wgt id='morphing_basis_vector_3'> +1.7304706e-04 </wgt>
<wgt id='morphing_basis_vector_4'> +7.3894786e-05 </wgt>
<wgt id='morphing_basis_vector_5'> +1.6263762e-04 </wgt>
</rwgt>
</event>
<event>
 4      1 +1.5130300e-07 1.65826700e+03 7.81860800e-03 8.22847400e-02
        2 -1    0    0  501    0 +0.0000000000e+00 +0.0000000000e+00 +9.3042793948e+02 9.3042793948e+02 0.0000000000e+00 0.0000e+00 1.0000e+00
       -2 -1    0    0    0  501 -0.0000000000e+00 -0.0000000000e+00 -7.3886651462e+02 7.3886651462e+02 0.0000000000e+00 0.0000e+00 -1.0000e+00
      -13  1    1    2    0    0 -3.1646429827e+02 +4.9205590040e+02 -4.9565810497e+02 7.6677612001e+02 0.0000000000e+00 0.0000e+00 -1.0000e+00
       13  1    1    2    0    0 +3.1646429827e+02 -4.9205590040e+02 +6.8721952983e+02 9.0251833409e+02 0.0000000000e+00 0.0000e+00 1.0000e+00
<mgrwt>
<rscale>  0 0.16582666E+04</rscale>
<asrwt>0</asrwt>
<pdfrwt beam="1">  1        2 0.14314276E+00 0.16582666E+04</pdfrwt>
<pdfrwt beam="2">  1       -2 0.11367177E+00 0.16582666E+04</pdfrwt>
<totfact> 0.20174809E+01</totfact>
</mgrwt>
<rwgt>
<wgt id='morphing_basis_vector_1'> +1.6345038e-04 </wgt>
<wgt id='morphing_basis_vector_2'> +1.0807146e-04 </wgt>
<wgt id='morphing_basis_vector_3'> +1.7162448e-04 </wgt>
<wgt id='morphing_basis_vector_4'> +1.1693634e-04 </wgt>
<wgt id='morphing_basis_vector_5'> +1.8669483e-04 </wgt>
</rwgt>
</event>
<event>
 4      1 +1.5130300e-07 1.61392800e+03 7.81860800e-03 8.25166800e-02
        2 -1    0    0  501    0 +0.0000000000e+00 +0.0000000000e+00 +1.1674863614e+03 1.1674863614e+03 0.0000000000e+00 0.0000e+00 1.0000e+00
       -2 -1    0    0    0  501 -0.0000000000e+00 -0.0000000000e+00 -5.5777194992e+02 5.5777194992e+02 0.0000000000e+00 0.0000e+00 -1.0000e+00
      -13  1    1    2    0    0 +6.1547971671e+02 -5.2109051209e+02 +3.3584918388e+02 8.7358186668e+02 0.0000000000e+00 0.0000e+00 -1.0000e+00
       13  1    1    2    0    0 -6.1547971671e+02 +5.2109051209e+02 +2.7386522761e+02 8.5167644465e+02 0.0000000000e+00 0.0000e+00 1.0000e+00
<mgrwt>
<rscale>  0 0.16139283E+04</rscale>
<asrwt>0</asrwt>
<pdfrwt beam="1">  1        2 0.17961329E+00 0.16139283E+04</pdfrwt>
<pdfrwt beam="2">  1       -2 0.85811069E-01 0.16139283E+04</pdfrwt>
<totfact> 0.28538403E+01</totfact>
</mgrwt>
<rwgt>
<wgt id='morphing_basis_vector_1'> +1.5304841e-04 </wgt>
<wgt id='morphing_basis_vector_2'> +1.1470197e-04 </wgt>
<wgt id='morphing_basis_vector_3'> +1.6204697e-04 </wgt>
<wgt id='morphing_basis_vector_4'> +9.3330789e-05 </wgt>
<wgt id='morphing_basis_vector_5'> +1.6611056e-04 </wgt>
</rwgt>
</event>
<event>
 4      1 +1.5130300e-07 1.78003100e+03 7.81860800e-03 8.16841900e-02
        2 -1    0    0  501    0 +0.0000000000e+00 +0.0000000000e+00 +2.8030047762e+03 2.8030047762e+03 0.0000000000e+00 0.0000e+00 -1.0000e+00
       -2 -1    0    0    0  501 -0.0000000000e+00 -0.0000000000e+00 -2.8259950163e+02 2.8259950163e+02 0.0000000000e+00 0.0000e+00 1.0000e+00
      -13  1    1    2    0    0 +3.0574247678e+02 -6.5741782939e+02 +2.1549931420e+03 2.2736912953e+03 0.0000000000e+00 0.0000e+00 -1.0000e+00
       13  1    1    2    0    0 -3.0574247678e+02 +6.5741782939e+02 +3.6541213258e+02 8.1191298249e+02 0.0000000000e+00 0.0000e+00 1.0000e+00
<mgrwt>
<rscale>  0 0.17800312E+04</rscale>
<asrwt>0</asrwt>
<pdfrwt beam="1">  1        2 0.43123149E+00 0.17800312E+04</pdfrwt>
<pdfrwt beam="2">  1       -2 0.43476848E-01 0.17800312E+04</pdfrwt>
<totfact> 0.13238048E+01</totfact>
</mgrwt>
<rwgt>
<wgt id='morphing_basis_vector_1'> +2.6342092e-04 </wgt>
<wgt id='morphing_basis_vector_2'> +2.8568725e-04 </wgt>
<wgt id='morphing_basis_vector_3'> +2.9527732e-04 </wgt>
<wgt id='morphing_basis_vector_4'> +6.2805438e-05 </wgt>
<wgt id='morphing_basis_vector_5'> +2.4257288e-04 </wgt>
</rwgt>
</event>
<event>
 4      1 +1.5130300e-07 1.82046200e+03 7.81860800e-03 8.14955600e-02
        2 -1    0    0  501    0 +0.0000000000e+00 +0.0000000000e+00 +1.4671104092e+03 1.4671104092e+03 0.0000000000e+00 0.0000e+00 -1.0000e+00
       -2 -1    0    0    0  501 -0.0000000000e+00 -0.0000000000e+00 -5.6472952421e+02 5.6472952421e+02 0.0000000000e+00 0.0000e+00 1.0000e+00
      -13  1    1    2    0    0 -1.1316501464e+02 +8.0249241617e+02 -1.1316757954e+01 8.1051123839e+02 0.0000000000e+00 0.0000e+00 1.0000e+00
       13  1    1    2    0    0 +1.1316501464e+02 -8.0249241617e+02 +9.1369764293e+02 1.2213286950e+03 0.0000000000e+00 0.0000e+00 -1.0000e+00
<mgrwt>
<rscale>  0 0.18204621E+04</rscale>
<asrwt>0</asrwt>
<pdfrwt beam="1">  1        2 0.22570929E+00 0.18204621E+04</pdfrwt>
<pdfrwt beam="2">  1       -2 0.86881466E-01 0.18204621E+04</pdfrwt>
<totfact> 0.18356085E+01</totfact>
</mgrwt>
<rwgt>
<wgt id='morphing_basis_vector_1'> +2.3609739e-04 </wgt>
<wgt id='morphing_basis_vector_2'> +1.5936959e-04 </wgt>
<wgt id='morphing_basis_vector_3'> +2.5052875e-04 </wgt>
<wgt id='morphing_basis_vector_4'> +1.6946944e-04 </wgt>
<wgt id='morphing_basis_vector_5'> +2.7375111e-04 </wgt>
</rwgt>
</event>
<event>
 4      1 +1.5130300e-07 1.66185400e+03 7.81860800e-03 8.22663000e-02
        2 -1    0    0  501    0 +0.0000000000e+00 +0.0000000000e+00 +1.1199142070e+03 1.1199142070e+03 0.0000000000e+00 0.0000e+00 -1.0000e+00
       -2 -1    0    0    0  501 -0.0000000000e+00 -0.0000000000e+00 -6.1651122106e+02 6.1651122106e+02 0.0000000000e+00 0.0000e+00 1.0000e+00
      -13  1    1    2    0    0 -2.8234566488e+02 -5.2250826219e+02 -3.5549950650e+02 6.9218050944e+02 0.0000000000e+00 0.0000e+00 -1.0000e+00
       13  1    1    2    0    0 +2.8234566488e+02 +5.2250826219e+02 +8.5890249243e+02 1.0442449186e+03 0.0000000000e+00 0.0000e+00 1.0000e+00
<mgrwt>
<rscale>  0 0.16618540E+04</rscale>
<asrwt>0</asrwt>
<pdfrwt beam="1">  1        2 0.17229449E+00 0.16618540E+04</pdfrwt>
<pdfrwt beam="2">  1       -2 0.94847880E-01 0.16618540E+04</pdfrwt>
<totfact> 0.24003751E+01</totfact>
</mgrwt>
<rwgt>
<wgt id='morphing_basis_vector_1'> +1.6484260e-04 </wgt>
<wgt id='morphing_basis_vector_2'> +1.0904112e-04 </wgt>
<wgt id='morphing_basis_vector_3'> +1.7313049e-04 </wgt>
<wgt id='morphing_basis_vector_4'> +1.1795239e-04 </wgt>
<wgt id='morphing_basis_vector_5'> +1.8836153e-04 </wgt>
</rwgt>
</event>
<event>
 4      1 +1.5130300e-07 1.68127700e+03 7.81860800e-03 8.21672900e-02
        2 -1    0    0  501    0 +0.0000000000e+00 +0.0000000000e+00 +2.4194959015e+03 2.4194959015e+03 0.0000000000e+00 0.0000e+00 -1.0000e+00
       -2 -1    0    0    0  501 -0.0000000000e+00 -0.0000000000e+00 -2.9207452266e+02 2.9207452266e+02 0.0000000000e+00 0.0000e+00 1.0000e+00
      -13  1    1    2    0    0 +5.4296676975e+02 +5.9254908419e+02 +6.6620837012e+02 1.0439161473e+03 0.0000000000e+00 0.0000e+00 1.0000e+00
       13  1    1    2    0    0 -5.4296676975e+02 -5.9254908419e+02 +1.4612130088e+03 1.6676542769e+03 0.0000000000e+00 0.0000e+00 -1.0000e+00
<mgrwt>
<rscale>  0 0.16812770E+04</rscale>
<asrwt>0</asrwt>
<pdfrwt beam="1">  1        2 0.37223013E+00 0.16812770E+04</pdfrwt>
<pdfrwt beam="2">  1       -2 0.44934544E-01 0.16812770E+04</pdfrwt>
<totfact> 0.21404643E+01</totfact>
</mgrwt>
<rwgt>
<wgt id='morphing_basis_vector_1'> +1.7425296e-04 </wgt>
<wgt id='morphing_basis_vector_2'> +1.1950442e-04 </wgt>
<wgt id='morphing_basis_vector_3'> +1.8382018e-04 </wgt>
<wgt id='morphing_basis_vector_4'> +1.2026818e-04 </wgt>
<wgt id='morphing_basis_vector_5'> +1.9732608e-04 </wgt>
</rwgt>
</event>
<event>
 4      1 +1.5130300e-07 1.59996500e+03 7.81860800e-03 8.25913200e-02
        2 -1    0    0  501    0 +0.0000000000e+00 +0.0000000000e+00 +1.7776469961e+03 1.7776469961e+03 0.0000000000e+00 0.0000e+00 1.0000e+00
       -2 -1    0    0    0  501 -0.0000000000e+00 -0.0000000000e+00 -3.6001074345e+02 3.6001074345e+02 0.0000000000e+00 0.0000e+00 -1.0000e+00
      -13  1    1    2    0    0 +1.3102657386e+02 -7.8324314319e+02 +5.7973574026e+02 9.8322495541e+02 0.0000000000e+00 0.0000e+00 -1.0000e+00
       13  1    1    2    0    0 -1.3102657386e+02 +7.8324314319e+02 +8.3790051240e+02 1.1544327841e+03 0.0000000000e+00 0.0000e+00 1.0000e+00
<mgrwt>
<rscale>  0 0.15999650E+04</rscale>
<asrwt>0</asrwt>
<pdfrwt beam="1">  1        2 0.27348415E+00 0.15999650E+04</pdfrwt>
<pdfrwt beam="2">  1       -2 0.55386269E-01 0.15999650E+04</pdfrwt>
<totfact> 0.33088189E+01</totfact>
</mgrwt>
<rwgt>
<wgt id='morphing_basis_vector_1'> +1.4540365e-04 </wgt>
<wgt id='morphing_basis_vector_2'> +1.0318662e-04 </wgt>
<wgt id='morphing_basis_vector_3'> +1.5303141e-04 </wgt>
<wgt id='morphing_basis_vector_4'> +9.4941349e-05 </wgt>
<wgt id='morphing_basis_vector_5'> +1.6063146e-04 </wgt>
</rwgt>
</event>
<event>
 4      1 +1.5130300e-07 1.63140900e+03 7.81860800e-03 8.24243300e-02
        2 -1    0    0  501    0 +0.0000000000e+00 +0.0000000000e+00 +6.9681425978e+02 6.9681425978e+02 0.0000000000e+00 0.0000e+00 1.0000e+00
       -2 -1    0    0    0  501 -0.0000000000e+00 -0.0000000000e+00 -9.5488014625e+02 9.5488014625e+02 0.0000000000e+00 0.0000e+00 -1.0000e+00
      -13  1    1    2    0    0 +3.8534566308e+01 -7.8759588311e+02 -3.4039153530e+02 8.5887052878e+02 0.0000000000e+00 0.0000e+00 -1.0000e+00
       13  1    1    2    0    0 -3.8534566308e+01 +7.8759588311e+02 +8.2325648825e+01 7.9282387726e+02 0.0000000000e+00 0.0000e+00 1.0000e+00
<mgrwt>
<rscale>  0 0.16314093E+04</rscale>
<asrwt>0</asrwt>
<pdfrwt beam="1">  1        2 0.10720219E+00 0.16314093E+04</pdfrwt>
<pdfrwt beam="2">  1       -2 0.14690464E+00 0.16314093E+04</pdfrwt>
<totfact> 0.14783830E+01</totfact>
</mgrwt>
<rwgt>
<wgt id='morphing_basis_vector_1'> +1.5532552e-04 </wgt>
<wgt id='morphing_basis_vector_2'> +1.0701551e-04 </wgt>
<wgt id='morphing_basis_vector_3'> +1.6340455e-04 </wgt>
<wgt id='morphing_basis_vector_4'> +1.0568335e-04 </wgt>
<wgt id='morphing_basis_vector_5'> +1.7427014e-04 </wgt>
</rwgt>
</event>
<event>
 4      1 +1.5130300e-07 1.63208100e+03 7.81860800e-03 8.24208100e-02
        2 -1    0    0  501    0 +0.0000000000e+00 +0.0000000000e+00 +1.3635277539e+03 1.3635277539e+03 0.0000000000e+00 0.0000e+00 -1.0000e+00
       -2 -1    0    0    0  501 -0.0000000000e+00 -0.0000000000e+00 -4.8838205369e+02 4.8838205369e+02 0.0000000000e+00 0.0000e+00 1.0000e+00
      -13  1    1    2    0    0 -1.8924874470e+02 -4.1050626261e+02 -3.3334328575e+02 5.6164777678e+02 0.0000000000e+00 0.0000e+00 1.0000e+00
       13  1    1    2    0    0 +1.8924874470e+02 +4.1050626261e+02 +1.2084889860e+03 1.2902620309e+03 0.0000000000e+00 0.0000e+00 -1.0000e+00
<mgrwt>
<rscale>  0 0.16320815E+04</rscale>
<asrwt>0</asrwt>
<pdfrwt beam="1">  1        2 0.20977350E+00 0.16320815E+04</pdfrwt>
<pdfrwt beam="2">  1       -2 0.75135701E-01 0.16320815E+04</pdfrwt>
<totfact> 0.29665992E+01</totfact>
</mgrwt>
<rwgt>
<wgt id='morphing_basis_vector_1'> +1.5352924e-04 </wgt>
<wgt id='morphing_basis_vector_2'> +1.0110841e-04 </wgt>
<wgt id='morphing_basis_vector_3'> +1.6089196e-04 </wgt>
<wgt id='morphing_basis_vector_4'> +1.0976640e-04 </wgt>
<wgt id='morphing_basis_vector_5'> +1.7486248e-04 </wgt>
</rwgt>
</event>
<event>
 4      1 +1.5130300e-07 1.66396100e+03 7.81860800e-03 8.22554900e-02
        2 -1    0    0  501    0 +0.0000000000e+00 +0.0000000000e+00 +6.8347338619e+02 6.8347338619e+02 0.0000000000e+00 0.0000e+00 1.0000e+00
       -2 -1    0    0    0  501 -0.0000000000e+00 -0.0000000000e+00 -1.0127557306e+03 1.0127557306e+03 0.0000000000e+00 0.0000e+00 -1.0000e+00
      -13  1    1    2    0    0 -5.0009204642e+02 -3.1618888266e+02 +4.3161544078e+02 7.3236558707e+02 0.0000000000e+00 0.0000e+00 -1.0000e+00
       13  1    1    2    0    0 +5.0009204642e+02 +3.1618888266e+02 -7.6089778516e+02 9.6386352969e+02 0.0000000000e+00 0.0000e+00 1.0000e+00
<mgrwt>
<rscale>  0 0.16639610E+04</rscale>
<asrwt>0</asrwt>
<pdfrwt beam="1">  1        2 0.10514975E+00 0.16639610E+04</pdfrwt>
<pdfrwt beam="2">  1       -2 0.15580857E+00 0.16639610E+04</pdfrwt>
<totfact> 0.12748319E+01</totfact>
</mgrwt>
<rwgt>
<wgt id='morphing_basis_vector_1'> +2.1328228e-04 </wgt>
<wgt id='morphing_basis_vector_2'> +2.5115963e-04 </wgt>
<wgt id='morphing_basis_vector_3'> +2.3930695e-04 </wgt>
<wgt id='morphing_basis_vector_4'> +2.7213392e-05 </wgt>
<wgt id='morphing_basis_vector_5'> +1.8238326e-04 </wgt>
</rwgt>
</event>
<event>
 4      1 +1.5130300e-07 1.69514200e+03 7.81860800e-03 8.20974400e-02
        2 -1    0    0  501    0 +0.0000000000e+00 +0.0000000000e+00 +2.6690523267e+03 2.6690523267e+03 0.0000000000e+00 0.0000e+00 1.0000e+00
       -2 -1    0    0    0  501 -0.0000000000e+00 -0.0000000000e+00 -2.6915043394e+02 2.6915043394e+02 0.0000000000e+00 0.0000e+00 -1.0000e+00
      -13  1    1    2    0    0 +4.4944986851e+02 +5.0259967588e+02 +2.0901440840e+03 2.1962044328e+03 0.0000000000e+00 0.0000e+00 -1.0000e+00
       13  1    1    2    0    0 -4.4944986851e+02 -5.0259967588e+02 +3.0975780874e+02 7.4199832788e+02 0.0000000000e+00 0.0000e+00 1.0000e+00
<mgrwt>
<rscale>  0 0.16951420E+04</rscale>
<asrwt>0</asrwt>
<pdfrwt beam="1">  1        2 0.41062342E+00 0.16951420E+04</pdfrwt>
<pdfrwt beam="2">  1       -2 0.41407761E-01 0.16951420E+04</pdfrwt>
<totfact> 0.17701612E+01</totfact>
</mgrwt>
<rwgt>
<wgt id='morphing_basis_vector_1'> +2.2021850e-04 </wgt>
<wgt id='morphing_basis_vector_2'> +2.4321679e-04 </wgt>
<wgt id='morphing_basis_vector_3'> +2.4561932e-04 </wgt>
<wgt id='morphing_basis_vector_4'> +4.6733735e-05 </wgt>
<wgt id='morphing_basis_vector_5'> +1.9816201e-04 </wgt>
</rwgt>
</event>
<event>
 4      1 +1.5130300e-07 1.67475400e+03 7.81860800e-03 8.22003900e-02
        2 -1    0    0  501    0 +0.0000000000e+00 +0.0000000000e+00 +2.2004617855e+03 2.2004617855e+03 0.0000000000e+00 0.0000e+00 1.0000e+00
       -2 -1    0    0    0  501 -0.0000000000e+00 -0.0000000000e+00 -3.1866046755e+02 3.1866046755e+02 0.0000000000e+00 0.0000e+00 -1.0000e+00
      -13  1    1    2    0    0 -5.8977454766e+02 -1.2672697686e+01 +1.8348481480e+03 1.9273459317e+03 0.0000000000e+00 0.0000e+00 1.0000e+00
       13  1    1    2    0    0 +5.8977454766e+02 +1.2672697686e+01 +4.6953169964e+01 5.9177632134e+02 0.0000000000e+00 0.0000e+00 -1.0000e+00
<mgrwt>
<rscale>  0 0.16747539E+04</rscale>
<asrwt>0</asrwt>
<pdfrwt beam="1">  1        2 0.33853257E+00 0.16747539E+04</pdfrwt>
<pdfrwt beam="2">  1       -2 0.49024689E-01 0.16747539E+04</pdfrwt>
<totfact> 0.24230368E+01</totfact>
</mgrwt>
<rwgt>
<wgt id='morphing_basis_vector_1'> +2.1927239e-04 </wgt>
<wgt id='morphing_basis_vector_2'> +2.5925098e-04 </wgt>
<wgt id='morphing_basis_vector_3'> +2.4646148e-04 </wgt>
<wgt id='morphing_basis_vector_4'> +2.6855007e-05 </wgt>
<wgt id='morphing_basis_vector_5'> +1.8720901e-04 </wgt>
</rwgt>
</event>
<event>
 4      1 +1.5130300e-07 1.65459700e+03 7.81860800e-03 8.23036600e-02
        2 -1    0    0  501    0 +0.0000000000e+00 +0.0000000000e+00 +2.0055444473e+03 2.0055444473e+03 0.0000000000e+00 0.0000e+00 -1.0000e+00
       -2 -1    0    0    0  501 -0.0000000000e+00 -0.0000000000e+00 -3.4126528945e+02 3.4126528945e+02 0.0000000000e+00 0.0000e+00 1.0000e+00
      -13  1    1    2    0    0 +7.8817054456e+02 +2.4668121718e+02 +7.6326118633e+02 1.1245586107e+03 0.0000000000e+00 0.0000e+00 1.0000e+00
       13  1    1    2    0    0 -7.8817054456e+02 -2.4668121718e+02 +9.0101797149e+02 1.2222511261e+03 0.0000000000e+00 0.0000e+00 -1.0000e+00
<mgrwt>
<rscale>  0 0.16545969E+04</rscale>
<asrwt>0</asrwt>
<pdfrwt beam="1">  1        2 0.30854529E+00 0.16545969E+04</pdfrwt>
<pdfrwt beam="2">  1       -2 0.52502353E-01 0.16545969E+04</pdfrwt>
<totfact> 0.27342830E+01</totfact>
</mgrwt>
<rwgt>
<wgt id='morphing_basis_vector_1'> +1.6662126e-04 </wgt>
<wgt id='morphing_basis_vector_2'> +1.2071972e-04 </wgt>
<wgt id='morphing_basis_vector_3'> +1.7636749e-04 </wgt>
<wgt id='morphing_basis_vector_4'> +1.0711924e-04 </wgt>
<wgt id='morphing_basis_vector_5'> +1.8433250e-04 </wgt>
</rwgt>
</event>
<event>
 4      1 +1.5130300e-07 1.70992800e+03 7.81860800e-03 8.20237000e-02
        2 -1    0    0  501    0 +0.0000000000e+00 +0.0000000000e+00 +1.7726155771e+03 1.7726155771e+03 0.0000000000e+00 0.0000e+00 1.0000e+00
       -2 -1    0    0    0  501 -0.0000000000e+00 -0.0000000000e+00 -4.1236420748e+02 4.1236420748e+02 0.0000000000e+00 0.0000e+00 -1.0000e+00
      -13  1    1    2    0    0 +3.5409362715e+02 +6.6485254853e+02 +1.6335531069e+02 7.7077633955e+02 0.0000000000e+00 0.0000e+00 -1.0000e+00
       13  1    1    2    0    0 -3.5409362715e+02 -6.6485254853e+02 +1.1968960590e+03 1.4142034451e+03 0.0000000000e+00 0.0000e+00 1.0000e+00
<mgrwt>
<rscale>  0 0.17099277E+04</rscale>
<asrwt>0</asrwt>
<pdfrwt beam="1">  1        2 0.27271008E+00 0.17099277E+04</pdfrwt>
<pdfrwt beam="2">  1       -2 0.63440648E-01 0.17099277E+04</pdfrwt>
<totfact> 0.24987215E+01</totfact>
</mgrwt>
<rwgt>
<wgt id='morphing_basis_vector_1'> +1.8487428e-04 </wgt>
<wgt id='morphing_basis_vector_2'> +1.2414514e-04 </wgt>
<wgt id='morphing_basis_vector_3'> +1.9497319e-04 </wgt>
<wgt id='morphing_basis_vector_4'> +1.3125477e-04 </wgt>
<wgt id='morphing_basis_vector_5'> +2.1170654e-04 </wgt>
</rwgt>
</event>
<event>
 4      1 +1.5130300e-07 1.58342000e+03 7.81860800e-03 8.26807700e-02
        2 -1    0    0  501    0 +0.0000000000e+00 +0.0000000000e+00 +9.9251884009e+02 9.9251884009e+02 0.0000000000e+00 0.0000e+00 -1.0000e+00
       -2 -1    0    0    0  501 -0.0000000000e+00 -0.0000000000e+00 -6.3152917703e+02 6.3152917703e+02 0.0000000000e+00 0.0000e+00 1.0000e+00
      -13  1    1    2    0    0 +1.7727178312e+02 +1.3191661206e+02 -5.9926019305e+02 6.3870185267e+02 0.0000000000e+00 0.0000e+00 1.0000e+00
       13  1    1    2    0    0 -1.7727178312e+02 -1.3191661206e+02 +9.6024985611e+02 9.8534616445e+02 0.0000000000e+00 0.0000e+00 -1.0000e+00
<mgrwt>
<rscale>  0 0.15834199E+04</rscale>
<asrwt>0</asrwt>
<pdfrwt beam="1">  1        2 0.15269521E+00 0.15834199E+04</pdfrwt>
<pdfrwt beam="2">  1       -2 0.97158335E-01 0.15834199E+04</pdfrwt>
<totfact> 0.27295620E+01</totfact>
</mgrwt>
<rwgt>
<wgt id='morphing_basis_vector_1'> +1.3648825e-04 </wgt>
<wgt id='morphing_basis_vector_2'> +8.9596238e-05 </wgt>
<wgt id='morphing_basis_vector_3'> +1.4253770e-04 </wgt>
<wgt id='morphing_basis_vector_4'> +9.6976136e-05 </wgt>
<wgt id='morphing_basis_vector_5'> +1.5433766e-04 </wgt>
</rwgt>
</event>
<event>
 4      1 +1.5130300e-07 1.64138100e+03 7.81860800e-03 8.23721800e-02
        2 -1    0    0  501    0 +0.0000000000e+00 +0.0000000000e+00 +3.3755165843e+03 3.3755165843e+03 0.0000000000e+00 0.0000e+00 1.0000e+00
       -2 -1    0    0    0  501 -0.0000000000e+00 -0.0000000000e+00 -1.9953486610e+02 1.9953486610e+02 0.0000000000e+00 0.0000e+00 -1.0000e+00
      -13  1    1    2    0    0 +2.8962942180e+02 -5.0144716306e+02 +3.2133450629e+02 6.6226152254e+02 0.0000000000e+00 0.0000e+00 -1.0000e+00
       13  1    1    2    0    0 -2.8962942180e+02 +5.0144716306e+02 +2.8546472119e+03 2.9127899279e+03 0.0000000000e+00 0.0000e+00 1.0000e+00
<mgrwt>
<rscale>  0 0.16413814E+04</rscale>
<asrwt>0</asrwt>
<pdfrwt beam="1">  1        2 0.51931020E+00 0.16413814E+04</pdfrwt>
<pdfrwt beam="2">  1       -2 0.30697674E-01 0.16413814E+04</pdfrwt>
<totfact> 0.10641844E+01</totfact>
</mgrwt>
<rwgt>
<wgt id='morphing_basis_vector_1'> +1.5708304e-04 </wgt>
<wgt id='morphing_basis_vector_2'> +1.0379142e-04 </wgt>
<wgt id='morphing_basis_vector_3'> +1.6475854e-04 </wgt>
<wgt id='morphing_basis_vector_4'> +1.1211392e-04 </wgt>
<wgt id='morphing_basis_vector_5'> +1.7898692e-04 </wgt>
</rwgt>
</event>
<event>
 4      1 +1.5130300e-07 1.83956500e+03 7.81860800e-03 8.14081900e-02
        2 -1    0    0  501    0 +0.0000000000e+00 +0.0000000000e+00 +6.4878343278e+02 6.4878343278e+02 0.0000000000e+00 0.0000e+00 1.0000e+00
       -2 -1    0    0    0  501 -0.0000000000e+00 -0.0000000000e+00 -1.3039784659e+03 1.3039784659e+03 0.0000000000e+00 0.0000e+00 -1.0000e+00
      -13  1    1    2    0    0 -4.0924514005e+02 +6.6493028263e+02 -8.4371059837e+02 1.1495483631e+03 0.0000000000e+00 0.0000e+00 -1.0000e+00
       13  1    1    2    0    0 +4.0924514005e+02 -6.6493028263e+02 +1.8851556520e+02 8.0321353558e+02 0.0000000000e+00 0.0000e+00 1.0000e+00
<mgrwt>
<rscale>  0 0.18395648E+04</rscale>
<asrwt>0</asrwt>
<pdfrwt beam="1">  1        2 0.99812837E-01 0.18395648E+04</pdfrwt>
<pdfrwt beam="2">  1       -2 0.20061207E+00 0.18395648E+04</pdfrwt>
<totfact> 0.60684728E+00</totfact>
</mgrwt>
<rwgt>
<wgt id='morphing_basis_vector_1'> +2.4548285e-04 </wgt>
<wgt id='morphing_basis_vector_2'> +1.6480182e-04 </wgt>
<wgt id='morphing_basis_vector_3'> +2.6057477e-04 </wgt>
<wgt id='morphing_basis_vector_4'> +1.7771896e-04 </wgt>
<wgt id='morphing_basis_vector_5'> +2.8577756e-04 </wgt>
</rwgt>
</event>
<event>
 4      1 +1.5130300e-07 1.84110300e+03 7.81860800e-03 8.14012100e-02
        2 -1    0    0  501    0 +0.0000000000e+00 +0.0000000000e+00 +9.7602465737e+02 9.7602465737e+02 0.0000000000e+00 0.0000e+00 1.0000e+00
       -2 -1    0    0    0  501 -0.0000000000e+00 -0.0000000000e+00 -8.6823077503e+02 8.6823077503e+02 0.0000000000e+00 0.0000e+00 -1.0000e+00
      -13  1    1    2    0    0 -6.0383257737e+01 -2.0715814919e+02 -8.4254005141e+02 8.6973235816e+02 0.0000000000e+00 0.0000e+00 -1.0000e+00
       13  1    1    2    0    0 +6.0383257737e+01 +2.0715814919e+02 +9.5033393375e+02 9.7452307424e+02 0.0000000000e+00 0.0000e+00 1.0000e+00
<mgrwt>
<rscale>  0 0.18411025E+04</rscale>
<asrwt>0</asrwt>
<pdfrwt beam="1">  1        2 0.15015764E+00 0.18411025E+04</pdfrwt>
<pdfrwt beam="2">  1       -2 0.13357397E+00 0.18411025E+04</pdfrwt>
<totfact> 0.12170356E+01</totfact>
</mgrwt>
<rwgt>
<wgt id='morphing_basis_vector_1'> +2.4535147e-04 </wgt>
<wgt id='morphing_basis_vector_2'> +1.6257882e-04 </wgt>
<wgt id='morphing_basis_vector_3'> +2.6011863e-04 </wgt>
<wgt id='morphing_basis_vector_4'> +1.8015818e-04 </wgt>
<wgt id='morphing_basis_vector_5'> +2.8689969e-04 </wgt>
</rwgt>
</event>
<event>
 4      1 +1.5130300e-07 1.81142400e+03 7.81860800e-03 8.15372800e-02
        2 -1    0    0  501    0 +0.0000000000e+00 +0.0000000000e+00 +9.0515970475e+02 9.0515970475e+02 0.0000000000e+00 0.0000e+00 -1.0000e+00
       -2 -1    0    0    0  501 -0.0000000000e+00 -0.0000000000e+00 -9.0626422364e+02 9.0626422364e+02 0.0000000000e+00 0.0000e+00 1.0000e+00
      -13  1    1    2    0    0 -6.4004925156e+02 +4.4579084150e+02 -4.6090149328e+02 9.0599266294e+02 0.0000000000e+00 0.0000e+00 1.0000e+00
       13  1    1    2    0    0 +6.4004925156e+02 -4.4579084150e+02 +4.5979697440e+02 9.0543126545e+02 0.0000000000e+00 0.0000e+00 -1.0000e+00
<mgrwt>
<rscale>  0 0.18114236E+04</rscale>
<asrwt>0</asrwt>
<pdfrwt beam="1">  1        2 0.13925534E+00 0.18114236E+04</pdfrwt>
<pdfrwt beam="2">  1       -2 0.13942527E+00 0.18114236E+04</pdfrwt>
<totfact> 0.12039672E+01</totfact>
</mgrwt>
<rwgt>
<wgt id='morphing_basis_vector_1'> +2.3124847e-04 </wgt>
<wgt id='morphing_basis_vector_2'> +1.5535027e-04 </wgt>
<wgt id='morphing_basis_vector_3'> +2.4516437e-04 </wgt>
<wgt id='morphing_basis_vector_4'> +1.6665115e-04 </wgt>
<wgt id='morphing_basis_vector_5'> +2.6827043e-04 </wgt>
</rwgt>
</event>
<event>
 4      1 +1.5130300e-07 1.76704300e+03 7.81860800e-03 8.17458700e-02
        2 -1    0    0  501    0 +0.0000000000e+00 +0.0000000000e+00 +7.6585158399e+02 7.6585158399e+02 0.0000000000e+00 0.0000e+00 1.0000e+00
       -2 -1    0    0    0  501 -0.0000000000e+00 -0.0000000000e+00 -1.0192705865e+03 1.0192705865e+03 0.0000000000e+00 0.0000e+00 -1.0000e+00
      -13  1    1    2    0    0 -5.7181125158e+02 +7.7073800701e+01 +5.4924143944e+02 7.9660193132e+02 0.0000000000e+00 0.0000e+00 1.0000e+00
       13  1    1    2    0    0 +5.7181125158e+02 -7.7073800701e+01 -8.0266044199e+02 9.8852023921e+02 0.0000000000e+00 0.0000e+00 -1.0000e+00
<mgrwt>
<rscale>  0 0.17670427E+04</rscale>
<asrwt>0</asrwt>
<pdfrwt beam="1">  1        2 0.11782332E+00 0.17670427E+04</pdfrwt>
<pdfrwt beam="2">  1       -2 0.15681086E+00 0.17670427E+04</pdfrwt>
<totfact> 0.10771233E+01</totfact>
</mgrwt>
<rwgt>
<wgt id='morphing_basis_vector_1'> +2.7484861e-04 </wgt>
<wgt id='morphing_basis_vector_2'> +3.3353683e-04 </wgt>
<wgt id='morphing_basis_vector_3'> +3.1306536e-04 </wgt>
<wgt id='morphing_basis_vector_4'> +2.4321877e-05 </wgt>
<wgt id='morphing_basis_vector_5'> +2.3257403e-04 </wgt>
</rwgt>
</event>
<event>
 4      1 +1.5130300e-07 1.61435800e+03 7.81860800e-03 8.25144000e-02
        2 -1    0    0  501    0 +0.0000000000e+00 +0.0000000000e+00 +1.7779580897e+03 1.7779580897e+03 0.0000000000e+00 0.0000e+00 -1.0000e+00
       -2 -1    0    0    0  501 -0.0000000000e+00 -0.0000000000e+00 -3.6645311746e+02 3.6645311746e+02 0.0000000000e+00 0.0000e+00 1.0000e+00
      -13  1    1    2    0    0 +9.7413670586e+01 -7.5502742779e+02 +3.4936585947e+02 8.3762303197e+02 0.0000000000e+00 0.0000e+00 1.0000e+00
       13  1    1    2    0    0 -9.7413670586e+01 +7.5502742779e+02 +1.0621391128e+03 1.3067881752e+03 0.0000000000e+00 0.0000e+00 -1.0000e+00
<mgrwt>
<rscale>  0 0.16143584E+04</rscale>
<asrwt>0</asrwt>
<pdfrwt beam="1">  1        2 0.27353201E+00 0.16143584E+04</pdfrwt>
<pdfrwt beam="2">  1       -2 0.56377404E-01 0.16143584E+04</pdfrwt>
<totfact> 0.31872785E+01</totfact>
</mgrwt>
<rwgt>
<wgt id='morphing_basis_vector_1'> +1.4856598e-04 </wgt>
<wgt id='morphing_basis_vector_2'> +1.0101699e-04 </wgt>
<wgt id='morphing_basis_vector_3'> +1.5593560e-04 </wgt>
<wgt id='morphing_basis_vector_4'> +1.0226867e-04 </wgt>
<wgt id='morphing_basis_vector_5'> +1.6696181e-04 </wgt>
</rwgt>
</event>
<event>
 4      1 +1.5130300e-07 1.59820300e+03 7.81860800e-03 8.26007900e-02
        2 -1    0    0  501    0 +0.0000000000e+00 +0.0000000000e+00 +1.8592611226e+03 1.8592611226e+03 0.0000000000e+00 0.0000e+00 -1.0000e+00
       -2 -1    0    0    0  501 -0.0000000000e+00 -0.0000000000e+00 -3.4344981459e+02 3.4344981459e+02 0.0000000000e+00 0.0000e+00 1.0000e+00
      -13  1    1    2    0    0 +6.9039367765e+02 +2.5614280240e+02 +3.3018315674e+02 8.0701516860e+02 0.0000000000e+00 0.0000e+00 1.0000e+00
       13  1    1    2    0    0 -6.9039367765e+02 -2.5614280240e+02 +1.1856281513e+03 1.3956957686e+03 0.0000000000e+00 0.0000e+00 -1.0000e+00
<mgrwt>
<rscale>  0 0.15982026E+04</rscale>
<asrwt>0</asrwt>
<pdfrwt beam="1">  1        2 0.28604017E+00 0.15982026E+04</pdfrwt>
<pdfrwt beam="2">  1       -2 0.52838434E-01 0.15982026E+04</pdfrwt>
<totfact> 0.32753494E+01</totfact>
</mgrwt>
<rwgt>
<wgt id='morphing_basis_vector_1'> +1.4257474e-04 </wgt>
<wgt id='morphing_basis_vector_2'> +9.6166100e-05 </wgt>
<wgt id='morphing_basis_vector_3'> +1.4937984e-04 </wgt>
<wgt id='morphing_basis_vector_4'> +9.8706386e-05 </wgt>
<wgt id='morphing_basis_vector_5'> +1.6021919e-04 </wgt>
</rwgt>
</event>
<event>
 4      1 +1.5130300e-07 1.69038800e+03 7.81860800e-03 8.21213100e-02
        2 -1    0    0  501    0 +0.0000000000e+00 +0.0000000000e+00 +8.9885033280e+02 8.9885033280e+02 0.0000000000e+00 0.0000e+00 -1.0000e+00
       -2 -1    0    0    0  501 -0.0000000000e+00 -0.0000000000e+00 -7.9474031571e+02 7.9474031571e+02 0.0000000000e+00 0.0000e+00 1.0000e+00
      -13  1    1    2    0    0 +6.1630902857e+02 -1.5061441668e+02 -5.0742147164e+02 8.1240265330e+02 0.0000000000e+00 0.0000e+00 1.0000e+00
       13  1    1    2    0    0 -6.1630902857e+02 +1.5061441668e+02 +6.1153148873e+02 8.8118799522e+02 0.0000000000e+00 0.0000e+00 -1.0000e+00
<mgrwt>
<rscale>  0 0.16903876E+04</rscale>
<asrwt>0</asrwt>
<pdfrwt beam="1">  1        2 0.13828467E+00 0.16903876E+04</pdfrwt>
<pdfrwt beam="2">  1       -2 0.12226774E+00 0.16903876E+04</pdfrwt>
<totfact> 0.17475098E+01</totfact>
</mgrwt>
<rwgt>
<wgt id='morphing_basis_vector_1'> +1.7619022e-04 </wgt>
<wgt id='morphing_basis_vector_2'> +1.1684484e-04 </wgt>
<wgt id='morphing_basis_vector_3'> +1.8539980e-04 </wgt>
<wgt id='morphing_basis_vector_4'> +1.2636170e-04 </wgt>
<wgt id='morphing_basis_vector_5'> +2.0202199e-04 </wgt>
</rwgt>
</event>
<event>
 4      1 +1.5130300e-07 1.57296300e+03 7.81860800e-03 8.27379000e-02
        2 -1    0    0  501    0 +0.0000000000e+00 +0.0000000000e+00 +1.8545183190e+03 1.8545183190e+03 0.0000000000e+00 0.0000e+00 -1.0000e+00
       -2 -1    0    0    0  501 -0.0000000000e+00 -0.0000000000e+00 -3.3353827533e+02 3.3353827533e+02 0.0000000000e+00 0.0000e+00 1.0000e+00
      -13  1    1    2    0    0 +4.3056328891e+02 +6.5713176504e+02 +8.1152323228e+02 1.1295029256e+03 0.0000000000e+00 0.0000e+00 1.0000e+00
       13  1    1    2    0    0 -4.3056328891e+02 -6.5713176504e+02 +7.0945681139e+02 1.0585536687e+03 0.0000000000e+00 0.0000e+00 -1.0000e+00
<mgrwt>
<rscale>  0 0.15729626E+04</rscale>
<asrwt>0</asrwt>
<pdfrwt beam="1">  1        2 0.28531050E+00 0.15729626E+04</pdfrwt>
<pdfrwt beam="2">  1       -2 0.51313582E-01 0.15729626E+04</pdfrwt>
<totfact> 0.34998440E+01</totfact>
</mgrwt>
<rwgt>
<wgt id='morphing_basis_vector_1'> +1.3874876e-04 </wgt>
<wgt id='morphing_basis_vector_2'> +1.0430616e-04 </wgt>
<wgt id='morphing_basis_vector_3'> +1.4647680e-04 </wgt>
<wgt id='morphing_basis_vector_4'> +8.3548711e-05 </wgt>
<wgt id='morphing_basis_vector_5'> +1.4935745e-04 </wgt>
</rwgt>
</event>
<event>
 4      1 +1.5130300e-07 1.64506900e+03 7.81860800e-03 8.23529900e-02
        2 -1    0    0  501    0 +0.0000000000e+00 +0.0000000000e+00 +2.6353324507e+03 2.6353324507e+03 0.0000000000e+00 0.0000e+00 -1.0000e+00
       -2 -1    0    0    0  501 -0.0000000000e+00 -0.0000000000e+00 -2.5672788444e+02 2.5672788444e+02 0.0000000000e+00 0.0000e+00 1.0000e+00
      -13  1    1    2    0    0 +5.8930836063e+02 +4.4875538605e+02 +5.6058659305e+02 9.2893652567e+02 0.0000000000e+00 0.0000e+00 1.0000e+00
       13  1    1    2    0    0 -5.8930836063e+02 -4.4875538605e+02 +1.8180179732e+03 1.9631238095e+03 0.0000000000e+00 0.0000e+00 -1.0000e+00
<mgrwt>
<rscale>  0 0.16450694E+04</rscale>
<asrwt>0</asrwt>
<pdfrwt beam="1">  1        2 0.40543574E+00 0.16450694E+04</pdfrwt>
<pdfrwt beam="2">  1       -2 0.39496600E-01 0.16450694E+04</pdfrwt>
<totfact> 0.20369123E+01</totfact>
</mgrwt>
<rwgt>
<wgt id='morphing_basis_vector_1'> +1.5924814e-04 </wgt>
<wgt id='morphing_basis_vector_2'> +1.0706624e-04 </wgt>
<wgt id='morphing_basis_vector_3'> +1.6731939e-04 </wgt>
<wgt id='morphing_basis_vector_4'> +1.1164180e-04 </wgt>
<wgt id='morphing_basis_vector_5'> +1.8053489e-04 </wgt>
</rwgt>
</event>
<event>
 4      1 +1.5130300e-07 1.56839700e+03 7.81860800e-03 8.27629800e-02
        2 -1    0    0  501    0 +0.0000000000e+00 +0.0000000000e+00 +2.6577948759e+03 2.6577948759e+03 0.0000000000e+00 0.0000e+00 -1.0000e+00
       -2 -1    0    0    0  501 -0.0000000000e+00 -0.0000000000e+00 -2.3138265263e+02 2.3138265263e+02 0.0000000000e+00 0.0000e+00 1.0000e+00
      -13  1    1    2    0    0 -6.4642459736e+02 +6.1283169392e+01 +4.0320223898e+02 7.6432482129e+02 0.0000000000e+00 0.0000e+00 1.0000e+00
       13  1    1    2    0    0 +6.4642459736e+02 -6.1283169392e+01 +2.0232099843e+03 2.1248527073e+03 0.0000000000e+00 0.0000e+00 -1.0000e+00
<mgrwt>
<rscale>  0 0.15683974E+04</rscale>
<asrwt>0</asrwt>
<pdfrwt beam="1">  1        2 0.40889150E+00 0.15683974E+04</pdfrwt>
<pdfrwt beam="2">  1       -2 0.35597333E-01 0.15683974E+04</pdfrwt>
<totfact> 0.24082909E+01</totfact>
</mgrwt>
<rwgt>
<wgt id='morphing_basis_vector_1'> +1.3195788e-04 </wgt>
<wgt id='morphing_basis_vector_2'> +8.7526091e-05 </wgt>
<wgt id='morphing_basis_vector_3'> +1.3777650e-04 </wgt>
<wgt id='morphing_basis_vector_4'> +9.2451838e-05 </wgt>
<wgt id='morphing_basis_vector_5'> +1.4831846e-04 </wgt>
</rwgt>
</event>
<event>
 4      1 +1.5130300e-07 1.84747900e+03 7.81860800e-03 8.13723200e-02
        2 -1    0    0  501    0 +0.0000000000e+00 +0.0000000000e+00 +3.3275659173e+03 3.3275659173e+03 0.0000000000e+00 0.0000e+00 -1.0000e+00
       -2 -1    0    0    0  501 -0.0000000000e+00 -0.0000000000e+00 -2.5643207684e+02 2.5643207684e+02 0.0000000000e+00 0.0000e+00 1.0000e+00
      -13  1    1    2    0    0 -8.5106847164e+02 +2.1574962881e+02 +9.7860079985e+02 1.3147338024e+03 0.0000000000e+00 0.0000e+00 1.0000e+00
       13  1    1    2    0    0 +8.5106847164e+02 -2.1574962881e+02 +2.0925330407e+03 2.2692641918e+03 0.0000000000e+00 0.0000e+00 -1.0000e+00
<mgrwt>
<rscale>  0 0.18474790E+04</rscale>
<asrwt>0</asrwt>
<pdfrwt beam="1">  1        2 0.51193319E+00 0.18474790E+04</pdfrwt>
<pdfrwt beam="2">  1       -2 0.39451091E-01 0.18474790E+04</pdfrwt>
<totfact> 0.71343353E+00</totfact>
</mgrwt>
<rwgt>
<wgt id='morphing_basis_vector_1'> +2.5138851e-04 </wgt>
<wgt id='morphing_basis_vector_2'> +1.7283170e-04 </wgt>
<wgt id='morphing_basis_vector_3'> +2.6757714e-04 </wgt>
<wgt id='morphing_basis_vector_4'> +1.7742464e-04 </wgt>
<wgt id='morphing_basis_vector_5'> +2.9057790e-04 </wgt>
</rwgt>
</event>
<event>
 4      1 +1.5130300e-07 1.63053000e+03 7.81860800e-03 8.24289500e-02
        2 -1    0    0  501    0 +0.0000000000e+00 +0.0000000000e+00 +4.7916792742e+02 4.7916792742e+02 0.0000000000e+00 0.0000e+00 -1.0000e+00
       -2 -1    0    0    0  501 -0.0000000000e+00 -0.0000000000e+00 -1.3871067806e+03 1.3871067806e+03 0.0000000000e+00 0.0000e+00 1.0000e+00
      -13  1    1    2    0    0 +3.2823663110e+02 -4.8794626159e+02 -1.1002539950e+03 1.2475534833e+03 0.0000000000e+00 0.0000e+00 1.0000e+00
       13  1    1    2    0    0 -3.2823663110e+02 +4.8794626159e+02 +1.9231514179e+02 6.1872122475e+02 0.0000000000e+00 0.0000e+00 -1.0000e+00
<mgrwt>
<rscale>  0 0.16305301E+04</rscale>
<asrwt>0</asrwt>
<pdfrwt beam="1">  1        2 0.73718145E-01 0.16305301E+04</pdfrwt>
<pdfrwt beam="2">  1       -2 0.21340104E+00 0.16305301E+04</pdfrwt>
<totfact> 0.71032541E+00</totfact>
</mgrwt>
<rwgt>
<wgt id='morphing_basis_vector_1'> +1.5311535e-04 </wgt>
<wgt id='morphing_basis_vector_2'> +1.0118031e-04 </wgt>
<wgt id='morphing_basis_vector_3'> +1.6048893e-04 </wgt>
<wgt id='morphing_basis_vector_4'> +1.0904813e-04 </wgt>
<wgt id='morphing_basis_vector_5'> +1.7415633e-04 </wgt>
</rwgt>
</event>
<event>
 4      1 +1.5130300e-07 1.67570400e+03 7.81860800e-03 8.21955600e-02
        2 -1    0    0  501    0 +0.0000000000e+00 +0.0000000000e+00 +7.0897750600e+02 7.0897750600e+02 0.0000000000e+00 0.0000e+00 -1.0000e+00
       -2 -1    0    0    0  501 -0.0000000000e+00 -0.0000000000e+00 -9.9015293665e+02 9.9015293665e+02 0.0000000000e+00 0.0000e+00 1.0000e+00
      -13  1    1    2    0    0 -2.5714335339e+02 -1.4746082894e+02 -9.3520695298e+02 9.8106036775e+02 0.0000000000e+00 0.0000e+00 1.0000e+00
       13  1    1    2    0    0 +2.5714335339e+02 +1.4746082894e+02 +6.5403152233e+02 7.1807007490e+02 0.0000000000e+00 0.0000e+00 -1.0000e+00
<mgrwt>
<rscale>  0 0.16757042E+04</rscale>
<asrwt>0</asrwt>
<pdfrwt beam="1">  1        2 0.10907346E+00 0.16757042E+04</pdfrwt>
<pdfrwt beam="2">  1       -2 0.15233122E+00 0.16757042E+04</pdfrwt>
<totfact> 0.13001195E+01</totfact>
</mgrwt>
<rwgt>
<wgt id='morphing_basis_vector_1'> +1.7003765e-04 </wgt>
<wgt id='morphing_basis_vector_2'> +1.1206018e-04 </wgt>
<wgt id='morphing_basis_vector_3'> +1.7867486e-04 </wgt>
<wgt id='morphing_basis_vector_4'> +1.2244489e-04 </wgt>
<wgt id='morphing_basis_vector_5'> +1.9493906e-04 </wgt>
</rwgt>
</event>
<event>
 4      1 +1.5130300e-07 1.60305100e+03 7.81860800e-03 8.25747500e-02
        2 -1    0    0  501    0 +0.0000000000e+00 +0.0000000000e+00 +2.2432835228e+03 2.2432835228e+03 0.0000000000e+00 0.0000e+00 -1.0000e+00
       -2 -1    0    0    0  501 -0.0000000000e+00 -0.0000000000e+00 -2.8638529213e+02 2.8638529213e+02 0.0000000000e+00 0.0000e+00 1.0000e+00
      -13  1    1    2    0    0 +3.6469664061e+02 +6.9447167141e+02 +1.2384603247e+03 1.4659735734e+03 0.0000000000e+00 0.0000e+00 1.0000e+00
       13  1    1    2    0    0 -3.6469664061e+02 -6.9447167141e+02 +7.1843790588e+02 1.0636952414e+03 0.0000000000e+00 0.0000e+00 -1.0000e+00
<mgrwt>
<rscale>  0 0.16030513E+04</rscale>
<asrwt>0</asrwt>
<pdfrwt beam="1">  1        2 0.34512053E+00 0.16030513E+04</pdfrwt>
<pdfrwt beam="2">  1       -2 0.44059277E-01 0.16030513E+04</pdfrwt>
<totfact> 0.28323735E+01</totfact>
</mgrwt>
<rwgt>
<wgt id='morphing_basis_vector_1'> +1.5379716e-04 </wgt>
<wgt id='morphing_basis_vector_2'> +1.2570313e-04 </wgt>
<wgt id='morphing_basis_vector_3'> +1.6407558e-04 </wgt>
<wgt id='morphing_basis_vector_4'> +8.1818140e-05 </wgt>
<wgt id='morphing_basis_vector_5'> +1.6086539e-04 </wgt>
</rwgt>
</event>
<event>
 4      1 +1.5130300e-07 1.72373800e+03 7.81860800e-03 8.19555200e-02
        2 -1    0    0  501    0 +0.0000000000e+00 +0.0000000000e+00 +1.8563627964e+03 1.8563627964e+03 0.0000000000e+00 0.0000e+00 1.0000e+00
       -2 -1    0    0    0  501 -0.0000000000e+00 -0.0000000000e+00 -4.0014722634e+02 4.0014722634e+02 0.0000000000e+00 0.0000e+00 -1.0000e+00
      -13  1    1    2    0    0 +5.7002705748e+02 -5.9217977472e+02 +3.8872866296e+02 9.0924018018e+02 0.0000000000e+00 0.0000e+00 -1.0000e+00
       13  1    1    2    0    0 -5.7002705748e+02 +5.9217977472e+02 +1.0674869071e+03 1.3472698425e+03 0.0000000000e+00 0.0000e+00 1.0000e+00
<mgrwt>
<rscale>  0 0.17237383E+04</rscale>
<asrwt>0</asrwt>
<pdfrwt beam="1">  1        2 0.28559427E+00 0.17237383E+04</pdfrwt>
<pdfrwt beam="2">  1       -2 0.61561113E-01 0.17237383E+04</pdfrwt>
<totfact> 0.23857300E+01</totfact>
</mgrwt>
<rwgt>
<wgt id='morphing_basis_vector_1'> +1.9193417e-04 </wgt>
<wgt id='morphing_basis_vector_2'> +1.3166345e-04 </wgt>
<wgt id='morphing_basis_vector_3'> +2.0297724e-04 </wgt>
<wgt id='morphing_basis_vector_4'> +1.3337745e-04 </wgt>
<wgt id='morphing_basis_vector_5'> +2.1864755e-04 </wgt>
</rwgt>
</event>
<event>
 4      1 +1.5130300e-07 1.67135600e+03 7.81860800e-03 8.22176900e-02
        2 -1    0    0  501    0 +0.0000000000e+00 +0.0000000000e+00 +1.5219936112e+03 1.5219936112e+03 0.0000000000e+00 0.0000e+00 1.0000e+00
       -2 -1    0    0    0  501 -0.0000000000e+00 -0.0000000000e+00 -4.5884412414e+02 4.5884412414e+02 0.0000000000e+00 0.0000e+00 -1.0000e+00
      -13  1    1    2    0    0 +3.6057566142e+02 +6.6985354175e-01 -3.6190558704e+02 5.1087269475e+02 0.0000000000e+00 0.0000e+00 -1.0000e+00
       13  1    1    2    0    0 -3.6057566142e+02 -6.6985354175e-01 +1.4250550741e+03 1.4699650406e+03 0.0000000000e+00 0.0000e+00 1.0000e+00
<mgrwt>
<rscale>  0 0.16713561E+04</rscale>
<asrwt>0</asrwt>
<pdfrwt beam="1">  1        2 0.23415286E+00 0.16713561E+04</pdfrwt>
<pdfrwt beam="2">  1       -2 0.70591404E-01 0.16713561E+04</pdfrwt>
<totfact> 0.27580489E+01</totfact>
</mgrwt>
<rwgt>
<wgt id='morphing_basis_vector_1'> +1.6834010e-04 </wgt>
<wgt id='morphing_basis_vector_2'> +1.1094692e-04 </wgt>
<wgt id='morphing_basis_vector_3'> +1.7684687e-04 </wgt>
<wgt id='morphing_basis_vector_4'> +1.2112379e-04 </wgt>
<wgt id='morphing_basis_vector_5'> +1.9286387e-04 </wgt>
</rwgt>
</event>
<event>
 4      1 +1.5130300e-07 1.67543300e+03 7.81860800e-03 8.21969300e-02
        2 -1    0    0  501    0 +0.0000000000e+00 +0.0000000000e+00 +2.2637377820e+03 2.2637377820e+03 0.0000000000e+00 0.0000e+00 1.0000e+00
       -2 -1    0    0    0  501 -0.0000000000e+00 -0.0000000000e+00 -3.1000458602e+02 3.1000458602e+02 0.0000000000e+00 0.0000e+00 -1.0000e+00
      -13  1    1    2    0    0 -6.7875834947e+02 -3.8063143464e+02 +1.4532658870e+03 1.6485068773e+03 0.0000000000e+00 0.0000e+00 -1.0000e+00
       13  1    1    2    0    0 +6.7875834947e+02 +3.8063143464e+02 +5.0046730893e+02 9.2523549074e+02 0.0000000000e+00 0.0000e+00 1.0000e+00
<mgrwt>
<rscale>  0 0.16754332E+04</rscale>
<asrwt>0</asrwt>
<pdfrwt beam="1">  1        2 0.34826734E+00 0.16754332E+04</pdfrwt>
<pdfrwt beam="2">  1       -2 0.47693015E-01 0.16754332E+04</pdfrwt>
<totfact> 0.23515327E+01</totfact>
</mgrwt>
<rwgt>
<wgt id='morphing_basis_vector_1'> +1.9134796e-04 </wgt>
<wgt id='morphing_basis_vector_2'> +1.7564117e-04 </wgt>
<wgt id='morphing_basis_vector_3'> +2.0800332e-04 </wgt>
<wgt id='morphing_basis_vector_4'> +8.1214819e-05 </wgt>
<wgt id='morphing_basis_vector_5'> +1.9166779e-04 </wgt>
</rwgt>
</event>
<event>
 4      1 +1.5130300e-07 1.56421100e+03 7.81860800e-03 8.27860600e-02
        2 -1    0    0  501    0 +0.0000000000e+00 +0.0000000000e+00 +4.8099031178e+03 4.8099031178e+03 0.0000000000e+00 0.0000e+00 1.0000e+00
       -2 -1    0    0    0  501 -0.0000000000e+00 -0.0000000000e+00 -1.2717279946e+02 1.2717279946e+02 0.0000000000e+00 0.0000e+00 -1.0000e+00
      -13  1    1    2    0    0 +6.1077305928e+02 +2.5064276356e+02 +1.0178992239e+03 1.2132536235e+03 0.0000000000e+00 0.0000e+00 -1.0000e+00
       13  1    1    2    0    0 -6.1077305928e+02 -2.5064276356e+02 +3.6648310944e+03 3.7238222938e+03 0.0000000000e+00 0.0000e+00 1.0000e+00
<mgrwt>
<rscale>  0 0.15642108E+04</rscale>
<asrwt>0</asrwt>
<pdfrwt beam="1">  1        2 0.73998495E+00 0.15642108E+04</pdfrwt>
<pdfrwt beam="2">  1       -2 0.19565050E-01 0.15642108E+04</pdfrwt>
<totfact> 0.12201824E+00</totfact>
</mgrwt>
<rwgt>
<wgt id='morphing_basis_vector_1'> +1.3066162e-04 </wgt>
<wgt id='morphing_basis_vector_2'> +8.6792583e-05 </wgt>
<wgt id='morphing_basis_vector_3'> +1.3639789e-04 </wgt>
<wgt id='morphing_basis_vector_4'> +9.1320947e-05 </wgt>
<wgt id='morphing_basis_vector_5'> +1.4668019e-04 </wgt>
</rwgt>
</event>
<event>
 4      1 +1.5130300e-07 1.69181500e+03 7.81860800e-03 8.21141400e-02
        2 -1    0    0  501    0 +0.0000000000e+00 +0.0000000000e+00 +6.5838611672e+02 6.5838611672e+02 0.0000000000e+00 0.0000e+00 -1.0000e+00
       -2 -1    0    0    0  501 -0.0000000000e+00 -0.0000000000e+00 -1.0868383560e+03 1.0868383560e+03 0.0000000000e+00 0.0000e+00 1.0000e+00
      -13  1    1    2    0    0 +2.1275085147e+02 +7.7482566919e+01 -1.0549981670e+03 1.0790215963e+03 0.0000000000e+00 0.0000e+00 1.0000e+00
       13  1    1    2    0    0 -2.1275085147e+02 -7.7482566919e+01 +6.2654592772e+02 6.6620287640e+02 0.0000000000e+00 0.0000e+00 -1.0000e+00
<mgrwt>
<rscale>  0 0.16918147E+04</rscale>
<asrwt>0</asrwt>
<pdfrwt beam="1">  1        2 0.10129017E+00 0.16918147E+04</pdfrwt>
<pdfrwt beam="2">  1       -2 0.16720590E+00 0.16918147E+04</pdfrwt>
<totfact> 0.10792781E+01</totfact>
</mgrwt>
<rwgt>
<wgt id='morphing_basis_vector_1'> +1.7647512e-04 </wgt>
<wgt id='morphing_basis_vector_2'> +1.1636110e-04 </wgt>
<wgt id='morphing_basis_vector_3'> +1.8561924e-04 </wgt>
<wgt id='morphing_basis_vector_4'> +1.2736704e-04 </wgt>
<wgt id='morphing_basis_vector_5'> +2.0276786e-04 </wgt>
</rwgt>
</event>
<event>
 4      1 +1.5130300e-07 1.69630900e+03 7.81860800e-03 8.20915900e-02
        2 -1    0    0  501    0 +0.0000000000e+00 +0.0000000000e+00 +8.9264421745e+02 8.9264421745e+02 0.0000000000e+00 0.0000e+00 1.0000e+00
       -2 -1    0    0    0  501 -0.0000000000e+00 -0.0000000000e+00 -8.0588204626e+02 8.0588204626e+02 0.0000000000e+00 0.0000e+00 -1.0000e+00
      -13  1    1    2    0    0 +4.9233171889e+02 +4.0912303886e+02 -5.1375775538e+02 8.2080400435e+02 0.0000000000e+00 0.0000e+00 -1.0000e+00
       13  1    1    2    0    0 -4.9233171889e+02 -4.0912303886e+02 +6.0051992657e+02 8.7772225935e+02 0.0000000000e+00 0.0000e+00 1.0000e+00
<mgrwt>
<rscale>  0 0.16963089E+04</rscale>
<asrwt>0</asrwt>
<pdfrwt beam="1">  1        2 0.13732988E+00 0.16963089E+04</pdfrwt>
<pdfrwt beam="2">  1       -2 0.12398185E+00 0.16963089E+04</pdfrwt>
<totfact> 0.16998241E+01</totfact>
</mgrwt>
<rwgt>
<wgt id='morphing_basis_vector_1'> +1.7861210e-04 </wgt>
<wgt id='morphing_basis_vector_2'> +1.1850005e-04 </wgt>
<wgt id='morphing_basis_vector_3'> +1.8801853e-04 </wgt>
<wgt id='morphing_basis_vector_4'> +1.2817109e-04 </wgt>
<wgt id='morphing_basis_vector_5'> +2.0494727e-04 </wgt>
</rwgt>
</event>
<event>
 4      1 +1.5130300e-07 1.56438200e+03 7.81860800e-03 8.27851100e-02
        2 -1    0    0  501    0 +0.0000000000e+00 +0.0000000000e+00 +1.7767673040e+03 1.7767673040e+03 0.0000000000e+00 0.0000e+00 -1.0000e+00
       -2 -1    0    0    0  501 -0.0000000000e+00 -0.0000000000e+00 -3.4434587410e+02 3.4434587410e+02 0.0000000000e+00 0.0000e+00 1.0000e+00
      -13  1    1    2    0    0 +7.0418153546e+02 -6.2000569413e+01 +2.6223034276e+02 7.5397643077e+02 0.0000000000e+00 0.0000e+00 1.0000e+00
       13  1    1    2    0    0 -7.0418153546e+02 +6.2000569413e+01 +1.1701910872e+03 1.3671367473e+03 0.0000000000e+00 0.0000e+00 -1.0000e+00
<mgrwt>
<rscale>  0 0.15643817E+04</rscale>
<asrwt>0</asrwt>
<pdfrwt beam="1">  1        2 0.27334881E+00 0.15643817E+04</pdfrwt>
<pdfrwt beam="2">  1       -2 0.52976289E-01 0.15643817E+04</pdfrwt>
<totfact> 0.36321621E+01</totfact>
</mgrwt>
<rwgt>
<wgt id='morphing_basis_vector_1'> +1.3107098e-04 </wgt>
<wgt id='morphing_basis_vector_2'> +8.7884282e-05 </wgt>
<wgt id='morphing_basis_vector_3'> +1.3693032e-04 </wgt>
<wgt id='morphing_basis_vector_4'> +9.0693468e-05 </wgt>
<wgt id='morphing_basis_vector_5'> +1.4669624e-04 </wgt>
</rwgt>
</event>
<event>
 4      1 +1.5130300e-07 1.66589800e+03 7.81860800e-03 8.22455700e-02
        2 -1    0    0  501    0 +0.0000000000e+00 +0.0000000000e+00 +2.0724913639e+03 2.0724913639e+03 0.0000000000e+00 0.0000e+00 -1.0000e+00
       -2 -1    0    0    0  501 -0.0000000000e+00 -0.0000000000e+00 -3.3476826130e+02 3.3476826130e+02 0.0000000000e+00 0.0000e+00 1.0000e+00
      -13  1    1    2    0    0 -5.1406638037e+01 +7.0475795850e+02 +2.3161195338e+02 7.4361987565e+02 0.0000000000e+00 0.0000e+00 1.0000e+00
       13  1    1    2    0    0 +5.1406638037e+01 -7.0475795850e+02 +1.5061111492e+03 1.6636397496e+03 0.0000000000e+00 0.0000e+00 -1.0000e+00
<mgrwt>
<rscale>  0 0.16658984E+04</rscale>
<asrwt>0</asrwt>
<pdfrwt beam="1">  1        2 0.31884482E+00 0.16658984E+04</pdfrwt>
<pdfrwt beam="2">  1       -2 0.51502810E-01 0.16658984E+04</pdfrwt>
<totfact> 0.26017897E+01</totfact>
</mgrwt>
<rwgt>
<wgt id='morphing_basis_vector_1'> +1.6682632e-04 </wgt>
<wgt id='morphing_basis_vector_2'> +1.1134125e-04 </wgt>
<wgt id='morphing_basis_vector_3'> +1.7539361e-04 </wgt>
<wgt id='morphing_basis_vector_4'> +1.1833168e-04 </wgt>
<wgt id='morphing_basis_vector_5'> +1.9019476e-04 </wgt>
</rwgt>
</event>
<event>
 4      1 +1.5130300e-07 1.61927900e+03 7.81860800e-03 8.24882900e-02
        2 -1    0    0  501    0 +0.0000000000e+00 +0.0000000000e+00 +7.1409243305e+02 7.1409243305e+02 0.0000000000e+00 0.0000e+00 1.0000e+00
       -2 -1    0    0    0  501 -0.0000000000e+00 -0.0000000000e+00 -9.1797111934e+02 9.1797111934e+02 0.0000000000e+00 0.0000e+00 -1.0000e+00
      -13  1    1    2    0    0 -5.1485524647e+02 +1.1135372905e+02 -7.2164376910e+02 8.9344574949e+02 0.0000000000e+00 0.0000e+00 -1.0000e+00
       13  1    1    2    0    0 +5.1485524647e+02 -1.1135372905e+02 +5.1776508282e+02 7.3861780291e+02 0.0000000000e+00 0.0000e+00 1.0000e+00
<mgrwt>
<rscale>  0 0.16192791E+04</rscale>
<asrwt>0</asrwt>
<pdfrwt beam="1">  1        2 0.10986037E+00 0.16192791E+04</pdfrwt>
<pdfrwt beam="2">  1       -2 0.14122633E+00 0.16192791E+04</pdfrwt>
<totfact> 0.16036333E+01</totfact>
</mgrwt>
<rwgt>
<wgt id='morphing_basis_vector_1'> +1.4897231e-04 </wgt>
<wgt id='morphing_basis_vector_2'> +9.8198724e-05 </wgt>
<wgt id='morphing_basis_vector_3'> +1.5600120e-04 </wgt>
<wgt id='morphing_basis_vector_4'> +1.0614520e-04 </wgt>
<wgt id='morphing_basis_vector_5'> +1.6926666e-04 </wgt>
</rwgt>
</event>
<event>
 4      1 +1.5130300e-07 1.66326300e+03 7.81860800e-03 8.22590700e-02
        2 -1    0    0  501    0 +0.0000000000e+00 +0.0000000000e+00 +1.5051775775e+03 1.5051775775e+03 0.0000000000e+00 0.0000e+00 -1.0000e+00
       -2 -1    0    0    0  501 -0.0000000000e+00 -0.0000000000e+00 -4.5948805187e+02 4.5948805187e+02 0.0000000000e+00 0.0000e+00 1.0000e+00
      -13  1    1    2    0    0 -3.4219031562e+02 -7.5717923481e+02 +5.6370353453e+02 1.0040798178e+03 0.0000000000e+00 0.0000e+00 1.0000e+00
       13  1    1    2    0    0 +3.4219031562e+02 +7.5717923481e+02 +4.8198599112e+02 9.6058581156e+02 0.0000000000e+00 0.0000e+00 -1.0000e+00
<mgrwt>
<rscale>  0 0.16632632E+04</rscale>
<asrwt>0</asrwt>
<pdfrwt beam="1">  1        2 0.23156578E+00 0.16632632E+04</pdfrwt>
<pdfrwt beam="2">  1       -2 0.70690470E-01 0.16632632E+04</pdfrwt>
<totfact> 0.28118960E+01</totfact>
</mgrwt>
<rwgt>
<wgt id='morphing_basis_vector_1'> +1.7216290e-04 </wgt>
<wgt id='morphing_basis_vector_2'> +1.2955099e-04 </wgt>
<wgt id='morphing_basis_vector_3'> +1.8300671e-04 </wgt>
<wgt id='morphing_basis_vector_4'> +1.0536678e-04 </wgt>
<wgt id='morphing_basis_vector_5'> +1.8802945e-04 </wgt>
</rwgt>
</event>
<event>
 4      1 +1.5130300e-07 1.77810800e+03 7.81860800e-03 8.16932800e-02
        2 -1    0    0  501    0 +0.0000000000e+00 +0.0000000000e+00 +1.0812836004e+03 1.0812836004e+03 0.0000000000e+00 0.0000e+00 1.0000e+00
       -2 -1    0    0    0  501 -0.0000000000e+00 -0.0000000000e+00 -7.3099904736e+02 7.3099904736e+02 0.0000000000e+00 0.0000e+00 -1.0000e+00
      -13  1    1    2    0    0 +2.5777300277e+00 +8.7475803373e+02 +3.3696730803e+02 9.3741945198e+02 0.0000000000e+00 0.0000e+00 1.0000e+00
       13  1    1    2    0    0 -2.5777300277e+00 -8.7475803373e+02 +1.3317244976e+01 8.7486319575e+02 0.0000000000e+00 0.0000e+00 -1.0000e+00
<mgrwt>
<rscale>  0 0.17781083E+04</rscale>
<asrwt>0</asrwt>
<pdfrwt beam="1">  1        2 0.16635132E+00 0.17781083E+04</pdfrwt>
<pdfrwt beam="2">  1       -2 0.11246139E+00 0.17781083E+04</pdfrwt>
<totfact> 0.16530292E+01</totfact>
</mgrwt>
<rwgt>
<wgt id='morphing_basis_vector_1'> +2.2875562e-04 </wgt>
<wgt id='morphing_basis_vector_2'> +1.8488550e-04 </wgt>
<wgt id='morphing_basis_vector_3'> +2.4684073e-04 </wgt>
<wgt id='morphing_basis_vector_4'> +1.2785870e-04 </wgt>
<wgt id='morphing_basis_vector_5'> +2.4655230e-04 </wgt>
</rwgt>
</event>
<event>
 4      1 +1.5130300e-07 1.59607700e+03 7.81860800e-03 8.26122400e-02
        2 -1    0    0  501    0 +0.0000000000e+00 +0.0000000000e+00 +1.4115159138e+03 1.4115159138e+03 0.0000000000e+00 0.0000e+00 -1.0000e+00
       -2 -1    0    0    0  501 -0.0000000000e+00 -0.0000000000e+00 -4.5119246170e+02 4.5119246170e+02 0.0000000000e+00 0.0000e+00 1.0000e+00
      -13  1    1    2    0    0 -2.0662847062e+02 -2.5107687522e+02 -3.7037222027e+02 4.9285951719e+02 0.0000000000e+00 0.0000e+00 1.0000e+00
       13  1    1    2    0    0 +2.0662847062e+02 +2.5107687522e+02 +1.3306956723e+03 1.3698488583e+03 0.0000000000e+00 0.0000e+00 -1.0000e+00
<mgrwt>
<rscale>  0 0.15960769E+04</rscale>
<asrwt>0</asrwt>
<pdfrwt beam="1">  1        2 0.21715629E+00 0.15960769E+04</pdfrwt>
<pdfrwt beam="2">  1       -2 0.69414225E-01 0.15960769E+04</pdfrwt>
<totfact> 0.33190398E+01</totfact>
</mgrwt>
<rwgt>
<wgt id='morphing_basis_vector_1'> +1.4077253e-04 </wgt>
<wgt id='morphing_basis_vector_2'> +9.2482378e-05 </wgt>
<wgt id='morphing_basis_vector_3'> +1.4714813e-04 </wgt>
<wgt id='morphing_basis_vector_4'> +1.0019527e-04 </wgt>
<wgt id='morphing_basis_vector_5'> +1.5949450e-04 </wgt>
</rwgt>
</event>
<event>
 4      1 +1.5130300e-07 1.61115200e+03 7.81860800e-03 8.25314600e-02
        2 -1    0    0  501    0 +0.0000000000e+00 +0.0000000000e+00 +1.7912579487e+03 1.7912579487e+03 0.0000000000e+00 0.0000e+00 1.0000e+00
       -2 -1    0    0    0  501 -0.0000000000e+00 -0.0000000000e+00 -3.6228900817e+02 3.6228900817e+02 0.0000000000e+00 0.0000e+00 -1.0000e+00
      -13  1    1    2    0    0 -7.0836963821e+02 +1.5710745792e+02 +2.4668987261e+02 7.6637209691e+02 0.0000000000e+00 0.0000e+00 -1.0000e+00
       13  1    1    2    0    0 +7.0836963821e+02 -1.5710745792e+02 +1.1822790679e+03 1.3871748600e+03 0.0000000000e+00 0.0000e+00 1.0000e+00
<mgrwt>
<rscale>  0 0.16111525E+04</rscale>
<asrwt>0</asrwt>
<pdfrwt beam="1">  1        2 0.27557814E+00 0.16111525E+04</pdfrwt>
<pdfrwt beam="2">  1       -2 0.55736771E-01 0.16111525E+04</pdfrwt>
<totfact> 0.32075079E+01</totfact>
</mgrwt>
<rwgt>
<wgt id='morphing_basis_vector_1'> +1.4688562e-04 </wgt>
<wgt id='morphing_basis_vector_2'> +9.8622776e-05 </wgt>
<wgt id='morphing_basis_vector_3'> +1.5397277e-04 </wgt>
<wgt id='morphing_basis_vector_4'> +1.0246159e-04 </wgt>
<wgt id='morphing_basis_vector_5'> +1.6567599e-04 </wgt>
</rwgt>
</event>
<event>
 4      1 +1.5130300e-07 1.74829700e+03 7.81860800e-03 8.18358700e-02
        2 -1    0    0  501    0 +0.0000000000e+00 +0.0000000000e+00 +1.6606748180e+03 1.6606748180e+03 0.0000000000e+00 0.0000e+00 -1.0000e+00
       -2 -1    0    0    0  501 -0.0000000000e+00 -0.0000000000e+00 -4.6013534684e+02 4.6013534684e+02 0.0000000000e+00 0.0000e+00 1.0000e+00
      -13  1    1    2    0    0 +6.2480469286e+02 -1.4087703485e+02 -1.2138897094e+02 6.5189149820e+02 0.0000000000e+00 0.0000e+00 1.0000e+00
       13  1    1    2    0    0 -6.2480469286e+02 +1.4087703485e+02 +1.3219284421e+03 1.4689186666e+03 0.0000000000e+00 0.0000e+00 -1.0000e+00
<mgrwt>
<rscale>  0 0.17482965E+04</rscale>
<asrwt>0</asrwt>
<pdfrwt beam="1">  1        2 0.25548843E+00 0.17482965E+04</pdfrwt>
<pdfrwt beam="2">  1       -2 0.70790054E-01 0.17482965E+04</pdfrwt>
<totfact> 0.22795280E+01</totfact>
</mgrwt>
<rwgt>
<wgt id='morphing_basis_vector_1'> +2.0082192e-04 </wgt>
<wgt id='morphing_basis_vector_2'> +1.3335028e-04 </wgt>
<wgt id='morphing_basis_vector_3'> +2.1200991e-04 </wgt>
<wgt id='morphing_basis_vector_4'> +1.4519067e-04 </wgt>
<wgt id='morphing_basis_vector_5'> +2.3202465e-04 </wgt>
</rwgt>
</event>
<event>
 4      1 +1.5130300e-07 1.81003200e+03 7.81860800e-03 8.15437300e-02
        2 -1    0    0  501    0 +0.0000000000e+00 +0.0000000000e+00 +1.0463999226e+03 1.0463999226e+03 0.0000000000e+00 0.0000e+00 -1.0000e+00
       -2 -1    0    0    0  501 -0.0000000000e+00 -0.0000000000e+00 -7.8273498600e+02 7.8273498600e+02 0.0000000000e+00 0.0000e+00 1.0000e+00
      -13  1    1    2    0    0 +7.6906506898e+02 +1.5637711081e+02 -3.2363369568e+02 8.4891321705e+02 0.0000000000e+00 0.0000e+00 1.0000e+00
       13  1    1    2    0    0 -7.6906506898e+02 -1.5637711081e+02 +5.8729863228e+02 9.8022169155e+02 0.0000000000e+00 0.0000e+00 -1.0000e+00
<mgrwt>
<rscale>  0 0.18100319E+04</rscale>
<asrwt>0</asrwt>
<pdfrwt beam="1">  1        2 0.16098460E+00 0.18100319E+04</pdfrwt>
<pdfrwt beam="2">  1       -2 0.12042077E+00 0.18100319E+04</pdfrwt>
<totfact> 0.14524081E+01</totfact>
</mgrwt>
<rwgt>
<wgt id='morphing_basis_vector_1'> +2.3061050e-04 </wgt>
<wgt id='morphing_basis_vector_2'> +1.5504028e-04 </wgt>
<wgt id='morphing_basis_vector_3'> +2.4449025e-04 </wgt>
<wgt id='morphing_basis_vector_4'> +1.6602092e-04 </wgt>
<wgt id='morphing_basis_vector_5'> +2.6741836e-04 </wgt>
</rwgt>
</event>
<event>
 4      1 +1.5130300e-07 1.59855400e+03 7.81860800e-03 8.25989000e-02
        2 -1    0    0  501    0 +0.0000000000e+00 +0.0000000000e+00 +2.2419709655e+03 2.2419709655e+03 0.0000000000e+00 0.0000e+00 1.0000e+00
       -2 -1    0    0    0  501 -0.0000000000e+00 -0.0000000000e+00 -2.8494740147e+02 2.8494740147e+02 0.0000000000e+00 0.0000e+00 -1.0000e+00
      -13  1    1    2    0    0 -2.2530326322e+02 -6.7749590579e+02 +4.1058030493e+02 8.2361304602e+02 0.0000000000e+00 0.0000e+00 -1.0000e+00
       13  1    1    2    0    0 +2.2530326322e+02 +6.7749590579e+02 +1.5464432591e+03 1.7033053210e+03 0.0000000000e+00 0.0000e+00 1.0000e+00
<mgrwt>
<rscale>  0 0.15985541E+04</rscale>
<asrwt>0</asrwt>
<pdfrwt beam="1">  1        2 0.34491860E+00 0.15985541E+04</pdfrwt>
<pdfrwt beam="2">  1       -2 0.43838063E-01 0.15985541E+04</pdfrwt>
<totfact> 0.28657958E+01</totfact>
</mgrwt>
<rwgt>
<wgt id='morphing_basis_vector_1'> +1.4242143e-04 </wgt>
<wgt id='morphing_basis_vector_2'> +9.5431625e-05 </wgt>
<wgt id='morphing_basis_vector_3'> +1.4914035e-04 </wgt>
<wgt id='morphing_basis_vector_4'> +9.9317893e-05 </wgt>
<wgt id='morphing_basis_vector_5'> +1.6040408e-04 </wgt>
</rwgt>
</event>
<event>
 4      1 +1.5130300e-07 1.62152800e+03 7.81860800e-03 8.24763900e-02
        2 -1    0    0  501    0 +0.0000000000e+00 +0.0000000000e+00 +1.8416326024e+03 1.8416326024e+03 0.0000000000e+00 0.0000e+00 -1.0000e+00
       -2 -1    0    0    0  501 -0.0000000000e+00 -0.0000000000e+00 -3.5693229123e+02 3.5693229123e+02 0.0000000000e+00 0.0000e+00 1.0000e+00
      -13  1    1    2    0    0 +3.0075976190e+02 +5.7474838582e+02 +8.2914109221e+01 6.5396245373e+02 0.0000000000e+00 0.0000e+00 1.0000e+00
       13  1    1    2    0    0 -3.0075976190e+02 -5.7474838582e+02 +1.4017862019e+03 1.5446024399e+03 0.0000000000e+00 0.0000e+00 -1.0000e+00
<mgrwt>
<rscale>  0 0.16215279E+04</rscale>
<asrwt>0</asrwt>
<pdfrwt beam="1">  1        2 0.28332809E+00 0.16215279E+04</pdfrwt>
<pdfrwt beam="2">  1       -2 0.54912661E-01 0.16215279E+04</pdfrwt>
<totfact> 0.30957657E+01</totfact>
</mgrwt>
<rwgt>
<wgt id='morphing_basis_vector_1'> +1.5003907e-04 </wgt>
<wgt id='morphing_basis_vector_2'> +9.9519764e-05 </wgt>
<wgt id='morphing_basis_vector_3'> +1.5722364e-04 </wgt>
<wgt id='morphing_basis_vector_4'> +1.0625274e-04 </wgt>
<wgt id='morphing_basis_vector_5'> +1.7020025e-04 </wgt>
</rwgt>
</event>
<event>
 4      1 +1.5130300e-07 1.74927800e+03 7.81860800e-03 8.18311300e-02
        2 -1    0    0  501    0 +0.0000000000e+00 +0.0000000000e+00 +2.5757599819e+03 2.5757599819e+03 0.0000000000e+00 0.0000e+00 1.0000e+00
       -2 -1    0    0    0  501 -0.0000000000e+00 -0.0000000000e+00 -2.9699701625e+02 2.9699701625e+02 0.0000000000e+00 0.0000e+00 -1.0000e+00
      -13  1    1    2    0    0 -5.0601709946e+02 +2.8630370628e+02 +6.6284947405e+01 5.8516391842e+02 0.0000000000e+00 0.0000e+00 -1.0000e+00
       13  1    1    2    0    0 +5.0601709946e+02 -2.8630370628e+02 +2.2124780182e+03 2.2875930797e+03 0.0000000000e+00 0.0000e+00 1.0000e+00
<mgrwt>
<rscale>  0 0.17492776E+04</rscale>
<asrwt>0</asrwt>
<pdfrwt beam="1">  1        2 0.39627075E+00 0.17492776E+04</pdfrwt>
<pdfrwt beam="2">  1       -2 0.45691850E-01 0.17492776E+04</pdfrwt>
<totfact> 0.16634490E+01</totfact>
</mgrwt>
<rwgt>
<wgt id='morphing_basis_vector_1'> +2.0113854e-04 </wgt>
<wgt id='morphing_basis_vector_2'> +1.3328219e-04 </wgt>
<wgt id='morphing_basis_vector_3'> +2.1231371e-04 </wgt>
<wgt id='morphing_basis_vector_4'> +1.4576319e-04 </wgt>
<wgt id='morphing_basis_vector_5'> +2.3257808e-04 </wgt>
</rwgt>
</event>
<event>
 4      1 +1.5130300e-07 1.55340000e+03 7.81860800e-03 8.28460000e-02
        2 -1    0    0  501    0 +0.0000000000e+00 +0.0000000000e+00 +1.0694454040e+03 1.0694454040e+03 0.0000000000e+00 0.0000e+00 1.0000e+00
       -2 -1    0    0    0  501 -0.0000000000e+00 -0.0000000000e+00 -5.6408921293e+02 5.6408921293e+02 0.0000000000e+00 0.0000e+00 -1.0000e+00
      -13  1    1    2    0    0 -5.2575973130e+02 -1.1958087070e+02 -3.3521418933e+02 6.3489481997e+02 0.0000000000e+00 0.0000e+00 -1.0000e+00
       13  1    1    2    0    0 +5.2575973130e+02 +1.1958087070e+02 +8.4057038043e+02 9.9863979700e+02 0.0000000000e+00 0.0000e+00 1.0000e+00
<mgrwt>
<rscale>  0 0.15533996E+04</rscale>
<asrwt>0</asrwt>
<pdfrwt beam="1">  1        2 0.16453006E+00 0.15533996E+04</pdfrwt>
<pdfrwt beam="2">  1       -2 0.86782956E-01 0.15533996E+04</pdfrwt>
<totfact> 0.31981059E+01</totfact>
</mgrwt>
<rwgt>
<wgt id='morphing_basis_vector_1'> +1.2687587e-04 </wgt>
<wgt id='morphing_basis_vector_2'> +8.3480494e-05 </wgt>
<wgt id='morphing_basis_vector_3'> +1.3224185e-04 </wgt>
<wgt id='morphing_basis_vector_4'> +8.9358359e-05 </wgt>
<wgt id='morphing_basis_vector_5'> +1.4258008e-04 </wgt>
</rwgt>
</event>
<event>
 4      1 +1.5130300e-07 1.73803300e+03 7.81860800e-03 8.18856300e-02
        2 -1    0    0  501    0 +0.0000000000e+00 +0.0000000000e+00 +1.6992969199e+03 1.6992969199e+03 0.0000000000e+00 0.0000e+00 -1.0000e+00
       -2 -1    0    0    0  501 -0.0000000000e+00 -0.0000000000e+00 -4.4441294527e+02 4.4441294527e+02 0.0000000000e+00 0.0000e+00 1.0000e+00
      -13  1    1    2    0    0 +6.5306480968e+02 +4.6164444391e+02 +2.0811776103e+02 8.2639109427e+02 0.0000000000e+00 0.0000e+00 1.0000e+00
       13  1    1    2    0    0 -6.5306480968e+02 -4.6164444391e+02 +1.0467662136e+03 1.3173187709e+03 0.0000000000e+00 0.0000e+00 -1.0000e+00
<mgrwt>
<rscale>  0 0.17380329E+04</rscale>
<asrwt>0</asrwt>
<pdfrwt beam="1">  1        2 0.26143029E+00 0.17380329E+04</pdfrwt>
<pdfrwt beam="2">  1       -2 0.68371223E-01 0.17380329E+04</pdfrwt>
<totfact> 0.23390842E+01</totfact>
</mgrwt>
<rwgt>
<wgt id='morphing_basis_vector_1'> +1.9747166e-04 </wgt>
<wgt id='morphing_basis_vector_2'> +1.3385131e-04 </wgt>
<wgt id='morphing_basis_vector_3'> +2.0876183e-04 </wgt>
<wgt id='morphing_basis_vector_4'> +1.3939634e-04 </wgt>
<wgt id='morphing_basis_vector_5'> +2.2630219e-04 </wgt>
</rwgt>
</event>
<event>
 4      1 +1.5130300e-07 1.64525100e+03 7.81860800e-03 8.23520500e-02
        2 -1    0    0  501    0 +0.0000000000e+00 +0.0000000000e+00 +1.7669395834e+03 1.7669395834e+03 0.0000000000e+00 0.0000e+00 -1.0000e+00
       -2 -1    0    0    0  501 -0.0000000000e+00 -0.0000000000e+00 -3.8298575855e+02 3.8298575855e+02 0.0000000000e+00 0.0000e+00 1.0000e+00
      -13  1    1    2    0    0 -3.0526068938e+02 +7.0467667594e+02 +3.0663214639e+02 8.2690784208e+02 0.0000000000e+00 0.0000e+00 1.0000e+00
       13  1    1    2    0    0 +3.0526068938e+02 -7.0467667594e+02 +1.0773216784e+03 1.3230174999e+03 0.0000000000e+00 0.0000e+00 -1.0000e+00
<mgrwt>
<rscale>  0 0.16452510E+04</rscale>
<asrwt>0</asrwt>
<pdfrwt beam="1">  1        2 0.27183685E+00 0.16452510E+04</pdfrwt>
<pdfrwt beam="2">  1       -2 0.58920887E-01 0.16452510E+04</pdfrwt>
<totfact> 0.29473347E+01</totfact>
</mgrwt>
<rwgt>
<wgt id='morphing_basis_vector_1'> +1.5973308e-04 </wgt>
<wgt id='morphing_basis_vector_2'> +1.0835186e-04 </wgt>
<wgt id='morphing_basis_vector_3'> +1.6796185e-04 </wgt>
<wgt id='morphing_basis_vector_4'> +1.1089543e-04 </wgt>
<wgt id='morphing_basis_vector_5'> +1.8055641e-04 </wgt>
</rwgt>
</event>
<event>
 4      1 +1.5130300e-07 1.73633500e+03 7.81860800e-03 8.18938900e-02
        2 -1    0    0  501    0 +0.0000000000e+00 +0.0000000000e+00 +1.9610400653e+03 1.9610400653e+03 0.0000000000e+00 0.0000e+00 -1.0000e+00
       -2 -1    0    0    0  501 -0.0000000000e+00 -0.0000000000e+00 -3.8434455064e+02 3.8434455064e+02 0.0000000000e+00 0.0000e+00 1.0000e+00
      -13  1    1    2    0    0 -1.2206868445e+02 +8.4317644382e+02 +1.0138400454e+03 1.3242805280e+03 0.0000000000e+00 0.0000e+00 1.0000e+00
       13  1    1    2    0    0 +1.2206868445e+02 -8.4317644382e+02 +5.6285546920e+02 1.0211040879e+03 0.0000000000e+00 0.0000e+00 -1.0000e+00
<mgrwt>
<rscale>  0 0.17363353E+04</rscale>
<asrwt>0</asrwt>
<pdfrwt beam="1">  1        2 0.30169847E+00 0.17363353E+04</pdfrwt>
<pdfrwt beam="2">  1       -2 0.59129932E-01 0.17363353E+04</pdfrwt>
<totfact> 0.22625634E+01</totfact>
</mgrwt>
<rwgt>
<wgt id='morphing_basis_vector_1'> +2.0913987e-04 </wgt>
<wgt id='morphing_basis_vector_2'> +1.7021097e-04 </wgt>
<wgt id='morphing_basis_vector_3'> +2.2525093e-04 </wgt>
<wgt id='morphing_basis_vector_4'> +1.1478541e-04 </wgt>
<wgt id='morphing_basis_vector_5'> +2.2354500e-04 </wgt>
</rwgt>
</event>
<event>
 4      1 +1.5130300e-07 1.78523600e+03 7.81860800e-03 8.16596200e-02
        2 -1    0    0  501    0 +0.0000000000e+00 +0.0000000000e+00 +7.3519223544e+02 7.3519223544e+02 0.0000000000e+00 0.0000e+00 -1.0000e+00
       -2 -1    0    0    0  501 -0.0000000000e+00 -0.0000000000e+00 -1.0837532987e+03 1.0837532987e+03 0.0000000000e+00 0.0000e+00 1.0000e+00
      -13  1    1    2    0    0 +7.4408015057e+02 +3.2698627918e+02 -5.5029050858e+02 9.8152684175e+02 0.0000000000e+00 0.0000e+00 1.0000e+00
       13  1    1    2    0    0 -7.4408015057e+02 -3.2698627918e+02 +2.0172944532e+02 8.3741869239e+02 0.0000000000e+00 0.0000e+00 -1.0000e+00
<mgrwt>
<rscale>  0 0.17852361E+04</rscale>
<asrwt>0</asrwt>
<pdfrwt beam="1">  1        2 0.11310650E+00 0.17852361E+04</pdfrwt>
<pdfrwt beam="2">  1       -2 0.16673128E+00 0.17852361E+04</pdfrwt>
<totfact> 0.94353539E+00</totfact>
</mgrwt>
<rwgt>
<wgt id='morphing_basis_vector_1'> +2.1904262e-04 </wgt>
<wgt id='morphing_basis_vector_2'> +1.4832531e-04 </wgt>
<wgt id='morphing_basis_vector_3'> +2.3210983e-04 </wgt>
<wgt id='morphing_basis_vector_4'> +1.5590291e-04 </wgt>
<wgt id='morphing_basis_vector_5'> +2.5263660e-04 </wgt>
</rwgt>
</event>
<event>
 4      1 +1.5130300e-07 1.61582800e+03 7.81860800e-03 8.25065900e-02
        2 -1    0    0  501    0 +0.0000000000e+00 +0.0000000000e+00 +1.9709911285e+03 1.9709911285e+03 0.0000000000e+00 0.0000e+00 -1.0000e+00
       -2 -1    0    0    0  501 -0.0000000000e+00 -0.0000000000e+00 -3.3116570398e+02 3.3116570398e+02 0.0000000000e+00 0.0000e+00 1.0000e+00
      -13  1    1    2    0    0 -7.0260571956e+02 -2.6165194476e+02 +1.2487805476e+03 1.4565608100e+03 0.0000000000e+00 0.0000e+00 1.0000e+00
       13  1    1    2    0    0 +7.0260571956e+02 +2.6165194476e+02 +3.9104487691e+02 8.4559602241e+02 0.0000000000e+00 0.0000e+00 -1.0000e+00
<mgrwt>
<rscale>  0 0.16158275E+04</rscale>
<asrwt>0</asrwt>
<pdfrwt beam="1">  1        2 0.30322940E+00 0.16158275E+04</pdfrwt>
<pdfrwt beam="2">  1       -2 0.50948571E-01 0.16158275E+04</pdfrwt>
<totfact> 0.30444488E+01</totfact>
</mgrwt>
<rwgt>
<wgt id='morphing_basis_vector_1'> +1.6637058e-04 </wgt>
<wgt id='morphing_basis_vector_2'> +1.5278303e-04 </wgt>
<wgt id='morphing_basis_vector_3'> +1.7991200e-04 </wgt>
<wgt id='morphing_basis_vector_4'> +6.9745970e-05 </wgt>
<wgt id='morphing_basis_vector_5'> +1.6509865e-04 </wgt>
</rwgt>
</event>
<event>
 4      1 +1.5130300e-07 1.73569600e+03 7.81860800e-03 8.18970100e-02
        2 -1    0    0  501    0 +0.0000000000e+00 +0.0000000000e+00 +6.1410757894e+02 6.1410757894e+02 0.0000000000e+00 0.0000e+00 -1.0000e+00
       -2 -1    0    0    0  501 -0.0000000000e+00 -0.0000000000e+00 -1.2264299396e+03 1.2264299396e+03 0.0000000000e+00 0.0000e+00 1.0000e+00
      -13  1    1    2    0    0 +2.1687043555e+02 -5.9057849731e+02 -9.4005195497e+02 1.1311557918e+03 0.0000000000e+00 0.0000e+00 1.0000e+00
       13  1    1    2    0    0 -2.1687043555e+02 +5.9057849731e+02 +3.2772959428e+02 7.0938172676e+02 0.0000000000e+00 0.0000e+00 -1.0000e+00
<mgrwt>
<rscale>  0 0.17356957E+04</rscale>
<asrwt>0</asrwt>
<pdfrwt beam="1">  1        2 0.94478091E-01 0.17356957E+04</pdfrwt>
<pdfrwt beam="2">  1       -2 0.18868153E+00 0.17356957E+04</pdfrwt>
<totfact> 0.80065610E+00</totfact>
</mgrwt>
<rwgt>
<wgt id='morphing_basis_vector_1'> +1.9522684e-04 </wgt>
<wgt id='morphing_basis_vector_2'> +1.2953968e-04 </wgt>
<wgt id='morphing_basis_vector_3'> +2.0595348e-04 </wgt>
<wgt id='morphing_basis_vector_4'> +1.4097797e-04 </wgt>
<wgt id='morphing_basis_vector_5'> +2.2523562e-04 </wgt>
</rwgt>
</event>
<event>
 4      1 +1.5130300e-07 1.65046700e+03 7.81860800e-03 8.23250000e-02
        2 -1    0    0  501    0 +0.0000000000e+00 +0.0000000000e+00 +2.2082909653e+03 2.2082909653e+03 0.0000000000e+00 0.0000e+00 -1.0000e+00
       -2 -1    0    0    0  501 -0.0000000000e+00 -0.0000000000e+00 -3.0838776647e+02 3.0838776647e+02 0.0000000000e+00 0.0000e+00 1.0000e+00
      -13  1    1    2    0    0 +3.3142223527e+02 -3.4845196487e+02 -7.2650941023e+01 4.8635134326e+02 0.0000000000e+00 0.0000e+00 1.0000e+00
       13  1    1    2    0    0 -3.3142223527e+02 +3.4845196487e+02 +1.9725541398e+03 2.0303273885e+03 0.0000000000e+00 0.0000e+00 -1.0000e+00
<mgrwt>
<rscale>  0 0.16504665E+04</rscale>
<asrwt>0</asrwt>
<pdfrwt beam="1">  1        2 0.33973706E+00 0.16504665E+04</pdfrwt>
<pdfrwt beam="2">  1       -2 0.47444273E-01 0.16504665E+04</pdfrwt>
<totfact> 0.25616265E+01</totfact>
</mgrwt>
<rwgt>
<wgt id='morphing_basis_vector_1'> +1.6036643e-04 </wgt>
<wgt id='morphing_basis_vector_2'> +1.0572507e-04 </wgt>
<wgt id='morphing_basis_vector_3'> +1.6826432e-04 </wgt>
<wgt id='morphing_basis_vector_4'> +1.1491716e-04 </wgt>
<wgt id='morphing_basis_vector_5'> +1.8312145e-04 </wgt>
</rwgt>
</event>
<event>
 4      1 +1.5130300e-07 1.61374900e+03 7.81860800e-03 8.25176400e-02
        2 -1    0    0  501    0 +0.0000000000e+00 +0.0000000000e+00 +2.1635753205e+03 2.1635753205e+03 0.0000000000e+00 0.0000e+00 1.0000e+00
       -2 -1    0    0    0  501 -0.0000000000e+00 -0.0000000000e+00 -3.0091225594e+02 3.0091225594e+02 0.0000000000e+00 0.0000e+00 -1.0000e+00
      -13  1    1    2    0    0 +2.8079675306e+02 +6.7302879582e+02 +1.4586666043e+03 1.6308043534e+03 0.0000000000e+00 0.0000e+00 -1.0000e+00
       13  1    1    2    0    0 -2.8079675306e+02 -6.7302879582e+02 +4.0399646029e+02 8.3368322308e+02 0.0000000000e+00 0.0000e+00 1.0000e+00
<mgrwt>
<rscale>  0 0.16137488E+04</rscale>
<asrwt>0</asrwt>
<pdfrwt beam="1">  1        2 0.33285773E+00 0.16137488E+04</pdfrwt>
<pdfrwt beam="2">  1       -2 0.46294195E-01 0.16137488E+04</pdfrwt>
<totfact> 0.28577850E+01</totfact>
</mgrwt>
<rwgt>
<wgt id='morphing_basis_vector_1'> +1.6888951e-04 </wgt>
<wgt id='morphing_basis_vector_2'> +1.6197336e-04 </wgt>
<wgt id='morphing_basis_vector_3'> +1.8351275e-04 </wgt>
<wgt id='morphing_basis_vector_4'> +6.3005249e-05 </wgt>
<wgt id='morphing_basis_vector_5'> +1.6374298e-04 </wgt>
</rwgt>
</event>
<event>
 4      1 +1.5130300e-07 1.84446800e+03 7.81860800e-03 8.13859500e-02
        2 -1    0    0  501    0 +0.0000000000e+00 +0.0000000000e+00 +1.0612105381e+03 1.0612105381e+03 0.0000000000e+00 0.0000e+00 1.0000e+00
       -2 -1    0    0    0  501 -0.0000000000e+00 -0.0000000000e+00 -8.0145826557e+02 8.0145826557e+02 0.0000000000e+00 0.0000e+00 -1.0000e+00
      -13  1    1    2    0    0 -7.0149038252e+02 -2.1239693243e+02 -4.3539242023e+02 8.5250675849e+02 0.0000000000e+00 0.0000e+00 -1.0000e+00
       13  1    1    2    0    0 +7.0149038252e+02 +2.1239693243e+02 +6.9514469279e+02 1.0101620452e+03 0.0000000000e+00 0.0000e+00 1.0000e+00
<mgrwt>
<rscale>  0 0.18444684E+04</rscale>
<asrwt>0</asrwt>
<pdfrwt beam="1">  1        2 0.16326316E+00 0.18444684E+04</pdfrwt>
<pdfrwt beam="2">  1       -2 0.12330127E+00 0.18444684E+04</pdfrwt>
<totfact> 0.13332599E+01</totfact>
</mgrwt>
<rwgt>
<wgt id='morphing_basis_vector_1'> +2.4770094e-04 </wgt>
<wgt id='morphing_basis_vector_2'> +1.6551784e-04 </wgt>
<wgt id='morphing_basis_vector_3'> +2.6286543e-04 </wgt>
<wgt id='morphing_basis_vector_4'> +1.8034648e-04 </wgt>
<wgt id='morphing_basis_vector_5'> +2.8896325e-04 </wgt>
</rwgt>
</event>
<event>
 4      1 +1.5130300e-07 1.58034200e+03 7.81860800e-03 8.26975400e-02
        2 -1    0    0  501    0 +0.0000000000e+00 +0.0000000000e+00 +3.9222408490e+02 3.9222408490e+02 0.0000000000e+00 0.0000e+00 1.0000e+00
       -2 -1    0    0    0  501 -0.0000000000e+00 -0.0000000000e+00 -1.5918712447e+03 1.5918712447e+03 0.0000000000e+00 0.0000e+00 -1.0000e+00
      -13  1    1    2    0    0 +7.2985749822e+02 -1.0378227720e+02 -9.5693675098e+02 1.2079696495e+03 0.0000000000e+00 0.0000e+00 -1.0000e+00
       13  1    1    2    0    0 -7.2985749822e+02 +1.0378227720e+02 -2.4271040884e+02 7.7612568011e+02 0.0000000000e+00 0.0000e+00 1.0000e+00
<mgrwt>
<rscale>  0 0.15803420E+04</rscale>
<asrwt>0</asrwt>
<pdfrwt beam="1">  1        2 0.60342168E-01 0.15803420E+04</pdfrwt>
<pdfrwt beam="2">  1       -2 0.24490327E+00 0.15803420E+04</pdfrwt>
<totfact> 0.53711633E+00</totfact>
</mgrwt>
<rwgt>
<wgt id='morphing_basis_vector_1'> +1.3664431e-04 </wgt>
<wgt id='morphing_basis_vector_2'> +9.2425332e-05 </wgt>
<wgt id='morphing_basis_vector_3'> +1.4302019e-04 </wgt>
<wgt id='morphing_basis_vector_4'> +9.3965630e-05 </wgt>
<wgt id='morphing_basis_vector_5'> +1.5293405e-04 </wgt>
</rwgt>
</event>
<event>
 4      1 +1.5130300e-07 1.81800000e+03 7.81860800e-03 8.15069000e-02
        2 -1    0    0  501    0 +0.0000000000e+00 +0.0000000000e+00 +1.8538039330e+03 1.8538039330e+03 0.0000000000e+00 0.0000e+00 -1.0000e+00
       -2 -1    0    0    0  501 -0.0000000000e+00 -0.0000000000e+00 -4.4572196453e+02 4.4572196453e+02 0.0000000000e+00 0.0000e+00 1.0000e+00
      -13  1    1    2    0    0 -6.6433714684e+02 -1.3632886302e+02 -6.1544188025e+01 6.8096776035e+02 0.0000000000e+00 0.0000e+00 1.0000e+00
       13  1    1    2    0    0 +6.6433714684e+02 +1.3632886302e+02 +1.4696261565e+03 1.6185581372e+03 0.0000000000e+00 0.0000e+00 -1.0000e+00
<mgrwt>
<rscale>  0 0.18180001E+04</rscale>
<asrwt>0</asrwt>
<pdfrwt beam="1">  1        2 0.28520060E+00 0.18180001E+04</pdfrwt>
<pdfrwt beam="2">  1       -2 0.68572611E-01 0.18180001E+04</pdfrwt>
<totfact> 0.18938764E+01</totfact>
</mgrwt>
<rwgt>
<wgt id='morphing_basis_vector_1'> +2.3392705e-04 </wgt>
<wgt id='morphing_basis_vector_2'> +1.5576967e-04 </wgt>
<wgt id='morphing_basis_vector_3'> +2.4786701e-04 </wgt>
<wgt id='morphing_basis_vector_4'> +1.7034526e-04 </wgt>
<wgt id='morphing_basis_vector_5'> +2.7237795e-04 </wgt>
</rwgt>
</event>
<event>
 4      1 +1.5130300e-07 1.61900000e+03 7.81860800e-03 8.24897700e-02
        2 -1    0    0  501    0 +0.0000000000e+00 +0.0000000000e+00 +7.5213109503e+02 7.5213109503e+02 0.0000000000e+00 0.0000e+00 1.0000e+00
       -2 -1    0    0    0  501 -0.0000000000e+00 -0.0000000000e+00 -8.7124501558e+02 8.7124501558e+02 0.0000000000e+00 0.0000e+00 -1.0000e+00
      -13  1    1    2    0    0 +8.9225208066e+01 -7.0867781088e+02 +3.2239923056e+02 7.8366232604e+02 0.0000000000e+00 0.0000e+00 1.0000e+00
       13  1    1    2    0    0 -8.9225208066e+01 +7.0867781088e+02 -4.4151315111e+02 8.3971378457e+02 0.0000000000e+00 0.0000e+00 -1.0000e+00
<mgrwt>
<rscale>  0 0.16190003E+04</rscale>
<asrwt>0</asrwt>
<pdfrwt beam="1">  1        2 0.11571248E+00 0.16190003E+04</pdfrwt>
<pdfrwt beam="2">  1       -2 0.13403769E+00 0.16190003E+04</pdfrwt>
<totfact> 0.17361793E+01</totfact>
</mgrwt>
<rwgt>
<wgt id='morphing_basis_vector_1'> +1.7390936e-04 </wgt>
<wgt id='morphing_basis_vector_2'> +1.7260616e-04 </wgt>
<wgt id='morphing_basis_vector_3'> +1.8983959e-04 </wgt>
<wgt id='morphing_basis_vector_4'> +5.8367822e-05 </wgt>
<wgt id='morphing_basis_vector_5'> +1.6553406e-04 </wgt>
</rwgt>
</event>
<event>
 4      1 +1.5130300e-07 1.72551400e+03 7.81860800e-03 8.19468000e-02
        2 -1    0    0  501    0 +0.0000000000e+00 +0.0000000000e+00 +6.8457868153e+02 6.8457868153e+02 0.0000000000e+00 0.0000e+00 1.0000e+00
       -2 -1    0    0    0  501 -0.0000000000e+00 -0.0000000000e+00 -1.0873104070e+03 1.0873104070e+03 0.0000000000e+00 0.0000e+00 -1.0000e+00
      -13  1    1    2    0    0 +5.0912507256e+02 -4.0547838104e+02 +3.8018383605e+02 7.5376442354e+02 0.0000000000e+00 0.0000e+00 -1.0000e+00
       13  1    1    2    0    0 -5.0912507256e+02 +4.0547838104e+02 -7.8291556153e+02 1.0181246650e+03 0.0000000000e+00 0.0000e+00 1.0000e+00
<mgrwt>
<rscale>  0 0.17255139E+04</rscale>
<asrwt>0</asrwt>
<pdfrwt beam="1">  1        2 0.10531980E+00 0.17255139E+04</pdfrwt>
<pdfrwt beam="2">  1       -2 0.16727852E+00 0.17255139E+04</pdfrwt>
<totfact> 0.10252195E+01</totfact>
</mgrwt>
<rwgt>
<wgt id='morphing_basis_vector_1'> +2.4110021e-04 </wgt>
<wgt id='morphing_basis_vector_2'> +2.7593062e-04 </wgt>
<wgt id='morphing_basis_vector_3'> +2.7108965e-04 </wgt>
<wgt id='morphing_basis_vector_4'> +4.0332556e-05 </wgt>
<wgt id='morphing_basis_vector_5'> +2.1238134e-04 </wgt>
</rwgt>
</event>
<event>
 4      1 +1.5130300e-07 1.71394200e+03 7.81860800e-03 8.20038200e-02
        2 -1    0    0  501    0 +0.0000000000e+00 +0.0000000000e+00 +1.9785134717e+03 1.9785134717e+03 0.0000000000e+00 0.0000e+00 -1.0000e+00
       -2 -1    0    0    0  501 -0.0000000000e+00 -0.0000000000e+00 -3.7118754539e+02 3.7118754539e+02 0.0000000000e+00 0.0000e+00 1.0000e+00
      -13  1    1    2    0    0 +2.6757632766e+02 +8.1205647144e+02 +7.2411626219e+02 1.1204361495e+03 0.0000000000e+00 0.0000e+00 1.0000e+00
       13  1    1    2    0    0 -2.6757632766e+02 -8.1205647144e+02 +8.8320966416e+02 1.2292648676e+03 0.0000000000e+00 0.0000e+00 -1.0000e+00
<mgrwt>
<rscale>  0 0.17139423E+04</rscale>
<asrwt>0</asrwt>
<pdfrwt beam="1">  1        2 0.30438668E+00 0.17139423E+04</pdfrwt>
<pdfrwt beam="2">  1       -2 0.57105778E-01 0.17139423E+04</pdfrwt>
<totfact> 0.23794341E+01</totfact>
</mgrwt>
<rwgt>
<wgt id='morphing_basis_vector_1'> +1.9090549e-04 </wgt>
<wgt id='morphing_basis_vector_2'> +1.3818266e-04 </wgt>
<wgt id='morphing_basis_vector_3'> +2.0282061e-04 </wgt>
<wgt id='morphing_basis_vector_4'> +1.2414893e-04 </wgt>
<wgt id='morphing_basis_vector_5'> +2.1311453e-04 </wgt>
</rwgt>
</event>
<event>
 4      1 +1.5130300e-07 1.58937600e+03 7.81860800e-03 8.26484400e-02
        2 -1    0    0  501    0 +0.0000000000e+00 +0.0000000000e+00 +1.9853160059e+03 1.9853160059e+03 0.0000000000e+00 0.0000e+00 1.0000e+00
       -2 -1    0    0    0  501 -0.0000000000e+00 -0.0000000000e+00 -3.1810016218e+02 3.1810016218e+02 0.0000000000e+00 0.0000e+00 -1.0000e+00
      -13  1    1    2    0    0 +6.1429573000e+02 -4.9400253465e+02 +9.7948416338e+02 1.2572935117e+03 0.0000000000e+00 0.0000e+00 -1.0000e+00
       13  1    1    2    0    0 -6.1429573000e+02 +4.9400253465e+02 +6.8773168038e+02 1.0461226565e+03 0.0000000000e+00 0.0000e+00 1.0000e+00
<mgrwt>
<rscale>  0 0.15893764E+04</rscale>
<asrwt>0</asrwt>
<pdfrwt beam="1">  1        2 0.30543323E+00 0.15893764E+04</pdfrwt>
<pdfrwt beam="2">  1       -2 0.48938488E-01 0.15893764E+04</pdfrwt>
<totfact> 0.32416324E+01</totfact>
</mgrwt>
<rwgt>
<wgt id='morphing_basis_vector_1'> +1.4635996e-04 </wgt>
<wgt id='morphing_basis_vector_2'> +1.1436158e-04 </wgt>
<wgt id='morphing_basis_vector_3'> +1.5527723e-04 </wgt>
<wgt id='morphing_basis_vector_4'> +8.3561644e-05 </wgt>
<wgt id='morphing_basis_vector_5'> +1.5562427e-04 </wgt>
</rwgt>
</event>
<event>
 4      1 +1.5130300e-07 1.71121000e+03 7.81860800e-03 8.20173500e-02
        2 -1    0    0  501    0 +0.0000000000e+00 +0.0000000000e+00 +9.1881565468e+02 9.1881565468e+02 0.0000000000e+00 0.0000e+00 -1.0000e+00
       -2 -1    0    0    0  501 -0.0000000000e+00 -0.0000000000e+00 -7.9674302765e+02 7.9674302765e+02 0.0000000000e+00 0.0000e+00 1.0000e+00
      -13  1    1    2    0    0 +3.1211194088e+01 +5.5709291689e+02 -5.8925162984e+02 8.1150732588e+02 0.0000000000e+00 0.0000e+00 1.0000e+00
       13  1    1    2    0    0 -3.1211194088e+01 -5.5709291689e+02 +7.1132425687e+02 9.0405135645e+02 0.0000000000e+00 0.0000e+00 -1.0000e+00
<mgrwt>
<rscale>  0 0.17112101E+04</rscale>
<asrwt>0</asrwt>
<pdfrwt beam="1">  1        2 0.14135626E+00 0.17112101E+04</pdfrwt>
<pdfrwt beam="2">  1       -2 0.12257585E+00 0.17112101E+04</pdfrwt>
<totfact> 0.16818351E+01</totfact>
</mgrwt>
<rwgt>
<wgt id='morphing_basis_vector_1'> +1.8461324e-04 </wgt>
<wgt id='morphing_basis_vector_2'> +1.2213399e-04 </wgt>
<wgt id='morphing_basis_vector_3'> +1.9444739e-04 </wgt>
<wgt id='morphing_basis_vector_4'> +1.3320593e-04 </wgt>
<wgt id='morphing_basis_vector_5'> +2.1247858e-04 </wgt>
</rwgt>
</event>
<event>
 4      1 +1.5130300e-07 1.56504500e+03 7.81860800e-03 8.27814500e-02
        2 -1    0    0  501    0 +0.0000000000e+00 +0.0000000000e+00 +5.9268564754e+02 5.9268564754e+02 0.0000000000e+00 0.0000e+00 -1.0000e+00
       -2 -1    0    0    0  501 -0.0000000000e+00 -0.0000000000e+00 -1.0331637709e+03 1.0331637709e+03 0.0000000000e+00 0.0000e+00 1.0000e+00
      -13  1    1    2    0    0 +4.3189331176e+02 +1.9403474253e+02 -8.6746950703e+02 9.8827357532e+02 0.0000000000e+00 0.0000e+00 1.0000e+00
       13  1    1    2    0    0 -4.3189331176e+02 -1.9403474253e+02 +4.2699138364e+02 6.3757584314e+02 0.0000000000e+00 0.0000e+00 -1.0000e+00
<mgrwt>
<rscale>  0 0.15650448E+04</rscale>
<asrwt>0</asrwt>
<pdfrwt beam="1">  1        2 0.91182409E-01 0.15650448E+04</pdfrwt>
<pdfrwt beam="2">  1       -2 0.15894827E+00 0.15650448E+04</pdfrwt>
<totfact> 0.14374618E+01</totfact>
</mgrwt>
<rwgt>
<wgt id='morphing_basis_vector_1'> +1.3052368e-04 </wgt>
<wgt id='morphing_basis_vector_2'> +8.5761093e-05 </wgt>
<wgt id='morphing_basis_vector_3'> +1.3614348e-04 </wgt>
<wgt id='morphing_basis_vector_4'> +9.2292144e-05 </wgt>
<wgt id='morphing_basis_vector_5'> +1.4706154e-04 </wgt>
</rwgt>
</event>
<event>
 4      1 +1.5130300e-07 1.57769400e+03 7.81860800e-03 8.27120000e-02
        2 -1    0    0  501    0 +0.0000000000e+00 +0.0000000000e+00 +1.4647381650e+03 1.4647381650e+03 0.0000000000e+00 0.0000e+00 -1.0000e+00
       -2 -1    0    0    0  501 -0.0000000000e+00 -0.0000000000e+00 -4.2483995420e+02 4.2483995420e+02 0.0000000000e+00 0.0000e+00 1.0000e+00
      -13  1    1    2    0    0 +1.1906206291e+02 +2.8977384297e+02 -3.4713976477e+02 4.6760097431e+02 0.0000000000e+00 0.0000e+00 1.0000e+00
       13  1    1    2    0    0 -1.1906206291e+02 -2.8977384297e+02 +1.3870379756e+03 1.4219771449e+03 0.0000000000e+00 0.0000e+00 -1.0000e+00
<mgrwt>
<rscale>  0 0.15776936E+04</rscale>
<asrwt>0</asrwt>
<pdfrwt beam="1">  1        2 0.22534433E+00 0.15776936E+04</pdfrwt>
<pdfrwt beam="2">  1       -2 0.65359994E-01 0.15776936E+04</pdfrwt>
<totfact> 0.35245478E+01</totfact>
</mgrwt>
<rwgt>
<wgt id='morphing_basis_vector_1'> +1.3459464e-04 </wgt>
<wgt id='morphing_basis_vector_2'> +8.8348327e-05 </wgt>
<wgt id='morphing_basis_vector_3'> +1.4050383e-04 </wgt>
<wgt id='morphing_basis_vector_4'> +9.5522834e-05 </wgt>
<wgt id='morphing_basis_vector_5'> +1.5204405e-04 </wgt>
</rwgt>
</event>
<event>
 4      1 +1.5130300e-07 1.62703100e+03 7.81860800e-03 8.24473500e-02
        2 -1    0    0  501    0 +0.0000000000e+00 +0.0000000000e+00 +7.2570669426e+02 7.2570669426e+02 0.0000000000e+00 0.0000e+00 1.0000e+00
       -2 -1    0    0    0  501 -0.0000000000e+00 -0.0000000000e+00 -9.1194853126e+02 9.1194853126e+02 0.0000000000e+00 0.0000e+00 -1.0000e+00
      -13  1    1    2    0    0 -1.7517426751e+02 +1.3859790144e+02 -8.8047693026e+02 9.0836943311e+02 0.0000000000e+00 0.0000e+00 -1.0000e+00
       13  1    1    2    0    0 +1.7517426751e+02 -1.3859790144e+02 +6.9423509327e+02 7.2928579241e+02 0.0000000000e+00 0.0000e+00 1.0000e+00
<mgrwt>
<rscale>  0 0.16270306E+04</rscale>
<asrwt>0</asrwt>
<pdfrwt beam="1">  1        2 0.11164718E+00 0.16270306E+04</pdfrwt>
<pdfrwt beam="2">  1       -2 0.14029977E+00 0.16270306E+04</pdfrwt>
<totfact> 0.15998595E+01</totfact>
</mgrwt>
<rwgt>
<wgt id='morphing_basis_vector_1'> +1.5164539e-04 </wgt>
<wgt id='morphing_basis_vector_2'> +9.9733943e-05 </wgt>
<wgt id='morphing_basis_vector_3'> +1.5884895e-04 </wgt>
<wgt id='morphing_basis_vector_4'> +1.0846732e-04 </wgt>
<wgt id='morphing_basis_vector_5'> +1.7264927e-04 </wgt>
</rwgt>
</event>
<event>
 4      1 +1.5130300e-07 1.58881800e+03 7.81860800e-03 8.26514600e-02
        2 -1    0    0  501    0 +0.0000000000e+00 +0.0000000000e+00 +1.3132589511e+03 1.3132589511e+03 0.0000000000e+00 0.0000e+00 1.0000e+00
       -2 -1    0    0    0  501 -0.0000000000e+00 -0.0000000000e+00 -4.8054949148e+02 4.8054949148e+02 0.0000000000e+00 0.0000e+00 -1.0000e+00
      -13  1    1    2    0    0 -1.6569698494e+02 -7.7440414517e+02 +3.4558891583e+02 8.6405380019e+02 0.0000000000e+00 0.0000e+00 -1.0000e+00
       13  1    1    2    0    0 +1.6569698494e+02 +7.7440414517e+02 +4.8712054380e+02 9.2975464241e+02 0.0000000000e+00 0.0000e+00 1.0000e+00
<mgrwt>
<rscale>  0 0.15888183E+04</rscale>
<asrwt>0</asrwt>
<pdfrwt beam="1">  1        2 0.20203984E+00 0.15888183E+04</pdfrwt>
<pdfrwt beam="2">  1       -2 0.73930692E-01 0.15888183E+04</pdfrwt>
<totfact> 0.32951582E+01</totfact>
</mgrwt>
<rwgt>
<wgt id='morphing_basis_vector_1'> +1.4206738e-04 </wgt>
<wgt id='morphing_basis_vector_2'> +1.0202106e-04 </wgt>
<wgt id='morphing_basis_vector_3'> +1.4955309e-04 </wgt>
<wgt id='morphing_basis_vector_4'> +9.1202616e-05 </wgt>
<wgt id='morphing_basis_vector_5'> +1.5598386e-04 </wgt>
</rwgt>
</event>
<event>
 4      1 +1.5130300e-07 1.82030000e+03 7.81860800e-03 8.14963000e-02
        2 -1    0    0  501    0 +0.0000000000e+00 +0.0000000000e+00 +2.1250975830e+03 2.1250975830e+03 0.0000000000e+00 0.0000e+00 -1.0000e+00
       -2 -1    0    0    0  501 -0.0000000000e+00 -0.0000000000e+00 -3.8980483090e+02 3.8980483090e+02 0.0000000000e+00 0.0000e+00 1.0000e+00
      -13  1    1    2    0    0 +1.0568222616e+01 -9.0887048407e+02 +9.3268462428e+02 1.3023278591e+03 0.0000000000e+00 0.0000e+00 1.0000e+00
       13  1    1    2    0    0 -1.0568222616e+01 +9.0887048407e+02 +8.0260812781e+02 1.2125745548e+03 0.0000000000e+00 0.0000e+00 -1.0000e+00
<mgrwt>
<rscale>  0 0.18203003E+04</rscale>
<asrwt>0</asrwt>
<pdfrwt beam="1">  1        2 0.32693808E+00 0.18203003E+04</pdfrwt>
<pdfrwt beam="2">  1       -2 0.59969975E-01 0.18203003E+04</pdfrwt>
<totfact> 0.17635305E+01</totfact>
</mgrwt>
<rwgt>
<wgt id='morphing_basis_vector_1'> +2.4500962e-04 </wgt>
<wgt id='morphing_basis_vector_2'> +1.8599322e-04 </wgt>
<wgt id='morphing_basis_vector_3'> +2.6317552e-04 </wgt>
<wgt id='morphing_basis_vector_4'> +1.5181426e-04 </wgt>
<wgt id='morphing_basis_vector_5'> +2.7228502e-04 </wgt>
</rwgt>
</event>
<event>
 4      1 +1.5130300e-07 1.72633600e+03 7.81860800e-03 8.19427700e-02
        2 -1    0    0  501    0 +0.0000000000e+00 +0.0000000000e+00 +2.7559349678e+03 2.7559349678e+03 0.0000000000e+00 0.0000e+00 -1.0000e+00
       -2 -1    0    0    0  501 -0.0000000000e+00 -0.0000000000e+00 -2.7034700895e+02 2.7034700895e+02 0.0000000000e+00 0.0000e+00 1.0000e+00
      -13  1    1    2    0    0 +2.7113242249e+02 +7.6020008541e+02 +7.0635659046e+02 1.0725467791e+03 0.0000000000e+00 0.0000e+00 1.0000e+00
       13  1    1    2    0    0 -2.7113242249e+02 -7.6020008541e+02 +1.7792313683e+03 1.9537351976e+03 0.0000000000e+00 0.0000e+00 -1.0000e+00
<mgrwt>
<rscale>  0 0.17263357E+04</rscale>
<asrwt>0</asrwt>
<pdfrwt beam="1">  1        2 0.42398998E+00 0.17263357E+04</pdfrwt>
<pdfrwt beam="2">  1       -2 0.41591849E-01 0.17263357E+04</pdfrwt>
<totfact> 0.15478455E+01</totfact>
</mgrwt>
<rwgt>
<wgt id='morphing_basis_vector_1'> +1.9261062e-04 </wgt>
<wgt id='morphing_basis_vector_2'> +1.3110724e-04 </wgt>
<wgt id='morphing_basis_vector_3'> +2.0357354e-04 </wgt>
<wgt id='morphing_basis_vector_4'> +1.3507817e-04 </wgt>
<wgt id='morphing_basis_vector_5'> +2.2007163e-04 </wgt>
</rwgt>
</event>
<event>
 4      1 +1.5130300e-07 1.63178200e+03 7.81860800e-03 8.24223800e-02
        2 -1    0    0  501    0 +0.0000000000e+00 +0.0000000000e+00 +1.7563944610e+03 1.7563944610e+03 0.0000000000e+00 0.0000e+00 1.0000e+00
       -2 -1    0    0    0  501 -0.0000000000e+00 -0.0000000000e+00 -3.7900253505e+02 3.7900253505e+02 0.0000000000e+00 0.0000e+00 -1.0000e+00
      -13  1    1    2    0    0 -2.4175961228e+02 -3.5077802458e+02 -2.2189265952e+02 4.8034288275e+02 0.0000000000e+00 0.0000e+00 -1.0000e+00
       13  1    1    2    0    0 +2.4175961228e+02 +3.5077802458e+02 +1.5992845855e+03 1.6550541133e+03 0.0000000000e+00 0.0000e+00 1.0000e+00
<mgrwt>
<rscale>  0 0.16317818E+04</rscale>
<asrwt>0</asrwt>
<pdfrwt beam="1">  1        2 0.27021453E+00 0.16317818E+04</pdfrwt>
<pdfrwt beam="2">  1       -2 0.58308083E-01 0.16317818E+04</pdfrwt>
<totfact> 0.30553303E+01</totfact>
</mgrwt>
<rwgt>
<wgt id='morphing_basis_vector_1'> +1.5340726e-04 </wgt>
<wgt id='morphing_basis_vector_2'> +1.0099759e-04 </wgt>
<wgt id='morphing_basis_vector_3'> +1.6075698e-04 </wgt>
<wgt id='morphing_basis_vector_4'> +1.0970755e-04 </wgt>
<wgt id='morphing_basis_vector_5'> +1.7473199e-04 </wgt>
</rwgt>
</event>
<event>
 4      1 +1.5130300e-07 1.58968200e+03 7.81860800e-03 8.26467900e-02
        2 -1    0    0  501    0 +0.0000000000e+00 +0.0000000000e+00 +8.1793339808e+02 8.1793339808e+02 0.0000000000e+00 0.0000e+00 -1.0000e+00
       -2 -1    0    0    0  501 -0.0000000000e+00 -0.0000000000e+00 -7.7240043473e+02 7.7240043473e+02 0.0000000000e+00 0.0000e+00 1.0000e+00
      -13  1    1    2    0    0 -6.7097034757e+02 +4.2488791199e+02 -9.5138741890e+00 7.9424269519e+02 0.0000000000e+00 0.0000e+00 1.0000e+00
       13  1    1    2    0    0 +6.7097034757e+02 -4.2488791199e+02 +5.5046837536e+01 7.9609113761e+02 0.0000000000e+00 0.0000e+00 -1.0000e+00
<mgrwt>
<rscale>  0 0.15896819E+04</rscale>
<asrwt>0</asrwt>
<pdfrwt beam="1">  1        2 0.12583591E+00 0.15896819E+04</pdfrwt>
<pdfrwt beam="2">  1       -2 0.11883084E+00 0.15896819E+04</pdfrwt>
<totfact> 0.21508348E+01</totfact>
</mgrwt>
<rwgt>
<wgt id='morphing_basis_vector_1'> +1.4294145e-04 </wgt>
<wgt id='morphing_basis_vector_2'> +1.0394980e-04 </wgt>
<wgt id='morphing_basis_vector_3'> +1.5065153e-04 </wgt>
<wgt id='morphing_basis_vector_4'> +9.0317262e-05 </wgt>
<wgt id='morphing_basis_vector_5'> +1.5625200e-04 </wgt>
</rwgt>
</event>
<event>
 4      1 +1.5130300e-07 1.74865400e+03 7.81860800e-03 8.18341400e-02
        2 -1    0    0  501    0 +0.0000000000e+00 +0.0000000000e+00 +8.6946658321e+02 8.6946658321e+02 0.0000000000e+00 0.0000e+00 1.0000e+00
       -2 -1    0    0    0  501 -0.0000000000e+00 -0.0000000000e+00 -8.7921465669e+02 8.7921465669e+02 0.0000000000e+00 0.0000e+00 -1.0000e+00
      -13  1    1    2    0    0 +4.8445877301e+02 -1.0720645421e+02 -7.2478399106e+02 8.7835377853e+02 0.0000000000e+00 0.0000e+00 -1.0000e+00
       13  1    1    2    0    0 -4.8445877301e+02 +1.0720645421e+02 +7.1503591759e+02 8.7032746137e+02 0.0000000000e+00 0.0000e+00 1.0000e+00
<mgrwt>
<rscale>  0 0.17486541E+04</rscale>
<asrwt>0</asrwt>
<pdfrwt beam="1">  1        2 0.13376409E+00 0.17486541E+04</pdfrwt>
<pdfrwt beam="2">  1       -2 0.13526379E+00 0.17486541E+04</pdfrwt>
<totfact> 0.13888076E+01</totfact>
</mgrwt>
<rwgt>
<wgt id='morphing_basis_vector_1'> +2.0076572e-04 </wgt>
<wgt id='morphing_basis_vector_2'> +1.3281622e-04 </wgt>
<wgt id='morphing_basis_vector_3'> +2.1188099e-04 </wgt>
<wgt id='morphing_basis_vector_4'> +1.4573194e-04 </wgt>
<wgt id='morphing_basis_vector_5'> +2.3225187e-04 </wgt>
</rwgt>
</event>
<event>
 4      1 +1.5130300e-07 1.84611500e+03 7.81860800e-03 8.13784900e-02
        2 -1    0    0  501    0 +0.0000000000e+00 +0.0000000000e+00 +1.7365826602e+03 1.7365826602e+03 0.0000000000e+00 0.0000e+00 1.0000e+00
       -2 -1    0    0    0  501 -0.0000000000e+00 -0.0000000000e+00 -4.9063913951e+02 4.9063913951e+02 0.0000000000e+00 0.0000e+00 -1.0000e+00
      -13  1    1    2    0    0 -1.7493142384e+02 -5.5648552421e+02 -2.4008048577e+02 6.3080566052e+02 0.0000000000e+00 0.0000e+00 -1.0000e+00
       13  1    1    2    0    0 +1.7493142384e+02 +5.5648552421e+02 +1.4860240064e+03 1.5964161392e+03 0.0000000000e+00 0.0000e+00 1.0000e+00
<mgrwt>
<rscale>  0 0.18461153E+04</rscale>
<asrwt>0</asrwt>
<pdfrwt beam="1">  1        2 0.26716656E+00 0.18461153E+04</pdfrwt>
<pdfrwt beam="2">  1       -2 0.75482945E-01 0.18461153E+04</pdfrwt>
<totfact> 0.17833864E+01</totfact>
</mgrwt>
<rwgt>
<wgt id='morphing_basis_vector_1'> +2.4812974e-04 </wgt>
<wgt id='morphing_basis_vector_2'> +1.6481057e-04 </wgt>
<wgt id='morphing_basis_vector_3'> +2.6318344e-04 </wgt>
<wgt id='morphing_basis_vector_4'> +1.8186158e-04 </wgt>
<wgt id='morphing_basis_vector_5'> +2.9008784e-04 </wgt>
</rwgt>
</event>
<event>
 4      1 +1.5130300e-07 1.72358400e+03 7.81860800e-03 8.19562800e-02
        2 -1    0    0  501    0 +0.0000000000e+00 +0.0000000000e+00 +4.2412319649e+02 4.2412319649e+02 0.0000000000e+00 0.0000e+00 -1.0000e+00
       -2 -1    0    0    0  501 -0.0000000000e+00 -0.0000000000e+00 -1.7511079669e+03 1.7511079669e+03 0.0000000000e+00 0.0000e+00 1.0000e+00
      -13  1    1    2    0    0 +6.5197910846e+02 -5.2469166420e+02 -9.2307831884e+02 1.2459741904e+03 0.0000000000e+00 0.0000e+00 -1.0000e+00
       13  1    1    2    0    0 -6.5197910846e+02 +5.2469166420e+02 -4.0390645160e+02 9.2925697306e+02 0.0000000000e+00 0.0000e+00 1.0000e+00
<mgrwt>
<rscale>  0 0.17235841E+04</rscale>
<asrwt>0</asrwt>
<pdfrwt beam="1">  1        2 0.65249722E-01 0.17235841E+04</pdfrwt>
<pdfrwt beam="2">  1       -2 0.26940123E+00 0.17235841E+04</pdfrwt>
<totfact> 0.32924027E+00</totfact>
</mgrwt>
<rwgt>
<wgt id='morphing_basis_vector_1'> +1.9250221e-04 </wgt>
<wgt id='morphing_basis_vector_2'> +1.3350248e-04 </wgt>
<wgt id='morphing_basis_vector_3'> +2.0378690e-04 </wgt>
<wgt id='morphing_basis_vector_4'> +1.3210078e-04 </wgt>
<wgt id='morphing_basis_vector_5'> +2.1847286e-04 </wgt>
</rwgt>
</event>
<event>
 4      1 +1.5130300e-07 1.65817000e+03 7.81860800e-03 8.22852400e-02
        2 -1    0    0  501    0 +0.0000000000e+00 +0.0000000000e+00 +1.6730595649e+03 1.6730595649e+03 0.0000000000e+00 0.0000e+00 1.0000e+00
       -2 -1    0    0    0  501 -0.0000000000e+00 -0.0000000000e+00 -4.1085337490e+02 4.1085337490e+02 0.0000000000e+00 0.0000e+00 -1.0000e+00
      -13  1    1    2    0    0 -4.9107373122e+02 +6.6015824713e+02 +5.0281654251e+02 9.6425452873e+02 0.0000000000e+00 0.0000e+00 -1.0000e+00
       13  1    1    2    0    0 +4.9107373122e+02 -6.6015824713e+02 +7.5938964748e+02 1.1196584111e+03 0.0000000000e+00 0.0000e+00 1.0000e+00
<mgrwt>
<rscale>  0 0.16581703E+04</rscale>
<asrwt>0</asrwt>
<pdfrwt beam="1">  1        2 0.25739378E+00 0.16581703E+04</pdfrwt>
<pdfrwt beam="2">  1       -2 0.63208212E-01 0.16581703E+04</pdfrwt>
<totfact> 0.28727119E+01</totfact>
</mgrwt>
<rwgt>
<wgt id='morphing_basis_vector_1'> +1.6699304e-04 </wgt>
<wgt id='morphing_basis_vector_2'> +1.1868791e-04 </wgt>
<wgt id='morphing_basis_vector_3'> +1.7648570e-04 </wgt>
<wgt id='morphing_basis_vector_4'> +1.1004799e-04 </wgt>
<wgt id='morphing_basis_vector_5'> +1.8612765e-04 </wgt>
</rwgt>
</event>
<event>
 4      1 +1.5130300e-07 1.75872500e+03 7.81860800e-03 8.17856600e-02
        2 -1    0    0  501    0 +0.0000000000e+00 +0.0000000000e+00 +1.7953354398e+03 1.7953354398e+03 0.0000000000e+00 0.0000e+00 -1.0000e+00
       -2 -1    0    0    0  501 -0.0000000000e+00 -0.0000000000e+00 -4.3071511830e+02 4.3071511830e+02 0.0000000000e+00 0.0000e+00 1.0000e+00
      -13  1    1    2    0    0 +3.3053534618e+02 -7.7614620485e+02 +3.6811206571e+02 9.2041460185e+02 0.0000000000e+00 0.0000e+00 1.0000e+00
       13  1    1    2    0    0 -3.3053534618e+02 +7.7614620485e+02 +9.9650825579e+02 1.3056359562e+03 0.0000000000e+00 0.0000e+00 -1.0000e+00
<mgrwt>
<rscale>  0 0.17587247E+04</rscale>
<asrwt>0</asrwt>
<pdfrwt beam="1">  1        2 0.27620545E+00 0.17587247E+04</pdfrwt>
<pdfrwt beam="2">  1       -2 0.66263865E-01 0.17587247E+04</pdfrwt>
<totfact> 0.22063755E+01</totfact>
</mgrwt>
<rwgt>
<wgt id='morphing_basis_vector_1'> +2.0774596e-04 </wgt>
<wgt id='morphing_basis_vector_2'> +1.4310586e-04 </wgt>
<wgt id='morphing_basis_vector_3'> +2.2020536e-04 </wgt>
<wgt id='morphing_basis_vector_4'> +1.4446904e-04 </wgt>
<wgt id='morphing_basis_vector_5'> +2.3742714e-04 </wgt>
</rwgt>
</event>
<event>
 4      1 +1.5130300e-07 1.63688300e+03 7.81860800e-03 8.23956600e-02
        2 -1    0    0  501    0 +0.0000000000e+00 +0.0000000000e+00 +1.8164454395e+03 1.8164454395e+03 0.0000000000e+00 0.0000e+00 -1.0000e+00
       -2 -1    0    0    0  501 -0.0000000000e+00 -0.0000000000e+00 -3.6876756418e+02 3.6876756418e+02 0.0000000000e+00 0.0000e+00 1.0000e+00
      -13  1    1    2    0    0 +5.5426016380e+02 -5.5928908780e+02 +1.0218652266e+03 1.2900454078e+03 0.0000000000e+00 0.0000e+00 1.0000e+00
       13  1    1    2    0    0 -5.5426016380e+02 +5.5928908780e+02 +4.2581264877e+02 8.9516759591e+02 0.0000000000e+00 0.0000e+00 -1.0000e+00
<mgrwt>
<rscale>  0 0.16368826E+04</rscale>
<asrwt>0</asrwt>
<pdfrwt beam="1">  1        2 0.27945314E+00 0.16368826E+04</pdfrwt>
<pdfrwt beam="2">  1       -2 0.56733473E-01 0.16368826E+04</pdfrwt>
<totfact> 0.29897387E+01</totfact>
</mgrwt>
<rwgt>
<wgt id='morphing_basis_vector_1'> +1.6963037e-04 </wgt>
<wgt id='morphing_basis_vector_2'> +1.4493525e-04 </wgt>
<wgt id='morphing_basis_vector_3'> +1.8232136e-04 </wgt>
<wgt id='morphing_basis_vector_4'> +8.3702492e-05 </wgt>
<wgt id='morphing_basis_vector_5'> +1.7491208e-04 </wgt>
</rwgt>
</event>
<event>
 4      1 +1.5130300e-07 1.76164900e+03 7.81860800e-03 8.17716500e-02
        2 -1    0    0  501    0 +0.0000000000e+00 +0.0000000000e+00 +8.7808006577e+02 8.7808006577e+02 0.0000000000e+00 0.0000e+00 -1.0000e+00
       -2 -1    0    0    0  501 -0.0000000000e+00 -0.0000000000e+00 -8.8357748661e+02 8.8357748661e+02 0.0000000000e+00 0.0000e+00 1.0000e+00
      -13  1    1    2    0    0 +8.6060435369e+02 +1.4027583885e+02 -1.2738724488e+02 8.8121772266e+02 0.0000000000e+00 0.0000e+00 1.0000e+00
       13  1    1    2    0    0 -8.6060435369e+02 -1.4027583885e+02 +1.2188982404e+02 8.8043982973e+02 0.0000000000e+00 0.0000e+00 -1.0000e+00
<mgrwt>
<rscale>  0 0.17616490E+04</rscale>
<asrwt>0</asrwt>
<pdfrwt beam="1">  1        2 0.13508924E+00 0.17616490E+04</pdfrwt>
<pdfrwt beam="2">  1       -2 0.13593500E+00 0.17616490E+04</pdfrwt>
<totfact> 0.13506482E+01</totfact>
</mgrwt>
<rwgt>
<wgt id='morphing_basis_vector_1'> +2.1101635e-04 </wgt>
<wgt id='morphing_basis_vector_2'> +1.4975158e-04 </wgt>
<wgt id='morphing_basis_vector_3'> +2.2436223e-04 </wgt>
<wgt id='morphing_basis_vector_4'> +1.4172362e-04 </wgt>
<wgt id='morphing_basis_vector_5'> +2.3876357e-04 </wgt>
</rwgt>
</event>
<event>
 4      1 +1.5130300e-07 1.57690500e+03 7.81860800e-03 8.27163100e-02
        2 -1    0    0  501    0 +0.0000000000e+00 +0.0000000000e+00 +1.2132033774e+03 1.2132033774e+03 0.0000000000e+00 0.0000e+00 1.0000e+00
       -2 -1    0    0    0  501 -0.0000000000e+00 -0.0000000000e+00 -5.1240963048e+02 5.1240963048e+02 0.0000000000e+00 0.0000e+00 -1.0000e+00
      -13  1    1    2    0    0 -6.3034353950e+02 +4.3752508882e+02 +1.5192044487e+02 7.8220266089e+02 0.0000000000e+00 0.0000e+00 -1.0000e+00
       13  1    1    2    0    0 +6.3034353950e+02 -4.3752508882e+02 +5.4887330210e+02 9.4341034703e+02 0.0000000000e+00 0.0000e+00 1.0000e+00
<mgrwt>
<rscale>  0 0.15769047E+04</rscale>
<asrwt>0</asrwt>
<pdfrwt beam="1">  1        2 0.18664667E+00 0.15769047E+04</pdfrwt>
<pdfrwt beam="2">  1       -2 0.78832251E-01 0.15769047E+04</pdfrwt>
<totfact> 0.32663473E+01</totfact>
</mgrwt>
<rwgt>
<wgt id='morphing_basis_vector_1'> +1.3636212e-04 </wgt>
<wgt id='morphing_basis_vector_2'> +9.4210655e-05 </wgt>
<wgt id='morphing_basis_vector_3'> +1.4294220e-04 </wgt>
<wgt id='morphing_basis_vector_4'> +9.1488512e-05 </wgt>
<wgt id='morphing_basis_vector_5'> +1.5144154e-04 </wgt>
</rwgt>
</event>
<event>
 4      1 +1.5130300e-07 1.56121100e+03 7.81860800e-03 8.28026400e-02
        2 -1    0    0  501    0 +0.0000000000e+00 +0.0000000000e+00 +3.8144892616e+02 3.8144892616e+02 0.0000000000e+00 0.0000e+00 -1.0000e+00
       -2 -1    0    0    0  501 -0.0000000000e+00 -0.0000000000e+00 -1.5974486144e+03 1.5974486144e+03 0.0000000000e+00 0.0000e+00 1.0000e+00
      -13  1    1    2    0    0 -6.9025140168e+02 -8.9026981415e+01 -1.0560931685e+03 1.2647946796e+03 0.0000000000e+00 0.0000e+00 1.0000e+00
       13  1    1    2    0    0 +6.9025140168e+02 +8.9026981415e+01 -1.5990651967e+02 7.1410286092e+02 0.0000000000e+00 0.0000e+00 -1.0000e+00
<mgrwt>
<rscale>  0 0.15612111E+04</rscale>
<asrwt>0</asrwt>
<pdfrwt beam="1">  1        2 0.58684451E-01 0.15612111E+04</pdfrwt>
<pdfrwt beam="2">  1       -2 0.24576132E+00 0.15612111E+04</pdfrwt>
<totfact> 0.54765895E+00</totfact>
</mgrwt>
<rwgt>
<wgt id='morphing_basis_vector_1'> +1.2995224e-04 </wgt>
<wgt id='morphing_basis_vector_2'> +8.6905195e-05 </wgt>
<wgt id='morphing_basis_vector_3'> +1.3570120e-04 </wgt>
<wgt id='morphing_basis_vector_4'> +9.0114262e-05 </wgt>
<wgt id='morphing_basis_vector_5'> +1.4548448e-04 </wgt>
</rwgt>
</event>
<event>
 4      1 +1.5130300e-07 1.77948400e+03 7.81860800e-03 8.16867800e-02
        2 -1    0    0  501    0 +0.0000000000e+00 +0.0000000000e+00 +1.5125096191e+03 1.5125096191e+03 0.0000000000e+00 0.0000e+00 -1.0000e+00
       -2 -1    0    0    0  501 -0.0000000000e+00 -0.0000000000e+00 -5.2339541247e+02 5.2339541247e+02 0.0000000000e+00 0.0000e+00 1.0000e+00
      -13  1    1    2    0    0 -1.3937884820e+02 -7.6147420182e+02 -7.2461672850e+00 7.7415885341e+02 0.0000000000e+00 0.0000e+00 1.0000e+00
       13  1    1    2    0    0 +1.3937884820e+02 +7.6147420182e+02 +9.9636037387e+02 1.2617461781e+03 0.0000000000e+00 0.0000e+00 -1.0000e+00
<mgrwt>
<rscale>  0 0.17794837E+04</rscale>
<asrwt>0</asrwt>
<pdfrwt beam="1">  1        2 0.23269379E+00 0.17794837E+04</pdfrwt>
<pdfrwt beam="2">  1       -2 0.80522372E-01 0.17794837E+04</pdfrwt>
<totfact> 0.20682456E+01</totfact>
</mgrwt>
<rwgt>
<wgt id='morphing_basis_vector_1'> +2.1582409e-04 </wgt>
<wgt id='morphing_basis_vector_2'> +1.4502114e-04 </wgt>
<wgt id='morphing_basis_vector_3'> +2.2846384e-04 </wgt>
<wgt id='morphing_basis_vector_4'> +1.5478823e-04 </wgt>
<wgt id='morphing_basis_vector_5'> +2.4938633e-04 </wgt>
</rwgt>
</event>
<event>
 4      1 +1.5130300e-07 1.72274200e+03 7.81860800e-03 8.19604100e-02
        2 -1    0    0  501    0 +0.0000000000e+00 +0.0000000000e+00 +2.3100683534e+03 2.3100683534e+03 0.0000000000e+00 0.0000e+00 -1.0000e+00
       -2 -1    0    0    0  501 -0.0000000000e+00 -0.0000000000e+00 -3.2118533508e+02 3.2118533508e+02 0.0000000000e+00 0.0000e+00 1.0000e+00
      -13  1    1    2    0    0 +3.9742627872e+02 +1.0519237392e+02 -1.6166988219e+02 4.4175811634e+02 0.0000000000e+00 0.0000e+00 1.0000e+00
       13  1    1    2    0    0 -3.9742627872e+02 -1.0519237392e+02 +2.1505529005e+03 2.1894955721e+03 0.0000000000e+00 0.0000e+00 -1.0000e+00
<mgrwt>
<rscale>  0 0.17227421E+04</rscale>
<asrwt>0</asrwt>
<pdfrwt beam="1">  1        2 0.35539512E+00 0.17227421E+04</pdfrwt>
<pdfrwt beam="2">  1       -2 0.49413130E-01 0.17227421E+04</pdfrwt>
<totfact> 0.20548455E+01</totfact>
</mgrwt>
<rwgt>
<wgt id='morphing_basis_vector_1'> +1.8938887e-04 </wgt>
<wgt id='morphing_basis_vector_2'> +1.2508468e-04 </wgt>
<wgt id='morphing_basis_vector_3'> +1.9957218e-04 </wgt>
<wgt id='morphing_basis_vector_4'> +1.3714881e-04 </wgt>
<wgt id='morphing_basis_vector_5'> +2.1844276e-04 </wgt>
</rwgt>
</event>
<event>
 4      1 +1.5130300e-07 1.62295900e+03 7.81860800e-03 8.24688200e-02
        2 -1    0    0  501    0 +0.0000000000e+00 +0.0000000000e+00 +1.0078055722e+03 1.0078055722e+03 0.0000000000e+00 0.0000e+00 -1.0000e+00
       -2 -1    0    0    0  501 -0.0000000000e+00 -0.0000000000e+00 -6.5339914615e+02 6.5339914615e+02 0.0000000000e+00 0.0000e+00 1.0000e+00
      -13  1    1    2    0    0 -2.0975368614e+02 -5.9719799418e+02 -3.4255956191e+02 7.1971460077e+02 0.0000000000e+00 0.0000e+00 1.0000e+00
       13  1    1    2    0    0 +2.0975368614e+02 +5.9719799418e+02 +6.9696598793e+02 9.4149011755e+02 0.0000000000e+00 0.0000e+00 -1.0000e+00
<mgrwt>
<rscale>  0 0.16229594E+04</rscale>
<asrwt>0</asrwt>
<pdfrwt beam="1">  1        2 0.15504701E+00 0.16229594E+04</pdfrwt>
<pdfrwt beam="2">  1       -2 0.10052295E+00 0.16229594E+04</pdfrwt>
<totfact> 0.24526698E+01</totfact>
</mgrwt>
<rwgt>
<wgt id='morphing_basis_vector_1'> +1.5049618e-04 </wgt>
<wgt id='morphing_basis_vector_2'> +9.9696511e-05 </wgt>
<wgt id='morphing_basis_vector_3'> +1.5770034e-04 </wgt>
<wgt id='morphing_basis_vector_4'> +1.0674884e-04 </wgt>
<wgt id='morphing_basis_vector_5'> +1.7082901e-04 </wgt>
</rwgt>
</event>
<event>
 4      1 +1.5130300e-07 1.56530700e+03 7.81860800e-03 8.27800100e-02
        2 -1    0    0  501    0 +0.0000000000e+00 +0.0000000000e+00 +3.1022389465e+03 3.1022389465e+03 0.0000000000e+00 0.0000e+00 -1.0000e+00
       -2 -1    0    0    0  501 -0.0000000000e+00 -0.0000000000e+00 -1.9745298399e+02 1.9745298399e+02 0.0000000000e+00 0.0000e+00 1.0000e+00
      -13  1    1    2    0    0 +3.1564756306e+02 +7.1443876863e+02 +1.5575869736e+03 1.7424503777e+03 0.0000000000e+00 0.0000e+00 1.0000e+00
       13  1    1    2    0    0 -3.1564756306e+02 -7.1443876863e+02 +1.3471989888e+03 1.5572415528e+03 0.0000000000e+00 0.0000e+00 -1.0000e+00
<mgrwt>
<rscale>  0 0.15653068E+04</rscale>
<asrwt>0</asrwt>
<pdfrwt beam="1">  1        2 0.47726749E+00 0.15653068E+04</pdfrwt>
<pdfrwt beam="2">  1       -2 0.30377385E-01 0.15653068E+04</pdfrwt>
<totfact> 0.16768189E+01</totfact>
</mgrwt>
<rwgt>
<wgt id='morphing_basis_vector_1'> +1.3650214e-04 </wgt>
<wgt id='morphing_basis_vector_2'> +1.0336566e-04 </wgt>
<wgt id='morphing_basis_vector_3'> +1.4410879e-04 </wgt>
<wgt id='morphing_basis_vector_4'> +8.1224914e-05 </wgt>
<wgt id='morphing_basis_vector_5'> +1.4632765e-04 </wgt>
</rwgt>
</event>
<event>
 4      1 +1.5130300e-07 1.78405600e+03 7.81860800e-03 8.16651800e-02
        2 -1    0    0  501    0 +0.0000000000e+00 +0.0000000000e+00 +1.7623472111e+03 1.7623472111e+03 0.0000000000e+00 0.0000e+00 1.0000e+00
       -2 -1    0    0    0  501 -0.0000000000e+00 -0.0000000000e+00 -4.5150804798e+02 4.5150804798e+02 0.0000000000e+00 0.0000e+00 -1.0000e+00
      -13  1    1    2    0    0 -7.3631058353e+02 -7.2012902591e+01 +3.6983925602e+01 7.4074755775e+02 0.0000000000e+00 0.0000e+00 -1.0000e+00
       13  1    1    2    0    0 +7.3631058353e+02 +7.2012902591e+01 +1.2738552375e+03 1.4731077014e+03 0.0000000000e+00 0.0000e+00 1.0000e+00
<mgrwt>
<rscale>  0 0.17840560E+04</rscale>
<asrwt>0</asrwt>
<pdfrwt beam="1">  1        2 0.27113034E+00 0.17840560E+04</pdfrwt>
<pdfrwt beam="2">  1       -2 0.69462777E-01 0.17840560E+04</pdfrwt>
<totfact> 0.20777985E+01</totfact>
</mgrwt>
<rwgt>
<wgt id='morphing_basis_vector_1'> +2.1769157e-04 </wgt>
<wgt id='morphing_basis_vector_2'> +1.4560237e-04 </wgt>
<wgt id='morphing_basis_vector_3'> +2.3039077e-04 </wgt>
<wgt id='morphing_basis_vector_4'> +1.5701424e-04 </wgt>
<wgt id='morphing_basis_vector_5'> +2.5207093e-04 </wgt>
</rwgt>
</event>
<event>
 4      1 +1.5130300e-07 1.85667400e+03 7.81860800e-03 8.13308800e-02
        2 -1    0    0  501    0 +0.0000000000e+00 +0.0000000000e+00 +5.5482157980e+02 5.5482157980e+02 0.0000000000e+00 0.0000e+00 -1.0000e+00
       -2 -1    0    0    0  501 -0.0000000000e+00 -0.0000000000e+00 -1.5533096504e+03 1.5533096504e+03 0.0000000000e+00 0.0000e+00 1.0000e+00
      -13  1    1    2    0    0 -3.1562540880e+02 +2.7249460852e+02 -1.4409954670e+03 1.5001135444e+03 0.0000000000e+00 0.0000e+00 1.0000e+00
       13  1    1    2    0    0 +3.1562540880e+02 -2.7249460852e+02 +4.4250739637e+02 6.0801768576e+02 0.0000000000e+00 0.0000e+00 -1.0000e+00
<mgrwt>
<rscale>  0 0.18566741E+04</rscale>
<asrwt>0</asrwt>
<pdfrwt beam="1">  1        2 0.85357168E-01 0.18566741E+04</pdfrwt>
<pdfrwt beam="2">  1       -2 0.23897071E+00 0.18566741E+04</pdfrwt>
<totfact> 0.38869079E+00</totfact>
</mgrwt>
<rwgt>
<wgt id='morphing_basis_vector_1'> +2.5358706e-04 </wgt>
<wgt id='morphing_basis_vector_2'> +1.6818266e-04 </wgt>
<wgt id='morphing_basis_vector_3'> +2.6905535e-04 </wgt>
<wgt id='morphing_basis_vector_4'> +1.8641445e-04 </wgt>
<wgt id='morphing_basis_vector_5'> +2.9696169e-04 </wgt>
</rwgt>
</event>
<event>
 4      1 +1.5130300e-07 1.80985400e+03 7.81860800e-03 8.15445600e-02
        2 -1    0    0  501    0 +0.0000000000e+00 +0.0000000000e+00 +2.9452744570e+03 2.9452744570e+03 0.0000000000e+00 0.0000e+00 -1.0000e+00
       -2 -1    0    0    0  501 -0.0000000000e+00 -0.0000000000e+00 -2.7803619520e+02 2.7803619520e+02 0.0000000000e+00 0.0000e+00 1.0000e+00
      -13  1    1    2    0    0 +2.7691617030e+00 -8.6895653249e+02 +8.8376863321e+02 1.2394111992e+03 0.0000000000e+00 0.0000e+00 1.0000e+00
       13  1    1    2    0    0 -2.7691617030e+00 +8.6895653249e+02 +1.7834696286e+03 1.9838994531e+03 0.0000000000e+00 0.0000e+00 -1.0000e+00
<mgrwt>
<rscale>  0 0.18098540E+04</rscale>
<asrwt>0</asrwt>
<pdfrwt beam="1">  1        2 0.45311913E+00 0.18098540E+04</pdfrwt>
<pdfrwt beam="2">  1       -2 0.42774801E-01 0.18098540E+04</pdfrwt>
<totfact> 0.11066290E+01</totfact>
</mgrwt>
<rwgt>
<wgt id='morphing_basis_vector_1'> +2.3234406e-04 </wgt>
<wgt id='morphing_basis_vector_2'> +1.6038522e-04 </wgt>
<wgt id='morphing_basis_vector_3'> +2.4696938e-04 </wgt>
<wgt id='morphing_basis_vector_4'> +1.6239430e-04 </wgt>
<wgt id='morphing_basis_vector_5'> +2.6703452e-04 </wgt>
</rwgt>
</event>
<event>
 4      1 +1.5130300e-07 1.77488500e+03 7.81860800e-03 8.17085600e-02
        2 -1    0    0  501    0 +0.0000000000e+00 +0.0000000000e+00 +2.4800436696e+03 2.4800436696e+03 0.0000000000e+00 0.0000e+00 -1.0000e+00
       -2 -1    0    0    0  501 -0.0000000000e+00 -0.0000000000e+00 -3.1755653720e+02 3.1755653720e+02 0.0000000000e+00 0.0000e+00 1.0000e+00
      -13  1    1    2    0    0 +5.8911102322e+02 +2.5064435203e+01 +3.5850447730e+01 5.9073283149e+02 0.0000000000e+00 0.0000e+00 1.0000e+00
       13  1    1    2    0    0 -5.8911102322e+02 -2.5064435203e+01 +2.1266366846e+03 2.2068673753e+03 0.0000000000e+00 0.0000e+00 -1.0000e+00
<mgrwt>
<rscale>  0 0.17748849E+04</rscale>
<asrwt>0</asrwt>
<pdfrwt beam="1">  1        2 0.38154517E+00 0.17748849E+04</pdfrwt>
<pdfrwt beam="2">  1       -2 0.48854853E-01 0.17748849E+04</pdfrwt>
<totfact> 0.16627786E+01</totfact>
</mgrwt>
<rwgt>
<wgt id='morphing_basis_vector_1'> +2.1285661e-04 </wgt>
<wgt id='morphing_basis_vector_2'> +1.4116640e-04 </wgt>
<wgt id='morphing_basis_vector_3'> +2.2499069e-04 </wgt>
<wgt id='morphing_basis_vector_4'> +1.5471448e-04 </wgt>
<wgt id='morphing_basis_vector_5'> +2.4687330e-04 </wgt>
</rwgt>
</event>
<event>
 4      1 +1.5130300e-07 1.82513300e+03 7.81860800e-03 8.14740900e-02
        2 -1    0    0  501    0 +0.0000000000e+00 +0.0000000000e+00 +6.6509037170e+02 6.6509037170e+02 0.0000000000e+00 0.0000e+00 1.0000e+00
       -2 -1    0    0    0  501 -0.0000000000e+00 -0.0000000000e+00 -1.2521263418e+03 1.2521263418e+03 0.0000000000e+00 0.0000e+00 -1.0000e+00
      -13  1    1    2    0    0 -7.0224245993e+02 -1.7309839603e+02 -8.7807398654e+02 1.1375945908e+03 0.0000000000e+00 0.0000e+00 -1.0000e+00
       13  1    1    2    0    0 +7.0224245993e+02 +1.7309839603e+02 +2.9103801640e+02 7.7962212272e+02 0.0000000000e+00 0.0000e+00 1.0000e+00
<mgrwt>
<rscale>  0 0.18251325E+04</rscale>
<asrwt>0</asrwt>
<pdfrwt beam="1">  1        2 0.10232160E+00 0.18251325E+04</pdfrwt>
<pdfrwt beam="2">  1       -2 0.19263482E+00 0.18251325E+04</pdfrwt>
<totfact> 0.67500395E+00</totfact>
</mgrwt>
<rwgt>
<wgt id='morphing_basis_vector_1'> +2.3770551e-04 </wgt>
<wgt id='morphing_basis_vector_2'> +1.5872474e-04 </wgt>
<wgt id='morphing_basis_vector_3'> +2.5202109e-04 </wgt>
<wgt id='morphing_basis_vector_4'> +1.7275341e-04 </wgt>
<wgt id='morphing_basis_vector_5'> +2.7675649e-04 </wgt>
</rwgt>
</event>
<event>
 4      1 +1.5130300e-07 1.73325100e+03 7.81860800e-03 8.19089300e-02
        2 -1    0    0  501    0 +0.0000000000e+00 +0.0000000000e+00 +2.8003189950e+03 2.8003189950e+03 0.0000000000e+00 0.0000e+00 1.0000e+00
       -2 -1    0    0    0  501 -0.0000000000e+00 -0.0000000000e+00 -2.6819801739e+02 2.6819801739e+02 0.0000000000e+00 0.0000e+00 -1.0000e+00
      -13  1    1    2    0    0 +6.2070465906e+02 -4.3086266397e+01 +1.9807934782e+02 6.5296717235e+02 0.0000000000e+00 0.0000e+00 -1.0000e+00
       13  1    1    2    0    0 -6.2070465906e+02 +4.3086266397e+01 +2.3340416298e+03 2.4155498400e+03 0.0000000000e+00 0.0000e+00 1.0000e+00
<mgrwt>
<rscale>  0 0.17332513E+04</rscale>
<asrwt>0</asrwt>
<pdfrwt beam="1">  1        2 0.43081829E+00 0.17332513E+04</pdfrwt>
<pdfrwt beam="2">  1       -2 0.41261235E-01 0.17332513E+04</pdfrwt>
<totfact> 0.14735752E+01</totfact>
</mgrwt>
<rwgt>
<wgt id='morphing_basis_vector_1'> +1.9414418e-04 </wgt>
<wgt id='morphing_basis_vector_2'> +1.2877718e-04 </wgt>
<wgt id='morphing_basis_vector_3'> +2.0477840e-04 </wgt>
<wgt id='morphing_basis_vector_4'> +1.4019282e-04 </wgt>
<wgt id='morphing_basis_vector_5'> +2.2393756e-04 </wgt>
</rwgt>
</event>
<event>
 4      1 +1.5130300e-07 1.85761500e+03 7.81860800e-03 8.13266600e-02
        2 -1    0    0  501    0 +0.0000000000e+00 +0.0000000000e+00 +2.3442706480e+03 2.3442706480e+03 0.0000000000e+00 0.0000e+00 1.0000e+00
       -2 -1    0    0    0  501 -0.0000000000e+00 -0.0000000000e+00 -3.6799634263e+02 3.6799634263e+02 0.0000000000e+00 0.0000e+00 -1.0000e+00
      -13  1    1    2    0    0 -3.8620398531e+02 +1.7243805051e+02 -2.1923083854e+02 4.7639328301e+02 0.0000000000e+00 0.0000e+00 -1.0000e+00
       13  1    1    2    0    0 +3.8620398531e+02 -1.7243805051e+02 +2.1955051439e+03 2.2358737076e+03 0.0000000000e+00 0.0000e+00 1.0000e+00
<mgrwt>
<rscale>  0 0.18576146E+04</rscale>
<asrwt>0</asrwt>
<pdfrwt beam="1">  1        2 0.36065701E+00 0.18576146E+04</pdfrwt>
<pdfrwt beam="2">  1       -2 0.56614823E-01 0.18576146E+04</pdfrwt>
<totfact> 0.14793010E+01</totfact>
</mgrwt>
<rwgt>
<wgt id='morphing_basis_vector_1'> +2.5409131e-04 </wgt>
<wgt id='morphing_basis_vector_2'> +1.6852641e-04 </wgt>
<wgt id='morphing_basis_vector_3'> +2.6960273e-04 </wgt>
<wgt id='morphing_basis_vector_4'> +1.8679695e-04 </wgt>
<wgt id='morphing_basis_vector_5'> +2.9757767e-04 </wgt>
</rwgt>
</event>
<event>
 4      1 +1.5130300e-07 1.65367600e+03 7.81860800e-03 8.23084100e-02
        2 -1    0    0  501    0 +0.0000000000e+00 +0.0000000000e+00 +1.2930269160e+03 1.2930269160e+03 0.0000000000e+00 0.0000e+00 1.0000e+00
       -2 -1    0    0    0  501 -0.0000000000e+00 -0.0000000000e+00 -5.2872897351e+02 5.2872897351e+02 0.0000000000e+00 0.0000e+00 -1.0000e+00
      -13  1    1    2    0    0 -5.3886215988e+02 -1.8795177467e+02 -2.7696211040e+02 6.3435503273e+02 0.0000000000e+00 0.0000e+00 -1.0000e+00
       13  1    1    2    0    0 +5.3886215988e+02 +1.8795177467e+02 +1.0412600529e+03 1.1874008568e+03 0.0000000000e+00 0.0000e+00 1.0000e+00
<mgrwt>
<rscale>  0 0.16536757E+04</rscale>
<asrwt>0</asrwt>
<pdfrwt beam="1">  1        2 0.19892722E+00 0.16536757E+04</pdfrwt>
<pdfrwt beam="2">  1       -2 0.81342919E-01 0.16536757E+04</pdfrwt>
<totfact> 0.27183298E+01</totfact>
</mgrwt>
<rwgt>
<wgt id='morphing_basis_vector_1'> +1.6167828e-04 </wgt>
<wgt id='morphing_basis_vector_2'> +1.0682982e-04 </wgt>
<wgt id='morphing_basis_vector_3'> +1.6970690e-04 </wgt>
<wgt id='morphing_basis_vector_4'> +1.1565207e-04 </wgt>
<wgt id='morphing_basis_vector_5'> +1.8457836e-04 </wgt>
</rwgt>
</event>
<event>
 4      1 +1.5130300e-07 1.62000700e+03 7.81860800e-03 8.24844300e-02
        2 -1    0    0  501    0 +0.0000000000e+00 +0.0000000000e+00 +3.6008455697e+03 3.6008455697e+03 0.0000000000e+00 0.0000e+00 1.0000e+00
       -2 -1    0    0    0  501 -0.0000000000e+00 -0.0000000000e+00 -1.8220882093e+02 1.8220882093e+02 0.0000000000e+00 0.0000e+00 -1.0000e+00
      -13  1    1    2    0    0 -4.7246276717e+02 -4.1061895820e+02 +2.9097990887e+03 2.9763668678e+03 0.0000000000e+00 0.0000e+00 1.0000e+00
       13  1    1    2    0    0 +4.7246276717e+02 +4.1061895820e+02 +5.0883766009e+02 8.0668752284e+02 0.0000000000e+00 0.0000e+00 -1.0000e+00
<mgrwt>
<rscale>  0 0.16200072E+04</rscale>
<asrwt>0</asrwt>
<pdfrwt beam="1">  1        2 0.55397619E+00 0.16200072E+04</pdfrwt>
<pdfrwt beam="2">  1       -2 0.28032129E-01 0.16200072E+04</pdfrwt>
<totfact> 0.86012794E+00</totfact>
</mgrwt>
<rwgt>
<wgt id='morphing_basis_vector_1'> +1.8693319e-04 </wgt>
<wgt id='morphing_basis_vector_2'> +2.1051730e-04 </wgt>
<wgt id='morphing_basis_vector_3'> +2.0741096e-04 </wgt>
<wgt id='morphing_basis_vector_4'> +3.4499003e-05 </wgt>
<wgt id='morphing_basis_vector_5'> +1.6413937e-04 </wgt>
</rwgt>
</event>
<event>
 4      1 +1.5130300e-07 1.56203200e+03 7.81860800e-03 8.27981000e-02
        2 -1    0    0  501    0 +0.0000000000e+00 +0.0000000000e+00 +2.8984890145e+03 2.8984890145e+03 0.0000000000e+00 0.0000e+00 -1.0000e+00
       -2 -1    0    0    0  501 -0.0000000000e+00 -0.0000000000e+00 -2.1044951724e+02 2.1044951724e+02 0.0000000000e+00 0.0000e+00 1.0000e+00
      -13  1    1    2    0    0 +5.3195546604e+02 +1.3284611979e+02 +2.3700079170e+02 5.9732242939e+02 0.0000000000e+00 0.0000e+00 1.0000e+00
       13  1    1    2    0    0 -5.3195546604e+02 -1.3284611979e+02 +2.4510387056e+03 2.5116161024e+03 0.0000000000e+00 0.0000e+00 -1.0000e+00
<mgrwt>
<rscale>  0 0.15620315E+04</rscale>
<asrwt>0</asrwt>
<pdfrwt beam="1">  1        2 0.44592136E+00 0.15620315E+04</pdfrwt>
<pdfrwt beam="2">  1       -2 0.32376851E-01 0.15620315E+04</pdfrwt>
<totfact> 0.20276705E+01</totfact>
</mgrwt>
<rwgt>
<wgt id='morphing_basis_vector_1'> +1.2963399e-04 </wgt>
<wgt id='morphing_basis_vector_2'> +8.5350398e-05 </wgt>
<wgt id='morphing_basis_vector_3'> +1.3520819e-04 </wgt>
<wgt id='morphing_basis_vector_4'> +9.1409664e-05 </wgt>
<wgt id='morphing_basis_vector_5'> +1.4588328e-04 </wgt>
</rwgt>
</event>
<event>
 4      1 +1.5130300e-07 1.70376100e+03 7.81860800e-03 8.20543600e-02
        2 -1    0    0  501    0 +0.0000000000e+00 +0.0000000000e+00 +1.5889188713e+03 1.5889188713e+03 0.0000000000e+00 0.0000e+00 -1.0000e+00
       -2 -1    0    0    0  501 -0.0000000000e+00 -0.0000000000e+00 -4.5672590474e+02 4.5672590474e+02 0.0000000000e+00 0.0000e+00 1.0000e+00
      -13  1    1    2    0    0 -3.3699359999e+02 +1.4123811339e+02 -3.5785925311e+02 5.1144514481e+02 0.0000000000e+00 0.0000e+00 1.0000e+00
       13  1    1    2    0    0 +3.3699359999e+02 -1.4123811339e+02 +1.4900522196e+03 1.5341996312e+03 0.0000000000e+00 0.0000e+00 -1.0000e+00
<mgrwt>
<rscale>  0 0.17037610E+04</rscale>
<asrwt>0</asrwt>
<pdfrwt beam="1">  1        2 0.24444905E+00 0.17037610E+04</pdfrwt>
<pdfrwt beam="2">  1       -2 0.70265525E-01 0.17037610E+04</pdfrwt>
<totfact> 0.25489955E+01</totfact>
</mgrwt>
<rwgt>
<wgt id='morphing_basis_vector_1'> +1.8138703e-04 </wgt>
<wgt id='morphing_basis_vector_2'> +1.1969071e-04 </wgt>
<wgt id='morphing_basis_vector_3'> +1.9092642e-04 </wgt>
<wgt id='morphing_basis_vector_4'> +1.3107125e-04 </wgt>
<wgt id='morphing_basis_vector_5'> +2.0871912e-04 </wgt>
</rwgt>
</event>
<event>
 4      1 +1.5130300e-07 1.59376800e+03 7.81860800e-03 8.26246900e-02
        2 -1    0    0  501    0 +0.0000000000e+00 +0.0000000000e+00 +1.4468265992e+03 1.4468265992e+03 0.0000000000e+00 0.0000e+00 1.0000e+00
       -2 -1    0    0    0  501 -0.0000000000e+00 -0.0000000000e+00 -4.3890811891e+02 4.3890811891e+02 0.0000000000e+00 0.0000e+00 -1.0000e+00
      -13  1    1    2    0    0 -2.2125755334e+02 +1.3534346210e+02 +1.3954863950e+03 1.4193854432e+03 0.0000000000e+00 0.0000e+00 1.0000e+00
       13  1    1    2    0    0 +2.2125755334e+02 -1.3534346210e+02 -3.8756791476e+02 4.6634927490e+02 0.0000000000e+00 0.0000e+00 -1.0000e+00
<mgrwt>
<rscale>  0 0.15937678E+04</rscale>
<asrwt>0</asrwt>
<pdfrwt beam="1">  1        2 0.22258871E+00 0.15937678E+04</pdfrwt>
<pdfrwt beam="2">  1       -2 0.67524327E-01 0.15937678E+04</pdfrwt>
<totfact> 0.33630376E+01</totfact>
</mgrwt>
<rwgt>
<wgt id='morphing_basis_vector_1'> +1.9129932e-04 </wgt>
<wgt id='morphing_basis_vector_2'> +2.4465934e-04 </wgt>
<wgt id='morphing_basis_vector_3'> +2.1540913e-04 </wgt>
<wgt id='morphing_basis_vector_4'> +2.2234930e-06 </wgt>
<wgt id='morphing_basis_vector_5'> +1.5119904e-04 </wgt>
</rwgt>
</event>
<event>
 4      1 +1.5130300e-07 1.73721600e+03 7.81860800e-03 8.18896000e-02
        2 -1    0    0  501    0 +0.0000000000e+00 +0.0000000000e+00 +1.4265451957e+03 1.4265451957e+03 0.0000000000e+00 0.0000e+00 1.0000e+00
       -2 -1    0    0    0  501 -0.0000000000e+00 -0.0000000000e+00 -5.2888594707e+02 5.2888594707e+02 0.0000000000e+00 0.0000e+00 -1.0000e+00
      -13  1    1    2    0    0 +3.9321361170e+02 +7.1814311811e+02 +7.7532160381e+02 1.1275948172e+03 0.0000000000e+00 0.0000e+00 -1.0000e+00
       13  1    1    2    0    0 -3.9321361170e+02 -7.1814311811e+02 +1.2233764480e+02 8.2783632552e+02 0.0000000000e+00 0.0000e+00 1.0000e+00
<mgrwt>
<rscale>  0 0.17372158E+04</rscale>
<asrwt>0</asrwt>
<pdfrwt beam="1">  1        2 0.21946849E+00 0.17372158E+04</pdfrwt>
<pdfrwt beam="2">  1       -2 0.81367070E-01 0.17372158E+04</pdfrwt>
<totfact> 0.22651868E+01</totfact>
</mgrwt>
<rwgt>
<wgt id='morphing_basis_vector_1'> +2.1768933e-04 </wgt>
<wgt id='morphing_basis_vector_2'> +1.9471090e-04 </wgt>
<wgt id='morphing_basis_vector_3'> +2.3704784e-04 </wgt>
<wgt id='morphing_basis_vector_4'> +9.9263278e-05 </wgt>
<wgt id='morphing_basis_vector_5'> +2.2279797e-04 </wgt>
</rwgt>
</event>
<event>
 4      1 +1.5130300e-07 1.68047400e+03 7.81860800e-03 8.21713600e-02
        2 -1    0    0  501    0 +0.0000000000e+00 +0.0000000000e+00 +3.9390311058e+03 3.9390311058e+03 0.0000000000e+00 0.0000e+00 1.0000e+00
       -2 -1    0    0    0  501 -0.0000000000e+00 -0.0000000000e+00 -1.7923134422e+02 1.7923134422e+02 0.0000000000e+00 0.0000e+00 -1.0000e+00
      -13  1    1    2    0    0 +7.7435024727e+02 -1.1457751148e+02 +2.6282594523e+03 2.7423519213e+03 0.0000000000e+00 0.0000e+00 1.0000e+00
       13  1    1    2    0    0 -7.7435024727e+02 +1.1457751148e+02 +1.1315403093e+03 1.3759105288e+03 0.0000000000e+00 0.0000e+00 -1.0000e+00
<mgrwt>
<rscale>  0 0.16804736E+04</rscale>
<asrwt>0</asrwt>
<pdfrwt beam="1">  1        2 0.60600472E+00 0.16804736E+04</pdfrwt>
<pdfrwt beam="2">  1       -2 0.27574056E-01 0.16804736E+04</pdfrwt>
<totfact> 0.47770419E+00</totfact>
</mgrwt>
<rwgt>
<wgt id='morphing_basis_vector_1'> +1.9315171e-04 </wgt>
<wgt id='morphing_basis_vector_2'> +1.7640397e-04 </wgt>
<wgt id='morphing_basis_vector_3'> +2.0992656e-04 </wgt>
<wgt id='morphing_basis_vector_4'> +8.3074608e-05 </wgt>
<wgt id='morphing_basis_vector_5'> +1.9411487e-04 </wgt>
</rwgt>
</event>
<event>
 4      1 +1.5130300e-07 1.57406100e+03 7.81860800e-03 8.27318800e-02
        2 -1    0    0  501    0 +0.0000000000e+00 +0.0000000000e+00 +1.2949197993e+03 1.2949197993e+03 0.0000000000e+00 0.0000e+00 1.0000e+00
       -2 -1    0    0    0  501 -0.0000000000e+00 -0.0000000000e+00 -4.7834401674e+02 4.7834401674e+02 0.0000000000e+00 0.0000e+00 -1.0000e+00
      -13  1    1    2    0    0 -4.7103881661e+02 +3.3140284930e+02 -1.9598140366e+02 6.0837005667e+02 0.0000000000e+00 0.0000e+00 -1.0000e+00
       13  1    1    2    0    0 +4.7103881661e+02 -3.3140284930e+02 +1.0125571862e+03 1.1648937594e+03 0.0000000000e+00 0.0000e+00 1.0000e+00
<mgrwt>
<rscale>  0 0.15740612E+04</rscale>
<asrwt>0</asrwt>
<pdfrwt beam="1">  1        2 0.19921843E+00 0.15740612E+04</pdfrwt>
<pdfrwt beam="2">  1       -2 0.73591388E-01 0.15740612E+04</pdfrwt>
<totfact> 0.34141194E+01</totfact>
</mgrwt>
<rwgt>
<wgt id='morphing_basis_vector_1'> +1.3358140e-04 </wgt>
<wgt id='morphing_basis_vector_2'> +8.8092261e-05 </wgt>
<wgt id='morphing_basis_vector_3'> +1.3946286e-04 </wgt>
<wgt id='morphing_basis_vector_4'> +9.4273420e-05 </wgt>
<wgt id='morphing_basis_vector_5'> +1.5057701e-04 </wgt>
</rwgt>
</event>
<event>
 4      1 +1.5130300e-07 1.59212700e+03 7.81860800e-03 8.26335600e-02
        2 -1    0    0  501    0 +0.0000000000e+00 +0.0000000000e+00 +1.9916117205e+03 1.9916117205e+03 0.0000000000e+00 0.0000e+00 -1.0000e+00
       -2 -1    0    0    0  501 -0.0000000000e+00 -0.0000000000e+00 -3.1819323624e+02 3.1819323624e+02 0.0000000000e+00 0.0000e+00 1.0000e+00
      -13  1    1    2    0    0 -7.3289941833e+02 +3.0896444074e+02 +7.8822681417e+02 1.1197776983e+03 0.0000000000e+00 0.0000e+00 1.0000e+00
       13  1    1    2    0    0 +7.3289941833e+02 -3.0896444074e+02 +8.8519167011e+02 1.1900272585e+03 0.0000000000e+00 0.0000e+00 -1.0000e+00
<mgrwt>
<rscale>  0 0.15921274E+04</rscale>
<asrwt>0</asrwt>
<pdfrwt beam="1">  1        2 0.30640179E+00 0.15921274E+04</pdfrwt>
<pdfrwt beam="2">  1       -2 0.48952807E-01 0.15921274E+04</pdfrwt>
<totfact> 0.32127832E+01</totfact>
</mgrwt>
<rwgt>
<wgt id='morphing_basis_vector_1'> +1.4377315e-04 </wgt>
<wgt id='morphing_basis_vector_2'> +1.0451456e-04 </wgt>
<wgt id='morphing_basis_vector_3'> +1.5155110e-04 </wgt>
<wgt id='morphing_basis_vector_4'> +9.0933180e-05 </wgt>
<wgt id='morphing_basis_vector_5'> +1.5724976e-04 </wgt>
</rwgt>
</event>
<event>
 4      1 +1.5130300e-07 1.63463000e+03 7.81860800e-03 8.24074500e-02
        2 -1    0    0  501    0 +0.0000000000e+00 +0.0000000000e+00 +7.8580183340e+02 7.8580183340e+02 0.0000000000e+00 0.0000e+00 -1.0000e+00
       -2 -1    0    0    0  501 -0.0000000000e+00 -0.0000000000e+00 -8.5009183056e+02 8.5009183056e+02 0.0000000000e+00 0.0000e+00 1.0000e+00
      -13  1    1    2    0    0 +2.4980148257e+02 -5.4242884186e+02 -5.9058527135e+02 8.3989332175e+02 0.0000000000e+00 0.0000e+00 1.0000e+00
       13  1    1    2    0    0 -2.4980148257e+02 +5.4242884186e+02 +5.2629527418e+02 7.9600034222e+02 0.0000000000e+00 0.0000e+00 -1.0000e+00
<mgrwt>
<rscale>  0 0.16346299E+04</rscale>
<asrwt>0</asrwt>
<pdfrwt beam="1">  1        2 0.12089259E+00 0.16346299E+04</pdfrwt>
<pdfrwt beam="2">  1       -2 0.13078336E+00 0.16346299E+04</pdfrwt>
<totfact> 0.17531980E+01</totfact>
</mgrwt>
<rwgt>
<wgt id='morphing_basis_vector_1'> +1.5463042e-04 </wgt>
<wgt id='morphing_basis_vector_2'> +1.0223541e-04 </wgt>
<wgt id='morphing_basis_vector_3'> +1.6212627e-04 </wgt>
<wgt id='morphing_basis_vector_4'> +1.1015118e-04 </wgt>
<wgt id='morphing_basis_vector_5'> +1.7596624e-04 </wgt>
</rwgt>
</event>
<event>
 4      1 +1.5130300e-07 1.79913700e+03 7.81860800e-03 8.15944200e-02
        2 -1    0    0  501    0 +0.0000000000e+00 +0.0000000000e+00 +2.8931480057e+03 2.8931480057e+03 0.0000000000e+00 0.0000e+00 -1.0000e+00
       -2 -1    0    0    0  501 -0.0000000000e+00 -0.0000000000e+00 -2.7970339797e+02 2.7970339797e+02 0.0000000000e+00 0.0000e+00 1.0000e+00
      -13  1    1    2    0    0 +5.5149091739e+02 -3.8696702407e+01 +5.5249674157e+01 5.5560074985e+02 0.0000000000e+00 0.0000e+00 1.0000e+00
       13  1    1    2    0    0 -5.5149091739e+02 +3.8696702407e+01 +2.5581949336e+03 2.6172506538e+03 0.0000000000e+00 0.0000e+00 -1.0000e+00
<mgrwt>
<rscale>  0 0.17991368E+04</rscale>
<asrwt>0</asrwt>
<pdfrwt beam="1">  1        2 0.44509967E+00 0.17991368E+04</pdfrwt>
<pdfrwt beam="2">  1       -2 0.43031294E-01 0.17991368E+04</pdfrwt>
<totfact> 0.11824044E+01</totfact>
</mgrwt>
<rwgt>
<wgt id='morphing_basis_vector_1'> +2.2436112e-04 </wgt>
<wgt id='morphing_basis_vector_2'> +1.4876643e-04 </wgt>
<wgt id='morphing_basis_vector_3'> +2.3742444e-04 </wgt>
<wgt id='morphing_basis_vector_4'> +1.6368551e-04 </wgt>
<wgt id='morphing_basis_vector_5'> +2.6101430e-04 </wgt>
</rwgt>
</event>
<event>
 4      1 +1.5130300e-07 1.58018600e+03 7.81860800e-03 8.26983900e-02
        2 -1    0    0  501    0 +0.0000000000e+00 +0.0000000000e+00 +2.6150532430e+03 2.6150532430e+03 0.0000000000e+00 0.0000e+00 1.0000e+00
       -2 -1    0    0    0  501 -0.0000000000e+00 -0.0000000000e+00 -2.3871300110e+02 2.3871300110e+02 0.0000000000e+00 0.0000e+00 -1.0000e+00
      -13  1    1    2    0    0 +3.3607668188e+02 +2.9767319201e+02 +1.4026401736e+01 4.4916990693e+02 0.0000000000e+00 0.0000e+00 -1.0000e+00
       13  1    1    2    0    0 -3.3607668188e+02 -2.9767319201e+02 +2.3623138401e+03 2.4045963372e+03 0.0000000000e+00 0.0000e+00 1.0000e+00
<mgrwt>
<rscale>  0 0.15801863E+04</rscale>
<asrwt>0</asrwt>
<pdfrwt beam="1">  1        2 0.40231587E+00 0.15801863E+04</pdfrwt>
<pdfrwt beam="2">  1       -2 0.36725079E-01 0.15801863E+04</pdfrwt>
<totfact> 0.24118205E+01</totfact>
</mgrwt>
<rwgt>
<wgt id='morphing_basis_vector_1'> +1.3546141e-04 </wgt>
<wgt id='morphing_basis_vector_2'> +8.9023653e-05 </wgt>
<wgt id='morphing_basis_vector_3'> +1.4144678e-04 </wgt>
<wgt id='morphing_basis_vector_4'> +9.6068414e-05 </wgt>
<wgt id='morphing_basis_vector_5'> +1.5303296e-04 </wgt>
</rwgt>
</event>
<event>
 4      1 +1.5130300e-07 1.63904000e+03 7.81860800e-03 8.23843900e-02
        2 -1    0    0  501    0 +0.0000000000e+00 +0.0000000000e+00 +2.2865263170e+03 2.2865263170e+03 0.0000000000e+00 0.0000e+00 -1.0000e+00
       -2 -1    0    0    0  501 -0.0000000000e+00 -0.0000000000e+00 -2.9372639944e+02 2.9372639944e+02 0.0000000000e+00 0.0000e+00 1.0000e+00
      -13  1    1    2    0    0 +3.0755451369e+02 +6.0439420530e+02 +2.7202256600e+02 7.3066983700e+02 0.0000000000e+00 0.0000e+00 1.0000e+00
       13  1    1    2    0    0 -3.0755451369e+02 -6.0439420530e+02 +1.7207773516e+03 1.8495828794e+03 0.0000000000e+00 0.0000e+00 -1.0000e+00
<mgrwt>
<rscale>  0 0.16390401E+04</rscale>
<asrwt>0</asrwt>
<pdfrwt beam="1">  1        2 0.35177327E+00 0.16390401E+04</pdfrwt>
<pdfrwt beam="2">  1       -2 0.45188678E-01 0.16390401E+04</pdfrwt>
<totfact> 0.25400388E+01</totfact>
</mgrwt>
<rwgt>
<wgt id='morphing_basis_vector_1'> +1.5652549e-04 </wgt>
<wgt id='morphing_basis_vector_2'> +1.0413088e-04 </wgt>
<wgt id='morphing_basis_vector_3'> +1.6424590e-04 </wgt>
<wgt id='morphing_basis_vector_4'> +1.1086412e-04 </wgt>
<wgt id='morphing_basis_vector_5'> +1.7789207e-04 </wgt>
</rwgt>
</event>
<event>
 4      1 +1.5130300e-07 1.56582400e+03 7.81860800e-03 8.27771500e-02
        2 -1    0    0  501    0 +0.0000000000e+00 +0.0000000000e+00 +1.3018033090e+03 1.3018033090e+03 0.0000000000e+00 0.0000e+00 -1.0000e+00
       -2 -1    0    0    0  501 -0.0000000000e+00 -0.0000000000e+00 -4.7084799356e+02 4.7084799356e+02 0.0000000000e+00 0.0000e+00 1.0000e+00
      -13  1    1    2    0    0 +2.8936879005e+02 +4.1412262029e+02 -2.6162054373e+02 5.6892631350e+02 0.0000000000e+00 0.0000e+00 1.0000e+00
       13  1    1    2    0    0 -2.8936879005e+02 -4.1412262029e+02 +1.0925758592e+03 1.2037249891e+03 0.0000000000e+00 0.0000e+00 -1.0000e+00
<mgrwt>
<rscale>  0 0.15658244E+04</rscale>
<asrwt>0</asrwt>
<pdfrwt beam="1">  1        2 0.20027743E+00 0.15658244E+04</pdfrwt>
<pdfrwt beam="2">  1       -2 0.72438153E-01 0.15658244E+04</pdfrwt>
<totfact> 0.35039439E+01</totfact>
</mgrwt>
<rwgt>
<wgt id='morphing_basis_vector_1'> +1.3080190e-04 </wgt>
<wgt id='morphing_basis_vector_2'> +8.6008407e-05 </wgt>
<wgt id='morphing_basis_vector_3'> +1.3644942e-04 </wgt>
<wgt id='morphing_basis_vector_4'> +9.2432054e-05 </wgt>
<wgt id='morphing_basis_vector_5'> +1.4736078e-04 </wgt>
</rwgt>
</event>
<event>
 4      1 +1.5130300e-07 1.63536600e+03 7.81860800e-03 8.24036000e-02
        2 -1    0    0  501    0 +0.0000000000e+00 +0.0000000000e+00 +1.0311805194e+03 1.0311805194e+03 0.0000000000e+00 0.0000e+00 -1.0000e+00
       -2 -1    0    0    0  501 -0.0000000000e+00 -0.0000000000e+00 -6.4838812607e+02 6.4838812607e+02 0.0000000000e+00 0.0000e+00 1.0000e+00
      -13  1    1    2    0    0 -3.8176522271e+02 -4.1789318506e+02 -4.1466065029e+02 7.0165721994e+02 0.0000000000e+00 0.0000e+00 1.0000e+00
       13  1    1    2    0    0 +3.8176522271e+02 +4.1789318506e+02 +7.9745304357e+02 9.7791142548e+02 0.0000000000e+00 0.0000e+00 -1.0000e+00
<mgrwt>
<rscale>  0 0.16353657E+04</rscale>
<asrwt>0</asrwt>
<pdfrwt beam="1">  1        2 0.15864316E+00 0.16353657E+04</pdfrwt>
<pdfrwt beam="2">  1       -2 0.99752019E-01 0.16353657E+04</pdfrwt>
<totfact> 0.24144359E+01</totfact>
</mgrwt>
<rwgt>
<wgt id='morphing_basis_vector_1'> +1.5484220e-04 </wgt>
<wgt id='morphing_basis_vector_2'> +1.0224330e-04 </wgt>
<wgt id='morphing_basis_vector_3'> +1.6233796e-04 </wgt>
<wgt id='morphing_basis_vector_4'> +1.1046712e-04 </wgt>
<wgt id='morphing_basis_vector_5'> +1.7630142e-04 </wgt>
</rwgt>
</event>
<event>
 4      1 +1.5130300e-07 1.65153100e+03 7.81860800e-03 8.23195000e-02
        2 -1    0    0  501    0 +0.0000000000e+00 +0.0000000000e+00 +1.0062628149e+03 1.0062628149e+03 0.0000000000e+00 0.0000e+00 -1.0000e+00
       -2 -1    0    0    0  501 -0.0000000000e+00 -0.0000000000e+00 -6.7764435239e+02 6.7764435239e+02 0.0000000000e+00 0.0000e+00 1.0000e+00
      -13  1    1    2    0    0 +8.2069095220e+02 -5.4244380683e+01 +8.9299205730e+01 8.2731519991e+02 0.0000000000e+00 0.0000e+00 1.0000e+00
       13  1    1    2    0    0 -8.2069095220e+02 +5.4244380683e+01 +2.3931925675e+02 8.5659196734e+02 0.0000000000e+00 0.0000e+00 -1.0000e+00
<mgrwt>
<rscale>  0 0.16515306E+04</rscale>
<asrwt>0</asrwt>
<pdfrwt beam="1">  1        2 0.15480966E+00 0.16515306E+04</pdfrwt>
<pdfrwt beam="2">  1       -2 0.10425298E+00 0.16515306E+04</pdfrwt>
<totfact> 0.22436069E+01</totfact>
</mgrwt>
<rwgt>
<wgt id='morphing_basis_vector_1'> +1.6492014e-04 </wgt>
<wgt id='morphing_basis_vector_2'> +1.1833856e-04 </wgt>
<wgt id='morphing_basis_vector_3'> +1.7437303e-04 </wgt>
<wgt id='morphing_basis_vector_4'> +1.0727262e-04 </wgt>
<wgt id='morphing_basis_vector_5'> +1.8300337e-04 </wgt>
</rwgt>
</event>
<event>
 4      1 +1.5130300e-07 1.66555800e+03 7.81860800e-03 8.22473200e-02
        2 -1    0    0  501    0 +0.0000000000e+00 +0.0000000000e+00 +1.0234742025e+03 1.0234742025e+03 0.0000000000e+00 0.0000e+00 1.0000e+00
       -2 -1    0    0    0  501 -0.0000000000e+00 -0.0000000000e+00 -6.7761400910e+02 6.7761400910e+02 0.0000000000e+00 0.0000e+00 -1.0000e+00
      -13  1    1    2    0    0 -2.2423337126e+02 +5.1043044750e+02 -4.5889486379e+02 7.2208333490e+02 0.0000000000e+00 0.0000e+00 -1.0000e+00
       13  1    1    2    0    0 +2.2423337126e+02 -5.1043044750e+02 +8.0475505719e+02 9.7900487669e+02 0.0000000000e+00 0.0000e+00 1.0000e+00
<mgrwt>
<rscale>  0 0.16655575E+04</rscale>
<asrwt>0</asrwt>
<pdfrwt beam="1">  1        2 0.15745757E+00 0.16655575E+04</pdfrwt>
<pdfrwt beam="2">  1       -2 0.10424831E+00 0.16655575E+04</pdfrwt>
<totfact> 0.21868688E+01</totfact>
</mgrwt>
<rwgt>
<wgt id='morphing_basis_vector_1'> +1.6621053e-04 </wgt>
<wgt id='morphing_basis_vector_2'> +1.0981493e-04 </wgt>
<wgt id='morphing_basis_vector_3'> +1.7458765e-04 </wgt>
<wgt id='morphing_basis_vector_4'> +1.1915928e-04 </wgt>
<wgt id='morphing_basis_vector_5'> +1.9010528e-04 </wgt>
</rwgt>
</event>
<event>
 4      1 +1.5130300e-07 1.74473200e+03 7.81860800e-03 8.18531100e-02
        2 -1    0    0  501    0 +0.0000000000e+00 +0.0000000000e+00 +1.1492736955e+03 1.1492736955e+03 0.0000000000e+00 0.0000e+00 1.0000e+00
       -2 -1    0    0    0  501 -0.0000000000e+00 -0.0000000000e+00 -6.6217660619e+02 6.6217660619e+02 0.0000000000e+00 0.0000e+00 -1.0000e+00
      -13  1    1    2    0    0 +4.4557679855e+02 -7.0895573295e+02 +4.9757862384e+02 9.7403357313e+02 0.0000000000e+00 0.0000e+00 -1.0000e+00
       13  1    1    2    0    0 -4.4557679855e+02 +7.0895573295e+02 -1.0481534526e+01 8.3741672855e+02 0.0000000000e+00 0.0000e+00 1.0000e+00
<mgrwt>
<rscale>  0 0.17447317E+04</rscale>
<asrwt>0</asrwt>
<pdfrwt beam="1">  1        2 0.17681134E+00 0.17447317E+04</pdfrwt>
<pdfrwt beam="2">  1       -2 0.10187332E+00 0.17447317E+04</pdfrwt>
<totfact> 0.19294429E+01</totfact>
</mgrwt>
<rwgt>
<wgt id='morphing_basis_vector_1'> +2.1787605e-04 </wgt>
<wgt id='morphing_basis_vector_2'> +1.8763612e-04 </wgt>
<wgt id='morphing_basis_vector_3'> +2.3631177e-04 </wgt>
<wgt id='morphing_basis_vector_4'> +1.0782929e-04 </wgt>
<wgt id='morphing_basis_vector_5'> +2.2730371e-04 </wgt>
</rwgt>
</event>
<event>
 4      1 +1.5130300e-07 1.69854000e+03 7.81860800e-03 8.20804300e-02
        2 -1    0    0  501    0 +0.0000000000e+00 +0.0000000000e+00 +1.6922602975e+03 1.6922602975e+03 0.0000000000e+00 0.0000e+00 1.0000e+00
       -2 -1    0    0    0  501 -0.0000000000e+00 -0.0000000000e+00 -4.2621051471e+02 4.2621051471e+02 0.0000000000e+00 0.0000e+00 -1.0000e+00
      -13  1    1    2    0    0 -7.5639987675e+02 -1.8119703638e+02 +2.0771005835e+02 8.0505689730e+02 0.0000000000e+00 0.0000e+00 -1.0000e+00
       13  1    1    2    0    0 +7.5639987675e+02 +1.8119703638e+02 +1.0583397244e+03 1.3134139149e+03 0.0000000000e+00 0.0000e+00 1.0000e+00
<mgrwt>
<rscale>  0 0.16985395E+04</rscale>
<asrwt>0</asrwt>
<pdfrwt beam="1">  1        2 0.26034773E+00 0.16985395E+04</pdfrwt>
<pdfrwt beam="2">  1       -2 0.65570849E-01 0.16985395E+04</pdfrwt>
<totfact> 0.25872553E+01</totfact>
</mgrwt>
<rwgt>
<wgt id='morphing_basis_vector_1'> +1.8051188e-04 </wgt>
<wgt id='morphing_basis_vector_2'> +1.2204246e-04 </wgt>
<wgt id='morphing_basis_vector_3'> +1.9036786e-04 </wgt>
<wgt id='morphing_basis_vector_4'> +1.2696708e-04 </wgt>
<wgt id='morphing_basis_vector_5'> +2.0591263e-04 </wgt>
</rwgt>
</event>
<event>
 4      1 +1.5130300e-07 1.69979700e+03 7.81860800e-03 8.20741400e-02
        2 -1    0    0  501    0 +0.0000000000e+00 +0.0000000000e+00 +6.2902252048e+02 6.2902252048e+02 0.0000000000e+00 0.0000e+00 -1.0000e+00
       -2 -1    0    0    0  501 -0.0000000000e+00 -0.0000000000e+00 -1.1483336507e+03 1.1483336507e+03 0.0000000000e+00 0.0000e+00 1.0000e+00
      -13  1    1    2    0    0 -7.7316308951e+02 -2.4838930437e+02 -5.2179213476e+02 9.6526962109e+02 0.0000000000e+00 0.0000e+00 1.0000e+00
       13  1    1    2    0    0 +7.7316308951e+02 +2.4838930437e+02 +2.4810045065e+00 8.1208655012e+02 0.0000000000e+00 0.0000e+00 -1.0000e+00
<mgrwt>
<rscale>  0 0.16997973E+04</rscale>
<asrwt>0</asrwt>
<pdfrwt beam="1">  1        2 0.96772696E-01 0.16997973E+04</pdfrwt>
<pdfrwt beam="2">  1       -2 0.17666671E+00 0.16997973E+04</pdfrwt>
<totfact> 0.96190606E+00</totfact>
</mgrwt>
<rwgt>
<wgt id='morphing_basis_vector_1'> +1.8181982e-04 </wgt>
<wgt id='morphing_basis_vector_2'> +1.2473955e-04 </wgt>
<wgt id='morphing_basis_vector_3'> +1.9201997e-04 </wgt>
<wgt id='morphing_basis_vector_4'> +1.2583558e-04 </wgt>
<wgt id='morphing_basis_vector_5'> +2.0642412e-04 </wgt>
</rwgt>
</event>
<event>
 4      1 +1.5130300e-07 1.85534300e+03 7.81860800e-03 8.13368600e-02
        2 -1    0    0  501    0 +0.0000000000e+00 +0.0000000000e+00 +1.1975756095e+03 1.1975756095e+03 0.0000000000e+00 0.0000e+00 -1.0000e+00
       -2 -1    0    0    0  501 -0.0000000000e+00 -0.0000000000e+00 -7.1859752368e+02 7.1859752368e+02 0.0000000000e+00 0.0000e+00 1.0000e+00
      -13  1    1    2    0    0 -4.0065748463e+02 +8.1693323275e+02 +5.2818715645e+01 9.1142533621e+02 0.0000000000e+00 0.0000e+00 1.0000e+00
       13  1    1    2    0    0 +4.0065748463e+02 -8.1693323275e+02 +4.2615937019e+02 1.0047477970e+03 0.0000000000e+00 0.0000e+00 -1.0000e+00
<mgrwt>
<rscale>  0 0.18553435E+04</rscale>
<asrwt>0</asrwt>
<pdfrwt beam="1">  1        2 0.18424240E+00 0.18553435E+04</pdfrwt>
<pdfrwt beam="2">  1       -2 0.11055346E+00 0.18553435E+04</pdfrwt>
<totfact> 0.14623605E+01</totfact>
</mgrwt>
<rwgt>
<wgt id='morphing_basis_vector_1'> +2.5727770e-04 </wgt>
<wgt id='morphing_basis_vector_2'> +1.8075213e-04 </wgt>
<wgt id='morphing_basis_vector_3'> +2.7455465e-04 </wgt>
<wgt id='morphing_basis_vector_4'> +1.7722981e-04 </wgt>
<wgt id='morphing_basis_vector_5'> +2.9541807e-04 </wgt>
</rwgt>
</event>
<event>
 4      1 +1.5130300e-07 1.57101100e+03 7.81860800e-03 8.27486100e-02
        2 -1    0    0  501    0 +0.0000000000e+00 +0.0000000000e+00 +3.8377232893e+02 3.8377232893e+02 0.0000000000e+00 0.0000e+00 1.0000e+00
       -2 -1    0    0    0  501 -0.0000000000e+00 -0.0000000000e+00 -1.6077733572e+03 1.6077733572e+03 0.0000000000e+00 0.0000e+00 -1.0000e+00
      -13  1    1    2    0    0 +3.4442047874e+02 +3.7414771880e+02 +1.4692515636e+02 5.2933825030e+02 0.0000000000e+00 0.0000e+00 1.0000e+00
       13  1    1    2    0    0 -3.4442047874e+02 -3.7414771880e+02 -1.3709261847e+03 1.4622074359e+03 0.0000000000e+00 0.0000e+00 -1.0000e+00
<mgrwt>
<rscale>  0 0.15710110E+04</rscale>
<asrwt>0</asrwt>
<pdfrwt beam="1">  1        2 0.59041896E-01 0.15710110E+04</pdfrwt>
<pdfrwt beam="2">  1       -2 0.24734975E+00 0.15710110E+04</pdfrwt>
<totfact> 0.52985574E+00</totfact>
</mgrwt>
<rwgt>
<wgt id='morphing_basis_vector_1'> +1.7429487e-04 </wgt>
<wgt id='morphing_basis_vector_2'> +2.1160030e-04 </wgt>
<wgt id='morphing_basis_vector_3'> +1.9420923e-04 </wgt>
<wgt id='morphing_basis_vector_4'> +1.4667482e-05 </wgt>
<wgt id='morphing_basis_vector_5'> +1.4344930e-04 </wgt>
</rwgt>
</event>
<event>
 4      1 +1.5130300e-07 1.73726400e+03 7.81860800e-03 8.18893700e-02
        2 -1    0    0  501    0 +0.0000000000e+00 +0.0000000000e+00 +9.6956808177e+02 9.6956808177e+02 0.0000000000e+00 0.0000e+00 -1.0000e+00
       -2 -1    0    0    0  501 -0.0000000000e+00 -0.0000000000e+00 -7.7820376868e+02 7.7820376868e+02 0.0000000000e+00 0.0000e+00 1.0000e+00
      -13  1    1    2    0    0 +1.8351132957e+02 +2.7056086213e+02 -7.1394750333e+02 7.8523921560e+02 0.0000000000e+00 0.0000e+00 1.0000e+00
       13  1    1    2    0    0 -1.8351132957e+02 -2.7056086213e+02 +9.0531181643e+02 9.6253263486e+02 0.0000000000e+00 0.0000e+00 -1.0000e+00
<mgrwt>
<rscale>  0 0.17372640E+04</rscale>
<asrwt>0</asrwt>
<pdfrwt beam="1">  1        2 0.14916432E+00 0.17372640E+04</pdfrwt>
<pdfrwt beam="2">  1       -2 0.11972366E+00 0.17372640E+04</pdfrwt>
<totfact> 0.16559981E+01</totfact>
</mgrwt>
<rwgt>
<wgt id='morphing_basis_vector_1'> +1.9565822e-04 </wgt>
<wgt id='morphing_basis_vector_2'> +1.2924193e-04 </wgt>
<wgt id='morphing_basis_vector_3'> +2.0633989e-04 </wgt>
<wgt id='morphing_basis_vector_4'> +1.4199793e-04 </wgt>
<wgt id='morphing_basis_vector_5'> +2.2611094e-04 </wgt>
</rwgt>
</event>
<event>
 4      1 +1.5130300e-07 1.67905900e+03 7.81860800e-03 8.21785200e-02
        2 -1    0    0  501    0 +0.0000000000e+00 +0.0000000000e+00 +5.9982832172e+02 5.9982832172e+02 0.0000000000e+00 0.0000e+00 -1.0000e+00
       -2 -1    0    0    0  501 -0.0000000000e+00 -0.0000000000e+00 -1.1750196887e+03 1.1750196887e+03 0.0000000000e+00 0.0000e+00 1.0000e+00
      -13  1    1    2    0    0 +7.7029844186e+01 +7.7425212659e+02 -6.2087660190e+02 9.9543342681e+02 0.0000000000e+00 0.0000e+00 1.0000e+00
       13  1    1    2    0    0 -7.7029844186e+01 -7.7425212659e+02 +4.5685234936e+01 7.7941458359e+02 0.0000000000e+00 0.0000e+00 -1.0000e+00
<mgrwt>
<rscale>  0 0.16790594E+04</rscale>
<asrwt>0</asrwt>
<pdfrwt beam="1">  1        2 0.92281281E-01 0.16790594E+04</pdfrwt>
<pdfrwt beam="2">  1       -2 0.18077226E+00 0.16790594E+04</pdfrwt>
<totfact> 0.94853347E+00</totfact>
</mgrwt>
<rwgt>
<wgt id='morphing_basis_vector_1'> +1.7275328e-04 </wgt>
<wgt id='morphing_basis_vector_2'> +1.1707640e-04 </wgt>
<wgt id='morphing_basis_vector_3'> +1.8201710e-04 </wgt>
<wgt id='morphing_basis_vector_4'> +1.2078636e-04 </wgt>
<wgt id='morphing_basis_vector_5'> +1.9634654e-04 </wgt>
</rwgt>
</event>
<event>
 4      1 +1.5130300e-07 1.77617600e+03 7.81860800e-03 8.17024400e-02
        2 -1    0    0  501    0 +0.0000000000e+00 +0.0000000000e+00 +1.8066315615e+03 1.8066315615e+03 0.0000000000e+00 0.0000e+00 1.0000e+00
       -2 -1    0    0    0  501 -0.0000000000e+00 -0.0000000000e+00 -4.3655841743e+02 4.3655841743e+02 0.0000000000e+00 0.0000e+00 -1.0000e+00
      -13  1    1    2    0    0 -2.1289158507e+02 -2.7643557148e+02 -3.4637078168e+02 4.9164231975e+02 0.0000000000e+00 0.0000e+00 -1.0000e+00
       13  1    1    2    0    0 +2.1289158507e+02 +2.7643557148e+02 +1.7164439258e+03 1.7515476592e+03 0.0000000000e+00 0.0000e+00 1.0000e+00
<mgrwt>
<rscale>  0 0.17761759E+04</rscale>
<asrwt>0</asrwt>
<pdfrwt beam="1">  1        2 0.27794331E+00 0.17761759E+04</pdfrwt>
<pdfrwt beam="2">  1       -2 0.67162834E-01 0.17761759E+04</pdfrwt>
<totfact> 0.21104371E+01</totfact>
</mgrwt>
<rwgt>
<wgt id='morphing_basis_vector_1'> +2.1329580e-04 </wgt>
<wgt id='morphing_basis_vector_2'> +1.4108340e-04 </wgt>
<wgt id='morphing_basis_vector_3'> +2.2541285e-04 </wgt>
<wgt id='morphing_basis_vector_4'> +1.5549741e-04 </wgt>
<wgt id='morphing_basis_vector_5'> +2.4763571e-04 </wgt>
</rwgt>
</event>
<event>
 4      1 +1.5130300e-07 1.85167400e+03 7.81860800e-03 8.13533800e-02
        2 -1    0    0  501    0 +0.0000000000e+00 +0.0000000000e+00 +9.6861003004e+02 9.6861003004e+02 0.0000000000e+00 0.0000e+00 -1.0000e+00
       -2 -1    0    0    0  501 -0.0000000000e+00 -0.0000000000e+00 -8.8495306599e+02 8.8495306599e+02 0.0000000000e+00 0.0000e+00 1.0000e+00
      -13  1    1    2    0    0 -8.0625357284e+02 +1.6843143712e+02 -3.8140351116e+02 9.0767979544e+02 0.0000000000e+00 0.0000e+00 1.0000e+00
       13  1    1    2    0    0 +8.0625357284e+02 -1.6843143712e+02 +4.6506047521e+02 9.4588330059e+02 0.0000000000e+00 0.0000e+00 -1.0000e+00
<mgrwt>
<rscale>  0 0.18516743E+04</rscale>
<asrwt>0</asrwt>
<pdfrwt beam="1">  1        2 0.14901693E+00 0.18516743E+04</pdfrwt>
<pdfrwt beam="2">  1       -2 0.13614663E+00 0.18516743E+04</pdfrwt>
<totfact> 0.11663982E+01</totfact>
</mgrwt>
<rwgt>
<wgt id='morphing_basis_vector_1'> +2.5229099e-04 </wgt>
<wgt id='morphing_basis_vector_2'> +1.7043226e-04 </wgt>
<wgt id='morphing_basis_vector_3'> +2.6811266e-04 </wgt>
<wgt id='morphing_basis_vector_4'> +1.8169807e-04 </wgt>
<wgt id='morphing_basis_vector_5'> +2.9349315e-04 </wgt>
</rwgt>
</event>
<event>
 4      1 +1.5130300e-07 1.58948200e+03 7.81860800e-03 8.26478700e-02
        2 -1    0    0  501    0 +0.0000000000e+00 +0.0000000000e+00 +1.3688813095e+03 1.3688813095e+03 0.0000000000e+00 0.0000e+00 1.0000e+00
       -2 -1    0    0    0  501 -0.0000000000e+00 -0.0000000000e+00 -4.6140849825e+02 4.6140849825e+02 0.0000000000e+00 0.0000e+00 -1.0000e+00
      -13  1    1    2    0    0 +1.0865412870e+02 +4.3008206667e+02 -3.0558825073e+02 5.3866546459e+02 0.0000000000e+00 0.0000e+00 -1.0000e+00
       13  1    1    2    0    0 -1.0865412870e+02 -4.3008206667e+02 +1.2130610619e+03 1.2916243431e+03 0.0000000000e+00 0.0000e+00 1.0000e+00
<mgrwt>
<rscale>  0 0.15894823E+04</rscale>
<asrwt>0</asrwt>
<pdfrwt beam="1">  1        2 0.21059712E+00 0.15894823E+04</pdfrwt>
<pdfrwt beam="2">  1       -2 0.70985923E-01 0.15894823E+04</pdfrwt>
<totfact> 0.33457683E+01</totfact>
</mgrwt>
<rwgt>
<wgt id='morphing_basis_vector_1'> +1.3856947e-04 </wgt>
<wgt id='morphing_basis_vector_2'> +9.1094040e-05 </wgt>
<wgt id='morphing_basis_vector_3'> +1.4478828e-04 </wgt>
<wgt id='morphing_basis_vector_4'> +9.8429270e-05 </wgt>
<wgt id='morphing_basis_vector_5'> +1.5678601e-04 </wgt>
</rwgt>
</event>
<event>
 4      1 +1.5130300e-07 1.67149100e+03 7.81860800e-03 8.22170000e-02
        2 -1    0    0  501    0 +0.0000000000e+00 +0.0000000000e+00 +7.3682450720e+02 7.3682450720e+02 0.0000000000e+00 0.0000e+00 -1.0000e+00
       -2 -1    0    0    0  501 -0.0000000000e+00 -0.0000000000e+00 -9.4794748647e+02 9.4794748647e+02 0.0000000000e+00 0.0000e+00 1.0000e+00
      -13  1    1    2    0    0 +7.1372154075e+02 +4.1477589561e+02 -2.3711074179e+02 8.5887076163e+02 0.0000000000e+00 0.0000e+00 1.0000e+00
       13  1    1    2    0    0 -7.1372154075e+02 -4.1477589561e+02 +2.5987762526e+01 8.2590123205e+02 0.0000000000e+00 0.0000e+00 -1.0000e+00
<mgrwt>
<rscale>  0 0.16714915E+04</rscale>
<asrwt>0</asrwt>
<pdfrwt beam="1">  1        2 0.11335762E+00 0.16714915E+04</pdfrwt>
<pdfrwt beam="2">  1       -2 0.14583807E+00 0.16714915E+04</pdfrwt>
<totfact> 0.14037138E+01</totfact>
</mgrwt>
<rwgt>
<wgt id='morphing_basis_vector_1'> +1.7180200e-04 </wgt>
<wgt id='morphing_basis_vector_2'> +1.2111446e-04 </wgt>
<wgt id='morphing_basis_vector_3'> +1.8158620e-04 </wgt>
<wgt id='morphing_basis_vector_4'> +1.1461821e-04 </wgt>
<wgt id='morphing_basis_vector_5'> +1.9242868e-04 </wgt>
</rwgt>
</event>
<event>
 4      1 +1.5130300e-07 1.76013400e+03 7.81860800e-03 8.17789100e-02
        2 -1    0    0  501    0 +0.0000000000e+00 +0.0000000000e+00 +1.6030171963e+03 1.6030171963e+03 0.0000000000e+00 0.0000e+00 -1.0000e+00
       -2 -1    0    0    0  501 -0.0000000000e+00 -0.0000000000e+00 -4.8316260459e+02 4.8316260459e+02 0.0000000000e+00 0.0000e+00 1.0000e+00
      -13  1    1    2    0    0 +7.5619774648e+02 +4.4121473190e+02 +4.5383354431e+02 9.8613911664e+02 0.0000000000e+00 0.0000e+00 1.0000e+00
       13  1    1    2    0    0 -7.5619774648e+02 -4.4121473190e+02 +6.6602104743e+02 1.1000406843e+03 0.0000000000e+00 0.0000e+00 -1.0000e+00
<mgrwt>
<rscale>  0 0.17601340E+04</rscale>
<asrwt>0</asrwt>
<pdfrwt beam="1">  1        2 0.24661803E+00 0.17601340E+04</pdfrwt>
<pdfrwt beam="2">  1       -2 0.74332709E-01 0.17601340E+04</pdfrwt>
<totfact> 0.22051888E+01</totfact>
</mgrwt>
<rwgt>
<wgt id='morphing_basis_vector_1'> +2.1103568e-04 </wgt>
<wgt id='morphing_basis_vector_2'> +1.5139747e-04 </wgt>
<wgt id='morphing_basis_vector_3'> +2.2460766e-04 </wgt>
<wgt id='morphing_basis_vector_4'> +1.3981518e-04 </wgt>
<wgt id='morphing_basis_vector_5'> +2.3781329e-04 </wgt>
</rwgt>
</event>
<event>
 4      1 +1.5130300e-07 1.70582900e+03 7.81860800e-03 8.20440700e-02
        2 -1    0    0  501    0 +0.0000000000e+00 +0.0000000000e+00 +1.3206028647e+03 1.3206028647e+03 0.0000000000e+00 0.0000e+00 1.0000e+00
       -2 -1    0    0    0  501 -0.0000000000e+00 -0.0000000000e+00 -5.5085699323e+02 5.5085699323e+02 0.0000000000e+00 0.0000e+00 -1.0000e+00
      -13  1    1    2    0    0 -8.6004423516e+01 +8.4591010312e+02 +3.1125569445e+02 9.0545058990e+02 0.0000000000e+00 0.0000e+00 -1.0000e+00
       13  1    1    2    0    0 +8.6004423516e+01 -8.4591010312e+02 +4.5849017699e+02 9.6600926798e+02 0.0000000000e+00 0.0000e+00 1.0000e+00
<mgrwt>
<rscale>  0 0.17058292E+04</rscale>
<asrwt>0</asrwt>
<pdfrwt beam="1">  1        2 0.20316967E+00 0.17058292E+04</pdfrwt>
<pdfrwt beam="2">  1       -2 0.84747230E-01 0.17058292E+04</pdfrwt>
<totfact> 0.23760355E+01</totfact>
</mgrwt>
<rwgt>
<wgt id='morphing_basis_vector_1'> +1.8720619e-04 </wgt>
<wgt id='morphing_basis_vector_2'> +1.3500443e-04 </wgt>
<wgt id='morphing_basis_vector_3'> +1.9872032e-04 </wgt>
<wgt id='morphing_basis_vector_4'> +1.2215436e-04 </wgt>
<wgt id='morphing_basis_vector_5'> +2.0902919e-04 </wgt>
</rwgt>
</event>
<event>
 4      1 +1.5130300e-07 1.56696100e+03 7.81860800e-03 8.27708900e-02
        2 -1    0    0  501    0 +0.0000000000e+00 +0.0000000000e+00 +1.2461518825e+03 1.2461518825e+03 0.0000000000e+00 0.0000e+00 -1.0000e+00
       -2 -1    0    0    0  501 -0.0000000000e+00 -0.0000000000e+00 -4.9258984559e+02 4.9258984559e+02 0.0000000000e+00 0.0000e+00 1.0000e+00
      -13  1    1    2    0    0 +2.5535102437e+02 +1.3694606692e+02 -4.3095047974e+02 5.1930404088e+02 0.0000000000e+00 0.0000e+00 1.0000e+00
       13  1    1    2    0    0 -2.5535102437e+02 -1.3694606692e+02 +1.1845125166e+03 1.2194376872e+03 0.0000000000e+00 0.0000e+00 -1.0000e+00
<mgrwt>
<rscale>  0 0.15669611E+04</rscale>
<asrwt>0</asrwt>
<pdfrwt beam="1">  1        2 0.19171567E+00 0.15669611E+04</pdfrwt>
<pdfrwt beam="2">  1       -2 0.75783054E-01 0.15669611E+04</pdfrwt>
<totfact> 0.34165540E+01</totfact>
</mgrwt>
<rwgt>
<wgt id='morphing_basis_vector_1'> +1.3108233e-04 </wgt>
<wgt id='morphing_basis_vector_2'> +8.5994505e-05 </wgt>
<wgt id='morphing_basis_vector_3'> +1.3672796e-04 </wgt>
<wgt id='morphing_basis_vector_4'> +9.2874519e-05 </wgt>
<wgt id='morphing_basis_vector_5'> +1.4781585e-04 </wgt>
</rwgt>
</event>
<event>
 4      1 +1.5130300e-07 1.81279900e+03 7.81860800e-03 8.15309200e-02
        2 -1    0    0  501    0 +0.0000000000e+00 +0.0000000000e+00 +1.0435269018e+03 1.0435269018e+03 0.0000000000e+00 0.0000e+00 -1.0000e+00
       -2 -1    0    0    0  501 -0.0000000000e+00 -0.0000000000e+00 -7.8729143131e+02 7.8729143131e+02 0.0000000000e+00 0.0000e+00 1.0000e+00
      -13  1    1    2    0    0 -5.1334460516e+02 +6.3327798381e+02 -2.7204818674e+02 8.5940322569e+02 0.0000000000e+00 0.0000e+00 1.0000e+00
       13  1    1    2    0    0 +5.1334460516e+02 -6.3327798381e+02 +5.2828365722e+02 9.7141510741e+02 0.0000000000e+00 0.0000e+00 -1.0000e+00
<mgrwt>
<rscale>  0 0.18127987E+04</rscale>
<asrwt>0</asrwt>
<pdfrwt beam="1">  1        2 0.16054260E+00 0.18127987E+04</pdfrwt>
<pdfrwt beam="2">  1       -2 0.12112176E+00 0.18127987E+04</pdfrwt>
<totfact> 0.14360650E+01</totfact>
</mgrwt>
<rwgt>
<wgt id='morphing_basis_vector_1'> +2.3236258e-04 </wgt>
<wgt id='morphing_basis_vector_2'> +1.5708818e-04 </wgt>
<wgt id='morphing_basis_vector_3'> +2.4651401e-04 </wgt>
<wgt id='morphing_basis_vector_4'> +1.6633259e-04 </wgt>
<wgt id='morphing_basis_vector_5'> +2.6904112e-04 </wgt>
</rwgt>
</event>
<event>
 4      1 +1.5130300e-07 1.84360400e+03 7.81860800e-03 8.13898600e-02
        2 -1    0    0  501    0 +0.0000000000e+00 +0.0000000000e+00 +1.2276282932e+03 1.2276282932e+03 0.0000000000e+00 0.0000e+00 -1.0000e+00
       -2 -1    0    0    0  501 -0.0000000000e+00 -0.0000000000e+00 -6.9216324491e+02 6.9216324491e+02 0.0000000000e+00 0.0000e+00 1.0000e+00
      -13  1    1    2    0    0 +3.4685173386e+02 +5.7945945879e+02 -3.8560238413e+02 7.7766868800e+02 0.0000000000e+00 0.0000e+00 1.0000e+00
       13  1    1    2    0    0 -3.4685173386e+02 -5.7945945879e+02 +9.2106743236e+02 1.1421228501e+03 0.0000000000e+00 0.0000e+00 -1.0000e+00
<mgrwt>
<rscale>  0 0.18436043E+04</rscale>
<asrwt>0</asrwt>
<pdfrwt beam="1">  1        2 0.18886589E+00 0.18436043E+04</pdfrwt>
<pdfrwt beam="2">  1       -2 0.10648665E+00 0.18436043E+04</pdfrwt>
<totfact> 0.15437056E+01</totfact>
</mgrwt>
<rwgt>
<wgt id='morphing_basis_vector_1'> +2.4701346e-04 </wgt>
<wgt id='morphing_basis_vector_2'> +1.6451544e-04 </wgt>
<wgt id='morphing_basis_vector_3'> +2.6204059e-04 </wgt>
<wgt id='morphing_basis_vector_4'> +1.8046099e-04 </wgt>
<wgt id='morphing_basis_vector_5'> +2.8844504e-04 </wgt>
</rwgt>
</event>
<event>
 4      1 +1.5130300e-07 1.75779900e+03 7.81860800e-03 8.17901100e-02
        2 -1    0    0  501    0 +0.0000000000e+00 +0.0000000000e+00 +8.0686197217e+02 8.0686197217e+02 0.0000000000e+00 0.0000e+00 -1.0000e+00
       -2 -1    0    0    0  501 -0.0000000000e+00 -0.0000000000e+00 -9.5736811411e+02 9.5736811411e+02 0.0000000000e+00 0.0000e+00 1.0000e+00
      -13  1    1    2    0    0 -5.7567828396e+02 -5.2452535286e+02 -4.8409051595e+02 9.1699288986e+02 0.0000000000e+00 0.0000e+00 1.0000e+00
       13  1    1    2    0    0 +5.7567828396e+02 +5.2452535286e+02 +3.3358437401e+02 8.4723719642e+02 0.0000000000e+00 0.0000e+00 -1.0000e+00
<mgrwt>
<rscale>  0 0.17577985E+04</rscale>
<asrwt>0</asrwt>
<pdfrwt beam="1">  1        2 0.12413261E+00 0.17577985E+04</pdfrwt>
<pdfrwt beam="2">  1       -2 0.14728740E+00 0.17577985E+04</pdfrwt>
<totfact> 0.12079030E+01</totfact>
</mgrwt>
<rwgt>
<wgt id='morphing_basis_vector_1'> +2.0590707e-04 </wgt>
<wgt id='morphing_basis_vector_2'> +1.3861367e-04 </wgt>
<wgt id='morphing_basis_vector_3'> +2.1776520e-04 </wgt>
<wgt id='morphing_basis_vector_4'> +1.4690148e-04 </wgt>
<wgt id='morphing_basis_vector_5'> +2.3712604e-04 </wgt>
</rwgt>
</event>
<event>
 4      1 +1.5130300e-07 1.73935500e+03 7.81860800e-03 8.18791900e-02
        2 -1    0    0  501    0 +0.0000000000e+00 +0.0000000000e+00 +2.5239926805e+03 2.5239926805e+03 0.0000000000e+00 0.0000e+00 -1.0000e+00
       -2 -1    0    0    0  501 -0.0000000000e+00 -0.0000000000e+00 -2.9965987020e+02 2.9965987020e+02 0.0000000000e+00 0.0000e+00 1.0000e+00
      -13  1    1    2    0    0 -4.0821406360e+02 +3.4410109342e+01 -1.3321465964e+02 4.3077711509e+02 0.0000000000e+00 0.0000e+00 1.0000e+00
       13  1    1    2    0    0 +4.0821406360e+02 -3.4410109342e+01 +2.3575474700e+03 2.3928754356e+03 0.0000000000e+00 0.0000e+00 -1.0000e+00
<mgrwt>
<rscale>  0 0.17393554E+04</rscale>
<asrwt>0</asrwt>
<pdfrwt beam="1">  1        2 0.38830655E+00 0.17393554E+04</pdfrwt>
<pdfrwt beam="2">  1       -2 0.46101520E-01 0.17393554E+04</pdfrwt>
<totfact> 0.17577202E+01</totfact>
</mgrwt>
<rwgt>
<wgt id='morphing_basis_vector_1'> +1.9659659e-04 </wgt>
<wgt id='morphing_basis_vector_2'> +1.2991649e-04 </wgt>
<wgt id='morphing_basis_vector_3'> +2.0736020e-04 </wgt>
<wgt id='morphing_basis_vector_4'> +1.4266271e-04 </wgt>
<wgt id='morphing_basis_vector_5'> +2.2722818e-04 </wgt>
</rwgt>
</event>
<event>
 4      1 +1.5130300e-07 1.74423900e+03 7.81860800e-03 8.18555000e-02
        2 -1    0    0  501    0 +0.0000000000e+00 +0.0000000000e+00 +1.0071182288e+03 1.0071182288e+03 0.0000000000e+00 0.0000e+00 1.0000e+00
       -2 -1    0    0    0  501 -0.0000000000e+00 -0.0000000000e+00 -7.5521650245e+02 7.5521650245e+02 0.0000000000e+00 0.0000e+00 -1.0000e+00
      -13  1    1    2    0    0 +5.1120678333e+02 -3.6246369065e+02 +7.3877453371e+02 9.6876215555e+02 0.0000000000e+00 0.0000e+00 -1.0000e+00
       13  1    1    2    0    0 -5.1120678333e+02 +3.6246369065e+02 -4.8687280737e+02 7.9357257571e+02 0.0000000000e+00 0.0000e+00 1.0000e+00
<mgrwt>
<rscale>  0 0.17442389E+04</rscale>
<asrwt>0</asrwt>
<pdfrwt beam="1">  1        2 0.15494127E+00 0.17442389E+04</pdfrwt>
<pdfrwt beam="2">  1       -2 0.11618715E+00 0.17442389E+04</pdfrwt>
<totfact> 0.16939844E+01</totfact>
</mgrwt>
<rwgt>
<wgt id='morphing_basis_vector_1'> +2.5545811e-04 </wgt>
<wgt id='morphing_basis_vector_2'> +2.9972708e-04 </wgt>
<wgt id='morphing_basis_vector_3'> +2.8882596e-04 </wgt>
<wgt id='morphing_basis_vector_4'> +3.4373898e-05 </wgt>
<wgt id='morphing_basis_vector_5'> +2.2139276e-04 </wgt>
</rwgt>
</event>
<event>
 4      1 +1.5130300e-07 1.62580600e+03 7.81860800e-03 8.24538100e-02
        2 -1    0    0  501    0 +0.0000000000e+00 +0.0000000000e+00 +2.8259579515e+03 2.8259579515e+03 0.0000000000e+00 0.0000e+00 -1.0000e+00
       -2 -1    0    0    0  501 -0.0000000000e+00 -0.0000000000e+00 -2.3383614333e+02 2.3383614333e+02 0.0000000000e+00 0.0000e+00 1.0000e+00
      -13  1    1    2    0    0 +7.5524325646e+02 -2.1298506293e+02 +8.9657605396e+02 1.1914712057e+03 0.0000000000e+00 0.0000e+00 1.0000e+00
       13  1    1    2    0    0 -7.5524325646e+02 +2.1298506293e+02 +1.6955457542e+03 1.8683228891e+03 0.0000000000e+00 0.0000e+00 -1.0000e+00
<mgrwt>
<rscale>  0 0.16258058E+04</rscale>
<asrwt>0</asrwt>
<pdfrwt beam="1">  1        2 0.43476274E+00 0.16258058E+04</pdfrwt>
<pdfrwt beam="2">  1       -2 0.35974793E-01 0.16258058E+04</pdfrwt>
<totfact> 0.18501359E+01</totfact>
</mgrwt>
<rwgt>
<wgt id='morphing_basis_vector_1'> +1.5322209e-04 </wgt>
<wgt id='morphing_basis_vector_2'> +1.0544318e-04 </wgt>
<wgt id='morphing_basis_vector_3'> +1.6111488e-04 </wgt>
<wgt id='morphing_basis_vector_4'> +1.0428048e-04 </wgt>
<wgt id='morphing_basis_vector_5'> +1.7182208e-04 </wgt>
</rwgt>
</event>
<event>
 4      1 +1.5130300e-07 1.55249100e+03 7.81860800e-03 8.28510600e-02
        2 -1    0    0  501    0 +0.0000000000e+00 +0.0000000000e+00 +8.2301229550e+02 8.2301229550e+02 0.0000000000e+00 0.0000e+00 1.0000e+00
       -2 -1    0    0    0  501 -0.0000000000e+00 -0.0000000000e+00 -7.3213661523e+02 7.3213661523e+02 0.0000000000e+00 0.0000e+00 -1.0000e+00
      -13  1    1    2    0    0 +2.0492360367e+02 +2.3168338986e+02 -6.6774050455e+02 7.3589962488e+02 0.0000000000e+00 0.0000e+00 -1.0000e+00
       13  1    1    2    0    0 -2.0492360367e+02 -2.3168338986e+02 +7.5861618482e+02 8.1924928584e+02 0.0000000000e+00 0.0000e+00 1.0000e+00
<mgrwt>
<rscale>  0 0.15524915E+04</rscale>
<asrwt>0</asrwt>
<pdfrwt beam="1">  1        2 0.12661728E+00 0.15524915E+04</pdfrwt>
<pdfrwt beam="2">  1       -2 0.11263640E+00 0.15524915E+04</pdfrwt>
<totfact> 0.24547021E+01</totfact>
</mgrwt>
<rwgt>
<wgt id='morphing_basis_vector_1'> +1.2646362e-04 </wgt>
<wgt id='morphing_basis_vector_2'> +8.2914314e-05 </wgt>
<wgt id='morphing_basis_vector_3'> +1.3176669e-04 </wgt>
<wgt id='morphing_basis_vector_4'> +8.9379451e-05 </wgt>
<wgt id='morphing_basis_vector_5'> +1.4225339e-04 </wgt>
</rwgt>
</event>
<event>
 4      1 +1.5130300e-07 1.72066600e+03 7.81860800e-03 8.19706300e-02
        2 -1    0    0  501    0 +0.0000000000e+00 +0.0000000000e+00 +1.0628135327e+03 1.0628135327e+03 0.0000000000e+00 0.0000e+00 -1.0000e+00
       -2 -1    0    0    0  501 -0.0000000000e+00 -0.0000000000e+00 -6.9642768612e+02 6.9642768612e+02 0.0000000000e+00 0.0000e+00 1.0000e+00
      -13  1    1    2    0    0 -5.3912825175e+02 -1.5439417117e+02 -4.8387244635e+02 7.4069519795e+02 0.0000000000e+00 0.0000e+00 1.0000e+00
       13  1    1    2    0    0 +5.3912825175e+02 +1.5439417117e+02 +8.5025829290e+02 1.0185460208e+03 0.0000000000e+00 0.0000e+00 -1.0000e+00
<mgrwt>
<rscale>  0 0.17206659E+04</rscale>
<asrwt>0</asrwt>
<pdfrwt beam="1">  1        2 0.16350977E+00 0.17206659E+04</pdfrwt>
<pdfrwt beam="2">  1       -2 0.10714272E+00 0.17206659E+04</pdfrwt>
<totfact> 0.19244654E+01</totfact>
</mgrwt>
<rwgt>
<wgt id='morphing_basis_vector_1'> +1.8861412e-04 </wgt>
<wgt id='morphing_basis_vector_2'> +1.2482240e-04 </wgt>
<wgt id='morphing_basis_vector_3'> +1.9876975e-04 </wgt>
<wgt id='morphing_basis_vector_4'> +1.3625503e-04 </wgt>
<wgt id='morphing_basis_vector_5'> +2.1734627e-04 </wgt>
</rwgt>
</event>
<event>
 4      1 +1.5130300e-07 1.82904700e+03 7.81860800e-03 8.14561600e-02
        2 -1    0    0  501    0 +0.0000000000e+00 +0.0000000000e+00 +2.2992333365e+03 2.2992333365e+03 0.0000000000e+00 0.0000e+00 1.0000e+00
       -2 -1    0    0    0  501 -0.0000000000e+00 -0.0000000000e+00 -3.6375301070e+02 3.6375301070e+02 0.0000000000e+00 0.0000e+00 -1.0000e+00
      -13  1    1    2    0    0 -2.9925034235e+02 -4.2159395973e+02 -1.3056610619e+02 5.3323516610e+02 0.0000000000e+00 0.0000e+00 -1.0000e+00
       13  1    1    2    0    0 +2.9925034235e+02 +4.2159395973e+02 +2.0660464320e+03 2.1297511811e+03 0.0000000000e+00 0.0000e+00 1.0000e+00
<mgrwt>
<rscale>  0 0.18290468E+04</rscale>
<asrwt>0</asrwt>
<pdfrwt beam="1">  1        2 0.35372820E+00 0.18290468E+04</pdfrwt>
<pdfrwt beam="2">  1       -2 0.55962003E-01 0.18290468E+04</pdfrwt>
<totfact> 0.16124419E+01</totfact>
</mgrwt>
<rwgt>
<wgt id='morphing_basis_vector_1'> +2.3922533e-04 </wgt>
<wgt id='morphing_basis_vector_2'> +1.5866328e-04 </wgt>
<wgt id='morphing_basis_vector_3'> +2.5351007e-04 </wgt>
<wgt id='morphing_basis_vector_4'> +1.7520790e-04 </wgt>
<wgt id='morphing_basis_vector_5'> +2.7926883e-04 </wgt>
</rwgt>
</event>
<event>
 4      1 +1.5130300e-07 1.66837900e+03 7.81860800e-03 8.22328900e-02
        2 -1    0    0  501    0 +0.0000000000e+00 +0.0000000000e+00 +1.1845195005e+03 1.1845195005e+03 0.0000000000e+00 0.0000e+00 -1.0000e+00
       -2 -1    0    0    0  501 -0.0000000000e+00 -0.0000000000e+00 -5.8747191570e+02 5.8747191570e+02 0.0000000000e+00 0.0000e+00 1.0000e+00
      -13  1    1    2    0    0 -4.0211455051e+02 -2.0400056676e+02 -4.4688815357e+02 6.3483963705e+02 0.0000000000e+00 0.0000e+00 1.0000e+00
       13  1    1    2    0    0 +4.0211455051e+02 +2.0400056676e+02 +1.0439357384e+03 1.1371517791e+03 0.0000000000e+00 0.0000e+00 -1.0000e+00
<mgrwt>
<rscale>  0 0.16683788E+04</rscale>
<asrwt>0</asrwt>
<pdfrwt beam="1">  1        2 0.18223377E+00 0.16683788E+04</pdfrwt>
<pdfrwt beam="2">  1       -2 0.90380294E-01 0.16683788E+04</pdfrwt>
<totfact> 0.24604554E+01</totfact>
</mgrwt>
<rwgt>
<wgt id='morphing_basis_vector_1'> +1.6721028e-04 </wgt>
<wgt id='morphing_basis_vector_2'> +1.1026418e-04 </wgt>
<wgt id='morphing_basis_vector_3'> +1.7563778e-04 </wgt>
<wgt id='morphing_basis_vector_4'> +1.2017705e-04 </wgt>
<wgt id='morphing_basis_vector_5'> +1.9144871e-04 </wgt>
</rwgt>
</event>
<event>
 4      1 +1.5130300e-07 1.67338900e+03 7.81860800e-03 8.22073300e-02
        2 -1    0    0  501    0 +0.0000000000e+00 +0.0000000000e+00 +2.2063981111e+03 2.2063981111e+03 0.0000000000e+00 0.0000e+00 1.0000e+00
       -2 -1    0    0    0  501 -0.0000000000e+00 -0.0000000000e+00 -3.1728527733e+02 3.1728527733e+02 0.0000000000e+00 0.0000e+00 -1.0000e+00
      -13  1    1    2    0    0 -2.4245031542e+02 -7.4649037715e+02 +5.0738782869e+02 9.3459747877e+02 0.0000000000e+00 0.0000e+00 -1.0000e+00
       13  1    1    2    0    0 +2.4245031542e+02 +7.4649037715e+02 +1.3817250051e+03 1.5890859097e+03 0.0000000000e+00 0.0000e+00 1.0000e+00
<mgrwt>
<rscale>  0 0.16733889E+04</rscale>
<asrwt>0</asrwt>
<pdfrwt beam="1">  1        2 0.33944585E+00 0.16733889E+04</pdfrwt>
<pdfrwt beam="2">  1       -2 0.48813121E-01 0.16733889E+04</pdfrwt>
<totfact> 0.24248647E+01</totfact>
</mgrwt>
<rwgt>
<wgt id='morphing_basis_vector_1'> +1.7068957e-04 </wgt>
<wgt id='morphing_basis_vector_2'> +1.1609526e-04 </wgt>
<wgt id='morphing_basis_vector_3'> +1.7983984e-04 </wgt>
<wgt id='morphing_basis_vector_4'> +1.1874866e-04 </wgt>
<wgt id='morphing_basis_vector_5'> +1.9360368e-04 </wgt>
</rwgt>
</event>
<event>
 4      1 +1.5130300e-07 1.85661300e+03 7.81860800e-03 8.13311600e-02
        2 -1    0    0  501    0 +0.0000000000e+00 +0.0000000000e+00 +9.4509298690e+02 9.4509298690e+02 0.0000000000e+00 0.0000e+00 -1.0000e+00
       -2 -1    0    0    0  501 -0.0000000000e+00 -0.0000000000e+00 -9.1181787557e+02 9.1181787557e+02 0.0000000000e+00 0.0000e+00 1.0000e+00
      -13  1    1    2    0    0 +4.0994650182e+02 -7.7512113244e+02 +3.2145489594e+02 9.3391763793e+02 0.0000000000e+00 0.0000e+00 1.0000e+00
       13  1    1    2    0    0 -4.0994650182e+02 +7.7512113244e+02 -2.8817978461e+02 9.2299322455e+02 0.0000000000e+00 0.0000e+00 -1.0000e+00
<mgrwt>
<rscale>  0 0.18566127E+04</rscale>
<asrwt>0</asrwt>
<pdfrwt beam="1">  1        2 0.14539892E+00 0.18566127E+04</pdfrwt>
<pdfrwt beam="2">  1       -2 0.14027967E+00 0.18566127E+04</pdfrwt>
<totfact> 0.11112612E+01</totfact>
</mgrwt>
<rwgt>
<wgt id='morphing_basis_vector_1'> +2.8164651e-04 </wgt>
<wgt id='morphing_basis_vector_2'> +2.5145707e-04 </wgt>
<wgt id='morphing_basis_vector_3'> +3.0904929e-04 </wgt>
<wgt id='morphing_basis_vector_4'> +1.3122567e-04 </wgt>
<wgt id='morphing_basis_vector_5'> +2.9262162e-04 </wgt>
</rwgt>
</event>
<event>
 4      1 +1.5130300e-07 1.85545000e+03 7.81860800e-03 8.13363900e-02
        2 -1    0    0  501    0 +0.0000000000e+00 +0.0000000000e+00 +1.8344852225e+03 1.8344852225e+03 0.0000000000e+00 0.0000e+00 -1.0000e+00
       -2 -1    0    0    0  501 -0.0000000000e+00 -0.0000000000e+00 -4.6916344421e+02 4.6916344421e+02 0.0000000000e+00 0.0000e+00 1.0000e+00
      -13  1    1    2    0    0 -8.2575717128e+01 -5.1869951672e+02 -2.6679057727e+02 5.8910538092e+02 0.0000000000e+00 0.0000e+00 1.0000e+00
       13  1    1    2    0    0 +8.2575717128e+01 +5.1869951672e+02 +1.6321123556e+03 1.7145432858e+03 0.0000000000e+00 0.0000e+00 -1.0000e+00
<mgrwt>
<rscale>  0 0.18554497E+04</rscale>
<asrwt>0</asrwt>
<pdfrwt beam="1">  1        2 0.28222849E+00 0.18554497E+04</pdfrwt>
<pdfrwt beam="2">  1       -2 0.72178993E-01 0.18554497E+04</pdfrwt>
<totfact> 0.17334713E+01</totfact>
</mgrwt>
<rwgt>
<wgt id='morphing_basis_vector_1'> +2.5299690e-04 </wgt>
<wgt id='morphing_basis_vector_2'> +1.6792925e-04 </wgt>
<wgt id='morphing_basis_vector_3'> +2.6843685e-04 </wgt>
<wgt id='morphing_basis_vector_4'> +1.8578932e-04 </wgt>
<wgt id='morphing_basis_vector_5'> +2.9615119e-04 </wgt>
</rwgt>
</event>
<event>
 4      1 +1.5130300e-07 1.62813000e+03 7.81860800e-03 8.24415600e-02
        2 -1    0    0  501    0 +0.0000000000e+00 +0.0000000000e+00 +2.7844461456e+03 2.7844461456e+03 0.0000000000e+00 0.0000e+00 1.0000e+00
       -2 -1    0    0    0  501 -0.0000000000e+00 -0.0000000000e+00 -2.3800145360e+02 2.3800145360e+02 0.0000000000e+00 0.0000e+00 -1.0000e+00
      -13  1    1    2    0    0 +6.8750160084e+02 -4.3275134217e+02 +1.1755180298e+03 1.4289068597e+03 0.0000000000e+00 0.0000e+00 -1.0000e+00
       13  1    1    2    0    0 -6.8750160084e+02 +4.3275134217e+02 +1.3709266622e+03 1.5935407395e+03 0.0000000000e+00 0.0000e+00 1.0000e+00
<mgrwt>
<rscale>  0 0.16281305E+04</rscale>
<asrwt>0</asrwt>
<pdfrwt beam="1">  1        2 0.42837631E+00 0.16281305E+04</pdfrwt>
<pdfrwt beam="2">  1       -2 0.36615610E-01 0.16281305E+04</pdfrwt>
<totfact> 0.19009202E+01</totfact>
</mgrwt>
<rwgt>
<wgt id='morphing_basis_vector_1'> +1.5641401e-04 </wgt>
<wgt id='morphing_basis_vector_2'> +1.1299920e-04 </wgt>
<wgt id='morphing_basis_vector_3'> +1.6521738e-04 </wgt>
<wgt id='morphing_basis_vector_4'> +1.0043060e-04 </wgt>
<wgt id='morphing_basis_vector_5'> +1.7249862e-04 </wgt>
</rwgt>
</event>
<event>
 4      1 +1.5130300e-07 1.57579900e+03 7.81860800e-03 8.27223600e-02
        2 -1    0    0  501    0 +0.0000000000e+00 +0.0000000000e+00 +1.8907270350e+03 1.8907270350e+03 0.0000000000e+00 0.0000e+00 1.0000e+00
       -2 -1    0    0    0  501 -0.0000000000e+00 -0.0000000000e+00 -3.2833182438e+02 3.2833182438e+02 0.0000000000e+00 0.0000e+00 -1.0000e+00
      -13  1    1    2    0    0 +7.5367533751e+02 +1.6485165577e+02 +1.0064378447e+03 1.2681166027e+03 0.0000000000e+00 0.0000e+00 1.0000e+00
       13  1    1    2    0    0 -7.5367533751e+02 -1.6485165577e+02 +5.5595736584e+02 9.5094225662e+02 0.0000000000e+00 0.0000e+00 -1.0000e+00
<mgrwt>
<rscale>  0 0.15757993E+04</rscale>
<asrwt>0</asrwt>
<pdfrwt beam="1">  1        2 0.29088107E+00 0.15757993E+04</pdfrwt>
<pdfrwt beam="2">  1       -2 0.50512590E-01 0.15757993E+04</pdfrwt>
<totfact> 0.34453389E+01</totfact>
</mgrwt>
<rwgt>
<wgt id='morphing_basis_vector_1'> +1.4382562e-04 </wgt>
<wgt id='morphing_basis_vector_2'> +1.1726852e-04 </wgt>
<wgt id='morphing_basis_vector_3'> +1.5303935e-04 </wgt>
<wgt id='morphing_basis_vector_4'> +7.6404120e-05 </wgt>
<wgt id='morphing_basis_vector_5'> +1.4988889e-04 </wgt>
</rwgt>
</event>
<event>
 4      1 +1.5130300e-07 1.67417300e+03 7.81860800e-03 8.22033400e-02
        2 -1    0    0  501    0 +0.0000000000e+00 +0.0000000000e+00 +7.2367338234e+02 7.2367338234e+02 0.0000000000e+00 0.0000e+00 1.0000e+00
       -2 -1    0    0    0  501 -0.0000000000e+00 -0.0000000000e+00 -9.6827329993e+02 9.6827329993e+02 0.0000000000e+00 0.0000e+00 -1.0000e+00
      -13  1    1    2    0    0 +4.1601913659e+02 -2.7177959316e+02 +5.5848178390e+02 7.4755466169e+02 0.0000000000e+00 0.0000e+00 -1.0000e+00
       13  1    1    2    0    0 -4.1601913659e+02 +2.7177959316e+02 -8.0308170148e+02 9.4439202058e+02 0.0000000000e+00 0.0000e+00 1.0000e+00
<mgrwt>
<rscale>  0 0.16741728E+04</rscale>
<asrwt>0</asrwt>
<pdfrwt beam="1">  1        2 0.11133437E+00 0.16741728E+04</pdfrwt>
<pdfrwt beam="2">  1       -2 0.14896512E+00 0.16741728E+04</pdfrwt>
<totfact> 0.13515542E+01</totfact>
</mgrwt>
<rwgt>
<wgt id='morphing_basis_vector_1'> +2.2597750e-04 </wgt>
<wgt id='morphing_basis_vector_2'> +2.7970685e-04 </wgt>
<wgt id='morphing_basis_vector_3'> +2.5573516e-04 </wgt>
<wgt id='morphing_basis_vector_4'> +1.3369160e-05 </wgt>
<wgt id='morphing_basis_vector_5'> +1.8591584e-04 </wgt>
</rwgt>
</event>
<event>
 4      1 +1.5130300e-07 1.83088300e+03 7.81860800e-03 8.14477600e-02
        2 -1    0    0  501    0 +0.0000000000e+00 +0.0000000000e+00 +3.5032399251e+03 3.5032399251e+03 0.0000000000e+00 0.0000e+00 -1.0000e+00
       -2 -1    0    0    0  501 -0.0000000000e+00 -0.0000000000e+00 -2.3921672853e+02 2.3921672853e+02 0.0000000000e+00 0.0000e+00 1.0000e+00
      -13  1    1    2    0    0 -1.9805009947e+02 +8.8301122644e+02 +1.9145147404e+03 2.1176164334e+03 0.0000000000e+00 0.0000e+00 1.0000e+00
       13  1    1    2    0    0 +1.9805009947e+02 -8.8301122644e+02 +1.3495084562e+03 1.6248402202e+03 0.0000000000e+00 0.0000e+00 -1.0000e+00
<mgrwt>
<rscale>  0 0.18308835E+04</rscale>
<asrwt>0</asrwt>
<pdfrwt beam="1">  1        2 0.53895995E+00 0.18308835E+04</pdfrwt>
<pdfrwt beam="2">  1       -2 0.36802576E-01 0.18308835E+04</pdfrwt>
<totfact> 0.60964862E+00</totfact>
</mgrwt>
<rwgt>
<wgt id='morphing_basis_vector_1'> +2.5495365e-04 </wgt>
<wgt id='morphing_basis_vector_2'> +2.0315924e-04 </wgt>
<wgt id='morphing_basis_vector_3'> +2.7550840e-04 </wgt>
<wgt id='morphing_basis_vector_4'> +1.4696676e-04 </wgt>
<wgt id='morphing_basis_vector_5'> +2.7816767e-04 </wgt>
</rwgt>
</event>
<event>
 4      1 +1.5130300e-07 1.69689400e+03 7.81860800e-03 8.20886600e-02
        2 -1    0    0  501    0 +0.0000000000e+00 +0.0000000000e+00 +1.2123025612e+03 1.2123025612e+03 0.0000000000e+00 0.0000e+00 -1.0000e+00
       -2 -1    0    0    0  501 -0.0000000000e+00 -0.0000000000e+00 -5.9379746982e+02 5.9379746982e+02 0.0000000000e+00 0.0000e+00 1.0000e+00
      -13  1    1    2    0    0 +6.1291109071e+02 -5.8172797525e+02 +3.9027483665e+02 9.3079637431e+02 0.0000000000e+00 0.0000e+00 1.0000e+00
       13  1    1    2    0    0 -6.1291109071e+02 +5.8172797525e+02 +2.2823025475e+02 8.7530365673e+02 0.0000000000e+00 0.0000e+00 -1.0000e+00
<mgrwt>
<rscale>  0 0.16968939E+04</rscale>
<asrwt>0</asrwt>
<pdfrwt beam="1">  1        2 0.18650809E+00 0.16968939E+04</pdfrwt>
<pdfrwt beam="2">  1       -2 0.91353457E-01 0.16968939E+04</pdfrwt>
<totfact> 0.23058521E+01</totfact>
</mgrwt>
<rwgt>
<wgt id='morphing_basis_vector_1'> +1.8748794e-04 </wgt>
<wgt id='morphing_basis_vector_2'> +1.4432072e-04 </wgt>
<wgt id='morphing_basis_vector_3'> +2.0020840e-04 </wgt>
<wgt id='morphing_basis_vector_4'> +1.1171094e-04 </wgt>
<wgt id='morphing_basis_vector_5'> +2.0396396e-04 </wgt>
</rwgt>
</event>
<event>
 4      1 +1.5130300e-07 1.61610300e+03 7.81860800e-03 8.25051300e-02
        2 -1    0    0  501    0 +0.0000000000e+00 +0.0000000000e+00 +1.4906301215e+03 1.4906301215e+03 0.0000000000e+00 0.0000e+00 -1.0000e+00
       -2 -1    0    0    0  501 -0.0000000000e+00 -0.0000000000e+00 -4.3803418615e+02 4.3803418615e+02 0.0000000000e+00 0.0000e+00 1.0000e+00
      -13  1    1    2    0    0 -5.3701507902e+02 -2.9143183740e+02 -1.0477414698e+02 6.1991558523e+02 0.0000000000e+00 0.0000e+00 1.0000e+00
       13  1    1    2    0    0 +5.3701507902e+02 +2.9143183740e+02 +1.1573700823e+03 1.3087487224e+03 0.0000000000e+00 0.0000e+00 -1.0000e+00
<mgrwt>
<rscale>  0 0.16161027E+04</rscale>
<asrwt>0</asrwt>
<pdfrwt beam="1">  1        2 0.22932771E+00 0.16161027E+04</pdfrwt>
<pdfrwt beam="2">  1       -2 0.67389876E-01 0.16161027E+04</pdfrwt>
<totfact> 0.31856081E+01</totfact>
</mgrwt>
<rwgt>
<wgt id='morphing_basis_vector_1'> +1.4799010e-04 </wgt>
<wgt id='morphing_basis_vector_2'> +9.7880485e-05 </wgt>
<wgt id='morphing_basis_vector_3'> +1.5498450e-04 </wgt>
<wgt id='morphing_basis_vector_4'> +1.0500853e-04 </wgt>
<wgt id='morphing_basis_vector_5'> +1.6788001e-04 </wgt>
</rwgt>
</event>
<event>
 4      1 +1.5130300e-07 1.59647100e+03 7.81860800e-03 8.26101200e-02
        2 -1    0    0  501    0 +0.0000000000e+00 +0.0000000000e+00 +1.2488161151e+03 1.2488161151e+03 0.0000000000e+00 0.0000e+00 -1.0000e+00
       -2 -1    0    0    0  501 -0.0000000000e+00 -0.0000000000e+00 -5.1022693958e+02 5.1022693958e+02 0.0000000000e+00 0.0000e+00 1.0000e+00
      -13  1    1    2    0    0 -1.5210597962e+02 +7.7737103822e+02 +4.7802297228e+02 9.2517453603e+02 0.0000000000e+00 0.0000e+00 1.0000e+00
       13  1    1    2    0    0 +1.5210597962e+02 -7.7737103822e+02 +2.6056620321e+02 8.3386851862e+02 0.0000000000e+00 0.0000e+00 -1.0000e+00
<mgrwt>
<rscale>  0 0.15964706E+04</rscale>
<asrwt>0</asrwt>
<pdfrwt beam="1">  1        2 0.19212556E+00 0.15964706E+04</pdfrwt>
<pdfrwt beam="2">  1       -2 0.78496452E-01 0.15964706E+04</pdfrwt>
<totfact> 0.31394937E+01</totfact>
</mgrwt>
<rwgt>
<wgt id='morphing_basis_vector_1'> +1.4882459e-04 </wgt>
<wgt id='morphing_basis_vector_2'> +1.1613252e-04 </wgt>
<wgt id='morphing_basis_vector_3'> +1.5796373e-04 </wgt>
<wgt id='morphing_basis_vector_4'> +8.5266199e-05 </wgt>
<wgt id='morphing_basis_vector_5'> +1.5852271e-04 </wgt>
</rwgt>
</event>
<event>
 4      1 +1.5130300e-07 1.84658000e+03 7.81860800e-03 8.13763900e-02
        2 -1    0    0  501    0 +0.0000000000e+00 +0.0000000000e+00 +1.1510034436e+03 1.1510034436e+03 0.0000000000e+00 0.0000e+00 1.0000e+00
       -2 -1    0    0    0  501 -0.0000000000e+00 -0.0000000000e+00 -7.4062691218e+02 7.4062691218e+02 0.0000000000e+00 0.0000e+00 -1.0000e+00
      -13  1    1    2    0    0 +1.6792652513e+01 +7.3737096566e+02 -3.6375899302e+02 8.2238588216e+02 0.0000000000e+00 0.0000e+00 -1.0000e+00
       13  1    1    2    0    0 -1.6792652513e+01 -7.3737096566e+02 +7.7413552445e+02 1.0692444736e+03 0.0000000000e+00 0.0000e+00 1.0000e+00
<mgrwt>
<rscale>  0 0.18465797E+04</rscale>
<asrwt>0</asrwt>
<pdfrwt beam="1">  1        2 0.17707745E+00 0.18465797E+04</pdfrwt>
<pdfrwt beam="2">  1       -2 0.11394260E+00 0.18465797E+04</pdfrwt>
<totfact> 0.14442886E+01</totfact>
</mgrwt>
<rwgt>
<wgt id='morphing_basis_vector_1'> +2.4883065e-04 </wgt>
<wgt id='morphing_basis_vector_2'> +1.6633016e-04 </wgt>
<wgt id='morphing_basis_vector_3'> +2.6409797e-04 </wgt>
<wgt id='morphing_basis_vector_4'> +1.8115226e-04 </wgt>
<wgt id='morphing_basis_vector_5'> +2.9031695e-04 </wgt>
</rwgt>
</event>
<event>
 4      1 +1.5130300e-07 1.64359700e+03 7.81860800e-03 8.23606500e-02
        2 -1    0    0  501    0 +0.0000000000e+00 +0.0000000000e+00 +3.1168252144e+03 3.1168252144e+03 0.0000000000e+00 0.0000e+00 -1.0000e+00
       -2 -1    0    0    0  501 -0.0000000000e+00 -0.0000000000e+00 -2.1667959542e+02 2.1667959542e+02 0.0000000000e+00 0.0000e+00 1.0000e+00
      -13  1    1    2    0    0 -4.8266547377e+02 +4.4473902574e+02 +2.4531363876e+03 2.5394166450e+03 0.0000000000e+00 0.0000e+00 -1.0000e+00
       13  1    1    2    0    0 +4.8266547377e+02 -4.4473902574e+02 +4.4700923132e+02 7.9408816480e+02 0.0000000000e+00 0.0000e+00 1.0000e+00
<mgrwt>
<rscale>  0 0.16435966E+04</rscale>
<asrwt>0</asrwt>
<pdfrwt beam="1">  1        2 0.47951154E+00 0.16435966E+04</pdfrwt>
<pdfrwt beam="2">  1       -2 0.33335325E-01 0.16435966E+04</pdfrwt>
<totfact> 0.13780927E+01</totfact>
</mgrwt>
<rwgt>
<wgt id='morphing_basis_vector_1'> +1.9495758e-04 </wgt>
<wgt id='morphing_basis_vector_2'> +2.1451276e-04 </wgt>
<wgt id='morphing_basis_vector_3'> +2.1619537e-04 </wgt>
<wgt id='morphing_basis_vector_4'> +4.1881085e-05 </wgt>
<wgt id='morphing_basis_vector_5'> +1.7459886e-04 </wgt>
</rwgt>
</event>
<event>
 4      1 +1.5130300e-07 1.58177400e+03 7.81860800e-03 8.26897400e-02
        2 -1    0    0  501    0 +0.0000000000e+00 +0.0000000000e+00 +3.5571619988e+03 3.5571619988e+03 0.0000000000e+00 0.0000e+00 1.0000e+00
       -2 -1    0    0    0  501 -0.0000000000e+00 -0.0000000000e+00 -1.7584298489e+02 1.7584298489e+02 0.0000000000e+00 0.0000e+00 -1.0000e+00
      -13  1    1    2    0    0 +7.8231056094e+02 +1.1031093377e+02 +1.6047969696e+03 1.7887290542e+03 0.0000000000e+00 0.0000e+00 1.0000e+00
       13  1    1    2    0    0 -7.8231056094e+02 -1.1031093377e+02 +1.7765220443e+03 1.9442759294e+03 0.0000000000e+00 0.0000e+00 -1.0000e+00
<mgrwt>
<rscale>  0 0.15817737E+04</rscale>
<asrwt>0</asrwt>
<pdfrwt beam="1">  1        2 0.54725564E+00 0.15817737E+04</pdfrwt>
<pdfrwt beam="2">  1       -2 0.27052770E-01 0.15817737E+04</pdfrwt>
<totfact> 0.99036697E+00</totfact>
</mgrwt>
<rwgt>
<wgt id='morphing_basis_vector_1'> +1.4012263e-04 </wgt>
<wgt id='morphing_basis_vector_2'> +1.0168017e-04 </wgt>
<wgt id='morphing_basis_vector_3'> +1.4756269e-04 </wgt>
<wgt id='morphing_basis_vector_4'> +8.8638759e-05 </wgt>
<wgt id='morphing_basis_vector_5'> +1.5307959e-04 </wgt>
</rwgt>
</event>
<event>
 4      1 +1.5130300e-07 1.76781400e+03 7.81860800e-03 8.17421900e-02
        2 -1    0    0  501    0 +0.0000000000e+00 +0.0000000000e+00 +1.1217042126e+03 1.1217042126e+03 0.0000000000e+00 0.0000e+00 -1.0000e+00
       -2 -1    0    0    0  501 -0.0000000000e+00 -0.0000000000e+00 -6.9652188245e+02 6.9652188245e+02 0.0000000000e+00 0.0000e+00 1.0000e+00
      -13  1    1    2    0    0 -1.4018632733e+02 -5.2756893080e+02 -5.0243902504e+02 7.4190710807e+02 0.0000000000e+00 0.0000e+00 1.0000e+00
       13  1    1    2    0    0 +1.4018632733e+02 +5.2756893080e+02 +9.2762135520e+02 1.0763189870e+03 0.0000000000e+00 0.0000e+00 -1.0000e+00
<mgrwt>
<rscale>  0 0.17678139E+04</rscale>
<asrwt>0</asrwt>
<pdfrwt beam="1">  1        2 0.17256988E+00 0.17678139E+04</pdfrwt>
<pdfrwt beam="2">  1       -2 0.10715721E+00 0.17678139E+04</pdfrwt>
<totfact> 0.17658273E+01</totfact>
</mgrwt>
<rwgt>
<wgt id='morphing_basis_vector_1'> +2.0951454e-04 </wgt>
<wgt id='morphing_basis_vector_2'> +1.3878870e-04 </wgt>
<wgt id='morphing_basis_vector_3'> +2.2135628e-04 </wgt>
<wgt id='morphing_basis_vector_4'> +1.5231204e-04 </wgt>
<wgt id='morphing_basis_vector_5'> +2.4287087e-04 </wgt>
</rwgt>
</event>
<event>
 4      1 +1.5130300e-07 1.56704600e+03 7.81860800e-03 8.27704200e-02
        2 -1    0    0  501    0 +0.0000000000e+00 +0.0000000000e+00 +2.3691085918e+03 2.3691085918e+03 0.0000000000e+00 0.0000e+00 -1.0000e+00
       -2 -1    0    0    0  501 -0.0000000000e+00 -0.0000000000e+00 -2.5913064345e+02 2.5913064345e+02 0.0000000000e+00 0.0000e+00 1.0000e+00
      -13  1    1    2    0    0 +2.4912944161e+02 -5.9000221404e+02 +2.9794386650e+02 7.0635588681e+02 0.0000000000e+00 0.0000e+00 1.0000e+00
       13  1    1    2    0    0 -2.4912944161e+02 +5.9000221404e+02 +1.8120340819e+03 1.9218833485e+03 0.0000000000e+00 0.0000e+00 -1.0000e+00
<mgrwt>
<rscale>  0 0.15670464E+04</rscale>
<asrwt>0</asrwt>
<pdfrwt beam="1">  1        2 0.36447823E+00 0.15670464E+04</pdfrwt>
<pdfrwt beam="2">  1       -2 0.39866254E-01 0.15670464E+04</pdfrwt>
<totfact> 0.29023139E+01</totfact>
</mgrwt>
<rwgt>
<wgt id='morphing_basis_vector_1'> +1.3148269e-04 </wgt>
<wgt id='morphing_basis_vector_2'> +8.7122683e-05 </wgt>
<wgt id='morphing_basis_vector_3'> +1.3725588e-04 </wgt>
<wgt id='morphing_basis_vector_4'> +9.2191257e-05 </wgt>
<wgt id='morphing_basis_vector_5'> +1.4779625e-04 </wgt>
</rwgt>
</event>
<event>
 4      1 +1.5130300e-07 1.69912500e+03 7.81860800e-03 8.20775000e-02
        2 -1    0    0  501    0 +0.0000000000e+00 +0.0000000000e+00 +1.9450064453e+03 1.9450064453e+03 0.0000000000e+00 0.0000e+00 1.0000e+00
       -2 -1    0    0    0  501 -0.0000000000e+00 -0.0000000000e+00 -3.7108156820e+02 3.7108156820e+02 0.0000000000e+00 0.0000e+00 -1.0000e+00
      -13  1    1    2    0    0 -3.0678059209e+02 +2.1638642930e+02 -2.5188103532e+02 4.5208569368e+02 0.0000000000e+00 0.0000e+00 -1.0000e+00
       13  1    1    2    0    0 +3.0678059209e+02 -2.1638642930e+02 +1.8258059124e+03 1.8640023198e+03 0.0000000000e+00 0.0000e+00 1.0000e+00
<mgrwt>
<rscale>  0 0.16991245E+04</rscale>
<asrwt>0</asrwt>
<pdfrwt beam="1">  1        2 0.29923175E+00 0.16991245E+04</pdfrwt>
<pdfrwt beam="2">  1       -2 0.57089473E-01 0.16991245E+04</pdfrwt>
<totfact> 0.24891937E+01</totfact>
</mgrwt>
<rwgt>
<wgt id='morphing_basis_vector_1'> +1.7947744e-04 </wgt>
<wgt id='morphing_basis_vector_2'> +1.1841652e-04 </wgt>
<wgt id='morphing_basis_vector_3'> +1.8886560e-04 </wgt>
<wgt id='morphing_basis_vector_4'> +1.2960705e-04 </wgt>
<wgt id='morphing_basis_vector_5'> +2.0639285e-04 </wgt>
</rwgt>
</event>
<event>
 4      1 +1.5130300e-07 1.58422900e+03 7.81860800e-03 8.26763700e-02
        2 -1    0    0  501    0 +0.0000000000e+00 +0.0000000000e+00 +2.6465454357e+03 2.6465454357e+03 0.0000000000e+00 0.0000e+00 -1.0000e+00
       -2 -1    0    0    0  501 -0.0000000000e+00 -0.0000000000e+00 -2.3708095162e+02 2.3708095162e+02 0.0000000000e+00 0.0000e+00 1.0000e+00
      -13  1    1    2    0    0 -5.8425801877e+02 -1.1611364285e+02 +2.5437157576e+02 6.4772271004e+02 0.0000000000e+00 0.0000e+00 1.0000e+00
       13  1    1    2    0    0 +5.8425801877e+02 +1.1611364285e+02 +2.1550929083e+03 2.2359036773e+03 0.0000000000e+00 0.0000e+00 -1.0000e+00
<mgrwt>
<rscale>  0 0.15842292E+04</rscale>
<asrwt>0</asrwt>
<pdfrwt beam="1">  1        2 0.40716082E+00 0.15842292E+04</pdfrwt>
<pdfrwt beam="2">  1       -2 0.36473994E-01 0.15842292E+04</pdfrwt>
<totfact> 0.23365293E+01</totfact>
</mgrwt>
<rwgt>
<wgt id='morphing_basis_vector_1'> +1.3698835e-04 </wgt>
<wgt id='morphing_basis_vector_2'> +9.0460772e-05 </wgt>
<wgt id='morphing_basis_vector_3'> +1.4313702e-04 </wgt>
<wgt id='morphing_basis_vector_4'> +9.6745471e-05 </wgt>
<wgt id='morphing_basis_vector_5'> +1.5463094e-04 </wgt>
</rwgt>
</event>
<event>
 4      1 +1.5130300e-07 1.70093200e+03 7.81860800e-03 8.20684700e-02
        2 -1    0    0  501    0 +0.0000000000e+00 +0.0000000000e+00 +1.3258257182e+03 1.3258257182e+03 0.0000000000e+00 0.0000e+00 -1.0000e+00
       -2 -1    0    0    0  501 -0.0000000000e+00 -0.0000000000e+00 -5.4554106193e+02 5.4554106193e+02 0.0000000000e+00 0.0000e+00 1.0000e+00
      -13  1    1    2    0    0 -1.6578422897e+02 +1.5722617640e+02 -5.1114170812e+02 5.5988420847e+02 0.0000000000e+00 0.0000e+00 1.0000e+00
       13  1    1    2    0    0 +1.6578422897e+02 -1.5722617640e+02 +1.2914263644e+03 1.3114825717e+03 0.0000000000e+00 0.0000e+00 -1.0000e+00
<mgrwt>
<rscale>  0 0.17009319E+04</rscale>
<asrwt>0</asrwt>
<pdfrwt beam="1">  1        2 0.20397319E+00 0.17009319E+04</pdfrwt>
<pdfrwt beam="2">  1       -2 0.83929394E-01 0.17009319E+04</pdfrwt>
<totfact> 0.24139984E+01</totfact>
</mgrwt>
<rwgt>
<wgt id='morphing_basis_vector_1'> +1.8020216e-04 </wgt>
<wgt id='morphing_basis_vector_2'> +1.1885895e-04 </wgt>
<wgt id='morphing_basis_vector_3'> +1.8964226e-04 </wgt>
<wgt id='morphing_basis_vector_4'> +1.3021081e-04 </wgt>
<wgt id='morphing_basis_vector_5'> +2.0730002e-04 </wgt>
</rwgt>
</event>
<event>
 4      1 +1.5130300e-07 1.82591800e+03 7.81860800e-03 8.14704900e-02
        2 -1    0    0  501    0 +0.0000000000e+00 +0.0000000000e+00 +2.1727656616e+03 2.1727656616e+03 0.0000000000e+00 0.0000e+00 -1.0000e+00
       -2 -1    0    0    0  501 -0.0000000000e+00 -0.0000000000e+00 -3.8360975054e+02 3.8360975054e+02 0.0000000000e+00 0.0000e+00 1.0000e+00
      -13  1    1    2    0    0 -1.2753179807e+02 +3.9902752901e+02 -2.4110877671e+02 4.8334332584e+02 0.0000000000e+00 0.0000e+00 1.0000e+00
       13  1    1    2    0    0 +1.2753179807e+02 -3.9902752901e+02 +2.0302646878e+03 2.0730320863e+03 0.0000000000e+00 0.0000e+00 -1.0000e+00
<mgrwt>
<rscale>  0 0.18259180E+04</rscale>
<asrwt>0</asrwt>
<pdfrwt beam="1">  1        2 0.33427163E+00 0.18259180E+04</pdfrwt>
<pdfrwt beam="2">  1       -2 0.59016886E-01 0.18259180E+04</pdfrwt>
<totfact> 0.17112126E+01</totfact>
</mgrwt>
<rwgt>
<wgt id='morphing_basis_vector_1'> +2.3757680e-04 </wgt>
<wgt id='morphing_basis_vector_2'> +1.5742835e-04 </wgt>
<wgt id='morphing_basis_vector_3'> +2.5170556e-04 </wgt>
<wgt id='morphing_basis_vector_4'> +1.7409194e-04 </wgt>
<wgt id='morphing_basis_vector_5'> +2.7732514e-04 </wgt>
</rwgt>
</event>
<event>
 4      1 +1.5130300e-07 1.69166200e+03 7.81860800e-03 8.21149100e-02
        2 -1    0    0  501    0 +0.0000000000e+00 +0.0000000000e+00 +1.9262656278e+03 1.9262656278e+03 0.0000000000e+00 0.0000e+00 1.0000e+00
       -2 -1    0    0    0  501 -0.0000000000e+00 -0.0000000000e+00 -3.7140759744e+02 3.7140759744e+02 0.0000000000e+00 0.0000e+00 -1.0000e+00
      -13  1    1    2    0    0 +3.1967318017e+02 +3.4958343311e+01 -2.8513819800e+02 4.2978694704e+02 0.0000000000e+00 0.0000e+00 -1.0000e+00
       13  1    1    2    0    0 -3.1967318017e+02 -3.4958343311e+01 +1.8399962284e+03 1.8678862782e+03 0.0000000000e+00 0.0000e+00 1.0000e+00
<mgrwt>
<rscale>  0 0.16916615E+04</rscale>
<asrwt>0</asrwt>
<pdfrwt beam="1">  1        2 0.29634855E+00 0.16916615E+04</pdfrwt>
<pdfrwt beam="2">  1       -2 0.57139632E-01 0.16916615E+04</pdfrwt>
<totfact> 0.25471506E+01</totfact>
</mgrwt>
<rwgt>
<wgt id='morphing_basis_vector_1'> +1.7642138e-04 </wgt>
<wgt id='morphing_basis_vector_2'> +1.1634440e-04 </wgt>
<wgt id='morphing_basis_vector_3'> +1.8556377e-04 </wgt>
<wgt id='morphing_basis_vector_4'> +1.2730349e-04 </wgt>
<wgt id='morphing_basis_vector_5'> +2.0269110e-04 </wgt>
</rwgt>
</event>
<event>
 4      1 +1.5130300e-07 1.67548100e+03 7.81860800e-03 8.21966900e-02
        2 -1    0    0  501    0 +0.0000000000e+00 +0.0000000000e+00 +9.5145576899e+02 9.5145576899e+02 0.0000000000e+00 0.0000e+00 1.0000e+00
       -2 -1    0    0    0  501 -0.0000000000e+00 -0.0000000000e+00 -7.3761656960e+02 7.3761656960e+02 0.0000000000e+00 0.0000e+00 -1.0000e+00
      -13  1    1    2    0    0 +7.2558111629e+01 +1.7741553738e+02 -7.1521294077e+02 7.4045290405e+02 0.0000000000e+00 0.0000e+00 -1.0000e+00
       13  1    1    2    0    0 -7.2558111629e+01 -1.7741553738e+02 +9.2905214016e+02 9.4861943455e+02 0.0000000000e+00 0.0000e+00 1.0000e+00
<mgrwt>
<rscale>  0 0.16754815E+04</rscale>
<asrwt>0</asrwt>
<pdfrwt beam="1">  1        2 0.14637781E+00 0.16754815E+04</pdfrwt>
<pdfrwt beam="2">  1       -2 0.11347947E+00 0.16754815E+04</pdfrwt>
<totfact> 0.19614577E+01</totfact>
</mgrwt>
<rwgt>
<wgt id='morphing_basis_vector_1'> +1.6994340e-04 </wgt>
<wgt id='morphing_basis_vector_2'> +1.1198223e-04 </wgt>
<wgt id='morphing_basis_vector_3'> +1.7857128e-04 </wgt>
<wgt id='morphing_basis_vector_4'> +1.2239034e-04 </wgt>
<wgt id='morphing_basis_vector_5'> +1.9483337e-04 </wgt>
</rwgt>
</event>
<event>
 4      1 +1.5130300e-07 1.58206000e+03 7.81860800e-03 8.26881700e-02
        2 -1    0    0  501    0 +0.0000000000e+00 +0.0000000000e+00 +2.5247051852e+03 2.5247051852e+03 0.0000000000e+00 0.0000e+00 -1.0000e+00
       -2 -1    0    0    0  501 -0.0000000000e+00 -0.0000000000e+00 -2.4784231880e+02 2.4784231880e+02 0.0000000000e+00 0.0000e+00 1.0000e+00
      -13  1    1    2    0    0 +5.5612849439e+02 +2.9286944660e+02 +2.9672929523e+02 6.9505373150e+02 0.0000000000e+00 0.0000e+00 1.0000e+00
       13  1    1    2    0    0 -5.5612849439e+02 -2.9286944660e+02 +1.9801335711e+03 2.0774937724e+03 0.0000000000e+00 0.0000e+00 -1.0000e+00
<mgrwt>
<rscale>  0 0.15820604E+04</rscale>
<asrwt>0</asrwt>
<pdfrwt beam="1">  1        2 0.38841616E+00 0.15820604E+04</pdfrwt>
<pdfrwt beam="2">  1       -2 0.38129589E-01 0.15820604E+04</pdfrwt>
<totfact> 0.25493889E+01</totfact>
</mgrwt>
<rwgt>
<wgt id='morphing_basis_vector_1'> +1.3635880e-04 </wgt>
<wgt id='morphing_basis_vector_2'> +9.0256982e-05 </wgt>
<wgt id='morphing_basis_vector_3'> +1.4248502e-04 </wgt>
<wgt id='morphing_basis_vector_4'> +9.6019917e-05 </wgt>
<wgt id='morphing_basis_vector_5'> +1.5374493e-04 </wgt>
</rwgt>
</event>
<event>
 4      1 +1.5130300e-07 1.74473000e+03 7.81860800e-03 8.18531200e-02
        2 -1    0    0  501    0 +0.0000000000e+00 +0.0000000000e+00 +7.5914740249e+02 7.5914740249e+02 0.0000000000e+00 0.0000e+00 1.0000e+00
       -2 -1    0    0    0  501 -0.0000000000e+00 -0.0000000000e+00 -1.0024672767e+03 1.0024672767e+03 0.0000000000e+00 0.0000e+00 -1.0000e+00
      -13  1    1    2    0    0 -2.1938023242e+02 +2.6199829930e+02 -9.3207939074e+02 9.9274507597e+02 0.0000000000e+00 0.0000e+00 -1.0000e+00
       13  1    1    2    0    0 +2.1938023242e+02 -2.6199829930e+02 +6.8875951650e+02 7.6886960324e+02 0.0000000000e+00 0.0000e+00 1.0000e+00
<mgrwt>
<rscale>  0 0.17447297E+04</rscale>
<asrwt>0</asrwt>
<pdfrwt beam="1">  1        2 0.11679191E+00 0.17447297E+04</pdfrwt>
<pdfrwt beam="2">  1       -2 0.15422573E+00 0.17447297E+04</pdfrwt>
<totfact> 0.11453705E+01</totfact>
</mgrwt>
<rwgt>
<wgt id='morphing_basis_vector_1'> +1.9895506e-04 </wgt>
<wgt id='morphing_basis_vector_2'> +1.3145871e-04 </wgt>
<wgt id='morphing_basis_vector_3'> +2.0990400e-04 </wgt>
<wgt id='morphing_basis_vector_4'> +1.4451419e-04 </wgt>
<wgt id='morphing_basis_vector_5'> +2.3012816e-04 </wgt>
</rwgt>
</event>
<event>
 4      1 +1.5130300e-07 1.75876500e+03 7.81860800e-03 8.17854700e-02
        2 -1    0    0  501    0 +0.0000000000e+00 +0.0000000000e+00 +1.8887173912e+03 1.8887173912e+03 0.0000000000e+00 0.0000e+00 -1.0000e+00
       -2 -1    0    0    0  501 -0.0000000000e+00 -0.0000000000e+00 -4.0943846568e+02 4.0943846568e+02 0.0000000000e+00 0.0000e+00 1.0000e+00
      -13  1    1    2    0    0 +2.3973943889e+02 -5.7674966906e+02 -6.9239424489e+01 6.2841807519e+02 0.0000000000e+00 0.0000e+00 1.0000e+00
       13  1    1    2    0    0 -2.3973943889e+02 +5.7674966906e+02 +1.5485183501e+03 1.6697377817e+03 0.0000000000e+00 0.0000e+00 -1.0000e+00
<mgrwt>
<rscale>  0 0.17587650E+04</rscale>
<asrwt>0</asrwt>
<pdfrwt beam="1">  1        2 0.29057190E+00 0.17587650E+04</pdfrwt>
<pdfrwt beam="2">  1       -2 0.62990534E-01 0.17587650E+04</pdfrwt>
<totfact> 0.21758510E+01</totfact>
</mgrwt>
<rwgt>
<wgt id='morphing_basis_vector_1'> +2.0549799e-04 </wgt>
<wgt id='morphing_basis_vector_2'> +1.3639042e-04 </wgt>
<wgt id='morphing_basis_vector_3'> +2.1705317e-04 </wgt>
<wgt id='morphing_basis_vector_4'> +1.4888489e-04 </wgt>
<wgt id='morphing_basis_vector_5'> +2.3778909e-04 </wgt>
</rwgt>
</event>
<event>
 4      1 +1.5130300e-07 1.62364000e+03 7.81860800e-03 8.24652300e-02
        2 -1    0    0  501    0 +0.0000000000e+00 +0.0000000000e+00 +2.0927843895e+03 2.0927843895e+03 0.0000000000e+00 0.0000e+00 -1.0000e+00
       -2 -1    0    0    0  501 -0.0000000000e+00 -0.0000000000e+00 -3.1491624562e+02 3.1491624562e+02 0.0000000000e+00 0.0000e+00 1.0000e+00
      -13  1    1    2    0    0 +6.6771355197e+02 -4.5627094485e+02 +9.9407638684e+02 1.2814883634e+03 0.0000000000e+00 0.0000e+00 1.0000e+00
       13  1    1    2    0    0 -6.6771355197e+02 +4.5627094485e+02 +7.8379175701e+02 1.1262122717e+03 0.0000000000e+00 0.0000e+00 -1.0000e+00
<mgrwt>
<rscale>  0 0.16236401E+04</rscale>
<asrwt>0</asrwt>
<pdfrwt beam="1">  1        2 0.32196682E+00 0.16236401E+04</pdfrwt>
<pdfrwt beam="2">  1       -2 0.48448654E-01 0.16236401E+04</pdfrwt>
<totfact> 0.28675140E+01</totfact>
</mgrwt>
<rwgt>
<wgt id='morphing_basis_vector_1'> +1.5788869e-04 </wgt>
<wgt id='morphing_basis_vector_2'> +1.2112124e-04 </wgt>
<wgt id='morphing_basis_vector_3'> +1.6766690e-04 </wgt>
<wgt id='morphing_basis_vector_4'> +9.3305348e-05 </wgt>
<wgt id='morphing_basis_vector_5'> +1.7009191e-04 </wgt>
</rwgt>
</event>
<event>
 4      1 +1.5130300e-07 1.65101400e+03 7.81860800e-03 8.23221700e-02
        2 -1    0    0  501    0 +0.0000000000e+00 +0.0000000000e+00 +2.7741817233e+03 2.7741817233e+03 0.0000000000e+00 0.0000e+00 1.0000e+00
       -2 -1    0    0    0  501 -0.0000000000e+00 -0.0000000000e+00 -2.4564419217e+02 2.4564419217e+02 0.0000000000e+00 0.0000e+00 -1.0000e+00
      -13  1    1    2    0    0 -5.8487315025e+02 -4.3088301786e+01 +2.0162821397e+02 6.2015090123e+02 0.0000000000e+00 0.0000e+00 -1.0000e+00
       13  1    1    2    0    0 +5.8487315025e+02 +4.3088301786e+01 +2.3269093172e+03 2.3996750142e+03 0.0000000000e+00 0.0000e+00 1.0000e+00
<mgrwt>
<rscale>  0 0.16510138E+04</rscale>
<asrwt>0</asrwt>
<pdfrwt beam="1">  1        2 0.42679716E+00 0.16510138E+04</pdfrwt>
<pdfrwt beam="2">  1       -2 0.37791416E-01 0.16510138E+04</pdfrwt>
<totfact> 0.18160016E+01</totfact>
</mgrwt>
<rwgt>
<wgt id='morphing_basis_vector_1'> +1.6069924e-04 </wgt>
<wgt id='morphing_basis_vector_2'> +1.0623895e-04 </wgt>
<wgt id='morphing_basis_vector_3'> +1.6865956e-04 </wgt>
<wgt id='morphing_basis_vector_4'> +1.1483231e-04 </wgt>
<wgt id='morphing_basis_vector_5'> +1.8335333e-04 </wgt>
</rwgt>
</event>
<event>
 4      1 +1.5130300e-07 1.68660600e+03 7.81860800e-03 8.21403600e-02
        2 -1    0    0  501    0 +0.0000000000e+00 +0.0000000000e+00 +7.7205608081e+02 7.7205608081e+02 0.0000000000e+00 0.0000e+00 -1.0000e+00
       -2 -1    0    0    0  501 -0.0000000000e+00 -0.0000000000e+00 -9.2112489025e+02 9.2112489025e+02 0.0000000000e+00 0.0000e+00 1.0000e+00
      -13  1    1    2    0    0 -2.8430923068e+02 +7.8481970611e+02 -1.9494513965e+02 8.5719152890e+02 0.0000000000e+00 0.0000e+00 1.0000e+00
       13  1    1    2    0    0 +2.8430923068e+02 -7.8481970611e+02 +4.5876330212e+01 8.3598944217e+02 0.0000000000e+00 0.0000e+00 -1.0000e+00
<mgrwt>
<rscale>  0 0.16866061E+04</rscale>
<asrwt>0</asrwt>
<pdfrwt beam="1">  1        2 0.11877786E+00 0.16866061E+04</pdfrwt>
<pdfrwt beam="2">  1       -2 0.14171152E+00 0.16866061E+04</pdfrwt>
<totfact> 0.14325990E+01</totfact>
</mgrwt>
<rwgt>
<wgt id='morphing_basis_vector_1'> +1.7811561e-04 </wgt>
<wgt id='morphing_basis_vector_2'> +1.2607557e-04 </wgt>
<wgt id='morphing_basis_vector_3'> +1.8850940e-04 </wgt>
<wgt id='morphing_basis_vector_4'> +1.1856000e-04 </wgt>
<wgt id='morphing_basis_vector_5'> +1.9966119e-04 </wgt>
</rwgt>
</event>
<event>
 4      1 +1.5130300e-07 1.66627600e+03 7.81860800e-03 8.22436400e-02
        2 -1    0    0  501    0 +0.0000000000e+00 +0.0000000000e+00 +1.4678753974e+03 1.4678753974e+03 0.0000000000e+00 0.0000e+00 1.0000e+00
       -2 -1    0    0    0  501 -0.0000000000e+00 -0.0000000000e+00 -4.7287292303e+02 4.7287292303e+02 0.0000000000e+00 0.0000e+00 -1.0000e+00
      -13  1    1    2    0    0 -2.8753976722e+02 +7.5556187795e+02 +2.6291545813e+02 8.5010435081e+02 0.0000000000e+00 0.0000e+00 -1.0000e+00
       13  1    1    2    0    0 +2.8753976722e+02 -7.5556187795e+02 +7.3208701629e+02 1.0906439697e+03 0.0000000000e+00 0.0000e+00 1.0000e+00
<mgrwt>
<rscale>  0 0.16662755E+04</rscale>
<asrwt>0</asrwt>
<pdfrwt beam="1">  1        2 0.22582698E+00 0.16662755E+04</pdfrwt>
<pdfrwt beam="2">  1       -2 0.72749681E-01 0.16662755E+04</pdfrwt>
<totfact> 0.27722497E+01</totfact>
</mgrwt>
<rwgt>
<wgt id='morphing_basis_vector_1'> +1.6875245e-04 </wgt>
<wgt id='morphing_basis_vector_2'> +1.1672985e-04 </wgt>
<wgt id='morphing_basis_vector_3'> +1.7799309e-04 </wgt>
<wgt id='morphing_basis_vector_4'> +1.1502766e-04 </wgt>
<wgt id='morphing_basis_vector_5'> +1.9011177e-04 </wgt>
</rwgt>
</event>
<event>
 4      1 +1.5130300e-07 1.60883600e+03 7.81860800e-03 8.25438100e-02
        2 -1    0    0  501    0 +0.0000000000e+00 +0.0000000000e+00 +1.5431083238e+03 1.5431083238e+03 0.0000000000e+00 0.0000e+00 1.0000e+00
       -2 -1    0    0    0  501 -0.0000000000e+00 -0.0000000000e+00 -4.1934058014e+02 4.1934058014e+02 0.0000000000e+00 0.0000e+00 -1.0000e+00
      -13  1    1    2    0    0 -5.2651055012e+01 -8.0179933446e+02 +6.0806938382e+02 1.0076719118e+03 0.0000000000e+00 0.0000e+00 -1.0000e+00
       13  1    1    2    0    0 +5.2651055012e+01 +8.0179933446e+02 +5.1569835986e+02 9.5477699213e+02 0.0000000000e+00 0.0000e+00 1.0000e+00
<mgrwt>
<rscale>  0 0.16088355E+04</rscale>
<asrwt>0</asrwt>
<pdfrwt beam="1">  1        2 0.23740128E+00 0.16088355E+04</pdfrwt>
<pdfrwt beam="2">  1       -2 0.64513936E-01 0.16088355E+04</pdfrwt>
<totfact> 0.32655893E+01</totfact>
</mgrwt>
<rwgt>
<wgt id='morphing_basis_vector_1'> +1.5142660e-04 </wgt>
<wgt id='morphing_basis_vector_2'> +1.1400583e-04 </wgt>
<wgt id='morphing_basis_vector_3'> +1.6033657e-04 </wgt>
<wgt id='morphing_basis_vector_4'> +9.1663223e-05 </wgt>
<wgt id='morphing_basis_vector_5'> +1.6392460e-04 </wgt>
</rwgt>
</event>
<event>
 4      1 +1.5130300e-07 1.59531600e+03 7.81860800e-03 8.26163400e-02
        2 -1    0    0  501    0 +0.0000000000e+00 +0.0000000000e+00 +1.0990071598e+03 1.0990071598e+03 0.0000000000e+00 0.0000e+00 -1.0000e+00
       -2 -1    0    0    0  501 -0.0000000000e+00 -0.0000000000e+00 -5.7893891028e+02 5.7893891028e+02 0.0000000000e+00 0.0000e+00 1.0000e+00
      -13  1    1    2    0    0 -5.2753152834e+02 +5.3444434278e+01 -3.6674447568e+02 6.4470716716e+02 0.0000000000e+00 0.0000e+00 1.0000e+00
       13  1    1    2    0    0 +5.2753152834e+02 -5.3444434278e+01 +8.8681272521e+02 1.0332389029e+03 0.0000000000e+00 0.0000e+00 -1.0000e+00
<mgrwt>
<rscale>  0 0.15953157E+04</rscale>
<asrwt>0</asrwt>
<pdfrwt beam="1">  1        2 0.16907802E+00 0.15953157E+04</pdfrwt>
<pdfrwt beam="2">  1       -2 0.89067525E-01 0.15953157E+04</pdfrwt>
<totfact> 0.28792204E+01</totfact>
</mgrwt>
<rwgt>
<wgt id='morphing_basis_vector_1'> +1.4061957e-04 </wgt>
<wgt id='morphing_basis_vector_2'> +9.2626873e-05 </wgt>
<wgt id='morphing_basis_vector_3'> +1.4701263e-04 </wgt>
<wgt id='morphing_basis_vector_4'> +9.9795327e-05 </wgt>
<wgt id='morphing_basis_vector_5'> +1.5916539e-04 </wgt>
</rwgt>
</event>
<event>
 4      1 +1.5130300e-07 1.58463700e+03 7.81860800e-03 8.26741600e-02
        2 -1    0    0  501    0 +0.0000000000e+00 +0.0000000000e+00 +2.3966582210e+03 2.3966582210e+03 0.0000000000e+00 0.0000e+00 1.0000e+00
       -2 -1    0    0    0  501 -0.0000000000e+00 -0.0000000000e+00 -2.6193485242e+02 2.6193485242e+02 0.0000000000e+00 0.0000e+00 -1.0000e+00
      -13  1    1    2    0    0 +6.5516539477e+02 +3.9084406418e+02 +1.4262844150e+03 1.6174943615e+03 0.0000000000e+00 0.0000e+00 1.0000e+00
       13  1    1    2    0    0 -6.5516539477e+02 -3.9084406418e+02 +7.0843895359e+02 1.0410987119e+03 0.0000000000e+00 0.0000e+00 -1.0000e+00
<mgrwt>
<rscale>  0 0.15846366E+04</rscale>
<asrwt>0</asrwt>
<pdfrwt beam="1">  1        2 0.36871664E+00 0.15846366E+04</pdfrwt>
<pdfrwt beam="2">  1       -2 0.40297671E-01 0.15846366E+04</pdfrwt>
<totfact> 0.27367723E+01</totfact>
</mgrwt>
<rwgt>
<wgt id='morphing_basis_vector_1'> +1.4946379e-04 </wgt>
<wgt id='morphing_basis_vector_2'> +1.2727711e-04 </wgt>
<wgt id='morphing_basis_vector_3'> +1.5985976e-04 </wgt>
<wgt id='morphing_basis_vector_4'> +7.3468672e-05 </wgt>
<wgt id='morphing_basis_vector_5'> +1.5303436e-04 </wgt>
</rwgt>
</event>
<event>
 4      1 +1.5130300e-07 1.77320500e+03 7.81860800e-03 8.17165400e-02
        2 -1    0    0  501    0 +0.0000000000e+00 +0.0000000000e+00 +1.8065533118e+03 1.8065533118e+03 0.0000000000e+00 0.0000e+00 1.0000e+00
       -2 -1    0    0    0  501 -0.0000000000e+00 -0.0000000000e+00 -4.3511789125e+02 4.3511789125e+02 0.0000000000e+00 0.0000e+00 -1.0000e+00
      -13  1    1    2    0    0 +2.6586268550e+02 +8.2369563815e+02 +4.4285396106e+02 9.7225362055e+02 0.0000000000e+00 0.0000e+00 -1.0000e+00
       13  1    1    2    0    0 -2.6586268550e+02 -8.2369563815e+02 +9.2858145945e+02 1.2694175825e+03 0.0000000000e+00 0.0000e+00 1.0000e+00
<mgrwt>
<rscale>  0 0.17732046E+04</rscale>
<asrwt>0</asrwt>
<pdfrwt beam="1">  1        2 0.27793128E+00 0.17732046E+04</pdfrwt>
<pdfrwt beam="2">  1       -2 0.66941215E-01 0.17732046E+04</pdfrwt>
<totfact> 0.21260093E+01</totfact>
</mgrwt>
<rwgt>
<wgt id='morphing_basis_vector_1'> +2.1529489e-04 </wgt>
<wgt id='morphing_basis_vector_2'> +1.5020352e-04 </wgt>
<wgt id='morphing_basis_vector_3'> +2.2866529e-04 </wgt>
<wgt id='morphing_basis_vector_4'> +1.4784473e-04 </wgt>
<wgt id='morphing_basis_vector_5'> +2.4543127e-04 </wgt>
</rwgt>
</event>
<event>
 4      1 +1.5130300e-07 1.60964600e+03 7.81860800e-03 8.25394900e-02
        2 -1    0    0  501    0 +0.0000000000e+00 +0.0000000000e+00 +1.7474082503e+03 1.7474082503e+03 0.0000000000e+00 0.0000e+00 -1.0000e+00
       -2 -1    0    0    0  501 -0.0000000000e+00 -0.0000000000e+00 -3.7068599591e+02 3.7068599591e+02 0.0000000000e+00 0.0000e+00 1.0000e+00
      -13  1    1    2    0    0 -3.2209391961e+02 +2.2019941361e+01 -2.8174429561e+02 4.2849646320e+02 0.0000000000e+00 0.0000e+00 1.0000e+00
       13  1    1    2    0    0 +3.2209391961e+02 -2.2019941361e+01 +1.6584665500e+03 1.6895977830e+03 0.0000000000e+00 0.0000e+00 -1.0000e+00
<mgrwt>
<rscale>  0 0.16096456E+04</rscale>
<asrwt>0</asrwt>
<pdfrwt beam="1">  1        2 0.26883203E+00 0.16096456E+04</pdfrwt>
<pdfrwt beam="2">  1       -2 0.57028616E-01 0.16096456E+04</pdfrwt>
<totfact> 0.32394158E+01</totfact>
</mgrwt>
<rwgt>
<wgt id='morphing_basis_vector_1'> +1.4546686e-04 </wgt>
<wgt id='morphing_basis_vector_2'> +9.5620944e-05 </wgt>
<wgt id='morphing_basis_vector_3'> +1.5219937e-04 </wgt>
<wgt id='morphing_basis_vector_4'> +1.0375464e-04 </wgt>
<wgt id='morphing_basis_vector_5'> +1.6516527e-04 </wgt>
</rwgt>
</event>
<event>
 4      1 +1.5130300e-07 1.60784500e+03 7.81860800e-03 8.25491000e-02
        2 -1    0    0  501    0 +0.0000000000e+00 +0.0000000000e+00 +1.3180622186e+03 1.3180622186e+03 0.0000000000e+00 0.0000e+00 1.0000e+00
       -2 -1    0    0    0  501 -0.0000000000e+00 -0.0000000000e+00 -4.9033443748e+02 4.9033443748e+02 0.0000000000e+00 0.0000e+00 -1.0000e+00
      -13  1    1    2    0    0 +7.5146368087e+02 +1.2442475973e+02 +1.2466936891e+02 7.7183005645e+02 0.0000000000e+00 0.0000e+00 -1.0000e+00
       13  1    1    2    0    0 -7.5146368087e+02 -1.2442475973e+02 +7.0305841220e+02 1.0365665996e+03 0.0000000000e+00 0.0000e+00 1.0000e+00
<mgrwt>
<rscale>  0 0.16078449E+04</rscale>
<asrwt>0</asrwt>
<pdfrwt beam="1">  1        2 0.20277880E+00 0.16078449E+04</pdfrwt>
<pdfrwt beam="2">  1       -2 0.75436068E-01 0.16078449E+04</pdfrwt>
<totfact> 0.31274552E+01</totfact>
</mgrwt>
<rwgt>
<wgt id='morphing_basis_vector_1'> +1.4633570e-04 </wgt>
<wgt id='morphing_basis_vector_2'> +9.9658316e-05 </wgt>
<wgt id='morphing_basis_vector_3'> +1.5354749e-04 </wgt>
<wgt id='morphing_basis_vector_4'> +1.0042676e-04 </wgt>
<wgt id='morphing_basis_vector_5'> +1.6418874e-04 </wgt>
</rwgt>
</event>
<event>
 4      1 +1.5130300e-07 1.67047600e+03 7.81860800e-03 8.22221800e-02
        2 -1    0    0  501    0 +0.0000000000e+00 +0.0000000000e+00 +1.4202539959e+03 1.4202539959e+03 0.0000000000e+00 0.0000e+00 -1.0000e+00
       -2 -1    0    0    0  501 -0.0000000000e+00 -0.0000000000e+00 -4.9119553298e+02 4.9119553298e+02 0.0000000000e+00 0.0000e+00 1.0000e+00
      -13  1    1    2    0    0 +5.4174584611e+02 -1.5680680142e+01 -2.6266945489e+02 6.0227044426e+02 0.0000000000e+00 0.0000e+00 1.0000e+00
       13  1    1    2    0    0 -5.4174584611e+02 +1.5680680142e+01 +1.1917279178e+03 1.3091790846e+03 0.0000000000e+00 0.0000e+00 -1.0000e+00
<mgrwt>
<rscale>  0 0.16704759E+04</rscale>
<asrwt>0</asrwt>
<pdfrwt beam="1">  1        2 0.21850061E+00 0.16704759E+04</pdfrwt>
<pdfrwt beam="2">  1       -2 0.75568544E-01 0.16704759E+04</pdfrwt>
<totfact> 0.27119061E+01</totfact>
</mgrwt>
<rwgt>
<wgt id='morphing_basis_vector_1'> +1.6810291e-04 </wgt>
<wgt id='morphing_basis_vector_2'> +1.1103435e-04 </wgt>
<wgt id='morphing_basis_vector_3'> +1.7662256e-04 </wgt>
<wgt id='morphing_basis_vector_4'> +1.2065624e-04 </wgt>
<wgt id='morphing_basis_vector_5'> +1.9243040e-04 </wgt>
</rwgt>
</event>
<event>
 4      1 +1.5130300e-07 1.65977300e+03 7.81860800e-03 8.22769900e-02
        2 -1    0    0  501    0 +0.0000000000e+00 +0.0000000000e+00 +2.9994721302e+03 2.9994721302e+03 0.0000000000e+00 0.0000e+00 -1.0000e+00
       -2 -1    0    0    0  501 -0.0000000000e+00 -0.0000000000e+00 -2.2961095560e+02 2.2961095560e+02 0.0000000000e+00 0.0000e+00 1.0000e+00
      -13  1    1    2    0    0 -8.0588694392e+02 -8.8060005361e+01 +1.0396209138e+03 1.3183398558e+03 0.0000000000e+00 0.0000e+00 1.0000e+00
       13  1    1    2    0    0 +8.0588694392e+02 +8.8060005361e+01 +1.7302402608e+03 1.9107432300e+03 0.0000000000e+00 0.0000e+00 -1.0000e+00
<mgrwt>
<rscale>  0 0.16597731E+04</rscale>
<asrwt>0</asrwt>
<pdfrwt beam="1">  1        2 0.46145722E+00 0.16597731E+04</pdfrwt>
<pdfrwt beam="2">  1       -2 0.35324765E-01 0.16597731E+04</pdfrwt>
<totfact> 0.14784046E+01</totfact>
</mgrwt>
<rwgt>
<wgt id='morphing_basis_vector_1'> +1.6649187e-04 </wgt>
<wgt id='morphing_basis_vector_2'> +1.1578465e-04 </wgt>
<wgt id='morphing_basis_vector_3'> +1.7562233e-04 </wgt>
<wgt id='morphing_basis_vector_4'> +1.1265033e-04 </wgt>
<wgt id='morphing_basis_vector_5'> +1.8703443e-04 </wgt>
</rwgt>
</event>
<event>
 4      1 +1.5130300e-07 1.68102300e+03 7.81860800e-03 8.21685700e-02
        2 -1    0    0  501    0 +0.0000000000e+00 +0.0000000000e+00 +1.5761227827e+03 1.5761227827e+03 0.0000000000e+00 0.0000e+00 1.0000e+00
       -2 -1    0    0    0  501 -0.0000000000e+00 -0.0000000000e+00 -4.4822635047e+02 4.4822635047e+02 0.0000000000e+00 0.0000e+00 -1.0000e+00
      -13  1    1    2    0    0 +6.1765158474e+02 -3.8826101223e+02 +1.0665919779e+03 1.2922300650e+03 0.0000000000e+00 0.0000e+00 -1.0000e+00
       13  1    1    2    0    0 -6.1765158474e+02 +3.8826101223e+02 +6.1304454325e+01 7.3211906810e+02 0.0000000000e+00 0.0000e+00 1.0000e+00
<mgrwt>
<rscale>  0 0.16810232E+04</rscale>
<asrwt>0</asrwt>
<pdfrwt beam="1">  1        2 0.24248043E+00 0.16810232E+04</pdfrwt>
<pdfrwt beam="2">  1       -2 0.68957901E-01 0.16810232E+04</pdfrwt>
<totfact> 0.27026761E+01</totfact>
</mgrwt>
<rwgt>
<wgt id='morphing_basis_vector_1'> +2.0341114e-04 </wgt>
<wgt id='morphing_basis_vector_2'> +2.0638907e-04 </wgt>
<wgt id='morphing_basis_vector_3'> +2.2398781e-04 </wgt>
<wgt id='morphing_basis_vector_4'> +6.3931775e-05 </wgt>
<wgt id='morphing_basis_vector_5'> +1.9290494e-04 </wgt>
</rwgt>
</event>
<event>
 4      1 +1.5130300e-07 1.55050100e+03 7.81860800e-03 8.28621600e-02
        2 -1    0    0  501    0 +0.0000000000e+00 +0.0000000000e+00 +5.1097423594e+02 5.1097423594e+02 0.0000000000e+00 0.0000e+00 -1.0000e+00
       -2 -1    0    0    0  501 -0.0000000000e+00 -0.0000000000e+00 -1.1762110084e+03 1.1762110084e+03 0.0000000000e+00 0.0000e+00 1.0000e+00
      -13  1    1    2    0    0 -4.9652305525e+02 +5.4997473620e+01 -9.7771488312e+02 1.0979463827e+03 0.0000000000e+00 0.0000e+00 1.0000e+00
       13  1    1    2    0    0 +4.9652305525e+02 -5.4997473620e+01 +3.1247811064e+02 5.8923886170e+02 0.0000000000e+00 0.0000e+00 -1.0000e+00
<mgrwt>
<rscale>  0 0.15505012E+04</rscale>
<asrwt>0</asrwt>
<pdfrwt beam="1">  1        2 0.78611420E-01 0.15505012E+04</pdfrwt>
<pdfrwt beam="2">  1       -2 0.18095554E+00 0.15505012E+04</pdfrwt>
<totfact> 0.11512220E+01</totfact>
</mgrwt>
<rwgt>
<wgt id='morphing_basis_vector_1'> +1.2591841e-04 </wgt>
<wgt id='morphing_basis_vector_2'> +8.2736312e-05 </wgt>
<wgt id='morphing_basis_vector_3'> +1.3120181e-04 </wgt>
<wgt id='morphing_basis_vector_4'> +8.8755274e-05 </wgt>
<wgt id='morphing_basis_vector_5'> +1.4148932e-04 </wgt>
</rwgt>
</event>
<event>
 4      1 +1.5130300e-07 1.82554700e+03 7.81860800e-03 8.14721900e-02
        2 -1    0    0  501    0 +0.0000000000e+00 +0.0000000000e+00 +7.2587554471e+02 7.2587554471e+02 0.0000000000e+00 0.0000e+00 -1.0000e+00
       -2 -1    0    0    0  501 -0.0000000000e+00 -0.0000000000e+00 -1.1477935564e+03 1.1477935564e+03 0.0000000000e+00 0.0000e+00 1.0000e+00
      -13  1    1    2    0    0 -2.7531219914e+02 -8.4826028934e+02 -4.1054046408e+02 9.8177685760e+02 0.0000000000e+00 0.0000e+00 1.0000e+00
       13  1    1    2    0    0 +2.7531219914e+02 +8.4826028934e+02 -1.1377547616e+01 8.9189224352e+02 0.0000000000e+00 0.0000e+00 -1.0000e+00
<mgrwt>
<rscale>  0 0.18255468E+04</rscale>
<asrwt>0</asrwt>
<pdfrwt beam="1">  1        2 0.11167316E+00 0.18255468E+04</pdfrwt>
<pdfrwt beam="2">  1       -2 0.17658362E+00 0.18255468E+04</pdfrwt>
<totfact> 0.80100499E+00</totfact>
</mgrwt>
<rwgt>
<wgt id='morphing_basis_vector_1'> +2.4122348e-04 </wgt>
<wgt id='morphing_basis_vector_2'> +1.6867735e-04 </wgt>
<wgt id='morphing_basis_vector_3'> +2.5693702e-04 </wgt>
<wgt id='morphing_basis_vector_4'> +1.6644086e-04 </wgt>
<wgt id='morphing_basis_vector_5'> +2.7651095e-04 </wgt>
</rwgt>
</event>
<event>
 4      1 +1.5130300e-07 1.57828500e+03 7.81860800e-03 8.27087700e-02
        2 -1    0    0  501    0 +0.0000000000e+00 +0.0000000000e+00 +1.6859690475e+03 1.6859690475e+03 0.0000000000e+00 0.0000e+00 -1.0000e+00
       -2 -1    0    0    0  501 -0.0000000000e+00 -0.0000000000e+00 -3.6936968695e+02 3.6936968695e+02 0.0000000000e+00 0.0000e+00 1.0000e+00
      -13  1    1    2    0    0 -1.6699091963e+02 +2.2426622449e+02 -3.0269873427e+02 4.1207745681e+02 0.0000000000e+00 0.0000e+00 1.0000e+00
       13  1    1    2    0    0 +1.6699091963e+02 -2.2426622449e+02 +1.6192980948e+03 1.6432612777e+03 0.0000000000e+00 0.0000e+00 -1.0000e+00
<mgrwt>
<rscale>  0 0.15782850E+04</rscale>
<asrwt>0</asrwt>
<pdfrwt beam="1">  1        2 0.25937985E+00 0.15782850E+04</pdfrwt>
<pdfrwt beam="2">  1       -2 0.56826107E-01 0.15782850E+04</pdfrwt>
<totfact> 0.35390710E+01</totfact>
</mgrwt>
<rwgt>
<wgt id='morphing_basis_vector_1'> +1.3478617e-04 </wgt>
<wgt id='morphing_basis_vector_2'> +8.8467402e-05 </wgt>
<wgt id='morphing_basis_vector_3'> +1.4070871e-04 </wgt>
<wgt id='morphing_basis_vector_4'> +9.5678000e-05 </wgt>
<wgt id='morphing_basis_vector_5'> +1.5228017e-04 </wgt>
</rwgt>
</event>
<event>
 4      1 +1.5130300e-07 1.65039800e+03 7.81860800e-03 8.23253600e-02
        2 -1    0    0  501    0 +0.0000000000e+00 +0.0000000000e+00 +1.6084260325e+03 1.6084260325e+03 0.0000000000e+00 0.0000e+00 1.0000e+00
       -2 -1    0    0    0  501 -0.0000000000e+00 -0.0000000000e+00 -4.2336633155e+02 4.2336633155e+02 0.0000000000e+00 0.0000e+00 -1.0000e+00
      -13  1    1    2    0    0 +6.4392753996e+02 +2.7772499821e+02 +5.7068969339e+01 7.0358419440e+02 0.0000000000e+00 0.0000e+00 -1.0000e+00
       13  1    1    2    0    0 -6.4392753996e+02 -2.7772499821e+02 +1.1279907316e+03 1.3282081696e+03 0.0000000000e+00 0.0000e+00 1.0000e+00
<mgrwt>
<rscale>  0 0.16503980E+04</rscale>
<asrwt>0</asrwt>
<pdfrwt beam="1">  1        2 0.24745016E+00 0.16503980E+04</pdfrwt>
<pdfrwt beam="2">  1       -2 0.65133283E-01 0.16503980E+04</pdfrwt>
<totfact> 0.29332322E+01</totfact>
</mgrwt>
<rwgt>
<wgt id='morphing_basis_vector_1'> +1.6088637e-04 </wgt>
<wgt id='morphing_basis_vector_2'> +1.0733042e-04 </wgt>
<wgt id='morphing_basis_vector_3'> +1.6898233e-04 </wgt>
<wgt id='morphing_basis_vector_4'> +1.1385273e-04 </wgt>
<wgt id='morphing_basis_vector_5'> +1.8301067e-04 </wgt>
</rwgt>
</event>
<event>
 4      1 +1.5130300e-07 1.81208400e+03 7.81860800e-03 8.15342300e-02
        2 -1    0    0  501    0 +0.0000000000e+00 +0.0000000000e+00 +3.7156224907e+03 3.7156224907e+03 0.0000000000e+00 0.0000e+00 1.0000e+00
       -2 -1    0    0    0  501 -0.0000000000e+00 -0.0000000000e+00 -2.2093532195e+02 2.2093532195e+02 0.0000000000e+00 0.0000e+00 -1.0000e+00
      -13  1    1    2    0    0 -8.2924364301e+02 -3.5990766292e+02 +1.6146015943e+03 1.8504369358e+03 0.0000000000e+00 0.0000e+00 -1.0000e+00
       13  1    1    2    0    0 +8.2924364301e+02 +3.5990766292e+02 +1.8800855745e+03 2.0861208768e+03 0.0000000000e+00 0.0000e+00 1.0000e+00
<mgrwt>
<rscale>  0 0.18120842E+04</rscale>
<asrwt>0</asrwt>
<pdfrwt beam="1">  1        2 0.57163418E+00 0.18120842E+04</pdfrwt>
<pdfrwt beam="2">  1       -2 0.33990052E-01 0.18120842E+04</pdfrwt>
<totfact> 0.48936767E+00</totfact>
</mgrwt>
<rwgt>
<wgt id='morphing_basis_vector_1'> +2.3717531e-04 </wgt>
<wgt id='morphing_basis_vector_2'> +1.7218063e-04 </wgt>
<wgt id='morphing_basis_vector_3'> +2.5343603e-04 </wgt>
<wgt id='morphing_basis_vector_4'> +1.5596046e-04 </wgt>
<wgt id='morphing_basis_vector_5'> +2.6782270e-04 </wgt>
</rwgt>
</event>
<event>
 4      1 +1.5130300e-07 1.74346700e+03 7.81860800e-03 8.18592400e-02
        2 -1    0    0  501    0 +0.0000000000e+00 +0.0000000000e+00 +3.0185814358e+03 3.0185814358e+03 0.0000000000e+00 0.0000e+00 1.0000e+00
       -2 -1    0    0    0  501 -0.0000000000e+00 -0.0000000000e+00 -2.5174703097e+02 2.5174703097e+02 0.0000000000e+00 0.0000e+00 -1.0000e+00
      -13  1    1    2    0    0 +5.7223230996e+02 +2.1905573701e+02 +2.2031813346e+02 6.5113386673e+02 0.0000000000e+00 0.0000e+00 -1.0000e+00
       13  1    1    2    0    0 -5.7223230996e+02 -2.1905573701e+02 +2.5465162713e+03 2.6191946000e+03 0.0000000000e+00 0.0000e+00 1.0000e+00
<mgrwt>
<rscale>  0 0.17434666E+04</rscale>
<asrwt>0</asrwt>
<pdfrwt beam="1">  1        2 0.46439712E+00 0.17434666E+04</pdfrwt>
<pdfrwt beam="2">  1       -2 0.38730315E-01 0.17434666E+04</pdfrwt>
<totfact> 0.12032017E+01</totfact>
</mgrwt>
<rwgt>
<wgt id='morphing_basis_vector_1'> +1.9860859e-04 </wgt>
<wgt id='morphing_basis_vector_2'> +1.3171784e-04 </wgt>
<wgt id='morphing_basis_vector_3'> +2.0959672e-04 </wgt>
<wgt id='morphing_basis_vector_4'> +1.4367076e-04 </wgt>
<wgt id='morphing_basis_vector_5'> +2.2941279e-04 </wgt>
</rwgt>
</event>
<event>
 4      1 +1.5130300e-07 1.56657800e+03 7.81860800e-03 8.27730000e-02
        2 -1    0    0  501    0 +0.0000000000e+00 +0.0000000000e+00 +1.1173305577e+03 1.1173305577e+03 0.0000000000e+00 0.0000e+00 1.0000e+00
       -2 -1    0    0    0  501 -0.0000000000e+00 -0.0000000000e+00 -5.4911358320e+02 5.4911358320e+02 0.0000000000e+00 0.0000e+00 -1.0000e+00
      -13  1    1    2    0    0 -3.4520300140e+02 -3.6905842557e+02 -3.5251805592e+02 6.1614788275e+02 0.0000000000e+00 0.0000e+00 -1.0000e+00
       13  1    1    2    0    0 +3.4520300140e+02 +3.6905842557e+02 +9.2073503047e+02 1.0502962582e+03 0.0000000000e+00 0.0000e+00 1.0000e+00
<mgrwt>
<rscale>  0 0.15665777E+04</rscale>
<asrwt>0</asrwt>
<pdfrwt beam="1">  1        2 0.17189701E+00 0.15665777E+04</pdfrwt>
<pdfrwt beam="2">  1       -2 0.84479013E-01 0.15665777E+04</pdfrwt>
<totfact> 0.31810545E+01</totfact>
</mgrwt>
<rwgt>
<wgt id='morphing_basis_vector_1'> +1.3104549e-04 </wgt>
<wgt id='morphing_basis_vector_2'> +8.6171333e-05 </wgt>
<wgt id='morphing_basis_vector_3'> +1.3671122e-04 </wgt>
<wgt id='morphing_basis_vector_4'> +9.2615938e-05 </wgt>
<wgt id='morphing_basis_vector_5'> +1.4765403e-04 </wgt>
</rwgt>
</event>
<event>
 4      1 +1.5130300e-07 1.57559500e+03 7.81860800e-03 8.27234700e-02
        2 -1    0    0  501    0 +0.0000000000e+00 +0.0000000000e+00 +1.0682024869e+03 1.0682024869e+03 0.0000000000e+00 0.0000e+00 -1.0000e+00
       -2 -1    0    0    0  501 -0.0000000000e+00 -0.0000000000e+00 -5.8099930982e+02 5.8099930982e+02 0.0000000000e+00 0.0000e+00 1.0000e+00
      -13  1    1    2    0    0 -7.6631682277e+02 -3.2851726382e+01 +5.5471313510e+01 7.6902391082e+02 0.0000000000e+00 0.0000e+00 1.0000e+00
       13  1    1    2    0    0 +7.6631682277e+02 +3.2851726382e+01 +4.3173186355e+02 8.8017788588e+02 0.0000000000e+00 0.0000e+00 -1.0000e+00
<mgrwt>
<rscale>  0 0.15755950E+04</rscale>
<asrwt>0</asrwt>
<pdfrwt beam="1">  1        2 0.16433884E+00 0.15755950E+04</pdfrwt>
<pdfrwt beam="2">  1       -2 0.89384509E-01 0.15755950E+04</pdfrwt>
<totfact> 0.29854114E+01</totfact>
</mgrwt>
<rwgt>
<wgt id='morphing_basis_vector_1'> +1.3593973e-04 </wgt>
<wgt id='morphing_basis_vector_2'> +9.3949258e-05 </wgt>
<wgt id='morphing_basis_vector_3'> +1.4248951e-04 </wgt>
<wgt id='morphing_basis_vector_4'> +9.1146032e-05 </wgt>
<wgt id='morphing_basis_vector_5'> +1.5092042e-04 </wgt>
</rwgt>
</event>
<event>
 4      1 +1.5130300e-07 1.68504600e+03 7.81860800e-03 8.21482300e-02
        2 -1    0    0  501    0 +0.0000000000e+00 +0.0000000000e+00 +1.5202020657e+03 1.5202020657e+03 0.0000000000e+00 0.0000e+00 -1.0000e+00
       -2 -1    0    0    0  501 -0.0000000000e+00 -0.0000000000e+00 -4.6694109970e+02 4.6694109970e+02 0.0000000000e+00 0.0000e+00 1.0000e+00
      -13  1    1    2    0    0 -1.7108561017e+02 +8.1375474619e+02 +3.6676171146e+02 9.0883509282e+02 0.0000000000e+00 0.0000e+00 1.0000e+00
       13  1    1    2    0    0 +1.7108561017e+02 -8.1375474619e+02 +6.8649925458e+02 1.0783080726e+03 0.0000000000e+00 0.0000e+00 -1.0000e+00
<mgrwt>
<rscale>  0 0.16850458E+04</rscale>
<asrwt>0</asrwt>
<pdfrwt beam="1">  1        2 0.23387724E+00 0.16850458E+04</pdfrwt>
<pdfrwt beam="2">  1       -2 0.71837093E-01 0.16850458E+04</pdfrwt>
<totfact> 0.26590465E+01</totfact>
</mgrwt>
<rwgt>
<wgt id='morphing_basis_vector_1'> +1.7721601e-04 </wgt>
<wgt id='morphing_basis_vector_2'> +1.2484389e-04 </wgt>
<wgt id='morphing_basis_vector_3'> +1.8745517e-04 </wgt>
<wgt id='morphing_basis_vector_4'> +1.1860994e-04 </wgt>
<wgt id='morphing_basis_vector_5'> +1.9894062e-04 </wgt>
</rwgt>
</event>
<event>
 4      1 +1.5130300e-07 1.57187000e+03 7.81860800e-03 8.27438900e-02
        2 -1    0    0  501    0 +0.0000000000e+00 +0.0000000000e+00 +1.2316223000e+03 1.2316223000e+03 0.0000000000e+00 0.0000e+00 1.0000e+00
       -2 -1    0    0    0  501 -0.0000000000e+00 -0.0000000000e+00 -5.0152839501e+02 5.0152839501e+02 0.0000000000e+00 0.0000e+00 -1.0000e+00
      -13  1    1    2    0    0 +3.0793253600e+02 -3.3353854556e+02 -3.4236059543e+02 5.6857821398e+02 0.0000000000e+00 0.0000e+00 -1.0000e+00
       13  1    1    2    0    0 -3.0793253600e+02 +3.3353854556e+02 +1.0724545004e+03 1.1645724810e+03 0.0000000000e+00 0.0000e+00 1.0000e+00
<mgrwt>
<rscale>  0 0.15718697E+04</rscale>
<asrwt>0</asrwt>
<pdfrwt beam="1">  1        2 0.18948035E+00 0.15718697E+04</pdfrwt>
<pdfrwt beam="2">  1       -2 0.77158215E-01 0.15718697E+04</pdfrwt>
<totfact> 0.33454114E+01</totfact>
</mgrwt>
<rwgt>
<wgt id='morphing_basis_vector_1'> +1.3272624e-04 </wgt>
<wgt id='morphing_basis_vector_2'> +8.7202860e-05 </wgt>
<wgt id='morphing_basis_vector_3'> +1.3850722e-04 </wgt>
<wgt id='morphing_basis_vector_4'> +9.3991376e-05 </wgt>
<wgt id='morphing_basis_vector_5'> +1.4973208e-04 </wgt>
</rwgt>
</event>
<event>
 4      1 +1.5130300e-07 1.64856000e+03 7.81860800e-03 8.23348800e-02
        2 -1    0    0  501    0 +0.0000000000e+00 +0.0000000000e+00 +1.8523285695e+03 1.8523285695e+03 0.0000000000e+00 0.0000e+00 -1.0000e+00
       -2 -1    0    0    0  501 -0.0000000000e+00 -0.0000000000e+00 -3.6680165477e+02 3.6680165477e+02 0.0000000000e+00 0.0000e+00 1.0000e+00
      -13  1    1    2    0    0 -2.6543718030e+02 +7.2542870421e+02 +1.1299486954e+03 1.3687540889e+03 0.0000000000e+00 0.0000e+00 -1.0000e+00
       13  1    1    2    0    0 +2.6543718030e+02 -7.2542870421e+02 +3.5557821932e+02 8.5037613538e+02 0.0000000000e+00 0.0000e+00 1.0000e+00
<mgrwt>
<rscale>  0 0.16485596E+04</rscale>
<asrwt>0</asrwt>
<pdfrwt beam="1">  1        2 0.28497362E+00 0.16485596E+04</pdfrwt>
<pdfrwt beam="2">  1       -2 0.56431025E-01 0.16485596E+04</pdfrwt>
<totfact> 0.28834795E+01</totfact>
</mgrwt>
<rwgt>
<wgt id='morphing_basis_vector_1'> +1.7842122e-04 </wgt>
<wgt id='morphing_basis_vector_2'> +1.6105998e-04 </wgt>
<wgt id='morphing_basis_vector_3'> +1.9313370e-04 </wgt>
<wgt id='morphing_basis_vector_4'> +7.8442842e-05 </wgt>
<wgt id='morphing_basis_vector_5'> +1.7951864e-04 </wgt>
</rwgt>
</event>
<event>
 4      1 +1.5130300e-07 1.60754900e+03 7.81860800e-03 8.25506900e-02
        2 -1    0    0  501    0 +0.0000000000e+00 +0.0000000000e+00 +2.0930305569e+03 2.0930305569e+03 0.0000000000e+00 0.0000e+00 -1.0000e+00
       -2 -1    0    0    0  501 -0.0000000000e+00 -0.0000000000e+00 -3.0866873288e+02 3.0866873288e+02 0.0000000000e+00 0.0000e+00 1.0000e+00
      -13  1    1    2    0    0 -3.0048010673e+02 -3.5579668987e+02 -8.6567306211e+01 4.7368077601e+02 0.0000000000e+00 0.0000e+00 1.0000e+00
       13  1    1    2    0    0 +3.0048010673e+02 +3.5579668987e+02 +1.8709291302e+03 1.9280185138e+03 0.0000000000e+00 0.0000e+00 -1.0000e+00
<mgrwt>
<rscale>  0 0.16075486E+04</rscale>
<asrwt>0</asrwt>
<pdfrwt beam="1">  1        2 0.32200469E+00 0.16075486E+04</pdfrwt>
<pdfrwt beam="2">  1       -2 0.47487499E-01 0.16075486E+04</pdfrwt>
<totfact> 0.29846479E+01</totfact>
</mgrwt>
<rwgt>
<wgt id='morphing_basis_vector_1'> +1.4478299e-04 </wgt>
<wgt id='morphing_basis_vector_2'> +9.5277335e-05 </wgt>
<wgt id='morphing_basis_vector_3'> +1.5147693e-04 </wgt>
<wgt id='morphing_basis_vector_4'> +1.0310476e-04 </wgt>
<wgt id='morphing_basis_vector_5'> +1.6427213e-04 </wgt>
</rwgt>
</event>
<event>
 4      1 +1.5130300e-07 1.63579500e+03 7.81860800e-03 8.24013500e-02
        2 -1    0    0  501    0 +0.0000000000e+00 +0.0000000000e+00 +7.3026079856e+02 7.3026079856e+02 0.0000000000e+00 0.0000e+00 1.0000e+00
       -2 -1    0    0    0  501 -0.0000000000e+00 -0.0000000000e+00 -9.1605121223e+02 9.1605121223e+02 0.0000000000e+00 0.0000e+00 -1.0000e+00
      -13  1    1    2    0    0 +2.3835508088e+02 -2.6860802635e+02 -8.3246181504e+02 9.0661794042e+02 0.0000000000e+00 0.0000e+00 -1.0000e+00
       13  1    1    2    0    0 -2.3835508088e+02 +2.6860802635e+02 +6.4667140136e+02 7.3969407037e+02 0.0000000000e+00 0.0000e+00 1.0000e+00
<mgrwt>
<rscale>  0 0.16357950E+04</rscale>
<asrwt>0</asrwt>
<pdfrwt beam="1">  1        2 0.11234782E+00 0.16357950E+04</pdfrwt>
<pdfrwt beam="2">  1       -2 0.14093095E+00 0.16357950E+04</pdfrwt>
<totfact> 0.15666636E+01</totfact>
</mgrwt>
<rwgt>
<wgt id='morphing_basis_vector_1'> +1.5485483e-04 </wgt>
<wgt id='morphing_basis_vector_2'> +1.0191761e-04 </wgt>
<wgt id='morphing_basis_vector_3'> +1.6231036e-04 </wgt>
<wgt id='morphing_basis_vector_4'> +1.1086384e-04 </wgt>
<wgt id='morphing_basis_vector_5'> +1.7651331e-04 </wgt>
</rwgt>
</event>
<event>
 4      1 +1.5130300e-07 1.80225500e+03 7.81860800e-03 8.15798700e-02
        2 -1    0    0  501    0 +0.0000000000e+00 +0.0000000000e+00 +3.8911166293e+03 3.8911166293e+03 0.0000000000e+00 0.0000e+00 -1.0000e+00
       -2 -1    0    0    0  501 -0.0000000000e+00 -0.0000000000e+00 -2.0868836595e+02 2.0868836595e+02 0.0000000000e+00 0.0000e+00 1.0000e+00
      -13  1    1    2    0    0 -6.1372938085e+02 +5.8604037315e+02 +2.5309148967e+03 2.6693889350e+03 0.0000000000e+00 0.0000e+00 -1.0000e+00
       13  1    1    2    0    0 +6.1372938085e+02 -5.8604037315e+02 +1.1515133667e+03 1.4304160603e+03 0.0000000000e+00 0.0000e+00 1.0000e+00
<mgrwt>
<rscale>  0 0.18022550E+04</rscale>
<asrwt>0</asrwt>
<pdfrwt beam="1">  1        2 0.59863327E+00 0.18022550E+04</pdfrwt>
<pdfrwt beam="2">  1       -2 0.32105905E-01 0.18022550E+04</pdfrwt>
<totfact> 0.39413110E+00</totfact>
</mgrwt>
<rwgt>
<wgt id='morphing_basis_vector_1'> +2.5143399e-04 </wgt>
<wgt id='morphing_basis_vector_2'> +2.2560254e-04 </wgt>
<wgt id='morphing_basis_vector_3'> +2.7513470e-04 </wgt>
<wgt id='morphing_basis_vector_4'> +1.1496752e-04 </wgt>
<wgt id='morphing_basis_vector_5'> +2.5900710e-04 </wgt>
</rwgt>
</event>
<event>
 4      1 +1.5130300e-07 1.56206200e+03 7.81860800e-03 8.27979300e-02
        2 -1    0    0  501    0 +0.0000000000e+00 +0.0000000000e+00 +1.3795536271e+03 1.3795536271e+03 0.0000000000e+00 0.0000e+00 -1.0000e+00
       -2 -1    0    0    0  501 -0.0000000000e+00 -0.0000000000e+00 -4.4217898373e+02 4.4217898373e+02 0.0000000000e+00 0.0000e+00 1.0000e+00
      -13  1    1    2    0    0 +2.8006820981e+02 -6.1238571858e+02 +7.2422897737e+00 6.7342922510e+02 0.0000000000e+00 0.0000e+00 1.0000e+00
       13  1    1    2    0    0 -2.8006820981e+02 +6.1238571858e+02 +9.3013235355e+02 1.1483033857e+03 0.0000000000e+00 0.0000e+00 -1.0000e+00
<mgrwt>
<rscale>  0 0.15620623E+04</rscale>
<asrwt>0</asrwt>
<pdfrwt beam="1">  1        2 0.21223902E+00 0.15620623E+04</pdfrwt>
<pdfrwt beam="2">  1       -2 0.68027536E-01 0.15620623E+04</pdfrwt>
<totfact> 0.36222711E+01</totfact>
</mgrwt>
<rwgt>
<wgt id='morphing_basis_vector_1'> +1.3005071e-04 </wgt>
<wgt id='morphing_basis_vector_2'> +8.6568405e-05 </wgt>
<wgt id='morphing_basis_vector_3'> +1.3576185e-04 </wgt>
<wgt id='morphing_basis_vector_4'> +9.0649160e-05 </wgt>
<wgt id='morphing_basis_vector_5'> +1.4583753e-04 </wgt>
</rwgt>
</event>
<event>
 4      1 +1.5130300e-07 1.56653000e+03 7.81860800e-03 8.27732600e-02
        2 -1    0    0  501    0 +0.0000000000e+00 +0.0000000000e+00 +2.4036992031e+03 2.4036992031e+03 0.0000000000e+00 0.0000e+00 -1.0000e+00
       -2 -1    0    0    0  501 -0.0000000000e+00 -0.0000000000e+00 -2.5523326239e+02 2.5523326239e+02 0.0000000000e+00 0.0000e+00 1.0000e+00
      -13  1    1    2    0    0 +6.3231514335e+02 +6.1280557779e+01 +2.9655108795e+02 7.0108508402e+02 0.0000000000e+00 0.0000e+00 1.0000e+00
       13  1    1    2    0    0 -6.3231514335e+02 -6.1280557779e+01 +1.8519148527e+03 1.9578473815e+03 0.0000000000e+00 0.0000e+00 -1.0000e+00
<mgrwt>
<rscale>  0 0.15665299E+04</rscale>
<asrwt>0</asrwt>
<pdfrwt beam="1">  1        2 0.36979986E+00 0.15665299E+04</pdfrwt>
<pdfrwt beam="2">  1       -2 0.39266657E-01 0.15665299E+04</pdfrwt>
<totfact> 0.28499484E+01</totfact>
</mgrwt>
<rwgt>
<wgt id='morphing_basis_vector_1'> +1.3129542e-04 </wgt>
<wgt id='morphing_basis_vector_2'> +8.6951107e-05 </wgt>
<wgt id='morphing_basis_vector_3'> +1.3704930e-04 </wgt>
<wgt id='morphing_basis_vector_4'> +9.2102979e-05 </wgt>
<wgt id='morphing_basis_vector_5'> +1.4759779e-04 </wgt>
</rwgt>
</event>
<event>
 4      1 +1.5130300e-07 1.57382900e+03 7.81860800e-03 8.27331500e-02
        2 -1    0    0  501    0 +0.0000000000e+00 +0.0000000000e+00 +5.3636087779e+02 5.3636087779e+02 0.0000000000e+00 0.0000e+00 1.0000e+00
       -2 -1    0    0    0  501 -0.0000000000e+00 -0.0000000000e+00 -1.1545112761e+03 1.1545112761e+03 0.0000000000e+00 0.0000e+00 -1.0000e+00
      -13  1    1    2    0    0 +1.9981697109e+02 -4.8449039943e+02 -9.3973656635e+02 1.0759937654e+03 0.0000000000e+00 0.0000e+00 -1.0000e+00
       13  1    1    2    0    0 -1.9981697109e+02 +4.8449039943e+02 +3.2158616808e+02 6.1487838844e+02 0.0000000000e+00 0.0000e+00 1.0000e+00
<mgrwt>
<rscale>  0 0.15738293E+04</rscale>
<asrwt>0</asrwt>
<pdfrwt beam="1">  1        2 0.82517058E-01 0.15738293E+04</pdfrwt>
<pdfrwt beam="2">  1       -2 0.17761712E+00 0.15738293E+04</pdfrwt>
<totfact> 0.11521293E+01</totfact>
</mgrwt>
<rwgt>
<wgt id='morphing_basis_vector_1'> +1.3342662e-04 </wgt>
<wgt id='morphing_basis_vector_2'> +8.7807071e-05 </wgt>
<wgt id='morphing_basis_vector_3'> +1.3927566e-04 </wgt>
<wgt id='morphing_basis_vector_4'> +9.4364835e-05 </wgt>
<wgt id='morphing_basis_vector_5'> +1.5049657e-04 </wgt>
</rwgt>
</event>
<event>
 4      1 +1.5130300e-07 1.59918600e+03 7.81860800e-03 8.25955100e-02
        2 -1    0    0  501    0 +0.0000000000e+00 +0.0000000000e+00 +2.3763705898e+03 2.3763705898e+03 0.0000000000e+00 0.0000e+00 -1.0000e+00
       -2 -1    0    0    0  501 -0.0000000000e+00 -0.0000000000e+00 -2.6904426165e+02 2.6904426165e+02 0.0000000000e+00 0.0000e+00 1.0000e+00
      -13  1    1    2    0    0 -2.4089501716e+02 -3.8513132443e+02 -3.4853142364e+01 4.5559992086e+02 0.0000000000e+00 0.0000e+00 1.0000e+00
       13  1    1    2    0    0 +2.4089501716e+02 +3.8513132443e+02 +2.1421794705e+03 2.1898149306e+03 0.0000000000e+00 0.0000e+00 -1.0000e+00
<mgrwt>
<rscale>  0 0.15991859E+04</rscale>
<asrwt>0</asrwt>
<pdfrwt beam="1">  1        2 0.36559546E+00 0.15991859E+04</pdfrwt>
<pdfrwt beam="2">  1       -2 0.41391426E-01 0.15991859E+04</pdfrwt>
<totfact> 0.26711470E+01</totfact>
</mgrwt>
<rwgt>
<wgt id='morphing_basis_vector_1'> +1.4188024e-04 </wgt>
<wgt id='morphing_basis_vector_2'> +9.3320661e-05 </wgt>
<wgt id='morphing_basis_vector_3'> +1.4835139e-04 </wgt>
<wgt id='morphing_basis_vector_4'> +1.0092220e-04 </wgt>
<wgt id='morphing_basis_vector_5'> +1.6077480e-04 </wgt>
</rwgt>
</event>
<event>
 4      1 +1.5130300e-07 1.68652100e+03 7.81860800e-03 8.21407900e-02
        2 -1    0    0  501    0 +0.0000000000e+00 +0.0000000000e+00 +1.0872820685e+03 1.0872820685e+03 0.0000000000e+00 0.0000e+00 -1.0000e+00
       -2 -1    0    0    0  501 -0.0000000000e+00 -0.0000000000e+00 -6.5400521998e+02 6.5400521998e+02 0.0000000000e+00 0.0000e+00 1.0000e+00
      -13  1    1    2    0    0 +6.0271990291e+01 -8.3938196919e+02 +1.6110187979e+02 8.5682473043e+02 0.0000000000e+00 0.0000e+00 1.0000e+00
       13  1    1    2    0    0 -6.0271990291e+01 +8.3938196919e+02 +2.7217496874e+02 8.8446255806e+02 0.0000000000e+00 0.0000e+00 -1.0000e+00
<mgrwt>
<rscale>  0 0.16865209E+04</rscale>
<asrwt>0</asrwt>
<pdfrwt beam="1">  1        2 0.16727416E+00 0.16865209E+04</pdfrwt>
<pdfrwt beam="2">  1       -2 0.10061619E+00 0.16865209E+04</pdfrwt>
<totfact> 0.21762236E+01</totfact>
</mgrwt>
<rwgt>
<wgt id='morphing_basis_vector_1'> +1.7936979e-04 </wgt>
<wgt id='morphing_basis_vector_2'> +1.2988132e-04 </wgt>
<wgt id='morphing_basis_vector_3'> +1.9024817e-04 </wgt>
<wgt id='morphing_basis_vector_4'> +1.1605463e-04 </wgt>
<wgt id='morphing_basis_vector_5'> +1.9942998e-04 </wgt>
</rwgt>
</event>
<event>
 4      1 +1.5130300e-07 1.65929000e+03 7.81860800e-03 8.22794800e-02
        2 -1    0    0  501    0 +0.0000000000e+00 +0.0000000000e+00 +1.2265062897e+03 1.2265062897e+03 0.0000000000e+00 0.0000e+00 1.0000e+00
       -2 -1    0    0    0  501 -0.0000000000e+00 -0.0000000000e+00 -5.6119634275e+02 5.6119634275e+02 0.0000000000e+00 0.0000e+00 -1.0000e+00
      -13  1    1    2    0    0 +1.0410485948e+02 +3.2102224702e+02 -4.8390276661e+02 5.8996185671e+02 0.0000000000e+00 0.0000e+00 -1.0000e+00
       13  1    1    2    0    0 -1.0410485948e+02 -3.2102224702e+02 +1.1492127135e+03 1.1977407757e+03 0.0000000000e+00 0.0000e+00 1.0000e+00
<mgrwt>
<rscale>  0 0.16592900E+04</rscale>
<asrwt>0</asrwt>
<pdfrwt beam="1">  1        2 0.18869327E+00 0.16592900E+04</pdfrwt>
<pdfrwt beam="2">  1       -2 0.86337899E-01 0.16592900E+04</pdfrwt>
<totfact> 0.25886989E+01</totfact>
</mgrwt>
<rwgt>
<wgt id='morphing_basis_vector_1'> +1.6366418e-04 </wgt>
<wgt id='morphing_basis_vector_2'> +1.0780500e-04 </wgt>
<wgt id='morphing_basis_vector_3'> +1.7180321e-04 </wgt>
<wgt id='morphing_basis_vector_4'> +1.1757529e-04 </wgt>
<wgt id='morphing_basis_vector_5'> +1.8719583e-04 </wgt>
</rwgt>
</event>
<event>
 4      1 +1.5130300e-07 1.56462200e+03 7.81860800e-03 8.27837900e-02
        2 -1    0    0  501    0 +0.0000000000e+00 +0.0000000000e+00 +4.0419248301e+02 4.0419248301e+02 0.0000000000e+00 0.0000e+00 -1.0000e+00
       -2 -1    0    0    0  501 -0.0000000000e+00 -0.0000000000e+00 -1.5141553270e+03 1.5141553270e+03 0.0000000000e+00 0.0000e+00 1.0000e+00
      -13  1    1    2    0    0 -3.2520702839e+02 +6.4006560016e+02 -9.3598717553e+02 1.1796251848e+03 0.0000000000e+00 0.0000e+00 1.0000e+00
       13  1    1    2    0    0 +3.2520702839e+02 -6.4006560016e+02 -1.7397566848e+02 7.3872262525e+02 0.0000000000e+00 0.0000e+00 -1.0000e+00
<mgrwt>
<rscale>  0 0.15646216E+04</rscale>
<asrwt>0</asrwt>
<pdfrwt beam="1">  1        2 0.62183458E-01 0.15646216E+04</pdfrwt>
<pdfrwt beam="2">  1       -2 0.23294698E+00 0.15646216E+04</pdfrwt>
<totfact> 0.62974367E+00</totfact>
</mgrwt>
<rwgt>
<wgt id='morphing_basis_vector_1'> +1.3127909e-04 </wgt>
<wgt id='morphing_basis_vector_2'> +8.8325326e-05 </wgt>
<wgt id='morphing_basis_vector_3'> +1.3718817e-04 </wgt>
<wgt id='morphing_basis_vector_4'> +9.0504870e-05 </wgt>
<wgt id='morphing_basis_vector_5'> +1.4677080e-04 </wgt>
</rwgt>
</event>
<event>
 4      1 +1.5130300e-07 1.68160400e+03 7.81860800e-03 8.21656300e-02
        2 -1    0    0  501    0 +0.0000000000e+00 +0.0000000000e+00 +1.9414052476e+03 1.9414052476e+03 0.0000000000e+00 0.0000e+00 -1.0000e+00
       -2 -1    0    0    0  501 -0.0000000000e+00 -0.0000000000e+00 -3.6414254096e+02 3.6414254096e+02 0.0000000000e+00 0.0000e+00 1.0000e+00
      -13  1    1    2    0    0 +5.5281768574e+02 -6.2208578756e+02 +6.2439167809e+02 1.0404148636e+03 0.0000000000e+00 0.0000e+00 1.0000e+00
       13  1    1    2    0    0 -5.5281768574e+02 +6.2208578756e+02 +9.5287102851e+02 1.2651329249e+03 0.0000000000e+00 0.0000e+00 -1.0000e+00
<mgrwt>
<rscale>  0 0.16816043E+04</rscale>
<asrwt>0</asrwt>
<pdfrwt beam="1">  1        2 0.29867773E+00 0.16816043E+04</pdfrwt>
<pdfrwt beam="2">  1       -2 0.56021930E-01 0.16816043E+04</pdfrwt>
<totfact> 0.26021415E+01</totfact>
</mgrwt>
<rwgt>
<wgt id='morphing_basis_vector_1'> +1.7606747e-04 </wgt>
<wgt id='morphing_basis_vector_2'> +1.2459668e-04 </wgt>
<wgt id='morphing_basis_vector_3'> +1.8627967e-04 </wgt>
<wgt id='morphing_basis_vector_4'> +1.1712878e-04 </wgt>
<wgt id='morphing_basis_vector_5'> +1.9723693e-04 </wgt>
</rwgt>
</event>
<event>
 4      1 +1.5130300e-07 1.59373000e+03 7.81860800e-03 8.26249000e-02
        2 -1    0    0  501    0 +0.0000000000e+00 +0.0000000000e+00 +2.9727042575e+03 2.9727042575e+03 0.0000000000e+00 0.0000e+00 1.0000e+00
       -2 -1    0    0    0  501 -0.0000000000e+00 -0.0000000000e+00 -2.1360825048e+02 2.1360825048e+02 0.0000000000e+00 0.0000e+00 -1.0000e+00
      -13  1    1    2    0    0 +9.4948363241e+01 -7.3903969361e+02 +8.1477616058e+02 1.1041082611e+03 0.0000000000e+00 0.0000e+00 -1.0000e+00
       13  1    1    2    0    0 -9.4948363241e+01 +7.3903969361e+02 +1.9443198464e+03 2.0822042468e+03 0.0000000000e+00 0.0000e+00 1.0000e+00
<mgrwt>
<rscale>  0 0.15937304E+04</rscale>
<asrwt>0</asrwt>
<pdfrwt beam="1">  1        2 0.45733909E+00 0.15937304E+04</pdfrwt>
<pdfrwt beam="2">  1       -2 0.32862810E-01 0.15937304E+04</pdfrwt>
<totfact> 0.17645960E+01</totfact>
</mgrwt>
<rwgt>
<wgt id='morphing_basis_vector_1'> +1.4121346e-04 </wgt>
<wgt id='morphing_basis_vector_2'> +9.5640410e-05 </wgt>
<wgt id='morphing_basis_vector_3'> +1.4795877e-04 </wgt>
<wgt id='morphing_basis_vector_4'> +9.7234275e-05 </wgt>
<wgt id='morphing_basis_vector_5'> +1.5835108e-04 </wgt>
</rwgt>
</event>
<event>
 4      1 +1.5130300e-07 1.55297400e+03 7.81860800e-03 8.28483700e-02
        2 -1    0    0  501    0 +0.0000000000e+00 +0.0000000000e+00 +1.2874506081e+03 1.2874506081e+03 0.0000000000e+00 0.0000e+00 -1.0000e+00
       -2 -1    0    0    0  501 -0.0000000000e+00 -0.0000000000e+00 -4.6831465705e+02 4.6831465705e+02 0.0000000000e+00 0.0000e+00 1.0000e+00
      -13  1    1    2    0    0 -2.3131019561e+02 -7.4112968729e+02 +3.9552097009e+02 8.7132913286e+02 0.0000000000e+00 0.0000e+00 1.0000e+00
       13  1    1    2    0    0 +2.3131019561e+02 +7.4112968729e+02 +4.2361498091e+02 8.8443613225e+02 0.0000000000e+00 0.0000e+00 -1.0000e+00
<mgrwt>
<rscale>  0 0.15529739E+04</rscale>
<asrwt>0</asrwt>
<pdfrwt beam="1">  1        2 0.19806932E+00 0.15529739E+04</pdfrwt>
<pdfrwt beam="2">  1       -2 0.72048409E-01 0.15529739E+04</pdfrwt>
<totfact> 0.36168447E+01</totfact>
</mgrwt>
<rwgt>
<wgt id='morphing_basis_vector_1'> +1.3095345e-04 </wgt>
<wgt id='morphing_basis_vector_2'> +9.5933603e-05 </wgt>
<wgt id='morphing_basis_vector_3'> +1.3770448e-04 </wgt>
<wgt id='morphing_basis_vector_4'> +8.1319742e-05 </wgt>
<wgt id='morphing_basis_vector_5'> +1.4182391e-04 </wgt>
</rwgt>
</event>
<event>
 4      1 +1.5130300e-07 1.55830300e+03 7.81860800e-03 8.28187500e-02
        2 -1    0    0  501    0 +0.0000000000e+00 +0.0000000000e+00 +1.0424734746e+03 1.0424734746e+03 0.0000000000e+00 0.0000e+00 -1.0000e+00
       -2 -1    0    0    0  501 -0.0000000000e+00 -0.0000000000e+00 -5.8234271836e+02 5.8234271836e+02 0.0000000000e+00 0.0000e+00 1.0000e+00
      -13  1    1    2    0    0 +1.7187475966e+02 -1.5838518797e+02 -5.4492964721e+02 5.9293770431e+02 0.0000000000e+00 0.0000e+00 1.0000e+00
       13  1    1    2    0    0 -1.7187475966e+02 +1.5838518797e+02 +1.0050604035e+03 1.0318784887e+03 0.0000000000e+00 0.0000e+00 -1.0000e+00
<mgrwt>
<rscale>  0 0.15583027E+04</rscale>
<asrwt>0</asrwt>
<pdfrwt beam="1">  1        2 0.16038053E+00 0.15583027E+04</pdfrwt>
<pdfrwt beam="2">  1       -2 0.89591188E-01 0.15583027E+04</pdfrwt>
<totfact> 0.30831144E+01</totfact>
</mgrwt>
<rwgt>
<wgt id='morphing_basis_vector_1'> +1.2829778e-04 </wgt>
<wgt id='morphing_basis_vector_2'> +8.4124195e-05 </wgt>
<wgt id='morphing_basis_vector_3'> +1.3373507e-04 </wgt>
<wgt id='morphing_basis_vector_4'> +9.0781941e-05 </wgt>
<wgt id='morphing_basis_vector_5'> +1.4446917e-04 </wgt>
</rwgt>
</event>
<event>
 4      1 +1.5130300e-07 1.63266200e+03 7.81860800e-03 8.24177600e-02
        2 -1    0    0  501    0 +0.0000000000e+00 +0.0000000000e+00 +4.0052721620e+03 4.0052721620e+03 0.0000000000e+00 0.0000e+00 -1.0000e+00
       -2 -1    0    0    0  501 -0.0000000000e+00 -0.0000000000e+00 -1.6637976097e+02 1.6637976097e+02 0.0000000000e+00 0.0000e+00 1.0000e+00
      -13  1    1    2    0    0 -2.4528838816e+01 +7.9711820362e+02 +1.4739663160e+03 1.6758806029e+03 0.0000000000e+00 0.0000e+00 1.0000e+00
       13  1    1    2    0    0 +2.4528838816e+01 -7.9711820362e+02 +2.3649260850e+03 2.4957713200e+03 0.0000000000e+00 0.0000e+00 -1.0000e+00
<mgrwt>
<rscale>  0 0.16326619E+04</rscale>
<asrwt>0</asrwt>
<pdfrwt beam="1">  1        2 0.61619564E+00 0.16326619E+04</pdfrwt>
<pdfrwt beam="2">  1       -2 0.25596889E-01 0.16326619E+04</pdfrwt>
<totfact> 0.48127321E+00</totfact>
</mgrwt>
<rwgt>
<wgt id='morphing_basis_vector_1'> +1.5618303e-04 </wgt>
<wgt id='morphing_basis_vector_2'> +1.0851237e-04 </wgt>
<wgt id='morphing_basis_vector_3'> +1.6444264e-04 </wgt>
<wgt id='morphing_basis_vector_4'> +1.0526500e-04 </wgt>
<wgt id='morphing_basis_vector_5'> +1.7476519e-04 </wgt>
</rwgt>
</event>
<event>
 4      1 +1.5130300e-07 1.57558300e+03 7.81860800e-03 8.27235400e-02
        2 -1    0    0  501    0 +0.0000000000e+00 +0.0000000000e+00 +1.8845342669e+03 1.8845342669e+03 0.0000000000e+00 0.0000e+00 -1.0000e+00
       -2 -1    0    0    0  501 -0.0000000000e+00 -0.0000000000e+00 -3.2932028864e+02 3.2932028864e+02 0.0000000000e+00 0.0000e+00 1.0000e+00
      -13  1    1    2    0    0 +3.2585447715e+02 -5.4952675912e+02 +1.2995625089e+02 6.5195814775e+02 0.0000000000e+00 0.0000e+00 1.0000e+00
       13  1    1    2    0    0 -3.2585447715e+02 +5.4952675912e+02 +1.4252577274e+03 1.5618964078e+03 0.0000000000e+00 0.0000e+00 -1.0000e+00
<mgrwt>
<rscale>  0 0.15755829E+04</rscale>
<asrwt>0</asrwt>
<pdfrwt beam="1">  1        2 0.28992834E+00 0.15755829E+04</pdfrwt>
<pdfrwt beam="2">  1       -2 0.50664661E-01 0.15755829E+04</pdfrwt>
<totfact> 0.34524239E+01</totfact>
</mgrwt>
<rwgt>
<wgt id='morphing_basis_vector_1'> +1.3425653e-04 </wgt>
<wgt id='morphing_basis_vector_2'> +8.8947965e-05 </wgt>
<wgt id='morphing_basis_vector_3'> +1.4023513e-04 </wgt>
<wgt id='morphing_basis_vector_4'> +9.4319909e-05 </wgt>
<wgt id='morphing_basis_vector_5'> +1.5115454e-04 </wgt>
</rwgt>
</event>
<event>
 4      1 +1.5130300e-07 1.64193600e+03 7.81860800e-03 8.23692900e-02
        2 -1    0    0  501    0 +0.0000000000e+00 +0.0000000000e+00 +1.8858548894e+03 1.8858548894e+03 0.0000000000e+00 0.0000e+00 1.0000e+00
       -2 -1    0    0    0  501 -0.0000000000e+00 -0.0000000000e+00 -3.5739160321e+02 3.5739160321e+02 0.0000000000e+00 0.0000e+00 -1.0000e+00
      -13  1    1    2    0    0 +5.5001462749e+02 -2.9687480459e+02 +3.6999482711e+01 6.2611476726e+02 0.0000000000e+00 0.0000e+00 -1.0000e+00
       13  1    1    2    0    0 -5.5001462749e+02 +2.9687480459e+02 +1.4914638035e+03 1.6171317253e+03 0.0000000000e+00 0.0000e+00 1.0000e+00
<mgrwt>
<rscale>  0 0.16419363E+04</rscale>
<asrwt>0</asrwt>
<pdfrwt beam="1">  1        2 0.29013152E+00 0.16419363E+04</pdfrwt>
<pdfrwt beam="2">  1       -2 0.54983324E-01 0.16419363E+04</pdfrwt>
<totfact> 0.29123203E+01</totfact>
</mgrwt>
<rwgt>
<wgt id='morphing_basis_vector_1'> +1.5739265e-04 </wgt>
<wgt id='morphing_basis_vector_2'> +1.0423750e-04 </wgt>
<wgt id='morphing_basis_vector_3'> +1.6512185e-04 </wgt>
<wgt id='morphing_basis_vector_4'> +1.1207228e-04 </wgt>
<wgt id='morphing_basis_vector_5'> +1.7922136e-04 </wgt>
</rwgt>
</event>
<event>
 4      1 +1.5130300e-07 1.83497000e+03 7.81860800e-03 8.14291000e-02
        2 -1    0    0  501    0 +0.0000000000e+00 +0.0000000000e+00 +1.4701272681e+03 1.4701272681e+03 0.0000000000e+00 0.0000e+00 1.0000e+00
       -2 -1    0    0    0  501 -0.0000000000e+00 -0.0000000000e+00 -5.7258894481e+02 5.7258894481e+02 0.0000000000e+00 0.0000e+00 -1.0000e+00
      -13  1    1    2    0    0 +1.4470324045e+02 +8.3829470791e+02 +6.6202658720e+01 8.5326422468e+02 0.0000000000e+00 0.0000e+00 -1.0000e+00
       13  1    1    2    0    0 -1.4470324045e+02 -8.3829470791e+02 +8.3133566452e+02 1.1894519882e+03 0.0000000000e+00 0.0000e+00 1.0000e+00
<mgrwt>
<rscale>  0 0.18349699E+04</rscale>
<asrwt>0</asrwt>
<pdfrwt beam="1">  1        2 0.22617342E+00 0.18349699E+04</pdfrwt>
<pdfrwt beam="2">  1       -2 0.88090608E-01 0.18349699E+04</pdfrwt>
<totfact> 0.17684923E+01</totfact>
</mgrwt>
<rwgt>
<wgt id='morphing_basis_vector_1'> +2.4416005e-04 </wgt>
<wgt id='morphing_basis_vector_2'> +1.6633040e-04 </wgt>
<wgt id='morphing_basis_vector_3'> +2.5949451e-04 </wgt>
<wgt id='morphing_basis_vector_4'> +1.7382721e-04 </wgt>
<wgt id='morphing_basis_vector_5'> +2.8270324e-04 </wgt>
</rwgt>
</event>
<event>
 4      1 +1.5130300e-07 1.79807900e+03 7.81860800e-03 8.15993600e-02
        2 -1    0    0  501    0 +0.0000000000e+00 +0.0000000000e+00 +7.4597672040e+02 7.4597672040e+02 0.0000000000e+00 0.0000e+00 -1.0000e+00
       -2 -1    0    0    0  501 -0.0000000000e+00 -0.0000000000e+00 -1.0835085006e+03 1.0835085006e+03 0.0000000000e+00 0.0000e+00 1.0000e+00
      -13  1    1    2    0    0 +2.3743843596e+02 -5.2788292264e+02 -8.6870202387e+02 1.0438776735e+03 0.0000000000e+00 0.0000e+00 1.0000e+00
       13  1    1    2    0    0 -2.3743843596e+02 +5.2788292264e+02 +5.3117024371e+02 7.8560754750e+02 0.0000000000e+00 0.0000e+00 -1.0000e+00
<mgrwt>
<rscale>  0 0.17980791E+04</rscale>
<asrwt>0</asrwt>
<pdfrwt beam="1">  1        2 0.11476565E+00 0.17980791E+04</pdfrwt>
<pdfrwt beam="2">  1       -2 0.16669362E+00 0.17980791E+04</pdfrwt>
<totfact> 0.92615432E+00</totfact>
</mgrwt>
<rwgt>
<wgt id='morphing_basis_vector_1'> +2.2388108e-04 </wgt>
<wgt id='morphing_basis_vector_2'> +1.4852156e-04 </wgt>
<wgt id='morphing_basis_vector_3'> +2.3691580e-04 </wgt>
<wgt id='morphing_basis_vector_4'> +1.6322529e-04 </wgt>
<wgt id='morphing_basis_vector_5'> +2.6038055e-04 </wgt>
</rwgt>
</event>
<event>
 4      1 +1.5130300e-07 1.63076400e+03 7.81860800e-03 8.24277200e-02
        2 -1    0    0  501    0 +0.0000000000e+00 +0.0000000000e+00 +1.2224376157e+03 1.2224376157e+03 0.0000000000e+00 0.0000e+00 1.0000e+00
       -2 -1    0    0    0  501 -0.0000000000e+00 -0.0000000000e+00 -5.4387073012e+02 5.4387073012e+02 0.0000000000e+00 0.0000e+00 -1.0000e+00
      -13  1    1    2    0    0 -6.2638354585e+02 +4.5787263816e+02 +6.7759324762e+01 7.7884210555e+02 0.0000000000e+00 0.0000e+00 1.0000e+00
       13  1    1    2    0    0 +6.2638354585e+02 -4.5787263816e+02 +6.1080756080e+02 9.8746624024e+02 0.0000000000e+00 0.0000e+00 -1.0000e+00
<mgrwt>
<rscale>  0 0.16307643E+04</rscale>
<asrwt>0</asrwt>
<pdfrwt beam="1">  1        2 0.18806732E+00 0.16307643E+04</pdfrwt>
<pdfrwt beam="2">  1       -2 0.83672420E-01 0.16307643E+04</pdfrwt>
<totfact> 0.28046639E+01</totfact>
</mgrwt>
<rwgt>
<wgt id='morphing_basis_vector_1'> +1.5468060e-04 </wgt>
<wgt id='morphing_basis_vector_2'> +1.0563900e-04 </wgt>
<wgt id='morphing_basis_vector_3'> +1.6259347e-04 </wgt>
<wgt id='morphing_basis_vector_4'> +1.0628787e-04 </wgt>
<wgt id='morphing_basis_vector_5'> +1.7404519e-04 </wgt>
</rwgt>
</event>
<event>
 4      1 +1.5130300e-07 1.83958200e+03 7.81860800e-03 8.14081100e-02
        2 -1    0    0  501    0 +0.0000000000e+00 +0.0000000000e+00 +3.0117538802e+03 3.0117538802e+03 0.0000000000e+00 0.0000e+00 -1.0000e+00
       -2 -1    0    0    0  501 -0.0000000000e+00 -0.0000000000e+00 -2.8090465178e+02 2.8090465178e+02 0.0000000000e+00 0.0000e+00 1.0000e+00
      -13  1    1    2    0    0 +6.8212822521e+02 -1.7723969333e+02 +3.0756373088e+02 7.6896571645e+02 0.0000000000e+00 0.0000e+00 1.0000e+00
       13  1    1    2    0    0 -6.8212822521e+02 +1.7723969333e+02 +2.4232854976e+03 2.5236928155e+03 0.0000000000e+00 0.0000e+00 -1.0000e+00
<mgrwt>
<rscale>  0 0.18395822E+04</rscale>
<asrwt>0</asrwt>
<pdfrwt beam="1">  1        2 0.46334673E+00 0.18395822E+04</pdfrwt>
<pdfrwt beam="2">  1       -2 0.43216102E-01 0.18395822E+04</pdfrwt>
<totfact> 0.98040761E+00</totfact>
</mgrwt>
<rwgt>
<wgt id='morphing_basis_vector_1'> +2.4502611e-04 </wgt>
<wgt id='morphing_basis_vector_2'> +1.6342649e-04 </wgt>
<wgt id='morphing_basis_vector_3'> +2.5992278e-04 </wgt>
<wgt id='morphing_basis_vector_4'> +1.7863898e-04 </wgt>
<wgt id='morphing_basis_vector_5'> +2.8585972e-04 </wgt>
</rwgt>
</event>
<event>
 4      1 +1.5130300e-07 1.85223900e+03 7.81860800e-03 8.13508400e-02
        2 -1    0    0  501    0 +0.0000000000e+00 +0.0000000000e+00 +1.0044580339e+03 1.0044580339e+03 0.0000000000e+00 0.0000e+00 -1.0000e+00
       -2 -1    0    0    0  501 -0.0000000000e+00 -0.0000000000e+00 -8.5389089906e+02 8.5389089906e+02 0.0000000000e+00 0.0000e+00 1.0000e+00
      -13  1    1    2    0    0 +6.1804828818e+02 +2.8241011720e+02 -5.5604430531e+02 8.7802302378e+02 0.0000000000e+00 0.0000e+00 1.0000e+00
       13  1    1    2    0    0 -6.1804828818e+02 -2.8241011720e+02 +7.0661144013e+02 9.8032590915e+02 0.0000000000e+00 0.0000e+00 -1.0000e+00
<mgrwt>
<rscale>  0 0.18522393E+04</rscale>
<asrwt>0</asrwt>
<pdfrwt beam="1">  1        2 0.15453201E+00 0.18522393E+04</pdfrwt>
<pdfrwt beam="2">  1       -2 0.13136783E+00 0.18522393E+04</pdfrwt>
<totfact> 0.12208546E+01</totfact>
</mgrwt>
<rwgt>
<wgt id='morphing_basis_vector_1'> +2.5156623e-04 </wgt>
<wgt id='morphing_basis_vector_2'> +1.6759711e-04 </wgt>
<wgt id='morphing_basis_vector_3'> +2.6697920e-04 </wgt>
<wgt id='morphing_basis_vector_4'> +1.8393794e-04 </wgt>
<wgt id='morphing_basis_vector_5'> +2.9401680e-04 </wgt>
</rwgt>
</event>
<event>
 4      1 +1.5130300e-07 1.56908400e+03 7.81860800e-03 8.27592000e-02
        2 -1    0    0  501    0 +0.0000000000e+00 +0.0000000000e+00 +1.7381529435e+03 1.7381529435e+03 0.0000000000e+00 0.0000e+00 -1.0000e+00
       -2 -1    0    0    0  501 -0.0000000000e+00 -0.0000000000e+00 -3.5411497408e+02 3.5411497408e+02 0.0000000000e+00 0.0000e+00 1.0000e+00
      -13  1    1    2    0    0 +3.8594243968e+02 +4.5702712802e+02 +1.5138426502e+01 5.9837658247e+02 0.0000000000e+00 0.0000e+00 1.0000e+00
       13  1    1    2    0    0 -3.8594243968e+02 -4.5702712802e+02 +1.3688995429e+03 1.4938913351e+03 0.0000000000e+00 0.0000e+00 -1.0000e+00
<mgrwt>
<rscale>  0 0.15690838E+04</rscale>
<asrwt>0</asrwt>
<pdfrwt beam="1">  1        2 0.26740814E+00 0.15690838E+04</pdfrwt>
<pdfrwt beam="2">  1       -2 0.54479228E-01 0.15690838E+04</pdfrwt>
<totfact> 0.36071509E+01</totfact>
</mgrwt>
<rwgt>
<wgt id='morphing_basis_vector_1'> +1.3200681e-04 </wgt>
<wgt id='morphing_basis_vector_2'> +8.7157031e-05 </wgt>
<wgt id='morphing_basis_vector_3'> +1.3778346e-04 </wgt>
<wgt id='morphing_basis_vector_4'> +9.2949089e-05 </wgt>
<wgt id='morphing_basis_vector_5'> +1.4861168e-04 </wgt>
</rwgt>
</event>
<event>
 4      1 +1.5130300e-07 1.78460000e+03 7.81860800e-03 8.16626200e-02
        2 -1    0    0  501    0 +0.0000000000e+00 +0.0000000000e+00 +2.5048679555e+03 2.5048679555e+03 0.0000000000e+00 0.0000e+00 1.0000e+00
       -2 -1    0    0    0  501 -0.0000000000e+00 -0.0000000000e+00 -3.1786068592e+02 3.1786068592e+02 0.0000000000e+00 0.0000e+00 -1.0000e+00
      -13  1    1    2    0    0 +1.2613737519e+02 -5.4745364148e+02 -3.0060537925e+00 5.6180527174e+02 0.0000000000e+00 0.0000e+00 -1.0000e+00
       13  1    1    2    0    0 -1.2613737519e+02 +5.4745364148e+02 +2.1900133234e+03 2.2609233697e+03 0.0000000000e+00 0.0000e+00 1.0000e+00
<mgrwt>
<rscale>  0 0.17845997E+04</rscale>
<asrwt>0</asrwt>
<pdfrwt beam="1">  1        2 0.38536429E+00 0.17845997E+04</pdfrwt>
<pdfrwt beam="2">  1       -2 0.48901646E-01 0.17845997E+04</pdfrwt>
<totfact> 0.16028388E+01</totfact>
</mgrwt>
<rwgt>
<wgt id='morphing_basis_vector_1'> +2.1738975e-04 </wgt>
<wgt id='morphing_basis_vector_2'> +1.4411428e-04 </wgt>
<wgt id='morphing_basis_vector_3'> +2.2988257e-04 </wgt>
<wgt id='morphing_basis_vector_4'> +1.5830266e-04 </wgt>
<wgt id='morphing_basis_vector_5'> +2.5247070e-04 </wgt>
</rwgt>
</event>
<event>
 4      1 +1.5130300e-07 1.60213200e+03 7.81860800e-03 8.25796900e-02
        2 -1    0    0  501    0 +0.0000000000e+00 +0.0000000000e+00 +1.0607188286e+03 1.0607188286e+03 0.0000000000e+00 0.0000e+00 -1.0000e+00
       -2 -1    0    0    0  501 -0.0000000000e+00 -0.0000000000e+00 -6.0497312211e+02 6.0497312211e+02 0.0000000000e+00 0.0000e+00 1.0000e+00
      -13  1    1    2    0    0 -2.0867271042e+02 -1.3685972745e+02 -5.6352990876e+02 6.1631229352e+02 0.0000000000e+00 0.0000e+00 1.0000e+00
       13  1    1    2    0    0 +2.0867271042e+02 +1.3685972745e+02 +1.0192756152e+03 1.0493796572e+03 0.0000000000e+00 0.0000e+00 -1.0000e+00
<mgrwt>
<rscale>  0 0.16021316E+04</rscale>
<asrwt>0</asrwt>
<pdfrwt beam="1">  1        2 0.16318751E+00 0.16021316E+04</pdfrwt>
<pdfrwt beam="2">  1       -2 0.93072788E-01 0.16021316E+04</pdfrwt>
<totfact> 0.27382672E+01</totfact>
</mgrwt>
<rwgt>
<wgt id='morphing_basis_vector_1'> +1.4284507e-04 </wgt>
<wgt id='morphing_basis_vector_2'> +9.3850031e-05 </wgt>
<wgt id='morphing_basis_vector_3'> +1.4937582e-04 </wgt>
<wgt id='morphing_basis_vector_4'> +1.0178689e-04 </wgt>
<wgt id='morphing_basis_vector_5'> +1.6200787e-04 </wgt>
</rwgt>
</event>
<event>
 4      1 +1.5130300e-07 1.73727000e+03 7.81860800e-03 8.18893400e-02
        2 -1    0    0  501    0 +0.0000000000e+00 +0.0000000000e+00 +6.2748802483e+02 6.2748802483e+02 0.0000000000e+00 0.0000e+00 -1.0000e+00
       -2 -1    0    0    0  501 -0.0000000000e+00 -0.0000000000e+00 -1.2024562790e+03 1.2024562790e+03 0.0000000000e+00 0.0000e+00 1.0000e+00
      -13  1    1    2    0    0 -5.8290725157e+02 +3.9450605145e+02 +2.4869938562e+02 7.4650336434e+02 0.0000000000e+00 0.0000e+00 1.0000e+00
       13  1    1    2    0    0 +5.8290725157e+02 -3.9450605145e+02 -8.2366763979e+02 1.0834409395e+03 0.0000000000e+00 0.0000e+00 -1.0000e+00
<mgrwt>
<rscale>  0 0.17372702E+04</rscale>
<asrwt>0</asrwt>
<pdfrwt beam="1">  1        2 0.96536621E-01 0.17372702E+04</pdfrwt>
<pdfrwt beam="2">  1       -2 0.18499327E+00 0.17372702E+04</pdfrwt>
<totfact> 0.83153088E+00</totfact>
</mgrwt>
<rwgt>
<wgt id='morphing_basis_vector_1'> +2.4022439e-04 </wgt>
<wgt id='morphing_basis_vector_2'> +2.6157286e-04 </wgt>
<wgt id='morphing_basis_vector_3'> +2.6844468e-04 </wgt>
<wgt id='morphing_basis_vector_4'> +5.5673298e-05 </wgt>
<wgt id='morphing_basis_vector_5'> +2.1947130e-04 </wgt>
</rwgt>
</event>
<event>
 4      1 +1.5130300e-07 1.55373900e+03 7.81860800e-03 8.28441100e-02
        2 -1    0    0  501    0 +0.0000000000e+00 +0.0000000000e+00 +2.4554188187e+03 2.4554188187e+03 0.0000000000e+00 0.0000e+00 1.0000e+00
       -2 -1    0    0    0  501 -0.0000000000e+00 -0.0000000000e+00 -2.4579369454e+02 2.4579369454e+02 0.0000000000e+00 0.0000e+00 -1.0000e+00
      -13  1    1    2    0    0 +6.1642251291e+02 -1.9841511097e+01 +2.8354448128e+02 6.7879884565e+02 0.0000000000e+00 0.0000e+00 -1.0000e+00
       13  1    1    2    0    0 -6.1642251291e+02 +1.9841511097e+01 +1.9260806429e+03 2.0224136676e+03 0.0000000000e+00 0.0000e+00 1.0000e+00
<mgrwt>
<rscale>  0 0.15537393E+04</rscale>
<asrwt>0</asrwt>
<pdfrwt beam="1">  1        2 0.37775673E+00 0.15537393E+04</pdfrwt>
<pdfrwt beam="2">  1       -2 0.37814416E-01 0.15537393E+04</pdfrwt>
<totfact> 0.28530473E+01</totfact>
</mgrwt>
<rwgt>
<wgt id='morphing_basis_vector_1'> +1.2714983e-04 </wgt>
<wgt id='morphing_basis_vector_2'> +8.4048651e-05 </wgt>
<wgt id='morphing_basis_vector_3'> +1.3257904e-04 </wgt>
<wgt id='morphing_basis_vector_4'> +8.9125033e-05 </wgt>
<wgt id='morphing_basis_vector_5'> +1.4268552e-04 </wgt>
</rwgt>
</event>
<event>
 4      1 +1.5130300e-07 1.56159400e+03 7.81860800e-03 8.28005200e-02
        2 -1    0    0  501    0 +0.0000000000e+00 +0.0000000000e+00 +7.7135260984e+02 7.7135260984e+02 0.0000000000e+00 0.0000e+00 1.0000e+00
       -2 -1    0    0    0  501 -0.0000000000e+00 -0.0000000000e+00 -7.9035709898e+02 7.9035709898e+02 0.0000000000e+00 0.0000e+00 -1.0000e+00
      -13  1    1    2    0    0 -6.4080750462e+02 +8.8961972337e+01 -4.4667935185e+02 7.8617487486e+02 0.0000000000e+00 0.0000e+00 -1.0000e+00
       13  1    1    2    0    0 +6.4080750462e+02 -8.8961972337e+01 +4.2767486271e+02 7.7553483396e+02 0.0000000000e+00 0.0000e+00 1.0000e+00
<mgrwt>
<rscale>  0 0.15615941E+04</rscale>
<asrwt>0</asrwt>
<pdfrwt beam="1">  1        2 0.11866963E+00 0.15615941E+04</pdfrwt>
<pdfrwt beam="2">  1       -2 0.12159340E+00 0.15615941E+04</pdfrwt>
<totfact> 0.21892716E+01</totfact>
</mgrwt>
<rwgt>
<wgt id='morphing_basis_vector_1'> +1.2975856e-04 </wgt>
<wgt id='morphing_basis_vector_2'> +8.6045179e-05 </wgt>
<wgt id='morphing_basis_vector_3'> +1.3541090e-04 </wgt>
<wgt id='morphing_basis_vector_4'> +9.0803932e-05 </wgt>
<wgt id='morphing_basis_vector_5'> +1.4567695e-04 </wgt>
</rwgt>
</event>
<event>
 4      1 +1.5130300e-07 1.56152900e+03 7.81860800e-03 8.28008800e-02
        2 -1    0    0  501    0 +0.0000000000e+00 +0.0000000000e+00 +1.2169456462e+03 1.2169456462e+03 0.0000000000e+00 0.0000e+00 1.0000e+00
       -2 -1    0    0    0  501 -0.0000000000e+00 -0.0000000000e+00 -5.0092038779e+02 5.0092038779e+02 0.0000000000e+00 0.0000e+00 -1.0000e+00
      -13  1    1    2    0    0 -7.3705715697e+02 +8.8583370794e+01 +6.2407893839e+02 9.6983235024e+02 0.0000000000e+00 0.0000e+00 1.0000e+00
       13  1    1    2    0    0 +7.3705715697e+02 -8.8583370794e+01 +9.1946319976e+01 7.4803368372e+02 0.0000000000e+00 0.0000e+00 -1.0000e+00
<mgrwt>
<rscale>  0 0.15615286E+04</rscale>
<asrwt>0</asrwt>
<pdfrwt beam="1">  1        2 0.18722241E+00 0.15615286E+04</pdfrwt>
<pdfrwt beam="2">  1       -2 0.77064676E-01 0.15615286E+04</pdfrwt>
<totfact> 0.34239840E+01</totfact>
</mgrwt>
<rwgt>
<wgt id='morphing_basis_vector_1'> +1.4281329e-04 </wgt>
<wgt id='morphing_basis_vector_2'> +1.2496420e-04 </wgt>
<wgt id='morphing_basis_vector_3'> +1.5283874e-04 </wgt>
<wgt id='morphing_basis_vector_4'> +6.6109949e-05 </wgt>
<wgt id='morphing_basis_vector_5'> +1.4380018e-04 </wgt>
</rwgt>
</event>
<event>
 4      1 +1.5130300e-07 1.75722700e+03 7.81860800e-03 8.17928500e-02
        2 -1    0    0  501    0 +0.0000000000e+00 +0.0000000000e+00 +4.0176288527e+03 4.0176288527e+03 0.0000000000e+00 0.0000e+00 -1.0000e+00
       -2 -1    0    0    0  501 -0.0000000000e+00 -0.0000000000e+00 -1.9214358102e+02 1.9214358102e+02 0.0000000000e+00 0.0000e+00 1.0000e+00
      -13  1    1    2    0    0 +6.4500848065e+02 -1.3237410869e+02 +5.1911189053e+02 8.3847242033e+02 0.0000000000e+00 0.0000e+00 1.0000e+00
       13  1    1    2    0    0 -6.4500848065e+02 +1.3237410869e+02 +3.3063733812e+03 3.3713000134e+03 0.0000000000e+00 0.0000e+00 -1.0000e+00
<mgrwt>
<rscale>  0 0.17572269E+04</rscale>
<asrwt>0</asrwt>
<pdfrwt beam="1">  1        2 0.61809668E+00 0.17572269E+04</pdfrwt>
<pdfrwt beam="2">  1       -2 0.29560554E-01 0.17572269E+04</pdfrwt>
<totfact> 0.36023378E+00</totfact>
</mgrwt>
<rwgt>
<wgt id='morphing_basis_vector_1'> +2.0489025e-04 </wgt>
<wgt id='morphing_basis_vector_2'> +1.3619106e-04 </wgt>
<wgt id='morphing_basis_vector_3'> +2.1642471e-04 </wgt>
<wgt id='morphing_basis_vector_4'> +1.4817389e-04 </wgt>
<wgt id='morphing_basis_vector_5'> +2.3692291e-04 </wgt>
</rwgt>
</event>
<event>
 4      1 +1.5130300e-07 1.79730300e+03 7.81860800e-03 8.16029800e-02
        2 -1    0    0  501    0 +0.0000000000e+00 +0.0000000000e+00 +1.3198909355e+03 1.3198909355e+03 0.0000000000e+00 0.0000e+00 -1.0000e+00
       -2 -1    0    0    0  501 -0.0000000000e+00 -0.0000000000e+00 -6.1184974528e+02 6.1184974528e+02 0.0000000000e+00 0.0000e+00 1.0000e+00
      -13  1    1    2    0    0 -8.3633767392e+01 +6.0199519520e+02 -3.5744636497e+02 7.0509625295e+02 0.0000000000e+00 0.0000e+00 1.0000e+00
       13  1    1    2    0    0 +8.3633767392e+01 -6.0199519520e+02 +1.0654875552e+03 1.2266444279e+03 0.0000000000e+00 0.0000e+00 -1.0000e+00
<mgrwt>
<rscale>  0 0.17973035E+04</rscale>
<asrwt>0</asrwt>
<pdfrwt beam="1">  1        2 0.20306014E+00 0.17973035E+04</pdfrwt>
<pdfrwt beam="2">  1       -2 0.94130731E-01 0.17973035E+04</pdfrwt>
<totfact> 0.18473103E+01</totfact>
</mgrwt>
<rwgt>
<wgt id='morphing_basis_vector_1'> +2.2355240e-04 </wgt>
<wgt id='morphing_basis_vector_2'> +1.4840997e-04 </wgt>
<wgt id='morphing_basis_vector_3'> +2.3657554e-04 </wgt>
<wgt id='morphing_basis_vector_4'> +1.6284380e-04 </wgt>
<wgt id='morphing_basis_vector_5'> +2.5991309e-04 </wgt>
</rwgt>
</event>
</LesHouchesEvents>
